/*--------------------------------*- C++ -*----------------------------------*\
  =========                 |
  \\      /  F ield         | OpenFOAM: The Open Source CFD Toolbox
   \\    /   O peration     | Website:  https://openfoam.org
    \\  /    A nd           | Version:  6
     \\/     M anipulation  |
\*---------------------------------------------------------------------------*/
FoamFile
{
    version     2.0;
    format      ascii;
    class       volScalarField;
    location    "3.26";
    object      p;
}
// * * * * * * * * * * * * * * * * * * * * * * * * * * * * * * * * * * * * * //

dimensions      [1 -1 -2 0 0 0 0];

internalField   nonuniform List<scalar> 
5625
(
1.03497
1.02822
1.02022
1.01153
1.00261
0.993783
0.985273
0.977157
0.96939
0.96181
0.954128
0.94598
0.93706
0.927168
0.916306
0.90479
0.893145
0.88194
0.871827
0.863576
0.857876
0.855122
0.85548
0.858982
0.865372
0.874043
0.884282
0.895461
0.906931
0.91803
0.92833
0.937812
0.946691
0.955152
0.96329
0.971266
0.979401
0.988088
0.997555
1.00765
1.01778
1.027
1.03432
1.03895
1.04055
1.03933
1.03589
1.03108
1.02571
1.02044
1.0157
1.01171
1.00851
1.00605
1.00423
1.00292
1.00199
1.00135
1.00092
1.00062
1.00043
1.0003
1.00021
1.00015
1.0001
1.00007
1.00005
1.00004
1.00003
1.00002
1.00001
1.00001
1.00001
1
1
1.03718
1.03121
1.02384
1.01562
1.00702
0.998416
0.990063
0.982098
0.974553
0.967361
0.96033
0.953202
0.945758
0.937813
0.929313
0.920425
0.911478
0.902872
0.895099
0.888753
0.884332
0.882105
0.882222
0.884739
0.889449
0.895888
0.903566
0.91205
0.920858
0.929504
0.937741
0.945635
0.953362
0.961011
0.968603
0.976257
0.984253
0.992898
1.00229
1.01215
1.02177
1.03019
1.03648
1.03999
1.04055
1.0385
1.03453
1.02946
1.02408
1.01895
1.01444
1.0107
1.00774
1.00548
1.00383
1.00264
1.0018
1.00123
1.00084
1.00057
1.0004
1.00028
1.0002
1.00014
1.0001
1.00007
1.00005
1.00004
1.00003
1.00002
1.00001
1.00001
1.00001
1
1
1.03914
1.03407
1.02743
1.01977
1.01157
1.00324
0.995072
0.987251
0.979875
0.97294
0.966336
0.959913
0.953519
0.946973
0.940192
0.933263
0.926391
0.919823
0.913906
0.909072
0.905654
0.903836
0.903771
0.905527
0.908926
0.913632
0.919343
0.925777
0.932576
0.939399
0.946135
0.952899
0.959808
0.966869
0.974065
0.981496
0.989402
0.997999
1.00726
1.01676
1.02573
1.03321
1.03836
1.04069
1.04021
1.03737
1.03293
1.02769
1.02236
1.01742
1.01317
1.00969
1.00698
1.00493
1.00343
1.00237
1.00162
1.00111
1.00076
1.00052
1.00036
1.00026
1.00018
1.00013
1.00009
1.00007
1.00005
1.00003
1.00002
1.00002
1.00001
1.00001
1.00001
1
1
1.04076
1.03669
1.03088
1.02388
1.01618
1.00821
1.00027
0.992611
0.985376
0.978618
0.972291
0.966327
0.960612
0.955
0.949412
0.943901
0.938555
0.933497
0.928967
0.925267
0.922603
0.921109
0.92094
0.922149
0.924577
0.928006
0.932283
0.937229
0.942572
0.948102
0.953809
0.95981
0.966161
0.972809
0.979721
0.986996
0.994834
1.00335
1.01238
1.02139
1.02955
1.03594
1.03985
1.04097
1.03948
1.03594
1.03112
1.02579
1.02057
1.01588
1.0119
1.00871
1.00624
1.0044
1.00306
1.00211
1.00145
1.00099
1.00069
1.00048
1.00034
1.00024
1.00017
1.00012
1.00009
1.00006
1.00005
1.00003
1.00002
1.00002
1.00001
1.00001
1.00001
1
1
1.04194
1.03897
1.03411
1.02788
1.02078
1.01324
1.00561
0.99816
0.991072
0.984443
0.978292
0.972604
0.967305
0.962286
0.957498
0.95295
0.948645
0.944632
0.941091
0.938218
0.936112
0.934881
0.934669
0.935501
0.937243
0.939784
0.943073
0.94699
0.951333
0.955995
0.961037
0.966553
0.972534
0.978892
0.9856
0.99276
1.00052
1.00889
1.01757
1.02593
1.0331
1.03827
1.04087
1.04078
1.03834
1.03419
1.0291
1.02378
1.01875
1.01433
1.01066
1.00775
1.00553
1.00389
1.0027
1.00186
1.00128
1.00089
1.00061
1.00043
1.00031
1.00022
1.00016
1.00011
1.00008
1.00006
1.00004
1.00003
1.00002
1.00002
1.00001
1.00001
1
1
1
1.04259
1.04079
1.037
1.03166
1.02526
1.01827
1.01103
1.00385
0.996943
0.990434
0.984405
0.978887
0.973831
0.969167
0.964873
0.960928
0.957281
0.953965
0.951111
0.948813
0.947104
0.946081
0.945863
0.94644
0.947725
0.949694
0.952347
0.955589
0.959287
0.963413
0.968057
0.973277
0.979011
0.985159
0.991711
0.998766
1.00641
1.01453
1.0227
1.03022
1.03625
1.04008
1.04133
1.04008
1.03679
1.03216
1.02692
1.02169
1.01691
1.01281
1.00946
1.00684
1.00486
1.00341
1.00237
1.00164
1.00113
1.00079
1.00055
1.00039
1.00028
1.0002
1.00015
1.00011
1.00008
1.00006
1.00004
1.00003
1.00002
1.00001
1.00001
1.00001
1
1
1
1.04263
1.04206
1.03941
1.03508
1.02953
1.02319
1.01644
1.00961
1.00294
0.996583
0.990677
0.98527
0.980343
0.975874
0.971865
0.968265
0.965016
0.962157
0.959756
0.957817
0.956367
0.955513
0.955315
0.955733
0.95674
0.958379
0.960654
0.963481
0.966789
0.970617
0.975046
0.980083
0.985636
0.991616
0.998032
1.00496
1.01241
1.02014
1.02762
1.03411
1.03884
1.04125
1.04117
1.03885
1.03485
1.02988
1.02462
1.01957
1.01509
1.01133
1.00831
1.00598
1.00424
1.00297
1.00206
1.00143
1.00099
1.00069
1.00049
1.00035
1.00025
1.00018
1.00013
1.0001
1.00007
1.00005
1.00004
1.00003
1.00002
1.00001
1.00001
1.00001
1
1
1
1.04198
1.04266
1.04125
1.03804
1.03344
1.02787
1.02173
1.01535
1.00899
1.00286
0.997099
0.99178
0.986932
0.982587
0.978734
0.975309
0.972288
0.969706
0.967565
0.965839
0.964573
0.963848
0.963671
0.964003
0.964875
0.966353
0.968423
0.971013
0.974113
0.977798
0.982117
0.987026
0.992421
0.998244
1.00452
1.01127
1.0184
1.02556
1.03215
1.03742
1.04073
1.0417
1.04036
1.03711
1.03256
1.02741
1.02223
1.01746
1.01332
1.00992
1.00723
1.00518
1.00366
1.00256
1.00178
1.00124
1.00086
1.00061
1.00043
1.00031
1.00023
1.00017
1.00012
1.00009
1.00007
1.00005
1.00004
1.00003
1.00002
1.00001
1.00001
1.00001
1
1
1
1.0406
1.0425
1.04236
1.04036
1.03684
1.03217
1.02676
1.02094
1.015
1.00917
1.00361
0.998411
0.99366
0.989408
0.985628
0.982283
0.979391
0.976965
0.974964
0.973365
0.972227
0.971589
0.971429
0.971737
0.972575
0.973994
0.975963
0.978437
0.981445
0.985065
0.989312
0.994105
0.999345
1.005
1.01107
1.01755
1.02421
1.03061
1.03609
1.03998
1.04179
1.04136
1.03889
1.03488
1.02998
1.0248
1.01982
1.01538
1.01163
1.00859
1.00623
1.00444
1.00313
1.00219
1.00153
1.00106
1.00075
1.00053
1.00038
1.00028
1.0002
1.00015
1.00011
1.00008
1.00006
1.00004
1.00003
1.00002
1.00002
1.00001
1.00001
1.00001
1
1
1
1.03851
1.04153
1.04266
1.04193
1.03958
1.03595
1.03139
1.02626
1.02085
1.01542
1.01013
1.00512
1.00051
0.996342
0.992607
0.989326
0.98652
0.98417
0.982233
0.98072
0.979678
0.9791
0.97896
0.979287
0.980145
0.981553
0.983471
0.985893
0.988874
0.992463
0.99663
1.00128
1.00634
1.01178
1.01759
1.02365
1.02964
1.03505
1.03923
1.04163
1.04195
1.04022
1.0368
1.03225
1.02718
1.02212
1.01745
1.01339
1.01003
1.00736
1.00531
1.00377
1.00266
1.00186
1.0013
1.00091
1.00064
1.00046
1.00033
1.00024
1.00018
1.00013
1.0001
1.00007
1.00006
1.00004
1.00003
1.00002
1.00001
1.00001
1.00001
1
1
1
1
1.03575
1.03972
1.04206
1.04262
1.04152
1.03902
1.03545
1.03113
1.02638
1.02145
1.01654
1.01181
1.0074
1.00335
0.999697
0.996497
0.993757
0.991443
0.989548
0.988104
0.987126
0.986584
0.986473
0.986848
0.987749
0.989156
0.991047
0.99345
0.996419
0.999961
1.00401
1.00848
1.01331
1.01847
1.02388
1.02934
1.03445
1.03864
1.04137
1.04225
1.04116
1.03832
1.03419
1.02932
1.02426
1.01945
1.01515
1.01151
1.00855
1.00624
1.00448
1.00318
1.00223
1.00157
1.0011
1.00077
1.00055
1.0004
1.00029
1.00022
1.00016
1.00012
1.00009
1.00007
1.00005
1.00004
1.00003
1.00002
1.00001
1.00001
1.00001
1
1
1
1
1.03244
1.03712
1.04051
1.04232
1.04251
1.04123
1.03875
1.03538
1.03141
1.0271
1.02268
1.01834
1.0142
1.01034
1.00683
1.00374
1.00107
0.998806
0.99697
0.995591
0.994656
0.994143
0.994075
0.994501
0.995429
0.996832
0.998705
1.00109
1.00402
1.00747
1.01135
1.01558
1.0201
1.02486
1.02972
1.03437
1.03836
1.04117
1.04238
1.04178
1.03946
1.03575
1.03115
1.02619
1.02132
1.01685
1.01298
1.00977
1.00721
1.00523
1.00374
1.00265
1.00186
1.00131
1.00092
1.00065
1.00047
1.00034
1.00025
1.00019
1.00014
1.00011
1.00008
1.00006
1.00004
1.00003
1.00002
1.00002
1.00001
1.00001
1.00001
1
1
1
1
1.02874
1.03384
1.03805
1.04098
1.04242
1.04241
1.04111
1.0388
1.03573
1.03219
1.02839
1.02452
1.02075
1.01717
1.01389
1.01095
1.00838
1.00621
1.00446
1.00315
1.00225
1.00177
1.00175
1.00222
1.00316
1.00454
1.00639
1.00874
1.01158
1.01486
1.01849
1.02239
1.02651
1.03072
1.03482
1.03844
1.04112
1.04245
1.04217
1.04025
1.03694
1.03264
1.02784
1.02299
1.01843
1.01439
1.01097
1.00819
1.006
1.00433
1.00309
1.00218
1.00154
1.00109
1.00077
1.00055
1.0004
1.00029
1.00022
1.00016
1.00012
1.00009
1.00007
1.00005
1.00004
1.00003
1.00002
1.00002
1.00001
1.00001
1.00001
1
1
1
1
1.02488
1.03006
1.0348
1.03861
1.04119
1.04243
1.04237
1.0412
1.03916
1.03649
1.03342
1.03016
1.02686
1.02367
1.02069
1.01797
1.01557
1.01353
1.01189
1.01065
1.00981
1.00939
1.00942
1.0099
1.01082
1.01216
1.01397
1.01623
1.01891
1.02194
1.02523
1.0287
1.03227
1.03576
1.03888
1.04126
1.04252
1.04238
1.04075
1.03777
1.03376
1.02917
1.0244
1.01982
1.01568
1.0121
1.00914
1.00678
1.00494
1.00355
1.00253
1.00179
1.00126
1.00089
1.00064
1.00046
1.00034
1.00025
1.00019
1.00014
1.00011
1.00008
1.00006
1.00005
1.00004
1.00003
1.00002
1.00001
1.00001
1.00001
1
1
1
1
1
1.02108
1.02605
1.03095
1.03535
1.03884
1.0412
1.04236
1.04239
1.04146
1.03977
1.03756
1.03502
1.03232
1.02961
1.02701
1.0246
1.02244
1.0206
1.0191
1.01796
1.0172
1.01684
1.01691
1.01739
1.01826
1.01955
1.02125
1.02335
1.02578
1.02846
1.0313
1.03422
1.03706
1.03962
1.04158
1.04262
1.04246
1.04098
1.03825
1.03451
1.03014
1.02552
1.02098
1.0168
1.01313
1.01004
1.00752
1.00554
1.00402
1.00288
1.00205
1.00145
1.00103
1.00073
1.00053
1.00038
1.00028
1.00021
1.00016
1.00012
1.00009
1.00007
1.00006
1.00004
1.00003
1.00002
1.00002
1.00001
1.00001
1.00001
1
1
1
1
1
1.0175
1.02204
1.0268
1.03142
1.03552
1.03877
1.04101
1.04221
1.04243
1.04182
1.04056
1.03885
1.03686
1.03474
1.03262
1.03059
1.02876
1.02716
1.02585
1.02484
1.02419
1.02391
1.024
1.02445
1.02527
1.02645
1.02798
1.02983
1.03191
1.03413
1.0364
1.03859
1.04055
1.04201
1.04271
1.0424
1.04095
1.03838
1.03488
1.03074
1.02629
1.02186
1.01771
1.014
1.01083
1.0082
1.0061
1.00447
1.00323
1.00231
1.00164
1.00116
1.00083
1.00059
1.00043
1.00032
1.00024
1.00018
1.00014
1.00011
1.00008
1.00006
1.00005
1.00004
1.00003
1.00002
1.00001
1.00001
1.00001
1.00001
1
1
1
1
1
1.01426
1.01826
1.02263
1.02715
1.03148
1.03532
1.0384
1.04061
1.04192
1.0424
1.04216
1.04137
1.04018
1.03876
1.03721
1.03567
1.03423
1.03294
1.03186
1.03105
1.03052
1.03031
1.0304
1.03081
1.03153
1.03255
1.03384
1.03533
1.03694
1.03858
1.04015
1.04149
1.04241
1.0427
1.04216
1.04065
1.03818
1.03486
1.03094
1.0267
1.02243
1.01836
1.01468
1.01148
1.00879
1.00661
1.00488
1.00356
1.00256
1.00183
1.0013
1.00092
1.00066
1.00048
1.00035
1.00026
1.0002
1.00015
1.00012
1.00009
1.00007
1.00005
1.00004
1.00003
1.00002
1.00002
1.00001
1.00001
1.00001
1
1
1
1
1
1
1.01144
1.01483
1.01868
1.02284
1.02709
1.03114
1.03474
1.03771
1.03994
1.04141
1.04217
1.04233
1.04201
1.04136
1.04048
1.0395
1.03851
1.0376
1.03681
1.03622
1.03583
1.03568
1.03578
1.03611
1.03669
1.03748
1.03843
1.03948
1.04052
1.04148
1.04223
1.04262
1.04249
1.04166
1.04004
1.03761
1.03445
1.03074
1.02672
1.02265
1.01873
1.01513
1.01196
1.00926
1.00703
1.00525
1.00386
1.0028
1.00201
1.00143
1.00102
1.00073
1.00053
1.00038
1.00029
1.00022
1.00017
1.00013
1.0001
1.00008
1.00006
1.00005
1.00004
1.00003
1.00002
1.00001
1.00001
1.00001
1.00001
1
1
1
1
1
1
1.00904
1.01184
1.01512
1.01878
1.02268
1.02663
1.0304
1.0338
1.03667
1.03893
1.04056
1.04161
1.04215
1.04228
1.04211
1.04175
1.04128
1.04078
1.04033
1.03997
1.03974
1.03966
1.03974
1.03998
1.04036
1.04085
1.04139
1.04191
1.04233
1.04254
1.04245
1.04191
1.04081
1.03906
1.03664
1.03362
1.03013
1.02636
1.02251
1.01878
1.01532
1.01224
1.00957
1.00735
1.00554
1.00411
1.003
1.00217
1.00156
1.00111
1.00079
1.00057
1.00041
1.00031
1.00023
1.00018
1.00014
1.00011
1.00008
1.00007
1.00005
1.00004
1.00003
1.00002
1.00002
1.00001
1.00001
1.00001
1
1
1
1
1
1
1
1.00705
1.00932
1.01201
1.01511
1.01854
1.02215
1.02579
1.02928
1.03247
1.03523
1.03751
1.03927
1.04056
1.04142
1.04193
1.04218
1.04224
1.04219
1.04208
1.04198
1.0419
1.04189
1.04193
1.04204
1.0422
1.04235
1.04244
1.04242
1.0422
1.04169
1.04082
1.03949
1.03764
1.03525
1.03237
1.0291
1.02559
1.02202
1.01852
1.01525
1.0123
1.00972
1.00754
1.00574
1.0043
1.00317
1.00231
1.00166
1.00119
1.00085
1.00061
1.00044
1.00032
1.00024
1.00018
1.00014
1.00011
1.00009
1.00007
1.00006
1.00004
1.00003
1.00003
1.00002
1.00001
1.00001
1.00001
1.00001
1
1
1
1
1
1
1
1.00543
1.00723
1.0094
1.01195
1.01483
1.01798
1.02127
1.02459
1.02779
1.03075
1.03337
1.03561
1.03744
1.03889
1.03997
1.04076
1.04131
1.04167
1.04189
1.04203
1.0421
1.04214
1.04215
1.04212
1.04203
1.04185
1.04151
1.04098
1.0402
1.0391
1.03762
1.03573
1.03341
1.0307
1.02768
1.02446
1.02117
1.01795
1.01491
1.01214
1.00969
1.00759
1.00584
1.00441
1.00328
1.00241
1.00174
1.00125
1.0009
1.00064
1.00046
1.00034
1.00025
1.00019
1.00015
1.00012
1.00009
1.00007
1.00006
1.00005
1.00004
1.00003
1.00002
1.00002
1.00001
1.00001
1.00001
1
1
1
1
1
1
1
1
1.00412
1.00553
1.00725
1.0093
1.01165
1.01428
1.01713
1.02009
1.02306
1.02595
1.02865
1.03108
1.03322
1.03503
1.03652
1.03771
1.03864
1.03933
1.03983
1.04017
1.04038
1.04046
1.04042
1.04026
1.03996
1.03948
1.0388
1.03787
1.03667
1.03516
1.03331
1.03112
1.02862
1.02588
1.02297
1.02001
1.01709
1.01431
1.01176
1.00948
1.0075
1.00583
1.00445
1.00334
1.00247
1.0018
1.0013
1.00093
1.00067
1.00048
1.00035
1.00026
1.00019
1.00015
1.00012
1.00009
1.00007
1.00006
1.00005
1.00004
1.00003
1.00002
1.00002
1.00001
1.00001
1.00001
1.00001
1
1
1
1
1
1
1
1
1.0031
1.00419
1.00552
1.00713
1.00901
1.01114
1.0135
1.01602
1.01864
1.02125
1.0238
1.0262
1.0284
1.03036
1.03205
1.03347
1.03463
1.03555
1.03624
1.03672
1.03701
1.03712
1.03704
1.03678
1.03632
1.03565
1.03473
1.03356
1.03213
1.03041
1.02842
1.02618
1.02375
1.02118
1.01855
1.01597
1.01349
1.01118
1.0091
1.00727
1.0057
1.00439
1.00333
1.00248
1.00182
1.00132
1.00095
1.00068
1.00049
1.00035
1.00026
1.00019
1.00015
1.00012
1.00009
1.00007
1.00006
1.00005
1.00004
1.00003
1.00002
1.00002
1.00001
1.00001
1.00001
1.00001
1
1
1
1
1
1
1
1
1
1.00231
1.00313
1.00416
1.0054
1.00686
1.00855
1.01045
1.01252
1.01471
1.01697
1.01922
1.02142
1.02349
1.0254
1.02711
1.02859
1.02984
1.03085
1.03163
1.03219
1.03253
1.03265
1.03255
1.03222
1.03168
1.0309
1.02988
1.02862
1.02712
1.02539
1.02346
1.02136
1.01914
1.01688
1.01463
1.01245
1.01042
1.00856
1.0069
1.00547
1.00425
1.00325
1.00244
1.00181
1.00132
1.00095
1.00068
1.00049
1.00035
1.00026
1.00019
1.00014
1.00011
1.00009
1.00007
1.00006
1.00005
1.00004
1.00003
1.00003
1.00002
1.00002
1.00001
1.00001
1.00001
1
1
1
1
1
1
1
1
1
1
1.0017
1.00232
1.00309
1.00404
1.00517
1.00648
1.00796
1.00961
1.01138
1.01325
1.01515
1.01704
1.01888
1.0206
1.02219
1.02359
1.02481
1.02581
1.0266
1.02717
1.0275
1.02762
1.02751
1.02717
1.02661
1.02581
1.0248
1.02358
1.02215
1.02055
1.0188
1.01694
1.01504
1.01313
1.01127
1.00951
1.00788
1.00642
1.00513
1.00403
1.00311
1.00236
1.00176
1.00129
1.00094
1.00067
1.00048
1.00034
1.00025
1.00018
1.00014
1.00011
1.00008
1.00007
1.00006
1.00005
1.00004
1.00003
1.00003
1.00002
1.00002
1.00001
1.00001
1.00001
1.00001
1
1
1
1
1
1
1
1
1
1
1.00124
1.00171
1.00229
1.00299
1.00384
1.00484
1.00599
1.00726
1.00866
1.01015
1.01169
1.01325
1.01479
1.01627
1.01765
1.0189
1.01999
1.02091
1.02163
1.02216
1.02248
1.02258
1.02247
1.02215
1.02161
1.02088
1.01995
1.01883
1.01757
1.01617
1.01467
1.01311
1.01154
1.00999
1.0085
1.00711
1.00585
1.00472
1.00374
1.00291
1.00223
1.00167
1.00124
1.0009
1.00065
1.00046
1.00033
1.00024
1.00017
1.00013
1.0001
1.00008
1.00006
1.00005
1.00004
1.00004
1.00003
1.00003
1.00002
1.00002
1.00001
1.00001
1.00001
1.00001
1
1
1
1
1
1
1
1
1
1
1
1.00091
1.00125
1.00167
1.0022
1.00283
1.00358
1.00444
1.00542
1.00649
1.00765
1.00886
1.01011
1.01135
1.01256
1.0137
1.01475
1.01568
1.01647
1.01709
1.01755
1.01782
1.01791
1.01781
1.01752
1.01705
1.0164
1.0156
1.01464
1.01357
1.0124
1.01117
1.00991
1.00866
1.00743
1.00628
1.00521
1.00425
1.0034
1.00267
1.00206
1.00156
1.00116
1.00085
1.00061
1.00043
1.00031
1.00022
1.00016
1.00011
1.00009
1.00007
1.00006
1.00005
1.00004
1.00003
1.00003
1.00002
1.00002
1.00002
1.00001
1.00001
1.00001
1.00001
1
1
1
1
1
1
1
1
1
1
1
1
1.00066
1.00091
1.00122
1.0016
1.00207
1.00262
1.00326
1.00399
1.0048
1.00568
1.00661
1.00757
1.00855
1.0095
1.01041
1.01126
1.01201
1.01266
1.01317
1.01354
1.01377
1.01384
1.01375
1.0135
1.0131
1.01256
1.01189
1.01111
1.01024
1.0093
1.00832
1.00733
1.00636
1.00542
1.00454
1.00373
1.00302
1.00239
1.00186
1.00142
1.00106
1.00078
1.00056
1.0004
1.00028
1.0002
1.00014
1.0001
1.00007
1.00006
1.00005
1.00004
1.00003
1.00003
1.00002
1.00002
1.00002
1.00002
1.00001
1.00001
1.00001
1.00001
1
1
1
1
1
1
1
1
1
1
1
1
1
1.00048
1.00066
1.00088
1.00116
1.00151
1.00191
1.00238
1.00291
1.00351
1.00417
1.00487
1.00559
1.00633
1.00706
1.00777
1.00842
1.00901
1.00952
1.00993
1.01022
1.01039
1.01044
1.01036
1.01016
1.00983
1.0094
1.00886
1.00824
1.00755
1.00682
1.00606
1.00531
1.00456
1.00386
1.00321
1.00261
1.00209
1.00164
1.00126
1.00095
1.0007
1.0005
1.00035
1.00025
1.00017
1.00012
1.00008
1.00006
1.00005
1.00004
1.00003
1.00003
1.00002
1.00002
1.00002
1.00002
1.00001
1.00001
1.00001
1.00001
1.00001
1.00001
1
1
1
1
1
1
1
1
1
1
1
1
1
1.00035
1.00048
1.00064
1.00085
1.00109
1.00138
1.00172
1.00211
1.00255
1.00303
1.00354
1.00407
1.00462
1.00517
1.0057
1.0062
1.00664
1.00703
1.00733
1.00756
1.00769
1.00772
1.00765
1.00748
1.00722
1.00688
1.00646
1.00598
1.00545
1.0049
1.00432
1.00376
1.00321
1.00269
1.00221
1.00178
1.00141
1.00109
1.00082
1.00061
1.00044
1.00031
1.00021
1.00014
1.00009
1.00006
1.00004
1.00003
1.00002
1.00002
1.00002
1.00002
1.00002
1.00002
1.00001
1.00001
1.00001
1.00001
1.00001
1.00001
1
1
1
1
1
1
1
1
1
1
1
1
1
1
1
1.00026
1.00035
1.00047
1.00061
1.00079
1.001
1.00124
1.00152
1.00183
1.00218
1.00255
1.00294
1.00334
1.00374
1.00412
1.00449
1.00482
1.0051
1.00532
1.00548
1.00558
1.00559
1.00553
1.0054
1.0052
1.00493
1.00461
1.00425
1.00385
1.00343
1.00301
1.0026
1.0022
1.00182
1.00148
1.00118
1.00092
1.00069
1.00051
1.00037
1.00026
1.00017
1.00011
1.00007
1.00004
1.00003
1.00002
1.00001
1.00001
1.00001
1.00001
1.00001
1.00001
1.00001
1.00001
1.00001
1.00001
1.00001
1.00001
1
1
1
1
1
1
1
1
1
1
1
1
1
1
1
1
1.00019
1.00026
1.00035
1.00045
1.00057
1.00072
1.00089
1.00109
1.00131
1.00156
1.00182
1.0021
1.00238
1.00267
1.00295
1.00321
1.00344
1.00364
1.0038
1.00392
1.00397
1.00398
1.00393
1.00382
1.00367
1.00346
1.00322
1.00295
1.00266
1.00235
1.00205
1.00175
1.00146
1.0012
1.00096
1.00075
1.00057
1.00042
1.0003
1.0002
1.00013
1.00008
1.00005
1.00002
1.00001
1
1
1
1
1
1.00001
1.00001
1.00001
1.00001
1.00001
1.00001
1.00001
1.00001
1
1
1
1
1
1
1
1
1
1
1
1
1
1
1
1
1
1.00015
1.00019
1.00026
1.00033
1.00042
1.00052
1.00064
1.00078
1.00094
1.00111
1.0013
1.00149
1.00169
1.00189
1.00208
1.00227
1.00243
1.00257
1.00267
1.00275
1.00279
1.00278
1.00274
1.00265
1.00254
1.00239
1.00221
1.00201
1.00179
1.00157
1.00135
1.00114
1.00094
1.00075
1.00059
1.00045
1.00033
1.00023
1.00016
1.0001
1.00005
1.00002
1.00001
0.999995
0.99999
0.999989
0.999991
0.999994
0.999997
0.999999
1
1
1
1
1
1
1
1
1
1
1
1
1
1
1
1
1
1
1
1
1
1
1
1
1
1.00011
1.00015
1.0002
1.00025
1.00031
1.00038
1.00047
1.00057
1.00067
1.00079
1.00092
1.00105
1.00119
1.00133
1.00146
1.00158
1.00169
1.00179
1.00186
1.0019
1.00192
1.00191
1.00187
1.00181
1.00171
1.0016
1.00147
1.00133
1.00117
1.00102
1.00086
1.00071
1.00058
1.00045
1.00034
1.00025
1.00017
1.00011
1.00006
1.00003
1
0.99999
0.999982
0.999979
0.99998
0.999982
0.999986
0.99999
0.999993
0.999996
0.999999
1
1
1
1
1
1
1
1
1
1
1
1
1
1
1
1
1
1
1
1
1
1
1
1
1.00009
1.00012
1.00015
1.00019
1.00023
1.00028
1.00034
1.00041
1.00049
1.00057
1.00065
1.00074
1.00084
1.00093
1.00102
1.0011
1.00117
1.00123
1.00127
1.0013
1.0013
1.00129
1.00126
1.00121
1.00114
1.00105
1.00096
1.00085
1.00074
1.00063
1.00053
1.00042
1.00033
1.00025
1.00018
1.00012
1.00007
1.00003
1
0.999985
0.999974
0.999969
0.999968
0.99997
0.999974
0.999978
0.999983
0.999988
0.999992
0.999996
0.999998
1
1
1
1
1
1
1
1
1
1
1
1
1
1
1
1
1
1
1
1
1
1
1
1
1.00007
1.00009
1.00012
1.00014
1.00017
1.00021
1.00026
1.0003
1.00035
1.00041
1.00047
1.00053
1.00059
1.00065
1.0007
1.00076
1.0008
1.00084
1.00086
1.00087
1.00087
1.00086
1.00083
1.00079
1.00073
1.00067
1.0006
1.00053
1.00045
1.00037
1.0003
1.00023
1.00017
1.00012
1.00007
1.00003
1.00001
0.999985
0.999972
0.999964
0.99996
0.99996
0.999963
0.999968
0.999973
0.999978
0.999983
0.999987
0.999991
0.999994
0.999996
0.999998
1
1
1
1
1
1
1
1
1
1
1
1
1
1
1
1
1
1
1
1
1
1
1
1.00006
1.00007
1.00009
1.00011
1.00014
1.00016
1.00019
1.00022
1.00026
1.0003
1.00033
1.00038
1.00042
1.00045
1.00049
1.00052
1.00055
1.00057
1.00058
1.00058
1.00057
1.00056
1.00053
1.0005
1.00046
1.00042
1.00036
1.00031
1.00026
1.00021
1.00016
1.00011
1.00007
1.00004
1.00001
0.999987
0.999971
0.99996
0.999954
0.999953
0.999954
0.999957
0.999962
0.999968
0.999973
0.999979
0.999983
0.999988
0.999992
0.999995
0.999997
0.999998
0.999999
1
1
1
1
1
1
1
1
1
1
1
1
1
1
1
1
1
1
1
1
1
1
1.00004
1.00006
1.00007
1.00008
1.0001
1.00012
1.00015
1.00017
1.00019
1.00022
1.00024
1.00027
1.00029
1.00032
1.00034
1.00036
1.00037
1.00038
1.00039
1.00038
1.00037
1.00036
1.00034
1.00031
1.00028
1.00025
1.00021
1.00017
1.00013
1.0001
1.00007
1.00004
1.00001
0.999989
0.999973
0.999961
0.999954
0.999949
0.999948
0.99995
0.999954
0.999959
0.999964
0.99997
0.999975
0.999981
0.999985
0.999989
0.999992
0.999995
0.999997
0.999998
0.999999
1
1
1
1
1
1
1
1
1
1
1
1
1
1
1
1
1
1
1
1
1
1
1.00004
1.00004
1.00005
1.00007
1.00008
1.00009
1.00011
1.00013
1.00014
1.00016
1.00018
1.0002
1.00021
1.00023
1.00024
1.00025
1.00026
1.00026
1.00025
1.00025
1.00024
1.00023
1.00021
1.00019
1.00016
1.00014
1.00011
1.00008
1.00006
1.00003
1.00001
0.999993
0.999977
0.999964
0.999955
0.999949
0.999947
0.999947
0.999949
0.999953
0.999957
0.999962
0.999968
0.999973
0.999978
0.999983
0.999987
0.999991
0.999994
0.999996
0.999997
0.999998
0.999999
1
1
1
1
1
1
1
1
1
1
1
1
1
1
1
1
1
1
1
1
1
1
1.00003
1.00004
1.00004
1.00005
1.00007
1.00008
1.00009
1.0001
1.00011
1.00012
1.00013
1.00014
1.00015
1.00016
1.00017
1.00017
1.00018
1.00018
1.00017
1.00016
1.00015
1.00014
1.00013
1.00011
1.00009
1.00007
1.00005
1.00003
1.00001
0.999997
0.999982
0.99997
0.999961
0.999955
0.99995
0.999948
0.999947
0.999949
0.999952
0.999957
0.999962
0.999967
0.999972
0.999977
0.999982
0.999986
0.999989
0.999992
0.999994
0.999996
0.999997
0.999998
0.999999
0.999999
1
1
1
1
1
1
1
1
1
1
1
1
1
1
1
1
1
1
1
1
1
1.00002
1.00003
1.00004
1.00005
1.00005
1.00006
1.00007
1.00008
1.00009
1.00009
1.0001
1.00011
1.00011
1.00012
1.00012
1.00012
1.00012
1.00012
1.00011
1.00011
1.0001
1.00009
1.00007
1.00006
1.00005
1.00003
1.00002
1
0.999989
0.999978
0.999969
0.99996
0.999955
0.999952
0.99995
0.99995
0.999952
0.999955
0.999959
0.999963
0.999967
0.999971
0.999976
0.99998
0.999984
0.999988
0.999991
0.999993
0.999995
0.999997
0.999998
0.999999
0.999999
0.999999
1
1
1
1
1
1
1
1
1
1
1
1
1
1
1
1
1
1
1
1
1
1.00002
1.00002
1.00003
1.00003
1.00004
1.00005
1.00005
1.00006
1.00006
1.00007
1.00008
1.00008
1.00008
1.00009
1.00009
1.00009
1.00009
1.00008
1.00008
1.00007
1.00006
1.00005
1.00004
1.00003
1.00002
1.00001
0.999998
0.999988
0.999978
0.999971
0.999965
0.999961
0.999957
0.999955
0.999955
0.999956
0.999957
0.99996
0.999964
0.999968
0.999973
0.999977
0.999981
0.999984
0.999987
0.999989
0.999992
0.999994
0.999995
0.999997
0.999998
0.999999
0.999999
1
1
1
1
1
1
1
1
1
1
1
1
1
1
1
1
1
1
1
1
1
1
1.00001
1.00002
1.00002
1.00003
1.00003
1.00004
1.00004
1.00005
1.00005
1.00005
1.00006
1.00006
1.00006
1.00007
1.00006
1.00006
1.00006
1.00006
1.00005
1.00005
1.00004
1.00003
1.00002
1.00001
1.00001
0.999996
0.999988
0.99998
0.999974
0.999969
0.999964
0.999961
0.99996
0.99996
0.999961
0.999963
0.999965
0.999968
0.999971
0.999974
0.999977
0.99998
0.999984
0.999987
0.99999
0.999992
0.999994
0.999996
0.999997
0.999998
0.999998
0.999999
0.999999
1
1
1
1
1
1
1
1
1
1
1
1
1
1
1
1
1
1
1
1
1
1
1.00001
1.00001
1.00002
1.00002
1.00002
1.00003
1.00003
1.00004
1.00004
1.00004
1.00004
1.00005
1.00005
1.00005
1.00005
1.00005
1.00004
1.00004
1.00004
1.00003
1.00003
1.00002
1.00001
1
0.999997
0.999991
0.999985
0.99998
0.999975
0.999972
0.999969
0.999967
0.999966
0.999966
0.999966
0.999967
0.99997
0.999973
0.999976
0.99998
0.999983
0.999985
0.999988
0.99999
0.999992
0.999994
0.999995
0.999996
0.999997
0.999998
0.999999
0.999999
0.999999
1
1
1
1
1
1
1
1
1
1
1
1
1
1
1
1
1
1
1
1
1
1
1.00001
1.00001
1.00001
1.00002
1.00002
1.00002
1.00003
1.00003
1.00003
1.00003
1.00003
1.00004
1.00004
1.00004
1.00004
1.00003
1.00003
1.00003
1.00002
1.00002
1.00002
1.00001
1.00001
1
0.999994
0.999988
0.999984
0.99998
0.999977
0.999974
0.999973
0.999972
0.999971
0.999972
0.999974
0.999976
0.999977
0.999979
0.99998
0.999983
0.999985
0.999988
0.99999
0.999992
0.999994
0.999995
0.999996
0.999997
0.999998
0.999999
0.999999
0.999999
1
1
1
1
1
1
1
1
1
1
1
1
1
1
1
1
1
1
1
1
1
1
1
1.00001
1.00001
1.00001
1.00001
1.00001
1.00002
1.00002
1.00002
1.00002
1.00003
1.00003
1.00003
1.00003
1.00003
1.00003
1.00003
1.00002
1.00002
1.00002
1.00002
1.00001
1.00001
1
0.999998
0.999994
0.99999
0.999987
0.999984
0.999981
0.999978
0.999977
0.999977
0.999977
0.999977
0.999978
0.999979
0.999981
0.999983
0.999986
0.999988
0.999989
0.999991
0.999992
0.999993
0.999995
0.999996
0.999997
0.999997
0.999998
0.999998
0.999999
0.999999
1
1
1
1
1
1
1
1
1
1
1
1
1
1
1
1
1
1
1
1
1
1
1
1
1.00001
1.00001
1.00001
1.00001
1.00001
1.00001
1.00002
1.00002
1.00002
1.00002
1.00002
1.00002
1.00002
1.00002
1.00002
1.00002
1.00002
1.00001
1.00001
1.00001
1
1
0.999996
0.999993
0.999991
0.999988
0.999985
0.999984
0.999983
0.999982
0.999982
0.999982
0.999983
0.999984
0.999985
0.999986
0.999987
0.999988
0.99999
0.999991
0.999993
0.999994
0.999995
0.999996
0.999997
0.999998
0.999999
0.999999
0.999999
0.999999
0.999999
1
1
1
1
1
1
1
1
1
1
1
1
1
1
1
1
1
1
1
1
1
1
1
1
1
1.00001
1.00001
1.00001
1.00001
1.00001
1.00001
1.00001
1.00001
1.00002
1.00002
1.00002
1.00002
1.00001
1.00001
1.00001
1.00001
1.00001
1.00001
1
1
1
0.999997
0.999995
0.999993
0.99999
0.999989
0.999987
0.999986
0.999986
0.999986
0.999985
0.999986
0.999987
0.999988
0.999989
0.99999
0.999991
0.999992
0.999994
0.999994
0.999995
0.999996
0.999997
0.999998
0.999998
0.999998
0.999999
0.999999
1
1
1
1
1
1
1
1
1
1
1
1
1
1
1
1
1
1
1
1
1
1
1
1
1
1
1
1
1.00001
1.00001
1.00001
1.00001
1.00001
1.00001
1.00001
1.00001
1.00001
1.00001
1.00001
1.00001
1.00001
1.00001
1.00001
1.00001
1.00001
1
1
0.999999
0.999997
0.999995
0.999993
0.999992
0.999991
0.999991
0.99999
0.999989
0.999989
0.999989
0.99999
0.999991
0.999991
0.999992
0.999992
0.999993
0.999994
0.999995
0.999996
0.999997
0.999997
0.999998
0.999998
0.999999
0.999999
0.999999
0.999999
0.999999
1
1
1
1
1
1
1
1
1
1
1
1
1
1
1
1
1
1
1
1
1
1
1
1
1
1
1
1
1
1.00001
1.00001
1.00001
1.00001
1.00001
1.00001
1.00001
1.00001
1.00001
1.00001
1.00001
1.00001
1.00001
1
1
1
1
0.999999
0.999998
0.999997
0.999996
0.999994
0.999993
0.999992
0.999992
0.999992
0.999992
0.999992
0.999992
0.999992
0.999993
0.999994
0.999995
0.999995
0.999996
0.999996
0.999997
0.999997
0.999998
0.999999
0.999999
0.999999
0.999999
1
1
1
1
1
1
1
1
1
1
1
1
1
1
1
1
1
1
1
1
1
1
1
1
1
1
1
1
1
1
1
1
1
1
1
1.00001
1.00001
1.00001
1.00001
1.00001
1.00001
1.00001
1.00001
1
1
1
1
1
1
0.999999
0.999998
0.999997
0.999996
0.999995
0.999995
0.999995
0.999994
0.999994
0.999994
0.999994
0.999994
0.999995
0.999995
0.999996
0.999996
0.999996
0.999996
0.999997
0.999998
0.999998
0.999999
0.999999
0.999999
0.999999
0.999999
1
1
1
1
1
1
1
1
1
1
1
1
1
1
1
1
1
1
1
1
1
1
1
1
1
1
1
1
1
1
1
1
1
1
1
1
1
1
1
1
1
1
1
1
1
1
1
1
1
1
0.999999
0.999998
0.999997
0.999997
0.999997
0.999996
0.999995
0.999995
0.999995
0.999996
0.999996
0.999996
0.999996
0.999997
0.999997
0.999997
0.999998
0.999998
0.999999
0.999999
0.999999
0.999999
0.999999
0.999999
1
1
1
1
1
1
1
1
1
1
1
1
1
1
1
1
1
1
1
1
1
1
1
1
1
1
1
1
1
1
1
1
1
1
1
1
1
1
1
1
1
1
1
1
1
1
1
1
1
1
0.999999
0.999999
0.999999
0.999998
0.999998
0.999997
0.999997
0.999997
0.999997
0.999997
0.999997
0.999997
0.999997
0.999997
0.999997
0.999998
0.999998
0.999999
0.999999
0.999999
0.999999
0.999999
0.999999
1
1
1
1
1
1
1
1
1
1
1
1
1
1
1
1
1
1
1
1
1
1
1
1
1
1
1
1
1
1
1
1
1
1
1
1
1
1
1
1
1
1
1
1
1
1
1
1
1
1
1
1
1
0.999999
0.999999
0.999999
0.999998
0.999998
0.999998
0.999998
0.999998
0.999997
0.999997
0.999998
0.999998
0.999999
0.999999
0.999999
0.999999
0.999999
0.999999
0.999999
0.999999
0.999999
1
1
1
1
1
1
1
1
1
1
1
1
1
1
1
1
1
1
1
1
1
1
1
1
1
1
1
1
1
1
1
1
1
1
1
1
1
1
1
1
1
1
1
1
1
1
1
1
1
1
1
1
1
1
0.999999
0.999999
0.999999
0.999999
0.999999
0.999998
0.999999
0.999999
0.999999
0.999998
0.999998
0.999998
0.999999
0.999999
0.999999
0.999999
0.999999
0.999999
0.999999
1
1
1
1
1
1
1
1
1
1
1
1
1
1
1
1
1
1
1
1
1
1
1
1
1
1
1
1
1
1
1
1
1
1
1
1
1
1
1
1
1
1
1
1
1
1
1
1
1
1
1
1
1
1
1
1
1
0.999999
0.999999
0.999999
0.999999
0.999999
0.999999
0.999999
0.999999
0.999999
0.999999
0.999999
0.999999
0.999999
0.999999
0.999999
0.999999
0.999999
1
1
1
1
1
1
1
1
1
1
1
1
1
1
1
1
1
1
1
1
1
1
1
1
1
1
1
1
1
1
1
1
1
1
1
1
1
1
1
1
1
1
1
1
1
1
1
1
1
1
1
1
1
1
1
1
1
1
1
0.999999
0.999999
0.999999
0.999999
0.999999
0.999999
0.999999
0.999999
0.999999
0.999999
0.999999
0.999999
0.999999
1
1
1
1
1
1
1
1
1
1
1
1
1
1
1
1
1
1
1
1
1
1
1
1
1
1
1
1
1
1
1
1
1
1
1
1
1
1
1
1
1
1
1
1
1
1
1
1
1
1
1
1
1
1
1
1
1
1
1
1
1
1
1
1
0.999999
0.999999
1
1
0.999999
0.999999
1
1
1
1
1
1
1
1
1
1
1
1
1
1
1
1
1
1
1
1
1
1
1
1
1
1
1
1
1
1
1
1
1
1
1
1
1
1
1
1
1
1
1
1
1
1
1
1
1
1
1
1
1
1
1
1
1
1
1
1
1
1
1
1
1
1
1
1
1
1
1
1
1
1
1
1
0.999999
0.999999
1
1
1
1
1
1
1
1
1
1
1
1
1
1
1
1
1
1
1
1
1
1
1
1
1
1
1
1
1
1
1
1
1
1
1
1
1
1
1
1
1
1
1
1
1
1
1
1
1
1
1
1
1
1
1
1
1
1
1
1
1
1
1
1
1
1
1
1
1
1
1
1
1
1
1
1
1
1
1
1
1
1
1
1
1
1
1
1
1
1
1
1
1
1
1
1
1
1
1
1
1
1
1
1
1
1
1
1
1
1
1
1
1
1
1
1
1
1
1
1
1
1
1
1
1
1
1
1
1
1
1
1
1
1
1
1
1
1
1
1
1
1
1
1
1
1
1
1
1
1
1
1
1
1
1
1
1
1
1
1
1
1
1
1
1
1
1
1
1
1
1
1
1
1
1
1
1
1
1
1
1
1
1
1
1
1
1
1
1
1
1
1
1
1
1
1
1
1
1
1
1
1
1
1
1
1
1
1
1
1
1
1
1
1
1
1
1
1
1
1
1
1
1
1
1
1
1
1
1
1
1
1
1
1
1
1
1
1
1
1
1
1
1
1
1
1
1
1
1
1
1
1
1