/*--------------------------------*- C++ -*----------------------------------*\
  =========                 |
  \\      /  F ield         | OpenFOAM: The Open Source CFD Toolbox
   \\    /   O peration     | Website:  https://openfoam.org
    \\  /    A nd           | Version:  6
     \\/     M anipulation  |
\*---------------------------------------------------------------------------*/
FoamFile
{
    version     2.0;
    format      ascii;
    class       volScalarField;
    location    "4.14";
    object      p;
}
// * * * * * * * * * * * * * * * * * * * * * * * * * * * * * * * * * * * * * //

dimensions      [0 2 -2 0 0 0 0];

internalField   nonuniform List<scalar> 
4214
(
-0.405119
-0.409453
-0.257009
-0.127745
-0.0806613
-0.059988
-0.0436266
-0.0303921
-0.0182746
-0.00391992
0.0161858
0.0452544
0.0842888
0.132494
0.180711
0.214585
0.233833
0.302372
0.451985
0.515447
0.353409
-0.0472839
-0.516094
-0.952429
-1.27673
-1.34689
-1.23489
-1.00727
-0.713738
-0.505701
-0.233932
-0.077062
0.00507219
0.0447706
0.0604605
0.0660645
0.0675615
0.0690625
-0.0131358
-0.157672
-0.0245822
0.134373
-0.0755664
-0.104977
-0.0306388
-0.00564607
-0.00226781
0.00544838
0.0172953
0.0320927
0.0523013
0.0807253
0.121371
0.174966
0.242652
0.323159
0.419134
0.539397
0.677713
0.759821
0.655331
0.294512
-0.40057
-1.29847
-2.21451
-2.88002
-3.0719
-2.79414
-2.18678
-1.4238
-0.835394
-0.283163
0.0368661
0.185294
0.256817
0.285469
0.299478
0.310443
0.320882
0.292325
0.340819
0.660639
0.0493964
-0.054018
-0.0954542
-0.0604893
-0.0348682
-0.0253087
-0.0151729
-0.000203886
0.0194654
0.0465295
0.0853086
0.138137
0.209239
0.299654
0.407102
0.527485
0.660529
0.798982
0.886343
0.772983
0.299563
-0.606456
-1.74656
-3.02362
-3.96071
-4.31208
-4.01471
-3.21264
-2.14906
-1.18825
-0.468694
0.0167883
0.261254
0.384444
0.441847
0.471125
0.490567
0.503715
0.505703
0.55126
0.696646
0.00991204
-0.0343129
-0.0680436
-0.0542417
-0.0378141
-0.0342701
-0.0316831
-0.0234125
-0.0086834
0.0144877
0.0499691
0.101379
0.172352
0.265012
0.378129
0.507037
0.640946
0.761774
0.820217
0.707646
0.243679
-0.724262
-1.98906
-3.41067
-4.54735
-5.03043
-4.76275
-3.87385
-2.62729
-1.3935
-0.534467
0.0665535
0.380582
0.539367
0.617204
0.657816
0.683255
0.707707
0.736626
0.765828
0.820193
-0.0136601
-0.0389314
-0.0683725
-0.0686066
-0.0632522
-0.066081
-0.0709487
-0.0717091
-0.0669519
-0.054436
-0.0299187
0.010668
0.07079
0.15347
0.257603
0.374907
0.491166
0.592272
0.613138
0.509161
0.110467
-0.746012
-2.06951
-3.4239
-4.64419
-5.22297
-5.03391
-4.17701
-2.8957
-1.51204
-0.501373
0.145732
0.5101
0.695075
0.78803
0.83635
0.865799
0.897159
0.930186
0.937179
0.963511
-0.028265
-0.0476079
-0.0788667
-0.0904394
-0.0957281
-0.108973
-0.125554
-0.139382
-0.151147
-0.15863
-0.156153
-0.13914
-0.104818
-0.0480099
0.0310833
0.123138
0.212771
0.2833
0.274199
0.172093
-0.143231
-0.801754
-1.94893
-3.16248
-4.32016
-4.93401
-4.83181
-4.08623
-2.89391
-1.52699
-0.438374
0.25361
0.666932
0.866653
0.967271
1.01773
1.04851
1.08317
1.11208
1.10315
1.1188
-0.0480451
-0.0660568
-0.101632
-0.124476
-0.142098
-0.167488
-0.199316
-0.232288
-0.264694
-0.296419
-0.323869
-0.343597
-0.352712
-0.34102
-0.308006
-0.261019
-0.213338
-0.182205
-0.204894
-0.29182
-0.515064
-0.981
-1.78317
-2.79302
-3.68408
-4.2612
-4.19945
-3.61057
-2.58456
-1.35078
-0.302605
0.42213
0.855077
1.05722
1.15592
1.20373
1.23163
1.2636
1.27792
1.26211
1.26753
-0.0767221
-0.0923115
-0.130033
-0.165168
-0.196861
-0.236698
-0.286994
-0.343971
-0.405952
-0.472462
-0.539962
-0.608944
-0.674601
-0.730505
-0.773343
-0.802534
-0.822698
-0.838868
-0.862468
-0.894766
-1.01292
-1.26887
-1.74237
-2.37902
-2.93571
-3.34678
-3.24486
-2.80324
-1.99682
-0.960659
-0.0043223
0.685026
1.08319
1.27326
1.35925
1.39775
1.41746
1.43685
1.43777
1.41468
1.41422
-0.105456
-0.122283
-0.160048
-0.207348
-0.255646
-0.31245
-0.383861
-0.469196
-0.567588
-0.679392
-0.803755
-0.937757
-1.08241
-1.23559
-1.39292
-1.54181
-1.66723
-1.75009
-1.77072
-1.68083
-1.63186
-1.66648
-1.78979
-2.02195
-2.25419
-2.32249
-2.12758
-1.76801
-1.19786
-0.40536
0.400952
1.00732
1.35429
1.51501
1.57807
1.59699
1.603
1.60553
1.59269
1.56274
1.55905
-0.131016
-0.150719
-0.187649
-0.245548
-0.311883
-0.388514
-0.484067
-0.602071
-0.74381
-0.911044
-1.10651
-1.33064
-1.59075
-1.88111
-2.20403
-2.52997
-2.81276
-2.99347
-3.00094
-2.72617
-2.42352
-2.15276
-1.933
-1.79041
-1.6412
-1.36576
-1.01985
-0.653654
-0.2621
0.281795
0.895826
1.3849
1.66365
1.77893
1.80718
1.80095
1.78852
1.77261
1.74472
1.70798
1.69885
-0.138289
-0.164829
-0.204263
-0.272889
-0.358225
-0.456892
-0.579357
-0.733764
-0.925231
-1.15848
-1.44302
-1.78563
-2.20799
-2.70174
-3.26203
-3.82559
-4.32056
-4.60487
-4.57976
-4.08854
-3.43751
-2.76106
-2.16832
-1.67273
-1.14099
-0.553722
-0.00484369
0.411354
0.717912
1.053
1.46443
1.81195
2.00157
2.05959
2.04684
2.01098
1.9736
1.93645
1.89216
1.84846
1.83188
-0.126535
-0.162626
-0.206609
-0.284061
-0.385347
-0.506371
-0.657284
-0.849656
-1.09503
-1.40354
-1.79695
-2.29029
-2.93489
-3.70091
-4.59471
-5.46949
-6.23016
-6.62941
-6.55074
-5.76094
-4.67798
-3.51293
-2.47942
-1.61948
-0.755544
0.0991672
0.881414
1.37985
1.64889
1.84753
2.07532
2.26849
2.35849
2.35659
2.29646
2.22576
2.1588
2.09664
2.03397
1.9791
1.95191
-0.0882408
-0.135095
-0.189024
-0.278264
-0.393233
-0.532832
-0.710553
-0.941817
-1.24406
-1.63075
-2.14939
-2.81828
-3.74771
-4.8568
-6.14756
-7.40222
-8.46449
-9.06836
-8.8724
-7.62127
-6.05973
-4.37817
-2.8604
-1.60562
-0.483766
0.623479
1.61739
2.23035
2.48729
2.59551
2.67966
2.73905
2.73524
2.65248
2.54567
2.43761
2.33912
2.25076
2.16897
2.0965
2.04518
-0.0385657
-0.0930576
-0.156252
-0.255703
-0.387581
-0.546947
-0.752176
-1.021
-1.38169
-1.84731
-2.51874
-3.39185
-4.64649
-6.11335
-7.8131
-9.40554
-10.775
-11.4401
-11.1778
-9.66991
-7.59619
-5.3508
-3.3204
-1.63859
-0.251045
1.04157
2.21585
2.94227
3.20562
3.26441
3.24651
3.19549
3.08424
2.93979
2.7857
2.64025
2.51003
2.39516
2.29239
2.19954
2.11823
0.0451739
-0.0258881
-0.107396
-0.223144
-0.365674
-0.551633
-0.770074
-1.08017
-1.47211
-2.05045
-2.91833
-4.03704
-5.6224
-7.28826
-9.45871
-11.2347
-12.9254
-13.5449
-13.2199
-11.5109
-9.03279
-6.32329
-3.79824
-1.69426
-0.0416933
1.41189
2.69909
3.51118
3.78654
3.82935
3.73155
3.5817
3.39883
3.19992
3.00268
2.82354
2.66384
2.52346
2.39573
2.27816
2.17406
0.132038
0.0530653
-0.0191568
-0.143234
-0.246436
-0.457743
-0.605973
-1.04411
-1.3596
-2.1877
-3.20025
-4.50216
-6.46558
-8.16526
-10.9256
-12.6732
-14.7109
-15.1339
-14.7945
-12.8549
-10.1111
-7.08012
-4.10553
-1.68965
0.163567
1.75432
3.09751
3.95089
4.23247
4.28751
4.11113
3.91193
3.6635
3.4241
3.18833
2.98144
2.79196
2.62239
2.47027
2.33255
2.20914
0.283207
0.18
0.138115
-0.00952907
-0.0449125
-0.286185
-0.302686
-0.881851
-1.07799
-2.1885
-3.28745
-4.60425
-6.92644
-8.609
-11.8682
-13.4904
-15.7183
-16.0645
-15.6327
-13.6276
-10.5202
-7.21504
-4.09041
-1.60495
0.386483
2.10866
3.46126
4.33275
4.50623
4.57908
4.28382
4.11258
3.81346
3.56897
3.29908
3.07164
2.8623
2.67185
2.52562
2.35313
2.23272
2.07766
2.09932
2.08706
2.05678
2.0115
1.95285
1.88053
1.78849
1.68119
1.56265
1.44104
1.31219
1.17658
1.03102
0.861121
0.703071
0.318309
1.96746
1.98853
1.99712
1.98399
1.95798
1.92332
1.87738
1.81681
1.73853
1.64674
1.54443
1.43889
1.32954
1.21658
1.09579
0.972855
0.713986
1.81883
1.88014
1.90851
1.9126
1.90403
1.88446
1.86169
1.82759
1.78065
1.71703
1.63774
1.55277
1.46428
1.37054
1.26879
1.17512
1.00346
1.70908
1.76757
1.81239
1.8353
1.84133
1.83743
1.82509
1.81104
1.78726
1.7526
1.70303
1.64189
1.57838
1.50722
1.43324
1.36629
1.23587
1.55934
1.6537
1.71267
1.75054
1.77338
1.78418
1.78466
1.77852
1.77092
1.7562
1.7326
1.69774
1.65514
1.60564
1.55834
1.51186
1.42579
1.46168
1.53732
1.6044
1.65549
1.69211
1.71727
1.73258
1.73956
1.73971
1.73621
1.73027
1.71832
1.69712
1.66964
1.64356
1.61311
1.56599
1.32553
1.42066
1.49191
1.54961
1.59599
1.63283
1.66152
1.68248
1.69624
1.70461
1.70614
1.70558
1.70227
1.69465
1.68206
1.66755
1.65573
1.23282
1.31199
1.38121
1.44102
1.49112
1.53393
1.57031
1.60047
1.62527
1.64559
1.66075
1.67154
1.68003
1.68401
1.68396
1.68418
1.68843
1.12175
1.20743
1.27484
1.33403
1.38545
1.43039
1.46918
1.50432
1.53501
1.56232
1.58591
1.60591
1.62425
1.64073
1.65088
1.65874
1.68018
1.03912
1.11359
1.17646
1.23303
1.28298
1.32728
1.36679
1.40281
1.43572
1.46595
1.49365
1.51799
1.54094
1.5657
1.58371
1.59465
1.6315
0.955845
1.02907
1.08826
1.14003
1.18584
1.22783
1.26668
1.30125
1.33305
1.3632
1.3919
1.41682
1.44113
1.46965
1.48861
1.5038
1.54598
0.894502
0.954866
1.00747
1.05689
1.09993
1.13808
1.17286
1.20475
1.23404
1.26242
1.28931
1.31227
1.3364
1.36341
1.38016
1.40067
1.44098
0.867332
0.910016
0.952146
0.991871
1.02839
1.06206
1.09334
1.12125
1.14648
1.17096
1.19381
1.21377
1.23572
1.25822
1.2726
1.29296
1.32648
0.850979
0.887703
0.919343
0.948727
0.976831
1.00364
1.02865
1.05155
1.07291
1.09347
1.11233
1.12859
1.14616
1.16317
1.17365
1.189
1.21432
0.873012
0.895255
0.918753
0.941311
0.961977
0.980724
0.9978
1.01349
1.02791
1.04103
1.05302
1.06428
1.07589
1.08723
1.09557
1.1061
1.12234
0.891134
0.917508
0.93855
0.956976
0.973314
0.987987
1.00119
1.01301
1.02356
1.03304
1.04128
1.04787
1.05362
1.05889
1.06118
1.06315
1.07156
0.950207
0.965112
0.980822
0.995764
1.00915
1.02083
1.03091
1.0395
1.04671
1.05256
1.05708
1.0602
1.06229
1.06413
1.0647
1.0627
1.06739
0.9963
1.02086
1.03886
1.0541
1.06714
1.07853
1.08836
1.09674
1.10366
1.10922
1.11351
1.11634
1.11762
1.11914
1.12086
1.1143
1.12058
1.10903
1.12085
1.13369
1.14703
1.15965
1.1713
1.18179
1.19107
1.19915
1.20615
1.21203
1.21677
1.22032
1.22405
1.22847
1.21816
1.22668
1.18268
1.21596
1.24055
1.26179
1.2802
1.29654
1.31111
1.3241
1.33559
1.34562
1.35425
1.36165
1.36753
1.37187
1.3787
1.37102
1.38821
1.34843
1.36744
1.38804
1.41053
1.43239
1.45304
1.47224
1.48995
1.50613
1.52077
1.53387
1.54552
1.55563
1.563
1.57598
1.5737
1.60442
1.45188
1.50225
1.54008
1.57393
1.60446
1.63249
1.65844
1.6826
1.70513
1.72614
1.74578
1.76408
1.78178
1.79708
1.81883
1.81847
1.86131
1.66067
1.69413
1.72859
1.76535
1.80119
1.83546
1.86813
1.89927
1.92902
1.95758
1.98515
2.01167
2.03807
2.06069
2.09083
2.0941
2.14757
1.79185
1.86381
1.91776
1.96717
2.01305
2.05635
2.0978
2.1376
2.1758
2.21257
2.24732
2.27992
2.31187
2.33959
2.37684
2.38502
2.45085
2.03478
2.08593
2.13742
2.19197
2.24585
2.29796
2.3477
2.39399
2.43733
2.47815
2.51697
2.55371
2.58991
2.62268
2.66427
2.6775
2.7545
2.18997
2.28693
2.36053
2.42881
2.49176
2.54988
2.60341
2.65307
2.69964
2.74352
2.78532
2.825
2.86443
2.9008
2.94537
2.96264
3.04867
2.46726
2.53377
2.60151
2.6743
2.74149
2.80225
2.85766
2.90914
2.95739
3.00289
3.04637
3.08793
3.1295
3.16767
3.21421
3.2355
3.32751
2.63735
2.75706
2.84354
2.92086
2.98873
3.04973
3.10538
3.15703
3.20538
3.25102
3.29475
3.33675
3.37891
3.41842
3.46633
3.49049
3.58501
2.93436
3.00851
3.08465
3.16236
3.22939
3.28879
3.34277
3.39278
3.43961
3.48394
3.52661
3.56788
3.60967
3.64906
3.69711
3.72368
3.81751
3.10949
3.2397
3.32344
3.39782
3.46027
3.51586
3.5664
3.61317
3.65705
3.6988
3.73928
3.77883
3.81917
3.85767
3.90491
3.93331
4.02376
3.4097
3.48031
3.55093
3.62092
3.67805
3.72824
3.7738
3.81599
3.85577
3.89394
3.93134
3.96841
4.00656
4.04387
4.08921
4.11906
4.20405
3.5809
3.70164
3.77113
3.8319
3.88073
3.92382
3.9631
3.99966
4.0345
4.06842
4.10217
4.13626
4.17178
4.20754
4.25008
4.28159
4.3595
3.86383
3.91933
3.97523
4.02727
4.0674
4.10217
4.13405
4.16407
4.19323
4.2223
4.25194
4.28261
4.3152
4.34885
4.38817
4.42028
4.48943
4.02802
4.1198
4.16806
4.20746
4.23731
4.26306
4.28707
4.31016
4.33321
4.35698
4.38204
4.40883
4.43802
4.46885
4.50471
4.53663
4.59417
4.2767
4.30759
4.34111
4.36878
4.3883
4.40483
4.42098
4.43729
4.45439
4.47293
4.49345
4.51636
4.54202
4.56969
4.6018
4.63064
4.67551
4.42628
4.47893
4.49823
4.51088
4.51907
4.52623
4.53444
4.54406
4.55549
4.56924
4.58574
4.6053
4.62782
4.65263
4.68083
4.70448
4.73765
4.63499
4.63267
4.63556
4.6352
4.63307
4.63153
4.63197
4.63464
4.64008
4.64916
4.66198
4.67832
4.6975
4.71873
4.74158
4.7596
4.78468
4.77009
4.77191
4.76137
4.74968
4.738
4.72813
4.72134
4.71813
4.71867
4.72221
4.73048
4.74236
4.75675
4.77252
4.78786
4.7997
4.81933
4.92962
4.89936
4.87495
4.85377
4.83452
4.818
4.80536
4.79688
4.79243
4.79165
4.79383
4.79905
4.80678
4.81585
4.82464
4.83267
4.84577
5.03941
5.00755
4.97094
4.93998
4.91279
4.88923
4.87029
4.85598
4.84587
4.83954
4.83649
4.83657
4.83873
4.84257
4.84769
4.85534
4.86647
5.18233
5.35404
5.53898
5.68102
5.81286
5.92632
6.00326
6.08054
6.11374
6.15353
6.15719
6.17136
6.15087
6.15112
6.11631
6.10698
6.07445
6.05785
6.02197
5.99896
5.96168
5.93385
5.89925
5.87216
5.84315
5.81893
5.79386
5.76931
5.74512
5.71839
5.69232
5.6623
5.63068
5.59487
5.55363
5.50792
5.45305
5.39167
5.31992
5.2364
5.14842
5.16377
5.31201
5.45748
5.58816
5.70527
5.80617
5.8849
5.95227
5.99406
6.02675
6.04085
6.04919
6.04548
6.04129
6.02299
6.00924
5.98887
5.96783
5.94234
5.9172
5.88898
5.85979
5.83132
5.80342
5.77702
5.75146
5.72674
5.70264
5.67836
5.6528
5.62563
5.59638
5.56417
5.5285
5.48792
5.44239
5.3896
5.33047
5.26142
5.18566
5.09593
5.1254
5.25727
5.38204
5.49795
5.60409
5.69506
5.77244
5.8338
5.88099
5.91382
5.93383
5.94438
5.94668
5.94317
5.93473
5.92335
5.90817
5.88984
5.86885
5.8465
5.82169
5.79548
5.76928
5.74329
5.71798
5.69322
5.66894
5.6448
5.62033
5.59517
5.56813
5.53843
5.50562
5.4692
5.42828
5.38232
5.33018
5.27175
5.20511
5.13252
5.04657
5.08213
5.19758
5.30721
5.41238
5.50856
5.59396
5.66756
5.72812
5.77631
5.81233
5.83743
5.85146
5.85824
5.85793
5.85369
5.84698
5.83557
5.82065
5.80328
5.78387
5.76177
5.73817
5.71396
5.68955
5.66532
5.64128
5.61733
5.59325
5.56865
5.54301
5.51573
5.48629
5.45364
5.41693
5.37585
5.32989
5.27834
5.22107
5.15648
5.08743
5.0049
5.04863
5.14734
5.2423
5.33725
5.42542
5.50549
5.57572
5.63537
5.68409
5.72215
5.75028
5.76919
5.77991
5.78333
5.78205
5.77745
5.77031
5.75891
5.74476
5.72822
5.70851
5.68723
5.66488
5.64193
5.61873
5.59537
5.57175
5.54769
5.52284
5.49674
5.46884
5.4386
5.40541
5.36887
5.3281
5.2826
5.23172
5.17556
5.11256
5.04638
4.9673
5.02135
5.10732
5.18955
5.2731
5.35395
5.42879
5.49579
5.55401
5.6029
5.64246
5.67301
5.69515
5.70972
5.71765
5.71935
5.71674
5.71136
5.70395
5.69277
5.67881
5.6613
5.64202
5.62141
5.59977
5.57748
5.55467
5.53127
5.50713
5.48196
5.45537
5.42687
5.39595
5.36211
5.32484
5.28356
5.23786
5.18731
5.13224
5.07114
5.00888
4.93362
5.00037
5.07587
5.14822
5.2215
5.29331
5.36286
5.42648
5.48295
5.53158
5.57211
5.60462
5.62943
5.64709
5.6584
5.66402
5.66434
5.66044
5.65453
5.64668
5.63512
5.61963
5.6021
5.58304
5.56254
5.54102
5.51862
5.49532
5.47101
5.44547
5.41836
5.38921
5.35754
5.32286
5.28479
5.243
5.19733
5.1475
5.09402
5.03543
4.97705
4.90582
4.98501
5.05197
5.1161
5.18138
5.24507
5.30723
5.36706
5.42141
5.46933
5.51034
5.54429
5.57124
5.59154
5.60573
5.6144
5.61801
5.61695
5.61196
5.60564
5.59672
5.58312
5.56715
5.54934
5.52973
5.50875
5.48658
5.46324
5.43865
5.41262
5.38478
5.35473
5.32213
5.28667
5.24809
5.20615
5.16084
5.11201
5.06036
5.00456
4.95019
4.8836
4.97461
5.03399
5.09091
5.14953
5.20709
5.26307
5.31696
5.36851
5.41532
5.45637
5.49127
5.51991
5.54243
5.55918
5.57052
5.57685
5.57854
5.57598
5.57008
5.56322
5.55144
5.53677
5.51996
5.501
5.48031
5.45811
5.43449
5.40935
5.38249
5.35371
5.32275
5.28932
5.2532
5.21423
5.17237
5.12771
5.08025
5.0308
4.97824
4.92805
4.86685
4.96915
5.02115
5.07151
5.12402
5.17625
5.22755
5.27697
5.32416
5.36882
5.40951
5.44494
5.47488
5.49926
5.51823
5.53197
5.54075
5.54487
5.54465
5.54051
5.53406
5.5242
5.5106
5.4946
5.47617
5.45562
5.43319
5.40896
5.38292
5.35508
5.32525
5.29325
5.25894
5.22219
5.18299
5.1414
5.09763
5.05187
5.00492
4.95604
4.91016
4.85531
4.96773
5.01281
5.05723
5.10406
5.15128
5.19831
5.24421
5.28825
5.32999
5.36902
5.40468
5.43559
5.46152
5.4824
5.49831
5.50936
5.51571
5.51761
5.51537
5.50952
5.50113
5.48832
5.47283
5.45466
5.43408
5.41127
5.38629
5.35931
5.33031
5.29924
5.26607
5.23082
5.1935
5.1542
5.1131
5.07047
5.0267
4.98255
4.93777
4.89641
4.84889
4.96919
5.00792
5.04707
5.08869
5.13131
5.17429
5.21687
5.2583
5.29792
5.33525
5.36978
5.40115
5.42854
5.45116
5.46909
5.48228
5.49076
5.49464
5.49413
5.48941
5.48191
5.46966
5.45424
5.43581
5.41462
5.3909
5.36483
5.33661
5.3063
5.27394
5.23964
5.20351
5.16571
5.1265
5.08624
5.04529
5.00413
4.96341
4.92343
4.88698
4.84747
4.97242
5.0055
5.03992
5.07677
5.11515
5.15441
5.19389
5.23288
5.27069
5.30674
5.34057
5.37173
5.39961
5.424
5.44405
5.45928
5.46977
5.47552
5.47665
5.47332
5.46608
5.45451
5.43923
5.42038
5.39809
5.37296
5.34525
5.31534
5.28327
5.24936
5.21383
5.17692
5.13891
5.10012
5.06101
5.02218
4.98412
4.94733
4.91251
4.88105
4.84923
4.97544
5.00385
5.03454
5.06757
5.10257
5.13871
5.17543
5.21225
5.24852
5.2836
5.31699
5.34816
5.37662
5.4017
5.42301
5.44024
5.45261
5.46007
5.46263
5.46041
5.45367
5.44254
5.42756
5.40863
5.38584
5.35963
5.33026
5.29855
5.26462
5.22893
5.19198
5.15414
5.11596
5.07787
5.04025
5.00335
4.96792
4.93442
4.90387
4.87661
4.85219
4.97802
5.00166
5.02923
5.05917
5.09128
5.1247
5.15921
5.19445
5.22956
5.26397
5.29715
5.32845
5.35735
5.3833
5.40575
5.42425
5.43855
5.44789
5.45193
5.45072
5.44435
5.43307
5.41723
5.39703
5.37282
5.34502
5.31418
5.28066
5.24535
5.20835
5.17039
5.13196
5.09358
5.05592
5.01977
4.98512
4.95237
4.92246
4.8961
4.87301
4.85574
4.98344
5.00047
5.02277
5.04816
5.07649
5.10741
5.14041
5.17413
5.208
5.24178
5.27479
5.30654
5.33656
5.36431
5.38908
5.41009
5.4266
5.43815
5.4443
5.44439
5.43843
5.4264
5.40839
5.38535
5.35787
5.32654
5.29294
5.25651
5.21892
5.18035
5.14149
5.10308
5.06527
5.02843
4.99334
4.96145
4.93318
4.90884
4.88903
4.87346
4.86257
4.99338
5.00272
5.01935
5.0411
5.0667
5.09519
5.1256
5.15765
5.19101
5.22476
5.2583
5.29109
5.32239
5.3515
5.37774
5.40041
5.41882
5.43223
5.4399
5.44138
5.43601
5.42369
5.40535
5.38151
5.35254
5.31924
5.28225
5.2434
5.20283
5.16212
5.12174
5.08236
5.04486
5.00994
4.97794
4.94906
4.92372
4.90256
4.88626
4.8756
4.87453
-0.304355
-0.136765
-0.0974175
-0.0745848
-0.0643386
-0.0620655
-0.070618
-0.0780127
-0.0881414
-0.0918248
-0.0786522
-0.0470172
0.00331947
0.0607474
0.144758
0.208334
0.308877
-0.192425
-0.104724
-0.0675587
-0.0547299
-0.0527239
-0.0532202
-0.0582136
-0.0632451
-0.0654444
-0.0568151
-0.0312833
0.0100683
0.0653448
0.128104
0.210555
0.276521
0.394232
-0.148984
-0.100996
-0.0680245
-0.0488265
-0.045133
-0.0452885
-0.0456989
-0.0441355
-0.0338589
-0.0107914
0.0262123
0.0751292
0.134111
0.199691
0.280423
0.352286
0.4738
-0.102804
-0.0602015
-0.0393591
-0.0282279
-0.0271073
-0.0264834
-0.0217659
-0.0107244
0.0108682
0.0446002
0.08847
0.140774
0.2018
0.268428
0.346342
0.413797
0.513751
-0.0611423
-0.0283599
-0.0143086
-0.0101845
-0.00685169
-0.000695242
0.0120412
0.0334666
0.0649374
0.105049
0.152971
0.208206
0.270774
0.337965
0.412556
0.477577
0.573441
-0.0229758
0.00162721
0.0109142
0.0138852
0.0228774
0.0366233
0.0581973
0.0880342
0.125972
0.169932
0.220621
0.277746
0.341001
0.407758
0.479997
0.546451
0.63355
0.0100573
0.0311486
0.0393275
0.0465788
0.0634687
0.0850281
0.113547
0.150294
0.191721
0.238358
0.291272
0.349462
0.412377
0.477811
0.547161
0.610833
0.689201
0.0427031
0.0658621
0.0765344
0.0913587
0.114961
0.143604
0.178717
0.21901
0.262537
0.311749
0.36613
0.424615
0.486195
0.549203
0.614028
0.673896
0.748173
0.0823066
0.112578
0.125915
0.148785
0.178827
0.213751
0.252216
0.293594
0.339977
0.39114
0.446189
0.504195
0.564139
0.624728
0.686054
0.743513
0.803634
0.133017
0.173187
0.190512
0.219299
0.255051
0.291682
0.331898
0.376247
0.424537
0.476564
0.531127
0.587436
0.644878
0.702636
0.760506
0.815156
0.871717
0.198771
0.246153
0.268906
0.299334
0.340356
0.37894
0.421034
0.468084
0.517134
0.568202
0.621029
0.674666
0.728375
0.781809
0.834363
0.885784
0.944662
0.282496
0.333809
0.360638
0.393816
0.437454
0.478986
0.52242
0.569528
0.617863
0.667068
0.717173
0.767583
0.817558
0.867175
0.915781
0.962357
1.00275
0.385939
0.438941
0.468748
0.505737
0.549834
0.591244
0.634257
0.67989
0.725807
0.772204
0.81907
0.865769
0.912034
0.958588
1.0038
1.04703
1.08405
0.508732
0.562047
0.596335
0.631137
0.674141
0.714906
0.755594
0.798643
0.841489
0.884059
0.927063
0.970044
1.01283
1.05525
1.09477
1.13553
1.17975
0.649678
0.701432
0.737594
0.770684
0.810675
0.849925
0.887934
0.92783
0.968162
1.0082
1.0482
1.08761
1.12512
1.16077
1.19257
1.22454
1.24475
0.819226
0.865052
0.900292
0.931541
0.96903
1.00665
1.04242
1.07879
1.1151
1.14988
1.18346
1.2157
1.24608
1.27484
1.30061
1.32471
1.33504
1.02884
1.0655
1.10151
1.12726
1.1581
1.18952
1.21828
1.24675
1.27466
1.30106
1.32604
1.34955
1.3714
1.39181
1.4105
1.43081
1.44882
1.27252
1.29368
1.32359
1.3412
1.3622
1.38435
1.40427
1.42349
1.44204
1.4593
1.47524
1.48994
1.50305
1.51362
1.52054
1.52536
1.52419
1.54184
1.54085
1.56111
1.57045
1.58172
1.59323
1.60303
1.61195
1.62004
1.62692
1.63252
1.63684
1.63983
1.64208
1.64323
1.6436
1.63901
1.81927
1.8112
1.81611
1.81437
1.81428
1.81366
1.81253
1.81091
1.80869
1.80574
1.80207
1.79771
1.79264
1.78716
1.78202
1.77918
1.77937
2.11671
2.09125
2.08399
2.06946
2.05846
2.04659
2.03482
2.02277
2.01029
1.99738
1.984
1.96998
1.95503
1.93903
1.92184
1.90367
1.87856
2.43
2.38738
2.37326
2.34328
2.31928
2.29304
2.26785
2.24325
2.21921
2.19557
2.17205
2.14846
2.12473
2.10077
2.07634
2.05035
2.01451
2.73905
2.67997
2.65765
2.61874
2.58513
2.54922
2.5133
2.47656
2.43906
2.40261
2.36705
2.33229
2.29787
2.26365
2.23102
2.20244
2.17948
3.0327
2.96208
2.93191
2.88569
2.84411
2.80034
2.75633
2.71128
2.66525
2.6182
2.57015
2.52313
2.47668
2.43023
2.38344
2.3346
2.27711
3.30785
3.22859
3.19245
3.14099
3.09363
3.04384
2.99341
2.94148
2.88803
2.83297
2.77644
2.71836
2.66069
2.60516
2.55055
2.49172
2.4167
3.56226
3.47817
3.43735
3.38224
3.33081
3.27668
3.22152
3.16442
3.10534
3.04408
2.98056
2.91441
2.84557
2.778
2.71268
2.65072
2.60149
3.79327
3.7082
3.66407
3.60672
3.55279
3.49608
3.438
3.37757
3.3146
3.24884
3.18032
3.10855
3.03275
2.95418
2.87547
2.79272
2.7043
3.99831
3.91477
3.86945
3.81188
3.75743
3.70006
3.64102
3.57922
3.51426
3.44586
3.37389
3.29751
3.21673
3.13373
3.05021
2.95961
2.84245
4.17713
4.09744
4.05303
3.99702
3.94367
3.88737
3.82917
3.7679
3.70306
3.63423
3.56086
3.48164
3.39664
3.30703
3.21477
3.1255
3.05598
4.3314
4.25735
4.2149
4.16199
4.11113
4.05737
4.00157
3.94256
3.87969
3.81245
3.74013
3.66118
3.57521
3.48198
3.3784
3.2678
3.16096
4.46301
4.39581
4.35616
4.30734
4.26005
4.21003
4.15796
4.10267
4.04343
3.97964
3.91036
3.83357
3.74922
3.65963
3.5585
3.44013
3.28674
4.57427
4.51471
4.47837
4.43422
4.39119
4.34572
4.29833
4.24793
4.19374
4.13512
4.07083
3.99838
3.91747
3.82938
3.72846
3.62589
3.5475
4.66745
4.61594
4.58326
4.54396
4.50556
4.46516
4.42312
4.37847
4.33039
4.27825
4.22072
4.15533
4.08108
3.99742
3.89419
3.77454
3.66367
4.74476
4.70116
4.67245
4.63811
4.60459
4.56952
4.53321
4.49486
4.45369
4.40906
4.35964
4.30271
4.23714
4.16527
4.07971
3.95488
3.78151
4.80829
4.77202
4.74774
4.71846
4.68971
4.65993
4.62938
4.59754
4.56372
4.52736
4.48715
4.44016
4.38497
4.32336
4.24911
4.15471
4.09981
4.86003
4.83068
4.81055
4.78604
4.76176
4.73703
4.71203
4.68649
4.65995
4.63202
4.60159
4.56601
4.52381
4.47477
4.40814
4.3125
4.23514
4.90183
4.87794
4.86155
4.84203
4.82229
4.80232
4.7824
4.76262
4.74291
4.72319
4.70252
4.6784
4.65011
4.61987
4.57958
4.49237
4.34105
4.93491
4.91567
4.90349
4.88949
4.87455
4.85928
4.84432
4.83007
4.81693
4.80527
4.79415
4.7816
4.76782
4.75396
4.73051
4.69066
4.69736
4.96138
4.94831
4.93924
4.92983
4.91984
4.90988
4.90065
4.89255
4.8863
4.88269
4.88076
4.88018
4.88144
4.8824
4.86872
4.85571
4.89177
4.9823
4.97237
4.96466
4.95864
4.95306
4.94799
4.94436
4.94222
4.94242
4.94612
4.9532
4.96412
4.97935
4.99666
5.01121
5.01781
4.97542
0.237012
0.0407013
-0.25979
-0.746598
-1.64857
-4.19251
-8.29391
-13.4082
-16.3254
-14.0723
-7.9745
-2.25212
2.05237
4.42941
4.65847
4.22557
3.63749
3.07269
2.61607
2.22499
0.275833
0.0929373
-0.18493
-0.635697
-1.6809
-4.13342
-8.22171
-13.0372
-15.842
-13.4973
-7.57576
-1.9574
2.21765
4.46415
4.63367
4.18496
3.61185
3.06342
2.60899
2.21705
0.31238
0.149341
-0.0906011
-0.489665
-1.56959
-3.73712
-7.51307
-11.9719
-14.6236
-12.3767
-7.04432
-1.60894
2.31537
4.3255
4.48693
4.07597
3.53046
3.01144
2.56157
2.17085
0.349682
0.221163
0.0429199
-0.286279
-1.19494
-3.19486
-6.42122
-10.3882
-12.8184
-11.0469
-6.39784
-1.31848
2.34706
4.09061
4.23311
3.87772
3.38468
2.89528
2.45738
2.07115
0.390647
0.307137
0.198838
-0.0174833
-0.739245
-2.39825
-4.9424
-8.43449
-10.837
-9.81987
-5.78099
-1.17999
2.17788
3.70705
3.86878
3.56278
3.14164
2.69958
2.29034
1.9197
0.43188
0.406544
0.378674
0.289427
-0.171341
-1.38301
-3.24697
-6.40839
-9.12504
-8.86666
-5.443
-1.21501
1.735
3.1443
3.37452
3.13582
2.78465
2.40963
2.04865
1.70928
0.470216
0.510796
0.585903
0.654297
0.471116
-0.235832
-1.53048
-4.60534
-7.94126
-8.45371
-5.4569
-1.68871
0.909012
2.3343
2.72284
2.58735
2.31249
2.00851
1.71517
1.42362
0.503032
0.609309
0.797285
1.0672
1.19239
0.9075
-0.0195234
-3.28231
-7.41634
-8.72429
-6.36207
-2.85371
-0.24175
1.24044
1.857
1.88932
1.72027
1.49566
1.27269
1.0454
0.514161
0.700039
1.00094
1.46427
1.92626
1.91061
1.03568
-2.62428
-7.65185
-9.82025
-8.08499
-4.68009
-1.82243
-0.162722
0.693838
1.0035
0.980241
0.865798
0.723627
0.557914
0.50429
0.774625
1.20387
1.84383
2.51855
2.60664
1.42952
-2.7241
-8.61786
-11.8598
-11.154
-7.54058
-4.10477
-1.96565
-0.790683
-0.179707
0.0466615
0.0909411
0.0634211
-0.04444
0.436342
0.773616
1.35954
2.17041
2.85685
2.79937
1.10341
-3.56893
-10.2142
-14.7875
-15.0847
-11.4867
-7.47218
-4.43565
-2.65871
-1.68778
-1.18976
-0.909425
-0.717195
-0.766603
0.276796
0.654964
1.31122
2.15692
2.7953
2.32026
0.00163938
-4.97836
-11.8811
-17.476
-18.8287
-15.7993
-11.5086
-7.85912
-5.14062
-3.58848
-2.75501
-2.19926
-1.70366
-1.63727
-0.0063628
0.377234
1.03381
1.80332
2.16915
1.08191
-1.71437
-6.62209
-13.0895
-18.7841
-21.0158
-19.2949
-15.4859
-11.5855
-8.43689
-6.00726
-4.70747
-3.80955
-2.95569
-2.68517
-0.508041
-0.120381
0.367903
0.804125
0.744617
-0.930454
-3.87201
-8.26098
-13.7528
-18.9604
-21.3784
-20.8309
-18.4812
-15.0499
-11.7248
-9.05174
-7.20842
-5.78105
-4.51773
-3.98068
-1.45163
-1.15028
-0.983865
-0.993012
-1.70549
-3.61716
-6.26197
-9.74027
-13.9589
-17.9259
-20.3464
-20.4
-19.1915
-17.3655
-14.7662
-12.1486
-9.94684
-8.11763
-6.51776
-5.60774
-3.02515
-2.94014
-3.39678
-4.0214
-5.00241
-6.60431
-8.58937
-10.9327
-13.7878
-16.5274
-18.5169
-18.9966
-18.4196
-17.3077
-15.9927
-14.36
-12.5092
-10.7656
-9.00945
-7.70989
-5.46227
-5.786
-7.06904
-7.94168
-8.50489
-9.33793
-10.42
-11.7624
-13.4228
-15.147
-16.5517
-17.2097
-16.9418
-16.3537
-15.5086
-14.6324
-13.6978
-12.618
-11.3241
-10.0421
-9.53743
-9.52531
-10.7049
-11.3003
-11.2378
-11.1947
-11.5417
-12.1345
-12.9981
-13.9692
-14.8433
-15.4306
-15.3655
-15.0649
-14.6128
-13.9969
-13.3513
-12.8622
-12.6484
-12.3195
-13.794
-13.0108
-12.737
-12.5813
-12.3099
-11.9307
-11.7826
-11.9705
-12.4042
-12.9602
-13.4867
-13.9275
-14.0443
-13.9234
-13.6677
-13.3123
-12.8649
-12.2722
-11.8675
-11.7044
-15.9537
-14.6718
-13.4609
-12.768
-12.1186
-11.6257
-11.3683
-11.3745
-11.5348
-11.7983
-12.0983
-12.3867
-12.592
-12.5794
-12.4951
-12.3494
-12.154
-11.9376
-11.7202
-11.6416
-11.517
-10.3661
-10.6797
-9.34074
-7.62518
-5.76021
-4.21688
-2.9165
-1.87171
-1.01487
-0.310425
0.264112
0.722003
1.08072
1.35582
1.56356
1.71972
1.82894
1.88318
1.88946
-12.2607
-11.0654
-10.5162
-8.93852
-7.32461
-5.64655
-4.25249
-3.04633
-2.05018
-1.23252
-0.564846
-0.0206619
0.41892
0.763755
1.03183
1.23925
1.4014
1.52052
1.58413
1.60873
-12.8401
-11.5693
-10.4867
-8.68538
-7.12248
-5.55672
-4.27102
-3.1634
-2.2262
-1.44682
-0.80787
-0.288947
0.131548
0.471384
0.738504
0.947517
1.11451
1.24056
1.31378
1.36402
-13.3234
-12.2311
-10.6348
-8.52386
-6.95202
-5.45611
-4.25064
-3.23009
-2.36283
-1.63022
-1.02087
-0.521131
-0.114698
0.213911
0.478791
0.691979
0.86397
0.996402
1.08195
1.14731
-13.548
-12.75
-10.8629
-8.38986
-6.79375
-5.34589
-4.19535
-3.22899
-2.42859
-1.75843
-1.19008
-0.714456
-0.320558
0.00240926
0.264789
0.477456
0.651611
0.791418
0.891246
0.969717
-13.4869
-13.0588
-10.9785
-8.2423
-6.61175
-5.20461
-4.09321
-3.17319
-2.40947
-1.77809
-1.25545
-0.818863
-0.453817
-0.147893
0.106898
0.317348
0.490505
0.631422
0.741697
0.832967
-13.202
-12.9626
-10.8731
-8.06568
-6.37793
-5.00613
-3.92816
-3.05053
-2.32326
-1.72242
-1.22329
-0.806585
-0.458219
-0.167992
0.0744062
0.27707
0.445071
0.58381
0.699805
0.796927
-12.658
-12.5445
-10.5423
-7.74358
-6.04403
-4.72082
-3.6805
-2.84517
-2.15562
-1.58637
-1.1133
-0.717701
-0.385961
-0.107539
0.126584
0.323405
0.487005
0.622627
0.738528
0.835017
-11.9539
-11.7003
-9.9548
-7.2388
-5.59118
-4.33503
-3.33951
-2.54822
-1.89832
-1.36214
-0.916777
-0.543919
-0.230397
0.0339024
0.257091
0.445228
0.601147
0.730813
0.84339
0.936461
-11.2573
-10.774
-9.17532
-6.62522
-5.0435
-3.86127
-2.91389
-2.16652
-1.55659
-1.05434
-0.638357
-0.290619
0.00177351
0.248547
0.457383
0.634586
0.784902
0.913365
1.02477
1.10857
-10.6441
-10.0599
-8.25096
-5.94029
-4.43696
-3.32389
-2.42257
-1.71487
-1.14254
-0.672291
-0.283702
0.0407908
0.313946
0.545145
0.741622
0.909237
1.05168
1.17515
1.28092
1.34939
-10.1024
-9.537
-7.42372
-5.17474
-3.71226
-2.65035
-1.79058
-1.12249
-0.590277
-0.156656
0.198739
0.493396
0.740122
0.948178
1.12455
1.27485
1.4025
1.51477
1.6081
1.65603
-9.63712
-9.02097
-6.66765
-4.31823
-2.83865
-1.81879
-1.00365
-0.381088
0.104462
0.494239
0.808715
1.06556
1.27764
1.45421
1.60215
1.7271
1.83239
1.9252
1.99498
2.02902
-9.12492
-8.14597
-5.56724
-3.24789
-1.78782
-0.826225
-0.0673935
0.498876
0.929178
1.26674
1.53173
1.74233
1.9114
2.04832
2.16015
2.25212
2.32619
2.39258
2.44096
2.46004
-8.27104
-6.63468
-4.0712
-1.99641
-0.603377
0.291251
0.987709
1.48809
1.85588
2.13342
2.34082
2.49756
2.61625
2.70631
2.77493
2.82599
2.86763
2.90596
2.92797
2.93143
-7.16327
-4.96596
-2.65169
-0.630273
0.693116
1.50842
2.13884
2.55711
2.84728
3.05231
3.19241
3.28827
3.35145
3.39056
3.41185
3.42137
3.42815
3.43666
3.4337
3.41533