/*--------------------------------*- C++ -*----------------------------------*\
  =========                 |
  \\      /  F ield         | OpenFOAM: The Open Source CFD Toolbox
   \\    /   O peration     | Website:  https://openfoam.org
    \\  /    A nd           | Version:  6
     \\/     M anipulation  |
\*---------------------------------------------------------------------------*/
FoamFile
{
    version     2.0;
    format      ascii;
    class       volScalarField;
    location    "1.7";
    object      p;
}
// * * * * * * * * * * * * * * * * * * * * * * * * * * * * * * * * * * * * * //

dimensions      [1 -1 -2 0 0 0 0];

internalField   nonuniform List<scalar> 
5835
(
1.45313
1.00052
2.05578
1.00718
1.00312
1.00009
1
1.00182
1.00013
1.00194
1
1.00552
1.00006
1.00002
1.08323
1
3.02763
2.94216
1.00016
1
3.36205
1.00004
3.22241
1.03368
1.00003
1
1.08829
1.00005
1.0028
1
1.00032
1.00012
1
1.00004
1.00021
1.00001
1.0001
1.00004
1
1
1.00025
1
1.00002
1
1.00001
1.00021
1.00001
1.00014
1.00015
1
1
1
1.00001
1
1.00003
1.00001
1
1
1.00002
1.00007
1.00027
1
1.00218
1.00023
1
1.00011
1
1.00005
1
1.00016
1
1
1.00007
1
1.0001
1.00004
1.00001
1.0001
1.00001
1.00014
1
1.00019
1.00067
2.1052
1.39745
1
1.00556
1.00019
1.0016
1.00625
1.00015
1.00265
1
1.00013
1
1.0001
1.00045
1.00059
1.02012
1
1.00025
1.00005
1.00017
1.00006
1.01615
1.00001
1
1.03397
1.00006
1.00032
1.00043
1.00013
1.01575
1.00046
1.00025
1.00051
1.00059
1.00035
1.00012
1.00508
1.00461
1.00003
1.00007
1.00018
1.00058
1.00041
1.00094
1.00058
1.00097
1
1.00036
1.00002
1.00006
1.00013
1.0004
1.00002
4.36095
1
4.50135
1.00016
1
1.00009
4.09144
4.26542
4.96125
4.85657
1.84645
2.13993
1.00053
1.00149
2.25499
1.00095
1
1.00075
1.27935
1.21813
1.01814
1
1.00046
1.1373
1.00136
1
1.00026
1
1.028
1.00044
1.00109
1.01011
1.00018
1.00102
1.00014
1
1.00046
1
1.00028
1
1.00035
1.02024
1.00085
1.00287
1.0006
1.00022
1.00008
1
1.00094
1
1.00036
1
1.00048
1.0001
1.00003
1.00002
1.00023
1.00012
1.00038
1.00001
1
1.00004
1.00006
1.00002
3.89193
3.70536
1.00008
1.00003
1
1.00008
1.00007
1.00124
1.00003
1
1
1.0002
1.00025
1.00028
1
1.00004
1.0002
1.00008
1.00001
1.00002
1.00036
1
1
1.00147
1.00027
1.00014
1
4.95057
1
1.00006
1.00015
1.00029
1.00009
1.00042
1
1.00061
2.23948
1.00001
2.10841
1.00071
1.00015
1.00108
1.00011
1.00008
1.00017
1
1.00029
1
1
1.0002
1.00012
1.00029
1.00028
1
1.00083
1.00093
1.00018
1.00783
1
1.00062
1.00021
1.03218
1.03148
1.00014
1.04236
1
1.00022
1.00018
1.04189
1.0304
1
1.00012
1.00018
1.00057
1.00035
1
1.00001
1.0001
1.00046
1.00004
1
1.00002
1.12919
1.00019
1.00005
1.00025
1.0001
1.00005
1.00033
1
3.12377
1.49506
1.00083
1.58223
1.00011
1.00001
1.00111
1.00002
1.00024
2.97294
1
4.43591
4.7052
2.8678
1.40951
2.9055
1.00008
2.80673
1
1.84174
4.61607
1.71065
3.35018
1.08977
1.00007
1.0001
1
1.03304
1.00003
1.00091
1.00082
1
1.0001
1.07979
1.0001
1.13726
1.00001
1
3.3292
1.0005
1
1.05016
1.00006
1.00009
1.00008
1
1.00007
1
1.00002
1.00013
1.00009
3.47675
1.02545
3.39732
1.00017
1
1.00019
1.00007
1
1.00013
1.09115
1
1
1.00118
1
1.00135
1.00206
1.00017
1.07855
1
1.00887
1.00033
1.00007
1.00029
1.16196
1.00002
1
1
1.0013
1.00007
1.00079
1.00014
1.00092
1.00012
1.01891
1.00013
1.00004
1.00001
1.00007
1.00003
1.00004
1
1.00017
1.00008
1
1.00015
1.00015
1.00006
1.00002
1.00004
1.00025
1
1
1.00007
1.00008
1.00014
1.00116
1
1.00002
1.00011
1.00011
1.00009
1.0003
1.00008
1.00128
1.00224
1.00001
1.00003
1.01499
1
1.00075
1.00007
1.00034
1.00512
1
1.00093
1.02643
1.00028
1.00025
1.00026
1.00082
1.00043
1.00017
1.00072
1
1.00025
1.0008
1.00034
1.00009
1.00011
1.0002
1.00207
1.00155
1.00135
1.00078
1.00017
1
1
1.00001
1.00198
1.00013
1.00001
1
1.00091
1.00044
1.00036
1.00009
1.00007
1
1.00029
1
1.00036
1
1
1.00117
1
1
1.00058
1.00031
1.00057
1.00016
1.0001
1.00171
1
1.00102
1.00089
1.00025
1.00029
1.00063
1.00013
1.00001
1.00229
1.00022
1.00401
1.00016
1.00049
1
1.00211
1
1.00013
1.0011
1.00141
1
1
1
1.0003
1.00037
1.00036
1.00021
1
1
1
1
1.00006
1.00092
1.00026
1
1.0001
1.00074
1.00032
1.04216
1
1.00053
1.00028
1
1.00045
1.00019
1
1.0071
1.00043
1.00047
1
1.00011
1.01463
1.00026
1.0006
4.73506
1.00039
1
4.26255
4.25469
4.21773
1.00013
1
1
1.00089
2.22182
1.70236
1.00046
1.0009
1.00152
2.2122
3.85894
1.00002
4.89584
1
1.00011
1.00054
2.2063
1
1.12479
1.00081
3.91827
1.00007
1.20351
1.01714
1.00085
1
1
1.00048
1.0011
1.01978
1
1.00799
1
1.00062
1.00004
1.00005
1.00004
1.00002
1.00037
1.00032
4.78441
1.00055
1.00154
1.00013
1
1.00098
1
1
1.00107
1.00052
1
1
1.00026
1.00004
3.44793
1.00009
1.00033
1.00026
1.00003
1.00002
1
1
1.00017
1.00038
1
1.00012
1
1
1
1
1.00011
1.00075
1.00027
1
1.00008
1
1.0002
1.00077
1.00014
1.00013
1
1.00032
1.17552
1.00008
1.0001
1.00094
1.00003
1
1
1.028
1.02837
1.03563
1
1.03713
1
1.00029
1.00107
3.52031
1.00004
1.03712
1.00047
1.00019
1.06111
1.00007
2.64336
1.00007
1.69006
1.9229
1.00009
1.00023
2.80762
2.69544
1.69286
1.00008
1.00003
1
1.00023
1.07386
4.1975
1.00007
1.13964
1
1
1.00008
1.00008
4.37192
3.37998
1
1.0431
1.00003
2.55291
1.00006
1.00073
1.00046
2.94787
1.02749
3.10276
1.00025
1
1.00043
1.03096
1.03327
1.0001
1.00015
1.00006
1
1.00297
1.09131
1.00113
1
1.0833
1
1.00094
1.00003
1.00023
1.00004
1.0001
1
1.00004
1
1.0001
1
1
1
1.00057
1.00001
1.00005
1.00016
1.00683
1.00132
1.00083
1
1.00008
1
1
1
1.00001
1.00036
1.00008
1.00072
1
1
1.01584
1.01611
1.00221
1
1.00031
1.00005
1.00015
1.00034
1.00011
1.00001
1.00051
1.00038
1
1.00013
1
1.00098
1.0015
1.00185
1.0001
1.00098
1.00046
1.00089
1.00166
1.00008
1
1
1
1
1.0004
1
1.00019
1.00026
1
1.00072
1
1
1
1.00207
1.00023
1.00109
1.00015
1
1.00032
1.00008
1.00091
1.00012
1
1.00469
1
1
1.00034
1.00004
1
1.00028
1.00111
1
1.00262
1.00098
1.00239
1.0002
1.00062
1
1
1.00011
1.00055
1.00013
1.00023
1
1.00156
1
1.00042
1
1
1.00032
1.00058
1.00031
1.00057
1.00071
1.00033
1.0004
1.0005
1.00029
1.00004
1.00001
1.00001
1.00001
1.00169
1.00042
1.00005
1.00014
1.00057
1.00166
1.00088
1.00029
1.0001
1.00029
1.0003
1.00013
1.00061
1.00016
1.00123
1
1.00017
1.00006
1.0004
1.00026
1.00045
1
1.00017
1.00017
1.00019
1.00006
1
1.00088
1
1.00035
1.00022
1
1
1.00045
1.0006
1.00096
1.00101
1.42348
1.61277
1.83168
1.3754
1.00049
1
1
1.00002
1.00014
1.00015
1.00013
1.00006
1.00009
1
1.00006
1.00025
1.00007
1.00012
1.00016
1.00011
1.00011
1.00002
1.00011
1.00011
1.00051
1.00025
1.00102
1.00375
1.00106
1.1187
1.0009
1.00203
1.01102
1.00076
1
1
1.19588
1
1.00018
1.00026
1.00019
1.00097
1.0012
1.00057
1.00242
1.00088
1.00042
1.00052
1
1.00709
1.00027
1.0001
1.00125
1
1.00012
1.20741
1.02161
1.00115
1.00016
1
1.00322
1.01086
1
1.61109
1.00104
2.53271
1
1.00225
1.00088
1.00013
1
1.0012
1.00011
1.0008
1.00086
1.19178
1.19682
1.00121
1.00145
1.01689
1
1.16513
1
1.01005
1.00199
1.00003
5.64502
5.9665
1.00009
1.00026
1.00002
5.34251
6.13923
6.31494
1.00055
4.98078
1.00007
1
1.0004
6.08266
4.83839
1.00017
5.82891
4.51712
1.00007
1.00003
1.00003
5.93173
1.00007
1.00002
6.05314
1
5.02218
1.00003
1
1.00001
5.36306
4.63674
5.11587
1.00008
1.00002
1.00033
4.5277
5.76311
5.90234
4.95566
4.68866
1.00003
1.00009
5.66342
1.00008
1.00006
4.62959
4.77552
5.3611
1.00002
5.17483
1.00006
1.02606
1.00014
1.00044
1.00059
1.00003
1.00039
1.00016
1.00185
1.0015
1.00136
1.19602
1.20697
1.00069
1.00061
1.02233
1.00033
1.00118
4.20346
1.00004
1.00002
3.90173
1.00044
1.01082
1.00026
1
1
1.0007
1.00006
1.00012
1.00057
1.00031
1.0001
1.00049
1
1.00067
1.00005
1.00006
1
1.00003
1.00132
1
1.00015
1.00003
1
1
1.00039
1.00001
1.00016
1.00022
1.0003
1.00002
1.00535
1.00079
1.00001
1.00007
1
1.20952
2.56454
1
1.00002
1.04187
2.63624
1
1.24342
1.05388
1.00002
1.00011
1
1.00075
1
1
1
1.00037
1.00002
1.00002
1
1.00001
1.00009
1.00009
1.00023
1.00037
1.00127
1.00005
1.00002
1.00027
1.00107
1.00015
1.02766
1.34502
1.00012
1.00043
1.0001
1
1.00099
1.00117
1
1.00008
1.00056
1.00003
1
1
1.00078
1.00004
1.00055
1
1.0006
1.00058
1
1.00008
1.00058
1.00014
1.00166
1
1.00073
1
1.0007
1
1.0005
1
1.00028
1
1.00022
1
1.00082
1
1.00051
1.00249
1.00004
1.00051
1.00055
1.00018
1.00045
1
1.00038
1
1.00101
1.00001
1.00011
1.00069
1
1.00235
1.00054
1
1
1.00007
1.00028
1
1.00058
1.00152
1.00088
1.0007
1.00062
1
1.00137
1.00338
1.00095
1.00003
1.00004
1.00001
1.00134
1
1
1.00005
1
1
1
1.00009
1.0001
1.00103
1.00009
1.00049
1
1.00007
1.00031
1
1.00014
1.0002
1.00007
1.00015
1.00526
1.00011
1.00005
1.00064
1
1
1
1.0002
1.00002
1.00039
1.00034
1.00039
1
1
1
1
1.00016
1
1.00021
1
1.0025
1.00039
1
1.00029
1.00033
1.00041
1.00079
1.0013
1
1
1.00089
1
1
1.00031
1
1.00012
1.00037
1.00005
1
1.00064
1.00008
1.0001
1.00003
1.00122
1.00119
1.00016
1
1.00033
1.00034
1.00149
1.00005
1
1.00092
1.00009
1.00012
1.00462
1.00002
1.00076
1.00027
1
1.00043
1.00008
1.00065
1.0006
1.00019
1
1.00016
1
1.00051
1.00074
1.00116
1.00097
1.00007
1.00017
1.0005
1
1
1.00075
1.00004
1.00083
1.00999
1.00041
1.00034
1.00053
1.00012
1
1.00567
1.00037
1.00106
1.00045
1.00018
1.0009
1.00003
1.0827
1.00163
1.00602
1
1.00021
1.00015
1.00055
1.00024
1.00001
1.00077
1.05569
1.0006
1
1
1.00394
1.00049
1.00007
1
1.00251
1.00028
1.00011
1.00023
1.00215
1.04036
1.00014
1.00167
1.00002
1.0001
1.00112
1.00005
1.00005
1
1.00001
1.03766
1.00234
1.00014
1.00009
1
1.00015
1.0005
1.00003
1
1.02749
1.00028
1.00067
1.00034
1.00044
1.00004
1.00075
1.00008
1.00883
1.0012
1.00002
1.00007
1.001
1.00714
1.00059
1.00002
1.00743
1.00005
1.00752
1.00046
1.00185
1.00684
1
1.0003
1.00007
1.00009
1.00014
1
1.00006
1
1.00042
1.00013
1.00122
1
1.05859
1.00668
1.00009
1
1.00601
1.32139
2.02336
1.00005
1.00002
1.0002
1.00006
1
1.00001
1.00012
1
1.00005
1.01011
5.59484
1.00022
1
1
1.14442
1.38756
1.00004
1.00003
1.92204
1.00113
1
1.00005
1.19965
1.00019
1.00011
1.17088
2.13219
3.56517
1
4.74061
1.55148
1.00038
3.85922
1.00017
2.24635
3.75369
1.33296
2.34848
2.3466
1.00111
1.43613
1.03134
2.39578
1.00063
1.09699
1.24137
1.6514
1
1
1
1.00011
1.00011
3.50246
2.61914
1.00003
1.00016
1.00012
1.10344
1.40766
1.00037
1.00019
1.37801
1.00011
1.00012
2.63178
1.00007
1.00006
1.00009
1.45194
1.37198
1.0008
1.00023
1.18662
1.00048
1.17475
1
1.09596
1
1
1.00667
1.02914
1.00003
1.00019
1.2099
1
1.00215
1.00014
1.00016
1
1
1
1.00019
1.00055
1.00012
1.79082
1.00008
1.00007
1.00048
1.36829
1.00022
1
1.00008
1.00071
1
1.0006
1.00776
1
1.00001
1.00123
1.00019
1.00079
1.00033
1.00065
1.00035
1.00076
1.11549
1.00005
1
1.04965
1
1
1.00001
1.00202
1.778
1.61413
1.00007
1.00064
1
1.00058
1.00001
1.00006
1.11959
1.00115
1.00051
1.00015
1
1.00016
1
1.00033
1.00052
1.88411
1.0002
1.00019
1.00014
1.0049
1.00013
1
1.0833
1.05565
1.00952
1.00022
1.00006
1.00066
1.33281
2.22813
1.00161
1.00017
1
1.00042
1.00049
1.00432
1.00095
1
1
1.00252
1
1.00221
1.00062
1.00045
1.00015
1
1.00006
1.00002
1.00003
1.0001
1.00013
1.00001
1.00008
1.0002
1.00011
1.00004
1.00001
1.00025
1.0002
1.00004
1
1.00024
1.00019
1
1
1.00007
1.00011
1.00006
1
1.00011
1.00026
1
1.00005
1.00011
1.00019
1.00007
1.00008
1
1
1.00016
1.00037
1.00001
1.00004
1
1
1
1.00021
1.00006
1.00015
1.00037
1.00006
1.00009
1.00006
1
1.0001
1
1.00021
1.00022
2.19654
1.00007
1
1.00798
1.00029
1.00053
1
1.0003
1
1.00046
1.00026
1.00012
1.0005
1.01912
1.00489
1
1.01378
1.00069
1.00057
1.00037
1.00052
1.00003
1.00037
1.00121
1.00019
1
1.00022
1.00099
1
1.00053
1.00106
1
1.00044
1
1.00044
1
1.00035
1.00011
1
1
1
1.00052
1.00037
1.00033
1.00038
1.00007
1
1.00012
1.00001
1.00061
1.83831
1.00044
1.00007
1.0006
1.00136
1
1.00094
1.0006
1.00015
4.10669
1
1.00011
1.00008
1
1.00063
1.00009
1.0004
3.01899
1.00107
1
1.00021
1.00022
1.00138
1.00153
1.00092
1.00054
1.06439
1.00096
1.00042
1
5.48275
1.00004
1.00003
2.20513
1.00005
1.09915
1.00034
1
1.00004
1.00025
1.00017
1.00373
1.00048
1.00097
1.00128
1.00062
1.00006
1.00003
1.00115
1.00017
1.00037
1.00256
1.00256
1.00108
1.01015
1
1.00203
1.00056
1.0002
1
1.00011
1.00011
1.00754
1.00034
1.00034
1.00013
1
1
1.00003
1.00005
1
1.00292
1.00001
1.00057
1.00043
1.00005
1.00027
1.00038
1.0003
1
1.00032
1.00033
1
1.00065
1.00056
1.00021
1.00002
1.0068
1.00045
1.00004
1.00018
1.00008
1.00309
1.0009
1.02038
1
1.00953
1.00035
1.00071
1
1.00011
1
1.00007
1.01506
1.00055
1
1.00002
1.00003
1.00009
1.00016
1.00008
1.00012
1.0001
1.04218
1.09003
1.00009
1.00008
1.00039
1.00018
1.00004
1
1.00006
1.0001
1.00014
1.06263
1.00009
2.60272
1.00013
1.00006
1.00004
1.02995
1.00038
1.08422
1
1.00004
1.00005
1.00004
3.1279
1.00028
1
1.00004
1.06041
1.00011
1.0002
1.00024
1
1.00008
1.00009
1.00012
1.00125
1.00003
1.00044
1.00003
1.00019
6.00439
1.0002
4.07756
1.00007
1
1.00006
1.0002
1.00008
1.00012
1
1
1.00023
1.0002
1.00033
1.00034
1.00001
1.00039
1
1.00024
1.00039
1
1
1.00035
1.00013
1.00011
1
1.00073
1.00033
1.00034
1
1.07963
1.00011
5.7684
1.00001
2.68147
1.00001
1.00023
1
1.27538
1
4.17482
1
3.02916
1.00056
1.86489
3.07026
1.62069
1.16302
1.00173
1.00101
3.92867
1.0001
1.00038
4.84956
1.0006
1.00155
3.55703
1.00019
2.81778
3.12263
1.00012
1.00115
1.00016
3.40429
1.00022
1.88636
1.00033
5.90272
1
3.17463
1.00004
1.00325
1.00084
1.00017
1.00066
1.00001
1
1.00013
1.00078
1.00109
1.00112
1.00655
1.00003
1.00006
1.00041
1.65685
1.11968
1
1
5.40015
5.84735
1.00008
1.00051
5.90961
6.65853
1.00017
1.00005
5.77907
6.19962
1.0003
5.72587
6.55936
1.00009
1.00008
1.00006
6.88431
6.55471
1.0004
6.86649
1
6.81608
1.00005
1.00037
5.5785
6.03761
5.89533
1
1.00003
6.07117
5.98042
1.00008
5.7321
1.00015
5.67395
1.00007
1.00005
5.70696
5.57513
1.00021
1.0002
5.98818
1.00002
1.00016
6.11746
6.01336
1
1.00003
6.20276
6.05469
1.00053
1.00022
7.09901
6.84152
1
6.3237
6.43063
1
1.00027
7.12191
1.00044
6.96639
7.05132
1.00028
1.00049
7.24172
1.00017
6.80716
1.00011
6.80989
6.6624
1.00005
1.00003
6.59156
1.1142
1.00052
1.00094
1.10824
1.00012
1.00136
1.0008
1.00018
1.00271
1.00071
1
1.75414
1.26885
1.00322
1.00026
1.00071
1.00007
6.20962
1
1.00003
5.95159
1.00003
6.34344
6.98075
1.0002
5.77276
1.00058
5.5243
1.00021
6.4385
1.00012
1.00019
1.00006
6.96236
6.96606
5.89264
6.35952
1.00038
1.00015
1.00002
1.00006
6.13372
1.0008
1.00001
1.00002
1.00015
1.00013
1.00007
6.13186
5.43147
5.9378
6.20171
5.34178
6.47951
1.00011
1.00061
6.7049
1.00008
5.82989
7.32518
5.96849
1.0003
1.00006
6.45627
1.00004
6.31631
1.00002
6.35182
6.11272
1.00003
1.00041
1
1.00152
1.00109
1
1.00001
1
1.44995
1.07277
1.00013
1
1
1.00034
1.00009
1.00027
1.00286
1.00093
1.03488
1.44241
4.46076
1.00003
1.00001
1.00001
4.82512
1.00002
4.8274
5.13212
1.00002
1.00066
1.00012
1
1.00043
1.00084
1.00011
1
1.00041
1.00016
1
1.00004
1
1.00013
1.00044
1
1
1.0002
1
1.00004
1.00003
1
1
1.00047
1
1.00012
1.00038
1.0003
1.00011
1.0006
1.00014
1.00015
1
1.0001
1.00002
1.7057
1
1.34167
1.37314
1
1
1
1.72412
1.01076
1
1.00011
1.00069
1.00005
1.00592
1
1.00028
1
1.00001
1
1.00023
1
1.00004
1.00012
1
1
1.00004
1
1.0003
1.00038
1.00038
1.00101
1.00017
1
1
1
1.00008
1.00015
1.00011
1.00054
1.00048
1
1
1.00052
1.00011
1.00055
1.00028
1.00002
1.00038
1
1
1.00037
1.00002
1
1.00009
1.00036
1.00072
1.00006
1
1.00028
1.00077
1.00003
1.00021
1.00085
1.00076
1.00052
1
1
1
1.00011
1.00016
1.00019
1
1
1
1.00003
1.00085
1.00024
1.00017
1
1
1.0008
1.00132
1.00109
1
1
1.00059
1.00014
1.00081
1.00006
1.0007
1.00045
1.00042
1.00408
1.00029
1
1.00382
1
1
1
1
1.00047
1
1.00006
1.00072
1.00382
1.00001
1.00087
1
1.00047
1
1.00022
1
1
1
1.00164
1.00098
1.00061
1
1.00058
1.00001
1
1.00093
1.0006
1
1.00077
1.002
1.0003
1.00053
1
1
1
1.00001
1.00072
1.0006
1.00046
1.00008
1
1
1
1
1
1.00012
1
1.00062
1.00028
1.00015
1
1.00039
1.00003
1.00055
1.00002
1.00117
1.00038
1.00009
1.00112
1.00002
1.00031
1.00028
1
1.00123
1
1.00013
1.00014
1
1.00019
1.00067
1.00063
1
1
1.00028
1.00025
1
1.00097
1.00028
1.00014
1.00134
1.00008
1.00048
1.00017
1
1
1.00032
1.00048
1.00055
1.00176
1
1.00411
1
1.00052
1.00017
1.00007
1
1.00024
1.00016
1.00043
1.00019
1
1
1
1.00004
1.00079
1.00032
1.00059
1.00005
1.00015
1
1.00246
1
1.00002
1.00021
1.00008
1.00105
1
1
1.00008
1.0009
1
1
1
1.00086
1.00023
1.00005
1.00027
1.00003
1.0028
1.00018
1.0006
1
1
1
1
1
1.00001
1.0004
1.00056
1.00335
1.00004
1
1.00141
1.00039
1.00098
1.00001
1.00129
1.00015
1
1.00026
1.0002
1.00105
1.00001
1.00077
1.00036
1.00119
1.00012
1.00048
1.0003
1
1.00007
1
1.00056
1.00065
1.00078
1.00062
1.00043
1
1.00071
1
1.0001
1.00052
1.00007
1
1.00009
1.00007
1
1.00058
1
1.00032
1
1.00118
1.00015
1.00053
1.00011
1.00076
1.00062
1.00016
1.00455
1
1.00019
1.00036
1
1.0006
1.0033
1.00011
1.00127
1.00024
1.0009
1.00121
1.00026
1.00037
1.00014
1.00341
1
1.00015
1
1.00004
1
1.00129
1.00115
1.00002
1
1.00081
1.00059
1.00029
1
1
1
1.00307
1
1.00195
1.00245
1.08793
1.00002
1.00002
1
1
1.00158
1.07273
1
1.00444
1
1.00012
1.00057
1.0733
1.00043
1
1
1.00023
1.05856
1.00032
1.00037
1.00044
1.00009
1.00042
1
1.00003
1.00279
1.00002
1.00027
1.00048
1.00006
1.00052
1.00208
1
1.00044
1.00012
1.00043
1
1
1.00191
1
1
1.00041
1.00159
1
1.00051
1.00028
1.00009
1.00224
1
1.00007
1.00019
1.00206
1.00026
1.00006
1.00036
1
1.00042
1.00002
1
1.00006
1.00223
1
1.0172
1.00023
1
1.0003
1.00074
1.00089
1.0001
1.00005
1.00028
1
1.0004
1.001
1.00015
1
1.00037
1.00378
1.00033
1.00079
1
1.00006
1
1.0009
1
1
1.00023
1.00001
1.00075
1.00026
1
1
1.00529
1.00045
1.00057
1.00005
1.00002
1.00017
1
1.00077
1.00103
1
1.00611
1
1
1.00866
1.00008
1.00065
1.00094
1.00015
1
1.00065
1.00058
1
1.00094
1.00004
1.00078
1
1.00416
1.00009
1
1.00086
1.00016
1.0005
1
1.00019
1.00169
1
1
1
1.00008
1.00106
1
1
1.55388
1.00003
1.00002
1
1
1.44674
1.30282
1.25585
1
1.00003
1.44182
1.58644
1
1
1
1.00009
1.3629
1.4296
1.00016
1
1.00015
1.00035
1.00023
1.10912
1.00006
1
1.00019
1
2.52377
1
1
1.07403
1.0001
1.00001
2.99269
2.42722
3.25195
1
1.49066
3.12475
1
1
2.79815
2.56344
1.33298
1.28677
1.00049
2.82256
1.30439
1.45969
1.00001
1
1
2.9678
1.03392
1.00048
1
1.0012
2.89251
1
1.00044
1.00002
1.00012
1.00016
1.00011
1
2.72368
3.29875
1.00038
1.00007
1.10536
1.30941
1.49649
1.49014
1.00059
1.65102
1.87908
1.00012
1
1.00031
1.2559
1.00032
1.00002
1.00011
1.00044
1.53975
1
1.00342
1.00053
1.00017
1.00001
1.00052
1.00014
1.0002
1.00893
1
1.06565
1
1.20162
1.23598
1.00006
1
1.00058
1.00013
1.00049
1.32761
1.00004
1.25448
1.00015
1.00062
1.00006
1.1955
1.00005
1.00051
1.56983
1.37904
1
1.00034
1.00002
1.00095
1.00068
1.38109
1.45699
1.00051
1.00067
1.00017
1
1
1.00002
1.00046
1.00022
1.00003
1.00001
1
1.00009
1.00005
1.00004
1.00002
1
1
1.00023
1.00006
1.00007
1.00002
1.00043
1.0002
1
1
1
1.00007
1
1.00088
1
1.00001
1.00019
1.00008
1
1.00008
1
1.0004
1.00019
1.00022
1.00021
1.0002
1.00038
1.00012
1.00016
1.0001
1.00002
1.00018
1.00024
1.00009
1.00023
1.00006
1.00008
1.00032
1.00002
1
1.00005
1.00023
1.00012
1.00027
1.00003
1.00031
1.00006
1.00004
1.00019
1.00003
1.00004
1.00014
1.00008
1.00004
1.00017
1
1.00017
1.00006
1.00013
1
1.00038
1
1.00015
1
1.00011
1.00012
1.00007
1.00026
1.0001
1.00025
1.0003
1
1
1.00019
1.07509
1.00002
1.07233
1.00001
1.00174
1
1.00104
1.00039
1
1
1.0002
1.00019
1
1.00169
1.00118
1.00042
1.00008
1.00041
1
1.00026
1.14538
1
1.07749
1.00211
1.00228
1.00014
1.00018
1.00016
1.00026
1.00018
1.54265
1.10175
1.00024
1.00015
1.38312
1.46471
1.00048
1
1.00008
1
1.00011
1.89005
1.77253
1.00114
1
1.09419
1.0009
1.57439
1.41958
1.00013
1
1
1.01445
1.00012
1.00242
1.00036
1.00007
1.00004
1.01189
1
1.0038
1.00087
1
1
1.07636
1.00044
1.00331
1.0001
1.0017
1.00075
1.00027
1.05602
1.0008
1.00048
1.01405
1.01698
1.00018
1.00015
1.00004
1.00007
1.0004
1
1.0068
1.00019
1.00038
1.00028
1.00009
1
1
1.00024
1.00008
1.00037
1
1.00003
1.00013
1
1.00014
1.00014
1.00025
1
1.00032
1.00013
1
1.00104
1.00336
1.00123
1.00028
1.00053
1.00024
1.00035
1.00002
1.0003
1.00001
1.00905
1.00085
1.00022
1.00012
1.0086
1.00036
1
1.00327
1.00561
1.00733
1.00994
1.00044
1.00059
1.00045
1.00054
1.00027
1.00078
1.00012
1.00028
1.00008
1
1.00031
1.00032
1.00013
1.00045
1.00022
1.00026
1.00011
1.00014
1.00015
1.0002
1
1
1.00042
1.0007
1.00016
1
1
1.00028
1.00043
1.00076
1.00003
1.00008
1
1.00071
1
1.001
1.00023
1.00082
1.00013
1.00048
1
1.00007
1.00017
1.00051
1.0002
1
1.00113
1.00003
1.0005
1.68931
1.0007
1.66491
1.00013
1.00013
1.00001
1
3.5468
3.98209
1
1.0001
1.00014
3.15519
3.39421
1.00044
1.00135
1
1.00059
1
1.00036
1.00089
1.00103
1.00056
1
1.00003
1.00122
1
1.00117
1.00012
1.00007
1.00012
1.00116
1
1.0005
1.00141
1.00037
1.00034
1.00018
1.00098
1.00089
1.00216
1
1.0016
1
1
1.00091
1
1
1.00014
1
1.00084
1.00007
1.00024
1
1.00039
1.00276
1.00052
1
1
1.00041
1.00023
1.00229
1
1.00488
1
1.00479
1.00063
1.00063
1.00062
1.00386
1
1.00293
1.00231
1.00143
1.00092
1
1.00483
1.00074
1.00087
1.00077
1.00045
1.00101
1.00444
1.00029
1.00005
1
1.00052
1.00009
1.00019
1
1.00003
1.00002
1.00015
1
1
1.00008
1.00012
1.00015
1
1
1.0001
1.00021
1
1
1.00001
1.00019
1.00009
1
1.00003
1.0002
1.00042
1.00013
1.00018
1.00019
1
1.0001
1.00011
1.00022
1.00003
1
1.00039
1.00011
1.00023
1.00009
1
1.00009
1.00007
1.00023
1
1.00021
1
1
1.00003
1
1.00001
1.00005
1
1
1.00003
1.00006
1.00003
1.00003
1.00619
1.00035
1.00024
1.00036
1.00024
1.00008
1.046
1
1.03521
1
1.6224
1.00003
1.00009
2.03236
1.79917
1
1.00941
1.00065
1.0001
1.00027
1
1.00011
1.0002
1.00007
1
1.00025
1.00098
1.00384
1.00007
1.00008
1.00003
1.00014
1
1
1.00009
1.00027
1.00015
1.00011
1
1.00002
1.00014
1.00065
1.0053
1
1
1.00005
1.00013
1
1.00019
1.00011
1.00031
1.00001
1
1.00005
1.08831
1.0005
1.00031
1
1
1.00005
1.01759
1.0002
1.08111
1.04499
1.00028
1.01639
1.00053
1
1
1.0002
1.0001
1.05747
1
1.07058
1
1.00006
1.00054
1.00026
1.03239
1
1
1.00044
1.00048
1.00056
1.00023
1.00061
1
1.07086
1
1.00038
1.00043
1.0005
1.03879
1
1.00011
1.00024
1.0003
1.00037
1.00042
1
1.00034
1.00038
1.00032
1
1
1
1
1
1
3.83765
3.81102
3.30877
1
3.32802
1
1.00024
1.56056
1.45988
1.0015
1.00123
1.30144
1
1.22644
1.26514
1.00031
1
3.97176
3.53684
2.97991
1.00065
1.00026
3.03206
3.07689
1.00019
3.37433
1.00084
2.60548
1.00052
1.00008
2.39841
1.00013
2.23706
1.00007
2.01927
1.0001
1.00009
1.00016
1.00059
1.00085
1.00542
1.00031
1.00018
1.0001
1.60646
1.12915
1.00037
1
1.00021
1.00049
1.00028
1.00232
1
1.04771
1.52103
1.00047
1
1.00184
1.00298
1
1.00042
1
1.50904
1.09268
1
1
1.00121
1.00073
1.00041
1.00279
1
1.00014
1
1.00011
1.6142
1.05746
1.00373
1.00051
1.0017
1.0003
1.00012
1.00041
1.00082
1
1.05807
1.69721
1.00117
1
1
1.00126
1.00067
1.00137
1.00209
1
1.00006
1.00053
1.00007
1
1.00009
1
1.00031
1
1
1.48241
1.5207
1.04919
1.07395
1.00007
1.00019
5.82002
1
5.92729
1.00006
1.00259
1
1
1.00023
1.00059
1.00087
1.76218
1.00185
2.55886
1.01261
1.00417
1.92015
1.00036
1.00055
1.00165
1.0017
1.00048
1
1
1
1.00002
1.35908
4.403
4.5443
6.25444
7.3568
5.60307
6.45437
4.23402
4.07728
7.23051
6.06371
6.27506
5.44457
1.00024
1.00037
1
1.00045
1
1.00027
1
1
1.00038
1.00073
1.00008
1.00041
1.00214
1.00126
1
1
1.85657
1.00096
1
1
1
1
1
1.00192
1.00106
1.00053
1
1.00002
1
1
1.00035
1.00046
1.00106
1.00071
1.00134
1.00145
1.00081
1.00183
1.00181
1.00091
1.00037
1.00053
1.00156
1.00117
1.00102
1
1.00043
1.00153
1.00028
1.00034
1
1.00002
1
1
1.00013
1.00057
1
1.00009
1.02495
1.04751
1.02233
1.00183
1.00279
1.00085
1.00019
1.00194
1.00262
1.00025
1
1.00016
1
1
1
1.00197
1.0037
1.00101
1.00157
1.00063
1.00226
1.00107
1.00089
1.0011
1.00095
1.00014
1.00031
1.00044
1.00046
1.00048
1.00113
1.00097
1.00007
1.00076
1.00012
1
1.00034
1.00031
1.00026
1.00018
1.00012
1.00034
1
1
1.00023
1.00001
1.00035
1.00014
1.00035
1.00013
1.00027
1.00046
1.00013
1
1
1
1.00006
1.00006
1.00025
1.00068
1.00182
1.00019
1.00028
1.0002
1.00069
1
1.00108
1.00038
1.00003
1
1
1
1
1.00004
1.00002
1.00008
1.00002
1.00012
1
1
1.00132
1.00187
1
1
1.00085
1.00128
1
1.00011
1.00024
1.00005
1.00015
1.00016
1.00107
1.00126
1.0013
1.00129
1.00075
1.00045
1.00005
1.00013
1.00003
1.00005
1.00007
1
1
1.00005
1.00012
1.00008
1.0002
1.00012
1.27827
1.13779
1.73899
1.46534
1.78934
1.62169
1.00003
1
1.00008
1
1.00006
1.0001
1.17554
1.4708
1.01832
1.1014
1.09137
1.35886
1
1.00005
1.00009
1.00004
1.00023
1
1.00005
1
1
1
1
1
1.0001
1.00027
1
1.0001
1.00011
1
1.00016
1.00031
1.00023
1.0005
1.00039
1.00012
1.00012
1
1.00011
1
1.00021
1
1.00011
1.00015
1.00027
1.00025
1.00062
1.00024
1.00032
1
1.00022
1.00017
1.00035
1
1.00011
1
1.00008
1.00016
1.00002
1.00016
1.00044
1
1
1.00005
1.0003
1.00061
1
1.00008
1
1.00009
1.00005
1.00025
1.00031
1.00003
1.00015
1.00018
1.00088
1.00043
1.00023
1.00066
1.00069
1.00082
4.44363
3.37599
3.98291
4.09514
1.00054
1.00042
1.00041
1.00063
1.00016
1
1.00062
1.00046
1.00142
1.0003
1
1.0001
1
1.00048
1.00023
1.00025
1
1.00013
1.00009
1.00007
1.00014
1.00025
1.00056
1.00038
1.0004
1.00035
1.00059
1.00027
1.00025
1.00062
1.00108
1.00166
1.00056
1.0002
1.00037
1.00041
1.00041
1.00042
1.00078
1.00087
1.00158
1.00072
1
1
1
1.00049
1
1
1.00022
1.00068
1.00079
1.00105
1.00036
1.0003
1.00043
1.00037
1.00044
1.00032
1.00012
1.00012
1.00027
1
1.00008
1.00082
1.00007
1.00023
1.00018
1.00029
1.00014
1.00047
1.00005
1.00034
1.00108
1.00118
1.0008
1.00141
1.00005
1
1
1
1
1.00004
1.26884
1.07081
1.1267
1.00006
1.00003
1
1
1.00003
1
1.00021
1.00015
1
1.00024
1
1
1.0002
1.00401
1.00153
1.00115
1.00082
1.00324
1.0001
1.00442
1
1.00058
1
1
1.00035
1
1.00009
1.01732
1.04667
1.01015
1.02072
1.00445
1.00001
1.00002
1
1.00003
1
1.00003
1.00021
1.00023
1.0004
1.00031
1.00036
1.00016
1
1.00004
1.00009
1
1.00032
1.00007
1.00012
1
1.00005
1.00012
1.00017
1.00012
1.00018
1.00023
1.00091
1.00136
1.00079
1.00062
1.00059
1
1
1.00226
1
1.00266
1.00091
1.00004
1
1
1
1.00003
1
1.00008
1.00356
1.00012
1.00523
1.00157
1.0016
1.00057
1.00378
1
1.00139
1.0022
1
1
1
1
1
1.00013
1
1
1.00008
1.00006
1
1
1.10065
1.0358
1.15162
1.04393
1.19974
1.03901
1.10003
1.02271
1.00077
1.00006
1.00007
1.00027
1
1.00021
1.00005
1.00017
1.00018
1.00006
1.0001
1.00016
1.00014
1.00118
1.00056
1.00091
1.00131
1.0002
1.00077
1.0178
1.04791
1.01089
1.02099
1.01242
1.01658
1.00069
1.00026
1.00056
1.00073
1.001
1.00033
1.00004
1.00002
1.0002
1.00003
1.00029
1.00021
1.00002
1
1.00014
1.00007
1
1.0002
1.00003
1
1.10625
1.03646
1.38267
1.22977
1.55813
1.41231
2.57591
2.02907
6.12166
4.62825
4.83633
3.47719
2.45697
1.97517
6.06917
4.56373
4.70178
3.43682
2.48467
1.27523
2.37419
2.04846
4.42793
2.09283
1.00012
1.00006
1.00009
1.00004
1.0001
1.00006
1.1689
1.05117
1.02371
1
1.09396
1.01626
1.00004
1.0001
1.00006
1.00048
1.00056
1.00024
1.00028
1.00031
1.00039
1
1.0004
1.00008
1.00012
1.0001
1.00011
1.0001
1.00015
1.00027
1.00037
1.00007
1.00016
1.00017
1.00031
2.94787
2.05377
1.93537
1.68501
2.46806
1.82743
3.08662
4.08702
2.95596
3.68429
1.00013
1.00008
1.00071
1.00008
1.0001
1
1.58057
2.29273
1.35939
1.64023
1.45681
1.61901
1.00017
1.00027
1.00081
1
1.00083
1
3.84816
3.62766
6.57849
5.69134
6.82755
6.09617
1.02637
1.11536
1.00204
1.02998
1
1
1
1.00053
1.00032
1.00026
1.00008
3.41454
3.05233
6.78027
5.43644
5.59622
4.79889
2.2298
4.47174
2.98216
5.48631
2.11709
4.40344
1.07113
1.25411
1
1.05885
1.01306
1.0264
1.00015
1.00002
1.00011
1.00002
1
1
1.0018
1.0008
1.00065
1.00031
1.00142
1.00145
1.00185
1.00136
1
1.00026
1.00028
1.00003
1.00011
2.98225
2.89516
1.44944
5.17227
2.61948
1.00073
1.00344
1.00009
1.00035
1.00073
2.94211
2.48009
6.56026
5.05904
5.20128
3.92325
1.00009
1.0002
1.00012
1.00001
1.00012
1
1.0001
1.00002
2.81356
2.34431
6.04194
4.75155
4.96206
3.73043
1.00016
1
1.00013
1.00042
1.00034
1.00016
1.00094
1.0016
1.00161
1.00134
1.00105
1.00162
1.00555
1.0007
1.00022
1.00045
1.00017
1.00114
1.00144
1
1.0002
1.00046
1
1.00039
1
1.00002
1
1
1
1
1.00005
1.00025
1
1
1
1.00011
1
1
1
1.00013
1.00028
1
1
1
1
1.00013
1.0001
1
1
1
1
1.00093
1.0009
1.00136
1.00056
1.0008
1.00026
1.0011
1.00043
1.00083
1.00081
1.00064
1.00002
1
1
1
1
1.00006
1.00029
1.00061
1.00053
1.00057
1.00087
1.0009
1.0011
1.00128
1.00254
1.00283
1.00005
1
1
1.00005
1.00003
1.00007
1.00009
1
1.00007
1.00002
1.00001
1
1.00381
1.00243
1.11344
1
1
1.00029
1.00061
1.00276
1
1
1
1
1
1
1
1.00041
1.00085
1.0001
1.00001
1
1.00012
1
1
1.00154
1.00113
1.00029
1.00147
1
1.00007
1.00015
1
1.00003
1.00019
1
1.00023
1.00019
1.00025
1
1.00026
1.00017
1
1.00056
1
1.00067
1
1.0002
1.00073
1.00059
1.00067
1
1
1
1.00028
1
1.00003
1.00021
1.00005
1
1.00031
1
1.00004
1
1.00022
1
1.00049
1.00038
1.00036
1.00021
1.00001
1.00005
1.00006
1
1
1.00012
1.00004
1.00113
1.00232
1.0011
1.00173
1.00027
1.0003
1.00051
1.00006
1.00159
1.00117
1.00061
1.00273
1.00002
1
1
1.00004
1.00005
1.00033
1.00066
1.00142
1.0002
1
1
1.00021
1.1614
1.25535
1.00077
1.00035
1.00032
1.00038
1
1.00007
1.00024
1.00035
1.00063
1.00035
1.00004
1.00026
1
1.00017
1.00058
1.00014
1.00001
1.00002
1.00009
1.00003
1.00005
1.00017
1
1
1
1.0017
1.0022
1.00111
1
1.00091
1.00061
1.00051
1.00147
1.00086
1.00127
1.0003
1.00009
1.0003
1
1.00034
1
1.00097
1.00067
1
1.00135
1.00023
1.00139
1.00098
1.00142
1.00239
1.00123
1
1.00004
1
1.00019
1.00027
1.00056
1.0001
1.00023
1.00008
1.00037
1.00125
1.00092
1.00065
1.00134
1.00146
1.0017
1.00112
1.0017
1.00206
1
1
1.00038
1
1
1.00012
1.00165
1.0003
1.00004
1.00019
1
1
1.00006
1
1.00012
1.00075
1.0002
1
1
1.00021
1
1.00106
1.00029
1.00194
1.00047
1.00211
1.00167
1.00006
1
1
1.00051
1
1
1
1
1
1.00049
1
1
1
1.00031
1.00059
1.00163
1.0004
1.00048
1
1.00029
1.00046
1.00017
1
1.00005
1.00015
1.00085
1.00242
1
1.00053
1
1.00006
1
1.00052
1.00012
1.00014
1.00011
1.00082
1.00089
1.00426
1.00008
1.00211
1.00033
1.00171
1.00112
1.00334
1.00095
1.00141
1.00116
1.00109
1.00009
1
1.00179
1
1
1.00241
1.00101
1
1.00243
1
1
1.00002
1
1.00007
1
1
1.00059
1
1.00046
1.00006
1
1.00009
1
1.00048
1.0002
1.00123
1.00047
1.00279
1
1.00034
1.00017
1.00041
1
1
1.0005
1.00027
1.00016
1.00014
1
1
1
1
1
1
1.00024
1.00008
1
1
1.0004
1
1
1.00012
1.00017
1.00061
1.00088
1.00004
1.00148
1.0024
1.0015
1.00115
1.00044
1.0008
1.0001
1
1.00008
1.00035
1
1
1.00012
1
1.00029
1.00012
1
1.00013
1.00002
1.00023
1.00011
1.00009
1.00028
1.00041
1.00172
1
1.00006
1.0001
1.00011
1.00004
1
1
1
1.00002
1
1.00002
1
1.00008
1
1
1
1.0014
1
1
1.00021
1.00038
1.00037
1.00048
1.00009
1.00006
1.00077
1
1
1
1.00063
1.00048
1
1.00001
1.00044
1.00022
1.00018
1
1
1
1
1.00047
1.00058
1.00048
1.00013
1.00031
1.00034
1
1.00128
1.00074
1.00358
1.00307
1.00006
1
1.00021
1.00059
1.00018
1.00003
1.0003
1.00064
1.00008
1.00008
1.00018
1.00019
1.00002
1
1
1
1
1.00003
1.00105
1.00024
1.00038
1.00014
1.00019
1
1.00184
1.00373
1.00073
1.00236
1.00119
1.00038
1.00053
1
1