/*--------------------------------*- C++ -*----------------------------------*\
  =========                 |
  \\      /  F ield         | OpenFOAM: The Open Source CFD Toolbox
   \\    /   O peration     | Website:  https://openfoam.org
    \\  /    A nd           | Version:  6
     \\/     M anipulation  |
\*---------------------------------------------------------------------------*/
FoamFile
{
    version     2.0;
    format      ascii;
    class       surfaceScalarField;
    location    "238";
    object      phi;
}
// * * * * * * * * * * * * * * * * * * * * * * * * * * * * * * * * * * * * * //

dimensions      [0 3 -1 0 0 0 0];

internalField   nonuniform List<scalar> 
857
(
0.00144457
0.00186377
-2.8423e-06
0.00144366
0.00184749
-2.79229e-06
0.00144329
0.00182329
-3.12712e-06
0.00144257
0.00181089
-2.75403e-06
0.00144201
0.00178635
-2.85281e-06
0.0014402
0.00177595
-8.27678e-07
0.00143524
0.00174053
1.7588e-06
0.00142274
0.00175386
9.49732e-06
0.0013717
0.00164142
4.86847e-05
0.00148864
0.00010519
0.0014446
1.15343e-06
0.00144369
0.00184789
8.46944e-07
0.00144335
0.00182386
2.15433e-08
0.00144263
0.00181141
4.55628e-07
0.00144208
0.00178739
-1.87953e-07
0.00144027
0.00177633
1.63064e-06
0.00143527
0.00174097
4.83804e-06
0.00142277
0.00175434
1.22834e-05
0.00137174
0.00164164
5.14735e-05
0.00148927
0.000107568
0.00144365
0.00184525
3.69163e-06
0.0014433
0.00182171
2.55258e-06
0.00144258
0.00180894
3.26464e-06
0.00144205
0.00178532
2.71548e-06
0.00144025
0.0017746
3.57438e-06
0.00143522
0.00173882
7.28883e-06
0.0014227
0.00175245
1.44052e-05
0.00137166
0.00163978
5.33057e-05
0.0014881
0.000109608
0.00144367
0.00184556
9.7234e-07
0.00144333
0.00182218
1.57045e-07
0.00144261
0.0018093
6.54836e-07
0.00144207
0.00178542
7.88637e-07
0.0014403
0.00177553
1.08799e-06
0.00143527
0.00173924
4.90649e-06
0.00142273
0.00175313
1.21834e-05
0.00137168
0.00164023
5.12472e-05
0.00148775
0.000108504
0.00144362
3.20629e-06
0.00144328
3.02035e-06
0.00144254
2.97873e-06
0.00144199
3.51096e-06
0.00144021
4.24673e-06
0.00143522
7.31764e-06
0.00142269
1.50097e-05
0.00137161
5.357e-05
0.000110379
0.00444648
0.00475486
-3.30533e-05
0.00444735
0.00470818
-3.33485e-05
0.00444957
0.00464874
-3.33563e-05
0.004451
0.0046098
-2.92298e-05
0.00445225
0.00455017
-2.9374e-05
0.00445213
0.00451584
-2.1256e-05
0.00444233
0.00443617
-9.95185e-06
0.00441665
0.00440091
1.57877e-05
0.00430442
0.0042283
0.000140505
0.00390308
0.000354284
0.00444915
-8.4888e-06
0.00445029
0.00472
-1.22028e-05
0.00445245
0.00466366
-1.71657e-05
0.00445414
0.00462459
-1.6097e-05
0.00445516
0.00456683
-1.79595e-05
0.00445484
0.00453047
-1.2808e-05
0.00444495
0.00444819
2.60824e-06
0.00441928
0.00441387
2.48166e-05
0.00430733
0.00423789
0.000153776
0.00391569
0.000364215
0.00444778
0.00470437
1.79645e-05
0.00445006
0.00465234
1.15633e-05
0.00445183
0.00461321
1.28741e-05
0.00445289
0.00455751
1.09587e-05
0.00445265
0.00452304
1.12141e-05
0.00444244
0.00443932
2.63193e-05
0.00441655
0.00440616
4.79586e-05
0.00430398
0.00422959
0.000174192
0.00390629
0.000389378
0.00444993
0.00472403
-2.01748e-05
0.00445234
0.00467117
-2.11989e-05
0.00445408
0.00463337
-2.13398e-05
0.00445539
0.00457605
-1.91676e-05
0.0044555
0.00454534
-2.14636e-05
0.00444515
0.00446176
-7.31184e-06
0.00441932
0.00442913
1.48409e-05
0.00430732
0.00425151
0.000141256
0.00392775
0.000356849
0.00444793
4.74699e-05
0.00445038
5.08254e-05
0.00445196
4.99314e-05
0.00445334
5.31568e-05
0.00445353
5.39358e-05
0.00444355
6.42171e-05
0.00441753
8.83685e-05
0.00430438
0.000210345
0.000427252
0.00775665
0.00700314
4.01814e-05
3.50819e-05
-8.84762e-05
-8.96374e-05
0.00776318
0.00691949
3.73589e-05
3.32517e-05
-9.01904e-05
-9.11752e-05
0.00776915
0.00684478
3.57405e-05
3.09857e-05
-9.0513e-05
-9.13351e-05
0.00777459
0.00675569
3.48802e-05
3.20107e-05
-9.0417e-05
-9.00069e-05
0.00778121
0.00668422
3.63372e-05
3.21701e-05
-8.75201e-05
-8.73401e-05
0.00778502
0.0066008
3.5664e-05
3.35196e-05
-8.56061e-05
-8.5249e-05
0.00779194
0.00653032
3.89195e-05
3.48074e-05
-8.14217e-05
-8.05891e-05
0.00779078
0.00644804
4.03511e-05
3.94359e-05
-7.59075e-05
-7.5609e-05
0.00778228
0.00635254
5.07327e-05
4.94668e-05
-6.61057e-05
-6.23503e-05
0.00771658
0.00620738
8.49014e-05
0.000101402
-3.24846e-05
-4.30672e-06
0.00584814
0.00015405
0.000214469
3.41845e-05
0.000103431
0.00775905
5.35556e-05
0.00776632
4.54216e-05
0.00777337
0.00679214
3.34115e-05
0.0077788
0.00671201
2.10761e-05
0.00778568
0.00664303
1.82422e-05
0.00778885
0.00656347
1.62028e-05
0.00779507
0.00649036
2.09466e-05
0.00779234
0.00640453
4.88123e-05
0.00778413
0.00630924
7.63759e-05
0.00771694
0.00616165
0.000266607
0.00581795
0.000630893
0.00776466
0.00676079
4.13434e-05
0.00777122
0.00668827
2.87266e-05
0.00777846
0.0066202
2.84596e-05
0.00778242
0.00654792
2.25245e-05
0.00778861
0.00647931
1.60228e-05
0.00778506
0.00639416
4.02003e-05
0.0077765
0.00630337
6.22958e-05
0.00771053
0.00615534
0.000246424
0.00580547
0.000633699
0.00777007
0.00673533
-2.14649e-06
0.0077766
0.00665875
1.77304e-06
0.00778459
0.0065916
-6.93992e-07
0.00778935
0.00651835
5.61077e-06
0.0077964
0.00645581
-4.98822e-06
0.00779338
0.00637103
1.87456e-05
0.00778459
0.00628595
4.11395e-05
0.00771879
0.00613721
0.000225045
0.00578791
0.000607012
0.00775997
7.14887e-06
0.00776586
2.26622e-05
0.00777347
2.02281e-05
0.00777852
3.40873e-05
0.00778614
3.18822e-05
0.00778467
5.14635e-05
0.00777557
8.33977e-05
0.0077094
0.000262815
0.000679612
0.00263303
0.00213965
1.083e-05
-0.00263492
0.00263448
0.00211411
6.91127e-06
-0.00263613
0.00263524
0.00208866
5.58658e-06
-0.0026368
0.00263644
0.00206356
4.32197e-06
-0.00263802
0.00263679
0.00203899
6.49584e-06
-0.00263804
0.0026381
0.00201536
6.15965e-06
-0.00263989
0.00263844
0.00199293
9.02681e-06
-0.00263931
0.00263998
0.00196948
1.06712e-05
-0.00264315
0.00264186
0.00194536
2.0318e-05
-0.00264189
0.00264615
0.00191048
4.97672e-05
-0.00265547
0.00265238
0.00186244
0.000117044
0.0110581
8.97777e-05
-0.00206906
-0.00206139
-0.00206008
-0.00205289
0.0110624
7.53577e-05
-0.0020451
-0.00203721
-0.00203618
-0.00202894
0.0110668
0.00802787
5.50208e-05
-0.00202153
-0.00201358
-0.00201293
-0.00200588
0.0110702
0.00794156
3.65071e-05
-0.00199777
-0.00198951
-0.00198996
-0.00198309
0.011075
0.00785567
2.66594e-05
-0.00197447
-0.00196618
-0.00196761
-0.0019606
0.0110766
0.00776946
2.78108e-05
-0.00195178
-0.00194473
-0.0019469
-0.00193933
0.0110804
0.00768064
3.61577e-05
-0.00193047
-0.00192261
-0.00192708
-0.00191944
0.0110842
0.00760834
4.82032e-05
-0.0019081
-0.00190113
-0.00190597
-0.00189647
0.0110973
0.00749105
8.4723e-05
-0.00188398
-0.0018732
-0.001884
-0.00187133
0.0111291
0.00740449
0.00023373
-0.00185554
-0.00184209
-0.00185811
-0.00184779
0.00710206
0.000661173
-0.00180861
-0.00175663
-0.00181458
-0.00177304
0.0110721
0.00802198
4.43516e-05
0.011077
0.00793622
2.91518e-05
0.01108
0.00784927
3.18262e-05
0.0110839
0.00776738
2.06798e-05
0.0110873
0.00767263
2.06598e-05
0.0110888
0.00760991
3.70298e-05
0.0110984
0.00749218
5.15738e-05
0.0111352
0.00742703
0.000186969
0.0071093
0.000609643
0.0110712
0.00803884
-2.212e-05
0.0110745
0.00794629
-1.16717e-05
0.0110791
0.00785831
-1.42751e-05
0.0110818
0.00778014
-9.90193e-06
0.0110889
0.0076809
-2.04084e-05
0.0110918
0.0076182
7.49833e-06
0.0111058
0.00749634
2.29558e-05
0.0111401
0.00743641
0.00018123
0.00712569
0.000587924
0.0110787
4.49822e-05
0.0110802
6.40279e-05
0.0110844
6.59906e-05
0.0110866
8.62083e-05
0.0110904
7.93688e-05
0.0110999
0.000107115
0.0111107
0.000124873
0.0111526
0.000292955
0.000707224
0.0139488
0.00681332
-7.6265e-05
-7.51561e-05
0.000149529
0.000153284
0.0139336
0.00672882
-7.11059e-05
-7.13308e-05
0.000152248
0.000155565
0.0139207
0.00666194
-6.87024e-05
-6.80314e-05
0.000152551
0.000155949
0.0139092
0.00658969
-6.67004e-05
-6.8761e-05
0.000152809
0.000154566
0.0139015
0.00653126
-6.8129e-05
-6.80885e-05
0.00014958
0.000151391
0.0138988
0.00645283
-6.68269e-05
-6.99247e-05
0.000148473
0.000149565
0.0138942
0.00639306
-6.76512e-05
-6.76476e-05
0.000145277
0.000145788
0.0139065
0.00631397
-6.8848e-05
-7.30319e-05
0.000141391
0.000141161
0.0139445
0.00625404
-7.58342e-05
-8.08821e-05
0.000131371
0.000126817
0.0141373
0.00617321
-0.000106997
-0.000137306
0.000103884
7.47931e-05
0.00609442
-0.000163011
-0.000259952
4.2233e-05
-4.26489e-05
0.0139593
0.0139492
0.0139366
0.00672961
0.0139223
0.00664045
0.0139059
0.00657434
0.0138959
0.0064907
0.0138895
0.00643553
0.0139021
0.00634954
0.0139427
0.00629819
0.0141359
0.00621369
0.00613376
0.0139306
0.0067815
0.0139187
0.0066815
0.0139077
0.00661718
0.0138966
0.00652245
0.0138875
0.00646531
0.0138995
0.00637452
0.0139361
0.00631317
0.0141264
0.00621023
0.00614044
0.0139304
0.00676822
0.0139211
0.00667906
0.0139109
0.00661313
0.0139027
0.00652068
0.0138913
0.00645628
0.0138999
0.00637336
0.0139325
0.00630351
0.0141238
0.00620011
0.00612702
0.0139209
0.0139138
0.0139046
0.0139001
0.0138914
0.0139048
0.0139396
0.014132
0.00212984
1.17574e-05
0.00263106
-1.80358e-05
-2.22332e-05
0.00263211
0.0028983
0.00192843
0.00192262
0.00290077
0.00289551
0.00289629
0.00210407
9.26597e-06
0.00263269
-2.17701e-05
-2.55009e-05
0.00263388
0.00289948
0.00190557
0.00189971
0.00290181
0.00289616
0.00289699
0.00207862
6.97846e-06
0.00263387
-2.33708e-05
-2.70946e-05
0.00263468
0.00290038
0.00188344
0.00187764
0.00290254
0.00289668
0.00289729
0.00205354
8.74448e-06
0.00263506
-2.50184e-05
-2.6975e-05
0.00263605
0.00290121
0.00186164
0.00185622
0.00290372
0.00289676
0.00289749
0.00202894
8.41491e-06
0.0026359
-2.28415e-05
-2.52239e-05
0.00263655
0.00290187
0.00184055
0.00183467
0.00290354
0.00289717
0.00289741
0.00200681
1.12224e-05
0.00263695
-2.24285e-05
-2.39873e-05
0.00263776
0.00290269
0.0018202
0.00181499
0.00290548
0.00289675
0.00289799
0.00198342
1.05661e-05
0.00263784
-1.90319e-05
-2.01723e-05
0.00263823
0.00290366
0.00180069
0.00179421
0.0029051
0.00289784
0.00289822
0.00196174
1.71668e-05
0.002639
-1.53055e-05
-1.63044e-05
0.00264029
0.0029048
0.0017797
0.00177436
0.0029096
0.00289803
0.00290078
0.00193299
2.80066e-05
0.00264133
-5.74347e-06
-1.3659e-06
0.00264014
0.00290824
0.00175966
0.00175073
0.00291177
0.00290208
0.00290692
0.00190276
7.90347e-05
0.00264281
1.97657e-05
5.18811e-05
0.00264726
0.00291394
0.00173442
0.00173116
0.0029282
0.00290688
0.00291691
0.00181006
0.000211588
0.00264946
8.57976e-05
0.000167796
0.00293083
0.0017007
0.00166489
0.00293106
)
;

boundaryField
{
    inlet
    {
        type            calculated;
        value           nonuniform 0();
    }
    outlet
    {
        type            calculated;
        value           nonuniform List<scalar> 
28
(
0.00126263
0.00126274
0.0012627
0.00126272
0.00126258
0.00403442
0.004038
0.00403347
0.00403747
0.00403273
0.00748705
0.00748038
0.00747863
0.00748612
0.00747426
0.00264101
0.0111494
0.0111519
0.0111426
0.0111505
0.0147025
0.0147577
0.0147293
0.0147251
0.0147297
0.00263851
0.00294805
0.00295286
)
;
    }
    side1
    {
        type            cyclicAMI;
        value           nonuniform List<scalar> 
86
(
-0.006937
-0.00210975
-0.00695235
-0.00185989
-0.00472648
-0.00684835
-0.00208323
-0.00687912
-0.00184334
-0.0046786
-0.00676897
-0.00205761
-0.00682082
-0.00181952
-0.00462088
-0.00668098
-0.00203265
-0.00675009
-0.0018071
-0.00458484
-0.00661368
-0.0020079
-0.00668832
-0.00178254
-0.00452501
-0.00653234
-0.00198593
-0.00661142
-0.00177308
-0.00449545
-0.00647021
-0.00196158
-0.0065443
-0.00173699
-0.00441479
-0.00638521
-0.00194051
-0.00646706
-0.00175061
-0.00438177
-0.00629995
-0.00191364
-0.00639352
-0.00163811
-0.00420791
-0.00615082
-0.00187967
-0.0063006
-0.00148594
-0.00388237
-0.0057706
-0.00182239
-0.00623645
-0.0021084
-0.00198849
-0.00199279
-0.00208175
-0.00196411
-0.00196849
-0.00205617
-0.00194086
-0.00194512
-0.00203188
-0.00191876
-0.0019227
-0.00200643
-0.00189601
-0.00190033
-0.00198632
-0.00187649
-0.00188003
-0.00196003
-0.00185275
-0.00185748
-0.00194268
-0.00183504
-0.00183759
-0.00191153
-0.00180714
-0.0018138
-0.00188979
-0.00180374
-0.00179386
-0.00179585
-0.00173531
-0.00174931
)
;
    }
    side2
    {
        type            cyclicAMI;
        value           nonuniform List<scalar> 
45
(
0.00184334
0.0046786
0.00676897
0.00799716
0.00682082
0.00181952
0.00462088
0.00668098
0.00790343
0.00675009
0.0018071
0.00458484
0.00661368
0.00780829
0.00668832
0.00178254
0.00452501
0.00653234
0.00772585
0.00661142
0.00177308
0.00449545
0.00647021
0.00762961
0.0065443
0.00173699
0.00441479
0.00638521
0.00755295
0.00646706
0.00175061
0.00438177
0.00629995
0.00744401
0.00639352
0.00163811
0.00420791
0.00615082
0.00736421
0.0063006
0.00148594
0.00388237
0.0057706
0.00710006
0.00623645
)
;
    }
    walls
    {
        type            calculated;
        value           uniform 0;
    }
    procBoundary2to3
    {
        type            processor;
        value           nonuniform List<scalar> 
38
(
-0.00144531
-0.00144536
0.00186374
-0.00144455
-0.00144456
-0.00144451
-0.00444479
2.97235e-05
-0.00444726
4.8361e-06
0.00476249
-0.00444644
-0.00444856
-0.00444677
-0.00774967
-0.0077513
0.00693703
0.00685831
-0.0077567
-0.00776262
-0.00775331
-0.00263358
-0.0110541
0.00820327
0.00811322
-0.0110691
-0.0110681
-0.0110749
-0.0139611
-0.0139678
0.00691159
0.00681425
-0.0139382
-0.0139392
-0.0139285
-0.0026309
-0.00289937
-0.00289566
)
;
    }
}


// ************************************************************************* //
