/*--------------------------------*- C++ -*----------------------------------*\
  =========                 |
  \\      /  F ield         | OpenFOAM: The Open Source CFD Toolbox
   \\    /   O peration     | Website:  https://openfoam.org
    \\  /    A nd           | Version:  6
     \\/     M anipulation  |
\*---------------------------------------------------------------------------*/
FoamFile
{
    version     2.0;
    format      ascii;
    class       surfaceVectorField;
    location    "4.18";
    object      Uf;
}
// * * * * * * * * * * * * * * * * * * * * * * * * * * * * * * * * * * * * * //

dimensions      [0 1 -1 0 0 0 0];

internalField   nonuniform List<vector> 
8193
(
(5.19393 0.0112012 8.57182e-20)
(5.34173 -0.0141891 8.68905e-20)
(4.5564 -0.0281199 -2.39685e-18)
(5.44039 0.0723314 -9.30173e-22)
(5.56528 0.0880512 7.48697e-20)
(5.4817 0.145754 -5.90166e-21)
(5.57712 0.157294 0)
(5.46925 0.212126 -4.25636e-20)
(5.54619 0.20834 -3.16169e-20)
(5.44793 0.269509 -1.04005e-20)
(5.51648 0.26327 1.10382e-20)
(5.42286 0.321771 4.23915e-21)
(5.48915 0.319098 4.18696e-21)
(5.391 0.370602 2.37745e-22)
(5.4589 0.373595 -5.57924e-21)
(5.3481 0.416547 6.4379e-22)
(5.42032 0.42761 5.42215e-22)
(5.29062 0.459288 6.65989e-22)
(5.36905 0.481255 -2.89503e-22)
(5.21499 0.497568 -6.45427e-22)
(5.30103 0.533518 -2.59373e-22)
(5.11704 0.529099 -3.83841e-22)
(5.21154 0.582741 -8.82036e-21)
(4.99267 0.550287 0)
(5.09496 0.62648 0)
(4.83946 0.555783 4.93471e-21)
(4.94595 0.661355 0)
(4.65741 0.538506 1.91748e-20)
(4.76197 0.682084 4.89563e-21)
(4.44179 0.493004 -1.34017e-20)
(4.54629 0.680322 -5.06585e-21)
(4.15829 0.428261 6.85722e-20)
(4.30251 0.646789 -8.27907e-21)
(3.74352 0.389818 1.54962e-20)
(3.99902 0.592539 3.00503e-20)
(3.22 0.410095 7.61246e-20)
(3.54579 0.59166 6.85585e-21)
(2.74382 0.366838 1.69721e-20)
(2.94635 0.691986 3.12114e-20)
(2.40516 0.105602 -5.25226e-21)
(2.39628 0.729175 -6.36616e-21)
(2.18126 -0.281501 1.33548e-21)
(2.04797 0.533279 1.35077e-21)
(2.094 -0.614691 0)
(1.91507 0.200596 -1.09536e-20)
(2.22433 -0.82438 -1.88558e-20)
(1.99519 -0.0956526 1.03907e-20)
(2.64478 -0.93483 -5.41616e-20)
(2.32791 -0.311504 5.15779e-20)
(3.36696 -0.992856 -3.07365e-19)
(2.95486 -0.483279 4.86535e-20)
(4.30729 -1.04641 4.02295e-19)
(3.84016 -0.637938 1.70213e-19)
(5.3064 -1.07532 -6.60519e-20)
(4.8804 -0.773376 3.61221e-20)
(6.17333 -1.03787 -1.72646e-20)
(5.88729 -0.853551 -5.07101e-20)
(6.74328 -0.91004 -1.01485e-19)
(6.65879 -0.832286 3.4367e-20)
(6.9818 -0.736023 -6.17516e-21)
(7.03592 -0.708561 4.32604e-20)
(6.96923 -0.536458 -1.50608e-20)
(7.12311 -0.53353 -2.78025e-20)
(6.80394 -0.367775 5.73791e-21)
(6.98106 -0.359889 6.2578e-21)
(6.61131 -0.253523 -6.49474e-22)
(6.7489 -0.232593 1.25101e-20)
(6.46036 -0.180314 -8.41765e-21)
(6.5611 -0.156908 -1.79745e-20)
(6.35074 -0.130652 -1.12412e-21)
(6.42808 -0.108279 -3.84607e-20)
(6.27149 -0.0967131 -9.86835e-20)
(6.33154 -0.0775932 -1.60151e-20)
(6.21679 -0.074442 8.13921e-22)
(6.26125 -0.0588408 -4.26371e-21)
(6.17488 -0.0619046 5.36887e-21)
(6.21354 -0.0495336 -4.46973e-21)
(6.09577 -0.0519053 0)
(6.18852 -0.0548139 5.7266e-20)
(5.84942 -0.0504113 0)
(6.14545 -0.0650731 -2.35659e-20)
(5.92681 -0.0255319 0)
(5.28626 -0.056936 0)
(5.61761 0.0944724 7.27906e-22)
(5.60934 0.0478241 -6.13192e-21)
(5.43565 -0.0727672 -1.12402e-20)
(5.62642 0.159991 7.39357e-22)
(5.6412 0.145091 -3.95428e-20)
(5.59799 0.211077 -2.52634e-22)
(5.62653 0.202406 2.54198e-21)
(5.56647 0.261355 -1.9557e-22)
(5.59609 0.245058 -2.63053e-21)
(5.53742 0.313982 3.78771e-23)
(5.57119 0.296558 6.09431e-23)
(5.50905 0.370556 -4.28004e-23)
(5.54944 0.355173 2.48606e-21)
(5.47483 0.430347 3.02107e-22)
(5.52303 0.41721 -1.91096e-23)
(5.42975 0.492298 -1.58282e-22)
(5.4871 0.482341 1.88228e-22)
(5.36967 0.555465 -3.24853e-22)
(5.43788 0.550616 -6.91425e-23)
(5.29002 0.618511 3.89817e-22)
(5.37114 0.621167 -4.80142e-22)
(5.18521 0.679606 3.90219e-22)
(5.28186 0.692246 3.88263e-22)
(5.04884 0.736384 0)
(5.16405 0.76153 8.21353e-21)
(4.87563 0.785539 0)
(5.01145 0.826394 -5.19608e-21)
(4.66479 0.820996 0)
(4.81882 0.883346 -1.86459e-20)
(4.42196 0.833225 0)
(4.58646 0.926053 -4.50762e-22)
(4.14895 0.813389 2.14793e-20)
(4.31968 0.945078 0)
(3.80444 0.789076 2.1264e-20)
(4.01682 0.934976 -1.60993e-20)
(3.30975 0.859429 3.38059e-20)
(3.63462 0.933123 0)
(2.69951 1.04296 3.33671e-20)
(3.10733 1.04826 2.66307e-20)
(2.1721 1.15072 0)
(2.49931 1.28046 0)
(1.88323 1.02808 -1.1089e-20)
(2.00803 1.40321 0)
(1.85982 0.740466 -3.71369e-22)
(1.78565 1.2599 6.3862e-20)
(2.09804 0.441525 -2.7057e-20)
(1.87347 0.983597 -6.80899e-20)
(2.61031 0.166144 1.22713e-19)
(2.23707 0.686746 7.69671e-20)
(3.39335 -0.084945 1.82152e-19)
(2.89795 0.388155 -4.98156e-20)
(4.37881 -0.320104 1.2472e-19)
(3.81074 0.092349 1.18638e-20)
(5.42234 -0.523811 -2.35632e-20)
(4.87499 -0.189192 2.84067e-20)
(6.32963 -0.63719 6.5841e-20)
(5.91517 -0.414176 -7.35478e-20)
(6.90915 -0.61927 6.62195e-20)
(6.71925 -0.523159 2.27731e-20)
(7.13719 -0.50836 -1.9578e-20)
(7.10825 -0.485464 -1.03706e-20)
(7.10389 -0.356534 -1.17741e-20)
(7.19384 -0.359706 -3.40981e-20)
(6.90433 -0.223771 -2.43784e-20)
(7.03389 -0.228097 2.58153e-21)
(6.68319 -0.136785 -9.31146e-21)
(6.78283 -0.129773 2.27773e-20)
(6.51647 -0.0844229 6.13208e-21)
(6.58479 -0.073391 -3.18662e-20)
(6.39749 -0.0514944 -5.66961e-21)
(6.44696 -0.0395301 1.1966e-21)
(6.3094 -0.0328667 -2.02729e-20)
(6.34609 -0.0207834 8.10096e-20)
(6.2453 -0.027224 -4.10989e-20)
(6.26983 -0.0126596 0)
(6.20545 -0.0326942 3.10051e-19)
(6.2138 -0.0139317 -4.02375e-20)
(6.18437 -0.0483584 3.34483e-20)
(6.17869 -0.0292096 -1.90899e-20)
(6.152 -0.0566949 -2.2995e-20)
(6.14703 -0.0525904 1.25462e-19)
(6.0772 -0.0339446 -1.72325e-19)
(5.99306 0.0321868 -3.61731e-19)
(5.67623 0.132313 4.93346e-19)
(5.71862 0.107996 -6.73279e-21)
(5.6686 0.049292 -4.90103e-21)
(5.65821 0.181719 8.90724e-21)
(5.69878 0.168357 2.43403e-21)
(5.63309 0.227445 -6.93515e-20)
(5.67857 0.21947 7.11344e-22)
(5.61002 0.28013 -2.4016e-21)
(5.65758 0.26746 -2.37522e-21)
(5.59041 0.338443 5.63689e-23)
(5.63977 0.322291 -1.67512e-22)
(5.56877 0.401265 5.73652e-23)
(5.62245 0.384484 3.38427e-21)
(5.53952 0.468526 -1.31725e-22)
(5.59988 0.452214 0)
(5.49855 0.540221 1.17538e-22)
(5.56786 0.525502 -3.09436e-21)
(5.44182 0.615944 -2.21894e-22)
(5.52246 0.60492 1.73433e-21)
(5.36461 0.694481 -4.7952e-22)
(5.45885 0.690188 -2.88681e-21)
(5.26135 0.773676 8.15382e-21)
(5.37126 0.77972 -1.09071e-21)
(5.12573 0.850941 2.91649e-21)
(5.2535 0.870738 6.43946e-21)
(4.95152 0.92348 -2.37353e-20)
(5.09912 0.960101 -6.67981e-21)
(4.73521 0.987821 -2.22164e-20)
(4.90215 1.04509 -9.80805e-21)
(4.47844 1.03753 -4.4803e-22)
(4.66034 1.12211 3.05914e-20)
(4.18574 1.06454 -2.13454e-20)
(4.37812 1.18407 -6.35414e-21)
(3.85063 1.07142 -2.11868e-20)
(4.06269 1.22302 -2.12186e-20)
(3.43102 1.11237 -3.33934e-20)
(3.70539 1.24563 4.26244e-20)
(2.88962 1.27993 -3.30224e-20)
(3.25628 1.31638 1.80827e-20)
(2.30837 1.53047 0)
(2.68903 1.53518 1.50408e-21)
(1.89136 1.65359 1.08666e-20)
(2.11679 1.82877 -1.6443e-21)
(1.78607 1.52655 -1.76429e-20)
(1.75793 1.93403 1.09039e-20)
(2.00534 1.2692 1.2076e-20)
(1.78792 1.7945 4.68113e-20)
(2.52625 0.930321 -2.70158e-20)
(2.12328 1.49903 -1.00569e-19)
(3.32354 0.576597 -2.18817e-19)
(2.79403 1.13486 8.22592e-20)
(4.32371 0.227248 -9.40966e-20)
(3.7241 0.741136 3.01529e-20)
(5.38883 -0.0847512 -2.24226e-20)
(4.81263 0.349722 1.4721e-20)
(6.32529 -0.310155 -1.28363e-19)
(5.88434 0.0086405 3.66351e-19)
(6.93537 -0.390281 -9.60566e-20)
(6.73051 -0.214982 -1.13765e-19)
(7.17878 -0.33608 -3.75355e-20)
(7.1534 -0.265521 -2.51505e-20)
(7.13636 -0.230324 -1.95704e-20)
(7.24243 -0.194979 -1.98386e-20)
(6.92245 -0.129719 9.82126e-21)
(7.071 -0.106752 0)
(6.69235 -0.0645667 -2.68592e-20)
(6.80509 -0.039319 -1.58745e-20)
(6.52174 -0.0270639 -3.63439e-20)
(6.59913 -0.00116697 -6.99336e-21)
(6.40094 -0.00598453 6.56262e-20)
(6.45717 0.0188448 -5.42665e-20)
(6.311 0.00462535 6.56848e-20)
(6.35351 0.0273065 8.76909e-21)
(6.24251 0.00731268 0)
(6.27449 0.0275637 7.38361e-20)
(6.19005 0.00288698 -2.44784e-20)
(6.2146 0.0221468 -4.81168e-20)
(6.14819 -0.0145496 4.36894e-22)
(6.16921 0.00920485 7.75624e-20)
(6.11306 -0.0381899 -1.38909e-19)
(6.1314 -0.0129008 3.77627e-20)
(6.09952 -0.0270668 -4.9881e-20)
(6.07734 -0.0284729 -4.71085e-19)
(5.74573 0.159312 -3.85545e-22)
(5.78677 0.143862 -2.59658e-21)
(5.77447 0.104364 -2.66601e-21)
(5.71985 0.206432 3.04587e-23)
(5.75782 0.190955 -5.04116e-21)
(5.69994 0.254181 -1.37858e-22)
(5.74021 0.240393 -7.52928e-22)
(5.68435 0.308045 -1.64848e-22)
(5.7273 0.29089 0)
(5.66963 0.368422 3.76104e-21)
(5.71636 0.347308 -8.94679e-22)
(5.65181 0.434996 5.57431e-23)
(5.7044 0.41158 -4.37868e-22)
(5.62684 0.508492 5.49581e-22)
(5.68752 0.483661 -1.05319e-21)
(5.59066 0.589635 -1.02596e-21)
(5.66186 0.56417 3.58488e-21)
(5.53854 0.678657 -1.50621e-21)
(5.62316 0.654198 -1.63422e-21)
(5.46474 0.774845 -2.166e-21)
(5.56587 0.754248 9.23188e-22)
(5.36292 0.876065 -2.90635e-21)
(5.48312 0.863422 -5.90582e-21)
(5.22671 0.979043 -3.98774e-21)
(5.3679 0.978991 5.68442e-21)
(5.04997 1.08055 2.16317e-21)
(5.21395 1.09708 -3.64227e-21)
(4.82799 1.17798 2.42212e-20)
(5.01575 1.2144 2.48868e-21)
(4.56097 1.26708 1.83496e-20)
(4.7695 1.32844 2.02318e-20)
(4.25574 1.34028 -6.31841e-21)
(4.47715 1.43415 1.33972e-21)
(3.91826 1.39182 4.26868e-20)
(4.1477 1.52214 4.50876e-21)
(3.53304 1.4396 9.38521e-20)
(3.78856 1.58687 2.17843e-20)
(3.05852 1.56087 5.25067e-20)
(3.38256 1.64832 5.47456e-22)
(2.49634 1.82687 6.12701e-21)
(2.89092 1.79685 4.02833e-21)
(1.98075 2.12974 8.57491e-21)
(2.32882 2.1072 -1.65073e-21)
(1.75971 2.22473 7.61223e-20)
(1.85696 2.41418 -4.22497e-20)
(1.90808 2.07216 -6.77841e-20)
(1.76624 2.47848 4.45976e-20)
(2.39674 1.73386 7.09031e-20)
(2.018 2.26584 1.45973e-19)
(3.20318 1.30884 3.35159e-19)
(2.65897 1.8878 1.45532e-21)
(4.22195 0.858766 1.75117e-19)
(3.58651 1.41858 -2.57706e-19)
(5.31613 0.434339 4.70763e-19)
(4.68986 0.929987 -1.5498e-19)
(6.29366 0.0921817 2.16771e-19)
(5.79041 0.481545 2.57018e-19)
(6.94648 -0.0985613 -8.3481e-20)
(6.68401 0.145266 -1.08937e-19)
(7.2115 -0.119796 0)
(7.16038 -0.00410681 0)
(7.1703 -0.0713014 0)
(7.26271 -0.00460919 -6.74692e-22)
(6.94903 -0.0112774 -2.5898e-20)
(7.08785 0.0319193 -2.06973e-20)
(6.70833 0.0266997 2.21072e-20)
(6.81227 0.0632303 2.95507e-21)
(6.53192 0.0456019 -1.19817e-20)
(6.60129 0.0799636 -2.18161e-20)
(6.40764 0.0522853 -1.19493e-19)
(6.45629 0.0835715 -6.23126e-20)
(6.31505 0.0515679 1.41907e-20)
(6.3507 0.0801341 -6.50529e-20)
(6.2441 0.045013 3.98914e-21)
(6.26948 0.0713128 2.14718e-19)
(6.18978 0.0330581 5.1412e-20)
(6.2062 0.0595526 -4.59752e-20)
(6.14767 0.0164181 3.0637e-20)
(6.15627 0.043949 2.43594e-19)
(6.11353 0.000995163 1.17741e-19)
(6.11874 0.0203971 -1.40148e-21)
(6.0905 0.00286635 -3.10578e-19)
(6.0835 -0.0111154 2.89491e-19)
(5.80183 0.182383 -1.47327e-22)
(5.84342 0.168535 1.53603e-21)
(5.83636 0.1399 7.21844e-21)
(5.78063 0.226026 -2.30916e-22)
(5.82051 0.20891 -4.76004e-21)
(5.7684 0.273962 4.97458e-24)
(5.80994 0.256016 1.39328e-21)
(5.76 0.32837 -7.13134e-22)
(5.80425 0.306916 0)
(5.7517 0.39001 -2.6362e-21)
(5.79976 0.363919 -2.24585e-22)
(5.74037 0.459584 -4.15925e-22)
(5.79404 0.42948 3.48504e-21)
(5.72255 0.538307 1.30627e-21)
(5.78419 0.5048 -3.86094e-21)
(5.69426 0.627572 2.90422e-21)
(5.76673 0.591188 -7.03868e-21)
(5.65035 0.728559 2.76001e-21)
(5.73733 0.69046 4.82613e-22)
(5.58405 0.841519 -3.14654e-21)
(5.68967 0.804133 1.59028e-21)
(5.48773 0.96501 5.138e-21)
(5.61557 0.932412 2.94792e-21)
(5.35449 1.09568 1.16218e-20)
(5.50656 1.07344 -2.49739e-20)
(5.17871 1.2295 2.59993e-21)
(5.35616 1.22346 -5.43875e-22)
(4.95583 1.3633 -5.79036e-21)
(5.1597 1.3785 -1.17778e-21)
(4.68399 1.4937 1.58383e-21)
(4.91305 1.53529 -7.56756e-23)
(4.36753 1.61367 1.86424e-20)
(4.61518 1.68862 3.47756e-20)
(4.01634 1.71227 -2.52443e-20)
(4.27231 1.8275 1.29503e-20)
(3.63645 1.78473 -1.05262e-19)
(3.8961 1.93882 -2.85722e-20)
(3.21228 1.87165 -6.1858e-20)
(3.49592 2.01646 -4.83615e-20)
(2.71636 2.06822 2.50921e-21)
(3.05774 2.10484 2.48633e-21)
(2.18143 2.40699 -4.27502e-20)
(2.55858 2.3205 3.82861e-23)
(1.8387 2.70193 1.43458e-20)
(2.05651 2.68217 2.95224e-19)
(1.85985 2.71282 1.7259e-19)
(1.82312 2.93749 -3.94272e-19)
(2.27061 2.46286 -5.81367e-22)
(1.95547 2.89188 1.53087e-19)
(3.04357 2.01124 -4.71381e-19)
(2.50603 2.56771 -1.50985e-19)
(4.06142 1.48573 -5.1887e-19)
(3.40334 2.06389 -1.10217e-19)
(5.17471 0.966566 -3.13158e-19)
(4.5088 1.49929 3.1173e-20)
(6.1914 0.521681 -1.26614e-19)
(5.63438 0.96287 -1.04994e-19)
(6.90154 0.225389 -2.3563e-20)
(6.57803 0.528794 -2.47145e-20)
(7.20911 0.114458 -6.89693e-22)
(7.12002 0.283733 3.04981e-20)
(7.17606 0.100747 -2.17877e-20)
(7.25129 0.201208 -8.66944e-21)
(6.94891 0.111681 1.07032e-20)
(7.08022 0.178429 -4.30769e-21)
(6.70412 0.120611 -3.99193e-20)
(6.80439 0.171383 2.57403e-20)
(6.52515 0.119449 -7.74245e-20)
(6.59134 0.164272 -7.42277e-22)
(6.39929 0.111286 -1.34849e-20)
(6.44479 0.15 3.54787e-20)
(6.30545 0.0999479 1.42472e-19)
(6.33874 0.134049 -1.53467e-19)
(6.23218 0.086302 1.40407e-19)
(6.25681 0.116582 -1.8162e-19)
(6.17407 0.0698872 1.44587e-19)
(6.19142 0.0993529 -1.80241e-19)
(6.12853 0.0518211 1.66113e-19)
(6.13895 0.0806145 -2.76798e-19)
(6.09345 0.0337601 -3.75643e-19)
(6.09985 0.0547624 -2.19132e-19)
(6.06821 0.0334662 -7.60241e-20)
(6.06461 0.0133477 -5.66615e-19)
(5.86293 0.198177 -2.97591e-20)
(5.90194 0.183282 3.7424e-21)
(5.89007 0.160803 -4.07013e-21)
(5.85037 0.239752 1.5948e-20)
(5.88847 0.219813 -4.71656e-21)
(5.84552 0.286874 1.38185e-21)
(5.88503 0.264323 -4.49149e-22)
(5.84353 0.340773 1.8724e-22)
(5.88556 0.314119 6.28802e-22)
(5.84159 0.402613 3.00551e-21)
(5.88728 0.370473 1.89875e-22)
(5.83733 0.473886 -1.2761e-22)
(5.88855 0.436179 -8.36528e-22)
(5.82781 0.556501 -1.15019e-20)
(5.88709 0.513368 2.06326e-21)
(5.80918 0.652539 -8.60224e-21)
(5.87965 0.604135 -3.93665e-21)
(5.77604 0.763966 0)
(5.86184 0.711121 -2.39651e-20)
(5.72072 0.892285 6.70959e-21)
(5.82706 0.836952 -1.45675e-22)
(5.63412 1.03742 -3.25252e-20)
(5.76585 0.983262 4.3409e-20)
(5.50808 1.19732 -4.37102e-20)
(5.66842 1.14993 -3.33471e-21)
(5.33689 1.36825 -2.08587e-21)
(5.52736 1.33496 6.73815e-22)
(5.11629 1.54589 1.48948e-21)
(5.33797 1.53497 3.96813e-22)
(4.84304 1.72501 1.5493e-20)
(5.09544 1.74495 -6.87637e-21)
(4.51806 1.89633 1.76755e-20)
(4.79524 1.95592 -2.09968e-20)
(4.14969 2.04431 -2.68375e-20)
(4.43877 2.15188 -8.73462e-20)
(3.75328 2.1539 -3.80228e-20)
(4.03768 2.31134 -1.7379e-20)
(3.33955 2.23279 2.0827e-22)
(3.61501 2.41505 -7.70311e-20)
(2.89709 2.34757 2.8196e-21)
(3.18751 2.4735 -3.69204e-23)
(2.41664 2.5981 3.94491e-20)
(2.74418 2.57274 3.83703e-23)
(2.01287 2.95932 -1.21675e-19)
(2.28365 2.83802 3.62098e-20)
(1.89336 3.14633 -1.3713e-19)
(1.9569 3.17381 -1.30546e-19)
(2.17328 3.0468 0)
(1.95605 3.31391 1.99389e-19)
(2.85677 2.64004 2.562e-19)
(2.36209 3.11544 -1.56705e-20)
(3.85135 2.07551 4.25507e-19)
(3.18558 2.6373 -7.63551e-20)
(4.97583 1.48544 2.10541e-19)
(4.27478 2.02773 1.75095e-19)
(6.0303 0.957077 9.46616e-21)
(5.41941 1.42665 3.9251e-20)
(6.8033 0.569905 8.66374e-20)
(6.41392 0.915273 3.30842e-21)
(7.16698 0.369158 1.17826e-20)
(7.02808 0.585875 3.12437e-20)
(7.15564 0.282778 6.3705e-21)
(7.20089 0.419836 -3.63732e-21)
(6.93232 0.242769 1.35589e-20)
(7.04661 0.334561 4.31239e-20)
(6.68863 0.220206 6.57777e-20)
(6.78019 0.28638 0)
(6.50886 0.196559 1.15339e-19)
(6.56808 0.251731 -2.74145e-20)
(6.38281 0.172186 -1.06365e-19)
(6.42195 0.218161 5.10622e-20)
(6.28921 0.149325 -4.77344e-19)
(6.31718 0.188779 2.36893e-20)
(6.21554 0.127738 -4.98354e-19)
(6.23601 0.162268 -3.51109e-19)
(6.15631 0.106581 -5.97835e-19)
(6.17022 0.138938 -9.73653e-20)
(6.10931 0.0861481 -6.24373e-19)
(6.11703 0.115598 9.79226e-20)
(6.07092 0.0664196 2.99635e-19)
(6.07686 0.0878318 8.50084e-20)
(6.04017 0.0650646 -2.22981e-19)
(6.03704 0.0435438 1.22983e-19)
(5.9279 0.205979 -2.03234e-22)
(5.96378 0.188692 4.23277e-21)
(5.94524 0.171871 0)
(5.92337 0.244989 -1.95543e-21)
(5.95883 0.221917 2.75477e-22)
(5.92493 0.289984 5.86103e-22)
(5.96156 0.262887 -1.98879e-21)
(5.929 0.342148 6.39569e-22)
(5.96775 0.310311 -2.54886e-21)
(5.93384 0.403026 -5.14552e-21)
(5.97576 0.36493 -1.88818e-21)
(5.93784 0.474698 -1.58271e-22)
(5.98475 0.429591 -7.46837e-21)
(5.93842 0.559772 1.22618e-20)
(5.993 0.507208 1.82634e-20)
(5.93179 0.661219 -1.76341e-20)
(5.99753 0.60072 9.12522e-22)
(5.91226 0.78202 -2.42392e-20)
(5.99387 0.713639 1.31373e-21)
(5.87155 0.924636 3.63278e-20)
(5.97496 0.849745 -4.14855e-21)
(5.79956 1.09079 6.31901e-20)
(5.93098 1.01237 2.32849e-23)
(5.68711 1.28076 2.45506e-20)
(5.85141 1.20425 9.17313e-20)
(5.52771 1.4929 -1.33328e-20)
(5.72804 1.42708 3.4883e-21)
(5.31602 1.72314 -3.16896e-20)
(5.55491 1.67967 9.84254e-20)
(5.04586 1.96278 -1.83039e-20)
(5.32372 1.95492 2.22442e-19)
(4.71318 2.19611 -1.0345e-19)
(5.02412 2.23683 -2.5672e-20)
(4.32307 2.39916 -7.76264e-20)
(4.65095 2.49953 4.59061e-20)
(3.89488 2.54824 -7.72994e-20)
(4.21534 2.70948 3.21308e-19)
(3.45853 2.63211 -7.6885e-20)
(3.74817 2.83853 6.27348e-20)
(3.0313 2.68649 0)
(3.29342 2.88315 8.50749e-22)
(2.6055 2.80745 -3.07352e-21)
(2.86824 2.89229 0)
(2.21146 3.08337 -4.91917e-21)
(2.4651 2.99527 -1.28531e-19)
(1.99943 3.37073 2.27736e-19)
(2.12962 3.26309 5.11875e-21)
(2.12239 3.4242 2.19403e-19)
(2.01377 3.51477 -2.21608e-19)
(2.66929 3.14374 -2.14137e-19)
(2.26 3.46952 1.66614e-19)
(3.6001 2.5975 -1.94243e-19)
(2.95443 3.09179 -4.02274e-19)
(4.7196 1.96291 0)
(3.99395 2.48407 1.77221e-21)
(5.80954 1.37248 0)
(5.14927 1.84583 -2.14959e-21)
(6.64487 0.913534 0)
(6.19443 1.28209 3.39271e-22)
(7.06607 0.63124 1.03268e-21)
(6.88304 0.884628 -7.30493e-23)
(7.09198 0.474239 3.07597e-20)
(7.10963 0.644091 1.03137e-21)
(6.8916 0.382187 2.90618e-20)
(6.98521 0.499143 -3.64712e-20)
(6.65654 0.324027 -9.52774e-20)
(6.73701 0.406753 9.69949e-20)
(6.47891 0.275477 -9.21049e-20)
(6.53011 0.340881 2.28232e-20)
(6.35486 0.23405 1.78096e-19)
(6.38739 0.287125 -2.49664e-19)
(6.26306 0.19932 1.44103e-19)
(6.28598 0.243855 1.76684e-19)
(6.19025 0.16932 5.8457e-20)
(6.20698 0.208136 1.70636e-19)
(6.13138 0.142367 5.31714e-19)
(6.14206 0.178004 2.11263e-19)
(6.08399 0.118864 8.10759e-19)
(6.09015 0.149394 4.04122e-19)
(6.04371 0.0961245 -2.72258e-19)
(6.0487 0.119151 9.20777e-20)
(6.00909 0.0955141 -4.91028e-19)
(6.0058 0.0727058 -5.43186e-19)
(5.99468 0.20415 4.55128e-21)
(6.02609 0.1842 3.19689e-21)
(6.00274 0.173247 3.8758e-21)
(5.99685 0.240102 8.4046e-22)
(6.02803 0.21413 2.14261e-22)
(6.00391 0.282097 -1.51096e-21)
(6.03579 0.250821 2.28846e-21)
(6.01388 0.331517 -2.66571e-21)
(6.04727 0.294849 -2.20743e-21)
(6.02596 0.390319 -4.60372e-21)
(6.06188 0.346746 -9.33384e-22)
(6.03913 0.461037 7.1004e-21)
(6.07932 0.409173 -2.62311e-20)
(6.05129 0.546879 8.1861e-21)
(6.09838 0.485631 1.1585e-20)
(6.05882 0.651697 2.23294e-20)
(6.11655 0.579893 -3.80407e-20)
(6.05588 0.7797 2.46087e-20)
(6.12948 0.696409 2.73293e-20)
(6.03373 0.935082 -3.97555e-20)
(6.13 0.840251 -7.58145e-20)
(5.98206 1.12173 2.75765e-20)
(6.1083 1.01711 -2.16344e-20)
(5.89144 1.34372 6.68684e-20)
(6.05486 1.23395 9.19287e-20)
(5.75407 1.60328 9.77895e-20)
(5.96089 1.49765 2.2274e-19)
(5.56085 1.89647 3.24583e-19)
(5.8161 1.80961 -5.46851e-21)
(5.29923 2.20893 2.30002e-19)
(5.60424 2.15949 -5.64638e-20)
(4.95793 2.51484 7.78458e-20)
(5.30618 2.52211 4.3274e-19)
(4.53811 2.77851 3.98233e-19)
(4.90935 2.85881 5.69236e-19)
(4.06233 2.96584 3.96208e-19)
(4.42535 3.12187 -1.0895e-19)
(3.57641 3.0559 8.24247e-20)
(3.8933 3.2726 7.46046e-20)
(3.1254 3.06645 8.46512e-22)
(3.38123 3.30362 2.40801e-21)
(2.7256 3.06952 -1.26373e-19)
(2.93474 3.24807 4.10012e-19)
(2.37446 3.18984 -1.27175e-19)
(2.56903 3.20218 -4.10793e-21)
(2.12545 3.43801 -1.98259e-19)
(2.27582 3.30748 -1.50912e-19)
(2.12389 3.58611 7.244e-22)
(2.10012 3.54156 -1.87105e-19)
(2.51683 3.45967 -2.60673e-20)
(2.2115 3.61713 -2.20602e-19)
(3.32926 3.00456 -2.01745e-19)
(2.74182 3.38311 6.20083e-19)
(4.41524 2.36955 1.23734e-21)
(3.68282 2.83758 -8.8381e-22)
(5.53539 1.74574 -1.61403e-21)
(4.83171 2.19403 5.1731e-21)
(6.43515 1.23702 2.63391e-22)
(5.92378 1.60801 3.38854e-22)
(6.92538 0.888258 -7.28821e-23)
(6.68646 1.16572 5.81699e-21)
(6.99797 0.669539 -7.07132e-20)
(6.97795 0.865482 0)
(6.82536 0.526918 3.17294e-20)
(6.8944 0.66547 -6.10502e-20)
(6.6064 0.429633 2.16694e-19)
(6.67157 0.528588 8.59658e-20)
(6.43545 0.354979 -1.48479e-19)
(6.47617 0.430281 6.49502e-20)
(6.31626 0.296151 -2.47769e-19)
(6.34067 0.355843 -4.09551e-20)
(6.22826 0.249246 2.1312e-19)
(6.2449 0.298496 3.14079e-19)
(6.15804 0.210456 3.3446e-19)
(6.16963 0.253251 2.73265e-19)
(6.10084 0.177965 -4.65944e-20)
(6.1076 0.215814 -4.96874e-19)
(6.0538 0.150117 -3.26635e-19)
(6.05766 0.181557 -1.05047e-19)
(6.01233 0.124138 -2.17181e-19)
(6.01563 0.14853 -2.20208e-19)
(5.97452 0.123494 -2.7474e-19)
(5.97217 0.0989573 0)
(6.05908 0.192407 -3.4058e-22)
(6.08488 0.1697 -3.27454e-22)
(6.05954 0.164976 -2.78083e-20)
(6.06658 0.224686 5.60036e-22)
(6.0921 0.196141 0)
(6.07855 0.262946 5.94554e-22)
(6.10416 0.228114 4.06871e-21)
(6.09448 0.308739 8.93482e-22)
(6.12083 0.267889 -1.04172e-21)
(6.11433 0.364328 -2.24757e-20)
(6.14241 0.316084 2.12028e-20)
(6.13755 0.432635 -2.43361e-20)
(6.16895 0.375064 -3.81328e-20)
(6.16256 0.517359 -3.24288e-20)
(6.19973 0.448673 2.42913e-20)
(6.18612 0.623128 -3.36536e-20)
(6.23282 0.541375 -2.83083e-20)
(6.2026 0.755356 -7.01948e-20)
(6.26426 0.658524 0)
(6.20371 0.920484 -5.97044e-20)
(6.28769 0.806789 9.08305e-22)
(6.18025 1.12664 4.01837e-20)
(6.29524 0.995412 1.94503e-20)
(6.12298 1.38343 2.44802e-19)
(6.27958 1.23748 1.59023e-19)
(6.02078 1.69587 1.44911e-19)
(6.22865 1.54522 3.0499e-19)
(5.85664 2.05925 -3.15382e-19)
(6.12431 1.91944 -8.35144e-20)
(5.60761 2.45181 1.96048e-19)
(5.93718 2.34413 -2.30502e-19)
(5.253 2.83585 9.19632e-19)
(5.63729 2.78516 -7.34129e-20)
(4.79086 3.16193 1.96783e-19)
(5.20477 3.19188 -9.20571e-20)
(4.24997 3.38254 -3.16359e-19)
(4.65381 3.50701 -2.93258e-19)
(3.69123 3.47555 7.04049e-21)
(4.03807 3.67468 -8.52057e-19)
(3.18364 3.45198 4.13042e-19)
(3.44613 3.68607 1.55436e-21)
(2.77421 3.36067 5.34903e-19)
(2.94638 3.58063 -1.00462e-19)
(2.46586 3.32158 -2.34936e-20)
(2.58822 3.42739 1.28155e-19)
(2.23862 3.43259 -1.47025e-19)
(2.34871 3.36333 -1.7934e-19)
(2.1709 3.59682 -1.83573e-19)
(2.18236 3.47685 -1.13595e-19)
(2.40724 3.60153 1.29172e-19)
(2.20977 3.59838 -1.90011e-19)
(3.06156 3.26197 2.65587e-19)
(2.55937 3.49133 -2.16746e-19)
(4.08024 2.67719 -2.70903e-20)
(3.36431 3.05914 1.52958e-20)
(5.21541 2.05344 7.34537e-21)
(4.47842 2.4467 4.07324e-20)
(6.1765 1.52354 -1.15949e-20)
(5.61033 1.87252 -2.53074e-20)
(6.73859 1.13098 -4.06535e-22)
(6.44388 1.41537 7.49772e-21)
(6.86966 0.859241 1.52688e-20)
(6.80522 1.07469 0)
(6.73403 0.669971 5.17014e-21)
(6.77297 0.826482 7.04482e-20)
(6.53582 0.53424 -9.96041e-20)
(6.5822 0.64753 -7.51243e-20)
(6.37738 0.433656 1.72256e-19)
(6.40504 0.518242 5.70729e-21)
(6.2664 0.3579 5.43055e-19)
(6.28133 0.423334 1.62331e-19)
(6.18432 0.298964 3.90194e-19)
(6.19362 0.352078 7.99552e-20)
(6.11835 0.251611 -5.26063e-19)
(6.12402 0.297105 1.95805e-19)
(6.06387 0.213045 -6.24091e-19)
(6.06649 0.252145 -9.52395e-19)
(6.01791 0.179925 0)
(6.01892 0.212038 1.38295e-19)
(5.97629 0.150057 -2.7787e-19)
(5.97736 0.175875 0)
(5.93604 0.148609 -5.66039e-19)
(5.9353 0.122138 -2.98693e-19)
(6.11715 0.170808 0)
(6.1363 0.145617 -2.41489e-20)
(6.11172 0.147133 0)
(6.12896 0.198957 2.71907e-21)
(6.14761 0.168307 6.67194e-21)
(6.14556 0.232865 1.08892e-20)
(6.16366 0.195368 5.0713e-21)
(6.1677 0.274296 2.03411e-20)
(6.18577 0.230165 -3.40384e-21)
(6.19589 0.325596 1.24786e-20)
(6.21462 0.273617 8.89056e-21)
(6.22992 0.389946 1.27738e-20)
(6.25069 0.327879 -9.6264e-21)
(6.26873 0.471426 3.24928e-20)
(6.29371 0.396832 -7.88407e-22)
(6.30968 0.575309 9.82662e-21)
(6.34246 0.485397 4.36025e-20)
(6.34814 0.708263 7.56598e-20)
(6.39383 0.599684 -3.54619e-20)
(6.37806 0.879866 8.45177e-20)
(6.44415 0.748518 1.11309e-19)
(6.39331 1.10381 1.32529e-19)
(6.48974 0.946336 5.35891e-21)
(6.38381 1.39646 2.13807e-19)
(6.52597 1.21342 -1.05501e-19)
(6.33009 1.76416 8.55307e-20)
(6.53151 1.5647 -2.84354e-19)
(6.20162 2.19609 0)
(6.47316 1.9945 1.23543e-19)
(5.9628 2.66082 -4.32492e-19)
(6.30668 2.4788 -7.00552e-20)
(5.58449 3.11188 -9.33302e-19)
(5.99425 2.97751 -4.31552e-19)
(5.06291 3.49071 -4.79138e-19)
(5.51099 3.43354 -1.57655e-18)
(4.4371 3.73907 -9.00513e-19)
(4.87599 3.79077 1.20865e-18)
(3.78693 3.83065 -8.46447e-19)
(4.15774 3.96274 3.13989e-20)
(3.20216 3.77878 -4.14018e-19)
(3.4708 3.94839 0)
(2.75561 3.62604 -4.06628e-19)
(2.90566 3.81803 -4.12323e-19)
(2.4692 3.46497 -2.0226e-20)
(2.52974 3.60264 1.7678e-21)
(2.29134 3.41896 -1.36537e-19)
(2.3327 3.41574 1.04865e-19)
(2.21349 3.50836 -8.47852e-20)
(2.21809 3.38301 -1.29931e-19)
(2.33803 3.54414 -1.19528e-19)
(2.20711 3.4612 -7.02542e-21)
(2.83493 3.32801 -1.54569e-19)
(2.41681 3.43347 -1.1234e-19)
(3.74607 2.84821 5.19378e-20)
(3.06807 3.12261 6.59638e-20)
(4.86663 2.27447 4.32436e-20)
(4.1141 2.58646 9.7174e-20)
(5.87767 1.7566 2.00525e-20)
(5.2671 2.05889 2.45997e-20)
(6.51007 1.34662 7.90764e-21)
(6.16383 1.61883 2.77027e-20)
(6.70424 1.03685 5.70252e-20)
(6.59417 1.26061 -3.08623e-20)
(6.61443 0.80602 -1.63034e-20)
(6.61926 0.975439 5.70796e-20)
(6.44509 0.635596 7.93436e-21)
(6.46802 0.759431 -5.90605e-20)
(6.3044 0.510807 -2.41766e-20)
(6.3158 0.602217 -2.18033e-19)
(6.20519 0.418828 -3.2137e-19)
(6.20848 0.48837 7.35149e-20)
(6.13097 0.348418 -1.09345e-19)
(6.13163 0.403925 -5.49714e-19)
(6.07065 0.292501 -1.43404e-19)
(6.06969 0.339048 1.37668e-19)
(6.01999 0.246835 -1.72214e-19)
(6.01768 0.286305 1.12776e-19)
(5.97605 0.20801 1.37322e-19)
(5.97346 0.240519 3.15667e-21)
(5.93545 0.173895 -2.98705e-19)
(5.93366 0.201009 -6.90273e-21)
(5.89369 0.170984 1.13178e-22)
(5.89501 0.143021 -2.74465e-19)
(6.16567 0.140139 -4.55791e-20)
(6.17718 0.113026 -6.27179e-21)
(6.15555 0.120538 -5.93477e-20)
(6.18127 0.163831 7.50587e-21)
(6.19204 0.131649 -1.35258e-20)
(6.2025 0.192868 2.64495e-21)
(6.21207 0.153711 -3.10912e-21)
(6.23098 0.22906 -1.03911e-20)
(6.23985 0.183025 -1.83836e-20)
(6.26773 0.274945 -1.31422e-20)
(6.27634 0.220584 3.06847e-20)
(6.3129 0.333724 -2.8751e-20)
(6.32207 0.268628 7.15036e-21)
(6.36595 0.409639 9.9129e-21)
(6.37727 0.330775 -6.45756e-20)
(6.42518 0.508396 7.12409e-21)
(6.44172 0.412372 2.2235e-20)
(6.48843 0.638148 -1.82335e-21)
(6.51417 0.519918 -1.17814e-19)
(6.55436 0.812953 3.52988e-20)
(6.59679 0.665516 9.06119e-20)
(6.62076 1.05285 -2.47913e-19)
(6.69121 0.869721 -2.57568e-19)
(6.67201 1.37896 -6.29778e-19)
(6.79204 1.15831 -3.24845e-19)
(6.67297 1.79196 -2.6419e-19)
(6.8577 1.54317 -5.1824e-19)
(6.57679 2.27421 6.53875e-20)
(6.83861 2.00522 2.63489e-19)
(6.33626 2.78556 -6.98799e-20)
(6.67737 2.51641 -6.9093e-20)
(5.9185 3.27462 -1.07136e-18)
(6.33398 3.03437 0)
(5.3198 3.6812 1.06054e-19)
(5.7843 3.50525 -1.17925e-19)
(4.59139 3.94017 2.0169e-18)
(5.05136 3.88163 2.29932e-19)
(3.84036 4.01903 8.32679e-19)
(4.2261 4.07979 8.3085e-19)
(3.17517 3.95719 0)
(3.44939 4.03754 1.39241e-18)
(2.67874 3.77957 0)
(2.817 3.89826 0)
(2.3937 3.55045 1.70865e-19)
(2.40831 3.66067 -7.71483e-19)
(2.26641 3.39002 2.90415e-19)
(2.23887 3.40877 1.70219e-19)
(2.21486 3.35314 1.19837e-19)
(2.17612 3.26373 1.21083e-19)
(2.28279 3.36175 0)
(2.17744 3.2552 0)
(2.64787 3.2278 -1.28995e-20)
(2.29972 3.25189 1.02359e-19)
(3.43331 2.87174 -1.26289e-20)
(2.81066 3.03718 3.29614e-20)
(4.51108 2.39757 -1.95974e-19)
(3.76909 2.60875 1.34534e-19)
(5.55157 1.92509 2.44731e-20)
(4.91101 2.15858 -7.47579e-20)
(6.24668 1.52227 -2.20813e-20)
(5.85573 1.76345 1.23247e-19)
(6.50472 1.19233 -3.08646e-20)
(6.34987 1.41092 -1.40384e-19)
(6.46637 0.929514 0)
(6.43409 1.10316 7.88879e-20)
(6.33251 0.730346 -2.93828e-19)
(6.32896 0.858579 1.59956e-19)
(6.2149 0.583383 -9.13989e-20)
(6.20699 0.678446 -1.56305e-19)
(6.13114 0.475924 -1.63752e-19)
(6.12065 0.548425 5.66996e-22)
(6.0675 0.39475 -2.92767e-19)
(6.05817 0.452196 -4.7873e-19)
(6.01452 0.330764 4.44787e-19)
(6.00617 0.377904 6.01374e-19)
(5.96885 0.278273 2.82658e-19)
(5.96085 0.317534 -1.18781e-19)
(5.9282 0.233817 -1.25523e-19)
(5.92104 0.266303 -1.51906e-19)
(5.89004 0.195357 3.02551e-19)
(5.8843 0.223387 2.59884e-19)
(5.84751 0.190376 1.59872e-20)
(5.85184 0.161569 2.4237e-19)
(6.2023 0.101564 5.63767e-20)
(6.20556 0.0733674 1.72099e-20)
(6.18825 0.0862538 6.5551e-20)
(6.22169 0.120529 -2.32015e-20)
(6.22396 0.0875846 -1.87761e-20)
(6.24789 0.144363 -4.77591e-22)
(6.24841 0.104516 -9.69877e-21)
(6.28287 0.174665 1.6485e-20)
(6.28199 0.128001 8.14385e-21)
(6.32788 0.213827 3.13304e-20)
(6.32584 0.158766 -1.66034e-20)
(6.38361 0.265125 -2.7598e-20)
(6.38087 0.198997 9.05909e-20)
(6.45037 0.332802 -5.45944e-20)
(6.44752 0.251728 -1.34781e-19)
(6.52835 0.422899 -1.01284e-19)
(6.52725 0.323187 -1.19323e-19)
(6.62026 0.54557 -2.8908e-20)
(6.62247 0.419761 9.78993e-20)
(6.73117 0.720268 -1.94418e-19)
(6.74482 0.558846 5.51076e-20)
(6.85957 0.971381 -3.43234e-19)
(6.89781 0.765065 1.25711e-19)
(6.97492 1.32027 -2.14835e-19)
(7.06767 1.0642 -1.65061e-19)
(7.0212 1.75378 -8.94521e-21)
(7.1795 1.45821 -1.38872e-19)
(6.93982 2.24799 1.41596e-19)
(7.17605 1.91254 -1.01795e-19)
(6.67815 2.76211 0)
(6.9969 2.40709 3.98557e-19)
(6.20435 3.24919 1.08541e-18)
(6.60406 2.8963 -1.57097e-19)
(5.52228 3.65032 -1.05957e-19)
(5.97561 3.34046 3.13043e-18)
(4.69235 3.93238 -1.19822e-18)
(5.15706 3.69754 -1.41191e-18)
(3.83812 4.0359 1.39039e-18)
(4.23387 3.9281 0)
(3.0926 3.95933 1.38548e-18)
(3.365 3.92016 2.84816e-19)
(2.54845 3.76535 -7.74163e-19)
(2.6734 3.78881 0)
(2.25582 3.51477 -7.6781e-19)
(2.23768 3.55517 -7.42566e-20)
(2.17258 3.29375 0)
(2.0838 3.28544 0)
(2.16763 3.1675 0)
(2.06769 3.08329 -9.79374e-20)
(2.20823 3.13313 1.0382e-19)
(2.11323 2.99915 -2.9771e-20)
(2.47442 3.03128 1.4869e-19)