/*--------------------------------*- C++ -*----------------------------------*\
  =========                 |
  \\      /  F ield         | OpenFOAM: The Open Source CFD Toolbox
   \\    /   O peration     | Website:  https://openfoam.org
    \\  /    A nd           | Version:  6
     \\/     M anipulation  |
\*---------------------------------------------------------------------------*/
FoamFile
{
    version     2.0;
    format      ascii;
    class       volVectorField;
    location    "4.36";
    object      U;
}
// * * * * * * * * * * * * * * * * * * * * * * * * * * * * * * * * * * * * * //

dimensions      [0 1 -1 0 0 0 0];

internalField   nonuniform List<vector> 
5625
(
(0.894615 0.44714 0)
(0.894552 0.44716 0)
(0.894509 0.447173 0)
(0.894478 0.447182 0)
(0.894456 0.447188 0)
(0.89444 0.447192 0)
(0.894429 0.447194 0)
(0.89442 0.447196 0)
(0.894415 0.447197 0)
(0.89441 0.447198 0)
(0.894407 0.447199 0)
(0.894405 0.447199 0)
(0.894403 0.447199 0)
(0.894402 0.4472 0)
(0.894401 0.4472 0)
(0.894401 0.4472 0)
(0.8944 0.4472 0)
(0.8944 0.4472 0)
(0.8944 0.4472 0)
(0.8944 0.4472 0)
(0.8944 0.4472 0)
(0.8944 0.4472 0)
(0.894399 0.4472 0)
(0.8944 0.4472 0)
(0.8944 0.4472 0)
(0.894399 0.4472 0)
(0.894401 0.4472 0)
(0.8944 0.4472 0)
(0.8944 0.4472 0)
(0.8944 0.4472 0)
(0.8944 0.4472 0)
(0.894401 0.4472 0)
(0.894399 0.4472 0)
(0.894401 0.447201 0)
(0.8944 0.4472 0)
(0.894399 0.4472 0)
(0.894401 0.447201 0)
(0.894399 0.447199 0)
(0.894401 0.4472 0)
(0.894399 0.447201 0)
(0.8944 0.4472 0)
(0.8944 0.447199 0)
(0.894401 0.447201 0)
(0.894401 0.447199 0)
(0.8944 0.447201 0)
(0.894402 0.447199 0)
(0.894403 0.447202 0)
(0.894404 0.447199 0)
(0.894406 0.447201 0)
(0.89441 0.447202 0)
(0.89441 0.447201 0)
(0.894423 0.447206 0)
(0.894426 0.447203 0)
(0.894436 0.447206 0)
(0.894448 0.44721 0)
(0.894462 0.447211 0)
(0.894473 0.447213 0)
(0.894478 0.447212 0)
(0.894477 0.447209 0)
(0.894446 0.447198 0)
(0.894375 0.447169 0)
(0.894233 0.447117 0)
(0.89397 0.447021 0)
(0.893531 0.446851 0)
(0.89282 0.446581 0)
(0.891725 0.446149 0)
(0.890104 0.445482 0)
(0.887783 0.444507 0)
(0.884618 0.443129 0)
(0.880575 0.441289 0)
(0.875874 0.439048 0)
(0.87113 0.436648 0)
(0.867221 0.434478 0)
(0.864867 0.432907 0)
(0.864373 0.432135 0)
(0.894596 0.44714 0)
(0.89454 0.44716 0)
(0.894501 0.447172 0)
(0.894473 0.447181 0)
(0.894452 0.447187 0)
(0.894438 0.447191 0)
(0.894427 0.447194 0)
(0.894419 0.447196 0)
(0.894414 0.447197 0)
(0.894409 0.447198 0)
(0.894406 0.447198 0)
(0.894405 0.447199 0)
(0.894403 0.447199 0)
(0.894402 0.4472 0)
(0.894401 0.4472 0)
(0.894401 0.4472 0)
(0.894401 0.4472 0)
(0.8944 0.4472 0)
(0.8944 0.4472 0)
(0.8944 0.4472 0)
(0.8944 0.4472 0)
(0.8944 0.4472 0)
(0.8944 0.4472 0)
(0.8944 0.4472 0)
(0.8944 0.4472 0)
(0.8944 0.4472 0)
(0.8944 0.4472 0)
(0.8944 0.4472 0)
(0.8944 0.4472 0)
(0.8944 0.4472 0)
(0.894399 0.4472 0)
(0.894401 0.4472 0)
(0.894399 0.447199 0)
(0.894401 0.4472 0)
(0.894399 0.4472 0)
(0.894401 0.4472 0)
(0.894399 0.4472 0)
(0.894401 0.4472 0)
(0.8944 0.447199 0)
(0.8944 0.4472 0)
(0.8944 0.447201 0)
(0.8944 0.447198 0)
(0.8944 0.447201 0)
(0.894401 0.4472 0)
(0.8944 0.4472 0)
(0.894401 0.447201 0)
(0.894404 0.4472 0)
(0.894403 0.447201 0)
(0.894407 0.447201 0)
(0.894408 0.447202 0)
(0.894412 0.447201 0)
(0.894418 0.447204 0)
(0.894427 0.447206 0)
(0.894434 0.447206 0)
(0.894448 0.44721 0)
(0.894458 0.447214 0)
(0.894473 0.447214 0)
(0.89448 0.447217 0)
(0.894481 0.447215 0)
(0.894459 0.447206 0)
(0.894403 0.447183 0)
(0.894286 0.44714 0)
(0.894063 0.447055 0)
(0.893686 0.446904 0)
(0.893074 0.446659 0)
(0.892118 0.446267 0)
(0.890694 0.445657 0)
(0.88864 0.44475 0)
(0.885798 0.443453 0)
(0.882087 0.441692 0)
(0.87763 0.439469 0)
(0.872902 0.436977 0)
(0.868704 0.434588 0)
(0.865821 0.4327 0)
(0.864694 0.431582 0)
(0.894578 0.447141 0)
(0.894528 0.44716 0)
(0.894493 0.447172 0)
(0.894467 0.447181 0)
(0.894449 0.447187 0)
(0.894435 0.447191 0)
(0.894426 0.447194 0)
(0.894418 0.447196 0)
(0.894413 0.447197 0)
(0.894409 0.447198 0)
(0.894406 0.447198 0)
(0.894404 0.447199 0)
(0.894403 0.4472 0)
(0.894402 0.447199 0)
(0.894401 0.4472 0)
(0.894401 0.447199 0)
(0.8944 0.4472 0)
(0.8944 0.4472 0)
(0.8944 0.4472 0)
(0.8944 0.4472 0)
(0.8944 0.4472 0)
(0.894401 0.4472 0)
(0.8944 0.4472 0)
(0.8944 0.4472 0)
(0.8944 0.4472 0)
(0.8944 0.4472 0)
(0.8944 0.4472 0)
(0.8944 0.4472 0)
(0.8944 0.4472 0)
(0.8944 0.4472 0)
(0.894399 0.4472 0)
(0.894401 0.4472 0)
(0.894399 0.4472 0)
(0.894401 0.4472 0)
(0.894399 0.4472 0)
(0.894401 0.4472 0)
(0.894399 0.447199 0)
(0.894402 0.447201 0)
(0.894398 0.4472 0)
(0.894402 0.4472 0)
(0.894399 0.447201 0)
(0.894401 0.4472 0)
(0.894399 0.4472 0)
(0.894401 0.4472 0)
(0.894402 0.4472 0)
(0.8944 0.4472 0)
(0.894403 0.447201 0)
(0.894402 0.4472 0)
(0.894408 0.447201 0)
(0.894406 0.447202 0)
(0.894414 0.447203 0)
(0.894415 0.447203 0)
(0.894426 0.447207 0)
(0.894432 0.447207 0)
(0.894446 0.44721 0)
(0.894457 0.447215 0)
(0.894469 0.447217 0)
(0.894481 0.44722 0)
(0.894483 0.447221 0)
(0.89447 0.447214 0)
(0.894426 0.447197 0)
(0.894329 0.44716 0)
(0.894146 0.447085 0)
(0.893824 0.446959 0)
(0.893302 0.446738 0)
(0.892478 0.446382 0)
(0.891235 0.445833 0)
(0.889436 0.445001 0)
(0.886914 0.443796 0)
(0.883553 0.442135 0)
(0.879395 0.439976 0)
(0.874779 0.437442 0)
(0.870389 0.434869 0)
(0.867037 0.432675 0)
(0.865284 0.431191 0)
(0.894561 0.447143 0)
(0.894517 0.44716 0)
(0.894485 0.447173 0)
(0.894462 0.447181 0)
(0.894445 0.447187 0)
(0.894432 0.447191 0)
(0.894423 0.447193 0)
(0.894417 0.447196 0)
(0.894412 0.447197 0)
(0.894408 0.447198 0)
(0.894406 0.447199 0)
(0.894404 0.447199 0)
(0.894402 0.4472 0)
(0.894402 0.4472 0)
(0.894401 0.4472 0)
(0.894401 0.4472 0)
(0.894401 0.4472 0)
(0.8944 0.4472 0)
(0.8944 0.4472 0)
(0.8944 0.4472 0)
(0.8944 0.4472 0)
(0.8944 0.4472 0)
(0.8944 0.4472 0)
(0.8944 0.4472 0)
(0.8944 0.4472 0)
(0.8944 0.4472 0)
(0.8944 0.4472 0)
(0.8944 0.4472 0)
(0.8944 0.4472 0)
(0.8944 0.4472 0)
(0.894401 0.447201 0)
(0.894399 0.447199 0)
(0.894401 0.4472 0)
(0.894399 0.4472 0)
(0.894401 0.447199 0)
(0.894399 0.447201 0)
(0.894401 0.447199 0)
(0.8944 0.4472 0)
(0.8944 0.4472 0)
(0.894401 0.4472 0)
(0.894399 0.447199 0)
(0.894402 0.447201 0)
(0.8944 0.4472 0)
(0.894399 0.4472 0)
(0.894402 0.447201 0)
(0.894401 0.447199 0)
(0.894402 0.447201 0)
(0.894403 0.4472 0)
(0.894405 0.447201 0)
(0.894408 0.447202 0)
(0.894412 0.447203 0)
(0.894415 0.447203 0)
(0.894421 0.447206 0)
(0.894434 0.44721 0)
(0.894441 0.44721 0)
(0.894455 0.447215 0)
(0.894466 0.44722 0)
(0.89448 0.447221 0)
(0.894484 0.447225 0)
(0.894477 0.447222 0)
(0.894446 0.447208 0)
(0.894366 0.447178 0)
(0.894216 0.447117 0)
(0.893946 0.447005 0)
(0.893504 0.446814 0)
(0.892801 0.446498 0)
(0.891728 0.446004 0)
(0.890161 0.445253 0)
(0.88795 0.44415 0)
(0.88495 0.442603 0)
(0.881134 0.440545 0)
(0.876717 0.438032 0)
(0.872253 0.435328 0)
(0.868516 0.432851 0)
(0.866166 0.430993 0)
(0.894545 0.447145 0)
(0.894506 0.447161 0)
(0.894477 0.447173 0)
(0.894457 0.447181 0)
(0.894441 0.447186 0)
(0.89443 0.447191 0)
(0.894422 0.447193 0)
(0.894415 0.447196 0)
(0.894411 0.447197 0)
(0.894408 0.447198 0)
(0.894405 0.447199 0)
(0.894404 0.447199 0)
(0.894402 0.447199 0)
(0.894402 0.4472 0)
(0.894401 0.4472 0)
(0.894401 0.4472 0)
(0.8944 0.4472 0)
(0.8944 0.4472 0)
(0.8944 0.4472 0)
(0.8944 0.4472 0)
(0.8944 0.4472 0)
(0.8944 0.4472 0)
(0.8944 0.4472 0)
(0.8944 0.4472 0)
(0.8944 0.4472 0)
(0.8944 0.4472 0)
(0.8944 0.4472 0)
(0.8944 0.4472 0)
(0.894401 0.4472 0)
(0.894399 0.4472 0)
(0.8944 0.4472 0)
(0.8944 0.4472 0)
(0.8944 0.4472 0)
(0.894399 0.447201 0)
(0.894402 0.447199 0)
(0.894398 0.4472 0)
(0.894402 0.4472 0)
(0.894398 0.447199 0)
(0.894401 0.447201 0)
(0.894399 0.4472 0)
(0.8944 0.4472 0)
(0.8944 0.4472 0)
(0.8944 0.4472 0)
(0.894401 0.447199 0)
(0.8944 0.447201 0)
(0.894402 0.4472 0)
(0.894401 0.447201 0)
(0.894404 0.447201 0)
(0.894404 0.4472 0)
(0.894407 0.447202 0)
(0.894409 0.447204 0)
(0.894418 0.447205 0)
(0.894419 0.447204 0)
(0.89443 0.44721 0)
(0.894439 0.447212 0)
(0.89445 0.447214 0)
(0.894465 0.447222 0)
(0.894476 0.447224 0)
(0.894485 0.447227 0)
(0.894481 0.447229 0)
(0.894459 0.447218 0)
(0.894398 0.447194 0)
(0.894275 0.447146 0)
(0.894054 0.447048 0)
(0.893679 0.446883 0)
(0.893084 0.446609 0)
(0.892172 0.446169 0)
(0.890823 0.4455 0)
(0.888899 0.444504 0)
(0.886258 0.443084 0)
(0.882814 0.441158 0)
(0.878674 0.438719 0)
(0.874251 0.435953 0)
(0.870242 0.433243 0)
(0.867352 0.431019 0)
(0.89453 0.447147 0)
(0.894496 0.447163 0)
(0.89447 0.447174 0)
(0.894452 0.447181 0)
(0.894438 0.447187 0)
(0.894427 0.44719 0)
(0.89442 0.447194 0)
(0.894414 0.447195 0)
(0.89441 0.447197 0)
(0.894407 0.447198 0)
(0.894405 0.447198 0)
(0.894403 0.447199 0)
(0.894402 0.447199 0)
(0.894402 0.447199 0)
(0.894401 0.4472 0)
(0.894401 0.447199 0)
(0.8944 0.4472 0)
(0.8944 0.4472 0)
(0.8944 0.4472 0)
(0.8944 0.4472 0)
(0.8944 0.4472 0)
(0.8944 0.4472 0)
(0.8944 0.4472 0)
(0.8944 0.4472 0)
(0.8944 0.4472 0)
(0.8944 0.4472 0)
(0.894401 0.4472 0)
(0.894399 0.4472 0)
(0.8944 0.447199 0)
(0.8944 0.447201 0)
(0.8944 0.4472 0)
(0.894401 0.4472 0)
(0.894399 0.4472 0)
(0.8944 0.4472 0)
(0.8944 0.4472 0)
(0.8944 0.4472 0)
(0.8944 0.4472 0)
(0.8944 0.4472 0)
(0.8944 0.4472 0)
(0.8944 0.4472 0)
(0.8944 0.447201 0)
(0.8944 0.447199 0)
(0.894401 0.447201 0)
(0.894401 0.4472 0)
(0.894399 0.4472 0)
(0.894402 0.447201 0)
(0.894401 0.4472 0)
(0.894403 0.447201 0)
(0.894405 0.447202 0)
(0.894405 0.447201 0)
(0.894409 0.447203 0)
(0.894415 0.447205 0)
(0.89442 0.447206 0)
(0.894425 0.447208 0)
(0.894438 0.447212 0)
(0.894447 0.447216 0)
(0.894461 0.44722 0)
(0.894473 0.447227 0)
(0.894483 0.447229 0)
(0.894484 0.447232 0)
(0.894469 0.447227 0)
(0.894423 0.447209 0)
(0.894323 0.44717 0)
(0.894145 0.44709 0)
(0.893835 0.446948 0)
(0.893333 0.44671 0)
(0.892562 0.446327 0)
(0.891412 0.445735 0)
(0.889756 0.444848 0)
(0.887458 0.443567 0)
(0.884406 0.441792 0)
(0.880606 0.439477 0)
(0.876336 0.436726 0)
(0.872182 0.433852 0)
(0.868846 0.431293 0)
(0.894516 0.44715 0)
(0.894486 0.447164 0)
(0.894463 0.447175 0)
(0.894447 0.447182 0)
(0.894434 0.447187 0)
(0.894425 0.447191 0)
(0.894418 0.447193 0)
(0.894413 0.447196 0)
(0.894409 0.447197 0)
(0.894406 0.447198 0)
(0.894404 0.447198 0)
(0.894403 0.447199 0)
(0.894402 0.447199 0)
(0.894401 0.447199 0)
(0.894401 0.4472 0)
(0.894401 0.4472 0)
(0.8944 0.4472 0)
(0.8944 0.4472 0)
(0.8944 0.4472 0)
(0.8944 0.4472 0)
(0.8944 0.4472 0)
(0.8944 0.4472 0)
(0.8944 0.4472 0)
(0.8944 0.4472 0)
(0.8944 0.4472 0)
(0.8944 0.4472 0)
(0.8944 0.4472 0)
(0.8944 0.4472 0)
(0.8944 0.4472 0)
(0.8944 0.4472 0)
(0.894399 0.4472 0)
(0.894401 0.4472 0)
(0.894399 0.4472 0)
(0.894401 0.4472 0)
(0.894399 0.447201 0)
(0.894402 0.447199 0)
(0.894398 0.4472 0)
(0.894402 0.4472 0)
(0.894398 0.4472 0)
(0.894401 0.4472 0)
(0.894399 0.4472 0)
(0.894401 0.447199 0)
(0.894399 0.447201 0)
(0.894401 0.4472 0)
(0.894401 0.447199 0)
(0.8944 0.447202 0)
(0.894403 0.4472 0)
(0.8944 0.447199 0)
(0.894406 0.447204 0)
(0.894404 0.447201 0)
(0.89441 0.447202 0)
(0.89441 0.447204 0)
(0.894422 0.447206 0)
(0.894423 0.447209 0)
(0.894434 0.447211 0)
(0.894445 0.447216 0)
(0.894456 0.447222 0)
(0.89447 0.447226 0)
(0.89448 0.447233 0)
(0.894483 0.447235 0)
(0.894477 0.447234 0)
(0.894442 0.447223 0)
(0.894364 0.447189 0)
(0.894219 0.447125 0)
(0.893966 0.447008 0)
(0.893549 0.446804 0)
(0.892903 0.446473 0)
(0.891932 0.445956 0)
(0.890522 0.445175 0)
(0.888547 0.444036 0)
(0.885879 0.44243 0)
(0.882464 0.44028 0)
(0.878453 0.437614 0)
(0.874288 0.434661 0)
(0.870622 0.43183 0)
(0.894504 0.447152 0)
(0.894477 0.447166 0)
(0.894457 0.447176 0)
(0.894442 0.447182 0)
(0.894431 0.447188 0)
(0.894423 0.447191 0)
(0.894416 0.447194 0)
(0.894412 0.447196 0)
(0.894408 0.447197 0)
(0.894406 0.447198 0)
(0.894404 0.447199 0)
(0.894403 0.447199 0)
(0.894402 0.4472 0)
(0.894401 0.4472 0)
(0.894401 0.447199 0)
(0.894401 0.4472 0)
(0.8944 0.4472 0)
(0.8944 0.4472 0)
(0.8944 0.4472 0)
(0.8944 0.4472 0)
(0.8944 0.4472 0)
(0.8944 0.4472 0)
(0.8944 0.4472 0)
(0.8944 0.4472 0)
(0.8944 0.4472 0)
(0.8944 0.4472 0)
(0.8944 0.4472 0)
(0.894399 0.4472 0)
(0.8944 0.4472 0)
(0.8944 0.4472 0)
(0.894399 0.4472 0)
(0.8944 0.4472 0)
(0.8944 0.447201 0)
(0.8944 0.4472 0)
(0.8944 0.4472 0)
(0.8944 0.447201 0)
(0.894399 0.4472 0)
(0.894402 0.4472 0)
(0.894398 0.447201 0)
(0.894402 0.447199 0)
(0.894399 0.447201 0)
(0.894401 0.4472 0)
(0.8944 0.447199 0)
(0.8944 0.447202 0)
(0.894401 0.4472 0)
(0.8944 0.447199 0)
(0.894403 0.447202 0)
(0.894401 0.4472 0)
(0.894403 0.447201 0)
(0.894406 0.447203 0)
(0.894408 0.447202 0)
(0.894411 0.447204 0)
(0.894416 0.447205 0)
(0.894423 0.447208 0)
(0.894431 0.447213 0)
(0.89444 0.447214 0)
(0.894453 0.447222 0)
(0.894466 0.447225 0)
(0.894476 0.447235 0)
(0.894483 0.447239 0)
(0.894478 0.447237 0)
(0.894456 0.447231 0)
(0.894397 0.44721 0)
(0.894279 0.447156 0)
(0.894076 0.447059 0)
(0.893735 0.44689 0)
(0.893196 0.446607 0)
(0.892385 0.44616 0)
(0.891198 0.445483 0)
(0.889516 0.444478 0)
(0.887218 0.443052 0)
(0.884211 0.441098 0)
(0.880537 0.43858 0)
(0.876495 0.435641 0)
(0.872644 0.432624 0)
(0.894492 0.447155 0)
(0.894468 0.447168 0)
(0.894451 0.447177 0)
(0.894438 0.447183 0)
(0.894428 0.447188 0)
(0.89442 0.447192 0)
(0.894415 0.447194 0)
(0.89441 0.447196 0)
(0.894408 0.447198 0)
(0.894405 0.447198 0)
(0.894404 0.447199 0)
(0.894402 0.447199 0)
(0.894401 0.447199 0)
(0.894401 0.4472 0)
(0.894401 0.4472 0)
(0.8944 0.4472 0)
(0.8944 0.4472 0)
(0.8944 0.4472 0)
(0.8944 0.4472 0)
(0.8944 0.4472 0)
(0.8944 0.4472 0)
(0.8944 0.4472 0)
(0.8944 0.4472 0)
(0.8944 0.4472 0)
(0.8944 0.4472 0)
(0.8944 0.4472 0)
(0.8944 0.4472 0)
(0.894401 0.447201 0)
(0.8944 0.447199 0)
(0.8944 0.4472 0)
(0.894401 0.447201 0)
(0.8944 0.447199 0)
(0.8944 0.4472 0)
(0.8944 0.447201 0)
(0.8944 0.447199 0)
(0.894399 0.4472 0)
(0.894402 0.4472 0)
(0.894398 0.4472 0)
(0.894401 0.4472 0)
(0.894399 0.447199 0)
(0.8944 0.4472 0)
(0.8944 0.4472 0)
(0.894401 0.4472 0)
(0.894399 0.447199 0)
(0.894401 0.447201 0)
(0.894401 0.447199 0)
(0.894399 0.4472 0)
(0.894405 0.447202 0)
(0.894401 0.447199 0)
(0.894405 0.447202 0)
(0.894407 0.447203 0)
(0.894411 0.447205 0)
(0.894411 0.447204 0)
(0.894423 0.447208 0)
(0.894427 0.447212 0)
(0.894437 0.447215 0)
(0.894449 0.447221 0)
(0.89446 0.447227 0)
(0.894472 0.447233 0)
(0.89448 0.44724 0)
(0.894481 0.447242 0)
(0.894464 0.447238 0)
(0.894419 0.447224 0)
(0.894332 0.447184 0)
(0.894165 0.447103 0)
(0.893889 0.446965 0)
(0.893449 0.446727 0)
(0.892775 0.446345 0)
(0.891783 0.445764 0)
(0.890368 0.444895 0)
(0.888413 0.443639 0)
(0.885813 0.441896 0)
(0.882533 0.439585 0)
(0.878736 0.436753 0)
(0.874853 0.433652 0)
(0.894481 0.447158 0)
(0.894461 0.44717 0)
(0.894445 0.447178 0)
(0.894434 0.447184 0)
(0.894425 0.447189 0)
(0.894418 0.447192 0)
(0.894413 0.447195 0)
(0.894409 0.447196 0)
(0.894407 0.447197 0)
(0.894404 0.447198 0)
(0.894403 0.447199 0)
(0.894402 0.447199 0)
(0.894401 0.447199 0)
(0.894401 0.4472 0)
(0.894401 0.4472 0)
(0.8944 0.4472 0)
(0.8944 0.4472 0)
(0.8944 0.4472 0)
(0.8944 0.4472 0)
(0.8944 0.4472 0)
(0.8944 0.4472 0)
(0.8944 0.4472 0)
(0.8944 0.4472 0)
(0.8944 0.4472 0)
(0.8944 0.4472 0)
(0.8944 0.4472 0)
(0.8944 0.447199 0)
(0.8944 0.447201 0)
(0.894401 0.4472 0)
(0.894399 0.4472 0)
(0.894401 0.4472 0)
(0.8944 0.4472 0)
(0.894399 0.447199 0)
(0.894401 0.447201 0)
(0.8944 0.4472 0)
(0.894399 0.4472 0)
(0.894401 0.4472 0)
(0.894399 0.4472 0)
(0.894401 0.4472 0)
(0.894399 0.447201 0)
(0.894402 0.447199 0)
(0.894398 0.447201 0)
(0.894401 0.4472 0)
(0.8944 0.447199 0)
(0.894399 0.447201 0)
(0.894403 0.447201 0)
(0.894399 0.447198 0)
(0.894403 0.447202 0)
(0.894403 0.447202 0)
(0.894403 0.4472 0)
(0.894406 0.447204 0)
(0.894409 0.447202 0)
(0.894413 0.447205 0)
(0.894418 0.447208 0)
(0.894426 0.44721 0)
(0.894434 0.447215 0)
(0.894443 0.447221 0)
(0.894455 0.447226 0)
(0.894468 0.447232 0)
(0.894476 0.447241 0)
(0.894479 0.447244 0)
(0.894471 0.447244 0)
(0.894438 0.447234 0)
(0.894369 0.447204 0)
(0.894239 0.447144 0)
(0.894017 0.447028 0)
(0.89366 0.446833 0)
(0.893107 0.446514 0)
(0.892286 0.446018 0)
(0.891108 0.445272 0)
(0.889465 0.444186 0)
(0.887249 0.442658 0)
(0.884387 0.440586 0)
(0.880932 0.43794 0)
(0.877168 0.434869 0)
(0.894471 0.447161 0)
(0.894453 0.447172 0)
(0.89444 0.44718 0)
(0.89443 0.447185 0)
(0.894422 0.44719 0)
(0.894416 0.447193 0)
(0.894412 0.447195 0)
(0.894408 0.447197 0)
(0.894406 0.447197 0)
(0.894404 0.447199 0)
(0.894403 0.447199 0)
(0.894401 0.447199 0)
(0.894402 0.447199 0)
(0.8944 0.4472 0)
(0.894401 0.4472 0)
(0.8944 0.4472 0)
(0.8944 0.4472 0)
(0.8944 0.4472 0)
(0.8944 0.4472 0)
(0.8944 0.4472 0)
(0.8944 0.4472 0)
(0.8944 0.4472 0)
(0.8944 0.4472 0)
(0.8944 0.4472 0)
(0.8944 0.4472 0)
(0.894401 0.4472 0)
(0.8944 0.4472 0)
(0.8944 0.4472 0)
(0.8944 0.4472 0)
(0.8944 0.4472 0)
(0.8944 0.447199 0)
(0.894401 0.447201 0)
(0.894399 0.4472 0)
(0.894401 0.447199 0)
(0.8944 0.447201 0)
(0.8944 0.4472 0)
(0.8944 0.447199 0)
(0.8944 0.447201 0)
(0.8944 0.4472 0)
(0.894401 0.4472 0)
(0.894399 0.447201 0)
(0.894401 0.4472 0)
(0.8944 0.4472 0)
(0.8944 0.4472 0)
(0.8944 0.4472 0)
(0.894401 0.4472 0)
(0.894402 0.447201 0)
(0.8944 0.447199 0)
(0.894404 0.447203 0)
(0.894403 0.4472 0)
(0.894406 0.447201 0)
(0.894407 0.447204 0)
(0.894412 0.447204 0)
(0.894417 0.447207 0)
(0.89442 0.447211 0)
(0.894432 0.447214 0)
(0.89444 0.447219 0)
(0.894449 0.447224 0)
(0.894463 0.447233 0)
(0.894471 0.44724 0)
(0.894477 0.447246 0)
(0.894474 0.447248 0)
(0.89445 0.447243 0)
(0.894397 0.447222 0)
(0.8943 0.447174 0)
(0.894122 0.447084 0)
(0.893833 0.446925 0)
(0.893387 0.44666 0)
(0.892714 0.446243 0)
(0.89174 0.445613 0)
(0.890373 0.444683 0)
(0.888512 0.443362 0)
(0.886065 0.441541 0)
(0.883012 0.439146 0)
(0.879498 0.43622 0)
(0.894462 0.447165 0)
(0.894447 0.447174 0)
(0.894435 0.447181 0)
(0.894426 0.447186 0)
(0.894419 0.44719 0)
(0.894414 0.447193 0)
(0.89441 0.447195 0)
(0.894407 0.447197 0)
(0.894405 0.447198 0)
(0.894403 0.447198 0)
(0.894403 0.447199 0)
(0.894402 0.447199 0)
(0.894401 0.4472 0)
(0.894401 0.4472 0)
(0.8944 0.4472 0)
(0.8944 0.4472 0)
(0.8944 0.4472 0)
(0.8944 0.4472 0)
(0.8944 0.4472 0)
(0.8944 0.4472 0)
(0.8944 0.4472 0)
(0.8944 0.4472 0)
(0.8944 0.4472 0)
(0.8944 0.4472 0)
(0.8944 0.4472 0)
(0.8944 0.4472 0)
(0.8944 0.4472 0)
(0.8944 0.447201 0)
(0.8944 0.447199 0)
(0.8944 0.447201 0)
(0.8944 0.447199 0)
(0.894399 0.4472 0)
(0.894401 0.4472 0)
(0.8944 0.4472 0)
(0.894399 0.4472 0)
(0.894401 0.4472 0)
(0.894399 0.4472 0)
(0.8944 0.4472 0)
(0.894401 0.447199 0)
(0.894399 0.447201 0)
(0.8944 0.4472 0)
(0.894401 0.447199 0)
(0.894399 0.4472 0)
(0.894401 0.447201 0)
(0.8944 0.4472 0)
(0.8944 0.447199 0)
(0.894402 0.447201 0)
(0.894401 0.4472 0)
(0.894401 0.4472 0)
(0.894404 0.447203 0)
(0.894403 0.4472 0)
(0.894408 0.447204 0)
(0.89441 0.447206 0)
(0.894415 0.447204 0)
(0.894418 0.447211 0)
(0.894427 0.447212 0)
(0.894437 0.447218 0)
(0.894443 0.447226 0)
(0.894458 0.44723 0)
(0.894468 0.447236 0)
(0.894471 0.447247 0)
(0.894473 0.447251 0)
(0.89446 0.447247 0)
(0.89442 0.447236 0)
(0.894342 0.4472 0)
(0.894204 0.447129 0)
(0.893978 0.447001 0)
(0.893617 0.446786 0)
(0.893071 0.446442 0)
(0.892277 0.445914 0)
(0.891152 0.445129 0)
(0.889605 0.444 0)
(0.887544 0.442428 0)
(0.884914 0.440315 0)
(0.881757 0.437625 0)
(0.894454 0.447167 0)
(0.894441 0.447176 0)
(0.894431 0.447183 0)
(0.894423 0.447188 0)
(0.894417 0.447191 0)
(0.894412 0.447194 0)
(0.894409 0.447195 0)
(0.894406 0.447197 0)
(0.894404 0.447198 0)
(0.894403 0.447199 0)
(0.894402 0.447199 0)
(0.894402 0.4472 0)
(0.894401 0.447199 0)
(0.894401 0.4472 0)
(0.8944 0.4472 0)
(0.8944 0.4472 0)
(0.8944 0.4472 0)
(0.8944 0.4472 0)
(0.8944 0.4472 0)
(0.8944 0.4472 0)
(0.8944 0.4472 0)
(0.8944 0.4472 0)
(0.8944 0.447201 0)
(0.8944 0.4472 0)
(0.8944 0.4472 0)
(0.8944 0.4472 0)
(0.8944 0.447199 0)
(0.8944 0.4472 0)
(0.8944 0.4472 0)
(0.8944 0.4472 0)
(0.8944 0.4472 0)
(0.8944 0.4472 0)
(0.894399 0.4472 0)
(0.894401 0.4472 0)
(0.8944 0.4472 0)
(0.8944 0.447201 0)
(0.894401 0.4472 0)
(0.8944 0.4472 0)
(0.8944 0.4472 0)
(0.894401 0.447199 0)
(0.894399 0.447201 0)
(0.8944 0.4472 0)
(0.894401 0.4472 0)
(0.894398 0.4472 0)
(0.894402 0.4472 0)
(0.8944 0.4472 0)
(0.894399 0.447199 0)
(0.894403 0.447202 0)
(0.894401 0.447199 0)
(0.894402 0.447202 0)
(0.894406 0.447203 0)
(0.894404 0.447201 0)
(0.89441 0.447205 0)
(0.894412 0.447206 0)
(0.894419 0.447208 0)
(0.894423 0.447213 0)
(0.894431 0.447216 0)
(0.894442 0.447222 0)
(0.894449 0.447232 0)
(0.894461 0.447235 0)
(0.894469 0.447244 0)
(0.894469 0.447252 0)
(0.894463 0.447252 0)
(0.894434 0.447243 0)
(0.894377 0.447222 0)
(0.894273 0.447166 0)
(0.894091 0.447065 0)
(0.893804 0.446893 0)
(0.893369 0.446613 0)
(0.892725 0.446173 0)
(0.891806 0.445521 0)
(0.890536 0.444571 0)
(0.888827 0.443232 0)
(0.886608 0.441403 0)
(0.883857 0.439011 0)
(0.894447 0.44717 0)
(0.894435 0.447179 0)
(0.894427 0.447184 0)
(0.89442 0.447189 0)
(0.894415 0.447192 0)
(0.894411 0.447194 0)
(0.894408 0.447196 0)
(0.894406 0.447197 0)
(0.894404 0.447198 0)
(0.894403 0.447199 0)
(0.894402 0.447199 0)
(0.894401 0.447199 0)
(0.894401 0.4472 0)
(0.894401 0.4472 0)
(0.8944 0.4472 0)
(0.8944 0.4472 0)
(0.8944 0.4472 0)
(0.8944 0.4472 0)
(0.8944 0.4472 0)
(0.8944 0.4472 0)
(0.8944 0.4472 0)
(0.8944 0.4472 0)
(0.8944 0.4472 0)
(0.8944 0.4472 0)
(0.8944 0.4472 0)
(0.8944 0.4472 0)
(0.8944 0.4472 0)
(0.8944 0.447199 0)
(0.8944 0.4472 0)
(0.894399 0.4472 0)
(0.894401 0.447199 0)
(0.8944 0.447201 0)
(0.8944 0.447199 0)
(0.894401 0.4472 0)
(0.894399 0.4472 0)
(0.894401 0.447199 0)
(0.8944 0.447201 0)
(0.8944 0.447199 0)
(0.8944 0.4472 0)
(0.8944 0.4472 0)
(0.8944 0.447199 0)
(0.894401 0.447201 0)
(0.8944 0.447199 0)
(0.8944 0.447201 0)
(0.894401 0.447199 0)
(0.8944 0.447201 0)
(0.8944 0.4472 0)
(0.894402 0.447201 0)
(0.894401 0.447201 0)
(0.894402 0.4472 0)
(0.894403 0.447203 0)
(0.894406 0.447202 0)
(0.894407 0.447203 0)
(0.894411 0.447206 0)
(0.894416 0.447209 0)
(0.89442 0.44721 0)
(0.894429 0.447218 0)
(0.894436 0.447219 0)
(0.894445 0.447227 0)
(0.894454 0.447238 0)
(0.894462 0.447241 0)
(0.894468 0.44725 0)
(0.894462 0.447255 0)
(0.894445 0.447249 0)
(0.894402 0.447235 0)
(0.894321 0.447197 0)
(0.894183 0.447116 0)
(0.893956 0.44698 0)
(0.893609 0.446756 0)
(0.893096 0.4464 0)
(0.892353 0.445859 0)
(0.891319 0.44507 0)
(0.88992 0.443945 0)
(0.888075 0.442389 0)
(0.885739 0.440316 0)
(0.89444 0.447173 0)
(0.894431 0.44718 0)
(0.894423 0.447186 0)
(0.894417 0.44719 0)
(0.894413 0.447193 0)
(0.894409 0.447195 0)
(0.894407 0.447197 0)
(0.894405 0.447197 0)
(0.894403 0.447199 0)
(0.894402 0.447199 0)
(0.894401 0.447199 0)
(0.894401 0.447199 0)
(0.894401 0.4472 0)
(0.8944 0.4472 0)
(0.894401 0.4472 0)
(0.8944 0.4472 0)
(0.8944 0.4472 0)
(0.8944 0.447201 0)
(0.8944 0.447199 0)
(0.8944 0.4472 0)
(0.8944 0.4472 0)
(0.8944 0.4472 0)
(0.8944 0.4472 0)
(0.8944 0.4472 0)
(0.8944 0.4472 0)
(0.8944 0.4472 0)
(0.8944 0.4472 0)
(0.8944 0.4472 0)
(0.8944 0.4472 0)
(0.8944 0.4472 0)
(0.8944 0.4472 0)
(0.8944 0.4472 0)
(0.8944 0.4472 0)
(0.8944 0.4472 0)
(0.8944 0.4472 0)
(0.8944 0.447199 0)
(0.8944 0.4472 0)
(0.8944 0.447201 0)
(0.894401 0.447199 0)
(0.894399 0.447201 0)
(0.894402 0.4472 0)
(0.894399 0.4472 0)
(0.894401 0.4472 0)
(0.8944 0.447199 0)
(0.8944 0.447201 0)
(0.894401 0.4472 0)
(0.894399 0.447201 0)
(0.894401 0.447199 0)
(0.894402 0.447201 0)
(0.894402 0.447202 0)
(0.894401 0.4472 0)
(0.894407 0.447203 0)
(0.894405 0.447203 0)
(0.894409 0.447205 0)
(0.894415 0.447207 0)
(0.894417 0.447211 0)
(0.894423 0.447214 0)
(0.894434 0.447219 0)
(0.894439 0.447225 0)
(0.894447 0.447232 0)
(0.894458 0.447242 0)
(0.894462 0.447247 0)
(0.894461 0.447253 0)
(0.89445 0.447256 0)
(0.894419 0.447243 0)
(0.894359 0.447216 0)
(0.894253 0.44716 0)
(0.894076 0.447053 0)
(0.893803 0.446873 0)
(0.893397 0.446588 0)
(0.892803 0.446149 0)
(0.89197 0.4455 0)
(0.890836 0.444566 0)
(0.889327 0.443265 0)
(0.88738 0.441501 0)
(0.894434 0.447176 0)
(0.894426 0.447182 0)
(0.89442 0.447187 0)
(0.894415 0.447191 0)
(0.894411 0.447193 0)
(0.894408 0.447195 0)
(0.894406 0.447197 0)
(0.894404 0.447198 0)
(0.894403 0.447198 0)
(0.894402 0.447199 0)
(0.894401 0.447199 0)
(0.894401 0.4472 0)
(0.894401 0.4472 0)
(0.8944 0.4472 0)
(0.8944 0.4472 0)
(0.8944 0.4472 0)
(0.8944 0.4472 0)
(0.8944 0.4472 0)
(0.8944 0.447201 0)
(0.8944 0.4472 0)
(0.8944 0.4472 0)
(0.8944 0.4472 0)
(0.8944 0.4472 0)
(0.8944 0.4472 0)
(0.8944 0.4472 0)
(0.8944 0.4472 0)
(0.8944 0.447199 0)
(0.8944 0.447201 0)
(0.8944 0.4472 0)
(0.8944 0.4472 0)
(0.894401 0.4472 0)
(0.894399 0.4472 0)
(0.8944 0.4472 0)
(0.8944 0.4472 0)
(0.8944 0.4472 0)
(0.8944 0.4472 0)
(0.8944 0.447199 0)
(0.894399 0.447201 0)
(0.894401 0.447199 0)
(0.894399 0.4472 0)
(0.8944 0.447201 0)
(0.894401 0.447199 0)
(0.894399 0.447201 0)
(0.8944 0.447199 0)
(0.8944 0.4472 0)
(0.8944 0.447201 0)
(0.894401 0.4472 0)
(0.8944 0.447201 0)
(0.894402 0.447198 0)
(0.894401 0.447203 0)
(0.894403 0.447201 0)
(0.894402 0.4472 0)
(0.894407 0.447204 0)
(0.894408 0.447204 0)
(0.894409 0.447207 0)
(0.894419 0.447209 0)
(0.894419 0.447212 0)
(0.894427 0.447218 0)
(0.894437 0.447223 0)
(0.894443 0.447231 0)
(0.894451 0.447237 0)
(0.894457 0.447246 0)
(0.894458 0.447253 0)
(0.894452 0.447255 0)
(0.894431 0.447252 0)
(0.894383 0.44723 0)
(0.894305 0.44719 0)
(0.894172 0.447111 0)
(0.893957 0.446969 0)
(0.893637 0.446742 0)
(0.89317 0.446393 0)
(0.892507 0.445866 0)
(0.891592 0.445099 0)
(0.890372 0.444024 0)
(0.888785 0.442553 0)
(0.894429 0.447179 0)
(0.894422 0.447184 0)
(0.894417 0.447189 0)
(0.894413 0.447192 0)
(0.894409 0.447194 0)
(0.894407 0.447196 0)
(0.894405 0.447197 0)
(0.894403 0.447198 0)
(0.894403 0.447199 0)
(0.894401 0.447199 0)
(0.894401 0.447199 0)
(0.894401 0.4472 0)
(0.894401 0.4472 0)
(0.8944 0.4472 0)
(0.8944 0.4472 0)
(0.8944 0.4472 0)
(0.8944 0.4472 0)
(0.8944 0.4472 0)
(0.8944 0.4472 0)
(0.8944 0.4472 0)
(0.8944 0.4472 0)
(0.8944 0.4472 0)
(0.8944 0.4472 0)
(0.8944 0.447199 0)
(0.8944 0.447201 0)
(0.8944 0.4472 0)
(0.8944 0.4472 0)
(0.8944 0.4472 0)
(0.8944 0.4472 0)
(0.8944 0.4472 0)
(0.8944 0.4472 0)
(0.8944 0.4472 0)
(0.8944 0.447199 0)
(0.8944 0.4472 0)
(0.8944 0.4472 0)
(0.8944 0.4472 0)
(0.8944 0.4472 0)
(0.8944 0.4472 0)
(0.8944 0.4472 0)
(0.894401 0.447199 0)
(0.894399 0.447201 0)
(0.894401 0.447199 0)
(0.8944 0.447199 0)
(0.8944 0.447202 0)
(0.894401 0.447198 0)
(0.8944 0.447202 0)
(0.894399 0.4472 0)
(0.894403 0.447199 0)
(0.894399 0.447201 0)
(0.894401 0.4472 0)
(0.894404 0.447202 0)
(0.894402 0.447201 0)
(0.894403 0.447203 0)
(0.894409 0.447204 0)
(0.89441 0.447205 0)
(0.894412 0.447209 0)
(0.89442 0.447211 0)
(0.894421 0.447216 0)
(0.894432 0.44722 0)
(0.894439 0.447228 0)
(0.894442 0.447234 0)
(0.894453 0.447242 0)
(0.894456 0.447251 0)
(0.894447 0.447254 0)
(0.894438 0.447253 0)
(0.894407 0.447244 0)
(0.894342 0.447213 0)
(0.894243 0.447152 0)
(0.89408 0.447047 0)
(0.893827 0.446871 0)
(0.893462 0.446589 0)
(0.892942 0.446168 0)
(0.892213 0.445553 0)
(0.891235 0.444671 0)
(0.889955 0.443455 0)
(0.894425 0.447181 0)
(0.894419 0.447186 0)
(0.894414 0.44719 0)
(0.894411 0.447193 0)
(0.894408 0.447195 0)
(0.894406 0.447196 0)
(0.894404 0.447197 0)
(0.894403 0.447198 0)
(0.894402 0.447199 0)
(0.894402 0.447199 0)
(0.894401 0.4472 0)
(0.894401 0.447199 0)
(0.8944 0.4472 0)
(0.8944 0.4472 0)
(0.8944 0.4472 0)
(0.8944 0.4472 0)
(0.8944 0.4472 0)
(0.8944 0.4472 0)
(0.8944 0.4472 0)
(0.8944 0.4472 0)
(0.8944 0.4472 0)
(0.8944 0.4472 0)
(0.8944 0.4472 0)
(0.8944 0.4472 0)
(0.8944 0.4472 0)
(0.8944 0.447199 0)
(0.8944 0.447201 0)
(0.8944 0.447199 0)
(0.8944 0.447201 0)
(0.8944 0.4472 0)
(0.8944 0.4472 0)
(0.8944 0.447201 0)
(0.894401 0.447199 0)
(0.8944 0.4472 0)
(0.894399 0.4472 0)
(0.894402 0.4472 0)
(0.894399 0.447201 0)
(0.8944 0.447199 0)
(0.8944 0.447201 0)
(0.8944 0.447201 0)
(0.894401 0.447198 0)
(0.8944 0.447201 0)
(0.894399 0.447199 0)
(0.8944 0.4472 0)
(0.8944 0.447201 0)
(0.8944 0.447199 0)
(0.8944 0.4472 0)
(0.8944 0.4472 0)
(0.894401 0.447201 0)
(0.894401 0.447201 0)
(0.894402 0.447199 0)
(0.894401 0.447203 0)
(0.894406 0.447203 0)
(0.894404 0.447203 0)
(0.894411 0.447205 0)
(0.894409 0.447208 0)
(0.894416 0.44721 0)
(0.894421 0.447214 0)
(0.894425 0.447219 0)
(0.894433 0.447225 0)
(0.89444 0.447232 0)
(0.894445 0.44724 0)
(0.894448 0.447245 0)
(0.89445 0.447253 0)
(0.89444 0.447255 0)
(0.894415 0.447248 0)
(0.894373 0.44723 0)
(0.894296 0.447186 0)
(0.894172 0.447106 0)
(0.89398 0.446971 0)
(0.893693 0.446752 0)
(0.893285 0.446417 0)
(0.892717 0.445925 0)
(0.891941 0.445217 0)
(0.890916 0.444227 0)
(0.894421 0.447184 0)
(0.894416 0.447188 0)
(0.894412 0.447191 0)
(0.894409 0.447194 0)
(0.894407 0.447196 0)
(0.894405 0.447197 0)
(0.894404 0.447198 0)
(0.894402 0.447198 0)
(0.894402 0.447199 0)
(0.894401 0.447199 0)
(0.894401 0.4472 0)
(0.8944 0.4472 0)
(0.8944 0.4472 0)
(0.8944 0.4472 0)
(0.8944 0.4472 0)
(0.8944 0.4472 0)
(0.8944 0.447199 0)
(0.8944 0.447201 0)
(0.8944 0.4472 0)
(0.8944 0.4472 0)
(0.8944 0.4472 0)
(0.8944 0.4472 0)
(0.8944 0.4472 0)
(0.8944 0.4472 0)
(0.8944 0.4472 0)
(0.8944 0.4472 0)
(0.8944 0.4472 0)
(0.8944 0.4472 0)
(0.894399 0.4472 0)
(0.894401 0.4472 0)
(0.8944 0.4472 0)
(0.8944 0.4472 0)
(0.8944 0.4472 0)
(0.8944 0.447201 0)
(0.8944 0.447199 0)
(0.8944 0.4472 0)
(0.8944 0.447201 0)
(0.894401 0.447199 0)
(0.894399 0.4472 0)
(0.894401 0.4472 0)
(0.894399 0.4472 0)
(0.894401 0.4472 0)
(0.894399 0.447201 0)
(0.8944 0.447199 0)
(0.894401 0.4472 0)
(0.894399 0.447201 0)
(0.894402 0.447199 0)
(0.894399 0.447202 0)
(0.894402 0.447199 0)
(0.894401 0.447202 0)
(0.894402 0.4472 0)
(0.894402 0.447201 0)
(0.894403 0.447203 0)
(0.894405 0.447203 0)
(0.894406 0.447204 0)
(0.894411 0.447207 0)
(0.894411 0.447208 0)
(0.894419 0.447213 0)
(0.894422 0.447217 0)
(0.894428 0.447221 0)
(0.894435 0.447229 0)
(0.894439 0.447235 0)
(0.894444 0.447243 0)
(0.894445 0.447249 0)
(0.894441 0.447253 0)
(0.894422 0.447253 0)
(0.894392 0.447238 0)
(0.894335 0.447209 0)
(0.894239 0.447151 0)
(0.894094 0.447047 0)
(0.893877 0.44688 0)