/*--------------------------------*- C++ -*----------------------------------*\
  =========                 |
  \\      /  F ield         | OpenFOAM: The Open Source CFD Toolbox
   \\    /   O peration     | Website:  https://openfoam.org
    \\  /    A nd           | Version:  6
     \\/     M anipulation  |
\*---------------------------------------------------------------------------*/
FoamFile
{
    version     2.0;
    format      ascii;
    class       volScalarField;
    location    "2.05";
    object      p;
}
// * * * * * * * * * * * * * * * * * * * * * * * * * * * * * * * * * * * * * //

dimensions      [1 -1 -2 0 0 0 0];

internalField   nonuniform List<scalar> 
10000
(
1
1
1
1
1
1
1
1
1
1
1
1
1
1
1
1
1
1
1
1
1
1
1
1
1
1
1
1
1
1
1
1
1
1
1
1
1
1
1
1
1
1
1
1
1
1
1
1
1
1
1
1
0.999999
0.999999
0.999999
1
1
1
1
1
1
1
1
1
1
1
1
1
1
1
1
1
1
1
1
1
1
1
1
1
1
1
1
1
1
1
1
1
1
1
1
1
1
1
1
1
1
1
1
1
1
1
1
1
1
1
1
1
1
1
1
1
1
1
1
1
1
1
1
1
1
1
1
1
1
1
1
1
1
1
1
1
1
1
1
1
1
1
1
1
1
1
1
1
1
1
1
1
0.999999
0.999999
0.999999
0.999999
0.999999
0.999999
0.999999
0.999999
0.999999
1
1
1
1
1
1
1
1
1
1
1
1
1
1
1
1
1
1
1
1
1
1
1
1
1
1
1
1
1
1
1
1
1
1
1
1
1
1
1
1
1
1
1
1
1
1
1
1
1
1
1
1
1
1
1
1
1
1
1
1
1
1
1
1
1
1
1
1
1
1
1
1
1
1
1
1
1
1
1
1
1
1
1
1
1
1
1
1
1
0.999999
0.999999
0.999999
0.999999
0.999999
0.999998
0.999998
0.999998
0.999998
0.999999
0.999999
0.999999
1
1
1
1
1
1
1
1
1
1
1
1
1
1
1
1
1
1
1
1
1
1
1
1
1
1
1
1
1
1
1
1
1
1
1
1
1
1
1
1
1
1
1
1
1
1
1
1
1
1
1
1
1
1
1
1
1
1
1
1
1
1
1
1
1
1
1
1
1
1
1
1
1
1
1
1
1
1
1
1
1
1
1
1
1
1
1
0.999999
0.999999
0.999999
0.999998
0.999998
0.999998
0.999997
0.999997
0.999997
0.999997
0.999997
0.999998
0.999999
1
1
1
1
1
1
1
1
1
1
1
1
1
1
1
1
1
1
1
1
1
1
1
1
1
1
1
1
1
1
1
1
1
1
1
1
1
1
1
1
1
1
1
1
1
1
1
1
1
1
1
1
1
1
1
1
1
1
1
1
1
1
1
1
1
1
1
1
1
1
1
1
1
1
1
1
1
1
1
1
1
1
1
1
1
1
0.999999
0.999999
0.999999
0.999998
0.999997
0.999997
0.999996
0.999995
0.999995
0.999995
0.999995
0.999996
0.999997
0.999998
0.999999
1
1
1
1
1
1.00001
1
1
1
1
1
1
1
1
1
1
1
1
1
1
1
1
1
1
1
1
1
1
1
1
1
1
1
1
1
1
1
1
1
1
1
1
1
1
1
1
1
1
1
1
1
1
1
1
1
1
1
1
1
1
1
1
1
1
1
1
1
1
1
1
1
1
1
1
1
1
1
1
1
1
1
1
1
1
0.999999
0.999999
0.999998
0.999998
0.999997
0.999996
0.999995
0.999993
0.999992
0.999992
0.999991
0.999992
0.999993
0.999994
0.999997
0.999999
1
1
1.00001
1.00001
1.00001
1.00001
1.00001
1.00001
1.00001
1.00001
1
1
1
1
1
1
1
1
1
1
1
1
1
1
1
1
1
1
1
1
1
1
1
1
1
1
1
1
1
1
1
1
1
1
1
1
1
1
1
1
1
1
1
1
1
1
1
1
1
1
1
1
1
1
1
1
1
1
1
1
1
1
1
1
1
1
1
1
1
1
1
1
1
0.999999
0.999999
0.999999
0.999998
0.999997
0.999995
0.999993
0.999991
0.999989
0.999988
0.999987
0.999986
0.999987
0.999988
0.999991
0.999995
0.999998
1
1.00001
1.00001
1.00001
1.00001
1.00001
1.00001
1.00001
1.00001
1.00001
1.00001
1.00001
1
1
1
1
1
1
1
1
1
1
1
1
1
1
1
1
1
1
1
1
1
1
1
1
1
1
1
1
1
1
1
1
1
1
1
1
1
1
1
1
1
1
1
1
1
1
1
1
1
1
1
1
1
1
1
1
1
1
1
1
1
1
1
1
1
1
1
1
1
1
1
0.999999
0.999999
0.999998
0.999996
0.999995
0.999992
0.999989
0.999986
0.999983
0.999981
0.999979
0.999979
0.999979
0.999982
0.999986
0.999992
0.999998
1
1.00001
1.00002
1.00002
1.00002
1.00002
1.00002
1.00002
1.00002
1.00001
1.00001
1.00001
1.00001
1
1
1
1
1
1
1
1
1
1
1
1
1
1
1
1
1
1
1
1
1
1
1
1
1
1
1
1
1
1
1
1
1
1
1
1
1
1
1
1
1
1
1
1
1
1
1
1
1
1
1
1
1
1
1
1
1
1
1
1
1
1
1
1
1
1
1
1
1
0.999999
0.999999
0.999998
0.999997
0.999994
0.999992
0.999988
0.999984
0.999979
0.999974
0.999971
0.999968
0.999968
0.999969
0.999973
0.999979
0.999988
0.999998
1.00001
1.00002
1.00002
1.00003
1.00003
1.00003
1.00003
1.00003
1.00003
1.00002
1.00002
1.00001
1.00001
1.00001
1
1
1
1
1
1
1
1
1
1
1
1
1
1
1
1
1
1
1
1
1
1
1
1
1
1
1
1
1
1
1
1
1
1
1
1
1
1
1
1
1
1
1
1
1
1
1
1
1
1
1
1
1
1
1
1
1
1
1
1
1
1
1
1
1
1
1
1
0.999999
0.999999
0.999997
0.999995
0.999992
0.999987
0.999982
0.999976
0.999968
0.999962
0.999956
0.999953
0.999952
0.999955
0.999961
0.999971
0.999984
0.999998
1.00001
1.00003
1.00004
1.00005
1.00005
1.00005
1.00005
1.00004
1.00004
1.00003
1.00003
1.00002
1.00001
1.00001
1.00001
1
1
1
1
1
1
1
1
1
1
1
1
1
1
1
1
1
1
1
1
1
1
1
1
1
1
1
1
1
1
1
1
1
1
1
1
1
1
1
1
1
1
1
1
1
1
1
1
1
1
1
1
1
1
1
1
1
1
1
1
1
1
1
1
1
1
1
0.999999
0.999998
0.999996
0.999993
0.999988
0.999981
0.999974
0.999964
0.999954
0.999945
0.999937
0.999932
0.999932
0.999936
0.999946
0.999961
0.99998
1
1.00002
1.00004
1.00006
1.00007
1.00008
1.00008
1.00007
1.00007
1.00006
1.00005
1.00004
1.00003
1.00002
1.00001
1.00001
1.00001
1
1
1
1
1
1
1
1
1
1
1
1
1
1
1
1
1
1
1
1
1
1
1
1
1
1
1
1
1
1
1
1
1
1
1
1
1
1
1
1
1
1
1
1
1
1
1
1
1
1
1
1
1
1
1
1
1
1
1
1
1
1
1
1
1
1
0.999999
0.999998
0.999995
0.99999
0.999983
0.999974
0.999962
0.999949
0.999935
0.999922
0.999912
0.999906
0.999906
0.999914
0.999929
0.999951
0.999978
1.00001
1.00004
1.00007
1.00009
1.0001
1.00011
1.00011
1.00011
1.0001
1.00008
1.00007
1.00005
1.00004
1.00003
1.00002
1.00001
1.00001
1
1
1
1
1
1
1
1
1
1
1
1
1
1
1
1
1
1
1
1
1
1
1
1
1
1
1
1
1
1
1
1
1
1
1
1
1
1
1
1
1
1
1
1
1
1
1
1
1
1
1
1
1
1
1
1
1
1
1
1
1
1
1
1
1
1
1
0.999997
0.999993
0.999987
0.999977
0.999964
0.999948
0.99993
0.999911
0.999893
0.99988
0.999874
0.999876
0.999889
0.999914
0.999946
0.999985
1.00003
1.00007
1.00011
1.00014
1.00016
1.00017
1.00017
1.00016
1.00014
1.00012
1.0001
1.00008
1.00006
1.00004
1.00003
1.00002
1.00001
1.00001
1
1
1
1
1
1
1
1
1
1
1
1
1
1
1
1
1
1
1
1
1
1
1
1
1
1
1
1
1
1
1
1
1
1
1
1
1
1
1
1
1
1
1
1
1
1
1
1
1
1
1
1
1
1
1
1
1
1
1
1
1
1
1
1
1
1
0.999998
0.999992
0.999982
0.999969
0.999952
0.99993
0.999906
0.999882
0.99986
0.999845
0.99984
0.999849
0.999871
0.999907
0.999954
1.00001
1.00007
1.00013
1.00017
1.00021
1.00024
1.00025
1.00024
1.00023
1.0002
1.00017
1.00014
1.00011
1.00008
1.00006
1.00004
1.00002
1.00001
1.00001
1
1
1
0.999999
0.999999
0.999999
1
1
1
1
1
1
1
1
1
1
1
1
1
1
1
1
1
1
1
1
1
1
1
1
1
1
1
1
1
1
1
1
1
1
1
1
1
1
1
1
1
1
1
1
1
1
1
1
1
1
1
1
1
1
1
1
1
1
1
1
0.999998
0.99999
0.999979
0.999961
0.999938
0.99991
0.999879
0.999849
0.999825
0.999812
0.999812
0.999831
0.999869
0.999925
0.999994
1.00007
1.00015
1.00023
1.00029
1.00033
1.00036
1.00037
1.00035
1.00032
1.00028
1.00024
1.00019
1.00015
1.00011
1.00008
1.00005
1.00003
1.00002
1.00001
1
1
0.999999
0.999998
0.999998
0.999999
0.999999
0.999999
1
1
1
1
1
1
1
1
1
1
1
1
1
1
1
1
1
1
1
1
1
1
1
1
1
1
1
1
1
1
1
1
1
1
1
1
1
1
1
1
1
1
1
1
1
1
1
1
1
1
1
1
1
1
1
1.00001
1.00001
1
1
0.99999
0.999975
0.999953
0.999923
0.999889
0.999853
0.99982
0.999796
0.999789
0.999803
0.999843
0.999907
0.999994
1.0001
1.00021
1.00031
1.00041
1.00048
1.00053
1.00055
1.00055
1.00052
1.00047
1.0004
1.00033
1.00027
1.0002
1.00015
1.0001
1.00006
1.00004
1.00002
1.00001
1
0.999998
0.999997
0.999997
0.999997
0.999998
0.999999
0.999999
0.999999
1
1
1
1
1
1
1
1
1
1
1
1
1
1
1
1
1
1
1
1
1
1
1
1
1
1
1
1
1
1
1
1
1
1
1
1
1
1
1
1
1
1
1
1
1
1
1
1
1
1
1
1
1.00001
1.00001
1.00001
1.00001
1.00001
1
0.999992
0.999973
0.999946
0.99991
0.99987
0.999832
0.9998
0.999785
0.999797
0.999839
0.999916
1.00003
1.00016
1.00031
1.00046
1.00061
1.00072
1.00081
1.00085
1.00086
1.00082
1.00076
1.00067
1.00057
1.00047
1.00037
1.00027
1.0002
1.00013
1.00008
1.00005
1.00002
1.00001
0.999999
0.999995
0.999994
0.999994
0.999995
0.999996
0.999998
0.999998
0.999999
0.999999
1
1
1
1
1
1
1
1
1
1
1
1
1
1
1
1
1
1
1
1
1
1
1
1
1
1
1
1
1
1
1
1
1
1
1
1
1
1
1
1
1
1
1
1
1
1
1
1
1
1
1.00001
1.00001
1.00001
1.00001
1.00002
1.00002
1.00001
0.999997
0.999975
0.999943
0.999904
0.999862
0.999827
0.999807
0.999817
0.999867
0.999961
1.0001
1.00028
1.00049
1.00072
1.00093
1.00112
1.00126
1.00135
1.00137
1.00134
1.00126
1.00113
1.00098
1.00082
1.00066
1.00051
1.00037
1.00026
1.00017
1.0001
1.00006
1.00002
1.00001
0.999995
0.99999
0.99999
0.999991
0.999992
0.999994
0.999996
0.999997
0.999998
0.999999
0.999999
1
1
1
1
1
1
1
1
1
1
1
1
1
1
1
1
1
1
1
1
1
1
1
1
1
1
1
1
1
1
1
1
1
1
1
1
1
1
1
1
1
1
1
1
1
1
1
1
1
1.00001
1.00001
1.00002
1.00002
1.00003
1.00003
1.00002
1.00001
0.999984
0.99995
0.999911
0.999875
0.999855
0.999867
0.999928
1.00005
1.00023
1.00048
1.00078
1.0011
1.00143
1.00173
1.00197
1.00214
1.00222
1.0022
1.0021
1.00193
1.0017
1.00145
1.00119
1.00094
1.00071
1.00051
1.00035
1.00023
1.00013
1.00007
1.00003
1
0.999987
0.999983
0.999983
0.999985
0.999988
0.999991
0.999994
0.999996
0.999998
0.999999
0.999999
1
1
1
1
1
1
1
1
1
1
1
1
1
1
1
1
1
1
1
1
1
1
1
1
1
1
1
1
1
1
1
1
1
1
1
1
1
1
1
1
1
1
1
1
1
1
1
1
1.00001
1.00001
1.00002
1.00003
1.00003
1.00004
1.00004
1.00004
1.00003
1
0.999972
0.999941
0.999925
0.999944
1.00002
1.00017
1.00042
1.00075
1.00117
1.00164
1.00213
1.00261
1.00302
1.00334
1.00353
1.00358
1.0035
1.00328
1.00296
1.00257
1.00215
1.00174
1.00135
1.001
1.00071
1.00048
1.0003
1.00017
1.00008
1.00003
0.999993
0.999977
0.999972
0.999973
0.999978
0.999983
0.999987
0.999991
0.999994
0.999996
0.999998
0.999999
0.999999
1
1
1
1
1
1
1
1
1
1
1
1
1
1
1
1
1
1
1
1
1
1
1
1
1
1
1
1
1
1
1
1
1
1
1
1
1
1
1
1
1
1
1
1
1
1
1.00001
1.00001
1.00002
1.00003
1.00004
1.00005
1.00006
1.00007
1.00007
1.00006
1.00004
1.00002
1.00001
1.00004
1.00013
1.00032
1.00063
1.00108
1.00165
1.00232
1.00304
1.00378
1.00446
1.00502
1.00544
1.00565
1.00566
1.00545
1.00506
1.00452
1.00388
1.00321
1.00256
1.00196
1.00143
1.001
1.00066
1.00041
1.00022
1.0001
1.00002
0.999982
0.999962
0.999957
0.99996
0.999967
0.999975
0.999982
0.999987
0.999992
0.999995
0.999997
0.999998
0.999999
0.999999
1
1
1
1
1
1
1
1
1
1
1
1
1
1
1
1
1
1
1
1
1
1
1
1
1
1
1
1
1
1
1
1
1
1
1
1
1
1
1
1
1
1
1
1
1.00001
1.00001
1.00002
1.00003
1.00004
1.00005
1.00007
1.00009
1.0001
1.00011
1.00011
1.0001
1.00011
1.00015
1.00026
1.00048
1.00086
1.00142
1.00217
1.00308
1.00412
1.0052
1.00626
1.00721
1.00798
1.00851
1.00875
1.00868
1.00831
1.00767
1.00681
1.00582
1.00478
1.00378
1.00286
1.00208
1.00144
1.00094
1.00057
1.00031
1.00013
1.00003
0.999969
0.999943
0.999937
0.999942
0.999952
0.999964
0.999974
0.999982
0.999988
0.999992
0.999995
0.999997
0.999999
0.999999
1
1
1
1
1
1
1
1
1
1
1
1
1
1
1
1
1
1
1
1
1
1
1
1
1
1
1
1
1
1
1
1
1
1
1
1
1
1
1
1
1
1
1
1
1.00001
1.00001
1.00002
1.00003
1.00005
1.00007
1.0001
1.00012
1.00015
1.00016
1.00018
1.0002
1.00025
1.00038
1.00063
1.00107
1.00174
1.00267
1.00386
1.00526
1.00678
1.00833
1.0098
1.01109
1.0121
1.01277
1.01304
1.01289
1.01231
1.01134
1.01007
1.00859
1.00705
1.00555
1.00419
1.00302
1.00207
1.00134
1.00081
1.00043
1.00019
1.00004
0.999956
0.99992
0.999912
0.99992
0.999934
0.99995
0.999964
0.999975
0.999984
0.99999
0.999994
0.999996
0.999998
0.999999
0.999999
1
1
1
1
1
1
1
1
1
1
1
1
1
1
1
1
1
1
1
1
1
1
1
1
1
1
1
1
1
1
1
1
1
1
1
1
1
1
1
1
1
1
1.00001
1.00001
1.00002
1.00003
1.00005
1.00007
1.0001
1.00013
1.00017
1.0002
1.00024
1.00028
1.00035
1.00049
1.00076
1.00123
1.00199
1.00309
1.00456
1.00635
1.00838
1.01053
1.01264
1.01459
1.01625
1.01753
1.01834
1.01864
1.0184
1.0176
1.01627
1.01449
1.01242
1.01022
1.00806
1.00608
1.00439
1.00301
1.00194
1.00117
1.00063
1.00027
1.00006
0.999946
0.999895
0.999883
0.999892
0.999911
0.999932
0.999951
0.999966
0.999978
0.999986
0.999991
0.999995
0.999997
0.999998
0.999999
1
1
1
1
1
1
1
1
1
1
1
1
1
1
1
1
1
1
1
1
1
1
1
1
1
1
1
1
1
1
1
1
1
1
1
1
1
1
1
1
1
1
1.00001
1.00001
1.00002
1.00004
1.00006
1.00009
1.00013
1.00018
1.00023
1.00028
1.00034
1.00043
1.00058
1.00085
1.00133
1.00213
1.00336
1.00507
1.00725
1.00982
1.01262
1.01548
1.01819
1.02062
1.02262
1.02413
1.02506
1.0254
1.0251
1.02412
1.02246
1.02018
1.01745
1.01446
1.01148
1.00871
1.00631
1.00434
1.00282
1.0017
1.00093
1.00042
1.00011
0.999947
0.999871
0.99985
0.99986
0.999884
0.99991
0.999935
0.999955
0.99997
0.999981
0.999988
0.999993
0.999996
0.999998
0.999999
0.999999
1
1
1
1
1
1
1
1
1
1
1
1
1
1
1
1
1
1
1
1
1
1
1
1
1
1
1
1
1
1
1
1
1
1
1
1
1
1
1
1
1.00001
1.00001
1.00002
1.00003
1.00005
1.00008
1.00012
1.00017
1.00023
1.0003
1.00038
1.00048
1.00063
1.0009
1.00137
1.00217
1.00345
1.00533
1.00784
1.01092
1.01441
1.01805
1.0216
1.02483
1.02759
1.02979
1.03137
1.03235
1.03271
1.03242
1.03142
1.02961
1.02698
1.02364
1.01986
1.01594
1.01222
1.00892
1.00618
1.00405
1.00247
1.00137
1.00065
1.00021
0.999968
0.999854
0.999818
0.999825
0.999852
0.999885
0.999917
0.999942
0.999962
0.999976
0.999985
0.999991
0.999995
0.999997
0.999999
0.999999
1
1
1
1
1
1
1
1
1
1
1
1
1
1
1
1
1
1
1
1
1
1
1
1
1
1
1
1
1
1
1
1
1
1
1
1
1
1
1
1
1.00001
1.00001
1.00002
1.00004
1.00006
1.0001
1.00015
1.00021
1.00029
1.00038
1.0005
1.00066
1.00091
1.00135
1.00211
1.00336
1.00529
1.00801
1.01152
1.01565
1.02011
1.02452
1.02857
1.03202
1.03477
1.03679
1.03815
1.03897
1.03932
1.0392
1.03846
1.03689
1.03429
1.03068
1.02626
1.02145
1.01668
1.01233
1.00865
1.00573
1.00355
1.00202
1.001
1.00037
1.00002
0.99985
0.999789
0.999789
0.999818
0.999858
0.999895
0.999927
0.999952
0.999969
0.999981
0.999989
0.999994
0.999996
0.999998
0.999999
1
1
1
1
1
1
1
1
1
1
1
1
1
1
1
1
1
1
1
1
1
1
1
1
1
1
1
1
1
1
1
1
1
1
1
1
1
1
1
1
1.00001
1.00002
1.00003
1.00005
1.00008
1.00012
1.00019
1.00026
1.00036
1.00049
1.00065
1.00089
1.00129
1.00197
1.00313
1.00499
1.00776
1.01153
1.01619
1.02141
1.02671
1.03158
1.03565
1.03872
1.04078
1.04201
1.04265
1.043
1.04328
1.04352
1.04351
1.04283
1.04099
1.03775
1.0332
1.02776
1.02202
1.01656
1.0118
1.00793
1.005
1.00291
1.0015
1.00063
1.00013
0.99987
0.999769
0.999755
0.999783
0.999827
0.999872
0.99991
0.99994
0.999962
0.999977
0.999986
0.999992
0.999995
0.999998
0.999999
0.999999
1
1
1
1
1
1
1
1
1
1
1
1
1
1
1
1
1
1
1
1
1
1
1
1
1
1
1
1
1
1
1
1
1
1
1
1
1
1
1.00001
1.00001
1.00002
1.00003
1.00006
1.0001
1.00015
1.00023
1.00032
1.00045
1.00061
1.00084
1.00119
1.00178
1.00279
1.00448
1.00712
1.01093
1.01591
1.02177
1.02793
1.03367
1.03836
1.04161
1.04333
1.04373
1.04325
1.04247
1.04192
1.04202
1.04289
1.04423
1.04534
1.04535
1.04355
1.03976
1.03433
1.02798
1.02153
1.01563
1.0107
1.00687
1.00409
1.0022
1.001
1.00029
0.999926
0.999767
0.999728
0.99975
0.999797
0.999847
0.999892
0.999928
0.999954
0.999971
0.999983
0.99999
0.999994
0.999997
0.999998
0.999999
1
1
1
1
1
1
1
1
1
1
1
1
1
1
1
1
1
1
1
1
1
1
1
1
1
1
1
1
1
1
1
1
1
1
1
1
1
1
1.00001
1.00001
1.00002
1.00004
1.00007
1.00011
1.00018
1.00027
1.00039
1.00054
1.00075
1.00106
1.00155
1.0024
1.00385
1.00621
1.00982
1.01484
1.0211
1.02803
1.03469
1.04013
1.0436
1.04481
1.04385
1.04127
1.03797
1.03491
1.03297
1.03279
1.0346
1.03802
1.04204
1.04526
1.04637
1.04468
1.04031
1.03404
1.02695
1.02005
1.01402
1.00919
1.0056
1.00311
1.00151
1.00055
1.00003
0.999789
0.999713
0.999722
0.999768
0.999823
0.999874
0.999915
0.999945
0.999966
0.99998
0.999988
0.999993
0.999996
0.999998
0.999999
1
1
1
1
1
1
1
1
1
1
1
1
1
1
1
1
1
1
1
1
1
1
1
1
1
1
1
1
1
1
1
1
1
1
1
1
1
1
1.00001
1.00001
1.00003
1.00005
1.00008
1.00013
1.00021
1.00031
1.00045
1.00064
1.00091
1.00132
1.00201
1.00318
1.00518
1.00837
1.0131
1.01942
1.02687
1.03446
1.04087
1.0449
1.04578
1.04337
1.03812
1.03109
1.02372
1.0175
1.0137
1.01317
1.01626
1.02254
1.03067
1.03862
1.04434
1.04643
1.04455
1.03943
1.03239
1.02481
1.01777
1.01192
1.00744
1.00427
1.00218
1.0009
1.00019
0.999844
0.999715
0.999702
0.999743
0.9998
0.999856
0.999902
0.999936
0.99996
0.999976
0.999986
0.999992
0.999996
0.999998
0.999999
0.999999
1
1
1
1
1
1
1
1
1
1
1
1
1
1
1
1
1
1
1
1
1
1
1
1
1
1
1
1
1
1
1
1
1
1
1
1
1
1.00001
1.00002
1.00003
1.00005
1.00009
1.00015
1.00024
1.00036
1.00052
1.00075
1.00109
1.00163
1.00255
1.00414
1.00679
1.01096
1.01692
1.0245
1.03284
1.04041
1.04548
1.04669
1.04335
1.03557
1.0243
1.01127
0.998652
0.988479
0.982381
0.981481
0.986242
0.996168
1.00957
1.0238
1.0359
1.04359
1.04591
1.0433
1.03725
1.02956
1.02179
1.01497
1.00958
1.00566
1.00302
1.00136
1.00042
0.99994
0.99974
0.999695
0.999724
0.999781
0.999839
0.99989
0.999928
0.999955
0.999973
0.999984
0.999991
0.999995
0.999997
0.999999
0.999999
1
1
1
1
1
1
1
1
1
1
1
1
1
1
1
1
1
1
1
1
1
1
1
1
1
1
1
1
1
1
1
1
1
1
1
1
1
1.00001
1.00002
1.00003
1.00006
1.0001
1.00017
1.00026
1.0004
1.00059
1.00086
1.00128
1.00198
1.00319
1.00526
1.00869
1.01393
1.02115
1.02981
1.03847
1.04506
1.0475
1.04435
1.03507
1.02013
1.00116
0.980766
0.961863
0.947066
0.938354
0.937081
0.943859
0.958157
0.977955
0.999887
1.02006
1.03516
1.0434
1.04483
1.04092
1.03389
1.02582
1.01823
1.01196
1.00726
1.00401
1.00194
1.00072
1.00008
0.999793
0.999704
0.999715
0.999767
0.999826
0.999879
0.99992
0.99995
0.99997
0.999982
0.99999
0.999995
0.999997
0.999999
0.999999
1
1
1
1
1
1
1
1
1
1
1
1
1
1
1
1
1
1
1
1
1
1
1
1
1
1
1
1
1
1
1
1
1
1
1
1
1
1.00001
1.00002
1.00004
1.00007
1.00011
1.00018
1.00029
1.00044
1.00065
1.00098
1.00149
1.00238
1.00392
1.00656
1.01084
1.01721
1.02561
1.03495
1.04318
1.04768
1.04615
1.03714
1.02027
0.99654
0.968438
0.939521
0.913536
0.893603
0.881999
0.880307
0.889344
0.908619
0.935786
0.966736
0.996512
1.02068
1.03649
1.04343
1.0429
1.0374
1.02958
1.02151
1.01448
1.00902
1.00515
1.00262
1.0011
1.00027
0.999877
0.999733
0.999718
0.99976
0.999817
0.999871
0.999914
0.999946
0.999967
0.999981
0.999989
0.999994
0.999997
0.999998
0.999999
1
1
1
1
1
1
1
1
1
1
1
1
1
1
1
1
1
1
1
1
1
1
1
1
1
1
1
1
1
1
1
1
1
1
1
1
1
1.00001
1.00002
1.00004
1.00007
1.00012
1.0002
1.00031
1.00047
1.00071
1.00109
1.00172
1.00282
1.00474
1.008
1.01318
1.02067
1.03002
1.03952
1.04643
1.04776
1.04106
1.02487
0.999033
0.965165
0.926787
0.88853
0.854919
0.829488
0.814719
0.812434
0.823774
0.848411
0.883717
0.924796
0.96553
1.00023
1.02507
1.03888
1.04288
1.0398
1.03283
1.02465
1.01704
1.01089
1.0064
1.0034
1.00155
1.00051
0.999994
0.999783
0.999735
0.999762
0.999814
0.999867
0.99991
0.999943
0.999965
0.99998
0.999988
0.999994
0.999997
0.999998
0.999999
1
1
1
1
1
1
1
1
1
1
1
1
1
1
1
1
1
1
1
1
1
1
1
1
1
1
1
1
1
1
1
1
1
1
1
1
1.00001
1.00001
1.00002
1.00004
1.00007
1.00012
1.0002
1.00032
1.00049
1.00076
1.0012
1.00195
1.00328
1.00562
1.00953
1.01563
1.02414
1.03413
1.04316
1.04791
1.04515
1.03237
1.00802
0.972157
0.927176
0.877785
0.829729
0.788241
0.757118
0.738921
0.735737
0.749206
0.779309
0.823189
0.875152
0.927878
0.974304
1.00942
1.03126
1.04078
1.04094
1.03541
1.02749
1.01952
1.01278
1.00771
1.00424
1.00205
1.00079
1.00014
0.999856
0.999768
0.999774
0.999817
0.999866
0.999909
0.999942
0.999964
0.999979
0.999988
0.999993
0.999996
0.999998
0.999999
1
1
1
1
1
1
1
1
1
1
1
1
1
1
1
1
1
1
1
1
1
1
1
1
1
1
1
1
1
1
1
1
1
1
1
1
1.00001
1.00001
1.00002
1.00004
1.00007
1.00012
1.0002
1.00033
1.00051
1.0008
1.0013
1.00217
1.00375
1.00654
1.01112
1.01807
1.02743
1.03769
1.04567
1.04757
1.0401
1.02066
0.987571
0.941064
0.884451
0.823761
0.765878
0.716619
0.679849
0.658081
0.653714
0.669033
0.704428
0.756829
0.819814
0.884961
0.943845
0.990121
1.02089
1.03675
1.04081
1.03723
1.02993
1.02182
1.01462
1.00903
1.00511
1.0026
1.00111
1.00032
0.999951
0.999815
0.999797
0.999827
0.999871
0.999911
0.999942
0.999964
0.999979
0.999988
0.999993
0.999996
0.999998
0.999999
1
1
1
1
1
1
1
1
1
1
1
1
1
1
1
1
1
1
1
1
1
1
1
1
1
1
1
1
1
1
1
1
1
1
1
1
1.00001
1.00001
1.00002
1.00004
1.00007
1.00012
1.0002
1.00032
1.00051
1.00082
1.00139
1.00239
1.00422
1.00745
1.01269
1.0204
1.03039
1.04057
1.04701
1.04562
1.03314
1.00689
0.964916
0.907643
0.839405
0.767658
0.700399
0.643889
0.601883
0.576734
0.571177
0.588156
0.628408
0.68867
0.76197
0.839066
0.910348
0.968108
1.00833
1.03108
1.03954
1.03832
1.03194
1.0239
1.01636
1.01032
1.006
1.00316
1.00146
1.00052
1.00006
0.999878
0.999831
0.999846
0.99988
0.999916
0.999945
0.999966
0.99998
0.999988
0.999994
0.999997
0.999998
0.999999
1
1
1
1
1
1
1
1
1
1
1
1
1
1
1
1
1
1
1
1
1
1
1
1
1
1
1
1
1
1
1
1
1
1
1
1
1
1.00001
1.00002
1.00004
1.00007
1.00011
1.00019
1.00031
1.0005
1.00083
1.00145
1.00259
1.00465
1.00831
1.01416
1.02252
1.0329
1.04271
1.04737
1.04249
1.025
0.992159
0.941662
0.874075
0.794819
0.712807
0.637108
0.574305
0.527914
0.500077
0.493755
0.51231
0.556692
0.623548
0.70564
0.793259
0.87594
0.944728
0.994379
1.02423
1.03736
1.03875
1.03351
1.0257
1.01795
1.01154
1.00685
1.00373
1.00181
1.00074
1.00019
0.999954
0.999876
0.999872
0.999896
0.999925
0.99995
0.999968
0.999981
0.999989
0.999994
0.999997
0.999998
0.999999
1
1
1
1
1
1
1
1
1
1
1
1
1
1
1
1
1
1
1
1
1
1
1
1
1
1
1
1
1
1
1
0.999999
1
1
1
1
1
1.00001
1.00002
1.00003
1.00006
1.0001
1.00017
1.00028
1.00047
1.00081
1.00149
1.00276
1.00503
1.00907
1.01548
1.02434
1.03489
1.04417
1.047
1.03872
1.01648
0.977612
0.919455
0.842639
0.753586
0.662626
0.579826
0.512013
0.462449
0.433015
0.426564
0.446489
0.493942
0.565755
0.654666
0.750771
0.843084
0.921666
0.980083
1.01679
1.03457
1.03866
1.03467
1.02721
1.01935
1.01265
1.00765
1.00427
1.00217
1.00096
1.00033
1.00004
0.999929
0.999904
0.999915
0.999936
0.999957
0.999972
0.999983
0.99999
0.999995
0.999997
0.999999
0.999999
1
1
1
1
1
1
1
1
1
1
1
1
1
1
1
1
1
1
1
1
1
1
1
1
1
1
1
1
1
0.999999
1
1
1
1
1
1
1
1.00001
1.00001
1.00003
1.00005
1.00009
1.00014
1.00025
1.00043
1.00078
1.00149
1.00287
1.00534
1.00969
1.01659
1.02583
1.03637
1.04507
1.04624
1.03486
1.00834
0.964275
0.899802
0.815457
0.718412
0.620242
0.531914
0.460476
0.409024
0.379068
0.372885
0.393598
0.442822
0.517938
0.611767
0.714241
0.814078
0.900676
0.966615
1.00945
1.03154
1.03821
1.03548
1.02843
1.02053
1.01362
1.00837
1.00477
1.0025
1.00119
1.00048
1.00013
0.999989
0.999942
0.999939
0.999951
0.999966
0.999978
0.999986
0.999992
0.999996
0.999998
0.999999
0.999999
1
1
1
1
1
1
1
1
1
1
1
1
1
1
1
1
1
1
1
1
1
1
1
1
1
1
1
1
1
1
1
1
1
1
1
1
1
1.00001
1.00001
1.00002
1.00004
1.00007
1.00011
1.0002
1.00038
1.00073
1.00145
1.00293
1.00556
1.01014
1.01742
1.02696
1.03737
1.0455
1.04539
1.03145
1.00126
0.953009
0.883892
0.794223
0.691481
0.588145
0.495916
0.422106
0.369792
0.339985
0.333992
0.354581
0.404205
0.481181
0.578385
0.68539
0.790671
0.883274
0.955104
1.00295
1.02869
1.03761
1.03602
1.02938
1.02148
1.01442
1.00898
1.00521
1.00281
1.0014
1.00062
1.00023
1.00005
0.999985
0.999967
0.999969
0.999976
0.999984
0.99999
0.999994
0.999997
0.999998
0.999999
0.999999
1
1
1
1
1
1
1
1
1
1
1
1
1
1
1
1
1
1
1
1
1
1
1
1
1
1
1
1
1
1
1
1
1
1
1
1
1
1
1.00001
1.00001
1.00002
1.00004
1.00008
1.00015
1.00031
1.00065
1.00138
1.00292
1.00569
1.01041
1.01794
1.02773
1.03798
1.0456
1.04466
1.02895
0.995885
0.944476
0.872484
0.779969
0.674169
0.567917
0.473395
0.398242
0.34569
0.316244
0.310102
0.329635
0.378365
0.455904
0.555217
0.665223
0.774039
0.870597
0.946472
0.997918
1.02639
1.03705
1.03636
1.03006
1.0222
1.01503
1.00946
1.00557
1.00308
1.00159
1.00076
1.00033
1.00012
1.00003
0.999997
0.999988
0.999988
0.999991
0.999994
0.999997
0.999998
0.999999
0.999999
1
1
1
1
1
1
1
1
1
1
1
1
1
1
1
1
1
1
1
1
1
1
1
1
1
1
1
1
1
1
1
1
1
1
1
1
1
1
1
1
1
1.00001
1.00002
1.00004
1.00009
1.00024
1.00056
1.00128
1.00283
1.00569
1.01048
1.01812
1.02812
1.03827
1.04547
1.04418
1.02766
0.99276
0.939224
0.865933
0.772963
0.666857
0.560073
0.464868
0.389223
0.33674
0.307636
0.301118
0.31905
0.365866
0.442685
0.54281
0.654366
0.764915
0.863395
0.941376
0.994851
1.02495
1.03669
1.03657
1.03049
1.02265
1.01544
1.00979
1.00584
1.00329
1.00175
1.00088
1.00042
1.00019
1.00008
1.00003
1.00001
1
0.999999
0.999999
0.999999
0.999999
1
1
1
1
1
1
1
1
1
1
1
1
1
1
1
1
1
1
1
1
1
1
1
1
1
1
1
1
1
1
1
1
1
1
1
1
1
1
1
0.999999
0.999999
0.999997
0.999996
0.999992
0.999992
1
1.00003
1.00015
1.00046
1.00115
1.00266
1.00556
1.01037
1.01797
1.0281
1.03829
1.04522
1.04396
1.02768
0.992279
0.937752
0.864414
0.772902
0.668956
0.563981
0.469734
0.394415
0.342226
0.313478
0.30669
0.323105
0.367558
0.442463
0.541841
0.653271
0.763694
0.862065
0.940182
0.994031
1.02456
1.03663
1.03668
1.03067
1.02285
1.01563
1.00997
1.00601
1.00344
1.00188
1.00099
1.0005
1.00025
1.00012
1.00006
1.00003
1.00001
1.00001
1
1
1
1
1
1
1
1
1
1
1
1
1
1
1
1
1
1
1
1
1
1
1
1
1
1
1
1
1
1
1
1
1
1
1
1
1
1
1
1
1
0.999999
0.999999
0.999996
0.999992
0.999988
0.999978
0.999967
0.99996
0.999973
1.00006
1.00033
1.00099
1.00244
1.00528
1.01007
1.01752
1.02764
1.03802
1.04496
1.04401
1.02886
0.994514
0.94046
0.868166
0.779364
0.679343
0.578126
0.486414
0.412368
0.360938
0.332841
0.326224
0.341743
0.38406
0.456205
0.553052
0.662272
0.77047
0.866656
0.942954
0.995531
1.02527
1.03689
1.03671
1.03061
1.02278
1.0156
1.00999
1.00607
1.00352
1.00197
1.00108
1.00058
1.00031
1.00016
1.00009
1.00005
1.00003
1.00001
1.00001
1
1
1
1
1
1
1
1
1
1
1
1
1
1
1
1
1
1
1
1
1
1
1
1
1
1
1
1
1
1
1
1
1
1
1
1
1
1
1
1
0.999998
0.999997
0.999994
0.999988
0.999979
0.999965
0.999944
0.999923
0.999915
0.999973
1.0002
1.00081
1.00216
1.00488
1.00957
1.01681
1.02675
1.03737
1.04471
1.04438
1.03094
0.999114
0.94738
0.877478
0.792273
0.697138
0.600928
0.513033
0.441381
0.391633
0.364906
0.359111
0.374498
0.415249
0.484198
0.576789
0.681427
0.785036
0.876886
0.949468
0.999202
1.027
1.03743
1.03663
1.03028
1.02244
1.01534
1.00985
1.00601
1.00354
1.00202
1.00114
1.00063
1.00035
1.0002
1.00011
1.00007
1.00004
1.00002
1.00001
1.00001
1
1
1
1
1
1
1
1
1
1
1
1
1
1
1
1
1
1
1
1
1
1
1
1
1
1
1
1
1
1
1
1
1
1
1
1
1
1
0.999999
0.999998
0.999996
0.999992
0.999985
0.999972
0.999952
0.999922
0.999889
0.999863
0.999891
1.00008
1.00061
1.00185
1.00438
1.00886
1.01586
1.02551
1.03627
1.04432
1.04506
1.03369
1.00544
0.957909
0.892253
0.811795
0.722215
0.631659
0.548457
0.480397
0.433578
0.409127
0.404732
0.42048
0.46003
0.525465
0.612327
0.710092
0.806727
0.892132
0.959225
1.0047
1.02952
1.03811
1.03636
1.02966
1.02181
1.01485
1.00954
1.00586
1.00348
1.00203
1.00117
1.00068
1.00039
1.00023
1.00014
1.00008
1.00005
1.00003
1.00002
1.00001
1
1
1
1
1
1
1
1
1
1
1
1
1
1
1
1
1
1
1
1
1
1
1
1
1
1
1
1
1
1
1
1
1
1
1
1
0.999999
0.999999
0.999999
0.999998
0.999995
0.999991
0.999982
0.999966
0.999942
0.999906
0.999861
0.999816
0.999816
0.999953
1.0004
1.00152
1.00382
1.00799
1.01465
1.02396
1.03471
1.04357
1.04587
1.03698
1.01284
0.970945
0.911563
0.837591
0.754651
0.670411
0.592699
0.529446
0.486684
0.465039
0.462144
0.47824
0.516448
0.577812
0.657665
0.746655
0.834265
0.911389
0.971478
1.01151
1.03252
1.03876
1.03582
1.02872
1.02089
1.01415
1.00908
1.0056
1.00336
1.00199
1.00118
1.0007
1.00042
1.00025
1.00015
1.00009
1.00005
1.00003
1.00002
1.00001
1.00001
1
1
1
1
1
1
1
1
1
1
1
1
1
1
1
1
1
1
1
1
1
1
1
1
1
1
1
1
1
1
1
1
1
0.999999
1
0.999999
1
1
0.999997
0.999996
0.999988
0.99998
0.999963
0.999935
0.999893
0.999838
0.999779
0.999751
0.999843
1.00021
1.00116
1.00321
1.007
1.01321
1.02211
1.03274
1.04231
1.04645
1.04051
1.02084
0.985323
0.933782
0.868241
0.793595
0.716895
0.645909
0.588717
0.550604
0.531555
0.529655
0.545602
0.581865
0.638281
0.709937
0.78872
0.865822
0.933317
0.985272
1.01899
1.03558
1.03916
1.03492
1.02742
1.0197
1.01325
1.00849
1.00525
1.00319
1.00192
1.00116
1.00071
1.00043
1.00027
1.00017
1.0001
1.00006
1.00004
1.00002
1.00001
1.00001
1
1
1
1
1
1
1
1
1
1
1
1
1
1
1
1
1
1
1
1
1
1
1
1
1
1
1
1
1
1
1
1
1
0.999999
1
1
0.999999
0.999999
0.999998
0.999995
0.999988
0.999979
0.99996
0.99993
0.999884
0.999823
0.999752
0.9997
0.999747
1.00003
1.00082
1.00259
1.00594
1.0116
1.01996
1.03035
1.04047
1.04643
1.04377
1.0289
1.00008
0.957175
0.901487
0.836804
0.769336
0.706784
0.65671
0.623163
0.606009
0.604407
0.619547
0.653
0.703415
0.765848
0.833516
0.89928
0.956379
0.99953
1.02641
1.03828
1.03907
1.03356
1.02576
1.01825
1.01217
1.00778
1.00484
1.00297
1.00181
1.00112
1.0007
1.00044
1.00028
1.00017
1.00011
1.00006
1.00004
1.00002
1.00001
1.00001
1
1
1
1
1
1
1
1
1
1
1
1
1
1
1
1
1
1
1
1
1
1
1
1
1
1
1
1
1
1
1
1
1
1
1
1
0.999999
0.999999
0.999997
0.999995
0.999989
0.999977
0.99996
0.999927
0.99988
0.999815
0.999736
0.999662
0.99967
0.999872
1.00051
1.00199
1.00488
1.00988
1.01756
1.02755
1.03801
1.04561
1.04621
1.03627
1.01425
0.980181
0.934886
0.881198
0.824519
0.771856
0.729292
0.699834
0.684067
0.682424
0.696226
0.72598
0.769422
0.82197
0.878226
0.932496
0.979014
1.01316
1.03307
1.0402
1.03831
1.03168
1.02375
1.01657
1.01097
1.007
1.00437
1.00271
1.00168
1.00106
1.00067
1.00043
1.00027
1.00017
1.00011
1.00007
1.00004
1.00002
1.00001
1.00001
1
1
1
1
1
1
1
1
1
1
1
1
1
1
1
1
1
1
1
1
1
1
1
1
1
1
1
1
1
1
1
1
1
1
1
0.999999
1
0.999999
0.999998
0.999995
0.999988
0.999978
0.999959
0.999928
0.99988
0.999812
0.999727
0.999643
0.999616
0.999746
1.00023
1.00144
1.00385
1.00814
1.01499
1.02437
1.0349
1.04384
1.04742
1.04222
1.02683
1.00128
0.966151
0.923707
0.878517
0.836046
0.800634
0.775031
0.760842
0.759291
0.771392
0.796695
0.832548
0.875121
0.920313
0.963524
0.999773
1.02512
1.03828
1.04096
1.03671
1.02927
1.02143
1.01473
1.00967
1.00616
1.00387
1.00243
1.00153
1.00098
1.00064
1.00041
1.00027
1.00017
1.00011
1.00006
1.00004
1.00002
1.00001
1.00001
1
1
1
1
1
1
1
1
1
1
1
1
1
1
1
1
1
1
1
1
1
1
1
1
1
1
1
1
1
1
1
1
1
1
1
1
1
0.999999
0.999998
0.999995
0.99999
0.999979
0.999961
0.999931
0.999883
0.999816
0.99973
0.999638
0.999582
0.99965
1.00001
1.00095
1.0029
1.00647
1.01238
1.02088
1.03115
1.04103
1.04715
1.04625
1.03695
1.01915
0.9934
0.961636
0.927337
0.894183
0.865456
0.844061
0.832082
0.830868
0.840976
0.861387
0.889612
0.922772
0.95779
0.990788
1.01743
1.03454
1.04152
1.04033
1.03423
1.02636
1.01887
1.01278
1.00833
1.00531
1.00336
1.00213
1.00137
1.0009
1.00059
1.00039
1.00025
1.00016
1.0001
1.00006
1.00004
1.00002
1.00001
1.00001
1
1
1
1
1
1
1
1
1
1
1
1
1
1
1
1
1
1
1
1
1
1
1
1
1
1
1
1
1
1
1
1
1
1
1
0.999999
1
1
0.999997
0.999995
0.99999
0.999981
0.999964
0.999935
0.999889
0.999826
0.999741
0.999644
0.999572
0.999589
0.999829
1.00054
1.00208
1.00496
1.00987
1.01726
1.02686
1.03716
1.04523
1.04805
1.04407
1.03304
1.01548
0.993006
0.967995
0.942979
0.920758
0.903997
0.894595
0.893747
0.901684
0.917229
0.938416
0.963249
0.989291
1.01311
1.03103
1.04077
1.04246
1.03821
1.03093
1.02307
1.01616
1.01081
1.00701
1.00448
1.00286
1.00184
1.00121
1.0008
1.00054
1.00036
1.00023
1.00015
1.0001
1.00006
1.00003
1.00002
1.00001
1.00001
1
1
1
1
1
1
1
1
1
1
1
1
1
1
1
1
1
1
1
1
1
1
1
1
1
1
1
1
1
1
1
1
1
1
1
1
1
0.999999
0.999998
0.999996
0.999991
0.999982
0.999967
0.999941
0.999898
0.999839
0.999758
0.999662
0.999579
0.999558
0.999706
1.00022
1.00139
1.00366
1.00759
1.01374
1.02227
1.03232
1.04162
1.04741
1.04795
1.04267
1.03193
1.01701
0.999624
0.981766
0.965659
0.95332
0.946331
0.945754
0.951579
0.962737
0.977901
0.995692
1.01397
1.02968
1.03996
1.04349
1.04104
1.03474
1.02698
1.01957
1.01345
1.0089
1.00576
1.0037
1.00239
1.00157
1.00104
1.0007
1.00048
1.00032
1.00021
1.00014
1.00009
1.00005
1.00003
1.00002
1.00001
1.00001
1
1
1
1
1
1
1
1
1
1
1
1
1
1
1
1
1
1
1
1
1
1
1
1
1
1
1
1
1
1
1
1
1
1
1
1
1
1
0.999998
0.999996
0.999992
0.999984
0.999972
0.999947