/*--------------------------------*- C++ -*----------------------------------*\
  =========                 |
  \\      /  F ield         | OpenFOAM: The Open Source CFD Toolbox
   \\    /   O peration     | Website:  https://openfoam.org
    \\  /    A nd           | Version:  6
     \\/     M anipulation  |
\*---------------------------------------------------------------------------*/
FoamFile
{
    version     2.0;
    format      ascii;
    class       volScalarField;
    location    "2.34";
    object      p;
}
// * * * * * * * * * * * * * * * * * * * * * * * * * * * * * * * * * * * * * //

dimensions      [1 -1 -2 0 0 0 0];

internalField   nonuniform List<scalar> 
5625
(
0.999999
0.999999
0.999999
0.999999
0.999999
0.999999
0.999999
0.999999
0.999999
0.999999
0.999999
0.999999
0.999999
1
1
1
1
1
1
1
1
1
1
1
1
1
1
1
1
1
1
1
1
1
1
1
1
1
1
1
1
1
1
1
1
1
1
1
1
1
1
1
1
1
1
1
1
1
1
1
1
1
1
1
1
1
1
1
1
1
1
1
1
1
1
0.999999
0.999999
0.999999
0.999999
0.999999
0.999999
0.999999
0.999999
0.999999
0.999999
0.999999
0.999999
0.999999
1
1
1
1
1
1
1
1
1
1
1
1
1
1
1
1
1
1
1
1
1
1
1
1
1
1
1
1
1
1
1
1
1
1
1
1
1
1
1
1
1
1
1
1
1
1
1
1
1
1
1
1
1
1
1
1
1
1
1
1
1
1
0.999999
0.999999
0.999999
0.999999
0.999999
0.999998
0.999998
0.999999
0.999999
0.999998
0.999999
0.999999
0.999999
0.999999
1
1
1
1
1
1
1
1
1
1
1
1
1
1
1
1
1
1
1
1
1
1
1
1
1
1
1
1
1
1
1
1
1
1
1
1
1
1
1
1
1
1
1
1
1
1
1
1
1
1
1
1
1
1
1
1
1
1
1
1
1
0.999999
0.999998
0.999998
0.999998
0.999998
0.999998
0.999998
0.999998
0.999998
0.999998
0.999998
0.999998
0.999999
0.999999
1
1
1
1
1
1
1
1
1
1
1
1
1
1
1
1
1
1
1
1
1
1
1
1
1
1
1
1
1
1
1
1
1
1
1
1
1
1
1
1
1
1
1
1
1
1
1
1
1
1
1
1
1
1
1
1
1
1
1
1
1
0.999998
0.999998
0.999997
0.999997
0.999997
0.999997
0.999997
0.999997
0.999997
0.999997
0.999998
0.999998
0.999998
0.999999
0.999999
1
1
1
1
1
1
1
1
1
1
1
1
1
1
1
1
1
1
1
1
1
1
1
1
1
1
1
1
1
1
1
1
1
1
1
1
1
1
1
1
1
1
1
1
1
1
1
1
1
1
1
1
1
1
1
1
1
1
1
1
0.999997
0.999997
0.999996
0.999996
0.999996
0.999996
0.999996
0.999996
0.999996
0.999996
0.999997
0.999997
0.999998
0.999998
0.999999
1
1
1
1
1
1
1
1
1
1
1
1
1
1
1
1
1
1
1
1
1
1
1
1
1
1
1
1
1
1
1
1
1
1
1
1
1
1
1
1
1
1
1
1
1
1
1
1
1
1
1
1
1
1
1
1
1
1
1
1
0.999996
0.999996
0.999995
0.999995
0.999994
0.999994
0.999994
0.999994
0.999994
0.999995
0.999995
0.999996
0.999997
0.999998
0.999999
1
1
1
1
1
1
1.00001
1.00001
1.00001
1.00001
1.00001
1.00001
1.00001
1
1
1
1
1
1
1
1
1
1
1
1
1
1
1
1
1
1
1
1
1
1
1
1
1
1
1
1
1
1
1
1
1
1
1
1
1
1
1
1
1
1
1
1
1
1
1
0.999995
0.999994
0.999993
0.999993
0.999992
0.999992
0.999992
0.999992
0.999992
0.999993
0.999994
0.999995
0.999996
0.999997
0.999999
1
1
1
1
1.00001
1.00001
1.00001
1.00001
1.00001
1.00001
1.00001
1.00001
1.00001
1.00001
1.00001
1.00001
1
1
1
1
1
1
1
1
1
1
1
1
1
1
1
1
1
1
1
1
1
1
1
1
1
1
1
1
1
1
1
1
1
1
1
1
1
1
1
1
1
1
1
1
0.999993
0.999992
0.999991
0.99999
0.99999
0.999989
0.999989
0.999989
0.99999
0.999991
0.999992
0.999993
0.999995
0.999997
0.999999
1
1
1
1.00001
1.00001
1.00001
1.00001
1.00001
1.00001
1.00001
1.00001
1.00001
1.00001
1.00001
1.00001
1.00001
1.00001
1
1
1
1
1
1
1
1
1
1
1
1
1
1
1
1
1
1
1
1
1
1
1
1
1
1
1
1
1
1
1
1
1
1
1
1
1
1
1
1
1
1
1
0.999991
0.99999
0.999988
0.999987
0.999986
0.999986
0.999986
0.999986
0.999987
0.999988
0.999989
0.999991
0.999993
0.999996
0.999999
1
1
1.00001
1.00001
1.00001
1.00001
1.00001
1.00002
1.00002
1.00002
1.00001
1.00001
1.00001
1.00001
1.00001
1.00001
1.00001
1.00001
1.00001
1
1
1
1
1
1
1
1
1
1
1
1
1
1
1
1
1
1
1
1
1
1
1
1
1
1
1
1
1
1
1
1
1
1
1
1
1
1
1
1
1
0.999988
0.999986
0.999985
0.999983
0.999982
0.999982
0.999981
0.999982
0.999983
0.999984
0.999986
0.999989
0.999992
0.999995
0.999999
1
1.00001
1.00001
1.00001
1.00002
1.00002
1.00002
1.00002
1.00002
1.00002
1.00002
1.00002
1.00002
1.00002
1.00001
1.00001
1.00001
1.00001
1.00001
1.00001
1
1
1
1
1
1
1
1
1
1
1
1
1
1
1
1
1
1
1
1
1
1
1
1
1
1
1
1
1
1
1
1
1
1
1
1
1
1
1
1
0.999984
0.999982
0.99998
0.999979
0.999977
0.999977
0.999976
0.999977
0.999978
0.99998
0.999983
0.999986
0.999991
0.999995
1
1
1.00001
1.00001
1.00002
1.00002
1.00002
1.00003
1.00003
1.00003
1.00003
1.00003
1.00002
1.00002
1.00002
1.00002
1.00002
1.00001
1.00001
1.00001
1.00001
1.00001
1
1
1
1
1
1
1
1
1
1
1
1
1
1
1
1
1
1
1
1
1
1
1
1
1
1
1
1
1
1
1
1
1
1
1
1
1
1
1
0.99998
0.999978
0.999975
0.999973
0.999971
0.999971
0.999971
0.999971
0.999973
0.999976
0.99998
0.999985
0.99999
0.999996
1
1.00001
1.00001
1.00002
1.00002
1.00003
1.00003
1.00003
1.00004
1.00004
1.00004
1.00003
1.00003
1.00003
1.00003
1.00002
1.00002
1.00002
1.00002
1.00001
1.00001
1.00001
1.00001
1
1
1
1
1
1
1
1
1
1
1
1
1
1
1
1
1
1
1
1
1
1
1
1
1
1
1
1
1
1
1
1
1
1
1
1
1
1
0.999975
0.999972
0.999969
0.999966
0.999964
0.999964
0.999964
0.999965
0.999968
0.999972
0.999978
0.999984
0.999991
0.999998
1.00001
1.00001
1.00002
1.00003
1.00003
1.00004
1.00004
1.00005
1.00005
1.00005
1.00005
1.00005
1.00004
1.00004
1.00004
1.00003
1.00003
1.00002
1.00002
1.00002
1.00001
1.00001
1.00001
1.00001
1
1
1
1
1
1
1
1
1
1
1
1
1
1
1
1
1
1
1
1
1
1
1
1
1
1
1
1
1
1
1
1
1
1
1
1
1
0.999969
0.999965
0.999961
0.999959
0.999957
0.999957
0.999958
0.99996
0.999964
0.99997
0.999977
0.999985
0.999994
1
1.00001
1.00002
1.00003
1.00004
1.00005
1.00005
1.00006
1.00006
1.00006
1.00006
1.00006
1.00006
1.00006
1.00005
1.00005
1.00004
1.00004
1.00003
1.00002
1.00002
1.00002
1.00001
1.00001
1.00001
1.00001
1
1
1
1
1
1
1
1
1
1
1
1
1
1
1
1
1
1
1
1
1
1
1
1
1
1
1
1
1
1
1
1
1
1
1
1
0.999962
0.999958
0.999954
0.999951
0.99995
0.99995
0.999952
0.999957
0.999962
0.99997
0.99998
0.999991
1
1.00002
1.00003
1.00004
1.00005
1.00006
1.00007
1.00008
1.00008
1.00008
1.00009
1.00008
1.00008
1.00008
1.00007
1.00007
1.00006
1.00005
1.00005
1.00004
1.00003
1.00003
1.00002
1.00002
1.00001
1.00001
1.00001
1
1
1
1
1
1
1
1
1
1
1
1
1
1
1
1
1
1
1
1
1
1
1
1
1
1
1
1
1
1
1
1
1
1
1
1
0.999955
0.99995
0.999946
0.999944
0.999944
0.999945
0.999949
0.999956
0.999965
0.999976
0.99999
1
1.00002
1.00004
1.00005
1.00007
1.00008
1.00009
1.0001
1.00011
1.00011
1.00012
1.00012
1.00011
1.00011
1.0001
1.00009
1.00009
1.00008
1.00007
1.00006
1.00005
1.00004
1.00003
1.00003
1.00002
1.00002
1.00001
1.00001
1.00001
1
1
1
1
1
1
1
1
1
1
1
1
1
1
1
1
1
1
1
1
1
1
1
1
1
1
1
1
1
1
1
1
1
1
1
0.999948
0.999943
0.99994
0.999939
0.999941
0.999945
0.999952
0.999963
0.999976
0.999993
1.00001
1.00003
1.00005
1.00007
1.00009
1.00011
1.00013
1.00014
1.00015
1.00016
1.00016
1.00016
1.00016
1.00015
1.00014
1.00013
1.00012
1.00011
1.0001
1.00009
1.00007
1.00006
1.00005
1.00004
1.00003
1.00003
1.00002
1.00001
1.00001
1.00001
1
1
1
1
1
1
0.999999
0.999999
1
1
1
1
1
1
1
1
1
1
1
1
1
1
1
1
1
1
1
1
1
1
1
1
1
1
1
0.999942
0.999938
0.999936
0.999938
0.999942
0.999951
0.999964
0.999981
1
1.00002
1.00005
1.00008
1.0001
1.00013
1.00016
1.00018
1.0002
1.00021
1.00022
1.00023
1.00023
1.00023
1.00022
1.00021
1.00019
1.00018
1.00016
1.00015
1.00013
1.00011
1.00009
1.00008
1.00006
1.00005
1.00004
1.00003
1.00002
1.00002
1.00001
1.00001
1
1
1
1
1
0.999999
0.999999
0.999999
0.999999
0.999999
1
1
1
1
1
1
1
1
1
1
1
1
1
1
1
1
1
1
1
1
1
1
1
1
1
0.999939
0.999937
0.999938
0.999944
0.999955
0.999971
0.999992
1.00002
1.00005
1.00008
1.00012
1.00015
1.00019
1.00022
1.00026
1.00028
1.0003
1.00032
1.00033
1.00033
1.00033
1.00032
1.0003
1.00028
1.00026
1.00024
1.00022
1.00019
1.00017
1.00014
1.00012
1.0001
1.00008
1.00006
1.00005
1.00004
1.00003
1.00002
1.00001
1.00001
1.00001
1
1
1
0.999999
0.999999
0.999999
0.999999
0.999999
0.999999
0.999999
0.999999
1
1
1
1
1
1
1
1
1
1
1
1
1
1
1
1
1
1
1
1
1
1
1
0.999941
0.999943
0.99995
0.999963
0.999984
1.00001
1.00004
1.00008
1.00013
1.00018
1.00023
1.00028
1.00033
1.00037
1.00041
1.00044
1.00046
1.00048
1.00048
1.00048
1.00047
1.00045
1.00042
1.00039
1.00036
1.00032
1.00029
1.00025
1.00022
1.00019
1.00016
1.00013
1.0001
1.00008
1.00006
1.00005
1.00003
1.00002
1.00002
1.00001
1.00001
1
1
0.999999
0.999999
0.999998
0.999998
0.999998
0.999998
0.999999
0.999999
0.999999
0.999999
1
1
1
1
1
1
1
1
1
1
1
1
1
1
1
1
1
1
1
1
1
1
0.999952
0.999961
0.999978
1
1.00004
1.00008
1.00013
1.00019
1.00026
1.00033
1.0004
1.00047
1.00053
1.00059
1.00064
1.00068
1.0007
1.00071
1.00071
1.0007
1.00067
1.00064
1.0006
1.00055
1.0005
1.00044
1.00039
1.00034
1.00029
1.00024
1.0002
1.00016
1.00013
1.0001
1.00008
1.00006
1.00004
1.00003
1.00002
1.00001
1.00001
1
1
0.999998
0.999998
0.999997
0.999997
0.999998
0.999998
0.999998
0.999999
0.999999
0.999999
0.999999
1
1
1
1
1
1
1
1
1
1
1
1
1
1
1
1
1
1
1
1
1
0.999976
0.999997
1.00003
1.00007
1.00013
1.0002
1.00028
1.00037
1.00046
1.00056
1.00066
1.00076
1.00084
1.00092
1.00098
1.00102
1.00105
1.00106
1.00104
1.00101
1.00097
1.00091
1.00084
1.00077
1.00069
1.00061
1.00053
1.00046
1.00038
1.00032
1.00026
1.00021
1.00017
1.00013
1.0001
1.00007
1.00005
1.00004
1.00002
1.00001
1.00001
1
0.999999
0.999997
0.999996
0.999996
0.999996
0.999997
0.999997
0.999998
0.999998
0.999999
0.999999
0.999999
0.999999
1
1
1
1
1
1
1
1
1
1
1
1
1
1
1
1
1
1
1
1
1.00002
1.00006
1.00012
1.00019
1.00028
1.00038
1.0005
1.00063
1.00077
1.00091
1.00105
1.00118
1.00129
1.00139
1.00147
1.00152
1.00155
1.00154
1.00152
1.00146
1.00139
1.00129
1.00119
1.00108
1.00096
1.00084
1.00073
1.00062
1.00052
1.00043
1.00035
1.00028
1.00022
1.00017
1.00013
1.00009
1.00006
1.00004
1.00003
1.00001
1.00001
1
0.999998
0.999995
0.999995
0.999994
0.999995
0.999995
0.999996
0.999997
0.999997
0.999998
0.999998
0.999999
0.999999
0.999999
1
1
1
1
1
1
1
1
1
1
1
1
1
1
1
1
1
1
1
1.0001
1.00016
1.00025
1.00037
1.0005
1.00065
1.00083
1.00102
1.00121
1.00141
1.0016
1.00178
1.00194
1.00207
1.00216
1.00222
1.00225
1.00223
1.00218
1.00209
1.00197
1.00183
1.00168
1.00151
1.00134
1.00116
1.001
1.00085
1.0007
1.00058
1.00046
1.00037
1.00028
1.00022
1.00016
1.00012
1.00008
1.00005
1.00003
1.00002
1.00001
1
0.999996
0.999994
0.999992
0.999992
0.999993
0.999994
0.999995
0.999996
0.999997
0.999997
0.999998
0.999999
0.999999
0.999999
0.999999
1
1
1
1
1
1
1
1
1
1
1
1
1
1
1
1
1
1
1.00022
1.00033
1.00046
1.00063
1.00083
1.00106
1.00131
1.00157
1.00185
1.00212
1.00238
1.00262
1.00283
1.003
1.00312
1.0032
1.00321
1.00318
1.00309
1.00296
1.00278
1.00258
1.00235
1.00211
1.00186
1.00161
1.00138
1.00116
1.00096
1.00078
1.00062
1.00049
1.00038
1.00028
1.00021
1.00015
1.0001
1.00007
1.00004
1.00002
1.00001
0.999999
0.999994
0.999991
0.99999
0.99999
0.999991
0.999992
0.999993
0.999994
0.999995
0.999997
0.999997
0.999998
0.999999
0.999999
0.999999
1
1
1
1
1
1
1
1
1
1
1
1
1
1
1
1
1
1
1.0004
1.00057
1.00077
1.00102
1.00131
1.00163
1.00198
1.00235
1.00273
1.0031
1.00346
1.00378
1.00405
1.00427
1.00443
1.00451
1.00453
1.00446
1.00433
1.00414
1.00389
1.00359
1.00327
1.00292
1.00257
1.00223
1.0019
1.00159
1.00131
1.00106
1.00084
1.00066
1.0005
1.00038
1.00027
1.00019
1.00013
1.00008
1.00005
1.00003
1.00001
0.999997
0.999991
0.999988
0.999986
0.999987
0.999988
0.999989
0.999991
0.999993
0.999994
0.999996
0.999997
0.999998
0.999998
0.999999
0.999999
0.999999
1
1
1
1
1
1
1
1
1
1
1
1
1
1
1
1
1
1.00066
1.00091
1.00121
1.00156
1.00197
1.00242
1.00291
1.00342
1.00393
1.00443
1.0049
1.00532
1.00568
1.00597
1.00616
1.00626
1.00626
1.00617
1.00598
1.0057
1.00536
1.00495
1.0045
1.00402
1.00354
1.00306
1.0026
1.00217
1.00178
1.00144
1.00114
1.00089
1.00067
1.0005
1.00036
1.00026
1.00017
1.00011
1.00006
1.00003
1.00001
0.999996
0.999987
0.999983
0.999982
0.999982
0.999984
0.999986
0.999988
0.999991
0.999993
0.999994
0.999996
0.999997
0.999998
0.999998
0.999999
0.999999
0.999999
1
1
1
1
1
1
1
1
1
1
1
1
1
1
1
1
1.00104
1.00139
1.00182
1.00232
1.00288
1.0035
1.00416
1.00484
1.00552
1.00618
1.0068
1.00735
1.00781
1.00817
1.00841
1.00853
1.00852
1.00839
1.00813
1.00775
1.00728
1.00673
1.00612
1.00548
1.00482
1.00417
1.00354
1.00296
1.00243
1.00195
1.00155
1.0012
1.00091
1.00067
1.00049
1.00034
1.00023
1.00015
1.00008
1.00004
1.00001
0.999995
0.999984
0.999979
0.999977
0.999977
0.999979
0.999982
0.999985
0.999988
0.999991
0.999993
0.999994
0.999996
0.999997
0.999998
0.999999
0.999999
0.999999
1
1
1
1
1
1
1
1
1
1
1
1
1
1
1
1
1.00155
1.00205
1.00265
1.00333
1.00409
1.00493
1.0058
1.0067
1.00759
1.00844
1.00923
1.00993
1.01051
1.01096
1.01126
1.01141
1.01138
1.0112
1.01085
1.01037
1.00975
1.00902
1.00822
1.00737
1.00649
1.00562
1.00478
1.004
1.00328
1.00264
1.00209
1.00162
1.00123
1.00091
1.00066
1.00046
1.00031
1.0002
1.00011
1.00006
1.00002
0.999995
0.999981
0.999974
0.999971
0.999972
0.999974
0.999978
0.999981
0.999985
0.999988
0.999991
0.999993
0.999995
0.999996
0.999997
0.999998
0.999999
0.999999
0.999999
1
1
1
1
1
1
1
1
1
1
1
1
1
1
1
1.00225
1.00294
1.00375
1.00467
1.00568
1.00677
1.00791
1.00907
1.0102
1.01128
1.01227
1.01313
1.01385
1.01441
1.01477
1.01494
1.0149
1.01467
1.01423
1.01361
1.01283
1.01191
1.01088
1.00977
1.00864
1.0075
1.0064
1.00536
1.00441
1.00355
1.00281
1.00218
1.00165
1.00122
1.00088
1.00062
1.00042
1.00027
1.00016
1.00008
1.00003
0.999998
0.999979
0.999969
0.999965
0.999966
0.999968
0.999972
0.999977
0.999981
0.999985
0.999988
0.999991
0.999994
0.999995
0.999997
0.999998
0.999998
0.999999
0.999999
1
1
1
1
1
1
1
1
1
1
1
1
1
1
1
1.00318
1.00411
1.00518
1.00639
1.00771
1.00911
1.01056
1.01201
1.01342
1.01475
1.01595
1.017
1.01786
1.01852
1.01895
1.01915
1.0191
1.01881
1.01829
1.01753
1.01658
1.01544
1.01415
1.01277
1.01132
1.00987
1.00845
1.0071
1.00585
1.00474
1.00375
1.00291
1.00222
1.00164
1.00119
1.00083
1.00056
1.00036
1.00022
1.00012
1.00005
1
0.999978
0.999964
0.999959
0.999959
0.999962
0.999966
0.999972
0.999977
0.999982
0.999986
0.999989
0.999992
0.999994
0.999996
0.999997
0.999998
0.999999
0.999999
0.999999
1
1
1
1
1
1
1
1
1
1
1
1
1
1
1.00438
1.00561
1.00701
1.00856
1.01024
1.012
1.0138
1.01557
1.01727
1.01885
1.02027
1.02149
1.02249
1.02324
1.02374
1.02396
1.02391
1.02358
1.02297
1.0221
1.02097
1.01962
1.01808
1.01639
1.01461
1.0128
1.01101
1.00929
1.00769
1.00624
1.00497
1.00387
1.00295
1.00219
1.00159
1.00112
1.00076
1.0005
1.0003
1.00017
1.00008
1.00002
0.99998
0.999961
0.999952
0.999951
0.999954
0.99996
0.999966
0.999972
0.999978
0.999983
0.999987
0.99999
0.999993
0.999995
0.999997
0.999998
0.999998
0.999999
0.999999
1
1
1
1
1
1
1
1
1
1
1
1
1
1
1.00592
1.0075
1.00928
1.01124
1.01333
1.01548
1.01763
1.01973
1.02171
1.02353
1.02513
1.02649
1.0276
1.02842
1.02896
1.0292
1.02915
1.02879
1.02814
1.02718
1.02593
1.0244
1.02262
1.02064
1.01852
1.01632
1.01412
1.01199
1.00998
1.00814
1.0065
1.00509
1.00389
1.00291
1.00212
1.0015
1.00103
1.00067
1.00042
1.00024
1.00011
1.00003
0.999986
0.999959
0.999946
0.999944
0.999946
0.999952
0.999959
0.999966
0.999973
0.999979
0.999984
0.999988
0.999992
0.999994
0.999996
0.999997
0.999998
0.999999
0.999999
0.999999
1
1
1
1
1
1
1
1
1
1
1
1
1
1.00783
1.00983
1.01205
1.01446
1.01697
1.01952
1.02203
1.02442
1.02663
1.02861
1.03033
1.03177
1.03291
1.03376
1.03431
1.03456
1.03451
1.03417
1.03351
1.03253
1.03122
1.02959
1.02765
1.02543
1.023
1.02043
1.01781
1.01522
1.01275
1.01046
1.00841
1.00661
1.00508
1.00382
1.0028
1.00199
1.00137
1.00091
1.00057
1.00033
1.00017
1.00006
0.999998
0.99996
0.999942
0.999936
0.999938
0.999944
0.999952
0.99996
0.999968
0.999975
0.999981
0.999986
0.99999
0.999993
0.999995
0.999997
0.999998
0.999998
0.999999
0.999999
1
1
1
1
1
1
1
1
1
1
1
1
1
1.01017
1.01264
1.01535
1.01822
1.02115
1.02407
1.02686
1.02946
1.0318
1.03384
1.03556
1.03696
1.03804
1.03882
1.03933
1.03956
1.03954
1.03924
1.03865
1.03775
1.03651
1.0349
1.03292
1.03058
1.02794
1.02506
1.02205
1.019
1.01605
1.01326
1.01073
1.00849
1.00656
1.00496
1.00365
1.00262
1.00182
1.00122
1.00078
1.00047
1.00025
1.00011
1.00002
0.999966
0.99994
0.99993
0.99993
0.999936
0.999944
0.999953
0.999963
0.999971
0.999978
0.999983
0.999988
0.999991
0.999994
0.999996
0.999997
0.999998
0.999999
0.999999
0.999999
1
1
1
1
1
1
1
1
1
1
1
1
1.01296
1.01594
1.01914
1.02246
1.02577
1.02896
1.03192
1.03457
1.03687
1.0388
1.04034
1.04154
1.04243
1.04305
1.04344
1.04363
1.04362
1.04342
1.043
1.0423
1.04128
1.03988
1.03805
1.03578
1.03309
1.03003
1.02672
1.02328
1.01984
1.01654
1.01348
1.01074
1.00837
1.00636
1.00471
1.0034
1.00238
1.00161
1.00104
1.00064
1.00036
1.00017
1.00005
0.999979
0.999941
0.999925
0.999922
0.999927
0.999936
0.999946
0.999957
0.999966
0.999974
0.99998
0.999986
0.99999
0.999993
0.999995
0.999997
0.999998
0.999999
0.999999
0.999999
1
1
1
1
1
1
1
1
1
1
1
1
1.01621
1.01971
1.02339
1.02708
1.03064
1.03394
1.03688
1.03937
1.04141
1.04298
1.04414
1.04495
1.04548
1.0458
1.04599
1.04608
1.04611
1.04606
1.0459
1.04556
1.04495
1.04398
1.04256
1.04061
1.0381
1.03509
1.03164
1.02792
1.02407
1.02028
1.01669
1.01341
1.01052
1.00805
1.00601
1.00437
1.00309
1.00211
1.00138
1.00086
1.0005
1.00025
1.0001
1
0.999947
0.999922
0.999915
0.999919
0.999928
0.999939
0.99995
0.999961
0.99997
0.999977
0.999983
0.999988
0.999992
0.999994
0.999996
0.999997
0.999998
0.999999
0.999999
1
1
1
1
1
1
1
1
1
1
1
1
1.01989
1.02389
1.02795
1.03187
1.0355
1.03868
1.04133
1.04339
1.04487
1.04583
1.04636
1.04655
1.04655
1.04644
1.04634
1.0463
1.04636
1.04651
1.04671
1.04688
1.04688
1.04659
1.04585
1.04453
1.04253
1.03985
1.03654
1.03273
1.02861
1.0244
1.0203
1.01647
1.01304
1.01006
1.00757
1.00555
1.00395
1.00272
1.00181
1.00115
1.00068
1.00036
1.00016
1.00003
0.99996
0.999923
0.99991
0.999911
0.999919
0.999931
0.999943
0.999955
0.999965
0.999974
0.999981
0.999986
0.99999
0.999993
0.999995
0.999997
0.999998
0.999999
0.999999
0.999999
1
1
1
1
1
1
1
1
1
1
1
1.02395
1.02834
1.03262
1.03657
1.04
1.04276
1.0448
1.0461
1.04673
1.04679
1.04643
1.04581
1.04511
1.04445
1.04398
1.04376
1.04386
1.04426
1.04491
1.04571
1.04651
1.04713
1.04736
1.047
1.04587
1.04388
1.04102
1.03742
1.03325
1.02878
1.02425
1.0199
1.01591
1.01239
1.0094
1.00695
1.00499
1.00347
1.00233
1.0015
1.00091
1.00051
1.00024
1.00008
0.999981
0.99993
0.999908
0.999905
0.999911
0.999923
0.999936
0.999949
0.999961
0.99997
0.999978
0.999984
0.999989
0.999992
0.999995
0.999996
0.999998
0.999998
0.999999
0.999999
1
1
1
1
1
1
1
1
1
1
1
1.02825
1.03288
1.03716
1.04084
1.04374
1.04574
1.04682
1.04703
1.04649
1.04539
1.04393
1.04232
1.04077
1.03947
1.03856
1.03815
1.03828
1.03896
1.04013
1.04168
1.04343
1.04516
1.04661
1.04751
1.0476
1.04669
1.04469
1.04165
1.03773
1.03322
1.02841
1.02363
1.01911
1.01503
1.01151
1.00858
1.00621
1.00437
1.00297
1.00194
1.0012
1.00069
1.00035
1.00014
1.00001
0.999942
0.999909
0.9999
0.999905
0.999916
0.999929
0.999943
0.999956
0.999966
0.999975
0.999982
0.999987
0.999991
0.999994
0.999996
0.999997
0.999998
0.999999
0.999999
1
1
1
1
1
1
1
1
1
1
1
1.03261
1.03725
1.04123
1.04431
1.04632
1.0472
1.04698
1.04579
1.04383
1.04134
1.03859
1.03585
1.03336
1.03133
1.02995
1.02932
1.0295
1.0305
1.03225
1.03461
1.03742
1.04041
1.04328
1.0457
1.04733
1.04787
1.04712
1.04504
1.04174
1.03748
1.03263
1.02754
1.02256
1.01796
1.01389
1.01045
1.00764
1.00542
1.00372
1.00246
1.00155
1.00092
1.00049
1.00022
1.00005
0.999961
0.999915
0.999898
0.999899
0.999909
0.999923
0.999937
0.999951
0.999963
0.999972
0.99998
0.999986
0.99999
0.999993
0.999995
0.999997
0.999998
0.999999
0.999999
1
1
1
1
1
1
1
1
1
1
1
1.03683
1.04117
1.04452
1.04663
1.04739
1.0468
1.04498
1.04214
1.03854
1.03449
1.03032
1.02633
1.02282
1.02002
1.01814
1.01728
1.01753
1.01888
1.02125
1.02451
1.02846
1.03282
1.03725
1.04138
1.04479
1.04709
1.04796
1.04723
1.04495
1.04131
1.03668
1.0315
1.02619
1.02111
1.01652
1.01255
1.00926
1.00663
1.0046
1.00307
1.00197
1.00119
1.00067
1.00032
1.00011
0.99999
0.999926
0.9999
0.999895
0.999903
0.999917
0.999932
0.999946
0.999959
0.999969
0.999978
0.999984
0.999989
0.999992
0.999995
0.999997
0.999998
0.999999
0.999999
0.999999
1
1
1
1
1
1
1
1
1
1
1.04064
1.04436
1.04671
1.0475
1.04668
1.04434
1.04068
1.03598
1.03058
1.02485
1.01914
1.01382
1.00922
1.00559
1.00317
1.00209
1.00243
1.00416
1.00722
1.01145
1.01662
1.02244
1.02854
1.03451
1.03988
1.04417
1.04696
1.04796
1.04706
1.04442
1.04035
1.03533
1.02987
1.02442
1.01934
1.01486
1.01107
1.008
1.0056
1.00379
1.00246
1.00152
1.00088
1.00045
1.00019
1.00003
0.999944
0.999905
0.999894
0.999899
0.999911
0.999926
0.999941
0.999955
0.999966
0.999975
0.999982
0.999988
0.999992
0.999994
0.999996
0.999997
0.999998
0.999999
0.999999
1
1
1
1
1
1
1
1
1
1
1.04381
1.04655
1.04756
1.04672
1.04406
1.03975
1.03407
1.02737
1.02003
1.01248
1.00512
0.998367
0.992578
0.98806
0.985063
0.983745
0.984184
0.986368
0.990198
0.995494
1.002
1.00938
1.01726
1.02518
1.03263
1.03908
1.04401
1.04702
1.04787
1.04658
1.04342
1.03886
1.03346
1.02779
1.02231
1.01734
1.01306
1.00953
1.00674
1.00461
1.00303
1.0019
1.00113
1.00061
1.00028
1.00008
0.999969
0.999915
0.999896
0.999896
0.999907
0.999922
0.999937
0.999951
0.999963
0.999973
0.999981
0.999986
0.999991
0.999994
0.999996
0.999997
0.999998
0.999999
0.999999
1
1
1
1
1
1
1
1
1
1
1.0461
1.04755
1.04693
1.04421
1.03951
1.03308
1.02524
1.01639
1.00698
0.99747
0.98832
0.979982
0.972878
0.967363
0.963723
0.962143
0.962712
0.965411
0.970117
0.976614
0.984603
0.993709
1.0035
1.01349
1.02314
1.03188
1.03912
1.04436
1.04723
1.04762
1.0457
1.0419
1.03683
1.03112
1.02535
1.01994
1.01518
1.0112
1.00799
1.00552
1.00367
1.00234
1.00141
1.00079
1.00039
1.00014
1
0.999931
0.999901
0.999896
0.999904
0.999918
0.999933
0.999948
0.99996
0.999971
0.999979
0.999985
0.99999
0.999993
0.999996
0.999997
0.999998
0.999999
0.999999
1
1
1
1
1
1
1
1
1
1
1.04736
1.04725
1.04478
1.04
1.03312
1.02444
1.01431
1.00318
0.991532
0.979869
0.968718
0.958599
0.95
0.943344
0.938967
0.937089
0.937814
0.941113
0.946832
0.954709
0.964382
0.975416
0.987318
0.999552
1.01154
1.02269
1.03236
1.03999
1.04509
1.04743
1.04705
1.04432
1.03983
1.03429
1.02837
1.02262
1.01742
1.01298
1.00936
1.00653
1.00439
1.00284
1.00175
1.001
1.00052
1.00022
1.00005
0.999952
0.99991
0.999898
0.999903
0.999915
0.99993
0.999945
0.999958
0.999969
0.999977
0.999984
0.999989
0.999993
0.999995
0.999997
0.999998
0.999999
0.999999
0.999999
1
1
1
1
1
1
1
1
1
1.04751
1.04563
1.04115
1.03421
1.02504
1.01399
1.00143
0.987841
0.973725
0.959658
0.946239
0.934084
0.923763
0.915788
0.910558
0.908339
0.909249
0.913249
0.92015
0.929627
0.941237
0.954458
0.968717
0.983414
0.997928
1.01163
1.02386
1.03399
1.04149
1.04598
1.0474
1.046
1.04236
1.0372
1.03129
1.02531
1.01973
1.01486
1.01082
1.00762
1.00518
1.00339
1.00212
1.00125
1.00067
1.00031
1.0001
0.99998
0.999923
0.999903
0.999903
0.999913
0.999928
0.999943
0.999956
0.999967
0.999976
0.999983
0.999988
0.999992
0.999995
0.999997
0.999998
0.999999
0.999999
0.999999
1
1
1
1
1
1
1
1
1
1.04654
1.04275
1.03617
1.02698
1.01544
1.00189
0.98673
0.970439
0.953575
0.93679
0.920784
0.906288
0.893987
0.884495
0.878285
0.875675
0.876803
0.881621
0.889895
0.901224
0.915065
0.930785
0.947702
0.965128
0.982385
0.998807
1.01373
1.02649
1.0365
1.0433
1.04671
1.04689
1.04432
1.03976
1.03405
1.02794
1.02206
1.0168
1.01235
1.00878
1.00603
1.00399
1.00253
1.00152
1.00085
1.00042
1.00016
1.00002
0.999941
0.999911
0.999906
0.999913
0.999927
0.999941
0.999955
0.999966
0.999975
0.999982
0.999988
0.999992
0.999994
0.999996
0.999998
0.999998
0.999999
0.999999
1
1
1
1
1
1
1
1
1
1.04452
1.03875
1.03
1.0185
1.00449
0.988296
0.970311
0.951033
0.931088
0.911222
0.892275
0.875118
0.860568
0.849355
0.842035
0.838984
0.840364
0.84612
0.855973
0.86943
0.885828
0.904389
0.924301
0.94476
0.965014
0.984358
1.00211
1.01761
1.03023
1.03947
1.04502
1.04695
1.04568
1.04192
1.03656
1.03047
1.02437
1.01876
1.01394
1.01
1.00693
1.00463
1.00297
1.00182
1.00104
1.00054
1.00023
1.00006
0.999964
0.999923
0.999911
0.999915
0.999926
0.99994
0.999953
0.999965
0.999974
0.999982
0.999987
0.999991
0.999994
0.999996
0.999998
0.999998
0.999999
0.999999
1
1
1
1
1
1
1
1
1
1.04156
1.03376
1.02283
1.00895
0.992361
0.973344
0.952278
0.92969
0.906295
0.882976
0.860733
0.8406
0.823548
0.810419
0.801864
0.798319
0.799979
0.806786
0.818416
0.834282
0.853576
0.875348
0.898614
0.922433
0.945955
0.96843
0.989169
1.00751
1.02283
1.03457
1.04238
1.04622
1.0464
1.04362
1.03878
1.03283
1.0266
1.02072
1.01554
1.01126
1.00787
1.00531
1.00345
1.00214
1.00125
1.00068
1.00032
1.00011
0.999992
0.999937
0.999918
0.999918
0.999927
0.99994
0.999953
0.999964
0.999974
0.999981
0.999987
0.999991
0.999994
0.999996
0.999997
0.999998
0.999999
0.999999
1
1
1
1
1
1
1
1
1
1.03781
1.02798
1.01483
0.998518
0.979227
0.957186
0.932763
0.90653
0.879321
0.852188
0.826325
0.80294
0.783164
0.767955
0.758054
0.75396
0.755911
0.763858
0.77744
0.795972
0.818487
0.843835
0.870821
0.898334
0.925402
0.951221
0.975089
0.996366
1.01444
1.02875
1.03889
1.04472
1.0465
1.04484
1.04067
1.03499
1.02874
1.02263
1.01715
1.01253
1.00884
1.00602
1.00395
1.00248
1.00148
1.00082
1.00041
1.00016
1.00002
0.999956
0.999928
0.999923
0.99993
0.999941
0.999953
0.999964
0.999973
0.999981
0.999987
0.999991
0.999994
0.999996
0.999997
0.999998
0.999999
0.999999
1
1
1
1
1
1
1
1
1
1.03342
1.02157
1.00619
0.987386
0.965264
0.939997
0.911945
0.881753
0.850405
0.819155
0.789408
0.762562
0.739902
0.722493
0.711159
0.706468
0.708702
0.717839
0.733497
0.754898
0.780907
0.81015
0.841198
0.872722
0.903606
0.932969
0.9601
0.984388
1.00526
1.02216
1.03466
1.04256
1.04601
1.0456
1.04222
1.03692
1.03073
1.02447
1.01872
1.0138
1.00982
1.00674
1.00446
1.00283
1.00172
1.00098
1.00051
1.00022
1.00006
0.999978
0.999941
0.99993
0.999933
0.999943
0.999954
0.999964
0.999974
0.999981
0.999987
0.999991
0.999994
0.999996
0.999997
0.999998
0.999999
0.999999
1
1
1
1
1
1
1
1
1
1.02856
1.01472
0.997102
0.975747
0.950676
0.922002
0.890087
0.855675
0.819936
0.784352
0.750553
0.720132
0.694509
0.674851
0.662052
0.656729
0.659218
0.669545
0.687326
0.711711
0.741396
0.774772
0.810145
0.845945
0.880877
0.913959
0.944465
0.971815
0.995489
1.01498
1.02983
1.03981
1.045
1.04591
1.04342
1.0386
1.03255
1.02621
1.02024
1.01505
1.01079
1.00747
1.00498
1.0032
1.00196
1.00114
1.00061
1.00029
1.0001
1
0.999956
0.999939
0.999938
0.999946
0.999956
0.999966
0.999974
0.999981
0.999987
0.999991
0.999994
0.999996
0.999997
0.999998
0.999999
0.999999
1
1
1
1
1
1
1
1
1
1.0234
1.0076
0.987751
0.963807
0.935701
0.903485
0.867542
0.82874
0.788459
0.748438
0.710541
0.676546
0.648001
0.626144
0.611909
0.605949
0.608658
0.620116
0.639974
0.667329
0.700741
0.738361
0.778213
0.818461
0.857597
0.894522
0.928474
0.958907
0.985364
1.00739
1.02456
1.03661
1.04355
1.04583
1.04428
1.04002
1.03419
1.02783
1.02169
1.01625
1.01174
1.00818
1.00551
1.00357
1.00222
1.00131
1.00072
1.00036
1.00015
1.00003
0.999973
0.999949
0.999945
0.99995
0.999958
0.999967
0.999975
0.999982
0.999987
0.999991
0.999994
0.999996
0.999997
0.999998
0.999999
0.999999
1
1
1
1
1
1
1
1
1
1.0181
1.00039
0.978334
0.951793
0.920612
0.884796
0.844756
0.801506
0.756666
0.71224
0.670334
0.632909
0.601612
0.577718
0.562155
0.555591
0.558466
0.570941
0.592717
0.622893
0.659916
0.701732
0.746079
0.790825
0.834226
0.875039
0.912451
0.945943
0.975126
0.999614
1.01903
1.03307
1.04174
1.04539
1.04484
1.04118
1.03564
1.02931
1.02304
1.0174
1.01266
1.00888
1.00602
1.00393
1.00247
1.00148
1.00084
1.00043
1.0002
1.00006
0.999993
0.999962
0.999953
0.999955
0.999961
0.999969
0.999976
0.999983
0.999988
0.999992
0.999994
0.999996
0.999998
0.999998
0.999999
0.999999
1
1
1
1
1
1
1
1
1
1.01281
0.993265
0.969052
0.939949
0.905723
0.866341
0.822256
0.77464
0.725363
0.67671
0.631032
0.590459
0.55671
0.531039
0.514326
0.507218
0.510202
0.52352
0.546959
0.579652
0.620004
0.665795
0.714496
0.763662
0.811282
0.855937
0.896748
0.933217
0.965022
0.991859
1.0134
1.02935
1.03968
1.04468
1.04513
1.04211
1.03689
1.03064
1.02429
1.01847
1.01352
1.00955
1.00651
1.00429
1.00272
1.00165
1.00095
1.00051
1.00025
1.00009
1.00001
0.999976
0.999962
0.999961
0.999966
0.999972
0.999978
0.999984
0.999989
0.999992
0.999995
0.999996
0.999998
0.999998
0.999999
0.999999
1
1
1
1
1
1
1
1
1
1.00768
0.986403
0.960117
0.928537
0.891377
0.848572
0.800625
0.748871
0.695429
0.642868
0.593784
0.550462
0.514653
0.48754
0.4699
0.462336
0.465367
0.47932
0.504077
0.53886
0.582102
0.631485
0.684246
0.737624
0.789303
0.837661
0.881734
0.921035
0.955311
0.98434
1.00785
1.02559
1.03748
1.04377
1.04519
1.04283
1.03796
1.03181
1.02541
1.01945
1.01432
1.01017
1.00698
1.00462
1.00295
1.00181
1.00106
1.00059
1.0003
1.00013
1.00004
0.999991
0.999972
0.999968
0.99997
0.999975
0.999981
0.999986
0.99999
0.999993
0.999995
0.999997
0.999998
0.999999
0.999999
0.999999
1
1
1
1
1
1
1
1
1
1.00285
0.979976
0.951741
0.917831
0.877926
0.831954
0.780469
0.724948
0.667754
0.611727
0.559703
0.514106
0.476674
0.448475
0.43015
0.422237
0.425268
0.439631
0.465317
0.50168
0.547252
0.599702
0.656088
0.713342
0.768821
0.820658
0.867779
0.909702
0.946242
0.977264
1.00257
1.02193
1.03525
1.04274
1.04509
1.04335
1.03883
1.03282
1.0264
1.02033
1.01505
1.01074
1.00741
1.00494
1.00318
1.00197
1.00117
1.00066
1.00035
1.00016
1.00006
1.00001
0.999983
0.999975
0.999975
0.999979
0.999983
0.999987
0.999991
0.999994
0.999996
0.999997
0.999998
0.999999
0.999999
0.999999
1
1
1
1
1
1
1
1
1
0.998467
0.974151
0.944142
0.9081
0.865719
0.81694
0.762365
0.703589
0.643178
0.584224
0.529784
0.482399
0.443772
0.414828
0.396057
0.387916
0.390916
0.405482
0.431705
0.469107
0.516389
0.571285
0.630744
0.691421
0.750334
0.805343
0.855232
0.899507
0.938056
0.970833
0.997712
1.0185
1.03309
1.04167
1.04486
1.04372
1.03954
1.03368
1.02725
1.02109
1.01569
1.01125
1.00779
1.00522
1.00338
1.00212
1.00127
1.00073
1.0004
1.0002
1.00008
1.00002
0.999996
0.999984
0.999982
0.999983
0.999986
0.999989
0.999992
0.999994
0.999996
0.999998
0.999998
0.999999
0.999999
1
1
1
1
1
1
1
1
1
1
0.994644
0.969083
0.937523
0.899604
0.855079
0.803937
0.746826
0.685419
0.62243
0.561151
0.504836
0.456122
0.416672
0.38727
0.368265
0.360012
0.362974
0.377574
0.403986
0.441914
0.490282
0.546964
0.608869
0.672422
0.734311
0.792099
0.844406
0.890712
0.93097
0.965226
0.993432
1.01543
1.03111
1.04063
1.04457
1.04395
1.0401
1.03438
1.02796
1.02174
1.01623
1.01169
1.00813
1.00547
1.00357
1.00225
1.00137
1.0008
1.00044
1.00023
1.00011
1.00004
1.00001
0.999993
0.999988
0.999988
0.999989
0.999991
0.999994
0.999995
0.999997
0.999998
0.999999
0.999999
0.999999
1
1
1
1
1
1
1
1
1
1
0.991486
0.964916
0.932071
0.892585
0.846292
0.793282
0.734258
0.670923
0.606065
0.543106
0.485448
0.43581
0.395827
0.366177
0.347093
0.338826
0.341755
0.356266
0.382593
0.420614
0.469498