/*--------------------------------*- C++ -*----------------------------------*\
  =========                 |
  \\      /  F ield         | OpenFOAM: The Open Source CFD Toolbox
   \\    /   O peration     | Website:  https://openfoam.org
    \\  /    A nd           | Version:  6
     \\/     M anipulation  |
\*---------------------------------------------------------------------------*/
FoamFile
{
    version     2.0;
    format      ascii;
    class       surfaceScalarField;
    location    "1.43";
    object      meshPhi;
}
// * * * * * * * * * * * * * * * * * * * * * * * * * * * * * * * * * * * * * //

dimensions      [0 3 -1 0 0 0 0];

internalField   nonuniform List<scalar> 
11670
(
0.14516
-0.0719393
0.126316
-0.234299
0.0911897
-0.0137314
0.0272412
-0.0764323
0.204842
-0.0684061
0.0762375
-0.220216
0.47763
-0.242401
0.458149
-0.739327
0.337255
-0.0703302
0.235754
-0.520737
-0.00943723
0.00413784
0.00340608
0.00201317
-0.950306
0.164506
-0.215672
1.00798
0.316548
0.0591689
0.00605239
-0.325298
-0.371504
-0.0619388
0.030128
0.372005
0.438042
-0.12994
0.212739
-0.478339
-0.831611
0.0847462
-0.443948
1.19301
0.00667434
0.00509725
-0.00960723
0.0134179
-0.0024487
-0.00186608
-0.021029
0.0100951
-0.0127568
0.00597587
0.00996675
-0.022314
0.00489535
-0.0040816
0.0283102
-0.0102584
-0.00304828
0.00124843
-0.0120174
0.00494871
0.00270226
-0.000623131
0.00913255
-0.00400498
0.00268255
0.00136754
-0.00403066
0.00560908
-0.00604679
-0.000348605
-0.0168596
0.0105886
-0.00399899
-0.00095638
0.00392267
-0.00578087
0.000162034
0.00118708
0.0116981
-0.00432313
-0.00339333
-0.00138683
0.00347154
-0.00347639
0.00270679
0.00103097
-0.00376314
0.00547247
0.00919278
0.000329323
0.0160667
-0.0102675
-0.000477287
-0.00128236
-0.0132878
0.00491356
-0.0126444
0.00755338
0.0100629
-0.033409
-0.000378643
0.00172231
-0.0106012
0.0328559
-0.0189114
0.00445221
-0.0242121
0.0158512
0.00830291
0.00117574
-0.0163803
0.0259239
0.0130074
-0.0151496
0.0163663
-0.0524281
0.011861
-6.26556e-05
-0.020389
0.0324625
-0.0249605
0.00713114
-0.0297338
0.0197171
0.0202252
-0.023074
0.0203579
-0.0648143
0.00661214
0.0126553
0.0320334
-0.0214464
0.0262424
-0.0233746
-0.0221434
0.0705944
-0.0358767
0.0330038
0.0221383
-0.0707632
-0.00272409
-0.0164803
-0.0318824
0.0214414
-0.0132057
0.00755479
-0.0472069
0.0216565
0.0204401
-0.004846
0.0317917
-0.0212155
-0.0152015
0.0228158
-0.0246034
0.0776164
0.00211542
-0.0133646
-0.0296552
0.0186247
-0.00452173
0.00597749
0.0509605
-0.01803
0.0219378
-0.0306163
0.0177001
-0.0577188
0.0202872
-1.60431e-05
-0.0168855
0.0228937
-0.0155146
0.00747117
0.0128741
-0.0256081
0.00516968
0.000496609
0.0278144
-0.01303
-0.00127924
-0.00483445
-0.0309008
0.0130399
0.0140235
-0.00539973
-0.0128643
0.0282233
-0.000680951
-0.0036821
-0.0115019
0.0072237
0.00553626
0.00182293
-0.00653392
0.00805993
0.00342195
-0.00675524
0.00686507
-0.0225116
0.000993059
-0.000400165
0.0211136
-0.0069768
0.000256848
0.000137369
-3.17621e-05
0.000759497
-0.00027215
0.000175769
-0.00166567
-3.90832e-05
-7.64808e-15
7.64808e-15
0
0
-0.00409387
-0.00896148
0.00625472
-0.00534602
0.00586656
0.00466163
0.00772699
-0.00640061
0.00435867
-0.00393811
-0.0256873
0.00840241
-0.000526394
-0.00176857
-0.00730859
0.0209386
-0.0177977
0.00385524
-0.0229734
0.0158106
0.0158268
-0.000292572
-0.0146479
0.021158
0.0131697
-0.0153097
0.0163244
-0.0528704
-0.00522832
0.008964
0.0568843
-0.0182005
0.000316406
-0.0085697
-0.0217574
0.0136646
0.0124586
-0.0190286
0.0129862
-0.0431145
-0.00457715
0.0033956
0.0484654
-0.0140826
0.0136138
0.00174277
-0.0130877
0.016556
0.0041271
-0.0169665
0.0221882
-0.0353264
0.0274784
-0.00191412
-0.021264
0.0278832
-0.0166802
0.014795
0.0769074
-0.0228805
-0.013696
0.016156
-0.0215293
0.0698042
0.0225109
-0.00389335
0.0308617
-0.0208516
-0.0308599
0.00590648
0.0206875
-0.027312
0.0250673
-0.0234059
-0.0749424
0.0222602
-0.0242051
0.00668218
-0.0289992
0.019693
0.0203594
-0.0230095
0.0203331
-0.0653581
0.00889831
0.0143661
-0.0195297
0.0252646
0.0216105
-0.023354
0.0712772
-0.0210144
0.020929
0.00621565
0.0199224
-0.0165026
0.000203302
-0.018979
-0.0203084
0.0148946
0.0203421
-0.0278842
0.023493
-0.0649746
0.00464437
-0.0105614
-0.0188436
0.0539856
-0.00546828
0.0012069
0.117047
0.00648134
-0.0255503
0.213697
0.018134
-0.026517
0.130108
0.0673367
-0.076513
-0.932112
0.0584831
-0.0101771
0.277082
-0.000602151
-0.0009523
-0.00642124
-0.114171
0.107781
0.364221
0.105276
-0.116981
0.453671
0.0582054
-0.139353
-0.315586
0.00886303
-0.0173227
0.479486
0.0897265
-0.0761021
-0.835195
0.0134425
0.0525574
-0.573055
0.490762
-0.205574
-0.021378
-0.019779
0.240373
1.48829e-05
0.00156945
0.00366558
-0.00182447
-0.012628
0.000281922
0.0697769
-0.0500549
0.0239845
-0.0923158
-0.0731628
0.150949
-0.0385568
0.170908
0.113698
-0.235819
-0.0319946
0.127982
0.0904899
-0.19452
-0.0376297
-0.0524566
0.160749
-0.0773368
-0.111999
-0.573055
0.462153
0.00244126
0.00131974
-0.0134065
0.00877137
0.00097906
0.0130429
-0.00860863
0.0049914
0.0180099
-0.0832131
-0.0431677
0.101004
0.00922905
0.0165054
-0.0135527
-0.01714
0.026404
-0.0202892
0.00934364
-0.00976822
0.0617709
-0.0415316
0.00591367
-0.0162702
0.0118146
0.0344794
-0.185494
0.111725
-0.0204785
0.149098
-0.096013
0.00116811
0.00384508
-0.00164124
0.0444589
-0.186078
0.113529
-0.159221
-0.0581494
0.17412
-0.0322184
-0.0269257
0.0538375
0.0210293
-0.0084227
0.0113463
-0.0254266
0.03413
0.0121241
-0.0266984
0.000267777
-0.00403693
0.000343555
0.0318939
0.0603205
0.000309536
-0.0318939
-0.0816731
-0.0172102
-0.106773
0.182678
-0.250616
-0.107357
0.253321
-0.0141534
-0.0142493
0.0218693
-0.000159259
-0.0367929
-0.0143794
0.0303264
-0.0969721
-0.0719143
-0.184417
0.339025
-0.294759
-0.172474
0.355983
-0.144216
-0.0295506
-0.172348
0.370554
-0.270861
-0.170039
0.321123
0.0615075
-0.0781199
-0.0554567
0.0934579
0.00803524
-0.0547379
0.129599
-0.150299
0.233772
0.121923
-0.217442
-0.0322887
0.120856
-0.250913
-3.40024e-05
0.00619689
-1.62921e-06
0.000300842
0.00673048
-1.53937e-06
-0.000300842
-0.209061
0.194956
-0.205797
0.0106472
0.0419013
0.164125
0.297619
-0.0196033
-0.0326413
-0.232304
0.0719553
0.00247592
-0.023573
-0.0627731
0.214023
-0.0116325
-0.0222588
-0.166786
-0.0711084
0.00973784
-0.00438777
0.0536712
-0.12131
0.00649466
0.0229124
0.102353
0.119166
-0.00522179
-0.0122708
-0.0887518
-0.0397227
0.0030073
0.00840662
0.0378072
0.0358845
0.000819825
-0.0121014
-0.0352643
-0.0583521
0.00593955
-0.00132746
0.042233
0.0724265
0.00414069
-0.0265845
-0.0591834
-0.0736092
0.0119251
-0.0089166
0.0604536
0.244559
-0.100992
0.0363189
-0.203517
-0.267652
-0.0583695
0.0883246
0.21181
0.638425
-0.0908778
-0.0314202
-0.481416
-0.352178
0.0275926
0.0600826
0.294512
0.259248
0.00899654
-0.103096
-0.178515
-0.886111
0.114533
0.0728255
0.716295
0.86254
-0.0905507
-0.102104
-0.655509
0.353884
-0.0166923
-0.0731455
-0.234326
0.115952
0.0123121
-0.0608086
-0.0973428
-0.42501
0.112248
0.147419
0.157658
-0.570747
0.0947246
0.199893
0.266556
1.24934
-0.256423
0.01105
-0.961735
-0.884786
-0.165838
0.42515
0.571913
0.442819
0.00775708
-0.214062
-0.265675
0.151639
-1.29286
0.235709
0.921587
0.804615
-0.194996
-0.12008
-0.454789
0.538962
-0.167431
0.0621098
-0.367629
-0.229915
-0.366344
1.47655
-0.870268
-0.894605
-0.0751547
0.245533
0.704213
0.967868
-0.22293
-0.040357
-0.668184
-0.912719
-0.013526
0.237608
0.729464
0.523748
-0.258853
-0.0396516
-0.244769
-1.04597
0.374975
0.112411
0.591914
-0.257262
-0.0588334
0.1326
0.25897
0.235869
0.0470909
-0.157706
-0.187431
-0.897245
0.440681
0.218455
0.224442
-1.02415
-0.174491
0.371611
0.769811
0.695793
-0.213231
-0.159451
-0.312297
0.717418
-0.200619
0.070041
-0.539152
-0.390497
0.152183
0.023856
0.191224
0.470439
-0.143507
0.0615773
-0.32938
0.755229
-0.252975
0.0672055
-0.590483
0.782014
-0.111845
-0.299645
-0.382106
0.539163
0.108764
-0.290424
-0.407669
0.0153129
0.192994
-0.697695
0.53049
-0.200613
0.00768417
0.0957719
0.138651
-0.247655
-0.00423731
0.0564679
0.17624
0.0805604
-0.0270322
0.00474289
-0.0781508
-0.584057
-0.0776967
0.203618
0.514253
0.607643
-0.292676
0.140021
-0.508771
-0.241398
-0.05242
0.119337
0.242529
-0.293198
0.068291
0.142735
0.0771136
0.195657
-0.0841185
-0.0685286
-0.0516051
-0.00661612
0.0539352
-0.0311851
1.14899e-15
-0.00207609
0.00158266
-5.57541e-16
-0.00201535
0.00250878
-9.68794e-19
4.84397e-19
-0.00335211
0.0469589
-0.0277862
0.0405008
0.127615
-0.601254
0.430143
0.449885
-0.0832723
-0.0447251
-0.327472
-2.59034e-13
0.00102193
-0.00407712
6.31092e-14
9.4714e-14
-0.00177485
0.000496685
-4.92525e-14
0.0225312
-3.37869e-05
-0.00255476
-0.0124236
0.0787732
-0.0189239
-0.000224943
-0.0376188
0.030058
6.18781e-05
-0.00219862
-0.0168212
-0.0225312
9.1355e-05
0.000150786
0.0124225
-0.0300599
1.9232e-06
0.00472175
0.0168212
0.000229067
0.00627445
-0.00337525
-2.92974e-05
5.93901e-07
-0.00429616
8.30939e-05
-4.96764e-06
-4.18492e-06
-0.000353374
-0.00549278
3.24306e-07
-0.00567419
0.0112072
-5.01229e-05
0.000234981
0.165304
-0.00522086
-0.0423646
-0.120963
-0.59809
0.0197949
0.225824
0.355649
0.0300122
0.0129258
-0.169223
0.125408
0.673628
-0.0267809
-0.143769
-0.480319
-0.888371
0.416406
0.22895
0.23276
0.193029
-0.0281005
-0.0416648
-0.107241
-0.992318
0.309123
-0.110232
0.746886
-0.24015
0.0140633
0.0770831
0.16347
-0.389411
0.148133
0.0458438
0.175812
0.366989
0.0421965
-0.10202
-0.256847
0.00048425
0.0130169
-0.00624687
-4.72877e-05
-6.79209e-05
-0.00672234
0.0150145
0.000450556
0.00206431
-0.00831921
9.87521e-05
0.00219624
-0.151607
-0.0273098
0.0464217
0.113891
0.0705399
0.0523452
-0.452426
0.346323
0.584383
-0.0799711
-0.0610249
-0.427598
0.178945
-0.0715792
0.0209252
-0.148909
0.731489
-0.179851
-0.37912
-0.191795
0.171906
0.0116304
-0.597793
0.443146
-0.154784
0.0266491
-0.0103084
0.0768571
0.570762
0.0938486
-0.230512
-0.478649
0.0725554
-0.00673617
-0.031056
-0.040764
0.29316
-0.0255293
-0.0340647
-0.227264
-0.339642
0.0118044
0.0643992
0.27138
0.18053
-0.0233714
-0.0993354
-0.0818644
-0.201071
0.0906655
-0.0333011
0.202464
-0.0347071
-0.0651799
0.391418
-0.280024
-0.546619
0.0791926
0.0388885
0.441115
0.669358
-0.0529959
-0.0635356
-0.53952
-0.951424
0.168109
0.0782398
0.710648
0.242985
-0.0682922
0.00258262
-0.183028
-0.0839517
-0.14298
0.9096
-0.679698
-0.00446099
0.0582825
-0.282051
0.223855
-0.782311
0.197807
0.591431
0.343319
-0.00226623
-0.0754053
-0.240055
0.252084
0.0783268
-1.15749
0.824538
-0.439863
0.114564
-0.0341397
0.320788
-0.165411
-0.0167786
0.0360918
0.0863735
-0.368708
0.0874692
0.0279022
0.268383
0.449258
0.0235032
-0.372925
-0.303093
0.0869318
0.00588966
0.238607
1.09338
-0.073947
-0.217107
-0.808763
0.149991
0.027004
-0.0654376
-0.148952
0.104377
-0.0103007
-0.0538248
-0.128422
-0.0138982
0.035299
0.0628151
1.29249
-0.0552802
-0.255101
-0.981632
0.125169
-0.0162543
0.00286137
-0.0630989
1.19286
-0.0201096
-0.256981
-0.922931
0.0904204
-0.0182392
-0.00590829
-0.0416432
-1.3376
0.254448
0.0802449
1.00719
0.116975
0.00511375
-0.0105575
-0.0594745
0.0327445
-0.107083
0.00739145
0.0236975
0.93464
0.00564123
-0.226076
-0.7239
-1.38664
0.249819
0.0322504
1.10113
0.234145
-0.0023409
-0.0899553
-0.143442
-0.686751
0.151448
0.226728
0.310463
0.630502
-0.184371
-0.163768
-0.285026
-0.243106
0.00995212
0.0892728
0.150612
-0.676531
0.0243081
0.274003
0.373855
0.405058
-0.139947
-0.0473994
-0.191592
-0.0244752
-0.0755406
0.183541
-0.0889851
-0.180575
0.0511282
0.0402489
0.0875471
0.069441
0.140757
-0.964918
0.764682
0.864067
-0.117914
-0.0856708
-0.654196
-0.00837551
0.0159034
4.22084e-12
-2.2548e-12
-4.25277e-12
0.0158128
-0.00941559
2.77982e-12
0.164115
-0.037745
-0.0385711
-0.0831468
-0.15381
0.0292081
0.0563369
0.0781954
-1.07907
0.210164
0.00508881
0.857296
1.15352
-0.415757
-0.0720738
-0.665074
-0.06843
0.0100636
-0.00441828
0.0551404
0.0757196
0.00365941
-0.0249555
-0.0630733
-0.604323
0.107097
0.0446533
0.458252
-0.051789
-0.0825071
0.676001
-0.536732
-0.526334
0.133904
0.24751
0.138324
-0.160637
0.0761139
0.0277591
0.0401407
-0.244295
0.0564758
0.0187967
0.203491
0.0285877
0.029258
-0.113773
0.0551599
0.0537024
0.00176542
-0.026146
-0.034436
-0.0450707
-0.0157152
0.111212
-0.0539182
0.195256
-0.0990974
-0.0234142
-0.0861052
0.0741506
0.000103357
-0.0235363
-0.0557794
0.13304
-0.0261197
-0.0919827
-0.0332188
0.0101209
0.00465387
-0.0772605
0.0585983
0.228539
-0.00530335
-0.0729878
-0.143911
-0.135658
0.0743547
0.0419911
0.0347917
0.390879
-0.177968
-0.122114
-0.103084
0.162714
-0.0508713
-0.0583565
-0.041965
0.00201886
-0.0342136
0.0741913
-0.0464905
0.21925
-0.0255183
-0.0769034
-0.131362
0.64777
-0.247143
-0.0339771
-0.373563
-0.072927
0.0180358
0.00621048
0.0406649
-0.193253
0.0265616
0.0713042
0.0851874
-0.0303133
-0.0410152
0.291024
-0.215538
-0.233883
0.00433925
0.0507278
0.179073
-0.0740633
0.00781663
0.0074436
0.0570956
-0.000570389
-0.0193974
0.0776864
-0.0612301
-0.242814
0.0113455
0.050427
0.191409
0.114642
0.000468515
-0.0286681
-0.0669938
0.323688
-0.0230867
-0.0332899
-0.255208
-0.0384804
0.0043805
0.0108648
0.0163975
-0.334911
0.0157201
0.0775909
0.247031
0.181871
-0.0196641
-0.00910701
-0.15517
0.240557
-0.00826754
-0.03902
-0.178154
0.0701413
0.00119937
-0.0289696
-0.04414
-0.261265
0.0550115
0.00640698
0.220139
0.0429952
-0.00378431
-0.00815531
-0.0247806
0.498185
-0.0242571
-0.0920699
-0.344302
-0.155228
0.00198743
0.0531939
0.0979258
-0.140623
-0.00838829
0.0311997
0.0899785
0.714223
-0.399372
0.0598953
-0.399732
-0.681681
0.0521667
0.204272
0.4412
-0.076356
0.0271865
0.156207
-0.145696
-0.227164
0.0341716
0.0789447
0.159553
-0.170052
-0.00770012
0.0511556
0.171844
0.260564
-0.169339
0.0736026
-0.225646
0.0037223
-0.120746
0.111485
-0.352913
0.00256164
0.244103
0.184821
-0.03268
-0.131325
-0.0547392
0.13639
-0.11799
-0.649864
-0.0658349
0.330059
0.356414
0.201556
-0.132521
0.0706202
-0.202336
0.210185
-0.00929894
-0.0681876
-0.131262
0.231476
0.146934
-1.38549
1.01733
0.62984
-0.176009
0.0214048
-0.48637
-0.288725
0.098582
-0.0302924
0.266772
1.17309
-0.228731
-0.143098
-0.765448
-0.595633
-0.0871129
0.222474
0.403977
0.778483
-0.318035
0.0432844
-0.469624
-0.878481
0.557472
0.236699
0.0473313
-0.243821
-0.0332491
0.0742254
0.1702
0.400358
-0.0792933
0.000216615
-0.279947
0.30366
-0.139771
0.0639315
-0.266824
0.0581936
-0.00164267
-0.00960185
-0.0422118
-0.0359276
0.00384247
0.00467061
0.0356231
0.0397461
-0.00787884
-0.00220541
-0.0372796
0.215221
0.00608589
-0.0411907
-0.145131
-0.121982
0.000794144
0.0266605
0.0887676
-0.2658
0.0494888
0.0161377
0.168253
-0.302918
0.0221144
0.974754
-0.713259
0.389007
-0.0477937
-0.150161
-0.227555
0.448915
-0.211441
0.0766307
-0.356888
0.49326
-0.0968188
-0.0634622
-0.292678
-0.36596
-0.0915022
0.150359
0.250731
-0.300901
0.0469492
0.116339
0.151918
0.437393
0.079373
-0.219592
-0.349383
0.785684
0.0809883
-0.239345
-0.663626
-0.425074
-0.0549017
0.185777
0.358115
1.10926
-0.214279
-0.21371
-0.695821
-1.16109
0.181975
0.159302
0.83839
0.287541
0.0172621
-0.0664035
-0.193056
-0.718694
-0.0174524
0.157917
0.569471
0.371553
0.0358183
-0.0940628
-0.274355
1.46328
-0.140072
-0.237918
-1.08006
-0.571443
0.177235
0.475439
-0.0342618
-0.240669
0.322814
-0.0824778
-0.322388
-0.0756567
0.120574
0.242161
-1.06115
0.0119257
0.264436
0.771576
-0.456767
0.170367
0.00994836
0.286421
-0.695933
0.0592081
0.256797
0.399442
-0.73125
0.236977
0.325059
0.192086
1.03705
0.0961263
-0.31595
-0.84488
0.994382
-0.0196596
-0.253279
-0.678993
-0.101621
0.217788
-0.553567
0.39447
0.738531
-0.225617
0.0702762
-0.518267
0.294346
-0.115347
-0.791722
0.555288
-0.960285
0.271308
-0.0481996
0.708396
0.72206
-0.338711
0.0155516
-0.442126
-0.713401
0.155401
0.0188861
0.563561
0.326409
-0.0234973
-0.0534597
-0.203871
-0.341307
-0.00595624
0.125106
0.218037
-0.125632
0.0136981
0.027698
0.0978253
0.148576
-0.0191506
-0.017712
-0.101364
0.105433
-0.0331046
-0.0163084
-0.0737169
1.82988e-12
-1.8884e-05
-0.00485467
-1.46303e-12
-0.00866263
-0.00502306
0.0144414
0.00285925
0.0175076
0.054698
-0.151863
0.0811441
-0.000622726
-0.0056778
0.00501091
-8.68692e-13
-0.00309121
0.000250736
7.0953e-13
0.181544
-0.0639699
0.00352954
-0.133964
0.00609445
0.00499146
-0.0132088
0.00724714
-0.001852
-0.000996804
0.00787003
-0.000917946
4.81928e-06
-0.000757762
-0.00582266
-3.96091e-07
-0.00479279
0.041017
-0.160555
0.113132
-0.116234
0.0257195
0.0511295
0.0290999
-0.511292
0.0576504
0.100932
0.344436
0.168255
0.00134085
-0.0650035
-0.122192
-0.141027
0.040325
0.0256842
0.0836619
0.12097
-0.0803557
-0.0226187
-0.0302856
0.468001
-0.149222
-0.0103829
-0.311966
-0.372787
0.11496
0.0832421
0.182538
-7.2131e-07
-0.00511482
-0.000249767
5.7189e-06
3.93253e-13
0.00100919
-0.00298825
-3.00954e-13
-0.139755
0.0319032
0.00253912
0.0900128
-0.0673025
0.0189168
0.00968763
0.0239933
0.0782975
-0.0214233
-0.00421791
-0.0440514
0.0966108
-0.0108171
-0.0218464
-0.0536813
0.319251
-0.196226
0.101409
-0.284826
-0.374365
0.0596504
0.213708
0.151587
-1.07793
0.146744
0.278073
0.675805
-0.46069
0.26149
0.0514967
0.118415
0.817127
-0.230047
-0.0135851
-0.520157
0.759104
0.044667
-0.595303
0.0859322
0.119868
-0.243791
0.0610343
0.27641
-0.045399
-0.0361709
-0.159997
-0.26665
0.0809446
-0.0315585
0.171714
-1.30051
0.337832
-0.101663
1.03753
0.888026
-0.356872
-0.283357
-0.233113
-0.96357
0.3524
0.380345
0.246013
0.490531
0.036458
-1.18838
0.652456
0.874055
-0.0283354
-0.140598
-0.682068
-0.992684
0.384198
-0.00279962
0.590226
0.26066
-0.178896
-0.0364144
-0.0661034
-0.498173
-0.139102
0.217835
0.358673
-0.19635
0.0984108
-0.0370786
0.193075
-0.178162
-0.112442
0.414946
-0.103884
-0.271431
-0.0384653
0.116522
0.170261
0.781055
-0.174878
-0.429313
-0.199732
0.29828
0.0418911
-0.715973
0.404699
1.03809
-0.314755
-0.0752563
-0.641294
1.04064
-0.377076
-0.392663
-0.265719
-0.266498
0.0425508
0.140273
0.0676936
-0.471022
0.226227
-0.0437182
0.254981
0.470795
0.0660355
-0.134938
-0.339
-0.153991
0.0611165
-0.0152923
0.153055
0.218781
0.0395377
-0.0991109
-0.203904
0.741537
-0.336596
-0.216229
-0.192824
-1.15675
0.419598
0.076993
0.662023
0.449436
0.237057
-0.938691
0.239809
-0.346324
0.00145311
0.28152
0.746849
-0.23502
-0.168698
-0.33972
-0.731827
0.288984
0.260376
0.190297
0.337141
0.0325032
-0.0765576
-0.246357
-0.466194
0.133876
-0.0267715
0.32457
1.11434
-0.0114187
-0.212569
-0.898877
-0.102096
0.46725
-0.355349
0.458036
-0.114168
-0.0553511
-0.276473
-1.35329
0.245223
0.0131982
1.08885
-0.00119581
-0.256275
1.06845
-0.770112
-1.03347
0.394809
-0.200466
0.78641
0.338256
-0.0424326
-1.43219
1.11433
1.0423
-0.09881
-0.177431
-0.749805
0.709211
0.0725648
-0.209448
-0.514097
-1.15267
0.351514
-0.0694854
0.835683
1.22832
-0.102054
-0.176008
-0.942026
-0.368453
0.0806682
0.10742
0.179271
1.29892
-0.0465127
-0.430932
-0.81948
-0.335646
0.106169
-0.0462714
0.225357
-0.841113
0.238749
-0.0109846
0.656231
0.716319
0.160885
-0.343495
-0.583445
1.0864
0.0320794
-0.299276
-0.841471
0.203403
0.0692709
-0.907062
0.655619
-0.244501
-0.135242
0.503483
-0.128938
-0.467776
0.185882
-0.0778887
0.426343
0.290398
-0.0225648
-0.0451998
-0.183311
0.0934823
-0.330085
0.867216
-0.671621
-1.35139
0.182251
0.0989075
1.08265
0.41446
0.0841449
-0.260198
-0.278803
-0.36046
0.214668
-0.0262612
0.211406
-0.501626
0.199351
0.179265
0.128465
-0.0393405
-0.502871
0.361874
-0.064816
0.281741
-0.830213
0.587136
1.09002
-0.191839
-0.0253859
-0.828966
0.521181
-0.20156
-0.395798
-0.419003
-0.107238
0.182057
0.289836
-0.897628
0.394588
0.29506
0.229133
0.802546
-0.303192
0.0697757
-0.598685
-0.692644
0.0196972
0.149304
0.563518
-0.598913
-0.155974
0.275677
0.41423
0.73387
-0.187456
0.0403167
-0.530439
0.46776
-0.118415
-0.118063
-0.226652
0.248229
-0.0392562
-0.032141
-0.143538
0.274503
-0.166848
0.0693614
-0.228231
-0.0526267
-0.0524309
0.375842
-0.264829
-1.02527
0.206016
0.046942
0.765884
-0.45832
-0.0542969
0.158009
0.418217
0.364442
-0.23513
0.111341
-0.303111
0.331988
-0.109694
-0.0434395
-0.16088
0.751152
-0.123544
-0.178125
-0.47557
-0.432133
0.115974
0.0828642
0.258663
-0.2515
0.0881767
0.00568104
0.128436
-0.0133734
-0.045503
0.184301
-0.102406
0.0772352
0.0387688
-0.402327
0.296883
-0.0212954
-0.187635
1.00668
-0.809306
-0.413963
0.206352
0.0880799
0.103528
0.292188
0.0190464
-0.0675832
-0.211507
0.589153
0.0311693
-0.255943
-0.384378
-0.258844
0.0679214
-0.00641404
0.165623
0.24332
-0.0630948
-0.140046
-0.0608316
-0.23699
0.0749091
-0.0146081
0.215539
0.606533
-0.590957
-0.00416982
0.0207084
-0.0711318
0.170403
0.0917392
-0.407587
-0.148994
0.633129
-0.350731
-0.10476
0.412884
-0.139198
0.211646
0.0145983
-0.0380097
0.0782419
-0.39289
-0.010995
0.0415936
-0.0182624
0.129654
0.0254938
-0.0864232
-0.0596518
0.08209
-0.0117867
0.0499464
-0.142197
0.284723
-0.424334
0.193361
-0.0047815
0.0229666
0.199289
-0.341503
-0.0171856
0.0422776
-0.124351
0.110427
-0.474977
-0.0337348
0.0121469
0.0759362
-0.013324
-0.0254543
-0.154012
0.00913742
0.0343087
0.185163
-0.0214943
0.0145198
-0.0832255
0.010383
-0.00524637
0.0525088
0.0027185
-0.0223143
-0.0517863
-0.00724874
-0.0153802
-0.0857516
0.00562885
0.0188127
0.109162
0.0141895
-0.00236878
0.304583
-0.00751617
0.0043067
-0.848743
-0.0272842
0.0728497
0.193694
0.0942647
-0.145861
0.24962
0.0258686
-0.0296051
0.685454
0.0297743
0.0399337
0.321091
-0.0377803
-0.0301115
-0.251036
-0.0905878
0.0235912
-0.22336
0.000721493
-0.00891927
-0.0258223
0.00167229
0.0053838
0.0357448
0.0142679
-0.00722255
0.0550543
0.0263448
-0.0174614
-0.332974
0.0171143
-0.00212551
0.100547
-0.102036
-0.0596904
-0.779978
0.0803231
-0.018386
0.170773
-0.123074
0.158765
0.818649
0.191857
-0.288674
0.480874
-0.22837
-0.100077
-0.998545
0.00412782
-0.00120733
0.0202749
-0.0020495
-0.00457813
-0.0216296
-0.0231797
0.0266407
0.065997
-0.381085
0.279876
0.80567
0.147449
-0.522804
1.11226
0.0348779
-0.0247454
0.169828
0.0495859
-0.0368091
-0.28326
0.415641
-0.408066
-0.972526
0.265053
-0.168903
-0.936772
-0.239687
0.310933
-0.684345
0.0129034
-0.0061063
0.049587
0.250739
-0.275907
0.497331
-0.10543
0.10722
1.28947
0.160132
-0.229443
0.695018
7.89065e-05
-0.00416178
1.92061e-13
0.001899
-0.000310546
0.00245719
-0.00395941
0.000281471
-4.26963e-07
-0.00313897
-0.00564868
-0.000234963
0.0411321
-0.044003
-1.3691
0.391559
-0.388355
-1.0958
0.00534216
-0.0347282
-0.0553984
-0.222884
0.15525
0.846699
0.242695
-0.254034
0.450689
0.00361066
-0.00181746
0.00698866
-0.00808436
-0.00175852
0.000183413
0.531416
-0.163625
-1.30768
-0.261416
-0.0172109
1.01806
-0.146273
0.246352
-0.551483
0.0783814
-0.176435
-0.426076
0.170563
-0.0656775
0.420312
-0.291578
0.204352
0.617349
0.0527526
0.120182
0.699083
-0.0103835
0.0365136
0.152071
-0.0654379
0.0475159
0.165901
-0.000357319
0.00972555
0.0216313
-0.00135532
-0.00461125
-0.0202749
-0.0531707
-0.0493447
-0.42938
0.0385803
-0.0470147
-1.0605
-0.0136939
-0.239662
1.39822
0.0518974
-0.0413707
-0.182613
0.0681489
0.0385226
0.494397
-0.00667258
0.0143095
4.88335e-05
0.119824
-0.0968285
-0.252758
-0.0474085
-0.067031
-0.481027
0.193211
-0.176887
0.680359
0.277053
-0.260974
-1.05903
0.0573472
-0.0574385
0.700402
-0.154092
0.171205
1.05623
0.193431
-0.226666
0.529709
-0.0995218
0.129858
0.390796
0.210305
-0.147247
-0.515033
-0.199851
0.237187
-0.857279
-0.0490767
0.0440284
-0.709611
-0.104254
0.234282
1.33236
0.028419
-0.107408
-0.397499
0.120868
-0.0219123
0.317499
-0.0454519
0.0280825
-0.24415
0.0715906
-0.0731513
-0.144255
0.105302
-0.136553
0.163145
0.0599436
-0.0753243
-0.143134
0.0473973
-0.0364382
-0.356263
0.0433402
-0.0240498
0.14114
-0.0497354
0.171406
-0.560617
-0.0425839
0.0115643
-0.113322
-0.0305914
0.0337117
0.15466
0.0631364
0.0210384
-0.673236
0.01472
-0.00625278
3.88664e-12
0.035465
-0.0241894
0.0921235
0.094169
0.0332423
0.552297
-0.100097
0.0209111
0.947653
0.131084
-0.139832
-0.895772
-0.139409
-0.0194012
0.780745
0.00773436
-0.0192919
0.312289
0.0230819
0.161787
-0.870034
0.0728559
-0.119475
0.128325
0.0353465
-0.0488877
-0.116158
-0.0704836
0.0962017
-0.142747
-0.0043426
0.000307009
-0.0357611
0.00179696
0.00368956
0.0258178
-0.00718187
0.1109
-0.786492
0.0501485
-0.0116336
-0.165339
0.0255533
-0.0504659
0.244237
0.0627361
-0.0787612
-0.370217
-0.0247082
0.00341019
-0.0545101
0.0183111
-0.00394627
0.326127
-0.0335748
0.00461485
-0.0566295
-0.0197082
0.0251042
0.17916
-0.0126701
0.0307976
0.235057
-0.0864892
0.130576
-0.256353
0.0756971
-0.0662038
0.356603
-0.00420238
0.0285094
0.218669
-0.0135237
0.0082349
-0.222435
-0.0294468
0.0355012
-0.235567
-0.0125389
0.00724815
-0.0503688
-0.166807
0.0754782
0.232436
0.0852658
-0.15727
0.253723
0.122575
-0.099373
-0.2531
0.0301065
-0.0382509
0.5543
0.00118084
-0.0081358
-0.0681666
-0.016038
0.00687877
0.0439465
0.0138589
-0.043947
-0.171838
0.00415418
0.0353253
0.138252
0.0448016
-0.00836871
-0.267943
0.0447012
-0.06287
0.10828
0.0688625
-0.0751644
-0.192503
0.00360932
-0.0018017
0.0673551
-0.00450515
-0.00060826
0.0585769
-0.0148635
-0.0130506
-0.131038
0.0356693
0.0656698
-0.743035
-0.00745736
0.0145232
0.055682
0.0316084
-0.0182331
-0.335836
-0.00648813
0.0113571
0.061406
0.0182246
-0.0342585
-0.100549
-0.298874
0.0600524
-1.07966
0.020792
-0.0238268
0.210802
-0.000107987
0.00231623
0.887865
0.0229126
-0.0135593
-0.139762
-0.00783836
8.13169e-06
0.0727769
-0.0795462
0.0738591
0.112259
0.0996819
-0.270131
-0.846007
0.0800277
-0.0241564
0.20839
0.0330751
-0.0777726
-0.189117
-0.132221
0.200683
-0.414188
0.0115356
-0.0352068
-0.0841521
0.0923718
-0.112194
-0.226651
-0.185723
0.193592
0.303938
-0.152352
0.124255
0.410957
0.112787
-0.0389355
-0.337198
-0.125694
0.0846362
-0.300558
-0.210555
0.239418
0.695408
0.0620329
-0.119277
0.475705
0.183594
-0.140098
0.311267
0.0659923
-0.0376813
-0.142939
0.000369893
-0.00320496
6.27303e-13
0.00394217
-0.000912761
0.00740952
-0.0031611
-0.00491028
-4.3656e-06
0.0055589
-0.0298177
-0.138299
0.00348417
-0.00123288
-0.00247788
-0.000218489
-0.00509533
-1.65615e-12
-0.00485751
-0.00353554
0.000603952
-0.00483641
4.01553e-05
5.18876e-07
-0.000681191
0.00279755
-0.00603807
-0.0655203
0.138519
0.325286
0.0422616
-0.00449108
0.108261
0.073315
0.103196
-0.519905
-0.00338555
0.000189301
-3.4556e-13
-0.0465848
0.0232548
0.0930954
-0.0259367
0.0281479
-0.0995653
0.247654
-0.173203
-0.57079
0.185904
-0.119836
0.739713
0.284574
-0.0987794
-1.17472
0.0166526
-0.097832
0.533864
-0.113388
0.0502331
-0.218324
-0.0664878
0.105956
0.22283
-0.308349
0.0845621
0.716702
-0.151367
0.0837552
-0.262307
-0.0897428
0.140076
0.206004
-0.25617
0.262348
-0.526419
-0.376211
0.352336
0.662431
0.306991
-0.320035
0.919865
0.269133
-0.209753
0.934908
-0.0342718
0.276161
0.93613
-0.0143315
-0.126962
-0.54123
0.152835
-0.00494261
0.646519
0.316406
-0.165662
-1.16374
0.244873
-0.0842584
0.752497
0.154267
-0.274872
-0.435464
0.252516
-0.301916
-0.619749
-0.129669
0.0950256
-0.325407
0.161388
-0.0824007
0.470828
-0.180863
0.0957095
-0.329852
-0.115922
0.180447
0.330931
-0.250287
0.127801
0.973305
0.198498
-0.0999998
-0.405836
-0.161611
0.184475
0.584977
-0.210626
0.0940429
1.33497
0.292674
-0.433177
1.20936
0.250488
-0.248838
-1.11321
-0.0454706
0.0395127
-0.681175
-0.0628919
0.0613986
1.06009
0.0419297
-0.0129859
0.139373
0.0286419
-0.0519755
0.178321
-0.0967194
0.0896798
0.742747
0.12465
0.160632
-1.42736
-0.118279
0.103085
-0.496976
0.0191998
-0.0819783
-0.242966
0.0939391
-0.0202463
0.309
-0.130991
0.183389
0.485919
-0.17655
0.304464
-0.678858
0.210129
-0.448931
0.956545
-0.151785
0.233079
1.01528
0.0272864
-0.0919706
0.545464
-0.133064
0.133759
-1.07017
0.0435149
0.130743
-0.54306
0.201852
0.0540045
0.974122
-0.0470078
-0.193851
-1.11175
-0.150285
0.0908701
1.35599
-0.27805
-0.17592
1.50741
0.00772336
-0.0631803
0.805454
0.0076934
-0.0118386
-1.31506
-0.395459
0.383479
-1.08029
-0.0681474
0.0204653
-0.981268
0.074994
-0.0803314
1.14545
0.316095
-0.106982
0.845968
0.138332
-0.334881
-0.99197
-0.281822
0.251276
0.496255
0.0759758
-0.220519
-0.641584
0.207817
-0.0658802
0.618
0.307952
-0.38967
0.714493
0.135661
-0.0784609
-0.68338
0.217093
-0.237882
-0.466599
0.268754
-0.230333
-0.479912
0.125868
-0.169065
-0.334806
-0.107325
-0.109989
0.697958
-0.192004
0.184224
0.336226
0.12222
-0.122014
0.375892
0.121277
-0.114603
-0.284181
-0.105612
0.120756
0.194521
0.0598231
-0.137459
0.406668
0.12419
0.0943026
-0.705534
0.00451766
0.303561
-1.14675
0.33286
-0.354521
0.761514
0.168406
-0.0687331
-0.553519
-0.0490277
0.0749455
0.298665
0.100673
-0.163517
0.603703
0.32713
-0.340648
-0.666807
-0.217451
0.133689
0.891404
0.0791071
-0.0833482
0.19931
0.0445263
-0.0580726
-0.170347
0.126916
-0.0965274
-0.354845
-0.113274
0.0677559
-0.32845
-0.15252
0.180225
0.257924
0.2283
-0.0900598
-0.510809
0.0711771
-0.188225
0.501698
0.274424
-0.35202
0.757239
0.244581
-0.127221
-0.458987
1.81774
0.247044
-1.04082
0.0208248
0.827057
-0.012068
-0.889129
0.587363
-0.641179
0.184002
0.424474
1.73115
-0.684357
-0.743653
1.01706
0.811036
-0.00230878
-0.45037
-0.311259
-0.345665
-5.77613e-15
0.0181211
-0.020565
-0.0181211
0.0156773
-3.24958e-14
8.01233e-15
-0.0200358
2.13881e-14
0.0162064
-2.3245
-0.140441
1.53355
0.0329857
0.512439
-0.307709
-0.202326
0.369536
-0.108132
0.017189
0.155663
0.233292
0.326085
-0.744096
-0.996313
-0.616053
0.691858
-2.16148
1.28616
-0.0541917
0.216806
-0.367433
0.117637
0.0610681
-0.357226
0.671905
-0.00671771
-0.291914
-0.104588
0.441203
0.582275
-0.298114
-0.260924
-0.00385049
-1.07571
2.35946
0.227812
0.283294
-0.301936
0.153819
0.0768878
0.312132
1.41507
-1.08926
1.37576
-0.391285
-0.748621
0.301771
0.390596
0.923529
0.681162
-0.0214087
0.411494
-0.163965
0.505774
-0.307749
-0.227458
0.160509
-0.355899
0.364547
-0.100791
0.367923
-0.19803
0.0157131
-0.406287
0.183227
0.236163
-0.499374
0.300797
0.0905633
-0.198859
-0.2606
-0.207304
-1.16526
2.1296
-0.980781
1.69399
-0.334044
-0.416313
-1.03839
0.000481815
0.216944
0.280173
0.223226
0.29951
-1.67845
0.430142
1.29675
0.841038
-1.43264
-0.0993595
0.974716
0.0596383
1.16558
-0.565018
-0.678968
-0.743992
0.334085
0.701193
-0.0700384
-0.308001
0.241262
0.196397
0.250587
0.00817546
-0.0943878
0.104511
-0.132824
-0.117268
-0.025793
0.821114
-1.47146
0.729451
0.0125439
0.760667
-0.327336
-0.454634
1.05482
-0.583038
0.0124359
-0.217658
0.145829
0.0849143
-0.0114241