/*--------------------------------*- C++ -*----------------------------------*\
  =========                 |
  \\      /  F ield         | OpenFOAM: The Open Source CFD Toolbox
   \\    /   O peration     | Website:  https://openfoam.org
    \\  /    A nd           | Version:  6
     \\/     M anipulation  |
\*---------------------------------------------------------------------------*/
FoamFile
{
    version     2.0;
    format      ascii;
    class       surfaceScalarField;
    location    "1.43";
    object      phi;
}
// * * * * * * * * * * * * * * * * * * * * * * * * * * * * * * * * * * * * * //

dimensions      [1 0 -1 0 0 0 0];

internalField   nonuniform List<scalar> 
11670
(
0.000102162
0.00012044
-0.000331711
0.000110235
-1.08123e-06
1.62813e-07
-3.22998e-07
9.06255e-07
0.000113506
7.22394e-05
-0.000221615
3.61424e-05
1.11838e-05
3.05351e-05
-0.000105631
6.46152e-05
-3.99882e-06
8.33902e-07
-2.79532e-06
6.17436e-06
1.11909e-07
-4.90596e-08
-4.04247e-08
-2.38459e-08
1.12677e-05
-1.95054e-06
2.55721e-06
-1.19516e-05
-3.58348e-06
-7.46557e-07
-5.40893e-07
4.19804e-06
4.4049e-06
7.34407e-07
-3.5723e-07
-4.41085e-06
-5.19385e-06
1.54069e-06
-2.52244e-06
5.67165e-06
9.86037e-06
-1.00483e-06
5.26387e-06
-1.41455e-05
-3.66054e-05
-7.02137e-06
1.62894e-05
2.69127e-05
2.90342e-08
2.2126e-08
2.49341e-07
-1.19697e-07
1.51257e-07
-7.08557e-08
-1.18175e-07
2.64576e-07
-9.93927e-06
-6.29559e-05
7.18158e-05
5.42784e-07
3.61433e-08
-1.48026e-08
1.4249e-07
-5.86767e-08
-0.000146583
2.50722e-05
7.66095e-05
4.45287e-05
-0.000119794
-7.34348e-07
6.38222e-05
5.64857e-05
7.16966e-08
4.13339e-09
1.99904e-07
-1.25548e-07
4.74159e-08
1.13398e-08
-4.65109e-08
6.85435e-08
6.3887e-05
-0.000212432
0.000210829
-6.26223e-05
4.02345e-08
1.64436e-08
-4.11619e-08
4.12194e-08
7.20921e-05
-0.000107351
0.000131755
-9.67879e-05
-5.50424e-05
8.01034e-06
1.33697e-05
3.32424e-05
5.65918e-09
1.52049e-08
1.57552e-07
-5.82599e-08
1.49924e-07
-8.95601e-08
-1.19315e-07
3.96129e-07
7.52489e-06
-7.47649e-05
2.53966e-05
4.11118e-05
2.24231e-07
-5.27897e-08
2.87082e-07
-1.87947e-07
-2.42019e-06
-9.68738e-06
-1.95742e-06
1.3763e-05
-1.54228e-07
1.79628e-07
-1.94055e-07
6.21638e-07
-4.32673e-07
-1.67655e-06
-5.14101e-07
2.32449e-06
2.95955e-07
-8.45537e-08
3.52553e-07
-2.33785e-07
-2.3981e-07
2.73588e-07
-2.41383e-07
7.68501e-07
-2.85756e-07
-2.10914e-07
-4.06323e-09
1.45081e-07
-3.82442e-07
-1.93256e-07
2.83698e-07
-3.25591e-07
4.25389e-07
-3.91325e-07
-2.62493e-07
8.39036e-07
3.22994e-08
1.95406e-07
3.78028e-07
-2.5423e-07
1.5658e-07
-8.95768e-08
5.5973e-07
-2.56781e-07
-2.48935e-07
3.03715e-08
-3.49622e-07
2.57511e-07
1.47006e-07
-2.84623e-07
2.55327e-07
-8.37291e-07
-2.50826e-08
1.58463e-07
3.51621e-07
-2.20833e-07
4.87625e-08
-7.27395e-08
-5.94757e-07
2.1096e-07
-2.60116e-07
3.63017e-07
-2.09869e-07
6.8437e-07
-2.41611e-07
-3.67951e-09
2.00785e-07
-2.67117e-07
1.83956e-07
-8.85861e-08
-1.52648e-07
3.03635e-07
-6.1667e-08
-6.16798e-09
-3.28905e-07
1.54257e-07
1.51668e-08
5.73218e-08
3.6639e-07
-1.54614e-07
-1.66188e-07
6.35107e-08
1.52702e-07
-3.34395e-07
8.07392e-09
4.3658e-08
1.36378e-07
-8.56509e-08
-6.58049e-08
-2.16212e-08
7.75145e-08
-9.54405e-08
-4.05738e-08
8.00953e-08
-8.13985e-08
2.6692e-07
-1.17915e-08
4.61056e-09
-2.50232e-07
8.27621e-08
-3.0456e-09
-1.63967e-09
3.83817e-10
-9.00149e-09
3.21182e-09
-2.08579e-09
1.97663e-08
4.63709e-10
-2.34958e-11
-1.37613e-13
3.1844e-12
2.0384e-11
4.85354e-08
1.06255e-07
-7.41609e-08
6.33926e-08
-6.95642e-08
-5.53139e-08
-9.15755e-08
7.58943e-08
-5.16867e-08
4.66926e-08
3.04581e-07
-9.96269e-08
6.22316e-09
2.09543e-08
8.66564e-08
-2.48233e-07
2.11027e-07
-4.57115e-08
2.72395e-07
-1.87466e-07
-1.55034e-05
5.7533e-07
7.11828e-06
7.49351e-06
-1.56153e-07
1.81527e-07
-1.93558e-07
6.26883e-07
7.48929e-07
-2.57667e-05
1.59065e-05
8.41722e-06
-3.75162e-09
1.01611e-07
2.57977e-07
-1.62021e-07
-1.47721e-07
2.25621e-07
-1.53977e-07
5.11207e-07
5.43106e-08
-4.17597e-08
-5.73924e-07
1.67692e-07
-1.62662e-07
-2.06765e-08
1.5577e-07
-1.95642e-07
-4.89348e-08
2.01171e-07
-2.63085e-07
4.18864e-07
-7.73642e-07
5.20434e-08
5.15935e-07
-1.77605e-07
2.15263e-07
-5.43802e-07
-7.9461e-07
4.99237e-07
1.64115e-07
-2.59166e-07
2.89696e-07
-7.97142e-07
-3.27685e-07
4.82075e-08
-3.47493e-07
2.87258e-07
3.65904e-07
-7.00329e-08
-2.4529e-07
3.23838e-07
-2.97222e-07
2.77523e-07
8.8859e-07
-2.63938e-07
2.86999e-07
-7.92303e-08
3.43842e-07
-2.335e-07
-2.41401e-07
2.72823e-07
-2.41088e-07
7.74948e-07
-2.37719e-07
-2.78648e-06
2.08364e-06
5.71708e-07
-4.61912e-06
7.25029e-07
1.0532e-06
2.23035e-06
-2.58382e-07
-7.46859e-08
-2.30266e-07
2.00875e-07
-2.41054e-09
2.25034e-07
2.40796e-07
-1.76605e-07
-2.41196e-07
3.30622e-07
-2.78555e-07
7.70401e-07
-6.02025e-08
1.24827e-07
2.28512e-07
-6.39724e-07
6.48372e-08
-1.43102e-08
-1.38783e-06
-0.000228512
7.75459e-05
0.00026487
-0.000212161
5.9499e-05
0.0002556
-7.98408e-07
9.07211e-07
1.1052e-05
-6.93432e-07
1.2067e-07
-3.28535e-06
7.10505e-09
1.12922e-08
7.61825e-08
9.29236e-07
-1.31985e-06
-3.6857e-06
-5.54832e-05
1.16571e-05
5.55821e-05
-6.90143e-07
1.6523e-06
3.74189e-06
-1.05089e-07
2.05394e-07
-5.68524e-06
-1.06388e-06
9.02339e-07
9.90288e-06
-1.619e-07
-6.22333e-07
6.79458e-06
-5.81715e-06
2.4368e-06
2.52912e-07
2.35324e-07
-2.84964e-06
-1.75821e-10
-1.85956e-08
-4.34786e-08
2.16346e-08
1.4973e-07
-3.34274e-09
-8.27342e-07
5.93499e-07
-2.84383e-07
1.09458e-06
8.67488e-07
-1.7898e-06
-3.2673e-06
4.67727e-05
-3.30986e-05
-1.0657e-05
3.79352e-07
-1.52098e-06
-1.07464e-06
2.31163e-06
4.46174e-07
6.21976e-07
-1.906e-06
9.16979e-07
1.32511e-06
6.79518e-06
-5.47804e-06
-2.89456e-08
-1.55757e-08
1.58939e-07
-1.04054e-07
-1.16088e-08
-1.54649e-07
1.02072e-07
-5.91825e-08
7.24673e-07
-4.52498e-05
2.1577e-05
2.31059e-05
-1.09428e-07
-1.95704e-07
1.60694e-07
2.03226e-07
-3.12951e-07
2.40445e-07
-1.10783e-07
-5.06794e-05
2.29121e-05
2.8649e-05
-7.01865e-08
1.92916e-07
-1.40018e-07
-4.13268e-07
2.20073e-06
-1.32163e-06
2.42813e-07
-1.76785e-06
1.13842e-06
-1.38355e-08
-4.55963e-08
1.94513e-08
3.53201e-05
-2.37468e-05
-1.5093e-05
1.88788e-06
6.89475e-07
-2.06453e-06
3.82012e-07
3.19257e-07
-6.38349e-07
-2.49353e-07
1.00118e-07
-1.34341e-07
3.01048e-07
-4.04459e-07
-1.43525e-07
3.16104e-07
-3.17542e-09
4.78662e-08
-4.0731e-09
-3.78166e-07
-7.15218e-07
-3.66974e-09
3.78164e-07
-6.82658e-07
-0.000105378
-5.88801e-05
0.000165384
-8.21968e-05
-6.31171e-05
0.000145073
1.67789e-07
1.68763e-07
-2.58729e-07
1.53017e-09
4.35834e-07
1.70243e-07
-3.58935e-07
1.14979e-06
8.52686e-07
2.18662e-06
-4.01981e-06
3.49494e-06
2.04501e-06
-4.22087e-06
1.70996e-06
3.50381e-07
2.04352e-06
-4.39365e-06
3.21159e-06
2.01614e-06
-3.80755e-06
-7.29292e-07
9.26265e-07
6.57548e-07
-1.10813e-06
-9.52736e-08
6.49025e-07
-1.53665e-06
1.78268e-06
-2.77976e-06
-1.44656e-06
2.58648e-06
3.75421e-07
-1.4348e-06
2.98488e-06
4.06356e-10
-7.34386e-08
6.80099e-11
-3.65697e-09
-7.97519e-08
5.93423e-11
3.47766e-09
2.47762e-06
-2.31345e-06
2.44013e-06
-1.26244e-07
-4.96822e-07
-1.94603e-06
-3.52886e-06
2.32435e-07
3.87026e-07
2.75441e-06
-9.00261e-05
-0.000280425
0.000133545
0.000237399
-2.53766e-06
1.37927e-07
2.63922e-07
1.97758e-06
-0.000151011
-0.000212132
0.000147078
0.000216696
1.43837e-06
-7.70069e-08
-2.71671e-07
-1.2136e-06
-1.41295e-06
6.19145e-08
1.45494e-07
1.05233e-06
4.7099e-07
-3.56574e-08
-9.9677e-08
-4.48278e-07
-5.0735e-05
-0.00026118
8.45985e-05
0.000227723
-9.77706e-05
-0.000223382
8.37191e-05
0.000237949
-1.27895e-05
-0.00021373
0.000119954
0.000107111
-0.000137592
-0.000218994
0.000170892
0.000186348
-5.8745e-05
0.000130193
-0.000192764
0.000122196
-0.000128745
0.000159874
-0.000244991
0.000215034
-7.56978e-06
1.07753e-06
3.72548e-07
5.70814e-06
4.17576e-06
-3.27164e-07
-7.12397e-07
-3.49202e-06
-9.9707e-06
-0.000189429
0.000118001
8.19243e-05
1.05066e-05
-1.35802e-06
-8.63489e-07
-8.49309e-06
-1.02271e-05
1.07366e-06
1.21064e-06
7.77234e-06
-4.19599e-06
1.9792e-07
8.67283e-07
2.77839e-06
-6.19883e-05
-0.000182135
0.000109594
0.000135437
-2.57919e-05
4.49141e-05
-5.60291e-05
3.7159e-05
-2.09696e-05
9.19169e-06
-1.72138e-05
2.91338e-05
-1.48133e-05
3.0404e-06
-1.3102e-07
1.14033e-05
2.92653e-06
7.46301e-06
-1.72167e-05
7.48755e-06
-4.40711e-05
-0.000105568
7.75767e-05
7.28144e-05
-1.79797e-06
1.53294e-05
-2.7948e-06
-1.09272e-05
-9.54029e-06
2.31206e-06
1.42378e-06
5.39241e-06
-6.39045e-06
1.98523e-06
-7.36434e-07
4.35897e-06
2.72609e-06
4.34373e-06
-1.75074e-05
1.03187e-05
-3.79559e-05
5.58784e-05
-9.49365e-05
7.73498e-05
-1.1476e-05
2.64327e-06
4.78512e-07
7.92264e-06
1.08221e-05
1.60376e-07
-2.81731e-06
-8.64922e-06
-2.34474e-05
1.14208e-05
-2.01524e-05
3.24996e-05
1.24021e-05
-4.44606e-06
-1.33286e-06
-7.0183e-06
3.05035e-06
6.97585e-07
-1.57223e-06
-3.0706e-06
-7.34629e-06
-6.29354e-06
3.42155e-06
1.09769e-05
9.37287e-06
-6.57445e-06
-2.22328e-06
-4.229e-07
1.06498e-05
2.84821e-06
-7.29268e-06
-5.52696e-06
-8.25e-06
2.52828e-06
1.8906e-06
3.7029e-06
-8.5064e-06
2.37873e-06
-8.30473e-07
6.3927e-06
4.3372e-06
-2.19383e-06
-1.90997e-07
-1.67747e-06
-5.57798e-06
1.70156e-06
-7.30119e-07
3.90545e-06
-4.96565e-05
3.59916e-05
-9.4816e-05
0.000108753
-2.9537e-05
-6.59337e-06
9.75257e-06
2.65101e-05
-3.91057e-05
-5.03315e-05
2.2214e-05
6.79432e-05
-1.81564e-07
-2.28832e-06
8.27254e-06
-6.29e-06
2.37866e-06
-9.11109e-08
-1.13556e-06
-1.64398e-06
2.93575e-06
5.03492e-08
-6.7119e-07
-2.08745e-06
-9.55662e-07
3.20897e-07
-5.74574e-08
9.27927e-07
6.92514e-06
9.21246e-07
-2.41429e-06
-6.09747e-06
-8.38563e-06
3.92e-06
-3.61083e-06
8.7111e-06
2.86225e-06
6.21542e-07
-1.41497e-06
-2.87566e-06
3.47639e-06
-8.09625e-07
-1.69291e-06
-9.13879e-07
-2.32037e-06
9.97455e-07
8.12216e-07
6.12609e-07
7.84487e-08
-6.39513e-07
3.69778e-07
-6.95247e-11
2.46294e-08
-1.87859e-08
7.61811e-11
2.38984e-08
-2.97672e-08
-3.16937e-11
4.95193e-11
3.97509e-08
-5.568e-07
3.29478e-07
-4.80474e-07
-1.51512e-06
7.1296e-06
-5.0985e-06
-5.33555e-06
9.87984e-07
5.28427e-07
3.88535e-06
-4.29656e-11
-1.22198e-08
4.83787e-08
1.0854e-10
-6.73176e-11
2.09204e-08
-5.85105e-09
1.52119e-10
-2.67152e-07
4.0061e-10
3.02917e-08
1.47306e-07
-9.3401e-07
2.2438e-07
2.66714e-09
4.46044e-07
-3.56396e-07
-7.33686e-10
2.60689e-08
1.99448e-07
-0.000149754
-0.000236406
6.99508e-05
0.00031657
-8.12811e-05
-0.000266113
8.43883e-05
0.000263237
-2.75371e-09
-7.43708e-08
3.98821e-08
4.96913e-10
-4.58359e-11
5.07595e-08
-9.02495e-10
1.93717e-10
3.3207e-11
4.01903e-09
6.5206e-08
1.04262e-10
6.72729e-08
-1.33028e-07
6.59857e-10
-2.70124e-09
-1.95999e-06
6.18334e-08
5.02353e-07
1.43426e-06
7.09034e-06
-2.34823e-07
-2.67791e-06
-4.21529e-06
-3.55912e-07
-1.53212e-07
2.00643e-06
-1.48691e-06
-7.98718e-06
3.17543e-07
1.70466e-06
5.69513e-06
1.05813e-05
-5.11059e-06
-2.68701e-06
-2.66355e-06
-2.28874e-06
3.33187e-07
4.94011e-07
1.27156e-06
1.16129e-05
-4.07137e-06
1.35551e-06
-8.34644e-06
2.84745e-06
-1.66747e-07
-9.1397e-07
-1.93826e-06
4.57398e-06
-1.77857e-06
-5.31635e-07
-2.03135e-06
-4.35137e-06
-5.00322e-07
1.20965e-06
3.04542e-06
-5.75221e-09
-1.54333e-07
7.40045e-08
6.28065e-10
7.93494e-10
7.97114e-08
-1.78085e-07
-5.27674e-09
-2.4559e-08
9.8579e-08
-1.11391e-09
-2.59538e-08
1.79767e-06
3.23358e-07
-5.50212e-07
-1.35022e-06
-8.36388e-07
-6.20659e-07
5.3644e-06
-4.10633e-06
-6.929e-06
9.48211e-07
7.23569e-07
5.07001e-06
-2.12207e-06
8.48226e-07
-2.47798e-07
1.7661e-06
-8.77739e-06
2.00595e-06
4.52725e-06
2.47207e-06
-2.03827e-06
-1.37907e-07
7.088e-06
-5.25436e-06
1.57651e-06
-8.75343e-07
2.49422e-07
-2.19428e-07
-6.91561e-06
-1.3589e-06
2.76962e-06
6.0322e-06
4.90939e-05
-0.000192336
0.000104576
3.90281e-05
-3.47599e-06
3.027e-07
4.03903e-07
2.69466e-06
4.02712e-06
-1.39965e-07
-7.63579e-07
-3.21774e-06
-2.18504e-06
2.57427e-07
1.18915e-06
1.02345e-06
2.38409e-06
-1.07502e-06
3.94849e-07
-2.40061e-06
4.1153e-07
7.72819e-07
-4.64104e-06
3.32025e-06
6.48123e-06
-9.38982e-07
-4.611e-07
-5.23028e-06
-7.93656e-06
6.28369e-07
7.53339e-07
6.39707e-06
1.1281e-05
-1.99326e-06
-9.27687e-07
-8.42612e-06
1.93579e-05
0.000107076
-0.000176737
5.04867e-05
9.95412e-07
1.69531e-06
-1.07851e-05
8.05915e-06
0.000177266
-0.000208428
-0.000125968
0.000157367
9.25277e-06
-2.38015e-06
-6.9594e-06
-4.07073e-06
2.68753e-08
8.94067e-07
2.84634e-06
-3.05372e-06
-9.3369e-07
1.37043e-05
-9.68694e-06
5.21399e-06
-1.38319e-06
4.10093e-07
-3.78273e-06
1.77759e-06
-2.26568e-07
-3.76687e-07
-4.65017e-07
4.37175e-06
-1.03711e-06
-3.30849e-07
-3.1822e-06
-5.34457e-06
-3.03462e-07
4.46065e-06
3.59376e-06
-1.03074e-06
-6.98421e-08
-2.82915e-06
-1.30173e-05
8.41693e-07
2.58385e-06
9.66785e-06
-1.78757e-06
-3.31713e-07
7.78482e-07
1.78414e-06
-1.23759e-06
1.22136e-07
6.38199e-07
-7.27874e-06
3.24718e-06
-1.0092e-05
1.47052e-05
-1.5325e-05
6.55455e-07
3.02472e-06
1.16392e-05
-1.48412e-06
1.92726e-07
-3.39271e-08
7.48161e-07
-1.41437e-05
2.38438e-07
3.04702e-06
1.09432e-05
-1.07211e-06
2.16261e-07
7.00544e-08
4.93762e-07
1.58599e-05
-3.01698e-06
-9.51461e-07
-1.19423e-05
-1.38697e-06
-6.06335e-08
1.2518e-07
7.05187e-07
9.10979e-05
-7.61148e-05
-3.17242e-05
1.75373e-05
-1.1082e-05
-6.68914e-08
2.68058e-06
8.58326e-06
1.64414e-05
-2.9621e-06
-3.82392e-07
-1.30561e-05
-2.77625e-06
2.7756e-08
1.0666e-06
1.70079e-06
-3.79345e-05
-1.56724e-05
3.92419e-06
4.97208e-05
-5.89164e-05
-2.35405e-05
7.55018e-06
7.5012e-05
2.8825e-06
-1.18002e-07
-1.0585e-06
-1.7858e-06
-6.66919e-05
-6.22843e-05
6.55441e-06
0.000122622
-4.80275e-06
1.65935e-06
5.62013e-07
2.2717e-06
2.90202e-07
8.95682e-07
-2.17624e-06
1.05509e-06
2.14107e-06
-6.06225e-07
-4.7723e-07
-1.03804e-06
-8.71226e-05
1.77993e-06
-5.7375e-05
0.000142667
-8.89525e-05
-9.80506e-05
1.44742e-05
0.000172512
9.93663e-08
-1.88706e-07
6.42029e-11
1.67983e-11
-1.645e-10
-1.87585e-07
1.11611e-07
2.89844e-10
-1.9459e-06
4.47541e-07
4.57336e-07
9.85868e-07
1.82372e-06
-3.46319e-07
-6.67985e-07
-9.2716e-07
1.27945e-05
-2.49191e-06
-6.03362e-08
-1.01649e-05
-1.73625e-05
6.23323e-06
-2.88652e-06
1.39826e-05
8.11371e-07
-1.19324e-07
5.23873e-08
-6.53798e-07
-8.97804e-07
-4.33895e-08
2.95896e-07
7.47858e-07
7.16545e-06
-1.26984e-06
-5.29459e-07
-5.43348e-06
6.14055e-07
9.78289e-07
-8.01532e-06
6.36401e-06
6.24072e-06
-1.58769e-06
-2.93471e-06
-1.6401e-06
1.90467e-06
-9.02479e-07
-3.29138e-07
-4.75947e-07
-4.01644e-05
-0.000125975
2.50907e-05
0.000140265
-3.39047e-07
-3.46885e-07
1.34899e-06
-6.53963e-07
-6.36747e-07
-2.09325e-08
3.10012e-07
4.08307e-07
5.34368e-07
1.8638e-07
-1.31874e-06
6.39398e-07
-2.31514e-06
1.17499e-06
2.77621e-07
1.02095e-06
-8.79201e-07
-1.2255e-09
2.79069e-07
6.61374e-07
-1.57745e-06
3.097e-07
1.09064e-06
3.93873e-07
-1.20003e-07
-5.51808e-08
9.16075e-07
-6.94798e-07
0.000212643
-6.28833e-05
6.75086e-05
-0.000217437
-1.73602e-05
2.44272e-05
-3.44085e-05
2.67734e-05
-4.63464e-06
2.11016e-06
1.4479e-06
1.22226e-06
-2.38944e-05
2.57626e-05
-5.46153e-05
5.23346e-05
-2.39375e-08
4.05669e-07
-8.79684e-07
5.51235e-07
-2.59964e-06
3.0257e-07
9.1184e-07
1.55756e-06
-7.68059e-06
2.93037e-06
4.02865e-07
4.42932e-06
8.64693e-07
-2.1385e-07
-7.36374e-08
-4.82162e-07
2.2914e-06
-3.14939e-07
-8.45451e-07
-1.01006e-06
-0.000259769
9.92012e-06
-0.000217798
0.000467403
2.77314e-06
-5.14503e-08
-6.01477e-07
-2.12326e-06
-0.000169072
-0.000162275
0.000143519
0.000188033
-0.000211872
0.000122235
2.81348e-05
6.1784e-05
-0.000229027
-0.000200913
2.32857e-05
0.00040632
-7.72115e-05
2.43503e-05
-4.67772e-05
9.89685e-05
-8.36541e-05
-0.000289656
7.02326e-05
0.000302709
4.56261e-07
-5.19394e-08
-1.28824e-07
-1.94424e-07
-0.000163096
-0.000205444
8.92411e-05
0.000278989
-2.15644e-06
2.33157e-07
1.07981e-07
1.83985e-06
-8.08774e-06
0.000102775
-0.00018669
9.13134e-05
0.000107488
-0.000132808
8.25535e-05
-5.70756e-05
-0.000129726
0.000140541
-0.000234649
0.000223018
-9.37652e-05
-0.000147015
8.78277e-05
0.000152741
-0.000123184
-0.000133832
6.60942e-05
0.000190074
1.84053e-06
-2.35649e-08
-6.30717e-07
-1.1611e-06
1.66736e-06
9.94597e-08
-3.69934e-07
-1.06687e-06
-8.49215e-06
4.73172e-06
-7.03695e-07
4.76055e-06
-7.23934e-05
2.37257e-05
-5.27018e-05
0.000101102
9.01413e-07
-3.20805e-07
-1.85257e-06
1.73033e-06
2.69347e-06
-4.05171e-07
-9.36044e-07
-1.89181e-06
2.0163e-06
9.13004e-08
-6.06551e-07
-2.03755e-06
-3.61798e-06
7.47235e-07
-4.68073e-07
4.06933e-06
-4.41352e-08
1.43168e-06
-1.32187e-06
-7.3013e-05
-0.000106786
0.000135147
-2.19142e-06
3.87485e-07
1.55711e-06
-0.000132864
-2.42687e-05
0.000107189
7.70192e-06
7.51447e-07
-3.90132e-06
-4.20525e-06
-2.40307e-06
1.53985e-06
-8.2645e-07
2.43298e-06
-0.000154829
-0.000128967
6.50912e-05
0.000218579
-3.46286e-06
-1.66115e-06
1.6353e-05
-1.13557e-05
-7.46799e-06
2.08693e-06
-2.53807e-07
5.76688e-06
-1.12623e-05
3.03287e-05
-7.51437e-05
5.49487e-05
-1.39093e-05
2.71205e-06
1.6967e-06
9.07589e-06
6.72904e-06
3.22111e-07
-2.49879e-06
-3.8802e-06
-9.23044e-06
3.77093e-06
-5.13221e-07
5.56832e-06
1.0143e-05
-5.97303e-06
-2.77967e-06
-9.48583e-07
2.88991e-06
3.91351e-07
-8.78958e-07
-2.01525e-06
-4.74703e-06
9.40177e-07
-2.56865e-09
3.31932e-06
-3.60148e-06
1.65463e-06
-7.56777e-07
3.1661e-06
-6.89999e-07
1.94771e-08
1.13849e-07
5.00503e-07
4.25992e-07
-4.556e-08
-5.53792e-08
-4.22382e-07
-8.86964e-05
-0.000240869
3.34754e-05
0.000296297
-3.39957e-05
9.14563e-06
-2.86148e-05
5.27287e-05
-9.68426e-05
-0.000279936
0.000105604
0.000271228
3.15158e-06
-5.86787e-07
-1.91343e-07
-1.99497e-06
3.58086e-06
-2.56901e-07
-1.15639e-05
8.46895e-06
-4.61244e-06
5.66688e-07
1.78046e-06
2.69811e-06
-5.32632e-06
2.4981e-06
-9.03982e-07
4.23954e-06
-5.84856e-06
1.14798e-06
7.52468e-07
3.47028e-06
4.33073e-06
1.06009e-06
-1.77655e-06
-2.94579e-06
-4.45712e-05
-2.47702e-05
1.64314e-05
5.24982e-05
-5.18615e-06
-9.41122e-07
2.60369e-06
4.14262e-06
-9.31582e-06
-9.60275e-07
2.83791e-06
7.86858e-06
4.87285e-06
-2.83685e-06
-1.88671e-06
-9.63819e-07
-1.3241e-05
2.46869e-06
2.56201e-06
8.38367e-06
1.37671e-05
-2.15767e-06
-1.88884e-06
-9.94076e-06
-1.52025e-05
1.29476e-06
-3.27013e-06
1.65038e-05
8.52152e-06
2.06939e-07
-1.87243e-06
-6.75218e-06
-4.30216e-05
3.2037e-05
-7.30923e-05
8.29744e-05
-1.8058e-05
1.0801e-06
2.90047e-06
1.4011e-05
-8.19164e-06
1.31422e-05
2.96018e-05
4.06241e-07
2.8536e-06
-3.82759e-06
9.77936e-07
3.8224e-06
8.95279e-07
-1.42878e-06
-2.87022e-06
1.25797e-05
-1.51394e-07
-3.1329e-06
-9.13872e-06
-6.01801e-05
4.21101e-05
-6.16358e-05
7.93572e-05
8.25165e-06
-7.02028e-07
-3.04484e-06
-4.73617e-06
8.6704e-06
-2.80982e-06
-3.85422e-06
-2.27756e-06
-1.22963e-05
-1.13977e-06
3.7462e-06
1.00177e-05
-1.17903e-05
2.33103e-07
3.00312e-06
8.0508e-06
1.1966e-06
-2.57836e-06
6.56173e-06
-4.67088e-06
-1.29484e-05
-3.1363e-06
8.91498e-07
1.4298e-05
-3.49005e-06
1.36766e-06
9.38742e-06
-6.58402e-06
1.13861e-05
-3.21689e-06
5.71501e-07
-8.39942e-06
-8.56144e-06
4.01608e-06
-1.84396e-07
5.24227e-06
-8.81399e-06
1.84402e-05
-6.05367e-05
5.03287e-05
-4.0294e-06
3.1351e-07
5.49265e-07
2.62319e-06
4.04685e-06
7.06352e-08
-1.48339e-06
-2.58524e-06
1.48959e-06
-1.62329e-07
-3.28711e-07
-1.15968e-06
-1.76188e-06
2.27232e-07
2.09815e-07
1.20212e-06
-1.25012e-06
3.92525e-07
1.9335e-07
8.74076e-07
-5.18716e-11
2.72454e-10
5.74714e-08
9.32124e-11
1.02695e-07
5.95437e-08
-1.71228e-07
-3.38724e-08
-2.07521e-07
-6.48688e-07
1.80062e-06
-9.62038e-07
7.39705e-09
6.73467e-08
-5.93809e-08
1.29819e-11
3.66958e-08
-3.08584e-09
5.60342e-11
-2.15256e-06
7.58513e-07
-4.18973e-08
1.58842e-06
-7.22577e-08
-5.92038e-08
1.56616e-07
-8.59125e-08
2.19579e-08
1.18017e-08
-9.33098e-08
1.08978e-08
-1.13131e-10
9.0497e-09
6.89364e-08
9.8157e-11
5.68569e-08
-4.86373e-07
1.90366e-06
-1.34136e-06
1.37817e-06
-3.04946e-07
-6.06249e-07
-3.45022e-07
6.06237e-06
-6.83559e-07
-1.19674e-06
-4.08396e-06
-1.99499e-06
-1.5898e-08
7.70743e-07
1.44883e-06
1.67219e-06
-4.78077e-07
-3.0472e-07
-9.9189e-07
-1.43435e-06
9.5278e-07
2.68173e-07
3.5911e-07
-5.54906e-06
1.76931e-06
1.2311e-07
3.69897e-06
4.4195e-06
-1.36334e-06
-9.87041e-07
-2.16343e-06
1.58595e-11
6.07026e-08
2.83391e-09
-4.35786e-12
-6.80168e-11
-1.19417e-08
3.53853e-08
8.98813e-11
1.65707e-06
-3.78275e-07
-3.01076e-08
-1.06728e-06
7.97993e-07
-2.24298e-07
-1.14863e-07
-2.84477e-07
-9.28673e-07
2.53979e-07
5.01095e-08
5.22557e-07
-1.14572e-06
1.28284e-07
2.59024e-07
6.36692e-07
-3.78534e-06
2.32664e-06
-1.2024e-06
3.37717e-06
4.40732e-06
-6.21011e-07
-2.52968e-06
-1.85719e-06
1.08701e-05
-1.43245e-06
-6.00723e-06
-3.72589e-06
5.46239e-06
-3.10048e-06
-6.10594e-07
-1.40404e-06
-1.06372e-05
2.05191e-06
3.55107e-07
7.58078e-06
-3.06852e-05
1.56081e-05
6.10013e-05
-1.02008e-06
-1.42115e-06
2.89072e-06
-7.22735e-07
-3.29759e-06
5.35013e-07
4.35025e-07
1.91421e-06
3.16165e-06
-9.59757e-07
3.74189e-07
-2.03601e-06
1.542e-05
-4.00567e-06
1.20542e-06
-1.2302e-05
-1.05293e-05
4.23142e-06
3.35976e-06
2.76401e-06
1.1425e-05
-4.17839e-06
-4.50974e-06
-2.91696e-06
-5.81621e-06
-4.32281e-07
1.40905e-05
-7.73614e-06
-4.97185e-05
4.0818e-05
-7.26752e-05
8.09337e-05
1.17702e-05
-4.55543e-06
3.3196e-08
-6.99828e-06
-3.09064e-06
2.12117e-06
4.31759e-07
7.83791e-07
5.90681e-06
1.64933e-06
-2.58287e-06
-4.25277e-06
2.32812e-06
-1.16685e-06
4.39639e-07
-2.28928e-06
2.11212e-06
1.33394e-06
-4.92371e-06
1.23504e-06
3.21834e-06
4.56084e-07
-1.3816e-06
-2.01877e-06
-1.01407e-05
2.26898e-06
4.52952e-06
3.62531e-06
-3.53669e-06
-4.96701e-07
8.48926e-06
-4.7985e-06
-1.23086e-05
3.73204e-06
8.9231e-07
7.60379e-06
-1.23388e-05
4.47098e-06
4.65579e-06
3.15062e-06
3.15985e-06
-5.04519e-07
-1.66322e-06
-8.02632e-07
2.73184e-06
-1.31719e-06
-3.71142e-06
2.73085e-06
-5.5822e-06
-7.8298e-07
1.59995e-06
4.01951e-06
1.82587e-06
-7.24656e-07
1.8132e-07
-1.81477e-06
-4.2765e-05
9.16638e-06
-4.10484e-05
7.53946e-05
-8.7966e-06
3.98994e-06
2.56521e-06
2.29023e-06
1.37155e-05
-4.97515e-06
-9.12903e-07
-7.84958e-06
-5.35984e-06
-3.36301e-06
1.11111e-05
-2.23456e-06
4.10635e-06
-1.72295e-08
-3.33797e-06
-8.85536e-06
2.78663e-06
2.00025e-06
4.02805e-06
8.67789e-06
-3.42934e-06
-3.08681e-06
-2.25459e-06
-3.99746e-06
-3.85389e-07
9.07741e-07
2.92105e-06
-2.66987e-05
3.7709e-06
-3.01639e-05
5.36551e-05
-2.26079e-05
1.03714e-06
-1.51318e-05
3.68785e-05
1.21054e-06
-5.54016e-06
4.21336e-06
-5.43091e-06
1.35369e-06
6.56296e-07
3.27813e-06
1.06693e-05
1.09468e-06
-2.47758e-05
1.31617e-05
-8.69916e-08
3.07528e-06
-1.27938e-05
9.31984e-06
1.22538e-05
-4.68124e-06
2.37692e-06
-9.32443e-06
-4.01069e-06
5.03122e-07
1.69814e-05
-1.32126e-05
-1.23673e-05
1.16532e-06
2.10645e-06
8.90281e-06
-8.58107e-06
-1.0955e-06
2.56597e-06
6.41756e-06
1.36672e-05
-4.16789e-06
8.23885e-07
-9.90866e-06
-2.71628e-05
8.76663e-07
-1.79665e-05
4.41911e-05
4.36874e-06
-9.56479e-07
-1.27368e-06
-2.12561e-06
-1.60639e-05
7.03101e-07
4.76297e-06
1.05769e-05
3.97975e-06
-1.25884e-06
5.48638e-07
-2.67205e-06
1.00026e-05
-3.009e-06
1.73125e-07
-7.67703e-06
-8.49337e-06
-1.9076e-06
4.0728e-06
6.91788e-06
-1.28814e-05
-3.80365e-07
3.54851e-06
9.97729e-06
-2.42046e-06
-8.18932e-07
1.07553e-05
-7.76766e-06
2.89886e-06
1.60388e-06
-5.97052e-06
1.52941e-06
5.59239e-06
-2.58806e-06
1.04342e-06
-4.84338e-06
-3.51509e-06
2.38943e-07
5.50712e-07
2.2587e-06
-1.10842e-06
3.91381e-06
-1.02825e-05
7.96339e-06
6.98876e-06
8.27955e-07
-2.174e-05
1.38089e-05
-4.91424e-06
-9.97702e-07
3.08515e-06
3.30576e-06
4.28092e-06
-2.58207e-06
3.20059e-07
-2.48592e-06
5.9477e-06
-2.3644e-06
-2.12539e-06
-1.5226e-06
4.66459e-07
5.96252e-06
-4.29073e-06
7.68521e-07
-3.34059e-06
9.8438e-06
-6.96165e-06
-3.13951e-05
7.60152e-06
-2.22554e-05
4.54645e-05
-6.17962e-06
2.38989e-06
4.69296e-06
4.96811e-06
1.27152e-06
-2.15864e-06
-3.43658e-06
1.02843e-05
-5.00303e-06
-3.38579e-06
-2.14856e-06
-9.51576e-06
3.59493e-06
-8.27328e-07
7.09858e-06
-2.20685e-06
3.39969e-07
-2.7101e-05
2.84043e-05
7.10129e-06
1.84938e-06
-3.2687e-06
-4.9115e-06
-1.05668e-05
3.02252e-06
-3.08806e-06
9.94569e-06
-5.54709e-06
1.40434e-06
1.3995e-06
2.68835e-06
-3.50803e-05
9.00639e-06
-9.32252e-06
3.48921e-05
-3.25477e-06
1.97831e-06
-8.22415e-07
2.70612e-06
6.23633e-07
6.21982e-07
-4.45673e-06
3.14051e-06
1.21566e-05
-2.44273e-06
-5.56589e-07
-9.08106e-06
5.59144e-06
1.37017e-06
-6.26744e-06
-1.48375e-06
-4.32117e-06
2.78793e-06
-1.32017e-06
3.59398e-06
-3.93871e-06
1.30129e-06
5.13979e-07
1.9103e-06
-8.90638e-06
1.46486e-06
2.11202e-06
5.63881e-06
5.1241e-06
-1.37729e-06
-9.8204e-07
-3.06558e-06
2.98203e-06
-1.04551e-06
-6.73599e-08
-1.52286e-06
1.56886e-07
5.41094e-07
-2.1921e-06
1.22112e-06
-9.1632e-07
-4.59435e-07
4.77048e-06
-3.51993e-06
2.52498e-07
2.22478e-06
-1.19362e-05
9.59591e-06
4.90834e-06
-2.4467e-06
-1.04436e-06
-1.22752e-06
-3.46513e-06
-2.26894e-07
8.01976e-07
2.5089e-06
-6.98557e-06
-3.69573e-07
3.0347e-06
4.55755e-06
3.0691e-06
-8.05342e-07
7.60509e-08
-1.96378e-06
-2.88503e-06
7.48113e-07
1.66052e-06
7.21278e-07
2.81033e-06
-8.90138e-07
1.7395e-07
-2.55481e-06
-7.18949e-06
7.00646e-06
4.94452e-08
-2.45521e-07
8.43407e-07
-2.02046e-06
-1.08775e-06
4.83274e-06
7.64617e-06
7.26907e-05
-0.000113988
1.2434e-06
-4.90648e-06
1.65046e-06
-2.50948e-06
-1.73088e-07
4.50905e-07
1.34047e-05
-7.36204e-05
1.30367e-07
-4.93174e-07
2.16537e-07
-1.5373e-06
-3.02169e-07
1.02418e-06
1.19927e-05
-9.40064e-05
1.39759e-07
-5.92068e-07
1.68602e-06
-3.37595e-06
5.02596e-06
-2.2934e-06
5.66918e-08
-2.72266e-07
2.37626e-05
3.84638e-05
-8.66205e-05
-5.01284e-07
1.47442e-06
-1.30933e-06
5.63178e-06
0.00027115
-0.000425335
0.000142304
1.57982e-07
3.01811e-07
1.82612e-06
-1.08342e-07
-4.06797e-07
-2.19548e-06
0.000293195
-0.000436158
-6.9975e-06
-0.000352602
0.000147333
0.00011584
-0.000289475
0.000137079
5.5222e-05
8.5948e-08
1.82362e-07
1.01675e-06
-6.6741e-08
-2.23061e-07
-1.29433e-06
-1.68244e-07
2.80865e-08
-3.61143e-06
8.91189e-08
-5.10644e-08
1.00635e-05
0.000170957
-0.000299347
0.000119168
-0.00035571
0.000277122
2.14661e-05
-3.06723e-07
3.51026e-07
-8.1274e-06
-3.53032e-07
-4.73492e-07
-3.80716e-06
4.4796e-07
3.57031e-07
2.97652e-06
0.00021298
-0.000322728
-1.80023e-05
-0.00032007
7.48704e-05
9.58807e-05
-1.98283e-08
-6.38355e-08
-4.23825e-07
-0.000307745
0.000262335
9.50839e-05
-3.12369e-07
2.0704e-07
3.94806e-06
-2.02923e-07
2.52021e-08
-1.19218e-06
1.20984e-06
7.07746e-07
9.24816e-06
-0.000229941
0.000176598
7.3036e-05
1.45928e-06
-1.88247e-06
-9.70669e-06
-0.000194634
0.000165223
-1.31394e-05
2.70778e-06
1.18661e-06
1.18397e-05
-0.000300046
0.000116474
0.000133314
2.43008e-08
5.42827e-08
2.56461e-07
0.000176852
-0.000273709
3.62099e-05
7.41695e-05
-0.000178833
5.58301e-05
-5.44174e-05
2.29269e-05
2.4909e-06
-4.15274e-07
2.94052e-07
-2.01304e-06
-5.90406e-07
4.36423e-07
3.36039e-06
-4.72587e-05
2.0016e-05
3.1174e-05
-3.14272e-06
2.00268e-06
1.11073e-05
5.90863e-05
-0.000118273
3.89103e-05
-1.54437e-07
7.28749e-08
-5.87452e-07
-7.21857e-05
3.72153e-05
1.23775e-05
1.25008e-06
-1.2713e-06
-1.52892e-05
-1.89867e-06
2.7205e-06
-8.2408e-06
-1.11207e-09
4.94266e-08
5.61235e-11
-2.26903e-08
3.70744e-09
-2.90256e-08
4.67812e-08
-3.28609e-09
7.52005e-11
3.6894e-08
6.7141e-08
2.9283e-09
-4.87703e-07
5.21742e-07
1.62333e-05
-1.3848e-05
6.36609e-06
1.89437e-05
-0.000331814
0.000195356
-3.68519e-07
2.64272e-06
-1.84079e-06
-1.00393e-05
-8.9765e-05
3.17415e-05
2.03653e-05
-4.28811e-08
2.15353e-08
-8.27912e-08
9.55821e-08
2.10298e-08
-2.16266e-09
-1.76266e-05
5.52536e-06
2.19511e-05
3.0996e-06
2.0407e-07
-1.20711e-05
2.41589e-06
-4.83374e-06
7.47559e-06
-9.29365e-07
2.09198e-06
5.05197e-06
-2.02236e-06
7.78735e-07
-4.98362e-06
3.98426e-06
-4.77231e-06
-6.67958e-06
-6.25486e-07
-1.425e-06
-8.289e-06
1.23116e-07
-4.32941e-07
-1.8031e-06
7.74913e-07
-5.62896e-07
-1.96692e-06
-0.000302089
7.97487e-05
0.000133889
1.60699e-08
5.46754e-08
2.40399e-07
6.30445e-07
5.85076e-07
5.09114e-06
-4.57452e-07
5.57454e-07
1.25743e-05
-9.57836e-06
5.78277e-06
-1.35182e-05
-6.14961e-07
4.89907e-07
2.16554e-06
-8.08043e-07
-4.56763e-07
-5.86204e-06
7.89834e-08
-1.69802e-07
-4.76228e-10
-4.84484e-05
1.34023e-05
2.91312e-05
5.62131e-07
7.94783e-07
5.70352e-06
-2.7245e-06
2.32793e-06
-7.96942e-06
-3.97201e-06
3.05181e-06
1.31314e-05
-6.79957e-07
6.81031e-07
-8.30463e-06
1.81277e-06
-2.09184e-06
-1.25009e-05
-2.64472e-06
2.71502e-06
-6.10598e-06
1.18002e-06
-1.53972e-06
-4.63365e-06
-2.75694e-06
1.86639e-06
6.20559e-06
2.35949e-06
-2.89567e-06
1.02348e-05
5.8191e-07
-5.22066e-07
8.41383e-06
1.20583e-06
-3.78316e-06
-1.54753e-05
-3.65359e-07
1.2827e-06
4.73077e-06
-1.46295e-06
2.61357e-07
-3.75414e-06
5.38912e-07
-3.3297e-07
2.89488e-06
-8.48847e-07
8.67353e-07
1.71043e-06
-9.98518e-06
3.56961e-06
3.39561e-07
-7.10749e-07
8.93117e-07
1.69714e-06
-5.62035e-07
4.32075e-07
4.2242e-06
-5.13882e-07
2.85157e-07
-1.67349e-06
0.000202359
-0.000170501
-5.71918e-05
5.04916e-07
-1.37118e-07
1.34366e-06
3.62794e-07
-3.99818e-07
-1.83375e-06
-7.50477e-07
-2.5018e-07
7.98395e-06
-1.74454e-07
7.40802e-08
-3.30496e-11
-4.37953e-07
2.88992e-07
-1.08618e-06
-1.11657e-06
-3.94155e-07
-6.54856e-06
-0.000245864
2.41991e-05
0.000132827
-0.000182723
9.78376e-05
4.70266e-05
-0.00015708
5.06756e-05
4.78058e-05
-9.1706e-08
2.28744e-07
-3.70279e-06
-0.000203873
2.53247e-05
0.000112272
-1.01529e-06
1.50537e-06
-1.50337e-06
-4.19102e-07
5.79659e-07
1.37728e-06
8.35722e-07
-1.14066e-06
1.69254e-06
-0.000313916
6.92698e-05
0.000163663
-2.13065e-08
-4.37469e-08
-3.06121e-07
-0.000104004
1.96581e-05
4.65979e-05
-5.94609e-07
1.37939e-07
1.96042e-06
-3.02984e-07
5.98373e-07
-2.89591e-06
7.51651e-05
-0.000189721
4.2369e-05
2.92964e-07
-4.04345e-08
6.46325e-07
0.000240865
-0.000503323
0.000178146
3.98096e-07
-5.47181e-08
6.71454e-07
-0.000195487
0.000112182
5.85614e-05
-0.000242391
0.000180233
5.34008e-05
1.0255e-06
-1.54823e-06
3.03956e-06
-8.97537e-07
7.84976e-07
-4.22823e-06
-8.32617e-05
0.000177426
0.000117942
-0.000455958
-4.88577e-06
0.00023131
-0.000359092
0.000145369
8.27805e-05
1.48673e-07
-8.59411e-08
5.9722e-07
1.97782e-06
-8.94942e-07
-2.75599e-06
-1.01099e-06
1.86474e-06
-3.00839e-06
-1.45337e-06
1.17826e-06
3.00099e-06
-0.000202649
6.44424e-05
1.39373e-05
-0.000321009
0.000208596
-5.63729e-05
1.90162e-07
-8.15613e-08
-5.21072e-07
-0.000180316
7.34e-05
6.57167e-05
-4.92559e-08
-4.18851e-07
-1.63924e-06
-5.3121e-07
9.92275e-08
3.17699e-06
-5.30021e-07
7.45447e-07
-1.28387e-06
-8.165e-07