/*--------------------------------*- C++ -*----------------------------------*\
  =========                 |
  \\      /  F ield         | OpenFOAM: The Open Source CFD Toolbox
   \\    /   O peration     | Website:  https://openfoam.org
    \\  /    A nd           | Version:  6
     \\/     M anipulation  |
\*---------------------------------------------------------------------------*/
FoamFile
{
    version     2.0;
    format      ascii;
    class       surfaceScalarField;
    location    "3.85";
    object      phi;
}
// * * * * * * * * * * * * * * * * * * * * * * * * * * * * * * * * * * * * * //

dimensions      [0 3 -1 0 0 0 0];

internalField   nonuniform List<scalar> 
8193
(
0.105915
-0.191595
-0.0900214
0.116433
-0.200124
0.123313
-0.203645
0.127541
-0.205627
0.129444
-0.206709
0.129361
-0.207067
0.127322
-0.206586
0.123399
-0.205242
0.117713
-0.203067
0.110345
-0.200098
0.101363
-0.196365
0.0908267
-0.191891
0.0786635
-0.186835
0.0645314
-0.180763
0.0482639
-0.17006
0.0311219
-0.149278
0.0153204
-0.121786
0.000398901
-0.103717
-0.0168436
-0.10233
-0.035848
-0.104485
-0.0545506
-0.106569
-0.0720585
-0.110852
-0.0885936
-0.11867
-0.10421
-0.130652
-0.118649
-0.145547
-0.130936
-0.161557
-0.140214
-0.176742
-0.146303
-0.189014
-0.149456
-0.197104
-0.150464
-0.200925
-0.150353
-0.201795
-0.149815
-0.201271
-0.149096
-0.200446
-0.148071
-0.200149
-0.146351
-0.200712
-0.143537
-0.201979
-0.13939
-0.203643
-0.133735
-0.205657
-0.126211
-0.208093
-0.11559
-0.209745
-0.206282
-0.0996004
0.13435
-0.207142
-0.118601
0.143315
-0.211977
0.14933
-0.215402
0.152693
-0.217303
0.153611
-0.218185
0.152223
-0.218131
0.148559
-0.216896
0.142788
-0.214586
0.135077
-0.21123
0.125572
-0.206849
0.114403
-0.20147
0.101683
-0.19512
0.0874118
-0.187865
0.0714481
-0.179158
0.0543107
-0.166072
0.0378597
-0.144533
0.0235342
-0.11752
0.00959853
-0.0980244
-0.00723318
-0.0917887
-0.0256765
-0.0902762
-0.0451189
-0.0892357
-0.0650724
-0.0908453
-0.0850704
-0.0964533
-0.105129
-0.106237
-0.124246
-0.12
-0.141285
-0.136106
-0.155282
-0.15248
-0.165101
-0.167234
-0.170354
-0.178388
-0.171645
-0.184887
-0.1703
-0.187362
-0.167753
-0.187287
-0.165064
-0.186153
-0.162775
-0.18533
-0.160755
-0.185842
-0.158539
-0.187877
-0.155646
-0.191153
-0.15182
-0.195399
-0.146926
-0.200558
-0.140425
-0.20582
-0.210856
-0.12775
0.159301
-0.218461
-0.146626
0.167991
-0.222397
0.17361
-0.225625
0.176438
-0.227344
0.176475
-0.227743
0.173799
-0.226951
0.16868
-0.224895
0.161283
-0.221566
0.151798
-0.217012
0.140436
-0.211282
0.127405
-0.204408
0.1129
-0.196422
0.0970193
-0.187314
0.079869
-0.176569
0.0621858
-0.161918
0.0458605
-0.140468
0.0321469
-0.114592
0.0183271
-0.0933398
0.00221784
-0.0830182
-0.0154039
-0.078081
-0.0339775
-0.0740905
-0.0535435
-0.0726531
-0.0739701
-0.075319
-0.0947624
-0.082657
-0.115827
-0.094098
-0.136047
-0.109059
-0.15416
-0.125638
-0.168789
-0.142091
-0.17862
-0.156403
-0.183302
-0.166583
-0.183737
-0.17204
-0.181482
-0.173615
-0.177972
-0.172948
-0.17455
-0.171524
-0.17172
-0.171225
-0.169327
-0.172916
-0.166873
-0.176669
-0.163868
-0.182217
-0.160251
-0.189074
-0.155737
-0.196653
-0.205566
-0.149094
0.186601
-0.227464
-0.175182
0.194684
-0.231146
0.199381
-0.233875
0.200957
-0.235118
0.199527
-0.234871
0.195246
-0.233275
0.188345
-0.230308
0.179052
-0.225947
0.167614
-0.220256
0.15431
-0.213315
0.13943
-0.205181
0.123247
-0.195879
0.105972
-0.185358
0.0878665
-0.173176
0.0698616
-0.157758
0.0538495
-0.137198
0.0406208
-0.112796
0.0280818
-0.0907434
0.0135027
-0.0767392
-0.00270042
-0.0684102
-0.0195975
-0.0618597
-0.0374612
-0.0575173
-0.056538
-0.056985
-0.0768323
-0.0610992
-0.098273
-0.0693917
-0.120947
-0.0811462
-0.143019
-0.0964087
-0.162918
-0.113194
-0.178473
-0.130114
-0.188368
-0.144348
-0.192777
-0.153837
-0.19299
-0.158334
-0.190278
-0.159519
-0.186549
-0.158263
-0.183141
-0.157039
-0.180478
-0.157644
-0.178272
-0.160879
-0.17602
-0.166707
-0.173433
-0.174434
-0.170225
-0.18348
-0.194337
-0.16623
0.215154
-0.234461
-0.204788
0.221975
-0.237672
0.225278
-0.23978
0.225238
-0.240348
0.222048
-0.239354
0.215906
-0.236908
0.207057
-0.233018
0.195794
-0.22769
0.182428
-0.221006
0.1673
-0.213072
0.150765
-0.20397
0.133166
-0.193727
0.114812
-0.182273
0.0960902
-0.169265
0.0779649
-0.15373
0.0621557
-0.13454
0.0494655
-0.112103
0.0383909
-0.0903315
0.0260758
-0.0735955
0.0120911
-0.0619736
-0.00250651
-0.053079
-0.0177171
-0.0463077
-0.0342112
-0.0426141
-0.0524451
-0.0430708
-0.0726
-0.0475063
-0.0946547
-0.0554284
-0.11859
-0.0669022
-0.142115
-0.0822368
-0.163746
-0.0992568
-0.180923
-0.11624
-0.191746
-0.130491
-0.196782
-0.139317
-0.197538
-0.143476
-0.195138
-0.144247
-0.192111
-0.142718
-0.189479
-0.142209
-0.187589
-0.144218
-0.186069
-0.149439
-0.184561
-0.157179
-0.182629
-0.166946
-0.178723
-0.180354
0.244665
-0.239059
-0.235859
0.249747
-0.241607
0.251158
-0.24294
0.249113
-0.242735
0.243854
-0.240959
0.235628
-0.237693
0.224722
-0.232963
0.211468
-0.22681
0.196239
-0.219343
0.179427
-0.210696
0.161439
-0.200968
0.14267
-0.190184
0.1235
-0.178282
0.104408
-0.165029
0.0862617
-0.149868
0.070533
-0.132296
0.0581909
-0.112241
0.0483249
-0.0917596
0.0385768
-0.0737974
0.0276699
-0.0595366
0.0159133
-0.0481979
0.00354797
-0.0391297
-0.00972779
-0.0327635
-0.0247017
-0.0297052
-0.0419509
-0.0300123
-0.061699
-0.0335648
-0.0839628
-0.0406521
-0.10882
-0.0515414
-0.134461
-0.0659613
-0.158426
-0.0828603
-0.177631
-0.100186
-0.189797
-0.114456
-0.196179
-0.122917
-0.197873
-0.127026
-0.19707
-0.126791
-0.195496
-0.126019
-0.194376
-0.126724
-0.193939
-0.130614
-0.193679
-0.137745
-0.193106
-0.147622
-0.159645
-0.192324
0.274491
-0.240782
-0.267842
0.277322
-0.24255
0.276441
-0.243056
0.272092
-0.24207
0.264567
-0.239564
0.254154
-0.235587
0.241174
-0.230176
0.225999
-0.223406
0.209045
-0.215427
0.190755
-0.206394
0.171567
-0.196413
0.151908
-0.185506
0.132195
-0.173615
0.112916
-0.160599
0.094922
-0.146282
0.0791805
-0.130299
0.0667134
-0.112653
0.057327
-0.094209
0.049485
-0.0765896
0.0416378
-0.0609847
0.0332319
-0.0476298
0.0241592
-0.0363376
0.0144453
-0.0276906
0.00336972
-0.0215648
-0.010015
-0.0178069
-0.0262257
-0.0167428
-0.0455869
-0.0188692
-0.0683656
-0.0245259
-0.0940495
-0.0342359
-0.121281
-0.0478092
-0.147856
-0.0640526
-0.16992
-0.0811547
-0.184313
-0.0956808
-0.19228
-0.104698
-0.195163
-0.108139
-0.196544
-0.107583
-0.197274
-0.107791
-0.198348
-0.110345
-0.199618
-0.116458
-0.200661
-0.125924
-0.137577
-0.201633
0.303914
-0.239244
-0.29993
0.304085
-0.240204
0.300621
-0.239939
0.293794
-0.238263
0.283925
-0.235165
0.27133
-0.230655
0.256354
-0.224777
0.239404
-0.217654
0.220934
-0.209477
0.201412
-0.200413
0.181286
-0.190553
0.160981
-0.179907
0.140934
-0.168443
0.121686
-0.15614
0.103779
-0.142842
0.0879908
-0.128439
0.0751127
-0.112971
0.0653709
-0.0967546
0.058097
-0.0805388
0.0521544
-0.0650639
0.0465667
-0.0507429
0.0409036
-0.0379509
0.034686
-0.027237
0.0274512
-0.0185075
0.0181875
-0.0110736
0.00613241
-0.00552346
-0.00920776
-0.00263469
-0.0283438
-0.00274237
-0.0515213
-0.00664702
-0.0781177
-0.015039
-0.106678
-0.0275701
-0.134673
-0.0435181
-0.15849
-0.0605419
-0.175696
-0.0745455
-0.185668
-0.0836655
-0.19091
-0.0863661
-0.194453
-0.0868994
-0.197597
-0.0885908
-0.200864
-0.0934439
-0.204068
-0.101976
-0.11279
-0.207267
0.332086
-0.234227
-0.331108
0.329386
-0.234468
0.32321
-0.233554
0.313867
-0.231362
0.301702
-0.227879
0.287038
-0.223064
0.270234
-0.216976
0.251724
-0.209798
0.231987
-0.201757
0.211496
-0.193015
0.19069
-0.183631
0.169998
-0.173619
0.149848
-0.162954
0.130624
-0.151592
0.112787
-0.139467
0.0969127
-0.126605
0.0835336
-0.113022
0.0729486
-0.0988188
0.0650309
-0.0843374
0.0592525
-0.0699341
0.0549186
-0.0558709
0.0513117
-0.0425148
0.0476599
-0.0303736
0.0433133
-0.0194881
0.0375588
-0.00911765
0.0298898
-6.72299e-05
0.0189036
0.00777149
0.00387962
0.0133714
-0.0152007
0.0152202
-0.0384712
0.0127332
-0.0652477
0.00543007
-0.0941909
-0.0066322
-0.122761
-0.022324
-0.147088
-0.038892
-0.165264
-0.0525205
-0.176798
-0.06027
-0.184664
-0.0629408
-0.19117
-0.0645352
-0.197158
-0.0685357
-0.202919
-0.0760258
-0.0860622
-0.208297
0.358213
-0.225752
-0.360334
0.352625
-0.225427
0.343775
-0.22403
0.332029
-0.221556
0.317731
-0.217933
0.301202
-0.213069
0.282811
-0.207051
0.263012
-0.20013
0.242296
-0.192564
0.22113
-0.184489
0.199931
-0.17592
0.179066
-0.166827
0.158875
-0.157172
0.139686
-0.146914
0.121908
-0.136084
0.105912
-0.124689
0.0920455
-0.112738
0.0805408
-0.100236
0.0714233
-0.087334
0.0645317
-0.0742177
0.0595459
-0.0610048
0.0558989
-0.0478284
0.0528475
-0.0350321
0.0496719
-0.0226903
0.046066
-0.0104861
0.0411151
0.0013758
0.0334974
0.0134027
0.0230192
0.0234315
0.00833573
0.0310936
-0.0107985
0.0346971
-0.0340327
0.0331576
-0.0605181
0.0260258
-0.0887031
0.0137202
-0.116001
-0.00205041
-0.139473
-0.0178327
-0.157293
-0.0295832
-0.170049
-0.0356988
-0.179973
-0.0385507
-0.188762
-0.0421642
-0.197078
-0.0486713
-0.0576981
-0.205022
0.381608
-0.214088
-0.38667
0.373283
-0.213329
0.361963
-0.211655
0.348057
-0.209158
0.331902
-0.205661
0.313804
-0.201011
0.294147
-0.195355
0.2734
-0.189012
0.252039
-0.182239
0.230483
-0.175117
0.209093
-0.167604
0.188183
-0.159631
0.168028
-0.151133
0.14894
-0.142122
0.131197
-0.132607
0.115053
-0.122593
0.100731
-0.112072
0.0883928
-0.101005
0.0780674
-0.0894261
0.0696775
-0.0774296
0.0630597
-0.0650604
0.0579309
-0.0523437
0.0536877
-0.0393135
0.0496612
-0.0259876
0.0457443
-0.0126193
0.0409377
0.00147199
0.0351218
0.0159073
0.0271066
0.0295878
0.016057
0.0417841
0.00117483
0.0507619
-0.0176546
0.0547468
-0.0399742
0.0527118
-0.0649262
0.0446677
-0.0909426
0.0316056
-0.115582
0.0160979
-0.136396
0.00217274
-0.152716
-0.00679519
-0.166054
-0.0110085
-0.177981
-0.0144382
-0.188753
-0.0205463
-0.0289579
-0.198632
0.4017
-0.199668
-0.409369
0.390952
-0.198576
0.377541
-0.196882
0.361876
-0.194632
0.344253
-0.191501
0.324968
-0.187312
0.304427
-0.182297
0.283095
-0.176821
0.261403
-0.171102
0.239708
-0.165143
0.218314
-0.158851
0.197472
-0.152115
0.177452
-0.144897
0.158482
-0.137183
0.140765
-0.12897
0.124467
-0.120244
0.10972
-0.110977
0.0966313
-0.101123
0.0852152
-0.0906381
0.0753969
-0.0795407
0.0670299
-0.0678166
0.0598834
-0.0554175
0.0535976
-0.0422578
0.047786
-0.0283369
0.0418101
-0.0136626
0.0355489
0.00192157
0.0291025
0.017811
0.0215692
0.0339037
0.0120776
0.0494354
-0.000153301
0.062577
-0.0156017
0.0712468
-0.0339869
0.073654
-0.0548044
0.0695801
-0.0771672
0.0596282
-0.0996425
0.045818
-0.120598
0.031972
-0.139168
0.0222215
-0.154887
0.01676
-0.16821
0.0125259
-0.180196
0.00665043
-0.00141997
-0.190979
0.417992
-0.183018
-0.427828
0.405371
-0.181792
0.390457
-0.180365
0.373573
-0.178573
0.354962
-0.175979
0.334935
-0.172449
0.31394
-0.16833
0.292408
-0.163957
0.2707
-0.15947
0.249099
-0.154791
0.227847
-0.149792
0.207181
-0.144359
0.187327
-0.138457
0.168462
-0.132036
0.150739
-0.125082
0.134257
-0.117544
0.119085
-0.109377
0.105249
-0.10051
0.0927643
-0.0909018
0.0815471
-0.0804832
0.0714524
-0.069192
0.0622562
-0.0569102
0.0536254
-0.0434521
0.045284
-0.0288812
0.0370531
-0.0133085
0.0287421
0.00342918
0.0200389
0.0208445
0.0107551
0.0387078
0.000532178
0.0564219
-0.0110098
0.0721754
-0.0241833
0.0838157
-0.0395725
0.0898198
-0.0569591
0.0891624
-0.0756151
0.0819322
-0.0949772
0.070308
-0.114176
0.0577995
-0.131873
0.0480632
-0.147532
0.0420873
-0.161309
0.0374925
-0.173521
0.0315651
0.0237638
-0.184507
0.430154
-0.164917
-0.441452
0.416506
-0.163887
0.400888
-0.162955
0.383432
-0.161673
0.364393
-0.15969
0.344135
-0.15696
0.323156
-0.153942
0.301787
-0.150791
0.280331
-0.147611
0.258984
-0.144213
0.237974
-0.140506
0.21751
-0.136362
0.197795
-0.13175
0.178961
-0.126562
0.161133
-0.12079
0.144341
-0.114303
0.128624
-0.107081
0.113953
-0.0989994
0.100309
-0.090039
0.0875576
-0.0800269
0.0755938
-0.0689441
0.0641964
-0.0565638
0.0531881
-0.0427529
0.0425308
-0.0277202
0.0317779
-0.0111741
0.0208554
0.00667179
0.00968722
0.025329
-0.00175525
0.0445169
-0.0137052
0.0638405
-0.0262783
0.0813679
-0.0394961
0.0948496
-0.0532711
0.10265
-0.067711
0.103936
-0.0831701
0.0990386
-0.0991772
0.0893055
-0.115377
0.0783573
-0.131189
0.0696165
-0.145755
0.06379
-0.158832
0.0591036
-0.17079
0.0534481
0.0461371
-0.181863
0.438199
-0.146572
-0.44981
0.424639
-0.146028
0.409176
-0.145556
0.391892
-0.144709
0.373042
-0.143281
0.353143
-0.141456
0.332605
-0.139572
0.311701
-0.13763
0.29063
-0.135655
0.269585
-0.133446
0.248781
-0.130939
0.228431
-0.128009
0.208709
-0.124594
0.189702
-0.120513
0.171547
-0.115821
0.154165
-0.110184
0.13766
-0.103778
0.121873
-0.0962325
0.106911
-0.0878048
0.0924325
-0.0778879
0.0785192
-0.0668936
0.0649239
-0.0542766
0.0517191
-0.0402306
0.0386044
-0.0245978
0.0252933
-0.0071052
0.0118976
0.0116313
-0.00159041
0.0312396
-0.0153773
0.0516355
-0.0293347
0.0720864
-0.0435289
0.0908529
-0.0572579
0.104915
-0.0707398
0.113554
-0.0837786
0.115519
-0.0966202
0.111579
-0.10985
0.103417
-0.123386
0.0939792
-0.136986
0.0865231
-0.149844
0.0811817
-0.161452
0.0764736
-0.171846
0.0708217
0.0637742
-0.181304
0.442114
-0.129236
-0.452826
0.430109
-0.129718
0.415325
-0.128723
0.399369
-0.128867
0.381147
-0.12721
0.36249
-0.126835
0.342434
-0.125269
0.32233
-0.124813
0.301431
-0.123383
0.280712
-0.122504
0.259819
-0.120778
0.239383
-0.119075
0.219276
-0.116578
0.199718
-0.113471
0.180841
-0.10973
0.162444
-0.104702
0.144891
-0.0991435
0.127619
-0.0917676
0.111179
-0.0839615
0.094801
-0.0738049
0.0794458
-0.0634528
0.0636917
-0.0499853
0.0486517
-0.0361379
0.0329053
-0.019225
0.0174494
-0.0013957
0.0015928
0.0184186
-0.0143613
0.0388486
-0.0306654
0.0603633
-0.0464701
0.081126
-0.0619542
0.100424
-0.0763799
0.114317
-0.0896083
0.122683
-0.101858
0.124626
-0.112889
0.12045
-0.124158
0.113533
-0.135294
0.104985
-0.146841
0.0989724
-0.157341
0.0936174
-0.16696
0.089055
-0.175218
0.0830527
0.0762546
-0.182744
0.440841
-0.450441
0.432636
0.418741
0.405953
0.388304
0.372011
0.35192
0.333049
0.311584
0.291245
0.26956
0.248785
0.227697
0.207169
0.18708
0.167207
0.148422
0.129605
0.112179
0.0940703
0.0773915
0.0591181
0.0428134
0.0241393
0.00825096
-0.0105609
-0.0271236
-0.0466482
-0.0641542
-0.0809134
-0.0966087
-0.107438
-0.120507
-0.127346
-0.139425
-0.147098
-0.158068
-0.165235
-0.17326
-0.178571
-0.184857
-0.0861902
-0.172713
-0.090388
-0.173212
-0.0903438
-0.173034
-0.0873324
-0.173791
-0.0821672
-0.176126
-0.077291
-0.180239
-0.0735473
-0.185159
-0.0701949
-0.190084
-0.0664921
-0.193209
-0.0618752
-0.193187
-0.055632
-0.189875
-0.0476779
-0.183558
-0.0383756
-0.174766
-0.0279499
-0.164094
-0.0166159
-0.150619
-0.0035845
-0.134067
-0.0998057
-0.07796
-0.16131
-0.0833709
-0.162615
-0.0851125
-0.16345
-0.0841036
-0.164466
-0.0810693
-0.166575
-0.0771292
-0.169656
-0.0730513
-0.17315
-0.0693426
-0.176571
-0.0655408
-0.179123
-0.0609347
-0.179734
-0.0551253
-0.177963
-0.0479894
-0.173814
-0.0396805
-0.167525
-0.0305387
-0.15947
-0.0203819
-0.149204
-0.00927747
-0.136141
-0.102873
-0.0687961
-0.148481
-0.0753171
-0.151156
-0.0785689
-0.1529
-0.0791619
-0.154335
-0.0778464
-0.156298
-0.075306
-0.158792
-0.0720129
-0.161523
-0.0683634
-0.164126
-0.0644632
-0.166132
-0.0599598
-0.166957
-0.0544894
-0.166187
-0.0478441
-0.163676
-0.0400585
-0.159415
-0.0313681
-0.153559
-0.0216908
-0.145954
-0.0111735
-0.135745
-0.10544
-0.0596745
-0.136581
-0.066687
-0.13954
-0.0710608
-0.141828
-0.0729788
-0.14371
-0.0730649
-0.145633
-0.0717562
-0.147834
-0.0694475
-0.150105
-0.0663771
-0.152277
-0.0626881
-0.154009
-0.0583272
-0.154942
-0.0531105
-0.154811
-0.0468984
-0.153437
-0.0396489
-0.150718
-0.0314347
-0.146687
-0.022193
-0.141311
-0.0122697
-0.133306
-0.107158
-0.0501758
-0.124398
-0.0576427
-0.12787
-0.0628314
-0.130582
-0.0658535
-0.132834
-0.0670885
-0.134843
-0.0668581
-0.136942
-0.0654584
-0.138987
-0.0631266
-0.1409
-0.0599682
-0.142501
-0.0559826
-0.143563
-0.0511164
-0.143894
-0.0453108
-0.143335
-0.0385264
-0.141773
-0.0307568
-0.13921
-0.0219425
-0.135664
-0.0122972
-0.129564
-0.107416
-0.0409663
-0.113225
-0.0484584
-0.116625
-0.0541486
-0.119504
-0.0580172
-0.121975
-0.0601744
-0.124154
-0.0609165
-0.126222
-0.0604007
-0.1282
-0.0588187
-0.130007
-0.056285
-0.131565
-0.0528352
-0.132748
-0.0484626
-0.133426
-0.043142
-0.133477
-0.0368582
-0.132787
-0.0296209
-0.131341
-0.0213259
-0.129274
-0.012008
-0.124873
-0.10634
-0.0317824
-0.10243
-0.0392952
-0.105843
-0.0452879
-0.108806
-0.049731
-0.111401
-0.0526462
-0.113718
-0.054209
-0.115809
-0.0545179
-0.117796
-0.0536992
-0.119592
-0.0518494
-0.121173
-0.0490154
-0.122482
-0.0452135
-0.123439
-0.0404446
-0.123951
-0.0347018
-0.123927
-0.0279958
-0.123345
-0.0202676
-0.122414
-0.0114339
-0.119451
-0.104067
-0.0232067
-0.0927043
-0.0304543
-0.095827
-0.036524
-0.0987118
-0.0413046
-0.101335
-0.0447887
-0.103702
-0.046999
-0.105852
-0.0480387
-0.107849
-0.0479473
-0.109686
-0.046791
-0.111333
-0.0446139
-0.112771
-0.0414394
-0.113958
-0.0372814
-0.114825
-0.0321369
-0.115313
-0.0260139
-0.115398
-0.0189081
-0.115313
-0.0106827
-0.113512
-0.100812
-0.0150578
-0.0836743
-0.022006
-0.0866158
-0.0280076
-0.0893548
-0.0329696
-0.0919079
-0.0368256
-0.0942684
-0.0395459
-0.096454
-0.0411874
-0.0984561
-0.0417438
-0.100348
-0.0412469
-0.102076
-0.0397309
-0.103634
-0.0372171
-0.105007
-0.0337179
-0.106149
-0.0292294
-0.107029
-0.0237543
-0.107628
-0.0173121
-0.108173
-0.00978867
-0.107261
-0.0967838
-0.00765798
-0.0757475
-0.0141707
-0.0783375
-0.019956
-0.0808603
-0.0249094
-0.0832753
-0.0289552
-0.0855579
-0.0320475
-0.0877074
-0.0341396
-0.089728
-0.0352474
-0.0916426
-0.0353551
-0.0934408
-0.0344765
-0.0951003
-0.0326296
-0.0966136
-0.0298186
-0.097961
-0.0260327
-0.099137
-0.0212689
-0.100127
-0.0155576
-0.101133
-0.00881476
-0.100876
-0.092212
-0.000907051
-0.06866
-0.00694996
-0.0710091
-0.0124321
-0.0732842
-0.0172571
-0.0755151
-0.0213433
-0.0776709
-0.0246255
-0.0797426
-0.0270514
-0.0817308
-0.0286013
-0.0836353
-0.0292407
-0.0854701
-0.0289602
-0.087198
-0.0277647
-0.0888071
-0.0256471
-0.0903
-0.0225907
-0.0916906
-0.0185879
-0.0929649
-0.0136716
-0.094293
-0.00778256
-0.0944969
-0.0873037
0.00504619
-0.062668
-0.000447086
-0.0646859
-0.00552492
-0.0666906
-0.0101031
-0.068699
-0.0140965
-0.0706866
-0.017433
-0.0726379
-0.0200563
-0.0745444
-0.0219215
-0.0764019
-0.0230154
-0.0781998
-0.0232864
-0.0799475
-0.0227066
-0.0816175
-0.0212665
-0.0832021
-0.0189478
-0.0847323
-0.0157382
-0.0861964
-0.0116687
-0.0877292
-0.00669849
-0.0882326
-0.082228
0.0103295
-0.0575697
0.00538874
-0.0593422
0.000764294
-0.0610887
-0.0034866
-0.0628579
-0.00728484
-0.0646513
-0.0105637
-0.0664454
-0.0132687
-0.0682243
-0.0153582
-0.0699764
-0.0167898
-0.0716976
-0.0175335
-0.0733908
-0.0175287
-0.0750653
-0.0167363
-0.0766986
-0.0151511
-0.0782944
-0.0127474
-0.0798682
-0.00956236
-0.081499
-0.00556676
-0.0821616
-0.0771158
0.0148395
-0.0535485
0.0105147
-0.055011
0.00640859
-0.0565028
0.0025674
-0.0580252
-0.000950928
-0.0595941
-0.00408423
-0.0611932
-0.00678097
-0.0627995
-0.00899445
-0.0644004
-0.0106774
-0.0659964
-0.0117861
-0.0675913
-0.0122868
-0.0691892
-0.0121143
-0.0708041
-0.0112457
-0.0724026
-0.00964973
-0.0740138
-0.00738217
-0.0756353
-0.00438966
-0.0763566
-0.0720619
0.018767
-0.0504402
0.0150486
-0.0516539
0.0114638
-0.0528979
0.00806745
-0.05419
0.0048929
-0.0555266
0.00197593
-0.0568956
-0.000635702
-0.0582883
-0.00289138
-0.0596976
-0.00474102
-0.0611264
-0.00613915
-0.062577
-0.00704796
-0.0640494
-0.00743841
-0.0655524
-0.00726534
-0.0670724
-0.00647712
-0.0686495
-0.00514334
-0.0701639
-0.0031628
-0.0708806
-0.0671226
0.0220267
-0.0483805
0.018975
-0.0493069
0.0159687
-0.0502983
0.0130513
-0.0513462
0.0102579
-0.0524398
0.0076194
-0.0535639
0.00516663
-0.0547111
0.00294583
-0.0558915
0.00100251
-0.057109
-0.000623902
-0.0583622
-0.00189565
-0.0596515
-0.00278014
-0.0609834
-0.00324305
-0.0623487
-0.00324901
-0.0637914
-0.00284246
-0.0651153
-0.00189139
-0.0657649
-0.0623304
0.0248546
-0.0472485
0.0224535
-0.0479359
0.0200249
-0.0486778
0.0176028
-0.0494781
0.015213
-0.0503187
0.012881
-0.0511841
0.0106386
-0.0520744
0.00851642
-0.0529993
0.00654385
-0.0539628
0.00475046
-0.0549649
0.0031709
-0.0560127
0.00183424
-0.0571087
0.000774667
-0.0582509
-2.49078e-07
-0.0594587
-0.000494721
-0.060526
-0.000602753
-0.0610102
-0.0577221
0.0271589
-0.0471584
0.0254614
-0.0475853
0.0236643
-0.0480751
0.0217844
-0.0486115
0.0198365
-0.0491748
0.0178439
-0.049758
0.0158353
-0.0503672
0.0138363
-0.0510091
0.0118699
-0.0516861
0.00995947
-0.0523992
0.00812424
-0.0531522
0.00638502
-0.0539503
0.00476009
-0.05479
0.00324803
-0.0556724
0.0018748
-0.0564203
0.000686547
-0.0566126
-0.0533325
0.0291967
-0.0480322
0.0281823
-0.0482368
0.0270074
-0.0484771
0.0256757
-0.0487431
0.024194
-0.0490182
0.022576
-0.0493023
0.0208381
-0.0496042
0.0189948
-0.0499289
0.0170598
-0.050278
0.0150473
-0.0506535
0.0129717
-0.0510599
0.0108453
-0.0515008
0.00867779
-0.0519707
0.00645741
-0.05245
0.00420751
-0.0527973
0.0019422
-0.0525834
-0.0492168
0.0309101
-0.0499867
0.0306167
-0.0499425
0.0300941
-0.049923
0.0293357
-0.0499022
0.0283413
-0.0498697
0.0271174
-0.0498318
0.0256699
-0.0497967
0.0240032
-0.0497677
0.0221217
-0.0497464
0.0200302
-0.0497355
0.0177332
-0.0497388
0.0152325
-0.0497579
0.0125289
-0.0497863
0.00960615
-0.0497876
0.00649004
-0.049663
0.00315424
-0.0489315
-0.0454296
0.032478
-0.0529795
0.0328959
-0.0527194
0.0330199
-0.0524294
0.032835
-0.0521067
0.0323347
-0.0517494
0.0315137
-0.0513645
0.0303662
-0.0509596
0.0288862
-0.0505374
0.0270681
-0.0501
0.024907
-0.0496504
0.0223972
-0.0491917
0.019531
-0.0487231
0.0162999
-0.0482378
0.0126864
-0.0476901
0.00872001
-0.0470282
0.00432816
-0.0456692
-0.0420115
0.0338578
-0.0571419
0.0350022
-0.0566217
0.0357833
-0.0560417
0.0361791
-0.0553948
0.0361735
-0.0546845
0.0357512
-0.0539186
0.0348967
-0.0531041
0.0335945
-0.0522433
0.0318294
-0.0513385
0.0295872
-0.0503934
0.0268536
-0.0494107
0.0236149
-0.0483899
0.0198594
-0.0473262
0.015571
-0.0461692
0.0107761
-0.0449092
0.00538212
-0.0428446
-0.0390769
0.0351232
-0.062464
0.0369976
-0.0617029
0.0384339
-0.0608041
0.0394048
-0.0598029
0.0398864
-0.0587058
0.0398513
-0.0575165
0.0392736
-0.0562433
0.0381294
-0.0548905
0.0363969
-0.0534618
0.0340563
-0.0519626
0.0310893
-0.0503969
0.0274794
-0.0487656
0.0232124
-0.0470659
0.0182885
-0.0452613
0.0126864
-0.0433206
0.00644604
-0.0406026
-0.0366016
0.0362379
-0.0690962
0.0388499
-0.0680291
0.0409491
-0.0667795
0.0424964
-0.0653836
0.0434563
-0.063851
0.0437926
-0.0621846
0.0434719
-0.0603951
0.0424646
-0.05849
0.0407441
-0.056476
0.0382876
-0.0543616
0.0350777
-0.0521559
0.031106
-0.0498682
0.0263642
-0.0474958
0.0208562
-0.0450134
0.0145583
-0.0423621
0.00751261
-0.0389659
-0.0345574
0.0371852
-0.0770483
0.04055
-0.0756795
0.0433141
-0.0740302
0.0454347
-0.0721901
0.0468689
-0.0701682
0.0475716
-0.0679649
0.0475023
-0.0655952
0.0466274
-0.0630731
0.0449232
-0.0604146
0.0423674
-0.0576292
0.0389398
-0.0547277
0.0346221
-0.0517207
0.0294052
-0.048614
0.0232879
-0.0453899
0.016273
-0.0419928
0.00842469
-0.0379075
-0.0330586
0.0379059
-0.0864873
0.0420342
-0.0847303
0.0454832
-0.0826378
0.0481934
-0.0802958
0.0501103
-0.0777179
0.0511876
-0.0749123
0.0513839
-0.0718986
0.050662
-0.068694
0.0489858
-0.0653156
0.0463286
-0.0617815
0.042672
-0.0581104
0.038005
-0.0543193
0.0323228
-0.0504199
0.0256291
-0.0464021
0.0179372
-0.0422191
0.00934219
-0.0374369
-0.0320403
0.0383223
-0.0974313
0.0432524
-0.0952812
0.0474087
-0.092682
0.0507243
-0.0897688
0.0531477
-0.0865709
0.0546176
-0.0830854
0.0550802
-0.0793393
0.0544964
-0.0753639
0.0528341
-0.0711825
0.0500693
-0.0668206
0.0461865
-0.0623045
0.0411789
-0.0576594
0.0350481
-0.0529045
0.0278085
-0.0480416
0.0194865
-0.0430351
0.0101864
-0.037528
-0.0314917
0.0383515
-0.110061
0.0441022
-0.107403
0.0490001
-0.104244
0.0529511
-0.100681
0.0558857
-0.096767
0.0577396
-0.0925039
0.0584602
-0.0879298
0.0580069
-0.0830869
0.0563493
-0.078008
0.0534676
-0.0727283
0.0493533
-0.0672844
0.0440094
-0.061712
0.0374496
-0.0560404
0.029706
-0.0502881
0.0208199
-0.0444282
0.0108981
-0.0381683
-0.0314311
0.0378533
-0.124363
0.0444783
-0.121186
0.050135
-0.117372
0.0547283
-0.113063
0.0581778
-0.108327
0.0604132
-0.103175
0.0613809
-0.0976593
0.0610418
-0.0918371
0.059371
-0.0857537
0.0563578
-0.0794576
0.0520065
-0.072999
0.0463357
-0.0664268
0.0393794
-0.0597844
0.0311923
-0.0531101
0.0218299
-0.0463764
0.0114139
-0.0393559
-0.0319044
0.0367027
-0.140507
0.0442236
-0.136665
0.0506607
-0.132094
0.0559071
-0.126927
0.0598704
-0.121242
0.0624766
-0.11507
0.0636731
-0.108483
0.0634255
-0.101555
0.0617188
-0.0943479
0.0585574
-0.0869294
0.053965
-0.0793673
0.0479838
-0.0717276
0.0406756
-0.0640719
0.0321219
-0.0564566
0.0224044
-0.0488534
0.0116728
-0.0411015
-0.0329789
0.0347224
-0.158388
0.0431766
-0.153862
0.0504151
-0.14841
0.0563223
-0.142249
0.0607952
-0.13547
0.0637573
-0.128127
0.0651591
-0.120319
0.0649757
-0.112141
0.0632081
-0.103681
0.0598823
-0.095029
0.0550494
-0.0862759
0.0487835
-0.0775092
0.0411822
-0.0688124
0.0323605
-0.060258
0.0224423
-0.0518246
0.0116166
-0.0434158
-0.034736
0.0317845
-0.178163
0.0411865
-0.172743
0.0492423
-0.166277
0.0558141
-0.158967
0.0607867
-0.150924
0.0640837
-0.142238
0.0656626
-0.13304
0.065513
-0.123455
0.0636579
-0.113603
0.0601534
-0.103603
0.055086
-0.0935749
0.0485705
-0.0836332
0.040748
-0.0738856
0.031777
-0.0644202
0.0218419
-0.0552403
0.0111858
-0.0463067
-0.0372712
0.0277172
-0.199615
0.0381103
-0.193259
0.0470029
-0.185617
0.0542402
-0.176974
0.0596991
-0.167473
0.0633053
-0.157249
0.0650277
-0.146473
0.064877
-0.135309
0.0629064
-0.123916
0.0592095
-0.112453
0.0539171
-0.101073
0.0471932
-0.0899223
0.0392318
-0.0791358
0.0302525
-0.0688259
0.0205143
-0.0590343
0.010334
-0.0497783
-0.0406812
0.0224113
-0.222846
0.0338094
-0.21529
0.0435545
-0.206302
0.0514594
-0.196122
0.0573915
-0.184944
0.061282
-0.172963
0.0631153
-0.1604
0.0629297
-0.147471
0.0608168
-0.134383
0.0569167
-0.12134
0.0514133
-0.108539
0.0445303
-0.0961611
0.0365281
-0.0843771
0.0277039
-0.0733346
0.0184021
-0.0631214
0.0090424
-0.0538297
-0.0450385
0.0157448
-0.247468
0.0281853
-0.238694
0.0387928
-0.228153
0.0473606
-0.216207
0.053748
-0.203109
0.057894
-0.189131
0.0598041
-0.174556
0.0595511
-0.159663
0.057272
-0.144719
0.0531616
-0.129983
0.047467
-0.115701
0.0404842
-0.1021
0.0325564
-0.0893976
0.0240728
-0.0777852
0.0154805
-0.0674085
0.00730202
-0.0584355
-0.0503865
0.0077384
-0.273596
0.0212346
-0.263256
0.0327116
-0.250943
0.0419377
-0.23698
0.0487613
-0.221697
0.0531296
-0.205458
0.0550743
-0.188625
0.0547105
-0.171555
0.0522299
-0.154589
0.0478929
-0.13805
0.0420228
-0.122243
0.0350027
-0.107454
0.0272735
-0.093955
0.019331
-0.0819941
0.0117345
-0.07178
0.00509877
-0.0635382
-0.0567525
-0.0016987
-0.300643
0.0128997
-0.288751
0.0252718
-0.274417
0.0351595
-0.258159
0.0424086
-0.240403
0.0469774
-0.221618
0.0489262
-0.202262
0.0484166
-0.182787
0.0457022
-0.163623
0.0411214
-0.145171
0.0350909
-0.127813
0.0281007
-0.111906
0.0207055
-0.0977872
0.0135166
-0.0857602
0.00719989
-0.0760913
0.00245712
-0.0690449
-0.0641194
-0.0124993
-0.328687
0.00316645
-0.314831
0.0164067
-0.298231
0.0269289
-0.279392
0.0345674
-0.258859
0.0392931
-0.237228
0.0412036
-0.215077
0.0405141
-0.192968
0.0375494
-0.171435
0.0327362
-0.150978
0.0265966
-0.132071
0.0197391
-0.115155
0.0128406
-0.100637
0.00663065
-0.0888764
0.00188083
-0.0801848
-0.000620311
-0.0748493
-0.0724599
-0.0245704
-0.35696
-0.00780227
-0.341182
0.00632382
-0.32205
0.0174755
-0.30032
0.0254789
-0.276681
0.0303179
-0.25188
0.0321282
-0.226637
0.0311899
-0.20165
0.0279174
-0.177581
0.0228474
-0.155049
0.0166259
-0.134634
0.00998999
-0.116869
0.00374062
-0.102227
-0.00127928
-0.0911143
-0.00419556
-0.0838798
-0.00411832
-0.0808353
-0.0817387
-0.0377243
-0.385619
-0.0197785
-0.367508
-0.00467169
-0.345596
0.00718913
-0.320645
0.0156099
-0.293545
0.0205853
-0.265218
0.022287
-0.23655
0.0210704
-0.208414
0.0174478
-0.181623
0.0120788
-0.156939
0.005749
-0.135066
-0.000659657
-0.116636
-0.0062048
-0.102188
-0.00991081
-0.0921667
-0.0107874
-0.0869478
-0.00787827
-0.0868212
-0.091786
-0.174084
0.0967568
0.176801
-0.171185
0.0940649
-0.16772
0.089804
-0.163933
0.0838134
-0.159486
0.0761915
-0.154586
0.0668592
-0.148953
0.0559509
-0.142773
0.043499
-0.135806
0.0296682
-0.128225
0.0145872
-0.119815
-0.00154561
-0.110723
-0.0185363
-0.100772
-0.0361377
-0.0900694
-0.0541414
-0.0784919
-0.072254
-0.0660918
-0.0902807
-0.0528069
-0.107919
-0.0386383
-0.124972
-0.0235908
-0.141213
-0.00760635
-0.156403
0.00921706
-0.170454
0.0269627
-0.183087
0.0454996
-0.19419
0.064873
-0.203575
0.0849611
-0.211143
0.105699
-0.216799
0.127035
-0.220423
0.148697
-0.222017
0.170782
-0.221439
0.192797
-0.218775
0.214964
-0.213932
0.236587
-0.207078
0.258009
-0.198299
0.278428
-0.187817
0.298234
-0.175787
0.316574
-0.16252
0.333886
-0.148267
0.349337
-0.133368
0.363405
-0.118129
0.375326
-0.102887
-0.0879258
-0.165336
0.0900536
0.167085
-0.163173
0.0879292
-0.160496
0.0841645
-0.157294
0.0786751
-0.153486
0.0714814
-0.14906
0.0625638
-0.143959
0.0520034
-0.138173
0.0398716
-0.131662
0.0263007
-0.124415
0.0114396
-0.116404
-0.00453269
-0.107621
-0.0214059
-0.0980344
-0.0389594
-0.087647
-0.0569525
-0.0764197
-0.0751361
-0.0643559
-0.0932752
-0.0514268
-0.111102
-0.0376255
-0.128399
-0.0229513
-0.14494
-0.00738406
-0.160508
0.00904426
-0.174967
0.0263299
-0.188078
0.0444259
-0.19969
0.0632921
-0.209633
0.0828651
-0.217797
0.103051
-0.224069
0.123766
-0.228352
0.144849
-0.230583
0.166198
-0.230697
0.187589
-0.228666
0.208867
-0.224477
0.229801
-0.218235
0.250213
-0.210083
0.269834
-0.200151
0.288469
-0.188669
0.305859
-0.175873
0.321812
-0.16207
0.336108
-0.14755
0.348584
-0.132653
0.359087
-0.117696
-0.102971
-0.155637
0.0810076
0.156504
-0.154272
0.0795839
-0.15233
0.0764609
-0.149783
0.0715941
-0.146575
0.0649672
-0.142689
0.0565919
-0.138091
0.046524
-0.132767
0.0348482
-0.126696
0.0216858
-0.119865
0.00718666
-0.112261
-0.00847231
-0.103872
-0.0250859
-0.0946866
-0.0424336
-0.0846942