/*--------------------------------*- C++ -*----------------------------------*\
  =========                 |
  \\      /  F ield         | OpenFOAM: The Open Source CFD Toolbox
   \\    /   O peration     | Website:  https://openfoam.org
    \\  /    A nd           | Version:  6
     \\/     M anipulation  |
\*---------------------------------------------------------------------------*/
FoamFile
{
    version     2.0;
    format      ascii;
    class       volScalarField;
    location    "1.72";
    object      p;
}
// * * * * * * * * * * * * * * * * * * * * * * * * * * * * * * * * * * * * * //

dimensions      [1 -1 -2 0 0 0 0];

internalField   nonuniform List<scalar> 
5835
(
1.43082
1.00038
1.96863
1.00615
1.003
1.00007
1
1.00115
1.0002
1.00141
1
1.00587
1.00006
1.00003
1.08324
1
3.02084
2.93136
1.00011
1
3.3522
1.00004
3.21794
1.03332
1.00004
1
1.08869
1.00007
1.00286
1
1.00027
1.00012
1
1.00011
1.00021
1.00003
1.00007
1.00004
1
1
1.00016
1
1.00003
1
1.00002
1.00016
1.00002
1.00008
1.00009
1
1
1
1
1.00001
1.00003
1.00002
1
1
1.00002
1.00009
1.00027
1.00002
1.00212
1.00015
1
1.00008
1
1.00003
1
1.00013
1
1
1.00008
1.00004
1.0001
1.00006
1.0001
1.00011
1.00002
1.00012
1.00001
1.00015
1.00054
2.01565
1.3795
1
1.0055
1.00015
1.00085
1.00521
1.00025
1.00209
1
1.00009
1.00002
1.00007
1.00042
1.00049
1.01778
1
1.00027
1.00009
1.00026
1.00002
1.01704
1
1.00002
1.03501
1.00009
1.00027
1.00044
1.00011
1.01398
1.00035
1.00021
1.00065
1.00069
1.00028
1.00002
1.0055
1.00493
1.0001
1.00015
1.00017
1.00063
1.00041
1.00093
1.00054
1.00093
1
1.00031
1
1.00004
1.00016
1.00022
1.00001
4.32721
1
4.46315
1.00009
1
1.00005
4.0655
4.23
4.90709
4.80465
1.79399
2.06093
1.00041
1.00106
2.16092
1.00076
1
1.00059
1.27277
1.18901
1.01541
1
1.00041
1.12182
1.00111
1
1.00029
1
1.02327
1.00032
1.00068
1.00853
1.00019
1.00074
1.00017
1
1.00029
1.00004
1.00024
1.00002
1.00028
1.01699
1.00093
1.00258
1.00046
1.00013
1.00006
1
1.00061
1
1.00023
1
1.00028
1.00009
1.00002
1.00002
1.00019
1.00009
1.00027
1.00002
1
1.00002
1.00007
1.00001
3.87414
3.69794
1.00007
1.00004
1
1.00007
1.00017
1.00089
1.00002
1.00006
1
1.00013
1.00019
1.00021
1
1.00006
1.00016
1.0001
1.00005
1.00001
1.00029
1
1.00003
1.00096
1.00016
1.00015
1
4.8926
1
1.00003
1.00011
1.00012
1.00008
1.00032
1
1.00045
2.14658
1.00003
2.02906
1.00053
1.00017
1.0008
1.00009
1.00006
1.00015
1
1.00018
1
1
1.00008
1.00022
1.00016
1.00022
1
1.00069
1.00065
1.00014
1.00795
1
1.00048
1.0002
1.03457
1.03393
1.00018
1.04526
1
1.00029
1.00031
1.0454
1.03332
1
1.00013
1.00014
1.0005
1.00035
1
1
1.00015
1.00033
1.00005
1
1.00007
1.13272
1.00017
1.0001
1.00036
1.00012
1.0001
1.00023
1
3.15345
1.47946
1.00084
1.55818
1.00019
1.00003
1.00085
1.00003
1.00031
3.0021
1
4.39877
4.65855
2.89425
1.40004
2.93731
1.00007
2.83573
1
1.79657
4.57703
1.67868
3.33782
1.09513
1.00005
1.00011
1
1.0358
1.00005
1.00065
1.00058
1
1.00006
1.08347
1.0001
1.1405
1.00016
1.00003
3.35682
1.00033
1.00012
1.04815
1.00023
1.00008
1.00021
1.00003
1.00007
1
1.00006
1.00014
1.00006
3.47804
1.02501
3.40876
1.00016
1.00002
1.00017
1.00012
1
1.00011
1.08337
1.00002
1
1.00084
1
1.00112
1.00191
1.00018
1.07308
1
1.008
1.0002
1.00004
1.00024
1.14497
1
1
1
1.00108
1.00008
1.00077
1.00013
1.00068
1.00014
1.01634
1.00014
1.00002
1.00001
1.00004
1.00004
1.00007
1
1.00017
1.00012
1
1.00017
1.0001
1.00004
1.00003
1.00003
1.00024
1
1
1.00007
1.00012
1.00006
1.0008
1
1.00003
1.00008
1.00012
1.0001
1.00018
1.00011
1.0011
1.00186
1.00006
1
1.01356
1
1.00058
1.00005
1.00022
1.00395
1
1.00066
1.02255
1.00029
1.00019
1.00016
1.00059
1.00041
1.00016
1.00044
1
1.00017
1.00052
1.00034
1.00009
1.00014
1.00011
1.00231
1.00125
1.00093
1.00087
1.00002
1
1
1.00004
1.00216
1.00055
1.00006
1
1.00084
1.00046
1.0002
1.00009
1.00006
1
1.00022
1
1.00018
1
1
1.00085
1
1
1.00042
1.00016
1.00042
1.00021
1.0001
1.00146
1
1.00081
1.00095
1.00012
1.00014
1.0008
1.00022
1.00001
1.00181
1.00044
1.00378
1.00017
1.00047
1
1.00231
1.00001
1.00021
1.00083
1.00106
1
1
1
1.0001
1.00025
1.0004
1.00015
1
1
1
1
1.00004
1.00061
1.00016
1
1.00006
1.00065
1.00038
1.03712
1
1.00033
1.00037
1
1.00041
1.00004
1.00003
1.00756
1.00051
1.00031
1
1.00008
1.01307
1.00026
1.00068
4.67438
1.00022
1
4.22792
4.22034
4.17903
1.00006
1
1
1.00072
2.13152
1.66018
1.00033
1.00068
1.00106
2.12194
3.83594
1.00001
4.84226
1
1.00011
1.00036
2.11047
1
1.11148
1.00055
3.89608
1.00003
1.20117
1.01448
1.0009
1
1.00001
1.00044
1.00074
1.01669
1
1.00685
1
1.00066
1.00004
1.00005
1.00004
1.00001
1.00028
1.0002
4.73432
1.00032
1.00143
1.00009
1
1.00053
1
1
1.00069
1.00043
1
1
1.00021
1.00007
3.4447
1.00006
1.00021
1.00039
1.00015
1.00003
1
1.00002
1.00028
1.00025
1
1.00013
1
1
1
1
1.0001
1.00064
1.00028
1
1.00008
1
1.00012
1.00048
1.00015
1.00004
1
1.00017
1.15149
1.00002
1.00019
1.00064
1.00004
1
1
1.0303
1.02345
1.03862
1
1.03998
1
1.00014
1.00079
3.51688
1.00002
1.03954
1.0004
1.00017
1.06494
1.00006
2.67711
1.00008
1.66165
1.86784
1.00003
1.00039
2.83657
2.7214
1.66321
1.00008
1.00004
1
1.00028
1.07953
4.16003
1.00009
1.14293
1
1
1.00009
1.00012
4.33189
3.36383
1
1.04666
1.00007
2.58454
1.0001
1.00048
1.00034
2.97683
1.02312
3.11901
1.00026
1.00002
1.00041
1.03025
1.03241
1.00014
1.00009
1.00003
1
1.00277
1.08381
1.00079
1
1.07669
1
1.0007
1.00004
1.00016
1.00005
1.00008
1
1.00005
1
1.00013
1
1
1
1.00039
1.00002
1.00004
1.00014
1.0062
1.00125
1.00057
1.00002
1.0001
1.00001
1
1
1.00002
1.00022
1.00006
1.00057
1
1
1.01369
1.01438
1.00185
1
1.00027
1.00004
1.00018
1.00032
1.00014
1.00004
1.00058
1.00029
1.00005
1.00028
1
1.00082
1.00097
1.00143
1.00009
1.0008
1.00062
1.00044
1.00187
1
1.00003
1
1
1
1.00084
1
1.00025
1.00018
1
1.00058
1
1
1
1.00187
1.00019
1.00088
1.00025
1
1.00028
1.00008
1.00058
1.00015
1
1.00443
1.00003
1
1.00025
1
1
1.00036
1.0009
1.00003
1.0029
1.00084
1.00202
1.00036
1.00042
1
1
1.00009
1.00045
1.00007
1.00015
1
1.00116
1
1.00018
1
1
1.00019
1.00043
1.00029
1.00047
1.00052
1.00032
1.00034
1.0004
1.00019
1.00003
1.00002
1.00002
1
1.00126
1.00029
1.00002
1.0001
1.00041
1.00122
1.00063
1.00021
1.00012
1.00032
1.00028
1.00017
1.00046
1.00015
1.00143
1
1.00011
1.00015
1.00022
1.00026
1.00053
1
1.00014
1.00016
1.00023
1.00009
1
1.00064
1.00008
1.00037
1.00025
1
1.00003
1.00041
1.00053
1.00083
1.00077
1.41025
1.59895
1.81065
1.36623
1.00043
1
1
1.00003
1.00013
1.00008
1.00008
1.00007
1.00004
1
1.00009
1.00023
1.00004
1.00012
1.00014
1.00011
1.00012
1.00006
1.00006
1.00022
1.00033
1.00014
1.00094
1.00314
1.00081
1.10579
1.00077
1.0019
1.0114
1.0006
1
1.00006
1.17669
1
1.00025
1.00024
1
1.00076
1.00136
1.00047
1.00183
1.00055
1.00038
1.00036
1
1.00747
1.00013
1.00025
1.0009
1
1.00012
1.18074
1.02081
1.00062
1
1
1.00253
1.00923
1.00003
1.58987
1.00107
2.42889
1
1.00132
1.00069
1.00011
1
1.00108
1.00014
1.00062
1.00081
1.16721
1.17283
1.00089
1.00115
1.01673
1.00002
1.14357
1
1.00996
1.00156
1.00003
5.6217
5.9359
1.0001
1.00027
1.00001
5.3333
6.10606
6.26505
1.00043
4.98721
1.00005
1.00002
1.00034
6.04629
4.86436
1.00014
5.79441
4.54645
1.00007
1.00002
1.00005
5.8974
1.00007
1.00002
6.0151
1
5.04626
1.00004
1.00001
1.00003
5.38285
4.66784
5.1094
1.00006
1.00004
1.00028
4.56093
5.72855
5.87025
4.96431
4.71321
1.00003
1.00009
5.63662
1.00006
1.00007
4.6625
4.80436
5.35213
1.00001
5.18392
1.00006
1.02302
1.00019
1.00039
1.0005
1.00003
1.00031
1.00017
1.00145
1.00112
1.00097
1.17139
1.18067
1.00051
1.0005
1.0218
1.0003
1.00081
4.19246
1.00003
1.00003
3.90382
1.0006
1.0113
1.00021
1.0001
1
1.0006
1.00007
1.00004
1.00042
1.00023
1.0001
1.0004
1
1.00062
1.00006
1.00007
1
1.00006
1.00124
1
1.00013
1.00003
1
1
1.00026
1.00006
1.00007
1.00017
1.0002
1.00002
1.00534
1.00071
1.00001
1.00006
1
1.21117
2.56139
1
1.00004
1.04223
2.62581
1.00002
1.24127
1.05352
1.00004
1.0001
1.00002
1.00064
1
1
1
1.00024
1.00004
1.00004
1
1
1.00008
1
1.00012
1.00044
1.00178
1
1.00008
1.00014
1.00095
1
1.0278
1.30874
1.00008
1.00023
1.00009
1.00003
1.00078
1.001
1
1.00006
1.00037
1.00001
1
1
1.00056
1.00005
1.00054
1
1.00049
1.00053
1
1.00009
1.00049
1.00013
1.00146
1
1.00061
1
1.00045
1
1.00042
1
1.00021
1.00005
1.00023
1
1.0007
1
1.0004
1.00211
1.00005
1.00042
1.00056
1.00015
1.00028
1
1.00058
1
1.00092
1.00002
1.00008
1.00059
1
1.0023
1.00044
1
1
1.00002
1.00018
1
1.00061
1.00144
1.0007
1.00103
1.00047
1
1.00112
1.00366
1.00092
1.00004
1.00005
1.00008
1.00126
1
1
1.00004
1.00001
1
1
1.00045
1.00012
1.0007
1.00024
1.00037
1
1
1.00036
1
1.00011
1.00012
1.00014
1.00024
1.00493
1.00008
1
1.00051
1
1
1
1.0002
1.00013
1.00025
1.00035
1.00031
1
1
1.00007
1
1.00021
1.00009
1.00027
1
1.00235
1.0004
1.00008
1.00024
1.0003
1.00043
1.00077
1.00128
1
1
1.00071
1
1
1.00029
1
1.00009
1.00028
1
1
1.00066
1.00002
1.00008
1.00014
1.00098
1.00041
1.0001
1
1.00041
1.0002
1.00135
1.00006
1
1.00075
1.00011
1.00008
1.0035
1.0001
1.00057
1.00032
1
1.00043
1
1.00077
1.00051
1.00012
1
1.00012
1
1.00059
1.00075
1.00094
1.00068
1.00005
1.00021
1.00035
1.00001
1
1.00059
1.00004
1.00089
1.00859
1.00032
1.00029
1.00059
1.00013
1
1.00505
1.0008
1.00085
1.00038
1.00012
1.00081
1.00005
1.07182
1.00097
1.00565
1
1.00016
1.00013
1.00042
1.00031
1.00001
1.00061
1.04843
1.00051
1
1
1.0034
1.00041
1.00006
1.00007
1.00236
1.00019
1.00009
1.0002
1.002
1.03537
1.00011
1.00139
1.00005
1.00011
1.00089
1.00013
1.00004
1
1.00006
1.0339
1.00194
1.00017
1.00009
1
1.0001
1.00049
1.00004
1
1.0257
1.00016
1.00029
1.00027
1.00046
1.00009
1.00062
1.00006
1.00887
1.00097
1.00009
1.00006
1.0008
1.00732
1.00069
1.0001
1.00776
1.00021
1.00798
1.0003
1.00157
1.00685
1
1.00033
1.00006
1.00008
1.0001
1
1.00004
1
1.00062
1.00013
1.00093
1
1.04947
1.00653
1.00008
1
1.00563
1.32321
2.02524
1.00003
1.00004
1.00026
1.00007
1
1.00011
1.00016
1.00003
1.00001
1.01104
5.58946
1.00021
1
1
1.15435
1.39403
1.00011
1.00003
1.94351
1.00087
1
1.00006
1.18678
1.00015
1.00013
1.18033
2.10135
3.49671
1
4.76945
1.57496
1.00037
3.80173
1.00021
2.23203
3.67299
1.34135
2.3236
2.30387
1.00137
1.40545
1.03285
2.34894
1.00066
1.10435
1.25253
1.66858
1
1
1
1.00014
1.00018
3.43814
2.53756
1.00004
1.00017
1.00016
1.10135
1.40195
1.00034
1.00019
1.35474
1.00027
1.00009
2.56008
1.00002
1.00008
1.00009
1.47729
1.33572
1.00059
1.00019
1.17235
1.00043
1.16585
1
1.09249
1
1
1.00517
1.02868
1.00006
1.00009
1.22273
1.00004
1.00195
1.00011
1.00006
1
1
1.00004
1.00009
1.00048
1.00002
1.8218
1.00011
1.00001
1.00038
1.39228
1.00025
1.00014
1.00008
1.00048
1
1.00075
1.0087
1
1.00005
1.00125
1.00016
1.00064
1.00025
1.00048
1.00022
1.00086
1.12262
1.00008
1
1.05265
1
1
1.00001
1.00236
1.80178
1.62505
1.00009
1.00055
1
1.00055
1.00002
1.00005
1.12792
1.00095
1.00039
1.00008
1
1.00017
1.00003
1.00022
1.00035
1.90069
1.00019
1.00012
1.00023
1.00548
1.00031
1
1.08917
1.04684
1.01082
1.0002
1.00005
1.00046
1.34108
2.25247
1.00138
1.0002
1
1.00041
1.0004
1.00496
1.00087
1
1
1.00295
1.00005
1.00211
1.00104
1.00059
1.00001
1
1.00005
1.00002
1.00002
1.00009
1.0001
1.00002
1.00006
1.00009
1.0001
1.00004
1.00004
1.00029
1.00017
1.00003
1
1.00019
1.00014
1.00001
1
1.00013
1.00013
1.00006
1.00003
1.00008
1.00023
1
1.00007
1.00016
1.00022
1.00003
1.00014
1
1
1.00015
1.00046
1
1.00004
1
1.00003
1
1.00012
1.00005
1.00018
1.00031
1.00004
1.00012
1.00008
1
1.0001
1
1.00013
1.00027
2.20287
1.00006
1
1.00849
1.00024
1.00046
1
1.00024
1
1.00038
1.00037
1.00007
1.00055
1.02067
1.00543
1
1.01551
1.00069
1.00045
1.00024
1.00038
1.00001
1.00025
1.0012
1.00012
1
1.00022
1.00142
1
1.00043
1.0009
1
1.00026
1
1.00042
1
1.00019
1
1
1
1
1.00033
1.0003
1.00034
1.00028
1.0001
1
1.00011
1.00005
1.00048
1.75774
1.00031
1.00006
1.00036
1.00128
1
1.0009
1.00058
1.00005
4.01502
1
1.0001
1
1
1.00022
1
1.0003
2.91737
1.00086
1
1.00014
1.00024
1.00113
1.00158
1.00112
1.00044
1.05405
1.00079
1.00031
1
5.48371
1.00003
1.00003
2.20193
1.00006
1.08269
1.00034
1
1.00004
1.00022
1.00013
1.0031
1.00045
1.00082
1.0012
1.00055
1.00002
1.00005
1.00106
1.00006
1.00011
1.00215
1.0023
1.00126
1.00837
1
1.00188
1.00037
1.00015
1
1.00005
1.00005
1.0062
1.00035
1.00033
1.00043
1
1
1.00004
1.00005
1
1.00223
1.00002
1.00041
1.0004
1.0001
1.0003
1.00022
1.00037
1
1.0004
1.00024
1.00007
1.00048
1.00066
1.00014
1
1.00623
1.00035
1.00006
1.00015
1.00008
1.00297
1.0007
1.01741
1.00002
1.00892
1.00013
1.00052
1
1.00015
1
1.00003
1.01314
1.00048
1.00002
1.00001
1.00002
1.00005
1.0001
1.00012
1.00006
1.0001
1.03544
1.07454
1.00013
1.00009
1.00039
1.00024
1.00003
1
1.00004
1.00009
1.00017
1.06265
1.00011
2.58687
1.00011
1.00007
1.00004
1.0253
1.00034
1.07239
1
1.00003
1.00004
1
3.00711
1.00022
1
1.00008
1.05096
1.00012
1.00023
1.00019
1
1.00013
1.00007
1.00012
1.001
1.00008
1.00032
1.00003
1.00017
6.0099
1.00021
3.98219
1.00007
1
1.00002
1.00024
1.00014
1.00013
1
1
1.0002
1.00016
1.00035
1.00023
1.00003
1.00039
1
1.00027
1.0004
1
1
1.00035
1.00004
1.00017
1
1.00051
1.00029
1.00038
1
1.07783
1.00009
5.75631
1.00001
2.65481
1
1.00021
1
1.24924
1
4.07259
1
2.91076
1.00067
1.77965
2.95667
1.56301
1.15033
1.0013
1.00062
3.81998
1.00003
1.00025
4.72071
1.00036
1.0012
3.49128
1.00006
2.73586
3.0791
1.00007
1.00078
1.00014
3.34483
1.00005
1.8621
1.00024
5.88623
1.00001
3.12181
1
1.00218
1.00079
1.00031
1.00065
1
1
1.00011
1.00015
1.00092
1.00089
1.00647
1.00036
1.00015
1.00034
1.58421
1.11258
1
1
5.41321
5.85939
1.00008
1.00055
5.90991
6.63405
1.00016
1.00006
5.81265
6.19624
1.00029
5.75735
6.53429
1.00009
1.00007
1.00006
6.8521
6.52545
1.00037
6.83192
1
6.7806
1.00006
1.00034
5.60931
6.06072
5.91388
1
1.00003
6.09621
6.00374
1.00009
5.77129
1.00015
5.70494
1.00008
1.00007
5.74114
5.60364
1.00023
1.00021
6.01466
1.00003
1.00017
6.13427
6.04255
1
1.00002
6.21425
6.0684
1.00052
1.00028
7.0617
6.79933
1
6.32475
6.42603
1.00001
1.00024
7.07415
1.00047
6.94032
7.0113
1.00029
1.00047
7.18204
1.00018
6.77862
1.00012
6.78728
6.64191
1.00005
1.00004
6.57743
1.09732
1.00027
1.00063
1.09201
1.00008
1.00103
1.00068
1.00008
1.00245
1.00056
1
1.6726
1.25043
1.00348
1.00023
1.00051
1.00007
6.20115
1
1.00002
5.95548
1.00004
6.32917
6.95064
1.0002
5.80017
1.0006
5.55447
1.00021
6.44076
1.00012
1.00017
1.00007
6.93839
6.9504
5.90892
6.37912
1.00046
1.00014
1.00004
1.00006
6.14338
1.00071
1
1.00002
1.00013
1.00013
1.00007
6.11943
5.46
5.9709
6.19385
5.36798
6.46908
1.0001
1.00057
6.69462
1.00007
5.86176
7.28556
5.99655
1.00028
1.00007
6.44018
1.00004
6.32762
1.00002
6.33796
6.11089
1.00002
1.00053
1
1.00142
1.00106
1.00005
1.00021
1
1.40024
1.06979
1
1
1
1.00023
1
1.00011
1.00284
1.00077
1.03494
1.39623
4.46645
1.00003
1.00001
1.00001
4.83226
1.00002
4.82137
5.124
1
1.00054
1.0001
1
1.00027
1.00067
1.00005
1
1.00035
1.00009
1
1.00001
1
1.00011
1.00042
1
1
1.0002
1
1.00004
1.00003
1
1
1.00033
1
1.00002
1.00032
1.00025
1.00005
1.00054
1.00009
1.0001
1
1.00008
1.00003
1.70127
1
1.3437
1.36986
1
1
1
1.71475
1.01083
1
1.00006
1.00063
1.00004
1.0059
1
1.00028
1
1
1
1.00014
1
1.00004
1.00011
1
1.00001
1
1
1.00015
1.00017
1.0002
1.00076
1.00011
1
1
1
1.00003
1.00005
1.00007
1.00038
1.00033
1
1.00002
1.0004
1.0001
1.00033
1.00022
1.00002
1.00032
1
1
1.00027
1
1
1.00002
1.00025
1.00057
1
1
1.00023
1.00059
1
1.00012
1.0007
1.00074
1.00047
1
1
1
1.00017
1.00012
1.00019
1
1
1
1
1.00089
1.00014
1.00009
1
1
1.00077
1.00121
1.00101
1
1.0001
1.0004
1.00012
1.00077
1.00008
1.00042
1.00039
1.0005
1.00366
1.00021
1
1.00366
1
1
1
1
1.00057
1
1
1.0009
1.00374
1.00016
1.00069
1
1.00042
1
1.00031
1
1.00024
1
1.00181
1.00084
1.0005
1
1.00066
1
1
1.00076
1.00059
1.00003
1.0007
1.00208
1.00025
1.00088
1.00004
1
1
1
1.0006
1.00052
1.00035
1.00005
1
1
1
1
1
1.00009
1
1.00051
1.00024
1.00003
1
1.00052
1.00004
1.00046
1
1.00063
1.00041
1.00004
1.00104
1.00006
1.00029
1.00025
1.00009
1.0011
1
1.00014
1.0001
1
1.00036
1.00079
1.00038
1
1
1.00015
1.00023
1
1.00085
1.00019
1.00016
1.00098
1.00013
1.00043
1.00021
1
1
1.00035
1.00046
1.00049
1.00164
1
1.00392
1
1.0005
1.00038
1.00028
1
1.00015
1.00008
1.00036
1.00031
1
1
1
1.00004
1.00072
1.00026
1.0007
1.0001
1.00016
1
1.00201
1.00002
1.00002
1.00017
1.00011
1.00099
1
1
1.00011
1.00071
1
1
1.00001
1.00063
1.00018
1.00009
1.00024
1.00014
1.00257
1.00018
1.00048
1
1
1
1
1.00008
1.00001
1.0004
1.00041
1.00264
1.00011
1
1.00118
1.0003
1.00109
1.00001
1.00109
1.00017
1
1.00009
1.00009
1.00092
1.00012
1.00063
1.00027
1.00125
1
1.00054
1.00015
1
1.00009
1
1.00061
1.00056
1.00091
1.0005
1.00037
1.00002
1.00067
1.00002
1
1.00042
1.00001
1
1.00004
1.00004
1
1.00053
1
1.00028
1
1.00104
1.00012
1.00055
1.00013
1.00078
1.00054
1.00021
1.00363
1
1.00013
1.00034
1.00001
1.00049
1.00272
1.00012
1.00129
1.00021
1.00097
1.00115
1.00019
1.00028
1.00014
1.003
1
1.00014
1
1.00005
1
1.00126
1.00111
1
1
1.00075
1.00066
1.00021
1
1
1.00006
1.00286
1
1.00184
1.00236
1.07592
1.00001
1.00001
1
1
1.00159
1.06377
1
1.00415
1
1.00007
1.00042
1.06337
1.00047
1
1
1.00031
1.05125
1.00029
1.00021
1.00027
1.00009
1.00029
1
1
1.00217
1.00003
1.00028
1.00029
1.00006
1.00032
1.00188
1
1.00032
1.00009
1.00026
1
1
1.0017
1.00006
1.00002
1.00033
1.00135
1.00008
1.00036
1.00015
1.00007
1.00177
1
1.00007
1.00017
1.00174
1.00011
1.00005
1.00023
1
1.00027
1.00002
1
1.00002
1.00147
1
1.01545
1.00006
1
1.00021
1.00054
1.00069
1.00005
1.00001
1.00017
1
1.00049
1.00088
1.00039
1
1.00025
1.00339
1.00024
1.00066
1.00014
1.00006
1
1.00063
1
1
1.00053
1
1.00054
1.00047
1
1
1.00485
1.00028
1.00053
1
1
1.00053
1
1.00055
1.00074
1.00001
1.00594
1
1
1.00677
1.00005
1.00068
1.00101
1.00009
1.00002
1.00039
1.00078
1
1.00085
1.00005
1.00065
1.00005
1.00397
1.00006
1
1.00071
1.00012
1.00035
1
1.00015
1.00166
1
1
1
1.00003
1.0009
1
1
1.55333
1.00004
1.00003
1.00001
1
1.44865
1.31723
1.26987
1
1.00003
1.44571
1.59008
1
1
1
1.00009
1.38496
1.44781
1.00022
1
1.00017
1.00049
1.00021
1.11823
1.00009
1
1.00019
1
2.48183
1
1
1.07949
1.00013
1.00009
2.94051
2.39406
3.15301
1
1.49881
3.0688
1
1
2.70951
2.51391
1.34226
1.27441
1.00052
2.78429
1.28697
1.47068
1.00002
1
1
2.90664
1.05103
1.00047
1
1.00133
2.80504
1
1.00039
1
1.00013
1.00017
1.00013
1
2.67176
3.19664
1.00026
1.0001
1.1027
1.27904
1.48983
1.47976
1.0005
1.63776
1.85998
1.00009
1
1.00021
1.2317
1.00024
1.00001
1.00013
1.00053
1.48519
1
1.00214
1.00051
1.00011
1
1.00045
1.00008
1.00013
1.00892
1.00004
1.06432
1.00003
1.19243
1.22257
1.00012
1.00001
1.0005
1.00009
1.00042
1.34533
1
1.27074
1.0002
1.00046
1.00009
1.17711
1.00003
1.00053
1.59501
1.40426
1
1.00041
1.00001
1.00071
1.00061
1.3466
1.41108
1.00036
1.00075
1.00029
1
1
1.00001
1.00034
1.00006
1.00003
1.00002
1
1.00006
1.00004
1.00002
1.00003
1.00001
1
1.00012
1.00004
1
1.00004
1.00028
1.00018
1
1
1
1.00008
1
1.00085
1
1
1.00012
1.00011
1
1.00007
1
1.00049
1.00025
1.00024
1.00016
1.00012
1.00031
1.00019
1.00019
1.00015
1.00001
1.00016
1.00019
1.0001
1.00025
1.00011
1.00006
1.00045
1.00002
1
1.00003
1.00018
1.00014
1.00014
1.0001
1.00036
1.00002
1.00004
1.00022
1.00005
1.00005
1.00019
1.00011
1.00007
1.00014
1
1.00019
1.00009
1.0001
1
1.00024
1
1.00018
1
1.00015
1.00014
1
1.00025
1.00014
1.00002
1.00017
1
1
1.00021
1.07932
1.00004
1.07665
1.00001
1.00144
1
1.00069
1.00061
1.0001
1
1.00021
1.00023
1
1.00152
1.00093
1.00037
1.00007
1.00072
1
1.00024
1.15993
1.00002
1.08351
1.00175
1.00193
1.00011
1.00019
1.00013
1.00019
1.0002
1.55938
1.12216
1.00023
1.00016
1.39465
1.47248
1.00047
1
1.00007
1
1.00009
1.91075
1.79226
1.00123
1
1.07905
1.00069
1.58106
1.43193
1.00012
1
1
1.01543
1.00015
1.00256
1.0005
1.00015
1.00003
1.01204
1
1.00374
1.00079
1
1
1.06393
1.00038
1.00397
1.00032
1.0018
1.00094
1.00027
1.04615
1.00082
1.00054
1.01547
1.01877
1.00019
1.00026
1.00001
1
1.00027
1
1.00777
1.0002
1.00037
1.00018
1.00009
1
1
1.00024
1.00012
1.00031
1
1.00001
1.0001
1
1.00006
1.00011
1.00015
1.00008
1.00018
1.00005
1
1.00106
1.00396
1.00142
1.00018
1.0004
1.00012
1.00045
1.00001
1.00028
1.00002
1.01007
1.00088
1.00017
1.00005
1.00961
1.00034
1
1.00389
1.00628
1.00783
1.01052
1.0004
1.00058
1.00057
1.00036
1.00015
1.00062
1.00014
1.00019
1.00013
1
1.00011
1.00029
1.00005
1.00028
1.00021
1.00027
1.00005
1.00018
1
1.00024
1
1
1.00025
1.00055
1.00013
1
1
1.00035
1.00048
1.00063
1.00007
1.00005
1
1.00055
1
1.00102
1.00033
1.00086
1.00014
1.00046
1
1
1.00015
1.00035
1.00013
1
1.00105
1.00001
1.00033
1.6121
1.00057
1.58873
1.00003
1
1.00007
1
3.43407
3.86815
1
1.00004
1.00008
3.05483
3.28719
1.00028
1.00127
1
1.00057
1
1.00021
1.00059
1.00081
1.00055
1
1.00004
1.00112
1
1.00099
1.00006
1.00008
1.0001
1.001
1
1.00041
1.00157
1.00028
1.00028
1.00013
1.0007
1.00106
1.00185
1
1.00147
1.00007
1
1.00079
1
1.00001
1.00015
1
1.00068
1
1.00022
1
1.00039
1.00235
1.00047
1
1
1.00037
1.00013
1.00206
1
1.00393
1
1.00391
1.00052
1.00067
1.00066
1.00299
1
1.00252
1.00247
1.00106
1.00067
1
1.0038
1.00061
1.0007
1.00085
1.00033
1.00077
1.00339
1.00019
1
1
1.00038
1.00005
1.00006
1
1
1.00001
1.00024
1
1
1.00005
1.00015
1.00018
1
1
1.00011
1.00025
1
1
1.00004
1.00015
1.00014
1
1.00001
1.00015
1.00026
1.00018
1.0001
1.00013
1
1.00007
1.00014
1.00029
1.00005
1
1.00025
1.00017
1.0003
1.00007
1
1.00014
1.00008
1.00011
1
1.00028
1
1
1.00008
1
1.00003
1.00003
1
1
1.00003
1.00003
1.00003
1
1.00604
1.00013
1.00034
1.00037
1.00013
1.00006
1.04533
1
1.0356
1
1.62042
1.00003
1.00008
2.01633
1.79121
1
1.00863
1.00045
1.00012
1.00033
1
1.00006
1.00023
1.00003
1
1.00032
1.0007
1.00375
1.00005
1.00006
1.00001
1.0001
1
1
1.00008
1.00026
1.00014
1.00009
1
1.00001
1.00012
1.00051
1.00502
1.00001
1
1.00004
1.00005
1
1.00024
1.00011
1.00035
1.00002
1
1.00002
1.07407
1.00055
1.00026
1
1
1.00002
1.01568
1.00014
1.06779
1.03807
1.00026
1.01394
1.00056
1
1
1.00029
1.00016
1.04757
1
1.05939
1.00001
1.00007
1.00051
1.00026
1.02744
1
1.00006
1.00024
1.00045
1.00055
1.00027
1.00061
1.00002
1.05964
1
1.00034
1.00052
1.00058
1.0324
1
1.00009
1.00025
1.00028
1.0004
1.00038
1.00003
1.00037
1.00042
1.00038
1.00002
1
1
1
1
1
3.70567
3.67446
3.19011
1
3.20504
1
1.00031
1.49772
1.41021
1.00107
1.00091
1.27834
1
1.20887
1.24421
1.00011
1
3.85067
3.45499
2.91023
1.00034
1.00005
2.95557
2.99648
1.00004
3.2684
1.00052
2.55489
1.00026
1.00001
2.35961
1.00009
2.2004
1.00001
1.99417
1.00005
1.00009
1.00011
1.00082
1.00061
1.00544
1.00037
1.00016
1.00009
1.53926
1.12061
1.00038
1
1.00016
1.00021
1.00032
1.00231
1
1.04723
1.46582
1.00079
1
1.00167
1.00302
1
1.00043
1
1.45472
1.08784
1
1
1.00067
1.00052
1.00037
1.00274
1
1.00032
1
1.00003
1.54258
1.05459
1.00295
1.00043
1.00166
1
1.0001
1.00057
1.00139
1
1.05641
1.62346
1.00087
1
1
1.00093
1.00061
1.0013
1.0021
1
1.00006
1.00061
1.00031
1
1
1.00015
1.00042
1
1
1.4257
1.46684
1.04689
1.07135
1.00009
1.0001
5.82571
1
5.92606
1.00006
1.00291
1
1
1.0002
1.00051
1.00076
1.72899
1.00122
2.45177
1.01083
1.00369
1.82916
1.00024
1.00039
1.00116
1.00174
1.00032
1
1
1
1
1.3377
4.30756
4.48391
6.20967
7.32663
5.53071
6.40753
4.18575
4.00661
7.20629
6.0273
6.22737
5.38172
1.00019
1.00023
1
1.00045
1
1.00023
1
1
1.00032
1.0007
1.00003
1.00037
1.00206
1.00107
1
1
1.80677
1.00081
1
1
1
1
1
1.00189
1.00112
1.0007
1.00024
1.00015
1
1
1.00024
1.00031
1.00107
1.00074
1.00122
1.00139
1.00071
1.00176
1.00171
1.0012
1.00057
1.0006
1.00155
1.00117
1.00095
1
1.00053
1.00163
1.00031
1.00033
1.00027
1.00033
1
1
1.00006
1.00056
1
1
1.02196
1.04226
1.01871
1.0018
1.00287
1.00096
1.00029
1.00195
1.00244
1.00022
1
1.00007
1
1
1
1.00186
1.00353
1.00101
1.00144
1.00051
1.0025
1.00127
1.00095
1.00112
1.00092
1.0003
1.00046
1.00054
1.00053
1.00031
1.00105
1.00085
1.00008
1.00062
1.00006
1
1.00031
1.00026
1.0002
1.00013
1.00013
1.00033
1
1
1.00022
1
1.00036
1.0001
1.00017
1.00011
1.00024
1.00049
1.00016
1
1
1
1.00009
1.00002
1.0003
1.00065
1.00184
1.00012
1.0003
1.00011
1.00064
1
1.00082
1.00017
1.00001
1
1
1
1
1.00003
1.00003
1.00008
1.00004
1.00013
1.00001
1.00001
1.00131
1.00197
1.00005
1
1.0009
1.00125
1
1.00018
1.0003
1.0001
1.00019
1.00026
1.00094
1.00121
1.00096
1.00083
1.00071
1.00053
1.00003
1.00012
1.00002
1.00004
1.00006
1.00001
1
1.00004
1.00007
1.00004
1.00012
1.00005
1.27374
1.13586
1.72814
1.45998
1.78266
1.61757
1.00003
1
1.00007
1.00003
1.00007
1.00011
1.17858
1.47539
1.01956
1.10437
1.09301
1.36095
1.00002
1.00007
1.00013
1.00007
1.00027
1
1
1
1
1
1
1
1.0001
1.00023
1
1.00007
1.00009
1
1.00012
1.00026
1.00016
1.00043
1.00034
1.00009
1.0001
1
1.00007
1
1.00016
1
1.00014
1.0001
1.00014
1.00012
1.00053
1.00011
1.00022
1
1.00019
1.0001
1.00025
1
1.00006
1
1.00009
1.00017
1
1.00021
1.00037
1
1
1.00007
1.00004
1.00033
1
1.0001
1
1.0001
1.00008
1.00015
1.00017
1
1
1.00009
1.00083
1.00044
1.00014
1.00055
1.00058
1.00066
4.40066
3.29426
3.9417
4.02325
1.00033
1.00025
1.00029
1.00049
1.00009
1
1.00063
1.00048
1.00155
1.00022
1
1
1
1.00039
1.00027
1.00029
1
1.00015
1.00012
1.0001
1.00019
1.00025
1.00043
1.00023
1.00018
1.0002
1.00075
1.0004
1.00034
1.0008
1.00129
1.00193
1.00056
1.00021
1.00031
1.00035
1.00036
1.00035
1.00054
1.00061
1.00121
1.00055
1
1
1
1.00044
1
1
1.00018
1.0005
1.00059
1.00081
1.00013
1.00011
1.00027
1.00025
1.00026
1.00019
1.00015
1.00013
1.00034
1
1.00013
1.0008
1.00003
1.00013
1.00013
1.00017
1.0001
1.00035
1.00002
1.00026
1.00088
1.00098
1.0005
1.00107
1.00001
1
1
1
1
1.00005
1.23676
1.05791
1.10801
1.00007
1.00006
1
1.00001
1
1
1.00009
1.00011
1
1.00027
1
1
1.00005
1.00309
1.00121
1.00111
1.00091
1.00309
1
1.00383
1
1.00025
1
1
1.00035
1
1.0002
1.01457
1.0396
1.00836
1.01734
1.00314
1.00003
1.00005
1
1.00003
1.00001
1.00006
1.00019
1.00014
1.00032
1.00018
1.00026
1.00011
1
1.0001
1.00009
1
1.00036
1.00008
1.00019
1.00006
1.00003
1.00011
1.00012
1.00005
1.00021
1.00021
1.00064
1.00111
1.0006
1.00049
1.0006
1
1
1.00206
1
1.00237
1.00091
1.00002
1
1
1
1.00004
1
1.0001
1.00337
1
1.00396
1.0012
1.00171
1.00084
1.00395
1
1.00151
1.00214
1
1
1
1
1
1.00014
1
1
1.00024
1.00014
1.00015
1.00009
1.10683
1.03841
1.16058
1.04692
1.20973
1.04226
1.10619
1.02496
1.00039
1.00008
1.00014
1.00032
1
1.00026
1.0001
1.00019
1.00021
1.00007
1.00011
1.00016
1.00013
1.00114
1.00063
1.00075
1.0012
1.00034
1.00079
1.01489
1.04036
1.00886
1.01719
1.01034
1.01399
1.00054
1.00018
1.00052
1.00055
1.0008
1.00015
1.00003
1.00003
1.00021
1.00005
1.00033
1.00026
1.00009
1
1.00018
1.00008
1
1.00023
1.00009
1
1.1104
1.03879
1.39517
1.23869
1.57495
1.42618
2.60635
2.05971
6.15357
4.66479
4.87432
3.51328
2.4832
2.00443
6.10472
4.60002
4.73586
3.47238
2.50218
1.28883
2.38908
2.06707
4.45176
2.11016
1.00018
1.00007
1.00012
1.00006
1.00011
1.00008
1.18037
1.0557
1.02622
1
1.10126
1.01836
1.00005
1.00009
1.00011
1.00049
1.00058
1.00023
1.00032
1.00034
1.00045
1.00003
1.00045
1.0001
1.00013
1.00011
1.00015
1.00011
1.00018
1.0003
1.0004
1.00017
1.00019
1.00025
1.00036
2.85795
1.98808
1.86758
1.61772
2.3891
1.76171
3.03182
4.04623
2.90213
3.64932
1.00001
1.00004
1.00066
1.00007
1.00009
1
1.54316
2.22769
1.32337
1.59027
1.415
1.56341
1.00015
1.00016
1.00058
1
1.00064
1
3.82164
3.58743
6.56943
5.67275
6.81745
6.0776
1.02868
1.123
1.00234
1.03244
1
1
1
1.00055
1.00025
1.00024
1.00003
3.39442
3.02273
6.76941
5.41589
5.57391
4.77224
2.23603
4.48649
2.99034
5.50003
2.12695
4.42163
1.07292
1.25794
1
1.06018
1.0134
1.02677
1.00014
1.00005
1.00016
1.00001
1.00012
1.00003
1.00149
1.0006
1.00052
1.0002
1.00128
1.0011
1.00157
1.00099
1
1.00028
1.0003
1.00002
1.00011
3.01205
2.9258
1.46688
5.20177
2.64264
1.00101
1.00356
1.00012
1.00041
1.00078
2.95403
2.49763
6.57603
5.07879
5.21995
3.94476
1.00007
1.00018
1.00011
1.00003
1.00011
1
1.00009
1
2.83808
2.36895
6.06918
4.7804
4.99166
3.75809
1.00014
1
1.00018
1.00038
1.00036
1.00014
1.00105
1.00169
1.00144
1.0013
1.00073
1.00167
1.00524
1.00068
1.00036
1.00058
1.00025
1.00094
1.00126
1
1.00026
1.0005
1.00006
1.00041
1.00004
1.00005
1.00002
1
1
1
1.00003
1.00022
1
1
1
1.00024
1
1
1
1.00005
1.00031
1
1
1
1.00004
1.00011
1.00015
1
1.0001
1
1
1.00069
1.00081
1.00124
1.00055
1.00073
1.0002
1.00091
1.00028
1.00063
1.00062
1.00053
1.00001
1
1
1
1
1.00005
1.00023
1.00044
1.00042
1.0005
1.00092
1.00096
1.00092
1.00128
1.00267
1.0028
1.00004
1
1
1.00008
1.00004
1.00012
1.00002
1
1.00005
1.00006
1
1.00001
1.00345
1.00216
1.10144
1
1
1.00013
1.00044
1.0026
1.00005
1
1
1
1.00006
1
1
1.00038
1.00056
1.00015
1
1.00014
1.00011
1.00007
1
1.0015
1.0008
1.00023
1.0012
1
1.00015
1.00026
1.00006
1.00012
1.00024
1
1.00023
1.00024
1.0003
1
1.00017
1.00015
1
1.00044
1
1.00055
1
1.00003
1.00051
1.00035
1.00051
1
1
1
1.00028
1
1.00004
1.0002
1.00003
1
1.00026
1
1.00004
1
1.00014
1
1.00054
1.00018
1.00011
1.00024
1.00004
1.00002
1.00006
1
1
1.00012
1.00003
1.00094
1.00191
1.00088
1.00148
1.00015
1.0002
1.00036
1
1.00153
1.00113
1.0003
1.00268
1.00003
1.00006
1
1.00003
1.00005
1.00028
1.0006
1.00144
1.00028
1
1
1.00024
1.13992
1.2255
1.00064
1.00041
1.0003
1.00033
1
1.00005
1.00027
1
1.00078
1.00025
1
1.00031
1.00004
1
1.00079
1.00019
1.00002
1.00003
1.0001
1.00005
1.00004
1.00022
1
1
1
1.00132
1.00184
1.00095
1
1.00056
1.00044
1.00031
1.00111
1.00055
1.00098
1.00042
1.00011
1.00036
1.00004
1.00046
1
1.00078
1.0006
1.00007
1.0012
1.00018
1.0012
1.00095
1.00115
1.00209
1.00101
1
1
1
1.00019
1.00033
1.00067
1.00024
1.00014
1.00004
1.00026
1.00116
1.00088
1.00058
1.00127
1.00133
1.00157
1.00108
1.00153
1.00182
1
1
1.00038
1
1
1
1.00136
1.00006
1
1.00021
1.00001
1.00002
1.00007
1
1.0001
1.00074
1.00033
1
1
1.0004
1
1.00074
1.00027
1.00136
1.00036
1.00173
1.00134
1.00003
1
1
1.00052
1
1
1
1
1
1.00049
1
1
1
1.00035
1.00067
1.00157
1.00068
1.0003
1
1.00025
1.00046
1.00017
1
1.00004
1.00013
1.00088
1.00271
1
1.00067
1
1.00015
1
1.00036
1
1.00007
1.00001
1.00067
1.00119
1.00476
1.00029
1.00232
1.00048
1.00196
1.00133
1.00379
1.00121
1.00142
1.00109
1.00103
1.0001
1
1.00162
1
1
1.00234
1.00091
1
1.00222
1
1
1.00005
1
1
1
1
1.00051
1
1.0004
1.00008
1
1.00004
1
1.00058
1.00021
1.00137
1.00064
1.00324
1
1.00049
1
1.00019
1
1
1.00049
1.00023
1.00019
1.00019
1.00002
1.00003
1
1
1
1
1.00027
1
1.00002
1
1.00054
1
1
1.0001
1.00014
1.00065
1.0007
1
1.00137
1.00212
1.00126
1.00087
1.00053
1.00092
1.00024
1.00007
1.00013
1.00034
1
1
1
1
1.00012
1.00002
1.00001
1.00011
1.00003
1.00015
1.0001
1.00007
1.00033
1.00039
1.00168
1
1.00005
1.00013
1.00004
1
1
1
1
1.00004
1
1.00001
1
1.00005
1
1
1
1.00142
1
1
1.00028
1.00044
1.00037
1.00049
1.00015
1.00008
1.00082
1.00001
1
1
1.00042
1.00037
1.00002
1
1.0003
1.00021
1.00023
1
1.00005
1
1
1.00042
1.00058
1.00038
1.00002