/*--------------------------------*- C++ -*----------------------------------*\
  =========                 |
  \\      /  F ield         | OpenFOAM: The Open Source CFD Toolbox
   \\    /   O peration     | Website:  https://openfoam.org
    \\  /    A nd           | Version:  6
     \\/     M anipulation  |
\*---------------------------------------------------------------------------*/
FoamFile
{
    version     2.0;
    format      ascii;
    class       volScalarField;
    location    "4.52";
    object      nut;
}
// * * * * * * * * * * * * * * * * * * * * * * * * * * * * * * * * * * * * * //

dimensions      [0 2 -1 0 0 0 0];

internalField   nonuniform List<scalar> 
4214
(
0.0024748
0.00149286
0.00110413
0.00102277
0.00105827
0.00107541
0.0010661
0.00107771
0.00116028
0.00135711
0.00170742
0.00223013
0.00293627
0.0037674
0.00457547
0.00533856
0.00625877
0.00788909
0.0111563
0.0168946
0.0250458
0.0340175
0.0414933
0.0468582
0.0506051
0.0529501
0.0544569
0.0571755
0.0620985
0.0665472
0.0642854
0.0530595
0.0370526
0.0219336
0.0110201
0.00493474
0.00226513
0.00133218
0.00110641
0.00134774
0.00224261
0.00132198
0.00106118
0.00100103
0.00104077
0.00106488
0.00105842
0.00107268
0.00116741
0.00140048
0.00182546
0.00249327
0.00340904
0.00456432
0.00579174
0.00677907
0.00742282
0.00784471
0.00846909
0.0100911
0.0137508
0.0200087
0.0281048
0.0361816
0.0428743
0.0476699
0.050424
0.0521895
0.0550355
0.0599871
0.0657068
0.0664063
0.0577026
0.0425992
0.0267751
0.0143329
0.00670082
0.00299845
0.00156361
0.00112205
0.00101031
0.00109049
0.00108449
0.00103765
0.00104774
0.00105948
0.00105235
0.00107071
0.00118113
0.00145531
0.00196892
0.00279671
0.00400354
0.0055546
0.00739282
0.00914672
0.0103341
0.0107927
0.0106469
0.0103118
0.0104411
0.0119713
0.0158053
0.0219325
0.0292143
0.0361963
0.0417404
0.0456505
0.0487347
0.0524335
0.0576521
0.0637538
0.0670013
0.0615105
0.0480707
0.032042
0.018257
0.00901077
0.00407577
0.00195236
0.00123772
0.00104567
0.000997128
0.00104341
0.00104793
0.00105534
0.0010487
0.00107093
0.00119734
0.00151138
0.00210883
0.0030974
0.0045792
0.00661853
0.00908242
0.0118135
0.0141224
0.0154534
0.0156115
0.0147696
0.0134721
0.0123338
0.0121219
0.0137555
0.0177416
0.0235568
0.0300437
0.036008
0.0408789
0.0450444
0.0495268
0.0550935
0.0615311
0.0663602
0.0642768
0.0531982
0.0375841
0.0227704
0.0119265
0.00558155
0.00257168
0.0014243
0.00110096
0.00101687
0.00105122
0.00105329
0.00104631
0.0010712
0.00120617
0.00154745
0.00221148
0.00334045
0.00508508
0.0075458
0.0106919
0.0143026
0.017999
0.0207183
0.0220239
0.0216999
0.0199567
0.0175982
0.0152808
0.0136366
0.0134234
0.0153337
0.0193929
0.0248815
0.0307623
0.0362314
0.0412133
0.0462981
0.0522054
0.0589347
0.0646858
0.0654789
0.0575409
0.0431407
0.0277599
0.0154463
0.00758142
0.00349133
0.00175136
0.00118229
0.00105068
0.00105311
0.00104479
0.00106878
0.00120213
0.00154846
0.00223882
0.003445
0.00537045
0.00819704
0.0119764
0.0165214
0.0213256
0.0258209
0.0286684
0.029744
0.0287652
0.0259302
0.0224877
0.0190303
0.0161439
0.0144352
0.0145443
0.016798
0.0209219
0.0261693
0.0317398
0.0372294
0.0427742
0.0489934
0.0560463
0.0624992
0.0651253
0.060647
0.0483532
0.0330723
0.0195315
0.0101276
0.0047804
0.00227838
0.00133579
0.00108555
0.00104444
0.00106354
0.00118457
0.00151043
0.00217803
0.00337526
0.00534632
0.00835578
0.0125831
0.0179561
0.0240593
0.0300539
0.0349129
0.0374608
0.0381117
0.036398
0.032387
0.0278508
0.02339
0.0193899
0.0164176
0.0150463
0.015655
0.0182862
0.0225088
0.0276725
0.0332825
0.0391859
0.0456834
0.052933
0.0599199
0.0639968
0.0619439
0.0526576
0.038437
0.0240861
0.0132354
0.00650219
0.00306661
0.00161414
0.00114911
0.00105693
0.00115571
0.001437
0.0020319
0.00312843
0.00498864
0.00793723
0.0122867
0.0181679
0.0253109
0.0329849
0.0398259
0.0446036
0.0465463
0.0463395
0.0439689
0.0390646
0.0336337
0.027947
0.0229461
0.0190182
0.0164868
0.0157411
0.016941
0.0199473
0.0243268
0.0296266
0.0356105
0.0422864
0.0496942
0.0570823
0.0622911
0.0622827
0.0554364
0.0430483
0.0289728
0.0168422
0.00870432
0.00417718
0.00206902
0.00128221
0.00112115
0.00133952
0.0018217
0.00273826
0.00434206
0.00698015
0.0110599
0.016922
0.0245945
0.0335091
0.0424383
0.0496197
0.0538124
0.0547802
0.0534346
0.0502425
0.0455188
0.0397182
0.0328975
0.0267991
0.0219783
0.0185616
0.0168278
0.01681
0.0185016
0.0218454
0.0265525
0.0322983
0.0389621
0.0464621
0.0541623
0.0602349
0.0619193
0.0572462
0.0466623
0.0332568
0.0207359
0.0114107
0.00565404
0.00275515
0.00152774
0.00123532
0.0015827
0.00227055
0.00351657
0.00564615
0.00909774
0.0143578
0.0217658
0.0311786
0.0416342
0.0513478
0.0582683
0.0613089
0.0608453
0.0582556
0.0544886
0.0500547
0.0450507
0.0382727
0.0309898
0.0252861
0.0211138
0.0186174
0.017733
0.0184281
0.0206228
0.024356
0.029575
0.0360295
0.0435278
0.0514459
0.0581505
0.061138
0.0582467
0.0493878
0.0369319
0.0243343
0.0142175
0.00750897
0.00372382
0.00192859
0.00135748
0.00180795
0.00266193
0.00418493
0.00677505
0.0109605
0.0172965
0.0260952
0.036997
0.0485908
0.0585718
0.064668
0.0661828
0.0640401
0.0603334
0.0562574
0.0522484
0.0480527
0.0428256
0.0358586
0.0288625
0.0240206
0.0208766
0.0193542
0.0193253
0.0207419
0.023621
0.0280486
0.0340461
0.0413945
0.0493884
0.0564542
0.0602559
0.0586686
0.0512494
0.039817
0.0274771
0.0169187
0.00943596
0.00490146
0.00253038
0.00142969
0.00192802
0.0028679
0.00455449
0.0074489
0.0121575
0.0192967
0.0291496
0.0411567
0.0534809
0.0633881
0.068401
0.0683088
0.0646168
0.0600021
0.0558403
0.0523468
0.0491349
0.0453403
0.0403818
0.0331706
0.0271654
0.0235321
0.0215197
0.0209673
0.0218152
0.0241495
0.0280924
0.0336881
0.0407701
0.0486072
0.0556492
0.0597016
0.0587804
0.0523262
0.0417832
0.0299009
0.0192435
0.0112834
0.00614246
0.00324438
0.0014166
0.0018953
0.00281942
0.00451693
0.00749211
0.012414
0.0199686
0.0304509
0.0432013
0.0559964
0.0657807
0.0697912
0.0683733
0.0634373
0.0582205
0.0541597
0.0512428
0.0490623
0.0466972
0.0433643
0.0383722
0.0309762
0.0265263
0.0241792
0.0232894
0.0238234
0.0258783
0.029591
0.0349483
0.0418188
0.0493653
0.0560217
0.0597347
0.0587584
0.0526592
0.0427097
0.031361
0.0208987
0.0128004
0.00728761
0.00398658
0.00132998
0.00173058
0.0025443
0.00409856
0.00691548
0.0117046
0.0192508
0.0298964
0.0430916
0.0562241
0.0662404
0.0695844
0.0673754
0.0615564
0.0558287
0.0519184
0.0495323
0.0483711
0.0474414
0.0457463
0.0426649
0.0370423
0.0306686
0.0275122
0.0264173
0.0269887
0.0291141
0.0329253
0.0382969
0.0449136
0.0518919
0.0576445
0.0603225
0.0585127
0.0521226
0.0424039
0.0316191
0.0215986
0.0137248
0.00812126
0.00461836
0.00121818
0.00150784
0.00215
0.00344413
0.00590925
0.0102382
0.0173883
0.0276729
0.0411416
0.0544077
0.0653264
0.0684419
0.0660603
0.0596499
0.0532346
0.0493811
0.0472682
0.046944
0.0473529
0.04742
0.0465651
0.0437286
0.0376371
0.0329872
0.0313389
0.0320714
0.0346065
0.0387045
0.04412
0.0502979
0.0561688
0.0602195
0.061002
0.0575211
0.0503354
0.0405753
0.0304757
0.0211012
0.0138413
0.00842197
0.004982
0.00113091
0.00130695
0.0017653
0.00273671
0.00476577
0.00834424
0.0148975
0.024077
0.0379097
0.0505826
0.0634808
0.0666951
0.0647151
0.0582339
0.0505483
0.0465624
0.044223
0.0442956
0.0458102
0.0474493
0.0491834
0.0490928
0.0471679
0.0430234
0.0406492
0.0408313
0.0432791
0.0472368
0.0521432
0.057108
0.060889
0.062227
0.0602637
0.0545558
0.0466295
0.0367873
0.0278505
0.019237
0.0130771
0.0080036
0.00495958
0.00109016
0.00117022
0.00148917
0.00209084
0.00380339
0.00624153
0.0125463
0.0192497
0.0344026
0.0445527
0.0609598
0.064496
0.0631262
0.0579598
0.0478332
0.0436824
0.0403965
0.0401542
0.0423374
0.0445836
0.0489089
0.0511907
0.0537635
0.054234
0.0542643
0.0543807
0.0557563
0.058343
0.0613446
0.0634357
0.0636114
0.0609899
0.0562431
0.0481844
0.0407695
0.0307385
0.0241629
0.0158975
0.0116589
0.00670457
0.00457012
0.00252598
0.00288299
0.0029052
0.00268346
0.00232149
0.00192205
0.00156612
0.00131646
0.00116404
0.00108717
0.00105483
0.00103676
0.00101278
0.000989812
0.00103439
0.00137011
0.00453147
0.00176839
0.00185986
0.00183861
0.00171644
0.00153983
0.00135937
0.00121254
0.001119
0.00106976
0.00104836
0.0010381
0.00102577
0.00100321
0.000980958
0.00101724
0.00127045
0.00431286
0.00124161
0.00130741
0.00130827
0.00126183
0.00119423
0.00112933
0.00108158
0.0010547
0.00104234
0.00103669
0.00103111
0.00101928
0.000996431
0.000973128
0.000999915
0.00120542
0.00409549
0.00111942
0.00112398
0.00111684
0.00109882
0.00107698
0.0010582
0.00104565
0.00103906
0.00103593
0.00103354
0.00102849
0.00101585
0.000991647
0.000966206
0.000982813
0.00114342
0.00390836
0.0010831
0.00107669
0.00106859
0.00105944
0.00105087
0.0010442
0.00103985
0.00103756
0.00103639
0.00103467
0.00102929
0.0010152
0.000988811
0.000960328
0.000966782
0.00109302
0.00375113
0.00107784
0.00106867
0.00106057
0.00105356
0.00104792
0.0010439
0.00104156
0.00104071
0.00104053
0.00103923
0.00103331
0.00101748
0.000988535
0.000956502
0.000953468
0.00105776
0.00362753
0.00108097
0.00107114
0.00106293
0.00105637
0.00105153
0.00104848
0.00104729
0.00104753
0.00104828
0.00104745
0.00104108
0.00102368
0.000992188
0.00095629
0.000944805
0.00104171
0.00353102
0.00108261
0.00107389
0.00106659
0.00106092
0.00105703
0.00105512
0.00105516
0.00105675
0.00105882
0.00105902
0.00105304
0.00103501
0.00100154
0.000961681
0.000943079
0.00104337
0.00344714
0.00108707
0.00107927
0.00107274
0.00106781
0.00106488
0.00106417
0.00106564
0.00106893
0.00107288
0.00107492
0.00107045
0.00105303
0.00101849
0.000974915
0.000950285
0.00105799
0.00336202
0.00108845
0.00108193
0.00107663
0.00107312
0.00107176
0.00107279
0.00107628
0.00108182
0.00108828
0.00109317
0.00109179
0.00107722
0.0010439
0.000997856
0.00096798
0.00108229
0.00327589
0.00109174
0.00108701
0.00108333
0.00108115
0.00108095
0.00108316
0.00108798
0.00109526
0.00110417
0.00111261
0.0011161
0.00110724
0.00107839
0.00103195
0.000996948
0.00111662
0.00319749
0.00109214
0.00108818
0.00108548
0.00108453
0.00108579
0.00108964
0.00109635
0.00110599
0.00111818
0.00113138
0.00114169
0.00114158
0.00112107
0.0010773
0.00103724
0.00116127
0.00313163
0.00109338
0.0010909
0.00108943
0.00108951
0.00109169
0.0010965
0.00110444
0.00111594
0.0011312
0.00114939
0.00116743
0.00117815
0.00116962
0.00113243
0.00108824
0.00121636
0.00307649
0.0010932
0.00109135
0.00109088
0.00109208
0.00109536
0.00110127
0.00111051
0.00112395
0.00114235
0.00116561
0.00119166
0.00121425
0.0012204
0.00119403
0.00114801
0.00128045
0.00302805
0.00109292
0.00109245
0.00109296
0.0010948
0.00109851
0.00110492
0.00111506
0.00113021
0.00115154
0.00117957
0.00121322
0.00124744
0.00126921
0.00125703
0.00121306
0.00135122
0.00298259
0.00109245
0.00109249
0.0010935
0.00109565
0.00109964
0.00110653
0.00111765
0.00113454
0.00115864
0.00119101
0.00123139
0.00127589
0.00131219
0.00131541
0.00127828
0.00142592
0.00293713
0.00109125
0.00109209
0.00109314
0.00109514
0.00109918
0.0011065
0.00111858
0.00113707
0.00116361
0.00119968
0.00124561
0.00129837
0.00134644
0.00136365
0.00133792
0.00150125
0.00288939
0.00109008
0.00109041
0.00109103
0.00109289
0.00109715
0.00110505
0.00111809
0.00113793
0.00116645
0.00120541
0.00125552
0.00131418
0.00137035
0.0013984
0.00138833
0.00157477
0.00283773
0.00108744
0.00108746
0.0010877
0.0010896
0.00109419
0.00110266
0.00111644
0.00113728
0.0011672
0.00120809
0.00126083
0.00132292
0.00138355
0.0014194
0.00142953
0.00164349
0.00278033
0.00108456
0.00108351
0.00108362
0.00108575
0.00109073
0.00109964
0.00111392
0.00113535
0.00116599
0.00120778
0.00126154
0.00132472
0.001387
0.00142976
0.00146698
0.00170561
0.00271573
0.00108029
0.00107919
0.00107943
0.00108181
0.00108705
0.00109625
0.0011108
0.00113246
0.0011632
0.00120487
0.00125819
0.00132064
0.00138348
0.00143547
0.00150403
0.00176179
0.00264325
0.00107593
0.00107488
0.00107526
0.00107775
0.00108308
0.00109231
0.00110679
0.00112818
0.0011584
0.00119923
0.00125153
0.00131366
0.00138008
0.00144809
0.00155222
0.00182801
0.00257996
0.00107187
0.00107077
0.00107106
0.00107344
0.00107857
0.00108747
0.00110143
0.00112208
0.00115133
0.00119117
0.00124316
0.00130746
0.00138286
0.00147382
0.00161556
0.00190818
0.00254081
0.00106809
0.00106686
0.00106702
0.00106913
0.00107387
0.00108218
0.0010953
0.00111488
0.00114296
0.00118199
0.00123463
0.00130347
0.00139176
0.00150917
0.001688
0.00199732
0.00252698
0.00106495
0.00106363
0.00106354
0.00106528
0.00106947
0.001077
0.00108909
0.00110742
0.00113427
0.00117269
0.00122673
0.00130158
0.00140463
0.00154927
0.00176356
0.00209002
0.00253893
0.00106259
0.00106113
0.00106089
0.00106228
0.0010659
0.00107259
0.00108355
0.00110053
0.00112609
0.00116394
0.00121952
0.00130059
0.00141826
0.00158899
0.00183689
0.00218232
0.00257683
0.00106135
0.00105996
0.00105956
0.00106066
0.00106374
0.0010696
0.00107941
0.00109499
0.0011191
0.0011561
0.00121266
0.0012989
0.00142944
0.00162406
0.00190505
0.00227655
0.00264086
0.00106134
0.00106007
0.0010598
0.00106078
0.00106348
0.00106862
0.00107733
0.00109144
0.00111386
0.0011494
0.00120576
0.00129506
0.00143535
0.00165057
0.00196421
0.00236993
0.00273114
0.00106288
0.00106205
0.001062
0.00106307
0.00106558
0.00107017
0.00107787
0.00109046
0.00111088
0.00114414
0.00119864
0.00128809
0.00143382
0.00166511
0.0020108
0.0024615
0.00284789
0.00106621
0.00106592
0.00106638
0.00106776
0.00107036
0.00107463
0.00108149
0.00109256
0.00111067
0.00114079
0.00119155
0.00127777
0.00142369
0.001665
0.00204067
0.00254778
0.00299129
0.00107139
0.00107211
0.00107339
0.00107534
0.00107813
0.00108229
0.00108854
0.00109819
0.00111379
0.00114002
0.00118531
0.00126483
0.00140504
0.00164845
0.00204903
0.00262284
0.00316132
0.00107806
0.00108005
0.00108256
0.00108556
0.0010891
0.00109344
0.00109924
0.00110769
0.00112081
0.00114271
0.00118116
0.00125088
0.0013793
0.00161506
0.00203104
0.00267865
0.00335754
0.00108637
0.00108993
0.00109393
0.00109828
0.00110294
0.001108
0.00111379
0.00112132
0.00113221
0.00114976
0.00118066
0.00123827
0.00134936
0.00156642
0.00198262
0.00270424
0.00357896
0.00109613
0.00110153
0.00110735
0.00111338
0.0011195
0.00112567
0.00113206
0.00113912
0.00114831
0.00116196
0.00118539
0.00122984
0.00131951
0.001507
0.00190243
0.00268582
0.00382388
0.00110727
0.00111477
0.00112266
0.00113066
0.00113857
0.00114624
0.00115365
0.00116101
0.00116918
0.00117984
0.00119674
0.00122852
0.00129514
0.00144458
0.00179474
0.00260791
0.00409003
0.00111955
0.00112942
0.00113964
0.00114989
0.00115987
0.00116938
0.00117825
0.00118652
0.00119453
0.00120342
0.00121553
0.0012367
0.00128165
0.00138951
0.00167206
0.00245883
0.0043748
0.00113282
0.00114526
0.00115804
0.00117077
0.00118309
0.00119471
0.00120541
0.00121509
0.00122382
0.00123224
0.00124169
0.00125555
0.00128317
0.00135231
0.00155483
0.00224156
0.00467553
0.00114681
0.00116206
0.00117764
0.00119307
0.00120794
0.00122192
0.00123474
0.00124623
0.00125635
0.00126547
0.00127434
0.00128467
0.00130134
0.00134068
0.00146616
0.0019867
0.00498961
0.00116134
0.00117962
0.00119823
0.00121659
0.00123425
0.00125079
0.00126596
0.00127957
0.00129154
0.00130223
0.00131225
0.00132244
0.00133491
0.00135718
0.00142365
0.00175047
0.0053144
0.00117618
0.00119772
0.00121959
0.00124113
0.00126177
0.00128108
0.00129877
0.00131473
0.00132884
0.00134176
0.00135421
0.00136687
0.00138083
0.00139882
0.00143352
0.00158999
0.00564736
0.00117413
0.00118101
0.00118884
0.00119758
0.00120706
0.00121692
0.0012268
0.00123627
0.00124498
0.00125257
0.00125872
0.0012632
0.0012659
0.00126689
0.00126637
0.00126467
0.00126224
0.00125963
0.00125745
0.0012561
0.00125491
0.00125544
0.00125673
0.00125915
0.0012623
0.00126576
0.00126917
0.00127217
0.00127446
0.00127575
0.0012758
0.0012744
0.00127142
0.00126679
0.00126046
0.00125246
0.00124284
0.00123161
0.00121886
0.00120477
0.00119013
0.0011865
0.00119385
0.00120209
0.00121114
0.00122078
0.00123059
0.00124013
0.00124894
0.00125672
0.00126311
0.00126792
0.00127099
0.00127237
0.00127221
0.00127082
0.00126861
0.00126611
0.00126394
0.0012627
0.00126279
0.00126432
0.00126794
0.00127153
0.00127611
0.00128128
0.00128661
0.00129172
0.00129627
0.00129993
0.00130241
0.00130345
0.00130286
0.00130049
0.00129626
0.00129012
0.00128209
0.00127224
0.00126059
0.0012471
0.00123169
0.0012147
0.00119919
0.00120736
0.00121617
0.00122553
0.00123518
0.00124465
0.00125349
0.00126129
0.00126776
0.00127268
0.00127594
0.00127755
0.00127764
0.00127648
0.00127446
0.00127205
0.00126985
0.0012685
0.00126855
0.00127035
0.00127472
0.00128134
0.00128722
0.00129396
0.00130112
0.00130829
0.00131507
0.00132111
0.00132607
0.00132968
0.00133167
0.00133183
0.00133
0.0013261
0.00132007
0.00131193
0.00130176
0.00128964
0.00127554
0.00125918
0.00124015
0.00121153
0.00122084
0.00123029
0.00123985
0.00124927
0.0012581
0.00126588
0.00127232
0.00127724
0.00128055
0.00128227
0.00128252
0.00128154
0.00127967
0.00127736
0.00127517
0.0012737
0.00127357
0.00127523
0.00127898
0.00128617
0.00129559
0.00130369
0.00131248
0.00132155
0.00133045
0.00133881
0.00134624
0.00135243
0.00135707
0.00135991
0.00136074
0.00135938
0.00135572
0.0013497
0.00134133
0.0013307
0.00131795
0.00130316
0.00128608
0.0012656
0.00122283
0.0012333
0.00124322
0.00125277
0.00126171
0.00126958
0.00127605
0.00128098
0.00128431
0.00128611
0.0012865
0.0012857
0.00128402
0.00128187
0.00127975
0.00127825
0.00127797
0.00127944
0.00128299
0.00128882
0.0012987
0.00131064
0.00132081
0.0013315
0.00134232
0.00135282
0.0013626
0.0013713
0.00137859
0.00138416
0.00138774
0.00138913
0.00138812
0.00138461
0.00137849
0.00136978
0.00135854
0.00134496
0.00132925
0.0013114
0.00129011
0.00123234
0.0012435
0.00125355
0.00126284
0.00127104
0.00127778
0.00128289
0.00128641
0.0012884
0.00128904
0.00128851
0.00128713
0.00128526
0.00128336
0.00128199
0.00128172
0.00128307
0.00128644
0.00129207
0.00130003
0.00131236
0.00132648
0.0013385
0.0013509
0.00136327
0.00137517
0.0013862
0.00139601
0.00140424
0.0014106
0.0014148
0.00141662
0.00141587
0.00141238
0.00140606
0.00139688
0.00138491
0.00137034
0.00135347
0.00133458
0.00131285
0.00123922
0.0012502
0.00126007
0.0012689
0.00127621
0.00128182
0.00128579
0.00128825
0.00128937
0.00128936
0.00128849
0.00128713
0.00128571
0.00128471
0.00128468
0.00128613
0.00128946
0.00129494
0.0013027
0.00131274
0.00132719
0.0013431
0.00135675
0.00137061
0.00138429
0.00139738
0.00140946
0.00142018
0.00142919
0.00143618
0.00144086
0.00144298
0.00144234
0.00143877
0.00143214
0.00142239
0.00140959
0.00139393
0.00137575
0.00135553
0.00133325
0.00124264
0.00125293
0.00126252
0.00127065
0.00127702
0.00128172
0.00128494
0.00128686
0.00128768
0.00128767
0.00128715
0.00128652
0.00128623
0.00128676
0.0012886
0.00129212
0.00129762
0.00130528
0.00131512
0.00132709
0.00134328
0.00136058
0.00137558
0.00139065
0.0014054
0.00141943
0.00143234
0.00144376
0.00145335
0.0014608
0.00146579
0.00146807
0.00146742
0.00146365
0.0014566
0.00144621
0.00143252
0.00141573
0.0013962
0.00137449
0.00135125
0.00124294
0.00125302
0.00126205
0.00126916
0.00127461
0.00127869
0.00128161
0.00128353
0.00128468
0.00128534
0.00128586
0.00128663
0.00128808
0.00129062
0.00129462
0.00130037
0.00130808
0.00131782
0.00132958
0.00134325
0.00136075
0.00137904
0.00139512
0.00141111
0.00142667
0.00144139
0.00145488
0.00146678
0.00147675
0.00148444
0.00148957
0.00149185
0.00149106
0.00148698
0.00147944
0.00146837
0.00145379
0.00143589
0.00141507
0.00139187
0.00136723
0.00124374
0.00125413
0.00126168
0.00126732
0.00127184
0.00127551
0.00127845
0.00128081
0.00128277
0.00128462
0.00128667
0.00128926
0.00129275
0.00129746
0.00130368
0.0013116
0.00132135
0.00133297
0.00134638
0.00136144
0.0013798
0.00139869
0.00141555
0.00143218
0.00144827
0.00146341
0.00147722
0.00148935
0.00149945
0.00150718
0.00151225
0.00151437
0.00151331
0.00150884
0.00150078
0.00148903
0.00147362
0.00145473
0.0014327
0.00140852
0.00138307
0.00125208
0.00126071
0.00126551
0.00126939
0.00127291
0.00127616
0.00127918
0.00128206
0.00128498
0.00128814
0.0012918
0.00129624
0.00130171
0.00130846
0.00131668
0.00132652
0.00133804
0.0013512
0.0013659
0.00138196
0.00140076
0.00141986
0.00143717
0.00145413
0.00147043
0.00148569
0.00149954
0.00151162
0.00152159
0.00152913
0.00153394
0.00153575
0.00153431
0.00152941
0.00152085
0.00150851
0.00149238
0.00147278
0.00145023
0.00142535
0.00139907
0.00127266
0.0012753
0.00127708
0.00127918
0.00128156
0.00128419
0.00128707
0.00129028
0.00129393
0.00129818
0.0013032
0.00130919
0.00131633
0.00132477
0.00133464
0.001346
0.00135885
0.00137312
0.00138867
0.00140531
0.00142409
0.001443
0.00146038
0.00147731
0.00149348
0.00150851
0.00152205
0.00153376
0.00154332
0.00155042
0.00155478
0.00155614
0.00155428
0.00154895
0.00153996
0.00152728
0.00151094
0.00149112
0.00146825
0.00144296
0.00141621
0.00130171
0.00129982
0.00129915
0.00129937
0.00130038
0.00130213
0.00130459
0.0013078
0.00131184
0.00131679
0.00132276
0.00132985
0.00133818
0.00134781
0.00135879
0.00137113
0.00138477
0.0013996
0.00141547
0.00143218
0.00145044
0.00146871
0.00148572
0.00150218
0.00151777
0.00153216
0.00154501
0.00155599
0.00156482
0.00157123
0.00157497
0.00157579
0.00157349
0.00156791
0.00155885
0.00154621
0.00152999
0.00151035
0.00148765
0.00146247
0.00143579
0.00134233
0.00133772
0.00133454
0.00133269
0.00133213
0.00133273
0.00133445
0.00133729
0.00134127
0.00134642
0.00135278
0.00136038
0.00136926
0.00137942
0.00139083
0.00140346
0.0014172
0.00143192
0.00144745
0.0014636
0.00148076
0.00149783
0.00151388
0.00152928
0.00154376
0.00155698
0.00156866
0.00157852
0.0015863
0.00159177
0.00159473
0.00159503
0.00159248
0.00158689
0.00157808
0.00156592
0.00155037
0.00153156
0.00150975
0.00148545
0.00145967
0.00139802
0.00139102
0.00138598
0.00138235
0.00138014
0.00137942
0.00138013
0.0013822
0.00138563
0.0013904
0.00139647
0.00140385
0.00141248
0.00142232
0.0014333
0.00144532
0.00145828
0.001472
0.00148632
0.00150104
0.00151633
0.00153146
0.00154574
0.00155933
0.00157197
0.0015834
0.00159334
0.00160157
0.00160793
0.00161226
0.00161444
0.0016143
0.0016117
0.00160645
0.00159838
0.00158735
0.00157328
0.00155623
0.00153638
0.00151413
0.00149055
0.00147103
0.00146272
0.00145666
0.001452
0.00144875
0.00144694
0.00144656
0.00144759
0.00145
0.00145375
0.00145877
0.00146499
0.00147236
0.00148078
0.00149015
0.00150037
0.00151129
0.00152276
0.00153463
0.00154669
0.001559
0.00157108
0.00158248
0.00159321
0.00160304
0.0016118
0.00161931
0.00162544
0.00163007
0.00163312
0.00163448
0.00163405
0.00163172
0.00162733
0.00162073
0.00161177
0.00160035
0.00158646
0.00157019
0.0015518
0.00153253
0.00156377
0.00155647
0.00155142
0.00154734
0.00154429
0.00154228
0.00154134
0.00154145
0.00154258
0.00154469
0.00154774
0.00155165
0.00155637
0.00156179
0.00156785
0.00157443
0.00158144
0.00158875
0.00159624
0.00160379
0.00161138
0.00161873
0.00162562
0.00163201
0.0016378
0.00164287
0.00164715
0.00165057
0.00165309
0.00165466
0.00165526
0.00165482
0.00165327
0.00165052
0.00164645
0.00164094
0.0016339
0.00162529
0.00161513
0.00160352
0.00159194
0.00487868
0.00192749
0.00119964
0.00105625
0.00104765
0.00105339
0.00104526
0.0010418
0.00106331
0.0011115
0.00116626
0.00119819
0.0011899
0.00114916
0.00110207
0.00107184
0.00106374
0.00482577
0.00179562
0.00115451
0.0010434
0.00104339
0.00105208
0.00104648
0.00103866
0.00104213
0.00105934
0.00108143
0.00109479
0.00109173
0.00107674
0.00106202
0.00105658
0.00106106
0.00469137
0.00165062
0.00110674
0.00102923
0.00103923
0.00105105
0.00104764
0.00103925
0.00103588
0.00103998
0.00104787
0.00105365
0.00105413
0.00105129
0.00104986
0.00105286
0.00106033
0.00452978
0.00149751
0.00105944
0.0010142
0.00103443
0.00104989
0.00104846
0.00104067
0.00103507
0.00103407
0.00103626
0.00103902
0.00104081
0.00104203
0.00104396
0.00104703
0.00105023
0.00433949
0.00135273
0.00101635
0.000999772
0.00102982
0.00104874
0.00104898
0.00104193
0.00103566
0.00103265
0.00103244
0.0010337
0.00103542
0.00103736
0.00103969
0.00104254
0.00104606
0.00413484
0.0012319
0.000980723
0.000987312
0.00102588
0.00104783
0.00104943
0.00104289
0.00103629
0.00103229
0.00103085
0.00103116
0.00103245
0.00103436
0.00103685
0.00104014
0.00104464
0.00393078
0.00114023
0.000954625
0.000978187
0.00102319
0.00104764
0.00105023
0.00104384
0.00103679
0.00103199
0.00102968
0.00102924
0.00103002
0.00103158
0.00103368
0.0010362
0.00103891
0.00374105
0.00107743
0.000939745
0.000974626
0.00102315
0.00104902
0.00105203
0.00104529
0.00103749
0.00103179
0.00102866
0.00102759
0.00102798
0.00102937
0.00103147
0.00103415
0.00103739
0.00357388
0.00104142
0.000937588
0.000980315
0.00102913
0.00105374
0.00105585
0.00104808
0.00103911
0.00103234
0.00102837
0.00102677
0.00102693
0.00102834
0.00103064
0.00103363
0.00103719
0.00343244
0.00103063
0.000949691
0.000999232
0.00104605
0.00106529
0.00106324
0.001053
0.00104222
0.00103404
0.00102907
0.00102685
0.00102671
0.00102802
0.00103032
0.00103329
0.0010367
0.00331584
0.00104366
0.000976618
0.0010318
0.00107503
0.00108634
0.00107712
0.00106156
0.00104756
0.00103744
0.00103122
0.0010282
0.00102757
0.00102863
0.00103079
0.00103365
0.0010369
0.00322052
0.00107811
0.00101747
0.00107491
0.00111038
0.00111121
0.00109412
0.00107366
0.00105635
0.00104384
0.00103588
0.00103165
0.00103016
0.00103057
0.00103222
0.00103461
0.0010374
0.00314144
0.00113042
0.00107041
0.00112614
0.00114947
0.00113726
0.00111125
0.00108553
0.00106513
0.00105072
0.0010414
0.00103608
0.00103374
0.00103355
0.00103487
0.00103719
0.00104012
0.00307318
0.00119645
0.00113183
0.00118161
0.00118999
0.00116429
0.00112966
0.00109883
0.00107532
0.0010588
0.00104794
0.00104134
0.00103792
0.00103679
0.00103732
0.00103899
0.00104142
0.00301057
0.00127178
0.00119666
0.00123649
0.00122924
0.00119123
0.001149
0.00111351
0.00108693
0.00106822
0.0010557
0.00104777
0.00104318
0.00104102
0.0010406
0.00104138
0.00104284
0.00294938
0.00135145
0.00125902
0.00128602
0.00126509
0.00121728
0.00116889
0.0011293
0.00109975
0.0010788
0.00106452
0.00105518
0.00104941
0.00104626
0.00104505
0.00104534
0.00104682
0.00288786
0.00143101
0.00131359
0.00132659
0.00129601
0.0012417
0.00118881
0.00114579
0.00111348
0.00109027
0.00107417
0.00106332
0.0010563
0.00105203
0.00104976
0.00104904
0.00104971
0.00282466
0.00150839
0.00135789
0.00135664
0.00132103
0.00126373
0.00120809
0.00116243
0.00112768
0.00110234
0.0010844
0.00107203
0.00106375
0.00105839
0.00105511
0.00105329
0.00105245
0.00275866
0.00158356
0.00139427
0.0013772
0.00133985
0.00128262
0.00122599
0.00117859
0.00114186
0.0011146
0.00109494
0.00108109
0.00107155
0.00106515
0.00106101
0.00105853
0.00105739
0.00268905
0.00165628
0.00142886
0.0013916
0.00135299
0.00129781
0.00124176
0.00119363
0.00115551
0.00112667
0.00110548
0.00109025
0.0010795
0.00107207
0.00106705
0.00106379
0.00106196
0.00261272
0.00172261
0.00146825
0.00140495
0.00136204
0.0013092
0.00125487
0.00120696
0.00116813
0.00113814
0.00111568
0.00109923
0.0010874
0.00107901
0.00107317
0.00106918
0.00106652
0.00254646
0.00179335
0.00152032
0.00142587
0.00137162
0.00131807
0.00126504
0.00121785
0.00117894
0.00114836
0.00112507
0.0011077
0.00109498
0.00108578
0.00107921
0.00107459
0.00107137
0.00250646
0.00187594
0.0015878
0.0014601
0.00138718
0.00132732
0.00127305
0.00122589
0.00118706
0.00115632
0.00113267
0.00111484
0.0011016
0.00109186
0.00108478
0.00107968
0.00107601
0.00249326
0.00196423
0.00166381
0.00150386
0.00140832
0.00133778
0.00127967
0.00123154
0.00119267
0.00116207
0.00113847
0.00112057
0.00110716
0.00109718
0.00108982
0.0010844
0.0010804
0.00250702
0.00205608
0.00174299
0.00155228
0.0014327
0.00134887
0.00128504
0.00123507
0.001196
0.00116575
0.00114257
0.00112497
0.00111171
0.00110176
0.00109432
0.00108876
0.00108457
0.00254789
0.00215128
0.0018219
0.00160106
0.00145725
0.0013592
0.00128877
0.00123655
0.00119729
0.00116762
0.00114517
0.0011282
0.00111539
0.00110571
0.00109839
0.00109282
0.00108853
0.00261598
0.00224989
0.00189771
0.00164618
0.00147883
0.00136699
0.00129018
0.00123594
0.00119676
0.00116799
0.0011466
0.00113056
0.00111845
0.00110924
0.00110218
0.00109671
0.0010924
0.00271144
0.0023509
0.00196724
0.00168395
0.00149456
0.00137059
0.00128861
0.00123317
0.00119467
0.00116725
0.00114726
0.00113241
0.0011212
0.0011126
0.0011059
0.0011006
0.00109632
0.00283436
0.00245225
0.00202669
0.00171078
0.00150192
0.00136865
0.00128362
0.00122835
0.00119137
0.00116583
0.00114763
0.00113427
0.00112415
0.00111621
0.00110985
0.00110471
0.00110046
0.00298472
0.00254998
0.00207121
0.00172303
0.00149888
0.00136038
0.00127496
0.00122143
0.00118707
0.00116428
0.00114855
0.00113718
0.00112856
0.00112172
0.001116
0.00111089
0.00110619
0.00316229
0.00263821
0.00209506
0.00171739
0.00148418
0.00134523
0.00126285
0.00121351
0.00118312
0.00116361
0.00115036
0.00114075
0.00113326
0.00112704
0.00112161
0.0011167
0.00111216
0.00336631
0.00270841
0.00209185
0.00169144
0.00145761
0.0013244
0.00124918
0.001206
0.00118038
0.00116434
0.0011535
0.00114544
0.00113885
0.00113303
0.00112763
0.00112249
0.0011176
0.0035953
0.00274898
0.00205529
0.00164451
0.00142041
0.00130038
0.00123569
0.00120004
0.00117955
0.00116689
0.0011582
0.0011514
0.00114543
0.00113976
0.00113417
0.00112861
0.00112315
0.00384681
0.00274468
0.00198079
0.00157878
0.00137724
0.00127606
0.00122419
0.00119666
0.00118116
0.00117151
0.00116456
0.00115867
0.00115301
0.00114723
0.00114123
0.00113509
0.00112894
0.00411755
0.00267743
0.00186842
0.00150035
0.00133322
0.00125477
0.00121648
0.0011967
0.00118555
0.00117829
0.00117257
0.00116718
0.00116153
0.00115539
0.00114879
0.00114191
0.00113497
0.00440369
0.00253032
0.00172728
0.00141974
0.00129455
0.00123965
0.00121385
0.00120056
0.00119271
0.00118707
0.00118204
0.00117678
0.00117087
0.00116418
0.00115682
0.00114903
0.00114118
0.00470147
0.00229949
0.00157844
0.00135023
0.00126731
0.00123286
0.00121674
0.00120802
0.00120227
0.0011975
0.00119269
0.00118725
0.00118087
0.00117348
0.00116524
0.00115648
0.00114761
0.00500787
0.00201328
0.0014513
0.00130407
0.00125527
0.00123462
0.0012243
0.00121809
0.00121338
0.00120892
0.00120402
0.00119824
0.00119131
0.00118316
0.00117398
0.00116419
0.0011543
0.00532121
0.001737
0.00137232
0.00128749
0.00125794
0.00124267
0.00123425
0.00122884
0.00122455
0.00122025
0.00121528
0.00120923