/*--------------------------------*- C++ -*----------------------------------*\
  =========                 |
  \\      /  F ield         | OpenFOAM: The Open Source CFD Toolbox
   \\    /   O peration     | Website:  https://openfoam.org
    \\  /    A nd           | Version:  6
     \\/     M anipulation  |
\*---------------------------------------------------------------------------*/
FoamFile
{
    version     2.0;
    format      ascii;
    class       volVectorField;
    location    "4.52";
    object      U;
}
// * * * * * * * * * * * * * * * * * * * * * * * * * * * * * * * * * * * * * //

dimensions      [0 1 -1 0 0 0 0];

internalField   nonuniform List<vector> 
4214
(
(5.39101 0.05035 1.71365e-19)
(5.79553 0.119727 -3.05469e-19)
(5.87916 0.174274 1.94956e-19)
(5.87053 0.231317 -5.46124e-20)
(5.8517 0.309595 7.78672e-22)
(5.83909 0.392962 0)
(5.82641 0.47969 0)
(5.80742 0.575826 0)
(5.77639 0.68324 0)
(5.72537 0.802282 0)
(5.64806 0.933309 -1.53581e-20)
(5.53718 1.07583 1.26193e-20)
(5.38713 1.22715 0)
(5.19537 1.38192 2.41774e-20)
(4.95972 1.52969 -2.77101e-20)
(4.68263 1.65945 -6.43213e-21)
(4.36865 1.75179 -2.34181e-20)
(4.03083 1.79392 0)
(3.6795 1.78792 0)
(3.31002 1.75528 0)
(2.91064 1.7423 9.16362e-22)
(2.48824 1.78183 1.23745e-20)
(2.10672 1.85821 0)
(1.85827 1.94768 0)
(1.83128 2.04526 2.69309e-21)
(2.00099 2.19778 0)
(2.47326 2.41967 7.1147e-21)
(3.21359 2.59155 3.32536e-20)
(4.1357 2.58624 -4.21911e-20)
(5.1278 2.36443 0)
(6.05246 1.98775 -3.66579e-22)
(6.73765 1.56553 -6.73769e-20)
(7.01919 1.20427 1.56985e-20)
(6.9687 0.932271 5.24867e-20)
(6.7764 0.71054 0)
(6.62532 0.522749 -6.25986e-20)
(6.53058 0.371882 5.49147e-20)
(6.46633 0.246257 -1.57303e-19)
(6.41922 0.121557 1.40211e-19)
(6.31695 -0.00451849 0)
(5.98876 -0.0959231 -2.15852e-19)
(5.98904 0.0770184 0)
(6.0253 0.210261 1.03449e-20)
(6.01456 0.264345 -7.51026e-21)
(5.99612 0.308406 -1.37793e-21)
(5.99678 0.37916 -7.80561e-22)
(6.00567 0.463001 4.75523e-20)
(6.01263 0.560061 -3.02316e-20)
(6.01282 0.674291 -1.69084e-20)
(5.99961 0.807609 -7.45846e-21)
(5.96445 0.962924 2.32611e-20)
(5.89907 1.14389 -1.47469e-20)
(5.79604 1.35324 -6.8398e-20)
(5.64583 1.58679 7.58235e-20)
(5.43977 1.83202 -7.05876e-20)
(5.17027 2.06649 1.27453e-20)
(4.84086 2.26867 -3.53058e-20)
(4.45757 2.41342 2.14775e-19)
(4.05294 2.47989 -5.58034e-20)
(3.65712 2.46629 -2.2968e-20)
(3.28928 2.38196 1.73493e-19)
(2.94758 2.27099 0)
(2.59515 2.22774 6.30377e-20)
(2.24084 2.30331 -1.31974e-21)
(1.98431 2.45064 -5.44431e-21)
(1.91585 2.59447 -1.13021e-20)
(2.05255 2.72847 9.49477e-21)
(2.41909 2.86097 -7.10474e-21)
(2.99969 2.94007 6.69123e-21)
(3.74919 2.8868 -3.93559e-20)
(4.61643 2.6639 0)
(5.51584 2.2976 8.12318e-20)
(6.30772 1.86185 -1.18145e-19)
(6.79545 1.46176 0)
(6.89703 1.15294 -7.31835e-20)
(6.75099 0.909805 -1.96812e-19)
(6.58241 0.701424 7.18857e-21)
(6.46974 0.525269 1.00766e-19)
(6.38655 0.3846 1.0093e-19)
(6.33324 0.254027 4.10057e-19)
(6.3323 0.120804 -2.48643e-19)
(6.23667 0.0542059 -4.16954e-19)
(6.04825 0.160185 0)
(6.04348 0.219394 9.00073e-20)
(6.05408 0.269176 -9.01204e-20)
(6.06514 0.326959 7.21942e-20)
(6.08604 0.399612 -1.82386e-20)
(6.11201 0.486626 -5.25668e-20)
(6.13753 0.590175 -1.41366e-22)
(6.15756 0.714611 2.20699e-21)
(6.16592 0.865392 6.55636e-20)
(6.15693 1.05044 -5.91137e-20)
(6.12315 1.27786 -1.06942e-20)
(6.04964 1.54939 0)
(5.9129 1.85212 5.08079e-20)
(5.69558 2.16205 6.99334e-19)
(5.3903 2.44953 -2.10147e-19)
(5.0082 2.69382 0)
(4.55937 2.85871 -9.71304e-20)
(4.09298 2.92203 -6.21392e-20)
(3.64619 2.89271 -2.86678e-19)
(3.24098 2.78578 1.63564e-19)
(2.90009 2.62515 -1.25564e-20)
(2.60458 2.48027 8.9057e-20)
(2.32644 2.45629 0)
(2.09798 2.57565 7.02708e-21)
(2.00659 2.75152 0)
(2.09504 2.91573 0)
(2.39781 3.04372 -7.6299e-20)
(2.90576 3.09917 1.80246e-19)
(3.57752 3.03694 -6.43457e-20)
(4.37206 2.82228 -1.51947e-19)
(5.22071 2.47178 1.51723e-19)
(6.01324 2.04558 2.04811e-19)
(6.57897 1.63252 -1.65115e-19)
(6.79592 1.29494 7.46905e-20)
(6.71957 1.03156 0)
(6.55788 0.811336 6.5379e-20)
(6.43627 0.621223 4.74229e-19)
(6.35111 0.469812 -1.94015e-19)
(6.27509 0.342604 -3.71886e-19)
(6.21094 0.210983 -4.22966e-20)
(6.14887 0.0944892 8.62111e-19)
(6.10723 0.184333 1.60162e-19)
(6.11825 0.228151 -1.56286e-19)
(6.1446 0.280087 1.12567e-19)
(6.17706 0.337024 -1.9674e-19)
(6.21714 0.406804 1.31569e-19)
(6.26465 0.49289 -5.05358e-20)
(6.3154 0.599523 -6.87158e-23)
(6.36655 0.734271 -7.27798e-20)
(6.4167 0.908916 -6.34618e-20)
(6.46124 1.13674 1.48763e-19)
(6.48229 1.42451 3.45473e-19)
(6.44522 1.76396 -3.56087e-19)
(6.30993 2.13271 -5.36605e-19)
(6.05991 2.49748 5.33309e-20)
(5.69569 2.83118 6.04553e-19)
(5.23925 3.11785 -2.55423e-19)
(4.70647 3.31231 2.71936e-19)
(4.15931 3.39008 0)
(3.64584 3.35619 4.18686e-19)
(3.19823 3.22644 -3.72408e-19)
(2.84574 3.02908 1.64339e-20)
(2.58153 2.81212 1.08135e-19)
(2.36852 2.66765 0)
(2.19264 2.67538 4.70375e-20)
(2.10557 2.80743 0)
(2.15714 2.9824 -8.29305e-20)
(2.38298 3.13117 -1.0197e-19)
(2.79655 3.18444 0)
(3.36817 3.14169 1.88546e-19)
(4.07118 2.96437 -7.20533e-20)
(4.85596 2.64267 0)
(5.6433 2.23632 2.47523e-19)
(6.2908 1.82189 -4.91704e-19)
(6.63746 1.4635 4.98318e-19)
(6.65729 1.17681 -9.97148e-19)
(6.51863 0.940339 6.65915e-20)
(6.38646 0.73492 4.31928e-19)
(6.29772 0.566098 -3.47163e-19)
(6.22577 0.430279 6.741e-19)
(6.1676 0.305267 -5.68349e-19)
(6.10408 0.192061 -4.98825e-19)
(6.17114 0.196844 -2.2133e-19)
(6.19711 0.221297 -1.64524e-19)
(6.23852 0.26694 1.62279e-19)
(6.29017 0.316698 7.21305e-21)
(6.35341 0.38037 4.04099e-21)
(6.42682 0.460117 -2.59964e-22)
(6.51214 0.564901 0)
(6.61497 0.708906 1.52365e-19)
(6.7354 0.909203 -1.66049e-19)
(6.85416 1.17664 0)
(6.92866 1.50447 3.43921e-19)
(6.90579 1.87664 0)
(6.74269 2.27417 0)
(6.43623 2.6599 0)
(5.99611 3.01978 -6.2793e-19)
(5.46268 3.33887 0)
(4.8504 3.57165 -4.38811e-19)
(4.22215 3.67321 -1.5361e-18)
(3.63772 3.66341 -3.10447e-19)
(3.14334 3.55793 -1.62009e-18)
(2.76787 3.36184 0)
(2.51393 3.11765 -7.83815e-19)
(2.35149 2.89463 -2.83474e-19)
(2.24078 2.78439 5.3535e-20)
(2.18855 2.82402 0)
(2.22347 2.96528 2.67851e-19)
(2.39119 3.12903 4.77819e-19)
(2.71621 3.20059 0)
(3.19812 3.17922 0)
(3.81175 3.05464 -1.20348e-19)
(4.52009 2.77365 8.77065e-20)
(5.26878 2.39985 0)
(5.95541 1.99946 3.2816e-19)
(6.41577 1.63207 4.37514e-20)
(6.55294 1.32484 8.98357e-19)
(6.46565 1.07017 -5.66123e-19)
(6.33346 0.850356 -9.94204e-19)
(6.23825 0.665029 0)
(6.16496 0.516858 4.08857e-19)
(6.10422 0.38675 -3.64877e-19)
(6.04976 0.265185 7.56267e-19)
(6.23819 0.184468 4.93062e-19)
(6.27988 0.187237 -4.52663e-19)
(6.33723 0.222917 1.94092e-19)
(6.40822 0.259226 -1.62193e-20)
(6.49522 0.309443 -8.3965e-24)
(6.60214 0.376555 2.84192e-21)
(6.73998 0.472909 0)
(6.91811 0.617082 -5.47459e-20)
(7.12246 0.825993 2.0024e-19)
(7.30162 1.09695 3.34637e-19)
(7.39075 1.41167 -3.5516e-19)
(7.34424 1.76529 6.94098e-19)
(7.12489 2.14594 -7.23339e-19)
(6.74315 2.51828 0)
(6.21881 2.88505 2.79721e-18)
(5.6226 3.22818 -6.74287e-19)
(4.95743 3.51783 -3.30516e-18)
(4.25803 3.72097 2.71039e-18)
(3.61215 3.73796 3.377e-19)
(3.0837 3.6969 6.79445e-18)
(2.68328 3.56402 0)
(2.42057 3.34657 4.90632e-19)
(2.28269 3.10159 3.48599e-19)
(2.23257 2.90808 -1.58364e-19)
(2.23128 2.84949 -6.69413e-20)
(2.27686 2.91844 -2.13212e-19)
(2.40711 3.06097 -3.43845e-19)
(2.6583 3.16859 0)
(3.05135 3.17713 -3.26907e-19)
(3.57385 3.09009 7.02205e-19)
(4.19721 2.85889 -2.42502e-19)
(4.89194 2.52759 0)
(5.58335 2.15577 0)
(6.13086 1.79482 -1.13182e-18)
(6.39231 1.47613 1.47456e-18)
(6.38434 1.20392 -6.87123e-19)
(6.26958 0.968574 -1.14417e-19)
(6.17003 0.766483 0)
(6.09982 0.60334 -4.97112e-19)
(6.04213 0.467738 1.4104e-18)
(5.99493 0.338388 8.64511e-19)
(6.30257 0.135334 2.72615e-19)
(6.35503 0.121764 -4.43294e-19)
(6.42596 0.140277 2.38168e-19)
(6.51303 0.156384 -1.15635e-19)
(6.62403 0.183898 1.21151e-19)
(6.77325 0.228218 -2.30939e-21)
(6.97613 0.302633 0)
(7.22808 0.420411 4.07883e-19)
(7.48323 0.590816 -3.32083e-19)
(7.65579 0.805859 -3.45768e-19)
(7.69808 1.06201 0)
(7.61579 1.35812 0)
(7.33247 1.67598 3.66864e-18)
(6.87487 2.00494 -1.30119e-18)
(6.28476 2.35577 -1.2186e-18)
(5.65565 2.70919 -1.80623e-18)
(4.98228 3.07508 2.54301e-18)
(4.26653 3.35391 -3.2997e-18)
(3.58339 3.61818 3.78923e-18)
(3.01051 3.65899 -4.98603e-18)
(2.58298 3.59505 6.16846e-20)
(2.30891 3.44275 -1.5005e-19)
(2.18358 3.22682 9.01349e-20)
(2.17606 3.00784 -2.01425e-20)
(2.22454 2.87555 1.14346e-19)
(2.30137 2.87568 -1.63978e-19)
(2.42086 2.96237 -7.42863e-20)
(2.6201 3.06772 -6.24754e-20)
(2.93408 3.11699 3.35637e-19)
(3.36613 3.06511 4.47966e-19)
(3.90149 2.8887 -4.50215e-19)
(4.52669 2.60895 0)
(5.19497 2.27623 0)
(5.79199 1.93734 0)
(6.16714 1.62084 -8.6806e-19)
(6.2612 1.33746 1.66871e-18)
(6.18761 1.08685 6.7518e-19)
(6.091 0.8689 0)
(6.02352 0.688695 -6.67351e-19)
(5.9706 0.54418 -1.51496e-18)
(5.93304 0.404801 1.0789e-19)
(6.3549 0.0591446 0)
(6.41203 0.0228678 -3.43849e-19)
(6.4907 0.0193896 3.06226e-19)
(6.58968 0.0087671 -1.99702e-19)
(6.72555 0.00522641 2.04607e-19)
(6.91589 0.0127231 -1.66088e-20)
(7.16555 0.0408011 5.32264e-20)
(7.44535 0.095163 2.52612e-19)
(7.68236 0.179276 2.77605e-19)
(7.76733 0.301111 3.99032e-19)
(7.77554 0.466303 -4.28746e-19)
(7.62165 0.656642 1.14031e-18)
(7.25072 0.87322 -3.71022e-18)
(6.74288 1.13761 -3.51207e-18)
(6.13875 1.45289 4.2158e-18)
(5.51391 1.81253 -4.79611e-18)
(4.8729 2.24181 1.20227e-18)
(4.21197 2.6139 3.22667e-18)
(3.54038 3.00732 -4.15287e-18)
(2.931 3.31411 0)
(2.46638 3.42514 0)
(2.17877 3.37628 0)
(2.0661 3.22489 -1.50849e-18)
(2.0843 3.03374 -1.33249e-19)
(2.17229 2.88533 -1.03614e-21)
(2.2858 2.82985 2.306e-19)
(2.4163 2.86079 4.92451e-19)
(2.58986 2.93973 6.91432e-19)
(2.84177 3.00151 0)
(3.19012 2.98548 6.06253e-20)
(3.63729 2.86049 7.616e-19)
(4.18346 2.63566 2.14283e-20)
(4.80528 2.34973 -2.3681e-19)
(5.41812 2.0449 -1.01454e-18)
(5.87925 1.74633 1.92633e-18)
(6.08368 1.46327 -1.7606e-18)
(6.07587 1.20134 -6.54337e-20)
(5.99666 0.968777 1.58537e-18)
(5.93468 0.771999 -1.77043e-19)
(5.88803 0.616483 -6.07788e-19)
(5.86239 0.467887 1.11213e-19)
(6.38006 -0.0461606 0)
(6.43445 -0.103554 0)
(6.51395 -0.131915 0)
(6.61972 -0.174069 0)
(6.77345 -0.216813 -1.94776e-19)
(6.98452 -0.259743 2.35972e-19)
(7.23773 -0.297526 -1.55175e-19)
(7.48621 -0.328228 1.59111e-19)
(7.66617 -0.347969 -2.43289e-19)
(7.73405 -0.344552 0)
(7.63664 -0.320357 -7.01687e-19)
(7.30981 -0.274919 0)
(6.87831 -0.176963 -2.7744e-18)
(6.35188 0.00319101 1.64557e-18)
(5.77457 0.273128 -2.25871e-18)
(5.19474 0.634037 4.96025e-18)
(4.61884 1.09696 -5.68597e-18)
(4.05423 1.56956 5.95775e-18)
(3.44101 2.07776 -5.86802e-18)
(2.84353 2.58695 5.50477e-18)
(2.35846 2.94652 -1.4917e-19)
(2.05106 3.08676 3.49872e-18)
(1.9346 3.056 3.58602e-18)
(1.9655 2.94752 -9.48985e-19)
(2.08068 2.83587 -5.95528e-20)
(2.22781 2.76543 -3.91786e-19)
(2.38246 2.75642 -2.90216e-19)
(2.55276 2.79992 6.4298e-20)
(2.76457 2.85276 0)
(3.04362 2.85776 -1.01336e-18)
(3.4079 2.77575 -5.83854e-19)
(3.87114 2.60282 0)
(4.43001 2.36684 7.4071e-19)
(5.02856 2.10464 -1.11022e-18)
(5.54352 1.83754 1.06249e-18)
(5.84629 1.56939 -3.05571e-18)
(5.92217 1.30519 2.79828e-18)
(5.87958 1.06104 -1.58754e-18)
(5.82951 0.850048 2.17028e-18)
(5.79105 0.682272 -1.85354e-20)
(5.78011 0.525971 -1.75632e-18)
(6.36274 -0.168815 -1.20548e-18)
(6.40628 -0.242325 5.9117e-19)
(6.47951 -0.294998 5.9061e-19)
(6.58161 -0.370138 -5.9478e-19)
(6.73146 -0.457659 -5.48817e-20)
(6.92722 -0.56027 1.91856e-19)
(7.13981 -0.674296 -1.59739e-19)
(7.31622 -0.796325 -1.57513e-19)
(7.39543 -0.920306 1.518e-19)
(7.3286 -1.04369 0)
(7.10408 -1.1667 -7.74196e-19)
(6.75185 -1.26296 -8.51756e-19)
(6.30494 -1.29345 6.91205e-18)
(5.79794 -1.22303 3.59638e-19)
(5.27458 -1.03098 2.16919e-18)
(4.76274 -0.69981 0)
(4.2688 -0.229525 4.3941e-18)
(3.80815 0.31013 -3.81136e-18)
(3.30904 0.918141 -1.0592e-18)
(2.76751 1.57514 4.15064e-19)
(2.28586 2.1469 0)
(1.95351 2.51997 5.30456e-19)
(1.8061 2.68334 -1.90923e-18)
(1.82883 2.71052 7.36533e-19)
(1.95778 2.68313 0)
(2.13202 2.64676 -1.95256e-19)
(2.31396 2.62986 2.03259e-19)
(2.49577 2.6465 5.57138e-20)
(2.68925 2.68086 -9.78173e-19)
(2.91828 2.69088 5.15919e-19)
(3.21089 2.63766 -6.62728e-19)
(3.5941 2.50895 2.46006e-18)
(4.08174 2.32162 -1.23462e-18)
(4.64361 2.1065 1.20886e-18)
(5.17982 1.88113 -1.14347e-18)
(5.55784 1.64183 2.15526e-18)
(5.71891 1.38742 -3.01514e-18)
(5.73065 1.13828 1.8372e-18)
(5.70351 0.917414 -2.57691e-18)
(5.67781 0.738312 -1.55952e-18)
(5.68254 0.576563 1.34716e-18)
(6.29497 -0.288492 0)
(6.32108 -0.370952 0)
(6.37839 -0.444338 0)
(6.46071 -0.545822 0)
(6.58097 -0.672815 0)
(6.72843 -0.829402 -4.13764e-19)
(6.86965 -1.01024 1.57885e-19)
(6.94978 -1.21047 -1.54109e-19)
(6.91328 -1.42602 1.19153e-19)
(6.73143 -1.65537 -1.22434e-19)
(6.41948 -1.89213 -5.51147e-19)
(6.02181 -2.11489 2.30046e-18)
(5.58526 -2.28161 -1.23613e-18)
(5.1387 -2.33754 -1.39527e-18)
(4.70417 -2.24819 -4.44135e-18)
(4.28695 -1.99112 0)
(3.88524 -1.5677 -6.97603e-18)
(3.50327 -1.01787 2.3418e-18)
(3.12646 -0.365783 -6.8403e-19)
(2.70606 0.378832 -6.01708e-18)
(2.26932 1.1129 -1.91396e-19)
(1.90743 1.70392 -4.31899e-18)
(1.70688 2.08366 -2.79116e-18)
(1.6945 2.28668 0)
(1.81827 2.38797 0)
(2.00734 2.43095 -1.96286e-19)
(2.2121 2.44591 2.02892e-19)
(2.41091 2.46053 -1.21644e-18)
(2.60239 2.48234 1.4019e-18)
(2.80199 2.48948 -1.19233e-18)
(3.03911 2.45173 1.1719e-18)
(3.35186 2.35561 0)
(3.76866 2.21174 1.48024e-18)
(4.28067 2.04462 -9.29562e-19)
(4.8116 1.86722 1.21761e-18)
(5.23565 1.66748 -2.23709e-18)
(5.46995 1.43476 -1.15985e-18)
(5.54401 1.19005 -3.10185e-20)
(5.55206 0.965601 3.53167e-18)
(5.54735 0.779051 1.52863e-18)
(5.56665 0.615002 -1.47318e-18)
(6.18415 -0.381771 -1.1031e-18)
(6.19047 -0.463661 0)
(6.22118 -0.549104 0)
(6.26857 -0.665073 0)
(6.34115 -0.815444 -3.00342e-19)
(6.42479 -1.00495 6.77082e-19)
(6.48455 -1.22858 6.86404e-19)
(6.46747 -1.47806 2.30754e-19)
(6.32405 -1.75014 7.06949e-19)
(6.03841 -2.04864 0)
(5.64825 -2.37089 -2.50868e-19)
(5.22119 -2.70003 7.16443e-19)
(4.8121 -2.98952 1.21364e-18)
(4.44167 -3.17705 0)
(4.11147 -3.21564 4.02995e-18)
(3.80959 -3.08297 1.74626e-19)
(3.51175 -2.75559 7.9959e-18)
(3.19629 -2.25175 1.47568e-18)
(2.8899 -1.61843 3.89191e-19)
(2.58624 -0.857472 6.31812e-18)
(2.25476 -0.0336426 -1.94729e-19)
(1.92051 0.723279 4.91516e-18)
(1.6554 1.28918 2.84694e-18)
(1.60441 1.66824 -1.87445e-18)
(1.69103 1.92105 -5.58728e-19)
(1.86976 2.08113 3.91075e-19)
(2.0857 2.16748 -5.5169e-19)
(2.29959 2.21285 4.6144e-19)
(2.49642 2.2402 -4.62944e-19)
(2.68208 2.24704 -1.23615e-18)
(2.88209 2.21753 1.86213e-18)
(3.13898 2.14421 0)
(3.49429 2.03736 -1.37113e-18)
(3.95399 1.91724 9.86867e-19)
(4.46122 1.79052 -1.27146e-18)
(4.90295 1.63601 3.63789e-18)
(5.18892 1.43359 1.05978e-18)
(5.32224 1.20341 -1.1191e-18)
(5.37415 0.98357 1.39912e-19)
(5.39813 0.795946 0)
(5.43301 0.632887 -5.8022e-20)
(6.05094 -0.430517 1.3634e-19)
(6.03787 -0.502623 -1.64331e-19)
(6.03717 -0.587617 -1.097e-18)
(6.04345 -0.70281 6.68212e-19)
(6.06288 -0.856396 8.6492e-19)
(6.08295 -1.05444 -9.03829e-19)
(6.0675 -1.29336 -4.3407e-19)
(5.96124 -1.5626 0)
(5.72296 -1.85795 -7.48901e-19)
(5.35163 -2.19308 -3.02027e-19)
(4.90529 -2.57022 3.10943e-19)
(4.4684 -2.97713 -6.86086e-19)
(4.09951 -3.36628 -1.27825e-18)
(3.80876 -3.67497 -5.56111e-19)
(3.5784 -3.8452 -2.29599e-19)
(3.38436 -3.86597 4.41202e-18)
(3.18985 -3.68813 -1.33944e-18)
(2.94912 -3.28829 4.451e-20)
(2.67695 -2.71374 5.56964e-18)
(2.4265 -1.99632 -1.21161e-17)
(2.18561 -1.18136 0)
(1.9407 -0.335044 -4.79341e-18)
(1.66896 0.37594 -3.4542e-19)
(1.55894 0.895997 2.26581e-18)
(1.60367 1.29084 6.05702e-19)
(1.75342 1.57879 -4.3309e-19)
(1.96093 1.76258 5.45925e-19)
(2.17668 1.86888 -4.69821e-19)
(2.37468 1.92575 -5.91782e-19)
(2.55273 1.94451 6.09238e-19)
(2.73064 1.92477 2.9931e-20)
(2.95 1.87056 1.39634e-18)
(3.25895 1.79847 6.56314e-20)
(3.67359 1.72555 3.63918e-20)
(4.14814 1.64946 -6.57883e-19)
(4.58352 1.53992 -2.42499e-18)
(4.89666 1.37138 0)
(5.07713 1.16447 -6.48001e-20)
(5.17417 0.958578 -1.854e-18)
(5.23164 0.777532 0)
(5.28617 0.619659 0)
(5.92088 -0.425799 1.63592e-19)
(5.89082 -0.482949 1.75434e-19)
(5.86143 -0.55668 -1.68791e-18)
(5.82999 -0.657115 1.72133e-18)
(5.80165 -0.795549 4.86403e-19)
(5.76515 -0.979478 0)
(5.68617 -1.20591 0)
(5.50513 -1.47 -1.42512e-18)
(5.18371 -1.76443 1.45676e-18)
(4.74072 -2.10708 0)
(4.25403 -2.51325 1.32908e-18)
(3.81976 -2.97806 1.12393e-18)
(3.4942 -3.4445 -8.11067e-20)
(3.28221 -3.85369 -3.99369e-19)
(3.14589 -4.13624 -3.24821e-19)
(3.04419 -4.27712 -4.40461e-18)
(2.94252 -4.28642 -4.06895e-18)
(2.77979 -4.0537 5.67425e-19)
(2.54606 -3.60044 0)
(2.31022 -2.96743 5.81495e-18)
(2.10074 -2.22121 1.79808e-19)
(1.93495 -1.40211 0)
(1.72809 -0.593792 3.52856e-18)
(1.5757 0.0367158 0)
(1.57248 0.545445 9.82136e-19)
(1.65922 0.942765 1.57447e-19)
(1.84472 1.22651 -1.581e-19)
(2.05645 1.4086 4.69676e-19)
(2.25283 1.51284 6.51628e-19)
(2.42246 1.55815 -2.32149e-18)
(2.58446 1.55768 -6.41129e-19)
(2.7824 1.52852 0)
(3.06486 1.49576 -1.50699e-18)
(3.44722 1.47243 1.34616e-18)
(3.8869 1.4444 2.65302e-18)
(4.29843 1.37342 -1.25535e-18)
(4.61668 1.23818 0)
(4.82757 1.0612 -2.16732e-18)
(4.964 0.878713 1.99193e-18)
(5.05622 0.711523 -1.78934e-18)
(5.13403 0.564325 0)
(5.81617 -0.37725 -1.76432e-19)
(5.77439 -0.41636 -1.99219e-18)
(5.72398 -0.471384 1.21076e-18)
(5.66445 -0.546654 1.05861e-18)
(5.59909 -0.655755 -1.61717e-18)
(5.51703 -0.807208 0)
(5.38319 -1.00214 0)
(5.14333 -1.23541 1.80135e-18)
(4.75278 -1.51052 0)
(4.24597 -1.83642 0)
(3.71022 -2.25332 -7.14221e-19)
(3.28149 -2.76137 -1.99262e-18)
(2.98356 -3.29538 1.16211e-18)
(2.84596 -3.78486 0)
(2.79672 -4.17213 -3.03958e-18)
(2.7808 -4.3842 -2.99246e-18)
(2.76666 -4.51167 2.85879e-19)
(2.68656 -4.48587 4.7736e-19)
(2.51247 -4.23469 4.5633e-18)
(2.28444 -3.72005 0)
(2.05835 -3.08077 0)
(1.90733 -2.37233 0)
(1.81685 -1.54545 -5.49206e-19)
(1.71083 -0.858889 5.85316e-19)
(1.62875 -0.281413 -1.21465e-18)
(1.64228 0.19254 0)
(1.74748 0.562984 0)
(1.91874 0.826259 -7.71953e-19)
(2.09775 0.991539 -1.07719e-19)
(2.26571 1.07629 3.00622e-18)
(2.43482 1.10703 1.28131e-19)
(2.64158 1.11666 -2.71932e-18)
(2.92371 1.13529 1.42518e-18)
(3.28793 1.16337 0)
(3.69027 1.17714 -1.31261e-18)
(4.06732 1.13444 0)
(4.37289 1.03222 0)
(4.59967 0.887861 1.05751e-18)
(4.76416 0.737669 0)
(4.88882 0.588466 1.67081e-18)
(4.9894 0.458299 -3.1455e-18)
(5.75385 -0.306514 -1.26309e-18)
(5.70713 -0.325126 3.93377e-19)
(5.64287 -0.357722 -3.6043e-19)
(5.56875 -0.402377 -1.04585e-18)
(5.4745 -0.477167 1.64737e-18)
(5.36385 -0.579226 -1.48143e-18)
(5.18198 -0.73437 -2.71846e-19)
(4.90602 -0.904862 2.81686e-18)
(4.44566 -1.15192 -1.04258e-18)
(3.90643 -1.42136 -1.18959e-18)
(3.26226 -1.83601 3.71222e-18)
(2.84875 -2.35297 -2.09349e-18)
(2.51786 -2.98125 -8.18095e-19)
(2.46486 -3.53309 1.13183e-19)
(2.49227 -4.06701 1.11598e-18)
(2.57457 -4.33255 1.78624e-18)
(2.65234 -4.54804 -2.17419e-18)
(2.65648 -4.60364 3.45794e-18)
(2.56043 -4.55879 -5.01075e-18)
(2.37522 -4.21732 -4.11938e-18)
(2.12881 -3.68117 0)
(1.92693 -3.12825 0)
(1.79762 -2.38641 -3.44638e-18)
(1.75468 -1.7122 -2.0439e-18)
(1.74375 -1.09802 0)
(1.75395 -0.592108 0)
(1.82013 -0.194874 3.8758e-19)
(1.93434 0.105156 7.68546e-19)
(2.07183 0.316679 0)
(2.21173 0.456886 6.35611e-19)
(2.36902 0.55099 -1.1684e-18)
(2.58183 0.636048 1.35024e-18)
(2.86271 0.72586 -2.8099e-18)
(3.21309 0.808463 1.28806e-18)
(3.56746 0.85541 2.12147e-20)
(3.91353 0.832022 0)
(4.1874 0.767968 0)
(4.42675 0.649369 0)
(4.59598 0.540909 0)
(4.7534 0.403729 1.91011e-20)
(4.8644 0.302223 -1.49112e-18)
(5.73263 -0.23042 -4.51805e-19)
(5.69436 -0.231452 -5.68899e-19)
(5.61087 -0.23748 3.94164e-19)
(5.54878 -0.250361 -1.27006e-18)
(5.41847 -0.292709 2.04178e-18)
(5.31728 -0.333219 -1.13381e-18)
(5.06347 -0.449406 0)
(4.82458 -0.519819 -2.0891e-18)
(4.22114 -0.724413 1.1294e-18)
(3.7776 -0.87683 2.67735e-18)
(2.89199 -1.33304 -3.92755e-18)
(2.55188 -1.74533 2.24935e-18)
(2.09947 -2.6018 0)
(2.11144 -3.14832 -5.45961e-19)
(2.23325 -3.92167 9.25663e-19)
(2.39076 -4.24951 1.31558e-18)
(2.58596 -4.51396 2.96439e-18)
(2.65458 -4.60061 -3.62211e-18)
(2.63779 -4.63323 -3.8625e-18)
(2.54927 -4.4777 4.82288e-18)
(2.3226 -3.99011 0)
(2.10809 -3.59466 3.71803e-18)
(1.83396 -2.95278 2.86737e-18)
(1.60266 -2.39348 3.82712e-18)
(1.55785 -1.80974 5.46499e-19)
(1.5508 -1.31569 -2.45853e-19)
(1.61202 -0.91382 -6.06449e-19)
(1.72939 -0.592146 8.99193e-19)
(1.87141 -0.345863 -1.33753e-18)
(2.0544 -0.15441 1.13815e-18)
(2.27021 -0.000708086 0)
(2.56043 0.166813 0)
(2.85245 0.295929 4.7802e-19)
(3.22786 0.429329 2.50626e-18)
(3.50161 0.484716 -1.75849e-18)
(3.86078 0.488818 -1.12404e-18)
(4.05414 0.467275 0)
(4.33838 0.358368 0)
(4.45888 0.306025 -8.84529e-19)
(4.67786 0.160621 -1.48381e-18)
(4.76107 0.108267 2.912e-18)
(4.93595 -0.0220135 -2.53937e-18)
(4.97439 0.170598 -1.4169e-18)
(5.05728 0.316698 4.49759e-18)
(5.16468 0.41645 -1.55231e-18)
(5.2831 0.473845 0)
(5.40161 0.496349 -7.46332e-19)
(5.51215 0.492728 7.96587e-19)
(5.61071 0.47184 -1.42992e-18)
(5.69594 0.438589 7.28754e-19)
(5.76934 0.396218 0)
(5.83391 0.347729 5.78868e-19)
(5.89198 0.293944 8.31295e-19)
(5.94592 0.229701 -1.14799e-18)
(6.00128 0.168891 -1.11971e-18)
(6.06242 0.0780768 1.93018e-19)
(6.05148 0.0985342 1.21344e-18)
(5.50868 -0.145191 2.73623e-19)
(4.99851 -0.0677343 9.28998e-20)
(5.04854 0.075405 0)
(5.11364 0.19492 -1.40277e-18)
(5.19283 0.286591 -1.48101e-18)
(5.28034 0.347757 3.96939e-20)
(5.37056 0.381263 3.13349e-18)
(5.4577 0.39247 0)
(5.53869 0.386042 -7.47998e-19)
(5.61267 0.366563 -7.03324e-19)
(5.67938 0.338486 1.4085e-18)
(5.73967 0.304236 0)
(5.79523 0.26497 -1.15582e-18)
(5.84794 0.21728 2.67093e-19)
(5.90072 0.167826 9.21963e-19)
(5.95719 0.0912718 -2.33813e-19)
(5.99444 0.0731407 -7.18335e-19)
(5.47825 -0.145768 -7.09569e-19)
(5.15792 -0.168316 9.83128e-20)
(5.15212 -0.0318071 0)
(5.17964 0.0803612 8.89879e-20)
(5.22903 0.16775 1.44607e-18)
(5.28998 0.229853 -1.50018e-18)
(5.35637 0.26904 7.56145e-19)
(5.42388 0.288686 -2.3041e-18)
(5.48925 0.292533 7.62217e-19)
(5.5508 0.285485 -2.22158e-18)
(5.60807 0.271095 7.4795e-19)
(5.66091 0.250351 0)
(5.71006 0.223865 0)
(5.75838 0.190025 0)
(5.80786 0.150097 -8.73599e-19)
(5.86057 0.0974544 2.71973e-19)
(5.88504 0.064471 1.02862e-18)
(5.38309 -0.0957324 7.38478e-19)
(5.20497 -0.193278 3.66946e-20)
(5.21426 -0.0949616 -1.30371e-18)
(5.23461 -0.00773341 4.08826e-18)
(5.26803 0.0681905 -1.38099e-18)
(5.30999 0.127616 7.10787e-19)
(5.3571 0.169554 2.24624e-18)
(5.40678 0.195777 -2.26934e-18)
(5.4566 0.208927 7.60903e-19)
(5.50461 0.211442 2.25146e-18)
(5.55014 0.205671 -7.32874e-19)
(5.59333 0.194057 -7.07046e-19)
(5.63496 0.177491 1.04642e-18)
(5.67731 0.155383 -3.38332e-19)
(5.72153 0.126521 6.10942e-19)
(5.76756 0.0864586 0)
(5.78756 0.0517861 -1.06665e-18)
(5.29359 -0.0660838 0)
(5.35152 -0.249237 0)
(5.31843 -0.162318 0)
(5.30982 -0.0845961 -3.86754e-20)
(5.31996 -0.0161852 5.14941e-20)
(5.34184 0.0397409 -1.43165e-18)
(5.37107 0.0817806 -7.49277e-19)
(5.40475 0.111379 3.0061e-18)
(5.44058 0.130321 -2.25543e-18)
(5.47669 0.140244 -1.30764e-20)
(5.51148 0.142757 -1.48771e-18)
(5.54447 0.1389 -1.45904e-18)
(5.57669 0.12998 7.28211e-19)
(5.61077 0.117067 3.48127e-19)
(5.64743 0.0989152 -3.44256e-19)
(5.68666 0.0737522 5.02185e-19)
(5.69359 0.0422202 -4.0326e-19)
(5.20253 -0.0317592 -7.57877e-20)
(5.38861 -0.254789 1.13651e-18)
(5.37304 -0.193712 -6.59728e-19)
(5.36443 -0.136803 -6.91137e-19)
(5.36668 -0.0799298 2.72799e-18)
(5.37722 -0.0302991 -6.76303e-19)
(5.39395 0.00945772 -2.19149e-18)
(5.41536 0.0402163 1.65855e-20)
(5.43968 0.0625644 2.23292e-18)
(5.46512 0.0775406 0)
(5.49024 0.0861305 1.49201e-18)
(5.51421 0.0890115 7.4943e-19)
(5.5376 0.0867947 1.09573e-18)
(5.56293 0.0801834 -3.64965e-19)
(5.59028 0.069122 7.10078e-19)
(5.62237 0.0552921 8.60991e-21)
(5.61556 0.0302622 1.34459e-18)
(5.11874 -0.00267344 0)
(5.51858 -0.263804 -5.60509e-19)
(5.47471 -0.218272 -6.27865e-19)
(5.44637 -0.170317 1.29507e-18)
(5.43205 -0.123774 0)
(5.42783 -0.082407 -7.28737e-19)
(5.431 -0.0476526 1.42094e-18)
(5.43992 -0.0189413 7.47796e-19)
(5.45277 0.00442619 -1.49263e-18)
(5.46769 0.0223033 7.43342e-19)
(5.48329 0.0347237 -7.59118e-19)
(5.49897 0.0424979 0)
(5.51524 0.0464064 -1.12387e-18)
(5.53365 0.046791 -3.63296e-19)
(5.55301 0.0426267 -3.71946e-19)
(5.57784 0.035754 -3.61068e-19)
(5.55526 0.0199906 -9.70878e-19)
(5.04547 0.017396 -8.76033e-20)
(5.5448 -0.255272 -5.68383e-19)
(5.51825 -0.221752 6.3784e-19)
(5.49534 -0.190557 -2.49326e-18)
(5.48026 -0.15436 -6.38921e-19)
(5.47189 -0.118843 -7.07988e-19)
(5.46893 -0.0882432 0)
(5.47066 -0.0618639 0)
(5.4759 -0.039176 -7.31231e-19)
(5.48309 -0.0206908 1.09368e-18)
(5.49097 -0.00627752 -7.43975e-19)
(5.49934 0.00468846 3.80616e-19)
(5.50902 0.0125066 7.39312e-19)
(5.5211 0.0174969 5.24263e-21)
(5.53462 0.0190113 -3.75191e-19)
(5.55306 0.0198843 -3.62136e-19)
(5.5152 0.0116914 3.67203e-19)
(4.98757 0.0238978 3.5712e-19)
(5.65011 -0.227536 -1.16043e-18)
(5.61038 -0.210594 3.01309e-18)
(5.57784 -0.186765 -5.84352e-19)
(5.5532 -0.159573 1.31174e-18)
(5.53502 -0.134416 1.37014e-18)
(5.52246 -0.111574 -2.07521e-18)
(5.51481 -0.0899705 -1.10379e-20)
(5.51094 -0.0699798 -7.98745e-21)
(5.50968 -0.0524612 3.51319e-19)
(5.51039 -0.037592 0)
(5.513 -0.025108 -3.01914e-21)
(5.51784 -0.0148631 -1.041e-20)
(5.52493 -0.00655765 3.71674e-19)
(5.53429 -0.00088521 3.63256e-19)
(5.54649 0.00542194 3.77055e-19)
(5.49662 0.00388039 -2.67729e-19)
(4.94947 0.0262951 -4.65093e-19)
(5.66635 -0.212576 -5.37002e-19)
(5.63655 -0.197325 -5.72688e-19)
(5.60985 -0.18402 -1.26525e-18)
(5.58918 -0.165248 -6.92144e-19)
(5.57384 -0.144073 9.73784e-19)
(5.56245 -0.124761 1.01638e-18)
(5.55435 -0.106749 -1.38668e-18)
(5.54872 -0.089366 7.0031e-19)
(5.54453 -0.0733113 0)
(5.54136 -0.0589154 3.52024e-19)
(5.53963 -0.0460242 -7.31413e-19)
(5.54035 -0.034625 -7.26734e-19)
(5.5436 -0.024518 7.38108e-19)
(5.54999 -0.0161332 -1.11753e-18)
(5.55792 -0.00691239 8.52946e-21)
(5.49456 -0.00290922 3.7604e-19)
(4.93473 0.0245086 0)
(5.74062 -0.162734 1.71629e-18)
(5.71031 -0.162668 6.19952e-19)
(5.68219 -0.15586 3.44701e-19)
(5.65737 -0.143237 2.72091e-20)
(5.63592 -0.130786 -1.01683e-18)
(5.61789 -0.118527 1.00872e-18)
(5.60346 -0.105428 -1.04917e-18)
(5.5923 -0.0922152 1.40113e-18)
(5.58372 -0.0794781 -3.61363e-19)
(5.57725 -0.0673562 -3.68844e-19)
(5.573 -0.055858 7.34084e-19)
(5.57151 -0.0450619 -3.52212e-19)
(5.5726 -0.0348681 5.39794e-19)
(5.57706 -0.025547 3.66458e-19)
(5.58276 -0.0154262 3.71868e-19)
(5.50685 -0.00826834 -9.03808e-20)
(4.94016 0.0201748 8.65419e-20)
(5.7485 -0.146626 5.88463e-19)
(5.72403 -0.142139 -5.79178e-19)
(5.70057 -0.139315 3.27387e-19)
(5.68073 -0.132596 -3.35096e-19)
(5.66476 -0.123335 6.43331e-19)
(5.65208 -0.113377 0)
(5.64189 -0.103402 -3.52359e-19)
(5.63303 -0.0926747 -3.34938e-19)
(5.6247 -0.0814478 -1.06148e-18)
(5.61713 -0.0704374 6.97096e-19)
(5.61126 -0.0598357 0)
(5.60821 -0.0496306 0)
(5.60797 -0.039765 -1.08188e-20)
(5.611 -0.0302682 -3.54584e-19)
(5.61335 -0.0202094 -6.10588e-21)
(5.52859 -0.0117936 0)
(4.96327 0.014933 -1.85693e-19)
(5.78713 -0.0913859 -6.44842e-19)
(5.76594 -0.0991574 -2.82366e-20)
(5.74527 -0.101783 6.47704e-19)
(5.7261 -0.0993627 -1.0117e-18)
(5.70921 -0.0950971 1.01756e-18)
(5.69489 -0.0902394 -1.35579e-18)
(5.68264 -0.0841263 6.77263e-19)
(5.67183 -0.0771412 6.88605e-19)
(5.66228 -0.0700423 0)
(5.65426 -0.0625908 -3.50825e-19)
(5.64829 -0.0546632 3.48206e-19)
(5.64508 -0.0465875 -3.53171e-19)
(5.64446 -0.038422 1.69285e-19)
(5.64677 -0.0300545 1.81994e-19)
(5.64532 -0.0213442 0)
(5.55471 -0.0128375 1.71762e-19)
(4.99773 0.00923771 0)
(5.79024 -0.0739572 6.53882e-19)
(5.77265 -0.0746958 -6.37342e-19)
(5.75658 -0.0770824 -6.72268e-19)
(5.74314 -0.0771523 9.91353e-19)
(5.73202 -0.0751392 -5.54312e-22)
(5.72206 -0.0720245 6.70545e-19)
(5.71236 -0.0682848 0)
(5.70283 -0.0639717 -1.84673e-19)
(5.69393 -0.0589689 0)
(5.68638 -0.0533393 0)
(5.68077 -0.0472367 1.70148e-19)
(5.67789 -0.0409611 1.7913e-19)
(5.67765 -0.0342771 -1.76277e-19)
(5.67989 -0.0275984 0)
(5.6731 -0.0202253 0)
(5.58053 -0.0128119 -9.4063e-20)
(5.03759 0.00401397 8.47604e-20)
(5.7973 -0.023148 1.80056e-18)
(5.78608 -0.0339461 -7.07722e-19)
(5.77528 -0.0402944 7.20893e-19)
(5.76502 -0.0425912 -1.9509e-18)
(5.75504 -0.0436471 5.19104e-19)
(5.74512 -0.0441915 -7.08903e-19)
(5.73539 -0.0438385 6.95823e-19)
(5.7263 -0.0425402 -7.04156e-19)
(5.71829 -0.0405397 3.47259e-19)
(5.71174 -0.0379553 1.7274e-19)
(5.70683 -0.034775 -5.28412e-19)
(5.70448 -0.0312658 8.74195e-19)
(5.70482 -0.0269119 -5.24005e-19)
(5.70667 -0.023279 -1.73927e-19)
(5.69514 -0.016349 8.59135e-20)
(5.60184 -0.0126305 -2.21735e-21)
(5.07692 0.00119229 -8.81456e-20)
(5.79365 -0.0096099 -1.87875e-19)
(5.78275 -0.0123372 -9.71263e-19)
(5.77437 -0.0155388 -1.47179e-20)
(5.76719 -0.0181882 7.40691e-19)
(5.75997 -0.0203038 -1.86263e-19)
(5.75238 -0.0218516 -3.70137e-19)
(5.74477 -0.0227951 3.62194e-19)
(5.73773 -0.0231893 1.82447e-19)
(5.73174 -0.0230599 0)
(5.72687 -0.0223983 -2.70516e-19)
(5.72335 -0.0212409 3.56936e-19)
(5.72202 -0.0198209 -7.07588e-19)
(5.723 -0.0176371 2.62842e-19)
(5.72384 -0.0172005 8.78415e-20)
(5.71124 -0.0102107 8.75182e-20)
(5.61498 -0.0144486 -4.33716e-20)
(5.11041 0.00181347 1.30214e-23)
(5.77898 0.0353452 -8.79018e-19)
(5.77526 0.0240702 8.52693e-19)
(5.77058 0.0165591 0)
(5.76434 0.0112742 2.01692e-19)
(5.75732 0.0067511 4.04448e-19)
(5.75041 0.00290564 -7.91488e-19)
(5.74406 -0.000163736 3.88178e-19)
(5.73844 -0.00256863 -9.77785e-20)
(5.73406 -0.00445075 0)
(5.73096 -0.0058723 9.36185e-20)
(5.72872 -0.00683528 -9.25164e-20)
(5.72796 -0.00740936 1.84471e-19)
(5.72924 -0.00744626 9.15488e-20)
(5.72948 -0.00950551 9.15778e-20)
(5.71845 -0.00195789 -1.80782e-19)
(5.61748 -0.0155741 0)
(5.13449 0.00801438 -9.00655e-20)
(5.77007 0.0459499 3.60505e-19)
(5.76342 0.0425144 -1.08727e-19)
(5.75744 0.0380172 5.75105e-19)
(5.75124 0.033162 -5.56416e-19)
(5.74518 0.0284187 -3.25283e-19)