/*--------------------------------*- C++ -*----------------------------------*\
  =========                 |
  \\      /  F ield         | OpenFOAM: The Open Source CFD Toolbox
   \\    /   O peration     | Website:  https://openfoam.org
    \\  /    A nd           | Version:  6
     \\/     M anipulation  |
\*---------------------------------------------------------------------------*/
FoamFile
{
    version     2.0;
    format      ascii;
    class       volScalarField;
    location    "1.64";
    object      p;
}
// * * * * * * * * * * * * * * * * * * * * * * * * * * * * * * * * * * * * * //

dimensions      [0 2 -2 0 0 0 0];

internalField   nonuniform List<scalar> 
800
(
30.0827
-4203.35
-1113.21
-1475.92
-1363.14
-1289.89
-1288.06
-1270.89
-1266.44
-1254.02
-1257.71
-1245.59
-1300.84
-1315.92
-1339.99
-1361.17
-1369.36
-1433.64
-1288.69
-376.258
107.735
-4217.33
-1267.74
-1524.79
-1387.89
-1311.66
-1301.65
-1286.78
-1279.94
-1267.52
-1268.59
-1255.76
-1311.48
-1326.24
-1346.65
-1369.62
-1372.27
-1440.16
-1316.18
-378.682
-74.622
-4213.93
-1389.66
-1499.91
-1380.87
-1302.15
-1293.56
-1277.37
-1270.86
-1260.62
-1260.33
-1250.85
-1305.38
-1320.22
-1343.11
-1364.12
-1370.05
-1439.06
-1326.64
-419.872
-156.913
-4218.66
-1489.63
-1528.11
-1374.98
-1308.32
-1296.99
-1280.53
-1272.39
-1262.86
-1262.03
-1253.75
-1306.82
-1321
-1344.02
-1365.39
-1369.17
-1440.51
-1341.68
-457.976
-252.715
-4175.52
-1586.81
-1534.35
-1382.76
-1306.28
-1295.43
-1280.89
-1271.94
-1261.58
-1261.99
-1254.85
-1306.48
-1321.19
-1343.42
-1364.28
-1367.96
-1439.46
-1354.9
-507.237
-283.822
-4116.63
-1676.24
-1543.94
-1389.38
-1307.62
-1294.68
-1281.2
-1272.01
-1261.7
-1262.2
-1256.24
-1306.88
-1321.85
-1343.44
-1363.26
-1367.02
-1439.2
-1360.63
-550.02
-388.7
-4026.59
-1755.47
-1539.6
-1392.9
-1308.68
-1294.79
-1281.06
-1271.8
-1261.52
-1262.59
-1257.73
-1307.18
-1321.72
-1342
-1361.86
-1367.74
-1436.75
-1363.86
-594.225
-419.927
-3923.83
-1850.8
-1542.35
-1396.28
-1309.42
-1294.94
-1281.16
-1271.45
-1261.59
-1262.94
-1259.4
-1307.67
-1321.48
-1340.81
-1360.16
-1369.03
-1434.16
-1360.41
-633.095
-525.499
-3800.7
-1897.81
-1536.45
-1400.01
-1309.98
-1295.45
-1281.23
-1271.24
-1261.59
-1263.37
-1260.99
-1307.01
-1321.41
-1339.87
-1357.73
-1370.56
-1430.3
-1356.17
-670.87
-545.509
-3702.58
-1975.54
-1531.25
-1404.2
-1311.59
-1295.49
-1281.25
-1270.95
-1261.67
-1263.74
-1262.53
-1306.71
-1320.97
-1338.4
-1355.31
-1372.59
-1426.43
-1348.14
-704.869
-652.619
-3563.17
-1981.72
-1524.06
-1408.42
-1315.08
-1295.33
-1281.35
-1270.79
-1261.78
-1264.18
-1264.19
-1306.11
-1320.73
-1336.91
-1352.95
-1373.83
-1422.17
-1341.06
-736.529
-666.772
-3494.35
-2017.13
-1519.23
-1412.51
-1318.77
-1294.81
-1280.96
-1270.78
-1262.23
-1264.32
-1266.01
-1305.41
-1320.5
-1335.88
-1351.17
-1374.98
-1416.99
-1331.36
-765.783
-770.444
-3352.02
-2000.07
-1523.56
-1413.56
-1325.45
-1293.98
-1280.41
-1270.79
-1262.58
-1264.51
-1267.53
-1304.62
-1319.67
-1334.74
-1349.45
-1375.8
-1411.4
-1323.38
-791.924
-782.923
-3309.06
-2002.37
-1525.88
-1415.73
-1326.88
-1292.79
-1279.72
-1270.98
-1263.05
-1264.63
-1269.33
-1303.66
-1319.29
-1334.11
-1348
-1376
-1405.1
-1312.87
-816.833
-874.768
-3178.48
-1986.17
-1545.52
-1413.75
-1328.76
-1291.69
-1279.3
-1271.12
-1263.65
-1264.4
-1270.35
-1303.21
-1318.45
-1333.33
-1346.94
-1376.04
-1399.09
-1305.31
-837.808
-886.425
-3148.96
-1977.9
-1556.2
-1412.81
-1322.44
-1290.27
-1279.34
-1272.46
-1264.4
-1264.32
-1271.79
-1302.69
-1317.9
-1332.59
-1345.4
-1375.93
-1392.7
-1294.67
-858.789
-962.615
-3042.22
-1972.24
-1585.22
-1410.18
-1318.97
-1288.04
-1279.77
-1272.67
-1264.09
-1264.33
-1272.75
-1302.55
-1317.3
-1332.36
-1344.43
-1375.44
-1386.68
-1288.03
-875.191
-971.587
-3018.43
-1965.85
-1590.89
-1407.2
-1316.32
-1286.27
-1279.6
-1273.25
-1264.7
-1264.13
-1273.98
-1302.45
-1316.91
-1331.3
-1343.46
-1375.19
-1380.71
-1278.08
-892.426
-1033.47
-2937.87
-1967.75
-1605.57
-1404.12
-1316.32
-1284.9
-1279.13
-1273.53
-1265.49
-1263.99
-1274.81
-1302.58
-1316.65
-1330.81
-1342.57
-1374.57
-1375.11
-1272.21
-905.21
-1037.21
-2913.65
-1966.35
-1596.2
-1401.59
-1317.75
-1283.63
-1278.43
-1273.03
-1265.96
-1263.57
-1275.94
-1302.57
-1316.38
-1330.11
-1341.85
-1373.95
-1369.7
-1263.16
-918.857
-1087.1
-2854.17
-1972.82
-1602.88
-1398.67
-1317.56
-1282.44
-1277.63
-1272.64
-1266.41
-1263.26
-1276.55
-1302.66
-1316.2
-1329.57
-1341.06
-1373.41
-1364.44
-1257.62
-929.037
-1083.87
-2818.78
-1975.8
-1594.44
-1398
-1317.35
-1280.91
-1277.52
-1271.87
-1266.43
-1262.79
-1277.36
-1302.46
-1316.16
-1329.14
-1340.45
-1372.03
-1359.3
-1249.34
-939.327
-1122.49
-2770.85
-1982.39
-1604.88
-1396.53
-1314.9
-1279.11
-1277.29
-1271.38
-1265.75
-1262.68
-1277.86
-1302.14
-1316.1
-1328.79
-1339.76
-1371.36
-1354.03
-1243.92
-947.635
-1111.83
-2715.84
-1987.45
-1608.23
-1397.19
-1309.78
-1277.31
-1277.34
-1270.99
-1264.63
-1263.01
-1278.58
-1301.77
-1316.03
-1328.61
-1339.3
-1369.43
-1349.11
-1236.31
-954.988
-1139.56
-2669.61
-1989.9
-1626.58
-1397.51
-1304.15
-1274.94
-1277.48
-1271.08
-1264.14
-1263.7
-1279.34
-1301.37
-1315.75
-1328.47
-1338.85
-1367.98
-1343.7
-1231.08
-961.77
-1122.73
-2596.91
-1995.16
-1638.29
-1398.76
-1298.6
-1273.2
-1277.32
-1271
-1263.81
-1263.9
-1280.24
-1301.01
-1315.59
-1328.28
-1338.87
-1365.76
-1338.84
-1224.03
-966.703
-1140.93
-2547.38
-1992.93
-1657.44
-1399.84
-1294.87
-1270.9
-1277.28
-1271.3
-1263.37
-1264.09
-1280.58
-1300.69
-1315.3
-1328.3
-1338.77
-1363.69
-1333.43
-1219.21
-972.105
-1119.84
-2462.24
-1996.29
-1675.19
-1402.4
-1290.34
-1269.29
-1277.08
-1270.75
-1263.21
-1264.26
-1281.07
-1300.42
-1315.09
-1328.19
-1339.16
-1361.11
-1328.87
-1212.84
-975.267
-1129.73
-2410.4
-1988.18
-1699.57
-1405.33
-1284.41
-1266.81
-1276.72
-1270.28
-1262.87
-1264.43
-1281.14
-1300.31
-1314.62
-1328.07
-1339.21
-1358.98
-1324.32
-1208.81
-979.349
-1105.2
-2323.16
-1989.29
-1721.66
-1409.26
-1278.7
-1264.92
-1275.85
-1269.88
-1262.24
-1264.58
-1281.78
-1300.07
-1314.48
-1328
-1339.61
-1356.51
-1320.67
-1203.12
-981.564
-1106.8
-2271.59
-1979.58
-1745.45
-1413.82
-1274.78
-1263.19
-1275.13
-1269.46
-1261.77
-1264.75
-1281.96
-1300.05
-1314.29
-1327.63
-1339.67
-1354.41
-1317.1
-1199.6
-984.203
-1078.91
-2183.1
-1978.18
-1765.85
-1419.5
-1273.35
-1261.61
-1274.56
-1269.33
-1261.82
-1264.79
-1282.74
-1300.26
-1313.88
-1327.59
-1339.9
-1352.54
-1313.92
-1194.52
-986.113
-1071.47
-2133.09
-1967.26
-1786.48
-1428.26
-1269.85
-1259.3
-1273.65
-1269.13
-1262.06
-1264.94
-1283.57
-1301.26
-1313.88
-1327.47
-1340.04
-1350.69
-1310.82
-1191.48
-987.255
-1039.38
-2048.78
-1965.53
-1802.79
-1435.99
-1271.48
-1258.19
-1272.38
-1268.59
-1262.27
-1265.27
-1282.78
-1300.06
-1314.43
-1327.09
-1340.22
-1349.36
-1308.25
-1187.68
-988.913
-1022.16
-1999.46
-1955.69
-1818.66
-1444.03
-1273.42
-1256.98
-1271.34
-1268.06
-1262.2
-1265.38
-1282.23
-1298.85
-1315.49
-1327.17
-1340.78
-1347.84
-1306.35
-1185.77
-988.755
-986.095
-1919.51
-1951.11
-1834.34
-1455.81
-1276.45
-1255.4
-1270.8
-1267.36
-1262.21
-1265.31
-1282.18
-1298.54
-1315.48
-1327.57
-1341.04
-1347.01
-1304.29
-1183
-989.488
-958.753
-1876.51
-1938.77
-1851.86
-1463.23
-1276.03
-1255.9
-1270.16
-1267.09
-1262.2
-1265.43
-1282.09
-1298.17
-1315.48
-1327.69
-1341.3
-1346.28
-1303.11
-1181.29
-988.85
-920.963
-1811.88
-1930.09
-1869.74
-1475.53
-1275.81
-1255.74
-1270.16
-1266.74
-1262.21
-1265.64
-1281.98
-1297.87
-1315.39
-1327.86
-1341.11
-1345.97
-1302.52
-1179.27
-988.706
-887.959
-1769.78
-1921.01
-1881.26
-1482.46
-1275.21
-1254.98
-1270.23
-1266.56
-1262.18
-1265.83
-1281.71
-1297.68
-1315.37
-1327.73
-1340.64
-1345.36
-1301.87
-1178.07
-988.351
-865.002
-1712.73
-1920.47
-1900.86
-1486.16
-1277.4
-1254.52
-1270.08
-1266.67
-1262.2
-1265.6
-1281.29
-1297.38
-1315.07
-1327.28
-1339.9
-1345.65
-1301.61
-1177.24
-988.202
)
;

boundaryField
{
    piston
    {
        type            zeroGradient;
    }
    outlet
    {
        type            zeroGradient;
    }
    walls
    {
        type            zeroGradient;
    }
    front
    {
        type            empty;
    }
    back
    {
        type            empty;
    }
}


// ************************************************************************* //
