/*--------------------------------*- C++ -*----------------------------------*\
  =========                 |
  \\      /  F ield         | OpenFOAM: The Open Source CFD Toolbox
   \\    /   O peration     | Website:  https://openfoam.org
    \\  /    A nd           | Version:  6
     \\/     M anipulation  |
\*---------------------------------------------------------------------------*/
FoamFile
{
    version     2.0;
    format      ascii;
    class       volScalarField;
    location    "4.94";
    object      T;
}
// * * * * * * * * * * * * * * * * * * * * * * * * * * * * * * * * * * * * * //

dimensions      [0 0 0 1 0 0 0];

internalField   nonuniform List<scalar> 
10000
(
1
1
1
1
1
1
1
1
1
1
1
1
1
1
1
1
1
1
1
1
1
1
1
1
1
1
1
1
1
1
1
1
1
1
1
1
1
1
1
1
1
1
1
1
1
1
1
1
1
1
1
1
1
1
1
1
1
1
1
1
1.00001
1.00001
1.00001
1.00001
1.00001
1.00001
1.00001
1.00001
1.00001
1.00001
1.00001
1.00001
1.00001
1.00001
1.00001
1.00001
1.00001
1.00001
1.00001
1.00001
1.00001
1.00001
1.00001
1
1
1
1
1
1
1
1
1
1
1
1
1
1
1
1
1
1
1
1
1
1
1
1
1
1
1
1
1
1
1
1
1
1
1
1
1
1
1
1
1
1
1
1
1
1
1
1
1
1
1
1
1
1
1
1
1
1
1
1
1
1
1
1
1
1
1
1
1
1
1
1
1
1
1
1.00001
1.00001
1.00001
1.00001
1.00001
1.00001
1.00001
1.00002
1.00002
1.00002
1.00002
1.00002
1.00002
1.00002
1.00002
1.00002
1.00002
1.00002
1.00002
1.00002
1.00001
1.00001
1.00001
1.00001
1.00001
1.00001
1.00001
1
1
1
1
1
1
1
1
1
1
1
1
1
1
1
1
1
1
1
1
1
1
1
1
1
1
1
1
1
1
1
1
1
1
1
1
1
1
1
1
1
1
1
1
1
1
1
1
1
1
1
1
1
1
1
1
1
1
1
1
1
1
1
1
1
1
1
1
1
1
1
1
1.00001
1.00001
1.00001
1.00001
1.00001
1.00002
1.00002
1.00002
1.00002
1.00002
1.00002
1.00002
1.00002
1.00002
1.00002
1.00002
1.00002
1.00002
1.00002
1.00002
1.00002
1.00002
1.00002
1.00002
1.00001
1.00001
1.00001
1.00001
1.00001
1
1
1
1
1
1
1
1
1
1
1
1
1
1
1
1
1
1
1
1
1
1
1
1
1
1
1
1
1
1
1
1
1
1
1
1
1
1
1
1
1
1
1
1
1
1
1
1
1
1
1
1
1
1
1
1
1
1
1
1
1
1
1
1
1
1
1
1
1
1.00001
1.00001
1.00001
1.00001
1.00001
1.00002
1.00002
1.00002
1.00002
1.00002
1.00003
1.00003
1.00003
1.00003
1.00003
1.00003
1.00003
1.00003
1.00003
1.00003
1.00003
1.00003
1.00003
1.00003
1.00002
1.00002
1.00002
1.00002
1.00001
1.00001
1.00001
1.00001
1
1
1
1
1
1
1
1
1
1
1
1
1
1
1
1
1
1
1
1
1
1
1
1
1
1
1
1
1
1
1
1
1
1
1
1
1
1
1
1
1
1
1
1
1
1
1
1
1
1
1
1
1
1
1
1
1
1
1
1
1
1
1
1
1
1
1
1.00001
1.00001
1.00001
1.00001
1.00002
1.00002
1.00002
1.00002
1.00002
1.00003
1.00003
1.00003
1.00003
1.00003
1.00003
1.00003
1.00003
1.00003
1.00003
1.00003
1.00003
1.00003
1.00003
1.00003
1.00003
1.00003
1.00003
1.00003
1.00002
1.00002
1.00001
1.00001
1.00001
1.00001
1
1
1
1
1
1
1
1
1
1
1
1
1
1
1
1
1
1
1
1
1
1
1
1
1
1
1
1
1
1
1
1
1
1
1
1
1
1
1
1
1
1
1
1
1
1
1
1
1
1
1
1
1
1
1
1
1
1
1
1
1
1
1
1
1
1.00001
1.00001
1.00001
1.00001
1.00002
1.00002
1.00002
1.00002
1.00003
1.00003
1.00003
1.00003
1.00003
1.00003
1.00002
1.00002
1.00002
1.00002
1.00002
1.00002
1.00002
1.00002
1.00003
1.00003
1.00003
1.00003
1.00004
1.00004
1.00003
1.00003
1.00002
1.00002
1.00002
1.00001
1.00001
1.00001
1
1
1
1
1
1
1
1
1
1
1
1
1
1
1
1
1
1
1
1
1
1
1
1
1
1
1
1
1
1
1
1
1
1
1
1
1
1
1
1
1
1
1
1
1
1
1
1
1
1
1
1
1
1
1
1
1
1
1
1
1
1
1
1
1.00001
1.00001
1.00001
1.00002
1.00002
1.00002
1.00003
1.00003
1.00003
1.00003
1.00003
1.00002
1.00002
1.00002
1.00002
1.00001
1.00001
1.00001
1.00001
1.00001
1.00001
1.00001
1.00002
1.00002
1.00003
1.00003
1.00003
1.00004
1.00004
1.00004
1.00003
1.00003
1.00002
1.00002
1.00001
1.00001
1.00001
1
1
1
1
1
1
1
1
1
1
1
1
1
1
1
1
1
1
1
1
1
1
1
1
1
1
1
1
1
1
1
1
1
1
1
1
1
1
1
1
1
1
1
1
1
1
1
1
1
1
1
1
1
1
1
1
1
1
1
1
1
1
1.00001
1.00001
1.00001
1.00002
1.00002
1.00002
1.00003
1.00003
1.00003
1.00002
1.00002
1.00002
1.00002
1.00001
1.00001
1
1
0.999999
0.999997
0.999996
0.999995
0.999995
0.999997
1
1.00001
1.00001
1.00002
1.00003
1.00003
1.00004
1.00004
1.00004
1.00003
1.00003
1.00002
1.00002
1.00001
1.00001
1.00001
1
1
1
1
1
1
1
1
1
1
1
1
1
1
1
1
1
1
1
1
1
1
1
1
1
1
1
0.999999
1
1
1
1
1
1
1
1
1
1
1
1
1
1
1
1
1
1
1
1
1
1
1
1
1
1
1
1
1
1
1
1
1.00001
1.00001
1.00001
1.00002
1.00002
1.00002
1.00003
1.00003
1.00002
1.00002
1.00002
1.00002
1.00001
1.00001
1
0.999995
0.99999
0.999986
0.999983
0.999981
0.999979
0.99998
0.999978
0.999977
0.99998
0.999986
0.999993
1
1.00001
1.00002
1.00003
1.00004
1.00004
1.00004
1.00004
1.00003
1.00002
1.00002
1.00001
1.00001
1.00001
1
1
1
1
1
1
1
1
1
1
1
1
1
1
1
1
1
1
1
1
1
1
1
1
0.999999
1
0.999999
1
1
1
1
1
1
1
1
1
1
1
1
1
1
1
1
1
1
1
1
1
1
1
1
1
1
1
1
1
1
1
1
1.00001
1.00001
1.00002
1.00002
1.00002
1.00003
1.00003
1.00002
1.00002
1.00002
1.00001
1.00001
0.999999
0.999993
0.999986
0.999981
0.999976
0.999973
0.999969
0.999967
0.999965
0.999965
0.999969
0.999965
0.99996
0.999961
0.99997
0.999982
0.999992
1
1.00002
1.00003
1.00004
1.00004
1.00004
1.00004
1.00003
1.00002
1.00002
1.00001
1.00001
1.00001
1
1
1
1
1
1
1
1
1
1
1
1
1
1
1
1
1
1
1
1
1
1
0.999999
1
0.999999
1
1
1
1
1
1
1
1
1
1
1
1
1
1
1
1
1
1
1
1
1
1
1
1
1
1
1
1
1
1
1
1
1.00001
1.00001
1.00002
1.00002
1.00002
1.00003
1.00002
1.00002
1.00002
1.00001
1.00001
1
0.999995
0.999988
0.999981
0.999974
0.99997
0.999966
0.999963
0.999964
0.999959
0.99996
0.999953
0.999958
0.999969
0.999963
0.999949
0.999941
0.999953
0.999972
0.999985
0.999997
1.00001
1.00003
1.00004
1.00004
1.00004
1.00004
1.00003
1.00002
1.00002
1.00001
1.00001
1
1
1
1
1
1
1
1
1
1
1
1
1
1
1
1
1
1
1
1
0.999999
1
0.999997
1
0.999997
1
0.999998
1
1
1
1
1
1
1
1
1
1
1
1
1
1
1
1
1
1
1
1
1
1
1
1
1
1
1
1
1
1.00001
1.00001
1.00001
1.00002
1.00002
1.00003
1.00002
1.00002
1.00002
1.00001
1.00001
1
0.999993
0.999985
0.999978
0.999971
0.999965
0.999962
0.999962
0.999956
0.999962
0.999966
0.999959
0.999962
0.999939
0.999959
0.99998
0.999981
0.999952
0.999926
0.999937
0.999963
0.999981
0.999995
1.00001
1.00003
1.00004
1.00004
1.00004
1.00003
1.00003
1.00002
1.00001
1.00001
1.00001
1
1
1
1
1
1
1
1
1
1
1
1
1
1
1
1
1
1
1
1
1
1
1
0.999998
1
0.999998
1
1
0.999999
1
1
1
1
1
1
1
1
1
1
1
1
1
1
1
1
1
1
1
1
1
1
1
1
1
1
1.00001
1.00001
1.00002
1.00002
1.00003
1.00002
1.00002
1.00002
1.00001
1.00001
1
0.999993
0.999985
0.999978
0.999971
0.999964
0.999959
0.999958
0.999959
0.999964
0.999947
0.999979
0.999971
0.999985
0.999961
0.999917
0.999943
0.999994
1.00002
0.999977
0.999927
0.999925
0.999954
0.999979
0.999996
1.00001
1.00003
1.00004
1.00004
1.00004
1.00003
1.00002
1.00002
1.00001
1.00001
1.00001
1
1
1
1
1
1
1
1
1
1
1
1
1
0.999999
1
0.999998
1
0.999996
1.00001
0.999994
1.00001
0.999993
1
0.999998
1
1
1
0.999998
1
0.999998
1
1
1
1
1
1
1
1
1
1
1
1
1
1
1
1
1
1
1
1
1
1
1
1
1.00001
1.00002
1.00002
1.00002
1.00003
1.00002
1.00002
1.00001
1.00001
1
0.999994
0.999987
0.99998
0.999974
0.999967
0.99996
0.999954
0.999951
0.999948
0.999964
0.999959
0.999935
1
0.999978
1.00005
0.999969
0.999883
0.999879
0.999975
1.00005
1.00002
0.999951
0.999929
0.99995
0.999978
0.999998
1.00001
1.00003
1.00004
1.00004
1.00003
1.00003
1.00002
1.00002
1.00001
1.00001
1
1
1
1
1
1
1
1
1
1
1
1
1
0.999999
1
0.999998
1
0.999997
1
0.999996
1.00001
0.999993
1.00001
0.999995
1
0.999999
1
0.999998
1
0.999997
1
0.999999
1
1
1
1
1
1
1
1
1
1
1
1
1
1
1
1
1
1
1
1
1
1.00001
1.00001
1.00002
1.00002
1.00003
1.00002
1.00002
1.00001
1.00001
1
0.999995
0.999989
0.999983
0.999979
0.999976
0.999968
0.999954
0.999941
0.999923
0.999921
0.999905
0.99998
0.999896
0.999943
0.999966
1.00003
1.00013
1.00005
0.999878
0.999789
0.999898
1.00003
1.00005
0.999986
0.999951
0.999958
0.999981
1
1.00002
1.00003
1.00003
1.00003
1.00003
1.00002
1.00002
1.00001
1.00001
1.00001
1
1
1
1
1
1
1
1
1
0.999999
1
0.999997
1
0.999995
1.00001
0.999993
1.00001
0.99999
1.00001
0.999989
1.00001
0.999997
1
1
1
0.999998
1
1
0.999998
1
1
0.999999
1
1
1
1
1
1
1
1
1
1
1
1
1
1
1
1
1
1
1
1
1.00001
1.00001
1.00002
1.00003
1.00003
1.00002
1.00002
1.00001
1
0.999996
0.99999
0.999985
0.999984
0.999987
0.999985
0.999968
0.999934
0.999891
0.99985
0.999824
0.999812
0.999828
0.999978
0.999795
0.999945
0.999864
1.00008
1.00025
1.00022
0.999968
0.999757
0.999812
0.999967
1.00003
1.00001
0.999976
0.999975
0.99999
1.00001
1.00002
1.00003
1.00003
1.00003
1.00003
1.00002
1.00002
1.00001
1.00001
1
1
1
1
1
1
1
0.999999
1
0.999998
1
0.999995
1.00001
0.999992
1.00001
0.99999
1.00001
0.999992
1.00001
0.999987
1.00001
0.999988
1.00001
0.999998
1
0.999994
1.00001
0.999995
1
0.999999
1
0.999998
1
0.999999
1
1
1
1
1
1
1
1
1
1
1
1
1
1
1
1
1
1.00001
1.00001
1.00002
1.00002
1.00003
1.00002
1.00002
1.00001
1
0.999997
0.999991
0.999985
0.999984
0.999996
1.00001
1
0.999952
0.999864
0.99976
0.999699
0.999601
0.999615
0.999491
0.999744
0.99975
0.999752
0.999711
0.999698
0.999954
1.00029
1.0004
1.00014
0.999834
0.999791
0.999907
0.999989
1
0.99999
0.99999
1
1.00002
1.00003
1.00003
1.00003
1.00003
1.00002
1.00002
1.00001
1.00001
1.00001
1
1
1
1
1
1
1
0.999999
1
0.999997
1.00001
0.999992
1.00001
0.999989
1.00001
0.999988
1.00002
0.99998
1.00002
0.999994
0.999997
1
1
0.999999
0.999997
1.00001
0.999992
1.00001
0.999997
1
0.999998
1
0.999999
1
1
1
1
1
1
1
1
1
1
1
1
1
1
1
1
1
1.00001
1.00001
1.00002
1.00003
1.00003
1.00002
1.00002
1.00001
0.999999
0.999992
0.999988
0.99998
0.999991
1.00003
1.00006
1.00001
0.999871
0.999694
0.999529
0.999356
0.999177
0.998972
0.999033
0.998847
0.999548
0.99939
0.999729
0.999424
0.999391
0.99964
1.00012
1.00041
1.00026
0.999963
0.999848
0.999894
0.999958
0.999987
0.999994
1
1.00001
1.00002
1.00003
1.00003
1.00003
1.00003
1.00002
1.00001
1.00001
1.00001
1
1
1
1
1
0.999998
1
0.999995
1.00001
0.999991
1.00001
0.999984
1.00002
0.999978
1.00002
0.999986
1.00001
0.999983
1.00003
0.999976
1.00001
0.999998
1
0.999992
1.00001
0.999998
0.999997
1
0.999999
1
0.999999
1
0.999999
1
1
1
1
1
1
1
1
1
1
1
1
1
1
1
1
1
1.00001
1.00002
1.00002
1.00003
1.00002
1.00002
1.00001
1
0.999992
0.999989
0.999983
0.999975
1.00002
1.0001
1.00011
0.999955
0.999678
0.999384
0.999062
0.99867
0.998372
0.997887
0.997927
0.997939
0.998495
0.999147
0.999659
0.999765
0.999541
0.999222
0.999337
0.999844
1.00022
1.00022
1.00003
0.999915
0.999917
0.999955
0.99998
0.999996
1.00001
1.00002
1.00003
1.00003
1.00003
1.00003
1.00002
1.00002
1.00001
1.00001
1.00001
1
1
1
1
0.999999
1
1
0.999998
1.00001
0.99999
1.00001
0.999985
1.00001
0.99999
1.00001
0.999974
1.00003
0.999981
0.999998
1.00001
0.999999
0.999996
0.999996
1.00001
0.999986
1.00001
0.999996
1
0.999996
1
1
0.999999
1
1
1
1
1
1
1
1
1
1
1
1
1
1
1
1
1.00001
1.00001
1.00002
1.00002
1.00002
1.00002
1.00002
1.00001
0.999998
0.999986
0.999987
0.999973
0.999977
1.00009
1.00021
1.00014
0.999796
0.99931
0.99877
0.998214
0.997752
0.99705
0.996309
0.995251
0.995828
0.995843
0.997878
0.998587
0.999912
1.00012
0.999856
0.999464
0.999352
0.999689
1.00004
1.00011
1.00003
0.999963
0.999941
0.999961
0.999987
1
1.00001
1.00002
1.00003
1.00003
1.00003
1.00002
1.00002
1.00001
1.00001
1.00001
1
1
1
0.999999
1
0.999994
1.00001
0.999988
1.00002
0.999979
1.00003
0.999967
1.00003
0.999975
1.00001
0.999992
1.00003
0.99996
1.00003
0.999998
0.999996
0.999992
1.00001
1
0.999987
1.00001
0.999992
1.00001
0.999994
1.00001
0.999998
1
1
1
0.999999
1
1
1
1
1
1
1
1
1
1
1
1
1
1.00001
1.00001
1.00002
1.00003
1.00002
1.00002
1.00002
1.00001
0.999989
0.99998
0.999985
0.999958
1.00001
1.00022
1.00033
1.0001
0.999451
0.998573
0.997815
0.997299
0.996423
0.994458
0.99207
0.989801
0.98922
0.990551
0.992955
0.995628
0.998239
0.99954
1.00031
1.00018
0.999742
0.999604
0.999739
0.999952
1.00004
0.999992
0.99997
0.999978
0.999976
0.999987
1.00001
1.00002
1.00003
1.00003
1.00003
1.00002
1.00002
1.00002
1.00001
1.00001
1
1
1
0.999999
1
0.999999
0.999999
1
0.99999
1.00002
0.999978
1.00002
0.999985
1.00001
0.999984
1.00004
0.999951
1.00002
1.00002
0.999991
0.999987
1.00001
1.00001
0.999983
1
1
0.999996
1
0.999998
1
0.999996
1
1
1
0.999999
1
1
1
1
1
1
1
1
1
1
1
1
1
1.00001
1.00002
1.00002
1.00003
1.00002
1.00002
1.00002
0.999999
0.999979
0.999977
0.999978
0.999947
1.0001
1.00038
1.00044
0.999951
0.998687
0.997481
0.996934
0.996053
0.993214
0.988546
0.983039
0.97976
0.977572
0.980013
0.982465
0.988478
0.992649
0.996595
0.998805
0.999639
0.999981
0.999853
0.999753
0.99984
0.999911
0.999988
1.00001
0.999963
0.999959
0.999999
1.00001
1.00001
1.00002
1.00003
1.00003
1.00003
1.00002
1.00002
1.00001
1.00001
1.00001
1
1
1.00001
0.999995
1.00001
0.999987
1.00002
0.999978
1.00003
0.999964
1.00004
0.999954
1.00003
1
0.999996
0.999967
1.00006
0.99998
0.99998
1.00001
1.00002
0.999995
0.999979
1.00002
0.999992
1.00001
0.999992
1.00001
0.999999
0.999997
1
1
0.999999
0.999999
1
0.999999
1
1
1
1
1
1
1
1
1
1
1
1.00001
1.00002
1.00002
1.00003
1.00002
1.00002
1.00002
0.999989
0.999965
0.999974
0.999963
0.999962
1.00025
1.00056
1.0006
0.999417
0.997478
0.996534
0.995888
0.993045
0.986638
0.977328
0.968325
0.962572
0.961036
0.962239
0.966688
0.973962
0.981564
0.989714
0.994545
0.997594
0.999039
0.999508
0.999753
0.999802
0.999898
0.99997
0.999906
0.999944
1.00003
1.00001
0.99998
1.00001
1.00003
1.00003
1.00003
1.00003
1.00002
1.00002
1.00001
1.00001
1.00001
1
1
1
0.999999
1
1
0.999991
1.00002
0.999974
1.00003
0.999967
1.00002
1
1.00001
0.999946
1.00007
0.999985
0.999964
1
1.00004
0.999994
0.99997
1.00001
1.00002
0.999991
1
0.999989
1.00001
0.999993
1
1
1
0.999998
1
1
0.999999
1
1
0.999999
1
1
1
1
1
1
1
1.00001
1.00001
1.00002
1.00003
1.00002
1.00001
1.00003
1.00001
0.999975
0.99995
0.999968
0.999948
1.00003
1.00042
1.00083
1.0006
0.998357
0.996299
0.995761
0.993682
0.986946
0.974807
0.959714
0.946645
0.93846
0.938267
0.940407
0.948278
0.955632
0.967394
0.978346
0.987758
0.994186
0.996997
0.998546
0.999304
0.99963
0.999804
0.999781
0.999934
1.00008
0.999965
0.999913
1
1.00003
1.00002
1.00002
1.00003
1.00003
1.00002
1.00002
1.00001
1.00001
1.00001
1.00001
1.00001
0.999997
1.00001
0.999988
1.00002
0.99998
1.00003
0.999969
1.00004
0.999946
1.00006
0.999963
0.999988
1.00003
1.00003
0.99992
1.00002
1.00005
0.999997
0.99995
0.999996
1.00005
0.999995
0.999985
0.99999
1.00001
1.00001
0.999988
1
0.999997
1
0.999996
1
0.999998
1
1
1
1
1
1
1
1
1
1
1
1.00001
1.00001
1.00002
1.00003
1.00002
1.00001
1.00004
1.00001
0.999957
0.999931
0.99996
0.999947
1.00013
1.00065
1.00113
1.00018
0.997185
0.995476
0.994496
0.989089
0.975745
0.956263
0.937074
0.920915
0.911856
0.910605
0.917493
0.92829
0.940296
0.954498
0.966945
0.98
0.988793
0.994314
0.997194
0.998318
0.99909
0.999496
0.99988
1.00006
0.999819
0.999816
1.00004
1.00006
0.999982
0.999997
1.00003
1.00003
1.00003
1.00002
1.00002
1.00002
1.00001
1.00001
1
1.00001
1
1
1.00001
0.99999
1.00002
0.999973
1.00004
0.999956
1.00004
0.99998
0.999986
1.00001
1.00005
0.9999
1.00003
1.00006
0.999991
0.999922
1.00001
1.00006
1.00001
0.999946
0.999994
1.00002
1.00003
0.99998
0.999986
1.00001
1.00001
0.999999
0.999995
1
1
0.999999
1
0.999999
1
1
1
1
1
1
1
1
1.00001
1.00001
1.00002
1.00003
1.00001
1.00001
1.00006
0.999992
0.999938
0.999904
0.999953
0.999963
1.00027
1.00102
1.00111
0.999658
0.996437
0.994414
0.991696
0.980661
0.959447
0.934392
0.911392
0.892463
0.880778
0.877829
0.887632
0.90285
0.924722
0.943098
0.95979
0.972986
0.983259
0.991128
0.994973
0.997215
0.998516
0.999295
0.999697
0.999537
0.999755
1.00016
1.00005
0.999883
0.999967
1.00004
1.00003
1.00002
1.00002
1.00003
1.00002
1.00002
1.00001
1.00001
1
0.999999
1.00001
0.99999
1.00002
0.999981
1.00002
0.999971
1.00004
0.999953
1.00006
0.999927
1.00005
1.00001
0.999944
0.999991
1.00011
0.99995
0.999922
1.00003
1.00009
0.999987
0.999915
1
1.00006
1.00002
0.999965
0.999966
1.00003
1.00001
0.999996
0.999981
1.00001
1
1
0.999995
1
1
0.999998
1
1
1
1
1
1
1
1.00001
1.00002
1.00002
1.00003
1
1.00002
1.00008
0.999968
0.999921
0.999864
0.999953
0.99999
1.0005
1.00133
1.00079
0.999669
0.995697
0.992339
0.986725
0.968876
0.941134
0.911905
0.882325
0.857249
0.840721
0.837709
0.847317
0.869889
0.900741
0.929309
0.953039
0.967711
0.979527
0.987246
0.992679
0.996093
0.997688
0.998721
0.999087
0.999674
1.00021
0.999905
0.999711
0.999972
1.00008
1.00001
0.999999
1.00002
1.00003
1.00002
1.00002
1.00002
1.00001
1.00001
1.00001
1
1
1.00001
0.999993
1.00002
0.999977
1.00003
0.999958
1.00005
0.999957
1.00002
1.00002
0.999959
0.99998
1.00011
0.999934
0.999922
1.00006
1.00009
0.999942
0.999909
1.00003
1.00009
0.999996
0.999934
0.999973
1.00005
1.00004
0.999964
0.999985
1
1.00002
0.999988
0.999995
1
1
0.999999
0.999999
1
0.999999
1
1
1
1
1.00001
1.00001
1.00002
1.00002
1.00003
0.99998
1.00004
1.0001
0.999942
0.999909
0.999803
0.99996
1.00005
1.0008
1.00133
1.00079
0.999855
0.99428
0.989811
0.979547
0.956084
0.923511
0.887901
0.84973
0.817196
0.797068
0.792388
0.804573
0.835197
0.872571
0.911551
0.941724
0.962422
0.975184
0.983597
0.990477
0.994501
0.997172
0.998462
0.999298
0.99989
0.99955
0.999536
1.00005
1.00012
0.999947
0.99996
1.00002
1.00003
1.00002
1.00002
1.00002
1.00002
1.00002
1.00001
1.00001
1.00001
0.999992
1.00002
0.999982
1.00002
0.999971
1.00004
0.999956
1.00006
0.999928
1.00008
0.999933
1.00001
1.00006
0.999967
0.999911
1.0001
1.00006
0.999905
0.999935
1.00007
1.00009
0.999944
0.999922
1
1.00007
1.00002
0.999949
0.99997
1.00003
1.00002
0.999983
0.999988
1
1.00001
0.99999
0.999999
1.00001
0.999999
0.999998
1
1
1
1
1.00001
1
1.00003
1.00002
1.00004
0.999946
1.00008
1.00011
0.999926
0.999897
0.999711
0.999982
1.00018
1.00101
1.00121
1.00145
0.998944
0.993316
0.987176
0.971394
0.944129
0.905815
0.863316
0.820587
0.781673
0.754391
0.746833
0.76842
0.807688
0.85178
0.894465
0.928475
0.953539
0.968866
0.980709
0.988734
0.994338
0.997253
0.998354
0.999093
0.99906
0.999406
1.00013
1.00009
0.999822
0.999922
1.00004
1.00003
1.00001
1.00002
1.00002
1.00002
1.00002
1.00001
1.00001
1
1.00001
1
0.999999
1.00001
0.999987
1.00002
0.999972
1.00003
0.999964
1.00003
0.999995
0.999968
1.00006
0.99998
0.999926
1.0001
1.00003
0.999893
0.999979
1.00011
1.00003
0.999915
0.999937
1.00007
1.00006
0.999987
0.999932
0.999987
1.00005
1.00002
0.999979
0.99997
1.00002
1.00001
0.999995
0.999995
1
1
0.999999
1
1
0.999999
1
1
1.00001
0.999998
1.00004
1.00002
1.00005
0.999902
1.00014
1.00009
0.999943
0.999867
0.999581
1.00005
1.00038
1.00098
1.00141
1.00191
0.997518
0.993416
0.984591
0.964093
0.932549
0.88932
0.844425
0.800785
0.751852
0.715723
0.71265
0.742671
0.789865
0.840219
0.882953
0.917832
0.944211
0.964722
0.979387
0.988889
0.994348
0.996471
0.997838
0.998459
0.999212
1.00007
0.999928
0.99967
0.99991
1.00006
1.00001
0.999993
1.00002
1.00003
1.00002
1.00002
1.00002
1.00001
1.00001
1.00001
0.999999
1.00001
0.999988
1.00002
0.999976
1.00003
0.99996
1.00005
0.999937
1.00008
0.999919
1.00007
0.999979
0.999958
1.00005
1.00003
0.999894
1.00002
1.0001
0.999972
0.999918
0.99999
1.00009
1.00002
0.999951
0.99995
1.00002
1.00005
1.00001
0.999955
0.999989
1.00002
1.00002
0.99999
0.999981
1.00001
1
0.999993
0.999998
1
1
0.999997
1
1
1.00002
0.999993
1.00004
1.00002
1.00004
0.999861
1.0002
1.00006
1.00001
0.999787
0.999439
1.00017
1.00053
1.00078
1.00197
1.00163
0.996954
0.993866
0.982515
0.958037
0.923017
0.879088
0.832029
0.782873
0.729898
0.70156
0.704428
0.728482
0.773073
0.826687
0.875037
0.912861
0.941833
0.964375
0.979225
0.988563
0.993053
0.995855
0.997482
0.998708
0.999762
0.999683
0.999529
0.999901
1.00005
0.999965
0.999967
1.00001
1.00002
1.00002
1.00002
1.00002
1.00002
1.00002
1.00001
1.00001
1
1.00001
1
0.999999
1.00001
0.999991
1.00001
0.999986
1.00001
1
0.999979
1.00005
0.999936
1.00004
1.00003
0.999921
1.00003
1.00007
0.999948
0.999933
1.00006
1.00005
0.999989
0.99993
1.00001
1.00003
1.00004
0.999974
0.999968
0.999996
1.00003
1.00001
0.999975
0.999997
1
1.00001
1
0.999995
0.999999
1
1
0.999999
1
1
1.00001
0.999996
1.00004
1.00005
1.00002
0.999846
1.00022
1.00006
1.00012
0.99964
0.999338
1.00033
1.00056
1.00058
1.00252
1.00119
0.997262
0.99444
0.980855
0.954254
0.918363
0.873221
0.818895
0.767683
0.734537
0.722056
0.719038
0.724251
0.754393
0.809267
0.867418
0.912332
0.943685
0.964453
0.978675
0.987341
0.992584
0.995672
0.997644
0.999148
0.999362
0.999366
0.999835
1
0.999915
0.999945
1.00001
1.00001
1.00001
1.00002
1.00002
1.00002
1.00002
1.00002
1.00001
1.00001
1.00001
0.999997
1.00001
0.999988
1.00002
0.999975
1.00003
0.999957
1.00005
0.99994
1.00006
0.999956
1.00001
1.00003
0.99995
1.00001
1.00006
0.99994
0.999968
1.00007
1.00002
0.999952
0.999974
1.00003
1.00003
0.999989
0.999979
0.999979
1.00002
1.00002
0.999999
0.999984
0.999984
1.00002
1.00002
0.999986
0.999993
1.00001
1
0.999999
0.999995
1.00001
0.999997
1.00002
0.999993
1.00001
1.00001
1.0001
0.999959
0.999869
1.00018
1.00012
1.00021
0.999462
0.999312
1.00045
1.00041
1.0005
1.0029
1.00104
0.997983
0.995138
0.980058
0.953717
0.916425
0.867091
0.811057
0.771541
0.757641
0.749809
0.738954
0.732914
0.750831
0.799123
0.859475
0.910311
0.943613
0.96451
0.978562
0.987423
0.992696
0.995781
0.998074
0.998869
0.999102
0.999663
0.999907
0.999866
0.999922
0.999989
0.999998
1
1.00002
1.00002
1.00002
1.00002
1.00002
1.00002
1.00001
1.00001
1.00001
1
1
1
1
1
1
0.999996
1.00001
0.999977
1.00004
0.999946
1.00006
0.999957
1
1.00004
0.99996
0.999979
1.00006
0.999997
0.999943
1.00002
1.00002
1.00001
0.999964
0.999997
1
1.00002
1
0.999996
0.999976
1.00001
1.00001
0.999999
1
0.999995
0.999995
1.00001
0.999998
1
0.999993
1.00001
0.999979
1.00004
0.999971
1.00003
0.999987
1.00016
0.999904
0.999901
1.00008
1.00025
1.00027
0.999335
0.99933
1.00044
1.0002
1.00051
1.00313
1.00122
0.998955
0.99557
0.980828
0.955224
0.915911
0.866049
0.818053
0.78709
0.774033
0.765226
0.759975
0.760521
0.771711
0.804289
0.855841
0.906944
0.943303
0.96599
0.979758
0.988145
0.992974
0.996323
0.997992
0.998657
0.999359
0.999741
0.999799
0.999885
0.999959
0.999977
0.999991
1.00001
1.00002
1.00002
1.00002
1.00002
1.00002
1.00002
1.00001
1.00001
1
1.00001
0.999998
1.00001
0.999991
1.00002
0.999981
1.00002
0.999971
1.00003
0.999975
1.00001
1.00001
0.999966
1.00004
0.999977
0.999979
1.00004
0.999988
0.999963
1.00003
1.00003
0.999971
0.99999
1
1.00003
0.999991
1.00001
0.999977
1.00001
0.999996
1.00001
1.00001
0.999984
0.999994
1.00001
1
0.999998
0.999989
1.00001
0.999995
1.00001
0.999969
1.00006
0.999968
1.00002
0.99999
1.00018
0.999896
0.999896
0.999969
1.00039
1.00031
0.99932
0.999319
1.00031
1.00005
1.00044
1.00323
1.00188
0.999882
0.995339
0.982631
0.958762
0.921061
0.875399
0.833668
0.802776
0.78418
0.778638
0.786107
0.795941
0.803976
0.823856
0.862536
0.908184
0.945202
0.968246
0.981363
0.988923
0.993731
0.996557
0.997913
0.998879
0.999462
0.999676
0.999817
0.999914
0.999952
0.999975
0.999995
1.00001
1.00001
1.00002
1.00002
1.00002
1.00002
1.00002
1.00001
1.00001
1.00001
1
1
1
1
1
0.999996
1.00001
0.999985
1.00002
0.999967
1.00004
0.999962
1.00002
1
0.999975
1.00003
0.999996
0.999971
1.00002
1.00001
0.99997
0.999998
1.00002
1.00001
0.99999
0.999989
1.00001
1
1
1.00001
0.999982
1
1
1
1
0.999999
0.999999
0.999995
1.00001
0.999997
1.00001
0.999976
1.00005
0.999995
0.999969
1.00002
1.00018
0.999947
0.999844
0.999884
1.00045
1.00039
0.999416
0.999256
1.0001
0.999966
1.00022
1.00316
1.00304
1.00047
0.994627
0.984808
0.965228
0.933562
0.893302
0.854946
0.825273
0.804852
0.800556
0.811254
0.823638
0.83237
0.848175
0.877826
0.915355
0.948732
0.970787
0.983143
0.990159
0.994422
0.996736
0.998164
0.999026
0.999454
0.999699
0.999845
0.999915
0.999953
0.999978
0.999994
1.00001
1.00001
1.00002
1.00002
1.00002
1.00002
1.00002
1.00001
1.00001
1.00001
1
1
0.999999
1.00001
0.999995
1.00001
0.999991
1.00001
0.999992
1
1.00001
0.999981
1.00003
0.999968
1.00002
1
0.99998
1.00002
1.00001
0.999979
1
1.00002
0.99999
0.999995
0.999991
1.00002
0.999993
1.00001
0.99998
1.00001
0.999994
1
1.00001
0.999997
0.999991
1
1.00001
0.999997
0.999998
1.00001
0.999996
0.999982
1.00004
1.00004
0.99992
1.00003
1.00017
1.00003
0.999788
0.999804
1.00042
1.00051
0.999616
0.999191
0.999824
0.99992
0.999946
1.00281
1.00428
1.00101
0.994511
0.986972
0.972951
0.949291
0.915694
0.882887
0.858725
0.837751
0.825624
0.829405
0.840847
0.852134
0.868308
0.893972
0.925093
0.953672
0.97387
0.985382
0.991562
0.995033
0.997145
0.998402
0.999101
0.999502
0.999733
0.999856
0.999919
0.999955
0.999978
0.999994
1.00001
1.00001
1.00002
1.00002
1.00002
1.00002
1.00002
1.00001
1.00001
1.00001
1
1
1
1
0.999999
1
0.999996
1.00001
0.999988
1.00002
0.999983
1.00001
0.999994
0.999994
1.00002
0.999979
1.00001
1.00001
0.999985
1
1.00001
0.999993
0.99999
1.00001
1
1.00001
0.999988
1
1
0.999997
1.00001
0.999989
0.999998
1
0.999998
1
1
0.999995
0.999993
1.00002
0.999992
0.999973
1.00004
1.00007
0.9999
0.999995
1.00018
1.00011
0.999776
0.99971
1.0003
1.00063
0.999924
0.999191
0.999492
0.999875
0.999753
1.00209
1.00489
1.0022
0.995998
0.988778
0.978892
0.962271
0.936278
0.910515
0.891304
0.86973
0.847859
0.842162
0.852123
0.865973
0.883044
0.907384
0.935149
0.959735
0.977417
0.987701
0.992911
0.995786
0.997565
0.998605
0.999206
0.999561
0.999761
0.999868
0.999925
0.999958
0.99998
0.999995
1.00001
1.00001
1.00002
1.00002
1.00002
1.00002
1.00002
1.00001
1.00001
1.00001
1
1
1
1
1
0.999998
1
0.999997
1
1
0.999994
1.00001
0.999984
1.00002
0.999989
1
1.00001
0.99999
1
1.00001
0.999991
0.999999
1.00001
1
1
0.999991
1.00001
0.999995
1.00001
0.999988
1
1
0.999997
1.00001
0.999999
0.999995
1
0.999999
0.999987
1.00003
1
0.999952
1.00004
1.00009
0.999915
0.999929
1.00017
1.0002
0.999834
0.999621
1.0001
1.00066
1.00029
0.999331
0.999193
0.999741
0.999683
1.00117
1.00448
1.00396
0.998858
0.990921
0.98252
0.969917
0.950009
0.929506
0.912729
0.892488
0.868073
0.856414
0.864222
0.879896
0.897501
0.919988
0.944907
0.966256
0.981129
0.989782
0.994249
0.996566
0.997938
0.998808
0.999323
0.999618
0.999788
0.999882
0.999932
0.999961
0.999981
0.999995
1.00001
1.00001
1.00002
1.00002
1.00002
1.00002
1.00002
1.00001
1.00001
1.00001
1
1
1
1
1
1
1
0.999998
1
0.999995
1
0.999997
1
1.00001
0.999989
1.00001
0.99999
1
1
0.999996
0.999999
1
0.999999
0.999995
1
0.999998
1.00001
0.999998
0.999995
1
0.999998
1.00001
0.999999
0.999998
0.999998
0.999995
1.00001
1
0.999972
1.00003
1.00002
0.99993
1.00001
1.00012
0.999956
0.999864
1.00012
1.00026
0.999964
0.999583
0.999841
1.00056
1.00062
0.999678
0.999046
0.999447
0.999668
1.00037
1.00337
1.00513
1.00183
0.994499
0.986529
0.975312
0.958329
0.940456
0.925024
0.908189
0.888629
0.876691
0.881505
0.896984
0.914411
0.933677
0.954632
0.972647
0.984786
0.991779
0.995414
0.99726
0.998316
0.998996
0.999425
0.999675
0.999815
0.999894
0.999938
0.999964
0.999982
0.999996
1.00001
1.00001
1.00002
1.00002
1.00002
1.00002
1.00002
1.00001
1.00001
1.00001
1
1
1
1
1
1
0.999999
1
1
1
1
0.999997
1
0.999995
1
1
0.999997
1
0.999996
1
1
0.999996
1
1
1
1
0.999995
1
0.999998
1
1
0.999996
0.999996
1
1
0.999989
1.00001
1.00001
0.99996
1.00002
1.00005
0.999928
0.99997
1.00014
1.00002
0.999835
1.00002
1.00028
1.00013
0.999649
0.999609
1.0003
1.00078
1.00018
0.999172
0.999098
0.999558
0.999855
1.00203
1.00501
1.00395
0.998791
0.992012
0.981663
0.966058
0.950108
0.936218
0.922465
0.908933
0.900011
0.902163
0.914904
0.931119
0.94747
0.964066
0.978399
0.988161
0.993641
0.996399
0.997839
0.998664
0.999181
0.999517
0.999724
0.999842
0.999907
0.999944
0.999967
0.999984
0.999997
1.00001
1.00001
1.00002
1.00002
1.00002
1.00002
1.00001
1.00001
1.00001
1.00001
1
1
1
1
1
1
1
1
0.999999
1
0.999999
1
1
0.999999
1
0.999995
1.00001
0.999995
1
1
1
0.999999
1
1
0.999999
1
0.999999
1
1.00001
0.999996
0.999996
1
0.999997
1
1.00001
0.999981
1
1.00003
0.99996
0.99999
1.00008
0.99996
0.999913
1.00012
1.00011
0.999861
0.999898
1.00022
1.00028
0.999824
0.999491
0.999951
1.00067
1.00061
0.999648
0.998956
0.999232
0.999576
1.00077
1.00384
1.00515
1.00241
0.997084
0.987899
0.974441
0.961747
0.9505
0.938289
0.927582
0.921497
0.922304
0.931149
0.944902
0.9592
0.972357
0.98336
0.990935
0.995176
0.997274
0.998326
0.99895
0.999352
0.99961
0.99977
0.999865
0.999919
0.99995
0.99997
0.999985
0.999998
1.00001
1.00002
1.00002
1.00002
1.00002
1.00002
1.00001
1.00001
1.00001
1.00001
1
1
1
1
1
1
1
1
1
1
1
1
1
1
1
1
1
0.999998
1
0.999998
1
1
0.999997
1
0.999999
0.999999
1
0.999999
0.999998
1
0.999998
1.00001
0.999997
0.999992
1.00001
0.999991
0.999985
1.00004
0.999981
0.99995
1.00008
1.00002
0.99988
1.00004
1.00017
0.999954
0.999816
1.00008
1.00035
1.00004
0.999558
0.999674
1.00031
1.00074
1.00033
0.999272
0.998808
0.999211
0.99998
1.00221
1.00499
1.0051
1.0015
0.993257
0.982225
0.97358
0.965925
0.954931
0.944508
0.939727
0.940552
0.946428
0.956687
0.968496
0.979122
0.987505
0.99316
0.996377
0.997975
0.998758
0.999201
0.999498
0.999694
0.999816
0.999888
0.99993
0.999956
0.999973
0.999987
0.999999
1.00001
1.00002
1.00002
1.00002
1.00002
1.00002
1.00001
1.00001
1.00001
1.00001
1
1
1
1
1
1
1
1
1
1
1
1
1
1
1
1
0.999999
1
0.999998
1
0.999999
1
1
1
1
1
1
0.999999
0.999998
1
0.999998
0.999999
1
0.999989
1.00001
1.00001
0.999967
1.00003
1.00002
0.99993
1.00003
1.00009
0.999909
0.999946
1.00015
1.00008
0.999821
0.99993
1.00029
1.00021
0.999787
0.999596
0.999871
1.00049
1.00081
1.00002
0.998754
0.998578
0.999559
1.00114
1.0035
1.00568
1.00485
0.998584
0.989818
0.983983
0.978797
0.969527
0.959741
0.95573
0.957127
0.961458
0.968241
0.976646
0.984698
0.990924
0.995042
0.997365
0.998533
0.99911
0.999426
0.99963
0.999768
0.999857
0.99991
0.999941
0.999961
0.999977
0.999989
1
1.00001
1.00002
1.00002
1.00002
1.00002
1.00002
1.00001
1.00001
1.00001
1
1
1
1
1
1
1
1
1
1
1
1
1
1
1
1
1
1
1
1
1
1
0.999999
1
0.999998
1
1
0.999998
1
1
1
0.999999
0.999997
1.00001
0.999991
0.999995
1.00002
0.999973
0.999996
1.00005
0.999957
0.999965
1.00009
0.999998
0.999892
1.00006
1.00017
0.999923
0.999849
1.00012
1.00025
1.00006
0.999731
0.9996
1.00004
1.00078
1.00071
0.999379
0.998304
0.998808
1.00057
1.00266
1.00434
1.00489
1.00171
0.996454
0.992615
0.987962
0.980139
0.972514
0.969671
0.971129
0.974298
0.978614
0.984005
0.989447
0.993793
0.996635
0.998223
0.999014
0.999401
0.999613
0.999746
0.999835
0.999893
0.999929
0.999951
0.999967
0.99998
0.999991
1
1.00001
1.00002
1.00002
1.00002
1.00002
1.00002
1.00001
1.00001
1.00001
1
1
1
1
1
1
1
1
1
1
1
1
1
1
1
1
1
1
1
1
0.999999
1
1
0.999999
1
0.999999
1
1
1
0.999999
1
1
0.999995
1
1
0.999986
1.00002
1
0.999971
1.00003
1.00001
0.99994
1.00003
1.00007
0.999929
0.999959
1.00014
1.00006
0.999892
0.999945
1.00015
1.00022
0.999965
0.999619
0.999709
1.00034
1.00082
1.00025
0.998909
0.998461
0.99956
1.00151
1.00348
1.00392
1.00196
1.00016
0.998829
0.994369
0.987401
0.982565
0.981134
0.981728
0.983266
0.985927
0.989603
0.993284