/*--------------------------------*- C++ -*----------------------------------*\
  =========                 |
  \\      /  F ield         | OpenFOAM: The Open Source CFD Toolbox
   \\    /   O peration     | Website:  https://openfoam.org
    \\  /    A nd           | Version:  6
     \\/     M anipulation  |
\*---------------------------------------------------------------------------*/
FoamFile
{
    version     2.0;
    format      ascii;
    class       volVectorField;
    location    "3.75";
    object      U;
}
// * * * * * * * * * * * * * * * * * * * * * * * * * * * * * * * * * * * * * //

dimensions      [0 1 -1 0 0 0 0];

internalField   nonuniform List<vector> 
10000
(
(0.8944 0.4472 0)
(0.8944 0.4472 0)
(0.8944 0.4472 0)
(0.8944 0.4472 0)
(0.8944 0.4472 0)
(0.8944 0.4472 0)
(0.8944 0.4472 0)
(0.8944 0.4472 0)
(0.8944 0.4472 0)
(0.8944 0.4472 0)
(0.8944 0.4472 0)
(0.8944 0.4472 0)
(0.8944 0.4472 0)
(0.8944 0.4472 0)
(0.8944 0.4472 0)
(0.8944 0.4472 0)
(0.8944 0.4472 0)
(0.8944 0.4472 0)
(0.8944 0.4472 0)
(0.8944 0.4472 0)
(0.8944 0.4472 0)
(0.8944 0.4472 0)
(0.8944 0.4472 0)
(0.8944 0.4472 0)
(0.8944 0.4472 0)
(0.8944 0.4472 0)
(0.8944 0.4472 0)
(0.8944 0.4472 0)
(0.8944 0.4472 0)
(0.8944 0.4472 0)
(0.8944 0.4472 0)
(0.8944 0.4472 0)
(0.8944 0.4472 0)
(0.8944 0.4472 0)
(0.8944 0.4472 0)
(0.8944 0.4472 0)
(0.8944 0.4472 0)
(0.8944 0.4472 0)
(0.8944 0.4472 0)
(0.8944 0.447201 0)
(0.8944 0.447201 0)
(0.8944 0.447201 0)
(0.8944 0.447201 0)
(0.8944 0.447202 0)
(0.894401 0.447202 0)
(0.894402 0.447201 0)
(0.894405 0.4472 0)
(0.894408 0.447197 0)
(0.894414 0.447193 0)
(0.89442 0.447186 0)
(0.894426 0.447177 0)
(0.894433 0.447165 0)
(0.894439 0.447151 0)
(0.894443 0.447137 0)
(0.894443 0.447124 0)
(0.894438 0.447115 0)
(0.894428 0.447111 0)
(0.894413 0.447116 0)
(0.894393 0.44713 0)
(0.894369 0.447156 0)
(0.894345 0.447193 0)
(0.894321 0.447239 0)
(0.894301 0.447293 0)
(0.894287 0.447351 0)
(0.89428 0.447409 0)
(0.894281 0.447464 0)
(0.89429 0.447511 0)
(0.894306 0.447549 0)
(0.894327 0.447574 0)
(0.894353 0.447586 0)
(0.894379 0.447584 0)
(0.894404 0.447571 0)
(0.894427 0.447548 0)
(0.894446 0.447517 0)
(0.894459 0.44748 0)
(0.894467 0.447441 0)
(0.89447 0.447402 0)
(0.894468 0.447364 0)
(0.894464 0.447329 0)
(0.894456 0.447299 0)
(0.894448 0.447273 0)
(0.894439 0.447252 0)
(0.89443 0.447236 0)
(0.894423 0.447223 0)
(0.894416 0.447214 0)
(0.894411 0.447208 0)
(0.894407 0.447204 0)
(0.894404 0.447202 0)
(0.894403 0.4472 0)
(0.894401 0.4472 0)
(0.894401 0.447199 0)
(0.8944 0.447199 0)
(0.8944 0.447199 0)
(0.8944 0.4472 0)
(0.8944 0.4472 0)
(0.8944 0.4472 0)
(0.8944 0.4472 0)
(0.8944 0.4472 0)
(0.8944 0.4472 0)
(0.8944 0.4472 0)
(0.8944 0.4472 0)
(0.8944 0.4472 0)
(0.8944 0.4472 0)
(0.8944 0.4472 0)
(0.8944 0.4472 0)
(0.8944 0.4472 0)
(0.8944 0.4472 0)
(0.8944 0.4472 0)
(0.8944 0.4472 0)
(0.8944 0.4472 0)
(0.8944 0.4472 0)
(0.8944 0.4472 0)
(0.8944 0.4472 0)
(0.8944 0.4472 0)
(0.8944 0.4472 0)
(0.8944 0.4472 0)
(0.8944 0.4472 0)
(0.8944 0.4472 0)
(0.8944 0.4472 0)
(0.8944 0.4472 0)
(0.8944 0.4472 0)
(0.8944 0.4472 0)
(0.8944 0.4472 0)
(0.8944 0.4472 0)
(0.8944 0.4472 0)
(0.8944 0.4472 0)
(0.8944 0.4472 0)
(0.8944 0.4472 0)
(0.8944 0.4472 0)
(0.8944 0.4472 0)
(0.8944 0.4472 0)
(0.8944 0.4472 0)
(0.8944 0.4472 0)
(0.8944 0.4472 0)
(0.8944 0.4472 0)
(0.8944 0.4472 0)
(0.8944 0.4472 0)
(0.8944 0.4472 0)
(0.8944 0.4472 0)
(0.894399 0.447201 0)
(0.894399 0.447201 0)
(0.894399 0.447202 0)
(0.894399 0.447202 0)
(0.8944 0.447203 0)
(0.894401 0.447203 0)
(0.894403 0.447203 0)
(0.894406 0.447201 0)
(0.894411 0.447198 0)
(0.894418 0.447193 0)
(0.894426 0.447184 0)
(0.894435 0.447173 0)
(0.894444 0.447159 0)
(0.89445 0.447144 0)
(0.894453 0.44713 0)
(0.894451 0.447119 0)
(0.894442 0.447114 0)
(0.894425 0.44712 0)
(0.894401 0.447139 0)
(0.894372 0.447172 0)
(0.894339 0.44722 0)
(0.894305 0.447284 0)
(0.894274 0.447359 0)
(0.89425 0.447442 0)
(0.894234 0.447527 0)
(0.894229 0.447609 0)
(0.894236 0.447683 0)
(0.894253 0.447744 0)
(0.89428 0.447787 0)
(0.894313 0.447811 0)
(0.89435 0.447815 0)
(0.894388 0.4478 0)
(0.894423 0.447768 0)
(0.894453 0.447723 0)
(0.894477 0.447669 0)
(0.894494 0.447609 0)
(0.894503 0.447547 0)
(0.894505 0.447487 0)
(0.894501 0.447431 0)
(0.894492 0.44738 0)
(0.894481 0.447336 0)
(0.894468 0.4473 0)
(0.894455 0.44727 0)
(0.894443 0.447247 0)
(0.894432 0.44723 0)
(0.894423 0.447218 0)
(0.894415 0.44721 0)
(0.89441 0.447205 0)
(0.894406 0.447202 0)
(0.894403 0.4472 0)
(0.894402 0.447199 0)
(0.894401 0.447199 0)
(0.8944 0.447199 0)
(0.8944 0.447199 0)
(0.8944 0.447199 0)
(0.8944 0.4472 0)
(0.8944 0.4472 0)
(0.8944 0.4472 0)
(0.8944 0.4472 0)
(0.8944 0.4472 0)
(0.8944 0.4472 0)
(0.8944 0.4472 0)
(0.8944 0.4472 0)
(0.8944 0.4472 0)
(0.8944 0.4472 0)
(0.8944 0.4472 0)
(0.8944 0.4472 0)
(0.8944 0.4472 0)
(0.8944 0.4472 0)
(0.8944 0.4472 0)
(0.8944 0.4472 0)
(0.8944 0.4472 0)
(0.8944 0.4472 0)
(0.8944 0.4472 0)
(0.8944 0.4472 0)
(0.8944 0.4472 0)
(0.8944 0.4472 0)
(0.8944 0.4472 0)
(0.8944 0.4472 0)
(0.8944 0.4472 0)
(0.8944 0.4472 0)
(0.8944 0.4472 0)
(0.8944 0.4472 0)
(0.8944 0.4472 0)
(0.8944 0.4472 0)
(0.8944 0.4472 0)
(0.8944 0.4472 0)
(0.8944 0.4472 0)
(0.8944 0.4472 0)
(0.8944 0.4472 0)
(0.8944 0.4472 0)
(0.8944 0.4472 0)
(0.8944 0.4472 0)
(0.8944 0.4472 0)
(0.8944 0.4472 0)
(0.8944 0.4472 0)
(0.8944 0.4472 0)
(0.8944 0.4472 0)
(0.8944 0.4472 0)
(0.8944 0.447201 0)
(0.894399 0.447201 0)
(0.894399 0.447202 0)
(0.894399 0.447202 0)
(0.894399 0.447203 0)
(0.894399 0.447204 0)
(0.894401 0.447205 0)
(0.894404 0.447205 0)
(0.894408 0.447203 0)
(0.894415 0.4472 0)
(0.894424 0.447193 0)
(0.894434 0.447184 0)
(0.894445 0.447171 0)
(0.894455 0.447156 0)
(0.894461 0.447142 0)
(0.894462 0.44713 0)
(0.894454 0.447127 0)
(0.894437 0.447135 0)
(0.89441 0.447159 0)
(0.894373 0.447203 0)
(0.89433 0.447269 0)
(0.894284 0.447356 0)
(0.894239 0.447462 0)
(0.8942 0.447582 0)
(0.894172 0.447708 0)
(0.894158 0.447834 0)
(0.894159 0.447951 0)
(0.894176 0.44805 0)
(0.894208 0.448126 0)
(0.894252 0.448174 0)
(0.894303 0.448192 0)
(0.894358 0.448178 0)
(0.894411 0.448138 0)
(0.89446 0.448074 0)
(0.8945 0.447992 0)
(0.89453 0.447899 0)
(0.894549 0.447802 0)
(0.894558 0.447704 0)
(0.894557 0.447611 0)
(0.894548 0.447526 0)
(0.894534 0.447452 0)
(0.894516 0.447388 0)
(0.894497 0.447336 0)
(0.894478 0.447294 0)
(0.89446 0.447263 0)
(0.894444 0.447239 0)
(0.894431 0.447223 0)
(0.894421 0.447212 0)
(0.894414 0.447205 0)
(0.894408 0.447201 0)
(0.894404 0.447199 0)
(0.894402 0.447198 0)
(0.894401 0.447198 0)
(0.8944 0.447198 0)
(0.8944 0.447198 0)
(0.8944 0.447199 0)
(0.8944 0.447199 0)
(0.8944 0.447199 0)
(0.8944 0.4472 0)
(0.8944 0.4472 0)
(0.8944 0.4472 0)
(0.8944 0.4472 0)
(0.8944 0.4472 0)
(0.8944 0.4472 0)
(0.8944 0.4472 0)
(0.8944 0.4472 0)
(0.8944 0.4472 0)
(0.8944 0.4472 0)
(0.8944 0.4472 0)
(0.8944 0.4472 0)
(0.8944 0.4472 0)
(0.8944 0.4472 0)
(0.8944 0.4472 0)
(0.8944 0.4472 0)
(0.8944 0.4472 0)
(0.8944 0.4472 0)
(0.8944 0.4472 0)
(0.8944 0.4472 0)
(0.8944 0.4472 0)
(0.8944 0.4472 0)
(0.8944 0.4472 0)
(0.8944 0.4472 0)
(0.8944 0.4472 0)
(0.8944 0.4472 0)
(0.8944 0.4472 0)
(0.8944 0.4472 0)
(0.8944 0.4472 0)
(0.8944 0.4472 0)
(0.8944 0.4472 0)
(0.8944 0.4472 0)
(0.8944 0.4472 0)
(0.8944 0.4472 0)
(0.8944 0.4472 0)
(0.8944 0.4472 0)
(0.8944 0.4472 0)
(0.8944 0.4472 0)
(0.8944 0.4472 0)
(0.8944 0.4472 0)
(0.8944 0.4472 0)
(0.894399 0.4472 0)
(0.894399 0.447201 0)
(0.894399 0.447202 0)
(0.894398 0.447203 0)
(0.894398 0.447204 0)
(0.894398 0.447205 0)
(0.894399 0.447207 0)
(0.8944 0.447208 0)
(0.894404 0.447208 0)
(0.89441 0.447207 0)
(0.894419 0.447203 0)
(0.89443 0.447196 0)
(0.894443 0.447186 0)
(0.894456 0.447173 0)
(0.894466 0.447159 0)
(0.89447 0.44715 0)
(0.894464 0.447148 0)
(0.894447 0.44716 0)
(0.894417 0.447193 0)
(0.894372 0.447252 0)
(0.894317 0.447341 0)
(0.894254 0.44746 0)
(0.894191 0.447609 0)
(0.894132 0.447781 0)
(0.894085 0.447968 0)
(0.894054 0.44816 0)
(0.894046 0.448344 0)
(0.89406 0.448508 0)
(0.894096 0.448642 0)
(0.894152 0.448736 0)
(0.894223 0.448786 0)
(0.894303 0.448788 0)
(0.894384 0.448745 0)
(0.89446 0.448661 0)
(0.894527 0.448543 0)
(0.89458 0.448403 0)
(0.894617 0.448249 0)
(0.894638 0.448091 0)
(0.894644 0.447937 0)
(0.894637 0.447794 0)
(0.894619 0.447666 0)
(0.894596 0.447555 0)
(0.894568 0.447462 0)
(0.894538 0.447386 0)
(0.89451 0.447328 0)
(0.894484 0.447283 0)
(0.894462 0.447251 0)
(0.894443 0.447228 0)
(0.894429 0.447214 0)
(0.894418 0.447205 0)
(0.894411 0.447199 0)
(0.894406 0.447197 0)
(0.894402 0.447196 0)
(0.894401 0.447196 0)
(0.8944 0.447197 0)
(0.894399 0.447198 0)
(0.894399 0.447198 0)
(0.894399 0.447199 0)
(0.894399 0.447199 0)
(0.8944 0.447199 0)
(0.8944 0.4472 0)
(0.8944 0.4472 0)
(0.8944 0.4472 0)
(0.8944 0.4472 0)
(0.8944 0.4472 0)
(0.8944 0.4472 0)
(0.8944 0.4472 0)
(0.8944 0.4472 0)
(0.8944 0.4472 0)
(0.8944 0.4472 0)
(0.8944 0.4472 0)
(0.8944 0.4472 0)
(0.8944 0.4472 0)
(0.8944 0.4472 0)
(0.8944 0.4472 0)
(0.8944 0.4472 0)
(0.8944 0.4472 0)
(0.8944 0.4472 0)
(0.8944 0.4472 0)
(0.8944 0.4472 0)
(0.8944 0.4472 0)
(0.8944 0.4472 0)
(0.8944 0.4472 0)
(0.8944 0.4472 0)
(0.8944 0.4472 0)
(0.8944 0.4472 0)
(0.8944 0.4472 0)
(0.8944 0.4472 0)
(0.8944 0.4472 0)
(0.8944 0.4472 0)
(0.8944 0.4472 0)
(0.8944 0.4472 0)
(0.8944 0.4472 0)
(0.8944 0.4472 0)
(0.8944 0.4472 0)
(0.8944 0.4472 0)
(0.8944 0.4472 0)
(0.8944 0.4472 0)
(0.8944 0.4472 0)
(0.8944 0.4472 0)
(0.894399 0.447201 0)
(0.894399 0.447202 0)
(0.894398 0.447202 0)
(0.894397 0.447204 0)
(0.894397 0.447206 0)
(0.894397 0.447208 0)
(0.894397 0.44721 0)
(0.8944 0.447212 0)
(0.894404 0.447214 0)
(0.894412 0.447213 0)
(0.894423 0.447209 0)
(0.894437 0.447202 0)
(0.894451 0.447193 0)
(0.894465 0.447182 0)
(0.894472 0.447175 0)
(0.89447 0.447177 0)
(0.894454 0.447195 0)
(0.89442 0.447238 0)
(0.894367 0.447315 0)
(0.894297 0.447432 0)
(0.894214 0.447594 0)
(0.894124 0.447798 0)
(0.894037 0.448041 0)
(0.893962 0.448313 0)
(0.893906 0.4486 0)
(0.893879 0.448885 0)
(0.893883 0.449152 0)
(0.89392 0.449382 0)
(0.893989 0.449562 0)
(0.894084 0.449679 0)
(0.894197 0.449726 0)
(0.894319 0.449702 0)
(0.89444 0.449609 0)
(0.894551 0.449457 0)
(0.894643 0.449257 0)
(0.894713 0.449025 0)
(0.894757 0.448776 0)
(0.894778 0.448525 0)
(0.894777 0.448285 0)
(0.894758 0.448064 0)
(0.894726 0.44787 0)
(0.894686 0.447704 0)
(0.894642 0.447568 0)
(0.894597 0.447458 0)
(0.894555 0.447374 0)
(0.894517 0.447312 0)
(0.894485 0.447267 0)
(0.894459 0.447236 0)
(0.894439 0.447216 0)
(0.894424 0.447204 0)
(0.894414 0.447197 0)
(0.894407 0.447194 0)
(0.894403 0.447194 0)
(0.8944 0.447194 0)
(0.894399 0.447195 0)
(0.894399 0.447196 0)
(0.894399 0.447197 0)
(0.894399 0.447198 0)
(0.894399 0.447199 0)
(0.894399 0.447199 0)
(0.8944 0.447199 0)
(0.8944 0.4472 0)
(0.8944 0.4472 0)
(0.8944 0.4472 0)
(0.8944 0.4472 0)
(0.8944 0.4472 0)
(0.8944 0.4472 0)
(0.8944 0.4472 0)
(0.8944 0.4472 0)
(0.8944 0.4472 0)
(0.8944 0.4472 0)
(0.8944 0.4472 0)
(0.8944 0.4472 0)
(0.8944 0.4472 0)
(0.8944 0.4472 0)
(0.8944 0.4472 0)
(0.8944 0.4472 0)
(0.8944 0.4472 0)
(0.8944 0.4472 0)
(0.8944 0.4472 0)
(0.8944 0.4472 0)
(0.8944 0.4472 0)
(0.8944 0.4472 0)
(0.8944 0.4472 0)
(0.8944 0.4472 0)
(0.8944 0.4472 0)
(0.8944 0.4472 0)
(0.8944 0.4472 0)
(0.8944 0.4472 0)
(0.8944 0.4472 0)
(0.8944 0.4472 0)
(0.8944 0.4472 0)
(0.8944 0.4472 0)
(0.8944 0.4472 0)
(0.8944 0.4472 0)
(0.8944 0.4472 0)
(0.8944 0.4472 0)
(0.8944 0.4472 0)
(0.894399 0.4472 0)
(0.894399 0.447201 0)
(0.894399 0.447201 0)
(0.894398 0.447202 0)
(0.894397 0.447204 0)
(0.894396 0.447206 0)
(0.894395 0.447208 0)
(0.894394 0.447212 0)
(0.894395 0.447215 0)
(0.894398 0.447219 0)
(0.894404 0.447221 0)
(0.894414 0.447221 0)
(0.894427 0.447219 0)
(0.894442 0.447214 0)
(0.894458 0.447208 0)
(0.894469 0.447205 0)
(0.89447 0.447211 0)
(0.894455 0.447236 0)
(0.894418 0.447291 0)
(0.894356 0.447388 0)
(0.894268 0.447539 0)
(0.894159 0.44775 0)
(0.894036 0.448024 0)
(0.89391 0.448358 0)
(0.893793 0.448741 0)
(0.893698 0.449158 0)
(0.893637 0.449586 0)
(0.893618 0.450002 0)
(0.893647 0.450381 0)
(0.893723 0.450701 0)
(0.893843 0.45094 0)
(0.893998 0.451085 0)
(0.894176 0.451125 0)
(0.894362 0.45106 0)
(0.894542 0.450895 0)
(0.894702 0.450641 0)
(0.894832 0.45032 0)
(0.894925 0.449952 0)
(0.894979 0.449562 0)
(0.894996 0.449173 0)
(0.894982 0.448803 0)
(0.894942 0.448467 0)
(0.894886 0.448173 0)
(0.89482 0.447925 0)
(0.89475 0.447723 0)
(0.894682 0.447563 0)
(0.89462 0.447442 0)
(0.894565 0.447352 0)
(0.894518 0.447289 0)
(0.894481 0.447246 0)
(0.894453 0.447219 0)
(0.894432 0.447203 0)
(0.894418 0.447194 0)
(0.894408 0.44719 0)
(0.894403 0.44719 0)
(0.8944 0.447191 0)
(0.894398 0.447192 0)
(0.894398 0.447194 0)
(0.894398 0.447196 0)
(0.894398 0.447197 0)
(0.894399 0.447198 0)
(0.894399 0.447199 0)
(0.894399 0.447199 0)
(0.8944 0.4472 0)
(0.8944 0.4472 0)
(0.8944 0.4472 0)
(0.8944 0.4472 0)
(0.8944 0.4472 0)
(0.8944 0.4472 0)
(0.8944 0.4472 0)
(0.8944 0.4472 0)
(0.8944 0.4472 0)
(0.8944 0.4472 0)
(0.8944 0.4472 0)
(0.8944 0.4472 0)
(0.8944 0.4472 0)
(0.8944 0.4472 0)
(0.8944 0.4472 0)
(0.8944 0.4472 0)
(0.8944 0.4472 0)
(0.8944 0.4472 0)
(0.8944 0.4472 0)
(0.8944 0.4472 0)
(0.8944 0.4472 0)
(0.8944 0.4472 0)
(0.8944 0.4472 0)
(0.8944 0.4472 0)
(0.8944 0.4472 0)
(0.8944 0.4472 0)
(0.8944 0.4472 0)
(0.8944 0.4472 0)
(0.8944 0.4472 0)
(0.8944 0.4472 0)
(0.8944 0.4472 0)
(0.8944 0.4472 0)
(0.8944 0.4472 0)
(0.8944 0.4472 0)
(0.8944 0.4472 0)
(0.8944 0.4472 0)
(0.894399 0.4472 0)
(0.894399 0.447201 0)
(0.894399 0.447201 0)
(0.894398 0.447202 0)
(0.894397 0.447203 0)
(0.894395 0.447205 0)
(0.894394 0.447209 0)
(0.894392 0.447212 0)
(0.894391 0.447217 0)
(0.894392 0.447222 0)
(0.894396 0.447228 0)
(0.894402 0.447232 0)
(0.894414 0.447234 0)
(0.894429 0.447235 0)
(0.894445 0.447235 0)
(0.894458 0.447237 0)
(0.894462 0.447249 0)
(0.894449 0.447281 0)
(0.894409 0.447347 0)
(0.894338 0.447465 0)
(0.894231 0.44765 0)
(0.89409 0.447916 0)
(0.893925 0.448271 0)
(0.893745 0.448714 0)
(0.893569 0.449235 0)
(0.893415 0.449817 0)
(0.893299 0.450434 0)
(0.893237 0.451055 0)
(0.893239 0.451646 0)
(0.89331 0.452175 0)
(0.893447 0.452609 0)
(0.893644 0.452925 0)
(0.893888 0.453103 0)
(0.89416 0.453132 0)
(0.894439 0.45301 0)
(0.894706 0.452745 0)
(0.894939 0.452354 0)
(0.895124 0.451863 0)
(0.895251 0.451304 0)
(0.895318 0.450714 0)
(0.895329 0.450125 0)
(0.895292 0.449567 0)
(0.89522 0.449061 0)
(0.895125 0.44862 0)
(0.895019 0.448251 0)
(0.89491 0.447951 0)
(0.894806 0.447718 0)
(0.894712 0.447541 0)
(0.894631 0.447412 0)
(0.894565 0.447322 0)
(0.894512 0.447261 0)
(0.894472 0.447223 0)
(0.894443 0.447201 0)
(0.894423 0.44719 0)
(0.89441 0.447185 0)
(0.894402 0.447185 0)
(0.894398 0.447186 0)
(0.894397 0.447189 0)
(0.894396 0.447191 0)
(0.894397 0.447194 0)
(0.894397 0.447196 0)
(0.894398 0.447197 0)
(0.894398 0.447198 0)
(0.894399 0.447199 0)
(0.894399 0.447199 0)
(0.8944 0.4472 0)
(0.8944 0.4472 0)
(0.8944 0.4472 0)
(0.8944 0.4472 0)
(0.8944 0.4472 0)
(0.8944 0.4472 0)
(0.8944 0.4472 0)
(0.8944 0.4472 0)
(0.8944 0.4472 0)
(0.8944 0.4472 0)
(0.8944 0.4472 0)
(0.8944 0.4472 0)
(0.8944 0.4472 0)
(0.8944 0.4472 0)
(0.8944 0.4472 0)
(0.8944 0.4472 0)
(0.8944 0.4472 0)
(0.8944 0.4472 0)
(0.8944 0.4472 0)
(0.8944 0.4472 0)
(0.8944 0.4472 0)
(0.8944 0.4472 0)
(0.8944 0.4472 0)
(0.8944 0.4472 0)
(0.8944 0.4472 0)
(0.8944 0.4472 0)
(0.8944 0.4472 0)
(0.8944 0.4472 0)
(0.8944 0.4472 0)
(0.8944 0.4472 0)
(0.8944 0.4472 0)
(0.8944 0.4472 0)
(0.8944 0.4472 0)
(0.8944 0.4472 0)
(0.8944 0.4472 0)
(0.894399 0.4472 0)
(0.894399 0.447201 0)
(0.894398 0.447202 0)
(0.894397 0.447203 0)
(0.894395 0.447205 0)
(0.894393 0.447208 0)
(0.894391 0.447212 0)
(0.894388 0.447217 0)
(0.894387 0.447224 0)
(0.894387 0.447232 0)
(0.894391 0.44724 0)
(0.894399 0.447247 0)
(0.894411 0.447253 0)
(0.894427 0.447259 0)
(0.894441 0.447268 0)
(0.894447 0.447286 0)
(0.894436 0.447325 0)
(0.894395 0.447402 0)
(0.894314 0.447538 0)
(0.894187 0.447756 0)
(0.894011 0.448078 0)
(0.893793 0.448518 0)
(0.893546 0.449082 0)
(0.89329 0.449764 0)
(0.89305 0.450546 0)
(0.892851 0.451396 0)
(0.892715 0.452277 0)
(0.89266 0.453146 0)
(0.892698 0.453959 0)
(0.892833 0.454672 0)
(0.893061 0.455249 0)
(0.893368 0.455658 0)
(0.893736 0.455877 0)
(0.894141 0.455892 0)
(0.894554 0.4557 0)
(0.894944 0.45531 0)
(0.895285 0.454743 0)
(0.895552 0.454032 0)
(0.895731 0.453222 0)
(0.895819 0.45236 0)
(0.895822 0.451496 0)
(0.895754 0.450674 0)
(0.895634 0.449926 0)
(0.89548 0.449275 0)
(0.895312 0.44873 0)
(0.895144 0.448289 0)
(0.894986 0.447946 0)
(0.894846 0.447689 0)
(0.894727 0.447502 0)
(0.894631 0.447372 0)
(0.894555 0.447286 0)
(0.894498 0.447232 0)
(0.894457 0.447201 0)
(0.89443 0.447185 0)
(0.894412 0.447178 0)
(0.894402 0.447178 0)
(0.894396 0.44718 0)
(0.894394 0.447184 0)
(0.894394 0.447188 0)
(0.894395 0.447191 0)
(0.894396 0.447194 0)
(0.894397 0.447196 0)
(0.894398 0.447197 0)
(0.894398 0.447198 0)
(0.894399 0.447199 0)
(0.894399 0.447199 0)
(0.894399 0.447199 0)
(0.8944 0.4472 0)
(0.8944 0.4472 0)
(0.8944 0.4472 0)
(0.8944 0.4472 0)
(0.8944 0.4472 0)
(0.8944 0.4472 0)
(0.8944 0.4472 0)
(0.8944 0.4472 0)
(0.8944 0.4472 0)
(0.8944 0.4472 0)
(0.8944 0.4472 0)
(0.8944 0.4472 0)
(0.8944 0.4472 0)
(0.8944 0.4472 0)
(0.8944 0.4472 0)
(0.8944 0.4472 0)
(0.8944 0.4472 0)
(0.8944 0.4472 0)
(0.8944 0.4472 0)
(0.8944 0.4472 0)
(0.8944 0.4472 0)
(0.8944 0.4472 0)
(0.8944 0.4472 0)
(0.8944 0.4472 0)
(0.8944 0.4472 0)
(0.8944 0.4472 0)
(0.8944 0.4472 0)
(0.8944 0.4472 0)
(0.8944 0.4472 0)
(0.8944 0.4472 0)
(0.8944 0.4472 0)
(0.8944 0.4472 0)
(0.8944 0.4472 0)
(0.894399 0.447201 0)
(0.894398 0.447201 0)
(0.894397 0.447202 0)
(0.894396 0.447204 0)
(0.894393 0.447207 0)
(0.89439 0.44721 0)
(0.894387 0.447217 0)
(0.894383 0.447224 0)
(0.89438 0.447233 0)
(0.89438 0.447244 0)
(0.894384 0.447256 0)
(0.894392 0.447268 0)
(0.894405 0.44728 0)
(0.894418 0.447296 0)
(0.894425 0.44732 0)
(0.894415 0.447366 0)
(0.894374 0.447451 0)
(0.894287 0.4476 0)
(0.89414 0.447846 0)
(0.893926 0.448217 0)
(0.893648 0.44874 0)
(0.893319 0.44943 0)
(0.892962 0.450287 0)
(0.892607 0.451292 0)
(0.892288 0.452414 0)
(0.892039 0.453606 0)
(0.891886 0.454814 0)
(0.891852 0.455981 0)
(0.891948 0.457053 0)
(0.892175 0.457979 0)
(0.892525 0.458716 0)
(0.892981 0.45923 0)
(0.893517 0.459497 0)
(0.8941 0.459499 0)
(0.894694 0.459233 0)
(0.895258 0.458705 0)
(0.895752 0.457936 0)
(0.896141 0.456964 0)
(0.896403 0.455842 0)
(0.896531 0.454636 0)
(0.89653 0.453414 0)
(0.896422 0.452238 0)
(0.896235 0.451162 0)
(0.895999 0.450219 0)
(0.895741 0.449425 0)
(0.895486 0.448784 0)
(0.895249 0.448284 0)
(0.895041 0.447909 0)
(0.894866 0.447638 0)
(0.894725 0.44745 0)
(0.894616 0.447325 0)
(0.894535 0.447248 0)
(0.894478 0.447203 0)
(0.894439 0.44718 0)
(0.894415 0.447171 0)
(0.894401 0.44717 0)
(0.894394 0.447173 0)
(0.894391 0.447178 0)
(0.894391 0.447183 0)
(0.894392 0.447187 0)
(0.894394 0.447191 0)
(0.894395 0.447194 0)
(0.894397 0.447196 0)
(0.894398 0.447198 0)
(0.894398 0.447198 0)
(0.894399 0.447199 0)
(0.894399 0.447199 0)
(0.8944 0.4472 0)
(0.8944 0.4472 0)
(0.8944 0.4472 0)
(0.8944 0.4472 0)
(0.8944 0.4472 0)
(0.8944 0.4472 0)
(0.8944 0.4472 0)
(0.8944 0.4472 0)
(0.8944 0.4472 0)
(0.8944 0.4472 0)
(0.8944 0.4472 0)
(0.8944 0.4472 0)
(0.8944 0.4472 0)
(0.8944 0.4472 0)
(0.8944 0.4472 0)
(0.8944 0.4472 0)
(0.8944 0.4472 0)
(0.8944 0.4472 0)
(0.8944 0.4472 0)
(0.8944 0.4472 0)
(0.8944 0.4472 0)
(0.8944 0.4472 0)
(0.8944 0.4472 0)
(0.8944 0.4472 0)
(0.8944 0.4472 0)
(0.8944 0.4472 0)
(0.8944 0.4472 0)
(0.8944 0.4472 0)
(0.8944 0.4472 0)
(0.8944 0.4472 0)
(0.8944 0.4472 0)
(0.8944 0.4472 0)
(0.894399 0.447201 0)
(0.894399 0.447201 0)
(0.894398 0.447202 0)
(0.894396 0.447203 0)
(0.894394 0.447205 0)
(0.89439 0.447209 0)
(0.894386 0.447215 0)
(0.894381 0.447222 0)
(0.894376 0.447232 0)
(0.894371 0.447245 0)
(0.894371 0.44726 0)
(0.894373 0.447277 0)
(0.894381 0.447296 0)
(0.894391 0.447318 0)
(0.894397 0.447348 0)
(0.894388 0.447399 0)
(0.894349 0.447489 0)
(0.894258 0.447647 0)
(0.894095 0.44791 0)
(0.893845 0.44832 0)
(0.893504 0.448915 0)
(0.893081 0.449723 0)
(0.8926 0.450755 0)
(0.892099 0.451997 0)
(0.891621 0.453415 0)
(0.891211 0.454954 0)
(0.890911 0.456547 0)
(0.890753 0.458124 0)
(0.890758 0.459615 0)
(0.890937 0.460957 0)
(0.891286 0.462098 0)
(0.891793 0.462995 0)
(0.892436 0.463615 0)
(0.893182 0.463933 0)
(0.893993 0.463933 0)
(0.894823 0.463604 0)
(0.895619 0.462949 0)
(0.896327 0.46198 0)
(0.896897 0.460735 0)
(0.897292 0.459269 0)
(0.897493 0.457662 0)
(0.897507 0.456003 0)
(0.897358 0.454383 0)
(0.897087 0.452878 0)
(0.896739 0.451545 0)
(0.896359 0.450415 0)
(0.89598 0.449495 0)
(0.89563 0.448775 0)
(0.895323 0.448234 0)
(0.895067 0.447842 0)
(0.894862 0.44757 0)
(0.894705 0.447389 0)
(0.894589 0.447276 0)
(0.894508 0.44721 0)
(0.894453 0.447176 0)
(0.894419 0.447162 0)
(0.8944 0.44716 0)
(0.89439 0.447164 0)
(0.894387 0.44717 0)
(0.894387 0.447177 0)
(0.894389 0.447183 0)
(0.894391 0.447188 0)
(0.894393 0.447192 0)
(0.894395 0.447195 0)
(0.894397 0.447197 0)
(0.894398 0.447198 0)
(0.894399 0.447199 0)
(0.894399 0.447199 0)
(0.894399 0.447199 0)
(0.8944 0.4472 0)
(0.8944 0.4472 0)
(0.8944 0.4472 0)
(0.8944 0.4472 0)
(0.8944 0.4472 0)
(0.8944 0.4472 0)
(0.8944 0.4472 0)
(0.8944 0.4472 0)
(0.8944 0.4472 0)
(0.8944 0.4472 0)
(0.8944 0.4472 0)
(0.8944 0.4472 0)
(0.8944 0.4472 0)
(0.8944 0.4472 0)
(0.8944 0.4472 0)
(0.8944 0.4472 0)
(0.8944 0.4472 0)
(0.8944 0.4472 0)
(0.8944 0.4472 0)
(0.8944 0.4472 0)
(0.8944 0.4472 0)
(0.8944 0.4472 0)
(0.8944 0.4472 0)
(0.8944 0.4472 0)
(0.8944 0.4472 0)
(0.8944 0.4472 0)
(0.8944 0.4472 0)
(0.8944 0.4472 0)
(0.8944 0.4472 0)
(0.8944 0.4472 0)
(0.894399 0.4472 0)
(0.894399 0.447201 0)
(0.894398 0.447201 0)
(0.894397 0.447202 0)
(0.894395 0.447204 0)
(0.894391 0.447207 0)
(0.894386 0.447212 0)
(0.89438 0.44722 0)
(0.894373 0.44723 0)
(0.894366 0.447243 0)
(0.894359 0.447261 0)
(0.894357 0.447281 0)
(0.894357 0.447305 0)
(0.894362 0.447333 0)
(0.894365 0.447369 0)
(0.894357 0.447424 0)
(0.894318 0.447516 0)
(0.894228 0.447675 0)
(0.894056 0.447944 0)
(0.893777 0.448375 0)
(0.893375 0.449021 0)
(0.892853 0.449928 0)
(0.892232 0.451121 0)
(0.891555 0.452596 0)
(0.890877 0.454316 0)
(0.890258 0.456221 0)
(0.889754 0.458227 0)
(0.889413 0.460244 0)
(0.889267 0.462184 0)
(0.889335 0.463972 0)
(0.889621 0.465546 0)
(0.890118 0.46686 0)
(0.890808 0.467881 0)
(0.891666 0.468586 0)
(0.892656 0.468955 0)
(0.893737 0.468971 0)
(0.894855 0.468618 0)
(0.895949 0.467886 0)
(0.896947 0.466772 0)
(0.897778 0.465295 0)
(0.898381 0.463506 0)
(0.898719 0.461487 0)
(0.898788 0.459348 0)
(0.898615 0.457209 0)
(0.898254 0.455182 0)
(0.897769 0.453355 0)
(0.897227 0.451785 0)
(0.896681 0.450494 0)
(0.896172 0.449475 0)
(0.895727 0.448704 0)
(0.895355 0.448142 0)
(0.895059 0.447751 0)
(0.894833 0.44749 0)
(0.894668 0.447325 0)
(0.894552 0.447228 0)
(0.894475 0.447177 0)
(0.894427 0.447155 0)
(0.8944 0.447149 0)
(0.894386 0.447153 0)
(0.894381 0.447161 0)
(0.894381 0.447169 0)
(0.894384 0.447177 0)
(0.894387 0.447184 0)
(0.89439 0.447189 0)
(0.894393 0.447193 0)
(0.894395 0.447195 0)
(0.894397 0.447197 0)
(0.894398 0.447198 0)
(0.894398 0.447199 0)
(0.894399 0.447199 0)
(0.894399 0.4472 0)
(0.8944 0.4472 0)
(0.8944 0.4472 0)
(0.8944 0.4472 0)
(0.8944 0.4472 0)
(0.8944 0.4472 0)
(0.8944 0.4472 0)
(0.8944 0.4472 0)
(0.8944 0.4472 0)
(0.8944 0.4472 0)
(0.8944 0.4472 0)
(0.8944 0.4472 0)
(0.8944 0.4472 0)
(0.8944 0.4472 0)
(0.8944 0.4472 0)
(0.8944 0.4472 0)
(0.8944 0.4472 0)
(0.8944 0.4472 0)
(0.8944 0.4472 0)
(0.8944 0.4472 0)
(0.8944 0.4472 0)
(0.8944 0.4472 0)
(0.8944 0.4472 0)
(0.8944 0.4472 0)
(0.8944 0.4472 0)
(0.8944 0.4472 0)
(0.8944 0.4472 0)
(0.8944 0.4472 0)
(0.8944 0.4472 0)
(0.894399 0.4472 0)
(0.894399 0.447201 0)
(0.894399 0.447201 0)
(0.894397 0.447202 0)
(0.894396 0.447203 0)
(0.894393 0.447206 0)
(0.894388 0.44721 0)
(0.894381 0.447216 0)
(0.894373 0.447226 0)
(0.894363 0.447239 0)
(0.894353 0.447257 0)
(0.894344 0.447279 0)
(0.894337 0.447306 0)
(0.894335 0.447339 0)
(0.894332 0.44738 0)
(0.894322 0.447438 0)
(0.894286 0.44753 0)
(0.894199 0.447685 0)
(0.894025 0.447948 0)
(0.893728 0.448379 0)
(0.893277 0.449049 0)
(0.892661 0.450022 0)
(0.891893 0.451344 0)
(0.891018 0.453027 0)
(0.890102 0.455039 0)
(0.889224 0.457307 0)
(0.888459 0.459729 0)
(0.887874 0.462189 0)
(0.887514 0.464575 0)
(0.887407 0.466791 0)
(0.88756 0.468767 0)
(0.887969 0.470459 0)
(0.888621 0.471843 0)
(0.889498 0.472908 0)
(0.890575 0.47365 0)
(0.891819 0.474059 0)
(0.893191 0.474122 0)
(0.894638 0.473816 0)
(0.896091 0.473109 0)
(0.897465 0.471972 0)
(0.898659 0.47039 0)
(0.899581 0.468386 0)
(0.900159 0.46603 0)
(0.900365 0.463437 0)
(0.90022 0.460758 0)
(0.899787 0.458145 0)
(0.899153 0.455735 0)
(0.898413 0.453622 0)
(0.897652 0.451857 0)
(0.896933 0.450447 0)
(0.896298 0.449367 0)
(0.895766 0.448576 0)
(0.895342 0.448019 0)
(0.895019 0.447645 0)
(0.894782 0.447406 0)
(0.894617 0.447264 0)
(0.894508 0.447186 0)
(0.89444 0.44715 0)
(0.894401 0.447139 0)
(0.894382 0.447142 0)
(0.894375 0.44715 0)
(0.894374 0.447161 0)
(0.894378 0.447171 0)
(0.894382 0.447179 0)
(0.894387 0.447186 0)
(0.89439 0.44719 0)
(0.894393 0.447194 0)
(0.894396 0.447196 0)
(0.894397 0.447198 0)
(0.894398 0.447198 0)
(0.894399 0.447199 0)
(0.894399 0.447199 0)
(0.8944 0.4472 0)
(0.8944 0.4472 0)
(0.8944 0.4472 0)
(0.8944 0.4472 0)
(0.8944 0.4472 0)
(0.8944 0.4472 0)
(0.8944 0.4472 0)
(0.8944 0.4472 0)
(0.8944 0.4472 0)
(0.8944 0.4472 0)
(0.8944 0.4472 0)
(0.8944 0.4472 0)
(0.8944 0.4472 0)
(0.8944 0.4472 0)
(0.8944 0.4472 0)
(0.8944 0.4472 0)
(0.8944 0.4472 0)
(0.8944 0.4472 0)
(0.8944 0.4472 0)
(0.8944 0.4472 0)
(0.8944 0.4472 0)
(0.8944 0.4472 0)
(0.8944 0.4472 0)
(0.8944 0.4472 0)
(0.8944 0.4472 0)
(0.8944 0.4472 0)
(0.8944 0.4472 0)
(0.8944 0.4472 0)
(0.894399 0.4472 0)
(0.894399 0.447201 0)
(0.894398 0.447201 0)
(0.894397 0.447202 0)
(0.894394 0.447204 0)
(0.89439 0.447207 0)
(0.894383 0.447213 0)
(0.894375 0.447221 0)
(0.894363 0.447233 0)
(0.89435 0.447251 0)
(0.894336 0.447273 0)
(0.894323 0.447302 0)
(0.894311 0.447337 0)
(0.894302 0.447382 0)
(0.894287 0.447441 0)
(0.894252 0.447531 0)
(0.894171 0.447677 0)
(0.894004 0.447923 0)
(0.893703 0.448336 0)
(0.893222 0.448997 0)
(0.892527 0.449993 0)
(0.891619 0.451397 0)
(0.890536 0.453244 0)
(0.889354 0.455511 0)
(0.888172 0.458119 0)
(0.887093 0.46094 0)
(0.886206 0.463825 0)
(0.885575 0.466622 0)
(0.885233 0.46921 0)
(0.885191 0.471501 0)
(0.885437 0.473454 0)
(0.885957 0.475062 0)
(0.886737 0.476346 0)
(0.887762 0.477329 0)
(0.889018 0.478035 0)
(0.890486 0.47847 0)
(0.892136 0.478623 0)
(0.893925 0.478462 0)
(0.895785 0.477934 0)
(0.897619 0.47697 0)
(0.899299 0.475506 0)
(0.900686 0.473509 0)
(0.90166 0.471008 0)
(0.902145 0.468103 0)
(0.902137 0.464957 0)
(0.901696 0.461767 0)
(0.900933 0.458726 0)
(0.899979 0.455989 0)
(0.898958 0.453652 0)
(0.897972 0.451753 0)
(0.897088 0.450278 0)
(0.896341 0.449182 0)
(0.895742 0.448403 0)
(0.895284 0.447874 0)
(0.894948 0.447533 0)
(0.894714 0.447326 0)
(0.894559 0.44721 0)
(0.894462 0.447153 0)
(0.894406 0.447132 0)
(0.894378 0.44713 0)
(0.894367 0.447139 0)
(0.894366 0.447151 0)
(0.89437 0.447163 0)
(0.894376 0.447173 0)
(0.894382 0.447182 0)
(0.894387 0.447188 0)
(0.894391 0.447192 0)
(0.894394 0.447195 0)
(0.894396 0.447197 0)
(0.894397 0.447198 0)
(0.894398 0.447199 0)
(0.894399 0.447199 0)
(0.894399 0.4472 0)
(0.8944 0.4472 0)
(0.8944 0.4472 0)
(0.8944 0.4472 0)
(0.8944 0.4472 0)
(0.8944 0.4472 0)
(0.8944 0.4472 0)
(0.8944 0.4472 0)
(0.8944 0.4472 0)
(0.8944 0.4472 0)
(0.8944 0.4472 0)
(0.8944 0.4472 0)
(0.8944 0.4472 0)
(0.8944 0.4472 0)
(0.8944 0.4472 0)
(0.8944 0.4472 0)
(0.8944 0.4472 0)
(0.8944 0.4472 0)
(0.8944 0.4472 0)
(0.8944 0.4472 0)
(0.8944 0.4472 0)
(0.8944 0.4472 0)
(0.8944 0.4472 0)
(0.8944 0.4472 0)
(0.8944 0.4472 0)
(0.8944 0.4472 0)
(0.8944 0.4472 0)
(0.894399 0.4472 0)
(0.894399 0.4472 0)
(0.894399 0.447201 0)
(0.894398 0.447201 0)
(0.894396 0.447203 0)
(0.894391 0.447205 0)
(0.894386 0.447209 0)
(0.894378 0.447216 0)
(0.894366 0.447227 0)
(0.89435 0.447241 0)
(0.894333 0.447264 0)
(0.894314 0.447292 0)
(0.894296 0.447328 0)
(0.894277 0.447374 0)
(0.894256 0.447434 0)
(0.89422 0.447519 0)
(0.894145 0.447654 0)
(0.89399 0.447877 0)
(0.893701 0.448255 0)
(0.893214 0.448876 0)
(0.892471 0.449848 0)
(0.891446 0.451273 0)
(0.890163 0.453219 0)
(0.8887 0.455683 0)
(0.88718 0.458585 0)
(0.885738 0.461771 0)
(0.884497 0.465044 0)
(0.883545 0.468204 0)
(0.882925 0.471082 0)
(0.882642 0.473566 0)
(0.882673 0.475611 0)
(0.882986 0.477231 0)
(0.883555 0.478484 0)
(0.884373 0.479449 0)
(0.885444 0.480199 0)
(0.886779 0.480787 0)
(0.888384 0.481236 0)
(0.890254 0.481535 0)
(0.892361 0.481642 0)
(0.894649 0.48148 0)
(0.897017 0.480938 0)
(0.899312 0.47989 0)
(0.901346 0.478229 0)
(0.902927 0.475907 0)
(0.903907 0.47297 0)
(0.904224 0.469566 0)
(0.903915 0.465921 0)
(0.903102 0.46229 0)
(0.901956 0.458901 0)
(0.900655 0.455923 0)
(0.899351 0.453444 0)
(0.898155 0.451483 0)
(0.897129 0.450003 0)
(0.896297 0.448937 0)
(0.895656 0.448203 0)
(0.895185 0.447722 0)
(0.894855 0.447425 0)
(0.894635 0.447254 0)
(0.894497 0.447166 0)
(0.894417 0.447129 0)
(0.894376 0.447121 0)
(0.894359 0.447128 0)
(0.894356 0.447141 0)
(0.894361 0.447154 0)
(0.894368 0.447167 0)
(0.894376 0.447177 0)
(0.894382 0.447184 0)
(0.894388 0.44719 0)
(0.894392 0.447194 0)
(0.894395 0.447196 0)
(0.894396 0.447197 0)
(0.894397 0.447198 0)
(0.894398 0.447199 0)
(0.894399 0.447199 0)
(0.8944 0.4472 0)
(0.8944 0.4472 0)
(0.8944 0.4472 0)
(0.8944 0.4472 0)
(0.8944 0.4472 0)
(0.8944 0.4472 0)
(0.8944 0.4472 0)
(0.8944 0.4472 0)
(0.8944 0.4472 0)
(0.8944 0.4472 0)
(0.8944 0.4472 0)
(0.8944 0.4472 0)
(0.8944 0.4472 0)
(0.8944 0.4472 0)
(0.8944 0.4472 0)
(0.8944 0.4472 0)
(0.8944 0.4472 0)
(0.8944 0.4472 0)
(0.8944 0.4472 0)
(0.8944 0.4472 0)
(0.8944 0.4472 0)
(0.8944 0.4472 0)
(0.8944 0.4472 0)
(0.8944 0.4472 0)
(0.8944 0.4472 0)
(0.8944 0.4472 0)
(0.894399 0.4472 0)
(0.894399 0.4472 0)
(0.894398 0.447201 0)
(0.894397 0.447202 0)
(0.894394 0.447204 0)
(0.894389 0.447207 0)
(0.894381 0.447212 0)
(0.89437 0.44722 0)