/*--------------------------------*- C++ -*----------------------------------*\
  =========                 |
  \\      /  F ield         | OpenFOAM: The Open Source CFD Toolbox
   \\    /   O peration     | Website:  https://openfoam.org
    \\  /    A nd           | Version:  6
     \\/     M anipulation  |
\*---------------------------------------------------------------------------*/
FoamFile
{
    version     2.0;
    format      ascii;
    class       volScalarField;
    location    "3.69";
    object      nut;
}
// * * * * * * * * * * * * * * * * * * * * * * * * * * * * * * * * * * * * * //

dimensions      [0 2 -1 0 0 0 0];

internalField   nonuniform List<scalar> 
4214
(
0.0026557
0.00210191
0.00209505
0.00226399
0.00240737
0.00245693
0.00245337
0.00249396
0.00271023
0.00328831
0.00452648
0.00691523
0.0111411
0.0178696
0.0271034
0.0361893
0.0384316
0.0330925
0.0270737
0.0225281
0.0187889
0.0161549
0.014592
0.0136499
0.0128832
0.011913
0.0105878
0.00900033
0.00732305
0.00572663
0.00436744
0.00332662
0.00263069
0.00224455
0.00210386
0.00210887
0.00211591
0.00202252
0.00191107
0.00201567
0.0027161
0.00173199
0.00189181
0.00211627
0.00228078
0.00234592
0.0023433
0.00234458
0.002448
0.00278644
0.00356361
0.00511855
0.00799207
0.012887
0.0203736
0.0301051
0.0386228
0.0392068
0.0335348
0.0281112
0.0239923
0.0205668
0.0182335
0.0170525
0.0165629
0.0162715
0.0156876
0.0145348
0.0128567
0.0108242
0.00864259
0.00657514
0.00482013
0.00350058
0.00262086
0.00212174
0.00191618
0.00189104
0.00189416
0.0018105
0.00167675
0.00163874
0.0018391
0.00201673
0.00215578
0.00222329
0.00222961
0.00221869
0.00226086
0.00245315
0.00293789
0.00394588
0.00586275
0.00927438
0.0148731
0.0230891
0.0330876
0.040638
0.0400208
0.0343342
0.0294764
0.0257835
0.0227728
0.020826
0.0200971
0.0201882
0.0204943
0.0204481
0.0196633
0.0181233
0.0159109
0.0131981
0.0103193
0.00761246
0.00537362
0.00372372
0.00264073
0.0020273
0.00176251
0.00171589
0.0017324
0.00169585
0.00161462
0.0018815
0.00200449
0.00207983
0.00210346
0.00209804
0.00211229
0.00221834
0.00251871
0.00317223
0.0044438
0.00676786
0.0107642
0.0170868
0.0259717
0.0360273
0.0424607
0.040959
0.0357183
0.0314052
0.0281414
0.0256047
0.0240557
0.0237872
0.0244964
0.0255307
0.0262203
0.0259665
0.0247897
0.0226402
0.0195806
0.0159395
0.0121419
0.00868737
0.00591392
0.00392216
0.00264989
0.00194224
0.00163461
0.00157155
0.00158499
0.00156276
0.0018495
0.00192575
0.00196502
0.00197344
0.00198048
0.0020392
0.00222545
0.00265066
0.00349527
0.00506234
0.00783186
0.0124398
0.0194663
0.0289027
0.0387375
0.0440555
0.0421969
0.03761
0.0337997
0.0309757
0.0289807
0.0278566
0.0280341
0.0293802
0.031174
0.0327213
0.0332897
0.0327241
0.0309168
0.0277876
0.0235917
0.0187441
0.0138808
0.00962727
0.00631805
0.00402504
0.00261063
0.00184484
0.00151708
0.00144254
0.00144003
0.0017719
0.0018195
0.00184248
0.00185378
0.00188976
0.00200742
0.00228721
0.00285228
0.00390834
0.00579698
0.00903501
0.0142503
0.0219066
0.0317089
0.0410884
0.0455458
0.0438183
0.0399908
0.036708
0.0343099
0.0328879
0.0321711
0.0327139
0.0346308
0.0372534
0.0398819
0.0414807
0.0417476
0.0406062
0.037742
0.0332932
0.0276078
0.0213036
0.0152711
0.0102298
0.0064724
0.00398236
0.00250187
0.00172609
0.00140364
0.00131858
0.00167602
0.00170824
0.00172756
0.00175515
0.00183327
0.00202155
0.00240581
0.0031228
0.00440464
0.00662691
0.0103279
0.0160963
0.0242491
0.0341252
0.0429509
0.04704
0.0458082
0.0428114
0.0400744
0.0380006
0.0372208
0.0369192
0.0377412
0.0399958
0.0431931
0.0467378
0.0495529
0.0510465
0.0510614
0.049059
0.0448501
0.0386843
0.0311604
0.0231695
0.016018
0.0103364
0.00632088
0.00377673
0.00232054
0.00158739
0.0012964
0.00157832
0.00160308
0.00162856
0.00168406
0.00181565
0.00208346
0.00257972
0.00345454
0.00496389
0.0075065
0.0116197
0.0178172
0.0262233
0.0359051
0.044213
0.0484654
0.0480288
0.0459089
0.0437756
0.0419666
0.0417007
0.041926
0.0430548
0.0452428
0.0482553
0.0517733
0.0552956
0.0581924
0.0599379
0.0598745
0.0571876
0.0514766
0.0431224
0.0334188
0.0239311
0.0159112
0.0098927
0.00586153
0.00342007
0.00207972
0.00144539
0.00148567
0.00150921
0.00155074
0.00164489
0.0018392
0.00219173
0.00280206
0.00382947
0.00554687
0.0083577
0.0127695
0.0191857
0.0275299
0.0367581
0.0446939
0.049466
0.0501923
0.0490523
0.0475361
0.0461397
0.0460005
0.0464259
0.0473967
0.0490106
0.0512225
0.0540673
0.0575175
0.0612568
0.0647315
0.0670664
0.0670586
0.0634973
0.0559712
0.0454015
0.0338516
0.0232722
0.0148691
0.00891447
0.00512749
0.00294308
0.00181147
0.00140056
0.00142988
0.00149839
0.00164011
0.00190372
0.00234068
0.00305885
0.0042165
0.00609243
0.00906831
0.0135908
0.0199303
0.0278534
0.0363866
0.0439713
0.0492842
0.0515629
0.0516319
0.0508515
0.0499426
0.0496079
0.0496748
0.0500202
0.050659
0.0516933
0.0534478
0.0561774
0.059939
0.0644689
0.0689702
0.0720326
0.0718026
0.0667799
0.0569955
0.0443676
0.0316118
0.020784
0.0127397
0.00740093
0.00418558
0.00240914
0.00132452
0.00136799
0.00147514
0.00166983
0.00200628
0.00251956
0.00332861
0.00457194
0.00652226
0.0095059
0.0138849
0.0198011
0.0269699
0.0346266
0.0416522
0.0470877
0.0507133
0.0523002
0.0525077
0.0520362
0.0514508
0.0509078
0.0504449
0.0501293
0.0502072
0.0510055
0.0529023
0.0561791
0.0609247
0.0666382
0.0720887
0.0751244
0.0733806
0.0656931
0.0533093
0.0392846
0.0265498
0.016646
0.00981366
0.00555669
0.00313519
0.00126001
0.00132617
0.00148384
0.00173135
0.0021417
0.00271312
0.00358572
0.00484735
0.00675981
0.00955639
0.0135153
0.018696
0.0248352
0.0313541
0.0375177
0.0427201
0.0466485
0.0492193
0.0505058
0.0505792
0.0499862
0.0490884
0.048124
0.0472675
0.0468638
0.0473125
0.048843
0.0518266
0.0564957
0.0627044
0.0695129
0.0748257
0.0758013
0.0704044
0.0590186
0.0445909
0.0306978
0.0195408
0.0116739
0.00666625
0.00374934
0.0012112
0.00130598
0.00152692
0.00181922
0.00230473
0.00290502
0.0038104
0.00500878
0.00676884
0.00919243
0.0125081
0.0167002
0.0215845
0.0267499
0.031709
0.0362175
0.039957
0.0426887
0.0442565
0.0447737
0.0443968
0.0435831
0.042705
0.0420552
0.0419385
0.0426479
0.0443795
0.0475026
0.0523625
0.0589737
0.0666169
0.0732156
0.0757729
0.0717036
0.0609913
0.046505
0.032147
0.020519
0.0123141
0.00707665
0.00400102
0.00118462
0.00130741
0.00160759
0.0019264
0.00249435
0.00308447
0.0040038
0.00506155
0.00659518
0.00852219
0.0110821
0.0141932
0.0177645
0.0215233
0.025259
0.0287813
0.0318569
0.0343161
0.0358474
0.0365629
0.0365988
0.0362887
0.0359713
0.035946
0.0364692
0.0377709
0.0400661
0.0437201
0.0491246
0.0563111
0.0645961
0.0718764
0.0748972
0.0708194
0.0598049
0.0449759
0.0306007
0.0192555
0.0114683
0.0065964
0.00376647
0.00118997
0.00132976
0.00173186
0.00204699
0.00271835
0.00325329
0.00419926
0.00506358
0.00637825
0.00779242
0.00965891
0.0117943
0.0141996
0.0167928
0.0193861
0.022036
0.0244195
0.0266756
0.02819
0.0291305
0.0296044
0.0298864
0.030191
0.03083
0.0319265
0.033875
0.0367496
0.0410969
0.0471677
0.0550837
0.0640566
0.0713984
0.0737694
0.068159
0.0557453
0.0402652
0.0264537
0.0161398
0.00946245
0.00543212
0.00316604
0.00124223
0.00137668
0.00191178
0.00218271
0.00299536
0.00342946
0.00445714
0.00510907
0.00630349
0.00729177
0.00867445
0.0101105
0.0116922
0.0135203
0.0152907
0.0175275
0.019445
0.0217015
0.0232144
0.0244169
0.0251973
0.0259123
0.0266397
0.0276779
0.0291085
0.0315916
0.0349118
0.0400587
0.0469305
0.0555841
0.0649403
0.0713341
0.0720429
0.0630489
0.0491641
0.0330181
0.0208391
0.0120931
0.00705588
0.00405551
0.00248386
0.00136973
0.00146683
0.00217309
0.00235505
0.00335362
0.00364694
0.00483694
0.00528396
0.00651152
0.00720558
0.00837179
0.00944439
0.0105759
0.0121604
0.0134493
0.0158755
0.0173498
0.019839
0.0211348
0.0226235
0.023413
0.0243989
0.0251536
0.0264894
0.0278791
0.0311461
0.0344405
0.0412691
0.0483329
0.0580654
0.0664199
0.0703544
0.0689725
0.0542383
0.0413578
0.0241051
0.0155046
0.00810465
0.00508336
0.00285327
0.00197515
0.00137194
0.00163567
0.00196334
0.0022566
0.00238304
0.0022752
0.00198854
0.00165165
0.00138147
0.00122543
0.00120352
0.00129797
0.00143697
0.00153001
0.00158126
0.00191634
0.00505626
0.00117476
0.00124953
0.00137641
0.00150652
0.00157626
0.00154856
0.00143955
0.00130208
0.00119315
0.0011426
0.00116336
0.00124408
0.00134202
0.00140148
0.00143334
0.00173384
0.00524258
0.0010872
0.0010944
0.00112926
0.00117635
0.00120988
0.00121071
0.00117975
0.00113599
0.00110497
0.00110306
0.00113748
0.00120184
0.00127019
0.00130441
0.00131678
0.00158655
0.00537779
0.00108477
0.00106577
0.00106064
0.00106728
0.00107725
0.00108165
0.0010778
0.00107098
0.00107098
0.00108564
0.00111901
0.00116779
0.0012145
0.00122994
0.00122315
0.00145955
0.00548115
0.00107654
0.00106335
0.00105317
0.00104806
0.00104726
0.00104829
0.00104961
0.0010524
0.00106003
0.00107614
0.00110314
0.00113903
0.00117058
0.00117281
0.00114974
0.00135592
0.00552405
0.00107413
0.00106361
0.00105477
0.00104839
0.00104471
0.00104337
0.00104404
0.0010472
0.00105434
0.00106743
0.001088
0.00111449
0.00113583
0.00112933
0.00109418
0.00127184
0.00549215
0.00106345
0.00105701
0.00105106
0.0010461
0.00104255
0.00104059
0.00104042
0.00104252
0.00104789
0.00105794
0.00107385
0.00109424
0.00110939
0.00109843
0.00105594
0.00120468
0.00538262
0.00106086
0.0010539
0.0010479
0.00104298
0.00103925
0.00103683
0.00103594
0.00103703
0.00104093
0.00104889
0.00106198
0.00107909
0.00109178
0.00108081
0.00103536
0.00115433
0.00520904
0.00105599
0.00105011
0.0010448
0.00104015
0.00103633
0.00103353
0.00103201
0.00103229
0.0010352
0.001042
0.00105391
0.00107031
0.00108431
0.00107776
0.00103316
0.00112314
0.00499585
0.00105584
0.00105
0.00104461
0.00103977
0.00103561
0.00103232
0.00103022
0.00102988
0.00103226
0.00103878
0.00105098
0.00106908
0.00108777
0.00108936
0.001049
0.00111415
0.00477302
0.00105552
0.00105032
0.00104537
0.00104076
0.00103662
0.0010332
0.00103092
0.00103047
0.001033
0.00104016
0.00105389
0.00107533
0.00110076
0.00111289
0.00108014
0.00112792
0.00455977
0.00105655
0.00105186
0.00104734
0.00104309
0.00103927
0.00103615
0.00103422
0.0010343
0.00103764
0.00104612
0.00106202
0.00108735
0.00111998
0.00114366
0.00112164
0.00116157
0.00436257
0.00105872
0.00105437
0.00105022
0.00104635
0.00104294
0.00104034
0.00103913
0.00104021
0.00104494
0.00105532
0.00107395
0.00110351
0.00114314
0.00117794
0.00116816
0.00120996
0.00417741
0.0010605
0.00105687
0.00105332
0.00105005
0.00104734
0.00104564
0.0010456
0.0010482
0.0010549
0.00106778
0.00108967
0.00112361
0.0011694
0.00121315
0.00121483
0.00126778
0.00399604
0.00106415
0.00106064
0.00105748
0.00105482
0.00105299
0.00105247
0.00105396
0.00105852
0.00106764
0.00108352
0.00110905
0.00114725
0.0011978
0.00124704
0.00125797
0.00133124
0.00381109
0.00106659
0.00106409
0.00106184
0.00106023
0.00105967
0.00106073
0.00106417
0.00107109
0.00108307
0.00110234
0.00113172
0.00117369
0.00122712
0.001278
0.0012963
0.00139876
0.00361812
0.00107126
0.00106892
0.00106737
0.00106685
0.00106776
0.00107065
0.00107632
0.00108591
0.00110106
0.00112395
0.00115702
0.00120191
0.00125614
0.00130555
0.00133177
0.0014705
0.00341575
0.00107444
0.00107352
0.00107336
0.00107439
0.00107711
0.00108211
0.00109026
0.00110281
0.00112135
0.00114783
0.00118415
0.00123087
0.00128411
0.00133126
0.00136948
0.001547
0.00320373
0.00107996
0.00107955
0.00108054
0.00108315
0.00108776
0.00109504
0.00110589
0.00112155
0.00114351
0.00117338
0.00121236
0.00125997
0.00131168
0.00135909
0.00141585
0.00162702
0.00298378
0.00108412
0.00108559
0.00108832
0.00109278
0.0010995
0.00110923
0.00112294
0.0011418
0.00116713
0.00120013
0.00124135
0.00128966
0.00134133
0.00139446
0.00147502
0.00170538
0.00276009
0.00109047
0.00109282
0.00109699
0.00110325
0.00111216
0.00112447
0.00114115
0.00116328
0.00119197
0.00122805
0.00127168
0.00132184
0.00137704
0.00144187
0.00154559
0.00177209
0.00253587
0.00109576
0.0011001
0.00110602
0.00111425
0.00112549
0.00114052
0.0011603
0.00118585
0.00121809
0.00125769
0.00130483
0.00135938
0.00142246
0.00150209
0.00162025
0.0018174
0.0023189
0.00110264
0.00110792
0.00111539
0.0011256
0.00113928
0.00115719
0.00118031
0.0012096
0.00124595
0.00129011
0.00134269
0.0014046
0.00147839
0.00157032
0.00168779
0.00183408
0.00211535
0.00110865
0.00111556
0.00112474
0.00113707
0.00115336
0.00117439
0.00120119
0.0012348
0.00127621
0.0013264
0.00138644
0.00145763
0.00154146
0.00163776
0.00173768
0.00182063
0.00193103
0.00111517
0.00112308
0.00113395
0.00114848
0.00116756
0.00119203
0.00122303
0.00126173
0.0013093
0.00136693
0.0014356
0.00151561
0.00160524
0.00169641
0.00176832
0.00179097
0.00177164
0.00112108
0.00113023
0.00114283
0.00115967
0.00118176
0.00121006
0.00124579
0.00129028
0.00134481
0.00141047
0.00148763
0.00157475
0.00166593
0.00174637
0.00178827
0.00175881
0.00164102
0.00112664
0.00113691
0.00115116
0.00117032
0.00119552
0.00122792
0.00126883
0.0013197
0.00138177
0.00145569
0.00154063
0.00163267
0.00172207
0.00178927
0.00180282
0.00172738
0.00154119
0.00113159
0.00114286
0.00115864
0.00118008
0.00120848
0.00124522
0.00129164
0.00134922
0.00141891
0.00150067
0.00159228
0.00168759
0.00177393
0.00182884
0.00181899
0.00170729
0.00147534
0.00113585
0.00114791
0.00116502
0.00118856
0.00122008
0.00126112
0.0013131
0.00137732
0.00145434
0.00154328
0.00164073
0.00173897
0.00182355
0.00187056
0.00184558
0.00170976
0.00144796
0.00113924
0.00115181
0.00116991
0.00119517
0.00122938
0.0012743
0.00133143
0.00140186
0.00148565
0.00158122
0.00168441
0.00178681
0.00187344
0.00191994
0.00189088
0.00174426
0.00146466
0.0011417
0.00115434
0.00117284
0.00119905
0.00123495
0.0012825
0.00134345
0.0014189
0.00150871
0.00161088
0.00172079
0.00183005
0.00192444
0.00198026
0.00196069
0.00181823
0.00153181
0.00114335
0.00115555
0.00117374
0.00119987
0.00123603
0.00128432
0.00134667
0.00142437
0.00151767
0.00162514
0.00174279
0.00186291
0.00197226
0.00204842
0.00205407
0.00193454
0.00165606
0.00114441
0.00115565
0.00117269
0.00119752
0.00123222
0.00127893
0.00133966
0.001416
0.00150887
0.00161806
0.00174145
0.00187365
0.00200362
0.00211142
0.00216099
0.00209001
0.00184376
0.00114515
0.00115494
0.00117006
0.00119235
0.00122378
0.00126635
0.00132201
0.00139262
0.0014799
0.00158504
0.00170858
0.00184898
0.00199954
0.00214602
0.00225901
0.00227244
0.00210032
0.00114592
0.00115393
0.00116649
0.00118523
0.0012118
0.00124788
0.00129532
0.00135601
0.00143172
0.0015247
0.00163777
0.00177415
0.00193457
0.00211586
0.00230727
0.00245316
0.0024297
0.00114707
0.00115317
0.00116289
0.00117749
0.00119822
0.00122645
0.00126346
0.00131042
0.00136895
0.00144149
0.00153203
0.00164698
0.00179479
0.00198909
0.00225349
0.00257945
0.00283413
0.00114892
0.00115322
0.00116015
0.00117062
0.00118548
0.00120555
0.00123133
0.0012633
0.00130231
0.00135008
0.00141018
0.00148957
0.00160051
0.00177231
0.00206514
0.00257239
0.0033141
0.00115164
0.00115443
0.00115898
0.00116588
0.00117564
0.0011885
0.00120444
0.00122339
0.00124541
0.00127128
0.00130326
0.0013466
0.00141342
0.00153616
0.00178533
0.00236658
0.00386853
0.00115518
0.00115683
0.00115957
0.00116375
0.00116962
0.00117718
0.00118618
0.00119635
0.00120753
0.00122005
0.00123525
0.00125662
0.00129441
0.00137015
0.00153402
0.00201047
0.00449517
0.00115959
0.00116023
0.00116156
0.0011638
0.001167
0.00117112
0.00117601
0.0011816
0.00118813
0.00119644
0.00120831
0.00122726
0.00125975
0.00130938
0.00140085
0.0016705
0.00519099
0.00119107
0.00120465
0.00121848
0.001232
0.00124464
0.00125592
0.00126563
0.00127367
0.00128004
0.00128479
0.00128801
0.00128977
0.00129021
0.00128946
0.00128766
0.00128493
0.00128136
0.00127702
0.00127203
0.00126655
0.00125706
0.00124877
0.00124438
0.00124157
0.00124013
0.00123973
0.00123998
0.00124044
0.00124068
0.00124026
0.00123882
0.001236
0.00123161
0.0012256
0.00121828
0.00121011
0.00120166
0.00119314
0.00118448
0.00117564
0.00116708
0.00121326
0.00122907
0.0012449
0.00125994
0.00127352
0.00128531
0.00129524
0.00130329
0.00130951
0.00131394
0.00131665
0.00131771
0.00131722
0.0013153
0.00131208
0.00130765
0.0013021
0.00129553
0.00128809
0.00128001
0.00126736
0.00125597
0.0012494
0.00124467
0.00124159
0.00123989
0.00123919
0.00123903
0.00123899
0.00123858
0.00123742
0.00123504
0.00123119
0.0012257
0.00121878
0.00121087
0.00120257
0.00119417
0.00118558
0.00117664
0.00116783
0.00123564
0.00125391
0.00127172
0.00128801
0.00130229
0.00131446
0.00132457
0.00133267
0.00133879
0.00134296
0.0013452
0.00134556
0.00134415
0.00134106
0.0013364
0.00133028
0.00132279
0.00131406
0.00130429
0.0012938
0.00127838
0.00126415
0.00125535
0.00124857
0.00124367
0.00124042
0.0012385
0.00123748
0.00123691
0.00123631
0.00123523
0.00123322
0.00122988
0.00122499
0.00121857
0.00121101
0.00120291
0.00119472
0.00118639
0.00117768
0.00116894
0.00125785
0.00127866
0.00129816
0.00131536
0.00133014
0.00134264
0.00135299
0.00136122
0.00136732
0.00137126
0.00137307
0.00137278
0.00137046
0.00136623
0.00136018
0.00135244
0.00134311
0.00133239
0.00132052
0.00130787
0.00129012
0.00127337
0.0012624
0.00125352
0.00124667
0.00124169
0.0012383
0.00123613
0.00123476
0.00123371
0.00123252
0.00123071
0.00122783
0.00122355
0.00121773
0.00121061
0.00120275
0.00119477
0.00118685
0.00117872
0.00117051
0.00127962
0.0013028
0.00132352
0.00134129
0.00135648
0.00136939
0.00138008
0.00138851
0.00139464
0.00139841
0.00139981
0.00139889
0.00139572
0.0013904
0.00138306
0.00137383
0.00136287
0.00135039
0.0013367
0.00132218
0.00130259
0.00128373
0.0012707
0.00125975
0.0012509
0.00124406
0.00123901
0.00123544
0.00123298
0.00123119
0.00122961
0.00122778
0.00122523
0.00122152
0.00121636
0.00120979
0.00120223
0.0011944
0.00118687
0.00117961
0.00117252
0.00130077
0.00132587
0.00134726
0.00136543
0.00138108
0.00139447
0.00140556
0.00141425
0.00142043
0.00142405
0.00142509
0.00142359
0.00141963
0.00141335
0.00140486
0.00139434
0.00138198
0.00136803
0.00135284
0.00133678
0.00131581
0.00129529
0.0012804
0.00126751
0.0012567
0.00124794
0.0012411
0.00123595
0.00123215
0.00122932
0.00122706
0.00122492
0.00122245
0.00121918
0.00121471
0.00120881
0.00120165
0.0011939
0.00118649
0.00118005
0.00117465
0.00132127
0.00134756
0.00136919
0.00138773
0.00140392
0.00141784
0.00142935
0.00143828
0.00144452
0.001448
0.00144871
0.00144672
0.0014421
0.00143499
0.00142556
0.00141399
0.00140052
0.00138542
0.00136904
0.00135177
0.00132989
0.00130817
0.00129168
0.00127704
0.00126438
0.00125376
0.00124511
0.00123825
0.00123293
0.00122884
0.0012256
0.00122285
0.00122017
0.00121712
0.00121325
0.00120814
0.00120163
0.00119401
0.0011863
0.00118002
0.00117637
0.00134118
0.00136776
0.00138944
0.00140843
0.00142519
0.00143961
0.00145148
0.00146061
0.00146688
0.00147024
0.0014707
0.00146831
0.00146317
0.00145544
0.00144531
0.00143297
0.00141868
0.00140274
0.00138551
0.00136735
0.00134495
0.00132249
0.0013047
0.00128857
0.00127429
0.00126196
0.00125157
0.00124301
0.0012361
0.00123059
0.00122619
0.00122257
0.00121939
0.00121628
0.00121282
0.00120854
0.001203
0.00119596
0.0011879
0.00118062
0.00117743
0.00136057
0.00138654
0.00140836
0.00142788
0.00144516
0.00145998
0.0014721
0.00148136
0.00148764
0.00149091
0.00149119
0.00148853
0.00148307
0.00147495
0.00146437
0.00145155
0.00143675
0.00142028
0.0014025
0.00138376
0.00136125
0.00133846
0.00131971
0.00130241
0.00128678
0.00127297
0.00126102
0.0012509
0.00124246
0.00123553
0.00122988
0.00122525
0.00122138
0.00121796
0.00121468
0.00121114
0.00120683
0.00120113
0.00119362
0.00118496
0.0011793
0.00137918
0.00140418
0.00142645
0.00144652
0.0014642
0.00147926
0.00149151
0.0015008
0.00150707
0.00151027
0.00151047
0.0015077
0.00150211
0.00149384
0.00148309
0.00147009
0.00145509
0.00143841
0.00142038
0.00140137
0.00137908
0.00135638
0.00133703
0.0013189
0.00130226
0.00128728
0.00127406
0.0012626
0.00125282
0.00124461
0.0012378
0.00123218
0.00122757
0.00122372
0.00122043
0.00121743
0.00121435
0.00121061
0.00120526
0.00119717
0.00118727
0.00139597
0.00142119
0.00144425
0.00146482
0.00148272
0.00149786
0.00151009
0.00151933
0.00152554
0.00152872
0.00152892
0.0015262
0.00152069
0.00151253
0.0015019
0.00148901
0.00147413
0.00145754
0.00143959
0.00142063
0.0013989
0.00137666
0.00135709
0.00133853
0.00132125
0.00130548
0.00129133
0.00127886
0.00126804
0.00125881
0.00125105
0.00124463
0.0012394
0.00123519
0.00123186
0.00122924
0.00122716
0.00122531
0.00122307
0.00121886
0.00120921
0.001413
0.00143828
0.00146231
0.0014833
0.00150124
0.00151626
0.00152833
0.00153742
0.00154353
0.0015467
0.00154698
0.00154446
0.00153923
0.00153143
0.00152121
0.00150876
0.00149433
0.00147819
0.00146067
0.00144212
0.00142127
0.00139988
0.00138049
0.00136193
0.00134446
0.00132832
0.00131367
0.00130059
0.0012891
0.00127921
0.00127084
0.00126391
0.00125833
0.00125398
0.00125076
0.00124856
0.00124731
0.00124691
0.00124723
0.00124784
0.0012465
0.00143386
0.00145806
0.00148127
0.00150259
0.00152043
0.00153509
0.00154682
0.00155562
0.00156156
0.00156471
0.00156514
0.00156294
0.00155819
0.00155099
0.00154148
0.00152982
0.00151622
0.00150093
0.00148426
0.00146654
0.00144696
0.00142683
0.00140811
0.00139003
0.00137286
0.00135686
0.00134219
0.00132897
0.00131729
0.00130717
0.00129859
0.00129154
0.00128596
0.00128179
0.00127895
0.0012774
0.00127708
0.00127798
0.00128011
0.00128376
0.00128907
0.00145921
0.00148222
0.00150399
0.00152355
0.00154113
0.00155513
0.00156625
0.00157457
0.00158022
0.0015833
0.00158391
0.00158213
0.00157803
0.00157169
0.00156322
0.00155274
0.00154041
0.00152646
0.00151116
0.00149482
0.00147699
0.00145863
0.00144116
0.00142415
0.00140788
0.0013926
0.0013785
0.00136573
0.00135439
0.00134456
0.00133627
0.00132954
0.00132436
0.00132072
0.00131858
0.00131793
0.00131875
0.00132108
0.00132507
0.00133089
0.00133806
0.00149146
0.00151216
0.00153181
0.00154932
0.00156446
0.00157746
0.00158753
0.00159506
0.00160019
0.00160308
0.00160383
0.00160254
0.00159927
0.00159406
0.00158698
0.00157812
0.00156761
0.00155563
0.00154238
0.00152814
0.00151272
0.00149681
0.00148136
0.00146621
0.00145161
0.00143782
0.00142503
0.00141341
0.00140308
0.00139416
0.00138672
0.0013808
0.00137645
0.00137368
0.00137249
0.00137289
0.00137495
0.00137874
0.00138426
0.00139099
0.00139967
0.00153427
0.00155095
0.00156701
0.0015812
0.0015934
0.00160358
0.00161188
0.00161806
0.00162228
0.00162473
0.00162553
0.00162475
0.00162245
0.00161865
0.00161339
0.00160671
0.00159871
0.00158949
0.00157921
0.00156807
0.00155604
0.00154358
0.00153125
0.00151906
0.00150724
0.00149601
0.00148555
0.00147603
0.0014676
0.00146036
0.00145443
0.00144987
0.00144673
0.00144507
0.00144491
0.00144625
0.00144931
0.00145373
0.00145949
0.00146647
0.00147553
0.00159344
0.0016034
0.00161346
0.00162228
0.0016298
0.00163603
0.00164102
0.00164487
0.00164753
0.00164911
0.00164972
0.00164941
0.00164821
0.00164614
0.0016432
0.00163941
0.0016348
0.00162944
0.00162339
0.00161677
0.00160961
0.00160213
0.0015946
0.00158709
0.00157975
0.00157273
0.00156617
0.0015602
0.00155493
0.00155046
0.00154688
0.00154426
0.00154265
0.00154209
0.00154263
0.00154426
0.00154692
0.00155055
0.00155506
0.00156033
0.00156752
0.00471587
0.00184025
0.0017015
0.00174015
0.00174693
0.00170446
0.00163107
0.00154775
0.00146536
0.00138728
0.00131382
0.00124494
0.001181
0.00112257
0.00107097
0.00103132
0.00102014
0.00488071
0.00174203
0.00156041
0.00157946
0.00158906
0.00156378
0.00151207
0.0014503
0.00138804
0.00132834
0.00127069
0.0012134
0.00115511
0.00109651
0.00104284
0.00100647
0.00100713
0.00503607
0.00166781
0.00144306
0.00144708
0.00145768
0.00144343
0.00140713
0.00136189
0.00131618
0.00127295
0.00123179
0.00119052
0.00114639
0.00109776
0.00104756
0.00100814
0.00100364
0.00519864
0.00160393
0.00134569
0.00134172
0.00135252
0.00134457
0.00131832
0.00128477
0.00125152
0.00122167
0.00119582
0.00117335
0.00115274
0.00113132
0.00110517
0.00107064
0.00103022
0.0053481
0.00154865
0.00126628
0.00126127
0.00127261
0.00126808
0.00124833
0.00122317
0.00119924
0.00117911
0.00116309
0.00115025
0.00113856
0.00112471
0.00110459
0.00107482
0.00103704
0.0054561
0.0014986
0.00120342
0.00120334
0.00121577
0.00121254
0.0011965
0.00117708
0.00116005
0.00114734
0.00113892
0.00113371
0.00112947
0.00112238
0.00110754
0.00108178
0.00104367
0.00548854
0.00144938
0.00115662
0.00116567
0.00117918
0.00117532
0.00116039
0.0011439
0.00113079
0.00112235
0.00111831
0.00111785
0.00111978
0.00112239
0.0011233
0.00111983
0.00110959
0.00542327
0.00139906
0.00112635
0.00114639
0.00116003
0.00115396
0.00113855
0.00112342
0.00111261
0.00110673
0.00110513
0.00110692
0.00111111
0.00111652
0.0011214
0.00112338
0.00111995
0.00526313
0.00135064
0.00111337
0.00114327
0.00115458
0.00114449
0.00112725
0.00111224
0.00110249
0.00109793
0.00109751
0.00110013
0.00110484
0.00111076
0.00111667
0.00112047
0.00111903
0.00503788
0.00131185
0.001118
0.0011535
0.00115891
0.00114296
0.00112272
0.00110664
0.00109668
0.00109216
0.00109169
0.00109394
0.00109783
0.00110252
0.00110734
0.00111167
0.00111474
0.00478947
0.00129139
0.00113894
0.00117382
0.00116993
0.00114693
0.00112321
0.00110557
0.00109471
0.00108943
0.00108828
0.00108998
0.00109353
0.00109819
0.00110336
0.00110856
0.0011133
0.00454917
0.00129326
0.00117238
0.00120051
0.00118487
0.00115413
0.0011266
0.00110712
0.00109506
0.0010886
0.00108617
0.00108653
0.00108887
0.00109266
0.00109755
0.00110326
0.00110962
0.00432756
0.00131569
0.00121287
0.00123004
0.00120188
0.00116326
0.00113165
0.00111005
0.00109665
0.001089
0.00108521
0.00108395
0.00108435
0.00108584
0.00108804
0.0010906
0.00109314
0.00412005
0.00135405
0.00125521
0.00125974
0.00122004
0.00117391
0.00113791
0.00111373
0.00109876
0.00108993
0.00108508
0.00108276
0.00108212
0.00108268
0.0010841
0.00108612
0.00108831
0.00391683
0.00140332
0.00129538
0.00128756
0.00123868
0.00118591
0.00114529
0.00111799
0.00110098
0.00109084
0.00108495
0.00108163
0.00107993
0.00107946
0.00108013
0.00108197
0.00108514
0.00371088
0.0014604
0.0013317
0.00131233
0.00125743
0.00119927
0.00115397
0.00112298
0.00110332
0.00109152
0.0010846
0.00108051
0.00107796
0.00107629
0.00107529
0.00107494
0.0010752
0.00349744
0.00152266
0.00136526
0.00133382
0.00127593
0.00121405
0.00116439
0.00112929
0.0011063
0.00109211
0.00108379
0.00107899
0.00107615
0.00107424
0.0010728
0.00107187
0.00107152
0.00327571
0.00158977
0.0013991
0.00135312
0.0012939
0.00123003
0.00117672
0.00113753
0.00111078
0.00109356
0.00108307
0.00107703
0.00107365
0.00107165
0.0010702
0.00106918
0.0010692
0.00304739
0.00166155
0.00143979
0.00137355
0.00131191
0.00124713
0.00119101
0.00114803
0.00111742
0.00109677
0.00108356
0.00107559
0.00107113
0.00106871
0.00106715
0.00106558
0.00106388
0.00281588
0.00173575
0.00149326
0.00140084
0.0013324
0.00126603
0.00120749
0.001161
0.00112654
0.00110227
0.00108593
0.00107551
0.00106932
0.00106599
0.00106432
0.00106313
0.0010615
0.00258621
0.00180507
0.0015608
0.00144127
0.00135993
0.00128893
0.00122707
0.00117685
0.00113843
0.00111035
0.00109065
0.00107741
0.00106901
0.0010641
0.00106164
0.00106054
0.00105959
0.00236465
0.00185809
0.00163648
0.00149795
0.00139972
0.00131957
0.00125186
0.00119666
0.00115361
0.00112132
0.00109792
0.00108159
0.00107067
0.00106379
0.00106
0.00105817
0.00105645
0.00215678
0.00188105
0.00170777
0.00156715
0.00145424
0.00136156
0.00128464
0.00122216
0.00117304
0.00113561
0.00110793
0.00108809
0.00107434
0.00106524
0.00105972
0.00105675
0.00105488
0.00196831
0.00186504
0.00176129
0.00163886
0.00152035
0.00141592
0.00132761
0.00125534
0.00119811
0.0011541
0.00112116
0.00109715
0.00108014
0.0010685
0.00106095
0.00105643
0.0010541
0.00180414
0.00182311
0.00179419
0.00170383
0.00159084
0.0014795
0.00138031
0.00129694
0.00122983
0.0011776
0.00113812
0.00110904
0.00108817
0.00107363
0.00106388
0.00105784
0.00105422
0.00166896
0.00177753
0.00181433
0.00176031
0.00166036
0.00154757
0.00143986
0.0013456
0.00126772
0.00120604
0.00115883
0.00112371
0.00109828
0.00108034
0.00106809
0.00106025
0.00105536
0.0015646
0.00173754
0.00182724
0.0018082
0.00172497
0.00161518
0.00150213
0.00139852
0.00131018
0.00123865
0.00118301
0.00114115
0.00111055
0.00108876
0.00107371
0.00106366
0.0010574
0.00149428
0.00171277
0.00184173
0.00185112
0.00178371
0.00167877
0.00156286
0.00145192
0.00135437
0.00127352
0.00120951
0.00116068
0.00112463
0.00109874
0.0010807
0.00106856
0.00106077
0.00146224
0.00171257
0.00186616
0.00189392
0.00183741
0.00173618
0.00161832
0.00150174
0.00139665
0.00130781
0.0012363
0.00118101
0.00113972
0.00110979
0.00108871
0.00107447
0.00106506
0.00147398
0.00174518
0.00190861
0.00194178
0.0018876
0.00178591
0.00166519
0.00154396
0.00143315
0.00133823
0.00126088
0.00120038
0.00115472
0.0011213
0.0010976
0.0010813
0.00107049
0.00153585
0.00181718
0.00197417
0.00199719
0.00193405
0.00182558
0.00169978
0.00157441
0.00145986
0.00136135
0.00128054
0.0012169
0.00116857
0.00113301
0.00110764
0.0010899
0.00107787
0.00165462
0.0019304
0.0020618
0.00205648
0.00197161
0.00184956
0.00171662
0.00158815
0.00147255
0.00137374
0.00129273
0.00122873
0.00117975
0.00114335
0.00111704
0.00109848
0.00108549
0.00183721
0.00208368
0.00216182
0.00210665
0.00198795
0.00184782
0.00170814
0.00157968
0.00146714
0.00137202
0.00129438
0.00123315
0.00118621
0.00115111
0.00112542
0.00110686
0.00109353
0.00208976
0.00226576
0.00225022
0.00212339
0.00196421
0.00180782
0.0016669
0.00154469
0.00144064
0.00135457
0.00128547
0.00123111
0.00118915
0.00115734
0.00113352
0.00111571
0.00110234
0.00241716
0.00244615
0.00228672
0.00207585
0.00188287
0.00172226
0.00159169
0.00148455
0.00139693
0.00132657
0.00127036
0.0012258
0.0011908
0.00116352
0.00114225
0.00112555
0.00111221
0.00282259
0.00257001
0.00222458
0.00194521
0.00174474
0.00160114
0.00149503
0.00141269
0.00134817
0.00129672
0.00125518
0.00122144
0.00119391
0.00117131
0.00115256
0.00113678
0.00112325
0.00330716
0.00256085
0.00204529
0.00175391
0.00158399
0.00147698
0.00140386
0.00135011
0.00130861
0.00127497
0.00124672
0.00122241
0.00120112
0.00118222
0.00116524
0.00114977
0.00113557
0.0038696
0.00236507
0.00180162
0.00156899
0.00145437
0.0013887
0.0013459
0.00131515
0.00129065
0.00126942
0.00125
0.00123168
0.0012141
0.00119709
0.00118058
0.00116454
0.00114903
0.00450614
0.00203673
0.00159382
0.00145286
0.00139078
0.00135613
0.0013326
0.0013141
0.00129767