/*--------------------------------*- C++ -*----------------------------------*\
  =========                 |
  \\      /  F ield         | OpenFOAM: The Open Source CFD Toolbox
   \\    /   O peration     | Website:  https://openfoam.org
    \\  /    A nd           | Version:  6
     \\/     M anipulation  |
\*---------------------------------------------------------------------------*/
FoamFile
{
    version     2.0;
    format      ascii;
    class       volScalarField;
    location    "3.32";
    object      p;
}
// * * * * * * * * * * * * * * * * * * * * * * * * * * * * * * * * * * * * * //

dimensions      [0 2 -2 0 0 0 0];

internalField   nonuniform List<scalar> 
4214
(
1.94351
1.5805
1.92132
1.65781
1.54395
1.53931
1.50565
1.43713
1.48153
1.66164
1.78188
1.75257
1.64536
1.47462
1.10016
0.410004
-0.683553
-1.97783
-3.52178
-4.81496
-5.87711
-6.42424
-6.14704
-5.4471
-4.55847
-3.64981
-2.79901
-2.27827
-1.07856
-0.37461
-0.0128054
0.169901
0.259117
0.281529
0.275817
0.270245
0.276697
0.292863
0.2053
-0.0966259
0.252278
3.77053
2.84553
2.72255
2.49999
2.45752
2.56742
2.76262
2.9875
3.23324
3.5232
3.79338
3.98793
4.07885
3.8921
2.98717
1.19134
-1.71186
-5.04071
-8.52345
-11.3511
-13.2778
-13.5148
-12.3697
-10.3248
-7.95172
-5.4544
-2.98412
-0.792822
0.770922
1.66772
1.91716
1.92259
1.88676
1.79899
1.67494
1.55641
1.49462
1.48158
1.43901
1.48523
2.05641
4.91351
4.43278
4.24096
4.03273
4.00492
4.15798
4.32687
4.56217
4.87412
5.2741
5.71134
6.09445
6.34475
6.14482
4.72651
1.98602
-2.40665
-7.5356
-12.6059
-16.559
-18.8099
-18.4284
-16.2936
-12.8163
-9.38382
-6.13703
-3.14005
-0.0859579
1.76412
2.76076
3.13877
3.14457
3.07502
2.9327
2.74986
2.57464
2.42775
2.33061
2.32344
2.39182
2.56501
5.90995
5.50957
5.30273
5.12601
5.14637
5.34081
5.59039
5.93174
6.34767
6.85348
7.43116
7.97884
8.36945
8.11672
6.32777
2.75627
-2.80043
-9.21408
-15.2796
-19.6629
-21.5377
-20.3241
-17.0457
-12.7525
-8.3793
-4.66477
-1.56637
1.0449
3.22043
4.27383
4.60014
4.53963
4.37189
4.12863
3.862
3.61228
3.39391
3.21597
3.15813
3.11183
3.12998
6.70685
6.37735
6.20728
6.10572
6.18032
6.41725
6.74053
7.17624
7.70156
8.30484
8.98589
9.64933
10.1175
9.79707
7.74763
3.53563
-2.74177
-10.1184
-16.5357
-20.7077
-21.8022
-19.6435
-15.4009
-10.4165
-5.82024
-2.10167
0.802687
3.17106
4.91735
5.87346
6.01475
5.84652
5.55021
5.19419
4.84095
4.51857
4.23856
4.01071
3.8513
3.71134
3.65752
7.38389
7.06612
6.95204
6.93131
7.05949
7.35045
7.75812
8.29819
8.94075
9.6349
10.384
11.1091
11.5728
11.1732
8.91845
4.31892
-2.33941
-9.83623
-16.0682
-19.7065
-19.9464
-16.8292
-12.0919
-6.93576
-2.41495
1.0968
3.65863
5.60935
6.97206
7.55953
7.43253
7.09247
6.63234
6.15522
5.70843
5.30985
4.96648
4.68132
4.45247
4.25978
4.14997
7.94584
7.6588
7.60816
7.65196
7.83657
8.18005
8.67246
9.3135
10.0708
10.8542
11.6424
12.3777
12.7617
12.2324
9.79411
5.00815
-1.56442
-8.80074
-14.4309
-17.1041
-16.575
-12.7739
-7.99489
-3.05941
1.18842
4.38812
6.58116
8.1036
8.98675
9.10141
8.74156
8.1937
7.57548
6.98041
6.43671
5.95804
5.54594
5.19906
4.91231
4.68114
4.51695
8.37197
8.17571
8.18232
8.28553
8.51809
8.92064
9.49476
10.2302
11.0892
11.9571
12.7694
13.4911
13.7246
13.0078
10.3869
5.72539
-0.442045
-7.01285
-11.7088
-13.5715
-12.4765
-8.45213
-3.88088
0.679841
4.59406
7.50664
9.32653
10.4916
10.7902
10.5227
9.90103
9.12977
8.3445
7.62036
6.97189
6.41384
5.93871
5.54066
5.20977
4.93402
4.70699
8.6508
8.60946
8.67869
8.83917
9.12138
9.58624
10.2334
11.0489
11.9866
12.926
13.7583
14.4451
14.5035
13.5629
10.8913
6.51018
0.926996
-4.70111
-8.39516
-9.67355
-8.33974
-4.56563
-0.135816
4.03452
7.65147
10.3204
11.8275
12.64
12.3852
11.775
10.8267
9.8085
8.81692
7.95703
7.21762
6.60733
6.10387
5.69222
5.34899
5.05165
4.80902
8.82647
8.92748
9.08498
9.3081
9.65748
10.1812
10.8863
11.7606
12.7506
13.7405
14.5835
15.1932
15.1003
13.9546
11.3674
7.34542
2.42702
-2.23658
-5.17515
-6.12689
-4.46448
-1.02685
3.10053
6.9604
10.3885
12.8607
14.0843
14.4775
13.7885
12.7692
11.4305
10.2064
9.05334
8.10312
7.30609
6.66524
6.13943
5.70968
5.35067
5.04445
4.81434
8.93197
9.14024
9.3939
9.70152
10.1202
10.6976
11.4444
12.3552
13.3763
14.3941
15.2176
15.7035
15.4547
14.23
11.7825
8.15574
3.88814
0.0452424
-2.40981
-3.17275
-1.25382
1.92908
5.80885
9.53026
12.9191
15.2095
16.1114
16.0593
14.8962
13.4261
11.7617
10.3706
9.10286
8.08341
7.23441
6.56958
6.02133
5.58714
5.23177
4.93934
4.73241
8.9991
9.26775
9.60852
10.0062
10.4974
11.1269
11.9063
12.8437
13.8749
14.8858
15.6361
15.978
15.613
14.377
12.0731
8.81444
5.11266
1.89015
-0.160049
-0.824455
1.06231
4.16257
8.11132
11.8488
15.3077
17.4451
17.92
17.4958
15.6081
13.7844
11.8387
10.2999
8.92192
7.86419
6.96829
6.28471
5.73787
5.32034
4.98665
4.73038
4.55974
9.0388
9.35937
9.75633
10.2345
10.7965
11.4813
12.2842
13.2426
14.2461
15.1668
15.7525
16.0224
15.6386
14.4107
12.204
9.21061
5.94117
3.20002
1.45957
0.921561
2.80373
5.87002
10.0669
13.9003
17.487
19.6021
19.6092
18.7309
16.0632
13.898
11.7007
10.0605
8.58308
7.46675
6.51855
5.83748
5.30168
4.91185
4.61601
4.41313
4.28271
9.05759
9.42965
9.87604
10.4191
11.0338
11.7651
12.5533
13.4462
14.2919
15.1205
15.5919
15.7918
15.3158
14.1173
12.0376
9.31665
6.33652
3.96654
2.57515
2.29096
4.30968
7.44732
11.8087
15.7405
19.5982
21.6052
21.1951
19.5695
16.3446
13.9272
11.4758
9.66619
7.9959
6.84682
5.88955
5.23493
4.72712
4.37465
4.11734
3.95055
3.82856
9.00242
9.46676
9.95647
10.5498
11.1438
11.8692
12.5641
13.3951
14.1636
14.8818
15.1971
15.3153
14.7292
13.4949
11.4711
8.99697
6.38456
4.27843
3.00384
3.26357
5.61354
9.08861
13.7137
17.7561
22.4211
23.5822
22.2725
19.9751
16.3029
13.6282
10.6608
8.79816
7.06179
5.95729
5.02902
4.45152
4.00333
3.71044
3.50201
3.37232
3.27557
8.7983
9.3341
9.80455
10.4078
10.9652
11.6865
12.3588
13.1488
13.8458
14.3592
14.6135
14.6463
13.9976
12.7878
10.9131
8.52728
5.93295
4.05786
2.52221
3.06814
5.40231
9.34601
15.8751
20.1455
26.3532
25.8972
22.643
19.8398
14.8937
12.4073
9.09264
7.46325
5.75087
4.77287
3.87747
3.43533
3.06845
2.88035
2.76314
2.71099
2.67858
8.58906
9.05768
9.48968
10.0201
10.5996
11.2668
11.9788
12.6655
13.2555
13.5643
13.7579
13.711
12.9855
11.8301
10.2169
8.09198
5.36518
3.49038
1.80387
2.44912
4.74515
8.85824
16.616
21.918
28.7763
27.689
22.8224
19.1279
13.4619
10.7649
7.48544
5.87408
4.38871
3.42228
2.63431
2.28483
2.00174
1.95665
1.97687
2.01744
2.06716
2.13592
2.64509
3.14431
3.64297
4.06203
4.32235
4.49537
4.5954
4.60787
4.5615
4.47815
4.31838
4.00518
3.63912
3.16614
2.71566
1.53055
2.22167
2.64046
3.02229
3.45368
3.81263
4.05777
4.25073
4.38923
4.45557
4.4548
4.4147
4.35201
4.20097
4.00026
3.70753
3.39231
2.6753
2.30622
2.64239
2.94306
3.30217
3.62273
3.85705
4.04146
4.18859
4.29169
4.34069
4.3438
4.31965
4.26776
4.15699
3.99257
3.79365
3.41097
2.39593
2.65932
2.89449
3.17326
3.46168
3.68132
3.85438
3.99899
4.11543
4.19992
4.24903
4.26665
4.25731
4.2291
4.16375
4.06018
3.871
2.47581
2.68502
2.87781
3.08222
3.32688
3.53028
3.69279
3.83118
3.94826
4.04443
4.11855
4.17257
4.20555
4.21774
4.21183
4.1793
4.1197
2.55326
2.72185
2.87373
3.03101
3.21094
3.3975
3.5492
3.68022
3.79405
3.89252
3.97691
4.048
4.106
4.15181
4.18622
4.20086
4.20806
2.61768
2.76136
2.88725
3.01275
3.13479
3.2808
3.42081
3.54351
3.65158
3.74831
3.83497
3.91245
3.98217
4.04377
4.10073
4.14241
4.19721
2.67981
2.79993
2.90962
3.0117
3.10553
3.19941
3.31011
3.41973
3.5187
3.6107
3.69461
3.77235
3.84567
3.91316
3.98027
4.03574
4.12443
2.73766
2.83646
2.93369
3.0234
3.10132
3.16995
3.23864
3.31669
3.40197
3.48349
3.5594
3.63285
3.70399
3.77138
3.84078
3.89997
3.9928
2.79596
2.88015
2.95979
3.0391
3.10681
3.16662
3.21849
3.2664
3.31929
3.37872
3.44269
3.50496
3.56698
3.6286
3.69095
3.74596
3.83452
2.86028
2.93305
2.99725
3.06019
3.11761
3.16916
3.21543
3.25629
3.29215
3.32636
3.36305
3.40364
3.45111
3.50149
3.55089
3.60182
3.67284
2.9245
2.99456
3.04873
3.099
3.14319
3.18261
3.21785
3.2514
3.28338
3.31363
3.34054
3.36371
3.38932
3.41816
3.45028
3.49004
3.53955
3.00836
3.06875
3.11479
3.15557
3.19028
3.21994
3.24523
3.26751
3.2884
3.30886
3.32932
3.34903
3.36788
3.38448
3.40024
3.4216
3.44478
3.09317
3.15614
3.19893
3.23387
3.2618
3.28404
3.30123
3.31388
3.32317
3.33086
3.33805
3.34536
3.35376
3.36176
3.36845
3.37475
3.37635
3.21509
3.26894
3.30872
3.34037
3.36407
3.38083
3.39082
3.39429
3.39366
3.39017
3.3857
3.38027
3.37628
3.36964
3.36091
3.35668
3.34271
3.34288
3.40631
3.44849
3.48021
3.50309
3.51829
3.5263
3.52797
3.5237
3.51235
3.49648
3.48093
3.46508
3.43896
3.42299
3.40859
3.37244
3.53422
3.58487
3.62645
3.66026
3.68587
3.7039
3.71518
3.72079
3.72144
3.71133
3.69172
3.67142
3.64426
3.60991
3.59932
3.54823
3.48567
3.71577
3.7903
3.84553
3.88902
3.9231
3.94908
3.96805
3.98076
3.98749
3.98886
3.98606
3.97449
3.94341
3.91002
3.89438
3.81255
3.79927
4.00266
4.06714
4.12965
4.18554
4.23387
4.27459
4.30807
4.33471
4.35502
4.37002
4.38058
4.38438
4.37312
4.3686
4.37217
4.29813
4.32606
4.2624
4.37389
4.46932
4.55344
4.62895
4.69675
4.75741
4.8113
4.85863
4.89984
4.9357
4.96469
4.98462
5.0054
5.0286
4.97996
5.04829
4.65044
4.75541
4.86973
4.98324
5.09244
5.19594
5.29377
5.38607
5.47231
5.55197
5.62649
5.69409
5.748
5.8044
5.87483
5.86933
6.04648
4.92723
5.11924
5.29033
5.44983
5.60261
5.74987
5.89243
6.03005
6.1613
6.28547
6.40683
6.52846
6.64413
6.7718
6.92808
6.96143
7.25809
5.37275
5.55639
5.75697
5.95823
6.1578
6.35391
6.54559
6.7315
6.91218
7.09165
7.27961
7.47504
7.65451
7.85238
8.08839
8.16831
8.58289
5.67825
5.9689
6.23836
6.49668
6.75074
6.99988
7.24268
7.48171
7.72533
7.97522
8.23166
8.49462
8.74262
9.0114
9.31099
9.44191
9.96816
6.16693
6.44919
6.75803
7.06815
7.37705
7.67929
7.97616
8.27906
8.59251
8.90792
9.22985
9.55766
9.87221
10.2084
10.5651
10.7567
11.3741
6.50012
6.90554
7.29044
7.66318
8.02885
8.38504
8.74196
9.11458
9.49026
9.86784
10.2508
10.6372
11.0117
11.4099
11.8059
12.0481
12.7215
7.01749
7.41829
7.85239
8.28179
8.70242
9.11397
9.5358
9.96901
10.4037
10.8376
11.274
11.7104
12.1328
12.5707
12.9894
13.2665
13.9546
7.38362
7.91822
8.42953
8.91992
9.39437
9.8612
10.3465
10.8346
11.3208
11.8017
12.2808
12.7503
13.1967
13.6535
14.0808
14.3739
15.0439
7.93132
8.46643
9.03242
9.57745
10.1033
10.6258
11.1675
11.7031
12.23
12.7442
13.2475
13.7316
14.1858
14.645
15.0648
15.3574
15.9885
8.34594
9.02073
9.65826
10.2559
10.8294
11.4069
11.9953
12.5679
13.1216
13.6526
14.1611
14.6438
15.0918
15.5361
15.9356
16.2182
16.7981
8.94737
9.62321
10.3132
10.9566
11.574
12.2037
12.8271
13.4225
13.9864
14.5169
15.0148
15.4808
15.9095
16.3249
16.6961
16.9655
17.4855
9.44072
10.2548
11.0017
11.6839
12.3416
13.0164
13.658
14.2586
14.8153
15.3295
15.8042
16.2402
16.6388
17.0185
17.355
17.605
18.0607
10.1423
10.9436
11.7281
12.4417
13.1405
13.8381
14.4801
15.0668
15.5997
16.0835
16.5234
16.9216
17.282
17.6218
17.9217
18.1497
18.5379
10.7611
11.6882
12.5024
13.2379
13.9693
14.6633
15.284
15.8382
16.3323
16.7744
17.1714
17.5276
17.8453
18.1418
18.4036
18.6074
18.9297
11.6267
12.5022
13.3249
14.0765
14.8193
15.4802
16.0574
16.5623
17.006
17.3986
17.7479
18.0587
18.3345
18.588
18.8105
18.9867
19.2459
12.4279
13.3927
14.2045
14.9618
15.6686
16.2717
16.7859
17.2288
17.6142
17.9531
18.2531
18.5187
18.754
18.9654
19.1504
19.2977
19.4953
13.5106
14.3543
15.1369
15.8735
16.5015
17.0231
17.4597
17.8328
18.1563
18.4406
18.6917
18.9131
19.1074
19.2772
19.4224
19.5419
19.6885
14.5297
15.4054
16.1404
16.7872
17.3074
17.7314
18.0832
18.384
18.6458
18.8762
19.079
19.2559
19.4085
19.5377
19.6412
19.7241
19.8297
15.8635
16.5509
17.1873
17.6939
18.0861
18.4039
18.6685
18.8974
19.0981
19.2748
19.4281
19.5584
19.6665
19.7529
19.8182
19.871
19.9347
17.1428
17.7788
18.2202
18.551
18.8022
19.0079
19.183
19.3389
19.4779
19.6006
19.7054
19.7913
19.8581
19.9063
19.9407
19.9743
20.0154
23.9016
24.0652
24.1874
24.297
24.3758
24.4459
24.503
24.5541
24.6053
24.6531
24.7078
24.7636
24.8235
24.8917
24.9561
25.0504
25.1331
25.2631
25.3685
25.5401
25.6702
25.8771
26.0205
26.2514
26.4023
26.6494
26.7867
27.0458
27.1454
27.3262
27.267
27.1453
26.8431
26.3997
25.8108
24.9384
23.9715
22.7161
21.4401
19.9553
18.6282
23.656
23.8236
23.9554
24.0642
24.1538
24.2277
24.2916
24.3479
24.4005
24.4525
24.505
24.5595
24.6198
24.6825
24.7521
24.8282
24.9144
25.0115
25.121
25.2472
25.3833
25.5368
25.6897
25.8567
26.0074
26.1739
26.312
26.4684
26.5676
26.5987
26.5257
26.3387
26.0313
25.6136
25.0475
24.2938
23.4016
22.3508
21.2326
20.065
18.8982
23.4384
23.6129
23.7482
23.8656
23.9616
24.0436
24.1133
24.1747
24.2301
24.282
24.3312
24.3831
24.4396
24.5003
24.5658
24.6358
24.7141
24.7984
24.8946
24.9991
25.118
25.2468
25.3805
25.5111
25.6364
25.7585
25.868
25.9615
25.9898
25.9515
25.8293
25.6143
25.3089
24.902
24.3563
23.6837
22.882
21.9983
21.0353
20.0685
19.1013
23.2517
23.4298
23.5713
23.6951
23.7987
23.887
23.9622
24.027
24.083
24.1335
24.1824
24.232
24.2841
24.3399
24.4004
24.4667
24.5377
24.6127
24.6945
24.7831
24.8833
24.9894
25.0941
25.1965
25.2951
25.3848
25.4537
25.4763
25.4509
25.364
25.2074
24.9821
24.6794
24.2737
23.7602
23.1441
22.4413
21.6707
20.8527
20.0469
19.255
23.0877
23.2703
23.4169
23.5471
23.6568
23.7503
23.8285
23.8951
23.9536
24.0063
24.0555
24.1033
24.1515
24.2019
24.256
24.3148
24.3786
24.4464
24.5162
24.5911
24.6725
24.7529
24.8345
24.913
24.9841
25.0357
25.0482
25.0284
24.962
24.8422
24.6696
24.4376
24.125
23.7265
23.2424
22.6821
22.056
21.3769
20.6873
20.0184
19.3663
22.9428
23.1284
23.2788
23.4133
23.5262
23.6231
23.7065
23.7785
23.841
23.8962
23.946
23.9924
24.0375
24.0831
24.1311
24.1823
24.2374
24.2971
24.3574
24.4185
24.4796
24.5421
24.6029
24.6549
24.6886
24.6965
24.677
24.6226
24.5275
24.3916
24.2069
23.959
23.6423
23.2553
22.8025
22.2904
21.7247
21.1413
20.5579
20.0009
19.4608
22.8103
22.9936
23.1455
23.2834
23.4026
23.5067
23.5967
23.6743
23.7411
23.799
23.8497
23.8954
23.9381
23.9798
24.0223
24.0668
24.1141
24.1637
24.2145
24.263
24.3103
24.3551
24.3909
24.4069
24.4096
24.3896
24.3419
24.2635
24.1538
24.0013
23.7986
23.5409
23.2257
22.8549
22.4321
21.9606
21.4623
20.9599
20.4646
19.9983
19.5475
22.6942
22.8727
23.023
23.163
23.2865
23.3964
23.4928
23.5765
23.6485
23.7099
23.7625
23.8084
23.8498
23.8887
23.927
23.9663
24.0065
24.0459
24.0874
24.1267
24.1602
24.1798
24.1875
24.1824
24.1603
24.1171
24.0495
23.9563
23.8258
23.6552
23.4401
23.1782
22.8699
22.5171
22.1211
21.6945
21.258
20.8246
20.4027
20.011
19.6315
22.5985
22.7681
22.9137
23.0528
23.1784
23.2923
23.3937
23.4827
23.5596
23.6253
23.6809
23.7284
23.7701
23.808
23.8441
23.8796
23.9131
23.9442
23.9796
24.0072
24.0171
24.0182
24.0078
23.9838
23.9428
23.8843
23.7981
23.683
23.535
23.3507
23.1281
22.8669
22.5681
22.2317
21.8636
21.4836
21.1006
20.7253
20.3637
20.032
19.7112
22.5236
22.6797
22.8172
22.9522
23.0771
23.193
23.2983
23.392
23.4738
23.544
23.6039
23.6546
23.6982
23.7369
23.7724
23.8047
23.8325
23.8582
23.8848
23.8933
23.8907
23.8781
23.8534
23.8153
23.7571
23.6777
23.5732
23.4414
23.2795
23.0858
22.8599
22.6021
22.3118
21.991
21.6572
21.3177
20.9802
20.6531
20.3409
20.0578
19.7851
22.467
22.6065
22.733
22.8608
22.9829
23.0986
23.2059
23.3032
23.3895
23.4646
23.5292
23.5843
23.6314
23.6722
23.7078
23.7386
23.7642
23.7869
23.7993
23.797
23.7861
23.7629
23.7236
23.6671
23.591
23.4938
23.3734
23.2278
23.0557
22.8565
22.6298
22.3748
22.0916
21.7954
21.4917
21.1868
20.8872
20.5996
20.3276
20.0838
19.8503
22.4285
22.5497
22.6626
22.7796
22.8953
23.0073
23.1138
23.2128
23.3025
23.3822
23.4519
23.5126
23.5649
23.6098
23.6485
23.682
23.7082
23.7272
23.7292
23.7233
23.7028
23.6662
23.6119
23.5391
23.4463
23.3327
23.1973
23.0397
22.859
22.6547
22.4256
22.1711
21.9042
21.6291
21.3514
21.0765
20.8094
20.5553
20.3173
20.1063
19.9048
22.4043
22.5069
22.6055
22.709
22.8148
22.9206
23.0243
23.1233
23.2152
23.299
23.3746
23.4422
23.5022
23.5548
23.6004
23.6367
23.6631
23.6776
23.6798
23.6669
23.6356
23.5864
23.5192
23.4328
23.3261
23.1983
23.0493
22.8793
22.6878
22.4733
22.2388
21.9935
21.741
21.485
21.2304
20.9813
20.7421
20.5167
20.3078
20.1239
19.9473
22.3879
22.4698
22.5565
22.6481
22.7457
22.8461
22.9455
23.0427
23.1357
23.2236
23.3058
23.3816
23.4503
23.5112
23.5617
23.5998
23.6263
23.6395
23.6405
23.6211
23.5806
23.5219
23.4439
23.3462
23.2281
23.0891
22.9286
22.7463
22.5417
22.3212
22.0905
21.8534
21.6136
21.3743
21.1393
20.9103
20.6912
20.486
20.298
20.1321
19.9763
22.3868
22.4424
22.5145
22.5934
22.6813
22.7733
22.8659
22.9598
23.0526
23.1427
23.229
23.3103
23.3862
23.4548
23.5134
23.5597
23.5926
23.6101
23.6101
23.587
23.5394
23.4711
23.3813
23.2696
23.1366
22.983
22.8096
22.6169
22.4092
22.1894
21.9622
21.7312
21.4996
21.2712
21.0495
20.8363
20.6336
20.4453
20.2751
20.1252
19.9944
22.411
22.4416
22.4848
22.5404
22.6092
22.687
22.774
22.8645
22.9554
23.0454
23.1345
23.2217
23.3062
23.3853
23.4577
23.5201
23.5663
23.5905
23.5906
23.566
23.513
23.4332
23.3274
23.1952
23.0384
22.8604
22.6652
22.4573
22.2417
22.0209
21.7966
21.5723
21.3489
21.1287
20.9154
20.718
20.5371
20.374
20.231
20.1095
20.0156
22.4577
22.4481
22.4735
22.5166
22.5736
22.6425
22.72
22.8036
22.8929
22.9856
23.0802
23.1752
23.2683
23.3573
23.4379
23.5051
23.5548
23.5828
23.5854
23.5576
23.5016
23.4109
23.2886
23.1394
22.9667
22.7741
22.5658
22.3467
22.121
21.8926
21.6649
21.4406
21.2241
21.0184
20.8249
20.6441
20.4796
20.3342
20.2113
20.1163
20.0578
4.63371
6.08402
6.62638
7.19368
7.62206
7.99803
8.30878
8.50755
8.61518
8.66466
8.69997
8.71073
8.69219
8.64685
8.54218
8.33675
8.13185
6.37561
7.0851
7.46764
7.80522
8.07271
8.29016
8.42711
8.49402
8.51888
8.53406
8.52784
8.48424
8.40003
8.30177
8.12978
7.78592
7.49563
7.53326
7.81544
8.04701
8.18377
8.29954
8.36724
8.38985
8.39238
8.38432
8.34942
8.2825
8.18166
8.0505
7.9072
7.70697
7.37443
7.14492
8.17754
8.174
8.26521
8.29691
8.30764
8.30266
8.28477
8.24071
8.17343
8.08327
7.97012
7.83079
7.66902
7.49372
7.26417
6.99208
6.79974
8.32343
8.27338
8.27134
8.22
8.17514
8.11145
8.03731
7.94796
7.8438
7.72401
7.58975
7.43445
7.25417
7.0752
6.85836
6.50405
6.24274
8.2628
8.11845
8.06687
7.96855
7.88466
7.78947
7.68878
7.57805
7.45691
7.32349
7.17881
7.02126
6.83968
6.64743
6.45295
6.13755
5.86231
7.98265
7.79297
7.71253
7.60046
7.50089
7.3933
7.2824
7.16458
7.03937
6.90557
6.76285
6.60987
6.4404
6.25586
6.06912
5.856
5.57425
7.54574
7.36145
7.27146
7.16066
7.05875
6.95123
6.84102
6.72587
6.60477
6.47726
6.34285
6.19744
6.03814
5.87997
5.70493
5.43263
5.15096
7.04357
6.88298
6.794
6.69338
6.59757
6.49789
6.39571
6.29037
6.18036
6.06459
5.94169
5.80821
5.65913
5.50165
5.32484
5.02973
4.72524
6.51573
6.39942
6.32261
6.23884
6.1571
6.07289
5.98566
5.89594
5.80235
5.70405
5.60052
5.49074
5.3708
5.23325
5.07902
4.91872
4.75241
6.01711
5.93965
5.88308
5.82133
5.75952
5.6975
5.63235
5.56369
5.49001
5.41045
5.32499
5.23147
5.13132
5.02934
4.93296
4.8478
4.76053
5.63049
5.58968
5.55718
5.5179
5.47268
5.42553
5.37745
5.32894
5.28079
5.23246
5.183
5.13145
5.07737
5.01959
4.9556
4.88046
4.7729
5.40496
5.39243
5.37943
5.36501
5.34941
5.33324
5.31644
5.29861
5.27992
5.25823
5.23465
5.20905
5.18108
5.15027
5.11855
5.08642
5.02797
5.34664
5.35615
5.35935
5.36071
5.3632
5.36527
5.36729
5.36862
5.36793
5.36442
5.35811
5.34916
5.33796
5.32498
5.31252
5.30597
5.28445
5.49451
5.51746
5.53683
5.54325
5.55907
5.57216
5.58514
5.59444
5.59969
5.60243
5.60243
5.5981
5.58888
5.5739
5.55214
5.52164
5.452
5.83778
5.85738
5.89648
5.90749
5.92808
5.94491
5.95686
5.9641
5.9695
5.97363
5.97646
5.97792
5.9776
5.9745
5.96736
5.9565
5.93005
6.35373
6.35048
6.39449
6.39941
6.4171
6.4366
6.44158
6.4445
6.44646
6.44754
6.44772
6.44698
6.44582
6.44536
6.44637
6.45218
6.4656
7.04586
7.02802
7.06778
7.0646
7.06444
7.06669
7.06685
7.06354
7.05764
7.04889
7.03689
7.02124
7.00134
6.97654
6.94492
6.90556
6.84142
7.9053
7.87447
7.91163
7.90364
7.89417
7.88723
7.87729
7.86444
7.84946
7.83224
7.81276
7.7912
7.76761
7.74217
7.71404
7.68396
7.64375
8.9159
8.86281
8.89273
8.87908
8.86113
8.84323
8.82057
8.79438
8.76569
8.73442
8.70097
8.66629
8.63168
8.59946
8.57241
8.55886
8.5655
10.0931
10.0106
10.0168
9.98406
9.95312
9.92255
9.88327
9.83833
9.789
9.73397
9.67247
9.60393
9.52703
9.4404
9.34126
9.23087
9.0899
11.3507
11.2352
11.2329
11.1779
11.131
11.085
11.0297
10.969
10.9039
10.8338
10.7582
10.6774
10.5903
10.4956
10.3889
10.263
10.0894
12.6271
12.4834
12.4846
12.4133
12.3469
12.2804
12.2055
12.126
12.0412
11.95
11.8527
11.7501
11.6438
11.538
11.4379
11.3571
11.3315
13.8993
13.735
13.729
13.6441
13.5653
13.4884
13.3976
13.3035
13.2026
13.0906
12.9675
12.8319
12.6797
12.508
12.3129
12.1041
11.8669
15.1097
14.9294
14.9183
14.8255
14.7366
14.6541
14.5561
14.4543
14.3468
14.2301
14.1059
13.9742
13.833
13.6781
13.494
13.2641
12.9185
16.2334
16.0431
16.0271
15.9339
15.8399
15.7557
15.6562
15.5515
15.44
15.3169
15.1821
15.0359
14.879
14.7192
14.5699
14.4608
14.3989
17.2613
17.0701
17.0466
16.9531
16.8572
16.7754
16.6802
16.5802
16.4747
16.3582
16.2292
16.084
15.915
15.7164
15.4743
15.1971
14.9007
18.1709
17.9806
17.9553
17.8673
17.7748
17.6986
17.6116
17.52
17.4242
17.3192
17.204
17.0782
16.939
16.7851
16.5924
16.3507
15.9193
18.97
18.7848
18.7549
18.6737
18.5887
18.5204
18.4451
18.3665
18.2848
18.1947
18.0934
17.9784
17.8468
17.7028
17.5545
17.4581
17.3462
19.6589
19.4816
19.4498
19.3737
19.298
19.2389
19.1768
19.1144
19.0512
18.983
18.9062
18.8171
18.7081
18.5697
18.3853
18.135
17.8539
20.2452
20.0759
20.0437
19.9735
19.9069
19.857
19.8081
19.7621
19.7179
19.6721
19.6219
19.5649
19.4963
19.4159
19.3016
19.138
18.7929
20.7411
20.5808
20.5467
20.4822
20.4239
20.3827
20.3456
20.3137
20.2866
20.2623
20.2387
20.212
20.1754
20.1279
20.0637
20.0559
19.9714
21.1541
21.005
20.9691
20.91
20.8598
20.8265
20.7984
20.779
20.7707
20.7662
20.7649
20.7655
20.7645
20.7565
20.7196
20.6198
20.4596
21.4934
21.3581
21.3204
21.2669
21.2249
21.1982
21.1805
21.1757
21.1791
21.192
21.2124
21.2385
21.2681
21.2999
21.3254
21.3333
21.2554
21.7672
21.6483
21.6098
21.5622
21.5261
21.5055
21.4997
21.5032
21.5198
21.5486
21.5878
21.636
21.6913
21.7543
21.8203
21.9261
21.9905
21.9828
21.8818
21.8441
21.8019
21.7695
21.758
21.758
21.7721
21.8011
21.8445
21.9009
21.9683
22.0449
22.1283
22.2157
22.2907
22.3366
22.1473
22.0628
22.0282
21.9929
21.967
21.9626
21.9696
21.9928
22.0329
22.0897
22.1619
22.2471
22.3437
22.453
22.5749
22.7056
22.856
22.2672
22.2001
22.1726
22.148
22.1332
22.1324
22.1451
22.1746
22.222
22.2876
22.3729
22.4736
22.5875
22.7161
22.8534
23.0415
23.1969
22.3574
22.3097
22.287
22.2725
22.267
22.2692
22.2852
22.318
22.3682
22.4409
22.5355
22.6478
22.7763
22.9209
23.0799
23.2515
23.3977
22.4313
22.3871
22.3591
22.3521
22.3526
22.362
22.3848
22.4242
22.481
22.5625
22.666
22.788
22.9274
23.0862
23.2676
23.4674
23.7041
8.57285
9.6312
10.863
12.0467
12.6408
12.4506
10.3558
6.84419
3.24099
2.5064
11.2192
23.4595
26.7503
17.3275
8.90636
4.35366
2.13699
1.38655
1.26858
1.41829
8.27442
9.25732
10.3573
11.2218
11.5629
11.0831
8.86693
5.55747
1.77782
0.545644
9.90572
23.42
26.9118
15.6809
6.98891
2.82613
0.914127
0.49244
0.548487
0.849026
7.84866
8.72962
9.61595
10.1809
10.2778
9.44853
7.05862
3.57498
-1.03384
-2.31016
7.57389
22.5653
25.5685
13.2343
4.48531
1.01001
-0.444854
-0.578947
-0.288858
0.174596
7.27323
7.98862
8.57611
8.89714
8.67322
7.49553
4.78693
0.445527
-5.57426
-6.7116
4.22896
20.5098
22.6174
9.57145
1.36792
-1.146
-2.05122
-1.86996
-1.2762
-0.613141
6.50363
6.96147
7.26444
7.33953
6.69487
5.17445
1.792
-4.04274
-12.4113
-13.289
-0.580683
16.3384
17.5207
4.42199
-2.46562
-3.74552
-3.99299
-3.39923
-2.43912
-1.53632
5.47518
5.619
5.67412
5.37513
4.28606
2.17745
-2.82788
-10.7339
-22.2336
-21.9171
-7.08469
9.7427
9.82679
-2.50812
-7.10949
-6.95761
-6.29166
-5.21626
-3.81843
-2.62397
4.13183
3.96526
3.64279
2.86618
1.25958
-2.20988
-10.2969
-21.072
-34.091
-31.686
-14.865
1.37515
-0.836301
-11.3916
-12.7567
-10.9259
-9.00645
-7.3826
-5.47796
-3.9181
2.43398
1.87396
0.981215
-0.36974
-2.91301
-8.75515
-19.2337
-34.2621
-46.9373
-41.2845
-22.9217
-8.97429
-14.3958
-22.428
-19.6029
-16.097
-12.3198
-9.95359
-7.48088
-5.46425
0.280219
-0.732662
-2.45573
-4.64629
-8.91934
-17.5007
-30.4381
-47.343
-57.2429
-48.7298
-30.8839
-21.9447
-30.3888
-35.5118
-27.9866
-22.6624
-16.3847
-12.9365
-9.85238
-7.30157
-2.44071
-3.99959
-6.63788
-10.324
-17.0524
-27.3836
-43.2485
-58.118
-62.9684
-52.9673
-38.6311
-37.134
-47.6171
-49.461
-38.2861
-29.7736
-21.23
-16.3716
-12.6279
-9.49303
-5.70958
-7.97854
-11.6625
-17.2112
-25.8665
-39.217
-54.1324
-63.4117
-63.9026
-54.4741
-45.4263
-52.7994
-63.7359
-62.6282
-49.5998
-36.5609
-26.9862
-20.44
-15.94
-12.1549
-9.38329
-12.572
-17.4603
-24.5631
-35.4344
-48.4809
-56.8837
-61.3318
-59.8828
-52.5244
-52.0877
-65.63
-75.9892
-72.9273
-59.7919
-44.1573
-33.3773
-25.183
-19.8082
-15.3632
-13.3529
-17.4558
-23.5417
-32.0798
-41.7822
-48.6006
-52.8779
-54.8217
-52.953
-49.0873
-57.4681
-73.9569
-82.9951
-79.0251
-67.2497
-52.638
-38.9971
-30.0677
-23.7571
-19.0235
-17.1267
-22.0732
-28.507
-35.0193
-40.0884
-43.2686
-45.1228
-45.7431
-45.1503
-46.7816
-58.8166
-76.5449
-84.6032
-80.8122
-71.5247
-60.5103
-46.4289
-35.7167
-28.151
-22.8939
-20.3001
-24.5677
-28.515
-31.7611
-33.9687
-35.6032
-36.4842
-36.9913
-38.5247
-44.5296
-57.6752
-74.0675
-81.6092
-78.7377
-70.8789
-63.4629
-54.0637
-43.0458
-33.9634
-27.3369
-21.4022
-23.3942
-24.6902
-26.0163
-27.5535
-28.8445
-29.7919
-31.1828
-34.6788
-42.6562
-54.7577
-68.2802
-75.0708
-73.5609
-67.5329
-61.3684
-55.8349
-48.481
-40.0146
-33.4683
-19.7273
-19.8459
-20.2478
-21.6511
-23.3529
-24.8899
-26.3999
-28.7522
-33.2152
-40.813
-50.6133
-60.7538
-66.6357
-66.5041
-62.6565
-57.5053
-53.4714
-49.8429
-44.8996
-39.3348
-17.2159
-17.1963
-17.9361
-19.7432
-21.6833
-23.5686
-25.6542
-28.5443
-32.9012
-39.0036
-46.3722
-53.5062
-58.3105
-59.6004
-57.705
-54.1583
-50.4791
-48.1041
-45.9082
-42.3918
-16.6705
-17.1873
-18.5748
-20.3874
-22.2949
-24.2329
-26.3782
-29.0139
-32.4902
-37.0944
-42.5411
-47.7774
-51.8034
-53.9147
-53.3928
-51.6041
-48.9052
-46.1902
-45.122
-45.8087
-18.7482
-19.2725
-20.3361
-21.4953
-22.7177
-24.1876
-25.9257
-28.0446
-30.9457
-34.7305
-39.0285
-43.1121
-46.5246
-48.7983
-49.6586
-49.1845
-48.3591
-47.6579
-48.6527
-51.3902
-47.9397
-39.9276
-36.6762
-35.458
-30.4051
-25.0231
-20.7742
-16.9867
-13.5898
-10.6929
-8.25758
-6.21681
-4.50451
-3.07056
-1.87708
-0.886693
-0.0638233
0.619854
1.18834
1.66213
-48.6958
-43.6504
-35.5159
-33.1375
-28.2997
-22.9249
-18.7964
-15.1373
-11.9297
-9.21871
-6.95075
-5.06724
-3.50843
-2.22159
-1.16269
-0.291963
0.425907
1.0209
1.5179
1.93522
-48.1289
-45.3613
-34.5303
-31.1577
-26.4884
-21.1561
-17.1736
-13.6106
-10.5628
-8.01095
-5.88943
-4.14086
-2.70547
-1.53118
-0.573342
0.20723
0.844724
1.36961
1.8059
2.17862
-47.6525
-46.4833
-34.0396
-29.4576
-24.8948
-19.6006
-15.7661
-12.3004
-9.40289
-6.98599
-4.98748
-3.35129
-2.01754
-0.935913
-0.0624283
0.640961
1.20825
1.67085
2.05221
2.38489
-46.9388
-46.4462
-33.6281
-27.9603
-23.5081
-18.2955
-14.6131
-11.2623
-8.50554
-6.20537
-4.30745
-2.7554
-1.49228
-0.471415
0.348271
1.00216
1.52235
1.93823
2.27315
2.56567
-46.2443
-45.9366
-33.3498
-26.6723
-22.3553
-17.3032
-13.763
-10.5583
-7.932
-5.73225
-3.90844
-2.40722
-1.1778
-0.178567
0.627108
1.27075
1.77778
2.17049
2.47503
2.73977
-45.5134
-44.7259
-33.0204
-25.5702
-21.4129
-16.5347
-13.127
-10.0553
-7.53343
-5.41531
-3.64999
-2.18757
-0.981533
0.0060498
0.808676
1.45582
1.97227
2.37266
2.6766
2.94383
-44.4713
-42.4047
-32.4969
-24.4882
-20.5227
-15.8436
-12.5655
-9.63678
-7.2174
-5.17905
-3.46701
-2.03518
-0.841205
0.148831
0.964885
1.63272
2.17057
2.59152
2.9258
3.21799
-42.9972
-39.3167
-31.7044
-23.4014
-19.6448
-15.1871
-12.0436
-9.26762
-6.95461
-4.99678
-3.33551
-1.92829
-0.736992
0.268151
1.11302
1.81896
2.40041
2.87074
3.25654
3.57394
-41.3814
-36.0174
-30.6518
-22.279
-18.7264
-14.5219
-11.5208
-8.90648
-6.70602
-4.83086
-3.21998
-1.83417
-0.639518
0.389581
1.27415
2.03101
2.67431
3.21706
3.6678
4.01714
-40.0815
-32.8284
-29.3476
-21.0984
-17.7241
-13.7962
-10.9456
-8.49897
-6.41825
-4.63017
-3.07318
-1.71072
-0.512694
0.542344
1.46986
2.28289
2.99767
3.62168
4.13312
4.54674
-39.4428
-29.9614
-27.8546
-19.8233
-16.5844
-12.9432
-10.2482
-7.9739
-6.02301
-4.33143
-2.83782
-1.50705
-0.312556
0.762567
1.72814
2.59489
3.38205
4.08806
4.66153
5.1405
-39.3664
-27.4029
-26.1845
-18.3843
-15.2349
-11.8816
-9.34273
-7.24495
-5.43746
-3.85654
-2.44085
-1.15576
0.0210764
1.10184
2.09188
3.00163
3.85271
4.6315
5.26006
5.79914
-40.1494
-25.0908
-24.213
-16.7329
-13.6156
-10.5331
-8.1451
-6.22053
-4.5634
-3.10397
-1.78184
-0.562227
0.574237
1.63664
2.62876
3.5632
4.45996
5.28785
5.94886
6.53097
-40.6926
-22.8274
-22.2346
-14.9511
-11.7232
-8.85029
-6.60201
-4.82169
-3.29961
-1.96026
-0.747989
0.381434
1.45227
2.46947
3.43711
4.36943
5.27599
6.10297
6.75305
7.35076
-41.097
-20.5855
-20.5482
-13.184
-9.5931
-6.84548
-4.7025
-3.02423
-1.6145
-0.38234
0.733837
1.77324
2.75754
3.69835
4.60666
5.49159
6.34065
7.08628
7.69252
8.30631
-44.903
-18.9178
-18.9399
-11.4086
-7.19579
-4.49176
-2.41912
-0.827377
0.480057
1.61229
2.63149
3.57486
4.46315
5.31087
6.12978
6.92031
7.66088
8.31773
8.87502
9.48656
-59.1664
-18.3446
-15.9693
-8.94173
-4.15807
-1.41223
0.566488
2.06766
3.27022
4.28915
5.19
6.0127
6.78017
7.50849
8.20927
8.87824
9.48738
10.0074
10.4653
11.0381
-84.8103
-18.6888
-9.40541
-3.76048
0.681146
3.21814
4.925
6.22082
7.24262
8.08485
8.80897
9.45426
10.0443
10.5949
11.1173
11.6048
12.025
12.3585
12.6712
13.1499
-94.1927
-17.233
-0.772945
3.98587
7.30669
9.38226
10.753
11.7245
12.4857
13.0953
13.5894
13.9994
14.3493
14.6568
14.9351
15.1847
15.3846
15.514
15.6321
15.9175
19.88
41.0282
54.9957
63.1238
68.1375
70.7063
71.7907
71.5783
70.9843
69.8541
68.1227
65.8381
62.7951
58.786
53.5207
46.5996
37.3319
24.3137
3.29753
-30.1949
34.6991
42.5866
49.5608
55.252
59.5238
62.6793
64.9386
66.0863
66.0769
65.7737
65.1155
63.8599
61.5828
58.3454
53.8849
47.6599
38.9009
27.2069
12.3278
-6.80521
39.091
43.0484
46.6906
50.0153
52.9017
55.3845
57.5192
59.0872
59.8441
59.9718
59.8118
59.28
58.1296
55.9813
52.4803
47.2449
39.7739
29.7338
18.0817
6.12438
37.1149
40.0659
42.6402
45.049
47.2324
49.2167
51.0715
52.6503