/*--------------------------------*- C++ -*----------------------------------*\
  =========                 |
  \\      /  F ield         | OpenFOAM: The Open Source CFD Toolbox
   \\    /   O peration     | Website:  https://openfoam.org
    \\  /    A nd           | Version:  6
     \\/     M anipulation  |
\*---------------------------------------------------------------------------*/
FoamFile
{
    version     2.0;
    format      ascii;
    class       volVectorField;
    location    "1.13";
    object      U;
}
// * * * * * * * * * * * * * * * * * * * * * * * * * * * * * * * * * * * * * //

dimensions      [0 1 -1 0 0 0 0];

internalField   nonuniform List<vector> 
5625
(
(0.8944 0.4472 0)
(0.8944 0.4472 0)
(0.8944 0.4472 0)
(0.8944 0.4472 0)
(0.8944 0.4472 0)
(0.8944 0.4472 0)
(0.8944 0.4472 0)
(0.8944 0.4472 0)
(0.8944 0.4472 0)
(0.8944 0.4472 0)
(0.8944 0.4472 0)
(0.8944 0.4472 0)
(0.8944 0.4472 0)
(0.8944 0.4472 0)
(0.8944 0.4472 0)
(0.8944 0.4472 0)
(0.8944 0.4472 0)
(0.8944 0.4472 0)
(0.8944 0.4472 0)
(0.8944 0.4472 0)
(0.8944 0.4472 0)
(0.8944 0.4472 0)
(0.8944 0.4472 0)
(0.8944 0.4472 0)
(0.8944 0.4472 0)
(0.8944 0.4472 0)
(0.8944 0.4472 0)
(0.8944 0.4472 0)
(0.8944 0.4472 0)
(0.8944 0.4472 0)
(0.8944 0.4472 0)
(0.8944 0.4472 0)
(0.8944 0.4472 0)
(0.8944 0.4472 0)
(0.8944 0.4472 0)
(0.8944 0.4472 0)
(0.8944 0.4472 0)
(0.8944 0.4472 0)
(0.8944 0.4472 0)
(0.8944 0.447199 0)
(0.8944 0.447199 0)
(0.894401 0.447199 0)
(0.894402 0.447198 0)
(0.894402 0.447194 0)
(0.894404 0.447189 0)
(0.894406 0.447179 0)
(0.894411 0.44716 0)
(0.894418 0.447125 0)
(0.894431 0.447062 0)
(0.89445 0.446951 0)
(0.894483 0.446761 0)
(0.894537 0.446443 0)
(0.894619 0.445916 0)
(0.89475 0.445066 0)
(0.89495 0.443724 0)
(0.895254 0.44165 0)
(0.895703 0.438512 0)
(0.896356 0.433872 0)
(0.897288 0.427163 0)
(0.89859 0.417676 0)
(0.900381 0.404566 0)
(0.902801 0.386866 0)
(0.906037 0.363525 0)
(0.910331 0.333474 0)
(0.916027 0.295741 0)
(0.923598 0.249583 0)
(0.933712 0.194722 0)
(0.947247 0.131603 0)
(0.96522 0.0617704 0)
(0.98858 -0.0116967 0)
(1.01782 -0.0839724 0)
(1.0527 -0.148847 0)
(1.0922 -0.199762 0)
(1.13468 -0.231141 0)
(1.17823 -0.239327 0)
(0.8944 0.4472 0)
(0.8944 0.4472 0)
(0.8944 0.4472 0)
(0.8944 0.4472 0)
(0.8944 0.4472 0)
(0.8944 0.4472 0)
(0.8944 0.4472 0)
(0.8944 0.4472 0)
(0.8944 0.4472 0)
(0.8944 0.4472 0)
(0.8944 0.4472 0)
(0.8944 0.4472 0)
(0.8944 0.4472 0)
(0.8944 0.4472 0)
(0.8944 0.4472 0)
(0.8944 0.4472 0)
(0.8944 0.4472 0)
(0.8944 0.4472 0)
(0.8944 0.4472 0)
(0.8944 0.4472 0)
(0.8944 0.4472 0)
(0.8944 0.4472 0)
(0.8944 0.4472 0)
(0.8944 0.4472 0)
(0.8944 0.4472 0)
(0.8944 0.4472 0)
(0.8944 0.4472 0)
(0.8944 0.4472 0)
(0.8944 0.4472 0)
(0.8944 0.4472 0)
(0.8944 0.4472 0)
(0.8944 0.4472 0)
(0.8944 0.4472 0)
(0.8944 0.4472 0)
(0.8944 0.4472 0)
(0.8944 0.4472 0)
(0.8944 0.4472 0)
(0.894401 0.4472 0)
(0.894399 0.4472 0)
(0.8944 0.447199 0)
(0.894401 0.4472 0)
(0.894401 0.447199 0)
(0.894401 0.447198 0)
(0.894402 0.447195 0)
(0.894404 0.447189 0)
(0.894407 0.44718 0)
(0.894412 0.447162 0)
(0.89442 0.44713 0)
(0.894434 0.447071 0)
(0.894456 0.446967 0)
(0.894493 0.44679 0)
(0.894553 0.44649 0)
(0.894646 0.445996 0)
(0.894793 0.445198 0)
(0.895021 0.443937 0)
(0.895367 0.441987 0)
(0.895885 0.439037 0)
(0.896645 0.434672 0)
(0.897739 0.428357 0)
(0.899285 0.419425 0)
(0.901433 0.407076 0)
(0.904367 0.390397 0)
(0.908321 0.368388 0)
(0.9136 0.340042 0)
(0.920598 0.304421 0)
(0.929853 0.260819 0)
(0.942076 0.208942 0)
(0.958178 0.149164 0)
(0.979216 0.0828535 0)
(1.00618 0.0127482 0)
(1.03965 -0.0567718 0)
(1.07939 -0.119918 0)
(1.12429 -0.170368 0)
(1.17251 -0.202537 0)
(1.22188 -0.212612 0)
(0.8944 0.4472 0)
(0.8944 0.4472 0)
(0.8944 0.4472 0)
(0.8944 0.4472 0)
(0.8944 0.4472 0)
(0.8944 0.4472 0)
(0.8944 0.4472 0)
(0.8944 0.4472 0)
(0.8944 0.4472 0)
(0.8944 0.4472 0)
(0.8944 0.4472 0)
(0.8944 0.4472 0)
(0.8944 0.4472 0)
(0.8944 0.4472 0)
(0.8944 0.4472 0)
(0.8944 0.4472 0)
(0.8944 0.4472 0)
(0.8944 0.4472 0)
(0.8944 0.4472 0)
(0.8944 0.4472 0)
(0.8944 0.4472 0)
(0.8944 0.4472 0)
(0.8944 0.4472 0)
(0.8944 0.4472 0)
(0.8944 0.4472 0)
(0.8944 0.4472 0)
(0.8944 0.4472 0)
(0.8944 0.4472 0)
(0.8944 0.4472 0)
(0.8944 0.4472 0)
(0.8944 0.4472 0)
(0.8944 0.4472 0)
(0.8944 0.4472 0)
(0.8944 0.4472 0)
(0.8944 0.4472 0)
(0.8944 0.4472 0)
(0.8944 0.4472 0)
(0.894401 0.4472 0)
(0.8944 0.4472 0)
(0.8944 0.4472 0)
(0.894401 0.447199 0)
(0.894401 0.447198 0)
(0.894401 0.447197 0)
(0.894402 0.447196 0)
(0.894404 0.447191 0)
(0.894407 0.447182 0)
(0.894413 0.447166 0)
(0.894421 0.447135 0)
(0.894437 0.44708 0)
(0.894461 0.446985 0)
(0.894501 0.44682 0)
(0.894564 0.446541 0)
(0.894667 0.446082 0)
(0.894826 0.44534 0)
(0.895074 0.444169 0)
(0.895455 0.442355 0)
(0.896026 0.439609 0)
(0.896871 0.435545 0)
(0.898092 0.429663 0)
(0.899832 0.421337 0)
(0.902268 0.409827 0)
(0.905615 0.394267 0)
(0.910154 0.373729 0)
(0.91623 0.347262 0)
(0.924286 0.313983 0)
(0.934899 0.273218 0)
(0.948807 0.224669 0)
(0.966931 0.168643 0)
(0.990334 0.106343 0)
(1.02004 0.0401808 0)
(1.05671 -0.0259417 0)
(1.10018 -0.0867497 0)
(1.14936 -0.136277 0)
(1.2023 -0.16903 0)
(1.25663 -0.181054 0)
(0.8944 0.4472 0)
(0.8944 0.4472 0)
(0.8944 0.4472 0)
(0.8944 0.4472 0)
(0.8944 0.4472 0)
(0.8944 0.4472 0)
(0.8944 0.4472 0)
(0.8944 0.4472 0)
(0.8944 0.4472 0)
(0.8944 0.4472 0)
(0.8944 0.4472 0)
(0.8944 0.4472 0)
(0.8944 0.4472 0)
(0.8944 0.4472 0)
(0.8944 0.4472 0)
(0.8944 0.4472 0)
(0.8944 0.4472 0)
(0.8944 0.4472 0)
(0.8944 0.4472 0)
(0.8944 0.4472 0)
(0.8944 0.4472 0)
(0.8944 0.4472 0)
(0.8944 0.4472 0)
(0.8944 0.4472 0)
(0.8944 0.4472 0)
(0.8944 0.4472 0)
(0.8944 0.4472 0)
(0.8944 0.4472 0)
(0.8944 0.4472 0)
(0.8944 0.4472 0)
(0.8944 0.4472 0)
(0.8944 0.4472 0)
(0.8944 0.4472 0)
(0.8944 0.4472 0)
(0.8944 0.4472 0)
(0.8944 0.4472 0)
(0.8944 0.4472 0)
(0.894401 0.4472 0)
(0.8944 0.4472 0)
(0.8944 0.4472 0)
(0.8944 0.4472 0)
(0.894401 0.447199 0)
(0.894402 0.447198 0)
(0.894403 0.447195 0)
(0.894405 0.447191 0)
(0.894408 0.447183 0)
(0.894413 0.447169 0)
(0.894423 0.447141 0)
(0.894438 0.447091 0)
(0.894464 0.447003 0)
(0.894505 0.446852 0)
(0.894572 0.446596 0)
(0.89468 0.446175 0)
(0.894848 0.445492 0)
(0.895114 0.444414 0)
(0.895514 0.442742 0)
(0.896125 0.440215 0)
(0.897028 0.43647 0)
(0.898342 0.431045 0)
(0.900229 0.423369 0)
(0.902873 0.412744 0)
(0.906535 0.398381 0)
(0.911512 0.379412 0)
(0.918194 0.35495 0)
(0.927051 0.324179 0)
(0.938684 0.286461 0)
(0.953845 0.241496 0)
(0.97344 0.189535 0)
(0.998516 0.131625 0)
(1.03009 0.0698756 0)
(1.06889 0.00770823 0)
(1.11489 -0.0501477 0)
(1.16707 -0.0982021 0)
(1.22352 -0.13117 0)
(1.28173 -0.145008 0)
(0.8944 0.4472 0)
(0.8944 0.4472 0)
(0.8944 0.4472 0)
(0.8944 0.4472 0)
(0.8944 0.4472 0)
(0.8944 0.4472 0)
(0.8944 0.4472 0)
(0.8944 0.4472 0)
(0.8944 0.4472 0)
(0.8944 0.4472 0)
(0.8944 0.4472 0)
(0.8944 0.4472 0)
(0.8944 0.4472 0)
(0.8944 0.4472 0)
(0.8944 0.4472 0)
(0.8944 0.4472 0)
(0.8944 0.4472 0)
(0.8944 0.4472 0)
(0.8944 0.4472 0)
(0.8944 0.4472 0)
(0.8944 0.4472 0)
(0.8944 0.4472 0)
(0.8944 0.4472 0)
(0.8944 0.4472 0)
(0.8944 0.4472 0)
(0.8944 0.4472 0)
(0.8944 0.4472 0)
(0.8944 0.4472 0)
(0.8944 0.4472 0)
(0.8944 0.4472 0)
(0.8944 0.4472 0)
(0.8944 0.4472 0)
(0.8944 0.4472 0)
(0.8944 0.4472 0)
(0.894399 0.4472 0)
(0.8944 0.4472 0)
(0.8944 0.4472 0)
(0.8944 0.4472 0)
(0.8944 0.4472 0)
(0.8944 0.4472 0)
(0.8944 0.4472 0)
(0.894401 0.447199 0)
(0.894401 0.447198 0)
(0.894403 0.447196 0)
(0.894405 0.447192 0)
(0.894408 0.447185 0)
(0.894414 0.447172 0)
(0.894423 0.447146 0)
(0.894439 0.447101 0)
(0.894465 0.447022 0)
(0.894509 0.446884 0)
(0.894576 0.446653 0)
(0.894688 0.446268 0)
(0.89486 0.445649 0)
(0.895134 0.444665 0)
(0.895547 0.443143 0)
(0.896182 0.44084 0)
(0.897119 0.437422 0)
(0.898494 0.432475 0)
(0.90047 0.425465 0)
(0.903255 0.415763 0)
(0.907122 0.402638 0)
(0.912396 0.385293 0)
(0.919488 0.362925 0)
(0.928889 0.334764 0)
(0.94121 0.300226 0)
(0.957194 0.259015 0)
(0.977724 0.211333 0)
(1.0038 0.158072 0)
(1.03642 0.101078 0)
(1.07632 0.0433262 0)
(1.12363 -0.0110364 0)
(1.17747 -0.057037 0)
(1.23606 -0.0897187 0)
(1.29689 -0.105063 0)
(0.8944 0.4472 0)
(0.8944 0.4472 0)
(0.8944 0.4472 0)
(0.8944 0.4472 0)
(0.8944 0.4472 0)
(0.8944 0.4472 0)
(0.8944 0.4472 0)
(0.8944 0.4472 0)
(0.8944 0.4472 0)
(0.8944 0.4472 0)
(0.8944 0.4472 0)
(0.8944 0.4472 0)
(0.8944 0.4472 0)
(0.8944 0.4472 0)
(0.8944 0.4472 0)
(0.8944 0.4472 0)
(0.8944 0.4472 0)
(0.8944 0.4472 0)
(0.8944 0.4472 0)
(0.8944 0.4472 0)
(0.8944 0.4472 0)
(0.8944 0.4472 0)
(0.8944 0.4472 0)
(0.8944 0.4472 0)
(0.8944 0.4472 0)
(0.8944 0.4472 0)
(0.8944 0.4472 0)
(0.8944 0.4472 0)
(0.8944 0.4472 0)
(0.8944 0.4472 0)
(0.8944 0.4472 0)
(0.8944 0.4472 0)
(0.8944 0.4472 0)
(0.8944 0.4472 0)
(0.8944 0.4472 0)
(0.8944 0.4472 0)
(0.8944 0.4472 0)
(0.8944 0.4472 0)
(0.8944 0.4472 0)
(0.8944 0.4472 0)
(0.8944 0.447199 0)
(0.894401 0.447199 0)
(0.894401 0.447198 0)
(0.894403 0.447197 0)
(0.894405 0.447194 0)
(0.894408 0.447187 0)
(0.894414 0.447175 0)
(0.894424 0.447152 0)
(0.894439 0.447111 0)
(0.894465 0.44704 0)
(0.894508 0.446917 0)
(0.894577 0.44671 0)
(0.894687 0.446362 0)
(0.894862 0.445804 0)
(0.895137 0.444919 0)
(0.895554 0.443546 0)
(0.896197 0.441469 0)
(0.897147 0.438383 0)
(0.898549 0.433915 0)
(0.900562 0.427584 0)
(0.903422 0.41881 0)
(0.907391 0.406942 0)
(0.912823 0.391249 0)
(0.920136 0.371 0)
(0.92983 0.345498 0)
(0.942519 0.314201 0)
(0.958922 0.276828 0)
(0.979882 0.233531 0)
(1.00635 0.185081 0)
(1.03924 0.133056 0)
(1.07932 0.0800373 0)
(1.12677 0.0296223 0)
(1.18097 -0.0137861 0)
(1.24027 -0.0456181 0)
(1.30231 -0.0620222 0)
(0.8944 0.4472 0)
(0.8944 0.4472 0)
(0.8944 0.4472 0)
(0.8944 0.4472 0)
(0.8944 0.4472 0)
(0.8944 0.4472 0)
(0.8944 0.4472 0)
(0.8944 0.4472 0)
(0.8944 0.4472 0)
(0.8944 0.4472 0)
(0.8944 0.4472 0)
(0.8944 0.4472 0)
(0.8944 0.4472 0)
(0.8944 0.4472 0)
(0.8944 0.4472 0)
(0.8944 0.4472 0)
(0.8944 0.4472 0)
(0.8944 0.4472 0)
(0.8944 0.4472 0)
(0.8944 0.4472 0)
(0.8944 0.4472 0)
(0.8944 0.4472 0)
(0.8944 0.4472 0)
(0.8944 0.4472 0)
(0.8944 0.4472 0)
(0.8944 0.4472 0)
(0.8944 0.4472 0)
(0.8944 0.4472 0)
(0.8944 0.4472 0)
(0.8944 0.4472 0)
(0.8944 0.4472 0)
(0.8944 0.4472 0)
(0.8944 0.4472 0)
(0.8944 0.4472 0)
(0.894399 0.4472 0)
(0.8944 0.4472 0)
(0.8944 0.4472 0)
(0.8944 0.4472 0)
(0.8944 0.4472 0)
(0.8944 0.4472 0)
(0.8944 0.4472 0)
(0.894401 0.447199 0)
(0.894402 0.447198 0)
(0.894402 0.447197 0)
(0.894405 0.447194 0)
(0.894408 0.447189 0)
(0.894414 0.447178 0)
(0.894423 0.447158 0)
(0.894439 0.447122 0)
(0.894464 0.447059 0)
(0.894506 0.446949 0)
(0.894575 0.446765 0)
(0.894682 0.446456 0)
(0.894857 0.445959 0)
(0.895123 0.445168 0)
(0.895543 0.443944 0)
(0.896172 0.442089 0)
(0.897121 0.439333 0)
(0.898511 0.435338 0)
(0.900525 0.429675 0)
(0.903381 0.42183 0)
(0.907365 0.411203 0)
(0.912824 0.397154 0)
(0.920182 0.379012 0)
(0.929942 0.356159 0)
(0.942696 0.328096 0)
(0.959144 0.294561 0)
(0.980071 0.255669 0)
(1.00636 0.212068 0)
(1.03886 0.165115 0)
(1.07828 0.11701 0)
(1.12489 0.0708662 0)
(1.17822 0.030516 0)
(1.23687 5.52029e-05 0)
(1.29867 -0.0168701 0)
(0.8944 0.4472 0)
(0.8944 0.4472 0)
(0.8944 0.4472 0)
(0.8944 0.4472 0)
(0.8944 0.4472 0)
(0.8944 0.4472 0)
(0.8944 0.4472 0)
(0.8944 0.4472 0)
(0.8944 0.4472 0)
(0.8944 0.4472 0)
(0.8944 0.4472 0)
(0.8944 0.4472 0)
(0.8944 0.4472 0)
(0.8944 0.4472 0)
(0.8944 0.4472 0)
(0.8944 0.4472 0)
(0.8944 0.4472 0)
(0.8944 0.4472 0)
(0.8944 0.4472 0)
(0.8944 0.4472 0)
(0.8944 0.4472 0)
(0.8944 0.4472 0)
(0.8944 0.4472 0)
(0.8944 0.4472 0)
(0.8944 0.4472 0)
(0.8944 0.4472 0)
(0.8944 0.4472 0)
(0.8944 0.4472 0)
(0.8944 0.4472 0)
(0.8944 0.4472 0)
(0.8944 0.4472 0)
(0.8944 0.4472 0)
(0.8944 0.4472 0)
(0.8944 0.4472 0)
(0.8944 0.4472 0)
(0.8944 0.4472 0)
(0.8944 0.4472 0)
(0.8944 0.4472 0)
(0.8944 0.4472 0)
(0.8944 0.4472 0)
(0.8944 0.4472 0)
(0.894401 0.447199 0)
(0.894401 0.447199 0)
(0.894403 0.447198 0)
(0.894405 0.447195 0)
(0.894408 0.44719 0)
(0.894413 0.44718 0)
(0.894422 0.447163 0)
(0.894437 0.447132 0)
(0.894463 0.447077 0)
(0.894502 0.446981 0)
(0.894569 0.446816 0)
(0.894672 0.446547 0)
(0.894841 0.446106 0)
(0.895099 0.445412 0)
(0.895506 0.444329 0)
(0.896117 0.442688 0)
(0.897042 0.440254 0)
(0.898396 0.43672 0)
(0.900369 0.431706 0)
(0.903164 0.42476 0)
(0.907078 0.415348 0)
(0.912445 0.402895 0)
(0.919692 0.386814 0)
(0.929303 0.366545 0)
(0.941858 0.341646 0)
(0.958014 0.311872 0)
(0.978505 0.277314 0)
(1.00413 0.238507 0)
(1.03566 0.196612 0)
(1.07374 0.153493 0)
(1.11866 0.111797 0)
(1.1701 0.0748495 0)
(1.22689 0.0462379 0)
(1.28712 0.0293132 0)
(0.8944 0.4472 0)
(0.8944 0.4472 0)
(0.8944 0.4472 0)
(0.8944 0.4472 0)
(0.8944 0.4472 0)
(0.8944 0.4472 0)
(0.8944 0.4472 0)
(0.8944 0.4472 0)
(0.8944 0.4472 0)
(0.8944 0.4472 0)
(0.8944 0.4472 0)
(0.8944 0.4472 0)
(0.8944 0.4472 0)
(0.8944 0.4472 0)
(0.8944 0.4472 0)
(0.8944 0.4472 0)
(0.8944 0.4472 0)
(0.8944 0.4472 0)
(0.8944 0.4472 0)
(0.8944 0.4472 0)
(0.8944 0.4472 0)
(0.8944 0.4472 0)
(0.8944 0.4472 0)
(0.8944 0.4472 0)
(0.8944 0.4472 0)
(0.8944 0.4472 0)
(0.8944 0.4472 0)
(0.8944 0.4472 0)
(0.8944 0.4472 0)
(0.8944 0.4472 0)
(0.894399 0.4472 0)
(0.8944 0.4472 0)
(0.8944 0.4472 0)
(0.8944 0.4472 0)
(0.8944 0.4472 0)
(0.8944 0.4472 0)
(0.8944 0.4472 0)
(0.8944 0.4472 0)
(0.8944 0.4472 0)
(0.8944 0.4472 0)
(0.894401 0.4472 0)
(0.894401 0.4472 0)
(0.894401 0.447199 0)
(0.894403 0.447198 0)
(0.894404 0.447195 0)
(0.894408 0.447191 0)
(0.894412 0.447183 0)
(0.894422 0.447169 0)
(0.894436 0.447141 0)
(0.894459 0.447093 0)
(0.894498 0.447009 0)
(0.89456 0.446867 0)
(0.894659 0.446632 0)
(0.894818 0.446248 0)
(0.895066 0.445641 0)
(0.895451 0.444696 0)
(0.896036 0.443261 0)
(0.89692 0.44113 0)
(0.898218 0.438038 0)
(0.900107 0.433645 0)
(0.902796 0.427556 0)
(0.906564 0.419305 0)
(0.911745 0.408387 0)
(0.918739 0.394276 0)
(0.928025 0.376484 0)
(0.94015 0.354627 0)
(0.955725 0.328477 0)
(0.975432 0.298099 0)
(0.999981 0.263948 0)
(1.03007 0.226986 0)
(1.06626 0.188803 0)
(1.10883 0.151628 0)
(1.15756 0.118284 0)
(1.2115 0.0919003 0)
(1.269 0.0754648 0)
(0.8944 0.4472 0)
(0.8944 0.4472 0)
(0.8944 0.4472 0)
(0.8944 0.4472 0)
(0.8944 0.4472 0)
(0.8944 0.4472 0)
(0.8944 0.4472 0)
(0.8944 0.4472 0)
(0.8944 0.4472 0)
(0.8944 0.4472 0)
(0.8944 0.4472 0)
(0.8944 0.4472 0)
(0.8944 0.4472 0)
(0.8944 0.4472 0)
(0.8944 0.4472 0)
(0.8944 0.4472 0)
(0.8944 0.4472 0)
(0.8944 0.4472 0)
(0.8944 0.4472 0)
(0.8944 0.4472 0)
(0.8944 0.4472 0)
(0.8944 0.4472 0)
(0.8944 0.4472 0)
(0.8944 0.4472 0)
(0.8944 0.4472 0)
(0.8944 0.4472 0)
(0.8944 0.4472 0)
(0.8944 0.4472 0)
(0.8944 0.4472 0)
(0.8944 0.4472 0)
(0.8944 0.4472 0)
(0.8944 0.4472 0)
(0.8944 0.4472 0)
(0.8944 0.4472 0)
(0.8944 0.4472 0)
(0.8944 0.4472 0)
(0.8944 0.4472 0)
(0.8944 0.4472 0)
(0.8944 0.4472 0)
(0.8944 0.4472 0)
(0.8944 0.4472 0)
(0.8944 0.447199 0)
(0.894401 0.447199 0)
(0.894402 0.447198 0)
(0.894403 0.447196 0)
(0.894407 0.447193 0)
(0.894412 0.447186 0)
(0.89442 0.447174 0)
(0.894433 0.44715 0)
(0.894456 0.447109 0)
(0.894491 0.447036 0)
(0.894549 0.446914 0)
(0.894643 0.446712 0)
(0.894791 0.44638 0)
(0.895025 0.445856 0)
(0.895382 0.445038 0)
(0.895935 0.443797 0)
(0.896762 0.441951 0)
(0.897985 0.43927 0)
(0.899766 0.435465 0)
(0.902309 0.430182 0)
(0.905868 0.423025 0)
(0.910778 0.413546 0)
(0.917411 0.401294 0)
(0.926221 0.385844 0)
(0.937725 0.366857 0)
(0.952485 0.344134 0)
(0.971122 0.317724 0)
(0.994272 0.288 0)
(1.02254 0.255775 0)
(1.05641 0.222369 0)
(1.09615 0.189659 0)
(1.14157 0.160017 0)
(1.19192 0.136114 0)
(1.24578 0.120588 0)
(0.8944 0.4472 0)
(0.8944 0.4472 0)
(0.8944 0.4472 0)
(0.8944 0.4472 0)
(0.8944 0.4472 0)
(0.8944 0.4472 0)
(0.8944 0.4472 0)
(0.8944 0.4472 0)
(0.8944 0.4472 0)
(0.8944 0.4472 0)
(0.8944 0.4472 0)
(0.8944 0.4472 0)
(0.8944 0.4472 0)
(0.8944 0.4472 0)
(0.8944 0.4472 0)
(0.8944 0.4472 0)
(0.8944 0.4472 0)
(0.8944 0.4472 0)
(0.8944 0.4472 0)
(0.8944 0.4472 0)
(0.8944 0.4472 0)
(0.8944 0.4472 0)
(0.8944 0.4472 0)
(0.8944 0.4472 0)
(0.8944 0.4472 0)
(0.8944 0.4472 0)
(0.8944 0.4472 0)
(0.8944 0.4472 0)
(0.8944 0.4472 0)
(0.8944 0.4472 0)
(0.8944 0.4472 0)
(0.8944 0.4472 0)
(0.8944 0.4472 0)
(0.8944 0.4472 0)
(0.8944 0.4472 0)
(0.8944 0.4472 0)
(0.8944 0.4472 0)
(0.8944 0.4472 0)
(0.8944 0.4472 0)
(0.8944 0.4472 0)
(0.8944 0.4472 0)
(0.894401 0.4472 0)
(0.894402 0.447199 0)
(0.894402 0.447199 0)
(0.894404 0.447197 0)
(0.894407 0.447194 0)
(0.894411 0.447188 0)
(0.894418 0.447178 0)
(0.894432 0.447158 0)
(0.894451 0.447123 0)
(0.894484 0.447061 0)
(0.894537 0.446958 0)
(0.894625 0.446784 0)
(0.894759 0.446502 0)
(0.894976 0.446052 0)
(0.895306 0.445354 0)
(0.895817 0.44429 0)
(0.896579 0.442708 0)
(0.897716 0.440412 0)
(0.899365 0.437143 0)
(0.901726 0.432611 0)
(0.90504 0.426464 0)
(0.909612 0.418322 0)
(0.915796 0.407794 0)
(0.924019 0.394517 0)
(0.934749 0.378197 0)
(0.94851 0.358662 0)
(0.965866 0.335949 0)
(0.987359 0.310372 0)
(1.01354 0.282597 0)
(1.0448 0.253735 0)
(1.08136 0.225329 0)
(1.12307 0.199371 0)
(1.16932 0.178113 0)
(1.2189 0.16381 0)
(0.8944 0.4472 0)
(0.8944 0.4472 0)
(0.8944 0.4472 0)
(0.8944 0.4472 0)
(0.8944 0.4472 0)
(0.8944 0.4472 0)
(0.8944 0.4472 0)
(0.8944 0.4472 0)
(0.8944 0.4472 0)
(0.8944 0.4472 0)
(0.8944 0.4472 0)
(0.8944 0.4472 0)
(0.8944 0.4472 0)
(0.8944 0.4472 0)
(0.8944 0.4472 0)
(0.8944 0.4472 0)
(0.8944 0.4472 0)
(0.8944 0.4472 0)
(0.8944 0.4472 0)
(0.8944 0.4472 0)
(0.8944 0.4472 0)
(0.8944 0.4472 0)
(0.8944 0.4472 0)
(0.8944 0.4472 0)
(0.8944 0.4472 0)
(0.8944 0.4472 0)
(0.8944 0.4472 0)
(0.8944 0.4472 0)
(0.8944 0.4472 0)
(0.8944 0.4472 0)
(0.8944 0.4472 0)
(0.8944 0.4472 0)
(0.8944 0.4472 0)
(0.8944 0.4472 0)
(0.8944 0.4472 0)
(0.8944 0.4472 0)
(0.8944 0.4472 0)
(0.8944 0.4472 0)
(0.8944 0.4472 0)
(0.8944 0.4472 0)
(0.894401 0.4472 0)
(0.894401 0.4472 0)
(0.894401 0.4472 0)
(0.894402 0.447199 0)
(0.894403 0.447198 0)
(0.894406 0.447195 0)
(0.89441 0.447191 0)
(0.894417 0.447182 0)
(0.894428 0.447165 0)
(0.894446 0.447136 0)
(0.894477 0.447084 0)
(0.894525 0.446997 0)
(0.894603 0.44685 0)
(0.894728 0.446612 0)
(0.894921 0.446233 0)
(0.895226 0.44564 0)
(0.895685 0.44474 0)
(0.896384 0.443397 0)
(0.897418 0.441446 0)
(0.898922 0.438674 0)
(0.901084 0.434821 0)
(0.904117 0.429596 0)
(0.908308 0.422676 0)
(0.913983 0.413724 0)
(0.921532 0.402434 0)
(0.931389 0.388549 0)
(0.944023 0.371937 0)
(0.959931 0.352618 0)
(0.979611 0.33085 0)
(1.00351 0.307192 0)
(1.03196 0.282554 0)
(1.06515 0.258224 0)
(1.10293 0.235826 0)
(1.14478 0.217248 0)
(1.18971 0.204397 0)
(0.8944 0.4472 0)
(0.8944 0.4472 0)
(0.8944 0.4472 0)
(0.8944 0.4472 0)
(0.8944 0.4472 0)
(0.8944 0.4472 0)
(0.8944 0.4472 0)
(0.8944 0.4472 0)
(0.8944 0.4472 0)
(0.8944 0.4472 0)
(0.8944 0.4472 0)
(0.8944 0.4472 0)
(0.8944 0.4472 0)
(0.8944 0.4472 0)
(0.8944 0.4472 0)
(0.8944 0.4472 0)
(0.8944 0.4472 0)
(0.8944 0.4472 0)
(0.8944 0.4472 0)
(0.8944 0.4472 0)
(0.8944 0.4472 0)
(0.8944 0.4472 0)
(0.8944 0.4472 0)
(0.8944 0.4472 0)
(0.8944 0.4472 0)
(0.8944 0.4472 0)
(0.8944 0.4472 0)
(0.8944 0.4472 0)
(0.8944 0.4472 0)
(0.8944 0.4472 0)
(0.8944 0.4472 0)
(0.8944 0.4472 0)
(0.8944 0.4472 0)
(0.8944 0.4472 0)
(0.8944 0.4472 0)
(0.8944 0.4472 0)
(0.8944 0.4472 0)
(0.8944 0.4472 0)
(0.8944 0.4472 0)
(0.8944 0.4472 0)
(0.8944 0.4472 0)
(0.894401 0.4472 0)
(0.894401 0.4472 0)
(0.894402 0.447199 0)
(0.894403 0.447198 0)
(0.894405 0.447197 0)
(0.894409 0.447192 0)
(0.894415 0.447185 0)
(0.894425 0.447171 0)
(0.894441 0.447147 0)
(0.894469 0.447104 0)
(0.894511 0.447031 0)
(0.894583 0.44691 0)
(0.894692 0.446709 0)
(0.894868 0.446392 0)
(0.895137 0.445897 0)
(0.895554 0.445138 0)
(0.896178 0.444016 0)
(0.897107 0.442375 0)
(0.898464 0.440043 0)
(0.900404 0.436808 0)
(0.903147 0.43241 0)
(0.906924 0.426587 0)
(0.912054 0.419054 0)
(0.918884 0.409553 0)
(0.927795 0.397869 0)
(0.939222 0.383889 0)
(0.953602 0.36763 0)
(0.971359 0.349311 0)
(0.992874 0.329392 0)
(1.01844 0.30862 0)
(1.04816 0.288045 0)
(1.08194 0.269013 0)
(1.1193 0.253058 0)
(1.1594 0.241781 0)
(0.8944 0.4472 0)
(0.8944 0.4472 0)
(0.8944 0.4472 0)
(0.8944 0.4472 0)
(0.8944 0.4472 0)
(0.8944 0.4472 0)
(0.8944 0.4472 0)
(0.8944 0.4472 0)
(0.8944 0.4472 0)
(0.8944 0.4472 0)
(0.8944 0.4472 0)
(0.8944 0.4472 0)
(0.8944 0.4472 0)
(0.8944 0.4472 0)
(0.8944 0.4472 0)
(0.8944 0.4472 0)
(0.8944 0.4472 0)
(0.8944 0.4472 0)
(0.8944 0.4472 0)
(0.8944 0.4472 0)
(0.8944 0.4472 0)
(0.8944 0.4472 0)
(0.8944 0.4472 0)
(0.8944 0.4472 0)
(0.8944 0.4472 0)
(0.8944 0.4472 0)
(0.8944 0.4472 0)
(0.8944 0.4472 0)
(0.8944 0.4472 0)
(0.8944 0.4472 0)
(0.8944 0.4472 0)
(0.8944 0.4472 0)
(0.8944 0.4472 0)
(0.8944 0.4472 0)
(0.8944 0.4472 0)
(0.8944 0.4472 0)
(0.8944 0.4472 0)
(0.8944 0.4472 0)
(0.8944 0.4472 0)
(0.8944 0.4472 0)
(0.8944 0.4472 0)
(0.8944 0.4472 0)
(0.894401 0.4472 0)
(0.894401 0.447199 0)
(0.894403 0.447199 0)
(0.894405 0.447197 0)
(0.894408 0.447194 0)
(0.894413 0.447187 0)
(0.894423 0.447177 0)
(0.894437 0.447157 0)
(0.89446 0.447121 0)
(0.894499 0.447062 0)
(0.89456 0.446961 0)
(0.894658 0.446797 0)
(0.894813 0.446533 0)
(0.895052 0.446121 0)
(0.895419 0.445495 0)
(0.895972 0.444558 0)
(0.896794 0.443197 0)
(0.897997 0.441256 0)
(0.899722 0.438563 0)
(0.902152 0.434903 0)
(0.905519 0.430052 0)
(0.910087 0.423782 0)
(0.916168 0.415866 0)
(0.924116 0.406136 0)
(0.934303 0.394492 0)
(0.947109 0.38096 0)
(0.962912 0.36571 0)
(0.982028 0.349127 0)
(1.00469 0.331824 0)
(1.03099 0.314659 0)
(1.06079 0.298714 0)
(1.0937 0.285249 0)
(1.12901 0.275574 0)
(0.8944 0.4472 0)
(0.8944 0.4472 0)
(0.8944 0.4472 0)
(0.8944 0.4472 0)
(0.8944 0.4472 0)
(0.8944 0.4472 0)
(0.8944 0.4472 0)
(0.8944 0.4472 0)
(0.8944 0.4472 0)
(0.8944 0.4472 0)
(0.8944 0.4472 0)
(0.8944 0.4472 0)
(0.8944 0.4472 0)
(0.8944 0.4472 0)
(0.8944 0.4472 0)
(0.8944 0.4472 0)
(0.8944 0.4472 0)
(0.8944 0.4472 0)
(0.8944 0.4472 0)
(0.8944 0.4472 0)
(0.8944 0.4472 0)
(0.8944 0.4472 0)
(0.8944 0.4472 0)
(0.8944 0.4472 0)
(0.8944 0.4472 0)
(0.8944 0.4472 0)
(0.8944 0.4472 0)
(0.8944 0.4472 0)
(0.8944 0.4472 0)
(0.8944 0.4472 0)
(0.8944 0.4472 0)
(0.8944 0.4472 0)
(0.8944 0.4472 0)
(0.8944 0.4472 0)
(0.8944 0.4472 0)
(0.8944 0.4472 0)
(0.8944 0.4472 0)
(0.8944 0.4472 0)
(0.8944 0.4472 0)
(0.8944 0.4472 0)
(0.8944 0.4472 0)
(0.8944 0.4472 0)
(0.894401 0.4472 0)
(0.894402 0.447199 0)
(0.894403 0.447199 0)
(0.894404 0.447198 0)
(0.894407 0.447195 0)
(0.894411 0.44719 0)
(0.89442 0.447182 0)
(0.894432 0.447165 0)
(0.894453 0.447137 0)
(0.894487 0.447088 0)
(0.894541 0.447006 0)
(0.894625 0.446871 0)
(0.89476 0.446655 0)
(0.894968 0.446318 0)
(0.895288 0.445802 0)
(0.89577 0.445034 0)
(0.89649 0.44391 0)
(0.897539 0.442318 0)
(0.899051 0.440094 0)
(0.90118 0.43708 0)
(0.904132 0.433084 0)
(0.908141 0.427911 0)
(0.913485 0.421389 0)
(0.920466 0.413366 0)
(0.929421 0.403775 0)
(0.940678 0.392625 0)
(0.954547 0.380072 0)
(0.971313 0.366421 0)
(0.991147 0.352176 0)
(1.01411 0.338036 0)
(1.04008 0.324862 0)
(1.06872 0.313687 0)
(1.09938 0.305558 0)
(0.8944 0.4472 0)
(0.8944 0.4472 0)
(0.8944 0.4472 0)
(0.8944 0.4472 0)
(0.8944 0.4472 0)
(0.8944 0.4472 0)
(0.8944 0.4472 0)
(0.8944 0.4472 0)
(0.8944 0.4472 0)
(0.8944 0.4472 0)
(0.8944 0.4472 0)
(0.8944 0.4472 0)
(0.8944 0.4472 0)
(0.8944 0.4472 0)
(0.8944 0.4472 0)
(0.8944 0.4472 0)
(0.8944 0.4472 0)
(0.8944 0.4472 0)
(0.8944 0.4472 0)
(0.8944 0.4472 0)
(0.8944 0.4472 0)
(0.8944 0.4472 0)
(0.8944 0.4472 0)
(0.8944 0.4472 0)
(0.8944 0.4472 0)
(0.8944 0.4472 0)
(0.8944 0.4472 0)
(0.8944 0.4472 0)
(0.8944 0.4472 0)
(0.8944 0.4472 0)
(0.8944 0.4472 0)
(0.8944 0.4472 0)
(0.8944 0.4472 0)
(0.8944 0.4472 0)
(0.8944 0.4472 0)
(0.8944 0.4472 0)
(0.8944 0.4472 0)
(0.8944 0.447199 0)
(0.8944 0.4472 0)
(0.8944 0.4472 0)
(0.8944 0.4472 0)
(0.8944 0.4472 0)
(0.894401 0.4472 0)
(0.894401 0.4472 0)
(0.894402 0.447199 0)
(0.894403 0.447198 0)
(0.894406 0.447196 0)
(0.89441 0.447193 0)
(0.894417 0.447185 0)
(0.894428 0.447172 0)
(0.894446 0.447149 0)
(0.894474 0.44711 0)
(0.894521 0.447043 0)
(0.894595 0.446934 0)
(0.894709 0.44676 0)
(0.894888 0.446485 0)
(0.895164 0.446067 0)
(0.895578 0.445441 0)
(0.8962 0.444527 0)
(0.897104 0.443227 0)
(0.898408 0.441416 0)
(0.900251 0.438959 0)
(0.902799 0.435695 0)
(0.906273 0.431475 0)
(0.910902 0.426156 0)
(0.916955 0.419612 0)
(0.924718 0.411793 0)
(0.93447 0.402702 0)
(0.946493 0.392476 0)
(0.960997 0.381367 0)
(0.978137 0.369769 0)
(0.997944 0.358252 0)
(1.0203 0.347523 0)
(1.0449 0.338385 0)
(1.07121 0.331698 0)
(0.8944 0.4472 0)
(0.8944 0.4472 0)
(0.8944 0.4472 0)
(0.8944 0.4472 0)
(0.8944 0.4472 0)
(0.8944 0.4472 0)
(0.8944 0.4472 0)
(0.8944 0.4472 0)
(0.8944 0.4472 0)
(0.8944 0.4472 0)
(0.8944 0.4472 0)
(0.8944 0.4472 0)
(0.8944 0.4472 0)
(0.8944 0.4472 0)
(0.8944 0.4472 0)
(0.8944 0.4472 0)
(0.8944 0.4472 0)
(0.8944 0.4472 0)
(0.8944 0.4472 0)
(0.8944 0.4472 0)
(0.8944 0.4472 0)
(0.8944 0.4472 0)
(0.8944 0.4472 0)
(0.8944 0.4472 0)
(0.8944 0.4472 0)
(0.8944 0.4472 0)
(0.8944 0.4472 0)
(0.8944 0.4472 0)
(0.8944 0.4472 0)
(0.8944 0.4472 0)
(0.8944 0.4472 0)
(0.8944 0.4472 0)
(0.8944 0.4472 0)
(0.8944 0.4472 0)
(0.8944 0.4472 0)
(0.8944 0.4472 0)
(0.8944 0.4472 0)
(0.8944 0.4472 0)
(0.8944 0.4472 0)
(0.8944 0.4472 0)
(0.894401 0.4472 0)
(0.8944 0.4472 0)
(0.894401 0.4472 0)
(0.894401 0.447199 0)
(0.894401 0.447199 0)
(0.894403 0.447199 0)
(0.894405 0.447197 0)
(0.894409 0.447194 0)
(0.894414 0.447188 0)
(0.894424 0.447178 0)
(0.894439 0.44716 0)
(0.894462 0.447128 0)
(0.894503 0.447076 0)
(0.894564 0.446989 0)
(0.894663 0.446847 0)
(0.894814 0.446629 0)
(0.895049 0.44629 0)
(0.895402 0.445787 0)
(0.895929 0.44505 0)
(0.896698 0.444002 0)
(0.89781 0.44254 0)
(0.89938 0.440553 0)
(0.901553 0.437923 0)
(0.904522 0.434513 0)
(0.908478 0.430215 0)
(0.913652 0.424931 0)
(0.920292 0.418618 0)
(0.928637 0.411292 0)
(0.93891 0.403049 0)
(0.951303 0.394093 0)
(0.965926 0.384764 0)
(0.982802 0.3755 0)
(1.00182 0.366865 0)
(1.0227 0.359513 0)
(1.045 0.354107 0)
(0.8944 0.4472 0)
(0.8944 0.4472 0)
(0.8944 0.4472 0)
(0.8944 0.4472 0)
(0.8944 0.4472 0)
(0.8944 0.4472 0)
(0.8944 0.4472 0)
(0.8944 0.4472 0)
(0.8944 0.4472 0)
(0.8944 0.4472 0)
(0.8944 0.4472 0)
(0.8944 0.4472 0)
(0.8944 0.4472 0)
(0.8944 0.4472 0)
(0.8944 0.4472 0)
(0.8944 0.4472 0)
(0.8944 0.4472 0)
(0.8944 0.4472 0)
(0.8944 0.4472 0)
(0.8944 0.4472 0)
(0.8944 0.4472 0)
(0.8944 0.4472 0)
(0.8944 0.4472 0)
(0.8944 0.4472 0)
(0.8944 0.4472 0)
(0.8944 0.4472 0)
(0.8944 0.4472 0)
(0.8944 0.4472 0)
(0.8944 0.4472 0)
(0.8944 0.4472 0)
(0.8944 0.4472 0)
(0.8944 0.4472 0)
(0.8944 0.4472 0)
(0.8944 0.4472 0)
(0.8944 0.4472 0)
(0.8944 0.4472 0)
(0.8944 0.4472 0)
(0.8944 0.4472 0)
(0.8944 0.4472 0)
(0.8944 0.4472 0)
(0.8944 0.447201 0)
(0.8944 0.4472 0)
(0.894401 0.4472 0)
(0.894401 0.4472 0)
(0.894402 0.4472 0)
(0.894402 0.447199 0)
(0.894404 0.447198 0)
(0.894407 0.447196 0)
(0.894412 0.447191 0)
(0.89442 0.447183 0)
(0.894433 0.447169 0)
(0.894454 0.447145 0)
(0.894485 0.447102 0)
(0.894539 0.447034 0)
(0.89462 0.446922 0)
(0.894747 0.446747 0)
(0.894944 0.446479 0)
(0.895239 0.446076 0)
(0.895682 0.445491 0)
(0.89633 0.44465 0)
(0.897261 0.443483 0)
(0.898583 0.441897 0)
(0.900417 0.43979 0)
(0.902913 0.437065 0)
(0.906251 0.43363 0)
(0.910619 0.429407 0)
(0.916224 0.424364 0)
(0.923267 0.41851 0)
(0.931938 0.411936 0)
(0.94239 0.404805 0)
(0.954713 0.397374 0)
(0.968918 0.390004 0)
(0.9849 0.383146 0)
(1.00242 0.377301 0)
(1.02109 0.373007 0)
(0.8944 0.4472 0)
(0.8944 0.4472 0)
(0.8944 0.4472 0)
(0.8944 0.4472 0)
(0.8944 0.4472 0)
(0.8944 0.4472 0)
(0.8944 0.4472 0)
(0.8944 0.4472 0)
(0.8944 0.4472 0)
(0.8944 0.4472 0)
(0.8944 0.4472 0)
(0.8944 0.4472 0)
(0.8944 0.4472 0)
(0.8944 0.4472 0)
(0.8944 0.4472 0)
(0.8944 0.4472 0)
(0.8944 0.4472 0)
(0.8944 0.4472 0)
(0.8944 0.4472 0)
(0.8944 0.4472 0)
(0.8944 0.4472 0)
(0.8944 0.4472 0)
(0.8944 0.4472 0)
(0.8944 0.4472 0)
(0.8944 0.4472 0)
(0.8944 0.4472 0)
(0.8944 0.4472 0)
(0.8944 0.4472 0)
(0.8944 0.4472 0)
(0.8944 0.4472 0)
(0.8944 0.4472 0)
(0.8944 0.4472 0)
(0.8944 0.4472 0)
(0.8944 0.4472 0)
(0.8944 0.4472 0)
(0.8944 0.4472 0)
(0.8944 0.4472 0)
(0.8944 0.4472 0)
(0.8944 0.4472 0)
(0.8944 0.4472 0)
(0.8944 0.4472 0)
(0.8944 0.4472 0)
(0.8944 0.4472 0)
(0.894401 0.4472 0)
(0.894401 0.447199 0)
(0.894403 0.447199 0)
(0.894404 0.447198 0)
(0.894406 0.447197 0)
(0.89441 0.447193 0)
(0.894417 0.447187 0)
(0.894427 0.447176 0)
(0.894443 0.447157 0)
(0.894472 0.447125 0)
(0.894514 0.44707 0)
(0.894582 0.446983 0)
(0.89469 0.446845 0)
(0.894847 0.446632 0)
(0.895098 0.446318 0)
(0.895459 0.445851 0)
(0.895999 0.44519 0)
(0.896771 0.444267 0)
(0.89787 0.44301 0)
(0.899391 0.441343 0)
(0.901473 0.439185 0)
(0.904247 0.436468 0)
(0.907885 0.433123 0)
(0.912558 0.429136 0)
(0.918427 0.424511 0)
(0.925654 0.419319 0)
(0.934359 0.41369 0)
(0.944616 0.407839 0)
(0.956421 0.402044 0)
(0.969693 0.396653 0)
(0.984219 0.392077 0)
(0.999684 0.388714 0)
(0.8944 0.4472 0)
(0.8944 0.4472 0)
(0.8944 0.4472 0)
(0.8944 0.4472 0)
(0.8944 0.4472 0)
(0.8944 0.4472 0)
(0.8944 0.4472 0)
(0.8944 0.4472 0)
(0.8944 0.4472 0)
(0.8944 0.4472 0)
(0.8944 0.4472 0)
(0.8944 0.4472 0)
(0.8944 0.4472 0)
(0.8944 0.4472 0)
(0.8944 0.4472 0)
(0.8944 0.4472 0)
(0.8944 0.4472 0)
(0.8944 0.4472 0)
(0.8944 0.4472 0)
(0.8944 0.4472 0)
(0.8944 0.4472 0)
(0.8944 0.4472 0)
(0.8944 0.4472 0)
(0.8944 0.4472 0)
(0.8944 0.4472 0)
(0.8944 0.4472 0)
(0.8944 0.4472 0)
(0.8944 0.4472 0)
(0.8944 0.4472 0)
(0.8944 0.4472 0)
(0.8944 0.4472 0)
(0.8944 0.4472 0)
(0.8944 0.4472 0)
(0.8944 0.4472 0)
(0.8944 0.4472 0)
(0.8944 0.4472 0)
(0.8944 0.4472 0)
(0.8944 0.4472 0)
(0.8944 0.4472 0)
(0.8944 0.4472 0)
(0.8944 0.4472 0)
(0.8944 0.4472 0)
(0.8944 0.4472 0)
(0.894401 0.4472 0)
(0.894401 0.4472 0)
(0.894402 0.447199 0)
(0.894403 0.447199 0)
(0.894405 0.447197 0)
(0.894408 0.447195 0)
(0.894413 0.447191 0)
(0.894422 0.447181 0)
(0.894436 0.447167 0)
(0.894458 0.447142 0)
(0.894494 0.447101 0)
(0.894549 0.447032 0)
(0.894634 0.446924 0)
(0.894769 0.446761 0)
(0.894968 0.44651 0)
(0.895267 0.446151 0)
(0.895708 0.445631 0)
(0.89634 0.444906 0)
(0.897241 0.443923 0)
(0.89849 0.442616 0)
(0.900199 0.440925 0)
(0.902481 0.438792 0)