/*--------------------------------*- C++ -*----------------------------------*\
  =========                 |
  \\      /  F ield         | OpenFOAM: The Open Source CFD Toolbox
   \\    /   O peration     | Website:  https://openfoam.org
    \\  /    A nd           | Version:  6
     \\/     M anipulation  |
\*---------------------------------------------------------------------------*/
FoamFile
{
    version     2.0;
    format      ascii;
    class       volVectorField;
    location    "3.82";
    object      U;
}
// * * * * * * * * * * * * * * * * * * * * * * * * * * * * * * * * * * * * * //

dimensions      [0 1 -1 0 0 0 0];

internalField   nonuniform List<vector> 
10000
(
(0.8944 0.4472 0)
(0.8944 0.4472 0)
(0.8944 0.4472 0)
(0.8944 0.4472 0)
(0.8944 0.4472 0)
(0.8944 0.4472 0)
(0.8944 0.4472 0)
(0.8944 0.4472 0)
(0.8944 0.4472 0)
(0.8944 0.4472 0)
(0.8944 0.4472 0)
(0.8944 0.4472 0)
(0.8944 0.4472 0)
(0.8944 0.4472 0)
(0.8944 0.4472 0)
(0.8944 0.4472 0)
(0.8944 0.4472 0)
(0.8944 0.4472 0)
(0.8944 0.4472 0)
(0.8944 0.4472 0)
(0.8944 0.4472 0)
(0.8944 0.4472 0)
(0.8944 0.4472 0)
(0.8944 0.4472 0)
(0.8944 0.4472 0)
(0.8944 0.4472 0)
(0.8944 0.4472 0)
(0.8944 0.4472 0)
(0.8944 0.4472 0)
(0.8944 0.4472 0)
(0.8944 0.4472 0)
(0.8944 0.4472 0)
(0.8944 0.4472 0)
(0.8944 0.4472 0)
(0.8944 0.4472 0)
(0.8944 0.4472 0)
(0.8944 0.4472 0)
(0.8944 0.4472 0)
(0.8944 0.4472 0)
(0.8944 0.447201 0)
(0.894399 0.447201 0)
(0.8944 0.447201 0)
(0.894399 0.447202 0)
(0.8944 0.447202 0)
(0.894401 0.447202 0)
(0.894403 0.447202 0)
(0.894405 0.447201 0)
(0.894409 0.447198 0)
(0.894415 0.447194 0)
(0.894422 0.447187 0)
(0.894429 0.447177 0)
(0.894437 0.447165 0)
(0.894444 0.447151 0)
(0.894447 0.447136 0)
(0.894447 0.447124 0)
(0.894442 0.447116 0)
(0.89443 0.447116 0)
(0.894411 0.447125 0)
(0.894387 0.447147 0)
(0.89436 0.447182 0)
(0.894331 0.44723 0)
(0.894303 0.447289 0)
(0.89428 0.447357 0)
(0.894263 0.447429 0)
(0.894255 0.4475 0)
(0.894256 0.447567 0)
(0.894267 0.447624 0)
(0.894286 0.447669 0)
(0.894312 0.447698 0)
(0.894342 0.44771 0)
(0.894374 0.447706 0)
(0.894405 0.447687 0)
(0.894433 0.447656 0)
(0.894456 0.447615 0)
(0.894473 0.447567 0)
(0.894483 0.447517 0)
(0.894488 0.447466 0)
(0.894487 0.447418 0)
(0.894481 0.447373 0)
(0.894473 0.447333 0)
(0.894463 0.447299 0)
(0.894452 0.447272 0)
(0.894441 0.44725 0)
(0.894431 0.447233 0)
(0.894423 0.447221 0)
(0.894416 0.447212 0)
(0.894411 0.447206 0)
(0.894407 0.447203 0)
(0.894404 0.447201 0)
(0.894402 0.4472 0)
(0.894401 0.447199 0)
(0.8944 0.447199 0)
(0.8944 0.447199 0)
(0.8944 0.447199 0)
(0.8944 0.4472 0)
(0.8944 0.4472 0)
(0.8944 0.4472 0)
(0.8944 0.4472 0)
(0.8944 0.4472 0)
(0.8944 0.4472 0)
(0.8944 0.4472 0)
(0.8944 0.4472 0)
(0.8944 0.4472 0)
(0.8944 0.4472 0)
(0.8944 0.4472 0)
(0.8944 0.4472 0)
(0.8944 0.4472 0)
(0.8944 0.4472 0)
(0.8944 0.4472 0)
(0.8944 0.4472 0)
(0.8944 0.4472 0)
(0.8944 0.4472 0)
(0.8944 0.4472 0)
(0.8944 0.4472 0)
(0.8944 0.4472 0)
(0.8944 0.4472 0)
(0.8944 0.4472 0)
(0.8944 0.4472 0)
(0.8944 0.4472 0)
(0.8944 0.4472 0)
(0.8944 0.4472 0)
(0.8944 0.4472 0)
(0.8944 0.4472 0)
(0.8944 0.4472 0)
(0.8944 0.4472 0)
(0.8944 0.4472 0)
(0.8944 0.4472 0)
(0.8944 0.4472 0)
(0.8944 0.4472 0)
(0.8944 0.4472 0)
(0.8944 0.4472 0)
(0.8944 0.4472 0)
(0.8944 0.4472 0)
(0.8944 0.4472 0)
(0.8944 0.4472 0)
(0.8944 0.4472 0)
(0.8944 0.4472 0)
(0.8944 0.4472 0)
(0.8944 0.447201 0)
(0.894399 0.447201 0)
(0.894399 0.447201 0)
(0.894399 0.447202 0)
(0.894399 0.447203 0)
(0.894399 0.447203 0)
(0.894401 0.447204 0)
(0.894403 0.447204 0)
(0.894407 0.447203 0)
(0.894412 0.447199 0)
(0.894419 0.447194 0)
(0.894428 0.447186 0)
(0.894438 0.447174 0)
(0.894448 0.44716 0)
(0.894455 0.447146 0)
(0.894457 0.447133 0)
(0.894454 0.447124 0)
(0.894442 0.447125 0)
(0.894422 0.447138 0)
(0.894393 0.447166 0)
(0.894358 0.447213 0)
(0.894319 0.447278 0)
(0.89428 0.447361 0)
(0.894244 0.447457 0)
(0.894216 0.447562 0)
(0.894198 0.447668 0)
(0.894193 0.447771 0)
(0.894202 0.447862 0)
(0.894223 0.447936 0)
(0.894256 0.447988 0)
(0.894296 0.448016 0)
(0.894342 0.448018 0)
(0.894387 0.447995 0)
(0.89443 0.447952 0)
(0.894467 0.447892 0)
(0.894497 0.44782 0)
(0.894518 0.447742 0)
(0.894529 0.447661 0)
(0.894533 0.447582 0)
(0.894529 0.447509 0)
(0.894519 0.447442 0)
(0.894505 0.447385 0)
(0.89449 0.447336 0)
(0.894473 0.447297 0)
(0.894458 0.447266 0)
(0.894444 0.447243 0)
(0.894432 0.447226 0)
(0.894422 0.447215 0)
(0.894415 0.447207 0)
(0.894409 0.447203 0)
(0.894405 0.4472 0)
(0.894403 0.447199 0)
(0.894401 0.447198 0)
(0.8944 0.447198 0)
(0.8944 0.447199 0)
(0.8944 0.447199 0)
(0.8944 0.447199 0)
(0.8944 0.447199 0)
(0.8944 0.4472 0)
(0.8944 0.4472 0)
(0.8944 0.4472 0)
(0.8944 0.4472 0)
(0.8944 0.4472 0)
(0.8944 0.4472 0)
(0.8944 0.4472 0)
(0.8944 0.4472 0)
(0.8944 0.4472 0)
(0.8944 0.4472 0)
(0.8944 0.4472 0)
(0.8944 0.4472 0)
(0.8944 0.4472 0)
(0.8944 0.4472 0)
(0.8944 0.4472 0)
(0.8944 0.4472 0)
(0.8944 0.4472 0)
(0.8944 0.4472 0)
(0.8944 0.4472 0)
(0.8944 0.4472 0)
(0.8944 0.4472 0)
(0.8944 0.4472 0)
(0.8944 0.4472 0)
(0.8944 0.4472 0)
(0.8944 0.4472 0)
(0.8944 0.4472 0)
(0.8944 0.4472 0)
(0.8944 0.4472 0)
(0.8944 0.4472 0)
(0.8944 0.4472 0)
(0.8944 0.4472 0)
(0.8944 0.4472 0)
(0.8944 0.4472 0)
(0.8944 0.4472 0)
(0.8944 0.4472 0)
(0.8944 0.4472 0)
(0.8944 0.4472 0)
(0.8944 0.4472 0)
(0.8944 0.4472 0)
(0.8944 0.4472 0)
(0.8944 0.4472 0)
(0.8944 0.4472 0)
(0.894399 0.447201 0)
(0.894399 0.447201 0)
(0.894399 0.447202 0)
(0.894399 0.447203 0)
(0.894398 0.447204 0)
(0.894399 0.447205 0)
(0.8944 0.447206 0)
(0.894404 0.447207 0)
(0.894408 0.447205 0)
(0.894415 0.447202 0)
(0.894425 0.447196 0)
(0.894436 0.447186 0)
(0.894448 0.447174 0)
(0.894458 0.44716 0)
(0.894465 0.447148 0)
(0.894463 0.44714 0)
(0.894453 0.447143 0)
(0.894431 0.447161 0)
(0.894398 0.447199 0)
(0.894354 0.447262 0)
(0.894302 0.447351 0)
(0.894248 0.447466 0)
(0.894195 0.447603 0)
(0.89415 0.447756 0)
(0.894118 0.447916 0)
(0.894102 0.448075 0)
(0.894106 0.448221 0)
(0.894128 0.448346 0)
(0.894168 0.448441 0)
(0.894222 0.4485 0)
(0.894286 0.44852 0)
(0.894354 0.448501 0)
(0.89442 0.448447 0)
(0.894479 0.448362 0)
(0.894529 0.448255 0)
(0.894567 0.448133 0)
(0.894591 0.448004 0)
(0.894602 0.447875 0)
(0.894601 0.447753 0)
(0.894591 0.447641 0)
(0.894574 0.447542 0)
(0.894552 0.447458 0)
(0.894528 0.447388 0)
(0.894504 0.447332 0)
(0.894481 0.447289 0)
(0.894461 0.447257 0)
(0.894444 0.447234 0)
(0.89443 0.447218 0)
(0.89442 0.447208 0)
(0.894412 0.447202 0)
(0.894407 0.447199 0)
(0.894403 0.447197 0)
(0.894401 0.447197 0)
(0.8944 0.447197 0)
(0.8944 0.447198 0)
(0.894399 0.447198 0)
(0.894399 0.447199 0)
(0.8944 0.447199 0)
(0.8944 0.447199 0)
(0.8944 0.4472 0)
(0.8944 0.4472 0)
(0.8944 0.4472 0)
(0.8944 0.4472 0)
(0.8944 0.4472 0)
(0.8944 0.4472 0)
(0.8944 0.4472 0)
(0.8944 0.4472 0)
(0.8944 0.4472 0)
(0.8944 0.4472 0)
(0.8944 0.4472 0)
(0.8944 0.4472 0)
(0.8944 0.4472 0)
(0.8944 0.4472 0)
(0.8944 0.4472 0)
(0.8944 0.4472 0)
(0.8944 0.4472 0)
(0.8944 0.4472 0)
(0.8944 0.4472 0)
(0.8944 0.4472 0)
(0.8944 0.4472 0)
(0.8944 0.4472 0)
(0.8944 0.4472 0)
(0.8944 0.4472 0)
(0.8944 0.4472 0)
(0.8944 0.4472 0)
(0.8944 0.4472 0)
(0.8944 0.4472 0)
(0.8944 0.4472 0)
(0.8944 0.4472 0)
(0.8944 0.4472 0)
(0.8944 0.4472 0)
(0.8944 0.4472 0)
(0.8944 0.4472 0)
(0.8944 0.4472 0)
(0.8944 0.4472 0)
(0.8944 0.4472 0)
(0.8944 0.4472 0)
(0.8944 0.4472 0)
(0.8944 0.4472 0)
(0.894399 0.447201 0)
(0.894399 0.447201 0)
(0.894398 0.447202 0)
(0.894398 0.447203 0)
(0.894397 0.447205 0)
(0.894397 0.447206 0)
(0.894398 0.447208 0)
(0.8944 0.44721 0)
(0.894404 0.447211 0)
(0.89441 0.44721 0)
(0.894419 0.447206 0)
(0.894431 0.4472 0)
(0.894445 0.447191 0)
(0.894458 0.44718 0)
(0.894467 0.447169 0)
(0.89447 0.447164 0)
(0.894461 0.44717 0)
(0.894438 0.447194 0)
(0.894399 0.447245 0)
(0.894345 0.447328 0)
(0.894278 0.447448 0)
(0.894203 0.447605 0)
(0.894127 0.447798 0)
(0.894058 0.448018 0)
(0.894004 0.448256 0)
(0.89397 0.448499 0)
(0.893962 0.448732 0)
(0.893981 0.44894 0)
(0.894028 0.44911 0)
(0.894098 0.44923 0)
(0.894187 0.449295 0)
(0.894287 0.4493 0)
(0.894388 0.449246 0)
(0.894484 0.44914 0)
(0.894568 0.44899 0)
(0.894634 0.448808 0)
(0.894681 0.448607 0)
(0.894708 0.448399 0)
(0.894715 0.448196 0)
(0.894707 0.448007 0)
(0.894686 0.447836 0)
(0.894656 0.447687 0)
(0.894621 0.447562 0)
(0.894584 0.447461 0)
(0.894547 0.447381 0)
(0.894514 0.44732 0)
(0.894485 0.447275 0)
(0.894461 0.447243 0)
(0.894441 0.447222 0)
(0.894427 0.447209 0)
(0.894416 0.447201 0)
(0.894409 0.447197 0)
(0.894404 0.447195 0)
(0.894401 0.447195 0)
(0.8944 0.447196 0)
(0.894399 0.447196 0)
(0.894399 0.447197 0)
(0.894399 0.447198 0)
(0.894399 0.447199 0)
(0.894399 0.447199 0)
(0.8944 0.447199 0)
(0.8944 0.4472 0)
(0.8944 0.4472 0)
(0.8944 0.4472 0)
(0.8944 0.4472 0)
(0.8944 0.4472 0)
(0.8944 0.4472 0)
(0.8944 0.4472 0)
(0.8944 0.4472 0)
(0.8944 0.4472 0)
(0.8944 0.4472 0)
(0.8944 0.4472 0)
(0.8944 0.4472 0)
(0.8944 0.4472 0)
(0.8944 0.4472 0)
(0.8944 0.4472 0)
(0.8944 0.4472 0)
(0.8944 0.4472 0)
(0.8944 0.4472 0)
(0.8944 0.4472 0)
(0.8944 0.4472 0)
(0.8944 0.4472 0)
(0.8944 0.4472 0)
(0.8944 0.4472 0)
(0.8944 0.4472 0)
(0.8944 0.4472 0)
(0.8944 0.4472 0)
(0.8944 0.4472 0)
(0.8944 0.4472 0)
(0.8944 0.4472 0)
(0.8944 0.4472 0)
(0.8944 0.4472 0)
(0.8944 0.4472 0)
(0.8944 0.4472 0)
(0.8944 0.4472 0)
(0.8944 0.4472 0)
(0.8944 0.4472 0)
(0.8944 0.4472 0)
(0.8944 0.4472 0)
(0.8944 0.447201 0)
(0.894399 0.447201 0)
(0.894399 0.447202 0)
(0.894398 0.447203 0)
(0.894397 0.447205 0)
(0.894396 0.447207 0)
(0.894396 0.447209 0)
(0.894396 0.447212 0)
(0.894398 0.447215 0)
(0.894403 0.447217 0)
(0.894411 0.447217 0)
(0.894423 0.447214 0)
(0.894437 0.447209 0)
(0.894452 0.447201 0)
(0.894465 0.447194 0)
(0.89447 0.447193 0)
(0.894464 0.447203 0)
(0.89444 0.447236 0)
(0.894396 0.447301 0)
(0.894329 0.447408 0)
(0.894243 0.447565 0)
(0.894143 0.447775 0)
(0.894035 0.448039 0)
(0.893932 0.448348 0)
(0.893843 0.448692 0)
(0.893779 0.449054 0)
(0.893748 0.449413 0)
(0.893757 0.449749 0)
(0.893805 0.450041 0)
(0.893892 0.450271 0)
(0.894011 0.450426 0)
(0.894152 0.450494 0)
(0.894305 0.450473 0)
(0.894458 0.450365 0)
(0.894598 0.45018 0)
(0.894716 0.449931 0)
(0.894806 0.449637 0)
(0.894865 0.449318 0)
(0.894892 0.448992 0)
(0.894892 0.448676 0)
(0.894868 0.448384 0)
(0.894828 0.448124 0)
(0.894777 0.447901 0)
(0.894721 0.447715 0)
(0.894664 0.447567 0)
(0.894609 0.447451 0)
(0.89456 0.447364 0)
(0.894518 0.4473 0)
(0.894483 0.447256 0)
(0.894456 0.447227 0)
(0.894436 0.447209 0)
(0.894421 0.447199 0)
(0.894411 0.447194 0)
(0.894405 0.447192 0)
(0.894401 0.447192 0)
(0.894399 0.447193 0)
(0.894398 0.447195 0)
(0.894398 0.447196 0)
(0.894398 0.447197 0)
(0.894399 0.447198 0)
(0.894399 0.447199 0)
(0.894399 0.447199 0)
(0.8944 0.447199 0)
(0.8944 0.4472 0)
(0.8944 0.4472 0)
(0.8944 0.4472 0)
(0.8944 0.4472 0)
(0.8944 0.4472 0)
(0.8944 0.4472 0)
(0.8944 0.4472 0)
(0.8944 0.4472 0)
(0.8944 0.4472 0)
(0.8944 0.4472 0)
(0.8944 0.4472 0)
(0.8944 0.4472 0)
(0.8944 0.4472 0)
(0.8944 0.4472 0)
(0.8944 0.4472 0)
(0.8944 0.4472 0)
(0.8944 0.4472 0)
(0.8944 0.4472 0)
(0.8944 0.4472 0)
(0.8944 0.4472 0)
(0.8944 0.4472 0)
(0.8944 0.4472 0)
(0.8944 0.4472 0)
(0.8944 0.4472 0)
(0.8944 0.4472 0)
(0.8944 0.4472 0)
(0.8944 0.4472 0)
(0.8944 0.4472 0)
(0.8944 0.4472 0)
(0.8944 0.4472 0)
(0.8944 0.4472 0)
(0.8944 0.4472 0)
(0.8944 0.4472 0)
(0.8944 0.4472 0)
(0.8944 0.4472 0)
(0.8944 0.4472 0)
(0.894399 0.4472 0)
(0.894399 0.447201 0)
(0.894398 0.447201 0)
(0.894398 0.447203 0)
(0.894396 0.447204 0)
(0.894395 0.447207 0)
(0.894394 0.44721 0)
(0.894393 0.447214 0)
(0.894394 0.447218 0)
(0.894396 0.447222 0)
(0.894402 0.447226 0)
(0.894412 0.447227 0)
(0.894425 0.447226 0)
(0.894441 0.447224 0)
(0.894456 0.447222 0)
(0.894464 0.447225 0)
(0.89446 0.447241 0)
(0.894437 0.447282 0)
(0.894387 0.447362 0)
(0.894308 0.447494 0)
(0.894198 0.447692 0)
(0.894065 0.447965 0)
(0.893915 0.448314 0)
(0.893764 0.448734 0)
(0.893625 0.449214 0)
(0.893513 0.449733 0)
(0.893442 0.450266 0)
(0.893423 0.450784 0)
(0.893461 0.451259 0)
(0.893557 0.451663 0)
(0.893705 0.451972 0)
(0.893897 0.452167 0)
(0.894117 0.452237 0)
(0.89435 0.452179 0)
(0.894577 0.451995 0)
(0.894782 0.451699 0)
(0.894952 0.451311 0)
(0.895075 0.450857 0)
(0.89515 0.450366 0)
(0.895177 0.449867 0)
(0.895162 0.449386 0)
(0.895114 0.448943 0)
(0.895043 0.448551 0)
(0.894959 0.448217 0)
(0.894869 0.447941 0)
(0.894781 0.447722 0)
(0.894699 0.447553 0)
(0.894626 0.447428 0)
(0.894565 0.447338 0)
(0.894515 0.447276 0)
(0.894477 0.447235 0)
(0.894448 0.44721 0)
(0.894428 0.447196 0)
(0.894414 0.44719 0)
(0.894405 0.447188 0)
(0.8944 0.447188 0)
(0.894398 0.44719 0)
(0.894397 0.447192 0)
(0.894397 0.447194 0)
(0.894398 0.447196 0)
(0.894398 0.447197 0)
(0.894399 0.447198 0)
(0.894399 0.447199 0)
(0.894399 0.447199 0)
(0.8944 0.4472 0)
(0.8944 0.4472 0)
(0.8944 0.4472 0)
(0.8944 0.4472 0)
(0.8944 0.4472 0)
(0.8944 0.4472 0)
(0.8944 0.4472 0)
(0.8944 0.4472 0)
(0.8944 0.4472 0)
(0.8944 0.4472 0)
(0.8944 0.4472 0)
(0.8944 0.4472 0)
(0.8944 0.4472 0)
(0.8944 0.4472 0)
(0.8944 0.4472 0)
(0.8944 0.4472 0)
(0.8944 0.4472 0)
(0.8944 0.4472 0)
(0.8944 0.4472 0)
(0.8944 0.4472 0)
(0.8944 0.4472 0)
(0.8944 0.4472 0)
(0.8944 0.4472 0)
(0.8944 0.4472 0)
(0.8944 0.4472 0)
(0.8944 0.4472 0)
(0.8944 0.4472 0)
(0.8944 0.4472 0)
(0.8944 0.4472 0)
(0.8944 0.4472 0)
(0.8944 0.4472 0)
(0.8944 0.4472 0)
(0.8944 0.4472 0)
(0.8944 0.4472 0)
(0.8944 0.4472 0)
(0.894399 0.4472 0)
(0.894399 0.447201 0)
(0.894399 0.447201 0)
(0.894398 0.447202 0)
(0.894396 0.447204 0)
(0.894395 0.447206 0)
(0.894393 0.44721 0)
(0.894391 0.447214 0)
(0.894389 0.447219 0)
(0.89439 0.447226 0)
(0.894393 0.447232 0)
(0.8944 0.447238 0)
(0.894411 0.447242 0)
(0.894425 0.447246 0)
(0.89444 0.447249 0)
(0.894451 0.447258 0)
(0.89445 0.447281 0)
(0.894426 0.447329 0)
(0.894372 0.447423 0)
(0.89428 0.447579 0)
(0.894145 0.447819 0)
(0.893971 0.448157 0)
(0.893769 0.448602 0)
(0.893553 0.449153 0)
(0.893342 0.449797 0)
(0.893159 0.450512 0)
(0.893023 0.451267 0)
(0.892951 0.452027 0)
(0.892956 0.452753 0)
(0.893043 0.453405 0)
(0.89321 0.453949 0)
(0.893449 0.454356 0)
(0.893745 0.454602 0)
(0.894078 0.454674 0)
(0.894425 0.454566 0)
(0.89476 0.454284 0)
(0.89506 0.453843 0)
(0.895304 0.45327 0)
(0.895478 0.4526 0)
(0.895577 0.451874 0)
(0.895604 0.451135 0)
(0.895567 0.450421 0)
(0.895482 0.449761 0)
(0.895364 0.449178 0)
(0.895228 0.448682 0)
(0.895088 0.448275 0)
(0.894952 0.447952 0)
(0.894829 0.447706 0)
(0.894721 0.447523 0)
(0.894632 0.447393 0)
(0.89456 0.447305 0)
(0.894505 0.447247 0)
(0.894465 0.447212 0)
(0.894436 0.447193 0)
(0.894418 0.447184 0)
(0.894406 0.447182 0)
(0.894399 0.447183 0)
(0.894396 0.447185 0)
(0.894395 0.447188 0)
(0.894395 0.447191 0)
(0.894396 0.447194 0)
(0.894397 0.447196 0)
(0.894398 0.447197 0)
(0.894398 0.447198 0)
(0.894399 0.447199 0)
(0.894399 0.447199 0)
(0.894399 0.447199 0)
(0.8944 0.4472 0)
(0.8944 0.4472 0)
(0.8944 0.4472 0)
(0.8944 0.4472 0)
(0.8944 0.4472 0)
(0.8944 0.4472 0)
(0.8944 0.4472 0)
(0.8944 0.4472 0)
(0.8944 0.4472 0)
(0.8944 0.4472 0)
(0.8944 0.4472 0)
(0.8944 0.4472 0)
(0.8944 0.4472 0)
(0.8944 0.4472 0)
(0.8944 0.4472 0)
(0.8944 0.4472 0)
(0.8944 0.4472 0)
(0.8944 0.4472 0)
(0.8944 0.4472 0)
(0.8944 0.4472 0)
(0.8944 0.4472 0)
(0.8944 0.4472 0)
(0.8944 0.4472 0)
(0.8944 0.4472 0)
(0.8944 0.4472 0)
(0.8944 0.4472 0)
(0.8944 0.4472 0)
(0.8944 0.4472 0)
(0.8944 0.4472 0)
(0.8944 0.4472 0)
(0.8944 0.4472 0)
(0.8944 0.4472 0)
(0.8944 0.4472 0)
(0.894399 0.4472 0)
(0.894399 0.447201 0)
(0.894398 0.447202 0)
(0.894397 0.447203 0)
(0.894394 0.447205 0)
(0.894392 0.447208 0)
(0.894389 0.447213 0)
(0.894386 0.447219 0)
(0.894384 0.447227 0)
(0.894384 0.447236 0)
(0.894387 0.447246 0)
(0.894395 0.447255 0)
(0.894406 0.447264 0)
(0.89442 0.447274 0)
(0.894432 0.447289 0)
(0.894432 0.447318 0)
(0.89441 0.447374 0)
(0.894352 0.447478 0)
(0.894247 0.447655 0)
(0.894086 0.447933 0)
(0.893868 0.448335 0)
(0.893601 0.448879 0)
(0.893303 0.44957 0)
(0.892997 0.4504 0)
(0.892712 0.451346 0)
(0.892477 0.452369 0)
(0.892318 0.453427 0)
(0.892256 0.45447 0)
(0.892302 0.455447 0)
(0.892463 0.456311 0)
(0.892732 0.45702 0)
(0.893097 0.45754 0)
(0.893536 0.457846 0)
(0.894023 0.457921 0)
(0.894526 0.457757 0)
(0.895013 0.457361 0)
(0.895448 0.456748 0)
(0.895802 0.455949 0)
(0.896053 0.455009 0)
(0.896193 0.453981 0)
(0.896224 0.452924 0)
(0.89616 0.451893 0)
(0.896022 0.450936 0)
(0.895836 0.450085 0)
(0.895625 0.449359 0)
(0.895408 0.448763 0)
(0.895203 0.448292 0)
(0.895018 0.447932 0)
(0.894859 0.447666 0)
(0.894728 0.447478 0)
(0.894624 0.44735 0)
(0.894546 0.447268 0)
(0.894488 0.447218 0)
(0.894449 0.447191 0)
(0.894422 0.447178 0)
(0.894407 0.447174 0)
(0.894398 0.447176 0)
(0.894394 0.447179 0)
(0.894393 0.447183 0)
(0.894393 0.447188 0)
(0.894394 0.447191 0)
(0.894395 0.447194 0)
(0.894397 0.447196 0)
(0.894398 0.447197 0)
(0.894398 0.447198 0)
(0.894399 0.447199 0)
(0.894399 0.447199 0)
(0.894399 0.4472 0)
(0.8944 0.4472 0)
(0.8944 0.4472 0)
(0.8944 0.4472 0)
(0.8944 0.4472 0)
(0.8944 0.4472 0)
(0.8944 0.4472 0)
(0.8944 0.4472 0)
(0.8944 0.4472 0)
(0.8944 0.4472 0)
(0.8944 0.4472 0)
(0.8944 0.4472 0)
(0.8944 0.4472 0)
(0.8944 0.4472 0)
(0.8944 0.4472 0)
(0.8944 0.4472 0)
(0.8944 0.4472 0)
(0.8944 0.4472 0)
(0.8944 0.4472 0)
(0.8944 0.4472 0)
(0.8944 0.4472 0)
(0.8944 0.4472 0)
(0.8944 0.4472 0)
(0.8944 0.4472 0)
(0.8944 0.4472 0)
(0.8944 0.4472 0)
(0.8944 0.4472 0)
(0.8944 0.4472 0)
(0.8944 0.4472 0)
(0.8944 0.4472 0)
(0.8944 0.4472 0)
(0.8944 0.4472 0)
(0.8944 0.4472 0)
(0.894399 0.447201 0)
(0.894398 0.447201 0)
(0.894397 0.447203 0)
(0.894395 0.447204 0)
(0.894392 0.447207 0)
(0.894389 0.447212 0)
(0.894385 0.447218 0)
(0.89438 0.447227 0)
(0.894377 0.447237 0)
(0.894376 0.44725 0)
(0.894378 0.447263 0)
(0.894386 0.447278 0)
(0.894397 0.447295 0)
(0.894407 0.447316 0)
(0.894408 0.44735 0)
(0.894388 0.447412 0)
(0.894329 0.447523 0)
(0.894214 0.447714 0)
(0.894028 0.44802 0)
(0.893763 0.448478 0)
(0.893424 0.449116 0)
(0.893027 0.44995 0)
(0.8926 0.450977 0)
(0.89218 0.452174 0)
(0.891806 0.453502 0)
(0.891516 0.454905 0)
(0.891341 0.456322 0)
(0.891303 0.457688 0)
(0.891416 0.458943 0)
(0.891679 0.460034 0)
(0.892084 0.460916 0)
(0.892612 0.461555 0)
(0.893236 0.461924 0)
(0.893922 0.462007 0)
(0.894632 0.461793 0)
(0.895321 0.461283 0)
(0.895944 0.460492 0)
(0.896458 0.459447 0)
(0.89683 0.458198 0)
(0.897041 0.45681 0)
(0.897091 0.45536 0)
(0.896999 0.453927 0)
(0.896795 0.452579 0)
(0.896516 0.451368 0)
(0.896198 0.450328 0)
(0.895874 0.449469 0)
(0.895567 0.448786 0)
(0.895292 0.448264 0)
(0.895058 0.44788 0)
(0.894866 0.447607 0)
(0.894717 0.447422 0)
(0.894604 0.447303 0)
(0.894522 0.44723 0)
(0.894466 0.447191 0)
(0.89443 0.447172 0)
(0.894408 0.447166 0)
(0.894396 0.447167 0)
(0.89439 0.447172 0)
(0.894389 0.447177 0)
(0.89439 0.447183 0)
(0.894391 0.447188 0)
(0.894393 0.447191 0)
(0.894395 0.447194 0)
(0.894397 0.447196 0)
(0.894398 0.447198 0)
(0.894399 0.447199 0)
(0.894399 0.447199 0)
(0.894399 0.447199 0)
(0.8944 0.4472 0)
(0.8944 0.4472 0)
(0.8944 0.4472 0)
(0.8944 0.4472 0)
(0.8944 0.4472 0)
(0.8944 0.4472 0)
(0.8944 0.4472 0)
(0.8944 0.4472 0)
(0.8944 0.4472 0)
(0.8944 0.4472 0)
(0.8944 0.4472 0)
(0.8944 0.4472 0)
(0.8944 0.4472 0)
(0.8944 0.4472 0)
(0.8944 0.4472 0)
(0.8944 0.4472 0)
(0.8944 0.4472 0)
(0.8944 0.4472 0)
(0.8944 0.4472 0)
(0.8944 0.4472 0)
(0.8944 0.4472 0)
(0.8944 0.4472 0)
(0.8944 0.4472 0)
(0.8944 0.4472 0)
(0.8944 0.4472 0)
(0.8944 0.4472 0)
(0.8944 0.4472 0)
(0.8944 0.4472 0)
(0.8944 0.4472 0)
(0.8944 0.4472 0)
(0.8944 0.4472 0)
(0.894399 0.447201 0)
(0.894399 0.447201 0)
(0.894397 0.447202 0)
(0.894396 0.447204 0)
(0.894393 0.447206 0)
(0.894389 0.44721 0)
(0.894384 0.447216 0)
(0.894378 0.447225 0)
(0.894372 0.447236 0)
(0.894367 0.44725 0)
(0.894365 0.447267 0)
(0.894365 0.447287 0)
(0.894371 0.447309 0)
(0.894378 0.447336 0)
(0.894379 0.447375 0)
(0.894359 0.447441 0)
(0.894302 0.447555 0)
(0.894182 0.447752 0)
(0.893976 0.448075 0)
(0.893668 0.448572 0)
(0.893253 0.449288 0)
(0.892745 0.450252 0)
(0.892174 0.451472 0)
(0.891585 0.45293 0)
(0.891028 0.454582 0)
(0.890557 0.456361 0)
(0.890216 0.458189 0)
(0.89004 0.459986 0)
(0.890051 0.461677 0)
(0.890257 0.463196 0)
(0.890653 0.464492 0)
(0.891225 0.465526 0)
(0.89195 0.466268 0)
(0.892795 0.466696 0)
(0.893723 0.466795 0)
(0.894688 0.466553 0)
(0.895637 0.465961 0)
(0.896512 0.465023 0)
(0.897252 0.463755 0)
(0.897807 0.462202 0)
(0.898141 0.460434 0)
(0.898246 0.458542 0)
(0.89814 0.456631 0)
(0.897863 0.4548 0)
(0.897469 0.45313 0)
(0.897011 0.451676 0)
(0.896539 0.450464 0)
(0.896089 0.449493 0)
(0.895687 0.448747 0)
(0.895345 0.448194 0)
(0.895067 0.447802 0)
(0.89485 0.447534 0)
(0.894688 0.447361 0)
(0.894572 0.447255 0)
(0.894492 0.447195 0)
(0.894441 0.447167 0)
(0.89441 0.447157 0)
(0.894393 0.447157 0)
(0.894386 0.447163 0)
(0.894384 0.44717 0)
(0.894385 0.447177 0)
(0.894388 0.447183 0)
(0.894391 0.447188 0)
(0.894393 0.447192 0)
(0.894395 0.447195 0)
(0.894397 0.447197 0)
(0.894398 0.447198 0)
(0.894398 0.447198 0)
(0.894399 0.447199 0)
(0.894399 0.447199 0)
(0.8944 0.4472 0)
(0.8944 0.4472 0)
(0.8944 0.4472 0)
(0.8944 0.4472 0)
(0.8944 0.4472 0)
(0.8944 0.4472 0)
(0.8944 0.4472 0)
(0.8944 0.4472 0)
(0.8944 0.4472 0)
(0.8944 0.4472 0)
(0.8944 0.4472 0)
(0.8944 0.4472 0)
(0.8944 0.4472 0)
(0.8944 0.4472 0)
(0.8944 0.4472 0)
(0.8944 0.4472 0)
(0.8944 0.4472 0)
(0.8944 0.4472 0)
(0.8944 0.4472 0)
(0.8944 0.4472 0)
(0.8944 0.4472 0)
(0.8944 0.4472 0)
(0.8944 0.4472 0)
(0.8944 0.4472 0)
(0.8944 0.4472 0)
(0.8944 0.4472 0)
(0.8944 0.4472 0)
(0.8944 0.4472 0)
(0.8944 0.4472 0)
(0.894399 0.4472 0)
(0.894399 0.447201 0)
(0.894398 0.447201 0)
(0.894396 0.447202 0)
(0.894394 0.447205 0)
(0.89439 0.447208 0)
(0.894385 0.447213 0)
(0.894378 0.447221 0)
(0.894369 0.447233 0)
(0.894361 0.447247 0)
(0.894353 0.447266 0)
(0.894349 0.447289 0)
(0.894347 0.447316 0)
(0.894349 0.447348 0)
(0.894346 0.447393 0)
(0.894328 0.44746 0)
(0.894273 0.447573 0)
(0.894153 0.447767 0)
(0.893936 0.448092 0)
(0.893593 0.448608 0)
(0.893108 0.449375 0)
(0.892484 0.450443 0)
(0.891751 0.451836 0)
(0.890961 0.453545 0)
(0.890179 0.45552 0)
(0.889475 0.457685 0)
(0.888911 0.45994 0)
(0.888539 0.462184 0)
(0.888389 0.464319 0)
(0.888477 0.466267 0)
(0.888802 0.46797 0)
(0.889353 0.469391 0)
(0.89011 0.470508 0)
(0.891048 0.471306 0)
(0.892134 0.471776 0)
(0.89333 0.471905 0)
(0.894588 0.471679 0)
(0.895851 0.471076 0)
(0.897047 0.470079 0)
(0.898098 0.468682 0)
(0.898925 0.466904 0)
(0.899466 0.464805 0)
(0.899694 0.462483 0)
(0.899618 0.460064 0)
(0.899283 0.457685 0)
(0.898761 0.455465 0)
(0.898131 0.453496 0)
(0.897466 0.451829 0)
(0.896825 0.450479 0)
(0.896247 0.44943 0)
(0.895755 0.448648 0)
(0.895355 0.448088 0)
(0.895043 0.447704 0)
(0.894811 0.447453 0)
(0.894645 0.447298 0)
(0.894532 0.44721 0)
(0.894459 0.447166 0)
(0.894415 0.447148 0)
(0.894391 0.447146 0)
(0.894381 0.447152 0)
(0.894378 0.447161 0)
(0.89438 0.44717 0)
(0.894383 0.447178 0)
(0.894387 0.447185 0)
(0.89439 0.44719 0)
(0.894393 0.447193 0)
(0.894395 0.447196 0)
(0.894397 0.447197 0)
(0.894397 0.447198 0)
(0.894398 0.447199 0)
(0.894399 0.447199 0)
(0.894399 0.4472 0)
(0.8944 0.4472 0)
(0.8944 0.4472 0)
(0.8944 0.4472 0)
(0.8944 0.4472 0)
(0.8944 0.4472 0)
(0.8944 0.4472 0)
(0.8944 0.4472 0)
(0.8944 0.4472 0)
(0.8944 0.4472 0)
(0.8944 0.4472 0)
(0.8944 0.4472 0)
(0.8944 0.4472 0)
(0.8944 0.4472 0)
(0.8944 0.4472 0)
(0.8944 0.4472 0)
(0.8944 0.4472 0)
(0.8944 0.4472 0)
(0.8944 0.4472 0)
(0.8944 0.4472 0)
(0.8944 0.4472 0)
(0.8944 0.4472 0)
(0.8944 0.4472 0)
(0.8944 0.4472 0)
(0.8944 0.4472 0)
(0.8944 0.4472 0)
(0.8944 0.4472 0)
(0.8944 0.4472 0)
(0.894399 0.4472 0)
(0.894399 0.447201 0)
(0.894399 0.447201 0)
(0.894397 0.447202 0)
(0.894395 0.447203 0)
(0.894392 0.447206 0)
(0.894386 0.44721 0)
(0.894379 0.447218 0)
(0.89437 0.447227 0)
(0.894358 0.447242 0)
(0.894347 0.447261 0)
(0.894336 0.447286 0)
(0.894327 0.447315 0)
(0.894321 0.447352 0)
(0.894314 0.447399 0)
(0.894294 0.447468 0)
(0.894243 0.447577 0)
(0.894128 0.447762 0)
(0.89391 0.448074 0)
(0.893547 0.448583 0)
(0.893005 0.449368 0)
(0.892273 0.4505 0)
(0.891373 0.452028 0)
(0.890359 0.453955 0)
(0.889312 0.456235 0)
(0.888324 0.458775 0)
(0.887482 0.461451 0)
(0.886855 0.464128 0)
(0.886487 0.466681 0)
(0.886399 0.469011 0)
(0.886591 0.471052 0)
(0.887048 0.472772 0)
(0.887753 0.474167 0)
(0.888684 0.475246 0)
(0.889819 0.476021 0)
(0.891132 0.476499 0)
(0.892592 0.476676 0)
(0.894157 0.476533 0)
(0.895771 0.476035 0)
(0.897356 0.475134 0)
(0.898814 0.473783 0)
(0.90003 0.471959 0)
(0.900905 0.469686 0)
(0.90137 0.467046 0)
(0.901413 0.464176 0)
(0.901074 0.461245 0)
(0.900441 0.458426 0)
(0.899621 0.455859 0)
(0.898723 0.453639 0)
(0.897837 0.451811 0)
(0.897028 0.450371 0)
(0.896331 0.449284 0)
(0.895763 0.448498 0)
(0.895319 0.447955 0)
(0.894988 0.447596 0)
(0.894752 0.447371 0)
(0.894591 0.447241 0)
(0.894487 0.447172 0)
(0.894424 0.447143 0)
(0.89439 0.447136 0)
(0.894375 0.447141 0)
(0.894371 0.447151 0)
(0.894372 0.447162 0)
(0.894377 0.447172 0)
(0.894382 0.44718 0)
(0.894387 0.447187 0)
(0.894391 0.447191 0)
(0.894394 0.447194 0)
(0.894396 0.447197 0)
(0.894396 0.447197 0)
(0.894398 0.447198 0)
(0.894399 0.447199 0)
(0.894399 0.4472 0)
(0.8944 0.4472 0)
(0.8944 0.4472 0)
(0.8944 0.4472 0)
(0.8944 0.4472 0)
(0.8944 0.4472 0)
(0.8944 0.4472 0)
(0.8944 0.4472 0)
(0.8944 0.4472 0)
(0.8944 0.4472 0)
(0.8944 0.4472 0)
(0.8944 0.4472 0)
(0.8944 0.4472 0)
(0.8944 0.4472 0)
(0.8944 0.4472 0)
(0.8944 0.4472 0)
(0.8944 0.4472 0)
(0.8944 0.4472 0)
(0.8944 0.4472 0)
(0.8944 0.4472 0)
(0.8944 0.4472 0)
(0.8944 0.4472 0)
(0.8944 0.4472 0)
(0.8944 0.4472 0)
(0.8944 0.4472 0)
(0.8944 0.4472 0)
(0.8944 0.4472 0)
(0.8944 0.4472 0)
(0.894399 0.4472 0)
(0.894399 0.447201 0)
(0.894398 0.447201 0)
(0.894396 0.447202 0)
(0.894393 0.447204 0)
(0.894389 0.447208 0)
(0.894382 0.447213 0)
(0.894372 0.447223 0)
(0.894359 0.447235 0)
(0.894344 0.447254 0)
(0.894328 0.447278 0)
(0.894313 0.447309 0)
(0.894298 0.447348 0)
(0.894285 0.447397 0)
(0.894262 0.447465 0)
(0.894213 0.447568 0)
(0.894107 0.447738 0)
(0.893899 0.448026 0)
(0.893534 0.448506 0)
(0.892958 0.44927 0)
(0.892139 0.450418 0)
(0.89108 0.452024 0)
(0.889833 0.454117 0)
(0.888493 0.456659 0)
(0.887177 0.459543 0)
(0.886003 0.462614 0)
(0.885068 0.465694 0)
(0.884433 0.468613 0)
(0.884123 0.471243 0)
(0.884133 0.473502 0)
(0.884437 0.475365 0)
(0.885007 0.476849 0)
(0.885821 0.478003 0)
(0.886863 0.47888 0)
(0.888127 0.479528 0)
(0.889604 0.479974 0)
(0.891279 0.480223 0)
(0.893128 0.480251 0)
(0.895104 0.480006 0)
(0.897131 0.479408 0)
(0.899092 0.478359 0)
(0.900839 0.476772 0)
(0.902216 0.474606 0)
(0.903096 0.471892 0)
(0.903414 0.468752 0)
(0.90319 0.465375 0)
(0.902512 0.461984 0)
(0.901521 0.458788 0)
(0.900368 0.455945 0)
(0.89919 0.453547 0)
(0.898087 0.451624 0)
(0.897125 0.45015 0)
(0.896331 0.44907 0)
(0.895708 0.448313 0)
(0.895242 0.447807 0)
(0.894907 0.447486 0)
(0.894679 0.447295 0)
(0.894531 0.447192 0)
(0.894442 0.447143 0)
(0.894392 0.447128 0)
(0.894369 0.44713 0)
(0.894362 0.44714 0)
(0.894364 0.447153 0)
(0.894369 0.447165 0)
(0.894376 0.447175 0)
(0.894382 0.447183 0)
(0.894387 0.447189 0)
(0.894391 0.447193 0)
(0.894394 0.447196 0)
(0.894395 0.447197 0)
(0.894397 0.447198 0)
(0.894398 0.447199 0)
(0.894399 0.447199 0)
(0.894399 0.4472 0)
(0.8944 0.4472 0)
(0.8944 0.4472 0)
(0.8944 0.4472 0)
(0.8944 0.4472 0)
(0.8944 0.4472 0)
(0.8944 0.4472 0)
(0.8944 0.4472 0)
(0.8944 0.4472 0)
(0.8944 0.4472 0)
(0.8944 0.4472 0)
(0.8944 0.4472 0)
(0.8944 0.4472 0)
(0.8944 0.4472 0)
(0.8944 0.4472 0)
(0.8944 0.4472 0)
(0.8944 0.4472 0)
(0.8944 0.4472 0)
(0.8944 0.4472 0)
(0.8944 0.4472 0)
(0.8944 0.4472 0)
(0.8944 0.4472 0)
(0.8944 0.4472 0)
(0.8944 0.4472 0)
(0.8944 0.4472 0)
(0.8944 0.4472 0)
(0.894399 0.4472 0)
(0.894399 0.4472 0)
(0.894399 0.447201 0)
(0.894397 0.447201 0)
(0.894395 0.447203 0)
(0.894391 0.447206 0)
(0.894385 0.44721 0)
(0.894376 0.447217 0)
(0.894363 0.447229 0)
(0.894346 0.447244 0)
(0.894327 0.447267 0)
(0.894305 0.447297 0)
(0.894284 0.447336 0)
(0.894261 0.447386 0)
(0.894233 0.447452 0)
(0.894185 0.447547 0)
(0.89409 0.4477 0)
(0.893899 0.447956 0)
(0.89355 0.448388 0)
(0.892972 0.449098 0)
(0.892101 0.450206 0)
(0.890913 0.45182 0)
(0.889444 0.454007 0)
(0.887796 0.456745 0)
(0.886116 0.459923 0)
(0.884562 0.46335 0)
(0.88327 0.466791 0)
(0.882327 0.47002 0)
(0.881766 0.472856 0)
(0.881569 0.475192 0)
(0.881688 0.477003 0)
(0.88207 0.478334 0)
(0.882672 0.479277 0)
(0.883478 0.479946 0)
(0.884498 0.480451 0)
(0.885754 0.480875 0)
(0.887272 0.481261 0)
(0.889066 0.481618 0)
(0.891134 0.481914 0)
(0.89345 0.482083 0)
(0.895945 0.482012 0)
(0.898498 0.481556 0)
(0.900927 0.480554 0)
(0.903012 0.478873 0)
(0.904545 0.476462 0)
(0.905378 0.473379 0)
(0.905473 0.469803 0)
(0.9049 0.465991 0)
(0.903818 0.462223 0)
(0.902431 0.458743 0)
(0.900933 0.455718 0)
(0.899484 0.45323 0)
(0.89819 0.451286 0)
(0.897106 0.449838 0)
(0.896246 0.448807 0)
(0.895597 0.448108 0)
(0.895129 0.447657 0)
(0.894808 0.447384 0)
(0.894599 0.44723 0)
(0.894471 0.447154 0)
(0.8944 0.447125 0)
(0.894365 0.447121 0)
(0.894353 0.44713 0)
(0.894354 0.447143 0)
(0.89436 0.447157 0)
(0.894368 0.447169 0)
(0.894376 0.447179 0)
(0.894383 0.447186 0)
(0.894389 0.447191 0)
(0.894392 0.447194 0)
(0.894394 0.447196 0)
(0.894396 0.447197 0)
(0.894398 0.447199 0)
(0.894399 0.447199 0)
(0.894399 0.4472 0)
(0.8944 0.4472 0)
(0.8944 0.4472 0)
(0.8944 0.4472 0)
(0.8944 0.4472 0)
(0.8944 0.4472 0)
(0.8944 0.4472 0)
(0.8944 0.4472 0)
(0.8944 0.4472 0)
(0.8944 0.4472 0)
(0.8944 0.4472 0)
(0.8944 0.4472 0)
(0.8944 0.4472 0)
(0.8944 0.4472 0)
(0.8944 0.4472 0)
(0.8944 0.4472 0)
(0.8944 0.4472 0)
(0.8944 0.4472 0)
(0.8944 0.4472 0)
(0.8944 0.4472 0)
(0.8944 0.4472 0)
(0.8944 0.4472 0)
(0.8944 0.4472 0)
(0.8944 0.4472 0)
(0.8944 0.4472 0)
(0.8944 0.4472 0)
(0.894399 0.4472 0)
(0.894399 0.4472 0)
(0.894398 0.447201 0)
(0.894396 0.447202 0)