/*--------------------------------*- C++ -*----------------------------------*\
  =========                 |
  \\      /  F ield         | OpenFOAM: The Open Source CFD Toolbox
   \\    /   O peration     | Website:  https://openfoam.org
    \\  /    A nd           | Version:  6
     \\/     M anipulation  |
\*---------------------------------------------------------------------------*/
FoamFile
{
    version     2.0;
    format      ascii;
    class       volVectorField;
    location    "9.9e-05";
    object      U;
}
// * * * * * * * * * * * * * * * * * * * * * * * * * * * * * * * * * * * * * //

dimensions      [0 1 -1 0 0 0 0];

internalField   nonuniform List<vector> 
2370
(
(1.6455 0.19433 -2.05736e-05)
(0.834635 0.50842 -1.93981e-05)
(0.00527419 0.904079 6.32247e-05)
(0.777176 0.233707 2.24713e-05)
(0.42717 -0.0630003 -3.22946e-05)
(1.31624 -0.280163 2.61384e-05)
(0.380873 0.438554 3.82467e-05)
(0.749003 0.254514 2.47236e-05)
(0.845074 0.169906 2.23537e-05)
(0.841241 0.158929 2.30538e-05)
(0.75622 0.234281 6.68711e-06)
(0.870454 0.150903 2.75186e-05)
(0.917848 0.240691 -6.18992e-06)
(0.708754 0.334846 2.35743e-05)
(0.564288 0.485533 8.65777e-06)
(0.810073 0.231536 5.45553e-06)
(0.810064 0.221725 8.96379e-06)
(0.699541 0.198627 6.28145e-06)
(0.610192 0.412056 1.7597e-05)
(0.950203 0.337467 -3.09145e-05)
(0.834488 0.18581 2.68731e-05)
(0.807665 0.233533 4.33861e-06)
(0.358807 0.539665 3.90006e-05)
(0.814306 0.162183 -5.41042e-06)
(0.779063 0.107303 3.39933e-06)
(0.863341 0.167047 1.52317e-05)
(1.03833 -0.0642121 2.85241e-05)
(1.01309 0.451335 -1.83985e-05)
(0.908469 0.130371 1.01189e-06)
(0.814535 0.143431 -3.79859e-06)
(0.636584 0.475255 -6.08271e-06)
(0.938236 0.186906 1.34335e-05)
(1.00952 0.125656 6.96821e-06)
(0.607962 0.936794 2.5726e-05)
(0.852058 0.16928 2.5678e-05)
(0.451437 0.58652 3.18161e-05)
(0.784647 0.245126 1.6288e-05)
(0.749216 0.151778 -2.03954e-05)
(0.825191 0.254456 -1.47008e-05)
(1.11543 -0.0810433 3.20497e-05)
(0.867792 0.127278 2.48471e-05)
(1.22528 -0.0265842 1.90292e-05)
(0.888061 0.0622499 2.0427e-05)
(0.747374 0.250653 1.56399e-05)
(0.608915 0.466673 3.38864e-05)
(0.622913 0.335836 1.88513e-05)
(1.13514 -0.0568915 3.1253e-05)
(0.621625 0.416784 1.90625e-05)
(0.908085 0.0808835 9.73074e-06)
(-0.0714211 1.09936 6.07568e-05)
(1.16057 0.603664 -2.32407e-05)
(0.857718 0.133711 3.80235e-05)
(1.28187 -0.324324 4.75803e-05)
(0.691298 -0.00822197 -1.79857e-05)
(1.17584 -0.173558 3.56909e-05)
(0.48141 0.643383 3.88557e-05)
(0.762473 0.233252 3.06504e-05)
(0.558531 0.511231 3.30122e-05)
(1.04849 -0.0676658 2.58823e-05)
(0.782728 0.242292 2.04227e-05)
(0.817087 0.198381 2.1493e-05)
(0.511905 0.535454 3.40968e-05)
(0.803387 0.226604 1.50968e-05)
(1.08267 -0.0671221 2.62853e-05)
(0.644759 0.0234604 -2.70935e-05)
(0.699683 0.104751 -2.1157e-05)
(1.05052 0.369724 -2.85987e-05)
(0.787122 0.197483 -1.71048e-05)
(1.15317 -0.0569203 3.54357e-05)
(0.809285 0.233439 -1.71769e-05)
(0.504631 0.457263 2.78427e-05)
(1.00654 -0.101272 2.50121e-05)
(0.578279 0.503183 3.0043e-05)
(1.10019 -0.0596266 3.0259e-05)
(0.56758 -0.142972 -2.98415e-05)
(0.813486 0.233166 -1.63636e-05)
(0.540479 -0.019917 -2.31413e-05)
(1.09223 0.481571 -2.45054e-05)
(0.779647 0.195062 -1.94594e-05)
(0.414824 0.550768 3.61627e-05)
(1.16109 -0.0737842 3.15965e-05)
(0.774885 0.248467 2.78515e-05)
(0.823229 0.206707 2.88623e-05)
(0.289868 -0.384371 -4.63627e-05)
(0.81056 0.211012 1.53416e-05)
(0.679464 0.422397 1.76399e-05)
(0.997287 0.013664 3.32172e-05)
(1.09542 0.51581 -3.02307e-05)
(0.544297 0.444886 2.1884e-05)
(0.894185 0.363701 -2.2087e-05)
(0.635782 0.0550232 -1.87015e-05)
(0.533321 0.587761 3.22591e-05)
(0.739709 0.249326 1.95735e-05)
(1.13276 0.720708 -3.63392e-05)
(0.509385 0.410258 2.8335e-05)
(0.714104 0.270863 1.79194e-05)
(0.954779 0.0890169 1.74189e-05)
(0.982122 0.402467 -2.13356e-05)
(0.618448 0.408957 2.36412e-05)
(0.894139 0.348865 -1.58344e-05)
(0.558269 -0.0660318 -3.56913e-05)
(0.917822 0.376613 -1.90821e-05)
(1.01626 0.544778 -3.05782e-05)
(0.873639 0.15535 2.16967e-05)
(1.13154 -0.147031 3.56805e-05)
(0.990966 0.0214902 2.62599e-05)
(0.857139 0.156261 1.52985e-05)
(1.01684 -0.0744914 2.57118e-05)
(1.06153 -0.168747 3.02492e-05)
(0.586279 0.411246 2.64854e-05)
(0.814034 0.19836 1.48719e-05)
(1.04992 -0.0134594 2.51039e-05)
(0.605952 0.404284 2.86634e-05)
(0.663596 0.114729 -1.6783e-05)
(1.01277 0.388374 -2.93479e-05)
(0.883543 0.0924643 1.51064e-05)
(0.769971 0.253527 2.75031e-05)
(0.655988 0.0474936 -1.89988e-05)
(0.665146 0.299386 1.61012e-05)
(1.00424 0.497293 -3.03489e-05)
(0.983363 0.0701463 1.98619e-05)
(0.621023 0.29078 1.49586e-05)
(0.571614 0.379695 2.37544e-05)
(0.446894 -0.0221435 -2.84131e-05)
(1.12361 -0.237504 2.35164e-05)
(0.625029 0.382884 2.4066e-05)
(0.895819 0.0258988 1.41639e-05)
(0.778863 0.223659 1.50697e-05)
(0.662901 0.0820269 -1.79733e-05)
(0.939349 0.330354 -1.76173e-05)
(1.02119 0.4313 -2.11487e-05)
(0.379517 -0.0565778 -3.7166e-05)
(0.588682 -0.0103946 -1.94629e-05)
(0.876617 0.271822 -1.4202e-05)
(0.437458 0.455231 3.38937e-05)
(1.51061 0.649566 -4.107e-05)
(0.837434 0.263004 -1.96539e-05)
(1.04801 0.0560322 2.46681e-05)
(0.557397 -0.00545812 -3.19827e-05)
(0.675971 0.436043 2.00947e-05)
(0.906643 0.306715 -1.60472e-05)
(0.57796 -0.0165553 -2.23892e-05)
(0.798864 0.215655 -9.31884e-06)
(0.734356 0.101176 -1.60405e-05)
(0.815211 0.234425 -2.0741e-05)
(0.845282 0.181435 2.78858e-05)
(0.672006 0.0935586 -1.75931e-05)
(1.08044 0.509766 -2.01359e-05)
(0.996002 0.396995 -1.63423e-05)
(0.746689 0.146323 -1.83855e-05)
(1.06103 0.223156 3.12969e-05)
(0.693057 0.00843994 -2.07956e-05)
(0.678559 0.365145 2.09121e-05)
(0.639538 0.0246796 -1.66811e-05)
(1.00405 0.355456 -2.21129e-05)
(0.958652 0.0552018 2.18051e-05)
(0.524476 0.366606 7.47916e-05)
(0.753415 0.349678 1.24764e-05)
(0.738606 0.37678 7.45026e-06)
(0.861904 0.445723 1.67372e-05)
(-0.590247 0.721951 -4.43406e-07)
(1.27869 0.159395 3.24084e-05)
(0.688323 0.346748 1.66376e-05)
(0.320333 0.0890248 -2.88794e-05)
(0.452963 -0.045246 -2.69418e-05)
(0.996023 0.426084 -2.07577e-05)
(0.772366 0.178507 -2.05596e-05)
(0.794286 0.204377 -1.72083e-05)
(0.412757 0.127013 -2.76191e-05)
(0.763102 0.196472 -1.39842e-05)
(0.845561 0.18315 1.33537e-05)
(0.895027 0.334809 -1.73213e-05)
(0.717996 -0.0541398 -1.62789e-05)
(0.771995 0.168551 -1.28316e-05)
(0.951577 0.31904 -9.02009e-06)
(0.980816 0.396215 -1.73427e-05)
(0.725066 0.289826 5.01236e-05)
(0.785793 0.200713 9.33656e-06)
(0.766101 0.231624 -3.77523e-06)
(0.726592 0.131645 -5.15881e-05)
(0.788309 0.229534 2.9328e-05)
(0.791823 0.204822 5.00482e-06)
(0.993748 0.0529788 3.96421e-05)
(0.783768 0.214602 -2.28081e-06)
(0.785446 0.195313 -3.02039e-05)
(0.705328 0.191647 9.58822e-06)
(0.89984 0.124028 -6.70146e-06)
(0.635545 0.0351643 -4.06881e-05)
(0.757191 0.275018 2.05166e-05)
(0.5999 0.411008 -9.59546e-06)
(0.781196 0.182253 2.57579e-06)
(0.795179 0.240665 -3.87604e-06)
(0.662127 0.0659848 -2.89887e-05)
(0.783859 0.29127 -6.22518e-06)
(0.668309 0.180288 2.28442e-05)
(0.74314 0.150158 -2.19035e-05)
(1.30162 -0.252814 2.93272e-05)
(0.953135 0.375151 6.85225e-06)
(1.05972 0.00916037 -5.0208e-06)
(-0.316556 1.15915 7.1614e-05)
(0.492886 -0.103246 -3.6044e-05)
(0.851465 0.759851 2.39607e-05)
(0.563989 0.392939 -4.64492e-06)
(0.756207 0.363786 -6.92041e-06)
(1.37295 0.857849 -3.16822e-05)
(0.799797 0.277521 2.06523e-05)
(1.07014 0.572922 1.6135e-05)
(0.660691 0.453778 -9.67413e-06)
(0.771392 0.212885 -4.65912e-06)
(1.45741 0.796582 -3.11852e-05)
(0.493792 0.149671 3.11504e-05)
(1.76053 1.21294 -6.89606e-05)
(0.895975 0.29832 -2.73788e-05)
(0.696147 0.439654 -7.12981e-06)
(0.501802 -0.0715861 -4.6416e-05)
(0.423206 0.234455 -3.19601e-05)
(0.821522 0.197804 -2.22991e-05)
(0.7814 0.215421 2.16104e-05)
(0.934429 -0.0193743 1.26451e-05)
(0.854694 0.405612 2.51708e-05)
(0.798227 0.196464 1.86916e-05)
(0.780099 0.212404 -2.79798e-05)
(0.691124 0.12411 -2.87219e-05)
(0.788448 0.216569 -2.09294e-05)
(0.782442 0.313063 3.22321e-05)
(0.75894 0.205831 1.99875e-05)
(0.867464 0.255193 -2.1039e-05)
(0.739437 0.20694 1.78125e-05)
(0.954069 -0.0871132 -1.72736e-05)
(0.82517 0.273289 -1.7439e-05)
(1.01126 0.270398 2.7324e-05)
(1.09696 0.31898 -3.05532e-06)
(1.39404 0.864364 -3.88318e-05)
(0.787409 0.151983 -2.85097e-06)
(0.83578 0.214721 -3.24157e-05)
(0.658983 0.355662 4.4779e-05)
(0.75003 0.253909 4.36781e-06)
(0.804476 0.116565 3.03524e-06)
(0.808437 0.107558 -6.96586e-07)
(0.785348 0.206688 3.09447e-05)
(0.856049 0.261164 -3.96468e-06)
(0.922561 0.329292 -4.13338e-05)
(0.785781 0.226502 -1.06125e-06)
(0.718056 0.19336 -9.11742e-07)
(0.799904 0.236193 -8.70156e-07)
(0.774468 0.217801 -7.00477e-07)
(0.71793 0.435807 5.8831e-07)
(0.920928 0.21273 -4.09148e-07)
(0.701397 0.208546 -2.5331e-07)
(0.99582 -0.0902413 -2.49305e-06)
(0.829619 0.277834 2.44256e-06)
(0.776345 0.222478 1.03475e-06)
(1.2748 0.24925 -2.26889e-06)
(0.971558 0.375379 -1.45969e-07)
(0.794568 0.226398 6.67391e-08)
(0.804553 0.19701 1.52315e-05)
(0.776009 0.228237 2.50563e-05)
(0.904862 0.333407 -6.14796e-05)
(0.720588 0.133611 -4.1326e-05)
(2.38312 1.80121 -5.11264e-05)
(-0.296126 -1.06938 -4.61112e-05)
(0.789747 0.209258 -4.50948e-05)
(0.80914 0.245789 -4.14114e-05)
(2.21479 1.54339 -6.81319e-05)
(0.717166 0.136073 -3.53049e-05)
(1.78612 1.22573 -4.84677e-05)
(0.723011 0.135992 -4.92558e-05)
(-0.255373 -0.906241 -5.76832e-05)
(0.788688 0.20489 -4.69812e-05)
(0.370694 -0.209754 -4.09556e-05)
(1.77001 1.20053 -4.39707e-05)
(0.651669 0.0605219 -4.47854e-05)
(0.641776 0.0526241 -3.68038e-05)
(-0.0875869 -0.564667 -5.47802e-05)
(-0.00890802 -0.557519 -5.17163e-05)
(0.462496 -0.102046 -3.6089e-05)
(0.781827 0.279395 -3.87989e-07)
(0.957231 0.41051 -4.27093e-07)
(0.827093 0.129034 1.19895e-06)
(0.798792 0.261809 -3.92227e-06)
(0.769547 0.124714 -2.37763e-06)
(0.68468 -0.0146694 -2.98714e-06)
(0.83964 0.243386 -2.51975e-06)
(0.718436 0.126638 -2.90001e-05)
(0.577737 -0.0842226 -4.41709e-05)
(0.54887 0.28381 5.64023e-07)
(0.932127 0.183527 1.268e-07)
(0.798875 0.247143 -2.78832e-06)
(0.805061 0.205029 -3.17558e-06)
(0.936928 0.574197 -1.92634e-06)
(1.45779 -0.797534 -5.50739e-07)
(0.80521 0.249063 -2.35539e-06)
(0.333162 0.0136184 1.27427e-06)
(0.178276 0.741165 1.75797e-06)
(0.794328 0.249607 -2.9141e-06)
(0.787896 0.261933 -3.05813e-06)
(0.803668 0.237396 -2.32249e-06)
(0.829339 0.246458 -2.46898e-06)
(1.59413 -0.485666 1.70866e-06)
(1.26728 0.358347 -1.90964e-06)
(0.81139 0.236862 1.19897e-06)
(1.43736 -0.348249 1.29141e-06)
(-0.0604934 0.0312223 -1.33467e-06)
(0.813713 0.241099 -1.53861e-06)
(0.797702 0.2388 -2.99688e-06)
(0.591455 -0.102693 -3.95597e-05)
(-0.0199591 -0.00180929 9.46667e-08)
(0.209569 -0.116893 -3.84895e-05)
(0.117178 0.190241 1.27476e-06)
(0.879839 0.297704 -2.76716e-05)
(0.548167 0.232613 2.04015e-07)
(0.869236 0.254302 -2.32948e-06)
(0.797615 0.268906 1.36744e-06)
(0.800554 0.059237 -1.59986e-06)
(1.01529 0.471926 -2.23436e-06)
(0.826135 0.159946 -2.75858e-06)
(0.785768 0.239783 1.36252e-05)
(0.93743 0.188676 1.26138e-06)
(0.502343 0.492249 4.16556e-05)
(1.29287 0.604306 -4.2091e-05)
(0.299201 -0.198107 -4.86493e-05)
(0.757132 0.230596 3.58829e-07)
(0.76082 0.167906 -2.26122e-05)
(0.376284 -0.232429 -3.78125e-05)
(0.221478 -0.389197 -4.2438e-05)
(0.830769 0.204349 2.41694e-07)
(0.794214 0.144254 2.47845e-06)
(1.00606 -0.0157116 2.7433e-05)
(0.523907 0.494805 3.19434e-05)
(0.671787 0.0855794 -2.34079e-05)
(1.07749 0.319371 -2.11071e-06)
(0.787542 0.199565 8.93158e-07)
(0.599165 0.0321487 -3.40627e-05)
(0.805054 0.132328 -1.18252e-06)
(0.785167 0.16685 -1.20478e-06)
(0.64315 0.287168 -1.566e-06)
(0.81014 0.275508 -2.46255e-06)
(0.637618 0.140419 1.54551e-06)
(0.748558 0.232726 1.02648e-05)
(0.963136 0.0658006 -2.13003e-05)
(0.684275 0.101727 -2.51824e-05)
(0.952467 0.450646 -8.47078e-07)
(1.39163 0.818255 -4.00101e-05)
(0.857135 0.284175 -1.84884e-06)
(0.752818 0.0610092 -2.15275e-07)
(1.05273 0.405012 2.67753e-05)
(0.524099 0.251463 6.09391e-08)
(0.972132 0.372893 2.26676e-05)
(0.609495 0.374935 1.26198e-06)
(0.850311 0.253524 3.33926e-05)
(0.954839 0.181847 1.91437e-05)
(0.807344 0.526598 -1.16692e-06)
(0.81367 0.48385 -3.38188e-06)
(0.896678 0.228645 1.2064e-06)
(0.767367 0.169109 -7.35509e-06)
(0.80463 0.192098 1.00972e-05)
(0.832187 0.0861179 1.06893e-05)
(0.835773 0.233141 -2.52782e-07)
(0.726173 0.283046 8.47615e-06)
(1.03017 0.0476251 3.18636e-05)
(0.497525 0.504227 3.23652e-05)
(0.805036 0.25195 4.95237e-07)
(0.6554 0.321076 7.69304e-06)
(1.0033 0.178946 -2.03711e-06)
(0.835545 0.080793 2.26826e-05)
(0.608408 0.191438 -4.91385e-07)
(0.970924 0.352618 -2.79249e-05)
(0.98796 0.0206435 2.44138e-05)
(0.803951 0.152866 1.21948e-05)
(0.909554 0.185201 1.94186e-06)
(0.883412 0.149271 -4.73703e-07)
(0.792809 0.225662 7.07965e-06)
(1.01096 -0.130328 1.951e-06)
(0.7996 0.224598 -1.65178e-07)
(0.840134 0.343769 7.06732e-07)
(0.849008 0.253524 1.78412e-05)
(0.528763 -0.0745444 -2.98882e-05)
(0.760291 0.152538 7.14633e-06)
(0.379032 -0.300915 3.4738e-05)
(0.746563 0.120856 4.12514e-05)
(0.825543 0.181986 4.3474e-05)
(1.13107 0.181882 2.31471e-05)
(0.764122 0.25627 2.98429e-05)
(0.769865 0.318905 2.0132e-05)
(0.663813 0.177756 -6.33657e-07)
(0.858328 0.059295 -2.31035e-06)
(0.855269 0.169712 -9.86367e-07)
(0.760894 0.315901 -1.68579e-06)
(0.523629 -0.0461029 -2.7624e-05)
(0.70074 0.17961 -9.30114e-06)
(0.635183 -0.18183 1.15377e-05)
(0.825268 0.306389 -1.62738e-05)
(0.855094 0.278688 -1.19413e-06)
(0.791964 0.267932 -1.71119e-06)
(0.839342 0.206942 -2.28572e-06)
(0.868645 0.264388 1.88123e-05)
(0.738521 0.129015 -2.41653e-06)
(1.2103 0.611546 -2.81175e-05)
(0.747467 0.243685 9.71693e-06)
(1.14993 -0.793359 2.79165e-05)
(0.771564 0.15617 9.14011e-06)
(0.697924 0.0975898 2.08605e-05)
(0.683056 0.218269 3.75326e-05)
(0.785783 0.219491 1.77978e-05)
(0.834312 0.236296 2.93883e-05)
(1.49019 -0.142038 3.35508e-05)
(0.97299 1.13905 3.18613e-05)
(0.781236 0.279724 2.9802e-05)
(0.780506 0.235898 3.21539e-05)
(0.0902535 -0.51648 4.39062e-05)
(0.800339 0.302689 3.26902e-05)
(0.769827 0.236701 2.89439e-05)
(0.812 0.188435 -1.77369e-05)
(0.748099 0.259103 2.54744e-05)
(0.0435474 -0.59848 4.42702e-05)
(0.826503 0.245471 2.51729e-05)
(0.778897 0.320334 5.67806e-06)
(0.740464 0.192086 7.36821e-06)
(0.939435 0.200531 1.33652e-05)
(0.974588 0.0520426 -2.7238e-05)
(0.757424 0.193047 -5.47746e-06)
(0.647689 -0.177523 3.19719e-05)
(1.05298 -0.205408 3.60005e-05)
(0.701487 0.117674 -1.99408e-05)
(0.806484 0.23488 8.86028e-06)
(0.835276 0.484839 2.21832e-05)
(0.681635 0.344129 1.43944e-05)
(0.73487 0.260385 1.60642e-05)
(0.76782 0.25148 -1.70651e-06)
(0.792591 0.251579 8.82137e-06)
(1.12831 0.58284 3.67011e-05)
(0.840706 0.239607 1.90894e-05)
(0.838742 0.213179 1.65073e-05)
(0.839494 0.223865 3.27792e-05)
(0.851331 0.102166 1.44227e-05)
(0.809402 0.217221 3.03418e-05)
(0.927299 0.203001 -2.17989e-05)
(0.805188 0.255581 1.17199e-05)
(1.15196 0.175776 3.30024e-05)
(0.483764 -0.131903 -4.03849e-05)
(0.751477 0.229598 -7.32771e-06)
(0.794718 0.360585 3.01863e-05)
(0.535807 0.295831 1.12267e-06)
(0.803668 0.204586 6.73028e-06)
(1.2367 0.594472 3.40099e-05)
(0.817631 0.227298 -5.50082e-07)
(0.770483 0.184756 -2.06476e-07)
(0.934231 0.0587597 2.027e-05)
(1.02667 0.196855 1.16982e-05)
(0.661211 0.0694617 -2.36346e-05)
(0.803755 0.156604 6.69708e-06)
(0.599247 0.0200913 -3.93746e-05)
(0.807476 0.24331 -6.44743e-06)
(0.792651 0.31359 -2.09846e-07)
(1.17664 0.292832 -1.2282e-06)
(0.989335 0.151639 2.59014e-05)
(0.847887 0.339455 -3.15544e-05)
(0.797851 0.19608 3.00713e-05)
(1.31444 0.751781 3.50668e-05)
(0.821225 0.201463 1.01357e-05)
(0.664082 -0.059381 9.59854e-06)
(0.795964 0.223604 1.01864e-05)
(0.786098 0.484624 4.03587e-06)
(0.749296 0.143471 1.96486e-05)
(0.763795 0.350606 5.11837e-06)
(1.12501 0.192537 2.67739e-05)
(1.61783 1.03185 -2.97133e-05)
(0.87067 0.119334 -1.77613e-05)
(0.7896 0.132409 5.21744e-08)
(0.879436 0.276767 -1.33033e-05)
(0.660012 0.257288 1.74755e-05)
(0.71694 0.0308522 2.03833e-05)
(0.834437 0.183658 1.69492e-05)
(1.26373 0.694152 3.80407e-05)
(1.25869 0.425756 2.62842e-05)
(0.904506 0.189858 1.28293e-05)
(0.787802 0.00682934 1.43845e-05)
(0.859808 0.235831 -8.57551e-06)
(0.76454 0.222739 -1.51218e-06)
(0.786575 0.339577 -1.33621e-05)
(0.779272 0.20085 -6.79434e-06)
(0.635339 0.0817981 -2.27661e-05)
(0.390585 0.659236 4.68011e-05)
(0.801061 -0.172724 1.08675e-05)
(0.780239 0.183742 1.95091e-05)
(0.711096 0.228887 -1.37631e-06)
(0.83316 0.228165 -1.64734e-05)
(0.778477 0.124651 9.47333e-06)
(0.633946 0.208567 -7.90247e-08)
(0.872975 0.217492 2.72523e-06)
(0.746118 0.274836 3.25519e-05)
(0.805256 0.235553 9.52519e-06)
(1.02182 0.119934 1.40507e-05)
(0.671117 0.252878 1.87511e-05)
(0.691091 -0.169218 2.74145e-05)
(0.699669 0.360775 3.57022e-05)
(1.08753 0.500282 -2.89982e-05)
(0.487787 -0.0346329 2.82327e-05)
(0.603575 0.257957 1.09492e-05)
(0.7315 0.307242 6.78815e-06)
(0.774456 0.216314 -2.00479e-05)
(0.628216 0.427086 2.45581e-05)
(0.944163 0.276586 2.30232e-05)
(0.636556 0.192561 -9.63379e-07)
(0.944048 0.389401 -4.01509e-07)
(0.663009 0.259674 -4.20256e-07)
(0.396085 -0.156248 -3.49807e-05)
(0.66216 0.241264 -1.46051e-07)
(0.808703 0.305932 -2.34637e-06)
(0.678562 0.166199 -2.33434e-06)
(0.877044 0.198383 -2.11496e-06)
(0.810101 0.451541 2.43526e-05)
(0.660149 0.448567 2.50757e-05)
(0.920104 0.223578 1.33267e-05)
(0.714444 0.322778 -1.59321e-05)
(0.912965 0.23818 -1.8305e-06)
(0.731432 0.285597 -4.1611e-06)
(0.742857 0.180552 1.76073e-05)
(0.746833 0.338424 5.53339e-06)
(0.803253 0.151144 5.91953e-06)
(0.575695 0.289247 1.18662e-05)
(0.960237 -0.297914 -1.68103e-05)
(0.913694 0.0248519 1.45532e-05)
(0.923334 0.299252 2.60879e-05)
(0.771461 0.290531 7.24472e-06)
(0.695432 0.249425 2.07339e-05)
(1.1174 -0.0468457 3.18491e-05)
(0.767502 0.205867 -7.81359e-07)
(0.971725 0.104951 2.02727e-05)
(0.840475 -0.0690188 2.90598e-05)
(0.734994 0.228578 -1.08018e-05)
(0.799715 0.0151464 2.64495e-05)
(0.745135 0.267109 2.64084e-05)
(0.655491 0.217275 2.51626e-05)
(0.850086 0.187717 7.44388e-06)
(0.89769 0.291652 -1.24021e-05)
(0.858399 0.18954 -2.81988e-06)
(0.908587 0.0889814 -1.6072e-05)
(1.03357 0.302196 -1.10725e-05)
(0.869403 0.0189393 1.29613e-05)
(0.981221 0.416811 2.33984e-05)
(0.74564 0.225808 9.85992e-07)
(0.904511 0.330777 -1.16428e-05)
(0.900735 0.137099 9.912e-06)
(0.823308 0.0477265 -2.04938e-06)
(0.808617 0.0875636 -3.78657e-05)
(0.788412 0.12965 7.81463e-06)
(0.799483 0.210623 4.12856e-06)
(0.84691 0.405722 4.82035e-06)
(0.939816 0.31241 1.92291e-05)
(0.794216 0.291492 -7.40534e-06)
(0.730844 0.204511 -2.943e-06)
(0.759841 0.270476 -2.40973e-05)
(0.730984 0.281365 2.61641e-05)
(0.631841 0.49615 1.19545e-05)
(0.3864 -0.04291 2.62994e-05)
(0.776222 0.220468 5.4511e-06)
(0.788289 0.134286 1.1087e-05)
(1.19786 0.714565 -2.94701e-05)
(0.811787 0.379402 2.50743e-05)
(0.715124 0.30656 5.80281e-06)
(0.745643 0.0165959 1.10024e-05)
(0.724134 0.606029 1.01164e-05)
(0.871693 0.208246 -6.5838e-06)
(0.71628 0.232406 1.188e-06)
(1.21325 -0.266624 4.70782e-05)
(0.837649 0.057224 2.41361e-05)
(0.698912 0.407465 2.32825e-05)
(1.0029 -0.142167 3.00845e-05)
(0.595554 0.00464834 -2.78218e-05)
(0.788571 0.259367 -8.53092e-06)
(0.73634 0.28985 -1.29238e-05)
(0.689822 0.213169 -2.15557e-05)
(0.893929 0.357603 -1.21425e-05)
(0.884532 0.119674 2.83564e-05)
(0.828952 0.164108 1.02268e-05)
(0.950296 0.21811 -2.9854e-06)
(0.863564 0.199211 3.07781e-05)
(0.888862 0.317549 -1.33362e-05)
(0.843819 0.328571 -1.68506e-05)
(0.816527 0.230537 7.33675e-06)
(0.625464 0.321499 -2.03649e-06)
(0.820552 0.196665 1.76183e-05)
(0.851506 0.152354 1.04424e-06)
(0.833202 0.161518 4.48621e-07)
(1.13952 0.515446 2.66034e-05)
(0.595637 0.134759 -1.77211e-05)
(0.962989 0.027492 3.12759e-05)
(0.838143 0.333046 -8.78757e-06)
(0.808055 0.382671 -9.48334e-06)
(0.809936 0.258967 7.24486e-06)
(1.20138 0.219711 -2.5155e-05)
(0.818599 0.233785 -2.14304e-05)
(0.817457 0.153013 -5.94929e-08)
(0.8835 0.186937 2.69106e-05)
(0.829366 0.231083 1.49848e-05)
(0.820337 0.222577 1.5358e-05)
(0.833705 0.216712 -2.09479e-05)
(0.703761 0.308243 1.90148e-05)
(0.894238 0.302978 -8.79087e-06)
(0.797031 0.225361 1.02187e-05)
(1.23144 0.59942 -3.68696e-05)
(0.511415 -0.0337454 -3.8518e-05)
(0.722176 0.199987 -9.06146e-06)
(0.726512 0.171417 -1.22048e-05)
(0.776449 0.247853 -8.47846e-06)
(0.768258 0.181049 1.74719e-05)
(0.855565 0.266801 -8.91834e-06)
(0.797534 0.309234 1.5892e-05)
(0.879877 0.325899 1.82234e-05)
(0.844965 0.265694 2.45764e-06)
(0.696638 0.187486 2.06315e-05)
(0.848458 0.0871146 1.12936e-05)
(1.01445 0.0187072 2.35764e-05)
(0.583608 0.425446 2.47874e-05)
(0.776957 0.161373 6.95974e-06)
(1.07282 0.282704 -2.44695e-06)
(0.858916 0.0511497 -2.26067e-06)
(1.03065 0.239669 -2.17587e-06)
(0.917245 0.509713 -2.42462e-05)
(0.788612 0.190319 -1.15359e-06)
(0.782371 0.275558 1.49426e-05)
(0.562941 0.21107 -3.76001e-06)
(0.782563 0.107662 7.88136e-06)
(0.858362 0.108095 2.02581e-05)
(0.901835 0.217393 9.89089e-06)
(0.193883 -0.328527 -3.8986e-05)
(0.952334 0.400339 -2.18929e-05)
(0.859878 0.212522 2.57722e-05)
(0.810512 0.205631 2.08682e-05)
(1.02709 0.208766 -1.30095e-05)
(0.62879 0.191717 -2.02503e-05)
(0.802336 0.220122 5.55267e-06)
(0.890693 -0.0859205 -1.07382e-05)
(0.851253 0.141225 -2.35003e-05)
(0.800421 0.237775 8.17273e-06)
(1.06952 -0.179601 -3.34626e-05)
(0.917775 0.0801449 2.4664e-06)
(0.772448 0.258428 -1.93118e-06)
(0.794521 0.152977 -8.10055e-06)
(0.848981 0.219297 8.98265e-06)
(0.74086 0.540337 3.76325e-05)
(0.29936 0.112684 -1.64262e-07)
(0.88778 0.232855 1.29393e-06)
(0.862875 0.408217 -2.53067e-05)
(0.618021 0.132472 -2.47046e-05)
(0.781543 0.155226 -2.62536e-06)
(1.24468 -0.217024 3.63097e-05)
(0.897457 0.1629 1.50691e-06)
(0.798109 0.288483 -2.34569e-06)
(0.766298 0.232595 2.41826e-05)
(0.789493 0.129164 1.07661e-06)
(0.654798 0.107767 -1.98792e-05)
(0.777113 0.245211 -1.80525e-06)
(0.565909 0.387108 -2.65221e-06)
(0.921364 0.0920139 -1.58222e-05)
(0.791371 0.156521 3.87786e-07)
(0.830327 0.139877 -2.04459e-05)
(0.52251 0.112295 -2.53161e-05)
(0.973746 0.0527095 -2.04798e-05)
(0.600672 0.251222 -1.87791e-08)
(0.457378 0.568812 3.13054e-05)
(0.403396 -0.0395247 -3.21198e-05)
(0.739778 0.229039 1.3117e-05)
(0.685764 0.420305 2.60037e-06)
(0.09175 0.956369 4.73985e-05)
(1.01875 0.0928243 2.93289e-07)
(1.00087 0.324861 -2.12539e-05)
(1.2847 -0.254563 3.30907e-05)
(0.784818 0.234051 -8.454e-06)
(0.810758 0.238655 9.96735e-06)
(0.839881 0.220471 2.18136e-05)
(0.752301 0.129052 -7.86881e-07)
(0.785983 0.216149 -5.85072e-06)
(0.729433 0.366468 1.22429e-06)
(0.859536 0.255937 2.10024e-05)
(0.823792 0.28321 5.56215e-07)
(0.830758 0.241271 -2.25372e-05)
(0.781462 0.201509 1.53089e-05)
(0.772542 0.169711 2.15329e-05)
(0.841517 0.232369 -1.22643e-06)
(0.826481 0.237004 -7.09925e-07)
(0.814401 0.21261 1.65834e-06)
(0.701032 0.112928 -3.2702e-05)
(0.809446 0.24708 7.65053e-06)
(0.81957 0.209645 2.03255e-05)
(0.801265 0.242791 1.44006e-06)
(0.596499 -0.103285 -2.23899e-05)
(0.808931 0.206652 2.16265e-05)
(0.788905 0.225189 -8.14924e-06)
(0.817143 0.242734 -1.96746e-05)
(0.84669 0.170439 2.89736e-05)
(1.28848 -0.278595 3.95624e-05)
(0.602454 0.403833 2.38898e-05)
(0.759776 0.038713 -3.00502e-05)
(0.987874 -0.38808 2.78556e-05)
(0.833089 0.0706446 -1.04415e-05)
(0.730773 0.330563 1.09008e-05)
(0.867376 -0.0271971 7.55912e-07)
(0.652789 0.332668 -8.14526e-08)
(1.02854 0.34877 -2.34264e-05)
(0.809857 0.255675 -1.17135e-06)
(0.530675 0.407077 -2.18169e-05)
(0.804756 0.221372 1.05136e-06)
(0.772354 0.220962 -8.296e-06)
(0.800223 0.192594 1.25737e-05)
(0.967793 -0.00959656 2.44503e-05)
(0.790547 0.236554 -2.05178e-06)
(0.761101 0.376747 -1.12356e-05)
(0.797779 0.320974 -7.01125e-07)
(0.62078 0.349091 1.23488e-05)
(0.804287 0.203119 2.22606e-05)
(0.883138 0.39192 -1.18866e-05)
(0.778896 0.22917 2.2141e-05)
(0.7866 0.204149 2.28926e-05)
(1.05325 0.533479 2.60266e-05)
(0.587842 0.269035 -2.68727e-05)
(0.848771 0.274458 -3.44748e-05)
(0.876191 0.145074 1.34006e-06)
(0.830227 0.248683 -3.19738e-05)
(0.798276 0.24588 -1.95867e-06)
(0.879388 0.441866 -2.74299e-05)
(0.79378 0.235623 1.02838e-05)
(0.874287 0.0586328 2.5745e-05)
(0.827384 0.257509 -3.28329e-05)
(0.80076 0.21792 -1.06946e-05)
(0.799829 0.239393 -2.2268e-06)
(0.393193 -0.159919 -3.55349e-05)
(0.962699 0.0685545 8.56557e-07)
(0.730291 0.137929 -7.08218e-06)
(0.807118 0.383804 -8.36973e-07)
(0.945835 0.377244 2.16383e-05)
(0.81307 0.276622 -7.91432e-06)
(0.752582 0.0767244 -1.07361e-05)
(0.733963 0.213614 -1.98256e-05)
(0.773177 0.329273 -2.49094e-07)
(0.8447 0.204134 -8.32564e-06)
(0.409182 0.570604 2.97214e-05)
(0.905985 0.0643659 1.94352e-05)
(0.644454 0.199533 -3.31979e-05)
(0.645722 0.59566 2.02154e-05)
(0.720296 0.169992 -1.1047e-05)
(0.661685 -0.0605237 -1.53923e-05)
(0.802208 0.234242 -2.74504e-05)
(0.941792 0.0604744 1.91753e-05)
(0.900485 0.0244914 1.67006e-05)
(0.887535 0.31535 1.43409e-05)
(1.18019 0.547139 -3.34099e-05)
(0.759248 0.262715 2.36037e-05)
(0.795617 0.192976 -2.8278e-06)
(0.584464 0.208405 -3.8983e-10)
(0.949027 0.0215102 2.13304e-05)
(0.799907 0.0722658 -1.11793e-05)
(1.02038 0.493105 2.31061e-05)
(0.900351 0.426025 -1.50285e-05)
(0.814744 0.299428 4.09954e-06)
(0.801316 0.233266 -2.03326e-05)
(0.833549 0.174736 -2.08038e-05)
(0.793256 0.257138 -2.81936e-05)
(0.932149 0.322413 1.65331e-05)
(0.759706 0.1506 1.65285e-05)
(0.787023 0.228696 1.37268e-06)
(0.696855 0.102552 -3.17985e-05)
(0.751157 0.19587 1.47779e-06)
(0.969111 0.383093 2.10789e-05)
(0.859603 0.175083 -2.19473e-05)
(0.796748 0.258845 7.41543e-06)
(0.921547 0.0335802 2.43181e-05)
(0.791907 0.299258 -3.72038e-07)
(0.910944 0.0292376 -6.85044e-07)
(0.773658 0.0543838 -2.86607e-06)
(0.808511 0.114091 -2.23562e-06)
(0.898192 0.270631 -9.87878e-06)
(0.959982 0.023652 2.84733e-05)
(0.846328 0.258929 -7.41404e-06)
(0.759647 0.222289 8.41998e-06)
(0.518026 0.278668 6.93604e-08)
(1.00523 0.212311 -2.81769e-05)
(0.977371 -0.00608173 2.83152e-05)
(0.574543 0.00866594 -2.86368e-05)
(0.750825 0.170563 7.27272e-06)
(1.14387 0.187074 2.17948e-05)
(0.778628 0.213725 1.87945e-05)
(0.713375 0.299734 3.44302e-05)
(0.811099 0.320092 -1.16914e-05)
(0.760523 0.219225 -2.66007e-08)
(0.861516 0.240133 -6.96392e-06)
(0.78714 0.282109 -1.00585e-06)
(0.858893 0.224462 -2.35888e-05)
(0.824849 0.33218 -6.9524e-07)
(0.616894 0.000734699 -2.82479e-05)
(0.815239 0.343593 -1.33895e-05)
(0.438577 -0.117008 -3.19045e-05)
(0.841833 0.252473 3.36349e-06)
(0.620999 0.0233231 -2.2116e-05)
(0.91528 0.20814 2.25537e-05)
(0.513744 0.458892 -2.21855e-05)
(0.883053 0.325223 7.81927e-07)
(0.970304 0.343426 -1.13866e-05)
(0.687858 0.533159 -1.37462e-05)
(0.316814 0.261075 1.65621e-06)
(0.655916 0.271956 -1.85816e-05)
(1.22643 0.322023 -3.15165e-05)
(0.772574 0.198145 1.80803e-05)
(0.756965 0.196328 -2.05871e-05)
(0.934367 0.279779 1.06153e-06)
(0.881997 0.274329 2.84706e-06)
(0.574029 0.348412 2.20615e-05)
(0.83174 0.0805031 -2.16672e-05)
(0.773161 0.14979 1.77171e-06)
(0.794869 0.235071 -1.47046e-06)
(0.937735 0.113041 1.92328e-05)
(0.731799 0.291819 -1.07914e-06)
(0.734763 0.360804 -2.30411e-05)
(1.11841 0.348841 -1.27122e-05)
(0.791638 0.151396 2.89528e-06)
(0.868779 0.42916 1.94185e-06)
(0.916626 0.35148 1.16667e-06)
(0.746316 0.110367 2.18994e-06)
(0.791785 0.228784 -1.93685e-05)
(0.579452 0.240351 -2.32461e-05)
(0.745408 0.172316 -1.99543e-05)
(0.686126 0.146489 2.04685e-05)
(0.683383 0.174771 -1.71867e-05)
(1.25125 -0.0691792 -3.1238e-05)
(1.12612 -0.0740625 -3.31028e-05)
(0.531458 0.0750931 -2.15111e-05)
(0.468129 0.593532 3.0328e-05)
(0.824724 0.375507 -2.58113e-07)
(0.845086 0.202362 -1.93981e-05)
(0.806107 0.208084 1.52361e-05)
(0.744364 0.239865 1.0029e-05)
(0.835774 0.240416 -7.42067e-07)
(0.988971 0.0203912 1.7275e-05)
(0.760148 0.302638 1.46952e-05)
(0.997893 0.0419035 2.77439e-05)
(0.847419 0.345959 -2.77348e-06)
(0.463355 0.537949 3.50016e-05)
(0.790129 0.215058 -6.61331e-06)
(0.821405 0.220509 -6.76461e-06)
(0.965537 0.178701 -2.38161e-06)
(0.76991 0.35837 2.18447e-05)
(0.992127 0.225802 2.58988e-05)
(0.611285 -0.274176 2.11339e-05)
(0.711471 0.171569 1.29122e-06)
(0.813826 0.20736 -2.31381e-05)
(0.835603 -0.0984619 -2.77417e-05)
(1.26319 0.159609 -2.81568e-05)
(0.700231 0.326159 1.12425e-05)
(1.0844 -0.0678523 -2.98427e-05)
(0.791396 0.20921 -2.32941e-05)
(1.02818 0.551523 -2.99555e-05)
(0.824921 -0.17904 -1.43522e-05)
(0.906698 0.298916 2.63556e-06)
(0.673299 0.356689 2.61493e-05)
(0.824479 0.240887 -2.43435e-06)
(0.771198 0.301799 1.02553e-06)
(0.704865 0.0665529 -2.35526e-05)
(0.766332 0.413138 -1.16306e-05)
(0.663859 0.311403 2.30312e-05)
(0.814114 0.191451 1.22638e-05)
(0.478947 -0.115149 3.62408e-05)
(0.922657 0.337665 -1.08076e-05)
(0.754194 0.113485 2.389e-05)
(1.03882 0.499219 -1.18419e-07)
(0.631012 0.157866 -4.58431e-06)
(0.845719 0.179879 2.02917e-05)
(0.765288 0.0643928 8.01542e-07)
(0.783039 0.0727524 3.16442e-05)
(0.99613 0.226418 1.30208e-06)
(0.800074 0.282766 -7.1947e-06)
(0.676524 0.471948 -1.78319e-05)
(0.719679 0.222379 5.08631e-06)
(0.74359 0.460409 1.89312e-06)
(0.695586 0.116771 -3.16452e-05)
(0.83222 0.245065 -1.16119e-05)
(1.00564 0.044818 -2.30963e-05)
(1.28758 -0.234704 3.47195e-05)
(0.768022 0.284244 1.27074e-06)
(0.973117 0.249859 -3.20819e-05)
(0.827576 0.306595 -2.85621e-07)
(0.600441 0.19887 -3.30571e-05)
(0.83367 0.244923 2.03268e-06)
(0.754943 0.151324 -1.09835e-05)
(0.773532 0.261824 -2.1227e-05)
(0.529858 -0.0343017 -2.44246e-05)
(0.552705 0.260754 1.39007e-06)
(0.511513 0.0137888 -2.88537e-05)
(0.979198 0.34478 -2.29991e-06)
(0.691076 0.342666 3.13344e-05)
(0.778834 0.271427 2.11755e-05)
(0.618719 0.188296 -2.05482e-06)
(0.882519 0.132305 -1.56865e-06)
(0.779088 0.213233 4.53641e-08)
(0.796478 0.108836 -2.87163e-05)
(0.786329 0.279588 -1.78673e-08)
(0.746362 0.223794 -2.10583e-05)
(0.822232 0.134718 -1.52455e-06)
(0.629724 0.042059 -2.64532e-05)
(0.833758 -0.0942377 2.6636e-05)
(1.26956 0.455151 -2.68988e-05)
(0.739993 0.219013 -7.13549e-06)
(0.792354 0.263299 -2.07182e-05)
(0.80572 0.244424 -3.12391e-05)
(0.960644 0.0215615 2.25479e-05)
(0.754802 0.21417 2.13974e-06)