/*--------------------------------*- C++ -*----------------------------------*\
  =========                 |
  \\      /  F ield         | OpenFOAM: The Open Source CFD Toolbox
   \\    /   O peration     | Website:  https://openfoam.org
    \\  /    A nd           | Version:  6
     \\/     M anipulation  |
\*---------------------------------------------------------------------------*/
FoamFile
{
    version     2.0;
    format      ascii;
    class       volScalarField;
    location    "2.33";
    object      p;
}
// * * * * * * * * * * * * * * * * * * * * * * * * * * * * * * * * * * * * * //

dimensions      [1 -1 -2 0 0 0 0];

internalField   nonuniform List<scalar> 
5625
(
0.999999
0.999999
0.999999
0.999999
0.999999
0.999999
0.999999
0.999999
0.999999
0.999999
0.999999
0.999999
0.999999
1
1
1
1
1
1
1
1
1
1
1
1
1
1
1
1
1
1
1
1
1
1
1
1
1
1
1
1
1
1
1
1
1
1
1
1
1
1
1
1
1
1
1
1
1
1
1
1
1
1
1
1
1
1
1
1
1
1
1
1
1
1
0.999999
0.999999
0.999999
0.999999
0.999999
0.999999
0.999999
0.999999
0.999999
0.999999
0.999999
0.999999
0.999999
1
1
1
1
1
1
1
1
1
1
1
1
1
1
1
1
1
1
1
1
1
1
1
1
1
1
1
1
1
1
1
1
1
1
1
1
1
1
1
1
1
1
1
1
1
1
1
1
1
1
1
1
1
1
1
1
1
1
1
1
1
1
0.999999
0.999999
0.999999
0.999999
0.999999
0.999999
0.999998
0.999999
0.999999
0.999999
0.999999
0.999999
0.999999
0.999999
1
1
1
1
1
1
1
1
1
1
1
1
1
1
1
1
1
1
1
1
1
1
1
1
1
1
1
1
1
1
1
1
1
1
1
1
1
1
1
1
1
1
1
1
1
1
1
1
1
1
1
1
1
1
1
1
1
1
1
1
1
0.999999
0.999999
0.999998
0.999998
0.999998
0.999998
0.999998
0.999998
0.999998
0.999998
0.999998
0.999999
0.999999
0.999999
1
1
1
1
1
1
1
1
1
1
1
1
1
1
1
1
1
1
1
1
1
1
1
1
1
1
1
1
1
1
1
1
1
1
1
1
1
1
1
1
1
1
1
1
1
1
1
1
1
1
1
1
1
1
1
1
1
1
1
1
1
0.999998
0.999998
0.999997
0.999997
0.999997
0.999997
0.999997
0.999997
0.999997
0.999997
0.999998
0.999998
0.999998
0.999999
0.999999
1
1
1
1
1
1
1
1
1
1
1
1
1
1
1
1
1
1
1
1
1
1
1
1
1
1
1
1
1
1
1
1
1
1
1
1
1
1
1
1
1
1
1
1
1
1
1
1
1
1
1
1
1
1
1
1
1
1
1
1
0.999997
0.999997
0.999996
0.999996
0.999996
0.999996
0.999996
0.999996
0.999996
0.999996
0.999997
0.999997
0.999998
0.999999
0.999999
1
1
1
1
1
1
1
1
1
1
1
1
1
1
1
1
1
1
1
1
1
1
1
1
1
1
1
1
1
1
1
1
1
1
1
1
1
1
1
1
1
1
1
1
1
1
1
1
1
1
1
1
1
1
1
1
1
1
1
1
0.999996
0.999996
0.999995
0.999995
0.999995
0.999994
0.999994
0.999994
0.999994
0.999995
0.999996
0.999996
0.999997
0.999998
0.999999
1
1
1
1
1
1
1.00001
1.00001
1.00001
1.00001
1.00001
1.00001
1.00001
1
1
1
1
1
1
1
1
1
1
1
1
1
1
1
1
1
1
1
1
1
1
1
1
1
1
1
1
1
1
1
1
1
1
1
1
1
1
1
1
1
1
1
1
1
1
1
0.999995
0.999994
0.999994
0.999993
0.999993
0.999992
0.999992
0.999992
0.999993
0.999993
0.999994
0.999995
0.999996
0.999998
0.999999
1
1
1
1
1.00001
1.00001
1.00001
1.00001
1.00001
1.00001
1.00001
1.00001
1.00001
1.00001
1.00001
1
1
1
1
1
1
1
1
1
1
1
1
1
1
1
1
1
1
1
1
1
1
1
1
1
1
1
1
1
1
1
1
1
1
1
1
1
1
1
1
1
1
1
1
1
0.999993
0.999992
0.999992
0.999991
0.99999
0.99999
0.99999
0.99999
0.99999
0.999991
0.999992
0.999993
0.999995
0.999997
0.999999
1
1
1
1.00001
1.00001
1.00001
1.00001
1.00001
1.00001
1.00001
1.00001
1.00001
1.00001
1.00001
1.00001
1.00001
1.00001
1
1
1
1
1
1
1
1
1
1
1
1
1
1
1
1
1
1
1
1
1
1
1
1
1
1
1
1
1
1
1
1
1
1
1
1
1
1
1
1
1
1
1
0.999991
0.99999
0.999989
0.999988
0.999987
0.999986
0.999986
0.999986
0.999987
0.999988
0.999989
0.999991
0.999994
0.999996
0.999999
1
1
1.00001
1.00001
1.00001
1.00001
1.00001
1.00001
1.00001
1.00001
1.00001
1.00001
1.00001
1.00001
1.00001
1.00001
1.00001
1.00001
1.00001
1
1
1
1
1
1
1
1
1
1
1
1
1
1
1
1
1
1
1
1
1
1
1
1
1
1
1
1
1
1
1
1
1
1
1
1
1
1
1
1
1
0.999988
0.999987
0.999985
0.999984
0.999983
0.999982
0.999982
0.999982
0.999983
0.999985
0.999987
0.999989
0.999992
0.999995
0.999999
1
1.00001
1.00001
1.00001
1.00001
1.00002
1.00002
1.00002
1.00002
1.00002
1.00002
1.00002
1.00002
1.00002
1.00001
1.00001
1.00001
1.00001
1.00001
1.00001
1
1
1
1
1
1
1
1
1
1
1
1
1
1
1
1
1
1
1
1
1
1
1
1
1
1
1
1
1
1
1
1
1
1
1
1
1
1
1
1
0.999985
0.999983
0.999981
0.999979
0.999978
0.999977
0.999977
0.999977
0.999979
0.999981
0.999984
0.999987
0.999991
0.999995
1
1
1.00001
1.00001
1.00002
1.00002
1.00002
1.00003
1.00003
1.00003
1.00003
1.00003
1.00002
1.00002
1.00002
1.00002
1.00002
1.00001
1.00001
1.00001
1.00001
1.00001
1
1
1
1
1
1
1
1
1
1
1
1
1
1
1
1
1
1
1
1
1
1
1
1
1
1
1
1
1
1
1
1
1
1
1
1
1
1
1
0.99998
0.999978
0.999975
0.999974
0.999972
0.999971
0.999971
0.999972
0.999974
0.999977
0.999981
0.999985
0.99999
0.999996
1
1.00001
1.00001
1.00002
1.00002
1.00003
1.00003
1.00003
1.00003
1.00003
1.00003
1.00003
1.00003
1.00003
1.00003
1.00002
1.00002
1.00002
1.00001
1.00001
1.00001
1.00001
1.00001
1
1
1
1
1
1
1
1
1
1
1
1
1
1
1
1
1
1
1
1
1
1
1
1
1
1
1
1
1
1
1
1
1
1
1
1
1
1
0.999975
0.999972
0.999969
0.999967
0.999965
0.999965
0.999965
0.999966
0.999969
0.999973
0.999978
0.999984
0.999991
0.999998
1.00001
1.00001
1.00002
1.00003
1.00003
1.00004
1.00004
1.00005
1.00005
1.00005
1.00005
1.00004
1.00004
1.00004
1.00003
1.00003
1.00003
1.00002
1.00002
1.00002
1.00001
1.00001
1.00001
1.00001
1
1
1
1
1
1
1
1
1
1
1
1
1
1
1
1
1
1
1
1
1
1
1
1
1
1
1
1
1
1
1
1
1
1
1
1
1
0.999969
0.999966
0.999962
0.99996
0.999958
0.999957
0.999959
0.999961
0.999965
0.99997
0.999978
0.999985
0.999994
1
1.00001
1.00002
1.00003
1.00004
1.00005
1.00005
1.00006
1.00006
1.00006
1.00006
1.00006
1.00006
1.00005
1.00005
1.00004
1.00004
1.00003
1.00003
1.00002
1.00002
1.00002
1.00001
1.00001
1.00001
1.00001
1
1
1
1
1
1
1
1
1
1
1
1
1
1
1
1
1
1
1
1
1
1
1
1
1
1
1
1
1
1
1
1
1
1
1
1
0.999962
0.999958
0.999954
0.999952
0.99995
0.99995
0.999953
0.999957
0.999963
0.99997
0.99998
0.999991
1
1.00001
1.00003
1.00004
1.00005
1.00006
1.00007
1.00007
1.00008
1.00008
1.00008
1.00008
1.00008
1.00007
1.00007
1.00006
1.00006
1.00005
1.00004
1.00004
1.00003
1.00002
1.00002
1.00002
1.00001
1.00001
1.00001
1
1
1
1
1
1
1
1
1
1
1
1
1
1
1
1
1
1
1
1
1
1
1
1
1
1
1
1
1
1
1
1
1
1
1
1
0.999955
0.999951
0.999947
0.999945
0.999944
0.999946
0.99995
0.999956
0.999965
0.999976
0.999989
1
1.00002
1.00003
1.00005
1.00006
1.00008
1.00009
1.0001
1.00011
1.00011
1.00011
1.00011
1.00011
1.0001
1.0001
1.00009
1.00008
1.00007
1.00006
1.00006
1.00005
1.00004
1.00003
1.00002
1.00002
1.00001
1.00001
1.00001
1.00001
1
1
1
1
1
1
1
1
1
1
1
1
1
1
1
1
1
1
1
1
1
1
1
1
1
1
1
1
1
1
1
1
1
1
1
0.999948
0.999944
0.99994
0.999939
0.999941
0.999944
0.999951
0.999962
0.999975
0.99999
1.00001
1.00003
1.00005
1.00007
1.00009
1.0001
1.00012
1.00013
1.00014
1.00015
1.00015
1.00015
1.00015
1.00015
1.00014
1.00013
1.00012
1.00011
1.0001
1.00008
1.00007
1.00006
1.00005
1.00004
1.00003
1.00002
1.00002
1.00001
1.00001
1.00001
1
1
1
1
1
1
1
0.999999
1
1
1
1
1
1
1
1
1
1
1
1
1
1
1
1
1
1
1
1
1
1
1
1
1
1
1
0.999942
0.999938
0.999936
0.999937
0.999942
0.99995
0.999962
0.999978
0.999997
1.00002
1.00004
1.00007
1.0001
1.00012
1.00015
1.00017
1.00019
1.0002
1.00021
1.00022
1.00022
1.00022
1.00021
1.0002
1.00019
1.00017
1.00016
1.00014
1.00012
1.00011
1.00009
1.00008
1.00006
1.00005
1.00004
1.00003
1.00002
1.00002
1.00001
1.00001
1
1
1
1
1
0.999999
0.999999
0.999999
0.999999
0.999999
1
1
1
1
1
1
1
1
1
1
1
1
1
1
1
1
1
1
1
1
1
1
1
1
1
0.999939
0.999936
0.999938
0.999943
0.999953
0.999968
0.999988
1.00001
1.00004
1.00007
1.00011
1.00014
1.00018
1.00021
1.00024
1.00027
1.00029
1.0003
1.00031
1.00031
1.00031
1.0003
1.00029
1.00027
1.00025
1.00023
1.00021
1.00018
1.00016
1.00014
1.00012
1.0001
1.00008
1.00006
1.00005
1.00004
1.00003
1.00002
1.00001
1.00001
1.00001
1
1
1
0.999999
0.999999
0.999999
0.999999
0.999999
0.999999
0.999999
0.999999
1
1
1
1
1
1
1
1
1
1
1
1
1
1
1
1
1
1
1
1
1
1
1
0.99994
0.999941
0.999948
0.99996
0.999979
1
1.00004
1.00007
1.00012
1.00016
1.00021
1.00026
1.00031
1.00035
1.00039
1.00042
1.00044
1.00046
1.00046
1.00046
1.00045
1.00043
1.0004
1.00038
1.00034
1.00031
1.00028
1.00024
1.00021
1.00018
1.00015
1.00012
1.0001
1.00008
1.00006
1.00005
1.00003
1.00002
1.00002
1.00001
1.00001
1
1
0.999999
0.999999
0.999998
0.999998
0.999998
0.999999
0.999999
0.999999
0.999999
0.999999
1
1
1
1
1
1
1
1
1
1
1
1
1
1
1
1
1
1
1
1
1
1
0.99995
0.999958
0.999974
0.999997
1.00003
1.00007
1.00012
1.00018
1.00024
1.00031
1.00038
1.00044
1.0005
1.00056
1.00061
1.00064
1.00067
1.00068
1.00068
1.00067
1.00064
1.00061
1.00057
1.00052
1.00047
1.00042
1.00037
1.00032
1.00027
1.00023
1.00019
1.00016
1.00012
1.0001
1.00007
1.00006
1.00004
1.00003
1.00002
1.00001
1.00001
1
1
0.999998
0.999998
0.999997
0.999998
0.999998
0.999998
0.999998
0.999999
0.999999
0.999999
0.999999
1
1
1
1
1
1
1
1
1
1
1
1
1
1
1
1
1
1
1
1
1
0.999973
0.999992
1.00002
1.00006
1.00012
1.00018
1.00026
1.00034
1.00044
1.00053
1.00063
1.00072
1.0008
1.00087
1.00093
1.00097
1.001
1.00101
1.00099
1.00096
1.00092
1.00087
1.0008
1.00073
1.00066
1.00058
1.0005
1.00043
1.00037
1.00031
1.00025
1.0002
1.00016
1.00012
1.00009
1.00007
1.00005
1.00003
1.00002
1.00001
1.00001
1
0.999999
0.999997
0.999996
0.999996
0.999996
0.999997
0.999997
0.999998
0.999998
0.999999
0.999999
0.999999
0.999999
1
1
1
1
1
1
1
1
1
1
1
1
1
1
1
1
1
1
1
1
1.00002
1.00005
1.0001
1.00017
1.00026
1.00036
1.00047
1.0006
1.00073
1.00086
1.001
1.00112
1.00123
1.00133
1.0014
1.00145
1.00147
1.00147
1.00144
1.00139
1.00132
1.00123
1.00113
1.00102
1.00091
1.0008
1.00069
1.00059
1.00049
1.00041
1.00033
1.00026
1.00021
1.00016
1.00012
1.00009
1.00006
1.00004
1.00002
1.00001
1.00001
1
0.999997
0.999996
0.999995
0.999995
0.999995
0.999996
0.999996
0.999997
0.999998
0.999998
0.999999
0.999999
0.999999
0.999999
1
1
1
1
1
1
1
1
1
1
1
1
1
1
1
1
1
1
1
1.00009
1.00015
1.00024
1.00034
1.00047
1.00062
1.00079
1.00097
1.00116
1.00135
1.00153
1.0017
1.00185
1.00197
1.00207
1.00212
1.00214
1.00213
1.00208
1.00199
1.00188
1.00174
1.00159
1.00143
1.00127
1.00111
1.00095
1.0008
1.00067
1.00055
1.00044
1.00035
1.00027
1.0002
1.00015
1.00011
1.00008
1.00005
1.00003
1.00002
1.00001
1
0.999996
0.999994
0.999993
0.999993
0.999993
0.999994
0.999995
0.999996
0.999997
0.999997
0.999998
0.999999
0.999999
0.999999
1
1
1
1
1
1
1
1
1
1
1
1
1
1
1
1
1
1
1
1.0002
1.00031
1.00044
1.0006
1.00079
1.00101
1.00125
1.0015
1.00177
1.00203
1.00228
1.00251
1.00271
1.00287
1.00299
1.00306
1.00307
1.00304
1.00295
1.00282
1.00265
1.00246
1.00223
1.002
1.00176
1.00153
1.00131
1.0011
1.00091
1.00074
1.00059
1.00046
1.00036
1.00027
1.0002
1.00014
1.0001
1.00006
1.00004
1.00002
1.00001
0.999998
0.999993
0.999991
0.99999
0.99999
0.999991
0.999992
0.999993
0.999995
0.999996
0.999997
0.999998
0.999998
0.999999
0.999999
0.999999
1
1
1
1
1
1
1
1
1
1
1
1
1
1
1
1
1
1
1.00038
1.00054
1.00074
1.00097
1.00125
1.00156
1.0019
1.00226
1.00262
1.00298
1.00332
1.00363
1.00389
1.0041
1.00425
1.00433
1.00433
1.00427
1.00414
1.00395
1.00371
1.00342
1.00311
1.00278
1.00244
1.00211
1.0018
1.0015
1.00124
1.001
1.00079
1.00062
1.00047
1.00035
1.00026
1.00018
1.00012
1.00008
1.00005
1.00002
1.00001
0.999997
0.999991
0.999988
0.999987
0.999987
0.999988
0.99999
0.999991
0.999993
0.999995
0.999996
0.999997
0.999998
0.999998
0.999999
0.999999
0.999999
1
1
1
1
1
1
1
1
1
1
1
1
1
1
1
1
1
1.00063
1.00087
1.00116
1.0015
1.00189
1.00233
1.0028
1.00329
1.00378
1.00426
1.00472
1.00512
1.00547
1.00574
1.00592
1.00602
1.00601
1.00592
1.00573
1.00546
1.00512
1.00473
1.00429
1.00383
1.00336
1.0029
1.00246
1.00206
1.00169
1.00136
1.00108
1.00083
1.00063
1.00047
1.00034
1.00024
1.00016
1.0001
1.00006
1.00003
1.00001
0.999995
0.999987
0.999983
0.999982
0.999983
0.999985
0.999987
0.999989
0.999991
0.999993
0.999995
0.999996
0.999997
0.999998
0.999998
0.999999
0.999999
0.999999
1
1
1
1
1
1
1
1
1
1
1
1
1
1
1
1
1.001
1.00134
1.00175
1.00223
1.00278
1.00338
1.00401
1.00467
1.00533
1.00597
1.00656
1.00709
1.00753
1.00788
1.00811
1.00822
1.0082
1.00806
1.0078
1.00744
1.00697
1.00644
1.00585
1.00522
1.00459
1.00396
1.00336
1.0028
1.0023
1.00185
1.00146
1.00113
1.00085
1.00063
1.00046
1.00032
1.00021
1.00013
1.00008
1.00004
1.00001
0.999993
0.999983
0.999979
0.999977
0.999978
0.99998
0.999983
0.999986
0.999989
0.999991
0.999993
0.999995
0.999996
0.999997
0.999998
0.999999
0.999999
0.999999
1
1
1
1
1
1
1
1
1
1
1
1
1
1
1
1
1.0015
1.00198
1.00256
1.00322
1.00396
1.00477
1.00562
1.00648
1.00734
1.00817
1.00893
1.0096
1.01017
1.0106
1.01088
1.01101
1.01098
1.01079
1.01045
1.00996
1.00936
1.00865
1.00787
1.00704
1.00619
1.00535
1.00455
1.00379
1.00311
1.0025
1.00197
1.00152
1.00115
1.00085
1.00061
1.00043
1.00028
1.00018
1.0001
1.00005
1.00002
0.999993
0.99998
0.999974
0.999972
0.999973
0.999975
0.999978
0.999982
0.999985
0.999989
0.999991
0.999993
0.999995
0.999996
0.999998
0.999998
0.999999
0.999999
0.999999
1
1
1
1
1
1
1
1
1
1
1
1
1
1
1
1.00218
1.00285
1.00363
1.00452
1.00551
1.00657
1.00768
1.0088
1.0099
1.01094
1.0119
1.01274
1.01343
1.01396
1.01431
1.01446
1.01442
1.01417
1.01374
1.01312
1.01235
1.01144
1.01043
1.00936
1.00825
1.00715
1.00609
1.00509
1.00418
1.00336
1.00265
1.00205
1.00155
1.00115
1.00082
1.00057
1.00038
1.00024
1.00014
1.00007
1.00003
0.999995
0.999977
0.999969
0.999966
0.999966
0.999969
0.999973
0.999978
0.999982
0.999986
0.999989
0.999992
0.999994
0.999996
0.999997
0.999998
0.999998
0.999999
0.999999
1
1
1
1
1
1
1
1
1
1
1
1
1
1
1
1.00309
1.00399
1.00503
1.00621
1.0075
1.00886
1.01027
1.01168
1.01306
1.01434
1.01552
1.01653
1.01737
1.018
1.01841
1.01859
1.01853
1.01823
1.0177
1.01695
1.016
1.01487
1.01361
1.01225
1.01085
1.00943
1.00806
1.00676
1.00556
1.00449
1.00355
1.00275
1.00208
1.00154
1.00111
1.00078
1.00052
1.00033
1.0002
1.0001
1.00004
1
0.999976
0.999964
0.999959
0.99996
0.999963
0.999968
0.999973
0.999978
0.999983
0.999987
0.99999
0.999992
0.999995
0.999996
0.999997
0.999998
0.999999
0.999999
0.999999
1
1
1
1
1
1
1
1
1
1
1
1
1
1
1.00427
1.00546
1.00682
1.00834
1.00998
1.0117
1.01345
1.01518
1.01684
1.01839
1.01977
1.02096
1.02193
1.02266
1.02313
1.02333
1.02326
1.02292
1.0223
1.02142
1.0203
1.01896
1.01744
1.01577
1.01403
1.01226
1.01052
1.00886
1.00732
1.00592
1.0047
1.00365
1.00278
1.00206
1.00149
1.00104
1.00071
1.00046
1.00028
1.00015
1.00006
1.00001
0.999977
0.999959
0.999953
0.999952
0.999956
0.999961
0.999967
0.999973
0.999979
0.999984
0.999988
0.999991
0.999993
0.999995
0.999997
0.999998
0.999998
0.999999
0.999999
1
1
1
1
1
1
1
1
1
1
1
1
1
1
1.00577
1.00731
1.00906
1.01098
1.01301
1.01512
1.01723
1.01929
1.02123
1.02301
1.02458
1.02592
1.027
1.0278
1.02832
1.02854
1.02847
1.0281
1.02742
1.02645
1.02518
1.02365
1.02188
1.01992
1.01783
1.01568
1.01353
1.01145
1.00951
1.00773
1.00616
1.00481
1.00367
1.00273
1.00198
1.0014
1.00095
1.00062
1.00038
1.00021
1.0001
1.00003
0.999981
0.999957
0.999946
0.999944
0.999947
0.999953
0.99996
0.999968
0.999975
0.99998
0.999985
0.999989
0.999992
0.999994
0.999996
0.999997
0.999998
0.999999
0.999999
0.999999
1
1
1
1
1
1
1
1
1
1
1
1
1
1.00765
1.00961
1.01179
1.01415
1.01661
1.01912
1.02158
1.02393
1.02611
1.02807
1.02977
1.03119
1.03232
1.03315
1.03368
1.03391
1.03385
1.03347
1.03279
1.03178
1.03045
1.0288
1.02685
1.02464
1.02222
1.01969
1.01711
1.01459
1.01218
1.00997
1.00799
1.00626
1.0048
1.00359
1.00262
1.00186
1.00128
1.00084
1.00052
1.0003
1.00015
1.00005
0.999991
0.999957
0.999941
0.999937
0.999939
0.999946
0.999953
0.999962
0.99997
0.999976
0.999982
0.999987
0.99999
0.999993
0.999995
0.999997
0.999998
0.999999
0.999999
0.999999
1
1
1
1
1
1
1
1
1
1
1
1
1
1.00995
1.01238
1.01504
1.01786
1.02075
1.02362
1.02639
1.02896
1.03128
1.0333
1.03502
1.03641
1.03749
1.03827
1.03877
1.039
1.03895
1.03862
1.038
1.03706
1.03577
1.03412
1.0321
1.02974
1.02709
1.02423
1.02125
1.01826
1.01537
1.01266
1.01021
1.00805
1.00621
1.00467
1.00343
1.00245
1.00169
1.00113
1.00071
1.00042
1.00022
1.00009
1.00001
0.999961
0.999938
0.99993
0.999931
0.999937
0.999946
0.999955
0.999964
0.999972
0.999979
0.999984
0.999989
0.999992
0.999994
0.999996
0.999997
0.999998
0.999999
0.999999
1
1
1
1
1
1
1
1
1
1
1
1
1
1.01271
1.01565
1.0188
1.02207
1.02534
1.0285
1.03144
1.03409
1.03639
1.03832
1.03988
1.0411
1.042
1.04264
1.04303
1.04321
1.0432
1.04296
1.0425
1.04175
1.04066
1.03919
1.03729
1.03496
1.03222
1.02915
1.02585
1.02244
1.01906
1.01584
1.01287
1.01022
1.00793
1.00601
1.00444
1.00319
1.00222
1.0015
1.00096
1.00058
1.00032
1.00015
1.00004
0.999971
0.999938
0.999924
0.999923
0.999929
0.999938
0.999948
0.999958
0.999967
0.999975
0.999981
0.999986
0.99999
0.999993
0.999995
0.999997
0.999998
0.999999
0.999999
0.999999
1
1
1
1
1
1
1
1
1
1
1
1
1.01593
1.01939
1.02301
1.02667
1.03021
1.03349
1.03643
1.03894
1.041
1.04262
1.04382
1.04467
1.04523
1.04559
1.0458
1.04591
1.04593
1.04585
1.04564
1.04523
1.04454
1.04347
1.04193
1.03988
1.03729
1.03421
1.03074
1.02701
1.02321
1.01948
1.01597
1.01279
1.01
1.00763
1.00567
1.00411
1.00289
1.00196
1.00128
1.00079
1.00045
1.00022
1.00008
0.999989
0.999942
0.99992
0.999916
0.99992
0.999929
0.999941
0.999952
0.999962
0.999971
0.999978
0.999984
0.999989
0.999992
0.999995
0.999996
0.999998
0.999998
0.999999
0.999999
1
1
1
1
1
1
1
1
1
1
1
1
1.01959
1.02354
1.02756
1.03146
1.03509
1.03828
1.04095
1.04306
1.0446
1.04563
1.04622
1.04649
1.04655
1.0465
1.04644
1.04642
1.04649
1.04662
1.04677
1.04686
1.04676
1.04635
1.04546
1.04399
1.04185
1.03905
1.03565
1.0318
1.02768
1.02351
1.01948
1.01575
1.01242
1.00955
1.00716
1.00522
1.0037
1.00254
1.00168
1.00105
1.00062
1.00032
1.00013
1.00002
0.999952
0.99992
0.99991
0.999912
0.999921
0.999933
0.999945
0.999957
0.999967
0.999975
0.999982
0.999987
0.999991
0.999994
0.999996
0.999997
0.999998
0.999999
0.999999
1
1
1
1
1
1
1
1
1
1
1
1
1.02362
1.02798
1.03225
1.03619
1.03964
1.04245
1.04454
1.04592
1.04663
1.04679
1.04653
1.04601
1.04539
1.04481
1.0444
1.04422
1.04434
1.04473
1.04534
1.04606
1.04676
1.04724
1.0473
1.04674
1.04541
1.04324
1.04024
1.03653
1.03231
1.02783
1.02335
1.01909
1.0152
1.01179
1.00891
1.00656
1.00469
1.00325
1.00217
1.00139
1.00083
1.00046
1.00021
1.00006
0.99997
0.999925
0.999907
0.999905
0.999913
0.999925
0.999938
0.999951
0.999962
0.999972
0.999979
0.999985
0.999989
0.999993
0.999995
0.999997
0.999998
0.999999
0.999999
0.999999
1
1
1
1
1
1
1
1
1
1
1
1.02791
1.03253
1.03681
1.04052
1.04347
1.04554
1.04671
1.04703
1.04661
1.04563
1.04428
1.04279
1.04135
1.04014
1.03931
1.03895
1.03912
1.03981
1.04095
1.04243
1.04408
1.04567
1.04694
1.04762
1.04746
1.04631
1.04409
1.04086
1.03683
1.03226
1.02746
1.02273
1.0183
1.01434
1.01094
1.00812
1.00585
1.00409
1.00277
1.00179
1.0011
1.00063
1.00031
1.00011
0.999997
0.999934
0.999907
0.9999
0.999906
0.999918
0.999932
0.999945
0.999958
0.999968
0.999976
0.999983
0.999988
0.999992
0.999994
0.999996
0.999997
0.999998
0.999999
0.999999
1
1
1
1
1
1
1
1
1
1
1
1.03229
1.03693
1.04094
1.04408
1.04617
1.04715
1.04705
1.04598
1.04416
1.04181
1.03919
1.03657
1.0342
1.03228
1.03099
1.03044
1.03067
1.0317
1.03344
1.03576
1.03848
1.04134
1.04403
1.04622
1.04757
1.04782
1.04678
1.04444
1.04094
1.03657
1.03166
1.02659
1.02169
1.01718
1.01324
1.00991
1.00721
1.00509
1.00348
1.00228
1.00143
1.00084
1.00044
1.00019
1.00004
0.999951
0.99991
0.999897
0.9999
0.999911
0.999925
0.999939
0.999953
0.999964
0.999973
0.999981
0.999986
0.999991
0.999994
0.999996
0.999997
0.999998
0.999999
0.999999
1
1
1
1
1
1
1
1
1
1
1
1.03654
1.04091
1.04431
1.04651
1.04737
1.04691
1.04522
1.04252
1.03907
1.03516
1.03113
1.02728
1.02389
1.02121
1.01943
1.01867
1.01899
1.02038
1.02278
1.02602
1.02991
1.03415
1.03842
1.04232
1.04545
1.04742
1.04795
1.0469
1.04433
1.04049
1.03574
1.03053
1.02525
1.02026
1.01578
1.01194
1.00877
1.00625
1.00431
1.00286
1.00182
1.00109
1.0006
1.00028
1.00009
0.999976
0.999919
0.999898
0.999896
0.999905
0.999919
0.999934
0.999948
0.99996
0.999971
0.999979
0.999985
0.999989
0.999993
0.999995
0.999997
0.999998
0.999999
0.999999
0.999999
1
1
1
1
1
1
1
1
1
1
1.0404
1.04417
1.0466
1.0475
1.0468
1.0446
1.04109
1.03653
1.03128
1.02568
1.02011
1.01493
1.01045
1.00696
1.00466
1.00369
1.00411
1.00592
1.00903
1.01327
1.01841
1.02415
1.03011
1.03587
1.04096
1.04492
1.04733
1.04795
1.0467
1.04377
1.0395
1.03438
1.0289
1.02351
1.01853
1.01417
1.01051
1.00756
1.00527
1.00354
1.00228
1.0014
1.0008
1.0004
1.00016
1.00001
0.999935
0.999901
0.999894
0.9999
0.999913
0.999929
0.999943
0.999957
0.999968
0.999976
0.999983
0.999988
0.999992
0.999995
0.999996
0.999998
0.999998
0.999999
0.999999
1
1
1
1
1
1
1
1
1
1
1.04362
1.04645
1.04756
1.04684
1.04431
1.04014
1.0346
1.02803
1.02083
1.01341
1.00619
0.999571
0.993921
0.989544
0.986683
0.985494
0.986051
0.988332
0.992235
0.997571
1.00407
1.01141
1.01918
1.02692
1.03412
1.04024
1.04479
1.04737
1.04781
1.04615
1.04271
1.03797
1.0325
1.02684
1.02143
1.01657
1.01242
1.00902
1.00635
1.00432
1.00282
1.00176
1.00103
1.00054
1.00024
1.00006
0.999957
0.99991
0.999894
0.999897
0.999909
0.999924
0.999939
0.999953
0.999965
0.999974
0.999982
0.999987
0.999991
0.999994
0.999996
0.999997
0.999998
0.999999
0.999999
1
1
1
1
1
1
1
1
1
1
1.04599
1.04754
1.04704
1.04444
1.03987
1.03356
1.02584
1.01712
1.00783
0.998441
0.989422
0.981224
0.97427
0.968911
0.965428
0.964003
0.964715
0.967541
0.972348
0.978915
0.986933
0.996021
1.00574
1.01558
1.02501
1.03344
1.0403
1.0451
1.04751
1.04746
1.04518
1.04112
1.0359
1.03015
1.02442
1.01912
1.01448
1.01063
1.00755
1.00519
1.00343
1.00217
1.0013
1.00072
1.00034
1.00012
0.999987
0.999923
0.999898
0.999896
0.999905
0.99992
0.999935
0.99995
0.999962
0.999972
0.99998
0.999986
0.999991
0.999994
0.999996
0.999997
0.999998
0.999999
0.999999
1
1
1
1
1
1
1
1
1
1
1.04733
1.04733
1.04497
1.04032
1.03355
1.02497
1.01494
1.00391
0.992365
0.980817
0.969796
0.959824
0.95139
0.944911
0.940718
0.939024
0.939924
0.943379
0.949231
0.957206
0.966938
0.977981
0.989835
1.00195
1.01375
1.02462
1.03393
1.04111
1.04573
1.04758
1.04676
1.04369
1.03898
1.03334
1.02742
1.02174
1.01666
1.01235
1.00886
1.00615
1.00411
1.00264
1.00161
1.00091
1.00046
1.00019
1.00003
0.999942
0.999906
0.999897
0.999904
0.999917
0.999932
0.999947
0.99996
0.99997
0.999979
0.999985
0.99999
0.999993
0.999995
0.999997
0.999998
0.999999
0.999999
1
1
1
1
1
1
1
1
1
1
1.04755
1.04578
1.04141
1.03457
1.02549
1.01451
1.00203
0.988514
0.974485
0.960525
0.947239
0.935243
0.925108
0.917338
0.912324
0.910322
0.911442
0.915633
0.922698
0.932303
0.943998
0.957255
0.971492
0.986101
1.00045
1.0139
1.02578
1.03549
1.04248
1.04645
1.04738
1.04557
1.04162
1.0363
1.03034
1.02439
1.01892
1.01417
1.01027
1.00719
1.00486
1.00316
1.00196
1.00114
1.00061
1.00027
1.00007
0.999967
0.999917
0.999901
0.999903
0.999915
0.99993
0.999945
0.999958
0.999968
0.999977
0.999984
0.999989
0.999993
0.999995
0.999997
0.999998
0.999999
0.999999
0.999999
1
1
1
1
1
1
1
1
1
1.04665
1.04296
1.03647
1.02735
1.01586
1.00236
0.987239
0.970998
0.954205
0.937522
0.921655
0.907337
0.895248
0.885994
0.880038
0.877686
0.879063
0.88411
0.892582
0.904068
0.91802
0.933798
0.950714
0.968075
0.985193
1.00139
1.01599
1.02834
1.03785
1.04411
1.04697
1.04667
1.04373
1.03894
1.03311
1.02701
1.0212
1.01606
1.01175
1.00831
1.00568
1.00373
1.00235
1.0014
1.00077
1.00037
1.00013
0.999999
0.999933
0.999908
0.999905
0.999915
0.999928
0.999943
0.999956
0.999967
0.999976
0.999983
0.999988
0.999992
0.999995
0.999997
0.999998
0.999999
0.999999
0.999999
1
1
1
1
1
1
1
1
1
1.04467
1.03898
1.0303
1.01883
1.00484
0.988655
0.970676
0.951423
0.931533
0.911769
0.892973
0.876016
0.861711
0.850775
0.843752
0.841004
0.842677
0.848704
0.858792
0.872436
0.888968
0.907606
0.927535
0.947946
0.968082
0.987225
1.00469
1.01979
1.03192
1.0406
1.04558
1.04697
1.04526
1.04119
1.03566
1.02953
1.02348
1.01798
1.01328
1.00949
1.00654
1.00434
1.00277
1.00168
1.00095
1.00048
1.0002
1.00004
0.999954
0.999918
0.99991
0.999916
0.999928
0.999942
0.999955
0.999966
0.999975
0.999982
0.999988
0.999992
0.999995
0.999996
0.999998
0.999999
0.999999
0.999999
1
1
1
1
1
1
1
1
1
1.04174
1.03399
1.02308
1.00921
0.992595
0.973544
0.952449
0.929858
0.906506
0.883289
0.861213
0.841309
0.82454
0.811734
0.803525
0.800333
0.802337
0.809461
0.821365
0.83745
0.8569
0.878763
0.902057
0.92584
0.949259
0.971554
0.992022
1.00999
1.02484
1.03602
1.04323
1.04648
1.04617
1.04301
1.03794
1.0319
1.02569
1.01989
1.01485
1.0107
1.00744
1.00499
1.00322
1.00198
1.00115
1.00061
1.00028
1.00008
0.99998
0.999932
0.999916
0.999918
0.999928
0.999941
0.999954
0.999966
0.999975
0.999982
0.999988
0.999991
0.999994
0.999996
0.999998
0.999998
0.999999
0.999999
1
1
1
1
1
1
1
1
1
1.03798
1.02818
1.01501
0.998661
0.9793
0.957179
0.932688
0.906426
0.87925
0.852224
0.826549
0.803427
0.783978
0.769141
0.75964
0.755956
0.758305
0.76662
0.780519
0.799303
0.821996
0.847446
0.874466
0.901947
0.92892
0.954574
0.978192
0.99912
1.01674
1.0305
1.04003
1.04525
1.04647
1.04438
1.03992
1.03409
1.02782
1.02178
1.01641
1.01193
1.00837
1.00567
1.00369
1.0023
1.00136
1.00075
1.00036
1.00013
1.00001
0.999949
0.999925
0.999923
0.999931
0.999942
0.999954
0.999965
0.999974
0.999982
0.999987
0.999991
0.999994
0.999996
0.999998
0.999998
0.999999
0.999999
1
1
1
1
1
1
1
1
1
1.03357
1.02171
1.00628
0.987381
0.965138
0.939742
0.911581
0.881333
0.850008
0.818874
0.78934
0.762797
0.740511
0.723529
0.712654
0.708431
0.711122
0.720682
0.736705
0.758395
0.784604
0.81396
0.84504
0.87653
0.907319
0.936524
0.963423
0.987385
1.00782
1.02419
1.03607
1.04333
1.04619
1.04529
1.04155
1.03606
1.02981
1.0236
1.01795
1.01317
1.00932
1.00636
1.00419
1.00264
1.00159
1.00089
1.00045
1.00019
1.00004
0.999969
0.999937
0.999929
0.999934
0.999944
0.999955
0.999966
0.999975
0.999982
0.999987
0.999991
0.999994
0.999996
0.999997
0.999998
0.999999
0.999999
1
1
1
1
1
1
1
1
1
1.02867
1.01477
0.997058
0.975561
0.950316
0.92146
0.889393
0.854899
0.819175
0.78372
0.750165
0.720089
0.694893
0.675719
0.663436
0.658641
0.661647
0.672456
0.690655
0.715369
0.74528
0.778778
0.814181
0.849939
0.884769
0.917694
0.947977
0.975022
0.998287
1.01726
1.0315
1.04083
1.04539
1.04576
1.04286
1.03779
1.03165
1.02532
1.01945
1.01438
1.01026
1.00706
1.00469
1.00299
1.00182
1.00105
1.00055
1.00025
1.00008
0.999992
0.999951
0.999937
0.999939
0.999947
0.999957
0.999967
0.999975
0.999982
0.999987
0.999991
0.999994
0.999996
0.999997
0.999998
0.999999
0.999999
1
1
1
1
1
1
1
1
1
1.02345
1.00755
0.987554
0.963413
0.935075
0.902624
0.866486
0.827573
0.787303
0.747428
0.70981
0.676207
0.648141
0.626822
0.613159
0.607783
0.611068
0.623068
0.643399
0.671131
0.704799
0.742554
0.782435
0.822629
0.861652
0.898415
0.93215
0.962293
0.988363
1.00989
1.02647
1.03785
1.04413
1.04583
1.04383
1.03928
1.03331
1.02694
1.02087
1.01556
1.01118
1.00775
1.00519
1.00334
1.00206
1.00121
1.00066
1.00032
1.00012
1.00002
0.999967
0.999947
0.999945
0.99995
0.999959
0.999968
0.999976
0.999983
0.999988
0.999992
0.999994
0.999996
0.999998
0.999998
0.999999
0.999999
1
1
1
1
1
1
1
1
1
1.01806
1.00022
0.977963
0.95117
0.919699
0.883591
0.84331
0.799924
0.755092
0.710833
0.669243
0.632259
0.601492
0.578186
0.563243
0.557313
0.560819
0.573893
0.596203
0.626807
0.664125
0.706095
0.750472
0.795153
0.838427
0.879068
0.916264
0.949477
0.978294
1.00231
1.02114
1.03453
1.04251
1.04555
1.0445
1.04051
1.03479
1.02842
1.02221
1.01668
1.01207
1.00843
1.00568
1.00369
1.0023
1.00137
1.00077
1.00039
1.00017
1.00005
0.999985
0.999959
0.999952
0.999955
0.999962
0.99997
0.999977
0.999983
0.999988
0.999992
0.999995
0.999996
0.999998
0.999998
0.999999
0.999999
1
1
1
1
1
1
1
1
1
1.01268
0.992955
0.968494
0.939082
0.904507
0.864776
0.820404
0.772627
0.723357
0.674894
0.629573
0.589488
0.556317
0.531277
0.515224
0.508792
0.512453
0.526426
0.550455
0.583634
0.624328
0.670303
0.71904
0.768132
0.815608
0.860078
0.90067
0.93687
0.968328
0.994714
1.01569
1.03099
1.04063
1.04499
1.0449
1.04151
1.03608
1.02976
1.02345
1.01773
1.01291
1.00907
1.00616
1.00403
1.00254
1.00153
1.00087
1.00046
1.00022
1.00008
1
0.999972
0.999961
0.999961
0.999966
0.999973
0.999979
0.999985
0.999989
0.999992
0.999995
0.999997
0.999998
0.999999
0.999999
0.999999
1
1
1
1
1
1
1
1
1
1.00745
0.985946
0.959361
0.927419
0.889851
0.846642
0.798362
0.746422
0.692987
0.64064
0.591953
0.549167
0.513978
0.48753
0.470581
0.463725
0.467471
0.482123
0.507525
0.542853
0.586492
0.636099
0.688914
0.742213
0.793733
0.841891
0.885739
0.924777
0.958724
0.987324
1.01029
1.02739
1.03859
1.04422
1.04508
1.0423
1.03718
1.03094
1.02456
1.0187
1.01369
1.00968
1.00661
1.00435
1.00277
1.00169
1.00098
1.00053
1.00026
1.00011
1.00003
0.999986
0.99997
0.999967
0.99997
0.999976
0.999981
0.999986
0.99999
0.999993
0.999995
0.999997
0.999998
0.999999
0.999999
0.999999
1
1
1
1
1
1
1
1
1
1.00252
0.979368
0.950785
0.91646
0.876094
0.829664
0.777802
0.722069
0.664881
0.609091
0.557504
0.512485
0.475712
0.448206
0.430593
0.42341
0.427182
0.442278
0.468654
0.505618
0.551647
0.604372
0.660844
0.718024
0.773331
0.824952
0.87184
0.913504
0.949731
0.980347
1.00513
1.02387
1.0365
1.04332
1.04507
1.04289
1.0381
1.03197
1.02555
1.01956
1.01441
1.01023
1.00702
1.00466
1.00298
1.00184
1.00108
1.00061
1.00031
1.00014
1.00005
1
0.999981
0.999975
0.999975
0.999979
0.999984
0.999988
0.999991
0.999994
0.999996
0.999997
0.999998
0.999999
0.999999
0.999999
1
1
1
1
1
1
1
1
1
0.998029
0.973393
0.942987
0.906483
0.863593
0.814308
0.759314
0.700298
0.639888
0.581191
0.527223
0.480456
0.44252
0.414292
0.396248
0.388848
0.392603
0.407924
0.43487
0.472921
0.520721
0.575953
0.63554
0.696162
0.7549
0.809678
0.859322
0.903341
0.94159
0.973985
1.00037
1.02055
1.03446
1.04235
1.04493
1.04332
1.03885
1.03284
1.02641
1.02032
1.01503
1.01073
1.0074
1.00493
1.00318
1.00198
1.00118
1.00067
1.00036
1.00018
1.00007
1.00002
0.999993
0.999983
0.999981
0.999983
0.999986
0.999989
0.999992
0.999995
0.999996
0.999998
0.999998
0.999999
0.999999
1
1
1
1
1
1
1
1
1
1
0.994105
0.968182
0.936179
0.897754
0.85268
0.800991
0.743422
0.681746
0.618748
0.557735
0.501922
0.45386
0.41513
0.386462
0.368194
0.360688
0.364408
0.379769
0.406923
0.44554
0.494483
0.551565
0.613652
0.677181
0.738899
0.796447
0.848501
0.894551
0.934523
0.968419
0.996153
1.01756
1.03257
1.0414
1.04472
1.04361
1.03944
1.03356
1.02712
1.02097
1.01557
1.01116
1.00772
1.00518
1.00336
1.0021
1.00127
1.00074
1.00041
1.00021
1.0001
1.00003
1
0.999991
0.999987
0.999987
0.999989
0.999991
0.999994
0.999996
0.999997
0.999998
0.999999
0.999999
0.999999
1
1
1
1
1
1
1
1
1
1
0.990854
0.963883
0.930553
0.890521
0.843646
0.790059
0.730545
0.666911
0.602026
0.539333
0.482193
0.433233
0.393993
0.365096
0.346758
0.339238
0.342919
0.358185
0.38526
0.423996
0.473507
0.531794
0.595732
0.66157