/*--------------------------------*- C++ -*----------------------------------*\
  =========                 |
  \\      /  F ield         | OpenFOAM: The Open Source CFD Toolbox
   \\    /   O peration     | Website:  https://openfoam.org
    \\  /    A nd           | Version:  6
     \\/     M anipulation  |
\*---------------------------------------------------------------------------*/
FoamFile
{
    version     2.0;
    format      ascii;
    class       volScalarField;
    location    "1.81";
    object      mag(U);
}
// * * * * * * * * * * * * * * * * * * * * * * * * * * * * * * * * * * * * * //

dimensions      [0 1 -1 0 0 0 0];

internalField   nonuniform List<scalar> 
10000
(
0.99997
0.99997
0.99997
0.99997
0.99997
0.99997
0.99997
0.99997
0.99997
0.99997
0.99997
0.99997
0.99997
0.99997
0.99997
0.99997
0.99997
0.99997
0.99997
0.99997
0.99997
0.99997
0.99997
0.99997
0.99997
0.99997
0.99997
0.99997
0.99997
0.99997
0.99997
0.99997
0.99997
0.99997
0.99997
0.99997
0.99997
0.99997
0.99997
0.99997
0.99997
0.99997
0.99997
0.99997
0.99997
0.99997
0.99997
0.99997
0.99997
0.99997
0.99997
0.99997
0.99997
0.99997
0.99997
0.99997
0.99997
0.99997
0.99997
0.99997
0.99997
0.99997
0.99997
0.99997
0.99997
0.99997
0.99997
0.99997
0.99997
0.99997
0.99997
0.99997
0.99997
0.99997
0.99997
0.99997
0.99997
0.99997
0.99997
0.99997
0.99997
0.99997
0.99997
0.99997
0.99997
0.99997
0.99997
0.99997
0.99997
0.99997
0.99997
0.99997
0.99997
0.99997
0.99997
0.99997
0.99997
0.99997
0.99997
0.99997
0.99997
0.99997
0.99997
0.99997
0.99997
0.99997
0.99997
0.99997
0.99997
0.99997
0.99997
0.99997
0.99997
0.99997
0.99997
0.99997
0.99997
0.99997
0.99997
0.99997
0.99997
0.99997
0.99997
0.99997
0.99997
0.99997
0.99997
0.99997
0.99997
0.99997
0.99997
0.99997
0.99997
0.99997
0.99997
0.99997
0.99997
0.99997
0.99997
0.99997
0.99997
0.99997
0.99997
0.99997
0.99997
0.99997
0.99997
0.99997
0.99997
0.99997
0.99997
0.99997
0.99997
0.99997
0.99997
0.99997
0.99997
0.99997
0.99997
0.99997
0.99997
0.99997
0.99997
0.99997
0.99997
0.99997
0.99997
0.99997
0.99997
0.99997
0.99997
0.99997
0.99997
0.99997
0.99997
0.99997
0.99997
0.99997
0.99997
0.99997
0.99997
0.99997
0.99997
0.99997
0.99997
0.99997
0.99997
0.99997
0.99997
0.99997
0.99997
0.99997
0.99997
0.99997
0.99997
0.99997
0.99997
0.99997
0.99997
0.99997
0.99997
0.99997
0.99997
0.99997
0.99997
0.99997
0.99997
0.99997
0.99997
0.99997
0.99997
0.99997
0.99997
0.99997
0.99997
0.99997
0.99997
0.99997
0.99997
0.99997
0.99997
0.99997
0.99997
0.99997
0.99997
0.99997
0.99997
0.99997
0.99997
0.99997
0.99997
0.99997
0.99997
0.99997
0.99997
0.99997
0.99997
0.99997
0.99997
0.99997
0.99997
0.99997
0.99997
0.99997
0.99997
0.99997
0.99997
0.99997
0.99997
0.99997
0.99997
0.99997
0.99997
0.99997
0.99997
0.99997
0.99997
0.99997
0.99997
0.99997
0.99997
0.99997
0.99997
0.99997
0.99997
0.99997
0.99997
0.99997
0.99997
0.99997
0.99997
0.99997
0.99997
0.99997
0.99997
0.99997
0.99997
0.99997
0.99997
0.99997
0.99997
0.99997
0.99997
0.99997
0.99997
0.99997
0.99997
0.99997
0.99997
0.99997
0.99997
0.99997
0.99997
0.99997
0.99997
0.99997
0.99997
0.99997
0.99997
0.99997
0.99997
0.99997
0.99997
0.99997
0.99997
0.99997
0.99997
0.99997
0.99997
0.99997
0.99997
0.99997
0.99997
0.99997
0.99997
0.99997
0.99997
0.99997
0.99997
0.99997
0.99997
0.99997
0.99997
0.99997
0.99997
0.99997
0.99997
0.99997
0.99997
0.99997
0.99997
0.99997
0.99997
0.99997
0.99997
0.99997
0.99997
0.99997
0.99997
0.99997
0.99997
0.99997
0.99997
0.99997
0.99997
0.99997
0.99997
0.99997
0.999969
0.999969
0.999969
0.999969
0.999969
0.999969
0.999969
0.999969
0.99997
0.99997
0.99997
0.99997
0.99997
0.99997
0.99997
0.99997
0.99997
0.99997
0.99997
0.99997
0.99997
0.99997
0.99997
0.99997
0.99997
0.99997
0.99997
0.99997
0.99997
0.99997
0.99997
0.99997
0.99997
0.99997
0.99997
0.99997
0.99997
0.99997
0.99997
0.99997
0.99997
0.99997
0.99997
0.99997
0.99997
0.99997
0.99997
0.99997
0.99997
0.99997
0.99997
0.99997
0.99997
0.99997
0.99997
0.99997
0.99997
0.99997
0.99997
0.99997
0.99997
0.99997
0.99997
0.99997
0.99997
0.99997
0.99997
0.99997
0.99997
0.99997
0.99997
0.99997
0.99997
0.99997
0.99997
0.99997
0.99997
0.99997
0.99997
0.99997
0.99997
0.99997
0.99997
0.99997
0.99997
0.99997
0.99997
0.99997
0.99997
0.99997
0.99997
0.99997
0.99997
0.99997
0.99997
0.99997
0.99997
0.99997
0.99997
0.999969
0.999969
0.999969
0.999969
0.999969
0.999969
0.999969
0.999969
0.999969
0.999968
0.999969
0.999969
0.999969
0.99997
0.99997
0.99997
0.99997
0.99997
0.99997
0.99997
0.99997
0.99997
0.99997
0.99997
0.99997
0.99997
0.99997
0.99997
0.99997
0.99997
0.99997
0.99997
0.99997
0.99997
0.99997
0.99997
0.99997
0.99997
0.99997
0.99997
0.99997
0.99997
0.99997
0.99997
0.99997
0.99997
0.99997
0.99997
0.99997
0.99997
0.99997
0.99997
0.99997
0.99997
0.99997
0.99997
0.99997
0.99997
0.99997
0.99997
0.99997
0.99997
0.99997
0.99997
0.99997
0.99997
0.99997
0.99997
0.99997
0.99997
0.99997
0.99997
0.99997
0.99997
0.99997
0.99997
0.99997
0.99997
0.99997
0.99997
0.99997
0.99997
0.99997
0.99997
0.99997
0.99997
0.99997
0.99997
0.99997
0.99997
0.99997
0.99997
0.99997
0.99997
0.99997
0.99997
0.99997
0.99997
0.999969
0.999969
0.999969
0.999969
0.999969
0.999969
0.999968
0.999968
0.999968
0.999968
0.999968
0.999968
0.999969
0.999969
0.999969
0.99997
0.99997
0.999971
0.999971
0.99997
0.99997
0.99997
0.99997
0.99997
0.99997
0.99997
0.99997
0.99997
0.99997
0.99997
0.99997
0.99997
0.99997
0.99997
0.99997
0.99997
0.99997
0.99997
0.99997
0.99997
0.99997
0.99997
0.99997
0.99997
0.99997
0.99997
0.99997
0.99997
0.99997
0.99997
0.99997
0.99997
0.99997
0.99997
0.99997
0.99997
0.99997
0.99997
0.99997
0.99997
0.99997
0.99997
0.99997
0.99997
0.99997
0.99997
0.99997
0.99997
0.99997
0.99997
0.99997
0.99997
0.99997
0.99997
0.99997
0.99997
0.99997
0.99997
0.99997
0.99997
0.99997
0.99997
0.99997
0.99997
0.99997
0.99997
0.99997
0.99997
0.99997
0.99997
0.99997
0.99997
0.99997
0.99997
0.99997
0.99997
0.99997
0.99997
0.99997
0.999969
0.99997
0.99997
0.99997
0.999969
0.999969
0.999968
0.999968
0.999967
0.999966
0.999967
0.999966
0.999967
0.999967
0.999968
0.999969
0.999969
0.99997
0.999971
0.999972
0.999971
0.999971
0.999972
0.999971
0.999971
0.999971
0.99997
0.99997
0.99997
0.99997
0.99997
0.99997
0.99997
0.99997
0.99997
0.99997
0.99997
0.99997
0.99997
0.99997
0.99997
0.99997
0.99997
0.99997
0.99997
0.99997
0.99997
0.99997
0.99997
0.99997
0.99997
0.99997
0.99997
0.99997
0.99997
0.99997
0.99997
0.99997
0.99997
0.99997
0.99997
0.99997
0.99997
0.99997
0.99997
0.99997
0.99997
0.99997
0.99997
0.99997
0.99997
0.99997
0.99997
0.99997
0.99997
0.99997
0.99997
0.99997
0.99997
0.99997
0.99997
0.99997
0.99997
0.99997
0.99997
0.99997
0.99997
0.99997
0.99997
0.99997
0.99997
0.99997
0.99997
0.99997
0.99997
0.99997
0.99997
0.99997
0.99997
0.999969
0.99997
0.99997
0.99997
0.999969
0.999969
0.999968
0.999967
0.999966
0.999965
0.999964
0.999964
0.999964
0.999965
0.999965
0.999966
0.999968
0.999969
0.99997
0.999971
0.999972
0.999973
0.999973
0.999973
0.999972
0.999972
0.999971
0.999971
0.999971
0.99997
0.99997
0.99997
0.99997
0.99997
0.99997
0.99997
0.99997
0.99997
0.99997
0.99997
0.99997
0.99997
0.99997
0.99997
0.99997
0.99997
0.99997
0.99997
0.99997
0.99997
0.99997
0.99997
0.99997
0.99997
0.99997
0.99997
0.99997
0.99997
0.99997
0.99997
0.99997
0.99997
0.99997
0.99997
0.99997
0.99997
0.99997
0.99997
0.99997
0.99997
0.99997
0.99997
0.99997
0.99997
0.99997
0.99997
0.99997
0.99997
0.99997
0.99997
0.99997
0.99997
0.99997
0.99997
0.99997
0.99997
0.99997
0.99997
0.99997
0.99997
0.99997
0.99997
0.99997
0.99997
0.99997
0.99997
0.99997
0.99997
0.99997
0.999969
0.99997
0.99997
0.99997
0.99997
0.999969
0.999968
0.999967
0.999966
0.999964
0.999962
0.99996
0.999959
0.999958
0.999959
0.99996
0.999962
0.999965
0.999968
0.99997
0.999972
0.999974
0.999975
0.999975
0.999975
0.999975
0.999974
0.999973
0.999972
0.999971
0.999971
0.99997
0.99997
0.99997
0.99997
0.99997
0.99997
0.99997
0.99997
0.99997
0.99997
0.99997
0.99997
0.99997
0.99997
0.99997
0.99997
0.99997
0.99997
0.99997
0.99997
0.99997
0.99997
0.99997
0.99997
0.99997
0.99997
0.99997
0.99997
0.99997
0.99997
0.99997
0.99997
0.99997
0.99997
0.99997
0.99997
0.99997
0.99997
0.99997
0.99997
0.99997
0.99997
0.99997
0.99997
0.99997
0.99997
0.99997
0.99997
0.99997
0.99997
0.99997
0.99997
0.99997
0.99997
0.99997
0.99997
0.99997
0.99997
0.99997
0.99997
0.99997
0.99997
0.99997
0.99997
0.99997
0.99997
0.99997
0.99997
0.99997
0.99997
0.99997
0.99997
0.99997
0.99997
0.999968
0.999967
0.999965
0.999962
0.999959
0.999956
0.999953
0.999951
0.99995
0.999951
0.999953
0.999955
0.99996
0.999964
0.999968
0.999972
0.999975
0.999977
0.999978
0.999978
0.999976
0.999976
0.999974
0.999973
0.999973
0.999971
0.999971
0.99997
0.99997
0.99997
0.99997
0.99997
0.99997
0.99997
0.99997
0.99997
0.99997
0.99997
0.99997
0.99997
0.99997
0.99997
0.99997
0.99997
0.99997
0.99997
0.99997
0.99997
0.99997
0.99997
0.99997
0.99997
0.99997
0.99997
0.99997
0.99997
0.99997
0.99997
0.99997
0.99997
0.99997
0.99997
0.99997
0.99997
0.99997
0.99997
0.99997
0.99997
0.99997
0.99997
0.99997
0.99997
0.99997
0.99997
0.99997
0.99997
0.99997
0.99997
0.99997
0.99997
0.99997
0.99997
0.99997
0.99997
0.99997
0.99997
0.99997
0.99997
0.99997
0.99997
0.99997
0.99997
0.99997
0.99997
0.99997
0.99997
0.99997
0.999971
0.99997
0.999969
0.999967
0.999965
0.999961
0.999957
0.999951
0.999946
0.999941
0.999937
0.999935
0.999936
0.999939
0.999944
0.99995
0.999958
0.999965
0.999972
0.999976
0.99998
0.999982
0.999981
0.99998
0.999979
0.999977
0.999975
0.999973
0.999972
0.999971
0.999971
0.99997
0.99997
0.99997
0.99997
0.99997
0.99997
0.99997
0.99997
0.99997
0.99997
0.99997
0.99997
0.99997
0.99997
0.99997
0.99997
0.99997
0.99997
0.99997
0.99997
0.99997
0.99997
0.99997
0.99997
0.99997
0.99997
0.99997
0.99997
0.99997
0.99997
0.99997
0.99997
0.99997
0.99997
0.99997
0.99997
0.99997
0.99997
0.99997
0.99997
0.99997
0.99997
0.99997
0.99997
0.99997
0.99997
0.99997
0.99997
0.99997
0.99997
0.99997
0.99997
0.99997
0.99997
0.99997
0.99997
0.99997
0.99997
0.99997
0.99997
0.99997
0.99997
0.99997
0.99997
0.99997
0.99997
0.99997
0.999971
0.999971
0.999971
0.99997
0.999969
0.999966
0.999962
0.999955
0.999948
0.999938
0.999929
0.999921
0.999914
0.999909
0.999909
0.999914
0.999922
0.999933
0.999945
0.999957
0.999968
0.999976
0.999983
0.999986
0.999986
0.999985
0.999983
0.99998
0.999978
0.999975
0.999974
0.999972
0.999971
0.99997
0.99997
0.99997
0.99997
0.99997
0.99997
0.99997
0.99997
0.99997
0.99997
0.99997
0.99997
0.99997
0.99997
0.99997
0.99997
0.99997
0.99997
0.99997
0.99997
0.99997
0.99997
0.99997
0.99997
0.99997
0.99997
0.99997
0.99997
0.99997
0.99997
0.99997
0.99997
0.99997
0.99997
0.99997
0.99997
0.99997
0.99997
0.99997
0.99997
0.99997
0.99997
0.99997
0.99997
0.99997
0.99997
0.99997
0.99997
0.99997
0.99997
0.99997
0.99997
0.99997
0.99997
0.99997
0.99997
0.99997
0.99997
0.99997
0.99997
0.99997
0.99997
0.99997
0.99997
0.99997
0.99997
0.99997
0.999971
0.999971
0.999971
0.99997
0.999967
0.999963
0.999956
0.999945
0.999932
0.999917
0.999901
0.999885
0.999873
0.999865
0.999864
0.99987
0.999883
0.9999
0.99992
0.99994
0.999958
0.999973
0.999984
0.99999
0.999992
0.999992
0.999989
0.999985
0.999981
0.999978
0.999975
0.999974
0.999972
0.99997
0.99997
0.99997
0.99997
0.99997
0.99997
0.99997
0.99997
0.99997
0.99997
0.99997
0.99997
0.99997
0.99997
0.99997
0.99997
0.99997
0.99997
0.99997
0.99997
0.99997
0.99997
0.99997
0.99997
0.99997
0.99997
0.99997
0.99997
0.99997
0.99997
0.99997
0.99997
0.99997
0.99997
0.99997
0.99997
0.99997
0.99997
0.99997
0.99997
0.99997
0.99997
0.99997
0.99997
0.99997
0.99997
0.99997
0.99997
0.99997
0.99997
0.99997
0.99997
0.99997
0.99997
0.99997
0.99997
0.99997
0.99997
0.99997
0.99997
0.99997
0.99997
0.99997
0.99997
0.99997
0.99997
0.999971
0.999971
0.999973
0.999972
0.99997
0.999966
0.999958
0.999945
0.999928
0.999905
0.999878
0.99985
0.999823
0.999802
0.999788
0.999785
0.999794
0.999813
0.999841
0.999873
0.999907
0.999937
0.999962
0.999981
0.999993
0.999999
0.999999
0.999996
0.999991
0.999986
0.999981
0.999978
0.999974
0.999972
0.999971
0.99997
0.99997
0.99997
0.99997
0.99997
0.99997
0.99997
0.99997
0.99997
0.99997
0.99997
0.99997
0.99997
0.99997
0.99997
0.99997
0.99997
0.99997
0.99997
0.99997
0.99997
0.99997
0.99997
0.99997
0.99997
0.99997
0.99997
0.99997
0.99997
0.99997
0.99997
0.99997
0.99997
0.99997
0.99997
0.99997
0.99997
0.99997
0.99997
0.99997
0.99997
0.99997
0.99997
0.99997
0.99997
0.99997
0.99997
0.99997
0.99997
0.99997
0.99997
0.99997
0.99997
0.99997
0.99997
0.99997
0.99997
0.99997
0.99997
0.99997
0.99997
0.99997
0.99997
0.99997
0.999971
0.999971
0.999972
0.999973
0.999972
0.999969
0.999961
0.999947
0.999926
0.999896
0.999857
0.999813
0.999765
0.99972
0.999682
0.999659
0.999651
0.999663
0.999692
0.999736
0.999788
0.999843
0.999893
0.999937
0.999969
0.999991
1
1.00001
1
0.999998
0.999992
0.999985
0.99998
0.999975
0.999973
0.99997
0.99997
0.999969
0.999969
0.99997
0.99997
0.99997
0.99997
0.99997
0.99997
0.99997
0.99997
0.99997
0.99997
0.99997
0.99997
0.99997
0.99997
0.99997
0.99997
0.99997
0.99997
0.99997
0.99997
0.99997
0.99997
0.99997
0.99997
0.99997
0.99997
0.99997
0.99997
0.99997
0.99997
0.99997
0.99997
0.99997
0.99997
0.99997
0.99997
0.99997
0.99997
0.99997
0.99997
0.99997
0.99997
0.99997
0.99997
0.99997
0.99997
0.99997
0.99997
0.99997
0.99997
0.99997
0.99997
0.99997
0.99997
0.99997
0.99997
0.99997
0.99997
0.999969
0.99997
0.99997
0.999971
0.999973
0.999974
0.999973
0.999972
0.999966
0.999952
0.999928
0.999891
0.999841
0.999777
0.999702
0.999622
0.999545
0.99948
0.999439
0.999424
0.99944
0.999485
0.999554
0.999637
0.999726
0.999809
0.999882
0.999938
0.999976
1
1.00001
1.00001
1
0.999997
0.999989
0.999983
0.999977
0.999973
0.99997
0.99997
0.999969
0.999969
0.999969
0.999969
0.99997
0.99997
0.99997
0.99997
0.99997
0.99997
0.99997
0.99997
0.99997
0.99997
0.99997
0.99997
0.99997
0.99997
0.99997
0.99997
0.99997
0.99997
0.99997
0.99997
0.99997
0.99997
0.99997
0.99997
0.99997
0.99997
0.99997
0.99997
0.99997
0.99997
0.99997
0.99997
0.99997
0.99997
0.99997
0.99997
0.99997
0.99997
0.99997
0.99997
0.99997
0.99997
0.99997
0.99997
0.99997
0.99997
0.99997
0.99997
0.99997
0.99997
0.99997
0.99997
0.99997
0.999969
0.99997
0.999969
0.99997
0.99997
0.99997
0.999971
0.999973
0.999974
0.999973
0.999969
0.999957
0.999933
0.999893
0.999831
0.999746
0.999639
0.999514
0.999382
0.999253
0.999146
0.999073
0.999045
0.999067
0.999137
0.999244
0.999377
0.99952
0.999657
0.999777
0.999872
0.99994
0.999983
1.00001
1.00001
1.00001
1
0.999992
0.999984
0.999977
0.999973
0.99997
0.999969
0.999969
0.999968
0.999968
0.999968
0.999969
0.99997
0.99997
0.99997
0.99997
0.99997
0.99997
0.99997
0.99997
0.99997
0.99997
0.99997
0.99997
0.99997
0.99997
0.99997
0.99997
0.99997
0.99997
0.99997
0.99997
0.99997
0.99997
0.99997
0.99997
0.99997
0.99997
0.99997
0.99997
0.99997
0.99997
0.99997
0.99997
0.99997
0.99997
0.99997
0.99997
0.99997
0.99997
0.99997
0.99997
0.99997
0.99997
0.99997
0.99997
0.99997
0.99997
0.99997
0.99997
0.99997
0.99997
0.99997
0.999969
0.999969
0.99997
0.999969
0.99997
0.99997
0.99997
0.999972
0.999973
0.999973
0.999972
0.999962
0.99994
0.999898
0.999829
0.999725
0.999585
0.999407
0.999202
0.998983
0.998772
0.998594
0.998472
0.998422
0.998451
0.998559
0.99873
0.998942
0.999171
0.999392
0.999589
0.999747
0.999865
0.999942
0.999987
1.00001
1.00001
1
0.999993
0.999984
0.999977
0.999972
0.999968
0.999967
0.999966
0.999967
0.999968
0.999968
0.999968
0.999969
0.99997
0.99997
0.99997
0.99997
0.99997
0.99997
0.99997
0.99997
0.99997
0.99997
0.99997
0.99997
0.99997
0.99997
0.99997
0.99997
0.99997
0.99997
0.99997
0.99997
0.99997
0.99997
0.99997
0.99997
0.99997
0.99997
0.99997
0.99997
0.99997
0.99997
0.99997
0.99997
0.99997
0.99997
0.99997
0.99997
0.99997
0.99997
0.99997
0.99997
0.99997
0.99997
0.99997
0.99997
0.99997
0.99997
0.99997
0.99997
0.99997
0.99997
0.999969
0.999969
0.999969
0.999969
0.999969
0.99997
0.99997
0.999971
0.999973
0.999972
0.999965
0.999946
0.999907
0.999835
0.999718
0.999548
0.999314
0.999024
0.998688
0.998332
0.997991
0.997702
0.9975
0.997415
0.997457
0.997624
0.997893
0.998228
0.998592
0.998947
0.999265
0.999525
0.999721
0.999857
0.999939
0.999982
0.999998
0.999998
0.99999
0.999982
0.999974
0.999968
0.999965
0.999964
0.999965
0.999965
0.999966
0.999967
0.999968
0.999968
0.99997
0.99997
0.99997
0.99997
0.99997
0.99997
0.99997
0.99997
0.99997
0.99997
0.99997
0.99997
0.99997
0.99997
0.99997
0.99997
0.99997
0.99997
0.99997
0.99997
0.99997
0.99997
0.99997
0.99997
0.99997
0.99997
0.99997
0.99997
0.99997
0.99997
0.99997
0.99997
0.99997
0.99997
0.99997
0.99997
0.99997
0.99997
0.99997
0.99997
0.99997
0.99997
0.99997
0.99997
0.99997
0.99997
0.99997
0.99997
0.999969
0.99997
0.999969
0.999969
0.999968
0.999968
0.999968
0.999968
0.999969
0.99997
0.99997
0.999965
0.999951
0.999916
0.999847
0.999725
0.99953
0.999248
0.998869
0.998399
0.997859
0.997289
0.996742
0.996279
0.995956
0.995818
0.995881
0.99614
0.996561
0.997089
0.997664
0.998228
0.998733
0.999152
0.999474
0.9997
0.999847
0.999929
0.999968
0.999981
0.999979
0.999973
0.999966
0.999961
0.999959
0.999959
0.99996
0.999962
0.999964
0.999966
0.999967
0.999968
0.999968
0.99997
0.99997
0.99997
0.99997
0.99997
0.99997
0.99997
0.99997
0.99997
0.99997
0.99997
0.99997
0.99997
0.99997
0.99997
0.99997
0.99997
0.99997
0.99997
0.99997
0.99997
0.99997
0.99997
0.99997
0.99997
0.99997
0.99997
0.99997
0.99997
0.99997
0.99997
0.99997
0.99997
0.99997
0.99997
0.99997
0.99997
0.99997
0.99997
0.99997
0.99997
0.99997
0.99997
0.99997
0.99997
0.99997
0.99997
0.999969
0.999969
0.999969
0.999968
0.999968
0.999966
0.999967
0.999966
0.999966
0.999966
0.999963
0.999952
0.999923
0.99986
0.999741
0.999537
0.999218
0.99876
0.998151
0.997401
0.996543
0.995642
0.994781
0.994053
0.993546
0.993327
0.993426
0.993831
0.994489
0.995316
0.996215
0.997097
0.997892
0.998555
0.999069
0.999439
0.999684
0.999831
0.99991
0.999945
0.999956
0.999955
0.999951
0.999949
0.999949
0.999951
0.999954
0.999958
0.99996
0.999963
0.999966
0.999967
0.999968
0.999968
0.99997
0.99997
0.99997
0.99997
0.99997
0.99997
0.99997
0.99997
0.99997
0.99997
0.99997
0.99997
0.99997
0.99997
0.99997
0.99997
0.99997
0.99997
0.99997
0.99997
0.99997
0.99997
0.99997
0.99997
0.99997
0.99997
0.99997
0.99997
0.99997
0.99997
0.99997
0.99997
0.99997
0.99997
0.99997
0.99997
0.99997
0.99997
0.99997
0.99997
0.99997
0.99997
0.99997
0.99997
0.999969
0.99997
0.999969
0.999969
0.999969
0.999968
0.999966
0.999964
0.999963
0.999963
0.999961
0.999958
0.999949
0.999926
0.999873
0.999763
0.999562
0.999227
0.998713
0.997982
0.997018
0.995837
0.994498
0.993096
0.991759
0.990633
0.989854
0.989521
0.989681
0.990314
0.991338
0.99262
0.994013
0.995379
0.996611
0.99764
0.998442
0.999027
0.999423
0.99967
0.999811
0.999883
0.999914
0.999925
0.999928
0.99993
0.999933
0.999939
0.999945
0.99995
0.999956
0.99996
0.999963
0.999966
0.999967
0.999968
0.999969
0.99997
0.99997
0.99997
0.99997
0.99997
0.99997
0.99997
0.99997
0.99997
0.99997
0.99997
0.99997
0.99997
0.99997
0.99997
0.99997
0.99997
0.99997
0.99997
0.99997
0.99997
0.99997
0.99997
0.99997
0.99997
0.99997
0.99997
0.99997
0.99997
0.99997
0.99997
0.99997
0.99997
0.99997
0.99997
0.99997
0.99997
0.99997
0.99997
0.99997
0.99997
0.99997
0.999969
0.99997
0.999969
0.999969
0.999969
0.999967
0.999966
0.999964
0.999962
0.99996
0.999957
0.999952
0.999945
0.999925
0.99988
0.999785
0.9996
0.999272
0.998731
0.997916
0.996768
0.995268
0.993443
0.991382
0.989235
0.987198
0.985489
0.984311
0.98382
0.984083
0.985071
0.986651
0.988623
0.990758
0.992844
0.994721
0.996289
0.997516
0.998414
0.999029
0.999424
0.999656
0.999784
0.999847
0.999877
0.999892
0.999902
0.999911
0.999922
0.999932
0.999941
0.999949
0.999956
0.999961
0.999963
0.999966
0.999967
0.999968
0.99997
0.99997
0.99997
0.99997
0.99997
0.99997
0.99997
0.99997
0.99997
0.99997
0.99997
0.99997
0.99997
0.99997
0.99997
0.99997
0.99997
0.99997
0.99997
0.99997
0.99997
0.99997
0.99997
0.99997
0.99997
0.99997
0.99997
0.99997
0.99997
0.99997
0.99997
0.99997
0.99997
0.99997
0.99997
0.99997
0.99997
0.99997
0.99997
0.99997
0.99997
0.99997
0.99997
0.99997
0.999969
0.999969
0.999968
0.999967
0.999965
0.999962
0.999958
0.999954
0.999946
0.999939
0.999921
0.999884
0.999805
0.999643
0.999341
0.998812
0.997964
0.996693
0.994924
0.99263
0.989858
0.986743
0.98351
0.980455
0.977905
0.976162
0.975457
0.975894
0.977423
0.979842
0.982843
0.986074
0.989216
0.99203
0.994374
0.996205
0.997547
0.998473
0.999072
0.999436
0.999642
0.999752
0.999809
0.999841
0.999863
0.999881
0.999898
0.999914
0.999929
0.999941
0.99995
0.999956
0.999961
0.999965
0.999967
0.999968
0.999969
0.99997
0.99997
0.99997
0.99997
0.99997
0.99997
0.99997
0.99997
0.99997
0.99997
0.99997
0.99997
0.99997
0.99997
0.99997
0.99997
0.99997
0.99997
0.99997
0.99997
0.99997
0.99997
0.99997
0.99997
0.99997
0.99997
0.99997
0.99997
0.99997
0.99997
0.99997
0.99997
0.99997
0.99997
0.99997
0.99997
0.99997
0.99997
0.99997
0.99997
0.99997
0.99997
0.999969
0.999969
0.999968
0.999967
0.999965
0.999963
0.999958
0.999952
0.999944
0.999933
0.999915
0.999885
0.999818
0.999684
0.999421
0.998939
0.998114
0.996804
0.994866
0.992192
0.988748
0.984611
0.979985
0.975205
0.970706
0.966964
0.964433
0.963452
0.964171
0.966516
0.970178
0.974688
0.979515
0.984178
0.988326
0.991761
0.994431
0.996385
0.997731
0.998607
0.999144
0.999455
0.999626
0.99972
0.999773
0.99981
0.999841
0.999867
0.999891
0.999912
0.999929
0.999942
0.999952
0.999959
0.999962
0.999966
0.999967
0.999968
0.999969
0.99997
0.99997
0.99997
0.99997
0.99997
0.99997
0.99997
0.99997
0.99997
0.99997
0.99997
0.99997
0.99997
0.99997
0.99997
0.99997
0.99997
0.99997
0.99997
0.99997
0.99997
0.99997
0.99997
0.99997
0.99997
0.99997
0.99997
0.99997
0.99997
0.99997
0.99997
0.99997
0.99997
0.99997
0.99997
0.99997
0.99997
0.99997
0.99997
0.99997
0.999969
0.999969
0.999969
0.999967
0.999966
0.999963
0.999959
0.999952
0.999944
0.999931
0.999913
0.999883
0.999829
0.999719
0.9995
0.999085
0.998338
0.997079
0.995103
0.992207
0.988243
0.983174
0.977116
0.970375
0.963435
0.956923
0.951537
0.947932
0.946604
0.947777
0.95133
0.956803
0.963488
0.970592
0.977401
0.983409
0.988343
0.992147
0.994909
0.996805
0.998035
0.99879
0.999229
0.999474
0.999611
0.999692
0.999747
0.99979
0.999829
0.999862
0.99989
0.999914
0.999932
0.999945
0.999954
0.99996
0.999964
0.999966
0.999968
0.999969
0.99997
0.99997
0.99997
0.99997
0.99997
0.99997
0.99997
0.99997
0.99997
0.99997
0.99997
0.99997
0.99997
0.99997
0.99997
0.99997
0.99997
0.99997
0.99997
0.99997
0.99997
0.99997
0.99997
0.99997
0.99997
0.99997
0.99997
0.99997
0.99997
0.99997
0.99997
0.99997
0.99997
0.99997
0.99997
0.99997
0.99997
0.99997
0.99997
0.99997
0.99997
0.999969
0.999968
0.999967
0.999965
0.999961
0.999954
0.999945
0.999932
0.999914
0.999886
0.999836
0.999747
0.999572
0.999231
0.998594
0.997465
0.995589
0.992674
0.988438
0.982684
0.975367
0.966672
0.957033
0.947143
0.937896
0.930287
0.925261
0.92353
0.925412
0.930724
0.938782
0.948538
0.95882
0.968593
0.977128
0.984066
0.989354
0.993154
0.995734
0.997394
0.998403
0.998986
0.999312
0.999492
0.999599
0.999673
0.999731
0.999782
0.999827
0.999865
0.999896
0.99992
0.999937
0.999949
0.999957
0.999963
0.999965
0.999967
0.999968
0.99997
0.99997
0.99997
0.99997
0.99997
0.99997
0.99997
0.99997
0.99997
0.99997
0.99997
0.99997
0.99997
0.99997
0.99997
0.99997
0.99997
0.99997
0.99997
0.99997
0.99997
0.99997
0.99997
0.99997
0.99997
0.99997
0.99997
0.99997
0.99997
0.99997
0.99997
0.99997
0.99997
0.99997
0.99997
0.99997
0.99997
0.99997
0.99997
0.99997
0.999969
0.999969
0.999968
0.999966
0.999963
0.999958
0.999949
0.999936
0.999917
0.99989
0.999846
0.999772
0.999632
0.999363
0.998848
0.997899
0.996238
0.993507
0.989301
0.983237
0.975057
0.964716
0.952483
0.938972
0.925151
0.912274
0.901745
0.894903
0.892759
0.895746
0.903577
0.915248
0.929231
0.943833
0.957576
0.96945
0.978982
0.98615
0.991226
0.99462
0.996765
0.998045
0.998772
0.999168
0.999383
0.999509
0.999597
0.999667
0.999731
0.999787
0.999835
0.999875
0.999906
0.999928
0.999943
0.999954
0.999961
0.999964
0.999966
0.999968
0.999969
0.99997
0.99997
0.99997
0.99997
0.99997
0.99997
0.99997
0.99997
0.99997
0.99997
0.99997
0.99997
0.99997
0.99997
0.99997
0.99997
0.99997
0.99997
0.99997
0.99997
0.99997
0.99997
0.99997
0.99997
0.99997
0.99997
0.99997
0.99997
0.99997
0.99997
0.99997
0.99997
0.99997
0.99997
0.99997
0.99997
0.99997
0.99997
0.99997
0.999969
0.999968
0.999967
0.999965
0.999961
0.999954
0.999942
0.999924
0.999899
0.999859
0.999795
0.999683
0.999475
0.999076
0.99832
0.996944
0.994561
0.990678
0.984746
0.976256
0.964872
0.950564
0.933711
0.915158
0.896235
0.878673
0.864435
0.855393
0.852943
0.857648
0.869037
0.885635
0.905264
0.925541
0.944422
0.960546
0.973314
0.982767
0.989338
0.99364
0.996289
0.997824
0.99866
0.999093
0.999315
0.999441
0.99953
0.999606
0.999678
0.999744
0.999804
0.999852
0.99989
0.999918
0.999937
0.99995
0.999958
0.999963
0.999966
0.999967
0.999969
0.99997
0.99997
0.99997
0.99997
0.99997
0.99997
0.99997
0.99997
0.99997
0.99997
0.99997
0.99997
0.99997
0.99997
0.99997
0.99997
0.99997
0.99997
0.99997
0.99997
0.99997
0.99997
0.99997
0.99997
0.99997
0.99997
0.99997
0.99997
0.99997
0.99997
0.99997
0.99997
0.99997
0.99997
0.99997
0.99997
0.99997
0.99997
0.99997
0.999969
0.999968
0.999967
0.999964
0.999958
0.999949
0.999934
0.999911
0.999876
0.99982
0.99973
0.999568
0.999267
0.998694
0.997617
0.995673
0.992337
0.986946
0.978766
0.967139
0.951649
0.932282
0.909561
0.88463
0.859279
0.835872
0.817115
0.805596
0.803193
0.810568
0.82691
0.850059
0.876964
0.904392
0.929625
0.950906
0.967523
0.979612
0.987836
0.99307
0.996178
0.997891
0.998758
0.999159
0.999336
0.999425
0.99949
0.999557
0.99963
0.999702
0.99977
0.999826
0.999872
0.999906
0.999929
0.999945
0.999955
0.999961
0.999965
0.999967
0.999969
0.999969
0.99997
0.99997
0.99997
0.99997
0.99997
0.99997
0.99997
0.99997
0.99997
0.99997
0.99997
0.99997
0.99997
0.99997
0.99997
0.99997
0.99997
0.99997
0.99997
0.99997
0.99997
0.99997
0.99997
0.99997
0.99997
0.99997
0.99997
0.99997
0.99997
0.99997
0.99997
0.99997
0.99997
0.99997
0.99997
0.99997
0.99997
0.999969
0.999969
0.999968
0.999966
0.999961
0.999955
0.999944
0.999924
0.999894
0.999848
0.999773
0.999648
0.999424
0.999002
0.9982
0.996706
0.99403
0.989474
0.982161
0.971143
0.955586
0.934987
0.909367
0.879433
0.846692
0.813516
0.783095
0.759117
0.745105
0.743518
0.755005
0.77814
0.809747
0.845653
0.881646
0.914296
0.941471
0.962378
0.977308
0.987211
0.993293
0.996719
0.998453
0.999208
0.999463
0.999509
0.999499
0.999501
0.999535
0.999594
0.999667
0.999739
0.999803
0.999855
0.999894
0.999922
0.99994
0.999952
0.99996
0.999964
0.999966
0.999969
0.999969
0.99997
0.99997
0.99997
0.99997
0.99997
0.99997
0.99997
0.99997
0.99997
0.99997
0.99997
0.99997
0.99997
0.99997
0.99997
0.99997
0.99997
0.99997
0.99997
0.99997
0.99997
0.99997
0.99997
0.99997
0.99997
0.99997
0.99997
0.99997
0.99997
0.99997
0.99997
0.99997
0.99997
0.99997
0.99997
0.99997
0.999969
0.999969
0.999969
0.999967
0.999965
0.999961
0.999951
0.999937
0.999913
0.999876
0.999816
0.999718
0.999551
0.999246
0.998672
0.997581
0.995563
0.991971
0.985899
0.976216
0.961723
0.941397
0.914655
0.881582
0.843108
0.80117
0.758858
0.720402
0.690764
0.674676
0.675259
0.69292
0.725156
0.767331
0.813887
0.859567
0.900312
0.933718
0.959011
0.976712
0.988111
0.99479
0.998262
0.999761
1.00019
1.00012
0.999909
0.999713
0.999596
0.999561
0.999585
0.999644
0.999714
0.999781
0.999838
0.999882
0.999914
0.999935
0.999949
0.999958
0.999963
0.999966
0.999968
0.999969
0.99997
0.99997
0.99997
0.99997
0.99997
0.99997
0.99997
0.99997
0.99997
0.99997
0.99997
0.99997
0.99997
0.99997
0.99997
0.99997
0.99997
0.99997
0.99997
0.99997
0.99997
0.99997
0.99997
0.99997
0.99997
0.99997
0.99997
0.99997
0.99997
0.99997
0.99997
0.99997
0.99997
0.99997
0.99997
0.99997
0.99997
0.999969
0.999969
0.999966
0.999964
0.999958
0.999948
0.99993
0.999902
0.999855
0.99978
0.999656
0.999437
0.999034
0.998273
0.996831
0.994171
0.98947
0.981574
0.969062
0.950461
0.924557
0.890723
0.849144
0.801021
0.748783
0.696336
0.649151
0.613793
0.59655
0.601288
0.627782
0.671794
0.726688
0.785291
0.841329
0.890274
0.929664
0.958929
0.978917
0.991321
0.998127
1.00121
1.0021
1.00189
1.00127
1.00063
1.00012
0.999808
0.999654
0.999613
0.999641
0.9997
0.999765
0.999825
0.999873
0.999907
0.999931
0.999946
0.999957
0.999963
0.999966
0.999968
0.999969
0.99997
0.99997
0.99997
0.99997
0.99997
0.99997
0.99997
0.99997
0.99997
0.99997
0.99997
0.99997
0.99997
0.99997
0.99997
0.99997
0.99997
0.99997
0.99997
0.99997
0.99997
0.99997
0.99997
0.99997
0.99997
0.99997
0.99997
0.99997
0.99997
0.99997
0.99997
0.99997
0.99997
0.99997
0.99997
0.99997
0.999969
0.99997
0.999968
0.999966
0.999962
0.999956
0.999944
0.999924
0.999889
0.999834
0.999741
0.999585
0.999307
0.998789
0.997806
0.995949
0.992534
0.986533
0.97652
0.960754
0.93748
0.905332
0.863699
0.812947
0.754589
0.691561
0.628593
0.572485
0.531686
0.514498
0.525731
0.564016
0.62255
0.692158
0.76389
0.830504
0.887195
0.931706
0.963924
0.985214
0.997746
1.00393
1.00601
1.00578
1.00453
1.00305
1.00175
1.00079
1.00017
0.999837
0.999694
0.999667
0.999702
0.999759
0.999816
0.999865
0.999901
0.999927
0.999945
0.999955
0.999962
0.999966
0.999968
0.999969
0.999969
0.99997
0.99997
0.99997
0.99997
0.99997
0.99997
0.99997
0.99997
0.99997
0.99997
0.99997
0.99997
0.99997
0.99997
0.99997
0.99997
0.99997
0.99997
0.99997
0.99997
0.99997
0.99997
0.99997
0.99997
0.99997
0.99997
0.99997
0.99997
0.99997
0.99997
0.99997
0.99997
0.99997
0.99997
0.99997
0.99997
0.999969
0.999968
0.999966
0.999961
0.999955
0.999941
0.999916
0.999877
0.999811
0.999701
0.999511
0.999166
0.998517
0.997282
0.994948
0.990673
0.983205
0.970824
0.951471
0.923126
0.884347
0.83467
0.774766
0.706515
0.633286
0.560435
0.495832
0.449846
0.433498
0.453181
0.505893
0.581344
0.667365
0.753085
0.830268
0.893928
0.942252
0.975891
0.996987
1.00835
1.01285
1.01308
1.01108
1.00829
1.00558
1.00336
1.00176
1.00073
1.00013
0.999839
0.999731
0.999725
0.999763
0.999814
0.99986
0.999898
0.999924
0.999943
0.999954
0.999961
0.999965
0.999967
0.999969
0.999969
0.99997
0.99997
0.99997
0.99997
0.99997
0.99997
0.99997
0.99997
0.99997
0.99997
0.99997
0.99997
0.99997
0.99997
0.99997