/*--------------------------------*- C++ -*----------------------------------*\
  =========                 |
  \\      /  F ield         | OpenFOAM: The Open Source CFD Toolbox
   \\    /   O peration     | Website:  https://openfoam.org
    \\  /    A nd           | Version:  6
     \\/     M anipulation  |
\*---------------------------------------------------------------------------*/
FoamFile
{
    version     2.0;
    format      ascii;
    class       volScalarField;
    location    "2.58";
    object      rho;
}
// * * * * * * * * * * * * * * * * * * * * * * * * * * * * * * * * * * * * * //

dimensions      [1 -3 0 0 0 0 0];

internalField   nonuniform List<scalar> 
10000
(
1.40001
1.40001
1.40001
1.40001
1.40001
1.40001
1.40001
1.40001
1.40001
1.40001
1.40001
1.40001
1.40001
1.40001
1.40001
1.40001
1.40001
1.40001
1.40001
1.40001
1.40001
1.40001
1.4
1.40001
1.4
1.40001
1.4
1.40001
1.40001
1.40001
1.40001
1.4
1.40001
1.4
1.40001
1.4
1.40001
1.40001
1.40001
1.4
1.40001
1.40001
1.40001
1.4
1.4
1.4
1.4
1.4
1.4
1.4
1.4
1.4
1.4
1.4
1.4
1.4
1.4
1.4
1.4
1.40001
1.40001
1.40001
1.40001
1.40001
1.40001
1.40001
1.40001
1.40001
1.40001
1.4
1.4
1.4
1.4
1.4
1.4
1.4
1.4
1.4
1.4
1.4
1.4
1.4
1.4
1.4
1.4
1.40001
1.40001
1.40001
1.40001
1.40001
1.40001
1.40001
1.40001
1.40001
1.40001
1.40001
1.40001
1.40001
1.40001
1.40001
1.40001
1.40001
1.40001
1.40001
1.40001
1.40001
1.40001
1.40001
1.40001
1.40001
1.40001
1.40001
1.40001
1.40001
1.4
1.40001
1.4
1.40001
1.4
1.40001
1.4
1.40001
1.4
1.40001
1.4
1.40001
1.40001
1.40001
1.40001
1.4
1.40001
1.4
1.40001
1.4
1.40001
1.4
1.40001
1.40001
1.4
1.40001
1.4
1.40001
1.4
1.4
1.4
1.4
1.4
1.4
1.4
1.4
1.4
1.4
1.4
1.4
1.4
1.4
1.4
1.4
1.40001
1.40001
1.40001
1.40001
1.40001
1.40001
1.40001
1.40001
1.40001
1.40001
1.40001
1.4
1.4
1.4
1.4
1.4
1.4
1.4
1.4
1.4
1.4
1.4
1.4
1.4
1.4
1.4
1.4
1.4
1.4
1.4
1.40001
1.40001
1.40001
1.40001
1.40001
1.40001
1.40001
1.40001
1.40001
1.40001
1.40001
1.40001
1.40001
1.40001
1.40001
1.40001
1.40001
1.40001
1.40001
1.40001
1.40001
1.40001
1.40001
1.40001
1.4
1.40001
1.40001
1.40001
1.4
1.40001
1.4
1.40001
1.4
1.40001
1.4
1.40001
1.4
1.40001
1.40001
1.4
1.40001
1.4
1.40001
1.4
1.40001
1.4
1.40001
1.40001
1.40001
1.40001
1.40001
1.4
1.40001
1.4
1.40001
1.4
1.4
1.4
1.4
1.4
1.4
1.4
1.4
1.4
1.39999
1.39999
1.39999
1.4
1.4
1.4
1.40001
1.40001
1.40002
1.40002
1.40002
1.40002
1.40002
1.40002
1.40001
1.40001
1.40001
1.4
1.4
1.4
1.4
1.4
1.4
1.4
1.4
1.4
1.4
1.4
1.4
1.4
1.4
1.4
1.4
1.40001
1.40001
1.40001
1.40001
1.40001
1.40001
1.40001
1.40001
1.40001
1.40001
1.40001
1.40001
1.40001
1.40001
1.40001
1.40001
1.40001
1.40001
1.40001
1.40001
1.40001
1.40001
1.40001
1.40001
1.40001
1.40001
1.40001
1.4
1.40001
1.4
1.40001
1.4
1.40001
1.4
1.40001
1.4
1.40001
1.4
1.40001
1.40001
1.40001
1.40001
1.4
1.40001
1.4
1.40001
1.4
1.4
1.40001
1.4
1.40001
1.4
1.40001
1.4
1.40001
1.40001
1.40001
1.4
1.4
1.4
1.4
1.4
1.4
1.4
1.4
1.39999
1.39999
1.39999
1.39999
1.39999
1.39999
1.4
1.4
1.40001
1.40002
1.40003
1.40003
1.40003
1.40003
1.40003
1.40002
1.40002
1.40001
1.40001
1.4
1.4
1.4
1.4
1.4
1.4
1.4
1.4
1.4
1.4
1.4
1.4
1.4
1.4
1.4
1.4
1.4
1.4
1.4
1.40001
1.40001
1.40001
1.40001
1.40001
1.40001
1.40001
1.40001
1.40001
1.40001
1.40001
1.40001
1.40001
1.40001
1.40001
1.40001
1.40001
1.40001
1.40001
1.40001
1.40001
1.40001
1.4
1.40001
1.4
1.40001
1.40001
1.40001
1.4
1.40001
1.4
1.40001
1.4
1.40001
1.40001
1.4
1.40001
1.4
1.40001
1.4
1.40001
1.4
1.40001
1.40001
1.4
1.40001
1.4
1.40001
1.4
1.40001
1.40001
1.4
1.40001
1.4
1.40001
1.4
1.4
1.4
1.4
1.4
1.4
1.39999
1.39999
1.39998
1.39998
1.39998
1.39998
1.39998
1.39999
1.4
1.40002
1.40003
1.40004
1.40005
1.40005
1.40005
1.40005
1.40004
1.40003
1.40002
1.40001
1.4
1.4
1.39999
1.39999
1.39999
1.39999
1.4
1.4
1.4
1.4
1.4
1.4
1.4
1.4
1.4
1.4
1.4
1.40001
1.40001
1.40001
1.40001
1.40001
1.40001
1.40001
1.40001
1.40001
1.40001
1.40001
1.40001
1.40001
1.40001
1.40001
1.40001
1.40001
1.40001
1.40001
1.40001
1.40001
1.40001
1.40001
1.40001
1.40001
1.40001
1.40001
1.40001
1.40001
1.4
1.40001
1.40001
1.40001
1.40001
1.40001
1.4
1.40001
1.4
1.40001
1.4
1.40001
1.4
1.40001
1.40001
1.4
1.40001
1.4
1.40001
1.4
1.40001
1.4
1.40001
1.40001
1.4
1.40001
1.40001
1.4
1.4
1.40001
1.4
1.4
1.4
1.39999
1.39999
1.39998
1.39997
1.39997
1.39996
1.39997
1.39997
1.39999
1.40001
1.40003
1.40005
1.40007
1.40008
1.40009
1.40009
1.40007
1.40006
1.40004
1.40002
1.40001
1.4
1.39999
1.39999
1.39999
1.39999
1.39999
1.39999
1.4
1.4
1.4
1.4
1.4
1.4
1.4
1.4
1.4
1.4
1.4
1.4
1.40001
1.40001
1.40001
1.40001
1.40001
1.40001
1.40001
1.40001
1.40001
1.40001
1.40001
1.40001
1.40001
1.40001
1.40001
1.40001
1.40001
1.40001
1.40001
1.40001
1.40001
1.40001
1.40001
1.4
1.40001
1.4
1.40001
1.4
1.40001
1.4
1.40001
1.4
1.40001
1.4
1.40001
1.4
1.40001
1.4
1.40001
1.40001
1.4
1.40001
1.4
1.40001
1.4
1.40001
1.4
1.40001
1.4
1.40001
1.40001
1.4
1.40001
1.40001
1.40001
1.40001
1.40001
1.4
1.4
1.4
1.39999
1.39998
1.39997
1.39996
1.39995
1.39994
1.39995
1.39996
1.39999
1.40002
1.40006
1.40009
1.40012
1.40014
1.40015
1.40014
1.40012
1.4001
1.40007
1.40004
1.40002
1.4
1.39999
1.39998
1.39998
1.39998
1.39999
1.39999
1.39999
1.4
1.4
1.4
1.4
1.4
1.4
1.4
1.4
1.4
1.4
1.40001
1.40001
1.40001
1.40001
1.40001
1.40001
1.40001
1.40001
1.40001
1.40001
1.40001
1.40001
1.40001
1.40001
1.40001
1.40001
1.40001
1.40001
1.40001
1.40001
1.40001
1.40001
1.4
1.40001
1.4
1.40001
1.4
1.40001
1.4
1.40001
1.4
1.40001
1.4
1.40001
1.4
1.40001
1.4
1.40001
1.40001
1.4
1.40001
1.4
1.40001
1.40001
1.4
1.4
1.40001
1.4
1.40001
1.4
1.40001
1.40001
1.4
1.40001
1.40001
1.40001
1.40001
1.40001
1.4
1.4
1.39999
1.39998
1.39997
1.39995
1.39994
1.39992
1.39992
1.39993
1.39995
1.4
1.40005
1.40011
1.40017
1.40021
1.40024
1.40025
1.40023
1.4002
1.40015
1.40011
1.40006
1.40003
1.4
1.39998
1.39997
1.39997
1.39998
1.39998
1.39999
1.39999
1.4
1.4
1.4
1.4
1.4
1.4
1.4
1.4
1.4
1.4
1.4
1.4
1.40001
1.40001
1.40001
1.40001
1.40001
1.40001
1.40001
1.40001
1.40001
1.40001
1.40001
1.40001
1.40001
1.40001
1.40001
1.40001
1.40001
1.40001
1.4
1.40001
1.4
1.40001
1.4
1.40001
1.4
1.40001
1.4
1.40001
1.4
1.40001
1.4
1.40001
1.4
1.40001
1.4
1.40001
1.40001
1.4
1.40001
1.4
1.4
1.40001
1.4
1.4
1.40001
1.40001
1.40001
1.4
1.40001
1.4
1.40001
1.40001
1.40001
1.40001
1.40001
1.40001
1.4
1.4
1.39999
1.39998
1.39996
1.39994
1.39991
1.3999
1.3999
1.39991
1.39996
1.40003
1.40012
1.40021
1.4003
1.40037
1.4004
1.40041
1.40038
1.40032
1.40025
1.40017
1.4001
1.40004
1.4
1.39998
1.39997
1.39996
1.39997
1.39997
1.39998
1.39999
1.39999
1.4
1.4
1.4
1.4
1.4
1.4
1.4
1.4
1.4
1.4
1.40001
1.40001
1.40001
1.40001
1.40001
1.40001
1.40001
1.40001
1.40001
1.40001
1.40001
1.40001
1.40001
1.40001
1.40001
1.40001
1.40001
1.40001
1.40001
1.4
1.40001
1.4
1.40001
1.40001
1.4
1.40001
1.4
1.4
1.40001
1.4
1.40001
1.4
1.4
1.40001
1.40001
1.4
1.40001
1.4
1.4
1.40001
1.40001
1.4
1.40001
1.40001
1.4
1.40001
1.4
1.40001
1.4
1.40001
1.40001
1.40001
1.40001
1.40001
1.40001
1.40001
1.40001
1.40001
1.4
1.39999
1.39997
1.39995
1.39992
1.39989
1.39987
1.39988
1.39992
1.4
1.40011
1.40025
1.4004
1.40053
1.40063
1.40067
1.40066
1.4006
1.4005
1.40039
1.40027
1.40016
1.40007
1.40001
1.39998
1.39996
1.39995
1.39996
1.39996
1.39997
1.39998
1.39999
1.4
1.4
1.4
1.4
1.4
1.4
1.4
1.4
1.4
1.4
1.4
1.40001
1.40001
1.40001
1.40001
1.40001
1.40001
1.40001
1.40001
1.40001
1.40001
1.40001
1.40001
1.40001
1.40001
1.40001
1.40001
1.40001
1.40001
1.40001
1.4
1.40001
1.4
1.40001
1.4
1.40001
1.4
1.40001
1.4
1.40001
1.4
1.40001
1.4
1.4
1.40001
1.4
1.40001
1.40001
1.4
1.40001
1.4
1.40001
1.4
1.40001
1.40001
1.4
1.40001
1.4
1.40001
1.40001
1.4
1.40001
1.40001
1.40001
1.40001
1.40001
1.40001
1.40001
1.4
1.39999
1.39996
1.39993
1.39989
1.39987
1.39986
1.39989
1.39997
1.40011
1.40031
1.40053
1.40075
1.40094
1.40106
1.4011
1.40106
1.40094
1.40078
1.40059
1.40041
1.40025
1.40012
1.40003
1.39998
1.39995
1.39995
1.39995
1.39996
1.39997
1.39998
1.39999
1.39999
1.4
1.4
1.4
1.4
1.4
1.4
1.4
1.4
1.4
1.4
1.40001
1.40001
1.40001
1.40001
1.40001
1.40001
1.40001
1.40001
1.40001
1.40001
1.40001
1.40001
1.40001
1.40001
1.40001
1.40001
1.40001
1.4
1.40001
1.4
1.40001
1.4
1.4
1.40001
1.40001
1.4
1.40001
1.4
1.40001
1.4
1.40001
1.40001
1.4
1.40001
1.40001
1.4
1.40001
1.4
1.4
1.40001
1.40001
1.40001
1.4
1.40001
1.4
1.4
1.40001
1.40001
1.40001
1.4
1.40001
1.40001
1.40001
1.40001
1.40001
1.40001
1.40001
1.40001
1.39999
1.39996
1.39992
1.39988
1.39986
1.39989
1.39998
1.40014
1.40039
1.40071
1.40105
1.40138
1.40163
1.40176
1.40177
1.40166
1.40145
1.40118
1.40089
1.40061
1.40037
1.40019
1.40005
1.39997
1.39994
1.39993
1.39994
1.39995
1.39996
1.39997
1.39998
1.39999
1.4
1.4
1.4
1.4
1.4
1.4
1.4
1.4
1.4
1.4
1.40001
1.40001
1.40001
1.40001
1.40001
1.40001
1.40001
1.40001
1.40001
1.40001
1.40001
1.40001
1.40001
1.40001
1.40001
1.4
1.40001
1.4
1.40001
1.4
1.40001
1.4
1.40001
1.4
1.40001
1.40001
1.4
1.40001
1.4
1.40001
1.4
1.40001
1.4
1.4
1.40001
1.4
1.4
1.40001
1.4
1.40001
1.4
1.40001
1.4
1.40001
1.40001
1.4
1.4
1.40001
1.4
1.4
1.40001
1.40001
1.40001
1.40001
1.40001
1.40002
1.40002
1.40002
1.39999
1.39995
1.39991
1.39988
1.39991
1.4
1.40021
1.40053
1.40096
1.40148
1.40201
1.40246
1.40278
1.4029
1.40282
1.40256
1.40219
1.40174
1.40129
1.40088
1.40053
1.40028
1.40009
1.39998
1.39993
1.39992
1.39993
1.39994
1.39996
1.39997
1.39998
1.39999
1.39999
1.4
1.4
1.4
1.4
1.4
1.4
1.4
1.4
1.40001
1.40001
1.40001
1.40001
1.40001
1.40001
1.40001
1.40001
1.40001
1.40001
1.40001
1.40001
1.40001
1.40001
1.40001
1.40001
1.40001
1.4
1.40001
1.4
1.40001
1.40001
1.4
1.40001
1.4
1.40001
1.40001
1.4
1.40001
1.4
1.40001
1.40001
1.4
1.40001
1.4
1.40001
1.40001
1.4
1.40001
1.40001
1.4
1.40001
1.4
1.40001
1.40001
1.4
1.40001
1.4
1.40001
1.40001
1.4
1.40001
1.40001
1.40001
1.40001
1.40002
1.40003
1.40003
1.40003
1.4
1.39996
1.39992
1.39993
1.40004
1.40029
1.40071
1.4013
1.40204
1.40285
1.40364
1.40428
1.40464
1.40468
1.40441
1.4039
1.40324
1.40253
1.40184
1.40124
1.40074
1.40038
1.40014
1.4
1.39993
1.3999
1.39991
1.39993
1.39995
1.39997
1.39998
1.39999
1.4
1.4
1.4
1.4
1.4
1.4
1.4
1.4
1.4
1.4
1.40001
1.40001
1.40001
1.40001
1.40001
1.40001
1.40001
1.40001
1.40001
1.40001
1.40001
1.4
1.40001
1.40001
1.4
1.40001
1.4
1.40001
1.4
1.40001
1.4
1.40001
1.40001
1.4
1.40001
1.4
1.40001
1.4
1.40001
1.4
1.40001
1.4
1.40001
1.4
1.40001
1.40001
1.4
1.4
1.40001
1.4
1.40001
1.40001
1.4
1.40001
1.4
1.40001
1.4
1.40001
1.40001
1.4
1.40001
1.40001
1.40001
1.40002
1.40003
1.40004
1.40005
1.40005
1.40001
1.39997
1.39996
1.40006
1.40034
1.40087
1.40165
1.40268
1.40389
1.40516
1.40632
1.40717
1.40755
1.40741
1.40679
1.40584
1.40473
1.40361
1.40258
1.40171
1.40103
1.40052
1.4002
1.40001
1.39992
1.39989
1.3999
1.39992
1.39994
1.39996
1.39998
1.39999
1.39999
1.4
1.4
1.4
1.4
1.4
1.4
1.4
1.4
1.4
1.40001
1.40001
1.40001
1.40001
1.40001
1.40001
1.40001
1.40001
1.40001
1.40001
1.40001
1.4
1.40001
1.4
1.40001
1.4
1.40001
1.4
1.40001
1.40001
1.4
1.40001
1.4
1.40001
1.40001
1.4
1.40001
1.4
1.40001
1.4
1.4
1.40001
1.4
1.40001
1.4
1.4
1.40001
1.4
1.40001
1.40001
1.4
1.4
1.40001
1.4
1.40001
1.4
1.40001
1.4
1.4
1.40001
1.40001
1.40001
1.40001
1.40002
1.40004
1.40006
1.40008
1.40007
1.40004
1.40001
1.40007
1.40034
1.40093
1.40191
1.40328
1.40498
1.40688
1.40879
1.41045
1.41157
1.41193
1.41146
1.41028
1.40864
1.40683
1.40509
1.40356
1.40232
1.40138
1.40071
1.40027
1.40002
1.39991
1.39987
1.39988
1.39991
1.39993
1.39996
1.39997
1.39999
1.39999
1.4
1.4
1.4
1.4
1.4
1.4
1.4
1.4
1.4
1.4
1.40001
1.40001
1.40001
1.40001
1.40001
1.40001
1.40001
1.40001
1.40001
1.40001
1.40001
1.40001
1.4
1.40001
1.4
1.40001
1.4
1.40001
1.4
1.40001
1.4
1.4
1.40001
1.4
1.40001
1.4
1.40001
1.4
1.40001
1.4
1.40001
1.4
1.40001
1.4
1.4
1.40001
1.4
1.4
1.40001
1.4
1.4
1.40001
1.4
1.4
1.40001
1.40001
1.4
1.4
1.40001
1.40001
1.40001
1.40002
1.40003
1.40005
1.40008
1.40011
1.40011
1.40008
1.40009
1.40029
1.40085
1.40195
1.40365
1.4059
1.40855
1.4114
1.41417
1.41648
1.41793
1.41822
1.41727
1.41525
1.41258
1.40974
1.40711
1.40488
1.40311
1.40182
1.40094
1.40036
1.40004
1.3999
1.39985
1.39985
1.39988
1.39992
1.39995
1.39996
1.39998
1.39999
1.4
1.4
1.4
1.4
1.4
1.4
1.4
1.4
1.4
1.40001
1.40001
1.40001
1.40001
1.40001
1.40001
1.40001
1.40001
1.40001
1.40001
1.4
1.40001
1.4
1.40001
1.4
1.40001
1.4
1.40001
1.4
1.40001
1.40001
1.4
1.40001
1.40001
1.4
1.40001
1.4
1.40001
1.40001
1.40001
1.4
1.4
1.40001
1.4
1.40001
1.4
1.40001
1.4
1.4
1.40001
1.4
1.40001
1.40001
1.4
1.4
1.40001
1.40001
1.4
1.4
1.40001
1.40001
1.40001
1.40002
1.40004
1.40007
1.40012
1.40015
1.40016
1.40015
1.40024
1.40067
1.40172
1.4036
1.40636
1.40983
1.41374
1.41779
1.42161
1.4247
1.42655
1.42676
1.42519
1.42209
1.41804
1.41377
1.40986
1.40665
1.40418
1.40239
1.4012
1.40047
1.40007
1.39989
1.39983
1.39982
1.39986
1.3999
1.39993
1.39996
1.39997
1.39999
1.39999
1.4
1.4
1.4
1.4
1.40001
1.4
1.4
1.4
1.40001
1.4
1.40001
1.40001
1.40001
1.40001
1.40001
1.40001
1.40001
1.40001
1.4
1.40001
1.4
1.40001
1.4
1.40001
1.4
1.40001
1.39999
1.40002
1.39999
1.40001
1.40001
1.4
1.40001
1.4
1.4
1.40001
1.40002
1.39999
1.40002
1.4
1.40002
1.39999
1.40001
1.40001
1.4
1.40001
1.40001
1.4
1.4
1.40001
1.4
1.40001
1.4
1.40001
1.40001
1.40001
1.40001
1.4
1.40001
1.40001
1.40002
1.40005
1.4001
1.40016
1.40021
1.40022
1.40025
1.40049
1.4013
1.4031
1.40613
1.41033
1.41535
1.42076
1.42617
1.43111
1.43504
1.43734
1.43752
1.43535
1.43107
1.42535
1.41922
1.4136
1.40903
1.40562
1.40319
1.40158
1.40062
1.40008
1.39986
1.3998
1.39981
1.39984
1.39987
1.39992
1.39995
1.39997
1.39998
1.39999
1.39999
1.40001
1.4
1.40001
1.4
1.4
1.4
1.4
1.4
1.4
1.40001
1.40001
1.40001
1.40001
1.40001
1.4
1.40001
1.4
1.40001
1.4
1.40001
1.4
1.40001
1.4
1.40001
1.4
1.40001
1.4
1.40001
1.40001
1.4
1.4
1.40001
1.39999
1.40002
1.4
1.4
1.4
1.40002
1.4
1.4
1.40001
1.40001
1.40001
1.39999
1.40001
1.4
1.4
1.40001
1.40001
1.4
1.40001
1.40001
1.4
1.4
1.40001
1.40001
1.40001
1.40001
1.40001
1.40003
1.40007
1.40013
1.40021
1.40028
1.40031
1.40041
1.40089
1.40231
1.4052
1.40978
1.41579
1.42259
1.42957
1.43624
1.44215
1.44676
1.44948
1.44979
1.44733
1.44211
1.43473
1.42644
1.41864
1.41225
1.40753
1.40426
1.40213
1.40085
1.40015
1.39983
1.39974
1.39977
1.39981
1.39986
1.39991
1.39994
1.39997
1.39998
1.39999
1.4
1.39999
1.4
1.40001
1.4
1.4
1.4
1.4
1.4
1.40001
1.4
1.40001
1.40001
1.40001
1.40001
1.4
1.40001
1.4
1.40001
1.4
1.40001
1.4
1.40001
1.39999
1.40002
1.39999
1.40001
1.39999
1.40002
1.39999
1.40001
1.40001
1.4
1.40001
1.4
1.4
1.4
1.40003
1.39999
1.40001
1.4
1.40003
1.39999
1.4
1.40001
1.40001
1.4
1.4
1.40001
1.4
1.40001
1.4
1.4
1.40001
1.4
1.4
1.4
1.40001
1.40001
1.40002
1.40004
1.40009
1.40017
1.40028
1.40036
1.40042
1.40064
1.40152
1.40382
1.40821
1.41477
1.42284
1.4314
1.43964
1.44708
1.45337
1.45816
1.4611
1.46181
1.45977
1.45444
1.44596
1.43559
1.42524
1.41655
1.4101
1.4057
1.40287
1.40119
1.40029
1.39984
1.3997
1.39972
1.39977
1.39983
1.39988
1.39993
1.39996
1.39998
1.39999
1.39999
1.39999
1.40001
1.4
1.4
1.4
1.4
1.4
1.4
1.4
1.4
1.40001
1.4
1.40001
1.4
1.40001
1.4
1.40001
1.40001
1.40001
1.4
1.40001
1.4
1.40001
1.40001
1.4
1.40001
1.40001
1.4
1.4
1.40002
1.4
1.4
1.40001
1.39999
1.40002
1.40001
1.4
1.39999
1.40002
1.40001
1.39999
1.4
1.40001
1.40002
1.39999
1.40001
1.40001
1.4
1.4
1.40001
1.4
1.4
1.40001
1.4
1.40001
1.40001
1.40001
1.40001
1.40002
1.40005
1.40012
1.40023
1.40036
1.40046
1.40057
1.40098
1.40245
1.40599
1.41233
1.42121
1.43133
1.4412
1.44989
1.45702
1.46254
1.46652
1.46921
1.47066
1.47016
1.4663
1.45814
1.44646
1.43361
1.42218
1.41354
1.40767
1.40389
1.40165
1.40046
1.3999
1.39969
1.39967
1.39973
1.39979
1.39985
1.39991
1.39994
1.39997
1.39998
1.39998
1.40001
1.4
1.39999
1.40001
1.4
1.4
1.4
1.40001
1.4
1.40001
1.4
1.40001
1.40001
1.4
1.40001
1.4
1.40001
1.4
1.40001
1.4
1.40001
1.39999
1.40003
1.39998
1.40001
1.40001
1.4
1.39999
1.40002
1.40001
1.39999
1.4
1.40001
1.40002
1.4
1.39999
1.39999
1.40004
1.4
1.4
1.39999
1.40003
1.4
1.4
1.4
1.40001
1.40001
1.4
1.40001
1.4
1.40001
1.40001
1.4
1.40001
1.40001
1.40001
1.40001
1.40001
1.40003
1.40007
1.40015
1.40029
1.40045
1.40058
1.40076
1.40148
1.40379
1.40899
1.4177
1.42901
1.44073
1.45088
1.4586
1.46378
1.46679
1.4685
1.47016
1.47267
1.47514
1.47493
1.46943
1.45822
1.44363
1.42932
1.41801
1.41026
1.40531
1.40233
1.40072
1.4
1.39969
1.39963
1.39968
1.39976
1.39983
1.39989
1.39992
1.39995
1.39997
1.39999
1.4
1.39998
1.40001
1.4
1.4
1.4
1.4
1.4
1.4
1.4
1.4
1.40001
1.4
1.40001
1.4
1.40001
1.4
1.4
1.4
1.40001
1.39999
1.40002
1.4
1.39999
1.40003
1.4
1.39999
1.40002
1.40002
1.39998
1.40001
1.40001
1.40003
1.39998
1.39999
1.40002
1.40002
1.4
1.39998
1.40002
1.40002
1.4
1.39999
1.4
1.40003
1.39999
1.40001
1.40001
1.40001
1.40001
1.40001
1.4
1.4
1.40001
1.40001
1.4
1.40001
1.40002
1.40003
1.40009
1.4002
1.40036
1.40055
1.40071
1.40101
1.40219
1.40566
1.41296
1.42435
1.4378
1.45007
1.45889
1.4637
1.46482
1.46322
1.46093
1.4607
1.46451
1.47135
1.47718
1.47727
1.46923
1.45464
1.43799
1.42368
1.41358
1.4072
1.40332
1.40116
1.40014
1.39972
1.39961
1.39963
1.39974
1.39981
1.39987
1.3999
1.39995
1.39996
1.4
1.39997
1.40001
1.4
1.39999
1.40001
1.4
1.4
1.4
1.40001
1.4
1.4
1.4
1.4
1.40001
1.4
1.40001
1.4
1.40001
1.40001
1.40001
1.4
1.40002
1.39998
1.40003
1.4
1.39998
1.40002
1.40001
1.39999
1.4
1.40003
1.40002
1.39997
1.4
1.40002
1.40002
1.39998
1.39999
1.40003
1.40001
1.4
1.39997
1.40004
1.40001
1.4
1.4
1.40001
1.40001
1.4
1.40001
1.40001
1.4
1.40001
1.4
1.4
1.40001
1.40001
1.40001
1.40004
1.40011
1.40024
1.40045
1.40066
1.40087
1.40136
1.40319
1.4082
1.41802
1.4321
1.44687
1.45802
1.46344
1.46318
1.45803
1.44978
1.44199
1.43925
1.44461
1.45684
1.47057
1.479
1.47732
1.46539
1.44781
1.43067
1.4178
1.40958
1.40465
1.4018
1.40036
1.39981
1.39961
1.3996
1.39969
1.39978
1.39983
1.39991
1.39993
1.39997
1.39996
1.39999
1.40001
1.39997
1.40001
1.4
1.4
1.4
1.40001
1.4
1.4
1.4
1.4
1.40001
1.4
1.40001
1.4
1.40001
1.4
1.40001
1.4
1.40002
1.39999
1.40001
1.40001
1.39998
1.40002
1.40002
1.39998
1.4
1.40004
1.39998
1.4
1.39998
1.40006
1.39998
1.4
1.4
1.40003
1.40002
1.39997
1.4
1.40002
1.40002
1.39999
1.39999
1.40003
1.4
1.4
1.4
1.4
1.40001
1.40001
1.4
1.40001
1.40001
1.40001
1.40001
1.40002
1.40006
1.40014
1.40031
1.40055
1.40078
1.40104
1.40183
1.40457
1.41152
1.42417
1.44055
1.45517
1.46308
1.46294
1.45562
1.44236
1.426
1.41201
1.40679
1.41406
1.43209
1.4545
1.47299
1.48042
1.47422
1.45792
1.43883
1.42305
1.41256
1.4063
1.40267
1.40075
1.39991
1.39962
1.3996
1.39965
1.39973
1.39982
1.39988
1.39992
1.39996
1.39996
1.40001
1.39996
1.40001
1.40001
1.39999
1.40001
1.4
1.4
1.4
1.40001
1.4
1.4
1.40001
1.4
1.40001
1.4
1.40001
1.4
1.4
1.40001
1.40001
1.4
1.40002
1.39999
1.40001
1.40003
1.39997
1.40002
1.40002
1.40001
1.39998
1.40001
1.40004
1.39997
1.40001
1.39999
1.40005
1.39997
1.4
1.4
1.40003
1.40001
1.39997
1.40002
1.40001
1.40001
1.39999
1.39999
1.40003
1.4
1.39999
1.4
1.40001
1.40001
1.40001
1.4
1.40001
1.40003
1.40008
1.40018
1.40038
1.40065
1.40091
1.40126
1.40247
1.40641
1.41573
1.43127
1.44899
1.46145
1.46389
1.45639
1.44059
1.41808
1.39309
1.37326
1.36639
1.37611
1.3998
1.43053
1.45935
1.47738
1.47952
1.46716
1.4477
1.42936
1.41628
1.40834
1.4038
1.40131
1.4001
1.39969
1.3996
1.39961
1.39969
1.3998
1.39984
1.39992
1.39992
1.39998
1.39996
1.39999
1.40001
1.39997
1.40001
1.40001
1.4
1.4
1.40001
1.4
1.4
1.4
1.4
1.4
1.40001
1.4
1.4
1.40001
1.4
1.40001
1.39999
1.40002
1.39999
1.40001
1.40001
1.4
1.4
1.40003
1.39999
1.39998
1.40004
1.39999
1.40003
1.39995
1.40007
1.39997
1.40001
1.4
1.40001
1.40003
1.39997
1.40001
1.39999
1.40003
1.40001
1.39997
1.40003
1.4
1.4
1.40002
1.39999
1.4
1.40001
1.4
1.4
1.4
1.40002
1.40003
1.40009
1.40023
1.40046
1.40074
1.40103
1.40154
1.40334
1.40884
1.42086
1.439
1.4565
1.46455
1.45964
1.44365
1.41864
1.38651
1.35327
1.32876
1.32156
1.33439
1.36343
1.40157
1.4398
1.4684
1.48033
1.47436
1.45661
1.43659
1.42088
1.41093
1.40521
1.40204
1.40046
1.3998
1.39959
1.3996
1.39968
1.39976
1.39984
1.39987
1.39992
1.39996
1.39996
1.40001
1.39995
1.4
1.40001
1.39999
1.4
1.4
1.4
1.4
1.4
1.4
1.4
1.4
1.40001
1.4
1.4
1.40001
1.40001
1.4
1.4
1.40001
1.4
1.40002
1.4
1.4
1.40003
1.39998
1.40001
1.4
1.40003
1.39998
1.4
1.40005
1.39996
1.40004
1.39995
1.40008
1.39995
1.40003
1.39998
1.40002
1.40002
1.39997
1.40002
1.4
1.40002
1.40002
1.39996
1.40001
1.40003
1.4
1.4
1.4
1.40001
1.40001
1.40001
1.40004
1.40012
1.40028
1.40053
1.40084
1.40117
1.40191
1.40452
1.41194
1.42688
1.44683
1.46211
1.46362
1.45019
1.42536
1.39096
1.34932
1.3086
1.28069
1.2744
1.29098
1.32528
1.37014
1.41653
1.45456
1.47652
1.47867
1.46475
1.4444
1.42637
1.41416
1.40697
1.403
1.40093
1.39995
1.39963
1.3996
1.39966
1.39972
1.3998
1.39985
1.39994
1.39993
1.39999
1.39995
1.39999
1.40002
1.39998
1.4
1.4
1.4
1.4
1.4
1.4
1.4
1.4
1.4
1.4
1.4
1.40001
1.4
1.40001
1.4
1.40001
1.4
1.40002
1.4
1.40001
1.40001
1.40001
1.39999
1.40003
1.4
1.39998
1.40004
1.39997
1.40005
1.39994
1.40007
1.39998
1.4
1.40002
1.39998
1.40006
1.39996
1.40003
1.39999
1.40001
1.40003
1.39996
1.40003
1.40002
1.39997
1.40001
1.40001
1.4
1.40001
1.40001
1.40001
1.40002
1.40005
1.40015
1.40033
1.4006
1.40093
1.40133
1.40241
1.40608
1.41579
1.43361
1.45407
1.46498
1.4584
1.43614
1.4026
1.35885
1.3078
1.26002
1.22938
1.22478
1.24574
1.28567
1.33728
1.39095
1.43699
1.46838
1.47957
1.47137
1.45236
1.43266
1.41811
1.40922
1.40422
1.40151
1.40023
1.39975
1.39961
1.39961
1.39969
1.39977
1.39987
1.39989
1.39994
1.39994
1.39996
1.40002
1.39997
1.39999
1.40001
1.4
1.4
1.4
1.4
1.4
1.4
1.4
1.4
1.4
1.40001
1.4
1.4
1.4
1.40001
1.4
1.40001
1.40001
1.4
1.40001
1.4
1.39999
1.40003
1.39998
1.40002
1.39998
1.40004
1.39998
1.4
1.40004
1.39995
1.40007
1.39992
1.40009
1.39995
1.40003
1.4
1.39999
1.40004
1.39997
1.40002
1.4
1.39999
1.40004
1.4
1.39998
1.40002
1.40002
1.39999
1.39999
1.40001
1.40003
1.40007
1.40017
1.40037
1.40067
1.40101
1.40154
1.40309
1.4081
1.42042
1.44071
1.46
1.46464
1.44927
1.41851
1.37658
1.32332
1.26245
1.20716
1.17366
1.17128
1.19739
1.24369
1.30267
1.36335
1.41628
1.45616
1.47669
1.47584
1.45996
1.4396
1.42288
1.41208
1.40578
1.40234
1.40065
1.3999
1.39964
1.39961
1.39968
1.39977
1.39982
1.39987
1.39992
1.39993
1.4
1.39996
1.39998
1.4
1.4
1.4
1.4
1.4
1.4
1.4
1.4
1.4
1.4
1.4
1.40001
1.4
1.40001
1.4
1.40001
1.4
1.40001
1.4
1.40002
1.39999
1.40001
1.4
1.40002
1.39999
1.40002
1.40001
1.39998
1.40004
1.39996
1.40005
1.39995
1.40006
1.39998
1.4
1.40004
1.39995
1.40006
1.39996
1.40003
1.4
1.39999
1.40004
1.39997
1.39999
1.40003
1.40001
1.4
1.4
1.4
1.40001
1.40001
1.40002
1.40008
1.40021
1.40042
1.40072
1.40111
1.40182
1.40402
1.41068
1.42578
1.44772
1.46403
1.46109
1.43703
1.39847
1.34835
1.28495
1.21311
1.14904
1.11225
1.11272
1.1448
1.1984
1.2657
1.33358
1.39262
1.43994
1.46963
1.4774
1.46656
1.44691
1.42851
1.41559
1.40779
1.4035
1.40121
1.40012
1.39973
1.39965
1.39967
1.39973
1.39979
1.39987
1.39989
1.39996
1.39995
1.39996
1.4
1.39999
1.4
1.4
1.4
1.4
1.4
1.4
1.4
1.4
1.4
1.40001
1.4
1.40001
1.4
1.40001
1.4
1.40001
1.4
1.40001
1.4
1.4
1.40001
1.40001
1.4
1.40002
1.39998
1.40003
1.39998
1.40003
1.39998
1.4
1.40004
1.39995
1.40008
1.39993
1.40007
1.39996
1.40002
1.40002
1.39997
1.40004
1.39998
1.4
1.40003
1.39999
1.4
1.40001
1.4
1.40001
1.40002
1.40001
1.40001
1.40003
1.4001
1.40023
1.40045
1.40077
1.40123
1.40222
1.40525
1.41385
1.43168
1.45412
1.46584
1.45479
1.42274
1.37715
1.31872
1.24414
1.15959
1.0852
1.0448
1.04857
1.08703
1.14891
1.22591
1.30161
1.3664
1.42003
1.45815
1.47525
1.47131
1.45418
1.43489
1.41989
1.41039
1.40496
1.40198
1.40051
1.3999
1.39969
1.39966
1.39971
1.3998
1.39984
1.39989
1.39993
1.39994
1.39998
1.39998
1.39999
1.39999
1.4
1.4
1.4
1.4
1.4
1.4
1.4
1.4
1.4
1.4
1.40001
1.4
1.4
1.4
1.40001
1.4
1.40001
1.4
1.40002
1.4
1.40001
1.4
1.40001
1.39999
1.40001
1.40001
1.39998
1.40004
1.39997
1.40004
1.39997
1.40004
1.39999
1.39999
1.40004
1.39996
1.40005
1.39998
1.4
1.40002
1.39999
1.40002
1.40001
1.4
1.4
1.4
1.40001
1.4
1.4
1.40001
1.40005
1.40011
1.40024
1.40048
1.40082
1.4014
1.40278
1.40684
1.41763
1.43785
1.45947
1.46546
1.44651
1.40748
1.35551
1.28847
1.20144
1.10244
1.01648
0.971904
0.978113
1.0224
1.09378
1.18232
1.26725
1.33823
1.39724
1.44254
1.46882
1.4733
1.46078
1.44178
1.42506
1.41369
1.40685
1.40303
1.40107
1.40014
1.39977
1.39968
1.39972
1.39977
1.39981
1.39989
1.39991
1.39995
1.39996
1.39998
1.39999
1.39999
1.4
1.4
1.4
1.4
1.4
1.4
1.4
1.4
1.4
1.40001
1.4
1.40001
1.4
1.40001
1.4
1.40001
1.4
1.40001
1.4
1.4
1.40001
1.40001
1.4
1.40002
1.39999
1.40002
1.39999
1.40003
1.39999
1.4
1.40003
1.39996
1.40006
1.39996
1.40004
1.39999
1.4
1.40002
1.39998
1.40002
1.4
1.39999
1.40001
1.40001
1.40002
1.40001
1.4
1.4
1.40001
1.40002
1.40004
1.40011
1.40026
1.40049
1.40088
1.40166
1.40356
1.40884
1.42194
1.44392
1.46346
1.46324
1.43712
1.39219
1.33441
1.25851
1.1581
1.04357
0.945107
0.894602
0.900394
0.949084
1.03113
1.13317
1.22957
1.3084
1.37256
1.42363
1.4581
1.47173
1.46579
1.44884
1.43104
1.41774
1.40933
1.40446
1.40183
1.40051
1.39995
1.39976
1.39972
1.39974
1.39982
1.39986
1.39991
1.39993
1.39996
1.39997
1.39998
1.39999
1.39999
1.4
1.4
1.4
1.4
1.4
1.4
1.4
1.4
1.4
1.4
1.40001
1.4
1.40001
1.4
1.40001
1.4
1.40001
1.4
1.40001
1.4
1.40001
1.4
1.40001
1.4
1.40001
1.40001
1.39999
1.40003
1.39998
1.40003
1.39998
1.40002
1.4
1.39999
1.40003
1.39998
1.40002
1.4
1.4
1.40002
1.4
1.4
1.4
1.4
1.40001
1.40001
1.40001
1.40001
1.40001
1.40004
1.40012
1.40026
1.40049
1.40098
1.40205
1.40458
1.41127
1.42662
1.44952
1.46601
1.45971
1.42746
1.37766
1.31463
1.23007
1.11631
0.986222
0.87447
0.81511
0.816385
0.867498
0.960436
1.077
1.18733
1.27649
1.34647
1.40242
1.44376
1.46619
1.46821
1.45537
1.43768
1.42264
1.41248
1.40636
1.40288
1.40106
1.40022
1.39988
1.39974
1.39976
1.39981
1.39985
1.39989
1.39992
1.39995
1.39996
1.39998
1.39999
1.39999
1.4
1.4
1.4
1.4
1.4
1.4
1.4
1.4
1.4
1.40001
1.4
1.40001
1.4
1.40001
1.4
1.40001
1.4
1.40001
1.4
1.40001
1.4
1.40001
1.4
1.40001
1.4
1.40001
1.39999
1.40002
1.4
1.4
1.40002
1.39998
1.40003
1.39998
1.40002
1.4
1.40001
1.40001
1.4
1.40001
1.4
1.4
1.40001
1.4
1.4
1.40001
1.4
1.4
1.40002
1.40004
1.40011
1.40025
1.4005
1.40114
1.4026
1.40587
1.41409
1.43144
1.45435
1.46722
1.45546
1.41825
1.36449
1.29697
1.20478
1.07904
0.934657
0.809402
0.73846
0.731641
0.782853
0.884698
1.01459
1.14012
1.24183
1.31888
1.37959
1.4267
1.45695
1.46743
1.46049
1.44455
1.42841
1.41643
1.40881
1.40432
1.40186
1.40062
1.40005
1.39984
1.39979
1.3998
1.39985
1.39988
1.39992
1.39994
1.39996
1.39998
1.39998
1.39999
1.4
1.4
1.4
1.4
1.4
1.4
1.4
1.4
1.4
1.4
1.4
1.4
1.40001
1.40001
1.4
1.40001
1.4
1.40001
1.4
1.40001
1.4
1.40001
1.40001
1.40001
1.4
1.40001
1.40001
1.4
1.40002
1.39999
1.40002
1.4
1.40001
1.40001
1.4
1.40001
1.39999
1.40002
1.4
1.4
1.40001
1.4
1.40001
1.4
1.4
1.40001
1.4
1.4
1.40001
1.40002
1.4001
1.40025
1.40053
1.40139
1.40334
1.40744
1.4172
1.43613
1.45821
1.46731
1.45105
1.41006
1.35314
1.28214
1.18436
1.0496
0.893729
0.756257
0.673113
0.656664
0.70521
0.811098
0.94998
1.08922
1.20431
1.28979
1.35557
1.40762
1.44457
1.46326
1.4634
1.45097
1.43486
1.42126
1.41195
1.40623
1.40296
1.40121
1.40034
1.39998
1.39984
1.39982
1.39984
1.39988
1.39991
1.39994
1.39996
1.39997
1.39998
1.39999
1.4
1.4
1.4
1.4
1.4
1.4
1.4
1.4
1.4
1.4
1.4
1.4
1.40001
1.4
1.40001
1.4
1.40001
1.4
1.40001
1.4
1.40001
1.4
1.40001
1.4
1.4
1.40001
1.40001
1.4
1.40001
1.4
1.4
1.40001
1.4
1.40001
1.4
1.40002
1.4
1.40001
1.40001
1.4
1.40001
1.4
1.4
1.40001
1.4
1.40001
1.4
1.39999
1.40001
1.39999
1.40008
1.40026
1.40059
1.40172
1.40429
1.40927
1.42045
1.44043
1.46104
1.46653
1.44687
1.40329
1.34398
1.27068
1.17018
1.03085
0.867999
0.721656
0.628425
0.602908
0.645611
0.748497
0.889153
1.03747
1.16482
1.25967
1.33082
1.38713
1.4297
1.45584
1.46358
1.4562
1.44152
1.42691
1.41589
1.40873
1.40445
1.40205
1.4008
1.4002
1.39995
1.39986
1.39985
1.39988
1.39991
1.39993
1.39995
1.39997
1.39998
1.39999
1.39999
1.4
1.4
1.4
1.4
1.4
1.4
1.4
1.4
1.4
1.4
1.40001
1.4
1.40001
1.4
1.40001
1.40001
1.4
1.40001
1.4
1.40001
1.4
1.4
1.40001
1.40001
1.4
1.40001
1.40001
1.4
1.40001
1.4
1.40001
1.4
1.40001
1.4
1.40001
1.40001
1.39999
1.40001
1.40001
1.4
1.4
1.40001
1.40001
1.4
1.40001
1.39999
1.39999
1.40001
1.39996
1.40005
1.40031
1.40069
1.40214
1.40543
1.41133
1.42365
1.44414
1.46294
1.46514
1.44316
1.39825
1.33729
1.2628
1.16272
1.02421
0.86021
0.709668
0.609714
0.576345
0.610248
0.703246
0.837463
0.988087
1.12484
1.22922
1.30595
1.36599
1.4131
1.4456
1.46081
1.45958
1.44782
1.43316
1.42068
1.41193
1.40643
1.40321
1.40144
1.40054
1.40012
1.39994
1.39989
1.39989
1.39991
1.39993
1.39995
1.39997
1.39998
1.39999
1.39999
1.4
1.4
1.4
1.4
1.4
1.4
1.4
1.4
1.4
1.4
1.4
1.4
1.40001
1.4
1.40001
1.4
1.40001
1.4
1.40001
1.4
1.40001
1.4
1.40001
1.40001
1.4
1.40001
1.4
1.40001
1.40001
1.4
1.40001
1.4
1.4
1.40001
1.4
1.40001
1.40001
1.4
1.4
1.40001
1.4
1.4
1.40001
1.39999
1.40001
1.39998
1.39996
1.40001
1.39994
1.40001
1.4004
1.40086
1.40261
1.40675
1.41356
1.42663
1.44712
1.46405
1.46338
1.43997
1.39504
1.33338
1.25844
1.16134
1.02889
0.869819
0.71967
0.615466
0.57467
0.597986
0.676897
0.797986
0.94377
1.08573
1.19883
1.28146
1.34493
1.3956
1.43322
1.45522
1.46064
1.45315
1.43964
1.42624
1.41591
1.40901
1.40479
1.40235
1.40104
1.40038
1.40007
1.39995
1.39992
1.39992
1.39994
1.39995
1.39997
1.39998
1.39999
1.39999
1.4
1.4
1.4
1.4
1.4
1.4
1.4
1.4
1.4
1.4
1.40001
1.4
1.40001
1.4
1.40001
1.40001
1.4
1.40001
1.4
1.40001
1.4
1.40001
1.40001
1.4
1.4
1.40001
1.4
1.40001
1.4
1.40001
1.4
1.40001
1.40001
1.40001
1.4
1.4
1.40001
1.4
1.4
1.40001
1.4
1.4
1.40001
1.39998
1.40001
1.39999
1.39992
1.40002
1.39994
1.39996
1.40051
1.40113
1.40313
1.40814
1.41593
1.42929
1.44927
1.46459
1.46158
1.43726
1.39353
1.3325
1.25763
1.16464
1.04191
0.892975
0.747151
0.640049
0.591531
0.603806
0.667552
0.771683
0.906544
1.04873
1.16874
1.25747
1.32434
1.37784
1.41949
1.44725
1.45919
1.4569
1.44582
1.43235
1.42069
1.41229
1.40686
1.4036
1.40175
1.40076
1.40028
1.40005
1.39997
1.39994
1.39995
1.39996
1.39997
1.39998
1.39999
1.39999
1.4
1.4
1.4
1.4
1.4
1.4
1.4
1.4
1.4
1.4
1.40001
1.40001
1.40001
1.40001
1.40001
1.40001
1.4
1.40001
1.4
1.40001
1.4
1.40001
1.4
1.40001
1.40001
1.4
1.40001
1.40001
1.4
1.40001
1.40001
1.4
1.40001
1.4
1.40001
1.4
1.40001
1.40001
1.4
1.40001
1.40001
1.4
1.40002
1.39998
1.39999
1.4
1.39988
1.4
1.39998