/*--------------------------------*- C++ -*----------------------------------*\
  =========                 |
  \\      /  F ield         | OpenFOAM: The Open Source CFD Toolbox
   \\    /   O peration     | Website:  https://openfoam.org
    \\  /    A nd           | Version:  6
     \\/     M anipulation  |
\*---------------------------------------------------------------------------*/
FoamFile
{
    version     2.0;
    format      ascii;
    class       surfaceScalarField;
    location    "1.28";
    object      meshPhi;
}
// * * * * * * * * * * * * * * * * * * * * * * * * * * * * * * * * * * * * * //

dimensions      [0 3 -1 0 0 0 0];

internalField   nonuniform List<scalar> 
11670
(
0.0148038
-0.0854401
0.0774601
-0.0238945
0.0210794
0.00706309
-0.00206715
-0.017668
-0.0329209
-0.0826949
0.0647332
0.0353917
0.0668925
-0.252204
0.272367
-0.103543
0.0945554
-0.0738629
0.13291
-0.145998
-0.00241704
0.00626631
0.00241623
0.000515608
-0.278587
0.142493
-0.14855
0.295495
0.0698894
-0.0139327
0.0291392
-0.0718214
-0.0476999
-0.114377
0.103008
0.0477643
0.108527
0.00890363
0.0144742
-0.118511
-0.158815
0.226269
-0.296803
0.227833
0.00325762
-0.000822162
-0.00198767
0.00277607
0.00353391
-0.00442661
-0.00435077
0.00208861
-0.00734333
0.00594039
0.00206205
-0.00461661
-0.0021528
0.00232116
0.00585718
-0.0021224
-0.00327376
0.00290138
-0.00248632
0.00102386
-0.000586546
0.0010167
0.00188946
-0.000828604
0.00150105
-0.000663116
-0.000833915
0.00116048
-0.00401932
0.00269616
-0.00348814
0.0021907
-0.0025835
0.00155827
0.000811573
-0.00119602
-0.00221226
0.00249138
0.00242026
-0.000894426
-0.00186728
0.000878295
0.000718238
-0.000719241
0.00184835
-0.00107503
-0.000778568
0.00113222
1.25619e-05
0.0019575
0.00332408
-0.00212428
0.00262479
-0.00298885
-0.00274915
0.00101658
-0.0124625
0.0114092
0.00208194
-0.00691209
0.00441434
-0.00413634
-0.00219332
0.00679766
-0.00966199
0.00667049
-0.00500932
0.0032795
-0.00022636
0.00218743
-0.00338898
0.00536349
0.0164366
-0.0168798
0.00338608
-0.010847
0.000425871
0.00201514
-0.00421835
0.00671627
-0.0127216
0.00903283
-0.00615173
0.00407934
0.0222029
-0.0227923
0.00421191
-0.0134096
0.00372852
0.000257779
0.0066275
-0.00443711
-0.000304592
0.000897932
-0.00458132
0.0146055
-0.0274905
0.0268961
0.00458026
-0.0146404
0.0077572
-0.0117305
-0.00659625
0.00443609
-0.0118368
0.0106677
-0.00976679
0.00448059
0.00203671
0.0011896
0.00657749
-0.00438934
0.0047264
-0.00315104
-0.00509027
0.0160583
0.00608504
-0.00841242
-0.00613545
0.00385333
0.00316042
-0.00285923
0.0105434
-0.00373029
0.0237735
-0.025569
0.00366203
-0.0119416
0.00184887
0.00234509
-0.00349349
0.00473655
-0.00889883
0.00723469
0.00266357
-0.00529814
0.00400721
-0.00283489
0.00575461
-0.00269582
0.00608506
-0.00734994
-0.00639316
0.00269788
-2.22471e-05
0.00180644
-0.00266154
0.00583921
0.00162132
-0.002524
-0.00237967
0.00149454
-0.000228652
0.00175122
-0.00135182
0.00166755
0.00677738
-0.00746702
0.00142034
-0.0046575
0.00268198
-0.00255931
0.00436827
-0.00144345
-4.64599e-05
0.000128021
-6.57136e-06
0.000157135
-0.000330827
0.000310886
-0.000344617
-8.08605e-06
-1.82015e-14
1.82015e-14
0
0
0.00200489
-0.00470595
0.00129406
-0.00110605
-0.000615323
0.00279353
0.00159866
-0.00132424
0.00573296
-0.00564595
-0.00531454
0.0017384
-0.00200577
0.00153095
-0.0015121
0.00433206
-0.00910128
0.00621667
-0.00475304
0.0032711
0.000976092
0.00223783
-0.00303055
0.00437744
0.0163432
-0.016786
0.00337741
-0.0109385
0.00555606
-0.00478318
0.011769
-0.00376555
0.00385647
-0.00556402
-0.00450146
0.00282711
0.0160576
-0.0174169
0.00268676
-0.00892009
0.00444256
-0.00468701
0.0100272
-0.0029136
0.000429264
0.00274792
-0.00270775
0.00342533
0.00791834
-0.0105747
0.00459059
-0.00730879
0.00308405
0.00220504
-0.00439938
0.00576884
0.00247392
-0.00286395
0.0159116
-0.00473383
0.00299132
-0.00248237
-0.00445427
0.014442
0.00225717
0.00159468
0.00638507
-0.00431406
-0.0153435
0.0101808
0.0042801
-0.00565067
0.0253082
-0.0249645
-0.0155051
0.00460548
-0.0123423
0.00871698
-0.00599973
0.00407436
0.0222319
-0.0227801
0.00420677
-0.0135221
0.00450591
0.000307343
-0.00404056
0.00522708
-0.00148158
0.00112087
0.0147468
-0.00434773
0.00126913
0.00434691
0.0041218
-0.00341427
0.00704406
-0.0109286
-0.00420168
0.0030816
0.0218337
-0.0233941
0.00486054
-0.0134428
-0.00221828
0.000994081
-0.00389861
0.0111693
-0.0135254
0.0141283
0.0270566
0.0765839
-0.0904184
-0.034344
0.0338814
-0.0434392
0.0132688
-0.0525125
0.0574374
-0.273253
0.0519599
-0.0305363
0.0776848
0.000465344
0.00411031
-0.00164459
0.00532157
-0.0060693
0.080415
0.142212
-0.150816
0.0635371
0.101149
-0.117707
-0.0405202
-0.0398185
0.0403275
0.118795
-0.101997
0.103492
-0.159499
-0.111724
0.108283
-0.0410129
0.0351233
-0.124611
-0.0325806
0.0906684
0.0629655
2.85088e-06
-0.000781317
0.00156088
-6.33104e-05
-0.00041486
0.0218267
-0.00365745
-0.017807
0.00555597
0.0256142
-0.0292826
-0.00191869
-0.00322331
-0.0594746
0.0539046
0.0090049
-0.00487815
0.106746
-0.00511292
-0.0951946
-0.00386742
-0.148201
0.0843886
0.0626018
-0.12635
-0.0410129
0.0330758
0.000129765
0.00777842
-0.00232785
-0.0096351
0.000286112
0.000271326
-0.00250799
0.00398008
0.00408213
-0.0639589
0.0171627
0.0426742
-0.00132315
0.00480595
-0.000997858
0.00179782
0.00708097
-0.0113531
0.00128163
-0.0334392
0.0276479
0.00979036
-0.0102381
-0.00257064
0.00899768
0.0975459
-0.0977431
-0.0031806
0.0492652
-0.00750191
-0.0363948
0.00135226
9.87261e-07
-0.000645205
-0.0586499
0.00864162
0.0470606
-0.154144
0.0621532
0.0834888
0.0131975
-0.0114175
-0.00223089
-0.000812382
0.049415
0.0481342
-0.107866
0.049886
0.0514336
-0.113261
6.80561e-05
0.0167515
-0.000116792
-0.0108424
-0.00480886
-0.000105228
0.0108424
-0.0186037
-0.0656072
-0.115878
0.198256
-0.178849
-0.116512
0.274924
-0.00192605
-0.0259329
0.0398009
-0.0170819
-0.0360886
-0.0261697
0.0551923
0.0125232
-0.265187
-0.284304
0.522654
-0.284694
-0.265892
0.548796
-0.0283567
0.124304
0.0813551
-0.174916
0.045347
0.080265
-0.151583
0.00770909
0.0193722
0.0370155
-0.06238
0.059393
0.0365357
-0.0865028
-0.0424114
0.172175
0.158686
-0.283007
0.132305
0.157297
-0.326571
-6.3804e-06
-0.00472534
-3.29515e-05
0.00608467
0.00742942
-3.11346e-05
-0.00608467
-0.11238
-0.0351023
-0.0612402
-0.0112874
0.0409911
0.0488397
0.0927435
-0.0221397
0.0252763
-0.07239
0.00602452
0.0141121
-0.027707
-0.00525573
0.063688
-0.0143034
0.018699
-0.0496315
0.00300276
0.0128734
-0.0305685
-0.00226642
-0.0331147
-0.00808284
0.024626
0.02794
0.0325296
-0.00707046
0.0115907
-0.0242272
-0.00928835
-0.0044375
0.0100338
0.00884045
0.00623251
0.0071081
-0.0129314
-0.00612478
-0.00488558
0.00711943
-0.0173553
0.00353599
-0.0135809
0.0200958
-0.0377661
0.0110977
0.0207565
0.0198924
-0.0472684
-0.0170469
0.00097276
-0.111023
0.0918505
-0.000809512
0.0264806
-0.134673
0.104254
-0.0209558
0.185549
0.0393716
-0.0613813
-0.139916
-0.0941488
0.0559428
-0.0248626
0.078733
-0.0256492
0.0857852
-0.0947886
0.0176617
-0.269501
0.139204
-0.0635539
0.217854
0.267068
0.0693687
-0.110676
-0.202965
0.094605
-0.0267877
0.00917154
-0.0626431
0.0205989
0.0319795
-0.0444242
-0.017293
0.00488005
-0.121545
0.106712
-0.00181025
-0.0677077
-0.0638769
0.095051
0.0316216
0.274988
0.0885582
-0.141164
-0.211685
-0.172807
-0.227979
0.276612
0.1117
0.0321475
0.135512
-0.163664
-0.0192873
-0.0523155
-0.372543
0.173623
0.265558
0.222115
0.00966516
-0.0897798
-0.125545
0.115293
0.00267335
-0.0247603
-0.0786422
0.0671697
-0.219145
0.391633
-0.230827
-0.0967465
-0.265553
0.271572
0.0761566
0.244292
0.00483385
-0.0680563
-0.168651
-0.198614
0.112369
-0.0626441
0.158736
0.0733514
-0.133493
0.0874523
-0.0342802
-0.264006
0.00882662
0.118042
0.1494
-0.0538609
0.0178961
-0.00228602
0.0542185
0.0482071
0.0924952
-0.115548
-0.0383074
-0.217928
0.219104
-0.055741
0.0545137
-0.242257
-0.239588
0.292559
0.182095
0.110456
0.0212105
-0.0820259
-0.0495767
0.121571
0.0327096
-0.0569551
-0.0913629
-0.0885672
0.0791482
-0.0377092
0.0433707
0.0864423
0.00601251
-0.0222317
-0.0605229
0.0895929
-0.256868
0.224488
-0.070049
0.150404
0.0806513
-0.160698
-0.0734901
0.0900173
0.164232
-0.200603
-0.0680634
0.0547967
-0.00317308
-0.166115
0.126305
-0.0453292
0.0225596
0.0020801
0.0313287
-0.0670823
-0.0253347
0.0519664
0.0477381
0.0187564
-0.0246517
0.0234511
-0.0181953
-0.107319
0.0500035
-0.0283785
0.0944929
0.137817
-0.224119
0.193239
-0.115392
-0.0481089
0.0167342
-0.00385917
0.0483343
-0.0864935
0.000264499
0.0709132
0.0227485
0.0529976
-0.0417855
0.00646057
-0.0139782
0.00152865
0.0125574
-0.00726062
-5.26739e-20
-0.00103751
-0.000403929
-1.84359e-19
0.000191019
0.00125042
2.18604e-14
-2.64964e-14
-0.00369828
0.00822716
-0.00486812
-0.0246982
0.0919225
-0.185699
0.132851
0.132716
-0.0593369
0.0335788
-0.0966042
1.09411e-13
-0.00425531
-0.00466973
-8.00011e-14
-1.13087e-15
-0.00206362
-0.00167026
2.57986e-15
0.00391327
6.64942e-05
-0.00344957
-0.00215776
0.0182092
0.000362992
-0.00299353
-0.00869593
0.00702846
9.36731e-05
0.00261755
-0.00393329
-0.00391327
0.000102202
-0.00357162
0.00215756
-0.00702891
9.23966e-05
0.00475187
0.00393329
6.26903e-05
0.00577856
0.00319229
-8.01799e-06
4.82678e-08
-0.00633617
-0.00597688
-4.03733e-07
2.0406e-07
-0.00867208
-0.0084183
-1.58135e-08
0.00586002
0.0109635
-1.4958e-05
7.01248e-05
-0.03819
0.0534943
-0.0628603
0.0279458
-0.188073
-0.0286685
0.119761
0.111836
0.0461885
-0.0711255
0.0255455
-0.0189313
0.0482108
-0.104133
0.0844574
-0.0343759
-0.245477
0.206933
-0.0217911
0.064317
0.0522858
0.00675777
-0.0207751
-0.0290483
-0.263437
0.247516
-0.18177
0.198281
-0.0650495
0.023657
0.00565296
0.0442792
-0.0964788
0.0728492
-0.0216104
0.0435584
0.0549075
-0.026125
0.0143489
-0.0384285
0.000151343
0.0134061
0.00749398
-1.47788e-05
-2.16133e-05
0.00911303
0.01615
0.000143373
-0.000414438
-0.00490812
-0.0077631
-0.000440923
0.0228863
-0.0851324
0.0562552
-0.0171927
0.0704788
-0.0215647
-0.133466
0.102165
0.180488
0.0278186
-0.0561509
-0.132065
-0.00424232
-0.0851245
0.0640646
0.00353023
0.194193
0.0458059
-0.188178
-0.0509171
-0.0759639
0.089704
-0.0642344
0.0476172
-0.0331408
0.0183294
-0.01354
0.0164558
0.141409
0.153821
-0.179992
-0.118588
-0.0204594
0.0190897
-0.0268967
0.0114948
0.0924677
-0.0261349
0.026782
-0.071683
-0.107762
-0.0163326
0.0627059
0.086104
0.0401654
0.0237485
-0.0498039
-0.0182137
-0.0380799
-0.0104323
0.0201255
0.0383438
-0.0676901
0.0620478
-0.0157723
0.0112837
-0.168825
0.0878937
-0.0344076
0.136239
0.210484
0.0565878
-0.0725946
-0.169655
-0.294589
0.141041
-0.0483092
0.220037
-0.039051
-0.0920469
0.0836453
0.0294151
0.0678264
-0.12065
0.279992
-0.209224
-0.120562
0.0911765
0.0390753
-0.0310128
-0.222466
0.159424
0.168185
0.0127785
-0.0523028
0.0415938
-0.00893496
0.206127
-0.0885868
-0.350279
0.249521
-0.11539
0.0963963
-0.0642365
0.0841531
-0.0329651
-0.022184
0.0247672
0.0172136
-0.0137235
-0.0545689
0.0518134
0.00998934
0.117855
0.0887325
-0.0978302
-0.0352152
-0.0335872
0.0393955
0.0277229
0.325083
0.101304
-0.172035
-0.24046
0.0343269
0.0494548
-0.0546399
-0.0340889
0.0197675
-0.00564817
-0.0101937
-0.0249449
-0.0162016
0.0187816
0.0122013
0.376761
0.145021
-0.220242
-0.286146
0.0282824
0.00205437
-0.00363798
-0.0142574
0.263435
0.209136
-0.268419
-0.203823
0.0175634
-0.00134869
-0.00362412
-0.00808885
-0.392125
0.220718
-0.108519
0.295264
0.0216278
-0.00431422
0.0018218
-0.0109964
0.0503168
-0.0652096
-0.00253711
0.00963954
0.145262
0.213685
-0.253871
-0.112509
-0.306746
0.289294
-0.224764
0.243587
-0.0376303
0.0490684
-0.0456203
0.0230531
-0.212638
0.0129519
0.111995
0.0961286
0.191761
-0.0920181
-0.00605968
-0.0866876
-0.000966983
0.0319536
-0.0381658
0.000599076
-0.20576
-0.0404965
0.142825
0.113704
0.0918696
-0.0133147
-0.0285558
-0.0434542
0.0431119
-0.0380794
-0.0254277
0.012328
0.0290208
0.025907
-0.0483314
-0.01407
-0.0574023
0.139605
-0.29702
0.235384
0.267541
-0.102587
0.0545369
-0.202558
0.00715534
0.0148358
5.61829e-13
-7.32495e-13
-1.89504e-12
0.0133581
0.00533005
1.57387e-12
0.000652785
0.0124306
-0.0160378
-0.000330726
-0.0156861
0.0172759
-0.0112625
0.00797461
-0.165862
0.265008
-0.238524
0.131773
0.283339
-0.221381
0.104927
-0.163362
0.0192961
0.0181401
-0.0430101
-0.0155487
-0.0187333
0.0217691
-0.0409747
0.0156046
-0.190033
0.090828
-0.0272962
0.1441
0.0528592
-0.0760408
0.211325
-0.167788
-0.157097
0.00123646
0.122539
0.0412858
-0.00888414
0.0380356
-0.0414807
0.00222
-0.0613436
-0.0181337
0.0424994
0.0510974
-0.0343285
0.0148715
0.0229772
-0.0111399
0.00714282
0.00618835
-0.0142875
-0.00458025
-0.0228376
0.0276814
-0.0256931
0.0124567
0.0107987
-0.0501708
0.0360049
-0.0047621
-0.0209092
0.0177259
-0.0314166
0.0157288
0.0189998
0.0242829
-0.0458476
-0.00474408
0.0157037
-0.0369653
0.0144874
-0.010988
0.0698747
-0.00955112
-0.00401428
-0.0440002
-0.0193738
-0.00706124
0.0211892
0.00496872
0.10959
-0.0886381
0.0123998
-0.0289013
0.00899899
-0.0257446
0.0148831
-0.0023209
0.0081511
-0.0167969
0.00186518
-0.00116877
-0.0107692
0.0671561
-0.0760648
0.00645228
0.193342
-0.122703
0.0490878
-0.111498
0.0180424
0.0120771
-0.0368224
-0.0100606
0.00949225
-0.0496591
0.0351845
-0.00418425
-0.0263181
0.0217682
0.0906883
-0.0671656
-0.0715084
-0.0119905
0.0454524
0.0547506
0.00854672
0.0128335
-0.0286705
-0.00658869
0.0172975
-0.032716
-0.0192199
0.0151485
-0.0742392
-0.0125629
0.0476333
0.0585223
0.0163724
-0.00886198
0.00232081
-0.0095676
0.102097
-0.0251182
0.0281856
-0.080497
-0.00511818
0.00311441
-0.00596947
0.00218099
-0.106261
-0.0111871
0.0592355
0.0783785
0.0521598
-0.0205516
0.0259586
-0.0445021
-0.0118157
-0.0624697
0.0522352
0.00875059
-0.00809413
0.00870215
-0.0170628
0.00509364
-0.0144494
-0.0601175
0.0530826
0.0121749
0.00571868
0.00189951
-0.00801715
-0.003296
0.139675
-0.0478785
0.0265033
-0.096531
-0.0445187
-0.00772106
0.0352295
0.0280847
-0.0200828
-0.027798
0.0240549
0.0128501
0.12103
-0.198753
0.137922
-0.0677373
-0.203463
0.0722328
0.0141733
0.131686
-0.0615271
0.0488893
0.0282622
-0.0263604
-0.0464279
0.023467
-0.000442949
0.0326095
-0.0389179
0.0252241
-0.013077
0.039328
0.0545521
-0.116952
0.0973431
-0.0472416
0.0175311
-0.0214505
0.0198053
-0.0943454
-0.0318369
0.0652568
0.0188486
0.0137035
-0.0133929
-0.0404119
0.0315279
-0.0272746
-0.110124
-0.122861
0.164172
0.0603967
0.0381719
-0.103952
0.0888529
-0.0383195
0.0625459
-0.0127539
3.34611e-05
-0.0390603
0.216335
-0.100261
-0.387045
0.284197
0.0375069
-0.211387
0.188437
-0.0289633
-0.0461871
-0.0264814
0.0342725
0.0426754
0.284926
0.0698072
-0.156428
-0.185916
-0.127416
-0.123097
0.153238
0.0864177
0.152045
-0.00919072
-0.0450105
-0.0917219
-0.491462
0.569632
0.0665589
-0.152462
-0.0283286
-0.0633906
0.0586462
0.0197749
0.105027
0.0153638
-0.0301708
-0.0734391
0.0352811
-0.127683
0.106443
-0.0310013
0.00487231
0.00528929
-0.0148852
-0.00353421
-0.00623999
0.00661537
-0.00841715
0.00618711
0.00929382
-0.00820273
0.00941886
-0.0087171
0.0344289
-0.013243
0.00563068
-0.0232164
-0.0332981
-0.00666625
0.025345
0.0242315
-0.0643763
0.0419258
-0.021754
0.0407505
-0.26532
0.214996
0.154741
-0.113229
0.0890607
0.0625044
-0.105096
-0.0520973
0.0671649
-0.157917
0.130239
-0.0533962
0.122208
0.00629406
-0.0434611
-0.0725127
-0.0547536
-0.117759
0.117439
0.0375135
-0.0309532
0.0285183
-0.0139699
0.0156276
0.0926062
0.122659
-0.151587
-0.0739724
0.209808
0.171568
-0.200981
-0.177213
-0.08582
0.032961
-0.00684807
0.0723014
0.244155
-0.197454
0.104582
-0.153155
-0.223313
-0.115413
0.17973
0.161247
0.0519901
-0.0116576
0.00175239
-0.0349063
-0.0382281
-0.220269
0.212464
0.0302908
0.038221
-0.0408531
0.0298567
-0.0282224
0.410977
0.112548
-0.208145
-0.303347
-0.0875281
-0.0411999
0.0728231
0.0654018
-0.119557
0.0618189
-0.0157945
-0.0119994
-0.127833
0.111122
0.00901333
-0.163107
-0.203149
0.239891
0.118597
-0.0198552
-0.0512379
0.053719
0.0124505
-0.197903
0.0672571
0.0287095
0.113589
-0.19413
0.118134
0.0346268
0.0509944
0.227136
0.232174
-0.278507
-0.185047
0.263985
-0.0740624
0.00733464
-0.180257
-0.168729
0.168762
-0.0594822
0.0423868
0.145702
0.0140034
-0.0452868
-0.102247
0.211759
-0.171485
-0.170928
0.119883
-0.2718
0.221311
-0.143021
0.200505
0.127301
-0.232097
0.170894
-0.0779481
-0.0915254
-0.10769
0.12436
0.0723018
0.0720667
-0.0194681
0.00307468
-0.0450118
0.0288023
-0.0966626
0.0738255
-0.0183998
-0.0171853
0.0175509
-0.0162527
0.0133816
0.00550627
0.0161545
-0.0253713
-0.00375658
0.0144223
-0.0316048
0.0189375
-0.0100838
4.891e-13
-0.00706774
-0.00716923
-7.72445e-13
-0.00249126
0.00284549
0.010956
0.000822284
0.0261247
-0.0424578
0.0134294
-0.00717561
7.78664e-05
-0.00334053
-0.00062657
1.08859e-13
-0.00436899
-0.0039288
-9.80606e-14
-0.016054
-0.0610386
0.0488768
0.0118465
0.00175269
0.00603517
-3.21178e-05
0.00208419
-0.000474329
0.00208839
0.00443662
-0.000235102
-6.02609e-07
-0.00991905
-0.00928999
4.95277e-08
-0.0681058
0.0410467
0.0324253
-0.0228478
0.0102787
-0.0453037
0.0257078
-0.00257332
-0.154948
-0.021258
0.0862667
0.104382
0.0427182
0.0338149
-0.0427278
-0.0310233
-0.00522649
0.0203999
-0.0241061
0.00310054
0.0044832
-0.0402267
0.0271607
-0.00112239
0.141828
-0.0740904
0.0358214
-0.0945418
-0.112974
0.0611953
0.00582785
0.0553186
-1.51396e-08
-0.00788063
-0.00778303
1.20033e-07
-8.44263e-14
-0.00262742
-0.00315395
5.63194e-14
-0.0354823
0.0241405
-0.0091841
0.0228533
-0.00920637
0.0108379
-0.0122069
0.00328206
0.0107104
-0.0113083
0.00436017
-0.00602584
0.0245285
-0.00631176
0.000503205
-0.0136291
0.0543244
-0.161924
0.139007
-0.0484666
-0.0211767
-0.0756304
0.0398476
0.0722065
-0.258872
-0.054643
0.159074
0.162299
-0.0812211
0.130012
-0.0775735
0.020877
0.189639
0.00261509
-0.0573545
-0.120718
0.0973888
-0.0801142
-0.0763741
0.0430184
0.0100868
-0.0602662
0.015088
0.0652604
0.00134079
-0.0192786
-0.0377753
-0.0453737
0.0561694
-0.0525991
0.0292193
-0.287208
0.314251
-0.259825
0.229132
0.245382
-0.030325
-0.141522
-0.0644144
-0.266257
0.175311
0.0323657
0.067979
0.243848
-0.0991243
-0.313687
0.172224
0.0976641
-0.159689
0.13313
-0.0762121
-0.154283
0.253324
-0.199756
0.091733
0.02031
-0.0890891
0.0635812
-0.00515061
-0.0639638
-0.185916
0.18249
0.0460525
-0.0381393
-0.00528772
0.0164869
0.0375032
-0.0191024
-0.0561106
0.113949
-0.0285278
-0.0211492
-0.0609863
0.058115
0.0132663
0.19714
0.0661051
-0.213779
-0.0504127
-0.0390832
0.0832559
-0.100273
0.0566784
0.314147
-0.0284775
-0.0805069
-0.194068
0.292274
-0.0140323
-0.195677
-0.0746301
0.000913721
-0.0827034
0.0703976
-0.000232096
-0.112146
0.11772
-0.0705664
0.0607086
0.0786028
-0.0253997
0.0117036
-0.0565986
-0.0284718
-0.0115741
0.0186676
0.0282986
0.0494344
0.0658785
-0.0761092
-0.0460727
0.11398
-0.167982
0.0798107
-0.0296385
-0.284132
0.223689
-0.0983882
0.162613
0.222705
-0.037934
-0.245383
0.0626884
-0.0458541
0.0349203
0.0372739
0.0807675
0.0897445
-0.139202
-0.0367388
-0.113741
-0.0479598
0.130833
0.0295761
0.0446382
-0.0292093
0.0192859
-0.0326183
-0.119263
0.0972637
-0.0624963
0.0830321
0.321102
0.146091
-0.196685
-0.259014
0.0378226
0.0339212
-0.0257974
0.00822516
-0.0733672
0.0630463
-0.00496475
-0.396722
0.239352
-0.147087
0.319201
-0.0903355
0.0348534
0.234014
-0.168671
-0.200119
0.325159
-0.29002
0.152279
0.285828
-0.207589
-0.350476
0.272691
0.161994
-0.130151
0.0839337
-0.116535
0.153114
-0.0389599
0.00999835
-0.11099
-0.276822
0.25798
-0.185097
0.200694
0.360089
0.120482
-0.187444
-0.276159
0.00423065
-0.0715744
0.062598
-0.00205842
0.344519
0.110315
-0.231171
-0.217356
-0.0677651
0.0732665
-0.0618782
0.0454983
-0.181591
-0.0216083
0.0713806
0.141676
0.14132
0.234668
-0.272344
-0.115106
0.260905
0.173084
-0.232931
-0.202084
-0.062231
0.104338
-0.148313
0.1072
-0.122301
0.0944945
0.0267808
-0.00685836
-0.0990389
-0.00834457
0.0315424
0.0902665
0.0556113
-0.0166577
0.00316721
-0.035104
0.191301
-0.242119
0.201263
-0.15587
-0.39393
0.21688
-0.119355
0.315591
0.0915071
0.0999939
-0.13712
-0.061556
-0.0690282
0.0146578
0.0208511
0.0404842
-0.0298718
-0.0740119
0.0906866
0.00765007
-0.171771
0.000592983
-0.00042672
-0.231338
0.24452
-0.0927653
0.0656047
0.308519
0.0539792
-0.104092
-0.234631
0.0226552
-0.169595
-0.0172049
-0.0431022
-0.156475
0.14774
0.029815
-0.231195
0.0327766
0.148079
0.0590159
0.102962
-0.248755
0.209403
-0.076808
-0.184963
0.0888234
-0.0365
0.150481
-0.0917357
-0.20199
0.210443
0.0634477
0.180469
0.0143815
-0.0472279
-0.130442
0.0278551
0.0500072
-0.0684979
-0.0134971
0.0601208
0.00401027
-0.0193886
-0.0347646
0.0439121
-0.130939
0.107562
-0.0365099
-0.0767435
0.0729566
-0.0258439
0.0182104
-0.308472
0.165241
-0.0750533
0.230431
-0.104929
0.0393092
-0.0137002
0.095748
0.0658944
-0.175299
0.148098
-0.0548053
0.0426262
0.0058189
-0.0272068
-0.0206565
0.193436
0.0719744
-0.143172
-0.122468
-0.0554846
-0.0274297
0.0503282
0.0332114
-0.0593793
0.0500761
-0.0248959
0.0303238
-0.0102184
-0.000670286
0.0313611
-0.0174256
-0.0740345
0.06442
0.00137943
-0.0010179
0.11506
-0.160965
0.29382
-0.236212
-0.11368
0.102459
-0.0145628
0.02843
0.0227666
-0.041527
0.0311342
-0.0164801
0.161789
0.083187
-0.136104
-0.105555
-0.0639874
0.048053
-0.0268881
0.0409428
0.0601498
0.0233355
-0.0695709
-0.0150379
-0.0357126
-0.0291998
0.0341475
0.0324801
0.332041
-0.143902
-0.000936198
-0.00149195
0.000463752
0.0549387
0.0267367
-0.00939304
-0.0347095
-0.0347063
0.122021
-0.00602485
0.176366
-0.0378396
-0.15537
0.000886461
0.0326555
0.00812826
-0.16955
-0.00338325
0.0250931
-0.00533867
0.0118833
0.00656445
-0.0461701
-0.0184336
-0.0211534
0.000442569
0.0298324
-0.013226
0.129519
-0.0327953
0.0730788
-0.000787025
0.0105091
0.00184898
-0.108552
0.115974
0.00737601
0.00218957
-0.0198538
-0.214501
-0.0652591
0.0315012
-0.0142391
-0.0177767
0.0216367
-0.0458303
-0.0125558
0.0425151
0.0551002
-0.0560828
0.0270058
0.00351444
0.0132305
-0.0264425
0.00439634
0.011413
-0.0253982
-0.00433585
-0.0107891
0.0144703
-0.0234082
-0.00820663
0.0257807
0.0297986
0.0656592
-0.0302208
0.0949136
0.136921
-0.111753
-0.258136
-0.131831
0.102863
-0.0191634
0.138698
-0.171651
0.000992892
-0.0827547
0.101734
0.199217
-0.0279061
0.0546772
0.0858383
-0.0425846
0.0318037
-0.0671102
-0.139948
0.119502
0.0220985
0.00388022
-0.00939033
-0.00448488
-0.00291643
0.00832327
0.00835821
0.0237353
-0.0573457
-0.0155244
0.0753089
-0.0374498
-0.105647
-0.00817777
0.0142193
0.0232424
-0.115364
0.084341
-0.241504
0.0892191
-0.122094
-0.0274455
0.0795094
-0.0586595
0.225989
0.243774
-0.275725
0.0349102
-0.204687
0.123086
-0.292728
0.00487182
-0.00888615
0.0035214
-0.00346888
0.00531505
-0.00505765
-0.0354342
0.0303543
0.0117244
-0.412774
0.383026
0.0955768
0.377742
-0.453181
0.213919
0.0504841
-0.036609
0.0460011
0.0731013
-0.053456
-0.0767265
0.448704
-0.450562
-0.189943
-0.0722869
0.0944407
-0.203848
-0.337319
0.330862
-0.0811839
0.0186718
-0.0125019
0.011545
0.260571
-0.275208
0.0696517
0.22213
-0.219518
0.283822
-0.0439755
0.0298353
0.148676
-0.00579211
-0.00613647
5.23696e-14
0.00678099
0.00535219
0.000672474
-0.00554504
-0.00520011
-3.47002e-08
-0.0132844
-0.0129316
1.1457e-05
0.314702
-0.312536
-0.302864
0.414607
-0.405147
-0.259206
0.0276007
-0.0524745
0.0156214
0.0975995
-0.112811
0.143479
0.260091
-0.273348
0.0752459
0.0132678
0.00969491
0.00218416
-0.0180938
-0.0156933
-3.68226e-05
0.496107
-0.396581
-0.317617
0.197323
-0.248371
0.161615
-0.168013
0.19467
-0.12508
-0.0351907
0.0158125
-0.0782907
-0.0128774
0.0309364
0.0772315
-0.236885
0.222114
0.140018
-0.0593508
0.13011
0.216457
0.0151804
-0.00765827
0.034361
-0.104901
0.0754045
-0.00393308
-0.00356013
0.00969531
0.00505804
0.0032472
-0.008069
-0.0035214
0.0428511
-0.0580661
-0.132615
0.303403
-0.313192
-0.163007
0.309862
-0.363386
0.343444
0.0788376
-0.113454
0.0275668
0.0862085
-0.0351818
0.152696
0.00787456
0.0145629
1.55394e-05
0.105842
-0.105079
-0.0490961
0.0526848
-0.0699202
-0.151262
0.212428
-0.196991
0.18062
0.307885
-0.287469
-0.281147
-0.202862
0.188557
0.050127
-0.2239
0.256671
0.314036
0.207326
-0.203785
0.131238
0.0328362
-0.0318161
0.0584694
0.186661
-0.161099
-0.127602
-0.220645
0.256011
-0.243784
-0.278524
0.258927
-0.0377449
-0.230227
0.281882
0.374206
0.0909329
-0.100489
-0.104277
0.107127
-0.0710803
0.0832902
0.0369672
-0.0455974
-0.0283669
-0.00547161
0.00536949
-0.0302016
0.0983973
-0.105514
0.0333437
-0.00599966
0.00241907
-0.0285256
0.149644
-0.174437
0.0300645
-0.00595709
0.00857546
0.02673
-0.263018
0.236078
0.00643711
0.00903181
-0.0143189
-0.0256055
-0.100281
0.0702073
-0.0357308
0.128812
-0.0724563
-0.211703
0.0157867
0.00912579
1.87799e-12
0.0387744
-0.031868
0.0210833
0.10451
-0.0436675
0.173673
-0.15435
0.15804
0.293421
0.329139
-0.345751
-0.0968727
-0.162685
0.14133
0.237455
0.062569
-0.0345674
0.0985011
-0.118282
0.202577
-0.264612
0.0886377
-0.0938974
0.0285506
-0.0114023
0.00751561
-0.0219986
0.00679733
-0.001761
-0.0291747
-0.00486541
0.00829006
-0.00836201
0.00345711
-0.00592275
0.0044841
-0.106477
0.162432
-0.243521
-0.0346541
0.0314363
-0.0168618
-0.0485721
0.0368356
0.0249081
0.0943025
-0.0845957
-0.0989713
-0.0417158
0.0220833
0.0153709
0.0709124
-0.0324968
0.102866
-0.0506967
0.0263783
0.0140103
0.0368603
-0.0454022
0.00990856
0.0685011
-0.0848894
-0.0115456
-0.157913
0.131791
-0.0141777
0.10509
-0.0866005
0.0999799
-0.0194804
0.0464338
0.0668568
-0.0232079
0.0420542
-0.0680084
0.0535574
-0.0660778
-0.0130282
-0.0224074
0.0112167
-0.00669942
-0.16976
0.134768
0.012855
0.143993
-0.17525
-0.0124624
0.139258
-0.174509
0.0124318
-0.0653659
0.0793225
0.155408
0.0203382
-0.0415368
0.00786626
-0.0249713
0.0122049
0.00584521
-0.022706
0.0215188
-0.0431493
-0.0146872
0.0431576
0.0396499
0.0673577
-0.0284334
-0.0819222
0.0578881
-0.0715809
0.0154638
0.0796626
-0.0956092
-0.027492
0.0192112
-0.0405111
-0.00777261
-0.0197448
0.00924832
0.00779116
-0.0183811
0.0256223
-0.0375811
-0.0887374
0.142238
-0.221776
-0.0596104
0.0250706
-0.0137759
0.0761431
-0.0373876
-0.106555
-0.0514773
0.0220311
-0.0173154
-0.0115214
0.0103658
-0.0230115
-0.297496
0.246886
-0.238435
0.0584183
-0.032338
0.0627297
0.257038
-0.269518
0.0992072
0.042131
-0.021459
-0.0381518
-0.0268586
0.0127571
0.00609331
-0.0750793
0.0690191
0.0212602
0.279496
-0.313522
-0.131487
-0.0167639
0.0227807
0.033336
-0.0282048
0.0177454
-0.030253
-0.142061
0.170169
-0.100316
-0.0115052
0.00578365
-0.015559
0.0822513
-0.0879347
-0.0451699
-0.151555
0.158914
0.0695845
0.0219495
-0.0293735
0.0743049
-0.0500898
0.051826
-0.0346871
0.0112797
-0.0199249
-0.0606808
-0.225995
0.252646
0.1857
-0.0721383
0.0587903
0.0489351
0.159636
-0.149264
0.0659023
-0.00480205
0.00937443
-0.0277646
-0.00390557
-0.00437643
-7.89819e-14
0.0107394
0.00528944
0.00213088
-0.0107812
-0.0111579
5.4588e-07
0.0356891
-0.032163
-0.0351128
0.00392456
0.00442906
-0.000634628
-0.00770926
-0.00781204
-1.73954e-14
-0.0110871
-0.0118754
-7.55189e-05
-0.00705597
-0.006954
1.089e-08
0.0102082
0.00681792
-0.00173647
0.0227052
-0.00556172
0.0718188
0.0441868
-0.025144
0.0274862
-0.0403955
0.118292
-0.157558
-0.00490399
-0.00443313
7.41912e-14
-0.0510865
0.0348741
0.0127346
-0.0412079
0.0305435
-0.0136196
-0.0527796
0.0597228
-0.087428
-0.0503862
0.062633
0.145936
0.278693
-0.207092
-0.332495
-0.051237
0.0381784
0.14005
-0.0988233
0.080207
-0.0253663
-0.102523
0.0946249
0.0258898
0.00923379
-0.0578331
0.162552
-0.120638
0.102334
-0.0446348
-0.110009
0.111784
0.0350541
-0.243118
0.238668
-0.0928092
-0.343741
0.331769
0.116789
-0.056289
0.0568042
0.213482
0.306677
-0.291396
0.204765
-0.214422
0.269747
0.206738
-0.106606
0.0834877
-0.0694368
-0.0940466
0.107606
0.0829448
-0.110342
0.151914
-0.27948
0.287006
-0.269149
0.116953
0.209585
-0.238824
-0.0559122
0.232385
-0.241349
-0.132575
-0.166726
0.144288
-0.0121118
-0.0135065
0.0370207
0.11665
-0.145189
0.124238
-0.0493512
-0.147074
0.147711
0.0495126
0.103846
-0.129157
0.190095
0.194833
-0.22516
0.00139146
-0.249647
0.234271
0.0348353
0.197016
-0.218497
0.324245
0.392882
-0.420798
0.26619
-0.190354
0.188466
-0.214103
0.0881437
-0.0828343
-0.180836
0.129149
-0.119517
0.28143
-0.00731287
0.0111786
0.0257689
-0.00842802
0.00315977
0.0346373
-0.223469
0.216628
0.114166
0.311303
-0.233449
-0.350602
-0.128349
0.134808
-0.127138
-0.0387532
0.0264575
-0.0321692
-0.0328067
0.0381991
0.0409124
0.0335721
-0.0275564
0.0811278
-0.228895
0.268325
-0.16163
0.325444
-0.372626
0.241434
-0.202593
0.243229
0.292555
-0.192285
0.172607
0.00979515
-0.319583
0.311431
-0.164494
-0.239075
0.213855
0.00623552
0.205501
-0.116322
0.285569
0.14937
-0.204176
-0.325916
-0.273735
0.26967
0.359658
-0.300432
0.189639
0.423371
0.237662
-0.255501
0.0871053
-0.194394
0.214484
-0.383339
-0.448069
0.44241
-0.209184
-0.147867
0.15308
-0.295233
-0.139412
0.154875
0.324208
0.265798
-0.210329
0.203164
0.244554
-0.285915
-0.238228
-0.314839
0.283491
0.0215717
-0.0560004
0.0254594
-0.138514
-0.0199645
0.051203
0.133422
0.320757
-0.33937
0.14096
-0.0520633
0.0772268
-0.182489
0.236938
-0.261372
-0.0479983
0.227362
-0.221125
-0.0968914
-0.0142021
0.00544967
-0.0708862
-0.215284
0.187743
0.0415634
-0.168397
0.170344
0.0742341
-0.0162894
0.0152074
0.0719834
-0.0151827
0.0153757
-0.0544208
-0.109425
0.102459
0.0311175
-0.0361247
0.0226254
0.0984942
-0.207584
0.205569
-0.0420145
0.181797
-0.093798
-0.295357
0.376503
-0.396233
0.0976981
0.172942
-0.12823
-0.152003
0.0498599
-0.0559925
0.0232712
0.180624
-0.176943
0.165785
0.327491
-0.342928
-0.102135
0.0624689
-0.0777546
0.219209
0.0933823
-0.0850609
0.0492705
-0.0290991
0.0221339
-0.0256699
0.13181
-0.111551
-0.0877195
0.0180858
-0.0263356
-0.0751964
-0.144546
0.143735
0.046635
-0.0522771
0.0642529
-0.0655863
-0.0644782
0.04424
0.0644164
0.293816
-0.297869
0.195003
0.195178
-0.158014
-0.108367
0.4588
-0.0596671
-0.13451
-0.159707
0.381405
-0.10454
-0.262293
0.309139
-0.189148
-0.0118113
0.12522
0.436945
-0.288581
-0.187699
0.0994358
0.204707
-0.0704018
-0.0414087
-0.139812
-0.101971
2.45627e-14
0.00313801
-0.0102772
-0.00313801
-0.00400116
-7.37434e-19
-1.10251e-14
-0.00873141
1.1179e-15
-0.00245539
-0.642313
-0.396232
0.807976
-0.0295883
0.138804
-0.0309015
-0.054804
0.100096
-0.0538884
0.051145
0.00970758
0.0631916
0.148848
0.09587
-0.55689
-0.17023
-0.139453
-0.597266
0.355394
-0.0609438
0.0976099
-0.0786708
0.0251872
-0.0344169
-0.0764853
0.0250086
0.0836337