/*--------------------------------*- C++ -*----------------------------------*\
  =========                 |
  \\      /  F ield         | OpenFOAM: The Open Source CFD Toolbox
   \\    /   O peration     | Website:  https://openfoam.org
    \\  /    A nd           | Version:  6
     \\/     M anipulation  |
\*---------------------------------------------------------------------------*/
FoamFile
{
    version     2.0;
    format      ascii;
    class       surfaceVectorField;
    location    "1.17";
    object      rhoUf;
}
// * * * * * * * * * * * * * * * * * * * * * * * * * * * * * * * * * * * * * //

dimensions      [1 -2 -1 0 0 0 0];

internalField   nonuniform List<vector> 
11670
(
(-0.00167219 1.50356e-05 0.000915831)
(-0.00176851 0.000210077 0.000252382)
(-0.00249939 -0.000168652 0.000882045)
(-0.00174606 0.000588804 0.00121522)
(-6.0599e-17 -1.93727e-18 2.48859e-17)
(-1.20335e-16 7.50347e-18 2.05536e-17)
(-6.39319e-17 -1.29594e-18 1.43481e-17)
(-5.45617e-17 -3.15669e-18 2.90443e-17)
(-0.00185668 -0.00036249 -0.00153735)
(-0.00200866 -0.000109861 -0.000847902)
(-0.00278968 -0.000450276 -0.00135974)
(-0.00191547 0.000171953 -0.00196539)
(-0.00020616 -2.20723e-05 0.000108631)
(-0.000216991 -2.22242e-05 6.36472e-05)
(-0.000322686 -3.10735e-05 0.000113883)
(-0.000206023 -1.43122e-06 0.000137244)
(-4.47236e-17 -1.22752e-17 -2.88975e-17)
(-4.96527e-17 -1.0226e-17 -1.96672e-17)
(-8.13782e-17 -1.73036e-17 -2.43055e-17)
(-4.99379e-17 -6.33912e-18 -3.656e-17)
(-2.04543e-10 -2.68514e-11 -1.45268e-10)
(-1.95658e-10 -3.08058e-11 -7.94015e-11)
(-3.22551e-10 -4.46892e-11 -1.19896e-10)
(-1.81984e-10 -2.63703e-11 -1.30978e-10)
(-2.30527e-15 -2.53569e-16 8.85643e-16)
(-4.88685e-15 -2.20063e-16 1.25002e-15)
(-2.29266e-15 -3.06183e-16 3.1352e-16)
(-2.21522e-15 -1.45123e-16 1.20892e-15)
(-1.17175e-06 -4.18651e-07 9.60177e-07)
(-9.41284e-07 -2.95654e-07 3.8223e-07)
(-1.81385e-06 -8.45993e-07 5.95951e-07)
(-9.23284e-07 -3.39254e-07 7.36706e-07)
(-5.26543e-12 5.54144e-13 1.82892e-12)
(-5.66579e-12 4.49838e-13 9.7022e-13)
(-8.56545e-12 7.05052e-13 1.39768e-12)
(-4.92062e-12 6.1125e-13 1.92719e-12)
(-3.28587e-13 6.8164e-14 1.98102e-13)
(-2.94813e-13 8.2675e-14 5.13934e-14)
(-5.29087e-13 7.30594e-14 1.70499e-13)
(-3.60032e-13 2.99044e-15 2.48646e-13)
(-2.13893e-15 -2.84882e-16 1.51993e-15)
(-1.95667e-15 -3.89136e-16 7.96486e-16)
(-3.47328e-15 -3.99274e-16 1.22183e-15)
(-2.05548e-15 -2.04382e-16 1.44222e-15)
(-0.000840892 -0.000454901 0.000222527)
(-0.000140323 -0.000280275 9.72136e-05)
(9.5501e-06 -0.000164672 0.000284883)
(-2.84833e-05 -0.000254375 0.000489833)
(-7.7961e-18 1.1852e-17 -4.04753e-18)
(-2.24884e-18 -2.10575e-18 1.26741e-18)
(-3.6611e-18 3.5936e-19 -3.4034e-18)
(-2.99111e-18 5.00351e-19 -9.80386e-19)
(-3.60035e-18 -2.74407e-19 4.3455e-18)
(-8.97913e-18 1.48259e-17 2.65447e-18)
(-3.3511e-18 1.27253e-18 4.84676e-18)
(-4.82666e-18 3.1167e-18 4.36787e-18)
(-0.000515004 -0.000297471 -0.000378226)
(-0.00122715 -0.000563401 -0.000492531)
(-0.000358669 -0.000472625 -0.000801005)
(-0.000215845 -0.000199976 -0.00052811)
(-4.99968e-19 4.3644e-19 -3.58633e-19)
(-1.64994e-18 1.18142e-18 -1.2552e-18)
(-5.35013e-19 6.27868e-19 -8.46126e-19)
(-4.48328e-19 7.79528e-19 -4.14875e-19)
(-0.00240634 0.00127487 -0.00185156)
(-0.00104787 0.00154975 -0.000184871)
(-5.99759e-05 0.00289063 -0.00234096)
(-2.56051e-05 0.00205291 -0.00268658)
(-0.00255576 -0.00121074 0.00132811)
(-0.0010945 -0.00151752 -1.42705e-05)
(8.91029e-05 -0.0020435 0.00214745)
(5.98747e-05 -0.00232573 0.00158759)
(-3.22313e-18 -3.4805e-18 -2.02128e-18)
(-1.26361e-18 -1.4757e-18 -1.81822e-18)
(-3.9536e-19 -1.02699e-18 -2.42982e-18)
(-4.11109e-19 -1.03812e-18 -2.14978e-18)
(-2.80509e-19 1.86719e-19 -3.45422e-19)
(-1.0681e-18 9.28473e-19 -4.00245e-19)
(-2.05026e-19 2.10316e-19 8.52314e-20)
(-2.31178e-19 -4.11202e-21 3.12158e-19)
(-0.00210343 -0.00129441 -0.00017249)
(-0.00367632 -0.000898547 -0.000832971)
(-0.00128911 -0.00226092 -0.00192846)
(-0.000979581 -0.00126766 -0.0024808)
(-7.63081e-19 -4.97137e-19 3.43301e-19)
(-8.21385e-20 -2.34858e-19 -5.2442e-20)
(-9.62534e-20 -6.25898e-19 2.59215e-19)
(-7.4709e-20 -2.74651e-19 7.69545e-19)
(-0.00155747 0.000691381 -0.000616315)
(-0.003124 0.000985908 -7.21618e-05)
(-0.000272659 0.00175522 0.00122606)
(-0.000416436 0.00220562 0.000570672)
(-0.00083316 0.000547753 -0.000335198)
(-0.000152763 0.000201163 1.5219e-05)
(-0.000106957 0.000353428 -0.000484936)
(-7.19113e-05 0.000270422 -0.000331402)
(-4.87969e-19 -5.84588e-20 -8.02522e-19)
(-9.18155e-19 -5.07159e-19 -9.75949e-19)
(-6.43107e-19 -1.3998e-19 -8.73167e-19)
(-5.25856e-19 -4.46473e-19 -6.50824e-19)
(-4.28079e-18 -4.49089e-18 6.43644e-19)
(-1.29144e-18 -1.027e-18 5.00244e-19)
(-1.21334e-18 -1.12458e-18 6.6136e-19)
(-1.70672e-18 -1.51232e-18 1.29653e-18)
(-0.000556487 0.000384113 0.00028106)
(-0.00125526 0.000746571 0.000242899)
(-0.000270916 0.000315452 0.00036904)
(-0.000429918 0.000588146 0.000615644)
(-5.56122e-17 3.05332e-17 2.63623e-17)
(-1.30929e-16 9.22964e-17 -7.09806e-17)
(-2.51956e-17 3.29091e-17 -2.13622e-17)
(-2.20396e-17 3.52145e-17 6.21124e-18)
(-1.96504e-05 -9.85815e-06 4.49906e-05)
(-0.000307653 -0.000163125 8.37265e-05)
(1.07242e-07 -2.17999e-05 0.00011383)
(-7.95755e-06 -3.69622e-05 0.00015681)
(-2.11706e-16 9.88978e-17 -4.56613e-18)
(-4.62258e-17 1.52426e-17 1.10602e-16)
(-4.75528e-17 3.19905e-17 8.41894e-17)
(-7.22683e-17 5.02126e-17 9.75182e-17)
(-5.69631e-07 -3.46805e-07 6.46505e-06)
(-3.74499e-05 -2.29906e-05 1.59393e-05)
(1.08704e-06 -1.93486e-06 1.86681e-05)
(1.51279e-08 -4.96026e-06 2.558e-05)
(-1.00458e-15 2.87891e-16 -6.61619e-17)
(-1.29549e-15 1.74633e-15 -9.83364e-16)
(-3.8842e-16 4.32289e-16 -2.16927e-16)
(-3.22535e-16 5.5905e-16 4.84547e-17)
(-4.15023e-15 1.73775e-15 4.10064e-16)
(-8.45742e-16 -8.59968e-17 6.85248e-16)
(-7.7946e-16 4.65892e-16 6.92838e-16)
(-1.26749e-15 4.46074e-16 1.09801e-15)
(-3.96677e-06 -2.24331e-06 -1.87991e-06)
(3.51479e-07 3.90222e-07 -6.77346e-07)
(-3.9453e-07 1.17172e-07 -2.74592e-06)
(-1.23392e-07 1.51961e-07 -1.71071e-06)
(-1.43847e-06 1.69372e-07 1.8472e-06)
(-5.04064e-06 -3.20274e-06 2.54671e-06)
(-6.17239e-07 -1.5577e-07 1.74544e-06)
(-1.1107e-06 -6.28051e-07 2.58864e-06)
(-7.55616e-15 1.7182e-15 6.53885e-15)
(-1.86821e-14 1.34166e-14 -2.08352e-16)
(-4.22905e-15 2.57366e-15 6.32916e-15)
(-6.91742e-15 4.90699e-15 5.96197e-15)
(-1.32456e-14 9.39374e-15 -3.78362e-15)
(-1.87797e-15 9.85921e-16 3.8345e-15)
(-3.35505e-15 1.36918e-15 -1.7801e-15)
(-2.55913e-15 1.43064e-15 4.50653e-16)
(-5.84401e-15 5.6471e-15 -2.82173e-14)
(-7.46018e-14 6.68189e-14 1.48337e-16)
(-1.48816e-14 1.2417e-14 -3.60384e-14)
(-6.61149e-15 3.96111e-15 -2.99951e-14)
(-9.3158e-08 -2.10702e-09 -1.51604e-07)
(-2.69927e-07 -3.75281e-07 -2.28274e-07)
(-1.80621e-08 -2.33212e-08 -2.24524e-07)
(-6.07938e-09 1.92028e-09 -1.76275e-07)
(-5.6998e-07 -4.07095e-07 1.16704e-07)
(-9.38875e-08 7.83487e-08 1.48717e-07)
(-1.17061e-07 3.98367e-10 1.92353e-07)
(-2.31017e-07 -1.28439e-07 3.38667e-07)
(-7.94235e-13 5.79602e-13 -4.85878e-13)
(-3.35195e-13 1.96522e-13 -3.7331e-13)
(-4.27276e-14 1.20267e-13 -5.76573e-13)
(-4.24525e-14 9.73211e-14 -5.15663e-13)
(-5.741e-08 -2.89666e-08 -2.26747e-08)
(-7.24828e-09 4.83236e-09 -2.27699e-08)
(-1.74632e-08 -7.12706e-09 -3.71661e-08)
(-1.02136e-08 -1.44557e-09 -2.3395e-08)
(-1.0614e-12 6.80794e-13 5.57855e-14)
(-2.75484e-13 4.92386e-14 1.35956e-13)
(-2.52658e-13 1.07266e-13 1.0061e-13)
(-3.70308e-13 1.7385e-13 2.34077e-13)
(-8.44614e-09 -1.19838e-08 1.50827e-08)
(-4.31248e-08 -3.59409e-08 2.36742e-08)
(5.37406e-10 -9.4155e-09 1.8657e-08)
(-1.23812e-09 -1.00436e-08 2.86175e-08)
(-1.9515e-12 5.72022e-13 1.8569e-12)
(-6.56238e-12 3.81939e-12 5.28917e-13)
(-1.5618e-12 1.3141e-12 1.42851e-12)
(-1.97317e-12 1.25451e-12 1.70364e-12)
(-9.09351e-09 -5.90736e-09 -1.93613e-09)
(-1.05971e-10 1.81389e-09 -2.40235e-09)
(-1.56247e-09 -3.20649e-10 -4.38438e-09)
(-1.0065e-09 -5.2741e-10 -2.59802e-09)
(-6.4443e-12 3.31892e-12 -1.87229e-12)
(-8.11948e-13 5.66298e-13 -1.02581e-14)
(-1.53923e-12 9.58072e-13 -1.75602e-12)
(-1.2242e-12 1.14833e-12 -8.48129e-13)
(-2.64612e-09 7.01046e-10 1.80396e-09)
(-6.90168e-09 -7.6071e-09 6.33662e-09)
(-1.5782e-09 -1.10226e-09 2.01255e-09)
(-2.13922e-09 -8.39155e-10 2.76053e-09)
(-6.24197e-12 -3.79414e-12 -5.86971e-12)
(-1.69496e-11 -8.49736e-12 -5.8594e-12)
(-6.18507e-13 -4.74142e-12 -7.77875e-12)
(-7.75333e-13 -5.09453e-12 -6.50883e-12)
(-8.77656e-10 8.32305e-10 4.21522e-10)
(-6.46268e-11 4.62817e-11 1.2281e-10)
(-1.09885e-10 1.86135e-10 2.47693e-10)
(-1.30754e-10 7.01741e-11 4.84429e-10)
(-6.78372e-12 -2.04695e-12 2.33847e-12)
(-2.18349e-11 -1.22155e-11 3.39479e-12)
(-5.54549e-12 -4.55634e-12 2.83257e-12)
(-7.26272e-12 -4.48458e-12 5.76829e-12)
(-5.34535e-10 1.79965e-10 -4.60394e-10)
(-1.03684e-09 1.06319e-09 -3.73144e-10)
(-4.37955e-10 2.96732e-10 -5.22498e-10)
(-3.09796e-10 2.44199e-10 -4.13317e-10)
(-5.6876e-11 -2.4322e-11 2.96226e-11)
(-1.56214e-10 -1.56137e-10 1.02502e-10)
(-2.29096e-11 -6.65573e-11 2.28386e-11)
(-2.27633e-11 -3.90233e-11 4.57984e-11)
(-2.48284e-10 -1.38508e-10 1.62262e-12)
(-6.51791e-11 1.29469e-11 -4.26576e-11)
(-9.06972e-11 -4.03546e-11 -7.35339e-11)
(-6.54384e-11 -3.53642e-11 -5.07451e-11)
(-1.95585e-10 2.06603e-10 9.32352e-11)
(-2.97367e-11 -1.11858e-12 1.43979e-11)
(-3.6628e-11 4.4974e-11 5.94087e-11)
(-4.36673e-11 3.53174e-11 8.26442e-11)
(-2.66065e-11 2.00399e-11 1.08151e-11)
(-4.1132e-12 5.99584e-12 3.15125e-12)
(7.34848e-13 5.8916e-12 1.67482e-12)
(6.41961e-13 2.3998e-12 9.89112e-12)
(-9.18539e-11 -1.23885e-10 -1.23621e-10)
(-5.25413e-10 -4.94625e-10 -3.18495e-10)
(-9.11393e-13 9.83367e-12 -2.9914e-10)
(1.11671e-11 -7.68625e-11 -1.0741e-10)
(-4.06383e-11 3.13537e-11 -8.4787e-12)
(-1.1572e-11 4.97529e-12 -1.02309e-11)
(-1.89477e-11 1.25554e-11 -1.67234e-11)
(-1.2671e-11 8.98456e-12 -1.20463e-11)
(-1.6432e-10 -1.17803e-10 3.21677e-10)
(-6.05096e-10 -6.50772e-10 2.1166e-10)
(-1.92449e-10 -1.8623e-10 3.56689e-10)
(-2.94387e-10 -3.32764e-10 4.82454e-10)
(-2.24307e-17 -1.87097e-17 -7.14744e-18)
(-4.42193e-18 -5.06628e-18 1.49114e-18)
(-5.43306e-18 -7.39189e-18 -6.60172e-18)
(-4.85931e-18 -8.27252e-18 -3.83741e-18)
(-0.000164638 0.000138016 6.82573e-05)
(-1.27886e-05 1.05822e-05 1.7882e-05)
(-1.38691e-05 3.95017e-05 6.20977e-05)
(-1.70458e-05 3.10928e-05 0.000101658)
(-1.50224e-17 -8.7861e-18 9.49983e-18)
(-3.00188e-17 -2.47059e-17 2.75139e-18)
(-9.58834e-18 -9.46228e-18 8.65354e-18)
(-1.33687e-17 -1.15627e-17 1.0563e-17)
(-0.000110837 4.54163e-05 -9.63901e-05)
(-0.000250417 0.000206838 -8.38887e-05)
(-9.41531e-05 6.65967e-05 -0.000132995)
(-6.31878e-05 5.52849e-05 -8.03779e-05)
(-8.80924e-13 -4.82266e-13 -7.49808e-13)
(-1.9136e-12 -1.32485e-12 -7.80714e-13)
(-4.19593e-13 -6.4508e-13 -1.00871e-12)
(-4.13388e-13 -6.88804e-13 -8.92308e-13)
(-9.95178e-13 -2.41324e-13 3.7885e-13)
(-2.55825e-12 -1.8705e-12 4.9302e-13)
(-8.17182e-13 -6.51375e-13 4.60752e-13)
(-9.94689e-13 -5.69314e-13 7.61995e-13)
(-4.23149e-09 1.67808e-09 -3.19095e-09)
(-6.40688e-09 8.41897e-09 -4.67354e-09)
(-3.65448e-09 2.84889e-09 -4.13364e-09)
(-2.551e-09 2.75351e-09 -2.74535e-09)
(-6.59893e-09 6.52724e-09 2.11669e-09)
(-5.93454e-10 -5.00918e-10 9.05158e-10)
(-1.22355e-09 1.8657e-09 1.88757e-09)
(-1.50892e-09 9.26762e-10 3.49206e-09)
(-3.66333e-16 -3.60866e-16 3.11863e-16)
(-1.62613e-15 -1.26959e-15 3.08141e-17)
(-2.91541e-16 -6.02902e-16 4.78549e-16)
(-2.88677e-16 -5.63928e-16 5.47928e-16)
(-2.05388e-06 2.49574e-06 1.51804e-06)
(-1.8802e-07 -2.19071e-07 3.11569e-07)
(-4.70502e-07 7.96747e-07 9.40867e-07)
(-5.83829e-07 3.36277e-07 1.67468e-06)
(-1.40049e-06 6.91025e-07 -1.64576e-06)
(-2.25408e-06 2.7798e-06 -1.06696e-06)
(-1.33507e-06 1.1268e-06 -1.90522e-06)
(-8.61538e-07 8.89456e-07 -1.27103e-06)
(-1.8874e-07 5.61998e-08 2.12137e-07)
(-2.81249e-07 3.5165e-07 1.81265e-07)
(-1.04665e-07 1.13981e-07 1.49474e-07)
(-1.50479e-07 1.10211e-07 2.20447e-07)
(-3.28252e-07 3.53886e-07 -1.37522e-07)
(-3.68201e-08 -1.55979e-08 -6.94362e-08)
(-9.01988e-08 6.37722e-08 -2.31906e-07)
(-7.14396e-08 1.10469e-07 -1.34741e-07)
(-2.09859e-14 -1.6119e-14 5.56125e-15)
(-4.83652e-15 -4.78353e-15 -9.37003e-16)
(-4.71288e-15 -8.83375e-15 3.30914e-15)
(-4.63694e-15 -6.92612e-15 5.8748e-15)
(-1.41036e-14 -6.51752e-15 -7.68988e-15)
(-2.84913e-14 -2.09137e-14 -3.3179e-15)
(-1.29125e-14 -9.53944e-15 -8.90095e-15)
(-1.02095e-14 -9.45213e-15 -7.61182e-15)
(-2.23393e-16 -1.75634e-16 -2.15859e-17)
(-3.99748e-17 -5.31197e-17 -3.515e-17)
(-3.70036e-17 -7.94097e-17 -7.67537e-17)
(-3.46155e-17 -9.43456e-17 -5.26461e-17)
(-1.46084e-16 -8.18153e-17 3.64315e-17)
(-2.88648e-16 -2.35621e-16 1.16807e-16)
(-1.00557e-16 -1.12164e-16 6.28012e-17)
(-1.2844e-16 -1.06243e-16 1.01053e-16)
(-8.6526e-06 2.84522e-06 8.61069e-06)
(-1.58301e-05 2.50911e-05 1.10427e-05)
(-3.19162e-06 7.63885e-06 8.35794e-06)
(-3.55923e-06 4.51387e-06 1.10424e-05)
(-3.09416e-05 2.15105e-05 -1.02914e-05)
(-8.69341e-06 -5.25727e-06 -9.6494e-06)
(-1.26296e-05 9.13322e-06 -1.92392e-05)
(-8.606e-06 8.74876e-06 -1.03892e-05)
(-4.05103e-08 4.93493e-08 -2.81172e-08)
(-6.91969e-09 7.00241e-09 -1.93547e-08)
(-5.11714e-09 5.91139e-09 -2.78277e-08)
(-5.03894e-09 1.87646e-08 -1.56858e-08)
(-4.30205e-14 -4.40968e-14 -4.03663e-14)
(-1.30836e-13 -1.15554e-13 -5.63016e-14)
(-1.45374e-14 -4.39317e-14 -5.31591e-14)
(-1.98255e-14 -6.57576e-14 -3.43599e-14)
(-8.77463e-14 -4.31076e-14 4.64837e-14)
(-2.18124e-13 -1.83497e-13 3.5068e-14)
(-8.75985e-14 -7.43065e-14 6.45167e-14)
(-1.165e-13 -8.841e-14 8.96844e-14)
(-3.99338e-08 5.0162e-08 1.88676e-08)
(-8.76824e-09 -1.12454e-08 1.67247e-08)
(-1.4889e-08 1.47226e-08 1.98777e-08)
(-1.9735e-08 1.53773e-08 2.9225e-08)
(-6.08534e-17 8.25937e-19 1.51346e-17)
(-1.423e-16 -1.31196e-17 2.49711e-17)
(-5.34596e-17 -1.4116e-18 2.97537e-17)
(-0.00282547 -0.000302566 -0.00121717)
(-0.00182108 -0.000216361 -0.00064819)
(-0.00169894 -0.0004936 -0.00151068)
(-0.00228355 -5.88669e-05 0.000797575)
(-0.0014476 1.64085e-05 0.000261607)
(-0.00143973 -8.05638e-05 0.00089631)
(-2.00114e-15 -2.94279e-16 2.03626e-16)
(-3.78216e-15 2.90233e-16 1.44171e-15)
(-1.86262e-15 -2.16554e-16 8.82339e-16)
(-8.0349e-17 -1.0098e-17 -2.60104e-17)
(-2.55484e-17 5.75539e-19 -1.05893e-17)
(-3.61192e-17 -5.39004e-18 -2.77634e-17)
(-3.06408e-10 -1.61235e-11 -1.22983e-10)
(-1.37662e-10 -1.13239e-12 -7.62578e-11)
(-1.78497e-10 -1.77288e-11 -1.35765e-10)
(-2.37628e-06 -9.79528e-07 7.84608e-07)
(-9.7523e-07 -1.79673e-07 5.12605e-07)
(-1.19803e-06 -5.5032e-07 9.32848e-07)
(-0.000280945 -1.39688e-05 8.04647e-05)
(-0.000139196 2.71113e-06 4.65609e-05)
(-0.000169018 -6.609e-06 0.000100101)
(-7.67505e-12 3.13984e-13 1.91669e-12)
(-3.71819e-12 -1.50558e-13 8.07761e-13)
(-4.28964e-12 1.81142e-13 2.04094e-12)
(-4.70452e-13 6.63688e-14 1.53675e-13)
(-1.90382e-13 6.64423e-15 7.60318e-14)
(-2.70915e-13 3.4565e-14 1.70343e-13)
(-3.43496e-15 -2.21299e-16 1.01848e-15)
(-1.5022e-15 -1.35382e-16 8.22002e-16)
(-1.88949e-15 -1.87626e-16 1.35523e-15)
(-1.07009e-07 1.25909e-08 -1.15123e-08)
(-5.65407e-08 1.77629e-09 -9.34995e-09)
(-5.87899e-08 -2.5666e-09 -2.73218e-08)
(-5.61081e-08 1.74787e-09 -2.95763e-08)
(-6.43237e-08 1.16464e-10 1.72024e-08)
(-9.239e-08 7.80981e-09 4.67202e-09)
(-5.94886e-08 3.21163e-10 1.05735e-08)
(-5.3567e-08 2.24844e-09 1.23312e-08)
(-1.50693e-10 -2.30333e-11 -1.057e-11)
(-1.32647e-10 -1.56361e-11 -3.35612e-11)
(-1.58135e-10 -2.13032e-11 -3.54494e-11)
(-1.52179e-10 -2.1e-11 -3.7616e-11)
(-6.967e-17 -5.32207e-18 5.50839e-18)
(-5.35963e-17 -7.80477e-18 1.5623e-17)
(-6.53848e-17 -1.13385e-17 1.43609e-17)
(-6.42504e-17 -1.02215e-17 1.45449e-17)
(-3.02431e-16 -2.84349e-18 2.23433e-17)
(-2.71121e-16 7.33836e-19 8.44975e-17)
(-3.17061e-16 -5.99028e-18 7.59318e-17)
(-2.92134e-16 1.25341e-17 7.62583e-17)
(-0.000409851 -4.64108e-05 -2.16167e-05)
(-0.000385921 -5.02531e-05 -0.000107795)
(-0.000481659 -6.22817e-05 -0.000103549)
(-0.000394356 -3.4547e-05 -0.000103549)
(-3.50755e-08 8.84897e-10 -9.3918e-10)
(-3.62742e-08 -4.15352e-09 9.01039e-09)
(-2.90003e-08 -5.31571e-09 6.55012e-09)
(-2.36809e-08 -4.16224e-09 6.95846e-09)
(-3.21602e-17 -5.58333e-18 -1.30631e-18)
(-3.79753e-17 -1.30191e-18 -7.78615e-18)
(-3.16699e-17 -1.11148e-18 -4.57309e-18)
(-2.74098e-17 -1.30251e-18 -7.92218e-18)
(-1.09511e-07 7.52283e-09 3.14824e-08)
(-7.0063e-08 6.7153e-09 2.5225e-08)
(-6.32245e-08 2.59896e-09 2.99359e-08)
(-1.03435e-09 1.38704e-10 4.00676e-11)
(-9.04484e-10 9.3514e-11 -1.52946e-10)
(-1.05429e-09 1.40433e-10 -1.27866e-10)
(-1.0153e-09 1.55362e-10 -1.35102e-10)
(-2.50243e-12 -6.55153e-13 3.82423e-15)
(-2.72399e-12 -6.71299e-13 -2.71847e-13)
(-2.59152e-12 -6.4864e-13 -3.594e-13)
(-2.39578e-12 -6.13337e-13 -3.03098e-13)
(-0.000923395 -4.37453e-05 2.74851e-05)
(-0.000986729 -0.000107802 -3.15156e-05)
(-0.000845536 -0.000123691 3.94857e-05)
(-0.000813678 -0.00010309 -4.29138e-05)
(-2.09296e-12 -5.83062e-13 3.53277e-13)
(-2.65598e-12 -7.94201e-13 1.89892e-13)
(-2.51088e-12 -7.65425e-13 1.93908e-13)
(-1.75023e-09 -2.95358e-10 -3.02455e-10)
(-1.6343e-09 -2.84503e-10 -4.41637e-10)
(-2.0112e-09 -3.36865e-10 -5.5474e-10)
(-2.12465e-09 -2.73231e-10 -5.60595e-10)
(-0.00110003 1.72705e-05 8.47912e-05)
(-0.000983009 3.55912e-05 -1.30281e-05)
(-0.000862871 1.873e-05 8.19255e-05)
(-1.13734e-09 1.68985e-10 2.1029e-10)
(-1.06035e-09 1.38051e-10 2.1371e-10)
(-1.06369e-09 1.48352e-10 2.10041e-10)
(-4.73185e-08 7.60332e-09 -1.13016e-08)
(-3.82461e-08 6.6041e-09 -7.23336e-09)
(-3.01941e-08 4.91908e-09 -7.36743e-09)
(-2.69063e-16 -8.11674e-18 -3.91405e-17)
(-3.22453e-16 -6.72462e-18 -3.21759e-17)
(-3.21455e-16 -4.74338e-19 -3.15044e-17)
(-1.32442e-10 -2.46678e-11 1.90115e-11)
(-1.61809e-10 -3.29159e-11 1.40145e-11)
(-1.59288e-10 -2.85607e-11 1.33688e-11)
(-0.000347472 -3.57449e-05 6.28365e-05)
(-0.000426133 -4.56967e-05 4.59242e-05)
(-0.000445845 -6.19654e-05 6.52103e-05)
(-3.6836e-17 -1.18092e-17 3.5035e-18)
(-3.14246e-17 -9.40741e-18 -1.11421e-18)
(-2.52271e-17 -8.24131e-18 4.28581e-18)
(-7.11339e-17 -7.15358e-19 -7.90707e-18)
(-8.29926e-17 -1.99327e-18 -3.79133e-18)
(-7.94281e-17 2.6126e-18 -5.34195e-18)
(-1.23937e-09 1.79662e-10 8.12789e-11)
(-1.23499e-09 1.79657e-10 -1.12897e-10)
(-1.0372e-09 1.79543e-10 -1.1577e-10)
(-1.18673e-09 1.94553e-10 -1.8249e-10)
(-1.28584e-09 1.70558e-10 2.3319e-10)
(-1.12525e-09 1.52006e-10 2.87491e-10)
(-1.25266e-09 1.64693e-10 3.33725e-10)
(-3.37434e-12 -1.39578e-12 -4.5277e-13)
(-3.05657e-12 -9.15132e-13 -1.80357e-13)
(-2.90034e-12 -8.43974e-13 -4.20018e-13)
(-3.04454e-12 -1.35287e-12 -3.95003e-13)
(-3.49698e-12 -1.53969e-12 -3.66302e-13)
(-2.98151e-12 -1.40336e-12 -3.5686e-13)
(-3.60826e-12 -2.18435e-12 -9.40227e-13)
(-0.000752585 -4.61186e-05 1.28541e-05)
(-0.000907605 2.31489e-05 -0.000100394)
(-0.00060666 2.43003e-05 0.000166672)
(-0.000709607 1.30352e-05 4.79765e-05)
(-0.000749575 -0.000132342 0.000100898)
(-0.000620862 -9.09224e-05 -0.000129234)
(-0.000648636 -0.000107378 -1.06159e-05)
(-1.25216e-09 -2.01013e-10 7.76375e-11)
(-9.18699e-10 -4.02066e-11 4.09644e-10)
(-1.12582e-09 -9.5294e-11 2.36946e-10)
(-1.46286e-09 -6.86179e-11 1.36951e-10)
(-1.50805e-09 -3.50308e-10 6.38288e-11)
(-1.06511e-09 -2.63461e-10 -2.6663e-10)
(-1.21157e-09 -2.9298e-10 -8.24081e-11)
(-2.02405e-17 -4.03733e-18 -1.61705e-18)
(-2.56255e-17 -1.1555e-18 -1.51871e-18)
(-1.75867e-17 -6.11503e-19 -9.14184e-18)
(-2.08756e-17 -6.95156e-19 -4.79962e-18)
(-2.68715e-17 -7.66763e-18 -4.88463e-18)
(-1.32943e-17 -5.83839e-18 6.63499e-18)
(-1.76539e-17 -7.25908e-18 2.20762e-18)
(-3.62984e-16 3.50218e-17 2.34623e-17)
(-3.90165e-16 2.71256e-17 -1.88063e-17)
(-3.68365e-16 4.27794e-17 -2.21091e-17)
(-3.86375e-16 5.53559e-17 -3.57326e-17)
(-3.47939e-16 -6.07834e-18 6.12074e-17)
(-2.8538e-16 7.3715e-18 6.35344e-17)
(-3.15611e-16 -2.68199e-18 5.02645e-17)
(-9.17224e-17 1.04449e-18 2.43124e-18)
(-1.01146e-16 3.34925e-18 3.01897e-19)
(-8.91206e-17 5.0835e-18 -4.23307e-18)
(-9.61171e-17 7.7136e-18 -4.5211e-18)
(-8.07336e-17 -8.28465e-18 8.61931e-18)
(-7.4269e-17 -5.95023e-18 8.86573e-18)
(-8.10729e-17 -1.42599e-18 4.34549e-18)
(-1.76285e-08 1.92854e-10 -6.29544e-10)
(-2.13209e-08 -4.98472e-09 2.34415e-09)
(-1.04334e-08 -3.6386e-09 7.42352e-09)
(-1.40205e-08 -3.20869e-09 3.19046e-09)
(-2.74448e-08 4.52383e-09 -3.71153e-09)
(-1.33713e-08 3.58645e-09 -8.41477e-09)
(-1.78016e-08 3.80201e-09 -4.81295e-09)
(-2.08775e-10 -4.12914e-11 -2.67055e-11)
(-1.92864e-10 -4.37258e-11 -4.05884e-11)
(-1.71871e-10 -4.98041e-11 -4.57858e-11)
(-1.90307e-10 -7.66898e-11 -5.20215e-11)
(-2.0811e-10 -3.39189e-11 2.96185e-12)
(-1.92108e-10 -2.24724e-11 1.73385e-12)
(-2.08085e-10 -2.44119e-11 8.26575e-12)
(-1.28717e-07 1.52896e-08 2.78989e-09)
(-1.32111e-07 1.72474e-08 -9.81868e-09)
(-8.237e-18 -9.93443e-19 3.30325e-18)
(-5.02353e-18 5.57123e-19 6.26301e-19)
(-1.55547e-17 1.94003e-18 2.88396e-18)
(-6.74413e-18 3.43963e-19 3.66582e-18)
(-5.21554e-18 2.64782e-18 -2.33664e-18)
(-3.47117e-18 7.41303e-19 -7.19253e-19)
(-1.47511e-17 3.15374e-18 -7.28354e-20)
(-5.15442e-18 1.57462e-18 -3.26027e-18)
(-0.00296662 0.000135243 -0.00139358)
(-0.00438551 0.000329977 -0.00102051)
(-0.00309353 -3.6618e-05 -0.000663713)
(-0.00277962 0.000757242 -0.00157058)
(-8.24344e-18 2.49652e-19 -1.84184e-18)
(-5.20366e-18 -4.98309e-19 -6.42144e-19)
(-1.47046e-17 2.37387e-18 -8.39233e-19)
(-6.91183e-18 -2.75049e-19 -3.11545e-18)
(-0.00318198 0.000378564 0.00105424)
(-0.00395479 -0.000115389 0.000814438)
(-0.00320163 0.000244976 0.000351584)
(-0.00243274 -0.000288493 0.00128175)
(-5.68288e-18 7.29283e-19 3.16373e-18)
(-4.11408e-18 6.11692e-19 8.16566e-19)
(-1.3035e-17 2.96051e-18 2.2131e-18)
(-5.05022e-18 9.51043e-19 3.67374e-18)
(-6.58921e-18 3.14749e-19 -2.85056e-18)
(-4.4873e-18 -3.07655e-19 -1.5069e-18)
(-1.44158e-17 5.47087e-19 -4.86275e-19)
(-5.99303e-18 9.44009e-20 -3.11525e-18)
(-6.30183e-18 -4.74686e-19 1.52264e-18)
(-4.08512e-18 2.60868e-19 3.12698e-19)
(-1.33845e-17 4.52446e-19 1.90116e-18)
(-5.47978e-18 1.02476e-19 2.46921e-18)
(-0.0025601 0.000321574 -0.00104342)
(-0.00426498 0.000435437 -0.000783587)
(-0.00248302 6.55422e-05 -0.000448612)
(-0.00233519 0.000885405 -0.00133053)
(-0.00251706 -4.86703e-05 0.000864276)
(-0.00402333 -0.000329622 0.000839589)
(-0.00247609 7.57187e-05 0.000496186)
(-0.00211525 -0.000486459 0.00122378)
(-0.00296225 -0.000180139 0.00140211)
(-0.00404831 0.000198579 0.000887341)
(-0.00296281 -5.18591e-05 0.000758329)
(-0.00291411 0.000631686 0.0016404)
(-0.00323616 -0.000193257 -0.0014172)
(-0.00407628 -0.000430323 -0.00119492)
(-0.00327879 3.83274e-05 -0.000497047)
(-0.00242293 -0.000885865 -0.00171281)
(-0.00181388 -0.000260627 0.00057489)
(-0.00180995 -0.000141738 0.000268668)
(-0.00274934 4.6051e-05 0.000226127)
(-0.00156332 8.96914e-05 0.00067859)
(-0.00255747 5.61885e-05 -0.0007126)
(-0.00226747 9.83444e-05 -0.000310125)
(-0.00319829 0.000252876 -0.000614594)
(-0.00197818 -8.32681e-05 -0.000905457)
(-1.62139e-16 1.20875e-17 -9.58536e-17)
(-2.71427e-16 6.2581e-19 -3.31243e-17)
(-1.11933e-16 6.03043e-18 -4.22978e-17)
(-1.26335e-16 1.47313e-18 -8.03879e-17)
(-1.12845e-16 -2.26668e-17 4.65015e-17)
(-2.41125e-16 -7.32931e-18 4.51943e-17)
(-9.42151e-17 1.53157e-18 1.62059e-17)
(-9.81284e-17 -1.15841e-17 4.92889e-17)
(-0.00226021 0.000123073 0.000846537)
(-0.0031485 -7.03205e-05 0.000476365)
(-0.0021937 -0.000103267 0.000349962)
(-0.00193271 0.000214512 0.000827323)
(-1.50415e-16 -1.64458e-18 -6.7812e-17)
(-3.00371e-16 -3.57986e-17 -5.26101e-17)
(-1.0523e-16 1.64556e-17 -1.08194e-17)
(-1.25121e-16 3.08484e-18 -7.03648e-17)
(-1.2862e-16 3.55298e-18 1.03758e-16)
(-2.90351e-16 -4.10118e-17 3.11192e-17)
(-1.01834e-16 6.43514e-18 5.81733e-17)
(-1.10717e-16 -2.08624e-18 8.68661e-17)
(-1.0975e-16 -2.3725e-17 -4.00539e-17)
(-7.9876e-17 -1.86971e-17 -1.376e-17)
(-1.47541e-16 -2.82067e-17 -1.45258e-17)
(-8.32399e-17 -2.34313e-17 -3.88806e-17)
(-0.00183232 -4.22705e-05 -0.000400965)
(-0.00265127 -0.000204382 -0.000263682)
(-0.00173469 -0.000132906 -0.000307515)
(-0.00156952 5.40583e-05 -0.000527475)
(-0.000831254 0.000183531 2.94612e-05)
(-0.000520515 0.000156844 9.63625e-06)
(-0.00105323 0.00016906 0.000128869)
(-0.000521917 0.000159331 0.000204061)
(-0.000191368 2.56582e-06 -5.30313e-05)
(-0.00011944 1.1112e-05 -4.24303e-05)
(-0.000266428 -7.62511e-06 -8.64078e-05)
(-0.000144047 5.72301e-06 -6.85363e-05)
(-2.32936e-13 -5.16254e-14 -1.0199e-13)
(-3.05619e-13 -9.09442e-14 -5.97496e-14)
(-1.64139e-13 -4.02937e-14 -3.08758e-14)
(-1.71536e-13 -4.74291e-14 -8.95063e-14)
(-4.19505e-05 7.34382e-06 -1.3603e-05)
(-2.99677e-05 5.42445e-06 -3.12359e-06)
(-5.08088e-05 9.98474e-06 -9.8046e-06)
(-2.96297e-05 6.05302e-06 -1.34434e-05)
(-0.000839414 -0.000128979 0.000168047)
(-0.00129001 -0.000191219 0.00011949)
(-0.000748037 -0.000122634 8.63259e-05)
(-0.000607855 -7.59879e-05 0.000248429)
(-1.54639e-15 5.88652e-17 -6.09525e-16)
(-1.86603e-15 3.7029e-16 -9.22375e-16)
(-3.48779e-15 3.11225e-16 3.20208e-16)
(-1.67629e-15 2.58797e-16 -1.03329e-15)
(-1.5131e-15 -1.51197e-16 3.30816e-16)
(-2.53992e-15 -7.72229e-16 2.30847e-16)
(-7.31288e-16 -5.41589e-17 2.28509e-16)
(-1.08532e-15 -2.26504e-16 4.32399e-16)
(-5.63296e-14 2.16379e-16 3.99798e-14)
(-7.10153e-14 -1.69679e-14 1.994e-14)
(-3.86352e-14 -4.5098e-16 1.6593e-14)
(-3.837e-14 -8.22906e-16 2.70135e-14)
(-6.40167e-14 4.56249e-15 -2.45443e-15)
(-2.32136e-14 1.48337e-15 -4.87639e-15)
(-2.84758e-14 3.79141e-15 -6.26106e-15)
(-2.49567e-14 1.72958e-15 -9.81871e-15)
(-0.000381318 5.42474e-05 -0.000147423)
(-0.00030276 4.0649e-05 -4.82085e-05)
(-0.000507407 5.42179e-05 -4.88543e-05)
(-0.000290633 4.2417e-05 -0.000140101)
(-2.09452e-14 -4.84642e-15 1.64441e-15)
(-2.27605e-14 -4.25778e-15 2.1074e-15)
(-1.3404e-14 -5.27541e-15 1.0135e-15)
(-1.43951e-14 -4.4132e-15 3.44609e-15)
(-1.26123e-13 -2.35479e-14 6.71284e-14)
(-2.56098e-13 -6.6071e-14 3.09068e-14)
(-1.17592e-13 -1.53148e-14 4.17805e-14)
(-1.10293e-13 -2.187e-14 6.97169e-14)
(-0.00016738 -1.42155e-05 -3.64003e-05)
(-9.73646e-05 3.93314e-06 -2.47178e-05)
(-0.000269276 -2.75147e-05 -7.12767e-05)
(-0.00011909 -1.18175e-05 -6.17437e-05)
(-2.14902e-14 -2.39446e-15 3.04156e-15)
(-1.58125e-14 -3.02102e-16 4.25512e-15)
(-3.40467e-14 -5.52245e-15 4.80489e-15)
(-1.39836e-14 -1.13717e-15 5.07279e-15)
(-3.41436e-14 -1.07767e-15 -1.74744e-14)
(-6.54296e-14 -1.6301e-14 -7.64558e-15)
(-3.13261e-14 2.02597e-15 -8.19777e-15)
(-3.15838e-14 -3.89071e-15 -1.86389e-14)
(-1.88518e-05 -1.36742e-07 1.06948e-05)
(-3.39353e-05 -4.0093e-06 6.86083e-06)
(-1.53843e-05 -1.35069e-06 4.88252e-06)
(-1.42849e-05 -7.42036e-07 1.10228e-05)
(-5.24313e-06 7.37874e-07 1.17074e-06)
(-6.08702e-06 -1.11522e-07 2.06899e-06)
(-2.33426e-06 6.92942e-07 -4.09223e-07)
(-2.66397e-06 6.05307e-07 1.80298e-06)
(-7.45642e-06 1.27444e-06 -3.0889e-06)
(-4.6574e-06 9.16822e-07 -1.00924e-06)
(-8.31683e-06 1.94187e-06 -1.33263e-06)
(-4.95788e-06 1.24124e-06 -2.43176e-06)
(-8.83721e-13 -1.44906e-13 -3.08994e-13)
(-1.15935e-12 -2.43395e-13 -4.18658e-13)
(-4.51662e-13 -1.6136e-13 -1.5037e-13)
(-6.05621e-13 -1.5838e-13 -3.45867e-13)
(-8.25925e-13 -2.63136e-14 3.98954e-13)
(-1.11395e-12 -1.34709e-13 2.60545e-13)
(-6.06857e-13 -3.6517e-14 1.52173e-13)
(-6.10358e-13 -3.51677e-14 3.3734e-13)
(-1.57906e-06 -6.53809e-08 -8.23927e-07)
(-3.25502e-06 -1.49663e-07 -5.62683e-07)
(-1.42157e-06 -2.7596e-09 -4.01652e-07)
(-1.12698e-06 4.17362e-08 -9.44524e-07)
(-4.09267e-13 -3.85198e-14 1.84485e-13)
(-5.40445e-13 -1.02796e-13 1.21004e-13)
(-2.97158e-13 -3.36295e-14 6.49863e-14)
(-3.0097e-13 -3.54801e-14 1.53848e-13)
(-0.000290613 -1.31853e-05 0.000135304)
(-0.000259396 -1.34599e-05 6.69591e-05)
(-0.000456984 6.5632e-06 9.62871e-05)
(-0.000225223 -8.60682e-06 0.000139891)
(-3.90497e-05 -7.32894e-06 -1.88385e-05)
(-6.25201e-05 -2.30187e-06 -2.35791e-05)
(-3.75719e-05 -8.55286e-06 -5.77814e-06)
(-2.85459e-05 -5.98405e-06 -2.14029e-05)
(-0.000165508 -7.41009e-06 -9.39517e-05)
(-0.000282701 -2.57264e-05 -6.8323e-05)
(-0.00015755 -8.67295e-06 -5.30056e-05)
(-0.000134931 -1.02855e-05 -0.000100678)
(-1.8841e-14 -2.34257e-15 -2.40564e-15)
(-9.20308e-15 -2.85855e-15 -2.93644e-15)
(-8.91182e-15 -1.86137e-15 -4.39059e-15)
(-8.58134e-15 -1.86911e-15 -5.36112e-15)
(-6.34031e-16 -9.42944e-17 -2.38685e-16)
(-1.31082e-15 -1.9967e-16 -1.02097e-16)
(-5.78121e-16 -1.29818e-17 -1.80186e-16)
(-5.44422e-16 -5.55905e-17 -2.74269e-16)
(-4.94303e-09 3.5608e-10 -2.38565e-09)
(-3.48754e-09 5.01676e-10 -1.07291e-09)
(-8.19555e-09 8.06865e-10 -1.11546e-09)
(-3.75517e-09 5.54131e-10 -2.2407e-09)
(-3.96281e-09 -6.2174e-12 1.04255e-09)
(-3.17291e-09 -3.3757e-11 3.07739e-10)
(-7.48204e-09 3.11662e-10 8.05478e-10)
(-3.23033e-09 -3.6883e-11 1.4737e-09)
(-5.28737e-13 -3.99414e-14 -2.77284e-13)
(-1.05441e-12 -1.18515e-13 -9.8213e-14)
(-4.99294e-13 -2.82603e-15 -1.53258e-13)
(-4.94936e-13 -4.45557e-14 -2.89958e-13)
(-3.31469e-06 -1.90063e-07 1.37893e-06)
(-3.07647e-06 -1.0741e-07 6.99074e-07)
(-6.74429e-06 8.78069e-07 7.98081e-07)
(-2.86891e-06 -6.37585e-08 1.6479e-06)
(-2.40212e-13 -1.49584e-14 -1.27844e-13)
(-4.99535e-13 -8.30628e-14 -4.21305e-14)
(-2.32591e-13 -3.41392e-15 -7.68141e-14)
(-2.30312e-13 -2.93124e-14 -1.42757e-13)
(-4.61168e-09 1.12238e-09 2.67264e-10)
(-1.5895e-09 8.79393e-10 -8.12589e-10)
(-5.27023e-09 1.01925e-10 2.38378e-09)
(-2.03405e-09 5.70352e-10 7.4533e-10)
(-2.78394e-09 2.84339e-10 7.78869e-10)
(-1.10596e-09 4.757e-10 -9.19853e-10)
(-4.61456e-09 -9.26869e-11 2.29704e-09)
(-1.47729e-09 1.34166e-10 1.22128e-09)
(-5.14127e-11 -5.14558e-12 1.29809e-11)
(-5.56184e-11 -6.80032e-12 2.26891e-11)
(-5.49714e-11 -6.06702e-12 3.19011e-11)
(-2.98201e-10 -3.27568e-11 -1.34626e-10)
(-1.68316e-10 -5.86323e-11 -7.80102e-11)
(-4.25959e-10 1.85976e-11 -1.58576e-10)
(-2.18008e-10 -3.02119e-11 -1.62707e-10)
(-1.36736e-10 -2.87341e-11 -3.67849e-11)
(-4.07776e-10 5.35402e-11 -1.17869e-10)
(-2.29677e-10 2.41862e-11 -6.14159e-11)
(-1.77481e-10 2.06497e-11 -8.96117e-11)
(-6.18761e-11 -5.84026e-12 -1.02276e-11)
(-7.97767e-11 -4.94298e-12 -2.19957e-11)
(-6.99244e-11 -6.50571e-12 -3.02861e-11)
(-4.80254e-09 -1.83241e-09 -1.31183e-09)
(-1.46098e-08 -2.21045e-09 -3.98549e-10)
(-5.273e-09 -2.23602e-09 -2.54811e-09)