/*--------------------------------*- C++ -*----------------------------------*\
  =========                 |
  \\      /  F ield         | OpenFOAM: The Open Source CFD Toolbox
   \\    /   O peration     | Website:  https://openfoam.org
    \\  /    A nd           | Version:  6
     \\/     M anipulation  |
\*---------------------------------------------------------------------------*/
FoamFile
{
    version     2.0;
    format      ascii;
    class       surfaceVectorField;
    location    "1.17";
    object      rhoUf;
}
// * * * * * * * * * * * * * * * * * * * * * * * * * * * * * * * * * * * * * //

dimensions      [1 -2 -1 0 0 0 0];

internalField   nonuniform List<vector> 
11670
(
(-0.000106777 -2.67949e-06 0.00012116)
(-9.71219e-05 -2.31898e-05 3.80178e-05)
(-0.000197107 -4.85457e-05 0.000177907)
(-0.000103654 -3.24839e-05 0.00015076)
(-1.6033e-09 6.45e-08 1.53193e-07)
(2.53334e-08 -5.33129e-08 9.17877e-08)
(9.61402e-08 -6.02936e-08 6.54662e-08)
(5.64823e-08 1.11456e-08 8.57174e-08)
(-0.000183543 -1.96637e-05 -0.000204155)
(-0.000149311 -6.16191e-05 -6.32218e-05)
(-0.000292948 -9.18883e-05 -0.000256583)
(-0.000154254 -3.7674e-05 -0.00018378)
(-1.07459e-06 3.91895e-07 1.89301e-06)
(-6.7423e-07 2.18184e-07 8.30671e-07)
(-1.1092e-06 -6.36586e-07 1.32351e-06)
(-8.55393e-07 1.31142e-07 9.87959e-07)
(-4.03721e-05 3.37874e-06 -1.03256e-06)
(-3.1726e-05 2.69807e-06 -5.03474e-06)
(-3.64139e-05 1.94324e-06 3.21155e-06)
(-5.07666e-05 2.57226e-06 1.60624e-06)
(6.08535e-08 -6.23419e-08 -5.28294e-08)
(7.07494e-08 -5.28112e-08 -8.8735e-08)
(1.92267e-08 -7.16354e-08 -6.24379e-08)
(9.14967e-08 -1.08543e-07 -6.46857e-08)
(1.13903e-07 1.37338e-07 -4.87621e-07)
(3.58819e-08 2.72857e-07 -2.76151e-07)
(1.5973e-07 -3.17654e-07 -2.9477e-07)
(1.90071e-07 1.50625e-07 -1.52987e-07)
(-2.51886e-07 4.69535e-08 5.52956e-07)
(1.16075e-07 -5.74922e-08 2.25693e-07)
(-2.61798e-08 -1.76292e-07 1.58661e-07)
(-1.4928e-08 -4.59774e-08 1.79539e-07)
(-3.45169e-07 1.06677e-07 -4.41473e-07)
(-1.74207e-07 -1.35339e-07 -4.16749e-07)
(3.99286e-07 -4.25211e-07 -1.18363e-07)
(-3.13071e-08 -4.01152e-08 -6.24567e-08)
(3.01285e-07 -3.55266e-07 4.3565e-07)
(1.13835e-07 9.97981e-09 3.25946e-07)
(-2.62423e-08 5.39839e-08 1.91409e-07)
(9.11325e-08 -1.55906e-07 1.87826e-07)
(7.88623e-07 -4.92013e-07 2.73085e-07)
(2.76144e-07 2.81206e-07 1.04266e-06)
(-1.17374e-08 4.46717e-07 1.41793e-06)
(1.89539e-07 -2.84265e-07 1.92257e-06)
(-4.99689e-05 -3.77997e-05 2.4082e-05)
(-2.95613e-06 -3.77017e-06 1.01851e-05)
(-6.39801e-06 -3.56139e-06 1.5251e-05)
(-7.52464e-06 -5.03157e-06 3.34129e-05)
(-7.61677e-08 2.83701e-08 -5.34961e-08)
(-3.69634e-08 3.89711e-08 -5.34572e-08)
(-1.31243e-08 2.19799e-08 -5.00437e-08)
(-3.09352e-08 3.76146e-08 -4.81051e-08)
(-5.30361e-08 7.62655e-09 6.82695e-08)
(-2.61904e-07 2.13178e-07 1.68175e-08)
(-1.43263e-07 1.82502e-07 -3.153e-08)
(-1.63424e-07 1.13073e-07 -1.13143e-08)
(-2.05678e-05 -8.27252e-06 -2.82112e-05)
(-6.63342e-05 -3.16024e-05 -4.02551e-05)
(-2.10238e-05 -1.01936e-05 -3.67646e-05)
(-1.45234e-05 -9.42573e-06 -2.24287e-05)
(1.03457e-07 -9.09933e-08 -2.87251e-08)
(1.17452e-08 5.60721e-08 2.79943e-08)
(4.87821e-08 -3.16135e-08 -1.84981e-08)
(5.03983e-08 -4.43462e-08 -5.34056e-09)
(-0.00121159 0.00101667 -0.00078474)
(-0.000448997 0.000281257 6.14142e-05)
(-0.000421102 0.000594301 -0.000463122)
(-0.000388891 0.000606214 -0.000360642)
(-0.00139233 -0.00120487 0.000809096)
(-0.000432298 -0.000300338 -3.32522e-05)
(-0.000414286 -0.000548195 0.000354033)
(-0.000435154 -0.000570226 0.000539779)
(-3.76191e-07 2.14694e-07 -1.96363e-07)
(-4.15072e-07 2.23544e-07 -9.90277e-08)
(-5.10714e-07 3.8309e-07 -3.23664e-07)
(-4.4466e-07 3.38782e-07 -2.31526e-07)
(4.8419e-08 -3.09562e-08 -1.81427e-09)
(1.51672e-08 5.49157e-08 -9.37345e-09)
(-2.82879e-08 3.25393e-08 -2.67896e-08)
(-3.66014e-08 2.55943e-08 -1.92646e-08)
(-0.00072309 -0.000241444 -2.99113e-05)
(-0.00154994 -0.000410968 -0.00112588)
(-0.000604226 -0.000522987 -0.000605994)
(-0.000504902 -0.000513923 -0.00044017)
(-3.24454e-08 2.27566e-08 2.12962e-08)
(-6.52241e-08 4.47552e-08 -2.66221e-09)
(-5.28068e-08 3.18036e-08 2.37015e-08)
(-4.82385e-08 2.70367e-08 3.38872e-08)
(-0.000545912 0.00018555 0.000132656)
(-0.00143569 0.000550182 0.00124641)
(-0.000398981 0.000632542 0.000382682)
(-0.000432323 0.000468698 0.000546543)
(-5.0035e-05 4.37902e-05 -2.3287e-05)
(-2.15662e-06 -6.24768e-06 -9.96655e-06)
(-9.68176e-06 3.92463e-06 -2.84137e-05)
(-8.44221e-06 9.26711e-06 -1.495e-05)
(-2.38692e-09 -2.81303e-09 -8.01534e-09)
(-2.17903e-09 -3.85316e-08 -2.18892e-08)
(3.36994e-09 -3.29543e-08 -3.70629e-08)
(-2.523e-09 -1.53594e-08 -3.31395e-08)
(4.31253e-09 -1.52218e-07 8.15526e-10)
(5.97534e-08 -1.41109e-07 3.54171e-08)
(6.38893e-08 -1.44269e-07 -2.76076e-08)
(1.53045e-07 -2.11492e-07 3.91962e-08)
(-2.17314e-05 -2.7153e-07 2.14399e-05)
(-7.35761e-05 5.57101e-05 3.76451e-05)
(-1.7539e-05 1.91583e-05 1.71958e-05)
(-2.33991e-05 1.14588e-05 3.0189e-05)
(3.3931e-07 -3.96227e-08 -3.44242e-07)
(-3.17459e-08 1.84995e-07 -2.45463e-07)
(1.99961e-07 3.38567e-08 -2.96208e-07)
(1.76506e-07 7.93357e-08 -2.65278e-07)
(-2.16686e-07 4.17454e-07 -5.70835e-08)
(-2.53362e-06 -1.81351e-06 1.59087e-06)
(-3.76252e-07 -9.35513e-08 6.2513e-07)
(-4.30857e-07 -9.58561e-08 1.04366e-06)
(-2.83269e-07 2.28153e-07 -1.55055e-07)
(-3.10478e-07 3.05339e-07 -3.57858e-07)
(-3.41706e-07 4.61572e-07 -3.16285e-07)
(-3.59217e-07 2.58161e-07 -3.52517e-07)
(1.36239e-08 -1.74557e-08 1.08743e-08)
(-6.18119e-08 -3.08282e-08 -5.18498e-08)
(-2.5589e-08 -4.67047e-09 -5.10664e-09)
(-3.54014e-08 7.63701e-09 -9.42315e-09)
(3.81734e-07 -1.35821e-07 -2.4097e-08)
(2.56019e-07 1.30782e-07 9.45667e-09)
(2.84874e-07 -8.69964e-08 -7.07344e-08)
(2.41759e-07 -1.71062e-08 -2.43743e-08)
(-5.06136e-08 1.44006e-07 -4.31443e-08)
(1.6341e-07 4.5876e-08 7.92578e-08)
(4.01938e-08 9.90225e-08 -2.01178e-08)
(-5.08787e-08 1.64238e-07 6.68393e-08)
(-1.72865e-09 -3.03182e-08 -1.36955e-08)
(-3.7113e-08 -1.79064e-09 -1.00679e-08)
(-3.22611e-08 -1.11085e-08 4.41985e-08)
(-2.35309e-08 -2.49393e-08 4.72529e-08)
(-5.40392e-08 5.36881e-08 7.01322e-08)
(-4.8652e-08 4.24935e-08 2.41853e-08)
(-3.61698e-09 8.05092e-09 2.40324e-08)
(-1.08999e-08 4.56465e-08 2.34609e-08)
(6.59344e-08 2.12205e-07 2.64312e-07)
(4.12044e-08 1.70886e-07 6.72471e-08)
(2.60703e-08 5.45368e-08 1.72235e-07)
(-2.99131e-08 1.7114e-07 2.13676e-07)
(3.74816e-07 -2.38828e-07 -4.40154e-08)
(1.41527e-07 9.83505e-10 -6.2527e-08)
(1.79959e-07 -1.47696e-07 -1.89272e-07)
(1.46018e-07 -1.49039e-07 -1.16354e-07)
(4.82381e-08 1.2628e-07 -1.98443e-07)
(1.31839e-07 -1.23519e-07 -1.17088e-07)
(1.03142e-07 -2.82985e-08 -1.60813e-07)
(7.08779e-08 -2.37503e-08 -1.78619e-07)
(-4.91756e-08 3.63803e-08 5.56226e-08)
(3.94705e-08 -8.38631e-09 4.89704e-08)
(-5.68412e-09 4.09949e-08 5.05936e-08)
(-4.74621e-09 1.62403e-08 4.05512e-08)
(-4.00568e-09 3.24079e-08 -7.24023e-08)
(2.43895e-08 3.68625e-08 -4.05248e-09)
(3.87341e-08 -2.3313e-08 -3.83265e-08)
(4.48816e-08 7.67956e-09 -6.82657e-08)
(9.98874e-07 -5.78376e-07 -1.05183e-07)
(7.60645e-07 -4.57277e-07 -2.85829e-07)
(1.03887e-06 -8.01204e-07 -4.841e-07)
(8.98145e-07 -7.45026e-07 -3.6845e-07)
(-1.01339e-09 -2.35044e-09 1.13236e-07)
(1.15279e-08 1.95342e-08 -2.24307e-08)
(2.85992e-08 -5.90706e-09 7.43824e-08)
(2.4843e-08 -3.87616e-08 5.81102e-08)
(-3.81033e-08 2.35017e-07 1.85673e-07)
(2.8791e-08 2.53982e-07 5.91383e-08)
(-8.59628e-08 2.03509e-07 5.62389e-08)
(-1.57821e-07 2.89058e-07 1.45137e-07)
(-6.79585e-08 1.06502e-07 -8.00588e-08)
(-5.06443e-08 8.28845e-08 -4.395e-08)
(-6.36571e-08 5.96744e-08 -6.18106e-08)
(-8.127e-08 1.06045e-07 -6.97772e-08)
(3.28807e-08 -3.69348e-08 4.37496e-08)
(-7.71657e-08 1.02965e-07 -3.99788e-08)
(-4.40386e-08 9.03311e-08 -3.02948e-08)
(-4.98291e-08 5.66045e-08 -2.94124e-08)
(-7.7656e-08 2.88777e-08 -2.47974e-08)
(-9.22006e-08 8.94175e-08 -5.13394e-08)
(-6.25457e-08 3.67579e-08 -2.56597e-08)
(-4.79193e-08 3.36389e-08 -1.25584e-08)
(7.02022e-09 -3.9116e-08 -7.00998e-11)
(-4.73136e-08 9.30333e-08 -2.42299e-08)
(-1.90307e-08 3.37486e-08 2.34212e-09)
(-2.16595e-08 3.97427e-08 -1.17587e-08)
(-2.09087e-07 1.63435e-07 6.79268e-09)
(-1.68068e-07 1.4743e-07 3.05551e-08)
(-1.14374e-07 1.26432e-07 2.22962e-08)
(-1.80854e-07 1.81725e-07 3.03459e-08)
(-2.83674e-07 1.25867e-07 -5.07433e-08)
(-2.85687e-07 2.0085e-07 -1.37041e-07)
(-3.6516e-07 2.69371e-07 -1.99222e-07)
(-3.14276e-07 2.39147e-07 -1.45353e-07)
(-2.47931e-08 -3.93838e-08 -2.41417e-08)
(-2.37898e-08 -2.47563e-08 -2.24679e-08)
(-3.86019e-09 -1.22496e-08 -3.31659e-08)
(-9.38168e-10 -2.80913e-08 -4.01275e-08)
(8.57628e-08 -1.46545e-07 6.67901e-08)
(3.24695e-09 -7.27809e-08 2.75041e-08)
(4.77734e-08 -9.36993e-08 9.96437e-09)
(9.78602e-08 -1.30213e-07 6.45376e-08)
(2.58466e-09 -2.42283e-08 5.37632e-08)
(-8.70954e-09 -4.68591e-08 -5.58676e-09)
(-2.46023e-09 -5.34173e-09 4.4274e-08)
(-7.49144e-09 1.64761e-08 4.01603e-08)
(1.03222e-08 -2.27387e-08 1.8433e-08)
(-1.67285e-08 -7.79837e-09 1.4621e-08)
(4.86339e-09 -1.68674e-08 8.7071e-09)
(5.40756e-09 -1.54375e-08 1.60873e-08)
(4.25663e-09 -3.90627e-09 -7.08784e-09)
(2.12367e-08 -2.29005e-08 -4.05729e-09)
(4.69258e-09 5.63777e-10 -1.12914e-08)
(1.43638e-09 4.58091e-09 -7.21687e-09)
(-3.82304e-09 -2.32441e-08 -6.74048e-09)
(-4.00028e-08 1.85121e-08 -1.87114e-09)
(-9.81156e-09 9.30455e-10 -1.24154e-09)
(-1.02512e-08 -1.90578e-09 -2.55741e-09)
(4.58712e-08 -4.95944e-08 -2.23344e-08)
(4.6663e-08 -1.02421e-08 1.0805e-07)
(1.15217e-07 -6.70995e-08 4.77763e-08)
(1.10202e-07 -5.77463e-08 6.30854e-08)
(7.45033e-08 -4.52559e-08 -4.81863e-08)
(1.56516e-08 -6.16149e-09 -7.35082e-09)
(1.07814e-07 -3.69441e-08 1.28819e-08)
(9.96912e-08 -6.4805e-08 2.62064e-08)
(-1.29769e-07 1.06193e-07 -8.3366e-08)
(-5.00318e-08 9.1297e-08 -1.25862e-08)
(-7.45303e-08 1.03395e-07 -8.03166e-08)
(-4.18764e-08 7.7837e-08 -5.72729e-08)
(-5.17355e-08 6.2577e-08 -4.02138e-08)
(-6.83676e-08 7.19164e-08 -4.02999e-08)
(-3.88783e-08 4.66806e-08 -3.38362e-08)
(-5.62499e-08 6.28333e-08 -4.45025e-08)
(-2.68596e-07 7.04643e-08 -5.55024e-08)
(-8.74797e-09 -1.1268e-07 2.18146e-09)
(-1.7938e-07 5.05332e-08 -1.0372e-07)
(-1.49343e-07 7.38734e-09 -5.87308e-08)
(-9.89396e-07 9.26647e-07 2.14827e-07)
(-8.3411e-08 -1.18161e-07 2.43324e-07)
(-1.50525e-07 1.74211e-07 2.62305e-07)
(-1.80141e-07 2.67263e-08 5.26645e-07)
(6.48249e-08 -8.07589e-08 8.24243e-08)
(-9.92479e-08 -1.00206e-07 1.26143e-07)
(-3.91737e-09 -8.28853e-08 5.13724e-08)
(4.35925e-08 -1.32496e-07 1.37296e-07)
(-3.42873e-07 -1.29886e-08 -3.47297e-07)
(-1.21064e-06 3.49503e-07 -6.18324e-07)
(-2.06928e-07 8.4207e-08 -4.34232e-07)
(-2.11992e-07 2.50431e-07 -2.26608e-07)
(-6.93728e-07 3.49812e-07 -1.3026e-07)
(-6.40189e-07 4.25915e-07 -3.11694e-07)
(-8.48975e-07 6.46979e-07 -4.93368e-07)
(-7.33576e-07 5.92365e-07 -3.67121e-07)
(1.64382e-07 -2.86968e-07 5.69892e-08)
(9.79084e-08 -2.02999e-07 -5.70043e-08)
(1.67523e-07 -2.48554e-07 -5.87453e-08)
(3.51391e-07 -3.77325e-07 3.49406e-08)
(-9.68944e-09 -6.5273e-09 6.86163e-08)
(4.51979e-08 -1.00546e-07 1.51816e-08)
(1.26364e-08 -4.05003e-08 3.65374e-08)
(-1.50205e-11 -7.77099e-09 2.95097e-08)
(8.25597e-08 -5.67618e-08 -9.27006e-09)
(-1.09057e-09 -6.93297e-09 3.03609e-10)
(3.47301e-08 -1.50346e-08 -1.28025e-08)
(3.17976e-08 -2.01738e-08 -2.02931e-08)
(-2.38093e-07 -2.31744e-07 5.10863e-07)
(-6.20309e-08 -4.69422e-08 3.04267e-07)
(-1.74488e-07 -1.25647e-07 2.4245e-07)
(-1.61792e-07 -8.96651e-08 2.78985e-07)
(9.06553e-08 -3.28891e-08 -4.25889e-08)
(-6.30894e-08 5.29294e-08 -2.13187e-08)
(4.45602e-08 -3.78442e-09 -4.06736e-08)
(4.28638e-08 -7.83374e-09 -5.64111e-08)
(-5.61985e-08 2.08738e-08 1.18566e-07)
(4.20993e-08 -5.27239e-08 -1.67778e-08)
(-9.45064e-09 -5.26896e-08 6.36228e-08)
(-8.98119e-09 -1.08707e-08 4.12093e-08)
(-2.11483e-08 -1.43056e-08 -8.68758e-08)
(-5.47371e-08 -2.79378e-08 6.62586e-09)
(-4.88716e-08 3.33465e-08 -3.03684e-08)
(-5.84851e-08 -1.54536e-08 -4.55109e-08)
(4.89601e-08 -3.86781e-08 2.68793e-08)
(-3.92337e-08 8.67401e-09 3.23572e-08)
(1.27654e-08 -2.54914e-08 2.49395e-08)
(1.0907e-08 -7.68914e-09 1.68225e-08)
(-4.05288e-07 3.1965e-08 2.523e-08)
(-1.80428e-07 -1.98654e-07 -7.90229e-08)
(-2.0599e-07 -7.07139e-08 -2.13158e-08)
(-2.48446e-07 1.95303e-08 3.65011e-08)
(1.21847e-08 -9.73812e-08 -9.77749e-08)
(-2.58258e-07 -1.22449e-07 -1.79636e-07)
(1.76695e-09 -1.36063e-07 -1.73043e-07)
(-6.9615e-08 -1.16793e-07 -6.11482e-08)
(-2.32144e-07 9.32225e-08 -1.03482e-07)
(1.15797e-07 -2.5376e-07 -5.79774e-08)
(-7.92424e-08 -6.59646e-08 -1.03845e-07)
(-5.11573e-08 -1.26776e-07 -6.45975e-08)
(8.85955e-08 -1.17021e-07 5.58482e-08)
(-5.56867e-08 -2.41923e-08 -5.87701e-11)
(-1.64927e-08 -9.04344e-08 2.34885e-09)
(4.45993e-08 -1.55904e-07 6.65114e-08)
(1.70304e-08 -5.49672e-09 -2.87776e-09)
(-1.708e-08 -3.16618e-09 4.12268e-08)
(1.74611e-08 9.03533e-09 -3.91452e-08)
(2.99709e-08 -1.82637e-08 -3.46745e-08)
(1.24646e-07 -1.28603e-07 -2.18227e-08)
(1.01792e-07 -1.14229e-07 -4.72306e-09)
(4.48216e-08 -7.3603e-08 -3.5268e-09)
(2.13466e-08 -2.46457e-08 -5.5831e-09)
(5.43001e-08 -6.76212e-09 -1.3343e-07)
(-7.34059e-08 8.45887e-08 -9.87756e-08)
(-9.02842e-08 9.28353e-08 -5.127e-08)
(-7.76132e-08 7.27575e-08 -5.73774e-08)
(-8.99848e-07 6.91269e-07 -2.49214e-07)
(-8.53849e-07 5.48905e-07 -6.11956e-07)
(-1.05513e-06 8.02101e-07 -4.25065e-07)
(-1.01955e-06 7.70533e-07 -3.82935e-07)
(5.16409e-07 -5.02622e-07 -7.66522e-08)
(3.29506e-07 -3.6151e-07 -4.08763e-07)
(3.7615e-07 -4.90386e-07 -2.525e-07)
(4.4001e-07 -3.11417e-07 -2.87571e-07)
(9.26623e-08 -7.36561e-08 -3.58102e-08)
(2.76295e-08 -2.67814e-08 -9.98725e-08)
(6.09253e-08 -2.07619e-08 -4.84569e-08)
(8.24743e-08 -3.06939e-08 -5.46651e-08)
(-7.95109e-08 2.94876e-08 8.43881e-08)
(1.07121e-07 -1.4114e-07 1.43346e-07)
(-7.98399e-08 9.09108e-08 1.58389e-07)
(-0.000299183 -5.6886e-06 -0.000229589)
(-0.000148291 -1.97675e-06 -7.76505e-05)
(-0.000173648 -7.45263e-06 -0.000223099)
(-0.000156249 -3.3434e-06 0.000123175)
(-6.77105e-05 4.86287e-06 4.49596e-05)
(-8.97688e-05 2.72494e-06 0.000119963)
(3.86465e-07 -4.38421e-07 -1.23212e-07)
(5.87272e-07 -3.90613e-07 -2.41109e-07)
(-8.5408e-08 3.66068e-08 -3.49585e-07)
(-1.17278e-05 9.67312e-07 2.0351e-07)
(-1.21293e-05 1.43148e-06 7.08363e-07)
(-1.93366e-05 1.27527e-06 6.76538e-07)
(1.06948e-08 -1.98383e-08 -1.78851e-08)
(-1.28303e-07 3.20518e-08 -2.52256e-08)
(1.57334e-08 -3.91562e-08 -3.59172e-08)
(-2.97138e-07 3.9672e-08 6.10219e-07)
(8.43884e-09 -1.7226e-07 3.28465e-07)
(-3.47416e-07 7.74885e-08 8.17353e-07)
(-1.58912e-06 -5.06324e-08 1.44964e-06)
(-2.3578e-07 7.92164e-08 7.67179e-07)
(-9.84811e-07 9.94304e-08 1.70135e-06)
(-2.92208e-07 -7.39642e-10 -5.31371e-07)
(-2.52565e-08 -2.25975e-08 -1.99391e-07)
(-5.50483e-07 1.84063e-07 -3.63734e-07)
(3.37083e-07 -1.625e-07 1.92053e-07)
(-9.33794e-08 2.18418e-07 3.25061e-07)
(5.28475e-07 -5.00824e-07 4.82879e-07)
(7.35155e-07 -2.13541e-07 -2.65684e-07)
(5.94474e-08 4.58421e-08 -1.02562e-07)
(8.40875e-07 -2.73694e-07 -2.32142e-07)
(-2.27294e-07 5.14521e-07 -3.37374e-07)
(-1.77065e-07 1.81582e-07 -4.89391e-07)
(-3.78379e-07 7.14775e-07 -8.15197e-08)
(-4.32991e-07 6.70464e-07 -3.08568e-07)
(-3.75706e-07 1.62621e-07 -1.48284e-07)
(-9.69984e-08 2.90819e-07 -2.91383e-07)
(-1.15734e-07 1.22496e-08 -1.62318e-07)
(1.20252e-08 4.66486e-08 -1.10371e-07)
(2.15853e-08 -3.78022e-08 8.50086e-09)
(4.8602e-08 -5.29697e-08 -2.73709e-08)
(3.73313e-08 -5.07226e-08 -2.15081e-08)
(4.28224e-08 -4.33827e-08 -2.00067e-08)
(-4.73881e-08 -9.4167e-09 1.07167e-07)
(-6.63818e-08 2.09787e-08 1.10982e-07)
(-3.54945e-08 3.28715e-08 1.18179e-07)
(-1.9371e-08 2.62634e-08 1.032e-07)
(-9.90282e-08 1.28195e-07 -1.93792e-07)
(-1.97408e-08 1.11503e-07 -7.80519e-08)
(-4.06039e-08 1.73397e-07 -1.19342e-07)
(-5.05961e-08 1.30184e-07 -3.66105e-08)
(-2.63557e-06 -7.01268e-07 -7.97725e-08)
(-2.73791e-06 -6.78993e-07 -1.07814e-06)
(-3.6831e-06 -1.33064e-06 -9.19471e-07)
(-2.64555e-06 -6.90638e-07 -6.50519e-07)
(1.80392e-07 -2.24926e-07 -4.67568e-07)
(-3.07205e-07 3.89932e-08 -7.08504e-07)
(-1.05918e-07 -7.87355e-09 -6.66453e-07)
(-4.26413e-07 -3.70179e-08 -4.32352e-07)
(-7.0905e-08 8.38562e-08 3.0093e-07)
(-7.92303e-08 1.00951e-07 1.32859e-08)
(-7.01769e-08 -1.56786e-07 -1.07521e-07)
(-1.43386e-08 -3.83637e-08 9.3513e-08)
(-5.52362e-07 6.83923e-08 2.04642e-07)
(-5.82789e-07 2.12587e-07 -5.91133e-08)
(-6.23509e-07 3.4133e-07 1.25745e-07)
(-9.12629e-08 -5.03672e-08 -1.45623e-08)
(-1.53459e-07 -8.55437e-08 -3.11509e-08)
(-1.8856e-07 -7.91035e-08 3.31177e-10)
(-1.89976e-07 -5.23032e-08 -3.50616e-08)
(9.60464e-09 -1.54763e-08 -8.48053e-09)
(4.50385e-09 3.20292e-08 -1.20965e-08)
(3.36631e-08 5.15225e-08 -4.00439e-08)
(3.31906e-08 6.17913e-08 -2.32695e-08)
(-2.43478e-05 -1.75121e-07 1.51391e-06)
(-3.26779e-05 -3.74199e-06 -3.09599e-06)
(-1.9692e-05 8.40974e-07 3.22341e-06)
(-1.84528e-05 -3.48342e-06 -1.03935e-06)
(4.17274e-08 -8.19962e-08 5.73677e-08)
(9.60983e-09 -1.00745e-07 2.88328e-08)
(3.26792e-08 -9.04868e-08 3.41887e-08)
(1.09997e-07 -1.09126e-07 8.09897e-08)
(1.25582e-07 -9.26181e-08 5.81669e-08)
(2.09422e-07 -1.4095e-07 7.67904e-08)
(2.94368e-08 5.58833e-09 3.87535e-08)
(-3.60512e-05 2.71521e-06 1.28685e-06)
(-2.30859e-05 -3.01804e-07 -4.97108e-06)
(-2.13443e-05 4.66687e-06 2.10944e-06)
(-1.3412e-08 2.05076e-08 -5.80096e-08)
(-4.57574e-08 1.16451e-08 -3.61481e-08)
(-3.88929e-08 3.64584e-08 -2.71885e-08)
(4.0357e-07 -3.12908e-07 -2.04483e-07)
(1.96852e-07 7.21221e-08 -1.2107e-07)
(8.1548e-08 -3.98406e-08 -1.95568e-07)
(-1.65373e-07 1.02265e-07 -1.67586e-07)
(-1.19174e-07 1.08013e-07 -1.59763e-07)
(-1.27315e-08 4.48669e-08 -1.6235e-07)
(-2.87828e-08 4.40066e-09 3.25135e-08)
(7.16451e-10 -2.47681e-08 2.23179e-08)
(1.45807e-08 -2.63957e-08 2.81289e-08)
(-2.41067e-06 -2.87191e-07 1.00375e-06)
(-3.03283e-06 -1.95773e-07 7.34033e-07)
(-3.16701e-06 -9.23114e-07 1.21233e-06)
(1.20695e-07 2.96761e-08 5.98091e-07)
(1.64726e-07 -3.55025e-08 4.30261e-07)
(2.39731e-07 -2.42696e-09 5.90601e-07)
(-1.34187e-08 -5.44484e-08 4.93189e-08)
(-4.72195e-08 -3.46413e-08 4.9082e-08)
(-4.33553e-08 -3.05474e-08 2.76423e-08)
(1.36948e-08 -4.71237e-08 1.42981e-08)
(-2.43166e-07 -8.23095e-08 6.26482e-09)
(-2.38836e-07 -2.63832e-08 -5.00344e-08)
(-1.38643e-07 -1.27019e-07 2.94591e-09)
(8.25547e-08 6.36055e-08 -4.29144e-08)
(6.10606e-08 3.94416e-08 -2.40586e-08)
(3.04007e-07 7.04532e-09 3.48897e-08)
(3.26363e-08 -7.32397e-08 -7.43703e-09)
(1.40307e-08 -8.03802e-08 -8.67575e-09)
(1.13255e-07 -8.58771e-08 -4.17558e-08)
(7.85211e-08 -7.903e-08 9.25399e-09)
(8.29107e-09 -7.79441e-08 1.89959e-08)
(3.47788e-08 -3.20655e-08 1.95761e-08)
(3.86501e-08 -6.05175e-09 5.28629e-08)
(-7.30869e-06 2.60615e-07 2.07373e-06)
(-1.89758e-05 -5.96181e-07 -5.58214e-06)
(-2.24863e-06 4.09625e-06 3.4153e-06)
(-9.71549e-06 6.85075e-07 3.05015e-07)
(-1.24928e-05 1.89478e-07 5.30767e-06)
(-3.83311e-06 -1.80416e-06 1.55669e-06)
(-8.03023e-06 -9.88482e-07 2.40591e-06)
(-1.43964e-08 -8.51149e-08 1.8615e-08)
(1.19436e-07 -7.84473e-08 -3.84493e-08)
(-2.35747e-08 2.16716e-08 -6.52399e-08)
(-8.51731e-08 4.25517e-08 -1.44148e-08)
(6.40934e-08 -2.68012e-07 8.98296e-08)
(1.30043e-07 -1.81823e-07 9.38893e-08)
(4.22232e-08 -1.6023e-07 8.44818e-08)
(3.28799e-07 -1.77812e-07 8.93477e-08)
(3.7217e-07 -3.48403e-07 -2.12355e-07)
(3.01115e-07 -2.4513e-07 3.32166e-07)
(2.73561e-07 -1.87699e-07 2.61418e-07)
(3.65999e-07 -2.10482e-07 4.94808e-08)
(7.55574e-07 -1.68296e-07 5.45216e-07)
(6.68526e-07 -2.26927e-07 -1.84933e-07)
(3.98055e-08 -3.0184e-09 -8.98022e-08)
(1.01499e-07 -2.79764e-08 -1.48127e-08)
(2.84281e-07 -1.49029e-07 -9.36371e-09)
(2.40906e-07 -3.98185e-08 -7.62926e-08)
(-8.70368e-08 1.37097e-07 -2.85601e-08)
(-8.6961e-08 4.35307e-08 1.15688e-07)
(-6.93921e-08 4.8415e-08 -8.99064e-08)
(3.16913e-08 -1.81388e-08 1.0105e-08)
(-6.09486e-08 -1.227e-08 -2.98267e-09)
(-5.64773e-08 -9.37749e-09 -4.0703e-08)
(-4.35313e-08 2.57053e-09 -6.28647e-08)
(9.94335e-08 -1.39816e-08 5.11989e-08)
(1.11711e-07 -4.58769e-08 8.97756e-09)
(1.67392e-07 -3.11149e-08 6.49404e-08)
(-6.41274e-07 1.33179e-07 -3.76433e-07)
(-4.6641e-07 9.71081e-08 -3.91291e-07)
(-1.12831e-06 2.47238e-07 -6.77655e-07)
(-9.42427e-07 2.56054e-07 -1.49776e-07)
(-7.6047e-07 5.10741e-07 1.25389e-07)
(-6.10632e-07 3.01701e-07 -1.53176e-07)
(-8.39364e-07 2.29133e-07 -2.16116e-07)
(-5.6745e-09 -4.90917e-08 2.24791e-08)
(1.32313e-08 -2.86108e-08 -8.82844e-09)
(1.11199e-08 -1.01616e-08 -1.0942e-08)
(-3.48377e-09 -1.75529e-08 -4.74454e-09)
(-7.94496e-09 -5.44958e-08 1.98119e-08)
(1.97791e-08 -5.26815e-08 3.66182e-08)
(-1.41745e-10 -4.83682e-08 1.8797e-08)
(-1.23962e-07 2.37045e-07 -3.09099e-07)
(7.93732e-08 3.29936e-07 -1.93468e-07)
(-2.32207e-07 1.9855e-08 1.67546e-07)
(9.42749e-08 -2.26627e-07 1.35431e-07)
(-3.4357e-07 7.14568e-08 2.6642e-07)
(-2.06456e-07 3.95389e-08 2.47153e-07)
(-1.6486e-07 -6.91274e-08 1.36574e-07)
(1.41983e-07 -3.17228e-07 1.31196e-08)
(-1.64369e-07 -4.44628e-08 1.70369e-07)
(-5.62807e-08 -9.53926e-08 7.45645e-08)
(-0.000787889 7.61977e-05 -0.000165214)
(-0.00205214 0.000341174 -0.00141024)
(-0.000930204 -1.10688e-05 0.000152184)
(-0.000809523 0.000222481 -0.000681793)
(9.44837e-09 4.94778e-08 1.2867e-07)
(1.0762e-07 -1.44066e-07 1.94783e-08)
(-2.03876e-08 4.01551e-08 4.14956e-08)
(8.3e-09 -1.10676e-08 8.97876e-08)
(-0.00102081 0.000292617 0.000493403)
(-0.00184747 -0.000302433 0.0016746)
(-0.00105455 -2.02274e-05 -0.00037845)
(-0.000711578 -0.000150431 0.000929841)
(-6.84494e-08 4.59294e-09 1.85164e-08)
(1.01565e-07 -1.2857e-07 1.76236e-08)
(-7.63044e-08 8.10617e-08 -2.90445e-08)
(-7.01922e-08 4.66691e-08 1.2082e-08)
(6.42661e-09 1.13333e-08 6.82436e-08)
(3.97601e-08 -7.26597e-08 1.4915e-08)
(6.21204e-09 1.73164e-09 2.82438e-08)
(1.26811e-08 -1.90458e-08 5.34376e-08)
(-3.53479e-08 1.25279e-08 -1.12417e-10)
(4.07957e-08 -4.56963e-08 8.1043e-09)
(-3.28193e-08 4.62339e-08 -2.32507e-08)
(-3.86755e-08 4.22444e-08 2.32974e-09)
(-0.000715523 -4.20909e-06 -0.000236104)
(-0.00179373 0.000319063 -0.00136589)
(-0.000851641 3.77083e-06 0.000224831)
(-0.000707674 0.00021378 -0.000645211)
(-0.000727382 0.000104832 0.000241686)
(-0.00162683 -0.000388242 0.00148408)
(-0.000854211 4.48157e-06 -0.000200765)
(-0.000635801 -0.000147345 0.000693659)
(-0.00109343 0.000244404 9.74277e-05)
(-0.00226776 0.000226439 0.00149905)
(-0.00108576 4.79707e-05 -0.000218876)
(-0.00102131 0.000339997 0.000683236)
(-0.00109621 0.00041385 -0.000395487)
(-0.00191898 -0.000353019 -0.00143263)
(-0.0011531 5.86128e-05 0.000321208)
(-0.000776145 -9.93025e-05 -0.000930776)
(-0.000203949 2.48189e-06 0.000149148)
(-0.000185299 5.20832e-06 3.64021e-05)
(-0.000473175 9.2506e-06 0.000241951)
(-0.000169647 6.7974e-07 0.000204804)
(-0.000247466 5.42729e-05 -0.000187611)
(-0.000222846 5.65612e-06 -6.46637e-06)
(-0.000484524 -4.11233e-05 -0.000227858)
(-0.000203534 1.79915e-05 -0.000231724)
(2.67196e-07 -2.4247e-07 -1.75609e-07)
(2.31419e-08 -2.18609e-08 2.59882e-08)
(2.99111e-09 -3.99928e-08 -7.6697e-08)
(2.81798e-07 -2.01029e-07 -1.19106e-07)
(-4.22724e-07 4.66916e-07 5.56701e-07)
(-5.79946e-07 2.88515e-07 6.21903e-07)
(-5.04495e-07 2.87913e-07 4.13303e-07)
(-3.29652e-07 2.10267e-07 7.84105e-07)
(-0.000177933 -1.74101e-05 0.000152744)
(-0.000372244 1.71587e-05 0.000181354)
(-0.000187171 -1.54957e-05 4.09797e-05)
(-0.000145663 -1.55203e-05 0.000185304)
(4.29814e-07 -2.10663e-07 -7.89574e-08)
(-5.7404e-08 1.14891e-07 -8.76557e-08)
(-5.83844e-08 1.24534e-07 -1.22555e-07)
(3.57289e-07 -1.53354e-07 -1.05503e-07)
(-2.6942e-07 3.54905e-07 -6.12267e-07)
(-2.82195e-07 2.24678e-07 -4.15686e-07)
(-4.29745e-07 2.3803e-07 -4.89387e-07)
(5.10923e-08 -2.11484e-08 -6.44909e-07)
(1.50864e-08 -3.31395e-08 -1.813e-08)
(-4.08702e-08 1.72061e-08 -1.02904e-07)
(1.35821e-07 -2.18928e-07 -9.9826e-08)
(4.5714e-09 -7.65224e-09 -6.1122e-08)
(-9.25153e-05 -1.77599e-06 -8.68172e-05)
(-0.000196981 1.01076e-05 -0.000106642)
(-8.24437e-05 3.02962e-06 -2.89538e-05)
(-7.9176e-05 7.20665e-07 -0.000106083)
(-2.30145e-05 -3.12055e-06 1.24769e-05)
(-1.62165e-05 9.36546e-07 -1.11831e-06)
(-4.05115e-05 -4.25747e-06 1.46663e-05)
(-1.54386e-05 -2.66217e-07 1.55384e-05)
(-2.18817e-06 9.47557e-07 -1.09646e-06)
(-2.32283e-06 1.37252e-06 -6.51886e-07)
(-2.92848e-06 9.37831e-07 -8.32807e-07)
(-1.54122e-06 6.75834e-07 -1.23416e-06)
(3.84196e-07 -3.88172e-07 -1.57421e-07)
(1.13825e-07 -2.0007e-07 5.65123e-08)
(-1.32992e-07 -1.29431e-07 1.30543e-07)
(3.34927e-07 -4.49322e-07 5.608e-08)
(7.76219e-07 -5.73139e-07 2.25119e-08)
(5.17671e-07 -2.16201e-10 -4.84769e-07)
(6.96334e-07 -7.42339e-07 -3.34795e-07)
(8.98401e-07 -6.22428e-07 -2.1621e-07)
(-1.97077e-05 -4.13709e-06 1.31363e-05)
(-4.23084e-05 -9.76977e-07 8.74274e-06)
(-1.75355e-05 -1.97927e-06 2.08871e-06)
(-1.56096e-05 -2.4827e-06 1.54007e-05)
(1.00529e-08 2.2604e-08 -1.66554e-07)
(5.04792e-07 -6.5298e-08 -3.26325e-07)
(1.0702e-06 -5.48138e-07 -5.62559e-08)
(4.57533e-07 -1.3255e-07 -3.23795e-07)
(-6.68649e-08 -2.10501e-07 -5.70513e-08)
(-1.44856e-07 -1.35194e-07 1.71814e-08)
(-2.48992e-07 -7.97083e-09 -1.05477e-07)
(1.02591e-08 -2.09309e-07 -2.35547e-08)
(7.69371e-08 2.59249e-07 -6.67404e-09)
(1.18992e-07 6.35897e-08 1.43297e-07)
(1.71598e-08 1.3823e-07 9.04309e-08)
(5.86221e-08 2.07267e-07 -2.30034e-08)
(-7.56926e-07 2.85023e-07 -8.19758e-07)
(3.6563e-07 1.38145e-07 2.55288e-07)
(4.63402e-07 5.712e-08 -3.41646e-07)
(5.39537e-07 -2.04052e-07 -4.78055e-07)
(-2.076e-06 3.93013e-07 -1.74229e-06)
(-1.96352e-06 4.03475e-07 -2.93474e-07)
(-4.13356e-06 2.71801e-07 -2.0075e-06)
(-1.50413e-06 2.26572e-07 -1.92067e-06)
(-2.26273e-07 3.20109e-07 -2.24026e-07)
(-2.42008e-07 2.91164e-07 5.71305e-08)
(-2.26841e-07 3.12223e-07 8.31421e-08)
(-2.10732e-07 2.95287e-07 -1.28504e-07)
(-5.60695e-07 4.89081e-07 1.08826e-06)
(-7.93095e-07 3.69937e-07 9.1685e-07)
(-7.74345e-07 4.14823e-07 8.20895e-07)
(-5.14373e-07 3.35887e-07 1.5547e-06)
(-1.11206e-06 -2.99469e-07 5.22129e-07)
(-1.6581e-06 4.80926e-07 5.29687e-07)
(-2.82826e-06 5.2079e-07 -1.77317e-07)
(-6.05943e-07 -3.98297e-07 1.56386e-07)
(-2.32542e-07 6.23221e-07 -2.74485e-07)
(7.25623e-08 3.86166e-07 -4.97821e-07)
(-3.43239e-07 5.31791e-07 -2.08322e-07)
(-2.07968e-07 5.62478e-07 -1.44149e-07)
(-9.94054e-08 -5.75046e-08 -2.60216e-07)
(-5.00273e-09 -6.03074e-08 3.69105e-09)
(-1.22448e-07 1.47683e-08 -6.91409e-08)
(-1.15095e-07 -5.24174e-08 -3.39619e-07)
(1.81662e-07 -4.12518e-07 5.27701e-07)
(2.91676e-07 -2.82006e-07 6.52982e-08)
(8.65922e-09 1.75081e-07 -5.89674e-08)
(-5.99333e-08 6.49491e-08 3.52593e-07)
(-2.52835e-06 2.09962e-06 1.25467e-06)
(-3.96605e-06 3.39579e-06 3.8755e-07)
(-4.51577e-06 3.71146e-06 4.96448e-08)
(-1.00492e-06 8.83737e-07 8.78105e-07)
(5.57928e-07 -6.23687e-07 9.53026e-08)
(4.82974e-07 7.31618e-08 -6.96356e-07)
(8.96116e-08 -1.19171e-07 -4.40455e-07)
(9.81043e-07 -7.29173e-07 -4.17282e-07)
(-2.07142e-07 2.44151e-07 -2.69425e-08)
(-4.21526e-07 1.52235e-07 2.68935e-08)
(-3.29381e-07 2.91878e-07 -2.76848e-07)
(-8.83267e-08 7.97735e-08 2.19351e-08)
(-5.53511e-08 1.4467e-07 6.78939e-07)
(1.56565e-08 -1.78941e-08 4.48199e-07)
(7.91435e-09 8.58578e-08 1.75159e-07)
(8.84909e-08 3.35481e-08 3.50629e-07)
(3.80991e-07 -1.60982e-07 -3.93779e-07)
(3.33995e-08 2.19372e-07 -3.51433e-07)
(-1.52288e-08 3.05168e-08 -1.67193e-08)
(5.30839e-07 -3.08167e-07 -3.27703e-07)
(2.97026e-08 1.64604e-07 -4.91518e-08)
(6.73495e-08 3.32736e-08 9.85828e-08)
(1.59515e-07 -2.27169e-08 1.52568e-07)
(4.92432e-08 1.4574e-07 3.57086e-08)
(-1.57014e-06 1.48706e-07 -1.38233e-07)
(-2.02003e-06 2.41413e-07 -5.57086e-07)
(-3.68707e-06 4.90327e-07 2.10112e-07)
(-1.2392e-06 -2.11084e-07 9.47151e-08)
(1.00294e-06 -6.07728e-07 1.05684e-07)
(-3.30791e-07 2.6343e-07 1.75466e-07)
(1.79473e-09 8.18406e-08 3.9143e-07)
(9.32013e-07 -6.3309e-07 -6.45699e-08)
(-1.91228e-08 -3.60584e-07 -6.22859e-07)
(-1.66831e-06 -4.12289e-07 -1.13814e-06)
(2.28682e-07 -5.84329e-07 -1.71615e-07)
(-2.4992e-07 -2.84082e-07 -1.08155e-06)
(-3.47486e-08 1.63766e-07 4.68562e-08)
(-5.00949e-08 2.23792e-07 1.10082e-07)
(1.02216e-07 1.61818e-07 -1.10283e-07)
(8.76557e-08 1.12902e-07 -5.10284e-08)
(1.48453e-09 9.70792e-08 -2.51253e-08)
(-1.25507e-08 8.38945e-08 1.16268e-07)
(4.51019e-08 2.19065e-08 8.73754e-08)
(8.44068e-09 8.79156e-08 -7.64079e-09)
(1.20851e-07 -2.91453e-08 -2.56991e-07)
(4.51487e-09 2.3919e-09 -7.69782e-08)
(5.77342e-08 3.61564e-08 -1.17144e-07)
(1.70759e-07 -9.13565e-08 -1.65373e-07)
(-9.84378e-08 1.07516e-07 -8.96705e-08)
(-3.06668e-07 2.17804e-07 -6.16633e-08)
(-2.34169e-07 2.63807e-07 -1.69928e-08)
(-2.65153e-07 2.55578e-07 -1.42948e-08)
(-2.81062e-07 2.04524e-07 -4.88674e-07)
(-1.96642e-07 -3.26715e-08 2.37347e-09)
(-2.11264e-07 7.85062e-08 -2.91555e-07)
(-2.44835e-07 8.02939e-08 -5.65023e-07)
(-7.46869e-07 1.00144e-06 -1.26889e-06)
(-1.38168e-06 1.11931e-06 -1.22437e-06)
(-1.22255e-06 1.05429e-06 -8.1461e-07)
(-7.5421e-07 6.20037e-07 -1.20847e-06)
(2.74616e-08 1.89945e-08 -1.37953e-07)
(2.86765e-08 -2.70838e-10 6.09077e-08)
(1.14036e-07 -7.79328e-08 3.1986e-08)
(-6.77668e-09 8.80781e-08 -8.03298e-08)
(-1.39809e-06 1.08707e-06 1.95087e-07)
(-1.22587e-06 1.12467e-06 1.76467e-07)
(-1.71475e-06 1.33506e-06 1.40417e-07)
(-6.54375e-07 5.13393e-07 2.63336e-07)
(-7.38432e-07 5.61235e-07 -3.13791e-07)
(-7.17208e-07 6.24297e-07 -1.60718e-07)
(-1.4092e-06 1.25675e-06 -2.60746e-08)
(-2.18839e-07 1.81035e-07 -1.22338e-07)
(-4.33329e-08 6.62344e-08 2.65091e-08)
(-5.32961e-08 5.20337e-08 4.05844e-08)
(-8.89755e-08 6.27348e-08 4.19385e-08)
(-1.72896e-08 -1.36853e-08 -1.13728e-08)
(-1.17648e-08 -3.79838e-09 -1.34143e-08)
(-7.38643e-10 -8.50976e-09 -1.08028e-08)
(-1.38976e-08 -1.13104e-08 -1.25884e-08)
(2.13472e-09 2.30613e-09 1.88648e-09)
(1.38315e-08 -1.81978e-09 6.13546e-09)
(1.02673e-08 -3.33153e-09 1.7631e-08)
(6.20344e-09 -4.03276e-09 1.91685e-08)
(5.47296e-08 -8.43893e-09 -5.2973e-08)
(1.72792e-08 -3.66167e-08 -1.13411e-07)
(3.57485e-08 -3.45214e-08 -8.77513e-08)
(1.0862e-07 -5.90781e-08 -9.06699e-08)
(5.09823e-08 1.22993e-07 3.06532e-08)
(4.23445e-07 -2.20727e-07 -2.45352e-07)
(5.38245e-07 -3.75855e-07 -1.91602e-07)
(-3.87814e-07 5.51807e-07 -8.64693e-08)
(-4.5726e-07 4.15273e-07 1.76245e-08)