/*--------------------------------*- C++ -*----------------------------------*\
  =========                 |
  \\      /  F ield         | OpenFOAM: The Open Source CFD Toolbox
   \\    /   O peration     | Website:  https://openfoam.org
    \\  /    A nd           | Version:  6
     \\/     M anipulation  |
\*---------------------------------------------------------------------------*/
FoamFile
{
    version     2.0;
    format      ascii;
    class       surfaceScalarField;
    location    "1.04";
    object      phi;
}
// * * * * * * * * * * * * * * * * * * * * * * * * * * * * * * * * * * * * * //

dimensions      [1 0 -1 0 0 0 0];

internalField   nonuniform List<scalar> 
11670
(
1.05571e-05
2.42464e-06
-2.80171e-05
1.47777e-05
1.10227e-06
-3.48105e-07
4.31478e-07
-8.57535e-07
1.50784e-05
2.07631e-06
-1.81476e-05
1.13513e-06
7.7643e-06
2.81825e-06
6.54993e-07
-1.1648e-05
3.27316e-06
1.83024e-06
-1.06791e-06
-4.5632e-06
-1.09288e-07
-9.5477e-08
-1.6464e-08
5.68002e-08
-8.62259e-06
-6.3217e-07
1.76629e-07
8.93077e-06
4.05537e-06
7.82779e-07
-1.16364e-07
-3.83813e-06
-6.18448e-06
2.42293e-06
-2.55438e-06
6.03757e-06
4.95368e-06
-1.98677e-06
2.70866e-06
-5.13886e-06
-1.14646e-05
-4.09845e-06
-1.17346e-06
1.68233e-05
-3.07245e-06
-3.52119e-07
-1.21287e-07
3.74613e-06
-1.55493e-07
8.96675e-08
-2.6443e-07
1.36863e-07
-3.07021e-08
-7.06459e-08
1.59839e-07
-3.01307e-07
-5.92373e-07
-4.63433e-06
4.96286e-06
5.63634e-07
2.42897e-08
-5.43123e-08
-1.30863e-07
4.83153e-08
-8.758e-05
1.69336e-05
2.26293e-05
4.81294e-05
-8.85976e-05
7.52172e-06
3.90284e-05
4.20454e-05
-1.32827e-08
-7.91123e-08
-5.59963e-08
2.85099e-08
-6.23607e-09
-5.85652e-08
5.88553e-08
-7.97215e-08
2.96704e-05
-0.000155641
9.97733e-05
2.60898e-05
-1.57313e-08
-4.47671e-08
3.44513e-08
-2.93112e-08
4.86259e-06
-0.000132427
4.6041e-05
8.16028e-05
-3.496e-06
-4.64412e-07
3.79537e-06
3.63168e-07
-8.02365e-08
5.08241e-08
-1.61093e-07
6.19803e-08
1.22455e-07
-1.97395e-07
1.70731e-07
-4.56768e-07
-5.5456e-07
-7.00392e-06
1.46429e-06
6.46339e-06
-9.30443e-08
-1.46111e-07
-2.37595e-07
1.87161e-07
1.51861e-07
-1.23599e-07
-1.79799e-07
3.95394e-07
-2.31985e-07
3.13747e-07
3.3685e-07
-9.03362e-07
1.63405e-07
-4.66897e-09
-2.61744e-07
4.06226e-07
-8.8827e-08
-1.4823e-07
-3.45792e-07
2.45675e-07
-3.21767e-07
2.61315e-07
2.9072e-07
-8.3029e-07
8.57064e-08
1.5755e-07
4.1891e-07
-2.82718e-07
3.2593e-07
-3.21299e-07
-3.06048e-07
9.60688e-07
1.40806e-07
-2.31755e-07
2.94729e-07
-8.56793e-07
-3.03272e-07
4.61359e-08
-3.51488e-07
2.50738e-07
1.02869e-07
-2.06311e-07
-5.60604e-07
2.68456e-07
2.67502e-07
-5.72845e-08
3.89038e-07
-2.66721e-07
-1.91761e-07
3.04233e-07
-3.21544e-07
9.79388e-07
-1.30247e-07
-1.72054e-08
-1.2152e-07
5.27452e-08
-7.73737e-08
1.06488e-07
6.33885e-07
-2.26237e-07
-3.48948e-07
1.82776e-07
2.77025e-07
-7.28936e-07
2.82921e-07
-8.54098e-09
-2.07857e-07
2.67359e-07
-3.45886e-08
-7.43723e-08
1.8955e-07
-3.44156e-07
1.75566e-08
4.33393e-08
3.80822e-07
-1.82113e-07
-2.09452e-07
1.32574e-07
-4.07962e-07
1.80623e-07
2.27936e-07
-1.21552e-07
-2.06343e-07
4.16123e-07
-5.37492e-08
-7.29317e-09
-4.75621e-08
2.09393e-08
1.00492e-07
-1.55443e-09
-7.85314e-08
9.24405e-08
-1.40164e-07
7.61399e-08
1.07605e-07
-2.84524e-07
-2.80276e-08
4.30072e-08
2.53669e-07
-8.15799e-08
4.31245e-09
-2.39943e-09
1.5213e-09
1.07724e-08
2.33803e-09
-5.28818e-09
-1.77389e-08
-2.22272e-09
1.78726e-10
4.55114e-10
9.65947e-11
5.40234e-10
-1.29513e-07
-4.28642e-08
6.5347e-08
-4.69623e-08
1.00217e-07
2.19893e-08
7.99559e-08
-5.16591e-08
-9.69959e-08
8.06517e-08
-3.19441e-07
1.22164e-07
3.90896e-08
-5.84587e-08
-9.98993e-08
2.64467e-07
-7.21963e-08
-1.20726e-07
-2.60639e-07
1.94748e-07
1.49096e-07
-4.34486e-08
-1.85034e-07
3.6154e-07
-2.74303e-07
2.05965e-07
2.27546e-07
-6.49756e-07
-1.57014e-07
-6.84326e-09
9.36078e-07
-2.30018e-07
-1.01511e-07
-1.8047e-08
-5.2042e-08
1.7578e-08
-2.58842e-07
1.65442e-07
2.2816e-07
-6.00767e-07
-1.23207e-07
1.17046e-07
6.28214e-07
-1.85725e-07
2.13844e-07
-1.40335e-08
-1.78768e-07
2.18149e-07
-2.03482e-07
-1.36851e-08
2.95649e-07
-4.08379e-07
3.55185e-07
-2.35797e-08
-2.72889e-07
3.50269e-07
-1.94523e-07
1.83439e-07
9.98527e-07
-3.02994e-07
-1.6981e-07
2.06616e-07
-2.93614e-07
9.15924e-07
2.98559e-07
-4.93706e-08
3.91274e-07
-2.76674e-07
-1.26253e-07
-2.0949e-07
2.80805e-07
-3.35267e-07
-3.47445e-07
3.08911e-07
-9.19628e-07
3.10986e-07
-9.05422e-08
-1.6187e-07
-3.49896e-07
2.67335e-07
-3.31623e-07
2.75493e-07
2.92097e-07
-8.40466e-07
1.01687e-07
1.87974e-07
-2.55719e-07
3.34727e-07
2.9936e-07
-3.29495e-07
9.38189e-07
-2.8603e-07
2.71112e-07
4.94386e-08
2.7062e-07
-2.03098e-07
-2.17826e-07
-7.3583e-08
-5.54533e-08
4.0183e-08
-2.87237e-07
2.54052e-07
4.46822e-07
-1.03564e-06
9.50594e-08
-1.52668e-07
-2.59007e-07
7.0041e-07
1.31746e-07
-2.44106e-07
1.46852e-06
-2.15324e-05
2.7006e-06
3.39748e-05
-1.76723e-05
7.36904e-07
2.73077e-05
2.28326e-06
-2.40554e-06
-8.58783e-06
-7.62864e-07
1.10109e-06
2.60642e-06
-2.44487e-08
-1.09225e-07
-6.16103e-08
-1.91391e-06
1.46373e-06
5.18399e-06
-2.5738e-06
2.32893e-06
7.83139e-06
-1.87437e-06
8.65724e-07
-5.39325e-06
6.14868e-07
-8.67346e-07
5.70277e-06
4.11796e-06
-3.56035e-06
-1.18532e-05
3.5905e-06
-2.18623e-06
-1.06288e-05
9.16431e-06
-5.60007e-07
5.4803e-07
-3.1536e-06
3.14008e-06
1.0236e-09
4.13765e-08
2.40243e-08
-2.29652e-08
-2.23903e-07
-3.24016e-07
1.29329e-06
-6.12957e-07
3.8225e-07
-1.87336e-06
-1.00724e-06
2.69334e-06
-6.29084e-07
3.64344e-06
1.30863e-06
-4.14677e-06
-3.67709e-07
-8.60008e-07
1.80245e-06
-7.55746e-07
-6.8481e-07
3.28325e-06
1.00989e-06
-3.60173e-06
1.44004e-06
-1.07e-05
8.62976e-06
6.08515e-08
-1.60268e-07
-2.96495e-07
4.80029e-07
1.38779e-08
1.94284e-07
-1.0739e-07
3.43439e-08
2.52904e-07
-1.79971e-06
-2.39462e-07
1.6777e-06
1.54351e-07
1.80314e-07
-1.7562e-07
-3.85658e-07
3.26904e-07
-8.99596e-08
1.48295e-07
-1.43117e-06
1.25957e-06
3.03528e-07
4.27513e-07
-3.49214e-07
6.186e-08
-2.02594e-06
-5.3612e-07
2.0281e-06
-8.64316e-07
2.76339e-06
-1.35879e-06
-4.805e-09
6.13018e-08
-1.0196e-08
1.43221e-06
-3.3584e-06
1.47582e-06
1.13594e-06
-3.17395e-06
1.38158e-06
-7.71296e-07
-3.10387e-07
9.88819e-07
5.55867e-07
-1.44196e-06
-9.15112e-07
2.06988e-06
-4.48526e-07
-1.0125e-06
2.33266e-06
6.52325e-10
-2.32994e-07
-2.08005e-08
6.20216e-07
9.38629e-07
1.7645e-08
-5.81126e-07
-1.25634e-06
-8.82678e-07
1.2245e-06
5.66091e-07
-1.93959e-06
6.2687e-07
-2.81684e-07
-2.3494e-07
4.21494e-07
-6.25958e-07
4.4685e-07
2.2808e-07
4.21913e-07
-8.77303e-07
-2.7075e-06
6.52178e-06
4.28448e-06
-7.99988e-06
1.70424e-06
4.2254e-06
-8.53795e-06
-2.09525e-06
-1.81688e-06
-3.75923e-06
8.04686e-06
-4.94052e-06
-3.63166e-06
6.91306e-06
9.41891e-07
-1.56494e-06
-1.40259e-06
2.38742e-06
-6.68897e-07
-1.42758e-06
3.42246e-06
-1.35535e-06
-7.11662e-07
-2.41389e-06
4.13337e-06
-4.22337e-06
-2.20572e-06
4.72623e-06
4.0106e-09
2.08427e-07
1.64028e-09
-1.31606e-07
-4.76531e-08
3.20554e-09
1.3163e-07
-9.64535e-07
5.07141e-06
-1.85222e-06
3.96562e-07
-3.66049e-07
1.61012e-06
2.406e-06
2.12523e-07
-1.07173e-06
-1.89115e-06
-2.21896e-05
-0.000212835
5.80431e-05
0.000176214
1.90298e-06
1.4992e-07
-7.60931e-07
-1.50721e-06
-7.52222e-05
-0.000211864
6.74085e-05
0.000219222
-1.19977e-06
2.81964e-07
-1.97226e-07
1.04193e-06
1.18066e-06
8.03607e-08
-4.50177e-07
-8.95501e-07
-4.66918e-07
1.48463e-07
-8.40175e-08
4.57458e-07
-3.25857e-05
-0.000201139
6.18069e-05
0.000170893
-4.14366e-05
-0.000192558
5.3478e-05
0.000179912
-7.35563e-06
-0.000217853
6.14721e-05
0.000163603
-5.85747e-05
-0.000204305
6.69007e-05
0.000196056
-1.17861e-06
4.15283e-06
-3.11886e-05
2.80824e-05
-2.44409e-05
8.36385e-06
-3.04388e-05
4.63764e-05
5.60795e-06
-2.13257e-06
7.66771e-07
-4.20678e-06
-3.77246e-06
-8.36376e-07
1.34414e-06
3.52606e-06
-1.74105e-06
-1.76704e-05
2.98946e-06
1.64282e-05
-7.36652e-06
-1.43758e-06
2.51804e-06
6.02793e-06
7.33616e-06
-2.85739e-06
1.15214e-06
-5.93172e-06
3.52513e-06
2.41896e-07
-1.25571e-06
-2.32267e-06
-6.98493e-06
-1.71369e-05
2.23059e-06
2.15961e-05
-1.02778e-05
6.19891e-06
-1.96979e-07
4.40585e-06
-1.01199e-05
3.90133e-06
1.29106e-06
4.87752e-06
1.50141e-05
-5.42617e-06
2.6221e-06
-1.17163e-05
-1.14821e-05
3.69715e-06
-4.03212e-07
7.54442e-06
7.58114e-06
-4.76635e-06
6.25314e-07
-3.60941e-06
3.44525e-06
-1.17333e-05
-1.38453e-07
8.39302e-06
7.75263e-06
-2.9814e-06
-1.45645e-07
-4.40915e-06
6.63238e-06
-2.18349e-06
9.07959e-07
-4.54035e-06
-5.39241e-06
-9.55902e-07
1.4777e-05
-8.46389e-06
-1.51803e-05
5.82165e-06
-2.76681e-06
1.21268e-05
1.05342e-05
-3.29097e-06
3.85348e-07
-7.26701e-06
-1.15763e-05
-2.24066e-06
4.54843e-06
1.00858e-05
8.56155e-06
-1.06702e-06
-3.55955e-06
-4.1119e-06
-1.1242e-05
5.4736e-06
-2.49685e-07
6.31082e-06
-3.35232e-06
-8.59212e-07
1.70907e-06
3.62905e-06
2.82812e-06
-1.99563e-06
6.00998e-07
-2.21614e-06
-1.10015e-05
1.95921e-06
5.85285e-06
2.94895e-06
-1.14768e-05
3.76431e-06
-2.03029e-06
8.90566e-06
1.04634e-05
-4.23343e-06
-1.35268e-06
-4.68271e-06
1.01701e-05
-3.42185e-06
1.53586e-06
-7.58229e-06
-4.76698e-06
4.36299e-07
1.61591e-06
2.39384e-06
6.52373e-06
-1.96897e-06
8.8601e-07
-4.6274e-06
1.31271e-05
2.50831e-06
-4.91788e-06
-1.07718e-05
1.03907e-05
-4.39906e-06
-1.08533e-06
-5.03417e-06
7.70508e-06
-3.05089e-06
4.97822e-07
-5.69132e-06
-4.28668e-07
2.78502e-06
-7.91886e-06
6.02632e-06
-2.39584e-06
-1.45269e-07
1.37005e-06
1.64714e-06
-2.49713e-06
5.92707e-07
-4.35963e-07
1.82108e-06
9.70493e-07
2.05668e-07
-5.67966e-07
-9.45046e-07
-8.3223e-06
-1.64285e-06
3.22126e-06
7.63732e-06
7.80374e-06
1.65274e-06
-3.12583e-06
-7.07708e-06
-3.20197e-06
-7.33634e-07
1.63786e-06
3.2667e-06
-2.8652e-06
1.22436e-06
5.65973e-07
8.02946e-07
2.16194e-06
-3.52296e-07
-1.46279e-06
-5.89998e-07
-1.36465e-07
5.83746e-07
-3.08692e-07
-6.07708e-09
-1.23152e-08
3.95038e-08
5.44345e-09
-3.92213e-08
1.26129e-08
6.6631e-09
-6.63615e-09
7.39721e-09
6.07828e-07
-3.31436e-07
1.24638e-06
-2.71294e-07
-4.92578e-06
3.54467e-06
4.14449e-06
1.53667e-07
-1.63816e-06
-2.99956e-06
2.07247e-09
1.2303e-07
3.71615e-08
2.6535e-09
-2.50664e-09
9.3043e-09
5.57572e-08
6.57357e-09
3.12061e-07
-1.64981e-09
3.65131e-08
-1.71927e-07
9.2526e-07
-3.00472e-07
5.86567e-08
-4.60417e-07
3.38056e-07
1.7721e-09
-9.34374e-08
-1.91505e-07
-3.41735e-05
-0.00019498
5.0213e-05
0.000178139
-4.22843e-05
-0.000199745
6.05654e-05
0.000180222
1.94506e-08
-3.4057e-08
-1.50775e-07
-1.04043e-09
5.62637e-09
7.97767e-08
1.54984e-07
-1.29859e-08
-2.17366e-09
2.07909e-07
9.36566e-08
1.62598e-08
-2.41607e-07
-8.85729e-08
2.71682e-08
-9.81733e-09
5.38455e-06
-1.51407e-06
5.32348e-07
-3.97758e-06
-4.57673e-06
9.87804e-07
6.02899e-07
2.781e-06
-4.09598e-07
2.08523e-06
-4.82874e-06
3.6789e-06
1.25555e-05
1.21678e-06
-4.22469e-06
-8.99842e-06
-9.70044e-06
1.75534e-06
4.99033e-06
2.67509e-06
1.97367e-06
-5.81701e-07
-2.22836e-07
-1.11058e-06
-1.02684e-05
-1.76551e-06
3.22972e-06
7.96441e-06
-2.52232e-06
-2.84191e-07
1.10258e-06
1.75154e-06
-4.47854e-06
5.58616e-07
1.5227e-06
2.08981e-06
5.57666e-06
7.98167e-07
-1.63995e-06
-3.95438e-06
4.65671e-08
-1.16886e-07
-2.82383e-07
-1.26848e-08
-1.169e-08
-3.12117e-07
-1.64662e-07
1.99754e-08
3.69318e-08
-8.43713e-08
2.10831e-07
9.81976e-08
-4.3764e-06
1.83863e-06
-6.11377e-07
3.50665e-06
-4.83708e-07
1.29008e-06
-3.96088e-06
3.05401e-06
4.8463e-06
-1.80985e-06
3.67632e-07
-3.61543e-06
4.16756e-06
9.18522e-07
-1.33552e-06
-3.58036e-06
8.27716e-06
-4.88894e-06
-1.44492e-06
-2.30817e-06
4.34308e-06
-1.23639e-06
-1.08584e-05
8.4516e-06
-1.864e-06
-3.72312e-08
2.60122e-07
8.40467e-07
6.37088e-06
-2.86368e-06
1.12717e-06
-5.3424e-06
-1.21416e-06
-0.000138882
4.29325e-05
9.73786e-05
2.43059e-06
2.51683e-07
-1.13228e-06
-1.9636e-06
-2.68348e-06
5.47078e-07
-5.27395e-07
2.19842e-06
2.24617e-06
-1.20418e-06
-3.48161e-07
-1.02042e-06
-2.82137e-06
1.40059e-06
-6.7379e-07
2.94011e-06
4.30934e-07
-2.70983e-06
9.35338e-06
-6.6213e-06
-4.55569e-06
-8.25019e-07
1.36817e-06
3.781e-06
5.36788e-06
-2.10847e-06
7.3684e-07
-4.36764e-06
-7.91771e-06
-7.94362e-07
2.3461e-06
6.0913e-06
2.74893e-06
3.81693e-06
-2.18234e-05
1.54374e-05
-2.93983e-06
6.75028e-07
7.49262e-06
-5.61438e-06
7.07513e-06
-1.83783e-05
-2.25897e-05
3.42137e-05
-7.09694e-06
-1.05632e-06
5.4516e-06
7.09651e-06
6.5528e-07
-2.16145e-06
-4.96753e-06
-1.20068e-06
3.35876e-06
-1.00411e-05
7.64506e-06
-4.62785e-06
-7.57593e-07
1.16536e-06
3.50986e-06
-2.14292e-06
3.23369e-07
-1.17297e-07
1.19919e-06
-7.74112e-06
2.80314e-06
-3.19828e-07
5.73133e-06
5.0635e-06
-1.94883e-06
-4.52323e-06
-5.05443e-06
2.09204e-06
-4.51499e-07
4.03747e-06
9.3448e-06
-3.77867e-06
8.72189e-07
-6.89429e-06
1.7876e-06
-9.80751e-07
3.8408e-07
-1.73356e-06
1.3545e-06
-1.11052e-07
-6.66639e-07
-1.69512e-06
2.41113e-07
6.92458e-08
8.49101e-07
1.15223e-05
-4.57434e-06
1.23301e-06
-8.55095e-06
1.4665e-06
-2.39977e-07
9.04489e-08
-7.48466e-07
1.51895e-05
-5.50099e-06
2.71283e-06
-1.25293e-05
1.13668e-06
-2.27796e-07
-7.70248e-08
-5.04526e-07
-1.19945e-05
-1.34028e-06
3.81692e-06
9.38165e-06
1.57597e-06
1.22977e-07
-1.63202e-07
-8.0718e-07
1.00633e-07
-8.53548e-07
-9.56399e-08
2.75731e-07
1.46163e-05
-5.29522e-06
2.69403e-06
-1.19966e-05
-1.6618e-05
-2.97432e-06
6.14407e-06
1.33586e-05
7.03881e-06
-1.31261e-06
-1.10031e-06
-4.33155e-06
-1.67418e-05
1.83768e-06
2.11902e-06
1.27399e-05
-4.22535e-07
-2.74275e-06
-2.23529e-06
5.31232e-06
-5.50464e-06
-4.36148e-07
2.8004e-06
3.42161e-06
-1.27439e-05
-5.23595e-06
1.98698e-06
1.58856e-05
4.76992e-06
-1.7898e-06
-4.19946e-07
-2.25292e-06
-1.8582e-06
-7.38434e-07
5.2069e-06
-2.50885e-06
-5.51474e-06
6.17268e-07
2.36299e-06
2.68901e-06
-1.3786e-05
7.49775e-07
-1.99468e-05
3.30058e-05
1.21596e-06
-1.45292e-05
-1.77147e-06
1.5055e-05
-2.92821e-07
-1.18163e-07
-2.6797e-08
3.19697e-08
-1.43861e-08
-8.23716e-08
-2.76963e-07
2.90131e-08
3.77809e-06
-1.08899e-06
-5.64283e-07
-1.91208e-06
-2.75546e-06
2.70166e-07
1.29874e-06
1.42132e-06
-1.60748e-05
-2.86413e-06
6.09333e-06
1.29196e-05
1.26662e-05
-1.6115e-06
-3.76191e-06
-7.36657e-06
-2.41888e-06
-2.34167e-07
1.04696e-06
2.03859e-06
2.49068e-06
-4.91936e-07
4.97961e-07
-2.1016e-06
-4.86422e-06
-5.56631e-07
1.31279e-06
3.82829e-06
-2.06825e-06
5.50215e-07
5.43062e-06
-4.32271e-06
-5.14379e-06
2.40507e-06
9.82349e-07
1.44377e-06
-3.37355e-06
4.94743e-07
1.95396e-06
8.77763e-07
-9.86328e-06
-1.61755e-05
1.01426e-06
2.55995e-05
1.65947e-06
3.79694e-07
-3.57788e-06
1.75311e-06
8.46037e-07
-1.24053e-07
-1.42427e-07
-5.34394e-07
-5.35141e-07
-1.18105e-06
3.59739e-06
-1.73718e-06
3.94374e-06
-6.00304e-07
-1.61119e-06
-1.77017e-06
2.58871e-06
-4.61886e-07
2.28945e-07
-1.98188e-06
2.45171e-06
-1.3472e-06
-5.12635e-07
-6.45948e-07
-1.48497e-07
1.09703e-06
-2.41331e-06
1.86548e-06
-1.5514e-05
-0.000131062
2.48567e-05
0.000121252
-3.85242e-06
1.95138e-06
-1.86737e-06
4.09853e-06
3.84849e-06
-6.24742e-07
-2.58371e-06
-9.68206e-07
-5.97438e-07
9.39607e-07
-8.28816e-06
8.23924e-06
-1.69988e-07
-2.87885e-07
1.52249e-06
-9.49032e-07
5.40889e-06
-2.60321e-06
5.60203e-07
-3.29852e-06
5.87392e-06
-9.04006e-07
-1.88505e-06
-3.32057e-06
-2.45851e-06
1.18542e-07
1.21157e-06
1.40689e-06
-4.90286e-06
2.15865e-06
5.73935e-07
2.21411e-06
-0.000187794
3.62067e-05
-6.59147e-05
0.000216489
-1.95791e-06
3.61697e-07
-3.15221e-07
1.50594e-06
-8.27979e-05
-0.000149391
4.72908e-05
0.000185164
-0.000173595
6.22133e-05
7.59724e-06
0.000104158
-7.94989e-05
-0.00020666
3.79266e-05
0.000247393
-1.09911e-05
1.23349e-06
-4.84066e-07
1.06688e-05
-3.17364e-05
-0.000225098
5.90999e-05
0.000196548
-6.33278e-07
2.59916e-09
3.82346e-07
2.79889e-07
-0.000110327
-0.000187496
5.63353e-05
0.000240192
1.72406e-06
2.15914e-07
-8.07441e-07
-1.49006e-06
5.06796e-07
4.03823e-06
-2.41724e-05
2.02198e-05
-1.89254e-05
-0.000130375
2.54741e-05
0.000124236
-2.36689e-05
7.5073e-06
-2.35095e-05
4.02601e-05
-8.90728e-05
-0.000124325
3.19523e-05
0.000181844
-4.76286e-06
-1.5905e-05
6.9931e-07
2.0492e-05
-1.45783e-06
2.19106e-07
-5.55437e-08
9.84852e-07
-2.2418e-06
6.64602e-07
-9.61049e-08
1.44884e-06
1.05607e-05
-1.82474e-06
-3.04878e-06
-5.94505e-06
-1.83636e-05
6.14895e-07
-2.28693e-06
2.02001e-05
3.66448e-07
-9.69609e-07
2.22478e-06
-2.04401e-06
-3.01398e-06
4.16958e-07
1.0081e-06
2.20902e-06
-2.08738e-06
-5.69859e-07
9.62262e-07
2.28312e-06
3.50263e-06
4.69675e-07
-1.62876e-06
-3.12149e-06
-2.26632e-07
-1.70859e-06
1.58502e-06
-1.66198e-05
-1.07987e-05
2.52949e-05
3.20893e-06
-8.30491e-07
-2.27159e-06
-1.06274e-05
-7.3542e-06
1.62416e-05
-9.73484e-06
2.5945e-06
1.44974e-06
5.37924e-06
2.66115e-06
6.29435e-07
-1.4217e-06
-2.60744e-06
-6.19593e-05
-0.000158492
3.40806e-05
0.000185594
-1.37703e-06
4.58043e-06
-1.32767e-05
1.00352e-05
1.25788e-05
2.32835e-06
-4.46161e-06
-1.0281e-05
-4.64088e-06
2.14622e-06
-2.32634e-06
5.55416e-06
1.30494e-05
-4.76487e-06
6.07828e-07
-8.55847e-06
-7.42511e-06
2.09285e-06
-5.98033e-07
5.19736e-06
1.02759e-05
-4.72075e-06
1.09996e-06
-6.19676e-06
-2.02892e-06
-6.58374e-06
2.49492e-06
5.65433e-06
-4.1378e-06
1.23012e-06
-3.27777e-07
2.98184e-06
4.04122e-06
-1.39194e-06
5.18022e-07
-2.8437e-06
5.25432e-06
1.10306e-06
-1.8875e-06
-4.74539e-06
1.05456e-06
-1.57089e-07
1.49985e-07
-7.60464e-07
-5.4537e-07
-8.34946e-08
2.69587e-07
5.7573e-07
-3.52338e-05
-0.000221907
3.75716e-05
0.000218589
2.71112e-06
3.36801e-07
-1.04694e-06
-1.45834e-06
-8.23645e-05
-0.000227335
7.3905e-05
0.000234298
-2.9587e-06
-3.68592e-07
9.30079e-07
1.9148e-06
1.57723e-06
-5.58055e-06
1.46628e-05
-1.07827e-05
4.80289e-06
-2.85217e-06
4.98116e-07
-2.95946e-06
7.05939e-06
7.5021e-07
-2.4938e-06
-5.73375e-06
5.40767e-06
-1.39263e-06
-3.48023e-07
-3.25444e-06
-5.66593e-06
1.80844e-06
-7.5755e-07
4.04428e-06
-5.85368e-06
4.44947e-07
2.43272e-06
3.24537e-06
5.58129e-06
-2.33553e-06
6.13896e-07
-4.53359e-06
7.94245e-06
-3.35534e-06
1.60531e-06
-6.91487e-06
-5.62658e-06
-9.38453e-07
2.54696e-06
4.99215e-06
1.35831e-05
1.66099e-06
-6.77694e-06
-8.67624e-06
-1.56158e-05
5.37099e-06
-9.68148e-07
1.16174e-05
3.9267e-06
2.47885e-07
-9.42994e-07
-2.60185e-06
-1.40416e-05
5.28189e-06
-2.4146e-06
1.14911e-05
6.21998e-06
1.13539e-06
-3.25607e-06
-3.37753e-06
1.37781e-05
-4.86938e-06
1.18982e-06
-1.02966e-05
-8.72792e-06
3.4312e-06
7.3817e-06
-2.97248e-06
-9.87468e-07
4.95326e-06
-1.32323e-06
-6.57085e-06
2.29002e-06
-9.20009e-07
5.09387e-06
-1.63081e-05
5.71432e-06
-1.48341e-06
1.20359e-05
-1.02203e-05
4.77621e-06
-1.35084e-06
7.0798e-06
-6.67529e-06
-4.75527e-07
3.30017e-06
3.91211e-06
-8.2448e-06
1.56512e-06
4.4474e-06
2.40356e-06
1.26424e-05
-4.77397e-06
2.12477e-06
-1.03766e-05
9.88449e-06
8.32327e-07
-3.69173e-06
-6.6882e-06
3.18246e-06
-8.48565e-07
-9.411e-06
6.76033e-06
9.68799e-06
-3.24749e-06
1.22786e-06
-6.81176e-06
-9.76309e-07
3.01187e-06
-9.66694e-06
6.87431e-06
-9.05941e-06
-1.6407e-06
3.01028e-06
7.24931e-06
1.01784e-05
5.62646e-07
-4.96198e-06
-6.25676e-06
-1.21658e-05
4.58881e-06
-2.22587e-06
1.05054e-05
3.98327e-06
-2.24503e-07
-6.83989e-07
-2.52404e-06
-8.96511e-06
2.35102e-06
9.4627e-07
5.98228e-06
-2.02462e-06
-1.00616e-07
8.47429e-07
1.58084e-06
3.08797e-06
-7.47671e-07
1.3554e-07
-2.09133e-06
1.6492e-06
2.38153e-07
-8.68901e-07
-1.12826e-06
-2.51797e-09
1.7288e-07
8.02272e-08
1.22127e-08
-6.49912e-08
-1.51795e-07
-3.57884e-08
1.92997e-08
-2.14365e-07
2.323e-06
-3.99298e-06
2.18541e-06
-1.74332e-08
-4.91459e-08
1.46513e-07
7.56577e-10
4.60757e-08
9.97701e-08
6.76595e-09
4.8016e-06
2.79857e-07
-1.33362e-06
-3.57401e-06
3.59757e-09
-7.18964e-08
-2.14669e-07
1.32573e-07
-2.50849e-08
-6.61716e-08
2.3072e-08
-1.48209e-09
-6.64629e-09
2.5855e-07
1.10719e-07
-8.08559e-09
1.84045e-06
-1.64978e-07
-4.8449e-06
3.41627e-06
-3.29084e-06
2.11149e-06
4.91188e-07
7.97564e-07
-4.34395e-06
1.47846e-06
-5.72279e-07
2.937e-06
1.85527e-06
-9.04931e-07
1.88572e-08
-1.34994e-06
-2.93402e-06
4.56187e-07
1.03e-06
1.74467e-06
2.71253e-06
-6.02153e-07
-1.41155e-06
-6.78903e-07
4.00902e-06
-5.4156e-07
-1.09358e-06
-2.65849e-06
-3.00217e-06
3.82264e-07
1.12489e-06
1.45828e-06
5.5724e-09
8.05972e-08
1.83957e-07
1.95078e-08
-2.70594e-09
8.6014e-08
2.17255e-08
1.70605e-09
-1.49633e-06
-1.04799e-07
2.88407e-07
9.83432e-07
-1.13422e-06
7.10369e-08
5.60738e-07
4.20042e-07
1.26611e-06
-1.70422e-07
-1.78745e-07
-7.08454e-07
1.07142e-06
-4.41999e-08
-3.69062e-07
-6.00694e-07
4.63781e-06
1.17567e-06
-2.37095e-06
-4.09625e-06
-5.10292e-06
1.84799e-06
2.5155e-06
1.26586e-06
-1.1969e-05
3.24024e-06
1.3903e-06
7.7208e-06
-7.06574e-06
1.11018e-06
3.62389e-06
2.00525e-06
9.32499e-06
-3.22514e-06
3.48711e-07
-5.84697e-06
1.24303e-05
1.74095e-06
-9.86734e-06
6.24923e-07
1.74468e-06
-2.97177e-06
8.18109e-07
3.24471e-06
-6.42473e-07
-3.2809e-07
-1.87158e-06
-3.90829e-06
-1.87231e-07
1.04784e-06
2.56691e-06
-1.61935e-05
-2.74632e-06
5.22116e-06
1.34391e-05
1.00424e-05
-5.30958e-06
-1.59128e-06
-2.53683e-06
-1.05528e-05
1.99567e-06
5.7061e-06
2.89318e-06
1.95311e-06
3.24269e-06
-1.21856e-05
6.87894e-06
1.46463e-05
2.46049e-06
-5.21295e-06
-1.136e-05
-1.53428e-05
2.00285e-07
5.57376e-06
9.41532e-06
5.3619e-06
-1.10222e-06
-2.99077e-06
-1.38307e-06
-8.15174e-06
2.95477e-06
-1.48427e-06
6.16207e-06
-2.73495e-06
1.37909e-06
-6.36185e-07
2.8187e-06
-2.40168e-06
-6.54969e-07
4.26959e-06
-1.0998e-06
-5.30569e-06
1.11149e-06
6.44538e-07
3.40369e-06
9.02718e-06
-5.45904e-06
-1.6305e-06
-2.32159e-06
5.68479e-06
-3.79189e-07
-1.10469e-05
6.2419e-06
8.95085e-06
-4.2695e-06
7.03508e-07
-5.53616e-06
1.04531e-05
-6.10871e-06
-1.79284e-06
-2.65334e-06
-6.33141e-06
3.65427e-06
1.00809e-06
1.67106e-06
-5.33113e-06
6.00958e-07
1.28912e-06
2.95201e-06
6.70912e-06
1.04218e-06
-1.97635e-06
-4.85877e-06
-2.15137e-06
1.07807e-06
-4.28835e-07
2.15887e-06
2.24865e-06
-1.15817e-06
-9.71691e-08
-1.60958e-06
1.26358e-05
-2.20276e-06
-6.67274e-06
-3.42512e-06
-1.27653e-05
1.67141e-06
3.67242e-06
7.55557e-06
1.89478e-06
5.51773e-06
-1.05191e-05
2.83552e-06
-5.57399e-06
-3.51089e-07
4.59635e-06
1.30629e-05
-6.80018e-06
-2.22325e-08
-6.04116e-06
-1.22488e-05
6.97022e-06
2.20691e-06
3.24627e-06
5.42788e-06
7.92746e-07
-1.43077e-06
-4.00839e-06
-5.38747e-06
-3.99613e-07
7.58229e-07
4.46467e-06
9.82e-06
-3.84945e-06
8.95392e-07
-7.26157e-06
-2.34889e-06
8.71126e-06
-6.60607e-06
9.55798e-06
-1.11363e-06
-2.34898e-06
-5.70481e-06
-1.26439e-05
-2.09528e-06
3.1814e-06
1.11227e-05
1.17511e-06
-4.37865e-06
1.28721e-05
-9.18195e-06
-1.37453e-05
-2.556e-06
4.70081e-06
1.09775e-05
-1.79142e-06
5.04281e-06
-1.58665e-05
1.22155e-05
1.59052e-05
7.33608e-07
-4.92399e-06
-1.14073e-05
8.83653e-06
1.30438e-06
-2.91507e-06
-6.51128e-06
-1.33099e-05
-1.23118e-06
4.07027e-06
1.00358e-05
1.12102e-05
-4.27019e-06
1.70251e-06
-8.88255e-06
-8.093e-06
3.65513e-06
8.20857e-07
3.96325e-06
1.31953e-05
-3.38425e-06
-1.50782e-06
-8.41789e-06
-4.32337e-06
-3.12306e-07
1.02376e-06
2.98402e-06
-1.0582e-05
3.79175e-06
-1.02869e-06
8.45441e-06
9.88882e-06
-3.9174e-06
2.09946e-06
-8.66883e-06
1.2678e-05
-4.24209e-06
1.3363e-06
-1.01404e-05
4.63632e-06
-5.46313e-07
-1.31769e-05
9.50067e-06
-1.99038e-06
-5.69009e-06
1.0546e-05
-2.76316e-06
-5.87672e-06
2.59757e-06
-1.22128e-06
5.43871e-06
3.89974e-06
-2.85439e-07
-6.26166e-07
-2.46002e-06
-4.04148e-06
1.01933e-06
1.01033e-05
-7.67732e-06
-1.21727e-05
-2.1873e-06
4.05883e-06
1.00837e-05
5.1224e-06
-1.48431e-06
-6.5831e-07
-3.52122e-06
-5.13158e-06
3.00725e-06
-5.11432e-07
3.16431e-06
-1.05073e-05
6.07787e-06
1.8045e-06
2.85902e-06
4.16546e-06
-1.12755e-05
8.59317e-06
5.22591e-06
-1.59331e-06
-1.45232e-05
1.08788e-05
9.94921e-06
-3.70272e-06
1.10095e-06
-7.11183e-06
1.04458e-05
8.28422e-07
-8.01954e-06
-7.2131e-06
2.5816e-06
-9.48721e-07
5.15854e-06
-9.59637e-06
5.44752e-06
1.84286e-06
2.48227e-06
1.29193e-05
1.33595e-06
-4.74967e-06
-9.70622e-06
-7.52754e-06
-1.52447e-06
1.7109e-06
7.6365e-06
-8.93535e-06
3.17044e-06
-1.3002e-06
6.39969e-06
8.01021e-06
-2.70814e-06
1.11225e-06
-5.83524e-06
9.19565e-06
-3.53923e-06
-9.67789e-07
-4.50254e-06
2.5649e-06
-5.79986e-07
-2.83397e-07
-1.34753e-06
4.40522e-06
9.26512e-07
-1.87528e-06
-3.9712e-06
4.00124e-07
-2.81429e-06
9.34002e-06
-6.53776e-06
-8.68102e-06
-9.28558e-07
2.62134e-06
6.75141e-06
-5.53732e-06
-1.21579e-06
2.27483e-06
5.34053e-06
5.50501e-06
1.15419e-06
-2.36087e-06
-5.00949e-06
5.45694e-06
-1.95239e-06
-5.36367e-07
-2.66154e-06
8.03549e-06
-4.28895e-06
1.0005e-06
-5.20463e-06
-7.1479e-06
2.22621e-06
9.54832e-07
4.40887e-06
-2.92308e-06
1.1378e-07
8.76317e-07
1.52922e-06
-1.56019e-07
-6.84739e-07
2.59915e-06
-1.42348e-06
3.1623e-06
-4.26438e-07
-8.93968e-06
6.70132e-06
-3.28391e-06
1.13537e-06
9.13803e-06
-7.48048e-06
-4.39843e-06
7.80294e-07
2.08522e-06
1.18339e-06
5.34985e-06
8.90585e-07
-1.64049e-06
-3.92569e-06
5.73462e-06
-1.73555e-06
-6.63933e-07
-3.77188e-06
-2.88317e-06
-1.72708e-07
6.64955e-07
1.87396e-06
3.15705e-06
-1.99602e-06
-5.74074e-07
-8.3786e-07
-3.65391e-06
1.7061e-06
-7.7153e-07
3.47468e-06
3.04558e-06
-8.4243e-06
-4.61769e-08
3.84522e-07
-1.28099e-06
2.33318e-06
1.36563e-06
-6.84299e-06
-2.1986e-06
1.22609e-05
-8.37566e-06
-1.5959e-06
2.31947e-06
-1.908e-06
9.62632e-06
3.41708e-07
-1.77554e-06
2.00128e-06
-4.50884e-06
-1.22319e-07
3.52408e-07
-2.01656e-07
1.78093e-06
3.60003e-07
-5.10753e-07
-1.45089e-07
1.862e-07
-3.0819e-07
4.92914e-07
-2.42719e-06
3.89817e-06
-6.4391e-06
1.30645e-06
-6.40832e-08
1.63758e-07
3.44014e-06
-4.75667e-06
-1.58128e-06
6.24184e-07
-2.13053e-06
3.06882e-06
-4.45162e-06
8.30675e-05
-0.000322787
0.000231964
1.72924e-07
-9.09827e-07
-1.30712e-06
4.73425e-07
-4.5395e-07
1.61861e-06
7.23211e-05
-0.000314528
0.000166209
-0.000288228
8.83561e-05
0.000176867
-0.000281884
6.53343e-05
0.000174383
1.1691e-07
-5.73923e-07
-8.28795e-07
3.02355e-07
-3.06371e-07
1.07743e-06
-1.41609e-06
6.56826e-07
2.57533e-06
-3.16869e-06
2.66691e-06
-7.15299e-06
9.51013e-06
-3.57108e-05
2.44224e-05
-4.47241e-05
1.87193e-06
4.14662e-05
2.09396e-06
-2.88801e-06
6.36778e-06
9.79266e-07
-4.40024e-07
3.20849e-06
2.14389e-07
-1.09421e-06
-2.51429e-06
6.0183e-06
-4.19676e-05
1.14626e-05
-0.000285456
6.04411e-05
0.00018989
1.04583e-07
-1.20426e-07
4.1521e-07
-0.000303673
9.15719e-05
0.000211269
-1.31338e-06
5.64154e-07
-2.63944e-06
3.98643e-07
-2.82483e-07
1.19197e-06
1.03347e-06
-3.01409e-06
-6.30548e-06
-2.77248e-05
6.00632e-06
2.46001e-05
-3.2927e-06
3.36776e-06
7.95841e-06
-5.97449e-06
2.76133e-06
1.04138e-05
1.10285e-06
-4.57483e-06
-8.73547e-06
-0.000289033
8.57068e-05
0.000169672
4.01016e-08
-1.98309e-07
-2.4519e-07
2.50474e-06
-2.63279e-05
1.64477e-05
4.73165e-06
-5.68295e-06
1.37644e-05
-8.48123e-06
3.26252e-06
1.51027e-05
-7.02389e-07
6.84282e-07
1.73282e-06
-1.22288e-06
7.49225e-07
-2.67388e-06
-5.57e-06
6.28422e-06
-1.31523e-05
4.84009e-06
-3.71977e-06
-1.14071e-05
5.0677e-06
-3.88472e-06
-1.15696e-05
-2.33885e-07
2.47968e-07
5.53313e-07
-2.93541e-06
3.1024e-06
7.9264e-06
-6.5351e-06
5.76697e-06
1.6256e-05
2.40139e-06
-3.49132e-06
8.79219e-06
1.66553e-07
5.96897e-08
-2.73387e-10
-1.52187e-07
-1.27426e-07
5.41591e-08
7.46172e-08
1.30876e-07
-4.90592e-09
3.14008e-07
1.97637e-07
-3.11337e-08
-6.55738e-06
6.79312e-06
-1.67357e-05
-5.03081e-06
5.43534e-06
-1.2909e-05
-0.000338063
0.000106389
0.000173194
-5.55512e-06
3.59003e-06
1.30652e-05
-3.75629e-06
3.6587e-06
6.71433e-06
-2.69957e-07
-2.44692e-07
9.96874e-08
2.55398e-07
3.70466e-07
5.33384e-08
-4.89497e-06
7.88179e-06
-1.46454e-05
-8.54283e-06
4.09524e-06
1.57015e-05
2.32997e-06
-1.44174e-06
-6.49574e-06
1.25509e-06
-2.68742e-06
-5.86511e-06
2.54439e-06
-1.04696e-06
5.78337e-06
1.98695e-06
-2.75872e-06
7.50693e-06
2.35407e-06
-1.09269e-06
5.75147e-06
-3.66935e-07
6.28141e-07
1.82704e-06
1.6108e-06
-1.192e-06
3.91804e-06
-0.000287423
5.16258e-05
0.00019945
-9.7496e-08
8.63123e-08
-2.85561e-07
-1.8578e-06
5.27941e-07
-3.46952e-06
-6.26195e-06
6.77137e-06
-1.62306e-05
-8.52562e-06
5.24765e-06
1.56311e-05
-9.95715e-07
2.29818e-06
-5.25534e-06
-9.40299e-07
1.44209e-06
4.07229e-06
-2.89855e-07
-1.81015e-07
4.24288e-08
-1.13907e-06
1.55235e-06
-3.33482e-06
-2.0188e-06
5.89697e-07
-3.78676e-06
-2.52891e-06
2.99094e-06
7.15122e-06
-4.33202e-06
3.42091e-06
-1.03209e-05
4.88591e-06
-5.12883e-06
1.35773e-05
3.09093e-06
-4.13824e-06
9.50158e-06
-2.58598e-06
1.90061e-06
5.90091e-06
-1.87462e-06
2.28458e-06
6.01866e-06
-1.83984e-06
2.08164e-06
-5.69509e-06
2.69186e-06
-2.74362e-06
-7.98808e-06
5.76309e-06
-5.08625e-06
-1.40535e-05
3.90517e-06
-3.16631e-06
1.26649e-05
-2.19588e-06
8.48581e-07
-3.97038e-06
-6.84105e-07
1.79497e-06
3.33326e-06
-1.29065e-06
1.11003e-06
-4.06146e-06
8.39199e-07
-9.12813e-07
-1.71787e-06
-1.19158e-06
6.57529e-07
2.06394e-06
7.26194e-07
-1.01682e-06
-1.78965e-06
-2.69061e-06
3.579e-06
-9.09042e-06
6.61351e-07
-4.11212e-07
1.90068e-06
5.9066e-06
-4.08331e-06
-1.17695e-05
-7.19919e-07
3.12905e-07
-1.34303e-06
1.89065e-06
-9.86885e-07
5.02671e-06
-1.99597e-06
2.21037e-06
-5.43419e-06
-1.61663e-07
-3.47488e-07
3.75017e-08
-4.43149e-07
5.05519e-07
1.0536e-06
-1.04043e-06
1.57782e-06
4.42596e-06
-3.56976e-05
-1.59935e-06
3.83502e-05
-5.89622e-06
6.58661e-06
-1.56375e-05
-2.023e-05
-7.79713e-07
2.03409e-05
-1.3499e-06
5.2841e-07
2.55109e-06
-2.05687e-05
-1.14112e-07
7.70614e-06
-1.29077e-06
6.24284e-07
1.57104e-06
5.30189e-07
-7.78278e-07
-1.55469e-06
-8.83554e-07
1.19542e-06
-1.76788e-06
-0.000280815
8.60273e-05
0.000151253
-4.62994e-08
1.92972e-07
3.68051e-07
-1.9915e-05
3.84569e-06
-7.93091e-07
1.51692e-06
-7.72368e-07
-2.8696e-06
1.28034e-06
-1.6043e-06
4.28568e-06
-4.18748e-08
-2.89697e-05
1.19715e-05
4.9198e-07
-5.38518e-07
-1.88095e-06
3.46938e-05
-0.00033049
0.00026223
5.77936e-07
-6.51354e-07
-1.86949e-06
-2.76208e-05
9.15751e-06
1.84405e-05
-3.33199e-05
6.43662e-06
2.79474e-05
2.92945e-06
-1.32166e-06
-5.07099e-06
-1.59919e-06
1.34509e-06
3.44223e-06
-0.000251483
7.93068e-05
0.000156008
-0.000300337
5.34041e-05
0.000166536
-4.82478e-05
6.54657e-06
1.89011e-05
3.7451e-07
-1.67314e-07
-8.24391e-07
1.67834e-06
-2.48434e-06
4.59673e-06
-2.39761e-06
1.7205e-06
6.23057e-06
-1.49156e-06
2.95779e-06
-6.17376e-06
-3.29472e-05
-3.1453e-07
2.92162e-05
-0.000291801
5.95898e-05
0.000149892
3.40572e-07
-1.95682e-07
7.10274e-07
-2.26766e-05
7.70656e-07
1.27317e-05
4.85039e-07
-5.65728e-07
1.33955e-06
-8.66031e-07
5.06996e-07
-2.25691e-06
-6.74181e-07
1.06056e-06