/*--------------------------------*- C++ -*----------------------------------*\
  =========                 |
  \\      /  F ield         | OpenFOAM: The Open Source CFD Toolbox
   \\    /   O peration     | Website:  https://openfoam.org
    \\  /    A nd           | Version:  6
     \\/     M anipulation  |
\*---------------------------------------------------------------------------*/
FoamFile
{
    version     2.0;
    format      ascii;
    class       volVectorField;
    location    "4.3";
    object      U;
}
// * * * * * * * * * * * * * * * * * * * * * * * * * * * * * * * * * * * * * //

dimensions      [0 1 -1 0 0 0 0];

internalField   nonuniform List<vector> 
10000
(
(0.894399 0.447199 0)
(0.8944 0.447199 0)
(0.8944 0.4472 0)
(0.8944 0.4472 0)
(0.8944 0.4472 0)
(0.8944 0.4472 0)
(0.8944 0.4472 0)
(0.8944 0.4472 0)
(0.8944 0.4472 0)
(0.8944 0.4472 0)
(0.8944 0.4472 0)
(0.8944 0.4472 0)
(0.8944 0.4472 0)
(0.8944 0.4472 0)
(0.8944 0.4472 0)
(0.8944 0.4472 0)
(0.8944 0.4472 0)
(0.8944 0.4472 0)
(0.8944 0.4472 0)
(0.8944 0.4472 0)
(0.8944 0.4472 0)
(0.8944 0.4472 0)
(0.8944 0.4472 0)
(0.8944 0.4472 0)
(0.8944 0.4472 0)
(0.8944 0.4472 0)
(0.8944 0.4472 0)
(0.8944 0.4472 0)
(0.8944 0.4472 0)
(0.8944 0.4472 0)
(0.8944 0.4472 0)
(0.8944 0.4472 0)
(0.8944 0.4472 0)
(0.8944 0.4472 0)
(0.8944 0.4472 0)
(0.8944 0.4472 0)
(0.8944 0.4472 0)
(0.894399 0.4472 0)
(0.894399 0.447201 0)
(0.894399 0.447202 0)
(0.894398 0.447202 0)
(0.894397 0.447204 0)
(0.894397 0.447206 0)
(0.894397 0.447208 0)
(0.894397 0.44721 0)
(0.894399 0.447212 0)
(0.894403 0.447213 0)
(0.89441 0.447212 0)
(0.894419 0.44721 0)
(0.894431 0.447205 0)
(0.894442 0.447199 0)
(0.894452 0.447193 0)
(0.894456 0.447193 0)
(0.89445 0.447204 0)
(0.89443 0.447234 0)
(0.894392 0.447292 0)
(0.894335 0.447388 0)
(0.89426 0.447529 0)
(0.894171 0.44772 0)
(0.894075 0.447961 0)
(0.893979 0.448249 0)
(0.893892 0.448574 0)
(0.893824 0.448924 0)
(0.893783 0.449283 0)
(0.893774 0.449631 0)
(0.8938 0.44995 0)
(0.89386 0.450224 0)
(0.893952 0.450436 0)
(0.89407 0.450575 0)
(0.894205 0.450634 0)
(0.894347 0.450611 0)
(0.894488 0.450507 0)
(0.894617 0.450331 0)
(0.894726 0.450094 0)
(0.89481 0.449812 0)
(0.894866 0.449501 0)
(0.894895 0.44918 0)
(0.894898 0.448863 0)
(0.89488 0.448564 0)
(0.894845 0.448292 0)
(0.894799 0.448053 0)
(0.894747 0.447849 0)
(0.894693 0.447681 0)
(0.89464 0.447546 0)
(0.89459 0.447441 0)
(0.894546 0.447361 0)
(0.894509 0.447302 0)
(0.894478 0.447261 0)
(0.894454 0.447233 0)
(0.894435 0.447215 0)
(0.894422 0.447204 0)
(0.894412 0.447198 0)
(0.894406 0.447195 0)
(0.894402 0.447194 0)
(0.8944 0.447195 0)
(0.894399 0.447196 0)
(0.894399 0.447196 0)
(0.894399 0.447197 0)
(0.894399 0.447198 0)
(0.894399 0.447199 0)
(0.894399 0.447199 0)
(0.894399 0.447199 0)
(0.8944 0.4472 0)
(0.8944 0.4472 0)
(0.8944 0.4472 0)
(0.8944 0.4472 0)
(0.8944 0.4472 0)
(0.8944 0.4472 0)
(0.8944 0.4472 0)
(0.8944 0.4472 0)
(0.8944 0.4472 0)
(0.8944 0.4472 0)
(0.8944 0.4472 0)
(0.8944 0.4472 0)
(0.8944 0.4472 0)
(0.8944 0.4472 0)
(0.8944 0.4472 0)
(0.8944 0.4472 0)
(0.8944 0.4472 0)
(0.8944 0.4472 0)
(0.8944 0.4472 0)
(0.8944 0.4472 0)
(0.8944 0.4472 0)
(0.8944 0.4472 0)
(0.8944 0.4472 0)
(0.8944 0.4472 0)
(0.8944 0.4472 0)
(0.8944 0.4472 0)
(0.8944 0.4472 0)
(0.8944 0.4472 0)
(0.8944 0.4472 0)
(0.8944 0.4472 0)
(0.8944 0.4472 0)
(0.8944 0.4472 0)
(0.8944 0.4472 0)
(0.8944 0.4472 0)
(0.8944 0.4472 0)
(0.894399 0.447201 0)
(0.894399 0.447201 0)
(0.894398 0.447202 0)
(0.894397 0.447204 0)
(0.894396 0.447206 0)
(0.894395 0.447208 0)
(0.894395 0.447211 0)
(0.894395 0.447214 0)
(0.894398 0.447218 0)
(0.894403 0.44722 0)
(0.894411 0.44722 0)
(0.894422 0.447219 0)
(0.894434 0.447217 0)
(0.894445 0.447215 0)
(0.894451 0.447218 0)
(0.894447 0.447233 0)
(0.894425 0.44727 0)
(0.894382 0.44734 0)
(0.894314 0.447458 0)
(0.894219 0.447634 0)
(0.894102 0.447877 0)
(0.893968 0.448192 0)
(0.893829 0.448577 0)
(0.893697 0.449023 0)
(0.893585 0.449515 0)
(0.893504 0.450033 0)
(0.893466 0.450553 0)
(0.893476 0.451049 0)
(0.893537 0.451495 0)
(0.893646 0.451869 0)
(0.893799 0.452152 0)
(0.893985 0.452328 0)
(0.894192 0.452389 0)
(0.894407 0.452333 0)
(0.894615 0.452163 0)
(0.894804 0.451889 0)
(0.894961 0.451528 0)
(0.895078 0.4511 0)
(0.895152 0.45063 0)
(0.895184 0.450144 0)
(0.895176 0.449666 0)
(0.895138 0.449214 0)
(0.895075 0.448805 0)
(0.894998 0.448446 0)
(0.894913 0.448143 0)
(0.894828 0.447893 0)
(0.894747 0.447695 0)
(0.894672 0.447541 0)
(0.894607 0.447426 0)
(0.894553 0.447342 0)
(0.894508 0.447283 0)
(0.894474 0.447243 0)
(0.894448 0.447218 0)
(0.894429 0.447203 0)
(0.894416 0.447195 0)
(0.894408 0.447192 0)
(0.894402 0.447191 0)
(0.8944 0.447192 0)
(0.894398 0.447193 0)
(0.894398 0.447195 0)
(0.894398 0.447196 0)
(0.894398 0.447197 0)
(0.894399 0.447198 0)
(0.894399 0.447198 0)
(0.894399 0.447199 0)
(0.894399 0.447199 0)
(0.8944 0.4472 0)
(0.8944 0.4472 0)
(0.8944 0.4472 0)
(0.8944 0.4472 0)
(0.8944 0.4472 0)
(0.8944 0.4472 0)
(0.8944 0.4472 0)
(0.8944 0.4472 0)
(0.8944 0.4472 0)
(0.8944 0.4472 0)
(0.8944 0.4472 0)
(0.8944 0.4472 0)
(0.8944 0.4472 0)
(0.8944 0.4472 0)
(0.8944 0.4472 0)
(0.8944 0.4472 0)
(0.8944 0.4472 0)
(0.8944 0.4472 0)
(0.8944 0.4472 0)
(0.8944 0.4472 0)
(0.8944 0.4472 0)
(0.8944 0.4472 0)
(0.8944 0.4472 0)
(0.8944 0.4472 0)
(0.8944 0.4472 0)
(0.8944 0.4472 0)
(0.8944 0.4472 0)
(0.8944 0.4472 0)
(0.8944 0.4472 0)
(0.8944 0.4472 0)
(0.8944 0.4472 0)
(0.8944 0.4472 0)
(0.8944 0.4472 0)
(0.894399 0.4472 0)
(0.894399 0.447201 0)
(0.894398 0.447202 0)
(0.894397 0.447203 0)
(0.894396 0.447205 0)
(0.894394 0.447208 0)
(0.894392 0.447212 0)
(0.894392 0.447216 0)
(0.894392 0.447221 0)
(0.894395 0.447226 0)
(0.894401 0.44723 0)
(0.89441 0.447232 0)
(0.894422 0.447234 0)
(0.894434 0.447236 0)
(0.894441 0.447244 0)
(0.894439 0.447263 0)
(0.894417 0.447306 0)
(0.894369 0.447388 0)
(0.894289 0.447525 0)
(0.894172 0.447735 0)
(0.89402 0.448033 0)
(0.89384 0.44843 0)
(0.893645 0.448926 0)
(0.893449 0.449515 0)
(0.893272 0.450181 0)
(0.89313 0.450899 0)
(0.89304 0.451639 0)
(0.893014 0.452368 0)
(0.893058 0.453051 0)
(0.893173 0.453656 0)
(0.893356 0.454154 0)
(0.893595 0.454522 0)
(0.893878 0.454743 0)
(0.894188 0.454806 0)
(0.894504 0.454709 0)
(0.894809 0.454455 0)
(0.895083 0.454057 0)
(0.895309 0.453536 0)
(0.895475 0.452917 0)
(0.895577 0.452236 0)
(0.895614 0.451527 0)
(0.895592 0.450825 0)
(0.895523 0.450159 0)
(0.895419 0.449554 0)
(0.895294 0.449024 0)
(0.895161 0.448575 0)
(0.895028 0.448207 0)
(0.894904 0.447914 0)
(0.894792 0.44769 0)
(0.894696 0.447522 0)
(0.894616 0.447401 0)
(0.894552 0.447316 0)
(0.894502 0.44726 0)
(0.894465 0.447224 0)
(0.894439 0.447204 0)
(0.894421 0.447193 0)
(0.894409 0.447188 0)
(0.894402 0.447187 0)
(0.894399 0.447188 0)
(0.894397 0.44719 0)
(0.894397 0.447192 0)
(0.894397 0.447194 0)
(0.894397 0.447196 0)
(0.894398 0.447197 0)
(0.894398 0.447197 0)
(0.894399 0.447198 0)
(0.894399 0.447199 0)
(0.894399 0.447199 0)
(0.8944 0.4472 0)
(0.8944 0.4472 0)
(0.8944 0.4472 0)
(0.8944 0.4472 0)
(0.8944 0.4472 0)
(0.8944 0.4472 0)
(0.8944 0.4472 0)
(0.8944 0.4472 0)
(0.8944 0.4472 0)
(0.8944 0.4472 0)
(0.8944 0.4472 0)
(0.8944 0.4472 0)
(0.8944 0.4472 0)
(0.8944 0.4472 0)
(0.8944 0.4472 0)
(0.8944 0.4472 0)
(0.8944 0.4472 0)
(0.8944 0.4472 0)
(0.8944 0.4472 0)
(0.8944 0.4472 0)
(0.8944 0.4472 0)
(0.8944 0.4472 0)
(0.8944 0.4472 0)
(0.8944 0.4472 0)
(0.8944 0.4472 0)
(0.8944 0.4472 0)
(0.8944 0.4472 0)
(0.8944 0.4472 0)
(0.8944 0.4472 0)
(0.8944 0.4472 0)
(0.8944 0.4472 0)
(0.894399 0.4472 0)
(0.894399 0.447201 0)
(0.894398 0.447201 0)
(0.894397 0.447203 0)
(0.894396 0.447204 0)
(0.894394 0.447207 0)
(0.894391 0.447211 0)
(0.894389 0.447216 0)
(0.894388 0.447223 0)
(0.894388 0.447229 0)
(0.894391 0.447237 0)
(0.894398 0.447244 0)
(0.894407 0.44725 0)
(0.894418 0.447257 0)
(0.894427 0.447269 0)
(0.894425 0.447292 0)
(0.894404 0.44734 0)
(0.894353 0.44743 0)
(0.894262 0.447583 0)
(0.894122 0.447824 0)
(0.893931 0.448176 0)
(0.893697 0.448655 0)
(0.89343 0.449271 0)
(0.893151 0.450019 0)
(0.892884 0.450885 0)
(0.892653 0.45184 0)
(0.892482 0.452847 0)
(0.892391 0.453865 0)
(0.892392 0.454848 0)
(0.892491 0.455752 0)
(0.892688 0.456541 0)
(0.892973 0.457179 0)
(0.893331 0.457643 0)
(0.893745 0.457913 0)
(0.894191 0.457978 0)
(0.894645 0.457835 0)
(0.895081 0.457487 0)
(0.895473 0.456947 0)
(0.895798 0.456236 0)
(0.896038 0.455388 0)
(0.896183 0.454443 0)
(0.896233 0.453448 0)
(0.896195 0.452452 0)
(0.896085 0.4515 0)
(0.895923 0.450627 0)
(0.89573 0.449857 0)
(0.895525 0.449202 0)
(0.895322 0.448665 0)
(0.895134 0.448238 0)
(0.894967 0.447909 0)
(0.894824 0.447665 0)
(0.894707 0.447489 0)
(0.894614 0.447367 0)
(0.894542 0.447286 0)
(0.89449 0.447235 0)
(0.894453 0.447205 0)
(0.894428 0.44719 0)
(0.894412 0.447183 0)
(0.894402 0.447182 0)
(0.894397 0.447183 0)
(0.894395 0.447186 0)
(0.894395 0.447189 0)
(0.894395 0.447192 0)
(0.894396 0.447194 0)
(0.894397 0.447196 0)
(0.894397 0.447196 0)
(0.894398 0.447198 0)
(0.894399 0.447198 0)
(0.894399 0.447199 0)
(0.894399 0.447199 0)
(0.8944 0.4472 0)
(0.8944 0.4472 0)
(0.8944 0.4472 0)
(0.8944 0.4472 0)
(0.8944 0.4472 0)
(0.8944 0.4472 0)
(0.8944 0.4472 0)
(0.8944 0.4472 0)
(0.8944 0.4472 0)
(0.8944 0.4472 0)
(0.8944 0.4472 0)
(0.8944 0.4472 0)
(0.8944 0.4472 0)
(0.8944 0.4472 0)
(0.8944 0.4472 0)
(0.8944 0.4472 0)
(0.8944 0.4472 0)
(0.8944 0.4472 0)
(0.8944 0.4472 0)
(0.8944 0.4472 0)
(0.8944 0.4472 0)
(0.8944 0.4472 0)
(0.8944 0.4472 0)
(0.8944 0.4472 0)
(0.8944 0.4472 0)
(0.8944 0.4472 0)
(0.8944 0.4472 0)
(0.8944 0.4472 0)
(0.8944 0.4472 0)
(0.8944 0.4472 0)
(0.894399 0.447201 0)
(0.894398 0.447201 0)
(0.894397 0.447202 0)
(0.894396 0.447204 0)
(0.894393 0.447206 0)
(0.894391 0.44721 0)
(0.894388 0.447216 0)
(0.894384 0.447223 0)
(0.894382 0.447231 0)
(0.894382 0.447241 0)
(0.894385 0.447251 0)
(0.894391 0.447262 0)
(0.8944 0.447274 0)
(0.894408 0.447291 0)
(0.894407 0.447318 0)
(0.894388 0.44737 0)
(0.894335 0.447465 0)
(0.894235 0.447628 0)
(0.894073 0.447893 0)
(0.893844 0.448289 0)
(0.893547 0.448846 0)
(0.893197 0.449581 0)
(0.892814 0.450496 0)
(0.892428 0.451579 0)
(0.892075 0.4528 0)
(0.891787 0.454113 0)
(0.891594 0.455466 0)
(0.891518 0.456802 0)
(0.89157 0.458065 0)
(0.891753 0.459206 0)
(0.892063 0.460183 0)
(0.892484 0.460962 0)
(0.892997 0.461518 0)
(0.893577 0.461836 0)
(0.894196 0.461904 0)
(0.894825 0.461719 0)
(0.895431 0.461281 0)
(0.895981 0.4606 0)
(0.896444 0.459694 0)
(0.896793 0.458596 0)
(0.897009 0.457352 0)
(0.897089 0.45602 0)
(0.897039 0.454664 0)
(0.896882 0.453347 0)
(0.896645 0.452123 0)
(0.896358 0.451032 0)
(0.896052 0.450097 0)
(0.895749 0.449324 0)
(0.895469 0.448707 0)
(0.895221 0.448232 0)
(0.89501 0.447878 0)
(0.894839 0.447623 0)
(0.894704 0.447446 0)
(0.894601 0.447328 0)
(0.894526 0.447254 0)
(0.894473 0.447211 0)
(0.894438 0.447187 0)
(0.894415 0.447177 0)
(0.894402 0.447175 0)
(0.894395 0.447177 0)
(0.894393 0.447181 0)
(0.894392 0.447185 0)
(0.894393 0.447189 0)
(0.894394 0.447192 0)
(0.894396 0.447194 0)
(0.894396 0.447195 0)
(0.894397 0.447197 0)
(0.894398 0.447198 0)
(0.894399 0.447199 0)
(0.894399 0.447199 0)
(0.8944 0.4472 0)
(0.8944 0.4472 0)
(0.8944 0.4472 0)
(0.8944 0.4472 0)
(0.8944 0.4472 0)
(0.8944 0.4472 0)
(0.8944 0.4472 0)
(0.8944 0.4472 0)
(0.8944 0.4472 0)
(0.8944 0.4472 0)
(0.8944 0.4472 0)
(0.8944 0.4472 0)
(0.8944 0.4472 0)
(0.8944 0.4472 0)
(0.8944 0.4472 0)
(0.8944 0.4472 0)
(0.8944 0.4472 0)
(0.8944 0.4472 0)
(0.8944 0.4472 0)
(0.8944 0.4472 0)
(0.8944 0.4472 0)
(0.8944 0.4472 0)
(0.8944 0.4472 0)
(0.8944 0.4472 0)
(0.8944 0.4472 0)
(0.8944 0.4472 0)
(0.8944 0.4472 0)
(0.8944 0.4472 0)
(0.8944 0.4472 0)
(0.894399 0.447201 0)
(0.894399 0.447201 0)
(0.894398 0.447202 0)
(0.894396 0.447203 0)
(0.894394 0.447206 0)
(0.894391 0.447209 0)
(0.894387 0.447214 0)
(0.894382 0.447221 0)
(0.894377 0.447231 0)
(0.894374 0.447242 0)
(0.894373 0.447255 0)
(0.894375 0.44727 0)
(0.89438 0.447287 0)
(0.894386 0.447308 0)
(0.894385 0.44734 0)
(0.894367 0.447394 0)
(0.894316 0.44749 0)
(0.894211 0.447658 0)
(0.894032 0.447935 0)
(0.893765 0.448363 0)
(0.893405 0.448984 0)
(0.892961 0.449827 0)
(0.892455 0.450905 0)
(0.891924 0.452211 0)
(0.891413 0.453712 0)
(0.890967 0.455356 0)
(0.890629 0.457078 0)
(0.890433 0.458804 0)
(0.890398 0.460465 0)
(0.890535 0.461996 0)
(0.890838 0.463348 0)
(0.891295 0.464481 0)
(0.891886 0.465369 0)
(0.892584 0.465995 0)
(0.893361 0.466348 0)
(0.894186 0.466421 0)
(0.895023 0.466208 0)
(0.895837 0.465708 0)
(0.896589 0.46492 0)
(0.897237 0.463853 0)
(0.897742 0.46253 0)
(0.898073 0.460993 0)
(0.898215 0.459305 0)
(0.898174 0.457545 0)
(0.897972 0.455799 0)
(0.897646 0.454144 0)
(0.897241 0.452645 0)
(0.8968 0.451342 0)
(0.89636 0.450253 0)
(0.89595 0.449378 0)
(0.895587 0.448698 0)
(0.89528 0.448189 0)
(0.89503 0.447822 0)
(0.894834 0.447566 0)
(0.894686 0.447395 0)
(0.894578 0.447287 0)
(0.894503 0.447223 0)
(0.894452 0.447188 0)
(0.894421 0.447172 0)
(0.894403 0.447168 0)
(0.894393 0.44717 0)
(0.894389 0.447174 0)
(0.894389 0.44718 0)
(0.89439 0.447185 0)
(0.894392 0.447189 0)
(0.894394 0.447192 0)
(0.894394 0.447193 0)
(0.894396 0.447196 0)
(0.894397 0.447197 0)
(0.894398 0.447198 0)
(0.894399 0.447199 0)
(0.894399 0.447199 0)
(0.8944 0.4472 0)
(0.8944 0.4472 0)
(0.8944 0.4472 0)
(0.8944 0.4472 0)
(0.8944 0.4472 0)
(0.8944 0.4472 0)
(0.8944 0.4472 0)
(0.8944 0.4472 0)
(0.8944 0.4472 0)
(0.8944 0.4472 0)
(0.8944 0.4472 0)
(0.8944 0.4472 0)
(0.8944 0.4472 0)
(0.8944 0.4472 0)
(0.8944 0.4472 0)
(0.8944 0.4472 0)
(0.8944 0.4472 0)
(0.8944 0.4472 0)
(0.8944 0.4472 0)
(0.8944 0.4472 0)
(0.8944 0.4472 0)
(0.8944 0.4472 0)
(0.8944 0.4472 0)
(0.8944 0.4472 0)
(0.8944 0.4472 0)
(0.8944 0.4472 0)
(0.8944 0.4472 0)
(0.894399 0.4472 0)
(0.894399 0.447201 0)
(0.894398 0.447201 0)
(0.894397 0.447202 0)
(0.894395 0.447204 0)
(0.894391 0.447207 0)
(0.894387 0.447212 0)
(0.894381 0.447219 0)
(0.894375 0.447229 0)
(0.894368 0.447241 0)
(0.894363 0.447256 0)
(0.894361 0.447274 0)
(0.894361 0.447295 0)
(0.894363 0.44732 0)
(0.894361 0.447355 0)
(0.894344 0.44741 0)
(0.894295 0.447505 0)
(0.89419 0.44767 0)
(0.894001 0.447948 0)
(0.893705 0.448391 0)
(0.893286 0.449053 0)
(0.892744 0.449982 0)
(0.892102 0.451206 0)
(0.891401 0.452725 0)
(0.890696 0.454507 0)
(0.89005 0.456491 0)
(0.889521 0.458597 0)
(0.889157 0.460731 0)
(0.888994 0.462801 0)
(0.889044 0.464729 0)
(0.889307 0.466451 0)
(0.889768 0.467927 0)
(0.890405 0.469131 0)
(0.891191 0.470055 0)
(0.892094 0.470696 0)
(0.893084 0.471055 0)
(0.894128 0.471132 0)
(0.895194 0.470923 0)
(0.896244 0.470418 0)
(0.897236 0.469602 0)
(0.898119 0.468466 0)
(0.89884 0.467009 0)
(0.899348 0.465255 0)
(0.899612 0.46326 0)
(0.899622 0.461109 0)
(0.899398 0.458908 0)
(0.898985 0.456766 0)
(0.898443 0.45478 0)
(0.897834 0.453021 0)
(0.897215 0.451528 0)
(0.89663 0.450311 0)
(0.896109 0.449358 0)
(0.895666 0.448637 0)
(0.895306 0.448113 0)
(0.895023 0.447746 0)
(0.89481 0.447499 0)
(0.894655 0.447341 0)
(0.894547 0.447246 0)
(0.894475 0.447194 0)
(0.89443 0.447169 0)
(0.894404 0.447161 0)
(0.894391 0.447161 0)
(0.894385 0.447167 0)
(0.894384 0.447173 0)
(0.894386 0.44718 0)
(0.894389 0.447185 0)
(0.894391 0.44719 0)
(0.894391 0.447191 0)
(0.894394 0.447194 0)
(0.894396 0.447196 0)
(0.894397 0.447198 0)
(0.894398 0.447199 0)
(0.894399 0.447199 0)
(0.894399 0.447199 0)
(0.8944 0.4472 0)
(0.8944 0.4472 0)
(0.8944 0.4472 0)
(0.8944 0.4472 0)
(0.8944 0.4472 0)
(0.8944 0.4472 0)
(0.8944 0.4472 0)
(0.8944 0.4472 0)
(0.8944 0.4472 0)
(0.8944 0.4472 0)
(0.8944 0.4472 0)
(0.8944 0.4472 0)
(0.8944 0.4472 0)
(0.8944 0.4472 0)
(0.8944 0.4472 0)
(0.8944 0.4472 0)
(0.8944 0.4472 0)
(0.8944 0.4472 0)
(0.8944 0.4472 0)
(0.8944 0.4472 0)
(0.8944 0.4472 0)
(0.8944 0.4472 0)
(0.8944 0.4472 0)
(0.8944 0.4472 0)
(0.8944 0.4472 0)
(0.8944 0.4472 0)
(0.894399 0.4472 0)
(0.894398 0.447201 0)
(0.894398 0.447202 0)
(0.894395 0.447203 0)
(0.894393 0.447206 0)
(0.894388 0.44721 0)
(0.894382 0.447216 0)
(0.894374 0.447225 0)
(0.894366 0.447237 0)
(0.894357 0.447254 0)
(0.894349 0.447273 0)
(0.894344 0.447297 0)
(0.894341 0.447326 0)
(0.894335 0.447364 0)
(0.894319 0.447419 0)
(0.894273 0.44751 0)
(0.894173 0.447666 0)
(0.893984 0.447934 0)
(0.89367 0.448371 0)
(0.893202 0.449049 0)
(0.89257 0.450032 0)
(0.891787 0.451369 0)
(0.890897 0.453074 0)
(0.889967 0.455119 0)
(0.889077 0.457436 0)
(0.88831 0.459923 0)
(0.887733 0.46246 0)
(0.887397 0.464928 0)
(0.887324 0.467224 0)
(0.887516 0.46927 0)
(0.887954 0.471022 0)
(0.888607 0.472459 0)
(0.889443 0.473588 0)
(0.890427 0.474426 0)
(0.891528 0.474995 0)
(0.892718 0.475314 0)
(0.89397 0.475392 0)
(0.895257 0.475228 0)
(0.896548 0.474804 0)
(0.897803 0.474089 0)
(0.898967 0.473041 0)
(0.89997 0.471625 0)
(0.900739 0.469826 0)
(0.901212 0.467671 0)
(0.901353 0.465234 0)
(0.901166 0.462631 0)
(0.900697 0.460003 0)
(0.900019 0.457489 0)
(0.899218 0.455201 0)
(0.898379 0.453218 0)
(0.897569 0.451573 0)
(0.896838 0.450264 0)
(0.89621 0.449264 0)
(0.895697 0.448528 0)
(0.895294 0.448008 0)
(0.894989 0.447656 0)
(0.894767 0.447428 0)
(0.894613 0.447288 0)
(0.89451 0.447209 0)
(0.894446 0.44717 0)
(0.894408 0.447155 0)
(0.894389 0.447153 0)
(0.894381 0.447158 0)
(0.894379 0.447166 0)
(0.894381 0.447174 0)
(0.894384 0.447181 0)
(0.894388 0.447187 0)
(0.894388 0.447188 0)
(0.894392 0.447192 0)
(0.894394 0.447195 0)
(0.894396 0.447197 0)
(0.894398 0.447198 0)
(0.894399 0.447199 0)
(0.894399 0.447199 0)
(0.8944 0.4472 0)
(0.8944 0.4472 0)
(0.8944 0.4472 0)
(0.8944 0.4472 0)
(0.8944 0.4472 0)
(0.8944 0.4472 0)
(0.8944 0.4472 0)
(0.8944 0.4472 0)
(0.8944 0.4472 0)
(0.8944 0.4472 0)
(0.8944 0.4472 0)
(0.8944 0.4472 0)
(0.8944 0.4472 0)
(0.8944 0.4472 0)
(0.8944 0.4472 0)
(0.8944 0.4472 0)
(0.8944 0.4472 0)
(0.8944 0.4472 0)
(0.8944 0.4472 0)
(0.8944 0.4472 0)
(0.8944 0.4472 0)
(0.8944 0.4472 0)
(0.8944 0.4472 0)
(0.8944 0.4472 0)
(0.8944 0.4472 0)
(0.8944 0.4472 0)
(0.894399 0.447201 0)
(0.894398 0.447201 0)
(0.894397 0.447202 0)
(0.894394 0.447204 0)
(0.89439 0.447208 0)
(0.894384 0.447213 0)
(0.894376 0.447221 0)
(0.894365 0.447233 0)
(0.894354 0.447248 0)
(0.894341 0.447269 0)
(0.894331 0.447294 0)
(0.894321 0.447326 0)
(0.894311 0.447365 0)
(0.894293 0.447421 0)
(0.894251 0.447506 0)
(0.894159 0.447649 0)
(0.893978 0.447896 0)
(0.893661 0.44831 0)
(0.893164 0.448972 0)
(0.892458 0.449969 0)
(0.891542 0.451374 0)
(0.890456 0.453221 0)
(0.889276 0.455495 0)
(0.888106 0.458117 0)
(0.887053 0.460966 0)
(0.886218 0.463886 0)
(0.885669 0.466721 0)
(0.885442 0.469333 0)
(0.885541 0.471625 0)
(0.885938 0.473541 0)
(0.88659 0.475072 0)
(0.887451 0.476241 0)
(0.888476 0.477095 0)
(0.889629 0.47769 0)
(0.890885 0.478077 0)
(0.892225 0.478297 0)
(0.893634 0.47837 0)
(0.895099 0.478299 0)
(0.896602 0.478059 0)
(0.898113 0.477601 0)
(0.899582 0.476852 0)
(0.900929 0.475727 0)
(0.902054 0.474155 0)
(0.902853 0.472105 0)
(0.903248 0.46961 0)
(0.903209 0.466775 0)
(0.902762 0.46376 0)
(0.901989 0.460747 0)
(0.900999 0.457907 0)
(0.899912 0.455372 0)
(0.89883 0.453219 0)
(0.897831 0.451473 0)
(0.896962 0.450116 0)
(0.896244 0.449105 0)
(0.895676 0.448382 0)
(0.895244 0.447885 0)
(0.89493 0.447559 0)
(0.894711 0.447357 0)
(0.894564 0.44724 0)
(0.894471 0.447178 0)
(0.894417 0.447152 0)
(0.894388 0.447145 0)
(0.894376 0.447149 0)
(0.894373 0.447158 0)
(0.894375 0.447167 0)
(0.894379 0.447176 0)
(0.894384 0.447183 0)
(0.894384 0.447185 0)
(0.894389 0.44719 0)
(0.894392 0.447194 0)
(0.894395 0.447196 0)
(0.894397 0.447198 0)
(0.894398 0.447199 0)
(0.894399 0.447199 0)
(0.894399 0.4472 0)
(0.8944 0.4472 0)
(0.8944 0.4472 0)
(0.8944 0.4472 0)
(0.8944 0.4472 0)
(0.8944 0.4472 0)
(0.8944 0.4472 0)
(0.8944 0.4472 0)
(0.8944 0.4472 0)
(0.8944 0.4472 0)
(0.8944 0.4472 0)
(0.8944 0.4472 0)
(0.8944 0.4472 0)
(0.8944 0.4472 0)
(0.8944 0.4472 0)
(0.8944 0.4472 0)
(0.8944 0.4472 0)
(0.8944 0.4472 0)
(0.8944 0.4472 0)
(0.8944 0.4472 0)
(0.8944 0.4472 0)
(0.8944 0.4472 0)
(0.8944 0.4472 0)
(0.8944 0.4472 0)
(0.894399 0.4472 0)
(0.894399 0.447201 0)
(0.894399 0.447201 0)
(0.894397 0.447202 0)
(0.894395 0.447203 0)
(0.894392 0.447206 0)
(0.894386 0.44721 0)
(0.894378 0.447217 0)
(0.894367 0.447227 0)
(0.894354 0.447242 0)
(0.894339 0.447261 0)
(0.894322 0.447287 0)
(0.894307 0.447319 0)
(0.89429 0.44736 0)
(0.89427 0.447414 0)
(0.89423 0.447494 0)
(0.894147 0.447623 0)
(0.893981 0.447842 0)
(0.893677 0.448217 0)
(0.893176 0.448836 0)
(0.892424 0.449803 0)
(0.891398 0.451218 0)
(0.890125 0.453149 0)
(0.888685 0.455594 0)
(0.887202 0.458479 0)
(0.885821 0.461655 0)
(0.884679 0.464927 0)
(0.883879 0.468089 0)
(0.883475 0.470957 0)
(0.883469 0.4734 0)
(0.883825 0.475351 0)
(0.88448 0.476806 0)
(0.885363 0.477811 0)
(0.886408 0.478447 0)
(0.887567 0.47881 0)
(0.888813 0.478999 0)
(0.890132 0.479096 0)
(0.891527 0.47916 0)
(0.893001 0.479224 0)
(0.894561 0.479291 0)
(0.896209 0.479334 0)
(0.897935 0.479289 0)
(0.899702 0.479058 0)
(0.901432 0.478507 0)
(0.903002 0.477497 0)
(0.904265 0.475914 0)
(0.90508 0.473716 0)
(0.905356 0.470957 0)
(0.905077 0.467786 0)
(0.90431 0.464418 0)
(0.903183 0.461085 0)
(0.901852 0.457991 0)
(0.900467 0.45528 0)
(0.899148 0.453025 0)
(0.897976 0.451236 0)
(0.896992 0.44988 0)
(0.896205 0.448895 0)
(0.895604 0.448209 0)
(0.895162 0.447752 0)
(0.894852 0.447464 0)
(0.894644 0.447292 0)
(0.894512 0.447199 0)
(0.894433 0.447155 0)
(0.894391 0.44714 0)
(0.894371 0.447141 0)
(0.894366 0.447149 0)
(0.894367 0.44716 0)
(0.894373 0.44717 0)
(0.894379 0.447178 0)
(0.894379 0.447182 0)
(0.894385 0.447188 0)
(0.89439 0.447192 0)
(0.894393 0.447195 0)
(0.894396 0.447197 0)
(0.894397 0.447198 0)
(0.894398 0.447199 0)
(0.894399 0.447199 0)
(0.894399 0.4472 0)
(0.8944 0.4472 0)
(0.8944 0.4472 0)
(0.8944 0.4472 0)
(0.8944 0.4472 0)
(0.8944 0.4472 0)
(0.8944 0.4472 0)
(0.8944 0.4472 0)
(0.8944 0.4472 0)
(0.8944 0.4472 0)
(0.8944 0.4472 0)
(0.8944 0.4472 0)
(0.8944 0.4472 0)
(0.8944 0.4472 0)
(0.8944 0.4472 0)
(0.8944 0.4472 0)
(0.8944 0.4472 0)
(0.8944 0.4472 0)
(0.8944 0.4472 0)
(0.8944 0.4472 0)
(0.8944 0.4472 0)
(0.8944 0.4472 0)
(0.8944 0.4472 0)
(0.894399 0.4472 0)
(0.894399 0.447201 0)
(0.894398 0.447201 0)
(0.894396 0.447202 0)
(0.894393 0.447204 0)
(0.894389 0.447208 0)
(0.894381 0.447212 0)
(0.894371 0.447221 0)
(0.894357 0.447234 0)
(0.89434 0.447252 0)
(0.89432 0.447276 0)
(0.894298 0.447307 0)
(0.894276 0.447348 0)
(0.89425 0.447401 0)
(0.894211 0.447475 0)
(0.894137 0.447589 0)
(0.89399 0.447779 0)
(0.893712 0.448105 0)
(0.893232 0.448658 0)
(0.892471 0.449552 0)
(0.891376 0.450918 0)
(0.889944 0.452856 0)
(0.88825 0.455401 0)
(0.886437 0.458486 0)
(0.88469 0.461942 0)
(0.883196 0.46553 0)
(0.882104 0.46898 0)
(0.881497 0.47205 0)
(0.881386 0.474562 0)
(0.881717 0.476426 0)
(0.882398 0.477641 0)
(0.883324 0.478278 0)
(0.884398 0.478455 0)
(0.885547 0.478317 0)
(0.886728 0.478013 0)
(0.887934 0.477675 0)
(0.889179 0.477408 0)
(0.890492 0.477286 0)
(0.891905 0.477344 0)
(0.893448 0.477585 0)
(0.895144 0.477979 0)
(0.897009 0.478461 0)
(0.899029 0.478918 0)
(0.901143 0.479186 0)
(0.903222 0.479061 0)
(0.905078 0.478339 0)
(0.906502 0.476871 0)
(0.907315 0.474613 0)
(0.907423 0.471658 0)
(0.906846 0.468217 0)
(0.905706 0.464569 0)
(0.904192 0.460999 0)
(0.902508 0.457738 0)
(0.900835 0.454935 0)
(0.899303 0.452653 0)
(0.897989 0.450885 0)
(0.896923 0.449576 0)
(0.896098 0.44865 0)
(0.895487 0.448024 0)
(0.895055 0.447621 0)
(0.894762 0.447375 0)
(0.894574 0.447237 0)
(0.894461 0.447167 0)
(0.894398 0.447139 0)
(0.894369 0.447134 0)
(0.894359 0.447141 0)
(0.894359 0.447152 0)
(0.894365 0.447163 0)
(0.894372 0.447173 0)
(0.894373 0.447178 0)
(0.894381 0.447185 0)
(0.894387 0.44719 0)
(0.894391 0.447194 0)
(0.894394 0.447196 0)
(0.894397 0.447198 0)
(0.894398 0.447199 0)
(0.894399 0.447199 0)
(0.894399 0.4472 0)
(0.8944 0.4472 0)
(0.8944 0.4472 0)
(0.8944 0.4472 0)
(0.8944 0.4472 0)
(0.8944 0.4472 0)
(0.8944 0.4472 0)
(0.8944 0.4472 0)
(0.8944 0.4472 0)
(0.8944 0.4472 0)
(0.8944 0.4472 0)
(0.8944 0.4472 0)
(0.8944 0.4472 0)
(0.8944 0.4472 0)
(0.8944 0.4472 0)
(0.8944 0.4472 0)
(0.8944 0.4472 0)
(0.8944 0.4472 0)
(0.8944 0.4472 0)
(0.8944 0.4472 0)
(0.8944 0.4472 0)
(0.8944 0.4472 0)
(0.8944 0.447201 0)
(0.894399 0.4472 0)
(0.894399 0.447201 0)
(0.894397 0.447201 0)
(0.894395 0.447203 0)
(0.894391 0.447205 0)
(0.894385 0.447209 0)
(0.894375 0.447216 0)
(0.894362 0.447226 0)
(0.894344 0.447242 0)
(0.894322 0.447263 0)
(0.894296 0.447293 0)
(0.894269 0.447331 0)
(0.894237 0.447381 0)
(0.894196 0.447449 0)
(0.894128 0.447549 0)
(0.894002 0.44771 0)
(0.893759 0.447985 0)
(0.893321 0.448458 0)
(0.892592 0.449248 0)
(0.89148 0.450505 0)
(0.889943 0.452369 0)
(0.888029 0.454922 0)
(0.885885 0.458124 0)
(0.883741 0.461801 0)
(0.881848 0.465664 0)
(0.880418 0.469373 0)
(0.879578 0.472611 0)
(0.879357 0.475139 0)
(0.879687 0.476832 0)
(0.880437 0.477684 0)
(0.881453 0.477789 0)
(0.882591 0.477308 0)
(0.88374 0.476438 0)
(0.884834 0.475382 0)
(0.885858 0.474325 0)
(0.886838 0.473424 0)
(0.887829 0.472792 0)
(0.888897 0.4725 0)
(0.890107 0.472577 0)
(0.891511 0.473019 0)
(0.893153 0.473796 0)
(0.895069 0.474844 0)
(0.897274 0.476059 0)
(0.899735 0.477271 0)
(0.90234 0.478247 0)
(0.904885 0.478705 0)
(0.907094 0.478379 0)
(0.908689 0.477093 0)
(0.909463 0.474823 0)
(0.909342 0.471719 0)
(0.908405 0.468068 0)
(0.90685 0.46422 0)
(0.904935 0.460506 0)
(0.902912 0.457175 0)
(0.900984 0.454371 0)
(0.899282 0.452139 0)
(0.897871 0.45045 0)
(0.896762 0.449231 0)
(0.895932 0.448392 0)
(0.895337 0.447841 0)
(0.894931 0.447498 0)
(0.894667 0.447299 0)
(0.894506 0.447194 0)
(0.894415 0.447146 0)
(0.89437 0.447131 0)
(0.894353 0.447134 0)
(0.894351 0.447144 0)
(0.894356 0.447157 0)
(0.894365 0.447168 0)
(0.894367 0.447174 0)
(0.894376 0.447182 0)
(0.894383 0.447188 0)
(0.894389 0.447192 0)
(0.894393 0.447195 0)
(0.894395 0.447197 0)
(0.894397 0.447198 0)
(0.894398 0.447199 0)
(0.894399 0.4472 0)
(0.8944 0.4472 0)
(0.8944 0.4472 0)
(0.8944 0.4472 0)
(0.8944 0.4472 0)
(0.8944 0.4472 0)
(0.8944 0.4472 0)
(0.8944 0.4472 0)
(0.8944 0.4472 0)
(0.8944 0.4472 0)
(0.8944 0.4472 0)
(0.8944 0.4472 0)
(0.8944 0.4472 0)
(0.8944 0.4472 0)
(0.8944 0.4472 0)
(0.8944 0.4472 0)
(0.8944 0.4472 0)
(0.8944 0.4472 0)
(0.8944 0.4472 0)
(0.8944 0.4472 0)
(0.8944 0.4472 0)
(0.8944 0.4472 0)
(0.8944 0.4472 0)
(0.894399 0.4472 0)
(0.894399 0.447201 0)
(0.894397 0.447202 0)
(0.894394 0.447203 0)
(0.894389 0.447206 0)
(0.894381 0.447211 0)
(0.894368 0.447219 0)
(0.894352 0.447232 0)
(0.894329 0.447251 0)
(0.894301 0.447276 0)
(0.894269 0.447312 0)
(0.894232 0.447358 0)
(0.894187 0.447419 0)
(0.894124 0.447507 0)
(0.894015 0.447642 0)
(0.893809 0.447866 0)
(0.893429 0.448256 0)
(0.892764 0.448923 0)
(0.891696 0.450024 0)
(0.890129 0.451735 0)
(0.888058 0.454191 0)
(0.885615 0.457409 0)
(0.883061 0.461226 0)
(0.88072 0.465318 0)
(0.878893 0.469268 0)
(0.877776 0.472668 0)
(0.877427 0.475202 0)
(0.877772 0.476696 0)
(0.878641 0.47713 0)
(0.879813 0.476612 0)
(0.881077 0.475345 0)
(0.882266 0.473582 0)
(0.883278 0.471588 0)
(0.88408 0.469607 0)
(0.884701 0.467844 0)
(0.885222 0.466456 0)
(0.88575 0.465545 0)
(0.886401 0.465165 0)
(0.887272 0.465323 0)
(0.888436 0.465999 0)
(0.889947 0.467154 0)
(0.89185 0.468734 0)
(0.894179 0.470655 0)
(0.896935 0.47278 0)
(0.900043 0.474884 0)
(0.903312 0.476656 0)
(0.906433 0.47774 0)
(0.909034 0.477816 0)
(0.910773 0.476701 0)
(0.91144 0.474414 0)
(0.911012 0.471183 0)
(0.909655 0.467378 0)
(0.90766 0.463414 0)
(0.905354 0.459655 0)
(0.903031 0.456354 0)
(0.900901 0.453637 0)
(0.899087 0.451525 0)
(0.897632 0.449966 0)
(0.896525 0.44887 0)
(0.895722 0.448137 0)
(0.895167 0.447671 0)
(0.894802 0.447392 0)
(0.894576 0.447238 0)
(0.894445 0.447163 0)
(0.894377 0.447134 0)
(0.894349 0.44713 0)
(0.894342 0.447138 0)
(0.894347 0.447151 0)
(0.894357 0.447163 0)
(0.894359 0.44717 0)
(0.89437 0.447179 0)
(0.894379 0.447186 0)
(0.894386 0.447191 0)
(0.894391 0.447194 0)
(0.894394 0.447197 0)
(0.894396 0.447198 0)
(0.894398 0.447199 0)
(0.894399 0.447199 0)
(0.894399 0.4472 0)
(0.894399 0.4472 0)
(0.8944 0.4472 0)
(0.8944 0.4472 0)
(0.8944 0.4472 0)
(0.8944 0.4472 0)
(0.8944 0.4472 0)
(0.8944 0.4472 0)
(0.8944 0.4472 0)
(0.8944 0.4472 0)
(0.8944 0.4472 0)
(0.8944 0.4472 0)
(0.8944 0.4472 0)
(0.8944 0.4472 0)
(0.8944 0.4472 0)
(0.8944 0.4472 0)
(0.8944 0.4472 0)
(0.8944 0.4472 0)
(0.8944 0.4472 0)
(0.8944 0.4472 0)
(0.8944 0.4472 0)
(0.894399 0.4472 0)
(0.894399 0.447201 0)
(0.894398 0.447201 0)
(0.894396 0.447202 0)
(0.894392 0.447204 0)
(0.894385 0.447208 0)
(0.894375 0.447214 0)
(0.89436 0.447224 0)
(0.894339 0.447239 0)
(0.89431 0.44726 0)
(0.894276 0.44729 0)
(0.894236 0.447332 0)
(0.894187 0.447387 0)
(0.894126 0.447462 0)
(0.89403 0.447574 0)
(0.893858 0.447755 0)
(0.893541 0.448065 0)
(0.892967 0.448605 0)
(0.891994 0.449525 0)
(0.890482 0.451017 0)
(0.888351 0.453273 0)
(0.885679 0.456384 0)
(0.88273 0.460239 0)
(0.879904 0.464499 0)
(0.877608 0.468676 0)
(0.876141 0.472259 0)
(0.875621 0.474836 0)
(0.875978 0.476167 0)
(0.877001 0.476202 0)
(0.878401 0.47506 0)
(0.879877 0.472973 0)
(0.881181 0.470248 0)
(0.882149 0.467212 0)
(0.882713 0.464177 0)
(0.882902 0.461411 0)
(0.882814 0.459116 0)
(0.882604 0.457431 0)
(0.882448 0.456426 0)
(0.882516 0.456112 0)
(0.882942 0.456462 0)
(0.883813 0.457424 0)
(0.885177 0.458944 0)
(0.887066 0.460971 0)
(0.889512 0.463454 0)
(0.89254 0.466306 0)
(0.896117 0.469362 0)
(0.900098 0.472341 0)
(0.904184 0.474856 0)
(0.907947 0.476479 0)
(0.910917 0.476858 0)
(0.912715 0.475828 0)
(0.913165 0.473476 0)
(0.912338 0.470121 0)
(0.910512 0.466215 0)
(0.908074 0.462222 0)
(0.905417 0.458519 0)
(0.902856 0.455343 0)
(0.900597 0.452793 0)
(0.898738 0.45086 0)
(0.897295 0.44947 0)
(0.896232 0.448519 0)
(0.895488 0.447902 0)
(0.894991 0.447523 0)
(0.894678 0.447306 0)
(0.894493 0.447194 0)
(0.894394 0.447144 0)
(0.894349 0.44713 0)
(0.894335 0.447134 0)
(0.894338 0.447145 0)
(0.894348 0.447158 0)
(0.894351 0.447166 0)
(0.894364 0.447176 0)
(0.894374 0.447184 0)
(0.894383 0.447189 0)
(0.894389 0.447193 0)
(0.894393 0.447196 0)
(0.894396 0.447198 0)
(0.894397 0.447199 0)
(0.894398 0.447199 0)
(0.894399 0.4472 0)
(0.894399 0.4472 0)