/*--------------------------------*- C++ -*----------------------------------*\
  =========                 |
  \\      /  F ield         | OpenFOAM: The Open Source CFD Toolbox
   \\    /   O peration     | Website:  https://openfoam.org
    \\  /    A nd           | Version:  6
     \\/     M anipulation  |
\*---------------------------------------------------------------------------*/
FoamFile
{
    version     2.0;
    format      ascii;
    class       volScalarField;
    location    "2.19";
    object      p;
}
// * * * * * * * * * * * * * * * * * * * * * * * * * * * * * * * * * * * * * //

dimensions      [1 -1 -2 0 0 0 0];

internalField   nonuniform List<scalar> 
5625
(
1.01793
0.999049
0.975293
0.946675
0.91346
0.876324
0.836421
0.795301
0.75482
0.716994
0.683777
0.656726
0.636766
0.62433
0.619635
0.622803
0.633826
0.652472
0.678225
0.710254
0.747294
0.787551
0.828826
0.868955
0.906319
0.940033
0.969685
0.994958
1.01541
1.03056
1.04015
1.04444
1.04421
1.04067
1.03515
1.02884
1.02266
1.01715
1.01257
1.00897
1.00625
1.00428
1.00289
1.00193
1.00128
1.00085
1.00057
1.00039
1.00026
1.00018
1.00013
1.00009
1.00006
1.00004
1.00003
1.00002
1.00001
1.00001
1.00001
1
1
1
1
1
1
1
1
1
1
1
1
1
1
1
1
1.02434
1.00805
0.98737
0.962348
0.933231
0.900582
0.865362
0.828909
0.792871
0.759055
0.729188
0.704654
0.686371
0.674889
0.670526
0.673425
0.683544
0.700604
0.724032
0.752952
0.786124
0.821896
0.858343
0.89365
0.926506
0.956196
0.982325
1.00449
1.02217
1.03486
1.04235
1.04497
1.04355
1.03929
1.03347
1.02715
1.02115
1.0159
1.0116
1.00825
1.00574
1.00393
1.00265
1.00178
1.00119
1.0008
1.00054
1.00037
1.00026
1.00018
1.00013
1.00009
1.00006
1.00004
1.00003
1.00002
1.00001
1.00001
1.00001
1
1
1
1
1
1
1
1
1
1
1
1
1
1
1
1
1.03028
1.01655
0.998854
0.977317
0.952177
0.923917
0.893334
0.861562
0.830028
0.800286
0.773825
0.751887
0.735398
0.724972
0.720972
0.72355
0.732648
0.747949
0.768858
0.794509
0.823729
0.855025
0.886739
0.91738
0.945909
0.971733
0.99444
1.01354
1.02845
1.03866
1.04405
1.04503
1.0425
1.03762
1.03157
1.02532
1.01955
1.01459
1.01059
1.00751
1.00522
1.00357
1.00242
1.00163
1.0011
1.00074
1.00051
1.00035
1.00025
1.00017
1.00012
1.00009
1.00006
1.00004
1.00003
1.00002
1.00001
1.00001
1.00001
1
1
1
1
1
1
1
1
1
1
1
1
1
1
1
1
1.03557
1.02433
1.0095
0.991272
0.969899
0.945807
0.919668
0.892435
0.865293
0.839545
0.816463
0.797177
0.78258
0.773288
0.769673
0.771896
0.779901
0.793356
0.811662
0.834001
0.859307
0.886264
0.913468
0.939711
0.964175
0.986347
1.00577
1.02187
1.03402
1.04178
1.04513
1.04456
1.04102
1.03564
1.02947
1.02338
1.01788
1.01326
1.00958
1.00677
1.0047
1.00322
1.00218
1.00148
1.001
1.00069
1.00047
1.00033
1.00024
1.00017
1.00012
1.00009
1.00006
1.00004
1.00003
1.00002
1.00001
1.00001
1.00001
1
1
1
1
1
1
1
1
1
1
1
1
1
1
1
1
1.04006
1.03123
1.01913
1.00399
0.986101
0.965865
0.943865
0.92088
0.89788
0.875938
0.856138
0.839493
0.826819
0.818695
0.815478
0.817343
0.82424
0.835838
0.851572
0.870686
0.892241
0.915108
0.938121
0.960316
0.981031
0.99979
1.01608
1.02926
1.03872
1.04409
1.04549
1.04352
1.03913
1.03338
1.02721
1.02134
1.01619
1.01193
1.00858
1.00604
1.00419
1.00287
1.00196
1.00133
1.00091
1.00063
1.00044
1.00031
1.00022
1.00016
1.00012
1.00008
1.00006
1.00004
1.00003
1.00002
1.00001
1.00001
1.00001
1
1
1
1
1
1
1
1
1
1
1
1
1
1
1
1
1.04361
1.03709
1.02756
1.01528
1.00059
0.983865
0.965611
0.946485
0.92728
0.908878
0.892191
0.878088
0.867285
0.860307
0.857499
0.859034
0.864862
0.874671
0.887949
0.904035
0.922113
0.941228
0.960435
0.978966
0.996267
1.01185
1.02515
1.03551
1.04236
1.04547
1.04509
1.04189
1.03683
1.03087
1.02483
1.01926
1.01449
1.01061
1.00759
1.00534
1.0037
1.00254
1.00174
1.00119
1.00082
1.00057
1.0004
1.00029
1.00021
1.00015
1.00011
1.00008
1.00006
1.00004
1.00003
1.00002
1.00001
1.00001
1.00001
1
1
1
1
1
1
1
1
1
1
1
1
1
1
1
1
1.04608
1.04175
1.03465
1.02504
1.01325
0.999673
0.984763
0.969081
0.953278
0.938081
0.924248
0.912499
0.903452
0.897571
0.895174
0.896423
0.901261
0.909404
0.920419
0.933747
0.948691
0.964449
0.980261
0.995516
1.00972
1.02235
1.03281
1.04044
1.04481
1.04583
1.04388
1.0397
1.03418
1.02818
1.02237
1.01718
1.01282
1.00933
1.00665
1.00467
1.00323
1.00223
1.00153
1.00106
1.00074
1.00052
1.00037
1.00027
1.00019
1.00014
1.0001
1.00008
1.00005
1.00004
1.00003
1.00002
1.00001
1.00001
1.00001
1
1
1
1
1
1
1
1
1
1
1
1
1
1
1
1
1.04738
1.04512
1.04029
1.03315
1.024
1.01324
1.00129
0.988642
0.97584
0.963483
0.952188
0.942556
0.93511
0.930248
0.928254
0.92926
0.933205
0.939855
0.948848
0.959728
0.971904
0.984711
0.997536
1.00987
1.02125
1.03112
1.03886
1.04392
1.04599
1.04516
1.04192
1.037
1.03124
1.02536
1.01989
1.01512
1.0112
1.00811
1.00576
1.00404
1.0028
1.00193
1.00134
1.00093
1.00065
1.00047
1.00034
1.00024
1.00018
1.00013
1.0001
1.00007
1.00005
1.00004
1.00003
1.00002
1.00001
1.00001
1.00001
1
1
1
1
1
1
1
1
1
1
1
1
1
1
1
1
1.04747
1.0471
1.04439
1.03952
1.03279
1.02456
1.01523
1.00524
0.995048
0.985159
0.976087
0.968332
0.962309
0.958359
0.956735
0.957537
0.960702
0.966044
0.973284
0.982037
0.991802
1.00204
1.01224
1.02195
1.03072
1.03799
1.04318
1.04586
1.04589
1.04351
1.03927
1.0339
1.02811
1.0225
1.01744
1.01315
1.00967
1.00697
1.00494
1.00346
1.0024
1.00166
1.00116
1.00081
1.00058
1.00042
1.0003
1.00022
1.00016
1.00012
1.00009
1.00007
1.00005
1.00003
1.00002
1.00002
1.00001
1.00001
1.00001
1
1
1
1
1
1
1
1
1
1
1
1
1
1
1
1
1.04635
1.04765
1.04686
1.04409
1.03957
1.03363
1.02663
1.01897
1.01105
1.0033
0.996156
0.990018
0.985231
0.982087
0.980794
0.981426
0.983925
0.988152
0.99389
1.00081
1.00849
1.01646
1.02433
1.03168
1.03802
1.04285
1.04569
1.04624
1.04454
1.04096
1.03606
1.0305
1.02489
1.01966
1.01508
1.01127
1.00824
1.00592
1.00418
1.00293
1.00204
1.00142
1.001
1.00071
1.00051
1.00037
1.00027
1.0002
1.00015
1.00011
1.00008
1.00006
1.00004
1.00003
1.00002
1.00002
1.00001
1.00001
1
1
1
1
1
1
1
1
1
1
1
1
1
1
1
1
1
1.04409
1.04678
1.04769
1.04682
1.04431
1.04044
1.03553
1.02992
1.02399
1.0181
1.01262
1.00788
1.00416
1.00172
1.0007
1.00119
1.00312
1.00641
1.01087
1.0162
1.02205
1.02803
1.03381
1.03897
1.04307
1.04565
1.04638
1.04513
1.04209
1.03768
1.03245
1.02695
1.02167
1.01691
1.01285
1.00954
1.00694
1.00496
1.0035
1.00246
1.00172
1.0012
1.00085
1.00061
1.00044
1.00033
1.00024
1.00018
1.00014
1.0001
1.00008
1.00006
1.00004
1.00003
1.00002
1.00001
1.00001
1.00001
1
1
1
1
1
1
1
1
1
1
1
1
1
1
1
1
1
1.04082
1.04459
1.04692
1.0477
1.04699
1.04499
1.04196
1.03819
1.03401
1.02974
1.0257
1.02216
1.01936
1.01752
1.01676
1.01711
1.01857
1.02106
1.02439
1.02832
1.03255
1.03676
1.04062
1.04377
1.04582
1.04642
1.04538
1.04273
1.03875
1.03388
1.02861
1.02339
1.01856
1.01433
1.0108
1.00796
1.00576
1.00411
1.0029
1.00204
1.00143
1.00101
1.00072
1.00052
1.00038
1.00028
1.00021
1.00016
1.00012
1.00009
1.00007
1.00005
1.00004
1.00003
1.00002
1.00001
1.00001
1.00001
1
1
1
1
1
1
1
1
1
1
1
1
1
1
1
1
1
1.0368
1.04126
1.04466
1.0468
1.04764
1.04729
1.04593
1.0438
1.04118
1.03835
1.03556
1.03307
1.03108
1.02975
1.02919
1.02944
1.03049
1.03226
1.0346
1.03727
1.04004
1.04264
1.04477
1.04612
1.04637
1.04531
1.04289
1.03927
1.03477
1.02978
1.02472
1.01992
1.01562
1.01195
1.00894
1.00655
1.00473
1.00336
1.00238
1.00167
1.00118
1.00084
1.00061
1.00044
1.00033
1.00025
1.00019
1.00014
1.00011
1.00008
1.00006
1.00004
1.00003
1.00002
1.00002
1.00001
1.00001
1.00001
1
1
1
1
1
1
1
1
1
1
1
1
1
1
1
1
1
1.03232
1.03708
1.04116
1.0443
1.04639
1.04742
1.04751
1.04683
1.04558
1.04401
1.04233
1.04076
1.03946
1.03857
1.03818
1.03833
1.03901
1.04014
1.04157
1.04312
1.04458
1.04574
1.04634
1.04614
1.04492
1.04261
1.03926
1.0351
1.03043
1.02561
1.02094
1.01667
1.01294
1.00981
1.00729
1.00532
1.00382
1.00272
1.00192
1.00136
1.00096
1.00069
1.00051
1.00037
1.00028
1.00021
1.00016
1.00013
1.0001
1.00007
1.00005
1.00004
1.00003
1.00002
1.00001
1.00001
1.00001
1
1
1
1
1
1
1
1
1
1
1
1
1
1
1
1
1
1
1.02767
1.03239
1.03676
1.04052
1.04349
1.04559
1.04686
1.04738
1.04732
1.04684
1.04612
1.04534
1.04464
1.04413
1.04388
1.04393
1.04426
1.0448
1.04542
1.04598
1.04631
1.04624
1.04557
1.04414
1.04185
1.03871
1.03486
1.03053
1.02601
1.02155
1.0174
1.0137
1.01054
1.00793
1.00586
1.00426
1.00305
1.00217
1.00154
1.00109
1.00078
1.00057
1.00042
1.00031
1.00024
1.00018
1.00014
1.00011
1.00008
1.00006
1.00005
1.00003
1.00003
1.00002
1.00001
1.00001
1.00001
1
1
1
1
1
1
1
1
1
1
1
1
1
1
1
1
1
1
1.02314
1.02756
1.03188
1.03587
1.03933
1.04214
1.04427
1.04573
1.04661
1.04703
1.04712
1.047
1.0468
1.0466
1.04646
1.04641
1.04643
1.04645
1.04638
1.0461
1.04551
1.04447
1.04285
1.04056
1.03761
1.03406
1.03008
1.0259
1.02172
1.01777
1.01418
1.01106
1.00843
1.00631
1.00463
1.00335
1.0024
1.00171
1.00121
1.00087
1.00063
1.00046
1.00035
1.00026
1.0002
1.00016
1.00012
1.00009
1.00007
1.00006
1.00004
1.00003
1.00002
1.00002
1.00001
1.00001
1.00001
1
1
1
1
1
1
1
1
1
1
1
1
1
1
1
1
1
1
1.01895
1.02289
1.0269
1.0308
1.03439
1.03756
1.04019
1.04228
1.04384
1.04493
1.04563
1.04604
1.04624
1.04628
1.04623
1.04609
1.04584
1.04544
1.04483
1.04392
1.04265
1.04093
1.0387
1.03594
1.0327
1.02909
1.02527
1.02144
1.01775
1.01435
1.01134
1.00877
1.00664
1.00494
1.00361
1.0026
1.00186
1.00133
1.00095
1.00068
1.0005
1.00037
1.00028
1.00022
1.00017
1.00013
1.0001
1.00008
1.00006
1.00005
1.00004
1.00003
1.00002
1.00001
1.00001
1.00001
1
1
1
1
1
1
1
1
1
1
1
1
1
1
1
1
1
1
1
1.01522
1.01859
1.02214
1.02572
1.02917
1.03236
1.03519
1.03759
1.03955
1.04107
1.04219
1.04296
1.04344
1.04366
1.04366
1.04344
1.043
1.04231
1.04132
1.04001
1.03832
1.03622
1.0337
1.03079
1.02757
1.02417
1.02071
1.01735
1.0142
1.01137
1.0089
1.00683
1.00514
1.0038
1.00276
1.00199
1.00142
1.00102
1.00073
1.00053
1.00039
1.0003
1.00023
1.00018
1.00014
1.00011
1.00009
1.00007
1.00005
1.00004
1.00003
1.00002
1.00002
1.00001
1.00001
1.00001
1
1
1
1
1
1
1
1
1
1
1
1
1
1
1
1
1
1
1
1.01201
1.01481
1.01783
1.02095
1.02406
1.02705
1.02981
1.03226
1.03436
1.03607
1.03741
1.03839
1.03903
1.03936
1.03939
1.03913
1.03858
1.03772
1.03653
1.03501
1.03315
1.03093
1.02839
1.02559
1.02261
1.01957
1.01657
1.01373
1.01113
1.00883
1.00686
1.00522
1.0039
1.00287
1.00208
1.00149
1.00107
1.00077
1.00056
1.00041
1.00031
1.00024
1.00019
1.00015
1.00012
1.00009
1.00007
1.00006
1.00005
1.00003
1.00003
1.00002
1.00001
1.00001
1.00001
1.00001
1
1
1
1
1
1
1
1
1
1
1
1
1
1
1
1
1
1
1
1.00932
1.01159
1.01407
1.01669
1.01937
1.02201
1.02452
1.02682
1.02885
1.03057
1.03196
1.033
1.03371
1.03409
1.03413
1.03386
1.03326
1.03235
1.03111
1.02956
1.02771
1.02558
1.02321
1.02068
1.01807
1.01547
1.01297
1.01064
1.00855
1.00673
1.00518
1.00392
1.00291
1.00213
1.00154
1.0011
1.00079
1.00057
1.00042
1.00031
1.00024
1.00019
1.00015
1.00012
1.0001
1.00008
1.00006
1.00005
1.00004
1.00003
1.00002
1.00002
1.00001
1.00001
1.00001
1
1
1
1
1
1
1
1
1
1
1
1
1
1
1
1
1
1
1
1
1.00714
1.00893
1.01091
1.01304
1.01526
1.01749
1.01965
1.02168
1.02351
1.0251
1.02641
1.02742
1.02811
1.02848
1.02853
1.02827
1.02769
1.0268
1.02563
1.02417
1.02247
1.02055
1.01846
1.01629
1.0141
1.01196
1.00993
1.00808
1.00643
1.00502
1.00384
1.00288
1.00212
1.00154
1.00111
1.0008
1.00057
1.00042
1.00031
1.00023
1.00018
1.00015
1.00012
1.0001
1.00008
1.00006
1.00005
1.00004
1.00003
1.00002
1.00002
1.00001
1.00001
1.00001
1
1
1
1
1
1
1
1
1
1
1
1
1
1
1
1
1
1
1
1
1
1.00539
1.00678
1.00833
1.01002
1.01179
1.0136
1.01539
1.0171
1.01867
1.02005
1.0212
1.0221
1.02272
1.02306
1.02311
1.02287
1.02234
1.02154
1.02048
1.0192
1.01771
1.01607
1.01432
1.01252
1.01074
1.00903
1.00744
1.006
1.00473
1.00366
1.00278
1.00207
1.00151
1.00109
1.00078
1.00056
1.00041
1.0003
1.00022
1.00017
1.00014
1.00011
1.00009
1.00008
1.00006
1.00005
1.00004
1.00003
1.00003
1.00002
1.00001
1.00001
1.00001
1.00001
1
1
1
1
1
1
1
1
1
1
1
1
1
1
1
1
1
1
1
1
1
1.00404
1.00509
1.00627
1.00758
1.00896
1.01039
1.01182
1.0132
1.01448
1.01562
1.01659
1.01735
1.01788
1.01816
1.0182
1.01798
1.01753
1.01684
1.01594
1.01485
1.01361
1.01226
1.01084
1.00941
1.008
1.00667
1.00544
1.00435
1.0034
1.00261
1.00196
1.00144
1.00105
1.00075
1.00054
1.00038
1.00028
1.00021
1.00016
1.00013
1.0001
1.00009
1.00007
1.00006
1.00005
1.00004
1.00003
1.00003
1.00002
1.00002
1.00001
1.00001
1.00001
1
1
1
1
1
1
1
1
1
1
1
1
1
1
1
1
1
1
1
1
1
1
1.00298
1.00378
1.00467
1.00565
1.00671
1.00781
1.00892
1.01
1.01101
1.01192
1.01269
1.0133
1.01372
1.01395
1.01397
1.01379
1.0134
1.01283
1.01209
1.01121
1.01021
1.00914
1.00802
1.00691
1.00583
1.00481
1.00389
1.00308
1.00239
1.00181
1.00134
1.00098
1.0007
1.0005
1.00035
1.00025
1.00019
1.00014
1.00011
1.00009
1.00008
1.00006
1.00006
1.00005
1.00004
1.00003
1.00003
1.00002
1.00002
1.00001
1.00001
1.00001
1.00001
1
1
1
1
1
1
1
1
1
1
1
1
1
1
1
1
1
1
1
1
1
1
1.0022
1.00277
1.00344
1.00417
1.00496
1.00579
1.00663
1.00745
1.00822
1.00892
1.00951
1.00998
1.01031
1.01048
1.01049
1.01033
1.01002
1.00955
1.00896
1.00826
1.00748
1.00665
1.00579
1.00495
1.00414
1.00339
1.00271
1.00212
1.00162
1.00121
1.00089
1.00064
1.00045
1.00032
1.00022
1.00016
1.00012
1.00009
1.00007
1.00006
1.00006
1.00005
1.00004
1.00004
1.00003
1.00003
1.00002
1.00002
1.00001
1.00001
1.00001
1.00001
1
1
1
1
1
1
1
1
1
1
1
1
1
1
1
1
1
1
1
1
1
1
1
1.0016
1.00203
1.00251
1.00305
1.00363
1.00423
1.00486
1.00546
1.00604
1.00656
1.007
1.00735
1.00759
1.00771
1.00771
1.00757
1.00732
1.00696
1.00649
1.00595
1.00536
1.00473
1.00409
1.00346
1.00286
1.00231
1.00183
1.00141
1.00106
1.00078
1.00056
1.00039
1.00027
1.00019
1.00013
1.00009
1.00007
1.00006
1.00005
1.00004
1.00004
1.00004
1.00003
1.00003
1.00002
1.00002
1.00002
1.00001
1.00001
1.00001
1.00001
1
1
1
1
1
1
1
1
1
1
1
1
1
1
1
1
1
1
1
1
1
1
1
1
1.00117
1.00148
1.00182
1.00221
1.00263
1.00307
1.00351
1.00396
1.00437
1.00475
1.00507
1.00532
1.00549
1.00557
1.00555
1.00544
1.00524
1.00495
1.0046
1.00419
1.00374
1.00327
1.0028
1.00235
1.00192
1.00153
1.00119
1.0009
1.00066
1.00047
1.00033
1.00022
1.00015
1.0001
1.00007
1.00005
1.00004
1.00003
1.00003
1.00003
1.00003
1.00003
1.00002
1.00002
1.00002
1.00002
1.00001
1.00001
1.00001
1.00001
1
1
1
1
1
1
1
1
1
1
1
1
1
1
1
1
1
1
1
1
1
1
1
1
1
1.00085
1.00107
1.00132
1.00159
1.00189
1.00221
1.00252
1.00283
1.00313
1.00339
1.00362
1.00379
1.0039
1.00394
1.00392
1.00383
1.00367
1.00345
1.00318
1.00288
1.00255
1.00221
1.00187
1.00154
1.00124
1.00097
1.00074
1.00054
1.00038
1.00026
1.00017
1.00011
1.00006
1.00004
1.00002
1.00002
1.00001
1.00001
1.00002
1.00002
1.00002
1.00002
1.00002
1.00002
1.00001
1.00001
1.00001
1.00001
1.00001
1
1
1
1
1
1
1
1
1
1
1
1
1
1
1
1
1
1
1
1
1
1
1
1
1
1
1.00063
1.00078
1.00096
1.00115
1.00136
1.00157
1.00179
1.00201
1.00221
1.00239
1.00255
1.00266
1.00273
1.00275
1.00272
1.00264
1.00251
1.00235
1.00215
1.00192
1.00168
1.00144
1.0012
1.00097
1.00076
1.00058
1.00042
1.0003
1.0002
1.00012
1.00007
1.00003
1.00001
0.999998
0.999995
0.999996
0.999999
1
1.00001
1.00001
1.00001
1.00001
1.00001
1.00001
1.00001
1.00001
1.00001
1.00001
1
1
1
1
1
1
1
1
1
1
1
1
1
1
1
1
1
1
1
1
1
1
1
1
1
1
1
1.00046
1.00057
1.0007
1.00083
1.00097
1.00112
1.00127
1.00142
1.00156
1.00168
1.00177
1.00184
1.00188
1.00188
1.00185
1.00178
1.00169
1.00156
1.00141
1.00125
1.00108
1.0009
1.00073
1.00058
1.00044
1.00032
1.00021
1.00013
1.00007
1.00003
1
0.999985
0.999978
0.999976
0.999979
0.999984
0.99999
0.999995
1
1
1.00001
1.00001
1.00001
1.00001
1.00001
1.00001
1.00001
1
1
1
1
1
1
1
1
1
1
1
1
1
1
1
1
1
1
1
1
1
1
1
1
1
1
1
1
1.00035
1.00042
1.00051
1.00061
1.0007
1.0008
1.0009
1.001
1.00108
1.00116
1.00122
1.00126
1.00128
1.00127
1.00124
1.00118
1.0011
1.00101
1.0009
1.00078
1.00066
1.00054
1.00042
1.00032
1.00022
1.00015
1.00008
1.00003
0.999998
0.999975
0.999963
0.999958
0.999959
0.999964
0.999972
0.999979
0.999986
0.999992
0.999997
1
1
1
1.00001
1.00001
1.00001
1
1
1
1
1
1
1
1
1
1
1
1
1
1
1
1
1
1
1
1
1
1
1
1
1
1
1
1
1
1
1.00026
1.00032
1.00037
1.00044
1.00051
1.00057
1.00064
1.0007
1.00076
1.0008
1.00083
1.00085
1.00086
1.00084
1.00081
1.00076
1.0007
1.00063
1.00055
1.00047
1.00038
1.0003
1.00022
1.00015
1.00009
1.00004
1
0.999973
0.999957
0.999948
0.999945
0.999947
0.999952
0.999959
0.999968
0.999976
0.999983
0.999989
0.999994
0.999998
1
1
1
1
1
1
1
1
1
1
1
1
1
1
1
1
1
1
1
1
1
1
1
1
1
1
1
1
1
1
1
1
1
1
1
1.0002
1.00024
1.00028
1.00033
1.00037
1.00041
1.00046
1.00049
1.00053
1.00055
1.00057
1.00057
1.00057
1.00055
1.00052
1.00048
1.00043
1.00038
1.00032
1.00026
1.0002
1.00014
1.00009
1.00004
1.00001
0.999977
0.999955
0.999942
0.999934
0.999933
0.999936
0.999943
0.999951
0.99996
0.999968
0.999976
0.999984
0.999989
0.999994
0.999997
0.999999
1
1
1
1
1
1
1
1
1
1
1
1
1
1
1
1
1
1
1
1
1
1
1
1
1
1
1
1
1
1
1
1
1
1
1.00016
1.00018
1.00021
1.00024
1.00027
1.0003
1.00033
1.00035
1.00037
1.00038
1.00039
1.00039
1.00037
1.00036
1.00033
1.0003
1.00026
1.00022
1.00017
1.00013
1.00009
1.00005
1.00001
0.999983
0.99996
0.999944
0.999934
0.999929
0.999928
0.999931
0.999937
0.999945
0.999953
0.999962
0.99997
0.999977
0.999983
0.999989
0.999993
0.999997
0.999999
1
1
1
1
1
1
1
1
1
1
1
1
1
1
1
1
1
1
1
1
1
1
1
1
1
1
1
1
1
1
1
1
1
1
1.00012
1.00014
1.00016
1.00018
1.0002
1.00022
1.00024
1.00025
1.00026
1.00026
1.00026
1.00026
1.00025
1.00023
1.00021
1.00018
1.00015
1.00012
1.00008
1.00005
1.00002
0.999994
0.999972
0.999954
0.99994
0.999932
0.999927
0.999925
0.999928
0.999934
0.999941
0.999949
0.999958
0.999966
0.999973
0.99998
0.999985
0.99999
0.999994
0.999996
0.999998
1
1
1
1
1
1
1
1
1
1
1
1
1
1
1
1
1
1
1
1
1
1
1
1
1
1
1
1
1
1
1
1
1
1
1.00009
1.00011
1.00012
1.00014
1.00015
1.00016
1.00018
1.00018
1.00019
1.00019
1.00018
1.00017
1.00016
1.00014
1.00013
1.0001
1.00008
1.00005
1.00003
1.00001
0.999986
0.999967
0.999952
0.99994
0.999932
0.999929
0.999928
0.99993
0.999935
0.999941
0.999948
0.999955
0.999963
0.99997
0.999976
0.999982
0.999987
0.999991
0.999994
0.999996
0.999998
1
1
1
1
1
1
1
1
1
1
1
1
1
1
1
1
1
1
1
1
1
1
1
1
1
1
1
1
1
1
1
1
1
1
1.00007
1.00008
1.00009
1.00011
1.00012
1.00012
1.00013
1.00013
1.00013
1.00013
1.00013
1.00012
1.00011
1.00009
1.00007
1.00006
1.00004
1.00002
1
0.999984
0.999968
0.999956
0.999946
0.999939
0.999935
0.999933
0.999934
0.999937
0.999943
0.999949
0.999956
0.999962
0.999969
0.999975
0.99998
0.999985
0.999989
0.999993
0.999995
0.999997
0.999998
0.999999
1
1
1
1
1
1
1
1
1
1
1
1
1
1
1
1
1
1
1
1
1
1
1
1
1
1
1
1
1
1
1
1
1
1.00006
1.00007
1.00007
1.00008
1.00009
1.00009
1.0001
1.0001
1.0001
1.00009
1.00009
1.00008
1.00007
1.00006
1.00005
1.00003
1.00001
1
0.999986
0.999973
0.999962
0.999953
0.999947
0.999943
0.999941
0.999941
0.999944
0.999947
0.999951
0.999957
0.999962
0.999968
0.999974
0.999979
0.999984
0.999988
0.999991
0.999993
0.999995
0.999997
0.999999
0.999999
1
1
1
1
1
1
1
1
1
1
1
1
1
1
1
1
1
1
1
1
1
1
1
1
1
1
1
1
1
1
1
1
1
1.00004
1.00005
1.00006
1.00006
1.00007
1.00007
1.00007
1.00007
1.00007
1.00007
1.00006
1.00006
1.00005
1.00004
1.00003
1.00001
1
0.999991
0.999981
0.999971
0.999963
0.999956
0.999952
0.99995
0.999949
0.99995
0.999952
0.999955
0.99996
0.999965
0.999969
0.999974
0.999979
0.999983
0.999987
0.99999
0.999992
0.999994
0.999996
0.999997
0.999998
0.999999
0.999999
1
1
1
1
1
1
1
1
1
1
1
1
1
1
1
1
1
1
1
1
1
1
1
1
1
1
1
1
1
1
1
1
1.00004
1.00004
1.00004
1.00005
1.00005
1.00005
1.00005
1.00005
1.00005
1.00005
1.00005
1.00004
1.00003
1.00002
1.00001
1
0.999996
0.999988
0.99998
0.999972
0.999966
0.999962
0.999959
0.999957
0.999958
0.999959
0.999962
0.999964
0.999967
0.999971
0.999976
0.99998
0.999983
0.999986
0.99999
0.999992
0.999994
0.999996
0.999997
0.999998
0.999999
0.999999
0.999999
1
1
1
1
1
1
1
1
1
1
1
1
1
1
1
1
1
1
1
1
1
1
1
1
1
1
1
1
1
1
1
1
1.00003
1.00003
1.00003
1.00004
1.00004
1.00004
1.00004
1.00004
1.00004
1.00004
1.00003
1.00003
1.00002
1.00002
1.00001
1
0.999994
0.999987
0.999981
0.999977
0.999972
0.999968
0.999966
0.999966
0.999966
0.999966
0.999968
0.999971
0.999974
0.999977
0.99998
0.999984
0.999987
0.99999
0.999991
0.999993
0.999995
0.999997
0.999998
0.999999
0.999999
1
1
1
1
1
1
1
1
1
1
1
1
1
1
1
1
1
1
1
1
1
1
1
1
1
1
1
1
1
1
1
1
1
1
1.00002
1.00002
1.00003
1.00003
1.00003
1.00003
1.00003
1.00003
1.00003
1.00003
1.00002
1.00002
1.00002
1.00001
1
0.999999
0.999994
0.999988
0.999983
0.999979
0.999976
0.999974
0.999973
0.999972
0.999973
0.999974
0.999976
0.999978
0.99998
0.999982
0.999985
0.999988
0.99999
0.999991
0.999993
0.999995
0.999996
0.999997
0.999998
0.999999
0.999999
0.999999
1
1
1
1
1
1
1
1
1
1
1
1
1
1
1
1
1
1
1
1
1
1
1
1
1
1
1
1
1
1
1
1
1
1.00002
1.00002
1.00002
1.00002
1.00002
1.00002
1.00002
1.00002
1.00002
1.00002
1.00002
1.00001
1.00001
1.00001
1
0.999998
0.999994
0.999991
0.999987
0.999984
0.999981
0.99998
0.999979
0.999978
0.999979
0.999979
0.999981
0.999983
0.999985
0.999987
0.999989
0.99999
0.999992
0.999993
0.999995
0.999996
0.999997
0.999998
0.999998
0.999999
0.999999
0.999999
1
1
1
1
1
1
1
1
1
1
1
1
1
1
1
1
1
1
1
1
1
1
1
1
1
1
1
1
1
1
1
1
1
1.00001
1.00001
1.00002
1.00002
1.00002
1.00002
1.00002
1.00002
1.00002
1.00002
1.00001
1.00001
1.00001
1
1
0.999998
0.999994
0.999992
0.999989
0.999988
0.999985
0.999984
0.999983
0.999984
0.999984
0.999985
0.999986
0.999987
0.999988
0.99999
0.999991
0.999993
0.999994
0.999995
0.999996
0.999997
0.999998
0.999998
0.999999
0.999999
1
1
1
1
1
1
1
1
1
1
1
1
1
1
1
1
1
1
1
1
1
1
1
1
1
1
1
1
1
1
1
1
1
1
1
1.00001
1.00001
1.00001
1.00001
1.00001
1.00001
1.00001
1.00001
1.00001
1.00001
1.00001
1.00001
1.00001
1
1
0.999998
0.999996
0.999994
0.999992
0.99999
0.999989
0.999988
0.999987
0.999988
0.999988
0.999988
0.999989
0.99999
0.999991
0.999992
0.999993
0.999995
0.999995
0.999996
0.999997
0.999998
0.999998
0.999999
0.999999
0.999999
0.999999
1
1
1
1
1
1
1
1
1
1
1
1
1
1
1
1
1
1
1
1
1
1
1
1
1
1
1
1
1
1
1
1
1
1
1.00001
1.00001
1.00001
1.00001
1.00001
1.00001
1.00001
1.00001
1.00001
1.00001
1.00001
1.00001
1
1
1
0.999999
0.999997
0.999996
0.999994
0.999992
0.999991
0.999992
0.999991
0.999991
0.999991
0.999991
0.999992
0.999993
0.999993
0.999994
0.999995
0.999996
0.999997
0.999997
0.999998
0.999998
0.999999
0.999999
0.999999
0.999999
1
1
1
1
1
1
1
1
1
1
1
1
1
1
1
1
1
1
1
1
1
1
1
1
1
1
1
1
1
1
1
1
1
1
1
1.00001
1.00001
1.00001
1.00001
1.00001
1.00001
1.00001
1.00001
1.00001
1.00001
1
1
1
1
1
0.999999
0.999997
0.999997
0.999996
0.999995
0.999994
0.999993
0.999993
0.999993
0.999993
0.999994
0.999994
0.999995
0.999995
0.999996
0.999996
0.999997
0.999998
0.999998
0.999999
0.999999
0.999999
0.999999
1
1
1
1
1
1
1
1
1
1
1
1
1
1
1
1
1
1
1
1
1
1
1
1
1
1
1
1
1
1
1
1
1
1
1
1
1
1
1
1
1
1.00001
1.00001
1.00001
1
1
1
1
1
1
1
1
0.999999
0.999999
0.999997
0.999997
0.999996
0.999996
0.999995
0.999995
0.999995
0.999995
0.999996
0.999996
0.999996
0.999997
0.999997
0.999998
0.999998
0.999998
0.999999
0.999999
0.999999
0.999999
0.999999
1
1
1
1
1
1
1
1
1
1
1
1
1
1
1
1
1
1
1
1
1
1
1
1
1
1
1
1
1
1
1
1
1
1
1
1
1
1
1
1
1
1
1
1
1
1
1
1
1
1
1
1
1
0.999999
0.999998
0.999998
0.999997
0.999997
0.999997
0.999996
0.999996
0.999997
0.999997
0.999997
0.999997
0.999998
0.999998
0.999998
0.999998
0.999999
0.999999
0.999999
0.999999
0.999999
1
1
1
1
1
1
1
1
1
1
1
1
1
1
1
1
1
1
1
1
1
1
1
1
1
1
1
1
1
1
1
1
1
1
1
1
1
1
1
1
1
1
1
1
1
1
1
1
1
1
1
1
1
0.999999
0.999999
0.999999
0.999998
0.999998
0.999998
0.999998
0.999998
0.999998
0.999997
0.999997
0.999998
0.999998
0.999998
0.999998
0.999999
0.999999
0.999999
0.999999
0.999999
0.999999
1
1
1
1
1
1
1
1
1
1
1
1
1
1
1
1
1
1
1
1
1
1
1
1
1
1
1
1
1
1
1
1
1
1
1
1
1
1
1
1
1
1
1
1
1
1
1
1
1
1
1
1
1
1
1
0.999999
0.999999
0.999999
0.999999
0.999998
0.999998
0.999998
0.999998
0.999998
0.999998
0.999999
0.999999
0.999999
0.999999
0.999999
0.999999
0.999999
0.999999
0.999999
1
1
1
1
1
1
1
1
1
1
1
1
1
1
1
1
1
1
1
1
1
1
1
1
1
1
1
1
1
1
1
1
1
1
1
1
1
1
1
1
1
1
1
1
1
1
1
1
1
1
1
1
1
1
1
1
1
0.999999
0.999999
0.999999
0.999999
0.999999
0.999999
0.999999
0.999999
0.999999
0.999999
0.999999
0.999999
1
0.999999
0.999999
0.999999
1
1
1
1
1
1
1
1
1
1
1
1
1
1
1
1
1
1
1
1
1
1
1
1
1
1
1
1
1
1
1
1
1
1
1
1
1
1
1
1
1
1
1
1
1
1
1
1
1
1
1
1
1
1
1
1
1
1
1
1
0.999999
0.999999
1
0.999999
0.999999
0.999999
0.999999
1
1
1
0.999999
0.999999
0.999999
1
1
1
1
1
1
1
1
1
1
1
1
1
1
1
1
1
1
1
1
1
1
1
1
1
1
1
1
1
1
1
1
1
1
1
1
1
1
1
1
1
1
1
1
1
1
1
1
1
1
1
1
1
1
1
1
1
1
1
1
1
1
1
1
0.999999
0.999999
0.999999
1
0.999999
0.999999
0.999999
0.999999
0.999999
1
1
1
1
1
1
1
1
1
1
1
1
1
1
1
1
1
1
1
1
1
1
1
1
1
1
1
1
1
1
1
1
1
1
1
1
1
1
1
1
1
1
1
1
1
1
1
1
1
1
1
1
1
1
1
1
1
1
1
1
1
1
1
1
1
1
1
1
1
1
1
1
1
1
1
1
1
1
1
1
1
1
1
1
1
1
1
1
1
1
1
1
1
1
1
1
1
1
1
1
1
1
1
1
1
1
1
1
1
1
1
1
1
1
1
1
1
1
1
1
1
1
1
1
1
1
1
1
1
1
1
1
1
1
1
1
1
1
1
1
1
1
1
1
1
1
1
1
1
1
1
1
1
1
1
1
1
1
1
1
1
1
1
1
1
1
1
1
1
1
1
1
1
1
1
1
1
1
1
1
1
1
1
1
1
1
1
1
1
1
1
1
1
1
1
1
1
1
1
1
1
1
1
1
1
1
1
1
1
1
1
1
1
1
1
1
1
1
1
1
1
1
1
1
1
1
1
1
1
1
1
1
1
1
1
1
1
1
1
1
1
1
1
1
1
1
1
1
1
1
1
1
1
1
1
1
1
1
1
1
1
1
1
1
1
1
1
1
1
1
1
1
1
1
1
1
1
1
1
1
1
1
1
1
1
1
1
1
1
1
1
1
1
1
1
1
1
1
1
1
1
1
1
1
1
1
1
1
1
1
1
1
1
1
1
1
1
1
1
1
1
1
1
1
1
1
1
1
1
1
1
1
1
1
1
1
1
1
1
1
1
1
1
1
1
1
1
1
1
1
1
1
1
1
1
1
1
1
1
1
1
1
1
1
1
1
1
1
1
1
1
1
1
1
1
1
1
1
1
1
1
1
1
1
1
1
1
1
1
1
1
1
1
1
1
1
1
1
1
1
1
1
1
1
1
1
1
1
1
1
1
1
1
1
1
1
1
1
1
1
1
1
1
1
1
1
1
1
1
1
1
1
1
1
1
1
1
1
1
1
1
1
1
1
1
1
1
1
1
1
1
1
1
1
1
1
1
1
1
1
1
1
1
1
1
1
1
1
1
1
1
1
1
1
1
1
1
1
1
1
1
1
1
1
1
1
1
1
1
1
1
1
1
1
1
1
1
1
1
1
1
1
1
1
1
1
1
1
1
1
1
1
1
1
1
1
1
1
1
1
1
1
1
1
1
1
1
1
1
1
1
1
1
1
1
1
1
1
1
1
1
1
1
1
1
1
1
1
1
1
1
1
1
1
1
1
1
1
1
1
1
1
1
1
1
1
1
1
1
1
1
1
1
1
1
1
1
1
1
1
1
1
1
1
1
1
1
1
1
1
1
1
1
1
1
1
1
1
1
1
1
1
1
1
1
1
1
1
1
1
1
1
1
1
1
1
1
1
1
1
1
1
1
1
1
1
1
1
1
1
1
1
1
1
1
1
1
1
1
1
1
1
1
1
1
1
1
1
1
1
1
1
1
1
1
1
1
1
1
1
1
1
1
1
1
1
1
1
1
1
1
1
1
1
1
1
1
1
1
1
1
1
1
1
1
1
1
1
1
1
1
1
1
1
1
1
1
1
1
1
1
1
1
1
1
1
1
1
1
1
1
1
1
1
1
1
1
1
1
1
1
1
1
1
1
1
1
1
1
1
1
1
1
1
1
1
1
1
1
1
1
1
1
1
1
1
1
1
1
1
1
1
1
1
1
1
1
1
1
1
1
1
1
1
1
1
1
1
1
1
1
1
1
1
1
1
1
1
1
1
1
1
1
1
1
1
1
1
1
1
1
1
1
1
1
1
1
1
1
1
1
1
1
1
1
1
1
1
1
1
1
1
1
1
1
1
1
1
1
1
1
1
1
1
1
1
1
1
1
1
1
1
1
1
1
1
1
1
1
1
1
1
1
1
1
1
1
1
1
1
1
1
1
1
1
1
1
1
1
1
1
1
1
1
1
1
1
1
1
1
1
1
1
1
1
1
1
1
1
1
1
1
1
1
1
1
1
1
1
1
1
1
1
1
1
1
1
1
1
1
1
1
1
1
1
1
1
1
1
1
1
1
1
1
1
1
1
1
1
1
1
1
1
1
1
1
1
1
1
1
1
1
1
1
1
1
1
1
1
1
1
1
1
1
1
1
1
1
1
1
1
1
1
1
1
1
1
1
1
1
1
1
1
1
1
1
1
1
1
1
1
1
1
1
1
1
1
1
1
1
1
1
1
1
1
1
1
1
1
1
1
1
1
1
1
1
1
1
1
1
1
1
1
1
1
1
1
1
1
1
1
1
1
1
1
1
1
1
1
1
1
1
1
1
1
1
1
1
1
1
1
1
1
1
1
1
1
1
1
1
1
1
1
1
1
1
1
1
1
1
1
1
1
1
1
1
1
1
1
1
1
1
1
1
1
1
1
1
1
1
1
1
1
1
1
1
1
1
1
1
1
1
1
1
1
1
1
1
1
1
1
1
1
1
1
1
1
1
1
1
1
1
1
1
1
1
1
1
1
1
1
1
1
1
1
1
1
1
1
1
1
1
1
1
1
1
1
1
1
1
1
1
1
1
1
1
1
1
1
1
1
1
1
1
1
1
1
1
1
1
1
1
1
1
1
1
1
1
1
1
1
1
1
1
1
1
1
1
1
1
1
1
1
1
1
1
1
1
1
1
1
1
1
1
1
1
1
1
1
1
1
1
1
1
1
1
1
1
1
1
1
1
1
1
1
1
1
1
1
1
1
1
1
1
1
1
1
1
1
1
1
1
1
1
1
1
1
1
1
1
1
1
1
1
1
1
1
1
1
1
1
1
1
1
1
1
1
1
1
1
1
1
1
1
1
1
1
1
1
1
1
1
1
1
1
1
1
1
1
1
1
1
1
1
1
1
1
1
1
1
1
1
1
1
1
1
1
1
1
1
1
1
1
1
1
1
1
1
1
1
1
1
1
1
1
1
1
1
1
1
1
1
1
1
1
1
1
1
1
1
1
1
1
1
1
1
1
1
1
1
1
1
1
1
1
1
1
1
1
1
1
1
1
1
1
1
1
1
1
1
1
1
1
1
1
1
1
1
1
1
1
1
1
1
1
1
1
1
1
1
1
1
1
1
1
1
1
1
1
1
1
1
1
1
1
1
1
1
1
1
1
1
1
1
1
1
1
1
1
1
1
1
1
1
1
1
1
1
1
1
1
1
1
1
1
1
1
1
1
1
1
1
1
1
1
1
1
1
1
1
1
1
1
1
1
1
1
1
1
1
1
1
1
1
1
1
1
1
1
1
1
1
1
1
1
1
1
1
1
1
1
1
1
1
1
1
1
1
1
1
1
1
1
1
1
1
1
1
1
1
1
1
1
1
1
1
1
1
1
1
1
1
1
1
1
1
1
1
1
1
1
1
1
1
1
1
1
1
1
1
1
1
1
1
1
1
1
1
1
1
1
1
1
1
1
1
1
1
1
1
1
1
1
1
1
1
1
1
1
1
1
1
1
1
1
1
1
1
1
1
1
1
1
1
1
1
1
1
1
1
1
1
1
1
1
1
1
1
1
1
1
1
1
1
1
1
1
1
1
1
1
1
1
1
1
1
1
1
1
1
1
1
1
1
1
1
1
1
1
1
1
1
1
1
1
1
1
1
1
1
1
1
1
1
1
1
1
1
1
1
1
)
;

boundaryField
{
    emptyPatches_empt
    {
        type            empty;
    }
    top_cyc
    {
        type            cyclic;
    }
    bottom_cyc
    {
        type            cyclic;
    }
    inlet_cyc
    {
        type            cyclic;
    }
    outlet_cyc
    {
        type            cyclic;
    }
    procBoundary1to0
    {
        type            processor;
        value           nonuniform List<scalar> 
75
(
1.03203
1.03622
1.03996
1.04307
1.04544
1.04693
1.04747
1.047
1.04552
1.04309
1.03984
1.03594
1.03164
1.02721
1.02289
1.01887
1.01526
1.01213
1.00949
1.00732
1.00557
1.0042
1.00312
1.00231
1.0017
1.00124
1.00091
1.00067
1.00049
1.00037
1.00028
1.00021
1.00016
1.00013
1.0001
1.00008
1.00006
1.00005
1.00004
1.00003
1.00002
1.00002
1.00001
1.00001
1.00001
1.00001
1
1
1
1
1
1
1
1
1
1
1
1
1
1
1
1
1
1
1
1
1
1
1
1
1
1
1
1
1
)
;
    }
    procBoundary1to0throughoutlet_cyc
    {
        type            processorCyclic;
        value           nonuniform List<scalar> 
75
(
1
1
1
1
1
1
1
1
1
1
1
1
1
1
1
1
1
1
1
1
1
1
1
1
1
1
1
1
1
1
1
1
1
1
1
1
1
1
1
1
1
1
1
1
1
1
1
1
1
1
1
1
1
1
1
1
1
1
1
1
1
1
1
1
1
1
1
1
1
1
1
1
1
1
1
)
;
    }
    procBoundary1to3
    {
        type            processor;
        value           nonuniform List<scalar> 
75
(
1.01125
0.989768
0.962913
0.930662
0.893349
0.851778
0.807292
0.761673
0.716963
0.675344
0.638938
0.609473
0.587934
0.574634
0.569639
0.573016
0.584785
0.604786
0.632601
0.667483
0.708188
0.752801
0.798856
0.843831
0.885775
0.923585
0.956807
0.985185
1.00837
1.02592
1.03758
1.04353
1.04453
1.04175
1.0366
1.03037
1.02406
1.01833
1.01351
1.00967
1.00675
1.00462
1.00311
1.00207
1.00137
1.0009
1.0006
1.0004
1.00027
1.00019
1.00013
1.00009
1.00006
1.00004
1.00003
1.00002
1.00001
1.00001
1.00001
1
1
1
1
1
1
1
1
1
1
1
1
1
1
1
1
)
;
    }
    procBoundary1to3throughbottom_cyc
    {
        type            processorCyclic;
        value           nonuniform List<scalar> 
75
(
1
1
1
0.999999
1
1
1
0.999999
1
1
1
1
1
1
1
1
1
1
1
1
1
1
1
1
1
1
1
1
1
1
1
1
1
1
1
1
1
1
1
1
1
1
1
1
1
1
1
1
1
1
1
1
1
1
1
1
1
1
1
1
1
1
1
1
1
1
1
1
1
1
1
1
1
1
1
)
;
    }
}


// ************************************************************************* //
