/*--------------------------------*- C++ -*----------------------------------*\
  =========                 |
  \\      /  F ield         | OpenFOAM: The Open Source CFD Toolbox
   \\    /   O peration     | Website:  https://openfoam.org
    \\  /    A nd           | Version:  6
     \\/     M anipulation  |
\*---------------------------------------------------------------------------*/
FoamFile
{
    version     2.0;
    format      ascii;
    class       volScalarField;
    location    "4.99";
    object      rho;
}
// * * * * * * * * * * * * * * * * * * * * * * * * * * * * * * * * * * * * * //

dimensions      [1 -3 0 0 0 0 0];

internalField   nonuniform List<scalar> 
10000
(
1.39997
1.39997
1.39998
1.39999
1.39999
1.4
1.4
1.4
1.40001
1.4
1.40001
1.4
1.40001
1.4
1.40001
1.4
1.40001
1.4
1.4
1.40001
1.4
1.4
1.40001
1.4
1.4
1.40001
1.4
1.4
1.40001
1.4
1.4
1.40001
1.40001
1.4
1.40001
1.40001
1.40001
1.40001
1.40001
1.40001
1.40002
1.40004
1.40005
1.40008
1.40011
1.40014
1.40017
1.40019
1.40022
1.40026
1.40034
1.4005
1.4008
1.40128
1.40202
1.40303
1.40436
1.406
1.40792
1.41008
1.41243
1.4149
1.41741
1.4199
1.42229
1.42451
1.42651
1.42824
1.42964
1.43071
1.4314
1.43173
1.43168
1.43123
1.43037
1.42911
1.42743
1.42537
1.423
1.42042
1.41776
1.41512
1.41262
1.41033
1.40829
1.40652
1.40502
1.40378
1.40277
1.40197
1.40135
1.40088
1.40054
1.4003
1.40014
1.40005
1.39999
1.39997
1.39996
1.39996
1.39996
1.39997
1.39997
1.39998
1.39999
1.39999
1.4
1.4
1.4
1.4
1.40001
1.4
1.40001
1.4
1.4
1.4
1.40001
1.4
1.40001
1.40001
1.4
1.40001
1.40001
1.4
1.4
1.40001
1.40001
1.4
1.4
1.40001
1.4
1.40001
1.4
1.4
1.4
1.40001
1.40001
1.40001
1.40001
1.40002
1.40003
1.40005
1.40007
1.4001
1.40014
1.40018
1.40022
1.40025
1.40029
1.40036
1.4005
1.40078
1.40127
1.40205
1.40318
1.4047
1.40663
1.40895
1.41159
1.41449
1.41757
1.42072
1.42387
1.42692
1.42978
1.4324
1.43471
1.43668
1.43827
1.43949
1.44032
1.44077
1.44083
1.44051
1.43975
1.4385
1.43672
1.43437
1.43151
1.42824
1.42473
1.42115
1.41771
1.41451
1.41164
1.40915
1.40705
1.40531
1.4039
1.40279
1.40192
1.40127
1.4008
1.40046
1.40024
1.4001
1.40001
1.39997
1.39995
1.39995
1.39995
1.39996
1.39997
1.39998
1.39999
1.39999
1.4
1.4
1.4
1.4
1.4
1.40001
1.4
1.40001
1.4
1.40001
1.40001
1.4
1.40001
1.4
1.4
1.40001
1.40001
1.4
1.40001
1.40001
1.40001
1.4
1.4
1.40001
1.40001
1.4
1.4
1.40001
1.40001
1.40001
1.40001
1.40001
1.40001
1.40002
1.40004
1.40006
1.4001
1.40014
1.40019
1.40023
1.40027
1.40031
1.40037
1.40049
1.40074
1.4012
1.40199
1.40318
1.40486
1.40706
1.40976
1.41289
1.41637
1.42007
1.42388
1.42769
1.43137
1.43483
1.43798
1.44077
1.44317
1.44515
1.44674
1.44796
1.44883
1.44939
1.44966
1.44963
1.44926
1.44843
1.44699
1.44481
1.44182
1.43808
1.43378
1.42918
1.42458
1.42021
1.41625
1.41278
1.40984
1.40741
1.40546
1.40391
1.40272
1.40182
1.40116
1.40069
1.40038
1.40017
1.40005
1.39998
1.39995
1.39995
1.39994
1.39995
1.39996
1.39997
1.39998
1.39999
1.39999
1.4
1.4
1.40001
1.4
1.40001
1.4
1.4
1.40001
1.40001
1.39999
1.40001
1.40002
1.39998
1.40001
1.40002
1.39999
1.4
1.40002
1.40001
1.4
1.40001
1.4
1.40001
1.40001
1.4
1.4
1.40001
1.40001
1.40001
1.40001
1.40001
1.40002
1.40003
1.40006
1.40009
1.40013
1.40018
1.40024
1.40029
1.40034
1.40039
1.40049
1.40069
1.4011
1.40184
1.40304
1.40481
1.40723
1.41028
1.41389
1.41795
1.42228
1.42673
1.43114
1.43538
1.43931
1.44285
1.4459
1.44847
1.45052
1.45214
1.45337
1.45429
1.455
1.45556
1.45605
1.45648
1.45681
1.45691
1.45652
1.45533
1.45306
1.44954
1.44488
1.43942
1.4336
1.42786
1.42251
1.41775
1.41368
1.41031
1.40759
1.40546
1.40381
1.40257
1.40167
1.40102
1.40057
1.40028
1.40011
1.40001
1.39996
1.39994
1.39993
1.39994
1.39995
1.39996
1.39998
1.39998
1.39999
1.4
1.4
1.4
1.4
1.40001
1.4
1.4
1.40001
1.40001
1.39999
1.40003
1.4
1.39999
1.40002
1.40002
1.39999
1.4
1.40002
1.40001
1.39999
1.40001
1.40001
1.4
1.40001
1.4
1.4
1.40001
1.40001
1.40001
1.40001
1.40002
1.40003
1.40004
1.40007
1.40011
1.40017
1.40023
1.4003
1.40036
1.40041
1.40048
1.40064
1.40098
1.40163
1.40276
1.40455
1.40709
1.41044
1.41451
1.41913
1.42408
1.42914
1.4341
1.43877
1.44301
1.44669
1.44973
1.4521
1.45382
1.45495
1.45564
1.45602
1.45624
1.45647
1.4568
1.45738
1.45828
1.45951
1.46096
1.46234
1.46322
1.46299
1.46109
1.45724
1.45167
1.44495
1.43781
1.43085
1.42448
1.41894
1.4143
1.41054
1.40758
1.40531
1.40361
1.40236
1.40147
1.40086
1.40045
1.4002
1.40005
1.39997
1.39994
1.39992
1.39993
1.39994
1.39995
1.39997
1.39998
1.39999
1.39999
1.4
1.4
1.40001
1.4
1.4
1.4
1.40002
1.39998
1.40001
1.40004
1.39996
1.40001
1.40003
1.39999
1.39999
1.40002
1.40001
1.4
1.4
1.4
1.40002
1.40001
1.39999
1.40001
1.40001
1.40001
1.40001
1.40001
1.40001
1.40002
1.40004
1.40006
1.40009
1.40015
1.40022
1.40029
1.40036
1.40043
1.40049
1.40061
1.40086
1.4014
1.4024
1.40409
1.40666
1.4102
1.41466
1.41982
1.42539
1.43104
1.43647
1.44145
1.4458
1.44938
1.45211
1.45392
1.45485
1.45501
1.45454
1.45369
1.45267
1.45174
1.45109
1.45089
1.45129
1.45244
1.45448
1.45742
1.46096
1.46465
1.46779
1.46942
1.46852
1.46465
1.45819
1.45014
1.44159
1.43338
1.42602
1.41974
1.41459
1.41052
1.40739
1.40504
1.40332
1.4021
1.40125
1.40069
1.40033
1.40011
1.4
1.39994
1.39992
1.39992
1.39993
1.39994
1.39996
1.39997
1.39998
1.39999
1.4
1.39999
1.40001
1.39999
1.4
1.40002
1.4
1.39998
1.40005
1.4
1.39996
1.40004
1.40004
1.39996
1.4
1.40003
1.40003
1.39996
1.40002
1.40001
1.4
1.40002
1.39999
1.4
1.40002
1.40001
1.4
1.40001
1.40002
1.40003
1.40005
1.40008
1.40012
1.40019
1.40027
1.40035
1.40043
1.4005
1.40059
1.40077
1.40118
1.40201
1.40351
1.40596
1.40955
1.41428
1.41995
1.42613
1.43237
1.43825
1.44344
1.44772
1.45097
1.45308
1.45404
1.45383
1.45258
1.45048
1.44786
1.44497
1.4421
1.43964
1.43782
1.4368
1.43671
1.43773
1.4401
1.4441
1.44968
1.45635
1.46336
1.46979
1.47419
1.47496
1.4714
1.46413
1.45471
1.44474
1.43531
1.42702
1.42011
1.41456
1.41026
1.40703
1.40466
1.40298
1.40181
1.40103
1.40052
1.40022
1.40004
1.39996
1.39993
1.39991
1.39992
1.39993
1.39995
1.39996
1.39998
1.39998
1.39999
1.4
1.39999
1.40001
1.39999
1.40003
1.39997
1.40001
1.40006
1.39994
1.40001
1.40004
1.40001
1.39994
1.40004
1.40003
1.39999
1.4
1.39998
1.40006
1.39997
1.40001
1.40001
1.4
1.40002
1.40001
1.4
1.40001
1.40003
1.40003
1.40005
1.4001
1.40016
1.40023
1.40032
1.40042
1.4005
1.40058
1.40071
1.40099
1.40163
1.40288
1.40507
1.40852
1.41337
1.41943
1.42622
1.43309
1.43943
1.44479
1.4489
1.45163
1.45294
1.45281
1.45126
1.44839
1.44442
1.43963
1.43455
1.42943
1.42458
1.42045
1.41731
1.41534
1.41452
1.41497
1.41711
1.42134
1.42799
1.43689
1.44743
1.45866
1.46923
1.4771
1.48003
1.47705
1.46911
1.45838
1.44703
1.43649
1.42741
1.42
1.41419
1.40978
1.40653
1.40421
1.40259
1.40151
1.40081
1.40037
1.40012
1.39999
1.39994
1.39991
1.39991
1.39992
1.39994
1.39996
1.39996
1.39999
1.39997
1.40002
1.39999
1.39999
1.40004
1.39998
1.39996
1.4001
1.39997
1.39991
1.40011
1.4
1.39995
1.40002
1.39999
1.40011
1.39987
1.40008
1.39997
1.40004
1.40001
1.39996
1.40004
1.4
1.40001
1.40002
1.4
1.40001
1.40003
1.40004
1.40007
1.40012
1.4002
1.40029
1.40038
1.40049
1.40058
1.40067
1.40086
1.40131
1.40228
1.40411
1.40722
1.41194
1.41823
1.42559
1.43315
1.44004
1.44562
1.44952
1.45165
1.45205
1.45076
1.44783
1.44331
1.43745
1.43061
1.42313
1.41563
1.40854
1.40206
1.39644
1.39202
1.38919
1.38773
1.38732
1.38833
1.39151
1.39804
1.4081
1.42093
1.43571
1.45148
1.46658
1.4782
1.48344
1.48114
1.47266
1.4608
1.44828
1.43681
1.42714
1.41942
1.41349
1.40909
1.40592
1.4037
1.40219
1.40121
1.4006
1.40024
1.40004
1.39998
1.39992
1.3999
1.39991
1.39992
1.39994
1.39996
1.39997
1.40001
1.39997
1.40002
1.39999
1.40001
1.4
1.39999
1.40007
1.39995
1.39995
1.40011
1.40005
1.39977
1.40024
1.3999
1.40005
1.39998
1.39995
1.40013
1.3999
1.40009
1.39993
1.40003
1.40004
1.39998
1.40002
1.40001
1.40002
1.40004
1.40005
1.40008
1.40015
1.40024
1.40034
1.40045
1.40056
1.40065
1.40078
1.40107
1.40177
1.4032
1.40582
1.41012
1.41635
1.42412
1.43243
1.44005
1.44601
1.4498
1.45135
1.45081
1.4484
1.44417
1.43825
1.43072
1.42197
1.41255
1.40289
1.39352
1.38511
1.37786
1.37138
1.36607
1.36241
1.36062
1.3598
1.35943
1.35992
1.36329
1.37197
1.3862
1.40384
1.42324
1.44359
1.46304
1.47805
1.48519
1.48334
1.47437
1.46165
1.44829
1.43621
1.42621
1.41838
1.4125
1.40823
1.40522
1.40316
1.4018
1.40094
1.40042
1.40013
1.40005
1.39993
1.39991
1.39988
1.39993
1.39991
1.39997
1.39995
1.39999
1.39999
1.39996
1.40006
1.39996
1.39994
1.40018
1.39988
1.39993
1.40022
1.39984
1.40011
1.39988
1.40003
1.40026
1.39957
1.40039
1.39972
1.40023
1.39988
1.40003
1.40002
1.39996
1.40008
1.39997
1.4
1.40003
1.40002
1.40003
1.40007
1.40011
1.40019
1.40028
1.4004
1.40052
1.40062
1.40073
1.40092
1.40137
1.40241
1.40447
1.40812
1.4139
1.42179
1.43079
1.43935
1.44598
1.44991
1.45103
1.44964
1.44614
1.44088
1.43382
1.4251
1.41494
1.40382
1.39249
1.38162
1.37149
1.36267
1.35587
1.34967
1.3445
1.34018
1.33787
1.33752
1.33697
1.33517
1.33355
1.33554
1.34537
1.36347
1.3864
1.41116
1.43636
1.45977
1.47738
1.48557
1.48364
1.47408
1.46074
1.44695
1.43466
1.42465
1.41695
1.41129
1.40725
1.40447
1.40262
1.40143
1.40069
1.40027
1.40015
1.39998
1.39991
1.3999
1.39988
1.39996
1.39989
1.40002
1.39992
1.40002
1.40001
1.39993
1.40009
1.3999
1.40011
1.39997
1.39982
1.40032
1.39992
1.39966
1.40058
1.39944
1.40055
1.39953
1.40022
1.40008
1.39982
1.40021
1.39979
1.40018
1.3999
1.40006
1.40001
1.39997
1.40004
1.40004
1.40003
1.40008
1.40014
1.40022
1.40033
1.40046
1.40058
1.40069
1.40082
1.4011
1.4018
1.40331
1.40619
1.41116
1.41866
1.42812
1.43772
1.44542
1.4499
1.45089
1.44886
1.44443
1.43822
1.43045
1.42105
1.41001
1.39783
1.38523
1.37299
1.36222
1.35277
1.34495
1.33952
1.33551
1.3319
1.32821
1.32491
1.32428
1.32541
1.32453
1.31978
1.31354
1.31216
1.32152
1.34231
1.37002
1.40017
1.43025
1.45717
1.47648
1.4848
1.48221
1.47193
1.45819
1.44434
1.43224
1.42254
1.41521
1.40991
1.40622
1.40373
1.4021
1.40109
1.40048
1.40029
1.40008
1.39991
1.39993
1.39987
1.39991
1.39995
1.39991
1.40003
1.39992
1.40004
1.39999
1.39988
1.40027
1.39974
1.40003
1.40023
1.39968
1.40041
1.39946
1.40045
1.40003
1.39947
1.4008
1.39909
1.40093
1.39928
1.40045
1.39975
1.40012
1.4
1.39995
1.40008
1.39995
1.40002
1.40005
1.40004
1.40009
1.40017
1.40027
1.40037
1.40051
1.40063
1.40076
1.40094
1.40137
1.40241
1.40454
1.40847
1.41505
1.42438
1.43493
1.44405
1.44967
1.45103
1.44867
1.44357
1.4365
1.42821
1.41855
1.40734
1.39458
1.38117
1.36814
1.35632
1.347
1.33998
1.33515
1.33172
1.33207
1.33103
1.32967
1.32682
1.32439
1.32464
1.32786
1.32689
1.31761
1.30451
1.29758
1.3048
1.32659
1.35746
1.39187
1.42589
1.45526
1.47515
1.48277
1.47913
1.46814
1.45426
1.44069
1.42911
1.42001
1.41325
1.40845
1.40517
1.403
1.40161
1.4008
1.40054
1.40014
1.40003
1.39984
1.39999
1.3998
1.40002
1.39988
1.39997
1.40005
1.39981
1.40022
1.39977
1.40018
1.4
1.39967
1.40058
1.39966
1.39976
1.40073
1.39898
1.40136
1.39845
1.40138
1.39905
1.40053
1.39988
1.39983
1.40027
1.39976
1.40023
1.39983
1.40009
1.4
1.39998
1.40007
1.40007
1.40011
1.40019
1.40031
1.40042
1.40055
1.40068
1.40084
1.40111
1.40176
1.40324
1.40616
1.41143
1.41986
1.4308
1.4415
1.44886
1.45137
1.44916
1.44364
1.436
1.42706
1.41739
1.40651
1.39391
1.38004
1.3663
1.3539
1.34419
1.33797
1.33519
1.33518
1.33566
1.33968
1.34309
1.3446
1.34407
1.3408
1.33626
1.33708
1.34232
1.34306
1.33078
1.31038
1.29624
1.29913
1.3198
1.35198
1.38876
1.42473
1.45456
1.47343
1.47942
1.47447
1.46295
1.44924
1.4363
1.42553
1.41723
1.41119
1.40697
1.40416
1.40232
1.4012
1.40087
1.40029
1.40008
1.39995
1.39985
1.39998
1.39979
1.40006
1.39987
1.39997
1.40012
1.3997
1.40043
1.3996
1.40014
1.40015
1.39968
1.40062
1.39893
1.40114
1.39938
1.40002
1.40047
1.39903
1.40144
1.39844
1.40146
1.39881
1.4008
1.39958
1.40024
1.39991
1.39997
1.40011
1.39996
1.40004
1.40011
1.40013
1.40021
1.40034
1.40046
1.40061
1.40074
1.40095
1.40134
1.4023
1.40435
1.40826
1.41513
1.42549
1.43739
1.44699
1.45143
1.45029
1.44469
1.43666
1.42725
1.41725
1.40682
1.39517
1.38145
1.36705
1.35386
1.34371
1.33839
1.33699
1.34036
1.34599
1.35282
1.3572
1.36681
1.36963
1.37052
1.36655
1.36121
1.35278
1.34924
1.35655
1.36219
1.35202
1.32883
1.30908
1.30688
1.32447
1.35561
1.3924
1.42779
1.45561
1.4716
1.47499
1.46854
1.45671
1.44352
1.43151
1.42176
1.4144
1.40917
1.40555
1.40324
1.40169
1.40116
1.40063
1.40005
1.40013
1.39977
1.40001
1.39986
1.39987
1.40012
1.39968
1.40034
1.39962
1.40027
1.39999
1.3995
1.4009
1.39939
1.39984
1.4007
1.39892
1.40187
1.39739
1.4028
1.3973
1.40256
1.39797
1.4013
1.39933
1.40018
1.40018
1.39978
1.40018
1.39982
1.40017
1.40001
1.39999
1.40012
1.40017
1.40022
1.40036
1.40051
1.40067
1.40082
1.40109
1.40167
1.40302
1.40578
1.41089
1.41961
1.43164
1.44343
1.45065
1.45151
1.44678
1.43843
1.42871
1.41829
1.40782
1.39721
1.38486
1.37017
1.35575
1.34478
1.33961
1.34068
1.34629
1.35708
1.36667
1.37843
1.38453
1.39185
1.39726
1.39681
1.392
1.38703
1.37429
1.35883
1.35065
1.35679
1.36823
1.36677
1.34894
1.32963
1.32488
1.33943
1.36813
1.40259
1.43479
1.45834
1.46988
1.46992
1.46184
1.4499
1.43749
1.42664
1.41803
1.4117
1.40727
1.40427
1.40243
1.40169
1.4008
1.40036
1.39996
1.40009
1.39972
1.40007
1.39984
1.39984
1.40031
1.39937
1.40072
1.3994
1.40016
1.40019
1.39981
1.40042
1.3987
1.40187
1.39869
1.40067
1.3995
1.40002
1.40074
1.39892
1.40134
1.39829
1.40172
1.39865
1.40103
1.39934
1.40032
1.39987
1.40004
1.40012
1.39999
1.4001
1.4002
1.40025
1.40039
1.40055
1.40072
1.4009
1.40127
1.40211
1.40396
1.40757
1.41411
1.42475
1.43779
1.4482
1.45212
1.44933
1.44151
1.43124
1.42061
1.40964
1.39931
1.38894
1.37538
1.35977
1.34691
1.34126
1.34407
1.35302
1.36726
1.38117
1.39425
1.40449
1.41367
1.41144
1.42179
1.41931
1.41537
1.40828
1.40093
1.38538
1.356
1.33491
1.33799
1.35422
1.36331
1.35802
1.34772
1.34619
1.36006
1.38635
1.41709
1.44406
1.46163
1.46785
1.46438
1.45481
1.44299
1.43153
1.42197
1.41454
1.40927
1.40555
1.40323
1.40241
1.40101
1.40066
1.40001
1.40007
1.39991
1.39978
1.40016
1.39959
1.40035
1.39958
1.40032
1.39988
1.39951
1.40122
1.39892
1.39987
1.40096
1.39909
1.40165
1.39679
1.40384
1.39616
1.40434
1.39552
1.40389
1.39668
1.40261
1.39856
1.40059
1.39978
1.39999
1.40019
1.39983
1.40014
1.40006
1.40006
1.4002
1.40031
1.40043
1.40058
1.40076
1.401
1.40153
1.40269
1.40515
1.40973
1.41791
1.43031
1.44331
1.45123
1.45148
1.44542
1.43525
1.42381
1.41278
1.40161
1.39227
1.38176
1.36601
1.35076
1.3429
1.34632
1.35871
1.37572
1.39482
1.40675
1.42149
1.42603
1.43078
1.43282
1.43288
1.43562
1.43805
1.42757
1.4252
1.42181
1.39928
1.3586
1.31998
1.30853
1.32447
1.34471
1.35353
1.35614
1.3635
1.38051
1.4054
1.43186
1.45286
1.46402
1.46497
1.45828
1.44765
1.43621
1.42589
1.41765
1.41138
1.40715
1.40405
1.40294
1.40164
1.40061
1.40044
1.39984
1.40011
1.39985
1.39972
1.40048
1.39902
1.40111
1.39902
1.40026
1.40044
1.39962
1.39988
1.3994
1.40218
1.39785
1.40097
1.3989
1.40161
1.39918
1.40037
1.39934
1.40024
1.4005
1.39926
1.40113
1.39862
1.40099
1.39949
1.40041
1.39978
1.40005
1.40016
1.40004
1.40015
1.40036
1.4005
1.4006
1.40081
1.40116
1.40189
1.40343
1.40659
1.41231
1.42223
1.43586
1.44767
1.4524
1.44913
1.44042
1.42859
1.41659
1.40532
1.39475
1.38684
1.37463
1.35675
1.34531
1.34715
1.36129
1.38243
1.40416
1.41942
1.43173
1.43819
1.4406
1.43763
1.44343
1.42444
1.43493
1.43763
1.43536
1.43324
1.43741
1.4466
1.42662
1.37243
1.31879
1.29357
1.2989
1.32057
1.34223
1.35819
1.37507
1.39728
1.42224
1.44436
1.45897
1.46392
1.46048
1.4515
1.44052
1.42976
1.42079
1.41374
1.40872
1.40525
1.40359
1.40218
1.40089
1.40048
1.40016
1.3998
1.4002
1.39958
1.40022
1.39971
1.4002
1.39973
1.39988
1.40108
1.39825
1.4006
1.4013
1.39873
1.40059
1.39771
1.40432
1.39582
1.40439
1.39439
1.40557
1.39499
1.40512
1.39556
1.40313
1.39781
1.40123
1.39966
1.40009
1.40001
1.39992
1.40023
1.40013
1.40014
1.40032
1.4005
1.40063
1.4009
1.40138
1.40234
1.40434
1.40827
1.41529
1.42688
1.44091
1.4506
1.45193
1.44557
1.43482
1.42195
1.40971
1.39844
1.38962
1.38218
1.36676
1.34936
1.34679
1.36108
1.3843
1.40983
1.42976
1.44007
1.44872
1.4415
1.4372
1.43047
1.41736
1.41464
1.41439
1.40676
1.42424
1.4274
1.42626
1.44466
1.46324
1.45279
1.40015
1.33369
1.29496
1.29318
1.31066
1.33494
1.36097
1.38622
1.41143
1.435
1.4527
1.46154
1.46133
1.45457
1.4443
1.43362
1.42385
1.41631
1.41034
1.40657
1.40469
1.40243
1.40151
1.4004
1.40037
1.39998
1.39973
1.40048
1.39891
1.40134
1.39854
1.40069
1.40051
1.39885
1.40013
1.4008
1.4008
1.3972
1.40177
1.39944
1.40228
1.39679
1.40214
1.39746
1.40349
1.39717
1.40229
1.39816
1.40046
1.40061
1.39932
1.40065
1.39943
1.40035
1.39989
1.40007
1.40024
1.40025
1.4003
1.40045
1.40068
1.40105
1.40167
1.40288
1.4054
1.4102
1.4186
1.43157
1.44508
1.45207
1.45018
1.44127
1.42899
1.4156
1.40319
1.39269
1.38596
1.37715
1.35902
1.34685
1.35713
1.38237
1.4099
1.43487
1.4498
1.45418
1.44331
1.42813
1.41377
1.40397
1.38652
1.40865
1.38522
1.39003
1.406
1.41055
1.41359
1.41672
1.43937
1.46559
1.45818
1.4143
1.35579
1.312
1.30156
1.31742
1.3417
1.36921
1.3983
1.42489
1.44529
1.4575
1.46059
1.45642
1.4475
1.43709
1.42705
1.41872
1.41233
1.40766
1.40564
1.40306
1.4017
1.40089
1.40011
1.40038
1.39963
1.40014
1.39992
1.39985
1.3998
1.40043
1.39997
1.39856
1.40199
1.4001
1.39787
1.40073
1.40052
1.40216
1.3959
1.40304
1.39641
1.40531
1.3951
1.40457
1.39483
1.40478
1.39583
1.40376
1.39764
1.40104
1.39947
1.40028
1.40006
1.39987
1.40019
1.40032
1.40033
1.40047
1.40077
1.40121
1.40199
1.40354
1.40661
1.41235
1.42217
1.436
1.44818
1.45231
1.44752
1.43658
1.42315
1.40966
1.39721
1.38834
1.38285
1.37166
1.35357
1.35143
1.3748
1.40548
1.43363
1.45482
1.46047
1.44746
1.42025
1.40018
1.38228
1.36916
1.37832
1.37195
1.36255
1.38461
1.36868
1.38215
1.40831
1.40584
1.40355
1.41931
1.4442
1.44373
1.40684
1.36149
1.33076
1.31986
1.33099
1.35698
1.38582
1.41317
1.43655
1.45221
1.45884
1.4571
1.45
1.43999
1.43015
1.42109
1.41437
1.40893
1.40633
1.40397
1.40188
1.4012
1.40042
1.39996
1.40045
1.39913
1.40112
1.3984
1.40137
1.39961
1.39871
1.40164
1.40022
1.39851
1.39914
1.40318
1.39857
1.40046
1.39658
1.40483
1.39613
1.40485
1.39397
1.40572
1.39451
1.40465
1.39704
1.40155
1.39972
1.39953
1.40051
1.39969
1.40031
1.40003
1.40005
1.40019
1.40037
1.4006
1.40083
1.40132
1.40232
1.40429
1.40791
1.41468
1.42584
1.43992
1.45019
1.45157
1.44432
1.43173
1.41751
1.40416
1.39215
1.38499
1.37976
1.36681
1.35249
1.36254
1.39539
1.42621
1.45227
1.46468
1.45571
1.4223
1.38955
1.3652
1.346
1.33447
1.34182
1.30725
1.34141
1.33691
1.32772
1.35804
1.38303
1.402
1.40598
1.40309
1.40973
1.41545
1.41206
1.38915
1.35468
1.33553
1.33825
1.35209
1.37497
1.40299
1.42846
1.44652
1.45602
1.45692
1.4516
1.44263
1.43275
1.42364
1.41609
1.41058
1.40739
1.40447
1.40259
1.40109
1.4009
1.39989
1.40028
1.39995
1.39963
1.40029
1.40013
1.39909
1.40046
1.40132
1.39792
1.39972
1.40218
1.40007
1.39811
1.39945
1.40206
1.39925
1.40119
1.39753
1.40248
1.39719
1.40306
1.39697
1.40407
1.39585
1.40274
1.39802
1.40127
1.39969
1.40016
1.40012
1.40004
1.40017
1.40046
1.4007
1.40088
1.40148
1.40275
1.40513
1.4093
1.41713
1.42941
1.44318
1.45127
1.45009
1.44088
1.4269
1.41213
1.39927
1.38804
1.38213
1.37699
1.36404
1.35565
1.37857
1.41308
1.44123
1.46376
1.46367
1.43333
1.38976
1.35058
1.32553
1.30912
1.29675
1.26663
1.26999
1.29261
1.27171
1.32093
1.33761
1.34478
1.39091
1.42549
1.43091
1.41593
1.40658
1.4001
1.38121
1.36366
1.35219
1.34375
1.34974
1.37078
1.39597
1.42004
1.44017
1.45239
1.45617
1.45252
1.44479
1.43501
1.42599
1.41787
1.41201
1.40863
1.40497
1.40309
1.40151
1.40065
1.40063
1.39952
1.40076
1.3989
1.4013
1.39857
1.40036
1.40137
1.39811
1.39981
1.40158
1.40083
1.39689
1.40159
1.39897
1.40369
1.39509
1.40522
1.39347
1.40669
1.39275
1.40814
1.39379
1.40464
1.39596
1.40168
1.40004
1.40005
1.40014
1.39956
1.4001
1.40029
1.40026
1.40037
1.40064
1.401
1.40177
1.40328
1.40605
1.41079
1.41964
1.43276
1.44573
1.45159
1.4481
1.43739
1.42227
1.40706
1.39512
1.38461
1.3797
1.37531
1.36314
1.36355
1.39371
1.42407
1.45235
1.46831
1.44749
1.40133
1.35856
1.32084
1.29012
1.26906
1.24683
1.21653
1.24241
1.20718
1.23634
1.28703
1.28977
1.32427
1.36773
1.40602
1.43325
1.4417
1.43524
1.40949
1.38818
1.37266
1.35166
1.3431
1.35231
1.36779
1.38864
1.41305
1.43449
1.44857
1.45444
1.45285
1.44625
1.43724
1.42793
1.41985
1.41317
1.40951
1.40587
1.40326
1.40208
1.40065
1.40065
1.40002
1.39986
1.40042
1.39936
1.4
1.40086
1.39918
1.39893
1.40218
1.39977
1.39861
1.39915
1.4026
1.39885
1.40131
1.39759
1.40131
1.39848
1.40193
1.40052
1.39913
1.40009
1.39709
1.40391
1.39812
1.40221
1.39806
1.40025
1.39987
1.40036
1.40035
1.40011
1.40015
1.40064
1.4012
1.40202
1.40377
1.40698
1.41238
1.42208
1.43575
1.44767
1.45132
1.44581
1.43396
1.41793
1.40245
1.39151
1.38181
1.37804
1.37443
1.36458
1.37372
1.4015
1.43425
1.46055
1.4576
1.42339
1.38448
1.34025
1.30249
1.25967
1.22047
1.18659
1.17303
1.14651
1.12387
1.1784
1.17217
1.22795
1.29602
1.31877
1.35433
1.40384
1.44603
1.44994
1.43275
1.41147
1.37694
1.35376
1.35017
1.35204
1.36291
1.38418
1.40783
1.42874
1.44436
1.45225
1.45274
1.44734
1.43908
1.42973
1.42156
1.41454
1.4103
1.40664
1.40375
1.40214
1.40126
1.40017
1.40069
1.39941
1.4007
1.39894
1.40126
1.39915
1.39917
1.40176
1.39973
1.3988
1.39922
1.40273
1.39876
1.40128
1.39633
1.40323
1.39625
1.40706
1.39347
1.4063
1.39075
1.40773
1.39523
1.40485
1.39701
1.40017
1.39972
1.40048
1.40049
1.39996
1.39994
1.40013
1.40035
1.40089
1.40135
1.40213
1.40423
1.40796
1.41397
1.42434
1.43828
1.44914
1.45064
1.44336
1.43072
1.41397
1.3984
1.38814
1.37993
1.37708
1.37397
1.36912
1.37817
1.41001
1.4445
1.45362
1.44298
1.4178
1.37816
1.32961
1.27595
1.21484
1.1481
1.09568
1.07197
1.03343
1.07174
1.07651
1.08954
1.17409
1.22447
1.27982
1.33854
1.38645
1.4169
1.43345
1.44294
1.4201
1.38985
1.37236
1.35561
1.35013
1.36144
1.38027
1.40196
1.42358
1.44053
1.45008
1.45208
1.44799
1.44036
1.43147
1.42295
1.41598
1.4113
1.40712
1.40441
1.40225
1.40147
1.40049
1.40023
1.40028
1.39948
1.40072
1.39938
1.39972
1.40066
1.40063
1.39772
1.40126
1.40036
1.40143
1.39686
1.40173
1.39713
1.40562
1.3961
1.40373
1.39352
1.40365
1.39945
1.40196
1.40076
1.39626
1.40156
1.39865
1.40193
1.39984
1.39986
1.39945
1.40007
1.40049
1.40056
1.40088
1.40142
1.40236
1.4048
1.40895
1.41554
1.4264
1.44039
1.45021
1.44972
1.44093
1.42759
1.41065
1.3948
1.38496
1.37904
1.3763
1.37496
1.37186
1.38045
1.4241
1.44061
1.4413
1.4445
1.42203
1.36322
1.30841
1.22813
1.13158
1.03955
0.991251
0.980511
0.993735
1.02211
1.01264
1.08251
1.11558
1.16787
1.26117
1.32985
1.37043
1.3952
1.42644
1.43528
1.42396
1.41024
1.38185
1.35808
1.35393
1.36109
1.37624
1.39746
1.41908
1.43665
1.44754
1.45107
1.4483
1.44139
1.43292
1.42428
1.41713
1.41227
1.40766
1.4048
1.40271
1.40134
1.40096
1.39995
1.40051
1.39955
1.40057
1.39897
1.40115
1.39967
1.39892
1.40078
1.40069
1.40014
1.39792
1.40084
1.40003
1.4025
1.39807
1.40022
1.396
1.40597
1.39545
1.40747
1.39103
1.40524
1.39621
1.40351
1.3996
1.39963
1.39935
1.39988
1.40013
1.40049
1.40034
1.40016
1.40064
1.40166
1.40276
1.40529
1.40984
1.41707
1.42825
1.44201
1.45098
1.44869
1.43869
1.42445
1.40808
1.39161
1.38205
1.37875
1.37605
1.37625
1.37088
1.38986
1.4284
1.42864
1.44266
1.44657
1.41494
1.34704
1.26609
1.15103
1.02107
0.951384
0.946048
0.948729
0.961507
0.947403
0.985982
1.04734
1.07826
1.15071
1.21806
1.28435
1.34354
1.39731
1.4272
1.43219
1.4332
1.41206
1.3827
1.36653
1.35871
1.36074
1.37399
1.39371
1.41466
1.43284
1.44503
1.44986
1.44836
1.44219
1.43402
1.42558
1.41805
1.41296
1.40835
1.40504
1.40308
1.40152
1.40087
1.40043
1.39992
1.40044
1.3993
1.4008
1.39945
1.39979
1.4
1.40148
1.39796
1.40085
1.39871
1.40314
1.39776
1.40204
1.39439
1.4061
1.39551
1.40756
1.39227
1.40292
1.39786
1.40108
1.40261
1.39794
1.40055
1.39875
1.40044
1.40063
1.4002
1.4
1.40007
1.40011
1.40081
1.40196
1.40303
1.40557
1.4107
1.41854
1.42985
1.44314
1.45148
1.44779
1.43663
1.42146
1.40605
1.38902
1.37939
1.37863
1.3766
1.37573
1.37172
1.40033
1.41806
1.42793
1.44594
1.43475
1.40419
1.33375
1.20536
1.07054
0.960252
0.928406
0.915123
0.876444
0.84756
0.850468
0.921222
0.97202
1.05833
1.12394
1.1708
1.23702
1.32024
1.39023
1.42143
1.43693
1.43035
1.40928
1.39167
1.37318
1.36036
1.36083
1.37236
1.39046
1.41105
1.42948
1.44257
1.44857
1.44807
1.44279
1.43485
1.42667
1.41897
1.41349
1.40894
1.40538
1.40326
1.4018
1.40082
1.40059
1.39996
1.40028
1.39968
1.40054
1.39896
1.40112
1.39965
1.39949
1.39997
1.40055
1.4005
1.39951
1.39896
1.40012
1.40067
1.40173
1.39922
1.39678
1.40364
1.39537
1.40769
1.39439
1.40224
1.3977
1.40071
1.40068
1.4004
1.39991
1.39956
1.39976
1.40048
1.40054
1.40089
1.40195
1.4033
1.4059
1.41154
1.4199
1.43113
1.44402
1.45163
1.44727
1.43473
1.41885
1.4042
1.38724
1.37712
1.37822
1.37752
1.37437
1.37621
1.40105
1.40941
1.43351
1.43852
1.42209
1.39333
1.31058
1.16353
1.05433
0.970761
0.879579
0.782831
0.709877
0.687925
0.744368
0.822086
0.901799
1.0002
1.07736
1.15385
1.22822
1.30404
1.36294
1.40981
1.43158
1.42845
1.41799
1.39739
1.37457
1.36207
1.36148
1.37114
1.38805
1.40805
1.42657
1.44019
1.44728
1.44756
1.44308
1.43558
1.42741
1.41988
1.41408
1.40928
1.40581
1.40337
1.40199
1.40097
1.40046
1.40032
1.39982
1.4004
1.39941
1.4006
1.3997
1.39977
1.3999
1.4012
1.39849
1.40117
1.39816
1.40206
1.39888
1.40277
1.39475
1.40479
1.39403
1.40803
1.39505
1.4015
1.39946
1.39848
1.40207
1.40003
1.39989
1.39952
1.39959
1.4
1.4003
1.40056
1.40038
1.40056
1.40198
1.40373
1.40634
1.41209
1.42108
1.43215
1.4447
1.45149
1.44705
1.43319
1.41673
1.40229
1.38619
1.37554
1.37704
1.37868
1.3741
1.37959
1.39501
1.40962
1.43156
1.42933
1.41204
1.3737
1.29694
1.18474
1.07968
0.936598
0.732289
0.586771
0.54562
0.574761
0.649495
0.729283
0.835098
0.930373
1.03978
1.14544
1.2263
1.28431
1.34267
1.39439
1.42212
1.43183
1.42107
1.39824
1.37764
1.36473
1.36216
1.37021
1.3861
1.40536
1.42391
1.43806
1.44586
1.44708
1.44307
1.43617
1.42799
1.42055
1.41465
1.40952
1.40615
1.40352
1.40212
1.40106
1.40053
1.40027
1.40001
1.40015
1.39971
1.40057
1.39899
1.40108
1.39948
1.39998
1.39968
1.40063
1.3996
1.40092
1.39858
1.40093
1.39811
1.403
1.39966
1.39758
1.40318
1.39498
1.40462
1.39886
1.40012
1.39999
1.39923
1.39985
1.40061
1.40017
1.40007
1.4001
1.40024
1.40055
1.40221
1.40399
1.4067
1.41236
1.42208
1.43296
1.44516
1.45116
1.44695
1.43218
1.41527
1.40021
1.38556
1.37493
1.37525
1.37955
1.37534
1.37905
1.39054
1.41006
1.42535
1.41972
1.39916
1.36497
1.31346
1.21624
1.04114
0.816438
0.590926
0.478824
0.484206
0.529967
0.580717
0.662179
0.776791
0.894429
1.01378
1.12199
1.20691
1.27195
1.33
1.37748
1.41451
1.42859
1.41962
1.40049
1.38038
1.36629
1.36263
1.36951
1.38427
1.40305
1.42162
1.4362
1.44453
1.44647
1.44302
1.43641
1.42855
1.42093
1.41492
1.40987
1.40623
1.4038
1.40209
1.40122
1.40054
1.40025
1.40017
1.39988
1.40022
1.39971
1.4002
1.4001
1.39955
1.40016
1.40069
1.399
1.40081
1.39921
1.40044
1.39953
1.40218
1.39656
1.40394
1.39486
1.40427
1.39908
1.39922
1.40125
1.39848
1.39998
1.40071
1.39998
1.40049
1.39965
1.39952
1.40025
1.40068
1.40069
1.40214
1.40404
1.40701
1.41275
1.42268
1.4337
1.44533
1.45085
1.44678
1.43178
1.4146
1.39815
1.38486
1.37533
1.37355
1.37904
1.37784
1.37685
1.38762
1.40756
1.41834
1.40635
1.39551
1.37748
1.32218
1.18574
0.950864
0.729418
0.577489
0.502134
0.491952
0.509308
0.544979
0.622312
0.733192
0.867927
0.98989
1.09388
1.18329
1.25812
1.31634
1.3681
1.40651
1.42216
1.41787
1.40123
1.38165
1.36735
1.36285
1.36874
1.38287
1.40138
1.4198
1.43455
1.44337
1.44578
1.44289
1.4365
1.42888
1.42128
1.41503
1.41013
1.40628
1.40397
1.40211
1.40132
1.40052
1.40037
1.40005
1.40005
1.40008
1.39974
1.4005
1.39922
1.40078
1.39965
1.40001
1.39966
1.40069
1.39937
1.40088
1.39883
1.40143
1.39783
1.40147
1.401
1.39772
1.40256
1.39784
1.40022
1.40085
1.39972
1.40032
1.39963
1.39974
1.40003
1.39982
1.40048
1.40065
1.40055
1.40189
1.40421
1.40726
1.41324
1.42278
1.43435
1.44523
1.4508
1.44637
1.43208
1.41452
1.39666
1.38383
1.37613
1.37261
1.37704
1.38048
1.37629
1.38323
1.40363
1.4096
1.39833
1.40137
1.38596
1.29811
1.12799
0.911354
0.744606
0.640177
0.545749
0.49365
0.501211
0.544709
0.611103
0.704567
0.828278
0.957596
1.06994
1.16548
1.24359
1.30758
1.36039
1.39824
1.41664
1.41571
1.40132
1.38232
1.3677
1.36275
1.36833
1.38209
1.40013
1.41836
1.4332
1.44236
1.44515
1.44259
1.43652
1.42895
1.42155
1.41517
1.41013
1.40648
1.40389
1.40233
1.40118
1.40071
1.40027
1.40015
1.40008
1.39995
1.40008
1.39995
1.39991
1.40034
1.39948
1.40019
1.40046
1.39951
1.40003
1.40016
1.3998
1.39981
1.40133
1.39798
1.4021
1.39837
1.40001
1.4012
1.39917
1.40025
1.40035
1.3995
1.39985
1.39996
1.4003
1.39998
1.40018
1.40026
1.40055
1.4019
1.40437
1.40732
1.41354
1.42274
1.43462
1.44508
1.45078
1.44601
1.4328
1.41486
1.3963
1.38261
1.3762
1.37297
1.37464
1.38139
1.37911
1.37753
1.39688
1.40335
1.39759
1.40243
1.37878
1.27146
1.11208
0.944716
0.788681
0.66133
0.554057
0.504909
0.522318
0.565957
0.621247
0.701445
0.808286
0.935157
1.05796
1.15776
1.23623
1.30081
1.35358
1.39212
1.41227
1.4135
1.40022
1.38195
1.3678
1.36291
1.36817
1.38145
1.39914
1.41726
1.43217
1.4415
1.44456
1.44222
1.43636
1.42893
1.42157
1.41515
1.4101
1.40652
1.40388
1.40238
1.40118
1.40077
1.40021
1.40027
1.39995
1.40008
1.40004
1.39982
1.40034
1.39955
1.40034
1.40003
1.39982
1.3998
1.4004
1.39987
1.40027
1.39934
1.40082
1.39941
1.39967
1.40117
1.39906
1.40027
1.40053
1.3991
1.40022
1.40012
1.39995
1.40026
1.39995
1.39972
1.40008
1.40032
1.40069
1.40191
1.4042
1.40725
1.41354
1.42285
1.43444
1.44493
1.45048
1.44614
1.43351
1.41567
1.39707
1.38179
1.37513
1.37387
1.37347
1.37995
1.3833
1.37401
1.38758
1.3986
1.3986
1.39852
1.36777
1.26927
1.13713
0.986474
0.806464
0.662793
0.583139
0.549566
0.554316
0.587517
0.646762
0.731998
0.833345
0.947015
1.06232
1.16075
1.23772
1.29928
1.3496
1.38715
1.40832
1.41048
1.39835
1.38122
1.36767
1.36286
1.36792
1.38099
1.39853
1.41656
1.43147
1.44084
1.444
1.4418
1.43607
1.42877
1.42146
1.41497
1.41004
1.40639
1.40395
1.40224
1.40133
1.40062
1.40039
1.40014
1.40007
1.40006
1.39996
1.40004
1.40002
1.39988
1.40027
1.39971
1.39998
1.40042
1.39983
1.39968
1.40027
1.39996
1.39985
1.40049
1.39954
1.40012
1.40035
1.39932
1.40033
1.4002
1.39971
1.40027
1.39977
1.39998
1.39996
1.39982
1.40022
1.40038
1.40055
1.40177
1.40404
1.40723
1.41326
1.42288
1.4341
1.44466