/*--------------------------------*- C++ -*----------------------------------*\
  =========                 |
  \\      /  F ield         | OpenFOAM: The Open Source CFD Toolbox
   \\    /   O peration     | Website:  https://openfoam.org
    \\  /    A nd           | Version:  6
     \\/     M anipulation  |
\*---------------------------------------------------------------------------*/
FoamFile
{
    version     2.0;
    format      ascii;
    class       volVectorField;
    location    "1.89";
    object      U;
}
// * * * * * * * * * * * * * * * * * * * * * * * * * * * * * * * * * * * * * //

dimensions      [0 1 -1 0 0 0 0];

internalField   nonuniform List<vector> 
24166
(
(0.894812 0.446296 0)
(0.887706 0.44915 0)
(0.8944 0.4472 0)
(0.8944 0.4472 0)
(0.8944 0.4472 0)
(0.8944 0.4472 0)
(0.8944 0.4472 0)
(0.8944 0.4472 0)
(0.89209 0.449641 0)
(0.8944 0.4472 0)
(0.894409 0.447189 0)
(0.894591 0.448491 0)
(0.89701 0.448189 0)
(0.890233 0.446915 0)
(0.8946 0.447364 0)
(0.894394 0.447199 0)
(0.894718 0.447367 0)
(0.894371 0.44714 0)
(0.8944 0.4472 0)
(0.894375 0.447227 0)
(0.894431 0.447194 0)
(0.894404 0.447201 0)
(0.8944 0.4472 0)
(0.8944 0.4472 0)
(0.892182 0.449395 0)
(0.8944 0.4472 0)
(0.894401 0.4472 0)
(0.890893 0.445441 0)
(0.8944 0.4472 0)
(0.8944 0.4472 0)
(0.900405 0.432235 0)
(0.8944 0.4472 0)
(0.8944 0.4472 0)
(0.8944 0.4472 0)
(0.8944 0.4472 0)
(0.912354 0.363462 0)
(0.8944 0.4472 0)
(0.964953 0.376292 0)
(0.8944 0.4472 0)
(1.26088 -0.0396574 0)
(0.894372 0.447209 0)
(0.8944 0.4472 0)
(0.8944 0.4472 0)
(0.8944 0.4472 0)
(0.894381 0.447198 0)
(0.8944 0.4472 0)
(0.884696 0.447287 0)
(0.873037 0.428215 0)
(0.8944 0.4472 0)
(0.859417 0.425056 0)
(0.8944 0.4472 0)
(0.894105 0.44699 0)
(0.8944 0.4472 0)
(0.894233 0.447174 0)
(0.894401 0.4472 0)
(0.871198 0.469728 0)
(0.872318 0.403921 0)
(0.8944 0.4472 0)
(0.8944 0.4472 0)
(0.894393 0.447201 0)
(1.419 0.0227617 0)
(0.894571 0.447319 0)
(0.8944 0.4472 0)
(0.8944 0.4472 0)
(0.8944 0.4472 0)
(0.8944 0.4472 0)
(0.8944 0.4472 0)
(0.931446 0.490372 0)
(0.928092 0.471499 0)
(0.8944 0.4472 0)
(0.8944 0.447201 0)
(0.894347 0.447162 0)
(0.8944 0.4472 0)
(0.8944 0.4472 0)
(0.8944 0.4472 0)
(0.894402 0.447199 0)
(0.8944 0.447204 0)
(0.853151 0.418282 0)
(0.8944 0.4472 0)
(0.894332 0.447212 0)
(0.869321 0.650977 0)
(0.8944 0.4472 0)
(0.8944 0.4472 0)
(0.787073 0.567666 0)
(0.89448 0.447213 0)
(0.8944 0.4472 0)
(0.894251 0.4472 0)
(0.8944 0.4472 0)
(0.8944 0.4472 0)
(0.894403 0.447203 0)
(0.8944 0.4472 0)
(0.8944 0.4472 0)
(0.89453 0.446771 0)
(0.894404 0.447196 0)
(0.894343 0.447098 0)
(0.894272 0.447167 0)
(0.8944 0.4472 0)
(0.894726 0.447322 0)
(0.894409 0.447202 0)
(0.894402 0.447204 0)
(0.8944 0.4472 0)
(0.8944 0.4472 0)
(0.8944 0.446881 0)
(0.8944 0.4472 0)
(0.8944 0.4472 0)
(0.8944 0.4472 0)
(0.8944 0.4472 0)
(0.894393 0.447197 0)
(0.8944 0.4472 0)
(0.894406 0.447204 0)
(0.8944 0.4472 0)
(0.8944 0.4472 0)
(0.8944 0.4472 0)
(1.10914 0.110937 0)
(1.12797 0.124278 0)
(0.894392 0.44719 0)
(0.8944 0.4472 0)
(0.8944 0.4472 0)
(0.894445 0.447215 0)
(0.8944 0.4472 0)
(0.8944 0.4472 0)
(0.8944 0.4472 0)
(0.894235 0.449757 0)
(0.8944 0.4472 0)
(0.914927 0.487035 0)
(0.894322 0.447403 0)
(0.8944 0.4472 0)
(0.8944 0.4472 0)
(0.8944 0.4472 0)
(0.8944 0.4472 0)
(0.608668 0.769338 0)
(0.89215 0.445302 0)
(0.91524 0.449376 0)
(0.893706 0.472021 0)
(0.8944 0.4472 0)
(0.894399 0.447195 0)
(0.8944 0.4472 0)
(0.856938 0.682706 0)
(0.8944 0.4472 0)
(0.894399 0.447195 0)
(0.871697 0.468514 0)
(0.8944 0.4472 0)
(0.805263 0.544012 0)
(0.8944 0.4472 0)
(0.896585 0.452314 0)
(0.8944 0.4472 0)
(0.8944 0.4472 0)
(0.894399 0.447202 0)
(0.580639 0.779734 0)
(0.8944 0.4472 0)
(0.8944 0.4472 0)
(0.8944 0.4472 0)
(0.8944 0.4472 0)
(0.894406 0.447202 0)
(0.8944 0.447199 0)
(0.8944 0.4472 0)
(0.8944 0.4472 0)
(0.8944 0.4472 0)
(0.8944 0.4472 0)
(0.894402 0.447204 0)
(0.908839 0.456604 0)
(0.91132 0.444257 0)
(0.8944 0.4472 0)
(0.8944 0.4472 0)
(0.8944 0.4472 0)
(0.8944 0.4472 0)
(0.46591 0.0468554 0)
(0.8944 0.4472 0)
(0.8944 0.4472 0)
(0.8944 0.4472 0)
(0.8944 0.4472 0)
(0.8944 0.4472 0)
(0.8944 0.4472 0)
(0.894763 0.447558 0)
(0.8944 0.4472 0)
(0.89329 0.446352 0)
(0.8944 0.4472 0)
(0.8944 0.4472 0)
(0.894392 0.447143 0)
(0.8513 0.427805 0)
(0.8944 0.4472 0)
(0.8944 0.4472 0)
(0.99709 0.52048 0)
(0.8944 0.4472 0)
(0.8944 0.4472 0)
(0.8944 0.4472 0)
(0.8944 0.4472 0)
(0.8944 0.4472 0)
(0.8944 0.4472 0)
(0.8944 0.4472 0)
(0.8944 0.447201 0)
(0.893131 0.464358 0)
(0.894401 0.447199 0)
(0.894461 0.447668 0)
(0.8944 0.4472 0)
(0.894417 0.447186 0)
(0.897449 0.447626 0)
(0.8944 0.4472 0)
(0.894224 0.447408 0)
(0.894399 0.447191 0)
(0.8944 0.4472 0)
(0.8944 0.4472 0)
(0.8944 0.4472 0)
(0.893473 0.439722 0)
(0.8944 0.4472 0)
(0.8944 0.4472 0)
(0.8944 0.4472 0)
(0.8944 0.4472 0)
(0.8944 0.4472 0)
(0.85862 0.431313 0)
(0.901075 0.477333 0)
(0.8944 0.4472 0)
(0.892439 0.446876 0)
(0.894377 0.447206 0)
(0.8944 0.4472 0)
(0.894403 0.447199 0)
(0.8944 0.4472 0)
(0.8944 0.4472 0)
(1.05368 0.385604 0)
(0.8944 0.4472 0)
(0.8944 0.4472 0)
(0.895172 0.446519 0)
(0.8944 0.4472 0)
(0.8944 0.4472 0)
(0.912027 0.489668 0)
(0.8944 0.4472 0)
(0.8944 0.4472 0)
(0.8944 0.4472 0)
(0.894323 0.447151 0)
(0.8944 0.4472 0)
(0.897118 0.446133 0)
(0.89427 0.447215 0)
(0.894448 0.447285 0)
(0.8944 0.4472 0)
(0.968071 0.362826 0)
(0.8944 0.4472 0)
(0.894528 0.447196 0)
(0.8944 0.4472 0)
(0.8944 0.4472 0)
(0.8944 0.4472 0)
(0.8944 0.4472 0)
(0.8944 0.4472 0)
(0.8944 0.4472 0)
(0.8944 0.4472 0)
(0.894435 0.44718 0)
(0.8944 0.4472 0)
(0.894484 0.447251 0)
(0.894354 0.447185 0)
(0.894244 0.447067 0)
(0.8944 0.4472 0)
(0.894514 0.447132 0)
(0.8944 0.447199 0)
(0.894401 0.447207 0)
(1.00744 0.528252 0)
(0.8944 0.4472 0)
(0.8944 0.4472 0)
(0.8944 0.4472 0)
(0.894046 0.448215 0)
(0.8944 0.4472 0)
(0.894386 0.4472 0)
(0.8944 0.4472 0)
(0.8944 0.4472 0)
(0.8944 0.4472 0)
(0.894283 0.447313 0)
(0.8944 0.4472 0)
(0.894401 0.447201 0)
(0.894399 0.447201 0)
(0.8944 0.4472 0)
(0.8944 0.4472 0)
(0.8944 0.4472 0)
(0.894188 0.447185 0)
(0.936305 -0.198282 0)
(0.8944 0.4472 0)
(0.895118 0.446422 0)
(0.8944 0.4472 0)
(0.8944 0.4472 0)
(0.8944 0.4472 0)
(0.821472 0.378045 0)
(0.894393 0.447203 0)
(0.8944 0.4472 0)
(0.887746 0.463053 0)
(0.8944 0.4472 0)
(0.747605 -0.191439 0)
(0.8944 0.4472 0)
(0.8944 0.4472 0)
(0.8944 0.4472 0)
(0.8944 0.4472 0)
(0.8944 0.4472 0)
(0.894406 0.447316 0)
(0.8944 0.4472 0)
(1.0249 0.820093 0)
(0.8944 0.4472 0)
(0.8944 0.4472 0)
(0.8944 0.4472 0)
(0.894368 0.447182 0)
(1.4905 0.145376 0)
(0.8944 0.4472 0)
(0.8944 0.4472 0)
(0.895884 0.446849 0)
(0.8944 0.4472 0)
(0.8944 0.4472 0)
(0.89429 0.447193 0)
(0.894035 0.447225 0)
(0.8944 0.4472 0)
(0.8944 0.4472 0)
(0.8944 0.4472 0)
(0.8944 0.4472 0)
(0.89435 0.447163 0)
(0.893634 0.446917 0)
(0.8944 0.4472 0)
(0.88201 0.438849 0)
(0.894398 0.447199 0)
(0.8944 0.4472 0)
(0.779068 -0.307936 0)
(0.893543 0.446751 0)
(0.8944 0.4472 0)
(0.894364 0.447084 0)
(0.8944 0.4472 0)
(0.894378 0.447173 0)
(0.894294 0.447393 0)
(0.8944 0.4472 0)
(0.8944 0.4472 0)
(0.824967 0.461526 0)
(0.8944 0.4472 0)
(0.8944 0.4472 0)
(0.894398 0.447199 0)
(0.8944 0.4472 0)
(0.8944 0.4472 0)
(0.8944 0.4472 0)
(1.09043 0.360553 0)
(0.8944 0.4472 0)
(0.894422 0.447216 0)
(0.8944 0.4472 0)
(0.89416 0.448088 0)
(0.8944 0.4472 0)
(0.889918 0.444696 0)
(0.8944 0.4472 0)
(0.8944 0.4472 0)
(0.894375 0.447246 0)
(0.896057 0.451962 0)
(0.8944 0.4472 0)
(0.8944 0.4472 0)
(0.8944 0.4472 0)
(0.8944 0.4472 0)
(0.8944 0.4472 0)
(0.8944 0.4472 0)
(0.8944 0.4472 0)
(0.8944 0.4472 0)
(0.8944 0.4472 0)
(0.8944 0.4472 0)
(0.8944 0.4472 0)
(0.8944 0.4472 0)
(0.8944 0.4472 0)
(0.8944 0.4472 0)
(0.8944 0.4472 0)
(0.8944 0.4472 0)
(0.8944 0.4472 0)
(0.8944 0.4472 0)
(0.492949 0.122633 0)
(0.906247 0.448057 0)
(0.8944 0.4472 0)
(0.8944 0.4472 0)
(0.8944 0.4472 0)
(0.887563 0.446202 0)
(0.8944 0.4472 0)
(0.8944 0.4472 0)
(0.890214 0.444847 0)
(0.8944 0.4472 0)
(0.8944 0.4472 0)
(0.8944 0.4472 0)
(0.894197 0.448432 0)
(0.8944 0.4472 0)
(0.8944 0.4472 0)
(0.8944 0.4472 0)
(0.8944 0.4472 0)
(0.894634 0.447165 0)
(0.8944 0.4472 0)
(0.894697 0.447032 0)
(0.8944 0.4472 0)
(0.8944 0.4472 0)
(0.8944 0.447201 0)
(0.8944 0.4472 0)
(0.8944 0.4472 0)
(0.894225 0.44741 0)
(0.892911 0.448629 0)
(0.8944 0.4472 0)
(0.8944 0.4472 0)
(0.894201 0.447198 0)
(0.8944 0.4472 0)
(1.03863 0.781083 0)
(0.8944 0.4472 0)
(0.8944 0.4472 0)
(0.893853 0.448055 0)
(0.902615 0.460006 0)
(0.852607 0.1475 0)
(0.897049 0.44639 0)
(0.8944 0.447204 0)
(0.8944 0.4472 0)
(0.8944 0.4472 0)
(0.8944 0.4472 0)
(0.8944 0.4472 0)
(0.8944 0.4472 0)
(0.893893 0.447817 0)
(0.895159 0.447087 0)
(0.8944 0.4472 0)
(0.8944 0.4472 0)
(0.8944 0.4472 0)
(0.893518 0.44687 0)
(0.8944 0.4472 0)
(0.8944 0.4472 0)
(0.894321 0.446645 0)
(0.8944 0.4472 0)
(0.8944 0.4472 0)
(0.8944 0.4472 0)
(0.8944 0.4472 0)
(0.893741 0.446307 0)
(0.887435 0.439296 0)
(0.8944 0.4472 0)
(0.894393 0.447201 0)
(0.8944 0.4472 0)
(0.8944 0.4472 0)
(0.836733 0.406803 0)
(0.8944 0.4472 0)
(0.8944 0.4472 0)
(0.894401 0.447199 0)
(0.8944 0.4472 0)
(0.894266 0.44869 0)
(0.8944 0.4472 0)
(0.8944 0.4472 0)
(0.894128 0.446575 0)
(0.894253 0.447201 0)
(0.914318 0.524082 0)
(0.8944 0.4472 0)
(0.894399 0.447202 0)
(0.894401 0.447202 0)
(0.8944 0.4472 0)
(0.8944 0.4472 0)
(0.8944 0.4472 0)
(0.8944 0.4472 0)
(0.89356 0.446189 0)
(0.894397 0.447221 0)
(0.8944 0.4472 0)
(0.5027 0.159067 0)
(0.8944 0.4472 0)
(0.8944 0.4472 0)
(0.894411 0.447225 0)
(0.947195 0.313026 0)
(0.8944 0.447201 0)
(0.770446 0.38112 0)
(1.08704 0.44479 0)
(0.8944 0.4472 0)
(0.8944 0.4472 0)
(0.8944 0.4472 0)
(0.894178 0.445405 0)
(0.893804 0.449941 0)
(0.894125 0.44713 0)
(0.895742 0.430193 0)
(0.8944 0.4472 0)
(0.8944 0.4472 0)
(0.8944 0.447199 0)
(0.20082 0.673856 0)
(0.8944 0.4472 0)
(0.89371 0.447675 0)
(0.832039 0.298853 0)
(0.8944 0.4472 0)
(0.8944 0.4472 0)
(0.8944 0.4472 0)
(0.8944 0.4472 0)
(0.894394 0.447223 0)
(0.8944 0.4472 0)
(0.894397 0.447203 0)
(0.89401 0.450548 0)
(0.8944 0.4472 0)
(0.8944 0.4472 0)
(0.8944 0.4472 0)
(0.894007 0.448154 0)
(0.8944 0.4472 0)
(0.8944 0.4472 0)
(0.8944 0.4472 0)
(0.894346 0.447231 0)
(0.8944 0.4472 0)
(0.954522 0.335448 0)
(0.8944 0.4472 0)
(0.8944 0.4472 0)
(0.55145 0.200922 0)
(0.8944 0.4472 0)
(0.894894 0.446952 0)
(0.8944 0.447203 0)
(0.8944 0.4472 0)
(0.8944 0.4472 0)
(0.8944 0.4472 0)
(0.8944 0.4472 0)
(0.8944 0.4472 0)
(0.8944 0.4472 0)
(0.892977 0.42154 0)
(0.819392 0.411963 0)
(0.8944 0.4472 0)
(0.894353 0.447196 0)
(0.8944 0.4472 0)
(0.892606 0.44877 0)
(0.8944 0.4472 0)
(0.894551 0.448463 0)
(0.788147 0.366983 0)
(0.1914 0.63431 0)
(0.8944 0.4472 0)
(0.89437 0.447039 0)
(0.894391 0.447203 0)
(0.8944 0.4472 0)
(0.8944 0.4472 0)
(0.894117 0.447119 0)
(0.894399 0.447201 0)
(0.8944 0.4472 0)
(0.8944 0.4472 0)
(0.8944 0.4472 0)
(0.895535 0.444316 0)
(0.901258 0.451621 0)
(0.902628 0.449093 0)
(0.894383 0.447228 0)
(0.8944 0.4472 0)
(0.8944 0.4472 0)
(0.8944 0.4472 0)
(0.8944 0.4472 0)
(0.91232 0.451169 0)
(0.969513 0.454591 0)
(0.8944 0.4472 0)
(0.8944 0.4472 0)
(0.8944 0.4472 0)
(0.8944 0.4472 0)
(0.8944 0.4472 0)
(1.02327 0.667306 0)
(0.8944 0.4472 0)
(0.894472 0.447307 0)
(0.8944 0.4472 0)
(0.894399 0.447202 0)
(0.8944 0.447197 0)
(0.8944 0.4472 0)
(0.203456 0.820974 0)
(0.894399 0.447202 0)
(0.894156 0.44754 0)
(0.894399 0.4472 0)
(0.8944 0.4472 0)
(0.8944 0.4472 0)
(0.885505 0.442323 0)
(0.8944 0.4472 0)
(0.926896 0.442577 0)
(0.894398 0.447203 0)
(0.922593 0.367592 0)
(0.8944 0.4472 0)
(0.894398 0.44724 0)
(0.894771 0.447522 0)
(0.900105 0.43185 0)
(0.8944 0.4472 0)
(0.894331 0.447208 0)
(0.8944 0.4472 0)
(0.8944 0.4472 0)
(0.8944 0.4472 0)
(0.8944 0.4472 0)
(0.872209 0.441774 0)
(0.8944 0.4472 0)
(1.06033 -0.118303 0)
(0.482796 1.03472 0)
(0.8944 0.4472 0)
(0.8944 0.4472 0)
(0.894251 0.44519 0)
(0.8944 0.4472 0)
(0.837222 0.463645 0)
(0.947808 1.15513 0)
(0.894392 0.447212 0)
(0.8944 0.4472 0)
(0.8944 0.4472 0)
(0.8944 0.4472 0)
(0.894915 0.46796 0)
(0.894399 0.447204 0)
(0.8944 0.4472 0)
(0.893821 0.447761 0)
(0.8944 0.4472 0)
(0.894396 0.447233 0)
(0.8944 0.4472 0)
(0.894402 0.447198 0)
(0.8944 0.4472 0)
(0.894487 0.44554 0)
(0.8944 0.4472 0)
(0.8944 0.4472 0)
(0.8944 0.4472 0)
(0.8944 0.447203 0)
(0.8944 0.4472 0)
(0.8944 0.4472 0)
(0.88743 0.43926 0)
(0.884926 0.440824 0)
(0.886902 0.272585 0)
(0.8944 0.4472 0)
(0.89402 0.447321 0)
(0.8944 0.4472 0)
(0.8944 0.4472 0)
(0.785261 -0.245232 0)
(0.8944 0.4472 0)
(0.8944 0.447198 0)
(0.850041 0.282311 0)
(0.8944 0.4472 0)
(0.8944 0.4472 0)
(0.901349 0.447967 0)
(0.8944 0.4472 0)
(0.8944 0.4472 0)
(0.894528 0.447326 0)
(0.8944 0.4472 0)
(0.897655 0.438116 0)
(0.894388 0.44722 0)
(0.894398 0.447205 0)
(0.890884 0.441633 0)
(0.8944 0.4472 0)
(0.898525 0.445211 0)
(0.8944 0.4472 0)
(0.894405 0.447208 0)
(0.8944 0.4472 0)
(0.893501 0.445463 0)
(0.8944 0.4472 0)
(0.8944 0.4472 0)
(1.05251 0.420604 0)
(0.937855 0.47729 0)
(0.8944 0.4472 0)
(0.90851 0.435642 0)
(0.8944 0.4472 0)
(0.896164 0.446478 0)
(0.8944 0.447199 0)
(0.8944 0.4472 0)
(0.8944 0.4472 0)
(0.893878 0.447259 0)
(0.8944 0.4472 0)
(0.968672 0.44769 0)
(0.8944 0.4472 0)
(0.8944 0.4472 0)
(0.87789 0.46841 0)
(0.8944 0.4472 0)
(0.896977 0.433912 0)
(0.8944 0.4472 0)
(0.8944 0.447201 0)
(1.0797 0.225931 0)
(0.8944 0.4472 0)
(0.8944 0.4472 0)
(0.903418 0.480778 0)
(0.894398 0.4472 0)
(0.8944 0.4472 0)
(0.894502 0.448211 0)
(0.894198 0.446966 0)
(1.1568 0.532708 0)
(0.8944 0.4472 0)
(0.894371 0.447209 0)
(0.894337 0.447207 0)
(0.894478 0.447228 0)
(0.8944 0.447201 0)
(0.8944 0.4472 0)
(0.8944 0.4472 0)
(0.8944 0.4472 0)
(0.8944 0.4472 0)
(0.894401 0.447258 0)
(0.8944 0.4472 0)
(0.8944 0.4472 0)
(0.8944 0.4472 0)
(0.8944 0.4472 0)
(0.894397 0.4472 0)
(0.8944 0.4472 0)
(0.894549 0.447273 0)
(0.8944 0.4472 0)
(0.8944 0.4472 0)
(0.8944 0.4472 0)
(0.88744 0.448728 0)
(0.909989 0.451356 0)
(0.8944 0.4472 0)
(0.894381 0.447185 0)
(0.8944 0.4472 0)
(0.8944 0.4472 0)
(1.24873 0.322438 0)
(0.8944 0.4472 0)
(0.8944 0.4472 0)
(0.894403 0.447199 0)
(0.722408 -0.200501 0)
(0.8944 0.4472 0)
(0.8944 0.4472 0)
(0.894397 0.447231 0)
(0.8944 0.4472 0)
(0.8944 0.4472 0)
(0.8944 0.4472 0)
(0.8944 0.4472 0)
(0.8944 0.447201 0)
(0.8944 0.4472 0)
(0.8944 0.4472 0)
(0.8944 0.4472 0)
(0.8944 0.4472 0)
(0.894444 0.447206 0)
(0.898364 0.443843 0)
(0.882832 0.450463 0)
(0.894372 0.447224 0)
(0.8944 0.4472 0)
(0.894398 0.4472 0)
(0.8944 0.4472 0)
(0.8944 0.4472 0)
(0.891985 0.445044 0)
(0.894398 0.447204 0)
(0.87108 0.440859 0)
(1.15575 0.520597 0)
(0.8944 0.4472 0)
(0.8944 0.4472 0)
(0.8944 0.4472 0)
(0.8944 0.4472 0)
(0.881714 0.435889 0)
(0.8944 0.4472 0)
(0.894381 0.447238 0)
(1.03567 0.647721 0)
(0.8944 0.4472 0)
(0.8944 0.4472 0)
(0.8944 0.4472 0)
(0.892058 0.450914 0)
(0.8944 0.4472 0)
(0.8944 0.4472 0)
(0.8944 0.4472 0)
(0.8944 0.4472 0)
(0.896628 0.447552 0)
(0.99955 0.649286 0)
(0.8944 0.4472 0)
(0.909134 0.444971 0)
(0.896432 0.442575 0)
(0.83736 0.365001 0)
(0.894399 0.4472 0)
(0.8944 0.4472 0)
(0.894832 0.447054 0)
(0.8944 0.4472 0)
(0.814296 0.451006 0)
(0.8944 0.4472 0)
(0.894357 0.447193 0)
(0.8944 0.4472 0)
(0.894399 0.447205 0)
(0.8944 0.4472 0)
(0.89522 0.447224 0)
(0.876621 0.443884 0)
(0.93204 0.456516 0)
(0.894362 0.447235 0)
(0.894479 0.447283 0)
(0.8944 0.4472 0)
(0.8944 0.4472 0)
(0.8944 0.4472 0)
(0.894376 0.447223 0)
(0.8944 0.4472 0)
(0.8944 0.447211 0)
(0.894393 0.447315 0)
(0.44733 -0.123836 0)
(0.875544 0.441052 0)
(0.8944 0.4472 0)
(0.8944 0.4472 0)
(0.8944 0.4472 0)
(0.8944 0.4472 0)
(0.8944 0.4472 0)
(0.8944 0.4472 0)
(0.8944 0.4472 0)
(0.8944 0.4472 0)
(0.898177 0.498839 0)
(0.8944 0.4472 0)
(0.8944 0.4472 0)
(0.894402 0.4472 0)
(0.880099 0.450023 0)
(0.8944 0.4472 0)
(0.8944 0.4472 0)
(0.8944 0.4472 0)
(0.8944 0.4472 0)
(0.8944 0.4472 0)
(0.916031 0.541229 0)
(0.8944 0.4472 0)
(0.8944 0.4472 0)
(0.8944 0.4472 0)
(0.8944 0.447201 0)
(0.893733 0.446865 0)
(0.8944 0.4472 0)
(0.8944 0.4472 0)
(0.8944 0.4472 0)
(0.8944 0.4472 0)
(0.8944 0.4472 0)
(0.894395 0.447206 0)
(0.8944 0.4472 0)
(0.8944 0.4472 0)
(0.922816 0.45383 0)
(0.894401 0.447204 0)
(0.8944 0.4472 0)
(0.8944 0.4472 0)
(0.894399 0.447204 0)
(0.8944 0.4472 0)
(0.8944 0.4472 0)
(0.8944 0.4472 0)
(0.894419 0.4472 0)
(0.8944 0.4472 0)
(0.8944 0.4472 0)
(0.8944 0.4472 0)
(0.8944 0.4472 0)
(0.711328 0.498555 0)
(0.8944 0.4472 0)
(0.8944 0.4472 0)
(0.8944 0.4472 0)
(0.8944 0.4472 0)
(0.894397 0.4472 0)
(0.8944 0.4472 0)
(0.8944 0.4472 0)
(0.8944 0.4472 0)
(0.8944 0.4472 0)
(0.476015 -0.0953763 0)
(0.876083 0.469698 0)
(0.8944 0.4472 0)
(0.760914 0.408178 0)
(0.8944 0.447201 0)
(0.883529 0.456601 0)
(0.8944 0.4472 0)
(0.8944 0.4472 0)
(0.8944 0.4472 0)
(0.8944 0.447201 0)
(0.8944 0.4472 0)
(0.8944 0.4472 0)
(0.8944 0.4472 0)
(0.8944 0.4472 0)
(0.8944 0.4472 0)
(1.09114 0.0360476 0)
(0.894291 0.447049 0)
(0.8944 0.447201 0)
(0.8944 0.4472 0)
(0.8944 0.4472 0)
(0.894416 0.447194 0)
(0.894391 0.447203 0)
(0.8944 0.4472 0)
(0.8944 0.4472 0)
(0.48384 0.528809 0)
(0.894388 0.447187 0)
(0.8944 0.4472 0)
(0.8944 0.4472 0)
(0.8944 0.4472 0)
(0.8944 0.4472 0)
(0.894153 0.446887 0)
(0.8944 0.4472 0)
(0.8944 0.4472 0)
(0.894408 0.447212 0)
(0.8944 0.4472 0)
(0.894393 0.447206 0)
(0.522169 0.536889 0)
(0.8944 0.4472 0)
(0.894244 0.447173 0)
(0.898201 0.443255 0)
(0.8904 0.446098 0)
(0.8944 0.4472 0)
(0.900481 0.456078 0)
(0.8944 0.4472 0)
(0.894399 0.447207 0)
(0.8944 0.4472 0)
(0.8944 0.4472 0)
(0.8944 0.4472 0)
(0.8944 0.4472 0)
(0.8944 0.4472 0)
(0.8944 0.4472 0)
(0.8944 0.4472 0)
(0.895176 0.447762 0)
(0.871252 0.449677 0)
(0.894399 0.4472 0)
(0.89125 0.444769 0)
(0.894407 0.4472 0)
(0.894399 0.4472 0)
(0.8944 0.4472 0)
(0.8944 0.4472 0)
(0.894371 0.447172 0)
(0.8944 0.4472 0)
(0.8944 0.4472 0)
(0.8944 0.4472 0)
(0.895682 0.450517 0)
(0.8944 0.4472 0)
(0.892132 0.341837 0)
(0.8944 0.4472 0)
(0.89687 0.446908 0)
(0.894384 0.447222 0)
(0.8944 0.4472 0)
(0.8944 0.4472 0)
(0.894048 0.447719 0)
(0.918497 0.437627 0)
(0.8944 0.4472 0)
(0.894397 0.447207 0)
(0.8944 0.4472 0)
(0.895041 0.447664 0)
(0.8944 0.4472 0)
(0.8944 0.4472 0)
(0.8944 0.4472 0)
(0.894343 0.447221 0)
(0.8944 0.4472 0)
(0.8944 0.447199 0)
(0.8944 0.4472 0)
(0.8944 0.4472 0)
(0.8944 0.447199 0)
(0.8944 0.4472 0)
(0.891965 0.432612 0)
(0.8944 0.4472 0)
(0.8944 0.4472 0)
(0.897715 0.467233 0)
(0.8944 0.4472 0)
(0.894267 0.447221 0)
(0.895558 0.447382 0)
(0.8944 0.4472 0)
(0.894402 0.447198 0)
(0.8944 0.4472 0)
(0.8944 0.4472 0)
(0.894388 0.447215 0)
(0.8944 0.4472 0)
(0.8944 0.4472 0)
(0.89439 0.447223 0)
(0.8944 0.4472 0)
(0.8944 0.4472 0)
(0.899025 0.447332 0)
(0.415915 0.136337 0)
(0.8944 0.4472 0)
(0.896877 0.447443 0)
(0.8944 0.4472 0)
(0.8944 0.4472 0)
(0.894399 0.447204 0)
(0.894401 0.447197 0)
(0.8944 0.4472 0)
(0.894402 0.4472 0)
(0.8944 0.4472 0)
(0.8944 0.4472 0)
(0.894395 0.447197 0)
(0.831385 0.575654 0)
(0.8944 0.4472 0)
(0.8944 0.4472 0)
(0.894398 0.4472 0)
(0.895793 0.448137 0)
(1.11803 0.537939 0)
(0.894487 0.447206 0)
(0.894501 0.447461 0)
(0.8944 0.447203 0)
(0.894389 0.447213 0)
(0.894401 0.447201 0)
(0.8944 0.4472 0)
(0.894399 0.4472 0)
(0.8944 0.4472 0)
(0.894397 0.447209 0)
(0.900038 0.431787 0)
(0.894228 0.446804 0)
(0.959732 0.265427 0)
(0.8944 0.4472 0)
(0.895545 0.450866 0)
(0.894399 0.447199 0)
(0.894397 0.447201 0)
(1.12733 0.546171 0)
(0.929882 0.373976 0)
(0.8944 0.4472 0)
(0.894396 0.447189 0)
(0.894399 0.447201 0)
(0.8944 0.4472 0)
(0.8944 0.4472 0)
(0.894373 0.447192 0)
(0.155436 0.513756 0)
(0.893648 0.446942 0)
(0.917975 0.401152 0)
(0.8944 0.4472 0)
(0.8944 0.4472 0)
(0.892227 0.446824 0)
(0.895327 0.446216 0)
(0.885849 0.453697 0)
(0.8944 0.4472 0)
(0.8944 0.4472 0)
(0.8944 0.4472 0)
(0.89847 0.436727 0)
(0.8944 0.4472 0)
(0.8944 0.4472 0)
(0.8944 0.4472 0)
(0.864631 0.417878 0)
(0.894391 0.447204 0)
(0.8944 0.4472 0)
(0.90271 0.439776 0)
(0.8944 0.4472 0)
(0.8944 0.4472 0)
(0.8944 0.4472 0)
(0.8944 0.4472 0)
(0.8944 0.447198 0)
(0.8944 0.4472 0)
(0.8944 0.4472 0)
(0.8944 0.4472 0)
(0.8944 0.4472 0)
(0.894401 0.447203 0)
(0.90404 0.446252 0)
(0.894394 0.447241 0)
(0.894259 0.447285 0)
(0.8944 0.4472 0)
(0.813158 0.582586 0)
(0.8944 0.4472 0)
(0.8944 0.4472 0)
(0.8944 0.4472 0)
(1.09761 0.192485 0)
(0.8944 0.4472 0)
(0.894401 0.4472 0)
(0.890233 0.72571 0)
(0.894443 0.447181 0)
(0.923973 0.347548 0)
(0.8944 0.4472 0)
(0.8944 0.4472 0)
(0.8944 0.4472 0)
(0.8944 0.4472 0)
(0.8944 0.4472 0)
(0.8944 0.4472 0)
(0.895431 0.450693 0)
(0.894398 0.4472 0)
(0.896766 0.448271 0)
(0.8944 0.4472 0)
(0.894181 0.447439 0)
(0.947379 0.459531 0)
(0.894415 0.447239 0)
(0.8944 0.4472 0)
(0.8944 0.4472 0)
(0.8944 0.4472 0)
(0.8944 0.4472 0)
(0.8944 0.4472 0)
(0.86433 0.429887 0)
(0.894413 0.447198 0)
(0.894378 0.447177 0)
(0.894451 0.447173 0)
(0.900344 0.453356 0)
(0.907179 0.472396 0)
(0.91839 0.447733 0)
(0.8944 0.4472 0)
(0.8944 0.4472 0)
(0.8944 0.4472 0)
(0.8944 0.4472 0)
(0.894016 0.446951 0)
(0.8944 0.4472 0)
(0.8944 0.4472 0)
(0.894398 0.447207 0)
(0.894399 0.4472 0)
(0.891295 0.444753 0)
(0.894357 0.44721 0)
(0.8944 0.4472 0)
(0.8944 0.4472 0)
(1.0173 0.378507 0)
(0.8944 0.4472 0)
(0.89441 0.447199 0)
(0.894399 0.447199 0)
(0.8944 0.4472 0)
(0.8944 0.4472 0)
(0.8944 0.4472 0)
(0.8944 0.4472 0)
(0.8944 0.4472 0)
(0.899173 0.502713 0)
(0.867174 0.356685 0)
(0.8944 0.4472 0)
(0.894425 0.447081 0)
(0.894599 0.42838 0)
(0.8944 0.4472 0)
(0.894398 0.447199 0)
(0.8944 0.4472 0)
(0.895648 0.45982 0)
(0.8944 0.4472 0)
(0.8944 0.4472 0)
(0.8944 0.4472 0)
(0.894393 0.44721 0)
(0.8944 0.4472 0)
(0.894401 0.447201 0)
(0.894401 0.447196 0)
(0.894395 0.447224 0)
(0.8944 0.4472 0)
(0.8944 0.4472 0)
(0.89451 0.447735 0)
(0.8944 0.4472 0)
(0.8944 0.4472 0)
(0.8944 0.4472 0)
(0.8944 0.4472 0)
(0.894399 0.4472 0)
(0.894499 0.447449 0)
(0.90769 0.435644 0)
(0.8944 0.4472 0)
(0.892126 0.450181 0)
(0.839847 0.440303 0)
(0.8944 0.4472 0)
(0.894396 0.447197 0)
(0.8944 0.447202 0)
(0.89626 0.45123 0)
(0.8944 0.4472 0)
(0.89408 0.447513 0)
(0.8944 0.4472 0)
(0.8944 0.447201 0)
(0.8944 0.4472 0)
(1.28053 0.0700442 0)
(0.894386 0.447199 0)
(0.926158 0.444583 0)
(0.8944 0.4472 0)
(0.8944 0.4472 0)
(0.8944 0.4472 0)
(0.894579 0.447206 0)
(0.8944 0.4472 0)
(0.894662 0.447805 0)
(0.894401 0.4472 0)
(0.8944 0.4472 0)
(0.8944 0.4472 0)
(0.894193 0.447367 0)
(0.8944 0.4472 0)
(0.894398 0.4472 0)
(0.8944 0.4472 0)
(0.8944 0.4472 0)
(0.8944 0.4472 0)
(0.893917 0.446759 0)
(0.8944 0.4472 0)
(0.894401 0.447202 0)
(0.8944 0.4472 0)
(0.827284 0.123287 0)
(0.894411 0.447218 0)
(0.900767 0.449419 0)
(0.894478 0.447214 0)
(0.894401 0.447199 0)
(0.89439 0.447195 0)
(0.894403 0.447197 0)
(0.8944 0.4472 0)
(0.894401 0.447204 0)
(0.8944 0.4472 0)
(0.894495 0.447062 0)
(0.892764 0.447164 0)
(0.89439 0.447188 0)
(0.8944 0.4472 0)
(0.894363 0.447176 0)
(0.959217 0.395298 0)
(0.896014 0.448479 0)
(0.8944 0.4472 0)
(0.8944 0.4472 0)
(0.8944 0.4472 0)
(0.8944 0.4472 0)
(0.894981 0.444946 0)
(0.8944 0.4472 0)
(0.894401 0.447199 0)
(0.8944 0.4472 0)
(0.8944 0.4472 0)
(0.8944 0.4472 0)
(0.544716 0.960463 0)
(0.8944 0.4472 0)
(0.529936 0.959212 0)
(0.8944 0.4472 0)
(0.894398 0.447202 0)
(0.8944 0.4472 0)
(0.894337 0.447135 0)
(0.894434 0.447181 0)
(0.894417 0.447211 0)
(0.895747 0.447423 0)
(0.947525 0.462004 0)
(0.894426 0.447264 0)
(0.8944 0.4472 0)
(0.893781 0.464074 0)
(0.8944 0.4472 0)
(0.905499 0.453373 0)
(0.895714 0.448478 0)
(0.8944 0.4472 0)
(0.8944 0.4472 0)
(0.895135 0.443367 0)
(0.8944 0.4472 0)
(0.893725 0.446856 0)
(0.872821 0.453057 0)
(0.8944 0.4472 0)
(0.894405 0.447148 0)
(0.8944 0.4472 0)
(0.8944 0.4472 0)
(0.8944 0.447201 0)
(0.8944 0.4472 0)
(0.828346 0.319366 0)
(0.894961 0.447806 0)
(0.8944 0.4472 0)
(0.894399 0.4472 0)
(0.900734 0.443766 0)
(0.8944 0.4472 0)
(0.8944 0.4472 0)
(0.880924 0.429902 0)
(1.18782 0.486573 0)
(0.8944 0.4472 0)
(0.8944 0.4472 0)
(0.894147 0.447187 0)
(0.8944 0.4472 0)
(0.894404 0.447194 0)
(0.764304 0.721264 0)
(0.866714 0.450105 0)
(0.8944 0.4472 0)
(0.8944 0.4472 0)
(0.8944 0.4472 0)
(0.894401 0.447207 0)
(0.8944 0.4472 0)
(0.8944 0.4472 0)
(0.894401 0.447202 0)
(0.894386 0.447199 0)
(0.8944 0.447201 0)
(0.8944 0.4472 0)
(0.8944 0.4472 0)
(0.894399 0.447202 0)
(0.894384 0.447222 0)
(0.894452 0.4473 0)
(0.8944 0.4472 0)
(0.8944 0.447203 0)
(0.875689 0.44939 0)
(0.894785 0.447959 0)
(0.8944 0.4472 0)
(0.8944 0.4472 0)
(0.908812 0.461068 0)
(0.8944 0.4472 0)
(0.8944 0.4472 0)
(0.8944 0.4472 0)
(0.8944 0.4472 0)
(0.894408 0.447201 0)
(0.8944 0.4472 0)
(0.8944 0.4472 0)
(0.8944 0.4472 0)
(0.896302 0.453529 0)
(0.8944 0.4472 0)
(0.950517 0.470288 0)
(0.893914 0.447242 0)
(0.894395 0.447211 0)
(0.8944 0.4472 0)
(0.896314 0.461153 0)
(0.8944 0.4472 0)
(0.8944 0.4472 0)
(0.946966 0.266432 0)
(0.8944 0.4472 0)
(0.893659 0.449023 0)
(0.8944 0.4472 0)
(0.899796 0.45166 0)
(0.8944 0.4472 0)
(0.894398 0.447198 0)
(0.8944 0.4472 0)
(0.894401 0.447201 0)
(0.8944 0.4472 0)
(0.894394 0.447193 0)
(0.8944 0.4472 0)
(1.48183 0.139529 0)
(0.8944 0.4472 0)
(0.896658 0.449171 0)
(0.8944 0.4472 0)
(0.8944 0.4472 0)
(0.8944 0.4472 0)
(0.8944 0.4472 0)
(0.8944 0.4472 0)
(0.8944 0.4472 0)
(0.8944 0.4472 0)
(0.8944 0.4472 0)
(0.8944 0.4472 0)
(0.8944 0.4472 0)
(0.894582 0.447928 0)
(0.894404 0.447324 0)
(0.8944 0.4472 0)
(0.927452 0.469641 0)
(0.8944 0.4472 0)
(0.89756 0.764155 0)
(0.89439 0.44715 0)
(0.8944 0.4472 0)
(0.8944 0.447201 0)
(0.8944 0.4472 0)
(0.8944 0.4472 0)
(0.8944 0.4472 0)
(0.894425 0.447227 0)
(0.895251 0.447439 0)
(0.894396 0.447201 0)
(0.893372 0.447178 0)
(0.790512 0.398115 0)
(0.8944 0.4472 0)
(0.8944 0.447199 0)
(0.8944 0.4472 0)
(0.894401 0.447199 0)
(0.8944 0.4472 0)
(0.8944 0.4472 0)
(0.8944 0.4472 0)
(0.8944 0.4472 0)
(0.8944 0.4472 0)
(0.859813 0.416451 0)
(0.892426 0.465031 0)
(1.37934 0.529539 0)
(0.8944 0.4472 0)
(0.8944 0.4472 0)
(0.894091 0.447934 0)
(0.8944 0.4472 0)
(1.35068 0.419129 0)
(0.8944 0.4472 0)
(0.894479 0.446936 0)
(0.8944 0.4472 0)
(0.8944 0.4472 0)
(0.894254 0.447181 0)
(1.5475 0.229092 0)
(0.8944 0.4472 0)
(0.8944 0.4472 0)
(0.8944 0.4472 0)
(0.894298 0.447143 0)
(0.895825 0.445838 0)
(0.8944 0.447202 0)
(0.8944 0.4472 0)
(0.8944 0.447201 0)
(0.8944 0.4472 0)
(0.90187 0.448972 0)
(0.8944 0.4472 0)
(0.8944 0.447199 0)
(0.894395 0.447215 0)
(0.930096 0.444377 0)
(0.8944 0.4472 0)
(0.8944 0.4472 0)
(0.933354 0.430985 0)
(0.894399 0.447201 0)
(0.898984 0.45412 0)
(0.89442 0.447159 0)
(0.8944 0.4472 0)
(0.894419 0.4472 0)
(0.8944 0.4472 0)
(0.8944 0.4472 0)
(0.8944 0.4472 0)
(0.894427 0.447203 0)
(0.8944 0.4472 0)
(0.8944 0.4472 0)
(0.8944 0.4472 0)
(0.8944 0.4472 0)
(0.893362 0.4708 0)
(0.8944 0.4472 0)
(0.894399 0.447201 0)
(0.8944 0.4472 0)
(0.8944 0.4472 0)
(0.883522 0.450998 0)
(0.923176 0.313118 0)
(0.8944 0.4472 0)
(0.8944 0.4472 0)
(0.8944 0.4472 0)
(0.8944 0.4472 0)
(0.8944 0.4472 0)
(0.894396 0.447216 0)
(0.8944 0.4472 0)
(0.894417 0.447227 0)
(0.867172 0.438764 0)
(0.894409 0.447186 0)
(0.894398 0.447204 0)
(0.8944 0.4472 0)
(0.8944 0.4472 0)
(0.910287 0.460301 0)
(0.894437 0.447086 0)
(0.894392 0.447216 0)
(0.8944 0.4472 0)
(0.174174 0.526441 0)
(0.894194 0.447761 0)
(0.8944 0.4472 0)
(0.8944 0.4472 0)
(0.8944 0.447201 0)
(0.8944 0.4472 0)
(0.8944 0.4472 0)
(0.8944 0.4472 0)
(0.894398 0.447202 0)
(0.8944 0.4472 0)
(0.8944 0.4472 0)
(0.8944 0.4472 0)
(1.17396 0.419177 0)
(0.8944 0.447202 0)
(0.8944 0.4472 0)
(0.894398 0.447196 0)
(0.8944 0.4472 0)
(0.900143 0.442257 0)
(0.894395 0.44721 0)
(0.894431 0.447225 0)
(0.894399 0.4472 0)
(0.862298 0.445604 0)
(0.8944 0.4472 0)
(0.8944 0.4472 0)
(0.8944 0.4472 0)
(0.8944 0.4472 0)
(0.894398 0.447199 0)
(0.8944 0.4472 0)
(0.862383 0.446597 0)
(0.894412 0.447213 0)
(0.8944 0.4472 0)
(0.8944 0.4472 0)
(0.8944 0.4472 0)
(0.8944 0.447201 0)
(0.8944 0.4472 0)
(0.894404 0.447191 0)
(0.895088 0.44853 0)
(0.892256 0.454223 0)
(0.888193 0.443507 0)
(0.8944 0.4472 0)
(0.894391 0.44719 0)
(0.8944 0.4472 0)
(0.894408 0.447361 0)
(0.8944 0.4472 0)
(0.8944 0.447203 0)
(0.894412 0.447199 0)
(0.8944 0.4472 0)
(0.8944 0.4472 0)
(0.894401 0.447209 0)
(0.900196 0.367816 0)
(0.896923 0.686295 0)
(0.8944 0.4472 0)
(0.8944 0.4472 0)
(0.8944 0.4472 0)
(0.95961 0.51461 0)
(0.894401 0.447201 0)
(1.27915 0.491745 0)
(0.894578 0.447159 0)
(0.8944 0.4472 0)
(0.8944 0.4472 0)
(0.896953 0.448151 0)
(0.895928 0.446869 0)
(0.894401 0.447199 0)
(0.894401 0.447202 0)
(0.8944 0.4472 0)
(0.896773 0.449537 0)
(0.843602 0.375188 0)
(0.8944 0.4472 0)
(0.894414 0.447195 0)
(0.895266 0.447344 0)
(0.894414 0.447235 0)
(0.8944 0.4472 0)
(0.894432 0.447213 0)
(0.87005 0.437072 0)
(0.8944 0.4472 0)
(0.8944 0.4472 0)
(0.894371 0.447211 0)
(0.8944 0.4472 0)
(0.8944 0.4472 0)
(0.894397 0.447213 0)
(0.8944 0.4472 0)
(0.8944 0.4472 0)
(0.8944 0.447197 0)
(0.8944 0.4472 0)
(0.894995 0.457434 0)
(0.8944 0.4472 0)
(0.8944 0.4472 0)
(0.894192 0.447175 0)
(0.874209 0.441313 0)
(0.894391 0.447106 0)
(0.900346 0.450687 0)
(0.8944 0.4472 0)
(0.894402 0.447202 0)
(0.891782 0.44632 0)
(0.91591 0.393928 0)
(0.894396 0.447197 0)
(0.894398 0.447201 0)
(0.947299 0.471385 0)
(1.44771 0.000504871 0)
(0.664104 0.902916 0)
(0.8944 0.4472 0)
(0.8944 0.4472 0)
(0.8944 0.4472 0)
(0.8944 0.4472 0)
(0.8944 0.4472 0)
(0.894399 0.447202 0)
(0.8944 0.4472 0)
(0.8944 0.4472 0)
(0.894186 0.447268 0)
(0.8944 0.4472 0)
(0.8944 0.4472 0)
(0.785422 0.546005 0)
(0.8944 0.4472 0)
(0.894399 0.447204 0)
(0.8944 0.4472 0)
(0.8944 0.4472 0)
(0.8944 0.447201 0)
(0.894207 0.446024 0)
(0.8944 0.4472 0)
(0.8944 0.4472 0)
(0.894401 0.4472 0)
(0.8944 0.4472 0)
(0.895543 0.448894 0)
(0.894398 0.447196 0)
(0.8944 0.4472 0)
(0.8944 0.4472 0)
(0.894402 0.447202 0)
(0.892725 0.447527 0)
(0.8944 0.4472 0)
(0.87411 0.425986 0)
(0.894711 0.447338 0)
(0.8944 0.4472 0)
(0.8944 0.4472 0)
(0.894399 0.447199 0)
(0.894397 0.447203 0)
(0.8944 0.4472 0)
(0.8944 0.4472 0)
(0.8944 0.4472 0)
(0.894147 0.447098 0)
(0.753077 0.97028 0)
(0.894394 0.447202 0)
(0.894388 0.447397 0)
(0.8944 0.4472 0)
(0.8944 0.4472 0)
(0.8944 0.447199 0)
(0.8944 0.4472 0)
(0.8944 0.4472 0)
(0.8944 0.4472 0)
(0.873816 0.429519 0)
(0.8944 0.4472 0)
(0.8944 0.4472 0)
(0.8944 0.4472 0)
(0.8944 0.4472 0)
(0.879389 0.514681 0)
(0.894701 0.447228 0)
(0.8944 0.4472 0)
(0.8944 0.4472 0)
(0.894394 0.447202 0)
(0.8944 0.4472 0)
(0.894399 0.447207 0)