/*--------------------------------*- C++ -*----------------------------------*\
  =========                 |
  \\      /  F ield         | OpenFOAM: The Open Source CFD Toolbox
   \\    /   O peration     | Website:  https://openfoam.org
    \\  /    A nd           | Version:  6
     \\/     M anipulation  |
\*---------------------------------------------------------------------------*/
FoamFile
{
    version     2.0;
    format      ascii;
    class       volVectorField;
    location    "3.51";
    object      U;
}
// * * * * * * * * * * * * * * * * * * * * * * * * * * * * * * * * * * * * * //

dimensions      [0 1 -1 0 0 0 0];

internalField   nonuniform List<vector> 
5625
(
(0.894405 0.447199 0)
(0.894404 0.4472 0)
(0.894402 0.4472 0)
(0.894402 0.4472 0)
(0.894401 0.4472 0)
(0.894401 0.4472 0)
(0.8944 0.4472 0)
(0.8944 0.4472 0)
(0.8944 0.4472 0)
(0.8944 0.4472 0)
(0.8944 0.4472 0)
(0.8944 0.4472 0)
(0.8944 0.4472 0)
(0.8944 0.4472 0)
(0.8944 0.4472 0)
(0.8944 0.4472 0)
(0.8944 0.4472 0)
(0.8944 0.4472 0)
(0.8944 0.4472 0)
(0.8944 0.4472 0)
(0.8944 0.4472 0)
(0.8944 0.4472 0)
(0.8944 0.4472 0)
(0.8944 0.4472 0)
(0.8944 0.4472 0)
(0.8944 0.4472 0)
(0.8944 0.4472 0)
(0.8944 0.4472 0)
(0.8944 0.4472 0)
(0.8944 0.4472 0)
(0.894399 0.4472 0)
(0.894401 0.4472 0)
(0.8944 0.4472 0)
(0.8944 0.447199 0)
(0.8944 0.4472 0)
(0.8944 0.4472 0)
(0.8944 0.447199 0)
(0.8944 0.4472 0)
(0.894401 0.447201 0)
(0.8944 0.447199 0)
(0.8944 0.4472 0)
(0.8944 0.4472 0)
(0.8944 0.4472 0)
(0.894402 0.4472 0)
(0.894401 0.447199 0)
(0.894402 0.4472 0)
(0.894404 0.447201 0)
(0.894405 0.4472 0)
(0.894409 0.4472 0)
(0.894414 0.447201 0)
(0.894418 0.447202 0)
(0.894428 0.447203 0)
(0.894437 0.447204 0)
(0.894451 0.447206 0)
(0.894463 0.447205 0)
(0.894477 0.447207 0)
(0.894488 0.447206 0)
(0.894482 0.4472 0)
(0.894459 0.447186 0)
(0.894385 0.447158 0)
(0.894237 0.447104 0)
(0.893961 0.447005 0)
(0.893491 0.446836 0)
(0.892729 0.446555 0)
(0.891553 0.446108 0)
(0.889815 0.445423 0)
(0.887346 0.444409 0)
(0.88402 0.442967 0)
(0.879814 0.441028 0)
(0.874931 0.438591 0)
(0.869946 0.435779 0)
(0.865723 0.432847 0)
(0.863113 0.430076 0)
(0.862697 0.427578 0)
(0.864715 0.425232 0)
(0.894405 0.447199 0)
(0.894403 0.4472 0)
(0.894402 0.4472 0)
(0.894402 0.4472 0)
(0.894401 0.4472 0)
(0.894401 0.4472 0)
(0.8944 0.4472 0)
(0.8944 0.4472 0)
(0.8944 0.4472 0)
(0.8944 0.4472 0)
(0.8944 0.4472 0)
(0.8944 0.4472 0)
(0.8944 0.4472 0)
(0.8944 0.4472 0)
(0.8944 0.4472 0)
(0.8944 0.4472 0)
(0.8944 0.4472 0)
(0.8944 0.4472 0)
(0.8944 0.4472 0)
(0.8944 0.4472 0)
(0.8944 0.4472 0)
(0.8944 0.4472 0)
(0.8944 0.4472 0)
(0.8944 0.4472 0)
(0.8944 0.4472 0)
(0.8944 0.4472 0)
(0.8944 0.4472 0)
(0.8944 0.4472 0)
(0.8944 0.4472 0)
(0.8944 0.4472 0)
(0.8944 0.4472 0)
(0.8944 0.4472 0)
(0.8944 0.4472 0)
(0.8944 0.4472 0)
(0.8944 0.447199 0)
(0.894399 0.4472 0)
(0.894401 0.447201 0)
(0.894399 0.447199 0)
(0.894401 0.447201 0)
(0.894398 0.4472 0)
(0.894402 0.4472 0)
(0.894399 0.4472 0)
(0.894401 0.447199 0)
(0.894401 0.447201 0)
(0.894402 0.4472 0)
(0.894402 0.447201 0)
(0.894404 0.4472 0)
(0.894405 0.447202 0)
(0.894409 0.447201 0)
(0.894413 0.447201 0)
(0.894418 0.447203 0)
(0.894428 0.447203 0)
(0.894434 0.447205 0)
(0.894451 0.447208 0)
(0.894461 0.447208 0)
(0.894478 0.44721 0)
(0.894489 0.447212 0)
(0.894489 0.447207 0)
(0.894471 0.447197 0)
(0.894416 0.447175 0)
(0.894288 0.447129 0)
(0.894057 0.447038 0)
(0.893646 0.446887 0)
(0.892987 0.446632 0)
(0.891951 0.446218 0)
(0.89041 0.445579 0)
(0.888208 0.444623 0)
(0.885192 0.443254 0)
(0.881313 0.441377 0)
(0.876695 0.438972 0)
(0.871771 0.436132 0)
(0.867321 0.433087 0)
(0.864213 0.430146 0)
(0.863097 0.42751 0)
(0.864296 0.425163 0)
(0.894405 0.447199 0)
(0.894403 0.447199 0)
(0.894402 0.4472 0)
(0.894402 0.4472 0)
(0.894401 0.4472 0)
(0.894401 0.4472 0)
(0.8944 0.4472 0)
(0.8944 0.4472 0)
(0.8944 0.4472 0)
(0.8944 0.4472 0)
(0.8944 0.4472 0)
(0.8944 0.4472 0)
(0.8944 0.4472 0)
(0.8944 0.4472 0)
(0.8944 0.4472 0)
(0.8944 0.4472 0)
(0.8944 0.4472 0)
(0.8944 0.4472 0)
(0.8944 0.4472 0)
(0.8944 0.4472 0)
(0.8944 0.4472 0)
(0.8944 0.4472 0)
(0.8944 0.4472 0)
(0.8944 0.4472 0)
(0.8944 0.4472 0)
(0.8944 0.4472 0)
(0.8944 0.4472 0)
(0.8944 0.4472 0)
(0.8944 0.4472 0)
(0.8944 0.4472 0)
(0.8944 0.4472 0)
(0.8944 0.4472 0)
(0.8944 0.4472 0)
(0.8944 0.4472 0)
(0.8944 0.4472 0)
(0.894399 0.4472 0)
(0.894401 0.4472 0)
(0.894399 0.4472 0)
(0.894401 0.4472 0)
(0.894399 0.4472 0)
(0.894402 0.4472 0)
(0.894398 0.4472 0)
(0.894403 0.4472 0)
(0.894399 0.4472 0)
(0.894403 0.4472 0)
(0.8944 0.447201 0)
(0.894405 0.447199 0)
(0.894405 0.447201 0)
(0.894408 0.447201 0)
(0.894413 0.447202 0)
(0.894416 0.447204 0)
(0.894426 0.447203 0)
(0.894434 0.447206 0)
(0.89445 0.447209 0)
(0.894458 0.447212 0)
(0.894478 0.447212 0)
(0.894488 0.447217 0)
(0.894495 0.447215 0)
(0.894481 0.447206 0)
(0.894441 0.44719 0)
(0.894335 0.447151 0)
(0.894139 0.447073 0)
(0.893791 0.44694 0)
(0.89322 0.446706 0)
(0.892321 0.446332 0)
(0.890967 0.445745 0)
(0.889019 0.444856 0)
(0.886321 0.443569 0)
(0.882786 0.441784 0)
(0.878472 0.439445 0)
(0.873697 0.436611 0)
(0.869113 0.433485 0)
(0.865567 0.430377 0)
(0.863782 0.427559 0)
(0.864163 0.425118 0)
(0.894405 0.447199 0)
(0.894403 0.447199 0)
(0.894402 0.4472 0)
(0.894401 0.4472 0)
(0.894401 0.4472 0)
(0.894401 0.4472 0)
(0.8944 0.4472 0)
(0.8944 0.4472 0)
(0.8944 0.4472 0)
(0.8944 0.4472 0)
(0.8944 0.4472 0)
(0.8944 0.4472 0)
(0.8944 0.4472 0)
(0.8944 0.4472 0)
(0.8944 0.4472 0)
(0.8944 0.4472 0)
(0.8944 0.4472 0)
(0.8944 0.4472 0)
(0.8944 0.4472 0)
(0.8944 0.4472 0)
(0.8944 0.4472 0)
(0.8944 0.4472 0)
(0.8944 0.4472 0)
(0.8944 0.4472 0)
(0.8944 0.4472 0)
(0.894401 0.4472 0)
(0.8944 0.4472 0)
(0.8944 0.4472 0)
(0.8944 0.4472 0)
(0.8944 0.4472 0)
(0.8944 0.4472 0)
(0.894399 0.4472 0)
(0.8944 0.4472 0)
(0.8944 0.447201 0)
(0.894399 0.447199 0)
(0.8944 0.4472 0)
(0.8944 0.4472 0)
(0.8944 0.4472 0)
(0.8944 0.447199 0)
(0.894401 0.447201 0)
(0.8944 0.4472 0)
(0.8944 0.4472 0)
(0.894402 0.4472 0)
(0.894399 0.4472 0)
(0.894403 0.4472 0)
(0.8944 0.4472 0)
(0.894405 0.447201 0)
(0.894405 0.447201 0)
(0.894406 0.447202 0)
(0.894413 0.4472 0)
(0.894416 0.447205 0)
(0.894423 0.447204 0)
(0.894433 0.447207 0)
(0.894445 0.44721 0)
(0.894458 0.447214 0)
(0.894475 0.447217 0)
(0.894486 0.447218 0)
(0.894498 0.447222 0)
(0.89449 0.447216 0)
(0.894458 0.447204 0)
(0.894375 0.447171 0)
(0.89421 0.447106 0)
(0.893922 0.446989 0)
(0.89343 0.446782 0)
(0.892656 0.446445 0)
(0.891483 0.445914 0)
(0.889772 0.445101 0)
(0.887387 0.443907 0)
(0.884207 0.442232 0)
(0.880233 0.439996 0)
(0.875683 0.437208 0)
(0.871076 0.434042 0)
(0.867182 0.430788 0)
(0.864773 0.427764 0)
(0.864352 0.425153 0)
(0.894404 0.447199 0)
(0.894403 0.447199 0)
(0.894402 0.4472 0)
(0.894401 0.4472 0)
(0.894401 0.4472 0)
(0.8944 0.4472 0)
(0.8944 0.4472 0)
(0.8944 0.4472 0)
(0.8944 0.4472 0)
(0.8944 0.4472 0)
(0.8944 0.4472 0)
(0.8944 0.4472 0)
(0.8944 0.4472 0)
(0.8944 0.4472 0)
(0.8944 0.4472 0)
(0.8944 0.4472 0)
(0.8944 0.4472 0)
(0.8944 0.447201 0)
(0.8944 0.4472 0)
(0.8944 0.4472 0)
(0.8944 0.4472 0)
(0.8944 0.4472 0)
(0.8944 0.4472 0)
(0.8944 0.4472 0)
(0.8944 0.4472 0)
(0.8944 0.4472 0)
(0.8944 0.4472 0)
(0.8944 0.4472 0)
(0.8944 0.4472 0)
(0.8944 0.4472 0)
(0.8944 0.4472 0)
(0.8944 0.4472 0)
(0.8944 0.4472 0)
(0.8944 0.447201 0)
(0.8944 0.4472 0)
(0.8944 0.4472 0)
(0.8944 0.4472 0)
(0.8944 0.447201 0)
(0.894399 0.4472 0)
(0.894402 0.4472 0)
(0.894398 0.4472 0)
(0.894402 0.4472 0)
(0.894399 0.4472 0)
(0.894402 0.4472 0)
(0.894401 0.4472 0)
(0.894402 0.4472 0)
(0.894403 0.447202 0)
(0.894405 0.4472 0)
(0.894407 0.447203 0)
(0.894411 0.4472 0)
(0.894416 0.447204 0)
(0.894422 0.447206 0)
(0.894432 0.447208 0)
(0.894441 0.447209 0)
(0.894457 0.447213 0)
(0.89447 0.447221 0)
(0.894487 0.447221 0)
(0.894494 0.447225 0)
(0.894498 0.447226 0)
(0.89447 0.447215 0)
(0.894409 0.44719 0)
(0.894274 0.447137 0)
(0.89403 0.447035 0)
(0.893618 0.446857 0)
(0.892957 0.446557 0)
(0.891949 0.446081 0)
(0.890467 0.445349 0)
(0.888379 0.444258 0)
(0.885557 0.442707 0)
(0.881953 0.440603 0)
(0.87769 0.437913 0)
(0.873162 0.43475 0)
(0.869041 0.431387 0)
(0.866088 0.42816 0)
(0.864896 0.425326 0)
(0.894404 0.447199 0)
(0.894403 0.447199 0)
(0.894402 0.4472 0)
(0.894401 0.4472 0)
(0.894401 0.4472 0)
(0.8944 0.4472 0)
(0.8944 0.4472 0)
(0.8944 0.4472 0)
(0.8944 0.4472 0)
(0.8944 0.4472 0)
(0.8944 0.4472 0)
(0.8944 0.4472 0)
(0.8944 0.4472 0)
(0.8944 0.4472 0)
(0.8944 0.4472 0)
(0.8944 0.4472 0)
(0.8944 0.4472 0)
(0.8944 0.4472 0)
(0.8944 0.4472 0)
(0.8944 0.4472 0)
(0.8944 0.4472 0)
(0.8944 0.4472 0)
(0.8944 0.4472 0)
(0.8944 0.4472 0)
(0.8944 0.4472 0)
(0.8944 0.447199 0)
(0.8944 0.4472 0)
(0.8944 0.4472 0)
(0.8944 0.4472 0)
(0.8944 0.4472 0)
(0.8944 0.4472 0)
(0.8944 0.4472 0)
(0.8944 0.4472 0)
(0.8944 0.4472 0)
(0.8944 0.4472 0)
(0.8944 0.4472 0)
(0.8944 0.4472 0)
(0.8944 0.4472 0)
(0.8944 0.4472 0)
(0.8944 0.4472 0)
(0.8944 0.447201 0)
(0.894401 0.4472 0)
(0.894399 0.447199 0)
(0.894402 0.447201 0)
(0.8944 0.4472 0)
(0.894403 0.4472 0)
(0.894401 0.447201 0)
(0.894405 0.447201 0)
(0.894407 0.447202 0)
(0.89441 0.447203 0)
(0.894415 0.447203 0)
(0.89442 0.447206 0)
(0.894431 0.447209 0)
(0.894439 0.44721 0)
(0.894453 0.447215 0)
(0.894467 0.447221 0)
(0.894484 0.447225 0)
(0.894492 0.447228 0)
(0.894499 0.447232 0)
(0.894483 0.447226 0)
(0.894432 0.447207 0)
(0.894328 0.447165 0)
(0.894125 0.447079 0)
(0.893782 0.446925 0)
(0.893226 0.446665 0)
(0.892365 0.446245 0)
(0.891096 0.445589 0)
(0.889285 0.444611 0)
(0.886815 0.443198 0)
(0.883597 0.441245 0)
(0.879676 0.438699 0)
(0.875329 0.435602 0)
(0.871105 0.432179 0)
(0.867718 0.428769 0)
(0.86582 0.425686 0)
(0.894404 0.447199 0)
(0.894402 0.447199 0)
(0.894402 0.4472 0)
(0.894401 0.4472 0)
(0.894401 0.4472 0)
(0.8944 0.4472 0)
(0.8944 0.4472 0)
(0.8944 0.4472 0)
(0.8944 0.4472 0)
(0.8944 0.4472 0)
(0.8944 0.4472 0)
(0.8944 0.4472 0)
(0.8944 0.4472 0)
(0.8944 0.4472 0)
(0.8944 0.4472 0)
(0.8944 0.4472 0)
(0.8944 0.4472 0)
(0.8944 0.4472 0)
(0.8944 0.4472 0)
(0.8944 0.4472 0)
(0.8944 0.4472 0)
(0.8944 0.4472 0)
(0.8944 0.4472 0)
(0.8944 0.4472 0)
(0.8944 0.4472 0)
(0.8944 0.4472 0)
(0.8944 0.4472 0)
(0.8944 0.4472 0)
(0.8944 0.4472 0)
(0.8944 0.4472 0)
(0.8944 0.4472 0)
(0.8944 0.4472 0)
(0.8944 0.4472 0)
(0.8944 0.4472 0)
(0.8944 0.447199 0)
(0.8944 0.447201 0)
(0.8944 0.4472 0)
(0.894399 0.4472 0)
(0.894402 0.4472 0)
(0.894399 0.4472 0)
(0.894401 0.4472 0)
(0.8944 0.447201 0)
(0.894401 0.4472 0)
(0.8944 0.4472 0)
(0.894401 0.447201 0)
(0.894402 0.4472 0)
(0.894403 0.4472 0)
(0.894403 0.447202 0)
(0.894406 0.447201 0)
(0.89441 0.447203 0)
(0.894413 0.447205 0)
(0.894419 0.447202 0)
(0.894428 0.44721 0)
(0.894437 0.447211 0)
(0.894449 0.447215 0)
(0.894465 0.447221 0)
(0.894476 0.447227 0)
(0.894494 0.447233 0)
(0.894497 0.447235 0)
(0.894491 0.447234 0)
(0.894453 0.447222 0)
(0.89437 0.447187 0)
(0.894207 0.44712 0)
(0.893921 0.446988 0)
(0.893458 0.446766 0)
(0.892737 0.4464 0)
(0.891657 0.445823 0)
(0.890106 0.444955 0)
(0.887968 0.443686 0)
(0.885137 0.441908 0)
(0.881598 0.439535 0)
(0.877523 0.436566 0)
(0.873323 0.433153 0)
(0.869638 0.429607 0)
(0.867134 0.426278 0)
(0.894403 0.447199 0)
(0.894402 0.447199 0)
(0.894402 0.4472 0)
(0.894401 0.4472 0)
(0.894401 0.4472 0)
(0.8944 0.4472 0)
(0.8944 0.4472 0)
(0.8944 0.4472 0)
(0.8944 0.4472 0)
(0.8944 0.4472 0)
(0.8944 0.4472 0)
(0.8944 0.4472 0)
(0.8944 0.4472 0)
(0.8944 0.4472 0)
(0.8944 0.4472 0)
(0.8944 0.4472 0)
(0.8944 0.4472 0)
(0.8944 0.4472 0)
(0.8944 0.4472 0)
(0.8944 0.4472 0)
(0.8944 0.4472 0)
(0.8944 0.4472 0)
(0.8944 0.4472 0)
(0.8944 0.4472 0)
(0.8944 0.4472 0)
(0.8944 0.4472 0)
(0.8944 0.4472 0)
(0.8944 0.4472 0)
(0.8944 0.4472 0)
(0.8944 0.4472 0)
(0.8944 0.4472 0)
(0.8944 0.4472 0)
(0.8944 0.4472 0)
(0.8944 0.4472 0)
(0.8944 0.4472 0)
(0.894399 0.4472 0)
(0.894401 0.4472 0)
(0.894399 0.4472 0)
(0.894401 0.4472 0)
(0.8944 0.447201 0)
(0.894401 0.447199 0)
(0.8944 0.447201 0)
(0.894401 0.4472 0)
(0.894398 0.4472 0)
(0.894403 0.4472 0)
(0.894399 0.447201 0)
(0.894403 0.4472 0)
(0.894404 0.447201 0)
(0.894405 0.447202 0)
(0.894409 0.447201 0)
(0.894412 0.447205 0)
(0.894418 0.447205 0)
(0.894424 0.447207 0)
(0.894436 0.447213 0)
(0.894445 0.447216 0)
(0.894461 0.44722 0)
(0.894473 0.447229 0)
(0.894488 0.447235 0)
(0.894496 0.447239 0)
(0.894493 0.447242 0)
(0.894467 0.447234 0)
(0.894402 0.447208 0)
(0.894273 0.447154 0)
(0.894042 0.447048 0)
(0.893658 0.446857 0)
(0.893056 0.446543 0)
(0.89215 0.446045 0)
(0.890838 0.445282 0)
(0.889006 0.444161 0)
(0.886554 0.442565 0)
(0.883421 0.440398 0)
(0.879683 0.43761 0)
(0.875635 0.434286 0)
(0.8718 0.430675 0)
(0.868816 0.427133 0)
(0.894403 0.447199 0)
(0.894402 0.447199 0)
(0.894401 0.4472 0)
(0.894401 0.4472 0)
(0.894401 0.4472 0)
(0.8944 0.4472 0)
(0.8944 0.4472 0)
(0.8944 0.4472 0)
(0.8944 0.4472 0)
(0.8944 0.4472 0)
(0.8944 0.4472 0)
(0.8944 0.4472 0)
(0.8944 0.4472 0)
(0.8944 0.4472 0)
(0.8944 0.4472 0)
(0.8944 0.4472 0)
(0.8944 0.4472 0)
(0.8944 0.4472 0)
(0.8944 0.4472 0)
(0.8944 0.4472 0)
(0.8944 0.4472 0)
(0.8944 0.4472 0)
(0.8944 0.4472 0)
(0.8944 0.4472 0)
(0.8944 0.4472 0)
(0.8944 0.4472 0)
(0.8944 0.4472 0)
(0.8944 0.4472 0)
(0.8944 0.4472 0)
(0.8944 0.4472 0)
(0.8944 0.4472 0)
(0.8944 0.4472 0)
(0.8944 0.4472 0)
(0.8944 0.4472 0)
(0.8944 0.447201 0)
(0.8944 0.447199 0)
(0.8944 0.4472 0)
(0.8944 0.447201 0)
(0.8944 0.447199 0)
(0.894401 0.4472 0)
(0.894399 0.4472 0)
(0.894402 0.4472 0)
(0.894399 0.447201 0)
(0.894401 0.447199 0)
(0.8944 0.447201 0)
(0.894402 0.4472 0)
(0.894402 0.447201 0)
(0.894403 0.447201 0)
(0.894405 0.447203 0)
(0.894408 0.447201 0)
(0.894411 0.447203 0)
(0.894415 0.447207 0)
(0.894424 0.447206 0)
(0.89443 0.447212 0)
(0.894443 0.447218 0)
(0.894453 0.44722 0)
(0.894471 0.447229 0)
(0.89448 0.447235 0)
(0.894496 0.447241 0)
(0.894492 0.447248 0)
(0.894478 0.447243 0)
(0.894429 0.447225 0)
(0.894325 0.447183 0)
(0.89414 0.447097 0)
(0.893829 0.446939 0)
(0.893333 0.446674 0)
(0.892577 0.446249 0)
(0.891479 0.445589 0)
(0.889931 0.444609 0)
(0.887831 0.443201 0)
(0.885104 0.441258 0)
(0.881758 0.438698 0)
(0.877968 0.435535 0)
(0.874135 0.43195 0)
(0.870825 0.42826 0)
(0.894403 0.447199 0)
(0.894402 0.447199 0)
(0.894401 0.4472 0)
(0.894401 0.4472 0)
(0.8944 0.4472 0)
(0.8944 0.4472 0)
(0.8944 0.4472 0)
(0.8944 0.4472 0)
(0.8944 0.4472 0)
(0.8944 0.4472 0)
(0.8944 0.4472 0)
(0.8944 0.4472 0)
(0.8944 0.4472 0)
(0.8944 0.4472 0)
(0.8944 0.4472 0)
(0.8944 0.4472 0)
(0.8944 0.4472 0)
(0.8944 0.4472 0)
(0.8944 0.4472 0)
(0.8944 0.4472 0)
(0.8944 0.4472 0)
(0.8944 0.4472 0)
(0.8944 0.4472 0)
(0.8944 0.4472 0)
(0.8944 0.4472 0)
(0.8944 0.4472 0)
(0.8944 0.4472 0)
(0.8944 0.4472 0)
(0.8944 0.4472 0)
(0.8944 0.4472 0)
(0.894399 0.4472 0)
(0.8944 0.447199 0)
(0.8944 0.447201 0)
(0.8944 0.447199 0)
(0.8944 0.4472 0)
(0.8944 0.4472 0)
(0.8944 0.447199 0)
(0.8944 0.447201 0)
(0.894401 0.4472 0)
(0.8944 0.4472 0)
(0.894399 0.4472 0)
(0.894401 0.447199 0)
(0.894399 0.4472 0)
(0.894401 0.447201 0)
(0.894399 0.4472 0)
(0.894403 0.4472 0)
(0.8944 0.447202 0)
(0.894405 0.447201 0)
(0.894403 0.447201 0)
(0.894406 0.447204 0)
(0.894411 0.447202 0)
(0.894413 0.447206 0)
(0.894422 0.447209 0)
(0.894427 0.447208 0)
(0.894439 0.447217 0)
(0.894449 0.447222 0)
(0.894464 0.447227 0)
(0.894477 0.447237 0)
(0.894487 0.447244 0)
(0.894493 0.447247 0)
(0.894482 0.447252 0)
(0.894446 0.447238 0)
(0.894369 0.447208 0)
(0.894221 0.44714 0)
(0.89397 0.447011 0)
(0.893564 0.446793 0)
(0.892945 0.446432 0)
(0.892034 0.445869 0)
(0.890739 0.445026 0)
(0.888964 0.443802 0)
(0.88663 0.442087 0)
(0.883697 0.439785 0)
(0.88025 0.436856 0)
(0.87656 0.433392 0)
(0.873094 0.42965 0)
(0.894402 0.447199 0)
(0.894402 0.447199 0)
(0.894401 0.4472 0)
(0.894401 0.4472 0)
(0.8944 0.4472 0)
(0.8944 0.4472 0)
(0.8944 0.4472 0)
(0.8944 0.4472 0)
(0.8944 0.4472 0)
(0.8944 0.4472 0)
(0.8944 0.4472 0)
(0.8944 0.4472 0)
(0.8944 0.4472 0)
(0.8944 0.4472 0)
(0.8944 0.4472 0)
(0.8944 0.4472 0)
(0.8944 0.4472 0)
(0.8944 0.4472 0)
(0.8944 0.4472 0)
(0.8944 0.4472 0)
(0.8944 0.4472 0)
(0.8944 0.4472 0)
(0.8944 0.4472 0)
(0.8944 0.4472 0)
(0.8944 0.4472 0)
(0.8944 0.4472 0)
(0.8944 0.4472 0)
(0.8944 0.4472 0)
(0.8944 0.4472 0)
(0.8944 0.4472 0)
(0.8944 0.4472 0)
(0.8944 0.4472 0)
(0.8944 0.4472 0)
(0.8944 0.4472 0)
(0.894399 0.4472 0)
(0.894401 0.4472 0)
(0.8944 0.4472 0)
(0.8944 0.4472 0)
(0.894401 0.447201 0)
(0.8944 0.4472 0)
(0.8944 0.4472 0)
(0.894401 0.4472 0)
(0.894399 0.4472 0)
(0.894401 0.4472 0)
(0.894401 0.4472 0)
(0.8944 0.4472 0)
(0.894403 0.447201 0)
(0.894402 0.447201 0)
(0.894404 0.447201 0)
(0.894406 0.447202 0)
(0.894408 0.447203 0)
(0.894413 0.447204 0)
(0.894419 0.447209 0)
(0.894425 0.44721 0)
(0.894434 0.447213 0)
(0.894446 0.447223 0)
(0.894456 0.447226 0)
(0.894471 0.447236 0)
(0.894484 0.447244 0)
(0.894486 0.447251 0)
(0.894486 0.447255 0)
(0.894461 0.447249 0)
(0.894399 0.447228 0)
(0.894286 0.447175 0)
(0.894085 0.447074 0)
(0.893759 0.446893 0)
(0.893256 0.446595 0)
(0.892505 0.446124 0)
(0.891435 0.445405 0)
(0.889957 0.444355 0)
(0.887983 0.442866 0)
(0.88546 0.440836 0)
(0.882408 0.438188 0)
(0.878986 0.434942 0)
(0.875534 0.431265 0)
(0.894402 0.447199 0)
(0.894401 0.447199 0)
(0.894401 0.4472 0)
(0.894401 0.4472 0)
(0.8944 0.4472 0)
(0.8944 0.4472 0)
(0.8944 0.4472 0)
(0.8944 0.4472 0)
(0.8944 0.4472 0)
(0.8944 0.4472 0)
(0.8944 0.4472 0)
(0.8944 0.4472 0)
(0.8944 0.4472 0)
(0.8944 0.4472 0)
(0.8944 0.4472 0)
(0.8944 0.4472 0)
(0.8944 0.4472 0)
(0.8944 0.4472 0)
(0.8944 0.4472 0)
(0.8944 0.4472 0)
(0.8944 0.4472 0)
(0.8944 0.4472 0)
(0.8944 0.4472 0)
(0.8944 0.4472 0)
(0.8944 0.4472 0)
(0.8944 0.4472 0)
(0.8944 0.4472 0)
(0.8944 0.4472 0)
(0.8944 0.4472 0)
(0.8944 0.4472 0)
(0.8944 0.4472 0)
(0.8944 0.4472 0)
(0.8944 0.4472 0)
(0.8944 0.4472 0)
(0.8944 0.4472 0)
(0.894399 0.4472 0)
(0.894401 0.4472 0)
(0.8944 0.4472 0)
(0.8944 0.4472 0)
(0.8944 0.447201 0)
(0.894401 0.447199 0)
(0.894399 0.447201 0)
(0.8944 0.4472 0)
(0.894401 0.447199 0)
(0.894399 0.447201 0)
(0.894401 0.4472 0)
(0.894402 0.447199 0)
(0.894401 0.447202 0)
(0.894404 0.447201 0)
(0.894405 0.447203 0)
(0.894409 0.447203 0)
(0.894412 0.447205 0)
(0.894415 0.447204 0)
(0.894424 0.447212 0)
(0.89443 0.447214 0)
(0.894439 0.447219 0)
(0.894454 0.447227 0)
(0.894463 0.447233 0)
(0.894477 0.447245 0)
(0.894483 0.447252 0)
(0.894483 0.447258 0)
(0.89447 0.447256 0)
(0.894421 0.447243 0)
(0.894335 0.447204 0)
(0.89418 0.447123 0)
(0.893917 0.446982 0)
(0.89351 0.446736 0)
(0.892905 0.446344 0)
(0.892028 0.445745 0)
(0.890807 0.444854 0)
(0.889164 0.443581 0)
(0.887033 0.441822 0)
(0.884391 0.439481 0)
(0.881316 0.436525 0)
(0.878035 0.433035 0)
(0.894402 0.447199 0)
(0.894401 0.447199 0)
(0.894401 0.4472 0)
(0.894401 0.4472 0)
(0.8944 0.4472 0)
(0.8944 0.4472 0)
(0.8944 0.4472 0)
(0.8944 0.4472 0)
(0.8944 0.4472 0)
(0.8944 0.4472 0)
(0.8944 0.4472 0)
(0.8944 0.4472 0)
(0.8944 0.4472 0)
(0.8944 0.4472 0)
(0.8944 0.4472 0)
(0.8944 0.4472 0)
(0.8944 0.4472 0)
(0.8944 0.4472 0)
(0.8944 0.4472 0)
(0.8944 0.4472 0)
(0.8944 0.4472 0)
(0.8944 0.4472 0)
(0.8944 0.4472 0)
(0.8944 0.4472 0)
(0.8944 0.4472 0)
(0.8944 0.4472 0)
(0.8944 0.4472 0)
(0.8944 0.4472 0)
(0.8944 0.4472 0)
(0.8944 0.4472 0)
(0.8944 0.4472 0)
(0.8944 0.4472 0)
(0.8944 0.4472 0)
(0.8944 0.4472 0)
(0.8944 0.447201 0)
(0.8944 0.447199 0)
(0.8944 0.4472 0)
(0.8944 0.447201 0)
(0.8944 0.447199 0)
(0.8944 0.4472 0)
(0.8944 0.4472 0)
(0.894401 0.447199 0)
(0.8944 0.447201 0)
(0.894399 0.447199 0)
(0.894402 0.4472 0)
(0.894399 0.447201 0)
(0.894403 0.4472 0)
(0.894402 0.447201 0)
(0.894402 0.447201 0)
(0.894405 0.447202 0)
(0.894406 0.447203 0)
(0.894411 0.447205 0)
(0.894413 0.447206 0)
(0.89442 0.447209 0)
(0.894428 0.447215 0)
(0.894436 0.447217 0)
(0.894445 0.447226 0)
(0.894459 0.447235 0)
(0.894468 0.44724 0)
(0.89448 0.447252 0)
(0.894479 0.447259 0)
(0.894469 0.447262 0)
(0.894443 0.447253 0)
(0.89437 0.447227 0)
(0.89425 0.447165 0)
(0.894049 0.447054 0)
(0.893721 0.446857 0)
(0.893233 0.446536 0)
(0.892525 0.446039 0)
(0.891527 0.445299 0)
(0.890176 0.444223 0)
(0.888404 0.442722 0)
(0.886165 0.440699 0)
(0.883481 0.438077 0)
(0.880483 0.434863 0)
(0.894402 0.447199 0)
(0.894401 0.4472 0)
(0.894401 0.4472 0)
(0.8944 0.4472 0)
(0.8944 0.4472 0)
(0.8944 0.4472 0)
(0.8944 0.4472 0)
(0.8944 0.4472 0)
(0.8944 0.4472 0)
(0.8944 0.4472 0)
(0.8944 0.4472 0)
(0.8944 0.4472 0)
(0.8944 0.4472 0)
(0.8944 0.4472 0)
(0.8944 0.4472 0)
(0.8944 0.4472 0)
(0.8944 0.4472 0)
(0.8944 0.4472 0)
(0.8944 0.4472 0)
(0.8944 0.4472 0)
(0.8944 0.4472 0)
(0.8944 0.4472 0)
(0.8944 0.4472 0)
(0.8944 0.4472 0)
(0.8944 0.4472 0)
(0.8944 0.4472 0)
(0.8944 0.4472 0)
(0.8944 0.4472 0)
(0.894399 0.4472 0)
(0.894401 0.4472 0)
(0.894399 0.4472 0)
(0.8944 0.4472 0)
(0.8944 0.4472 0)
(0.8944 0.4472 0)
(0.8944 0.4472 0)
(0.8944 0.4472 0)
(0.8944 0.4472 0)
(0.8944 0.4472 0)
(0.8944 0.4472 0)
(0.894399 0.447201 0)
(0.894401 0.447199 0)
(0.894399 0.4472 0)
(0.894401 0.447199 0)
(0.8944 0.447201 0)
(0.8944 0.4472 0)
(0.8944 0.447201 0)
(0.894401 0.447199 0)
(0.894402 0.447201 0)
(0.894402 0.447202 0)
(0.894405 0.447201 0)
(0.894405 0.447202 0)
(0.894408 0.447204 0)
(0.894414 0.447207 0)
(0.894416 0.447207 0)
(0.894425 0.447213 0)
(0.894431 0.447219 0)
(0.894443 0.447222 0)
(0.894451 0.447233 0)
(0.894462 0.44724 0)
(0.894473 0.447247 0)
(0.894475 0.44726 0)
(0.894472 0.447264 0)
(0.894448 0.447259 0)
(0.8944 0.447244 0)
(0.894306 0.447199 0)
(0.894146 0.447111 0)
(0.893893 0.446957 0)
(0.893504 0.4467 0)
(0.892935 0.446294 0)
(0.892131 0.445684 0)
(0.891032 0.44479 0)
(0.889574 0.443528 0)
(0.887711 0.441806 0)
(0.88543 0.439534 0)
(0.882787 0.436671 0)
(0.894401 0.447199 0)
(0.894401 0.4472 0)
(0.894401 0.4472 0)
(0.8944 0.4472 0)
(0.8944 0.4472 0)
(0.8944 0.4472 0)
(0.8944 0.4472 0)
(0.8944 0.4472 0)
(0.8944 0.4472 0)
(0.8944 0.4472 0)
(0.8944 0.4472 0)
(0.8944 0.4472 0)
(0.8944 0.4472 0)
(0.8944 0.4472 0)
(0.8944 0.4472 0)
(0.8944 0.4472 0)
(0.8944 0.4472 0)
(0.8944 0.4472 0)
(0.8944 0.4472 0)
(0.8944 0.4472 0)
(0.8944 0.4472 0)
(0.8944 0.4472 0)
(0.8944 0.4472 0)
(0.8944 0.4472 0)
(0.8944 0.4472 0)
(0.8944 0.4472 0)
(0.8944 0.4472 0)
(0.8944 0.4472 0)
(0.8944 0.4472 0)
(0.8944 0.4472 0)
(0.8944 0.4472 0)
(0.8944 0.4472 0)
(0.8944 0.4472 0)
(0.8944 0.4472 0)
(0.8944 0.4472 0)
(0.894401 0.4472 0)
(0.894399 0.4472 0)
(0.8944 0.4472 0)
(0.8944 0.4472 0)
(0.8944 0.4472 0)
(0.8944 0.447201 0)
(0.8944 0.4472 0)
(0.8944 0.4472 0)
(0.894401 0.4472 0)
(0.894399 0.447201 0)
(0.894402 0.447199 0)
(0.8944 0.447202 0)
(0.894402 0.4472 0)
(0.894402 0.447201 0)
(0.894403 0.447203 0)
(0.894406 0.447201 0)
(0.894406 0.447205 0)
(0.894412 0.447205 0)
(0.894415 0.447208 0)
(0.89442 0.447211 0)
(0.894428 0.447217 0)
(0.894437 0.447221 0)
(0.894445 0.447228 0)
(0.894455 0.447239 0)
(0.894466 0.447246 0)
(0.894468 0.447255 0)
(0.894468 0.447265 0)
(0.894457 0.447264 0)
(0.894417 0.447254 0)
(0.894346 0.447223 0)
(0.894225 0.447157 0)
(0.894027 0.447038 0)
(0.893721 0.446833 0)
(0.893269 0.446509 0)
(0.892627 0.446013 0)
(0.891745 0.44528 0)
(0.890564 0.444235 0)
(0.889033 0.442791 0)
(0.887133 0.440862 0)
(0.884873 0.43838 0)
(0.894401 0.447199 0)
(0.894401 0.4472 0)
(0.894401 0.4472 0)
(0.8944 0.4472 0)
(0.8944 0.4472 0)
(0.8944 0.4472 0)
(0.8944 0.4472 0)
(0.8944 0.4472 0)
(0.8944 0.4472 0)
(0.8944 0.4472 0)
(0.8944 0.4472 0)
(0.8944 0.4472 0)
(0.8944 0.4472 0)
(0.8944 0.4472 0)
(0.8944 0.4472 0)
(0.8944 0.4472 0)
(0.8944 0.4472 0)
(0.8944 0.4472 0)
(0.8944 0.4472 0)
(0.8944 0.4472 0)
(0.8944 0.4472 0)
(0.8944 0.4472 0)
(0.8944 0.4472 0)
(0.8944 0.4472 0)
(0.8944 0.4472 0)
(0.8944 0.4472 0)
(0.8944 0.4472 0)
(0.8944 0.4472 0)
(0.8944 0.4472 0)
(0.8944 0.4472 0)
(0.8944 0.4472 0)
(0.8944 0.4472 0)
(0.8944 0.4472 0)
(0.8944 0.4472 0)
(0.8944 0.4472 0)
(0.8944 0.4472 0)
(0.8944 0.4472 0)
(0.8944 0.4472 0)
(0.8944 0.4472 0)
(0.894399 0.4472 0)
(0.894401 0.447199 0)
(0.894399 0.4472 0)
(0.8944 0.4472 0)
(0.894402 0.4472 0)
(0.894399 0.4472 0)
(0.894401 0.4472 0)
(0.894402 0.4472 0)
(0.8944 0.447201 0)
(0.894402 0.4472 0)
(0.894403 0.447202 0)
(0.894404 0.447202 0)
(0.894408 0.447203 0)
(0.894408 0.447204 0)
(0.894414 0.447208 0)
(0.894417 0.44721 0)
(0.894424 0.447214 0)
(0.894431 0.447221 0)
(0.894441 0.447225 0)
(0.894451 0.447235 0)
(0.894454 0.447246 0)
(0.894467 0.447252 0)
(0.894464 0.447262 0)
(0.894455 0.447267 0)
(0.89443 0.44726 0)
(0.894376 0.44724 0)
(0.894284 0.447194 0)
(0.894132 0.447099 0)
(0.893891 0.446943 0)
(0.893539 0.446687 0)
(0.893033 0.446286 0)
(0.892326 0.445695 0)
(0.891379 0.444843 0)
(0.890146 0.44365 0)
(0.888589 0.44204 0)
(0.8867 0.439935 0)
(0.894401 0.447199 0)
(0.894401 0.4472 0)
(0.8944 0.4472 0)
(0.8944 0.4472 0)
(0.8944 0.4472 0)
(0.8944 0.4472 0)
(0.8944 0.4472 0)
(0.8944 0.4472 0)
(0.8944 0.4472 0)
(0.8944 0.4472 0)
(0.8944 0.4472 0)
(0.8944 0.4472 0)
(0.8944 0.4472 0)
(0.8944 0.4472 0)
(0.8944 0.4472 0)
(0.8944 0.4472 0)
(0.8944 0.4472 0)
(0.8944 0.4472 0)
(0.8944 0.4472 0)
(0.8944 0.4472 0)
(0.8944 0.4472 0)
(0.8944 0.4472 0)
(0.8944 0.4472 0)
(0.8944 0.4472 0)
(0.8944 0.4472 0)
(0.8944 0.4472 0)
(0.8944 0.4472 0)
(0.8944 0.4472 0)
(0.8944 0.4472 0)
(0.8944 0.4472 0)
(0.8944 0.4472 0)
(0.8944 0.4472 0)
(0.8944 0.4472 0)
(0.8944 0.447199 0)
(0.8944 0.447201 0)
(0.894401 0.4472 0)
(0.894399 0.447201 0)
(0.894401 0.447199 0)
(0.894399 0.4472 0)
(0.894401 0.447201 0)
(0.894399 0.447199 0)
(0.894401 0.447201 0)
(0.8944 0.4472 0)
(0.8944 0.447199 0)
(0.894401 0.447201 0)
(0.894399 0.447199 0)
(0.894401 0.4472 0)
(0.894401 0.447201 0)
(0.894402 0.447201 0)
(0.894403 0.4472 0)
(0.894403 0.447203 0)
(0.894405 0.447202 0)
(0.89441 0.447204 0)
(0.894409 0.447208 0)
(0.894416 0.447209 0)
(0.894421 0.447213 0)
(0.894427 0.447218 0)
(0.894433 0.447224 0)
(0.894444 0.447232 0)
(0.89445 0.447241 0)
(0.894457 0.44725 0)
(0.89446 0.447259 0)
(0.894453 0.447265 0)
(0.894436 0.447263 0)
(0.8944 0.447252 0)
(0.894326 0.447218 0)
(0.89421 0.447149 0)
(0.894029 0.447029 0)
(0.893751 0.446829 0)
(0.893355 0.446514 0)
(0.892801 0.44604 0)
(0.892049 0.445353 0)
(0.891065 0.444384 0)
(0.889808 0.443061 0)
(0.888261 0.44131 0)
(0.894401 0.4472 0)
(0.8944 0.4472 0)
(0.8944 0.4472 0)
(0.8944 0.4472 0)
(0.8944 0.4472 0)
(0.8944 0.4472 0)
(0.8944 0.4472 0)
(0.8944 0.4472 0)
(0.8944 0.4472 0)
(0.8944 0.4472 0)
(0.8944 0.4472 0)
(0.8944 0.4472 0)
(0.8944 0.4472 0)
(0.8944 0.4472 0)
(0.8944 0.4472 0)
(0.8944 0.4472 0)
(0.8944 0.4472 0)
(0.8944 0.4472 0)
(0.8944 0.4472 0)
(0.8944 0.4472 0)
(0.8944 0.4472 0)
(0.8944 0.4472 0)
(0.8944 0.4472 0)
(0.8944 0.4472 0)
(0.8944 0.4472 0)
(0.8944 0.4472 0)
(0.8944 0.4472 0)
(0.8944 0.4472 0)
(0.8944 0.4472 0)
(0.8944 0.4472 0)
(0.8944 0.4472 0)
(0.8944 0.4472 0)
(0.894401 0.4472 0)
(0.8944 0.4472 0)
(0.8944 0.4472 0)
(0.8944 0.4472 0)
(0.8944 0.4472 0)
(0.8944 0.4472 0)
(0.8944 0.4472 0)
(0.894399 0.4472 0)
(0.894401 0.4472 0)
(0.894398 0.447201 0)
(0.894402 0.447199 0)
(0.894399 0.447201 0)
(0.8944 0.447199 0)
(0.894402 0.447201 0)
(0.894399 0.4472 0)
(0.894402 0.447199 0)
(0.894402 0.447201 0)
(0.894401 0.447201 0)
(0.894404 0.447203 0)
(0.894404 0.447202 0)
(0.894407 0.447203 0)
(0.894409 0.447206 0)
(0.894414 0.447207 0)
(0.894418 0.447211 0)
(0.894421 0.447217 0)
(0.894431 0.447222 0)
(0.894435 0.447228 0)
(0.894446 0.447237 0)
(0.894448 0.447246 0)
(0.894455 0.447253 0)
(0.89445 0.447261 0)
(0.894439 0.447267 0)
(0.89441 0.447257 0)
(0.894358 0.447234 0)
(0.894272 0.447189 0)
(0.894129 0.447096 0)
(0.893919 0.446942 0)
(0.893611 0.446698 0)
(0.893177 0.446323 0)
(0.89259 0.445775 0)
(0.891811 0.445001 0)
(0.890812 0.443928 0)
(0.889567 0.442493 0)
(0.894401 0.4472 0)
(0.8944 0.4472 0)
(0.8944 0.4472 0)
(0.8944 0.4472 0)
(0.8944 0.4472 0)
(0.8944 0.4472 0)
(0.8944 0.4472 0)
(0.8944 0.4472 0)
(0.8944 0.4472 0)
(0.8944 0.4472 0)
(0.8944 0.4472 0)
(0.8944 0.4472 0)
(0.8944 0.4472 0)
(0.8944 0.4472 0)
(0.8944 0.4472 0)
(0.8944 0.4472 0)
(0.8944 0.4472 0)
(0.8944 0.4472 0)
(0.8944 0.4472 0)
(0.8944 0.4472 0)
(0.8944 0.4472 0)
(0.8944 0.4472 0)
(0.8944 0.4472 0)
(0.8944 0.4472 0)
(0.8944 0.4472 0)
(0.8944 0.4472 0)
(0.8944 0.4472 0)
(0.8944 0.4472 0)
(0.8944 0.4472 0)
(0.8944 0.4472 0)
(0.8944 0.4472 0)
(0.8944 0.4472 0)
(0.8944 0.4472 0)
(0.8944 0.4472 0)
(0.8944 0.4472 0)
(0.8944 0.4472 0)
(0.8944 0.4472 0)
(0.8944 0.4472 0)
(0.8944 0.4472 0)
(0.8944 0.447199 0)
(0.8944 0.447201 0)
(0.894399 0.4472 0)
(0.894401 0.4472 0)
(0.894399 0.4472 0)
(0.894401 0.4472 0)
(0.894399 0.447199 0)
(0.894402 0.447201 0)
(0.894399 0.4472 0)
(0.894402 0.4472 0)
(0.894402 0.447201 0)
(0.894401 0.447202 0)
(0.894405 0.447202 0)
(0.894404 0.447204 0)
(0.894409 0.447204 0)
(0.89441 0.447208 0)
(0.894415 0.447209 0)
(0.894419 0.447214 0)
(0.894426 0.44722 0)
(0.894431 0.447225 0)
(0.894437 0.447233 0)
(0.894444 0.447243 0)
(0.894446 0.447249 0)
(0.894448 0.447256 0)
(0.894438 0.447263 0)
(0.89442 0.44726 0)
(0.894379 0.447247 0)
(0.894313 0.447211 0)
(0.894208 0.447145 0)
(0.894044 0.447029 0)
(0.893809 0.446842 0)
(0.893477 0.446552 0)
(0.89302 0.446121 0)
(0.892411 0.445506 0)
(0.891625 0.444652 0)
(0.89064 0.443495 0)
(0.894401 0.4472 0)
(0.8944 0.4472 0)
(0.8944 0.4472 0)
(0.8944 0.4472 0)
(0.8944 0.4472 0)
(0.8944 0.4472 0)
(0.8944 0.4472 0)
(0.8944 0.4472 0)
(0.8944 0.4472 0)
(0.8944 0.4472 0)
(0.8944 0.4472 0)
(0.8944 0.4472 0)
(0.8944 0.4472 0)
(0.8944 0.4472 0)
(0.8944 0.4472 0)
(0.8944 0.4472 0)
(0.8944 0.4472 0)
(0.8944 0.4472 0)
(0.8944 0.4472 0)
(0.8944 0.4472 0)
(0.8944 0.4472 0)
(0.8944 0.4472 0)
(0.8944 0.4472 0)
(0.8944 0.4472 0)
(0.8944 0.4472 0)
(0.8944 0.4472 0)
(0.8944 0.4472 0)
(0.8944 0.4472 0)
(0.8944 0.4472 0)
(0.8944 0.4472 0)
(0.8944 0.4472 0)
(0.8944 0.447201 0)
(0.8944 0.447199 0)
(0.8944 0.4472 0)
(0.8944 0.447201 0)
(0.8944 0.447199 0)
(0.8944 0.447201 0)
(0.894401 0.447199 0)
(0.894399 0.447201 0)
(0.894401 0.447199 0)
(0.894399 0.4472 0)
(0.894401 0.447201 0)
(0.894399 0.447199 0)
(0.894401 0.447201 0)
(0.8944 0.447199 0)
(0.8944 0.4472 0)
(0.894401 0.447201 0)
(0.8944 0.4472 0)
(0.894402 0.447201 0)