/*--------------------------------*- C++ -*----------------------------------*\
  =========                 |
  \\      /  F ield         | OpenFOAM: The Open Source CFD Toolbox
   \\    /   O peration     | Website:  https://openfoam.org
    \\  /    A nd           | Version:  6
     \\/     M anipulation  |
\*---------------------------------------------------------------------------*/
FoamFile
{
    version     2.0;
    format      ascii;
    class       volScalarField;
    location    "3.04";
    object      k;
}
// * * * * * * * * * * * * * * * * * * * * * * * * * * * * * * * * * * * * * //

dimensions      [0 2 -2 0 0 0 0];

internalField   nonuniform List<scalar> 
4214
(
0.103303
0.0481647
0.0294
0.0305887
0.0660202
0.197536
0.542342
1.21632
2.24549
3.4202
4.12812
3.90464
3.38142
3.02492
2.89698
2.85665
2.81364
2.68644
2.47214
2.17442
1.80829
1.415
1.03714
0.70692
0.446485
0.263721
0.149899
0.0858812
0.0520946
0.0345886
0.02541
0.0204917
0.0177978
0.0163003
0.015501
0.0152383
0.0157035
0.0177693
0.0240304
0.0416476
0.0897401
0.0281492
0.0217425
0.0211012
0.0304675
0.0774112
0.241639
0.663262
1.47769
2.6924
3.9904
4.52683
4.02445
3.35946
2.93309
2.76933
2.72378
2.64129
2.44961
2.15681
1.79511
1.41136
1.04587
0.729532
0.480472
0.302233
0.185615
0.11447
0.0726912
0.0483626
0.03414
0.0258273
0.0210029
0.0182222
0.0166206
0.0157018
0.0152142
0.0150923
0.0154834
0.0169328
0.0209285
0.0312769
0.0191212
0.0186601
0.0205916
0.0329494
0.0905758
0.290011
0.795747
1.76103
3.15439
4.50206
4.81855
4.06857
3.2594
2.71717
2.42702
2.25281
2.07944
1.85775
1.58433
1.28227
0.985644
0.723338
0.511797
0.353713
0.241753
0.164704
0.112219
0.0766741
0.0529735
0.0376285
0.0280692
0.0223432
0.0190188
0.01712
0.0160373
0.0154265
0.0151249
0.0151055
0.0154936
0.0166853
0.019681
0.0181409
0.0185073
0.0211536
0.0360465
0.10538
0.344395
0.944653
2.0726
3.63202
4.9814
5.04496
4.05674
3.1047
2.47329
2.10097
1.84936
1.62553
1.39671
1.16038
0.931836
0.730374
0.566145
0.43748
0.336459
0.255111
0.18869
0.135385
0.0944855
0.0649421
0.0449509
0.0322547
0.0246376
0.0202709
0.0178378
0.0164924
0.0157436
0.0153365
0.0151645
0.0152285
0.0156468
0.0167426
0.0180855
0.0187435
0.0218518
0.0392266
0.12074
0.401389
1.10071
2.38878
4.07662
5.3659
5.18821
3.97361
2.90148
2.20656
1.78135
1.48786
1.25088
1.04638
0.872182
0.732336
0.625335
0.541927
0.468804
0.396158
0.321271
0.247497
0.180787
0.125991
0.0849808
0.0567949
0.0388402
0.0281381
0.0220999
0.0188228
0.0170751
0.016137
0.0156272
0.015365
0.0152879
0.0154166
0.0158668
0.0182872
0.0190511
0.0225176
0.0422371
0.135701
0.457641
1.25349
2.68267
4.45018
5.64986
5.31372
3.87925
2.69998
1.95915
1.50372
1.1964
0.9767
0.823073
0.725169
0.671221
0.64055
0.61295
0.572698
0.511525
0.430849
0.339747
0.250691
0.174189
0.11553
0.0747744
0.0487636
0.0333405
0.0247479
0.0201845
0.0178298
0.0166173
0.0159804
0.015642
0.0154842
0.0154767
0.0156543
0.0185174
0.0193387
0.0230774
0.0447828
0.148798
0.507586
1.38653
2.9215
4.72094
5.83219
5.44715
3.82857
2.53726
1.76409
1.29476
0.995345
0.814759
0.724533
0.698351
0.709675
0.731235
0.740415
0.722171
0.668004
0.579306
0.467333
0.349826
0.244012
0.160434
0.10141
0.063487
0.041017
0.0285925
0.0220939
0.0188281
0.0172097
0.0163972
0.0159753
0.0157584
0.0156752
0.0157193
0.0187469
0.0195816
0.0234767
0.0465404
0.158244
0.544132
1.48006
3.07291
4.86844
5.9242
5.56145
3.94232
2.46763
1.64682
1.1672
0.8883
0.756062
0.725545
0.756535
0.814438
0.866695
0.90314
0.904191
0.858711
0.764925
0.632938
0.483677
0.34161
0.224862
0.140275
0.0851551
0.0523252
0.0342104
0.0248166
0.0201846
0.0179591
0.0168915
0.0163615
0.0160891
0.015957
0.0159289
0.0189635
0.0197809
0.0236815
0.0471708
0.162046
0.559305
1.51449
3.11114
4.88156
5.93635
5.66045
4.23155
2.61177
1.63083
1.11966
0.863568
0.775497
0.790177
0.859589
0.950376
1.03712
1.09984
1.12071
1.08587
0.989905
0.839929
0.657583
0.473577
0.315053
0.196094
0.116777
0.0689504
0.0424665
0.028759
0.0220792
0.0189382
0.0174899
0.016806
0.0164689
0.0162983
0.0162277
0.0191863
0.0199599
0.0236796
0.0463574
0.158228
0.545741
1.4743
3.02179
4.76027
5.87579
5.78659
4.61048
3.07208
1.81823
1.15329
0.901261
0.844278
0.892626
0.995644
1.12176
1.2438
1.33714
1.38148
1.35942
1.26247
1.0947
0.877573
0.646644
0.437907
0.274693
0.162393
0.0932762
0.0546385
0.0345369
0.0247938
0.0202638
0.0182387
0.017324
0.0168989
0.0166893
0.0165901
0.0194141
0.0201253
0.0234696
0.0439148
0.145575
0.499947
1.35622
2.80803
4.50744
5.73378
5.91778
5.06764
3.67695
2.33422
1.39329
0.990588
0.938627
1.01005
1.14485
1.31181
1.47798
1.61115
1.68854
1.6871
1.59345
1.4076
1.15211
0.868346
0.60067
0.382722
0.227138
0.12855
0.0725803
0.0430708
0.0287693
0.0221221
0.019215
0.0179432
0.0173876
0.0171281
0.0170049
0.0196414
0.0202723
0.0230672
0.0399357
0.124574
0.424543
1.1677
2.47598
4.10404
5.44139
5.93054
5.45491
4.33293
3.03487
1.93948
1.26154
1.06847
1.12417
1.28095
1.49352
1.71477
1.89925
2.02435
2.0609
1.98576
1.78832
1.49189
1.14829
0.811181
0.527285
0.317174
0.178967
0.0989222
0.055707
0.0346957
0.0248082
0.0205488
0.0187116
0.0179537
0.0176204
0.0174703
0.0198773
0.0204092
0.0225381
0.0349075
0.0977689
0.327679
0.921227
2.02445
3.51389
4.92463
5.72816
5.68082
4.93311
3.81792
2.72969
1.87212
1.39193
1.29157
1.40716
1.65069
1.92951
2.17026
2.35488
2.45053
2.42306
2.23638
1.90435
1.49762
1.07875
0.715797
0.439576
0.249565
0.137301
0.0743421
0.0436521
0.028784
0.0224618
0.0197094
0.0186303
0.0181793
0.0179994
0.0201585
0.0205869
0.0219691
0.0291485
0.0660269
0.209681
0.617873
1.46321
2.75037
4.17792
5.26165
5.65162
5.34395
4.56602
3.62819
2.74883
2.05773
1.70236
1.65436
1.82947
2.11754
2.40038
2.6433
2.81071
2.86675
2.7316
2.38559
1.9193
1.41382
0.955944
0.602534
0.34579
0.19266
0.101468
0.0573368
0.0347485
0.0253435
0.0210703
0.0194744
0.0188124
0.0185877
0.0205097
0.0208681
0.0217394
0.025334
0.0435308
0.120231
0.364663
0.946014
1.96753
3.29315
4.53176
5.29662
5.44518
5.07829
4.41704
3.66682
2.96333
2.43002
2.16455
2.16817
2.3556
2.5915
2.86326
3.09679
3.26527
3.23331
2.91247
2.41406
1.8216
1.25264
0.816117
0.472375
0.27186
0.139905
0.0784876
0.0436724
0.0299102
0.0230186
0.0206149
0.01954
0.0192136
0.0209436
0.0212589
0.0218804
0.0238434
0.0329448
0.0729597
0.210419
0.571228
1.28957
2.37233
3.59006
4.59577
5.14225
5.2016
4.89007
4.38211
3.80225
3.2544
2.85605
2.67744
2.69737
2.80869
3.02121
3.27867
3.56825
3.69417
3.4382
2.95833
2.30715
1.60562
1.09377
0.630169
0.385463
0.191537
0.11182
0.056576
0.0375681
0.0258722
0.0223621
0.0204404
0.0199513
0.0215498
0.0218373
0.0223563
0.0235496
0.0281621
0.0480813
0.121105
0.326965
0.786429
1.56862
2.61401
3.66526
4.4715
4.88306
4.92105
4.67531
4.27045
3.82553
3.43942
3.17931
3.07083
3.0351
3.16238
3.35823
3.73653
4.07656
3.90313
3.51005
2.86601
1.99059
1.465
0.806731
0.553088
0.25289
0.166706
0.0731694
0.0514563
0.0297902
0.0255002
0.0215767
0.0209349
0.0204367
0.0197448
0.0191077
0.0185157
0.0179213
0.0174022
0.016957
0.0165652
0.0162414
0.0160125
0.0159348
0.0161334
0.0169245
0.0192919
0.0269399
0.0577749
0.217914
0.0204417
0.0198187
0.0192447
0.0186873
0.0181251
0.0176513
0.0172309
0.0168661
0.0165748
0.0163916
0.0163895
0.0167364
0.0178692
0.0210946
0.0309088
0.0670615
0.231455
0.0205126
0.0199584
0.0194291
0.0188893
0.0183713
0.0179299
0.0175351
0.0171992
0.0169442
0.0168125
0.0168957
0.0174072
0.0189114
0.0230701
0.0353573
0.0771496
0.240266
0.0206606
0.0201497
0.0196489
0.0191234
0.0186526
0.0182373
0.0178695
0.0175648
0.0173498
0.0172757
0.0174529
0.0181412
0.0200287
0.0251068
0.0396875
0.08636
0.249401
0.0208682
0.0203774
0.0198956
0.0193953
0.0189629
0.018574
0.0182351
0.0179649
0.0177944
0.0177843
0.0180625
0.0189315
0.021187
0.0270978
0.0436297
0.094274
0.259104
0.0210867
0.020635
0.0201661
0.0197049
0.0193021
0.0189407
0.0186329
0.0184003
0.0182791
0.0183387
0.0187233
0.0197701
0.0223595
0.0289762
0.0470912
0.100947
0.269069
0.0213649
0.0209216
0.0204668
0.0200453
0.0196704
0.019338
0.0190636
0.0188719
0.0188047
0.0189394
0.0194334
0.0206492
0.0235233
0.0306876
0.0499858
0.106361
0.27901
0.0216388
0.0212317
0.0208004
0.0204151
0.0200685
0.0197666
0.0195278
0.0193804
0.0193713
0.0195852
0.0201898
0.0215616
0.0246627
0.0322009
0.0522705
0.110538
0.288653
0.0219723
0.0215673
0.0211681
0.0208147
0.0204972
0.0202273
0.0200261
0.0199256
0.0199779
0.020274
0.0209883
0.0225004
0.0257679
0.0335049
0.0539417
0.113546
0.297741
0.0222992
0.02193
0.0215673
0.0212446
0.0209572
0.0207207
0.0205587
0.020507
0.0206226
0.0210024
0.0218238
0.0234596
0.0268353
0.0346041
0.0550223
0.11544
0.306019
0.0226842
0.0223239
0.0219977
0.0217059
0.0214495
0.0212472
0.0211254
0.0211235
0.0213029
0.0217658
0.0226904
0.024434
0.0278664
0.0355152
0.0555426
0.11619
0.313237
0.0230648
0.0227497
0.0224598
0.0221994
0.0219748
0.0218072
0.0217258
0.0217733
0.0220156
0.0225591
0.0235815
0.0254188
0.0288668
0.0362682
0.055543
0.115664
0.319147
0.0234999
0.0232097
0.0229547
0.0227261
0.0225336
0.0224008
0.0223592
0.0224543
0.0227568
0.0233766
0.0244899
0.0264094
0.0298444
0.0368975
0.0550655
0.113681
0.323511
0.0239401
0.0237027
0.0234832
0.0232869
0.0231267
0.0230279
0.0230245
0.0231645
0.0235226
0.0242125
0.0254081
0.0274003
0.0308067
0.0374409
0.0541884
0.110103
0.3261
0.0244314
0.0242309
0.0240468
0.0238828
0.0237545
0.0236887
0.0237209
0.0239019
0.0243097
0.0250608
0.0263281
0.0283842
0.0317603
0.0379551
0.0530681
0.10508
0.326684
0.0249422
0.0247939
0.0246463
0.0245147
0.0244178
0.0243835
0.0244481
0.0246653
0.0251156
0.025917
0.0272431
0.0293534
0.0327058
0.0384812
0.0518292
0.0996306
0.325068
0.0254988
0.0253951
0.0252832
0.0251837
0.0251176
0.0251129
0.0252069
0.0254551
0.0259396
0.0267794
0.0281496
0.030302
0.033642
0.0390705
0.0507929
0.0937096
0.32113
0.0260841
0.0260324
0.0259582
0.0258913
0.0258555
0.0258785
0.025999
0.0262732
0.0267832
0.0276488
0.0290472
0.031227
0.0345626
0.0397272
0.0499777
0.0877608
0.314849
0.0267116
0.0267107
0.0266733
0.0266394
0.0266339
0.0266835
0.0268277
0.0271231
0.0276507
0.0285303
0.0299406
0.0321296
0.0354597
0.0404443
0.049522
0.082306
0.306328
0.0273719
0.0274252
0.0274293
0.0274303
0.0274558
0.0275322
0.0276988
0.028011
0.0285487
0.0294309
0.030837
0.0330164
0.0363318
0.0412026
0.0494495
0.0778733
0.295823
0.0280727
0.0281837
0.02823
0.0282681
0.0283267
0.0284309
0.0286191
0.0289451
0.0294867
0.0303602
0.0317449
0.0338919
0.0371696
0.0419601
0.0496762
0.0745841
0.283831
0.0288118
0.0289795
0.029076
0.0291568
0.0292523
0.0293874
0.0295994
0.0299394
0.0304819
0.0313403
0.0326912
0.0347879
0.0380039
0.0427331
0.0501974
0.0729743
0.271108
0.0295893
0.029823
0.0299728
0.0301013
0.0302389
0.0304091
0.0306476
0.0310021
0.0315427
0.0323782
0.033681
0.0357067
0.0388371
0.0435022
0.0508097
0.0720128
0.25985
0.0304089
0.0307066
0.0309196
0.0311033
0.0312908
0.0315037
0.0317748
0.0321485
0.0326893
0.0334996
0.034746
0.0366849
0.0397107
0.0443048
0.0515381
0.0716728
0.250599
0.0312662
0.0316409
0.0319217
0.0321682
0.0324141
0.03268
0.0329944
0.0333972
0.0339467
0.0347373
0.0359274
0.0377722
0.0406794
0.0451929
0.0524234
0.0718422
0.243654
0.0321683
0.0326156
0.0329747
0.0332968
0.0336138
0.033946
0.0343189
0.0347664
0.0353399
0.0361247
0.0372687
0.0390223
0.0418038
0.0462286
0.0535036
0.0725423
0.239183
0.0331078
0.0336407
0.0340858
0.0344919
0.0348931
0.0353083
0.0357588
0.0362724
0.0368923
0.037694
0.0388131
0.0404903
0.0431496
0.0474774
0.0548233
0.0738096
0.237347
0.0340725
0.0347035
0.0352467
0.0357522
0.0362542
0.036772
0.0373229
0.037929
0.0386248
0.0394744
0.0406005
0.0422296
0.0447834
0.0490081
0.0564377
0.075698
0.238026
0.0350943
0.0358158
0.036462
0.0370778
0.037698
0.0383405
0.0390183
0.0397474
0.0405544
0.0414919
0.0426672
0.0442901
0.0467696
0.0508931
0.0583987
0.078211
0.240968
0.0360964
0.0369566
0.0377221
0.0384651
0.0392241
0.0400163
0.0408509
0.041738
0.0426966
0.0437692
0.0450469
0.0467187
0.0491713
0.0532081
0.0607619
0.0813063
0.245821
0.0372029
0.0381436
0.0390297
0.0399129
0.040832
0.0418019
0.0428269
0.0439112
0.0450675
0.0463293
0.0477729
0.0495627
0.0520542
0.0560378
0.0635999
0.0849334
0.252175
0.0382365
0.0393465
0.0403741
0.0414171
0.0425215
0.0437009
0.0449544
0.0462804
0.0476864
0.049199
0.050882
0.0528753
0.0554925
0.0594834
0.0670167
0.0890543
0.259572
0.0394121
0.040592
0.0417588
0.0429778
0.044295
0.0457205
0.0472458
0.0488638
0.0505785
0.0524124
0.0544202
0.0567201
0.0595781
0.0636752
0.0711703
0.0936875
0.267527
0.0404681
0.0418401
0.0431742
0.0445938
0.0461579
0.047872
0.0497188
0.0516862
0.0537776
0.0560149
0.058448
0.061179
0.0644296
0.0687861
0.0762979
0.0989642
0.275537
0.0416935
0.043128
0.0446274
0.0462702
0.0481206
0.0501733
0.0523981
0.0547806
0.057328
0.0600665
0.0630464
0.0663623
0.0702024
0.0750508
0.0827451
0.105201
0.283098
0.0427629
0.0444086
0.0461122
0.0480117
0.0501986
0.0526484
0.0553151
0.0581882
0.0612861
0.0646453
0.068324
0.0724199
0.0771074
0.0827856
0.0909983
0.112991
0.289706
0.0440159
0.0457277
0.0476408
0.0498288
0.0524148
0.0553283
0.0585079
0.0619595
0.0657227
0.069853
0.0744263
0.0795587
0.0854377
0.0924216
0.101739
0.123313
0.294852
0.0450853
0.0470357
0.0492103
0.0517309
0.0547987
0.058249
0.0620191
0.0661536
0.0707256
0.0758207
0.0815483
0.0880656
0.0956094
0.104566
0.115929
0.137715
0.298074
0.046338
0.0483833
0.0508354
0.0537324
0.0573898
0.0614481
0.065894
0.0708402
0.0764043
0.082718
0.0899504
0.0983378
0.108221
0.120112
0.13497
0.158622
0.298968
0.0473857
0.0497234
0.0525146
0.0558502
0.060238
0.0649601
0.0701818
0.076106
0.0829017
0.0907718
0.09999
0.110937
0.124155
0.140435
0.161019
0.18989
0.297392
0.050428
0.0518574
0.053294
0.0547286
0.0561509
0.0575499
0.0589139
0.0602306
0.0614877
0.0626728
0.0637739
0.0647793
0.0656788
0.0664627
0.0671232
0.0676541
0.0680515
0.0683145
0.0684469
0.0684669
0.0684764
0.0682762
0.0678161
0.0672148
0.0664994
0.0656855
0.0647857
0.063811
0.0627727
0.0616805
0.0605443
0.0593724
0.0581202
0.056845
0.0556617
0.0543811
0.0532494
0.0519782
0.0508945
0.0496465
0.0486029
0.0537715
0.0552897
0.0568129
0.0583308
0.0598326
0.0613064
0.0627397
0.0641196
0.0654332
0.0666674
0.0678098
0.0688484
0.0697728
0.0705732
0.0712419
0.0717728
0.0721624
0.0724098
0.0725191
0.0725075
0.0724728
0.0722265
0.0717228
0.0710762
0.0703139
0.0694514
0.0685017
0.0674762
0.0663867
0.0652433
0.0640567
0.0628352
0.0615637
0.0602049
0.0588618
0.0575246
0.0562097
0.0548992
0.0536206
0.0523469
0.0511089
0.0575086
0.0591232
0.0607403
0.0623489
0.0639373
0.0654926
0.0670014
0.0684501
0.069825
0.0711123
0.0722993
0.0733738
0.0743248
0.0751428
0.0758199
0.0763507
0.0767315
0.076962
0.0770463
0.0770006
0.0769177
0.0766214
0.0760709
0.0753763
0.0745641
0.07365
0.0726473
0.0715682
0.0704245
0.0692274
0.0679873
0.0667141
0.0654162
0.0640619
0.0626114
0.0611789
0.0597619
0.0583599
0.0569758
0.0556086
0.0542612
0.0617015
0.0634214
0.0651412
0.0668492
0.0685323
0.0701769
0.0717684
0.0732923
0.0747341
0.0760795
0.0773151
0.0784284
0.0794083
0.0802452
0.0809316
0.081462
0.0818335
0.0820458
0.0821033
0.0820215
0.0818867
0.0815364
0.0809364
0.0801909
0.0793261
0.0783577
0.0772993
0.0761638
0.0749635
0.0737102
0.0724149
0.0710877
0.0697379
0.0683737
0.0669956
0.0655331
0.0640249
0.0625011
0.0609974
0.0595342
0.0581193
0.0664293
0.0682648
0.0700975
0.0719146
0.0737019
0.0754444
0.0771266
0.0787329
0.0802479
0.0816568
0.0829454
0.0841012
0.0851127
0.0859704
0.0866671
0.0871975
0.0875591
0.0877523
0.0877816
0.0876618
0.0874719
0.0870642
0.0864122
0.0856136
0.0846936
0.0836684
0.0825519
0.0813576
0.0800986
0.0787871
0.0774348
0.0760524
0.0746497
0.0732353
0.0718171
0.0704013
0.0689932
0.0675943
0.0661936
0.0647924
0.0634009
0.0717932
0.0737564
0.0757131
0.0776501
0.0795517
0.0814016
0.0831833
0.0848799
0.0864751
0.0879533
0.0893001
0.0905022
0.0915484
0.0924292
0.0931374
0.0936684
0.0940201
0.0941937
0.0941938
0.0940347
0.0937871
0.0933193
0.0926135
0.0917599
0.0907829
0.0896987
0.0885222
0.0872674
0.085948
0.0845769
0.0831665
0.0817281
0.0802719
0.0788072
0.0773421
0.0758833
0.074436
0.0730038
0.0715888
0.070191
0.0688079
0.0779251
0.0800289
0.0821219
0.0841902
0.0862168
0.0881842
0.0900745
0.0918696
0.0935522
0.0951061
0.0965161
0.0977689
0.098853
0.0997592
0.100481
0.101013
0.101356
0.10151
0.10148
0.101281
0.100974
0.100445
0.0996842
0.0987746
0.0977394
0.0965951
0.0953573
0.0940408
0.09266
0.0912285
0.0897593
0.0882642
0.0867541
0.0852385
0.0837258
0.0822226
0.0807336
0.0792614
0.0778064
0.0763676
0.0749405
0.084999
0.0872569
0.0894986
0.0917098
0.0938722
0.0959669
0.0979746
0.0998761
0.101653
0.103289
0.104767
0.106075
0.1072
0.108135
0.108871
0.109407
0.109741
0.109876
0.109817
0.109578
0.109212
0.108621
0.107806
0.106841
0.105747
0.104543
0.103244
0.101865
0.100423
0.0989306
0.0974022
0.0958498
0.0942846
0.0927164
0.0911535
0.0896019
0.0880651
0.0865445
0.0850396
0.0835485
0.082065
0.0932484
0.0956731
0.0980751
0.10044
0.102748
0.104978
0.107111
0.109126
0.111003
0.112726
0.114277
0.115643
0.116813
0.117778
0.118532
0.119072
0.119399
0.119517
0.11943
0.119153
0.118729
0.118078
0.117212
0.116192
0.115043
0.11378
0.11242
0.110981
0.109478
0.107926
0.106338
0.104728
0.103105
0.101482
0.0998639
0.098257
0.0966636
0.0950842
0.0935177
0.0919623
0.0904094
0.102992
0.105593
0.108164
0.11069
0.11315
0.115522
0.117785
0.119917
0.121899
0.123711
0.125337
0.126764
0.12798
0.128977
0.12975
0.130298
0.13062
0.130722
0.130611
0.130298
0.129822
0.129116
0.128202
0.127134
0.125932
0.124615
0.123199
0.121703
0.120142
0.118531
0.116885
0.115216
0.113535
0.111852
0.110174
0.108505
0.106846
0.105198
0.103559
0.101929
0.100295
0.114675
0.117455
0.120197
0.122885
0.125498
0.128011
0.130403
0.132652
0.134735
0.136636
0.138336
0.139822
0.141084
0.142114
0.142907
0.143463
0.143784
0.143874
0.143742
0.143401
0.142878
0.142127
0.141175
0.140065
0.13882
0.137456
0.135992
0.134446
0.132833
0.131169
0.129468
0.127742
0.126004
0.12426
0.122518
0.120781
0.119051
0.117328
0.11561
0.113896
0.112173
0.128927
0.131875
0.134778
0.137618
0.140372
0.143015
0.145525
0.147879
0.150055
0.152034
0.1538
0.155339
0.156642
0.157701
0.158514
0.159079
0.159401
0.159484
0.159339
0.158977
0.158421
0.157638
0.15666
0.155524
0.154249
0.152853
0.151355
0.149772
0.14812
0.146413
0.144667
0.142893
0.141102
0.139302
0.137499
0.135696
0.133895
0.132096
0.130299
0.128499
0.126684
0.146665
0.149746
0.152776
0.155735
0.158599
0.161342
0.16394
0.16637
0.168612
0.170647
0.172459
0.174035
0.175365
0.176444
0.17727
0.177843
0.178167
0.17825
0.178101
0.177732
0.17716
0.176367
0.175385
0.174245
0.172964
0.171561
0.170053
0.168457
0.166788
0.165062
0.163291
0.161488
0.159662
0.157822
0.155972
0.154116
0.152256
0.150393
0.148524
0.146647
0.144753
0.169253
0.172391
0.175476
0.178483
0.181387
0.184163
0.186787
0.189237
0.191492
0.193535
0.195351
0.196928
0.198257
0.199335
0.20016
0.200733
0.20106
0.201149
0.201008
0.200651
0.200089
0.199316
0.198365
0.197256
0.196008
0.194638
0.193162
0.191595
0.189952
0.188247
0.186493
0.1847
0.182878
0.181034
0.179173
0.177299
0.175413
0.173515
0.171605
0.16968
0.167738
0.198788
0.201832
0.204827
0.207743
0.210554
0.213237
0.215767
0.218126
0.220294
0.222254
0.223995
0.225505
0.226779
0.227812
0.228605
0.22916
0.229483
0.229582
0.229465
0.229144
0.22863
0.227923
0.22705
0.22603
0.224877
0.223605
0.22223
0.220765
0.219223
0.217616
0.215954
0.214248
0.212506
0.210734
0.208936
0.207116
0.205275
0.203415
0.201533
0.199628
0.19771
0.238598
0.241268
0.243905
0.24647
0.248938
0.25129
0.253506
0.255569
0.257462
0.259172
0.26069
0.262008
0.26312
0.264025
0.264724
0.265219
0.265516
0.265621
0.265544
0.265293
0.264876
0.264299
0.263583
0.262739
0.261778
0.260714
0.259556
0.258317
0.257005
0.255629
0.2542
0.252723
0.251204
0.24965
0.248062
0.246445
0.244799
0.243125
0.241421
0.239687
0.237947
0.294189
0.295976
0.297759
0.29949
0.301154
0.302739
0.30423
0.305617
0.30689
0.30804
0.30906
0.309947
0.310698
0.311312
0.31179
0.312135
0.31235
0.31244
0.31241
0.312267
0.312016
0.311662
0.311217
0.310686
0.310077
0.309397
0.308653
0.307849
0.306993
0.30609
0.305143
0.304157
0.303136
0.302081
0.300996
0.29988
0.298736
0.297561
0.296357
0.295121
0.293891
0.246265
0.0453803
0.0213602
0.0186045
0.0179989
0.0180708
0.0182367
0.0184534
0.0186761
0.018911
0.01915
0.0193929
0.0196548
0.0199542
0.0203201
0.0207733
0.0213794
0.253252
0.0492485
0.022998
0.0193146
0.0184063
0.0183118
0.0183753
0.0185316
0.0187247
0.0189383
0.0191617
0.0193971
0.0196603
0.0199668
0.0203373
0.0207836
0.0213585
0.258959
0.0545577
0.0252842
0.0202513
0.0189309
0.0186048
0.0185686
0.018671
0.0188364
0.0190308
0.0192448
0.0194814
0.0197505
0.0200628
0.0204332
0.0208727
0.021406
0.26368
0.0612687
0.0285309
0.0216109
0.0196272
0.0190089
0.018848
0.0188791
0.0190029
0.0191761
0.019383
0.0196207
0.0198938
0.0202093
0.0205778
0.0210067
0.0215141
0.266395
0.0703257
0.0325724
0.0233335
0.0205347
0.0195657
0.0192353
0.0191718
0.0192407
0.019385
0.0195788
0.0198124
0.020085
0.0204
0.0207644
0.0211815
0.0216698
0.269326
0.0793218
0.0368949
0.0253688
0.0216564
0.020278
0.0197376
0.0195562
0.0195557
0.0196596
0.0198308
0.0200522
0.0203179
0.020628
0.0209861
0.0213938
0.0218571
0.272934
0.0872512
0.0412272
0.0276266
0.0229667
0.0211386
0.0203609
0.0200416
0.0199553
0.0200042
0.0201404
0.0203395
0.0205907
0.0208904
0.0212388
0.0216348
0.0220794
0.277077
0.0940014
0.0453171
0.0299445
0.024403
0.0221291
0.0211012
0.0206271
0.0204389
0.0204183
0.0205068
0.0206735
0.0209025
0.0211863
0.0215213
0.0219024
0.0223309
0.28158
0.099155
0.0488083
0.0321505
0.0258946
0.0232188
0.021943
0.0213036
0.0210006
0.0208978
0.0209276
0.0210525
0.0212519
0.0215144
0.0218325
0.0221982
0.0226061
0.286289
0.103685
0.0516807
0.0341504
0.0273798
0.0243715
0.0228638
0.0220567
0.0216295
0.0214353
0.0213974
0.021473
0.0216366
0.0218729
0.0221704
0.0225182
0.0229081
0.291044
0.107494
0.0539285
0.035897
0.0288136
0.0255529
0.0238382
0.0228658
0.0223108
0.0220195
0.0219088
0.0219301
0.0220539
0.0222605
0.0225344
0.0228621
0.0232353
0.295615
0.11004
0.0554824
0.0373552
0.0301638
0.0267324
0.0248384
0.0237085
0.0230266
0.0226371
0.0224523
0.0224181
0.0225005
0.0226757
0.0229249
0.0232322
0.023586
0.299712
0.110878
0.0562546
0.0385111
0.0314101
0.0278827
0.025837
0.024561
0.0237574
0.0232735
0.0230176
0.0229304
0.0229727
0.0231168
0.023341
0.0236273
0.0239628
0.302998
0.109923
0.0562621
0.039388
0.0325467
0.0289808
0.0268071
0.0253987
0.0244841
0.0239143
0.0235951
0.0234613
0.0234679
0.0235836
0.0237836
0.0240488
0.0243677
0.305115
0.107321
0.0556416
0.040048
0.0335786
0.0300066
0.0277234
0.0261992
0.0251893
0.0245479
0.0241776
0.0240073
0.0239854
0.0240766
0.0242541
0.0244988
0.0247991
0.305692
0.10331
0.0546023
0.0405744
0.0345155
0.0309432
0.0285649
0.0269446
0.0258605
0.0251676
0.0247627
0.0245685
0.0245264
0.0245977
0.0247544
0.0249774
0.0252558
0.304382
0.098331
0.0534247
0.0410508
0.0353593
0.0317722
0.0293135
0.0276233
0.0264932
0.0257737
0.0253535
0.0251488
0.0250951
0.0251506
0.0252874
0.0254879
0.0257433
0.300925
0.0928961
0.0523718
0.0415142
0.036092
0.0324748
0.0299604
0.0282359
0.0270942
0.0263759
0.0259603
0.0257568
0.0256981
0.0257403
0.0258571
0.0260339
0.0262636
0.295195
0.0873525
0.0515581
0.0419504
0.036694
0.0330495
0.0305183
0.0288022
0.0276852
0.0269943
0.0265997
0.0264058
0.026345
0.0263736
0.0264676
0.0266157
0.0268125
0.28726
0.0821654
0.0511013
0.0423386
0.0371671
0.0335205
0.0310213
0.0293581
0.0282986
0.0276553
0.0272918
0.0271106
0.0270464
0.0270582
0.0271245
0.027237
0.0273924
0.277466
0.0778614
0.0509293
0.04266
0.0375349
0.0339342
0.0315197
0.0299499
0.0289718
0.0283871
0.0280566
0.0278857
0.0278131
0.0278022
0.0278341
0.0279048
0.0280101
0.266334
0.0752605
0.0509451
0.0429394
0.0378624
0.0343657
0.0320798
0.0306295
0.0297424
0.0292157
0.0289128
0.0287443
0.0286549
0.0286125
0.0286012
0.02862
0.0286624
0.255856
0.0734693
0.0510519
0.0431966
0.038203
0.0348652
0.0327436
0.0314294
0.0306357
0.0301608
0.029875
0.0296975
0.0295801
0.0294953
0.0294297
0.0293837
0.0293485
0.247047
0.0722316
0.0512615
0.0435064
0.0386389
0.0355003
0.0335615
0.032384
0.0316737
0.0312364
0.0309529
0.0307523
0.0305939
0.0304548
0.0303244
0.0302035
0.0300764
0.24036
0.0716544
0.0516531
0.0439604
0.039257
0.0363394
0.034583
0.0335273
0.0328796
0.0324582
0.0321567
0.0319147
0.0316992
0.0314933
0.0312861
0.0310777
0.0308443
0.236078
0.0718125
0.0522993
0.0446441
0.0401327
0.0374377
0.0358458
0.0348843
0.0342699
0.0338372
0.0334933
0.0331887
0.0328985
0.032611
0.032314
0.032001
0.0316518
0.234309
0.0727295
0.0532622
0.0456317
0.0413265
0.0388376
0.0373777
0.0364728
0.0358563
0.0353803
0.0349668
0.0345773
0.0341937
0.0338076
0.0334076
0.0329772
0.0325086
0.234976
0.0743372
0.054591
0.0469857
0.0428873
0.0405722
0.0391998
0.0383067
0.0376475
0.0370932
0.0365812
0.0360829
0.0355858
0.0350841
0.0345666
0.0340017
0.0334126
0.237853
0.0765948
0.0563287
0.0487643
0.0448578
0.0426703
0.0413312
0.040399
0.039652
0.0389824
0.0383416
0.0377094
0.0370777
0.0364426
0.0357895
0.0350669
0.0343652
0.242596
0.0794528
0.0585256
0.0510296
0.0472832
0.0451631
0.0437939
0.0427646
0.0418814
0.041057
0.0402552
0.0394626
0.0386744
0.0378864
0.0370757
0.0361806
0.0353776
0.248798
0.0828612
0.0612535
0.0538543
0.0502183
0.0480894
0.0466156
0.0454245
0.0443525
0.0433305
0.0423329
0.0413514
0.0403827
0.0394202
0.0384269
0.0373511
0.036445
0.256013
0.0867974
0.0646214
0.057337
0.0537343
0.0515006
0.0498338
0.0484082
0.0470887
0.0458219
0.0445897
0.0433874
0.0422115
0.0410514
0.039844
0.0385869
0.037566
0.263797
0.091307
0.0687951
0.0616108
0.057926
0.0554647
0.0535002
0.0517564
0.0501224
0.0485563
0.047045
0.0455851
0.0441718
0.0427877
0.0413294
0.0399049
0.0387494
0.271683
0.0965481
0.0740181
0.0668533
0.0629189
0.0600725
0.0576847
0.0555235
0.0534957
0.051566
0.0497231
0.0479622
0.046276
0.0446374
0.0428933
0.0413145
0.0399939
0.279203
0.102856
0.0806358
0.0733035
0.0688786
0.0654469
0.0624807
0.0597806
0.0572622
0.0548911
0.052653
0.0505393
0.048538
0.0466074
0.0445544
0.0428153
0.0412976
0.285886
0.110824
0.0891293
0.0812832
0.0760289
0.0717529
0.0680112
0.0646188
0.0614891
0.0585802
0.0558695
0.0533403
0.0509734
0.0486995
0.0463405
0.0444071
0.0426657
0.291266
0.121422
0.100175
0.091233
0.0846794
0.0792154
0.0744391
0.0701553
0.0662594
0.0626918
0.0594131
0.0563926
0.0535995
0.0509188
0.0482757
0.0460911
0.0440975
0.294957
0.13619
0.114744
0.103779
0.0952676
0.0881424
0.0819792
0.0765385
0.0716756
0.0672958
0.0633306
0.0597266
0.0564361
0.0532876
0.0503655
0.0478685
0.045589
0.296623
0.157563
0.134269
0.119852
0.108424
0.0989583
0.0909155
0.0839584
0.0778639
0.0724754
0.0676764
0.0633772
0.0595044
0.0558466
0.0526016
0.0497406
0.0471435
0.296157
0.18949
0.161004
0.140897
0.125082
0.112262
0.101634
0.0926643
0.0849854
0.0783337
0.0725154
0.0673841
0.0628263
0.0586393
0.0549808
0.0517083
0.0487583
0.0224552
0.0242339
0.0510077
0.292162
1.16652
2.67143
3.91728
4.24529
3.9297
3.46416
3.1844
3.37717
4.36288
4.00583
2.33095
0.953355
0.29961
0.0856267
0.0330458
0.0227183
0.0232621
0.0250385
0.0486125
0.233011
0.855909
1.96546
3.06771
3.65362
3.6784
3.4046
3.16111
3.29499
4.56697
4.60274
2.77184
1.13985
0.354791
0.0984233
0.0358714
0.0235921
0.0240977
0.0257559
0.0426218
0.163417
0.566938
1.3259
2.21767
2.87958
3.14195
3.09039
2.98628
3.16872
4.64742
5.1733
3.23859
1.34245
0.413429
0.111726
0.0388982
0.0246167
0.0250214
0.0266081
0.0369905
0.105314
0.334163
0.801353
1.43968
2.03931
2.43007
2.58996
2.67196
2.98545
4.6769
5.72227
3.72638
1.55684
0.473704
0.125093
0.0421225
0.0258521
0.026118
0.0277779
0.0338187
0.067107
0.178632
0.430736
0.830397
1.29169
1.70143
2.00527
2.27303
2.76915
4.71958
6.24873
4.22266
1.77738
0.533521
0.138083
0.0456009
0.0273991
0.0274769
0.0293916
0.0334238
0.0479587
0.0955291
0.21329
0.430362
0.736872
1.0884
1.45022
1.86378
2.56859
4.84526
6.7715
4.71891
1.99794
0.590412
0.150409
0.0495211
0.0294277
0.0292117
0.0315881
0.0354448
0.0434533
0.0641706
0.115642
0.222333
0.402812
0.661744
1.00957
1.51812
2.44315
5.12461
7.315
5.20617
2.21224
0.642173
0.162219
0.0543278
0.0322302
0.031493
0.0348473
0.0401723
0.0490493
0.065788
0.0992927
0.162631
0.270104
0.439504
0.72379
1.27495
2.44002
5.62575
7.90002
5.67235
2.40914
0.688442
0.174557
0.0609264
0.036316
0.0351132
0.0406709
0.0500376
0.0667511
0.0969283
0.147394
0.219625
0.307842
0.415472
0.614058
1.16188
2.59813
6.39696
8.52007
6.09658
2.57812
0.728797
0.190016
0.0710269
0.0425842
0.0405355
0.0505384
0.0696574
0.106461
0.171579
0.269999
0.388029
0.49727
0.580696
0.705791
1.21923
2.96492
7.43644
9.10899
6.4367
2.70635
0.767274
0.213634
0.0877474
0.0526537
0.0497403
0.0702411
0.112122
0.19041
0.317617
0.492538
0.683639
0.85415
0.937349
1.00937
1.50992
3.88176
8.56732
9.52051
6.61138
2.78139
0.813697
0.254235
0.116731
0.0695352
0.0674572
0.112154
0.200235
0.349594
0.571064
0.859672
1.16531
1.41557
1.51913
1.56157
2.30281
5.45864
9.0196
9.4613
6.51536
2.79999
0.886377
0.326465
0.168299
0.0991156
0.104191
0.199301
0.368829
0.629347
0.995714
1.46832
1.96202
2.28633
2.33296
2.43862
3.63072
6.26927
8.67028
8.75583
6.13046
2.79206
1.01813
0.454531
0.261595
0.153577
0.183228
0.3744
0.678246
1.11653
1.72443
2.43737
2.9939
3.13962
3.01241
3.34871
4.43149
6.27358
7.80201
7.6327
5.52096
2.87683
1.26507
0.680219
0.432452
0.25933
0.35697
0.721255
1.24144
1.95229
2.78914
3.45206
3.68252
3.56722
3.59048
3.95067
4.7855
5.97046
6.82142
6.57387
5.065
3.08943
1.68054
1.07275
0.750187
0.475674
0.753671
1.41082
2.23177
3.0629
3.64888
3.8884
3.92683
3.95814
4.10938
4.48105
5.03458
5.71117
6.1118
5.82588
4.75252
3.39306
2.29171
1.71601
1.33665
0.934159
1.70433
2.67785
3.39757
3.68602
3.80634
3.93474
4.08512
4.27046
4.51664
4.83198
5.25862
5.64741
5.80822
5.52612
4.72976
3.76258
3.04122
2.57786
2.26341
1.87012
3.6594
3.93756
3.64938
3.48114
3.59307
3.77534
4.01422
4.31706
4.66485
5.04857
5.42205
5.70752
5.80181
5.58732
5.01531
4.21594
3.50233
3.12126
2.99756
2.93284
4.04393
3.22069
2.90832
3.00235
3.18241
3.41467
3.69339
4.03779
4.41727
4.79956
5.14491
5.40539
5.52403
5.4028
5.04259
4.42804
3.75059
3.16881
2.76793
2.54774
1.4264
1.47118
1.58437
1.71832
1.86065
2.01853
2.20287
2.39338
2.58099
2.75412