/*--------------------------------*- C++ -*----------------------------------*\
  =========                 |
  \\      /  F ield         | OpenFOAM: The Open Source CFD Toolbox
   \\    /   O peration     | Website:  https://openfoam.org
    \\  /    A nd           | Version:  6
     \\/     M anipulation  |
\*---------------------------------------------------------------------------*/
FoamFile
{
    version     2.0;
    format      ascii;
    class       surfaceVectorField;
    location    "1.51";
    object      Uf;
}
// * * * * * * * * * * * * * * * * * * * * * * * * * * * * * * * * * * * * * //

dimensions      [0 1 -1 0 0 0 0];

internalField   nonuniform List<vector> 
1540
(
(-20.8937 -5.84056 0)
(-27.6069 -0.469642 0)
(29.4827 -0.230229 0)
(11.5511 -3.19927 0)
(22.6576 0.935983 0)
(14.9057 0.433439 0)
(19.9302 1.86116 0)
(9.46557 0.173209 0)
(13.3643 1.85468 0)
(8.3162 0.416982 0)
(14.6504 1.53332 0)
(8.71236 -0.0816742 0)
(12.1141 2.24764 0)
(3.89391 0.161071 0)
(13.9386 1.75408 0)
(9.45072 -0.115866 0)
(12.9015 2.08659 0)
(11.4638 0.0658595 0)
(10.3506 1.38129 0)
(15.0267 0.162005 0)
(11.9896 1.58022 0)
(5.55987 -0.102439 0)
(8.74236 1.36553 0)
(16.155 0.202953 0)
(7.56906 0.242753 0)
(7.5424 0.0733313 0)
(12.9251 0.98253 0)
(17.0017 -0.33475 0)
(12.6386 0.586877 0)
(8.18528 0.0179069 0)
(10.0368 0.990027 0)
(12.6795 0.162613 0)
(12.9245 0.615357 0)
(5.88795 -0.180486 0)
(5.3216 0.692652 0)
(16.7871 0.475185 0)
(-0.677108 0.304277 0)
(-0.571481 0.374919 0)
(10.0085 -0.0423188 0)
(13.6949 0.787559 0)
(2.10572 -1.29331 0)
(-4.07301 -2.13323 0)
(-3.69038 -2.07088 0)
(0.122126 -0.90793 0)
(8.49968 0.167016 0)
(-0.585378 -1.33526 0)
(1.83803 0.21814 0)
(-1.03014 -1.4642 0)
(7.11418 0.445227 0)
(0.957735 -1.67969 0)
(8.12188 -0.207919 0)
(0.324336 -2.51785 0)
(4.2377 0.201296 0)
(7.95279 -1.58349 0)
(12.1834 -0.600328 0)
(12.822 -1.08906 0)
(10.916 -0.243375 0)
(8.93386 -0.779102 0)
(20.9062 0.408935 0)
(9.52325 -1.12307 0)
(3.2962 -0.139276 0)
(15.8839 -0.0634229 0)
(9.97837 -0.194588 0)
(15.1799 0.154877 0)
(2.10348 0.117334 0)
(13.615 -0.774786 0)
(16.9874 -0.236946 0)
(10.173 -0.179204 0)
(5.77765 0.23303 0)
(9.72941 -0.971807 0)
(10.2873 0.190341 0)
(8.20014 0.0746753 0)
(4.08709 -0.0849062 0)
(10.2666 -0.0660883 0)
(15.908 0.346032 0)
(6.2857 -1.02483 0)
(4.95662 0.623725 0)
(9.72447 0.350538 0)
(-10.3626 -3.80586 0)
(-7.17824 -0.58914 0)
(9.05241 -0.498888 0)
(-2.19168 -3.30388 0)
(7.28085 1.23055 0)
(-1.14832 0.279521 0)
(11.9014 2.03565 0)
(3.83332 -0.0753012 0)
(12.0661 1.68692 0)
(-1.4535 0.43477 0)
(13.9482 1.78187 0)
(9.86785 -0.327446 0)
(15.5227 2.53533 0)
(-1.78848 0.101302 0)
(16.3621 1.32658 0)
(14.781 -0.653638 0)
(18.5458 1.09479 0)
(5.38047 -0.382053 0)
(13.8331 0.474389 0)
(19.5615 0.708224 0)
(4.27659 0.409564 0)
(12.7417 0.458006 0)
(-3.23053 -1.14197 0)
(6.29512 0.274607 0)
(2.27551 -1.24528 0)
(4.96648 -0.226793 0)
(10.61 0.0822004 0)
(12.3338 -0.75785 0)
(7.77676 0.29898 0)
(3.37442 0.410107 0)
(5.65159 0.803775 0)
(7.05939 0.323165 0)
(10.2094 0.0955887 0)
(5.13447 -0.369767 0)
(9.89424 1.62551 0)
(11.7768 0.365727 0)
(4.48189 2.86318 0)
(2.81246 0.961998 0)
(8.89142 0.630657 0)
(6.03923 -0.327272 0)
(1.56868 -0.926614 0)
(-11.7977 -1.69383 0)
(-8.97403 -2.1711 0)
(-7.85102 -0.699397 0)
(-0.533432 0.0288783 0)
(-7.05334 -1.6988 0)
(-1.19195 -0.125961 0)
(-7.63256 -1.53808 0)
(-1.67968 0.471555 0)
(-3.49802 -2.09187 0)
(4.56959 -0.590019 0)
(-2.60096 -3.50271 0)
(-1.69098 0.0443313 0)
(5.38756 -3.23847 0)
(9.0986 -1.16097 0)
(5.37404 -1.15784 0)
(4.87072 -0.381196 0)
(17.3191 0.931636 0)
(9.11909 -0.0503717 0)
(15.7328 0.526387 0)
(8.52618 0.557147 0)
(14.2544 1.97302 0)
(6.92122 0.367007 0)
(13.329 1.23753 0)
(9.42793 -0.168955 0)
(6.98886 -0.159721 0)
(7.89213 -0.36159 0)
(4.39798 0.00487294 0)
(2.4649 0.572036 0)
(7.62652 -0.71889 0)
(8.04788 0.121382 0)
(5.10428 -0.209661 0)
(6.07782 -0.212127 0)
(3.45437 -0.772122 0)
(9.44455 0.468847 0)
(3.49448 -1.23934 0)
(-1.25966 0.959491 0)
(6.85233 0.849062 0)
(-8.0475 -2.48051 0)
(-4.91393 -0.369473 0)
(3.06798 -0.884778 0)
(-8.30678 -2.87702 0)
(2.87517 0.449327 0)
(-2.08153 0.0411221 0)
(6.5928 1.66732 0)
(-2.33458 -0.36206 0)
(6.97561 1.16171 0)
(-3.80528 0.447243 0)
(8.55292 1.86124 0)
(3.26314 -0.69019 0)
(9.7629 2.92458 0)
(-5.9645 -0.032512 0)
(10.762 1.59342 0)
(7.74196 -1.22442 0)
(6.68997 0.574636 0)
(-3.59034 -0.12259 0)
(-0.813801 -0.200121 0)
(8.12602 0.426174 0)
(1.10037 0.230688 0)
(5.03147 0.437511 0)
(1.54035 -1.47604 0)
(0.876618 0.339509 0)
(2.40586 -1.49145 0)
(11.4225 -0.223049 0)
(5.3765 0.334807 0)
(-0.109252 -0.547255 0)
(7.78013 0.808115 0)
(3.70864 0.42181 0)
(7.51503 0.42792 0)
(10.5181 0.137951 0)
(9.1227 0.645727 0)
(2.10021 -0.312606 0)
(3.06629 2.05841 0)
(9.36707 0.847372 0)
(-1.26918 2.17206 0)
(-0.32043 1.23046 0)
(3.29855 0.769739 0)
(0.504587 -0.843646 0)
(1.33964 -0.355456 0)
(-12.6174 -1.36602 0)
(-10.5899 -2.04368 0)
(-10.2227 -0.625226 0)
(0.968147 -0.110964 0)
(-10.8678 -1.18832 0)
(-2.77389 -0.32109 0)
(-10.2016 -1.39376 0)
(-2.63661 0.40493 0)
(-9.59353 -3.45313 0)
(3.04106 -0.728804 0)
(-8.41434 -4.60801 0)
(-6.1226 -0.1074 0)
(-4.6132 -2.01862 0)
(4.33278 -1.46582 0)
(-3.88657 0.233803 0)
(-1.18419 -0.168737 0)
(12.5988 0.953658 0)
(9.77184 -0.620769 0)
(6.41561 0.945024 0)
(8.95959 0.823962 0)
(9.92973 0.906501 0)
(-6.37676 0.119877 0)
(7.35435 0.0924171 0)
(14.2581 -0.0620874 0)
(0.289254 -0.404799 0)
(-6.49225 -0.105686 0)
(7.97369 0.186873 0)
(6.02181 -0.0584674 0)
(6.29639 0.00901262 0)
(10.3381 0.242783 0)
(0.656648 -0.344421 0)
(2.68769 0.0398776 0)
(4.71202 0.118896 0)
(12.4364 0.593912 0)
(1.47369 0.369447 0)
(1.89652 1.43285 0)
(2.07971 0.861845 0)
(-3.6496 -1.47697 0)
(-4.40486 -0.0776126 0)
(3.83651 -1.08613 0)
(-8.11922 -2.5191 0)
(5.79459 0.362693 0)
(-2.56086 -0.235317 0)
(6.95734 1.14464 0)
(-2.53727 -0.394935 0)
(8.03732 1.29904 0)
(-4.73758 0.336344 0)
(8.27722 2.89856 0)
(2.28429 -0.744039 0)
(6.10765 2.89629 0)
(-5.36633 0.0303825 0)
(9.61226 -0.365536 0)
(4.39603 -1.68839 0)
(10.716 -1.29271 0)
(0.469112 -0.238833 0)
(5.07049 -0.4989 0)
(12.0744 -0.262237 0)
(-2.38035 -0.365884 0)
(1.32117 1.28964 0)
(-2.81569 -0.252198 0)
(2.05789 0.147086 0)
(-1.19774 0.300124 0)
(6.61404 -0.163209 0)
(1.27931 -0.346926 0)
(4.68283 -0.260502 0)
(9.49747 -0.946429 0)
(8.81334 -0.572103 0)
(8.39143 -0.0891338 0)
(11.3051 0.311912 0)
(12.3301 1.43867 0)
(3.62211 -0.206292 0)
(8.87816 1.91911 0)
(9.36105 0.809661 0)
(0.157989 1.69081 0)
(3.80334 1.97786 0)
(0.656535 0.87172 0)
(-2.40274 -1.24006 0)
(-1.10258 0.121042 0)
(-13.6587 -1.4199 0)
(-11.0051 -1.80427 0)
(-13.2302 -1.14835 0)
(-2.70639 -0.262531 0)
(-12.834 -1.34468 0)
(-4.36508 -0.420097 0)
(-12.7334 -1.94661 0)
(-4.0502 0.329955 0)
(-9.88081 -3.34957 0)
(-1.3819 -0.925202 0)
(-7.47793 -4.30039 0)
(-0.356332 -0.122219 0)
(-3.07594 -1.72277 0)
(1.99201 -1.96795 0)
(-0.296096 0.367195 0)
(3.33243 -0.415375 0)
(7.73885 0.861517 0)
(9.30982 -0.772514 0)
(6.668 1.79162 0)
(5.5391 1.35657 0)
(10.6221 -0.00619954 0)
(-1.51416 -0.100048 0)
(11.6706 -0.749663 0)
(2.65561 -0.228737 0)
(13.694 0.328427 0)
(1.57871 -0.386963 0)
(11.3069 1.14179 0)
(3.91678 -0.422912 0)
(8.24164 -0.263598 0)
(12.177 0.503494 0)
(-1.37454 -1.32717 0)
(0.86205 0.39472 0)
(3.94013 0.875434 0)
(-1.83701 0.477495 0)
(1.95776 1.05573 0)
(3.36788 2.10176 0)
(1.61741 0.994081 0)
(-2.81804 -0.317159 0)
(-5.80476 0.346075 0)
(0.836092 -1.03791 0)
(-9.22128 -2.03633 0)
(3.84776 0.272896 0)
(-1.61488 -0.453795 0)
(5.84464 0.998004 0)
(-3.51283 -0.546914 0)
(5.57723 1.08153 0)
(-2.69424 0.346937 0)
(9.03201 2.34006 0)
(-0.00277144 -1.14461 0)
(8.84757 2.59448 0)
(-1.41484 -0.110507 0)
(9.93216 -0.337057 0)
(1.51599 -2.03682 0)
(10.9114 -1.44503 0)
(5.69745 -0.477565 0)
(6.70555 0.025646 0)
(7.55347 -0.505411 0)
(-2.44453 0.137472 0)
(2.64205 1.92845 0)
(-10.3327 -0.155056 0)
(-0.99125 0.392966 0)
(-7.83923 -0.774999 0)
(-5.90618 -0.384581 0)
(-7.15382 -2.29078 0)
(-5.34704 -0.429801 0)
(5.56636 -0.671753 0)
(1.96747 -1.21792 0)
(6.52266 2.10976 0)
(6.07487 0.443726 0)
(-1.52742 2.55459 0)
(0.610692 0.89785 0)
(-2.43609 1.95892 0)
(-9.48384 0.534287 0)
(0.571007 2.0865 0)
(4.51679 1.91382 0)
(1.2589 1.02977 0)
(-5.21574 -1.03146 0)
(0.373359 0.723376 0)
(-10.738 -1.14319 0)
(-8.43134 -1.68563 0)
(-11.2309 -1.03879 0)
(1.59401 -0.4225 0)
(-10.6743 -0.90217 0)
(-4.47124 -0.58226 0)
(-9.60172 -1.88015 0)
(1.39248 0.278818 0)
(-10.0194 -3.88195 0)
(-0.00875301 -1.11808 0)
(-8.90121 -4.93751 0)
(1.89261 -0.181521 0)
(-1.27366 -2.40243 0)
(-1.08548 -2.52123 0)
(0.354373 0.252173 0)
(13.2153 -0.580957 0)
(3.2241 0.962107 0)
(0.598433 -0.687659 0)
(3.90006 1.90439 0)
(1.24458 1.8862 0)
(2.77517 -0.260969 0)
(4.69324 0.463272 0)
(-3.4825 0.00839707 0)
(3.43782 0.00652423 0)
(4.48453 1.57246 0)
(2.71198 -0.92774 0)
(3.54738 -0.770959 0)
(0.536499 -1.15935 0)
(1.52259 -1.34283 0)
(1.53583 0.570276 0)
(-8.6479 -0.832173 0)
(-3.70532 1.53351 0)
(-2.31285 0.279257 0)
(-12.1502 0.138346 0)
(2.71084 0.822724 0)
(4.59549 1.59984 0)
(2.16111 1.1992 0)
(4.12799 -0.487512 0)
(1.31082 0.507285 0)
(4.90985 -0.913347 0)
(-5.30341 -1.73528 0)
(6.08028 0.309539 0)
(-3.78042 -0.496832 0)
(8.88024 0.910827 0)
(-2.05374 -0.760079 0)
(10.0883 1.24749 0)
(-1.52327 0.202095 0)
(11.8302 2.56192 0)
(1.60593 -1.2287 0)
(9.69838 2.04088 0)
(3.08199 -0.0461388 0)
(14.637 -0.785027 0)
(0.896804 -2.83487 0)
(11.6854 -1.06236 0)
(6.54228 -0.393504 0)
(-1.64551 0.6791 0)
(1.17437 0.15895 0)
(1.60197 0.316081 0)
(3.45732 1.68323 0)
(4.68781 0.912093 0)
(3.48917 0.270407 0)
(9.99324 -0.350599 0)
(-4.93392 -0.325065 0)
(-0.785188 -3.67147 0)
(2.49551 -0.254088 0)
(-0.706785 0.750139 0)
(1.16326 -1.16425 0)
(-2.75916 3.8449 0)
(1.99583 0.69855 0)
(-7.80294 2.23993 0)
(-4.6588 1.84874 0)
(-4.85032 1.95829 0)
(-9.39023 -0.0461919 0)
(1.639 2.33349 0)
(6.6198 1.19426 0)
(1.66496 1.30163 0)
(-0.866913 -0.256849 0)
(-1.15724 0.608404 0)
(-12.9332 -1.58133 0)
(-1.50223 -0.968983 0)
(-14.0396 -1.61617 0)
(-5.52563 -0.426571 0)
(-11.2771 -1.34993 0)
(-4.70007 -0.935518 0)
(-10.708 -2.47399 0)
(2.04824 0.165949 0)
(-7.55168 -3.52962 0)
(-0.0641265 -1.42914 0)
(-5.56699 -4.50728 0)
(3.91423 -0.172182 0)
(-6.15827 -2.42653 0)
(1.2315 -2.79732 0)
(-5.84901 0.294135 0)
(2.28448 -0.413145 0)
(5.76397 0.958417 0)
(6.65558 -0.578559 0)
(5.16452 1.90935 0)
(4.07717 1.7207 0)
(-7.10614 -0.481064 0)
(2.47797 1.03732 0)
(-11.6216 -0.0883711 0)
(-4.55374 -0.0428505 0)
(4.56131 1.87502 0)
(-2.81783 -1.26552 0)
(4.39391 -1.58236 0)
(1.86543 -1.15379 0)
(0.955659 -1.55097 0)
(1.19164 0.913442 0)
(-6.58571 -0.838575 0)
(-4.4183 2.32008 0)
(2.58819 -1.62986 0)
(-3.83622 -0.61956 0)
(4.40856 -0.0293671 0)
(2.76666 1.08048 0)
(2.36998 1.57717 0)
(5.68105 -0.612433 0)
(-0.925153 0.293682 0)
(6.98296 -0.110519 0)
(-0.623096 -1.05166 0)
(2.04578 -0.231153 0)
(1.97378 -0.113024 0)
(9.46869 0.442994 0)
(-2.04286 -1.40693 0)
(12.1308 1.59867 0)
(-3.02192 -0.00311429 0)
(10.8759 2.07999 0)
(-0.593 -1.34945 0)
(10.881 1.55546 0)
(-0.701068 -0.172504 0)
(10.7348 -0.973919 0)
(0.641968 -2.78804 0)
(12.5486 -1.23038 0)
(3.97077 -0.528337 0)
(4.29222 0.559803 0)
(8.90164 -0.0542164 0)
(1.34769 1.01549 0)
(-3.23639 1.90473 0)
(4.09384 0.904229 0)
(3.42264 0.865689 0)
(5.24862 -1.36029 0)
(-4.10707 -0.115024 0)
(-5.69728 -3.66701 0)
(-3.60418 -0.581398 0)
(-0.93526 1.48262 0)
(0.767158 -1.45142 0)
(-3.33429 4.60111 0)
(-2.0906 1.06338 0)
(-1.93529 2.78542 0)
(-4.6846 2.23264 0)
(-3.10888 2.78499 0)
(-1.26329 -0.546209 0)
(-1.29396 2.76398 0)
(0.817713 0.967051 0)
(1.60503 1.4963 0)
(0.461323 0.275166 0)
(1.05061 0.310448 0)
(-4.70096 -0.675854 0)
(-2.79971 -0.723822 0)
(-3.78085 -0.702738 0)
(4.29486 -0.17146 0)
(-13.8084 -1.89301 0)
(0.848181 -0.770103 0)
(-16.3322 -3.38669 0)
(-4.78886 0.15716 0)
(-12.6348 -3.87496 0)
(-2.93037 -1.58426 0)
(-10.8431 -4.79426 0)
(-1.3113 -0.286291 0)
(-5.12607 -2.03843 0)
(-0.72619 -3.15111 0)
(-1.74031 0.630246 0)
(4.05183 -0.743359 0)
(1.16486 0.686313 0)
(-5.79344 -0.238715 0)
(-1.55366 1.34737 0)
(-1.25742 2.07464 0)
(-5.3339 0.311951 0)
(2.79146 1.10195 0)
(-11.9328 0.714488 0)
(-6.89388 0.297408 0)
(2.41128 0.865635 0)
(-7.01046 -1.4779 0)
(-0.0412356 -1.62073 0)
(1.12452 -1.29813 0)
(-2.47536 -0.893371 0)
(-4.58334 1.21552 0)
(-4.36208 -1.32021 0)
(-3.57938 2.35056 0)
(3.31387 -2.801 0)
(-1.8009 -1.02596 0)
(1.50434 -0.325236 0)
(-0.177123 1.08015 0)
(1.23119 1.59032 0)
(5.43793 -0.81391 0)
(1.38143 0.0111663 0)
(6.88973 -0.617995 0)
(6.19631 -0.816021 0)
(7.53466 -0.764141 0)
(3.82074 -0.212418 0)
(10.6221 1.22594 0)
(2.67838 -0.966178 0)
(7.89984 2.24518 0)
(0.418146 0.330043 0)
(8.11261 1.90595 0)
(-3.53052 -1.59777 0)
(8.79543 1.19736 0)
(-0.137507 -0.329656 0)
(9.43419 -2.10271 0)
(-1.03206 -3.19168 0)
(-1.95078 -1.22689 0)
(-0.250942 -0.0203297 0)
(-7.92516 1.47206 0)
(-12.7924 0.140703 0)
(2.11173 2.10039 0)
(2.46551 1.44733 0)
(1.09394 1.1808 0)
(2.33346 1.16557 0)
(-0.942852 -1.85567 0)
(-2.64719 0.424707 0)
(-8.92358 -2.99018 0)
(-7.55497 -0.979108 0)
(-3.05379 1.57437 0)
(-0.57508 -1.665 0)
(-4.74911 4.5036 0)
(-5.28484 1.32147 0)
(-1.39996 3.07814 0)
(-3.45009 2.14124 0)
(-4.71482 2.90187 0)
(-0.304073 -0.818777 0)
(-2.79436 2.62061 0)
(-0.718781 0.960118 0)
(0.0722485 1.41567 0)
(9.73024 0.119704 0)
(2.64811 -0.560712 0)
(3.54841 0.204244 0)
(7.63512 -0.423431 0)
(-2.28612 0.151265 0)
(3.44987 0.158116 0)
(-6.98918 -1.48725 0)
(3.62273 -0.667501 0)
(-11.811 -3.20421 0)
(-3.93157 0.636265 0)
(-11.8787 -3.36281 0)
(-1.55617 -1.59347 0)
(-10.0753 -4.22084 0)
(1.92724 -0.444187 0)
(-9.70788 -1.03746 0)
(-0.190616 -3.21501 0)
(-12.7792 0.884547 0)
(0.394094 0.174721 0)
(-2.08622 0.120527 0)
(-11.5054 -0.538379 0)
(1.59436 0.544746 0)
(5.37796 1.2173 0)
(-1.50074 0.252812 0)
(5.49812 1.35901 0)
(-8.2111 1.11998 0)
(-5.24669 0.844105 0)
(0.0541666 -0.0937792 0)
(-8.34417 -1.49569 0)
(-2.3863 -1.84807 0)
(-0.386387 -1.51247 0)
(-3.07266 -0.993409 0)
(-6.28655 1.36437 0)
(-2.77587 -1.99371 0)
(-2.12222 2.12269 0)
(4.02138 -2.94753 0)
(-0.79839 -1.2436 0)
(-0.314746 -0.139872 0)
(-0.271945 1.23113 0)
(-0.392083 1.396 0)
(7.99892 -0.980025 0)
(1.73532 -1.02264 0)
(7.72564 -0.797385 0)
(7.52818 -0.406074 0)
(8.17997 -1.02893 0)
(2.22386 0.129262 0)
(7.19198 0.965403 0)
(2.66112 -0.604757 0)
(5.43515 1.41531 0)
(-1.97409 0.747837 0)
(12.3093 0.462434 0)
(1.64799 -2.03003 0)
(11.6263 0.127343 0)
(1.7284 -0.400808 0)
(10.883 -1.24521 0)
(0.0793546 -3.1678 0)
(0.389651 -0.455121 0)
(6.63688 0.841123 0)
(-3.58333 0.561779 0)
(-6.82034 -0.286065 0)
(8.22348 2.02096 0)
(5.52551 0.479371 0)
(1.65345 2.01315 0)
(3.69842 1.76964 0)
(-4.32902 -1.51301 0)
(-2.31573 1.21801 0)
(-9.5553 -2.63771 0)
(-6.72416 -1.16904 0)
(-3.84712 1.53405 0)
(-1.75804 -1.86923 0)
(-4.34499 4.41288 0)
(-5.19898 1.39549 0)
(-0.711703 3.11908 0)
(-1.56002 1.89561 0)
(-4.80688 2.97333 0)
(0.0700773 -0.987656 0)
(-2.92082 2.52516 0)
(-0.123931 1.11325 0)
(-0.863583 1.21345 0)
(7.61113 -0.67841 0)
(0.19527 -1.45993 0)
(2.00574 0.529412 0)
(6.66014 -0.0500916 0)
(-4.23902 0.689148 0)
(2.95428 0.525848 0)
(-6.1991 -0.477071 0)
(3.03035 -0.480278 0)
(-6.7445 -2.16067 0)
(-0.262806 0.782474 0)
(-8.78742 -2.08327 0)
(2.4521 -1.90029 0)
(-9.97177 -3.08599 0)
(-0.5848 -0.325594 0)
(-3.25068 -1.88381 0)
(-0.94021 -3.59464 0)
(-1.70895 -0.0675683 0)
(6.28941 0.743211 0)
(3.12061 -0.803503 0)
(-5.06037 -0.592777 0)
(-0.157126 0.0925971 0)
(6.80797 0.68423 0)
(-0.330494 0.817137 0)
(2.84239 1.78047 0)
(-3.71008 1.18468 0)
(-3.32369 1.42923 0)
(0.293699 -0.501189 0)
(-5.52124 -1.41928 0)
(-2.69157 -1.78312 0)
(-1.50396 -1.68265 0)
(-1.29479 -0.994767 0)
(-4.71116 1.30819 0)
(-1.51853 -2.40925 0)
(-0.988377 1.90959 0)
(5.09122 -2.96352 0)
(2.40985 -1.40077 0)
(-0.645977 -0.0207654 0)
(-1.03474 1.47182 0)
(0.2285 1.17308 0)
(4.17211 -0.908203 0)
(-0.771856 -1.67883 0)
(7.24621 -0.032305 0)
(6.2961 -0.245318 0)
(9.66053 -0.602756 0)
(0.205571 0.372521 0)
(9.01975 0.748508 0)
(3.14904 -0.439585 0)
(7.9719 1.11375 0)
(1.2113 0.849021 0)
(10.6769 -0.741139 0)
(3.46447 -2.07208 0)
(8.5216 -1.58199 0)
(4.9312 -0.188716 0)
(9.31486 -0.532256 0)
(-0.714643 -3.64502 0)
(1.79679 1.13402 0)
(11.5275 1.22066 0)
(0.322289 1.31626 0)
(-0.981277 -0.499134 0)
(8.57282 2.52757 0)
(13.7136 0.168572 0)
(-0.221165 2.65954 0)
(2.21023 2.3301 0)
(-4.16559 -0.805551 0)
(-3.11902 1.67576 0)
(-8.10234 -2.57373 0)
(-4.67847 -1.17323 0)
(-3.14687 1.20552 0)
(-1.54562 -1.99237 0)
(-3.09108 3.99243 0)
(-3.44888 1.3047 0)
(2.03282 2.94844 0)
(-0.480554 1.58935 0)
(-3.30609 3.28645 0)
(2.82972 -1.06708 0)
(-2.81424 2.6072 0)
(-1.87882 1.44108 0)
(1.04152 0.997187 0)
(5.46195 -0.921363 0)
(-1.48085 -1.97964 0)
(-1.43277 0.209995 0)
(5.02992 0.192547 0)
(-6.35076 0.282798 0)
(1.53016 0.684848 0)
(-4.9554 -0.350483 0)
(0.513868 -0.528202 0)
(-4.31337 -2.27748 0)
(4.00909 0.808247 0)
(-2.30781 -1.26935 0)
(2.39414 -2.19945 0)
(-3.95725 -2.04176 0)
(4.35562 -0.083966 0)
(1.95436 -2.50832 0)
(-1.85013 -4.02045 0)
(7.82134 -1.19854 0)
(10.6502 0.848066 0)
(14.1655 -1.55961 0)
(0.53583 -0.902033 0)
(6.19534 0.403861 0)
(16.5478 0.666705 0)
(-0.791918 1.19346 0)
(-0.55859 2.7668 0)
(-2.70945 0.848781 0)
(-2.74819 1.79561 0)
(1.15543 -0.815004 0)
(-1.53167 -1.41479 0)
(-1.54519 -1.78388 0)
(-1.54541 -1.82358 0)
(0.702771 -0.867481 0)
(-4.16353 1.16421 0)
(-0.815391 -2.34477 0)
(-0.470328 1.68423 0)
(4.781 -2.9511 0)
(4.63874 -1.41686 0)
(-0.616976 -0.0362362 0)
(-2.98095 1.77846 0)
(2.50674 0.958626 0)
(1.69918 -1.00854 0)
(-2.13284 -2.04148 0)
(6.95934 0.651923 0)
(5.09138 -0.14151 0)
(8.76616 0.154211 0)
(0.020973 0.570102 0)
(9.01184 0.822483 0)
(0.322252 -0.543805 0)
(9.64908 1.09816 0)
(2.90961 0.767778 0)
(8.95959 -0.855238 0)
(1.30422 -2.15566 0)
(6.98786 -2.18316 0)
(6.91764 0.0412532 0)
(7.04802 -0.561493 0)
(-2.34229 -4.02427 0)
(3.28382 1.70805 0)
(2.79685 1.08712 0)
(4.50157 0.598037 0)
(6.95958 -0.979368 0)
(8.61288 1.83293 0)
(-0.306024 0.409747 0)
(-2.68965 3.34903 0)
(-2.87821 3.47321 0)
(-0.600673 -0.0924026 0)
(-2.04098 1.66505 0)
(-4.98296 -2.2686 0)
(0.187743 -1.14089 0)
(-3.84772 0.928097 0)
(-0.546693 -1.89453 0)
(-3.67709 3.40105 0)
(-4.99898 1.15354 0)
(3.65972 2.41991 0)
(-0.132587 1.22568 0)
(-2.49368 3.30695 0)
(5.29382 -1.03227 0)
(-2.41727 2.66609 0)
(-3.35661 1.77368 0)
(3.22502 0.807547 0)
(4.55918 -1.09347 0)
(-2.37684 -2.28496 0)
(-3.25397 -0.107802 0)
(4.12315 0.354682 0)
(-7.64854 -0.239492 0)
(0.51051 0.849188 0)
(-6.36324 -0.720469 0)
(-2.9932 -0.625432 0)
(-6.54997 -2.79671 0)
(4.73572 0.779637 0)
(-0.762078 -1.38106 0)
(-0.515483 -2.52323 0)
(-1.90137 -1.69756 0)
(5.68084 0.113606 0)
(-6.60262 -2.70509 0)
(-3.13275 -3.72571 0)
(7.65323 -2.05986 0)
(-13.7303 0.181768 0)
(3.5794 -0.44611 0)
(4.80246 -0.720649 0)
(-12.8373 2.70667 0)
(-10.9286 1.43579 0)
(-2.52903 1.4657 0)
(-3.60581 2.82894 0)
(-0.21649 0.330369 0)
(-1.67034 1.52051 0)
(3.85766 -0.984988 0)
(2.9303 -1.39553 0)
(-1.29622 -1.5721 0)
(-1.1125 -1.57241 0)
(0.444327 -0.655461 0)
(-7.79434 1.04476 0)
(-0.294001 -1.83179 0)
(0.282912 1.27183 0)
(5.16033 -2.41914 0)
(7.23773 -1.37317 0)
(-0.227249 0.0293537 0)
(-4.489 2.11041 0)
(4.48755 0.793345 0)
(0.288756 -1.26896 0)
(-2.91963 -2.25723 0)
(6.16444 0.835409 0)
(-0.464015 -0.0184663 0)
(6.1713 0.420619 0)
(3.52161 0.848753 0)
(7.52962 1.08711 0)
(-4.81773 -0.711696 0)
(9.47166 1.63589 0)
(2.4805 0.656304 0)
(6.16516 -0.828323 0)
(-2.98185 -2.31324 0)
(4.68192 -1.73295 0)
(7.70644 0.207802 0)
(-10.3103 -0.00973215 0)
(-3.1681 -2.77359 0)
(-14.8348 1.41159 0)
(-18.7571 0.469107 0)
(-9.27268 0.303207 0)
(-1.84209 -1.07389 0)
(-2.39779 1.67916 0)
(-12.3181 1.00611 0)
(-3.13384 3.3543 0)
(-5.18885 2.87495 0)
(2.55869 0.186275 0)
(-3.27425 1.16473 0)
(-2.97666 -1.47672 0)
(1.86783 -1.04957 0)
(-6.92301 1.06817 0)
(0.399612 -1.32577 0)
(-5.91204 2.61168 0)
(-7.51559 0.981574 0)
(5.59513 1.36587 0)
(-0.299342 0.552628 0)
(-1.63005 2.96764 0)
(5.75793 -0.921592 0)
(-2.25661 2.75435 0)
(-4.50849 2.14956 0)
(4.69719 0.652307 0)
(-0.554759 -0.613668 0)
(-3.46776 -2.17594 0)
(-5.05447 0.573694 0)
(-0.951823 0.267298 0)
(-6.38539 -0.135521 0)
(3.26974 0.933276 0)
(-10.1265 -1.49564 0)
(-3.03804 -0.474112 0)
(-11.3349 -3.68755 0)
(-0.347014 0.733047 0)
(-1.01054 -1.25755 0)
(-4.81026 -2.96892 0)
(-0.332341 -0.822189 0)
(8.84194 0.164731 0)
(-11.6009 -2.04126 0)
(-2.80485 -2.05795 0)
(-3.27047 -1.23593 0)
(-20.4619 -0.0599349 0)
(-5.18354 0.223338 0)
(-2.39839 -0.952391 0)
(-15.6306 2.30593 0)
(-15.7812 1.65905 0)
(-5.7919 0.555507 0)
(-3.5695 2.26003 0)
(-2.85653 -0.187335 0)
(-4.09973 0.981269 0)
(4.14491 -1.34194 0)
(-0.211464 -1.48716 0)
(0.89157 -1.41293 0)
(-0.453757 -1.12243 0)
(0.481946 -0.448246 0)
(-9.15256 1.00718 0)
(-2.92757 -1.2377 0)
(-1.21926 0.765723 0)
(3.67904 -1.59004 0)
(6.58895 -1.33451 0)
(-0.023087 0.126497 0)
(-5.71258 2.38095 0)
(5.81825 0.650864 0)
(-0.676206 -1.60384 0)
(-4.14722 -2.08693 0)
(5.36477 0.268302 0)
(-3.96444 -0.116346 0)
(8.0274 0.784689 0)
(2.53867 0.76418 0)
(5.9736 1.76678 0)
(-6.41226 -0.343681 0)
(4.77907 1.15017 0)
(-0.0224012 0.80891 0)
(5.59845 -1.53996 0)
(-4.31077 -3.02095 0)
(5.70447 -0.779413 0)
(8.69929 0.157998 0)
(-11.4078 -0.0131886 0)
(0.248486 -0.971198 0)
(-17.1161 -0.0428369 0)
(-18.3811 0.302587 0)
(-13.3971 0.164596 0)
(-5.72136 -1.18857 0)
(-4.20422 1.40959 0)
(-14.2334 1.08449 0)
(-2.43346 2.92294 0)
(-3.52624 2.14936 0)
(-0.334667 0.172627 0)
(-6.15268 0.850094 0)
(-6.25234 -0.357771 0)
(-1.13841 -1.1173 0)
(-8.77773 1.28909 0)
(-3.87785 -0.964595 0)
(-8.13277 1.24397 0)
(-9.33983 0.966866 0)
(4.94777 0.105631 0)
(-0.86153 -0.0518107 0)
(-1.98991 2.52662 0)
(4.84374 -0.9009 0)
(-2.33024 2.83137 0)
(-5.80995 2.40222 0)
(5.76294 0.505224 0)
(-4.14128 -0.282617 0)
(-4.19577 -1.77786 0)
(-8.7438 0.810925 0)
(-5.2129 0.175948 0)
(-10.5276 -0.3064 0)
(0.817456 0.877465 0)
(-13.2705 -1.32156 0)
(-6.43164 -0.169491 0)
(-10.3299 -3.30572 0)
(2.62278 0.622165 0)
(-0.703173 -1.40985 0)
(-5.47659 -3.63232 0)
(1.42302 1.082 0)
(11.3741 0.022969 0)
(-5.59883 0.150206 0)
(-0.660677 -0.525258 0)
(-4.76089 -0.897067 0)
(-16.6966 0.249372 0)
(-7.01468 0.205308 0)
(-6.07244 -1.04544 0)
(-14.0335 2.14023 0)
(-15.3694 1.52317 0)
(-7.86417 -0.122407 0)
(-1.44234 1.76377 0)
(-5.85291 -0.884883 0)
(-6.3675 0.724391 0)
(-0.462939 -2.70033 0)
(-1.44334 -1.45418 0)
(-2.19382 -1.37721 0)
(1.57036 -0.856415 0)
(0.829949 0.62016 0)
(-13.0073 0.777881 0)
(-4.40893 -0.575295 0)
(-1.9545 0.275619 0)
(1.82013 -0.961657 0)
(3.83769 -1.29022 0)
(-0.179911 0.120468 0)
(-6.51944 2.52722 0)
(6.81625 0.49398 0)
(-1.64416 -1.47586 0)
(-5.28652 -1.62738 0)
(2.50164 -0.331301 0)
(-2.4039 -0.0873398 0)
(6.41953 0.497096 0)
(0.982062 0.62865 0)
(8.25761 1.46901 0)
(-2.62011 -0.286224 0)
(6.38265 -0.0624207 0)
(4.18448 0.74124 0)
(6.93364 -3.2605 0)
(-4.01404 -3.66731 0)
(6.99019 -3.87308 0)
(0.886263 0.019378 0)
(-10.4376 -1.58321 0)
(-8.76642 0.581538 0)
(-15.8894 0.28361 0)
(-13.4046 0.595596 0)
(-14.9588 0.0635853 0)
(-4.68607 -1.10453 0)
(-3.34225 0.782451 0)
(-11.2533 0.797128 0)
(-0.670543 2.44149 0)
(-0.344013 1.59679 0)
(-0.874154 0.151653 0)
(-5.93273 0.737117 0)
(-1.28145 1.03217 0)
(-0.40825 -1.42872 0)
(-6.66254 1.54459 0)
(-6.16704 -0.520097 0)
(-12.7743 -0.195636 0)
(-12.4587 1.15986 0)
(2.92333 -0.771914 0)
(-10.7312 -0.705481 0)
(-3.75921 2.20367 0)
(2.62605 -0.872558 0)
(-1.97478 2.82654 0)
(-7.28529 2.41569 0)
(6.84997 0.370556 0)
(-2.01343 -0.0216402 0)
(-5.34748 -1.45345 0)
(-5.78769 1.46793 0)
(-0.234649 0.152354 0)
(-6.27371 0.146415 0)
(1.32027 0.659516 0)
(-8.40475 -0.657356 0)
(-1.46931 -0.150888 0)
(-7.33847 -2.11903 0)
(3.62617 0.673523 0)
(-10.0457 0.612087 0)
(-3.33945 -3.49538 0)
(-16.1046 5.35669 0)
(-7.97407 0.404161 0)
(-11.1711 3.5249 0)
(-6.35659 0.268223 0)
(-0.460207 -0.151665 0)
(1.83364 -0.0846231 0)
(-1.43989 -0.0318844 0)
(-1.13233 -1.04232 0)
(-8.89883 2.11731 0)
(-11.1438 1.26331 0)
(-6.44894 -0.0125829 0)
(-0.241432 1.44367 0)
(-4.43581 -0.884593 0)
(-7.41575 0.611296 0)
(-7.24205 -3.1436 0)
(1.56517 -1.25333 0)
(-9.1939 -0.661686 0)
(-1.41316 -0.398107 0)
(-7.75371 1.34465 0)
(-6.84438 1.06985 0)
(-13.6836 -0.830058 0)
(-8.78474 -0.334863 0)
(-0.321883 -1.06582 0)
(-4.04786 -1.70767 0)
(-0.906299 0.0232573 0)
(-7.56661 2.45222 0)
(7.54735 0.313913 0)
(0.850399 -1.33946 0)
(-6.30487 -1.46139 0)
(5.19349 -0.893662 0)
(1.56698 -0.123462 0)
(8.00286 0.28486 0)
(-0.855536 0.4811 0)
(8.61395 0.88257 0)
(-0.58745 -0.189697 0)
(6.47687 -1.22065 0)
(3.87176 0.809245 0)
(-1.59999 -2.85912 0)
(-2.67977 -2.98244 0)
(1.38833 -3.26483 0)
(-5.53832 0.214381 0)
(7.28314 -3.69482 0)
(-2.53749 -0.106139 0)
(2.72897 -1.38625 0)
(2.07298 0.2046 0)
(-11.2883 0.375741 0)
(-10.4783 -0.152114 0)
(-3.14277 0.0428599 0)
(-10.3851 0.754213 0)
(-2.14013 1.78276 0)
(1.07742 1.38101 0)
(-0.71496 -0.152226 0)
(-4.51289 0.522223 0)
(5.72816 0.668096 0)
(0.826419 -1.65603 0)
(3.78137 0.851729 0)
(2.67628 -0.276433 0)
(-5.57103 -0.594606 0)
(-16.3058 1.65438 0)
(-1.23849 -0.872736 0)
(-5.90216 -0.605647 0)
(-10.8275 2.19254 0)
(-5.10061 -1.10835 0)
(-1.56344 2.59137 0)
(-7.7251 1.87322 0)
(7.43868 0.216197 0)
(-0.980234 -0.133552 0)
(-6.29538 -1.35307 0)
(-5.87369 1.47586 0)
(3.30731 0.187309 0)
(-7.51125 0.0230129 0)
(-2.18687 0.585098 0)
(-7.3742 0.0673509 0)
(-1.36163 -0.198402 0)
(-6.44248 -0.548603 0)
(3.17225 0.750075 0)
(-7.24438 -0.0917137 0)
(-1.96064 -2.93152 0)
(-9.06082 3.1514 0)
(-7.72464 0.329738 0)
(-7.01632 3.77379 0)
(-3.14779 -0.23598 0)
(-10.3877 1.15915 0)
(-1.47594 0.418707 0)
(-9.79124 -0.17991 0)
(-2.40471 -0.189994 0)
(-6.85586 2.20965 0)
(-9.68643 0.570752 0)
(-2.40237 0.445679 0)
(2.57719 1.10267 0)
(-2.45852 -0.594719 0)
(-5.90657 0.525732 0)
(-3.9354 -1.23373 0)
(-0.445869 -1.56372 0)
(-14.4871 1.39238 0)
(-4.68763 0.383046 0)
(-15.1458 1.22647 0)
(-11.9299 1.69555 0)
(-11.4253 -1.2978 0)
(-7.86986 -0.838175 0)
(-1.53372 -1.57919 0)
(-7.66578 -1.72658 0)
(-1.28013 -0.206943 0)
(-8.13734 1.85737 0)
(8.54282 0.136189 0)
(2.58165 -1.44257 0)
(-5.94022 -1.47096 0)
(5.74849 -0.837406 0)
(2.36926 -0.0138072 0)
(5.74685 0.357688 0)
(-1.75193 0.585203 0)
(7.2801 0.0221168 0)
(-0.350023 -0.295775 0)
(6.47529 -1.79085 0)
(3.83381 0.801187 0)
(-3.28491 -2.09547 0)
(-1.23148 -2.31167 0)
(-0.689705 -2.61788 0)
(-4.05067 0.164924 0)
(2.67396 -3.34126 0)
(0.0589645 -0.449596 0)
(6.95024 -1.0613 0)
(0.522981 0.147131 0)
(-2.56063 0.580635 0)
(0.649158 0.414017 0)
(-0.859922 -0.344383 0)
(-9.81536 0.464457 0)
(-2.1552 1.38122 0)
(1.40888 1.18362 0)
(-3.48406 -0.457307 0)
(-5.26259 0.608786 0)
(-2.99292 -1.17682 0)
(-3.90091 -1.59442 0)
(0.81896 -0.458195 0)
(-9.37644 0.144803 0)
(-3.77917 -0.516119 0)
(-7.96275 1.98293 0)
(-5.49036 -1.04457 0)
(-2.95761 -0.731226 0)
(-13.8017 1.83943 0)
(-8.36342 -1.20712 0)
(-1.01431 1.72918 0)
(-7.11486 1.05815 0)
(8.45999 0.0727949 0)
(-1.55833 0.160268 0)
(-5.3671 -1.32593 0)
(-6.12814 1.59712 0)
(1.49911 0.27641 0)
(-6.15455 0.0186239 0)
(-0.511254 0.58688 0)
(-5.66796 0.821122 0)
(-1.21641 -0.326677 0)
(-5.07617 0.355525 0)
(2.25413 0.763605 0)
(-3.02154 -0.790729 0)
(-0.657041 -2.44215 0)
(-1.8114 1.60652 0)
(-1.34168 0.0880713 0)
(-2.23114 3.18521 0)
(-0.743933 -0.422939 0)
(-5.23743 1.7785 0)
(0.0750643 0.338052 0)
(-7.14263 0.019593 0)
(-4.13508 0.535012 0)
(-8.04897 1.88331 0)
(-10.8573 0.521104 0)
(-2.76472 0.298655 0)
(3.17448 0.853356 0)
(-5.57307 -0.0998713 0)
(-6.8713 0.784308 0)
(-11.8805 0.318703 0)
(-3.1867 -1.2002 0)
(-15.3566 2.56682 0)
(-11.9708 0.362061 0)
(-6.57491 1.50812 0)
(-5.81804 1.43408 0)
(-7.29511 -1.24055 0)
(-1.16189 -0.686214 0)
(-1.10172 -1.89134 0)
(-7.28514 -1.5942 0)
(-0.924505 0.15585 0)
(-8.35568 1.04708 0)
(10.8867 0.0150134 0)
(2.5966 -1.49374 0)
(-4.26711 -1.44477 0)
(6.35519 -0.934161 0)
(-1.61874 0.0377135 0)
(5.98001 0.094743 0)
(1.10769 0.610708 0)
(4.90092 -0.721389 0)
(-2.61985 -0.258148 0)
(5.47745 -2.13006 0)
(3.07141 0.726992 0)
(-0.168097 -1.4922 0)
(0.206784 -2.08362 0)
(1.67384 -1.71007 0)
(-0.772674 -0.0289049 0)
(0.75527 -2.7579 0)
(-1.45557 -0.364603 0)
(1.95658 -0.455806 0)
(-0.0664416 0.261759 0)
(-8.62338 1.32885 0)
(-3.20891 1.20692 0)
(-0.0966201 -0.388224 0)
(-8.27677 -0.0118189 0)
(-1.96238 1.48391 0)
(0.865634 0.969965 0)
(-4.35487 -0.346767 0)
(-2.94903 0.933839 0)
(-5.14239 -0.220752 0)
(-3.84674 -1.15098 0)
(0.874551 0.521945 0)
(11.3213 -0.0139985 0)
(-0.333347 -0.817449 0)
(-3.50084 1.50957 0)
(-2.68067 -1.0875 0)
(2.3615 -0.539507 0)
(-13.8638 1.57628 0)
(-5.92462 -0.895261 0)
(-0.571755 0.358749 0)
(-3.73035 0.216325 0)
(8.09522 -0.0207215 0)
(-3.22655 0.54756 0)
(-2.88087 -1.19379 0)
(-7.18465 1.81749 0)
(-4.22303 0.289083 0)
(-6.42611 0.531321 0)
(3.03643 0.562535 0)
(-6.07915 1.56934 0)
(-1.59341 -0.280183 0)
(-3.39964 0.653283 0)
(4.4533 0.556825 0)
(-1.77458 -0.811072 0)
(0.959531 -2.18682 0)
(-1.40923 0.949681 0)
(-4.99118 -0.0521069 0)
(-3.59975 2.0675 0)
(-2.79116 -0.225488 0)
(-4.30384 1.48953 0)
(-0.724837 0.306474 0)
(-3.73696 -0.486978 0)
(-3.86729 1.17092 0)
(-7.90238 1.27904 0)
(-8.10317 0.24852 0)
(-0.982501 0.204605 0)
(2.23683 0.537473 0)
(-2.18133 -0.45452 0)
(-3.67195 1.00877 0)
(10.4943 -2.02091 0)
(-0.0959736 -1.94321 0)
(10.4201 0.430154 0)
(9.78173 -0.00936401 0)
(-0.875657 1.8068 0)
(-0.574373 2.21555 0)
(-2.55988 -0.723922 0)
(10.1288 -0.434243 0)
(5.01494 -2.32745 0)
(-1.31937 -1.36869 0)
(0.543262 0.610593 0)
(-4.41018 0.495805 0)
(10.3641 0.0132323 0)
(1.93098 -1.50905 0)
(-2.85168 -1.27036 0)
(6.16331 -1.21659 0)
(-1.77733 0.0203007 0)
(8.18687 -0.388392 0)
(3.28939 0.434024 0)
(7.56404 -1.24559 0)
(0.754266 -0.240629 0)
(7.56736 -2.21529 0)
(5.38624 0.556615 0)
(-3.73724 -1.39302 0)
(1.13631 -1.4689 0)
(-3.38235 -0.939731 0)
(-11.2386 -0.0746453 0)
(-1.55891 -1.45934 0)
(-2.94276 -0.34129 0)
(0.571946 0.238715 0)
(-3.79909 0.171148 0)
(-8.96188 2.3863 0)
(-3.34966 1.77639 0)
(1.22018 -0.185568 0)
(-3.76279 -0.387859 0)
(-1.3412 1.46172 0)
(-4.63959 0.697559 0)
(-1.16355 -0.333846 0)
(-0.679798 0.997663 0)
(-2.79564 -0.692668 0)
(-0.822408 -1.8412 0)
(1.55441 0.456796 0)
(-5.53232 -0.281242 0)