/*--------------------------------*- C++ -*----------------------------------*\
  =========                 |
  \\      /  F ield         | OpenFOAM: The Open Source CFD Toolbox
   \\    /   O peration     | Website:  https://openfoam.org
    \\  /    A nd           | Version:  6
     \\/     M anipulation  |
\*---------------------------------------------------------------------------*/
FoamFile
{
    version     2.0;
    format      ascii;
    class       volScalarField;
    location    "2.34";
    object      p;
}
// * * * * * * * * * * * * * * * * * * * * * * * * * * * * * * * * * * * * * //

dimensions      [0 2 -2 0 0 0 0];

internalField   nonuniform List<scalar> 
4214
(
-0.255337
-0.241846
-0.193393
-0.146
-0.121798
-0.107869
-0.096621
-0.0864097
-0.0749289
-0.0622027
-0.048187
-0.0331608
-0.0175724
-0.00231307
0.00997337
0.017355
0.0255417
0.0361988
0.05161
0.0867348
0.138009
0.134215
0.0990682
0.0712731
0.0513368
0.0311495
0.0168503
0.00533798
-0.00340044
-0.00912574
-0.0141005
-0.0183684
-0.023293
-0.028691
-0.0351037
-0.043249
-0.0535951
-0.0733675
-0.127398
-0.201156
-0.22783
-0.250373
-0.267877
-0.262452
-0.226647
-0.201142
-0.183762
-0.167114
-0.148698
-0.127678
-0.10367
-0.0765863
-0.0464929
-0.0138836
0.0199898
0.0560909
0.0882221
0.12194
0.155474
0.191738
0.207908
0.214508
0.190091
0.150975
0.12837
0.0796658
0.0407628
0.0147667
-0.00509058
-0.0203441
-0.0313396
-0.0408671
-0.0492707
-0.0581901
-0.0671531
-0.0765899
-0.0871962
-0.101126
-0.1253
-0.172561
-0.19023
-0.13764
-0.433245
-0.425947
-0.413149
-0.379234
-0.350116
-0.324159
-0.297051
-0.26707
-0.233023
-0.194002
-0.14951
-0.0995594
-0.0450007
0.0136581
0.0737776
0.137419
0.195394
0.246803
0.316903
0.342424
0.348974
0.34331
0.261518
0.206423
0.136712
0.0739418
0.0269255
-0.00869154
-0.0347507
-0.054945
-0.0710654
-0.0850597
-0.098927
-0.113272
-0.129056
-0.147509
-0.170254
-0.203476
-0.251643
-0.268701
-0.261233
-0.587259
-0.566224
-0.542209
-0.511182
-0.48217
-0.452034
-0.418596
-0.380463
-0.336311
-0.284936
-0.225488
-0.15786
-0.0828258
-0.000954619
0.0828356
0.176697
0.267281
0.348698
0.433033
0.469886
0.478685
0.488715
0.364437
0.275918
0.183602
0.0985036
0.0323664
-0.0169639
-0.0528979
-0.0806572
-0.102647
-0.121453
-0.139377
-0.157752
-0.177993
-0.201583
-0.230152
-0.268167
-0.317309
-0.345817
-0.361894
-0.731927
-0.711735
-0.682591
-0.653608
-0.624187
-0.59135
-0.553267
-0.508536
-0.455618
-0.392938
-0.319228
-0.23402
-0.137927
-0.0314636
0.080059
0.199675
0.323985
0.449574
0.544082
0.594785
0.609327
0.611182
0.47377
0.345456
0.229552
0.122073
0.0365836
-0.0266888
-0.0729616
-0.108633
-0.136613
-0.160131
-0.18195
-0.204042
-0.228262
-0.256317
-0.28986
-0.332198
-0.383363
-0.424685
-0.451048
-0.862048
-0.850069
-0.822942
-0.797339
-0.769417
-0.736302
-0.696105
-0.647253
-0.587842
-0.515823
-0.429498
-0.32771
-0.210955
-0.0794814
0.0581389
0.209251
0.361641
0.537071
0.660841
0.721088
0.740334
0.708054
0.57625
0.409329
0.269994
0.141676
0.0395636
-0.0388048
-0.0956065
-0.139237
-0.173175
-0.201255
-0.226745
-0.252144
-0.279696
-0.311285
-0.348631
-0.394415
-0.447674
-0.4994
-0.53409
-0.992635
-0.988554
-0.967982
-0.947745
-0.922842
-0.89108
-0.850561
-0.799585
-0.735755
-0.656433
-0.559267
-0.441906
-0.305878
-0.149468
0.0166262
0.205835
0.393594
0.610186
0.775069
0.850038
0.876457
0.826156
0.676968
0.481173
0.30681
0.15906
0.0389952
-0.053411
-0.121116
-0.172839
-0.212839
-0.245521
-0.274618
-0.303121
-0.333631
-0.368195
-0.408601
-0.45719
-0.512696
-0.572131
-0.61399
-1.14526
-1.14019
-1.12336
-1.10662
-1.08504
-1.05586
-1.01654
-0.96519
-0.899055
-0.81507
-0.709567
-0.578688
-0.425471
-0.241706
-0.053599
0.17365
0.41043
0.672802
0.893552
0.981871
1.01858
0.958257
0.781009
0.543705
0.342447
0.172832
0.0341687
-0.0711657
-0.150007
-0.209967
-0.25615
-0.293557
-0.326284
-0.357767
-0.390971
-0.428089
-0.470991
-0.52186
-0.579751
-0.644604
-0.692287
-1.29601
-1.29354
-1.28307
-1.27171
-1.25485
-1.22983
-1.19366
-1.14396
-1.07779
-0.991946
-0.88106
-0.740635
-0.57352
-0.361638
-0.153691
0.14127
0.399388
0.719208
1.00937
1.11707
1.16597
1.08596
0.88801
0.613894
0.373575
0.184975
0.0267623
-0.0926358
-0.182837
-0.251263
-0.303815
-0.346164
-0.382629
-0.417048
-0.452802
-0.492249
-0.537307
-0.59014
-0.650358
-0.719324
-0.771702
-1.44861
-1.45367
-1.45003
-1.44414
-1.43179
-1.41129
-1.38075
-1.33613
-1.27272
-1.18756
-1.07389
-0.929401
-0.754895
-0.518186
-0.288008
0.0705202
0.341428
0.759304
1.11682
1.25856
1.32167
1.21105
0.991616
0.676514
0.402925
0.192926
0.0148415
-0.118988
-0.220567
-0.297581
-0.356698
-0.40425
-0.444592
-0.481963
-0.520225
-0.561932
-0.609011
-0.663678
-0.726155
-0.798296
-0.855225
-1.59605
-1.61229
-1.61773
-1.61964
-1.61509
-1.60196
-1.57798
-1.54108
-1.48288
-1.4036
-1.28953
-1.14466
-0.968045
-0.70944
-0.486335
-0.0685059
0.25616
0.784027
1.21371
1.40617
1.48774
1.32946
1.08115
0.726647
0.424153
0.192441
-0.00490095
-0.152708
-0.265116
-0.350403
-0.416052
-0.469101
-0.513445
-0.553681
-0.594513
-0.638531
-0.687715
-0.744291
-0.809098
-0.883803
-0.945374
-1.74347
-1.76714
-1.78361
-1.79487
-1.80226
-1.80165
-1.78575
-1.75895
-1.70656
-1.63703
-1.52819
-1.38488
-1.21151
-0.940774
-0.733854
-0.238833
0.120133
0.79274
1.29216
1.5349
1.63028
1.43679
1.15549
0.772989
0.429415
0.182685
-0.0356239
-0.197054
-0.319326
-0.412152
-0.484272
-0.54262
-0.591164
-0.634026
-0.677403
-0.723933
-0.775537
-0.834469
-0.902037
-0.979638
-1.0472
-1.90209
-1.94056
-1.95866
-1.97738
-1.99319
-2.00445
-2.0029
-1.98919
-1.94288
-1.888
-1.78653
-1.64659
-1.48893
-1.20882
-0.968462
-0.408465
-0.0219597
0.806049
1.34017
1.60622
1.71613
1.50807
1.21436
0.8167
0.423992
0.160338
-0.0797707
-0.254087
-0.385182
-0.485298
-0.563948
-0.62687
-0.679038
-0.725357
-0.770852
-0.820329
-0.874607
-0.936646
-1.00707
-1.08833
-1.16354
-2.06988
-2.10356
-2.12945
-2.15743
-2.18368
-2.20646
-2.22247
-2.22387
-2.18956
-2.15044
-2.0578
-1.93306
-1.78975
-1.46758
-1.25392
-0.534247
-0.0987367
0.778542
1.3633
1.63331
1.7611
1.51593
1.20722
0.807669
0.385506
0.114407
-0.143022
-0.327718
-0.464956
-0.572293
-0.65612
-0.722639
-0.778062
-0.827893
-0.875509
-0.928029
-0.984717
-1.04919
-1.1213
-1.20462
-1.28579
-2.20649
-2.25041
-2.28972
-2.33057
-2.37044
-2.40779
-2.44035
-2.45512
-2.44678
-2.41244
-2.33733
-2.23287
-2.10439
-1.76754
-1.7326
-0.751895
-0.408218
0.626611
1.45224
1.67515
1.82832
1.47691
1.11376
0.712178
0.275427
0.0193961
-0.24033
-0.432391
-0.571476
-0.681977
-0.768249
-0.835161
-0.893189
-0.944533
-0.995388
-1.04884
-1.10982
-1.17284
-1.24824
-1.32814
-1.41454
-2.32592
-2.38585
-2.44307
-2.50532
-2.56178
-2.61472
-2.66493
-2.69369
-2.72001
-2.66747
-2.63335
-2.52028
-2.41924
-2.22416
-2.43023
-1.19387
-0.933501
0.523815
1.74498
1.76347
1.85079
1.3196
0.876186
0.489773
0.0513067
-0.173578
-0.408811
-0.593961
-0.723387
-0.830219
-0.916953
-0.980928
-1.04241
-1.0904
-1.14893
-1.19944
-1.27538
-1.33381
-1.42602
-1.49562
-1.60584
-2.46663
-2.53681
-2.61533
-2.69315
-2.77564
-2.83702
-2.90894
-2.95227
-3.00453
-2.93302
-2.92929
-2.81272
-2.68613
-2.60965
-2.86034
-1.68729
-1.32519
0.354583
1.94252
1.66658
1.57035
0.966636
0.525786
0.185026
-0.23373
-0.430365
-0.640025
-0.805985
-0.916282
-1.01784
-1.10106
-1.16403
-1.22825
-1.27094
-1.33802
-1.38626
-1.48163
-1.54391
-1.65639
-1.72353
-1.85264
-1.93356
-1.70711
-1.54393
-1.42702
-1.30394
-1.18045
-1.07513
-0.98209
-0.896033
-0.818005
-0.745763
-0.673787
-0.59951
-0.526368
-0.443506
-0.389039
-0.330595
-2.10553
-1.88041
-1.70584
-1.58681
-1.46125
-1.34183
-1.24001
-1.14797
-1.06211
-0.982376
-0.906657
-0.831573
-0.755558
-0.682164
-0.599268
-0.531869
-0.40941
-2.19248
-2.00636
-1.86659
-1.75494
-1.63735
-1.52294
-1.41972
-1.32487
-1.2366
-1.15472
-1.0781
-1.00358
-0.928201
-0.855173
-0.771925
-0.698866
-0.572424
-2.38182
-2.20022
-2.03204
-1.92401
-1.8172
-1.70703
-1.60637
-1.51437
-1.428
-1.34695
-1.27008
-1.19531
-1.12051
-1.04769
-0.966643
-0.892243
-0.775941
-2.46959
-2.30518
-2.18209
-2.08871
-1.99097
-1.89222
-1.7998
-1.71255
-1.62962
-1.55153
-1.47692
-1.40422
-1.33229
-1.26233
-1.18532
-1.11401
-1.01377
-2.61566
-2.48765
-2.34343
-2.24804
-2.16456
-2.07742
-1.99331
-1.91343
-1.83685
-1.76388
-1.69366
-1.62524
-1.55793
-1.49234
-1.42313
-1.35738
-1.27148
-2.73048
-2.5985
-2.48967
-2.40521
-2.3249
-2.25003
-2.17889
-2.10906
-2.04138
-1.97606
-1.91263
-1.85084
-1.79026
-1.73118
-1.6712
-1.61333
-1.54147
-2.78332
-2.71958
-2.63055
-2.54235
-2.47155
-2.40927
-2.34807
-2.28893
-2.23224
-2.17686
-2.12257
-2.06947
-2.01764
-1.96724
-1.91675
-1.86855
-1.81135
-2.8452
-2.79727
-2.73883
-2.6705
-2.60647
-2.55069
-2.49829
-2.44883
-2.40228
-2.3576
-2.31401
-2.27097
-2.229
-2.18843
-2.1485
-2.11138
-2.06969
-2.8038
-2.7823
-2.76802
-2.73551
-2.69953
-2.66012
-2.61709
-2.57874
-2.54264
-2.50751
-2.47409
-2.4422
-2.4114
-2.38141
-2.35233
-2.32707
-2.3013
-2.75754
-2.74834
-2.74095
-2.72468
-2.70739
-2.69166
-2.67705
-2.66049
-2.63923
-2.61521
-2.59109
-2.56917
-2.54852
-2.52897
-2.51044
-2.49481
-2.48117
-2.67451
-2.6579
-2.67419
-2.67588
-2.67042
-2.66274
-2.65523
-2.6492
-2.64543
-2.64278
-2.63846
-2.62996
-2.62078
-2.61169
-2.60327
-2.59579
-2.59344
-2.52503
-2.52063
-2.55081
-2.57229
-2.58236
-2.59096
-2.59822
-2.60257
-2.60466
-2.60655
-2.61091
-2.61497
-2.61719
-2.61874
-2.62092
-2.62202
-2.62753
-2.43546
-2.41289
-2.41769
-2.43493
-2.44929
-2.46476
-2.48041
-2.49471
-2.50769
-2.51972
-2.53126
-2.54142
-2.55018
-2.55969
-2.56836
-2.57548
-2.58792
-2.20344
-2.20597
-2.24117
-2.2663
-2.28034
-2.29698
-2.31699
-2.33613
-2.35447
-2.37202
-2.38869
-2.40461
-2.41932
-2.43223
-2.4447
-2.45603
-2.46856
-2.10188
-2.08353
-2.08535
-2.09217
-2.10662
-2.12008
-2.13346
-2.1455
-2.15866
-2.17518
-2.19189
-2.20814
-2.22395
-2.24029
-2.25229
-2.26546
-2.28194
-1.86765
-1.87233
-1.88402
-1.89094
-1.89694
-1.90284
-1.90925
-1.91964
-1.93149
-1.94163
-1.95207
-1.96281
-1.97514
-1.98929
-1.99903
-2.01694
-2.02671
-1.72059
-1.69904
-1.68895
-1.68195
-1.67744
-1.67475
-1.6732
-1.67282
-1.67322
-1.67452
-1.67692
-1.68215
-1.6892
-1.69697
-1.69925
-1.71475
-1.71262
-1.42123
-1.42167
-1.41817
-1.41262
-1.40671
-1.40039
-1.39441
-1.3889
-1.38434
-1.38097
-1.37831
-1.3766
-1.37657
-1.37613
-1.3744
-1.3889
-1.38135
-1.1956
-1.16274
-1.14005
-1.12126
-1.10556
-1.09182
-1.07974
-1.06903
-1.05933
-1.0502
-1.04198
-1.03506
-1.03007
-1.02508
-1.02087
-1.03257
-1.01959
-0.805665
-0.801791
-0.790695
-0.774262
-0.756903
-0.739376
-0.722571
-0.706782
-0.692289
-0.679112
-0.666995
-0.656449
-0.647798
-0.638528
-0.628481
-0.634351
-0.609575
-0.579436
-0.52015
-0.477081
-0.440071
-0.408057
-0.379214
-0.353134
-0.329395
-0.307845
-0.288317
-0.270536
-0.254828
-0.241815
-0.227702
-0.214639
-0.217551
-0.178727
-0.163818
-0.137252
-0.104638
-0.0685896
-0.0334693
0.000202119
0.0318089
0.061364
0.0888653
0.114313
0.13818
0.160543
0.178723
0.199872
0.214582
0.214172
0.266048
0.0796092
0.16577
0.229913
0.284966
0.333321
0.376695
0.416124
0.452577
0.486309
0.517327
0.546971
0.57482
0.598126
0.627546
0.650761
0.653572
0.717174
0.517389
0.558797
0.603932
0.655271
0.704765
0.751582
0.794868
0.835059
0.87222
0.906559
0.939653
0.970486
0.996906
1.03153
1.05877
1.06179
1.13306
0.754278
0.861614
0.939765
1.00555
1.06164
1.11199
1.15751
1.19929
1.23764
1.27306
1.30714
1.33861
1.36613
1.40297
1.42956
1.43128
1.50738
1.18567
1.24189
1.29536
1.35307
1.4066
1.45585
1.50042
1.54111
1.57829
1.61262
1.64573
1.67631
1.7038
1.74046
1.7659
1.77243
1.84921
1.41735
1.53188
1.6122
1.67666
1.73018
1.77703
1.81854
1.85602
1.89009
1.92162
1.95227
1.9808
2.00709
2.04242
2.0673
2.07702
2.15226
1.81923
1.88286
1.93363
1.98606
2.03229
2.0732
2.10918
2.14143
2.17071
2.19801
2.22497
2.25037
2.27455
2.30763
2.33097
2.34232
2.41469
2.04621
2.15022
2.21874
2.26883
2.30825
2.34149
2.37016
2.39571
2.41901
2.44116
2.46361
2.48528
2.50697
2.53709
2.55876
2.57222
2.64
2.39898
2.46032
2.4926
2.52814
2.55638
2.58025
2.60039
2.61835
2.63507
2.65162
2.66919
2.68705
2.70621
2.73305
2.75288
2.7682
2.83084
2.60814
2.68948
2.73316
2.75883
2.77565
2.78845
2.79909
2.80921
2.81952
2.83082
2.84386
2.85826
2.87501
2.89851
2.91718
2.93371
2.99037
2.90449
2.94897
2.9515
2.96009
2.96282
2.96524
2.96773
2.97083
2.97486
2.9815
2.99087
3.00241
3.01663
3.03685
3.05458
3.07201
3.1227
3.09277
3.13033
3.1328
3.12831
3.12192
3.11583
3.11075
3.10757
3.10715
3.1091
3.11392
3.12274
3.13447
3.15155
3.1684
3.18581
3.23081
3.31646
3.31304
3.28924
3.27296
3.2569
3.24297
3.23116
3.22209
3.21644
3.21481
3.21655
3.22185
3.23148
3.24616
3.26183
3.27814
3.31783
3.45616
3.44135
3.41773
3.39267
3.36954
3.34896
3.33127
3.31702
3.30677
3.30107
3.3002
3.30253
3.30983
3.32302
3.33745
3.35248
3.38658
3.59837
3.56932
3.52626
3.49362
3.46389
3.43767
3.41478
3.39582
3.38149
3.37219
3.36815
3.36869
3.37255
3.38384
3.39646
3.41
3.43843
3.69144
3.65568
3.61491
3.57713
3.54259
3.51143
3.48387
3.46089
3.44346
3.4315
3.42496
3.42351
3.4254
3.4328
3.44185
3.45218
3.47408
3.79324
3.74198
3.68925
3.64547
3.6054
3.56976
3.53846
3.51221
3.49218
3.47888
3.47089
3.46797
3.46886
3.47204
3.4774
3.4855
3.49984
3.8672
3.8055
3.7497
3.69976
3.65528
3.61585
3.58123
3.55192
3.52885
3.51302
3.50289
3.49764
3.49625
3.49699
3.49899
3.50697
3.5195
2.70425
3.06675
3.49123
3.83376
4.20952
4.48342
4.73676
4.91507
5.0376
5.12962
5.14124
5.14624
5.02176
4.98182
4.86337
4.81355
4.71943
4.67377
4.60014
4.561
4.50621
4.47418
4.42747
4.39784
4.35805
4.33191
4.30001
4.27722
4.25275
4.23326
4.215
4.19629
4.17901
4.15979
4.1411
4.11947
4.09488
4.06632
4.03019
3.9884
3.9332
2.73936
3.1003
3.43342
3.74959
4.04249
4.30566
4.51688
4.68239
4.79826
4.88249
4.92165
4.92261
4.85979
4.80433
4.73334
4.67526
4.61356
4.56067
4.50899
4.46595
4.42694
4.39246
4.35824
4.32642
4.29617
4.26777
4.24156
4.21765
4.19632
4.17675
4.1583
4.14084
4.1225
4.10314
4.082
4.05899
4.0323
4.00161
3.96435
3.9209
3.86586
2.79671
3.08812
3.37637
3.64622
3.89545
4.12288
4.31336
4.46575
4.5764
4.65755
4.70777
4.72344
4.70124
4.65815
4.60865
4.55966
4.51104
4.46582
4.42506
4.38751
4.35521
4.3247
4.29567
4.26678
4.23927
4.21266
4.18895
4.16733
4.14765
4.12918
4.11141
4.09376
4.07563
4.05566
4.03293
4.0075
3.97846
3.94562
3.90599
3.86201
3.80426
2.84738
3.08449
3.3264
3.55635
3.77046
3.96604
4.13694
4.2775
4.38518
4.46067
4.51446
4.54277
4.54616
4.52668
4.49398
4.45742
4.41982
4.38312
4.35023
4.32009
4.29271
4.26658
4.24107
4.21469
4.18937
4.16587
4.14449
4.12483
4.10645
4.08876
4.07118
4.05318
4.03421
4.01373
3.99065
3.96365
3.93263
3.89737
3.85619
3.81044
3.75213
2.88969
3.08064
3.27988
3.47317
3.6616
3.83233
3.98395
4.11352
4.21728
4.29424
4.34701
4.38266
4.39965
4.39981
4.38707
4.36465
4.33839
4.31065
4.2841
4.25995
4.23745
4.21539
4.19242
4.16882
4.14658
4.12596
4.10691
4.08911
4.07199
4.05489
4.0372
4.01845
3.99831
3.97639
3.95204
3.92465
3.89245
3.8554
3.81227
3.7651
3.70553
2.92737
3.07948
3.24131
3.40375
3.56705
3.71971
3.85513
3.97349
4.07271
4.15066
4.20753
4.24552
4.27052
4.28235
4.28287
4.27674
4.26314
4.24576
4.2265
4.20702
4.18843
4.16983
4.14955
4.12951
4.11038
4.09259
4.07582
4.0596
4.04323
4.02612
4.0079
3.98828
3.96694
3.94346
3.91733
3.88797
3.85473
3.81686
3.77245
3.72413
3.66399
2.95892
3.07944
3.20933
3.34484
3.486
3.62341
3.74736
3.85596
3.94964
4.0272
4.08772
4.13189
4.1609
4.18018
4.1902
4.19299
4.19014
4.18393
4.17405
4.16091
4.14588
4.12909
4.1123
4.09597
4.07999
4.06485
4.04995
4.03452
4.01813
4.00059
3.98165
3.96096
3.93819
3.91294
3.88482
3.85339
3.81805
3.77854
3.73354
3.68506
3.62611
2.98275
3.07872
3.18281
3.29587
3.41676
3.53835
3.65479
3.75733
3.84607
3.92188
3.98434
4.03326
4.06945
4.0945
4.11047
4.12029
4.12478
4.12524
4.1226
4.11761
4.10828
4.09455
4.08044
4.06768
4.05477
4.04126
4.027
4.01177
3.99523
3.9772
3.95741
3.93554
3.91124
3.8842
3.8541
3.82068
3.78359
3.74286
3.69735
3.64954
3.5926
2.99963
3.07791
3.16231
3.25725
3.36028
3.46685
3.57282
3.67222
3.75869
3.8329
3.89599
3.94809
3.98943
4.02093
4.04379
4.05922
4.06869
4.07435
4.07655
4.07595
4.07294
4.06536
4.05396
4.04401
4.03331
4.02084
4.00665
3.99083
3.97384
3.95513
3.9343
3.91107
3.88516
3.85633
3.82445
3.78944
3.75121
3.70993
3.6649
3.61871
3.56502
3.01485
3.0815
3.15112
3.23081
3.31803
3.41035
3.50479
3.59762
3.68341
3.75775
3.82139
3.87546
3.92043
3.95669
3.98504
4.0064
4.02168
4.03194
4.03779
4.04028
4.04023
4.03793
4.0313
4.02318
4.01358
4.00188
3.98804
3.97209
3.95431
3.93445
3.91227
3.88744
3.8598
3.82926
3.79581
3.75959
3.72077
3.67976
3.6362
3.59267
3.54355
3.03004
3.08898
3.14997
3.21758
3.29104
3.37002
3.4526
3.53616
3.61775
3.69271
3.75782
3.81366
3.86118
3.90097
3.93359
3.95971
3.98001
3.99513
4.00549
4.01158
4.01402
4.01348
4.01141
4.00475
3.9958
3.98434
3.97039
3.95432
3.93584
3.91457
3.8907
3.86413
3.83475
3.80266
3.76803
3.73114
3.69239
3.65236
3.61117
3.57124
3.52772
3.04347
3.09638
3.15137
3.21129
3.27518
3.34326
3.41484
3.48859
3.56265
3.63481
3.70125
3.75936
3.80946
3.85237
3.88872
3.91904
3.94378
3.9633
3.97788
3.98781
3.99364
3.99511
3.99356
3.98869
3.98024
3.96858
3.9539
3.93621
3.91606
3.89341
3.86781
3.83954
3.80864
3.77538
3.74015
3.70342
3.6658
3.62792
3.59022
3.55469
3.51727
3.05375
3.10116
3.15055
3.20495
3.26279
3.3237
3.38727
3.4529
3.51953
3.58588
3.65051
3.71087
3.76426
3.81079
3.85094
3.88516
3.91375
3.93692
3.9549
3.96803
3.97656
3.9802
3.97962
3.97518
3.96686
3.95483
3.93936
3.92025
3.89735
3.87245
3.84482
3.8147
3.78248
3.74848
3.71313
3.67719
3.64143
3.60666
3.57335
3.54253
3.51116
3.06045
3.10298
3.14789
3.1979
3.25159
3.30806
3.36658
3.42682
3.4882
3.54983
3.61081
3.66986
3.72573
3.77604
3.81992
3.85767
3.88952
3.91568
3.93641
3.95196
3.96243
3.9681
3.96841
3.96387
3.95514
3.94252
3.92651
3.90641
3.8824
3.85476
3.82467
3.79254
3.75901
3.7246
3.68966
3.65495
3.62108
3.58888
3.5593
3.53225
3.50714
3.0628
3.09958
3.1406
3.18659
3.2365
3.28932
3.34441
3.40146
3.45986
3.51875
3.57741
3.63488
3.69022
3.74226
3.7894
3.83111
3.86707
3.89713
3.92123
3.93935
3.9517
3.95874
3.95953
3.95462
3.94472
3.93026
3.91192
3.88954
3.8629
3.83306
3.80128
3.76804
3.73389
3.69955
3.66571
3.63292
3.60199
3.57273
3.54697
3.52411
3.50645
3.06643
3.09305
3.12663
3.16569
3.20966
3.25797
3.31037
3.3654
3.42137
3.47809
3.53496
3.59162
3.64738
3.70138
3.75306
3.80067
3.84293
3.87899
3.90812
3.93006
3.94485
3.95251
3.95367
3.94801
3.93654
3.91866
3.89496
3.86718
3.83667
3.80455
3.77121
3.73734
3.70338
3.66981
3.63743
3.60671
3.57925
3.55592
3.53727
3.52301
3.51298
3.07804
3.09342
3.11912
3.15241
3.19157
3.23548
3.28313
3.33385
3.38756
3.44342
3.5006
3.55836
3.61583
3.67235
3.72676
3.77768
3.82399
3.86449
3.89834
3.9246
3.94202
3.95086
3.95231
3.9445
3.93179
3.91258
3.88741
3.85782
3.82525
3.79034
3.75459
3.719
3.68441
3.65143
3.62064
3.5929
3.56849
3.54875
3.53376
3.5245
3.5262
-0.425474
-0.526176
-0.634959
-0.75771
-0.870142
-0.971965
-1.07855
-1.20335
-1.33348
-1.46104
-1.59738
-1.74698
-1.90417
-2.06788
-2.18856
-2.28689
-2.3908
-0.563775
-0.706568
-0.810229
-0.92257
-1.02369
-1.12024
-1.22388
-1.33633
-1.45738
-1.57819
-1.70043
-1.82586
-1.96314
-2.07351
-2.1631
-2.23519
-2.30694
-0.736932
-0.874237
-0.969906
-1.06993
-1.15807
-1.24623
-1.34641
-1.45591
-1.56768
-1.67668
-1.78928
-1.90336
-2.01259
-2.08415
-2.143
-2.20359
-2.27917
-0.91008
-1.03202
-1.1188
-1.20764
-1.28661
-1.36864
-1.45946
-1.55558
-1.65373
-1.74866
-1.84488
-1.95129
-2.02935
-2.0793
-2.12071
-2.16959
-2.23659
-1.07777
-1.18207
-1.25885
-1.33615
-1.40711
-1.48221
-1.56417
-1.64926
-1.73511
-1.81954
-1.90159
-1.98161
-2.03374
-2.06754
-2.09975
-2.13131
-2.17333
-1.23462
-1.32139
-1.38838
-1.45615
-1.51946
-1.58526
-1.65745
-1.7327
-1.80646
-1.87703
-1.95006
-1.99758
-2.02899
-2.05489
-2.07934
-2.10451
-2.14205
-1.37828
-1.44933
-1.50677
-1.56557
-1.6202
-1.67768
-1.74164
-1.80617
-1.8679
-1.92398
-1.97022
-1.99858
-2.0204
-2.04067
-2.05627
-2.07488
-2.10649
-1.50736
-1.56455
-1.61281
-1.66213
-1.7088
-1.76047
-1.81434
-1.86614
-1.91332
-1.95083
-1.97323
-1.99247
-2.00975
-2.02328
-2.03213
-2.04071
-2.05871
-1.62119
-1.66649
-1.70555
-1.74616
-1.78653
-1.82953
-1.87059
-1.90837
-1.93569
-1.95328
-1.96979
-1.98402
-1.99433
-2.00227
-2.00639
-2.01
-2.02991
-1.72015
-1.7545
-1.78507
-1.81634
-1.84888
-1.87959
-1.90652
-1.92508
-1.93732
-1.95081
-1.96223
-1.96932
-1.9739
-1.97625
-1.97556
-1.97451
-1.99324
-1.8001
-1.82408
-1.84688
-1.86919
-1.89065
-1.9058
-1.91577
-1.926
-1.93599
-1.94323
-1.9471
-1.94828
-1.94722
-1.9449
-1.93967
-1.93336
-1.93894
-1.8548
-1.8713
-1.88454
-1.89512
-1.90245
-1.90961
-1.91712
-1.92301
-1.92578
-1.92628
-1.92395
-1.91918
-1.91333
-1.9079
-1.90101
-1.89438
-1.90147
-1.88671
-1.89126
-1.89585
-1.90088
-1.90507
-1.90779
-1.90904
-1.9078
-1.90322
-1.89664
-1.88865
-1.8798
-1.87133
-1.86324
-1.85376
-1.84642
-1.8555
-1.90171
-1.90083
-1.90014
-1.89773
-1.89514
-1.89078
-1.88328
-1.87396
-1.86346
-1.85257
-1.84164
-1.83122
-1.82161
-1.81131
-1.80009
-1.78875
-1.78805
-1.89704
-1.88552
-1.87885
-1.86988
-1.85907
-1.84688
-1.83344
-1.81986
-1.80664
-1.79449
-1.7833
-1.77263
-1.76162
-1.75185
-1.74456
-1.74071
-1.74568
-1.85551
-1.83792
-1.82544
-1.80947
-1.79252
-1.776
-1.76
-1.74551
-1.73238
-1.72114
-1.71082
-1.7004
-1.69156
-1.6851
-1.68272
-1.68239
-1.69052
-1.77215
-1.74747
-1.72964
-1.71182
-1.69286
-1.67706
-1.66342
-1.65264
-1.64363
-1.63282
-1.62347
-1.6174
-1.61365
-1.6118
-1.6107
-1.60971
-1.60903
-1.63388
-1.61237
-1.59097
-1.57939
-1.56532
-1.55456
-1.54632
-1.53694
-1.52992
-1.52615
-1.52454
-1.52395
-1.5248
-1.52745
-1.53209
-1.53905
-1.55084
-1.43438
-1.43334
-1.41337
-1.4092
-1.40423
-1.39857
-1.39598
-1.39563
-1.39615
-1.39835
-1.40183
-1.40654
-1.41267
-1.42052
-1.43066
-1.44397
-1.46238
-1.19582
-1.20371
-1.19393
-1.19738
-1.20096
-1.20491
-1.21118
-1.2188
-1.22756
-1.23791
-1.24962
-1.2625
-1.27632
-1.29094
-1.30572
-1.31884
-1.32653
-0.889781
-0.923889
-0.926695
-0.944717
-0.960049
-0.974611
-0.992356
-1.01187
-1.03242
-1.05393
-1.07694
-1.10124
-1.12691
-1.15414
-1.18293
-1.21329
-1.24838
-0.512233
-0.583338
-0.598144
-0.64294
-0.681862
-0.714607
-0.749243
-0.78331
-0.817067
-0.851985
-0.888303
-0.925603
-0.963735
-1.00296
-1.04387
-1.08961
-1.14315
-0.10138
-0.213215
-0.247036
-0.307855
-0.37224
-0.425045
-0.4799
-0.534714
-0.586982
-0.637704
-0.688683
-0.740472
-0.792724
-0.844628
-0.895034
-0.942248
-0.975682
0.329674
0.180125
0.123457
0.0476827
-0.039462
-0.115823
-0.19217
-0.267903
-0.34064
-0.411995
-0.480063
-0.547528
-0.616048
-0.685613
-0.756157
-0.826766
-0.897864
0.757663
0.585617
0.510847
0.412569
0.302774
0.2051
0.107393
0.0104061
-0.0833255
-0.174408
-0.262952
-0.347152
-0.430736
-0.515486
-0.601539
-0.692033
-0.796111
1.14065
0.958304
0.879543
0.772132
0.646664
0.529807
0.412523
0.295407
0.18117
0.0696652
-0.0389426
-0.142414
-0.242337
-0.342372
-0.441209
-0.537459
-0.614552
1.48066
1.29451
1.21351
1.10392
0.971401
0.845576
0.715572
0.581831
0.449107
0.318325
0.190176
0.0664392
-0.050854
-0.168057
-0.287823
-0.409895
-0.526598
1.77599
1.59632
1.51277
1.4038
1.27047
1.14121
1.00507
0.862117
0.716024
0.568972
0.422806
0.279184
0.144883
0.0123946
-0.12369
-0.265849
-0.428875
2.02675
1.85841
1.77692
1.67171
1.54266
1.41471
1.27759
1.13099
0.978001
0.819423
0.657815
0.496268
0.343944
0.195797
0.0462242
-0.104856
-0.238935
2.23823
2.08355
2.00646
1.90816
1.78699
1.6645
1.5314
1.38708
1.23298
1.06814
0.895134
0.717834
0.547344
0.383823
0.217444
0.0410969
-0.13098
2.41584
2.27692
2.20471
2.11473
2.00395
1.89025
1.76573
1.62878
1.47832
1.31279
1.13344
0.943959
0.755881
0.578193
0.397679
0.204763
-0.0173872
2.5637
2.44149
2.37521
2.29409
2.19502
2.09264
1.9798
1.85341
1.71126
1.55045
1.37034
1.17403
0.970662
0.778752
0.586666
0.388666
0.196043
2.6861
2.58088
2.52099
2.44878
2.36181
2.27193
2.17197
2.05891
1.92942
1.77836
1.60286
1.40522
1.19275
0.987888
0.786513
0.569785
0.343274
2.78675
2.6979
2.64471
2.58143
2.5065
2.42873
2.34226
2.24463
2.13143
1.99441
1.82767
1.63411
1.42095
1.20622
0.997429
0.770982
0.506311
2.86851
2.79544
2.74933
2.69491
2.63111
2.56457
2.49159
2.41029
2.31601
2.19588
2.04144
1.85809
1.65324
1.43544
1.2209
1.00597
0.785515
2.93432
2.8766
2.83715
2.79138
2.73801
2.68146
2.62099
2.55592
2.48109
2.37942
2.24147
2.07436
1.88474
1.67731
1.46308
1.24823
0.992894
2.98617
2.94166
2.90876
2.8719
2.82851
2.7815
2.73206
2.68176
2.62512
2.5428
2.4253
2.27977
2.1119
1.92461
1.71857
1.50375
1.23982
3.02335
2.99104
2.96719
2.93985
2.90594
2.86802
2.82794
2.78947
2.74863
2.68583
2.59142
2.47168
2.33081
2.17067
1.98741
1.80606
1.62676
3.04948
3.0304
3.01496
2.99649
2.97236
2.94369
2.91215
2.88234
2.85396
2.81014
2.7403
2.64905
2.53942
2.41346
2.26689
2.11867
1.89448
3.06841
3.05709
3.04795
3.03806
3.02367
3.00477
2.9824
2.95998
2.94138
2.91635
2.87334
2.81388
2.74015
2.65411
2.55144
2.42774
2.23575
-2.64674
-2.83708
-3.02061
-3.18255
-3.24095
-3.11543
-2.53709
-1.72338
-0.611279
0.960247
0.526866
0.0473699
-0.611037
-1.03686
-1.22982
-1.35708
-1.45186
-1.55944
-1.72505
-1.92195
-2.77288
-2.99904
-3.22276
-3.42422
-3.50844
-3.40335
-2.79767
-1.95306
-0.652102
0.201579
-0.355994
-0.61189
-1.01173
-1.35478
-1.49893
-1.59185
-1.6553
-1.73855
-1.87933
-2.05774
-2.9183
-3.1803
-3.44749
-3.6918
-3.80546
-3.73164
-3.07847
-2.07916
-0.825502
-0.80586
-1.53788
-1.53959
-1.57695
-1.78331
-1.84804
-1.89008
-1.90811
-1.9591
-2.05998
-2.2141
-3.08681
-3.3878
-3.70551
-3.99207
-4.14252
-4.10059
-3.36888
-2.24497
-1.10182
-2.00604
-3.0963
-2.86184
-2.34532
-2.35709
-2.29866
-2.27641
-2.23049
-2.24035
-2.29871
-2.40953
-3.28348
-3.63013
-4.00133
-4.33193
-4.53514
-4.51937
-3.70643
-2.47636
-1.56475
-3.39255
-4.98127
-4.62708
-3.4356
-3.12005
-2.87615
-2.76468
-2.64695
-2.59453
-2.613
-2.66506
-3.51627
-3.91559
-4.34375
-4.71893
-4.98811
-4.99291
-4.14725
-2.86312
-2.23871
-4.91677
-7.06619
-6.80098
-4.94067
-4.19905
-3.64423
-3.37771
-3.17665
-3.04566
-3.008
-3.00451
-3.79432
-4.25212
-4.74386
-5.16616
-5.51145
-5.51986
-4.74211
-3.44683
-3.12652
-6.47768
-9.15761
-9.22249
-6.93936
-5.60939
-4.6553
-4.14062
-3.83271
-3.61379
-3.50311
-3.43523
-4.123
-4.65099
-5.21053
-5.69866
-6.1682
-6.14491
-5.5093
-4.2614
-4.25213
-7.93519
-11.2037
-11.7601
-9.38855
-7.23384
-5.97371
-5.11614
-4.63596
-4.31788
-4.11523
-3.97032
-4.51557
-5.12465
-5.75159
-6.34497
-7.04984
-6.98859
-6.48941
-5.42134
-5.63936
-9.23069
-13.0937
-14.1379
-12.04
-9.31638
-7.69591
-6.37945
-5.62107
-5.17882
-4.85542
-4.61477
-4.98397
-5.68693
-6.40235
-7.15387
-8.06855
-8.15025
-7.75691
-7.00468
-7.31393
-10.4608
-14.5594
-16.0645
-14.7172
-11.9038
-9.57925
-7.92124
-6.83667
-6.21378
-5.72296
-5.35842
-5.54183
-6.35333
-7.23534
-8.25957
-9.18908
-9.70379
-9.47516
-9.00052
-9.2577
-11.674
-15.5629
-17.4045
-17.0287
-14.4566
-11.7641
-9.80319
-8.34698
-7.4248
-6.72699
-6.20223
-6.22471
-7.17633
-8.30532
-9.66909
-10.8262
-11.7726
-11.6936
-11.2921
-11.3229
-12.8608
-16.093
-18.1224
-18.4995
-16.796
-14.2056
-11.8491
-10.1488
-8.85077
-7.8864
-7.16209
-7.05861
-8.26114
-9.66994
-11.2606
-13.2424
-14.2435
-14.1651
-13.6765
-13.2839
-13.9565
-16.2404
-18.3376
-19.0216
-18.3065
-16.5099
-14.1938
-12.1029
-10.4963
-9.20658
-8.26318
-7.95859
-9.60183
-11.4168
-13.4942
-15.9301
-16.8471
-16.6529
-15.8909
-14.9818
-14.7897
-15.9807
-17.7046
-18.6916
-18.5225
-17.7086
-16.222
-14.3083
-12.4417
-10.7894
-9.61852
-9.17616
-11.2946
-13.8741
-16.3451
-18.38
-18.9509
-18.4799
-17.4249
-16.2039
-15.2571
-15.4827
-16.5669
-17.7208
-17.8321
-17.4519
-16.7131
-15.6644
-14.3031
-12.7722
-11.2707
-11.4313
-13.9496
-16.7051
-18.6019
-19.6726
-19.7964
-19.1382
-17.9863
-16.5935
-15.2724
-14.9728
-15.2849
-16.099
-16.4894
-16.3732
-15.9747
-15.3531
-14.5803
-13.7886
-12.8537
-14.542
-16.4447
-18.0849
-18.9086
-19.383
-19.4436
-18.7654
-17.6373
-16.2253
-14.8603
-14.2008
-14.0039
-14.2401
-14.6961
-14.8087
-14.6252
-14.2333
-13.6979
-13.2895
-13.0435
-16.8403
-17.0773
-17.5377
-18.0982
-18.4778
-18.4796
-17.7889
-16.7305
-15.4309
-14.1291
-13.2279
-12.8243
-12.7186
-12.8727
-13.1272
-13.1057
-12.8665
-12.4737
-12.0272
-11.7184
-16.7205
-16.3029
-16.6299
-17.1706
-17.4681
-17.3455
-16.6496
-15.6563
-14.4643
-13.2506
-12.286
-11.7392
-11.5246
-11.5113
-11.7521
-11.9588
-11.9987
-11.8906
-11.5692
-11.0621
-16.5026
-15.9743
-16.0334
-16.2129
-16.3153
-16.028
-15.4196
-14.577
-13.5371
-12.4349
-11.466
-10.7465
-10.3487
-10.1789
-10.1366
-10.3643
-10.7641
-11.1307
-11.4066
-11.6836
-12.2249
-9.42566
-10.3792
-11.6283
-11.2844
-10.124
-9.08093
-7.97189
-6.97863
-6.10482
-5.32918
-4.63985
-4.05157
-3.56328
-3.16525
-2.84653
-2.59858
-2.40745
-2.2591
-2.13531
-11.5285
-8.63835
-9.47999
-10.8206
-10.422
-9.4483
-8.54725
-7.61934
-6.75998
-5.99307
-5.31379
-4.72587
-4.20486
-3.75712
-3.38212
-3.07467
-2.82777
-2.63355
-2.4856
-2.36781
-10.967
-8.52583
-8.97172
-9.94457
-9.44503
-8.70503
-7.97485
-7.22212
-6.49583
-5.83769
-5.25495
-4.75088
-4.3198
-3.93422
-3.59548
-3.31009
-3.07491
-2.88285
-2.73299
-2.61245
-10.727
-8.85748
-8.81151
-9.24848
-8.63026
-8.00683
-7.40061
-6.77856
-6.17049
-5.61224
-5.11594
-4.68316
-4.311
-3.9942
-3.71832
-3.47497
-3.26792
-3.09666
-2.95749
-2.83912
-10.528
-9.07003
-8.76048
-8.69319
-7.93354
-7.3622
-6.83387
-6.29881
-5.78488
-5.30896
-4.88377
-4.51118
-4.18751
-3.91214
-3.67802
-3.4659
-3.2792
-3.12782
-3.00199
-2.90117
-10.3093
-9.09814
-8.67758
-8.30264
-7.3591
-6.78664
-6.28435
-5.79768
-5.3446
-4.9293
-4.55807
-4.23152
-3.94585
-3.69761
-3.48612
-3.31163
-3.16479
-3.02999
-2.89774
-2.78095
-10.0924
-9.02734
-8.51815
-7.91951
-6.84873
-6.23819
-5.73629
-5.27549
-4.85964
-4.4855
-4.15377
-3.86247
-3.60839
-3.38685
-3.19346
-3.02415
-2.87504
-2.75349
-2.66361
-2.5464
-9.87869
-8.84119
-8.21403
-7.41378
-6.334
-5.67498
-5.15509
-4.70666
-4.31604
-3.97407
-3.67384
-3.41049
-3.18028
-2.9797
-2.80482
-2.65131
-2.51718
-2.40322
-2.3051
-2.18391
-9.64142
-8.54245
-7.63486
-6.71552
-5.74399
-5.0475
-4.50977
-4.06933
-3.69514
-3.37532
-3.09881
-2.85864
-2.65011
-2.469
-2.3117
-2.17602
-2.05942
-1.95786
-1.86818
-1.78547
-9.33309
-8.20301
-6.86479
-5.89034
-5.00653
-4.31661
-3.77079
-3.33587
-2.97425
-2.67232
-2.41617
-2.19754
-2.01089
-1.85167
-1.7158
-1.60013
-1.49938
-1.41232
-1.34443
-1.29656
-8.92754
-7.99884
-6.23736
-5.05252
-4.17712