/*--------------------------------*- C++ -*----------------------------------*\
  =========                 |
  \\      /  F ield         | OpenFOAM: The Open Source CFD Toolbox
   \\    /   O peration     | Website:  https://openfoam.org
    \\  /    A nd           | Version:  6
     \\/     M anipulation  |
\*---------------------------------------------------------------------------*/
FoamFile
{
    version     2.0;
    format      ascii;
    class       volScalarField;
    location    "2.42";
    object      nut;
}
// * * * * * * * * * * * * * * * * * * * * * * * * * * * * * * * * * * * * * //

dimensions      [0 2 -1 0 0 0 0];

internalField   nonuniform List<scalar> 
4214
(
0.00380176
0.00479651
0.00710266
0.00941105
0.010663
0.0109891
0.0107656
0.0102357
0.00955009
0.00884575
0.00823288
0.00780211
0.00761975
0.00773567
0.00819378
0.00904987
0.0103745
0.012257
0.0146527
0.0172364
0.0198021
0.0207096
0.0168817
0.0126495
0.0100385
0.00874613
0.00827519
0.00828958
0.00859343
0.00907678
0.00966541
0.010293
0.010892
0.0113935
0.011716
0.0117211
0.0111265
0.00953199
0.00701448
0.0047399
0.00377796
0.00446954
0.0064995
0.0087295
0.0102173
0.0108309
0.010856
0.0105038
0.00992147
0.00922627
0.00853161
0.00794635
0.00756089
0.00744079
0.00763678
0.00819519
0.00917585
0.0106706
0.0127881
0.0155357
0.0183597
0.0206971
0.0210906
0.0169744
0.0126759
0.0100389
0.00872207
0.0082263
0.0082119
0.00848557
0.00894111
0.00950628
0.0101188
0.0107184
0.0112441
0.0116317
0.0117939
0.0115643
0.0106564
0.00884028
0.00647664
0.00446205
0.00590195
0.00789174
0.00955801
0.0104247
0.0106662
0.0105105
0.0100909
0.00948626
0.0087932
0.00812556
0.00759193
0.00728127
0.00725529
0.00756244
0.00824937
0.00937797
0.0110406
0.0133906
0.0165393
0.0196257
0.0217101
0.0214291
0.0170121
0.0126623
0.0100225
0.00869527
0.00817786
0.00813448
0.0083769
0.008801
0.00933855
0.0099331
0.0105304
0.0110715
0.0115024
0.0117601
0.0117374
0.0112343
0.00998904
0.00802707
0.00595011
0.00714924
0.00878689
0.00986564
0.0102566
0.0102712
0.0100166
0.00954523
0.00892233
0.00824441
0.0076284
0.00718067
0.00698457
0.00709316
0.00754816
0.00839375
0.00969056
0.0115444
0.0141232
0.0176782
0.021034
0.0227758
0.0217388
0.0169955
0.0126274
0.00999792
0.00866911
0.0081323
0.0080584
0.00826719
0.00865921
0.00916947
0.00974389
0.0103307
0.0108796
0.0113435
0.0116663
0.0117744
0.0115369
0.01073
0.00921952
0.00735123
0.00804319
0.00919182
0.00969417
0.00983031
0.00970957
0.00937377
0.00885814
0.00823005
0.00759334
0.00706746
0.00675152
0.00671751
0.00700696
0.00764988
0.00868778
0.0101726
0.0122289
0.0150769
0.0189734
0.0225802
0.0238386
0.0219824
0.0169127
0.0125513
0.00996227
0.00864324
0.00808957
0.00798431
0.00815696
0.00851426
0.00899497
0.00954811
0.0101251
0.0106786
0.0111625
0.0115301
0.0117266
0.0116622
0.0111818
0.0100978
0.00853704
0.00846791
0.00904799
0.00925646
0.00922619
0.00900065
0.00859822
0.00805494
0.00745015
0.00689609
0.00650884
0.00637403
0.0065484
0.00706411
0.00793219
0.00919725
0.0108878
0.0131594
0.0162859
0.0205106
0.0242244
0.0248506
0.0221365
0.016762
0.0124515
0.00991909
0.00862015
0.00805204
0.00791425
0.0080481
0.00836769
0.00881606
0.0093455
0.00991035
0.0104658
0.0109677
0.0113715
0.0116274
0.0116745
0.0114166
0.0106928
0.00946284
0.00835623
0.00860751
0.00862693
0.00847884
0.00817558
0.00773109
0.00719351
0.00665653
0.00623445
0.00603238
0.00612077
0.00654134
0.00732589
0.00845173
0.00998252
0.0118956
0.0143995
0.0178056
0.0223156
0.0259099
0.0257452
0.0221363
0.0165429
0.012313
0.00987036
0.00860271
0.00802241
0.00785069
0.00794308
0.00822174
0.00863455
0.00913731
0.00968724
0.0102417
0.0107582
0.0111932
0.0114992
0.0116225
0.0114996
0.0110467
0.0101343
0.00791283
0.00795956
0.00785968
0.00763559
0.00728861
0.00684035
0.00635436
0.00593269
0.00568338
0.0056979
0.00603827
0.0067334
0.00783047
0.00924398
0.0110899
0.0132435
0.0160068
0.0196757
0.0243446
0.0275709
0.0264627
0.0219817
0.0162557
0.0121595
0.00982495
0.00859641
0.00800472
0.0077971
0.00784515
0.00807944
0.00845307
0.00892558
0.00945719
0.0100074
0.010535
0.0109967
0.0113462
0.011533
0.0115041
0.0112067
0.0105774
0.00724623
0.00718007
0.00701704
0.00675953
0.00641013
0.00600213
0.00561003
0.00533607
0.00527944
0.00552237
0.00613225
0.00712395
0.00858509
0.0103169
0.0125476
0.0149612
0.0180182
0.0219034
0.0265151
0.0291121
0.0269486
0.0217018
0.0159206
0.0119981
0.00979504
0.0086096
0.00800462
0.00775797
0.00775826
0.00794452
0.00827496
0.00871307
0.00922219
0.00976414
0.0102986
0.0107826
0.0111695
0.0114104
0.0114575
0.0112698
0.0108118
0.00645817
0.00634723
0.00616894
0.00591892
0.00560614
0.00527259
0.00499759
0.00487928
0.00501347
0.00548022
0.00637082
0.00767683
0.0095667
0.0116514
0.0143649
0.0170551
0.0204447
0.0244471
0.0287206
0.0304402
0.0271485
0.0213592
0.0155739
0.0118667
0.00980138
0.00865449
0.00803004
0.00773917
0.00768732
0.00782141
0.00810426
0.00850327
0.00898493
0.00951351
0.0100498
0.0105508
0.0109691
0.0112557
0.0113652
0.0112625
0.0109264
0.00564269
0.0055354
0.00537861
0.00516722
0.00491628
0.00467114
0.0045132
0.00453669
0.0048442
0.00551766
0.00669678
0.0083288
0.010726
0.013203
0.0165317
0.0195127
0.0232601
0.0272152
0.0308658
0.0314969
0.0270561
0.0210146
0.0152785
0.0118105
0.00987162
0.00874713
0.00809157
0.00774822
0.00763842
0.00771532
0.00794572
0.00830042
0.00874884
0.00925786
0.00978933
0.0103006
0.010743
0.0110668
0.011227
0.011191
0.0109458
0.00487608
0.00480028
0.00468678
0.00452917
0.00434753
0.00418524
0.0041272
0.0042645
0.00471852
0.00556984
0.00704072
0.00899786
0.0119915
0.0149023
0.0190162
0.0223123
0.0264013
0.0300936
0.0328623
0.0322754
0.0268053
0.0206493
0.0151221
0.0118846
0.010039
0.00890679
0.00820299
0.00779467
0.00761883
0.00763221
0.00780441
0.00810894
0.00851739
0.00899938
0.00951754
0.0100302
0.0104871
0.0108385
0.0110383
0.0110537
0.0108775
0.00420338
0.0041686
0.00410593
0.00400226
0.00388418
0.00378725
0.00380393
0.00401972
0.00458855
0.00557564
0.00733482
0.00959332
0.0132791
0.0166568
0.0217689
0.0254178
0.0297871
0.032964
0.0346589
0.0328363
0.0264994
0.0203297
0.0152052
0.0121397
0.010336
0.00915548
0.00838176
0.00789023
0.00763716
0.00757829
0.00768485
0.00793199
0.00829213
0.00873783
0.00923144
0.00973414
0.0101931
0.0105607
0.010789
0.0108431
0.01072
0.00363877
0.00364115
0.00362723
0.00356834
0.00350223
0.0034494
0.00351496
0.00377157
0.00442311
0.00548871
0.00752653
0.0100257
0.0145055
0.0183599
0.0247316
0.0287711
0.0333145
0.0357687
0.0362216
0.0332596
0.0262524
0.020119
0.0155924
0.0126096
0.0107914
0.00951832
0.00865014
0.0080497
0.00770435
0.00756018
0.00759041
0.00777013
0.00807052
0.00846807
0.00892198
0.00940088
0.00984593
0.010218
0.0104637
0.0105456
0.010465
0.00317548
0.00320317
0.00323221
0.0032051
0.00317872
0.00315133
0.00324433
0.00350585
0.00421429
0.00528368
0.00759545
0.0102179
0.0156177
0.0198922
0.0278479
0.0322995
0.0368684
0.0385085
0.0375066
0.0336318
0.026132
0.0201196
0.0161723
0.0133164
0.0114306
0.0100254
0.00903625
0.0082915
0.00783533
0.00758617
0.00752504
0.00762276
0.00784686
0.00818123
0.00857455
0.00901502
0.00942536
0.00979205
0.0100427
0.0101434
0.0100994
0.00279796
0.00283547
0.00290129
0.00289317
0.00289464
0.00288107
0.00298838
0.00322232
0.0039812
0.00495433
0.00757107
0.0101082
0.0166219
0.0211208
0.0310687
0.0359446
0.0403307
0.0411553
0.0383749
0.0340195
0.0261153
0.0202586
0.016885
0.0142861
0.0122733
0.0107111
0.0095702
0.00863429
0.00804952
0.00766586
0.00749705
0.00749271
0.00761963
0.00787436
0.00817878
0.00857025
0.00891561
0.00927363
0.00950864
0.00961961
0.00960742
0.00249093
0.0025217
0.00261813
0.00261993
0.00263566
0.0026334
0.00275548
0.00292728
0.00377347
0.00450299
0.0075468
0.00963152
0.0176106
0.0218904
0.0343347
0.0396313
0.0434563
0.043693
0.0387344
0.0344427
0.0261646
0.0205236
0.0177211
0.0155266
0.0133436
0.011614
0.0102787
0.00909301
0.00837317
0.0078037
0.00752395
0.00738629
0.00740035
0.0075606
0.00774096
0.0080869
0.00831601
0.00867959
0.00885124
0.00896577
0.008974
0.00861275
0.00928614
0.00977878
0.0101304
0.0103647
0.010494
0.0105214
0.0104381
0.0102198
0.00982393
0.00920852
0.00832871
0.00716802
0.00578384
0.00435892
0.00326423
0.00446833
0.00837028
0.00894628
0.00938918
0.00971056
0.00992159
0.0100276
0.0100255
0.00990372
0.00963879
0.00919632
0.00853896
0.00763075
0.00647589
0.00516434
0.00389028
0.00297045
0.00410522
0.00749364
0.00821108
0.00873384
0.00910128
0.00933746
0.00945337
0.0094486
0.0093125
0.00902507
0.00855592
0.00787103
0.00695228
0.00582906
0.0046119
0.00348583
0.00271806
0.00376178
0.00709496
0.00766974
0.00813732
0.00848726
0.0087203
0.00883628
0.00882936
0.00868605
0.00838608
0.00790122
0.00720515
0.00629808
0.0052303
0.00412053
0.0031321
0.00249334
0.00345676
0.00592404
0.00668129
0.00726148
0.00768748
0.00797457
0.00812888
0.00814741
0.00801866
0.00772417
0.00723793
0.00655069
0.00567756
0.00468413
0.00368624
0.00282372
0.00229668
0.00318949
0.0055156
0.00610725
0.00661049
0.00700494
0.00728433
0.00744327
0.00747169
0.00735386
0.00706959
0.00658971
0.00592552
0.00510456
0.0041966
0.00330726
0.00255739
0.00212742
0.00295895
0.00448797
0.00514236
0.00569841
0.00614435
0.00647418
0.00668107
0.0067535
0.00667447
0.0064157
0.00597373
0.0053568
0.00460127
0.00377749
0.00298493
0.00233235
0.00198774
0.0027637
0.00420071
0.00468557
0.00512965
0.00550801
0.00580408
0.00600362
0.0060887
0.00602947
0.0058059
0.00541591
0.00486325
0.00417913
0.00343192
0.00272004
0.00214781
0.00187857
0.00260206
0.00333264
0.00380961
0.00426014
0.00466118
0.00499377
0.0052394
0.00536666
0.00536345
0.00522016
0.00491628
0.00444609
0.00383707
0.00315838
0.00251121
0.00200231
0.00179768
0.00247169
0.00316146
0.00348693
0.00380128
0.0040905
0.00434339
0.00454554
0.00468943
0.00474816
0.0046859
0.00447125
0.00408974
0.00356047
0.00294797
0.00235434
0.00189284
0.00173944
0.00236941
0.00246841
0.00274663
0.00304282
0.00334037
0.00361997
0.00386419
0.00405426
0.00416705
0.00417431
0.00404621
0.00376129
0.00332392
0.00278547
0.00224375
0.00181894
0.00170045
0.00229239
0.0023608
0.00252315
0.00270855
0.00291246
0.00312327
0.0033259
0.00350205
0.00362945
0.00368129
0.00362707
0.00343816
0.00310339
0.00265319
0.00217222
0.00178223
0.0016842
0.0022398
0.00194193
0.00210309
0.00227958
0.00246576
0.00265399
0.00283575
0.00299997
0.00313181
0.00321161
0.00321426
0.00311163
0.00288257
0.00253519
0.00213188
0.00178806
0.00170839
0.00221228
0.00184118
0.00191425
0.00201743
0.00214447
0.0022855
0.00243104
0.0025711
0.00269395
0.00278481
0.00282447
0.00278942
0.00265641
0.00241814
0.0021123
0.00184213
0.00180271
0.0022124
0.00159655
0.00167694
0.00176771
0.00186955
0.00198028
0.00209636
0.00221263
0.0023217
0.00241366
0.00247508
0.00248841
0.00243366
0.00229789
0.00210239
0.0019376
0.00197779
0.00223851
0.00151623
0.00154461
0.00159643
0.00166461
0.00174429
0.00183211
0.00192472
0.0020177
0.00210473
0.00217685
0.00222194
0.00222505
0.00217474
0.00208779
0.00204867
0.00219482
0.00228422
0.00138211
0.0014178
0.00145848
0.00150692
0.00156368
0.0016286
0.00170073
0.00177805
0.00185715
0.00193264
0.00199648
0.0020381
0.00204994
0.00205168
0.00213405
0.00242308
0.0023435
0.00132364
0.00133544
0.00135913
0.00139059
0.0014294
0.00147612
0.00153115
0.0015943
0.00166438
0.00173859
0.00181167
0.00187572
0.00192514
0.00198254
0.00215384
0.00259748
0.00241231
0.00125753
0.00127003
0.00128493
0.00130492
0.00133078
0.00136379
0.00140517
0.00145598
0.00151668
0.0015865
0.00166229
0.00173745
0.00180522
0.00188495
0.00209385
0.00264984
0.00248942
0.00121567
0.0012214
0.00122981
0.00124198
0.00125883
0.00128183
0.00131259
0.0013529
0.00140436
0.00146771
0.00154153
0.00162023
0.00169514
0.00177721
0.00197503
0.00253904
0.0025711
0.00118206
0.00118422
0.00118812
0.00119501
0.00120565
0.00122145
0.00124411
0.00127569
0.00131845
0.00137427
0.00144335
0.00152187
0.00160106
0.00168393
0.00184946
0.00235305
0.00265987
0.0011554
0.00115495
0.00115598
0.0011593
0.00116564
0.00117624
0.00119272
0.00121718
0.00125215
0.00130026
0.00136321
0.00143961
0.00152284
0.001611
0.00175946
0.00217455
0.00275882
0.00113431
0.00113226
0.0011312
0.001132
0.00113526
0.00114202
0.00115371
0.00117234
0.00120047
0.00124117
0.00129736
0.00137025
0.00145708
0.00155637
0.00170713
0.00206804
0.00286645
0.00111758
0.00111434
0.00111199
0.00111108
0.00111214
0.00111602
0.00112398
0.0011378
0.00115996
0.00119371
0.00124287
0.00131106
0.00140013
0.00151306
0.00168318
0.00206257
0.00298417
0.00110465
0.00110082
0.00109753
0.00109544
0.0010949
0.00109663
0.00110164
0.00111148
0.00112843
0.00115573
0.00119777
0.00126015
0.00134948
0.00147638
0.00167871
0.00210758
0.00311614
0.00109501
0.00109069
0.00108701
0.00108422
0.00108265
0.00108283
0.00108558
0.00109221
0.0011047
0.00112612
0.00116115
0.00121679
0.00130391
0.00144201
0.00168011
0.0021753
0.00326727
0.00108822
0.00108398
0.00108011
0.00107701
0.00107486
0.00107404
0.00107517
0.00107929
0.00108809
0.00110433
0.00113263
0.00118084
0.00126305
0.00140716
0.00167699
0.00224062
0.00344042
0.00108397
0.00107988
0.00107631
0.00107333
0.00107107
0.00106978
0.00106991
0.00107225
0.00107814
0.00108999
0.00111206
0.00115242
0.00122717
0.00137108
0.00166458
0.00230023
0.00363592
0.00108198
0.00107851
0.00107541
0.00107287
0.00107091
0.00106965
0.00106938
0.00107064
0.00107444
0.00108275
0.00109931
0.00113184
0.00119714
0.00133468
0.00164124
0.00234701
0.00385203
0.00108196
0.00107923
0.00107703
0.0010753
0.00107403
0.00107328
0.00107316
0.00107401
0.00107654
0.00108222
0.00109418
0.00111931
0.00117394
0.00129962
0.00160664
0.00237295
0.00408545
0.00108379
0.00108217
0.00108101
0.00108039
0.00108016
0.0010803
0.00108082
0.00108188
0.0010839
0.0010879
0.0010963
0.00111487
0.00115845
0.00126799
0.00156233
0.00237265
0.00433176
0.00108732
0.00108692
0.00108715
0.00108791
0.00108904
0.00109044
0.00109202
0.0010938
0.00109598
0.00109919
0.00110512
0.0011183
0.00115131
0.00124202
0.00151132
0.00234138
0.00458536
0.00109243
0.00109364
0.00109541
0.00109776
0.00110051
0.00110345
0.00110642
0.00110934
0.00111225
0.00111545
0.00112
0.00112914
0.00115282
0.00122378
0.00145781
0.00227667
0.0048394
0.00109896
0.00110195
0.00110565
0.00110983
0.00111442
0.00111914
0.00112377
0.00112817
0.00113224
0.00113606
0.00114021
0.00114676
0.0011629
0.00121495
0.00140668
0.00217855
0.0050858
0.00110689
0.00111194
0.00111772
0.00112403
0.00113064
0.00113734
0.00114384
0.00114996
0.00115552
0.00116048
0.00116506
0.00117041
0.00118119
0.00121672
0.00136317
0.00205081
0.00531568
0.00111611
0.00112339
0.00113152
0.00114017
0.00114901
0.00115786
0.0011664
0.00117441
0.00118172
0.0011882
0.00119389
0.00119928
0.00120702
0.00122972
0.00133253
0.0019028
0.00552034
0.00112654
0.00113631
0.00114695
0.00115811
0.00116939
0.00118054
0.00119123
0.00120127
0.00121049
0.00121878
0.00122609
0.00123261
0.00123954
0.00125399
0.00131937
0.00175084
0.00569251
0.00113809
0.00115053
0.00116392
0.00117779
0.00119167
0.00120523
0.00121818
0.00123034
0.0012416
0.00125191
0.00126127
0.00126976
0.00127788
0.0012889
0.00132714
0.00161661
0.00582742
0.00115062
0.00116596
0.00118231
0.00119908
0.00121575
0.00123183
0.00124715
0.00126155
0.00127499
0.00128754
0.00129933
0.00131053
0.0013215
0.00133358
0.00135744
0.00152338
0.00592305
0.00116393
0.00118242
0.00120196
0.00122183
0.00124143
0.00126016
0.00127796
0.00129475
0.00131061
0.00132574
0.00134047
0.00135523
0.00137063
0.00138768
0.00141012
0.00149041
0.00597937
0.00116793
0.00117465
0.00118212
0.00119008
0.00119855
0.00120737
0.00121649
0.00122571
0.00123479
0.00124338
0.00125112
0.00125762
0.00126254
0.00126571
0.00126715
0.00126702
0.00126568
0.00126361
0.00126136
0.00125916
0.00125544
0.0012527
0.0012524
0.00125323
0.00125484
0.00125683
0.00125888
0.00126065
0.00126182
0.00126212
0.00126132
0.00125923
0.00125572
0.00125069
0.00124413
0.00123608
0.00122666
0.00121603
0.0012044
0.00119186
0.0011783
0.00118342
0.00119049
0.00119845
0.00120679
0.00121544
0.00122426
0.00123325
0.0012421
0.00125059
0.00125829
0.00126485
0.00126993
0.00127333
0.00127504
0.00127517
0.00127401
0.001272
0.00126973
0.00126774
0.00126626
0.00126429
0.00126369
0.00126504
0.00126751
0.00127071
0.00127428
0.00127784
0.00128103
0.00128352
0.00128501
0.00128524
0.001284
0.00128115
0.00127656
0.00127019
0.00126208
0.00125233
0.00124112
0.00122869
0.00121521
0.0012003
0.00120194
0.00120977
0.00121823
0.00122675
0.00123526
0.00124374
0.0012521
0.00126009
0.00126739
0.00127367
0.00127857
0.00128189
0.00128359
0.00128378
0.00128267
0.00128062
0.00127819
0.00127601
0.00127457
0.00127409
0.00127409
0.00127572
0.00127881
0.00128298
0.00128783
0.00129299
0.00129805
0.00130265
0.00130643
0.00130907
0.0013103
0.00130988
0.00130764
0.00130345
0.00129723
0.00128901
0.00127887
0.00126703
0.00125374
0.0012393
0.00122345
0.00122332
0.0012322
0.00124108
0.00124946
0.00125741
0.00126502
0.0012722
0.00127873
0.0012843
0.00128865
0.00129155
0.00129295
0.00129293
0.0012917
0.00128953
0.00128688
0.00128438
0.00128264
0.00128207
0.00128285
0.00128495
0.00128884
0.00129371
0.00129958
0.00130606
0.00131276
0.00131927
0.00132521
0.00133021
0.00133394
0.00133609
0.00133642
0.00133472
0.00133084
0.00132468
0.00131625
0.00130564
0.00129306
0.0012788
0.00126325
0.00124661
0.0012461
0.00125615
0.0012652
0.00127307
0.00128005
0.00128633
0.00129187
0.00129647
0.00129995
0.00130213
0.00130297
0.00130253
0.001301
0.0012986
0.0012957
0.00129287
0.00129074
0.00128984
0.00129045
0.0012927
0.00129698
0.00130307
0.00130969
0.00131722
0.00132526
0.00133342
0.00134129
0.00134847
0.00135458
0.00135927
0.00136224
0.00136319
0.00136193
0.00135825
0.00135205
0.00134329
0.00133209
0.00131865
0.00130331
0.00128651
0.00126868
0.00126727
0.00127819
0.00128715
0.00129433
0.00130021
0.00130502
0.00130878
0.00131139
0.0013128
0.001313
0.00131208
0.00131018
0.00130751
0.00130438
0.00130128
0.00129883
0.00129757
0.00129787
0.00129994
0.00130385
0.00131027
0.00131844
0.00132675
0.00133583
0.00134532
0.00135482
0.0013639
0.00137217
0.00137925
0.00138477
0.00138841
0.00138986
0.00138889
0.00138528
0.00137889
0.00136969
0.00135776
0.00134335
0.00132678
0.00130877
0.00128986
0.00128266
0.0012939
0.00130271
0.00130943
0.00131453
0.00131824
0.00132063
0.00132173
0.00132163
0.00132046
0.00131837
0.00131558
0.00131236
0.00130917
0.00130658
0.00130513
0.00130521
0.00130706
0.00131081
0.00131646
0.00132492
0.001335
0.00134487
0.00135537
0.00136615
0.00137682
0.00138695
0.00139615
0.00140402
0.00141021
0.00141436
0.00141614
0.0014153
0.00141161
0.0014049
0.00139511
0.00138232
0.00136696
0.00134944
0.00133031
0.00131015
0.00128967
0.00130087
0.00130963
0.0013163
0.0013212
0.00132449
0.00132628
0.00132671
0.00132594
0.00132418
0.00132168
0.00131876
0.00131586
0.0013135
0.00131219
0.0013123
0.00131411
0.00131776
0.0013233
0.00133073
0.00134104
0.0013528
0.00136406
0.00137581
0.00138771
0.00139935
0.00141034
0.00142027
0.00142875
0.00143541
0.00143988
0.00144182
0.00144095
0.00143701
0.00142982
0.00141946
0.00140601
0.00138977
0.00137119
0.00135088
0.0013295
0.00128948
0.00130041
0.00130903
0.0013158
0.00132085
0.00132426
0.00132613
0.00132663
0.001326
0.00132453
0.00132258
0.0013206
0.00131905
0.00131837
0.00131893
0.001321
0.00132477
0.00133034
0.00133771
0.00134684
0.00135876
0.00137193
0.00138439
0.00139718
0.00140998
0.0014224
0.00143403
0.00144447
0.00145334
0.00146026
0.00146486
0.00146676
0.0014657
0.00146147
0.0014539
0.00144298
0.0014288
0.00141167
0.00139207
0.00137065
0.00134813
0.00128668
0.00129647
0.00130435
0.00131088
0.00131599
0.00131969
0.00132206
0.00132328
0.00132362
0.00132344
0.00132311
0.00132302
0.00132355
0.00132503
0.00132777
0.00133197
0.00133777
0.00134525
0.00135435
0.00136502
0.00137827
0.00139254
0.00140598
0.00141958
0.00143304
0.00144598
0.00145801
0.00146873
0.00147776
0.00148472
0.00148921
0.00149095
0.00148967
0.00148512
0.00147713
0.00146565
0.00145079
0.00143286
0.00141236
0.00138995
0.00136642
0.00128821
0.00129528
0.00130157
0.00130714
0.00131189
0.00131575
0.00131879
0.00132112
0.00132295
0.00132456
0.00132625
0.00132831
0.00133108
0.00133481
0.00133973
0.00134602
0.00135377
0.00136299
0.00137362
0.00138558
0.00139982
0.00141487
0.001429
0.00144314
0.00145699
0.00147018
0.00148235
0.00149308
0.00150195
0.00150871
0.00151301
0.00151451
0.00151294
0.00150804
0.00149964
0.00148768
0.00147227
0.00145371
0.00143249
0.00140928
0.00138493
0.00129852
0.00130268
0.00130685
0.00131094
0.00131481
0.0013184
0.0013217
0.0013248
0.00132784
0.00133099
0.00133447
0.0013385
0.0013433
0.00134908
0.00135599
0.00136413
0.00137354
0.0013842
0.00139605
0.00140897
0.00142381
0.00143927
0.00145377
0.00146811
0.00148203
0.00149514
0.00150704
0.00151744
0.00152601
0.00153244
0.00153639
0.00153754
0.00153563
0.00153039
0.00152167
0.0015094
0.00149367
0.00147474
0.00145309
0.00142938
0.00140448
0.00132026
0.00132132
0.00132303
0.00132526
0.00132783
0.00133069
0.00133381
0.00133723
0.001341
0.00134524
0.00135008
0.00135565
0.00136207
0.00136947
0.00137793
0.00138747
0.00139811
0.00140978
0.00142239
0.00143583
0.00145082
0.00146625
0.0014807
0.00149483
0.00150834
0.00152093
0.0015323
0.00154214
0.00155014
0.00155601
0.00155945
0.00156017
0.00155792
0.00155245
0.0015436
0.00153128
0.00151557
0.00149667
0.00147503
0.00145125
0.00142625
0.00135518
0.00135329
0.00135258
0.00135276
0.00135377
0.00135556
0.00135808
0.00136133
0.00136533
0.0013701
0.0013757
0.00138219
0.00138961
0.00139799
0.00140735
0.00141767
0.00142891
0.00144097
0.00145375
0.00146712
0.00148168
0.0014965
0.00151031
0.00152366
0.00153631
0.00154798
0.00155841
0.00156732
0.00157445
0.00157954
0.00158235
0.0015826
0.00158009
0.00157458
0.00156591
0.00155397
0.00153879
0.00152054
0.00149956
0.0014764
0.00145201
0.00140553
0.00140103
0.00139819
0.00139652
0.00139598
0.00139652
0.00139812
0.00140075
0.00140441
0.00140906
0.00141471
0.00142134
0.00142892
0.00143744
0.00144684
0.00145706
0.00146802
0.00147962
0.00149173
0.00150424
0.00151759
0.00153098
0.00154341
0.00155531
0.00156647
0.00157665
0.00158562
0.00159318
0.0015991
0.0016032
0.00160526
0.0016051
0.00160251
0.0015973
0.00158929
0.00157837
0.0015645
0.0015478
0.00152851
0.00150706
0.00148451
0.00147402
0.00146777
0.00146358
0.0014606
0.00145883
0.00145825
0.00145884
0.00146054
0.00146333
0.00146717
0.00147201
0.0014778
0.00148449
0.001492
0.00150025
0.00150918
0.00151866
0.0015286
0.00153887
0.00154935
0.00156029
0.00157111
0.00158114
0.00159064
0.00159944
0.00160736
0.00161424
0.00161993
0.00162429
0.00162718
0.00162848
0.00162803
0.00162569
0.00162129
0.00161468
0.00160573
0.00159436
0.0015806
0.00156461
0.00154669
0.00152804
0.00156396
0.00155785
0.001554
0.00155106
0.00154902
0.00154791
0.00154771
0.00154838
0.00154989
0.0015522
0.00155526
0.00155901
0.00156339
0.00156834
0.00157378
0.00157964
0.00158583
0.00159227
0.00159886
0.00160551
0.0016123
0.00161892
0.00162505
0.00163079
0.00163603
0.00164068
0.00164465
0.00164786
0.00165026
0.00165178
0.00165234
0.00165189
0.00165032
0.00164753
0.00164341
0.00163785
0.00163077
0.00162215
0.00161205
0.00160061
0.00158936
0.00452661
0.00330579
0.00440237
0.00579525
0.00695476
0.00758729
0.00770508
0.00738437
0.00680454
0.00609963
0.00536447
0.00466534
0.00404094
0.00350504
0.00305369
0.00267409
0.00235221
0.0041485
0.00302715
0.00394999
0.00519004
0.00626964
0.00693155
0.00712534
0.00689818
0.0063988
0.0057643
0.00509242
0.00444674
0.00386383
0.00335912
0.00293384
0.00258229
0.00229801
0.00379205
0.0027829
0.0035425
0.00462436
0.00561392
0.00629565
0.00654279
0.00639444
0.00597466
0.00541114
0.00480111
0.00420884
0.00367225
0.00321021
0.00282745
0.00251882
0.00227287
0.00347586
0.00255738
0.00317659
0.00411535
0.00502417
0.00568893
0.00596761
0.00587996
0.00553012
0.00503354
0.00448256
0.00393984
0.00344302
0.00301028
0.00264443
0.00233748
0.00207574
0.0032001
0.002356
0.00285187
0.00366221
0.00448942
0.00512131
0.00541509
0.00537325
0.00508301
0.00464827
0.00415509
0.00366366
0.00321156
0.00281819
0.00248916
0.00222104
0.0020071
0.0029651
0.002184
0.00256862
0.00326545
0.00401138
0.00460007
0.00489572
0.00488769
0.00464846
0.00427117
0.0038354
0.00339885
0.00299883
0.00265589
0.00237648
0.00215593
0.00198235
0.00276825
0.00204493
0.00232801
0.00292464
0.00359064
0.00412935
0.00441568
0.00443062
0.0042337
0.00390719
0.0035235
0.00313572
0.0027781
0.00246842
0.0022108
0.00199968
0.00182543
0.00260497
0.00193952
0.00213223
0.00263989
0.00322738
0.00371212
0.00397934
0.00400677
0.00384342
0.00356162
0.00322651
0.00288654
0.00257319
0.00230313
0.0020812
0.00190383
0.00176356
0.00246983
0.00186271
0.00198206
0.00241285
0.00292264
0.0033518
0.00359037
0.00361896
0.00347966
0.00323618
0.0029466
0.00265436
0.00238776
0.00216209
0.00198177
0.00184236
0.00173608
0.00235797
0.00180319
0.00187558
0.00224676
0.00267914
0.00304901
0.00324996
0.00326742
0.00314136
0.00292822
0.0026781
0.00242732
0.00219871
0.00200382
0.00184708
0.00172494
0.00162743
0.00226689
0.00175722
0.00181006
0.00214104
0.00251206
0.0028019
0.00294788
0.00294207
0.00282174
0.00263585
0.00242578
0.00221997
0.00203507
0.0018789
0.00175152
0.00165012
0.00156795
0.00219903
0.00173893
0.00179038
0.00208603
0.00240292
0.00262963
0.00271745
0.00268085
0.00256152
0.00239986
0.00222512
0.002056
0.00190364
0.00177429
0.00167075
0.00159276
0.00153661
0.00216028
0.00177552
0.00181975
0.00206935
0.00232225
0.00248192
0.00252127
0.0024639
0.00234754
0.00220391
0.00205439
0.00191195
0.00178398
0.00167443
0.00158511
0.00151594
0.00146423
0.00215376
0.0018934
0.00189764
0.00207444
0.00225041
0.00234272
0.00233995
0.0022678
0.00215697
0.00203068
0.00190373
0.0017848
0.00167866
0.00158777
0.0015132
0.00145475
0.00140911
0.00217805
0.00208423
0.0020024
0.00208333
0.00217571
0.00220733
0.00217221
0.0020918
0.00198857
0.00187843
0.00177121
0.00167249
0.00158524
0.00151092
0.00145044
0.00140513
0.00137698
0.00222131
0.00229255
0.00210926
0.00207924
0.00209229
0.00207579
0.00201904
0.00193583
0.00184119
0.00174559
0.00165529
0.0015737
0.00150242
0.00144196
0.00139222
0.00135324
0.00132637
0.00227809
0.00249471
0.00218246
0.00204722
0.00199837
0.00195009
0.00188151
0.00179934
0.0017134
0.00163054
0.0015546
0.00148745
0.00142969
0.00138121
0.00134141
0.00130939
0.00128393
0.00234733
0.00264887
0.00218939
0.00198016
0.00189691
0.00183293
0.00175996
0.00168112
0.00160349
0.00153168
0.00146789
0.00141285
0.00136641
0.00132802
0.00129686
0.00127212
0.0012543
0.00242692
0.00269401
0.00212177
0.00188649
0.00179487
0.00172663
0.00165384
0.00157959
0.00150976
0.00144758
0.00139408
0.00134912
0.00131205
0.00128199
0.00125798
0.00123911
0.00122454
0.0025135
0.00258181
0.00200138
0.00178433
0.00169923
0.00163244
0.00156237
0.00149343
0.00143092
0.00137712
0.00133225
0.00129561
0.00126615
0.0012428
0.00122453
0.00121045
0.0011998
0.00260979
0.00239385
0.0018752
0.00169494
0.00161795
0.0015523
0.0014846
0.0014205
0.00136453
0.00131799
0.00128043
0.00125068
0.00122745
0.00120954
0.00119592
0.00118573
0.00117829
0.00271707
0.00220925
0.0017765
0.00162627
0.00155178
0.00148485
0.0014188
0.0013592
0.00130921
0.0012691
0.00123779
0.00121377
0.00119561
0.00118206
0.00117212
0.00116498
0.00116004
0.00283261
0.00210444
0.00171907
0.00157717
0.00149808
0.00142797
0.00136333
0.00130813
0.00126377
0.00122944
0.00120351
0.00118425
0.00117018
0.00116006
0.00115295
0.00114811
0.00114506
0.0029565
0.0020725
0.00169468
0.00154358
0.00145385
0.00137974
0.00131682
0.00126618
0.0012272
0.00119809
0.0011768
0.00116149
0.00115066
0.00114317
0.00113815
0.00113499
0.00113327
0.00309279
0.00210135
0.00169152
0.00151856
0.00141581
0.00133843
0.00127809
0.00123232
0.00119858
0.00117422
0.00115693
0.00114482
0.0011365
0.00113094
0.00112739
0.00112535
0.00112445
0.00324729
0.00215945
0.00169922
0.00149694
0.00138153
0.00130275
0.00124623
0.00120575
0.00117711
0.00115706
0.00114314
0.00113358
0.00112712
0.00112286
0.00112021
0.00111875
0.00111824
0.0034242
0.00223049
0.00170784
0.00147491
0.00134978
0.00127214
0.00122068
0.00118584
0.00116209
0.00114585
0.00113473
0.0011271
0.0011219
0.00111842
0.00111618
0.0011149
0.00111444
0.00362441
0.00229925
0.00170981
0.00145017
0.00132011
0.00124638
0.0012011
0.00117204
0.00115287
0.00113993
0.00113101
0.00112473
0.00112026
0.00111707
0.00111484
0.00111343
0.00111273
0.00384626
0.00235902
0.00170088
0.00142197
0.00129261
0.00122547
0.00118722
0.00116389
0.00114886
0.00113865
0.00113134
0.00112586
0.00112162
0.0011183
0.00111571
0.00111379
0.00111255
0.0040863
0.00240156
0.00167889
0.0013908
0.00126796
0.00120962
0.00117881
0.00116092
0.0011495
0.00114142
0.00113519
0.00113005
0.00112563
0.0011218
0.00111853
0.00111579
0.00111373
0.00433998
0.00241846
0.00164317
0.00135812
0.0012471
0.00119905
0.00117567
0.0011627
0.00115433
0.00114798
0.00114242
0.00113718
0.0011322
0.00112754
0.0011233
0.00111964
0.00111671
0.00460153
0.0024032
0.00159514
0.00132608
0.0012311
0.00119397
0.00117753
0.00116889
0.00116299
0.00115766
0.00115212
0.00114628
0.00114033
0.00113453
0.0011291
0.00112426
0.00112025
0.00486369
0.00235084
0.00153814
0.00129719
0.00122087
0.0011944
0.00118401
0.00117881
0.00117455
0.00116965
0.0011637
0.0011569
0.00114967
0.00114247
0.00113567
0.0011295
0.00112422
0.00511763
0.00225906
0.00147701
0.00127391
0.001217
0.00119999
0.00119446
0.00119162
0.00118836
0.00118348
0.00117681
0.00116876
0.00116001
0.00115121
0.00114285
0.00113533
0.00112898
0.00535337
0.00212937
0.00141762
0.00125825
0.00121949
0.0012101
0.00120796
0.00120662
0.00120387
0.00119875
0.00119116
0.00118168
0.00117122
0.00116063
0.00115058
0.00114151
0.00113387
0.00556077
0.00196938
0.0013663
0.00125158
0.0012278
0.00122374
0.00122361
0.00122311
0.00122055
0.00121507
0.00120652
0.00119552
0.0011832
0.00117068
0.00115879
0.00114806
0.00113874
0.00573111
0.0017954
0.00132938
0.00125443
0.00124085
0.00123962
0.0012404
0.00124034
0.00123788
0.00123207
0.00122262
0.00121012
0.00119587
0.00118129
0.00116745
0.00115504
0.00114447
0.0058588
0.00163245
0.00131228
0.00126639
0.00125718
0.00125623
0.00125704
0.00125735
0.00125514
0.00124922
0.00123911
0.00122527
0.00120913
0.00119242
0.00117654
0.00116234
0.00115045
0.0059423