/*--------------------------------*- C++ -*----------------------------------*\
  =========                 |
  \\      /  F ield         | OpenFOAM: The Open Source CFD Toolbox
   \\    /   O peration     | Website:  https://openfoam.org
    \\  /    A nd           | Version:  6
     \\/     M anipulation  |
\*---------------------------------------------------------------------------*/
FoamFile
{
    version     2.0;
    format      ascii;
    class       volVectorField;
    location    "3.55";
    object      U;
}
// * * * * * * * * * * * * * * * * * * * * * * * * * * * * * * * * * * * * * //

dimensions      [0 1 -1 0 0 0 0];

internalField   nonuniform List<vector> 
22500
(
(0.8944 0.4472 0)
(0.8944 0.4472 0)
(0.8944 0.4472 0)
(0.8944 0.4472 0)
(0.8944 0.4472 0)
(0.8944 0.4472 0)
(0.8944 0.4472 0)
(0.8944 0.4472 0)
(0.8944 0.4472 0)
(0.8944 0.4472 0)
(0.8944 0.4472 0)
(0.8944 0.4472 0)
(0.8944 0.4472 0)
(0.8944 0.4472 0)
(0.8944 0.4472 0)
(0.8944 0.4472 0)
(0.8944 0.4472 0)
(0.8944 0.4472 0)
(0.8944 0.4472 0)
(0.8944 0.4472 0)
(0.8944 0.4472 0)
(0.8944 0.4472 0)
(0.8944 0.4472 0)
(0.8944 0.4472 0)
(0.8944 0.4472 0)
(0.8944 0.4472 0)
(0.8944 0.4472 0)
(0.8944 0.4472 0)
(0.8944 0.4472 0)
(0.8944 0.4472 0)
(0.8944 0.4472 0)
(0.8944 0.4472 0)
(0.8944 0.4472 0)
(0.8944 0.4472 0)
(0.8944 0.4472 0)
(0.8944 0.4472 0)
(0.8944 0.4472 0)
(0.8944 0.4472 0)
(0.8944 0.4472 0)
(0.8944 0.4472 0)
(0.8944 0.4472 0)
(0.8944 0.4472 0)
(0.8944 0.4472 0)
(0.8944 0.4472 0)
(0.8944 0.4472 0)
(0.8944 0.4472 0)
(0.8944 0.4472 0)
(0.8944 0.4472 0)
(0.8944 0.4472 0)
(0.8944 0.4472 0)
(0.8944 0.4472 0)
(0.8944 0.4472 0)
(0.8944 0.4472 0)
(0.8944 0.4472 0)
(0.8944 0.4472 0)
(0.8944 0.4472 0)
(0.8944 0.4472 0)
(0.8944 0.4472 0)
(0.8944 0.4472 0)
(0.8944 0.4472 0)
(0.8944 0.4472 0)
(0.8944 0.4472 0)
(0.8944 0.4472 0)
(0.8944 0.4472 0)
(0.8944 0.4472 0)
(0.8944 0.4472 0)
(0.894401 0.4472 0)
(0.894401 0.4472 0)
(0.894401 0.4472 0)
(0.894401 0.447199 0)
(0.894402 0.447198 0)
(0.894403 0.447198 0)
(0.894404 0.447197 0)
(0.894405 0.447195 0)
(0.894406 0.447193 0)
(0.894407 0.447191 0)
(0.894408 0.447189 0)
(0.894409 0.447186 0)
(0.89441 0.447183 0)
(0.894411 0.44718 0)
(0.894412 0.447177 0)
(0.894412 0.447174 0)
(0.894411 0.447171 0)
(0.89441 0.447169 0)
(0.894408 0.447167 0)
(0.894406 0.447166 0)
(0.894403 0.447167 0)
(0.8944 0.447168 0)
(0.894396 0.447171 0)
(0.894392 0.447176 0)
(0.894388 0.447181 0)
(0.894384 0.447188 0)
(0.89438 0.447196 0)
(0.894377 0.447205 0)
(0.894374 0.447215 0)
(0.894372 0.447225 0)
(0.894372 0.447235 0)
(0.894372 0.447245 0)
(0.894372 0.447254 0)
(0.894374 0.447262 0)
(0.894377 0.447269 0)
(0.89438 0.447274 0)
(0.894384 0.447279 0)
(0.894388 0.447281 0)
(0.894392 0.447283 0)
(0.894396 0.447282 0)
(0.8944 0.447281 0)
(0.894404 0.447278 0)
(0.894407 0.447274 0)
(0.89441 0.44727 0)
(0.894412 0.447265 0)
(0.894414 0.447259 0)
(0.894415 0.447253 0)
(0.894415 0.447247 0)
(0.894415 0.447241 0)
(0.894415 0.447235 0)
(0.894414 0.44723 0)
(0.894413 0.447225 0)
(0.894412 0.447221 0)
(0.89441 0.447217 0)
(0.894409 0.447213 0)
(0.894408 0.44721 0)
(0.894406 0.447208 0)
(0.894405 0.447206 0)
(0.894404 0.447204 0)
(0.894403 0.447203 0)
(0.894402 0.447202 0)
(0.894402 0.447201 0)
(0.894401 0.447201 0)
(0.894401 0.447201 0)
(0.894401 0.4472 0)
(0.8944 0.4472 0)
(0.8944 0.4472 0)
(0.8944 0.4472 0)
(0.8944 0.4472 0)
(0.8944 0.4472 0)
(0.8944 0.4472 0)
(0.8944 0.4472 0)
(0.8944 0.4472 0)
(0.8944 0.4472 0)
(0.8944 0.4472 0)
(0.8944 0.4472 0)
(0.8944 0.4472 0)
(0.8944 0.4472 0)
(0.8944 0.4472 0)
(0.8944 0.4472 0)
(0.8944 0.4472 0)
(0.8944 0.4472 0)
(0.8944 0.4472 0)
(0.8944 0.4472 0)
(0.8944 0.4472 0)
(0.8944 0.4472 0)
(0.8944 0.4472 0)
(0.8944 0.4472 0)
(0.8944 0.4472 0)
(0.8944 0.4472 0)
(0.8944 0.4472 0)
(0.8944 0.4472 0)
(0.8944 0.4472 0)
(0.8944 0.4472 0)
(0.8944 0.4472 0)
(0.8944 0.4472 0)
(0.8944 0.4472 0)
(0.8944 0.4472 0)
(0.8944 0.4472 0)
(0.8944 0.4472 0)
(0.8944 0.4472 0)
(0.8944 0.4472 0)
(0.8944 0.4472 0)
(0.8944 0.4472 0)
(0.8944 0.4472 0)
(0.8944 0.4472 0)
(0.8944 0.4472 0)
(0.8944 0.4472 0)
(0.8944 0.4472 0)
(0.8944 0.4472 0)
(0.8944 0.4472 0)
(0.8944 0.4472 0)
(0.8944 0.4472 0)
(0.8944 0.4472 0)
(0.8944 0.4472 0)
(0.8944 0.4472 0)
(0.8944 0.4472 0)
(0.8944 0.4472 0)
(0.8944 0.4472 0)
(0.8944 0.4472 0)
(0.8944 0.4472 0)
(0.8944 0.4472 0)
(0.8944 0.4472 0)
(0.8944 0.4472 0)
(0.8944 0.4472 0)
(0.8944 0.4472 0)
(0.8944 0.4472 0)
(0.8944 0.4472 0)
(0.8944 0.4472 0)
(0.8944 0.4472 0)
(0.8944 0.4472 0)
(0.8944 0.4472 0)
(0.8944 0.4472 0)
(0.8944 0.4472 0)
(0.8944 0.4472 0)
(0.8944 0.4472 0)
(0.8944 0.4472 0)
(0.8944 0.4472 0)
(0.8944 0.4472 0)
(0.8944 0.4472 0)
(0.8944 0.4472 0)
(0.8944 0.4472 0)
(0.8944 0.4472 0)
(0.8944 0.4472 0)
(0.8944 0.4472 0)
(0.8944 0.4472 0)
(0.8944 0.4472 0)
(0.8944 0.4472 0)
(0.8944 0.4472 0)
(0.8944 0.4472 0)
(0.894401 0.4472 0)
(0.894401 0.4472 0)
(0.894401 0.4472 0)
(0.894402 0.447199 0)
(0.894403 0.447198 0)
(0.894404 0.447197 0)
(0.894404 0.447196 0)
(0.894406 0.447195 0)
(0.894408 0.447192 0)
(0.894409 0.44719 0)
(0.89441 0.447187 0)
(0.894412 0.447184 0)
(0.894413 0.44718 0)
(0.894413 0.447177 0)
(0.894414 0.447173 0)
(0.894414 0.44717 0)
(0.894413 0.447167 0)
(0.894411 0.447165 0)
(0.894409 0.447164 0)
(0.894406 0.447164 0)
(0.894402 0.447166 0)
(0.894397 0.44717 0)
(0.894392 0.447175 0)
(0.894387 0.447182 0)
(0.894382 0.447191 0)
(0.894377 0.447201 0)
(0.894373 0.447212 0)
(0.894369 0.447225 0)
(0.894366 0.447238 0)
(0.894364 0.44725 0)
(0.894363 0.447263 0)
(0.894364 0.447276 0)
(0.894365 0.447286 0)
(0.894368 0.447296 0)
(0.894371 0.447304 0)
(0.894376 0.44731 0)
(0.894381 0.447314 0)
(0.894386 0.447316 0)
(0.894391 0.447316 0)
(0.894397 0.447314 0)
(0.894402 0.447311 0)
(0.894407 0.447306 0)
(0.894411 0.4473 0)
(0.894414 0.447293 0)
(0.894417 0.447285 0)
(0.894419 0.447277 0)
(0.89442 0.447269 0)
(0.89442 0.447261 0)
(0.89442 0.447253 0)
(0.894419 0.447245 0)
(0.894418 0.447238 0)
(0.894417 0.447232 0)
(0.894415 0.447226 0)
(0.894413 0.447221 0)
(0.894412 0.447217 0)
(0.89441 0.447213 0)
(0.894408 0.44721 0)
(0.894407 0.447207 0)
(0.894405 0.447205 0)
(0.894404 0.447204 0)
(0.894403 0.447202 0)
(0.894402 0.447202 0)
(0.894402 0.447201 0)
(0.894401 0.447201 0)
(0.894401 0.4472 0)
(0.894401 0.4472 0)
(0.8944 0.4472 0)
(0.8944 0.4472 0)
(0.8944 0.4472 0)
(0.8944 0.4472 0)
(0.8944 0.4472 0)
(0.8944 0.4472 0)
(0.8944 0.4472 0)
(0.8944 0.4472 0)
(0.8944 0.4472 0)
(0.8944 0.4472 0)
(0.8944 0.4472 0)
(0.8944 0.4472 0)
(0.8944 0.4472 0)
(0.8944 0.4472 0)
(0.8944 0.4472 0)
(0.8944 0.4472 0)
(0.8944 0.4472 0)
(0.8944 0.4472 0)
(0.8944 0.4472 0)
(0.8944 0.4472 0)
(0.8944 0.4472 0)
(0.8944 0.4472 0)
(0.8944 0.4472 0)
(0.8944 0.4472 0)
(0.8944 0.4472 0)
(0.8944 0.4472 0)
(0.8944 0.4472 0)
(0.8944 0.4472 0)
(0.8944 0.4472 0)
(0.8944 0.4472 0)
(0.8944 0.4472 0)
(0.8944 0.4472 0)
(0.8944 0.4472 0)
(0.8944 0.4472 0)
(0.8944 0.4472 0)
(0.8944 0.4472 0)
(0.8944 0.4472 0)
(0.8944 0.4472 0)
(0.8944 0.4472 0)
(0.8944 0.4472 0)
(0.8944 0.4472 0)
(0.8944 0.4472 0)
(0.8944 0.4472 0)
(0.8944 0.4472 0)
(0.8944 0.4472 0)
(0.8944 0.4472 0)
(0.8944 0.4472 0)
(0.8944 0.4472 0)
(0.8944 0.4472 0)
(0.8944 0.4472 0)
(0.8944 0.4472 0)
(0.8944 0.4472 0)
(0.8944 0.4472 0)
(0.8944 0.4472 0)
(0.8944 0.4472 0)
(0.8944 0.4472 0)
(0.8944 0.4472 0)
(0.8944 0.4472 0)
(0.8944 0.4472 0)
(0.8944 0.4472 0)
(0.8944 0.4472 0)
(0.8944 0.4472 0)
(0.8944 0.4472 0)
(0.8944 0.4472 0)
(0.8944 0.4472 0)
(0.8944 0.4472 0)
(0.8944 0.4472 0)
(0.8944 0.4472 0)
(0.8944 0.4472 0)
(0.8944 0.4472 0)
(0.8944 0.4472 0)
(0.8944 0.4472 0)
(0.8944 0.4472 0)
(0.8944 0.4472 0)
(0.8944 0.4472 0)
(0.8944 0.4472 0)
(0.8944 0.4472 0)
(0.8944 0.4472 0)
(0.8944 0.4472 0)
(0.8944 0.4472 0)
(0.8944 0.4472 0)
(0.8944 0.4472 0)
(0.8944 0.4472 0)
(0.8944 0.4472 0)
(0.894401 0.4472 0)
(0.894401 0.4472 0)
(0.894401 0.4472 0)
(0.894402 0.447199 0)
(0.894404 0.447198 0)
(0.894405 0.447197 0)
(0.894406 0.447196 0)
(0.894408 0.447193 0)
(0.894409 0.447191 0)
(0.894411 0.447188 0)
(0.894413 0.447185 0)
(0.894414 0.447181 0)
(0.894416 0.447177 0)
(0.894416 0.447173 0)
(0.894416 0.44717 0)
(0.894416 0.447167 0)
(0.894415 0.447165 0)
(0.894412 0.447163 0)
(0.894409 0.447163 0)
(0.894404 0.447166 0)
(0.894399 0.44717 0)
(0.894393 0.447177 0)
(0.894386 0.447185 0)
(0.89438 0.447196 0)
(0.894373 0.44721 0)
(0.894367 0.447224 0)
(0.894362 0.447241 0)
(0.894357 0.447258 0)
(0.894354 0.447275 0)
(0.894352 0.447292 0)
(0.894352 0.447309 0)
(0.894354 0.447324 0)
(0.894357 0.447337 0)
(0.894361 0.447348 0)
(0.894366 0.447357 0)
(0.894372 0.447363 0)
(0.894379 0.447366 0)
(0.894386 0.447366 0)
(0.894393 0.447364 0)
(0.894399 0.447359 0)
(0.894406 0.447352 0)
(0.894411 0.447344 0)
(0.894416 0.447335 0)
(0.89442 0.447324 0)
(0.894424 0.447313 0)
(0.894426 0.447301 0)
(0.894427 0.44729 0)
(0.894427 0.447279 0)
(0.894427 0.447268 0)
(0.894426 0.447258 0)
(0.894424 0.447249 0)
(0.894422 0.44724 0)
(0.89442 0.447233 0)
(0.894417 0.447226 0)
(0.894415 0.447221 0)
(0.894413 0.447216 0)
(0.894411 0.447212 0)
(0.894409 0.447209 0)
(0.894407 0.447206 0)
(0.894405 0.447204 0)
(0.894404 0.447203 0)
(0.894403 0.447202 0)
(0.894402 0.447201 0)
(0.894402 0.447201 0)
(0.894401 0.4472 0)
(0.894401 0.4472 0)
(0.8944 0.4472 0)
(0.8944 0.4472 0)
(0.8944 0.4472 0)
(0.8944 0.4472 0)
(0.8944 0.4472 0)
(0.8944 0.4472 0)
(0.8944 0.4472 0)
(0.8944 0.4472 0)
(0.8944 0.4472 0)
(0.8944 0.4472 0)
(0.8944 0.4472 0)
(0.8944 0.4472 0)
(0.8944 0.4472 0)
(0.8944 0.4472 0)
(0.8944 0.4472 0)
(0.8944 0.4472 0)
(0.8944 0.4472 0)
(0.8944 0.4472 0)
(0.8944 0.4472 0)
(0.8944 0.4472 0)
(0.8944 0.4472 0)
(0.8944 0.4472 0)
(0.8944 0.4472 0)
(0.8944 0.4472 0)
(0.8944 0.4472 0)
(0.8944 0.4472 0)
(0.8944 0.4472 0)
(0.8944 0.4472 0)
(0.8944 0.4472 0)
(0.8944 0.4472 0)
(0.8944 0.4472 0)
(0.8944 0.4472 0)
(0.8944 0.4472 0)
(0.8944 0.4472 0)
(0.8944 0.4472 0)
(0.8944 0.4472 0)
(0.8944 0.4472 0)
(0.8944 0.4472 0)
(0.8944 0.4472 0)
(0.8944 0.4472 0)
(0.8944 0.4472 0)
(0.8944 0.4472 0)
(0.8944 0.4472 0)
(0.8944 0.4472 0)
(0.8944 0.4472 0)
(0.8944 0.4472 0)
(0.8944 0.4472 0)
(0.8944 0.4472 0)
(0.8944 0.4472 0)
(0.8944 0.4472 0)
(0.8944 0.4472 0)
(0.8944 0.4472 0)
(0.8944 0.4472 0)
(0.8944 0.4472 0)
(0.8944 0.4472 0)
(0.8944 0.4472 0)
(0.8944 0.4472 0)
(0.8944 0.4472 0)
(0.8944 0.4472 0)
(0.8944 0.4472 0)
(0.8944 0.4472 0)
(0.8944 0.4472 0)
(0.8944 0.4472 0)
(0.8944 0.4472 0)
(0.8944 0.4472 0)
(0.8944 0.4472 0)
(0.8944 0.4472 0)
(0.8944 0.4472 0)
(0.8944 0.4472 0)
(0.8944 0.4472 0)
(0.8944 0.4472 0)
(0.8944 0.4472 0)
(0.8944 0.4472 0)
(0.8944 0.4472 0)
(0.8944 0.4472 0)
(0.8944 0.4472 0)
(0.8944 0.4472 0)
(0.8944 0.4472 0)
(0.8944 0.4472 0)
(0.8944 0.4472 0)
(0.8944 0.4472 0)
(0.8944 0.447201 0)
(0.8944 0.447201 0)
(0.8944 0.447201 0)
(0.894401 0.4472 0)
(0.894401 0.447201 0)
(0.894402 0.4472 0)
(0.894403 0.447199 0)
(0.894404 0.447198 0)
(0.894406 0.447197 0)
(0.894407 0.447195 0)
(0.894409 0.447193 0)
(0.894411 0.44719 0)
(0.894413 0.447187 0)
(0.894415 0.447183 0)
(0.894417 0.447179 0)
(0.894419 0.447175 0)
(0.894419 0.447171 0)
(0.894419 0.447167 0)
(0.894418 0.447165 0)
(0.894416 0.447164 0)
(0.894412 0.447165 0)
(0.894407 0.447168 0)
(0.894401 0.447173 0)
(0.894394 0.447182 0)
(0.894385 0.447193 0)
(0.894377 0.447207 0)
(0.894368 0.447224 0)
(0.89436 0.447244 0)
(0.894353 0.447265 0)
(0.894347 0.447288 0)
(0.894342 0.447312 0)
(0.894339 0.447336 0)
(0.894337 0.447358 0)
(0.894338 0.44738 0)
(0.894341 0.447399 0)
(0.894346 0.447415 0)
(0.894352 0.447427 0)
(0.89436 0.447436 0)
(0.894368 0.447441 0)
(0.894377 0.447442 0)
(0.894387 0.447439 0)
(0.894396 0.447433 0)
(0.894404 0.447424 0)
(0.894412 0.447412 0)
(0.894419 0.447399 0)
(0.894425 0.447384 0)
(0.89443 0.447368 0)
(0.894433 0.447351 0)
(0.894436 0.447335 0)
(0.894437 0.447318 0)
(0.894436 0.447303 0)
(0.894436 0.447288 0)
(0.894434 0.447275 0)
(0.894432 0.447262 0)
(0.894429 0.447251 0)
(0.894426 0.447241 0)
(0.894422 0.447233 0)
(0.894419 0.447226 0)
(0.894416 0.44722 0)
(0.894414 0.447215 0)
(0.894411 0.447211 0)
(0.894409 0.447208 0)
(0.894407 0.447205 0)
(0.894405 0.447203 0)
(0.894404 0.447202 0)
(0.894403 0.447201 0)
(0.894402 0.4472 0)
(0.894401 0.4472 0)
(0.894401 0.4472 0)
(0.8944 0.4472 0)
(0.8944 0.4472 0)
(0.8944 0.4472 0)
(0.8944 0.4472 0)
(0.8944 0.4472 0)
(0.8944 0.4472 0)
(0.8944 0.4472 0)
(0.8944 0.4472 0)
(0.8944 0.4472 0)
(0.8944 0.4472 0)
(0.8944 0.4472 0)
(0.8944 0.4472 0)
(0.8944 0.4472 0)
(0.8944 0.4472 0)
(0.8944 0.4472 0)
(0.8944 0.4472 0)
(0.8944 0.4472 0)
(0.8944 0.4472 0)
(0.8944 0.4472 0)
(0.8944 0.4472 0)
(0.8944 0.4472 0)
(0.8944 0.4472 0)
(0.8944 0.4472 0)
(0.8944 0.4472 0)
(0.8944 0.4472 0)
(0.8944 0.4472 0)
(0.8944 0.4472 0)
(0.8944 0.4472 0)
(0.8944 0.4472 0)
(0.8944 0.4472 0)
(0.8944 0.4472 0)
(0.8944 0.4472 0)
(0.8944 0.4472 0)
(0.8944 0.4472 0)
(0.8944 0.4472 0)
(0.8944 0.4472 0)
(0.8944 0.4472 0)
(0.8944 0.4472 0)
(0.8944 0.4472 0)
(0.8944 0.4472 0)
(0.8944 0.4472 0)
(0.8944 0.4472 0)
(0.8944 0.4472 0)
(0.8944 0.4472 0)
(0.8944 0.4472 0)
(0.8944 0.4472 0)
(0.8944 0.4472 0)
(0.8944 0.4472 0)
(0.8944 0.4472 0)
(0.8944 0.4472 0)
(0.8944 0.4472 0)
(0.8944 0.4472 0)
(0.8944 0.4472 0)
(0.8944 0.4472 0)
(0.8944 0.4472 0)
(0.8944 0.4472 0)
(0.8944 0.4472 0)
(0.8944 0.4472 0)
(0.8944 0.4472 0)
(0.8944 0.4472 0)
(0.8944 0.4472 0)
(0.8944 0.4472 0)
(0.8944 0.4472 0)
(0.8944 0.4472 0)
(0.8944 0.4472 0)
(0.8944 0.4472 0)
(0.8944 0.4472 0)
(0.8944 0.4472 0)
(0.8944 0.4472 0)
(0.8944 0.4472 0)
(0.8944 0.4472 0)
(0.8944 0.4472 0)
(0.8944 0.4472 0)
(0.8944 0.4472 0)
(0.8944 0.4472 0)
(0.8944 0.4472 0)
(0.8944 0.4472 0)
(0.8944 0.447201 0)
(0.8944 0.4472 0)
(0.8944 0.447201 0)
(0.8944 0.447201 0)
(0.8944 0.447201 0)
(0.8944 0.447201 0)
(0.8944 0.447201 0)
(0.894401 0.447201 0)
(0.894401 0.447201 0)
(0.894402 0.4472 0)
(0.894404 0.4472 0)
(0.894405 0.447199 0)
(0.894407 0.447197 0)
(0.894409 0.447195 0)
(0.894411 0.447192 0)
(0.894414 0.447189 0)
(0.894416 0.447186 0)
(0.894418 0.447181 0)
(0.89442 0.447177 0)
(0.894422 0.447173 0)
(0.894422 0.44717 0)
(0.894421 0.447167 0)
(0.894419 0.447167 0)
(0.894415 0.447168 0)
(0.894409 0.447172 0)
(0.894402 0.447179 0)
(0.894394 0.44719 0)
(0.894384 0.447205 0)
(0.894373 0.447224 0)
(0.894362 0.447246 0)
(0.894351 0.447272 0)
(0.894341 0.447301 0)
(0.894332 0.447332 0)
(0.894325 0.447365 0)
(0.89432 0.447398 0)
(0.894318 0.44743 0)
(0.894317 0.447461 0)
(0.89432 0.447488 0)
(0.894325 0.447512 0)
(0.894333 0.447531 0)
(0.894343 0.447545 0)
(0.894353 0.447553 0)
(0.894365 0.447556 0)
(0.894378 0.447553 0)
(0.894391 0.447545 0)
(0.894402 0.447533 0)
(0.894413 0.447516 0)
(0.894423 0.447497 0)
(0.894432 0.447475 0)
(0.894439 0.447452 0)
(0.894444 0.447428 0)
(0.894448 0.447403 0)
(0.89445 0.44738 0)
(0.89445 0.447357 0)
(0.894449 0.447335 0)
(0.894448 0.447315 0)
(0.894445 0.447297 0)
(0.894442 0.44728 0)
(0.894438 0.447265 0)
(0.894433 0.447252 0)
(0.894429 0.447241 0)
(0.894425 0.447232 0)
(0.894421 0.447224 0)
(0.894417 0.447218 0)
(0.894414 0.447213 0)
(0.894411 0.447209 0)
(0.894409 0.447206 0)
(0.894406 0.447204 0)
(0.894405 0.447202 0)
(0.894403 0.447201 0)
(0.894402 0.4472 0)
(0.894401 0.4472 0)
(0.894401 0.4472 0)
(0.894401 0.447199 0)
(0.8944 0.447199 0)
(0.8944 0.447199 0)
(0.8944 0.4472 0)
(0.8944 0.4472 0)
(0.8944 0.4472 0)
(0.8944 0.4472 0)
(0.8944 0.4472 0)
(0.8944 0.4472 0)
(0.8944 0.4472 0)
(0.8944 0.4472 0)
(0.8944 0.4472 0)
(0.8944 0.4472 0)
(0.8944 0.4472 0)
(0.8944 0.4472 0)
(0.8944 0.4472 0)
(0.8944 0.4472 0)
(0.8944 0.4472 0)
(0.8944 0.4472 0)
(0.8944 0.4472 0)
(0.8944 0.4472 0)
(0.8944 0.4472 0)
(0.8944 0.4472 0)
(0.8944 0.4472 0)
(0.8944 0.4472 0)
(0.8944 0.4472 0)
(0.8944 0.4472 0)
(0.8944 0.4472 0)
(0.8944 0.4472 0)
(0.8944 0.4472 0)
(0.8944 0.4472 0)
(0.8944 0.4472 0)
(0.8944 0.4472 0)
(0.8944 0.4472 0)
(0.8944 0.4472 0)
(0.8944 0.4472 0)
(0.8944 0.4472 0)
(0.8944 0.4472 0)
(0.8944 0.4472 0)
(0.8944 0.4472 0)
(0.8944 0.4472 0)
(0.8944 0.4472 0)
(0.8944 0.4472 0)
(0.8944 0.4472 0)
(0.8944 0.4472 0)
(0.8944 0.4472 0)
(0.8944 0.4472 0)
(0.8944 0.4472 0)
(0.8944 0.4472 0)
(0.8944 0.4472 0)
(0.8944 0.4472 0)
(0.8944 0.4472 0)
(0.8944 0.4472 0)
(0.8944 0.4472 0)
(0.8944 0.4472 0)
(0.8944 0.4472 0)
(0.8944 0.4472 0)
(0.8944 0.4472 0)
(0.8944 0.4472 0)
(0.8944 0.4472 0)
(0.8944 0.4472 0)
(0.8944 0.4472 0)
(0.8944 0.4472 0)
(0.8944 0.4472 0)
(0.8944 0.4472 0)
(0.8944 0.4472 0)
(0.8944 0.4472 0)
(0.8944 0.4472 0)
(0.8944 0.4472 0)
(0.8944 0.4472 0)
(0.8944 0.4472 0)
(0.8944 0.4472 0)
(0.8944 0.4472 0)
(0.8944 0.4472 0)
(0.8944 0.4472 0)
(0.8944 0.4472 0)
(0.8944 0.4472 0)
(0.8944 0.4472 0)
(0.8944 0.447201 0)
(0.8944 0.447201 0)
(0.894399 0.447201 0)
(0.8944 0.447201 0)
(0.8944 0.447201 0)
(0.8944 0.447201 0)
(0.894401 0.447201 0)
(0.894402 0.447201 0)
(0.894403 0.447201 0)
(0.894404 0.4472 0)
(0.894406 0.447199 0)
(0.894408 0.447197 0)
(0.894411 0.447195 0)
(0.894414 0.447192 0)
(0.894416 0.447188 0)
(0.894419 0.447185 0)
(0.894422 0.447181 0)
(0.894423 0.447177 0)
(0.894424 0.447174 0)
(0.894424 0.447172 0)
(0.894421 0.447172 0)
(0.894417 0.447174 0)
(0.894411 0.44718 0)
(0.894403 0.447189 0)
(0.894393 0.447203 0)
(0.89438 0.447222 0)
(0.894368 0.447246 0)
(0.894354 0.447276 0)
(0.894339 0.447311 0)
(0.894325 0.44735 0)
(0.894313 0.447393 0)
(0.894303 0.447438 0)
(0.894295 0.447484 0)
(0.89429 0.44753 0)
(0.894289 0.447574 0)
(0.894291 0.447614 0)
(0.894297 0.44765 0)
(0.894306 0.44768 0)
(0.894318 0.447702 0)
(0.894332 0.447717 0)
(0.894348 0.447724 0)
(0.894365 0.447723 0)
(0.894382 0.447714 0)
(0.894399 0.447698 0)
(0.894415 0.447676 0)
(0.894429 0.447649 0)
(0.894441 0.447618 0)
(0.894451 0.447584 0)
(0.894459 0.447548 0)
(0.894465 0.447512 0)
(0.894468 0.447476 0)
(0.89447 0.447442 0)
(0.894469 0.447409 0)
(0.894467 0.447378 0)
(0.894464 0.44735 0)
(0.89446 0.447325 0)
(0.894455 0.447303 0)
(0.894449 0.447284 0)
(0.894444 0.447267 0)
(0.894438 0.447252 0)
(0.894432 0.44724 0)
(0.894427 0.44723 0)
(0.894422 0.447222 0)
(0.894418 0.447216 0)
(0.894414 0.447211 0)
(0.894411 0.447207 0)
(0.894408 0.447204 0)
(0.894406 0.447202 0)
(0.894404 0.447201 0)
(0.894403 0.4472 0)
(0.894402 0.447199 0)
(0.894401 0.447199 0)
(0.894401 0.447199 0)
(0.8944 0.447199 0)
(0.8944 0.447199 0)
(0.8944 0.447199 0)
(0.8944 0.447199 0)
(0.8944 0.4472 0)
(0.8944 0.4472 0)
(0.8944 0.4472 0)
(0.8944 0.4472 0)
(0.8944 0.4472 0)
(0.8944 0.4472 0)
(0.8944 0.4472 0)
(0.8944 0.4472 0)
(0.8944 0.4472 0)
(0.8944 0.4472 0)
(0.8944 0.4472 0)
(0.8944 0.4472 0)
(0.8944 0.4472 0)
(0.8944 0.4472 0)
(0.8944 0.4472 0)
(0.8944 0.4472 0)
(0.8944 0.4472 0)
(0.8944 0.4472 0)
(0.8944 0.4472 0)
(0.8944 0.4472 0)
(0.8944 0.4472 0)
(0.8944 0.4472 0)
(0.8944 0.4472 0)
(0.8944 0.4472 0)
(0.8944 0.4472 0)
(0.8944 0.4472 0)
(0.8944 0.4472 0)
(0.8944 0.4472 0)
(0.8944 0.4472 0)
(0.8944 0.4472 0)
(0.8944 0.4472 0)
(0.8944 0.4472 0)
(0.8944 0.4472 0)
(0.8944 0.4472 0)
(0.8944 0.4472 0)
(0.8944 0.4472 0)
(0.8944 0.4472 0)
(0.8944 0.4472 0)
(0.8944 0.4472 0)
(0.8944 0.4472 0)
(0.8944 0.4472 0)
(0.8944 0.4472 0)
(0.8944 0.4472 0)
(0.8944 0.4472 0)
(0.8944 0.4472 0)
(0.8944 0.4472 0)
(0.8944 0.4472 0)
(0.8944 0.4472 0)
(0.8944 0.4472 0)
(0.8944 0.4472 0)
(0.8944 0.4472 0)
(0.8944 0.4472 0)
(0.8944 0.4472 0)
(0.8944 0.4472 0)
(0.8944 0.4472 0)
(0.8944 0.4472 0)
(0.8944 0.4472 0)
(0.8944 0.4472 0)
(0.8944 0.4472 0)
(0.8944 0.4472 0)
(0.8944 0.4472 0)
(0.8944 0.4472 0)
(0.8944 0.4472 0)
(0.8944 0.4472 0)
(0.8944 0.4472 0)
(0.8944 0.4472 0)
(0.8944 0.4472 0)
(0.8944 0.4472 0)
(0.8944 0.4472 0)
(0.8944 0.4472 0)
(0.8944 0.4472 0)
(0.8944 0.4472 0)
(0.8944 0.447201 0)
(0.8944 0.447201 0)
(0.894399 0.447201 0)
(0.894399 0.447201 0)
(0.8944 0.447202 0)
(0.8944 0.447202 0)
(0.8944 0.447202 0)
(0.894401 0.447202 0)
(0.894402 0.447202 0)
(0.894403 0.447202 0)
(0.894405 0.447201 0)
(0.894407 0.447199 0)
(0.89441 0.447197 0)
(0.894413 0.447195 0)
(0.894416 0.447192 0)
(0.894419 0.447189 0)
(0.894422 0.447185 0)
(0.894424 0.447182 0)
(0.894426 0.447179 0)
(0.894425 0.447178 0)
(0.894423 0.447178 0)
(0.894419 0.447182 0)
(0.894412 0.447189 0)
(0.894403 0.447202 0)
(0.894391 0.44722 0)
(0.894376 0.447244 0)
(0.89436 0.447276 0)
(0.894341 0.447315 0)
(0.894323 0.44736 0)
(0.894304 0.447413 0)
(0.894287 0.447471 0)
(0.894272 0.447533 0)
(0.89426 0.447597 0)
(0.894252 0.447663 0)
(0.894248 0.447726 0)
(0.894249 0.447786 0)
(0.894255 0.447841 0)
(0.894266 0.447887 0)
(0.894281 0.447925 0)
(0.894299 0.447952 0)
(0.894321 0.447967 0)
(0.894344 0.447971 0)
(0.894368 0.447964 0)
(0.894391 0.447945 0)
(0.894414 0.447917 0)
(0.894435 0.447881 0)
(0.894453 0.447838 0)
(0.894469 0.447789 0)
(0.894481 0.447738 0)
(0.89449 0.447684 0)
(0.894496 0.447631 0)
(0.894499 0.447579 0)
(0.894499 0.447528 0)
(0.894497 0.447481 0)
(0.894492 0.447438 0)
(0.894487 0.447399 0)
(0.89448 0.447364 0)
(0.894472 0.447334 0)
(0.894465 0.447308 0)
(0.894457 0.447285 0)
(0.894449 0.447266 0)
(0.894441 0.44725 0)
(0.894434 0.447237 0)
(0.894428 0.447227 0)
(0.894422 0.447219 0)
(0.894418 0.447213 0)
(0.894413 0.447208 0)
(0.89441 0.447205 0)
(0.894407 0.447202 0)
(0.894405 0.447201 0)
(0.894403 0.4472 0)
(0.894402 0.447199 0)
(0.894401 0.447199 0)
(0.894401 0.447199 0)
(0.8944 0.447199 0)
(0.8944 0.447199 0)
(0.8944 0.447199 0)
(0.8944 0.447199 0)
(0.8944 0.447199 0)
(0.8944 0.447199 0)
(0.8944 0.4472 0)
(0.8944 0.4472 0)
(0.8944 0.4472 0)
(0.8944 0.4472 0)
(0.8944 0.4472 0)
(0.8944 0.4472 0)
(0.8944 0.4472 0)
(0.8944 0.4472 0)
(0.8944 0.4472 0)
(0.8944 0.4472 0)
(0.8944 0.4472 0)
(0.8944 0.4472 0)
(0.8944 0.4472 0)
(0.8944 0.4472 0)
(0.8944 0.4472 0)
(0.8944 0.4472 0)
(0.8944 0.4472 0)
(0.8944 0.4472 0)
(0.8944 0.4472 0)
(0.8944 0.4472 0)
(0.8944 0.4472 0)
(0.8944 0.4472 0)
(0.8944 0.4472 0)
(0.8944 0.4472 0)
(0.8944 0.4472 0)
(0.8944 0.4472 0)
(0.8944 0.4472 0)
(0.8944 0.4472 0)
(0.8944 0.4472 0)
(0.8944 0.4472 0)
(0.8944 0.4472 0)
(0.8944 0.4472 0)
(0.8944 0.4472 0)
(0.8944 0.4472 0)
(0.8944 0.4472 0)
(0.8944 0.4472 0)
(0.8944 0.4472 0)
(0.8944 0.4472 0)
(0.8944 0.4472 0)
(0.8944 0.4472 0)
(0.8944 0.4472 0)
(0.8944 0.4472 0)
(0.8944 0.4472 0)
(0.8944 0.4472 0)
(0.8944 0.4472 0)
(0.8944 0.4472 0)
(0.8944 0.4472 0)
(0.8944 0.4472 0)
(0.8944 0.4472 0)
(0.8944 0.4472 0)
(0.8944 0.4472 0)
(0.8944 0.4472 0)
(0.8944 0.4472 0)
(0.8944 0.4472 0)
(0.8944 0.4472 0)
(0.8944 0.4472 0)
(0.8944 0.4472 0)
(0.8944 0.4472 0)
(0.8944 0.4472 0)
(0.8944 0.4472 0)
(0.8944 0.4472 0)
(0.8944 0.4472 0)
(0.8944 0.4472 0)
(0.8944 0.4472 0)
(0.8944 0.4472 0)
(0.8944 0.4472 0)
(0.8944 0.4472 0)
(0.8944 0.4472 0)
(0.8944 0.447201 0)
(0.8944 0.447201 0)
(0.894399 0.447201 0)
(0.894399 0.447201 0)
(0.894399 0.447202 0)
(0.894399 0.447202 0)
(0.894399 0.447202 0)
(0.8944 0.447203 0)
(0.8944 0.447203 0)
(0.894401 0.447203 0)
(0.894402 0.447203 0)
(0.894404 0.447203 0)
(0.894406 0.447202 0)
(0.894409 0.4472 0)
(0.894412 0.447199 0)
(0.894415 0.447196 0)
(0.894418 0.447194 0)
(0.894421 0.44719 0)
(0.894425 0.447188 0)
(0.894426 0.447186 0)
(0.894426 0.447185 0)
(0.894424 0.447187 0)
(0.89442 0.447192 0)
(0.894412 0.447202 0)
(0.894402 0.447218 0)
(0.894387 0.447241 0)
(0.89437 0.447272 0)
(0.894349 0.447312 0)
(0.894326 0.447363 0)
(0.894301 0.447422 0)
(0.894277 0.447491 0)
(0.894253 0.447569 0)
(0.894231 0.447653 0)
(0.894213 0.447742 0)
(0.894199 0.447834 0)
(0.894192 0.447926 0)
(0.89419 0.448014 0)
(0.894195 0.448095 0)
(0.894207 0.448168 0)
(0.894225 0.448229 0)
(0.894249 0.448276 0)
(0.894277 0.448308 0)
(0.894309 0.448324 0)
(0.894342 0.448323 0)
(0.894376 0.448306 0)
(0.894409 0.448273 0)
(0.89444 0.448227 0)
(0.894468 0.44817 0)
(0.894492 0.448104 0)
(0.894511 0.448031 0)
(0.894526 0.447954 0)
(0.894535 0.447875 0)
(0.894541 0.447796 0)
(0.894542 0.447721 0)
(0.89454 0.447649 0)
(0.894535 0.447582 0)
(0.894528 0.447521 0)
(0.894518 0.447466 0)
(0.894508 0.447418 0)
(0.894497 0.447376 0)
(0.894485 0.44734 0)
(0.894474 0.44731 0)
(0.894464 0.447284 0)
(0.894453 0.447264 0)
(0.894444 0.447247 0)
(0.894436 0.447233 0)
(0.894428 0.447223 0)
(0.894422 0.447215 0)
(0.894417 0.447209 0)
(0.894412 0.447205 0)
(0.894409 0.447202 0)
(0.894406 0.4472 0)
(0.894404 0.447199 0)
(0.894402 0.447198 0)
(0.894401 0.447198 0)
(0.894401 0.447198 0)
(0.8944 0.447198 0)
(0.8944 0.447198 0)
(0.8944 0.447199 0)
(0.8944 0.447199 0)
(0.8944 0.447199 0)
(0.8944 0.447199 0)
(0.8944 0.447199 0)
(0.8944 0.4472 0)
(0.8944 0.4472 0)
(0.8944 0.4472 0)
(0.8944 0.4472 0)
(0.8944 0.4472 0)
(0.8944 0.4472 0)
(0.8944 0.4472 0)
(0.8944 0.4472 0)
(0.8944 0.4472 0)
(0.8944 0.4472 0)
(0.8944 0.4472 0)
(0.8944 0.4472 0)
(0.8944 0.4472 0)
(0.8944 0.4472 0)
(0.8944 0.4472 0)
(0.8944 0.4472 0)
(0.8944 0.4472 0)
(0.8944 0.4472 0)
(0.8944 0.4472 0)
(0.8944 0.4472 0)
(0.8944 0.4472 0)
(0.8944 0.4472 0)
(0.8944 0.4472 0)
(0.8944 0.4472 0)
(0.8944 0.4472 0)
(0.8944 0.4472 0)
(0.8944 0.4472 0)
(0.8944 0.4472 0)
(0.8944 0.4472 0)
(0.8944 0.4472 0)
(0.8944 0.4472 0)
(0.8944 0.4472 0)
(0.8944 0.4472 0)
(0.8944 0.4472 0)
(0.8944 0.4472 0)
(0.8944 0.4472 0)
(0.8944 0.4472 0)
(0.8944 0.4472 0)
(0.8944 0.4472 0)
(0.8944 0.4472 0)
(0.8944 0.4472 0)
(0.8944 0.4472 0)
(0.8944 0.4472 0)
(0.8944 0.4472 0)
(0.8944 0.4472 0)
(0.8944 0.4472 0)
(0.8944 0.4472 0)
(0.8944 0.4472 0)
(0.8944 0.4472 0)
(0.8944 0.4472 0)
(0.8944 0.4472 0)
(0.8944 0.4472 0)
(0.8944 0.4472 0)
(0.8944 0.4472 0)
(0.8944 0.4472 0)
(0.8944 0.4472 0)
(0.8944 0.4472 0)
(0.8944 0.4472 0)
(0.8944 0.4472 0)
(0.8944 0.4472 0)
(0.8944 0.4472 0)
(0.8944 0.4472 0)
(0.8944 0.4472 0)
(0.8944 0.4472 0)
(0.8944 0.4472 0)
(0.8944 0.4472 0)
(0.894399 0.4472 0)
(0.894399 0.447201 0)
(0.8944 0.447201 0)
(0.894399 0.447201 0)
(0.894399 0.447202 0)
(0.894399 0.447202 0)
(0.894399 0.447202 0)
(0.894399 0.447203 0)
(0.894399 0.447204 0)
(0.8944 0.447204 0)
(0.894401 0.447204 0)
(0.894402 0.447204 0)
(0.894404 0.447204 0)
(0.894407 0.447203 0)
(0.89441 0.447202 0)
(0.894413 0.447201 0)
(0.894417 0.447199 0)
(0.89442 0.447197 0)
(0.894424 0.447194 0)
(0.894426 0.447193 0)
(0.894426 0.447194 0)
(0.894424 0.447197 0)
(0.89442 0.447204 0)
(0.894411 0.447216 0)
(0.894399 0.447236 0)
(0.894382 0.447265 0)
(0.89436 0.447304 0)
(0.894335 0.447354 0)
(0.894306 0.447418 0)
(0.894274 0.447495 0)
(0.894241 0.447584 0)
(0.894208 0.447686 0)
(0.894177 0.447799 0)
(0.89415 0.44792 0)
(0.894128 0.448047 0)
(0.894114 0.448175 0)
(0.894107 0.448302 0)
(0.89411 0.448423 0)
(0.894121 0.448533 0)
(0.894142 0.44863 0)
(0.894171 0.44871 0)
(0.894208 0.44877 0)
(0.89425 0.448808 0)
(0.894296 0.448823 0)
(0.894344 0.448815 0)
(0.894392 0.448784 0)
(0.894438 0.448732 0)
(0.89448 0.448661 0)
(0.894518 0.448575 0)
(0.894549 0.448476 0)
(0.894573 0.448368 0)
(0.894591 0.448255 0)
(0.894602 0.448141 0)
(0.894606 0.448028 0)
(0.894605 0.447919 0)
(0.894599 0.447816 0)
(0.894589 0.447721 0)
(0.894577 0.447635 0)
(0.894562 0.447558 0)
(0.894546 0.447491 0)
(0.89453 0.447433 0)
(0.894514 0.447384 0)
(0.894498 0.447343 0)
(0.894483 0.447309 0)
(0.894469 0.447281 0)
(0.894457 0.447259 0)
(0.894446 0.447242 0)
(0.894436 0.447228 0)
(0.894428 0.447218 0)
(0.894421 0.447211 0)
(0.894415 0.447206 0)
(0.894411 0.447202 0)
(0.894407 0.4472 0)
(0.894405 0.447198 0)
(0.894403 0.447197 0)
(0.894401 0.447197 0)
(0.894401 0.447197 0)
(0.8944 0.447197 0)
(0.8944 0.447198 0)
(0.894399 0.447198 0)
(0.894399 0.447198 0)
(0.894399 0.447199 0)
(0.894399 0.447199 0)
(0.8944 0.447199 0)
(0.8944 0.447199 0)
(0.8944 0.4472 0)
(0.8944 0.4472 0)
(0.8944 0.4472 0)
(0.8944 0.4472 0)
(0.8944 0.4472 0)
(0.8944 0.4472 0)
(0.8944 0.4472 0)
(0.8944 0.4472 0)
(0.8944 0.4472 0)
(0.8944 0.4472 0)
(0.8944 0.4472 0)
(0.8944 0.4472 0)
(0.8944 0.4472 0)
(0.8944 0.4472 0)
(0.8944 0.4472 0)
(0.8944 0.4472 0)
(0.8944 0.4472 0)
(0.8944 0.4472 0)
(0.8944 0.4472 0)
(0.8944 0.4472 0)
(0.8944 0.4472 0)
(0.8944 0.4472 0)
(0.8944 0.4472 0)
(0.8944 0.4472 0)
(0.8944 0.4472 0)
(0.8944 0.4472 0)
(0.8944 0.4472 0)
(0.8944 0.4472 0)
(0.8944 0.4472 0)
(0.8944 0.4472 0)
(0.8944 0.4472 0)
(0.8944 0.4472 0)
(0.8944 0.4472 0)
(0.8944 0.4472 0)
(0.8944 0.4472 0)
(0.8944 0.4472 0)
(0.8944 0.4472 0)
(0.8944 0.4472 0)
(0.8944 0.4472 0)
(0.8944 0.4472 0)
(0.8944 0.4472 0)
(0.8944 0.4472 0)
(0.8944 0.4472 0)
(0.8944 0.4472 0)
(0.8944 0.4472 0)
(0.8944 0.4472 0)
(0.8944 0.4472 0)
(0.8944 0.4472 0)
(0.8944 0.4472 0)
(0.8944 0.4472 0)
(0.8944 0.4472 0)
(0.8944 0.4472 0)
(0.8944 0.4472 0)
(0.8944 0.4472 0)
(0.8944 0.4472 0)
(0.8944 0.4472 0)
(0.8944 0.4472 0)
(0.8944 0.4472 0)
(0.8944 0.4472 0)
(0.8944 0.4472 0)
(0.8944 0.4472 0)
(0.8944 0.4472 0)
(0.8944 0.4472 0)
(0.8944 0.4472 0)
(0.8944 0.447201 0)
(0.894399 0.447201 0)
(0.894399 0.447201 0)
(0.894399 0.447201 0)
(0.894399 0.447202 0)
(0.894399 0.447202 0)
(0.894399 0.447203 0)
(0.894399 0.447203 0)
(0.894399 0.447204 0)
(0.894399 0.447205 0)
(0.8944 0.447206 0)
(0.894401 0.447206 0)
(0.894402 0.447206 0)
(0.894405 0.447206 0)
(0.894407 0.447206 0)
(0.894411 0.447205 0)
(0.894414 0.447204 0)
(0.894418 0.447203 0)
(0.894421 0.447202 0)
(0.894424 0.447202 0)
(0.894425 0.447203 0)
(0.894423 0.447208 0)
(0.894418 0.447217 0)
(0.894409 0.447233 0)
(0.894395 0.447256 0)
(0.894375 0.447291 0)
(0.894349 0.447339 0)
(0.894317 0.447401 0)
(0.89428 0.447479 0)
(0.89424 0.447576 0)
(0.894196 0.447691 0)
(0.894151 0.447822 0)
(0.894108 0.44797 0)
(0.894068 0.44813 0)
(0.894035 0.448302 0)
(0.894009 0.448479 0)
(0.893994 0.448657 0)
(0.89399 0.448831 0)
(0.893999 0.448996 0)
(0.894021 0.449145 0)
(0.894054 0.449273 0)
(0.894099 0.449377 0)
(0.894154 0.449454 0)
(0.894216 0.449499 0)
(0.894282 0.449513 0)
(0.894351 0.449494 0)
(0.894418 0.449444 0)
(0.894482 0.449365 0)
(0.894541 0.44926 0)
(0.894591 0.449133 0)
(0.894632 0.44899 0)
(0.894664 0.448834 0)
(0.894685 0.448672 0)
(0.894697 0.448509 0)
(0.894699 0.448348 0)
(0.894694 0.448193 0)
(0.894683 0.448047 0)
(0.894666 0.447913 0)
(0.894646 0.447793 0)
(0.894623 0.447685 0)
(0.894599 0.447592 0)
(0.894575 0.447512 0)
(0.894552 0.447444 0)
(0.89453 0.447388 0)
(0.894509 0.447342 0)
(0.89449 0.447305 0)
(0.894473 0.447276 0)
(0.894459 0.447253 0)
(0.894446 0.447236 0)
(0.894435 0.447223 0)
(0.894426 0.447213 0)
(0.894419 0.447206 0)
(0.894413 0.447202 0)