/*--------------------------------*- C++ -*----------------------------------*\
  =========                 |
  \\      /  F ield         | OpenFOAM: The Open Source CFD Toolbox
   \\    /   O peration     | Website:  https://openfoam.org
    \\  /    A nd           | Version:  6
     \\/     M anipulation  |
\*---------------------------------------------------------------------------*/
FoamFile
{
    version     2.0;
    format      ascii;
    class       volVectorField;
    location    "3.64";
    object      U;
}
// * * * * * * * * * * * * * * * * * * * * * * * * * * * * * * * * * * * * * //

dimensions      [0 1 -1 0 0 0 0];

internalField   nonuniform List<vector> 
10000
(
(0.8944 0.4472 0)
(0.8944 0.4472 0)
(0.8944 0.4472 0)
(0.8944 0.4472 0)
(0.8944 0.4472 0)
(0.8944 0.4472 0)
(0.8944 0.4472 0)
(0.8944 0.4472 0)
(0.8944 0.4472 0)
(0.8944 0.4472 0)
(0.8944 0.4472 0)
(0.8944 0.4472 0)
(0.8944 0.4472 0)
(0.8944 0.4472 0)
(0.8944 0.4472 0)
(0.8944 0.4472 0)
(0.8944 0.4472 0)
(0.8944 0.4472 0)
(0.8944 0.4472 0)
(0.8944 0.4472 0)
(0.8944 0.4472 0)
(0.8944 0.4472 0)
(0.8944 0.4472 0)
(0.8944 0.4472 0)
(0.8944 0.4472 0)
(0.8944 0.4472 0)
(0.8944 0.4472 0)
(0.8944 0.4472 0)
(0.8944 0.4472 0)
(0.8944 0.4472 0)
(0.8944 0.4472 0)
(0.8944 0.4472 0)
(0.8944 0.4472 0)
(0.8944 0.4472 0)
(0.8944 0.4472 0)
(0.8944 0.4472 0)
(0.8944 0.4472 0)
(0.8944 0.4472 0)
(0.8944 0.4472 0)
(0.8944 0.4472 0)
(0.8944 0.447201 0)
(0.8944 0.447201 0)
(0.8944 0.447201 0)
(0.8944 0.447202 0)
(0.8944 0.447202 0)
(0.8944 0.447202 0)
(0.894402 0.447202 0)
(0.894404 0.447201 0)
(0.894406 0.447199 0)
(0.89441 0.447196 0)
(0.894413 0.447191 0)
(0.894417 0.447185 0)
(0.89442 0.447177 0)
(0.894422 0.447168 0)
(0.894422 0.447159 0)
(0.894419 0.447151 0)
(0.894413 0.447146 0)
(0.894404 0.447145 0)
(0.894393 0.447148 0)
(0.894379 0.447157 0)
(0.894365 0.447173 0)
(0.894351 0.447196 0)
(0.894341 0.447225 0)
(0.894334 0.447257 0)
(0.894333 0.447292 0)
(0.894338 0.447325 0)
(0.894348 0.447354 0)
(0.894362 0.447378 0)
(0.894381 0.447394 0)
(0.894398 0.447399 0)
(0.894415 0.447397 0)
(0.894432 0.447385 0)
(0.894441 0.447364 0)
(0.894446 0.447342 0)
(0.894449 0.447315 0)
(0.894446 0.447287 0)
(0.89444 0.447262 0)
(0.894433 0.44724 0)
(0.894424 0.447221 0)
(0.894415 0.447207 0)
(0.894408 0.447197 0)
(0.894403 0.447191 0)
(0.894399 0.447189 0)
(0.894396 0.447188 0)
(0.894395 0.447189 0)
(0.894395 0.44719 0)
(0.894395 0.447192 0)
(0.894396 0.447194 0)
(0.894397 0.447196 0)
(0.894398 0.447197 0)
(0.894398 0.447198 0)
(0.894399 0.447199 0)
(0.894399 0.447199 0)
(0.8944 0.4472 0)
(0.8944 0.4472 0)
(0.8944 0.4472 0)
(0.8944 0.4472 0)
(0.8944 0.4472 0)
(0.8944 0.4472 0)
(0.8944 0.4472 0)
(0.8944 0.4472 0)
(0.8944 0.4472 0)
(0.8944 0.4472 0)
(0.8944 0.4472 0)
(0.8944 0.4472 0)
(0.8944 0.4472 0)
(0.8944 0.4472 0)
(0.8944 0.4472 0)
(0.8944 0.4472 0)
(0.8944 0.4472 0)
(0.8944 0.4472 0)
(0.8944 0.4472 0)
(0.8944 0.4472 0)
(0.8944 0.4472 0)
(0.8944 0.4472 0)
(0.8944 0.4472 0)
(0.8944 0.4472 0)
(0.8944 0.4472 0)
(0.8944 0.4472 0)
(0.8944 0.4472 0)
(0.8944 0.4472 0)
(0.8944 0.4472 0)
(0.8944 0.4472 0)
(0.8944 0.4472 0)
(0.8944 0.4472 0)
(0.8944 0.4472 0)
(0.8944 0.4472 0)
(0.8944 0.4472 0)
(0.8944 0.4472 0)
(0.8944 0.4472 0)
(0.8944 0.4472 0)
(0.8944 0.4472 0)
(0.8944 0.4472 0)
(0.8944 0.4472 0)
(0.8944 0.4472 0)
(0.8944 0.4472 0)
(0.8944 0.4472 0)
(0.8944 0.4472 0)
(0.8944 0.4472 0)
(0.894399 0.4472 0)
(0.894399 0.447201 0)
(0.8944 0.447201 0)
(0.894399 0.447202 0)
(0.894399 0.447203 0)
(0.8944 0.447203 0)
(0.894401 0.447204 0)
(0.894402 0.447204 0)
(0.894405 0.447203 0)
(0.894409 0.447201 0)
(0.894413 0.447197 0)
(0.894418 0.447191 0)
(0.894424 0.447183 0)
(0.894428 0.447173 0)
(0.89443 0.447163 0)
(0.89443 0.447153 0)
(0.894426 0.447145 0)
(0.894418 0.447141 0)
(0.894405 0.447143 0)
(0.894388 0.447152 0)
(0.894369 0.44717 0)
(0.894347 0.447196 0)
(0.894325 0.447233 0)
(0.894307 0.447279 0)
(0.894294 0.447331 0)
(0.894288 0.447385 0)
(0.894291 0.447441 0)
(0.894303 0.447493 0)
(0.894324 0.447534 0)
(0.894349 0.447565 0)
(0.89438 0.447582 0)
(0.89441 0.447582 0)
(0.894438 0.447569 0)
(0.894463 0.447542 0)
(0.894478 0.447502 0)
(0.894485 0.447458 0)
(0.894487 0.447409 0)
(0.894482 0.44736 0)
(0.89447 0.447314 0)
(0.894456 0.447275 0)
(0.894441 0.447243 0)
(0.894427 0.447218 0)
(0.894415 0.447202 0)
(0.894405 0.447192 0)
(0.894399 0.447187 0)
(0.894395 0.447185 0)
(0.894393 0.447186 0)
(0.894393 0.447188 0)
(0.894394 0.447191 0)
(0.894395 0.447193 0)
(0.894396 0.447195 0)
(0.894397 0.447197 0)
(0.894398 0.447198 0)
(0.894399 0.447199 0)
(0.894399 0.447199 0)
(0.894399 0.4472 0)
(0.8944 0.4472 0)
(0.8944 0.4472 0)
(0.8944 0.4472 0)
(0.8944 0.4472 0)
(0.8944 0.4472 0)
(0.8944 0.4472 0)
(0.8944 0.4472 0)
(0.8944 0.4472 0)
(0.8944 0.4472 0)
(0.8944 0.4472 0)
(0.8944 0.4472 0)
(0.8944 0.4472 0)
(0.8944 0.4472 0)
(0.8944 0.4472 0)
(0.8944 0.4472 0)
(0.8944 0.4472 0)
(0.8944 0.4472 0)
(0.8944 0.4472 0)
(0.8944 0.4472 0)
(0.8944 0.4472 0)
(0.8944 0.4472 0)
(0.8944 0.4472 0)
(0.8944 0.4472 0)
(0.8944 0.4472 0)
(0.8944 0.4472 0)
(0.8944 0.4472 0)
(0.8944 0.4472 0)
(0.8944 0.4472 0)
(0.8944 0.4472 0)
(0.8944 0.4472 0)
(0.8944 0.4472 0)
(0.8944 0.4472 0)
(0.8944 0.4472 0)
(0.8944 0.4472 0)
(0.8944 0.4472 0)
(0.8944 0.4472 0)
(0.8944 0.4472 0)
(0.8944 0.4472 0)
(0.8944 0.4472 0)
(0.8944 0.4472 0)
(0.8944 0.4472 0)
(0.8944 0.4472 0)
(0.8944 0.4472 0)
(0.8944 0.447201 0)
(0.894399 0.447201 0)
(0.894399 0.447201 0)
(0.894399 0.447202 0)
(0.894399 0.447203 0)
(0.894399 0.447204 0)
(0.894399 0.447205 0)
(0.894401 0.447206 0)
(0.894403 0.447207 0)
(0.894407 0.447206 0)
(0.894411 0.447203 0)
(0.894418 0.447199 0)
(0.894425 0.447192 0)
(0.894431 0.447182 0)
(0.894437 0.447172 0)
(0.894439 0.447161 0)
(0.894438 0.447153 0)
(0.894431 0.447149 0)
(0.894419 0.447153 0)
(0.894401 0.447165 0)
(0.894377 0.447189 0)
(0.894347 0.447225 0)
(0.894315 0.447276 0)
(0.894283 0.44734 0)
(0.894253 0.447416 0)
(0.89423 0.447502 0)
(0.894217 0.447595 0)
(0.894217 0.447687 0)
(0.89423 0.447773 0)
(0.894257 0.447848 0)
(0.894296 0.447903 0)
(0.894343 0.447937 0)
(0.894395 0.447945 0)
(0.894446 0.447926 0)
(0.894489 0.447885 0)
(0.894525 0.447824 0)
(0.894548 0.447744 0)
(0.894557 0.447657 0)
(0.894555 0.447567 0)
(0.894542 0.447479 0)
(0.89452 0.4474 0)
(0.894495 0.447332 0)
(0.894469 0.447278 0)
(0.894444 0.447237 0)
(0.894424 0.44721 0)
(0.894409 0.447193 0)
(0.894399 0.447185 0)
(0.894393 0.447182 0)
(0.894391 0.447183 0)
(0.894391 0.447186 0)
(0.894392 0.447189 0)
(0.894393 0.447192 0)
(0.894395 0.447195 0)
(0.894397 0.447197 0)
(0.894398 0.447198 0)
(0.894399 0.447199 0)
(0.894399 0.447199 0)
(0.8944 0.4472 0)
(0.8944 0.4472 0)
(0.8944 0.4472 0)
(0.8944 0.4472 0)
(0.8944 0.4472 0)
(0.8944 0.4472 0)
(0.8944 0.4472 0)
(0.8944 0.4472 0)
(0.8944 0.4472 0)
(0.8944 0.4472 0)
(0.8944 0.4472 0)
(0.8944 0.4472 0)
(0.8944 0.4472 0)
(0.8944 0.4472 0)
(0.8944 0.4472 0)
(0.8944 0.4472 0)
(0.8944 0.4472 0)
(0.8944 0.4472 0)
(0.8944 0.4472 0)
(0.8944 0.4472 0)
(0.8944 0.4472 0)
(0.8944 0.4472 0)
(0.8944 0.4472 0)
(0.8944 0.4472 0)
(0.8944 0.4472 0)
(0.8944 0.4472 0)
(0.8944 0.4472 0)
(0.8944 0.4472 0)
(0.8944 0.4472 0)
(0.8944 0.4472 0)
(0.8944 0.4472 0)
(0.8944 0.4472 0)
(0.8944 0.4472 0)
(0.8944 0.4472 0)
(0.8944 0.4472 0)
(0.8944 0.4472 0)
(0.8944 0.4472 0)
(0.8944 0.4472 0)
(0.8944 0.4472 0)
(0.8944 0.4472 0)
(0.8944 0.4472 0)
(0.8944 0.4472 0)
(0.8944 0.4472 0)
(0.894399 0.447201 0)
(0.894399 0.447201 0)
(0.894399 0.447202 0)
(0.894399 0.447204 0)
(0.894398 0.447205 0)
(0.894398 0.447207 0)
(0.894399 0.447208 0)
(0.894401 0.44721 0)
(0.894404 0.447211 0)
(0.894409 0.447211 0)
(0.894415 0.447208 0)
(0.894423 0.447203 0)
(0.894432 0.447195 0)
(0.89444 0.447186 0)
(0.894446 0.447177 0)
(0.894447 0.44717 0)
(0.894442 0.447168 0)
(0.89443 0.447177 0)
(0.89441 0.447197 0)
(0.894381 0.447234 0)
(0.894345 0.44729 0)
(0.894303 0.447367 0)
(0.894255 0.447464 0)
(0.894206 0.447583 0)
(0.894162 0.44772 0)
(0.894125 0.44787 0)
(0.894101 0.448029 0)
(0.894096 0.448189 0)
(0.894112 0.448338 0)
(0.89415 0.448467 0)
(0.894207 0.448567 0)
(0.894282 0.448629 0)
(0.894365 0.448647 0)
(0.894452 0.448621 0)
(0.894532 0.448551 0)
(0.894599 0.448443 0)
(0.89465 0.448304 0)
(0.894679 0.448145 0)
(0.894684 0.447978 0)
(0.894669 0.447815 0)
(0.89464 0.447661 0)
(0.894599 0.447526 0)
(0.894553 0.447415 0)
(0.894509 0.447327 0)
(0.894469 0.447263 0)
(0.894437 0.447221 0)
(0.894414 0.447195 0)
(0.894399 0.447183 0)
(0.894391 0.447179 0)
(0.894388 0.44718 0)
(0.894388 0.447184 0)
(0.89439 0.447188 0)
(0.894392 0.447192 0)
(0.894395 0.447194 0)
(0.894396 0.447197 0)
(0.894398 0.447198 0)
(0.894399 0.447199 0)
(0.894399 0.447199 0)
(0.8944 0.4472 0)
(0.8944 0.4472 0)
(0.8944 0.4472 0)
(0.8944 0.4472 0)
(0.8944 0.4472 0)
(0.8944 0.4472 0)
(0.8944 0.4472 0)
(0.8944 0.4472 0)
(0.8944 0.4472 0)
(0.8944 0.4472 0)
(0.8944 0.4472 0)
(0.8944 0.4472 0)
(0.8944 0.4472 0)
(0.8944 0.4472 0)
(0.8944 0.4472 0)
(0.8944 0.4472 0)
(0.8944 0.4472 0)
(0.8944 0.4472 0)
(0.8944 0.4472 0)
(0.8944 0.4472 0)
(0.8944 0.4472 0)
(0.8944 0.4472 0)
(0.8944 0.4472 0)
(0.8944 0.4472 0)
(0.8944 0.4472 0)
(0.8944 0.4472 0)
(0.8944 0.4472 0)
(0.8944 0.4472 0)
(0.8944 0.4472 0)
(0.8944 0.4472 0)
(0.894401 0.4472 0)
(0.894399 0.4472 0)
(0.8944 0.4472 0)
(0.8944 0.4472 0)
(0.894399 0.4472 0)
(0.8944 0.4472 0)
(0.8944 0.447201 0)
(0.8944 0.4472 0)
(0.8944 0.4472 0)
(0.8944 0.4472 0)
(0.8944 0.447201 0)
(0.8944 0.447201 0)
(0.894399 0.447202 0)
(0.894398 0.447202 0)
(0.894398 0.447203 0)
(0.894397 0.447205 0)
(0.894397 0.447208 0)
(0.894397 0.44721 0)
(0.894398 0.447213 0)
(0.8944 0.447216 0)
(0.894404 0.447217 0)
(0.894411 0.447218 0)
(0.89442 0.447215 0)
(0.89443 0.447211 0)
(0.89444 0.447204 0)
(0.894449 0.447197 0)
(0.894452 0.447193 0)
(0.894449 0.447197 0)
(0.894437 0.447212 0)
(0.894414 0.447246 0)
(0.894378 0.447304 0)
(0.894332 0.44739 0)
(0.894275 0.447509 0)
(0.894209 0.447662 0)
(0.894138 0.44785 0)
(0.894066 0.448071 0)
(0.893998 0.448319 0)
(0.893941 0.44859 0)
(0.893904 0.448873 0)
(0.893893 0.449153 0)
(0.893914 0.449417 0)
(0.893968 0.44965 0)
(0.894059 0.449831 0)
(0.894178 0.449946 0)
(0.894317 0.449985 0)
(0.894462 0.449944 0)
(0.894603 0.449824 0)
(0.89473 0.44963 0)
(0.894827 0.449377 0)
(0.894887 0.449088 0)
(0.894911 0.44878 0)
(0.894899 0.448471 0)
(0.894857 0.448179 0)
(0.894792 0.447919 0)
(0.894716 0.447698 0)
(0.894636 0.447522 0)
(0.894563 0.447388 0)
(0.8945 0.447294 0)
(0.894452 0.447233 0)
(0.894419 0.447198 0)
(0.894398 0.447181 0)
(0.894388 0.447176 0)
(0.894385 0.447178 0)
(0.894386 0.447182 0)
(0.894389 0.447187 0)
(0.894392 0.447191 0)
(0.894394 0.447195 0)
(0.894396 0.447197 0)
(0.894398 0.447198 0)
(0.894399 0.447199 0)
(0.894399 0.4472 0)
(0.8944 0.4472 0)
(0.8944 0.4472 0)
(0.8944 0.4472 0)
(0.8944 0.4472 0)
(0.8944 0.4472 0)
(0.8944 0.4472 0)
(0.8944 0.4472 0)
(0.8944 0.4472 0)
(0.8944 0.4472 0)
(0.8944 0.4472 0)
(0.8944 0.4472 0)
(0.8944 0.4472 0)
(0.8944 0.4472 0)
(0.8944 0.4472 0)
(0.8944 0.4472 0)
(0.8944 0.4472 0)
(0.8944 0.4472 0)
(0.8944 0.4472 0)
(0.8944 0.4472 0)
(0.8944 0.4472 0)
(0.8944 0.4472 0)
(0.8944 0.4472 0)
(0.8944 0.4472 0)
(0.8944 0.447201 0)
(0.8944 0.447199 0)
(0.8944 0.447201 0)
(0.8944 0.4472 0)
(0.8944 0.4472 0)
(0.8944 0.4472 0)
(0.8944 0.4472 0)
(0.894399 0.4472 0)
(0.894401 0.4472 0)
(0.894399 0.4472 0)
(0.8944 0.447199 0)
(0.8944 0.4472 0)
(0.8944 0.4472 0)
(0.8944 0.4472 0)
(0.8944 0.4472 0)
(0.8944 0.4472 0)
(0.894399 0.447201 0)
(0.894399 0.447201 0)
(0.894398 0.447203 0)
(0.894398 0.447204 0)
(0.894397 0.447206 0)
(0.894396 0.447208 0)
(0.894395 0.447212 0)
(0.894396 0.447216 0)
(0.894397 0.44722 0)
(0.8944 0.447224 0)
(0.894405 0.447227 0)
(0.894414 0.447228 0)
(0.894425 0.447227 0)
(0.894437 0.447224 0)
(0.894447 0.447221 0)
(0.894454 0.447222 0)
(0.894452 0.447231 0)
(0.894439 0.447256 0)
(0.894411 0.447305 0)
(0.894366 0.447388 0)
(0.894303 0.447514 0)
(0.894223 0.44769 0)
(0.894129 0.447921 0)
(0.894025 0.44821 0)
(0.893915 0.448557 0)
(0.893804 0.448957 0)
(0.893702 0.449402 0)
(0.893615 0.449881 0)
(0.893557 0.450378 0)
(0.893538 0.450873 0)
(0.893567 0.451344 0)
(0.89365 0.451762 0)
(0.893794 0.452094 0)
(0.893988 0.452318 0)
(0.894219 0.452413 0)
(0.894472 0.452363 0)
(0.894725 0.452163 0)
(0.894952 0.451828 0)
(0.895133 0.451383 0)
(0.895253 0.450861 0)
(0.895312 0.450295 0)
(0.895309 0.449719 0)
(0.895248 0.449171 0)
(0.895143 0.448678 0)
(0.895015 0.448255 0)
(0.894877 0.44791 0)
(0.894744 0.447645 0)
(0.894628 0.447453 0)
(0.894534 0.447323 0)
(0.894466 0.447243 0)
(0.894422 0.447199 0)
(0.894396 0.447179 0)
(0.894385 0.447174 0)
(0.894382 0.447176 0)
(0.894384 0.447182 0)
(0.894388 0.447187 0)
(0.894391 0.447192 0)
(0.894395 0.447195 0)
(0.894397 0.447197 0)
(0.894398 0.447199 0)
(0.894399 0.447199 0)
(0.8944 0.4472 0)
(0.8944 0.4472 0)
(0.8944 0.4472 0)
(0.8944 0.4472 0)
(0.8944 0.4472 0)
(0.8944 0.4472 0)
(0.8944 0.4472 0)
(0.8944 0.4472 0)
(0.8944 0.4472 0)
(0.8944 0.4472 0)
(0.8944 0.4472 0)
(0.8944 0.4472 0)
(0.8944 0.4472 0)
(0.8944 0.4472 0)
(0.8944 0.4472 0)
(0.8944 0.4472 0)
(0.8944 0.4472 0)
(0.8944 0.4472 0)
(0.8944 0.4472 0)
(0.8944 0.4472 0)
(0.8944 0.4472 0)
(0.8944 0.4472 0)
(0.8944 0.4472 0)
(0.8944 0.447201 0)
(0.894399 0.447199 0)
(0.894401 0.447201 0)
(0.8944 0.447199 0)
(0.8944 0.4472 0)
(0.8944 0.4472 0)
(0.894399 0.4472 0)
(0.8944 0.4472 0)
(0.8944 0.447201 0)
(0.894399 0.447199 0)
(0.894401 0.4472 0)
(0.894399 0.447201 0)
(0.894399 0.4472 0)
(0.894401 0.4472 0)
(0.894399 0.4472 0)
(0.894399 0.447201 0)
(0.894399 0.447202 0)
(0.894398 0.447202 0)
(0.894397 0.447204 0)
(0.894397 0.447206 0)
(0.894395 0.447209 0)
(0.894393 0.447213 0)
(0.894393 0.447218 0)
(0.894393 0.447224 0)
(0.894395 0.44723 0)
(0.8944 0.447235 0)
(0.894407 0.44724 0)
(0.894417 0.447243 0)
(0.89443 0.447245 0)
(0.894442 0.447247 0)
(0.89445 0.447253 0)
(0.894449 0.447268 0)
(0.894435 0.447303 0)
(0.894402 0.447368 0)
(0.894344 0.447477 0)
(0.89426 0.447645 0)
(0.894149 0.447886 0)
(0.894014 0.448211 0)
(0.893856 0.448628 0)
(0.893686 0.44914 0)
(0.893511 0.449744 0)
(0.893337 0.450433 0)
(0.893175 0.451194 0)
(0.89304 0.452008 0)
(0.892948 0.452851 0)
(0.892913 0.453694 0)
(0.892946 0.454504 0)
(0.893073 0.455231 0)
(0.893296 0.45583 0)
(0.893603 0.456265 0)
(0.893986 0.456489 0)
(0.894422 0.45647 0)
(0.894872 0.456196 0)
(0.895287 0.455679 0)
(0.895627 0.454952 0)
(0.895874 0.454058 0)
(0.896011 0.453053 0)
(0.896027 0.452015 0)
(0.895937 0.451014 0)
(0.89577 0.450098 0)
(0.895554 0.449304 0)
(0.895315 0.448652 0)
(0.89508 0.448144 0)
(0.89487 0.44777 0)
(0.894697 0.44751 0)
(0.894566 0.447344 0)
(0.894476 0.447246 0)
(0.894421 0.447196 0)
(0.894392 0.447176 0)
(0.894381 0.447172 0)
(0.89438 0.447176 0)
(0.894383 0.447182 0)
(0.894388 0.447188 0)
(0.894392 0.447193 0)
(0.894395 0.447196 0)
(0.894397 0.447198 0)
(0.894399 0.447199 0)
(0.894399 0.4472 0)
(0.8944 0.4472 0)
(0.8944 0.4472 0)
(0.8944 0.4472 0)
(0.8944 0.4472 0)
(0.8944 0.4472 0)
(0.8944 0.4472 0)
(0.8944 0.4472 0)
(0.8944 0.4472 0)
(0.8944 0.4472 0)
(0.8944 0.4472 0)
(0.8944 0.4472 0)
(0.8944 0.4472 0)
(0.8944 0.4472 0)
(0.8944 0.4472 0)
(0.8944 0.4472 0)
(0.8944 0.4472 0)
(0.8944 0.4472 0)
(0.8944 0.4472 0)
(0.8944 0.4472 0)
(0.8944 0.4472 0)
(0.8944 0.4472 0)
(0.8944 0.4472 0)
(0.8944 0.4472 0)
(0.8944 0.4472 0)
(0.894401 0.4472 0)
(0.894399 0.4472 0)
(0.8944 0.4472 0)
(0.8944 0.4472 0)
(0.8944 0.447201 0)
(0.894401 0.447199 0)
(0.894398 0.4472 0)
(0.894402 0.447199 0)
(0.8944 0.447202 0)
(0.894398 0.447199 0)
(0.894402 0.4472 0)
(0.8944 0.447201 0)
(0.894399 0.4472 0)
(0.894399 0.447202 0)
(0.894398 0.447202 0)
(0.894397 0.447204 0)
(0.894396 0.447206 0)
(0.894394 0.44721 0)
(0.894392 0.447214 0)
(0.89439 0.447219 0)
(0.89439 0.447227 0)
(0.89439 0.447235 0)
(0.894393 0.447243 0)
(0.894399 0.447251 0)
(0.894408 0.447258 0)
(0.89442 0.447265 0)
(0.894432 0.447272 0)
(0.894442 0.447284 0)
(0.894443 0.447307 0)
(0.894427 0.44735 0)
(0.894387 0.44743 0)
(0.894317 0.447564 0)
(0.894208 0.447772 0)
(0.894057 0.448076 0)
(0.893866 0.448499 0)
(0.893637 0.449055 0)
(0.893378 0.449756 0)
(0.893101 0.450603 0)
(0.892817 0.451591 0)
(0.89254 0.452706 0)
(0.892285 0.453926 0)
(0.892069 0.455223 0)
(0.891914 0.456562 0)
(0.891837 0.457904 0)
(0.891865 0.459197 0)
(0.892034 0.460375 0)
(0.892345 0.461391 0)
(0.892805 0.462173 0)
(0.893414 0.462647 0)
(0.894132 0.462766 0)
(0.894897 0.462499 0)
(0.895639 0.461837 0)
(0.896299 0.46079 0)
(0.896817 0.459407 0)
(0.897131 0.457783 0)
(0.897223 0.456041 0)
(0.89712 0.4543 0)
(0.896864 0.452664 0)
(0.896504 0.45122 0)
(0.896093 0.45002 0)
(0.895684 0.449074 0)
(0.895311 0.44837 0)
(0.894999 0.447874 0)
(0.894758 0.447547 0)
(0.894586 0.447349 0)
(0.894476 0.44724 0)
(0.894414 0.447189 0)
(0.894386 0.447172 0)
(0.894377 0.447171 0)
(0.894378 0.447177 0)
(0.894383 0.447184 0)
(0.894388 0.44719 0)
(0.894393 0.447194 0)
(0.894396 0.447197 0)
(0.894398 0.447198 0)
(0.894399 0.447199 0)
(0.8944 0.4472 0)
(0.8944 0.4472 0)
(0.8944 0.4472 0)
(0.8944 0.4472 0)
(0.8944 0.4472 0)
(0.8944 0.4472 0)
(0.8944 0.4472 0)
(0.8944 0.4472 0)
(0.8944 0.4472 0)
(0.8944 0.4472 0)
(0.8944 0.4472 0)
(0.8944 0.4472 0)
(0.8944 0.4472 0)
(0.8944 0.4472 0)
(0.8944 0.4472 0)
(0.8944 0.4472 0)
(0.8944 0.4472 0)
(0.8944 0.4472 0)
(0.8944 0.4472 0)
(0.8944 0.4472 0)
(0.8944 0.4472 0)
(0.8944 0.447199 0)
(0.8944 0.4472 0)
(0.8944 0.4472 0)
(0.8944 0.4472 0)
(0.8944 0.447201 0)
(0.894401 0.447199 0)
(0.894399 0.447201 0)
(0.894402 0.4472 0)
(0.894399 0.447199 0)
(0.8944 0.4472 0)
(0.894403 0.447201 0)
(0.894395 0.4472 0)
(0.894402 0.447199 0)
(0.894401 0.447202 0)
(0.894399 0.4472 0)
(0.894399 0.447201 0)
(0.894398 0.447203 0)
(0.894397 0.447204 0)
(0.894396 0.447206 0)
(0.894395 0.44721 0)
(0.89439 0.447215 0)
(0.894388 0.447221 0)
(0.894386 0.447229 0)
(0.894385 0.447239 0)
(0.894386 0.447249 0)
(0.89439 0.447261 0)
(0.894397 0.447273 0)
(0.894408 0.447283 0)
(0.89442 0.447297 0)
(0.89443 0.447314 0)
(0.894432 0.447343 0)
(0.894415 0.447395 0)
(0.894371 0.447486 0)
(0.894286 0.447639 0)
(0.894152 0.447881 0)
(0.893959 0.448242 0)
(0.893702 0.448754 0)
(0.893382 0.449445 0)
(0.893009 0.450337 0)
(0.892593 0.451438 0)
(0.892151 0.452751 0)
(0.891703 0.45426 0)
(0.89127 0.455937 0)
(0.890868 0.457749 0)
(0.890522 0.459652 0)
(0.890255 0.461602 0)
(0.890091 0.463542 0)
(0.890079 0.465404 0)
(0.890254 0.467126 0)
(0.890627 0.468652 0)
(0.89125 0.469874 0)
(0.892117 0.470728 0)
(0.893189 0.471153 0)
(0.894401 0.471071 0)
(0.89567 0.470433 0)
(0.896895 0.469208 0)
(0.897931 0.467417 0)
(0.898653 0.465149 0)
(0.899011 0.462547 0)
(0.899009 0.459783 0)
(0.898683 0.45706 0)
(0.898121 0.454574 0)
(0.897439 0.452451 0)
(0.896738 0.450746 0)
(0.896089 0.44946 0)
(0.89554 0.448546 0)
(0.895109 0.447934 0)
(0.894797 0.447552 0)
(0.894589 0.447334 0)
(0.894466 0.447224 0)
(0.894403 0.447178 0)
(0.894378 0.447167 0)
(0.894373 0.447171 0)
(0.894377 0.447179 0)
(0.894384 0.447186 0)
(0.89439 0.447192 0)
(0.894394 0.447195 0)
(0.894397 0.447198 0)
(0.894398 0.447199 0)
(0.894399 0.4472 0)
(0.8944 0.4472 0)
(0.8944 0.4472 0)
(0.8944 0.4472 0)
(0.8944 0.4472 0)
(0.8944 0.4472 0)
(0.8944 0.4472 0)
(0.8944 0.4472 0)
(0.8944 0.4472 0)
(0.8944 0.4472 0)
(0.8944 0.4472 0)
(0.8944 0.4472 0)
(0.8944 0.4472 0)
(0.8944 0.4472 0)
(0.8944 0.4472 0)
(0.8944 0.4472 0)
(0.8944 0.4472 0)
(0.8944 0.4472 0)
(0.8944 0.4472 0)
(0.8944 0.4472 0)
(0.8944 0.4472 0)
(0.8944 0.4472 0)
(0.8944 0.4472 0)
(0.8944 0.447199 0)
(0.894399 0.447201 0)
(0.894402 0.4472 0)
(0.894398 0.4472 0)
(0.8944 0.447202 0)
(0.894401 0.447199 0)
(0.894398 0.4472 0)
(0.894404 0.447201 0)
(0.894397 0.447201 0)
(0.894398 0.447197 0)
(0.894406 0.447203 0)
(0.894395 0.447201 0)
(0.8944 0.447201 0)
(0.894398 0.447203 0)
(0.894396 0.447203 0)
(0.894396 0.447207 0)
(0.894394 0.44721 0)
(0.89439 0.447216 0)
(0.894386 0.447221 0)
(0.894383 0.44723 0)
(0.894381 0.447241 0)
(0.89438 0.447255 0)
(0.894381 0.447269 0)
(0.894386 0.447285 0)
(0.894394 0.447301 0)
(0.894406 0.447318 0)
(0.894415 0.447342 0)
(0.894416 0.447376 0)
(0.8944 0.447436 0)
(0.894352 0.447535 0)
(0.894257 0.447703 0)
(0.894099 0.447968 0)
(0.893862 0.448372 0)
(0.893537 0.448956 0)
(0.893118 0.449762 0)
(0.892608 0.450824 0)
(0.892021 0.452168 0)
(0.891381 0.453794 0)
(0.890708 0.455692 0)
(0.890032 0.457829 0)
(0.889379 0.460155 0)
(0.888771 0.46261 0)
(0.888231 0.465139 0)
(0.887786 0.467674 0)
(0.887465 0.47015 0)
(0.887334 0.472495 0)
(0.887416 0.474671 0)
(0.887776 0.476592 0)
(0.888483 0.478183 0)
(0.889527 0.479435 0)
(0.890928 0.480254 0)
(0.892643 0.480567 0)
(0.894607 0.480293 0)
(0.896657 0.479316 0)
(0.89856 0.477571 0)
(0.900124 0.47504 0)
(0.901184 0.471789 0)
(0.901614 0.468003 0)
(0.901405 0.463985 0)
(0.900691 0.460078 0)
(0.899666 0.456564 0)
(0.898523 0.453638 0)
(0.897425 0.451375 0)
(0.896477 0.449739 0)
(0.895725 0.448631 0)
(0.895173 0.447931 0)
(0.8948 0.44752 0)
(0.89457 0.447302 0)
(0.894445 0.447202 0)
(0.894389 0.447167 0)
(0.894371 0.447164 0)
(0.894372 0.447172 0)
(0.894379 0.447181 0)
(0.894386 0.447189 0)
(0.894392 0.447194 0)
(0.894395 0.447197 0)
(0.894398 0.447198 0)
(0.894399 0.447199 0)
(0.8944 0.4472 0)
(0.8944 0.4472 0)
(0.8944 0.4472 0)
(0.8944 0.4472 0)
(0.8944 0.4472 0)
(0.8944 0.4472 0)
(0.8944 0.4472 0)
(0.8944 0.4472 0)
(0.8944 0.4472 0)
(0.8944 0.4472 0)
(0.8944 0.4472 0)
(0.8944 0.4472 0)
(0.8944 0.4472 0)
(0.8944 0.4472 0)
(0.8944 0.4472 0)
(0.8944 0.447201 0)
(0.894401 0.4472 0)
(0.8944 0.4472 0)
(0.8944 0.447201 0)
(0.8944 0.447199 0)
(0.8944 0.447201 0)
(0.8944 0.447199 0)
(0.894399 0.447201 0)
(0.894401 0.4472 0)
(0.894401 0.447198 0)
(0.894396 0.447203 0)
(0.894404 0.447198 0)
(0.894398 0.447201 0)
(0.894401 0.447199 0)
(0.8944 0.447204 0)
(0.894395 0.447196 0)
(0.894407 0.447202 0)
(0.894398 0.447202 0)
(0.894396 0.447199 0)
(0.894401 0.447204 0)
(0.894396 0.447203 0)
(0.894395 0.447207 0)
(0.894393 0.447209 0)
(0.894391 0.447216 0)
(0.894383 0.447223 0)
(0.89438 0.44723 0)
(0.894377 0.447244 0)
(0.894373 0.447258 0)
(0.894372 0.447276 0)
(0.894374 0.447294 0)
(0.894379 0.447315 0)
(0.894389 0.447338 0)
(0.894397 0.447367 0)
(0.894398 0.447408 0)
(0.894382 0.447471 0)
(0.894332 0.447578 0)
(0.894229 0.447752 0)
(0.894052 0.448033 0)
(0.893778 0.448464 0)
(0.893388 0.449097 0)
(0.892866 0.449988 0)
(0.892212 0.451188 0)
(0.891438 0.452731 0)
(0.890562 0.454633 0)
(0.889624 0.456882 0)
(0.888658 0.459431 0)
(0.887698 0.462212 0)
(0.886773 0.465142 0)
(0.885905 0.468123 0)
(0.885106 0.471083 0)
(0.884401 0.473933 0)
(0.883824 0.47661 0)
(0.883439 0.479058 0)
(0.883271 0.481256 0)
(0.883456 0.483126 0)
(0.884007 0.484725 0)
(0.884997 0.486074 0)
(0.886509 0.487126 0)
(0.888559 0.487928 0)
(0.891158 0.488367 0)
(0.894137 0.488265 0)
(0.897282 0.48742 0)
(0.900294 0.485582 0)
(0.90276 0.4826 0)
(0.904312 0.478495 0)
(0.904802 0.473548 0)
(0.904304 0.468206 0)
(0.90305 0.462984 0)
(0.90138 0.458354 0)
(0.899633 0.454597 0)
(0.898055 0.451789 0)
(0.896774 0.449848 0)
(0.895822 0.448601 0)
(0.895171 0.44786 0)
(0.894763 0.447455 0)
(0.894531 0.447258 0)
(0.894418 0.447179 0)
(0.894374 0.447159 0)
(0.894366 0.447164 0)
(0.894372 0.447175 0)
(0.894381 0.447185 0)
(0.894389 0.447191 0)
(0.894394 0.447196 0)
(0.894397 0.447198 0)
(0.894399 0.447199 0)
(0.894399 0.4472 0)
(0.8944 0.4472 0)
(0.8944 0.4472 0)
(0.8944 0.4472 0)
(0.8944 0.4472 0)
(0.8944 0.4472 0)
(0.8944 0.4472 0)
(0.8944 0.4472 0)
(0.8944 0.4472 0)
(0.8944 0.4472 0)
(0.8944 0.4472 0)
(0.8944 0.4472 0)
(0.8944 0.4472 0)
(0.8944 0.4472 0)
(0.8944 0.4472 0)
(0.8944 0.4472 0)
(0.8944 0.447199 0)
(0.894399 0.4472 0)
(0.8944 0.4472 0)
(0.8944 0.447199 0)
(0.894401 0.447201 0)
(0.894398 0.447199 0)
(0.894401 0.447203 0)
(0.894402 0.447196 0)
(0.894396 0.447202 0)
(0.894401 0.447203 0)
(0.894403 0.447195 0)
(0.894397 0.447205 0)
(0.894402 0.447198 0)
(0.894395 0.4472 0)
(0.894404 0.447197 0)
(0.894403 0.447205 0)
(0.894391 0.447199 0)
(0.894402 0.447202 0)
(0.894397 0.447207 0)
(0.894393 0.447204 0)
(0.894394 0.447211 0)
(0.894388 0.447215 0)
(0.894385 0.447223 0)
(0.894377 0.447233 0)
(0.894374 0.447245 0)
(0.894366 0.447262 0)
(0.894364 0.447281 0)
(0.894362 0.447304 0)
(0.894365 0.447327 0)
(0.89437 0.447355 0)
(0.894378 0.447388 0)
(0.894378 0.447434 0)
(0.894361 0.447502 0)
(0.89431 0.447612 0)
(0.894203 0.447791 0)
(0.894014 0.448077 0)
(0.89371 0.44852 0)
(0.893263 0.44918 0)
(0.89265 0.450125 0)
(0.891856 0.451413 0)
(0.890882 0.453105 0)
(0.889762 0.455226 0)
(0.88853 0.457752 0)
(0.887239 0.460642 0)
(0.885945 0.463789 0)
(0.884682 0.467068 0)
(0.883467 0.470341 0)
(0.882307 0.473485 0)
(0.881197 0.476392 0)
(0.880135 0.478981 0)
(0.879168 0.48119 0)
(0.878332 0.483013 0)
(0.877697 0.484429 0)
(0.87738 0.485483 0)
(0.877371 0.486374 0)
(0.877899 0.487136 0)
(0.879016 0.487972 0)
(0.880908 0.48905 0)
(0.883694 0.490261 0)
(0.887375 0.491525 0)
(0.891893 0.492511 0)
(0.896845 0.492727 0)
(0.901564 0.491639 0)
(0.905371 0.48886 0)
(0.907738 0.484361 0)
(0.908409 0.478457 0)
(0.907511 0.471845 0)
(0.905524 0.465352 0)
(0.903048 0.459653 0)
(0.900599 0.455145 0)
(0.898508 0.4519 0)
(0.896912 0.449757 0)
(0.895803 0.448457 0)
(0.895097 0.447733 0)
(0.894688 0.44737 0)
(0.894479 0.447213 0)
(0.894389 0.44716 0)
(0.894363 0.447155 0)
(0.894365 0.447166 0)
(0.894375 0.447179 0)
(0.894385 0.447188 0)
(0.894391 0.447194 0)
(0.894396 0.447197 0)
(0.894398 0.447199 0)
(0.894399 0.447199 0)
(0.8944 0.4472 0)
(0.8944 0.4472 0)
(0.8944 0.4472 0)
(0.8944 0.4472 0)
(0.8944 0.4472 0)
(0.8944 0.4472 0)
(0.8944 0.4472 0)
(0.8944 0.4472 0)
(0.8944 0.4472 0)
(0.8944 0.4472 0)
(0.8944 0.4472 0)
(0.8944 0.4472 0)
(0.8944 0.4472 0)
(0.894399 0.4472 0)
(0.894401 0.4472 0)
(0.8944 0.4472 0)
(0.8944 0.4472 0)
(0.8944 0.447201 0)
(0.8944 0.447198 0)
(0.894399 0.447202 0)
(0.894399 0.447199 0)
(0.894405 0.447202 0)
(0.894396 0.447195 0)
(0.894397 0.447208 0)
(0.894409 0.447194 0)
(0.894393 0.4472 0)
(0.894404 0.447205 0)
(0.894396 0.447201 0)
(0.894402 0.447192 0)
(0.894407 0.447213 0)
(0.894388 0.447192 0)
(0.894401 0.447205 0)
(0.894399 0.447204 0)
(0.894391 0.447205 0)
(0.894396 0.44721 0)
(0.894385 0.447214 0)
(0.894385 0.447224 0)
(0.894374 0.447234 0)
(0.894372 0.447245 0)
(0.894362 0.447266 0)
(0.894352 0.447285 0)
(0.894351 0.44731 0)
(0.894349 0.447338 0)
(0.894354 0.447369 0)
(0.894356 0.447407 0)
(0.894357 0.447456 0)
(0.894338 0.447528 0)
(0.894288 0.447639 0)
(0.894179 0.447819 0)
(0.893981 0.448103 0)
(0.893658 0.448548 0)
(0.893169 0.449214 0)
(0.892478 0.450178 0)
(0.891556 0.451518 0)
(0.890404 0.453299 0)
(0.889031 0.455556 0)
(0.887496 0.458293 0)
(0.885873 0.461428 0)
(0.884228 0.464837 0)
(0.882626 0.468348 0)
(0.881101 0.471757 0)
(0.879631 0.474867 0)
(0.878178 0.477534 0)
(0.876705 0.479641 0)
(0.875168 0.481122 0)
(0.873624 0.48195 0)
(0.872052 0.482175 0)
(0.870609 0.481815 0)
(0.869246 0.481138 0)
(0.868137 0.480384 0)
(0.867492 0.479785 0)
(0.867429 0.479845 0)
(0.868379 0.480659 0)
(0.870549 0.482337 0)
(0.874301 0.484963 0)
(0.879785 0.488186 0)
(0.88669 0.491478 0)
(0.894345 0.493938 0)
(0.901737 0.49468 0)
(0.90768 0.49297 0)
(0.911233 0.488584 0)
(0.912101 0.482052 0)
(0.910682 0.474383 0)
(0.907805 0.466772 0)
(0.904406 0.460199 0)
(0.901231 0.455155 0)
(0.898679 0.451667 0)
(0.896849 0.449476 0)
(0.895662 0.448223 0)
(0.894962 0.447577 0)
(0.894593 0.447284 0)
(0.894425 0.447175 0)
(0.894367 0.44715 0)
(0.894358 0.447157 0)
(0.894368 0.447172 0)
(0.89438 0.447184 0)
(0.894389 0.447192 0)
(0.894394 0.447196 0)
(0.894397 0.447198 0)
(0.894399 0.447199 0)
(0.894399 0.447199 0)
(0.8944 0.4472 0)
(0.8944 0.4472 0)
(0.8944 0.4472 0)
(0.8944 0.4472 0)
(0.8944 0.4472 0)
(0.8944 0.4472 0)
(0.8944 0.4472 0)
(0.8944 0.4472 0)
(0.8944 0.4472 0)
(0.8944 0.4472 0)
(0.8944 0.4472 0)
(0.894401 0.4472 0)
(0.894399 0.4472 0)
(0.894401 0.447201 0)
(0.894399 0.447199 0)
(0.894401 0.447202 0)
(0.894401 0.447198 0)
(0.8944 0.447201 0)
(0.894398 0.4472 0)
(0.894403 0.447202 0)
(0.894402 0.447195 0)
(0.89439 0.447204 0)
(0.894409 0.447205 0)
(0.894402 0.447188 0)
(0.89439 0.447211 0)
(0.894406 0.447194 0)
(0.894395 0.447201 0)
(0.894406 0.447193 0)
(0.894399 0.447218 0)
(0.89439 0.447187 0)
(0.894405 0.447211 0)
(0.894394 0.447207 0)
(0.894386 0.447203 0)
(0.894395 0.447219 0)
(0.894377 0.447218 0)
(0.894374 0.447236 0)
(0.894368 0.447244 0)
(0.894356 0.447265 0)
(0.894347 0.447289 0)
(0.89434 0.447317 0)
(0.894335 0.447346 0)
(0.894334 0.447381 0)
(0.894334 0.447424 0)
(0.894332 0.447475 0)
(0.894315 0.44755 0)
(0.894264 0.447661 0)
(0.894157 0.447837 0)
(0.893955 0.448118 0)
(0.893621 0.448552 0)
(0.893103 0.44921 0)
(0.892354 0.450169 0)
(0.891334 0.451518 0)
(0.890013 0.45333 0)
(0.888414 0.455669 0)
(0.886589 0.458517 0)
(0.884618 0.461809 0)
(0.882628 0.465397 0)
(0.880709 0.46903 0)
(0.878911 0.472458 0)
(0.877223 0.475402 0)
(0.875576 0.477638 0)
(0.873839 0.479002 0)
(0.871912 0.47943 0)
(0.869726 0.478865 0)
(0.867299 0.477385 0)
(0.864597 0.475044 0)
(0.86174 0.472055 0)
(0.858597 0.468847 0)
(0.855562 0.465751 0)
(0.852636 0.463415 0)
(0.850411 0.462359 0)
(0.849377 0.462619 0)
(0.850008 0.464567 0)
(0.852957 0.468085 0)
(0.85854 0.473057 0)
(0.86687 0.479171 0)
(0.877588 0.485659 0)
(0.88951 0.491383 0)
(0.900779 0.494752 0)
(0.909517 0.494666 0)
(0.914521 0.490827 0)
(0.915576 0.483903 0)
(0.913447 0.475403 0)
(0.909522 0.466983 0)
(0.905187 0.459866 0)
(0.901381 0.454596 0)
(0.898509 0.451118 0)
(0.896583 0.44905 0)
(0.895421 0.447944 0)
(0.894794 0.447421 0)
(0.894496 0.447212 0)
(0.894382 0.447151 0)
(0.894354 0.447149 0)
(0.89436 0.447163 0)
(0.894373 0.447178 0)
(0.894385 0.447188 0)
(0.894392 0.447194 0)
(0.894396 0.447197 0)
(0.894398 0.447199 0)
(0.894399 0.447199 0)
(0.8944 0.4472 0)
(0.8944 0.4472 0)
(0.8944 0.4472 0)
(0.8944 0.4472 0)
(0.8944 0.4472 0)
(0.8944 0.4472 0)
(0.8944 0.4472 0)
(0.894399 0.4472 0)
(0.894401 0.4472 0)
(0.894399 0.4472 0)
(0.894401 0.447201 0)
(0.894399 0.447199 0)
(0.894401 0.447202 0)
(0.8944 0.447198 0)
(0.894399 0.447201 0)
(0.894401 0.447201 0)
(0.8944 0.447198 0)
(0.894398 0.447201 0)
(0.8944 0.447201 0)