/*--------------------------------*- C++ -*----------------------------------*\
  =========                 |
  \\      /  F ield         | OpenFOAM: The Open Source CFD Toolbox
   \\    /   O peration     | Website:  https://openfoam.org
    \\  /    A nd           | Version:  6
     \\/     M anipulation  |
\*---------------------------------------------------------------------------*/
FoamFile
{
    version     2.0;
    format      ascii;
    class       surfaceScalarField;
    location    "1.77";
    object      meshPhi;
}
// * * * * * * * * * * * * * * * * * * * * * * * * * * * * * * * * * * * * * //

dimensions      [0 3 -1 0 0 0 0];

internalField   nonuniform List<scalar> 
8193
(
-0.00157212
0.0027695
0.000565179
-0.00250529
0.00522484
-0.00333461
0.00741766
-0.00403326
0.00931451
-0.0045799
0.0108925
-0.00496015
0.0121388
-0.00516766
0.0130493
-0.0052043
0.0136281
-0.00507986
0.0138855
-0.00481121
0.0138373
-0.00442101
0.0135034
-0.00393623
0.0129066
-0.00338648
0.0120716
-0.00280245
0.0110245
-0.00221436
0.00979206
-0.00165062
0.00840118
-0.00113669
0.0068787
-0.000694176
0.0052512
-0.000340156
0.00354495
-8.66943e-05
0.00178596
5.94368e-05
-8.82326e-21
9.68673e-05
-0.00178724
2.95774e-05
-0.00355003
-0.000133315
-0.00526246
-0.000377931
-0.0068983
-0.00068619
-0.00843099
-0.00103656
-0.00983353
-0.00140499
-0.0110786
-0.00176611
-0.0121388
-0.0020945
-0.0129868
-0.0023662
-0.0135958
-0.00256021
-0.0139405
-0.00266001
-0.0139972
-0.00265488
-0.0137455
-0.00254092
-0.013169
-0.00232168
-0.0122566
-0.00200819
-0.0110038
-0.00161834
-0.00941434
-0.00117564
-0.00750074
-0.000707252
-0.00528581
-0.00280309
-0.00024152
-0.00604549
0.00828713
0.00300066
-0.00879218
0.0127995
-0.0111624
0.0167445
-0.013092
0.0200708
-0.0145351
0.0227493
-0.0154669
0.0247714
-0.0158849
0.0261459
-0.0158087
0.0268958
-0.0152778
0.0270551
-0.0143492
0.0266657
-0.0130934
0.0257748
-0.0115902
0.024432
-0.00992486
0.0226881
-0.00818343
0.0205935
-0.00644936
0.0181972
-0.00480008
0.0155465
-0.00330434
0.0126867
-0.00202004
0.00966104
-0.000992733
0.00651125
-0.000254508
0.00327772
0.000176583
-8.82326e-21
0.000296755
-0.00328272
0.000116337
-0.00653108
-0.000340742
-0.00970503
-0.00103784
-0.0127634
-0.00192689
-0.0156632
-0.00295019
-0.0183599
-0.00404262
-0.0208063
-0.00513444
-0.0229533
-0.00615451
-0.0247494
-0.00703394
-0.0261421
-0.00770999
-0.0270778
-0.00812995
-0.0275043
-0.00825485
-0.0273718
-0.00806251
-0.026636
-0.00754977
-0.0252605
-0.00673341
-0.0232201
-0.00564972
-0.0205045
-0.00435232
-0.0171212
-0.00290846
-0.0130984
-0.00848757
-0.00139383
-0.0130815
0.0162757
0.00818186
-0.0173635
0.0223395
-0.0209282
0.0275209
-0.0237027
0.0317667
-0.0256446
0.0350574
-0.0267441
0.0374022
-0.0270235
0.038834
-0.0265355
0.0394044
-0.0253596
0.0391778
-0.0235969
0.0382265
-0.0213651
0.0366267
-0.0187919
0.0344549
-0.0160093
0.0317854
-0.0131481
0.0286888
-0.0103329
0.0252307
-0.00767801
0.0214721
-0.00528373
0.0174689
-0.00323403
0.0132729
-0.00159457
0.00893251
-0.000411488
0.00449349
0.000289251
1.76465e-20
0.000502066
-0.00450443
0.000241507
-0.00897593
-0.000458395
-0.0133693
-0.00154524
-0.0176371
-0.00294988
-0.0217285
-0.00458858
-0.0255888
-0.00636587
-0.0291582
-0.0081781
-0.0323719
-0.00991755
-0.0351594
-0.0114773
-0.037445
-0.0127565
-0.0391491
-0.0136657
-0.0401895
-0.0141322
-0.0404847
-0.0141048
-0.0399567
-0.0135578
-0.0385361
-0.0124931
-0.036167
-0.0109411
-0.0328123
-0.00895967
-0.02846
-0.00663055
-0.023128
-0.0168689
-0.00405415
-0.0226559
0.0262472
0.0162673
-0.0280509
0.0332959
-0.0323606
0.03917
-0.0355304
0.0438285
-0.0375449
0.0472718
-0.0384282
0.0495353
-0.0382414
0.0506822
-0.0370791
0.050796
-0.0350639
0.0499726
-0.0323402
0.0483144
-0.0290677
0.0459245
-0.0254138
0.0429023
-0.0215473
0.0393413
-0.0176323
0.0353267
-0.0138227
0.030935
-0.0102579
0.0262343
-0.0070594
0.0212847
-0.00432796
0.0161399
-0.00214209
0.0108482
-0.000556806
0.00545421
0.000396938
1.76465e-20
0.000712299
-0.00547309
0.000406252
-0.0109232
-0.000481125
-0.0163064
-0.00188778
-0.0215755
-0.00373133
-0.0266782
-0.00591127
-0.0315559
-0.00831187
-0.0361426
-0.0108059
-0.0403632
-0.0132588
-0.0441335
-0.0155344
-0.0473599
-0.0174998
-0.0499401
-0.0190325
-0.0517654
-0.0200257
-0.0527233
-0.0203944
-0.0527024
-0.0200806
-0.051598
-0.0190572
-0.0493189
-0.0173299
-0.0457952
-0.0149378
-0.0409861
-0.0119517
-0.0348874
-0.0275388
-0.00847036
-0.0345273
0.0375367
0.0271699
-0.0405069
0.0449984
-0.04505
0.0510442
-0.0481413
0.0556537
-0.0498086
0.0588528
-0.0501209
0.0607061
-0.0491843
0.0613075
-0.047137
0.0607706
-0.0441427
0.0592203
-0.0403836
0.0567846
-0.036053
0.0535884
-0.0313483
0.0497492
-0.0264642
0.0453733
-0.0215865
0.0405552
-0.0168874
0.0353765
-0.012521
0.0299068
-0.00862071
0.0242055
-0.00529624
0.0183228
-0.00263277
0.0123024
-0.000689801
0.00618283
0.000499128
-7.47597e-15
0.000926395
-0.00621139
0.000609924
-0.0124158
-0.000407513
-0.018575
-0.00205934
-0.0246463
-0.00425664
-0.0305805
-0.0068902
-0.0363203
-0.00983311
-0.0417977
-0.0129442
-0.0469332
-0.016072
-0.051634
-0.0190601
-0.0557936
-0.0217523
-0.0592926
-0.0239989
-0.0620002
-0.0256629
-0.0637779
-0.0266264
-0.0644841
-0.026796
-0.0639815
-0.0261079
-0.0621443
-0.0245313
-0.0588687
-0.0220702
-0.0540817
-0.0187639
-0.0477512
-0.0398945
-0.0146855
-0.0482355
0.0493617
0.0405315
-0.054218
0.0567135
-0.0584701
0.062478
-0.0610274
0.0666578
-0.0619685
0.0693048
-0.0614101
0.0705106
-0.0595027
0.070396
-0.0564239
0.0691001
-0.0523716
0.0667705
-0.0475571
0.0635549
-0.0421977
0.0595937
-0.0365101
0.0550159
-0.0307036
0.0499353
-0.0249757
0.04445
-0.0195065
0.0386416
-0.0144562
0.0325774
-0.0099618
0.0263115
-0.00613586
0.0198878
-0.00306509
0.0133418
-0.000809982
0.00670359
0.000595309
-6.89442e-15
0.00114278
-0.00674331
0.000850157
-0.0134996
-0.000239752
-0.0202388
-0.00205995
-0.0269257
-0.00452051
-0.0335171
-0.00751018
-0.03996
-0.0108987
-0.0461887
-0.0145395
-0.052123
-0.0182734
-0.0576663
-0.0219332
-0.0627046
-0.0253479
-0.0671067
-0.0283493
-0.0707259
-0.030777
-0.0734034
-0.0324849
-0.0749736
-0.0333466
-0.0752716
-0.0332611
-0.0741425
-0.0321564
-0.0714512
-0.0299933
-0.0670944
-0.0267671
-0.0610114
-0.0531939
-0.0225076
-0.0631261
0.0608967
0.0557304
-0.0685374
0.0677115
-0.0720118
0.072844
-0.0736387
0.0763184
-0.0735459
0.0782086
-0.0718938
0.0786282
-0.0688704
0.0777181
-0.0646844
0.0756361
-0.0595585
0.0725454
-0.0537227
0.0686061
-0.0474075
0.0639677
-0.0408382
0.0587647
-0.0342294
0.0531131
-0.0277802
0.0471097
-0.0216707
0.0408329
-0.0160595
0.0343438
-0.0110814
0.0276893
-0.00684622
0.0209043
-0.00343851
0.0140149
-0.000917022
0.00704131
0.00068497
1.76465e-20
0.00135942
-0.00709339
0.00112301
-0.0142219
1.6595e-05
-0.021365
-0.00189556
-0.028496
-0.00452671
-0.0355794
-0.00776894
-0.0425687
-0.0114949
-0.0494027
-0.0155599
-0.056004
-0.0198051
-0.0622757
-0.0240608
-0.0681008
-0.0281506
-0.0733417
-0.0318962
-0.0778416
-0.0351226
-0.081428
-0.0376633
-0.0839183
-0.0393655
-0.0851271
-0.0400955
-0.0848767
-0.0397429
-0.0830078
-0.0382247
-0.0793916
-0.035488
-0.0739423
-0.0666277
-0.0315122
-0.0783973
0.0713549
0.0719238
-0.0827313
0.0773319
-0.0850264
0.0816044
-0.0854196
0.0842134
-0.0840798
0.0852488
-0.0812019
0.0848389
-0.0770008
0.0831377
-0.0717053
0.0803137
-0.0655518
0.0765386
-0.0587784
0.0719783
-0.0516187
0.0667853
-0.0442973
0.0610941
-0.037025
0.0550187
-0.0299952
0.0486515
-0.0233813
0.0420644
-0.0173344
0.0353108
-0.0119825
0.0284286
-0.00742899
0.0214432
-0.00375338
0.0143706
-0.00101075
0.00722076
0.000767619
5.83239e-15
0.00157389
-0.00728612
0.00142315
-0.0146305
0.000352918
-0.0220219
-0.00157748
-0.0294425
-0.00428757
-0.0368654
-0.00767666
-0.0442509
-0.0116251
-0.0515444
-0.0159958
-0.0586726
-0.0206367
-0.0655417
-0.025383
-0.0720349
-0.0300607
-0.0780128
-0.0344904
-0.0833136
-0.0384913
-0.0877574
-0.0418856
-0.0911512
-0.0445033
-0.0932968
-0.0461865
-0.0940014
-0.046794
-0.0930886
-0.0462048
-0.0904115
-0.0443222
-0.0858654
-0.0793989
-0.0410766
-0.0931665
0.0800642
0.0881181
-0.0960372
0.0850411
-0.0968731
0.0883519
-0.0958469
0.0900483
-0.0931562
0.0902296
-0.0890177
0.0890314
-0.0836611
0.0866138
-0.0773238
0.083149
-0.0702452
0.0788106
-0.0626612
0.0737646
-0.0547999
0.0681614
-0.0468771
0.0621319
-0.0390931
0.0557847
-0.0316299
0.0492052
-0.0246491
0.0424574
-0.0182906
0.0355862
-0.0126719
0.02862
-0.00788788
0.0215747
-0.00401089
0.0144567
-0.00109115
0.00726611
0.000842789
-2.46367e-15
0.00178348
-0.00734538
0.0017441
-0.0147719
0.000757984
-0.0222771
-0.00112186
-0.0298515
-0.00382319
-0.0374759
-0.00725515
-0.0451183
-0.0113091
-0.0527304
-0.0158596
-0.0602448
-0.020766
-0.0675719
-0.0258745
-0.0745981
-0.0310199
-0.081185
-0.0360293
-0.0871707
-0.0407243
-0.0923726
-0.0449252
-0.0965935
-0.0484545
-0.0996292
-0.0511405
-0.101279
-0.0528216
-0.101357
-0.0533496
-0.0997049
-0.0525937
-0.0962071
-0.0907988
-0.0504438
-0.106547
0.0865278
0.103262
-0.107726
0.0904743
-0.106968
0.0928366
-0.104466
0.0936715
-0.100433
0.0930814
-0.0950951
0.0912032
-0.088684
0.0881965
-0.0814351
0.084232
-0.0735811
0.0794802
-0.065348
0.0741023
-0.0569511
0.0682435
-0.0485916
0.0620281
-0.0404546
0.0555571
-0.0327065
0.048908
-0.0254941
0.0421362
-0.0189434
0.0352778
-0.01316
0.0283524
-0.00822838
0.0213668
-0.00421296
0.0143189
-0.00115833
0.00720039
0.000910047
-2.45507e-15
0.00198527
-0.00729392
0.00207847
-0.0146909
0.00121842
-0.022196
-0.000548868
-0.0298071
-0.00316039
-0.0375119
-0.00653656
-0.0452851
-0.0105816
-0.0530849
-0.0151843
-0.0608497
-0.0202186
-0.0684951
-0.0255454
-0.075912
-0.0310136
-0.0829657
-0.0364621
-0.0894968
-0.0417222
-0.0953244
-0.0466204
-0.100251
-0.0509806
-0.104073
-0.0546279
-0.106587
-0.0573915
-0.107604
-0.0591081
-0.106963
-0.0596256
-0.104541
-0.100268
-0.0588068
-0.117731
0.0904612
0.116349
-0.117163
0.0934573
-0.114826
0.0949762
-0.110921
0.0950755
-0.105662
0.0938561
-0.0992716
0.0914514
-0.0919742
0.0880165
-0.0839946
0.0837158
-0.0755516
0.0787134
-0.066855
0.0731631
-0.0581026
0.0672022
-0.0494776
0.0609468
-0.0411466
0.0544895
-0.0332585
0.0478996
-0.0259437
0.041224
-0.0193133
0.0344905
-0.0134599
0.0277107
-0.00845754
0.0208839
-0.00436213
0.0140005
-0.00121254
0.00704513
0.00096901
-2.51396e-15
0.00217623
-0.00715297
0.00241824
-0.0144295
0.00171923
-0.0218406
0.000118142
-0.0293899
-0.00233152
-0.0370712
-0.00556182
-0.0448646
-0.00949061
-0.052734
-0.0140218
-0.0606233
-0.0190458
-0.0684535
-0.0244402
-0.0761206
-0.0300708
-0.0834947
-0.0357926
-0.0904209
-0.0414514
-0.0967225
-0.0468858
-0.102206
-0.0519289
-0.106671
-0.0564112
-0.109917
-0.060163
-0.111756
-0.0630175
-0.11203
-0.0648142
-0.110614
-0.107436
-0.0654028
-0.126058
0.0918034
0.126519
-0.123859
0.0940061
-0.120102
0.0948482
-0.114981
0.094385
-0.108702
0.0927126
-0.101476
0.0899582
-0.0935119
0.0862692
-0.0850187
0.0818017
-0.0761963
0.0767107
-0.067235
0.0711412
-0.0583123
0.0652213
-0.0495917
0.0590585
-0.0412204
0.0527368
-0.0333292
0.0463174
-0.0260317
0.0398394
-0.0194244
0.0333235
-0.0135872
0.0267746
-0.00858357
0.0201855
-0.00446148
0.0135408
-0.00125414
0.00681999
0.00101935
-2.06498e-15
0.00235333
-0.00694193
0.00275506
-0.014026
0.00224441
-0.0212678
0.000853569
-0.0286751
-0.00137304
-0.0362461
-0.00437877
-0.0439655
-0.00809479
-0.0518016
-0.0124401
-0.0597031
-0.0173215
-0.0675957
-0.0226343
-0.0753806
-0.0282621
-0.0829333
-0.034078
-0.0901043
-0.0399451
-0.0967227
-0.045718
-0.102601
-0.0512441
-0.107544
-0.0563655
-0.111358
-0.0609214
-0.11386
-0.0647509
-0.114896
-0.0676959
-0.114344
-0.112135
-0.0696049
-0.131079
0.0906992
0.13314
-0.127513
0.0923066
-0.122609
0.0926675
-0.11655
0.0918336
-0.109525
0.0898945
-0.101728
0.0869697
-0.0933508
0.0831971
-0.0845811
0.0787232
-0.0755988
0.0736932
-0.0665732
0.0682422
-0.0576616
0.0624892
-0.0490072
0.0565329
-0.0407386
0.0504492
-0.0329692
0.0442919
-0.0257968
0.0380935
-0.0193041
0.0318685
-0.013559
0.0256164
-0.00861564
0.0193253
-0.00451447
0.0129755
-0.00128358
0.00654255
0.00106081
1.89312e-15
0.00251364
-0.00667811
0.00308053
-0.013515
0.00277746
-0.020529
0.00163052
-0.0277309
-0.000324109
-0.0351217
-0.00304013
-0.0426893
-0.00646097
-0.0504053
-0.0105197
-0.058222
-0.0151388
-0.0660694
-0.0202302
-0.0738533
-0.0256953
-0.0814541
-0.0314253
-0.0887285
-0.0373014
-0.0955118
-0.0431958
-0.101624
-0.0489726
-0.106876
-0.0544893
-0.111081
-0.0595989
-0.114066
-0.0641519
-0.11568
-0.068
-0.11581
-0.114387
-0.070999
-0.132592
0.0874604
0.135871
-0.128028
0.0886767
-0.122333
0.0887519
-0.115671
0.0877329
-0.108214
0.0857028
-0.100137
0.0827719
-0.0916123
0.0790686
-0.0828068
0.0747291
-0.0738803
0.0698885
-0.0649824
0.0646721
-0.0562508
0.0591899
-0.0478104
0.0535322
-0.0397725
0.0477677
-0.0322348
0.0419437
-0.0252809
0.0360871
-0.0189813
0.0302076
-0.0133937
0.0243005
-0.00856352
0.0183508
-0.00452489
0.0123356
-0.0013014
0.00622817
0.0010932
1.74125e-15
0.00265442
-0.00637663
0.00338648
-0.0129265
0.003302
-0.0196694
0.00242181
-0.0266177
0.000774919
-0.0337739
-0.00160136
-0.0411277
-0.00466124
-0.0486529
-0.00835018
-0.0563045
-0.0126046
-0.0640156
-0.0173516
-0.0716959
-0.0225087
-0.0792306
-0.0279841
-0.0864818
-0.033676
-0.0932913
-0.0394741
-0.0994861
-0.0452593
-0.104886
-0.0509056
-0.109311
-0.0562812
-0.112597
-0.0612513
-0.1146
-0.0656802
-0.115214
-0.114372
-0.0694358
-0.130653
0.0825094
0.134687
-0.12552
0.0835181
-0.119427
0.0834801
-0.11252
0.0824375
-0.104956
0.0804659
-0.0968898
0.0776667
-0.0884758
0.0741586
-0.0798629
0.0700675
-0.0711924
0.0655183
-0.0625961
0.0606271
-0.0541945
0.0554952
-0.0460966
0.0502055
-0.0383988
0.04482
-0.0311853
0.0393804
-0.0245278
0.0339093
-0.0184864
0.0284126
-0.0131101
0.0228829
-0.00843727
0.0173027
-0.00449669
0.0116477
-0.00130823
0.00588992
0.00111643
3.08814e-18
0.00277324
-0.00605032
0.00366524
-0.0122862
0.00380228
-0.0187277
0.00320084
-0.0253875
0.00188397
-0.0322685
-0.000118527
-0.0393612
-0.00276988
-0.0466404
-0.006026
-0.0540626
-0.00983508
-0.0615633
-0.0141372
-0.0690552
-0.0188638
-0.0764276
-0.0239376
-0.0835477
-0.0292724
-0.0902635
-0.0347731
-0.0964089
-0.0403364
-0.101811
-0.0458513
-0.106301
-0.0512012
-0.109719
-0.0562653
-0.111932
-0.0609216
-0.112837
-0.112375
-0.0650501
-0.12556
0.0763175
0.129867
-0.120293
0.0772645
-0.11419
0.0772494
-0.107386
0.0763089
-0.10002
0.0745112
-0.0922341
0.0719486
-0.0841656
0.0687299
-0.0759483
0.0649711
-0.067708
0.0607873
-0.0595616
0.0562857
-0.0516157
0.0515596
-0.043966
0.0466847
-0.0366968
0.0417175
-0.0298813
0.0366951
-0.0235816
0.0316363
-0.0178496
0.0265444
-0.0127271
0.0214102
-0.00824703
0.016215
-0.00443392
0.0109339
-0.00130473
0.0055386
0.00113049
1.76465e-20
0.00286798
-0.00570976
0.00390985
-0.0116153
0.00426372
-0.0177359
0.00394255
-0.0240837
0.00296465
-0.030661
0.00135381
-0.037458
-0.000860439
-0.0444496
-0.00364242
-0.0515931
-0.00694983
-0.0588254
-0.0107333
-0.0660615
-0.0149356
-0.0731942
-0.0194917
-0.080095
-0.024328
-0.0866176
-0.0293625
-0.0926027
-0.034505
-0.0978854
-0.0396577
-0.102304
-0.044717
-0.105708
-0.0495746
-0.10797
-0.0541205
-0.108997
-0.108731
-0.0582458
-0.117817
0.121955
-0.112807
-0.107041
-0.100643
-0.0937405
-0.086463
-0.0789363
-0.0712812
-0.0636117
-0.056033
-0.0486405
-0.0415196
-0.0347453
-0.0283823
-0.0224855
-0.0171002
-0.012263
-0.00800273
-0.00434066
-0.00129163
0.00113545
0.00293701
0.00411434
0.0046733
0.00462415
0.00398151
0.00276452
0.00099713
-0.00129152
-0.00406655
-0.00728674
-0.010904
-0.0148627
-0.0190994
-0.0235426
-0.0281127
-0.0327229
-0.0372802
-0.0416867
-0.0458423
-0.0496475
0.10248
-0.0458231
0.0974018
-0.053289
0.0899641
-0.059272
0.0807028
-0.0632734
0.0702684
-0.0649576
0.059351
-0.0641879
0.0486038
-0.0610409
0.0385754
-0.0557976
0.0296608
-0.048911
0.022079
-0.0409564
0.0158787
-0.0325681
0.01097
-0.0243723
0.00717704
-0.0169222
0.00430018
-0.0106445
0.00217726
-0.00580211
0.00073194
-0.0024788
-0.000585382
0.0998321
-0.0419201
0.0952244
-0.0483422
0.0884911
-0.0535522
0.0800822
-0.0571543
0.0705431
-0.058871
0.0604579
-0.0585701
0.05039
-0.0562777
0.0408285
-0.0521751
0.0321467
-0.0465808
0.024579
-0.039918
0.0182183
-0.0326738
0.0130332
-0.0253518
0.00890331
-0.0184243
0.0056646
-0.0122901
0.00315898
-0.0072405
0.00127896
-0.00343793
-0.000909817
0.0960422
-0.038048
0.0919532
-0.0435194
0.0859619
-0.0480104
0.07844
-0.0512085
0.0698386
-0.0528857
0.0606459
-0.052919
0.0513416
-0.0513009
0.0423549
-0.0481406
0.0340301
-0.0436539
0.0266047
-0.038144
0.0202012
-0.0319753
0.0148354
-0.0255412
0.010437
-0.0192312
0.00688158
-0.0133979
0.00402806
-0.00832908
0.00175642
-0.00422681
-0.00119475
0.0912208
-0.0342957
0.0876747
-0.0389115
0.082438
-0.0427414
0.0758127
-0.0455403
0.0681666
-0.0471226
0.059902
-0.0473769
0.0514219
-0.0462754
0.0430968
-0.0438764
0.0352373
-0.0403194
0.0280736
-0.0358149
0.0217458
-0.0306276
0.0163046
-0.0250563
0.0117226
-0.0194109
0.00791494
-0.0139889
0.00476569
-0.00905405
0.00215749
-0.00481772
-0.0014251
0.0855167
-0.0307305
0.0825152
-0.034585
0.0780228
-0.0378143
0.0722802
-0.0402275
0.0655826
-0.0416748
0.0582571
-0.0420581
0.0506368
-0.0413387
0.0430367
-0.0395404
0.0357305
-0.0367477
0.028934
-0.033101
0.0227941
-0.0287864
0.0173853
-0.0240236
0.0127149
-0.0190508
0.00873405
-0.0141089
0.00535604
-0.00942537
0.00247723
-0.00519982
-0.00159164
0.0791071
-0.027398
0.0766327
-0.0305829
0.0728541
-0.0332733
0.0679594
-0.0353215
0.0621818
-0.0366079
0.0557827
-0.0370482
0.0490336
-0.0365995
0.0421971
-0.0352633
0.03551
-0.0330858
0.0291681
-0.0301559
0.0233164
-0.0265992
0.0180439
-0.0225719
0.0133834
-0.0182504
0.00931727
-0.0138218
0.00578817
-0.00947248
0.00271306
-0.00537759
-0.00169101
0.0721871
-0.0243243
0.0702063
-0.0269268
0.0670948
-0.0291395
0.0629962
-0.0308493
0.0580911
-0.0319613
0.0525851
-0.0324049
0.0466955
-0.0321373
0.0406377
-0.031147
0.0346119
-0.0294545
0.028791
-0.0271118
0.0233122
-0.0241998
0.01827
-0.0208247
0.0137148
-0.0171123
0.00965398
-0.0132019
0.00605716
-0.00923896
0.00286495
-0.00536802
-0.00172511
0.0649575
-0.0215182
0.0634254
-0.02362
0.0609219
-0.0254147
0.0575543
-0.0268163
0.0534595
-0.0277509
0.0487959
-0.0281601
0.0437344
-0.0280044
0.0384483
-0.0272655
0.0331033
-0.0259474
0.0278483
-0.0240771
0.0228078
-0.0217031
0.018076
-0.0188941
0.0137133
-0.0157358
0.00974527
-0.0123274
0.00616463
-0.0087769
0.0029355
-0.00519711
-0.00170009
0.0576136
-0.0189744
0.0564776
-0.0206503
0.0545155
-0.0220838
0.0518049
-0.0232103
0.0484472
-0.0239725
0.044562
-0.0243235
0.0402808
-0.0242283
0.0357404
-0.0236662
0.0310748
-0.0226317
0.0264091
-0.0211353
0.0218528
-0.0192032
0.0174946
-0.016877
0.0133989
-0.0142117
0.00960327
-0.0112744
0.00611848
-0.0081415
0.00292973
-0.00489618
-0.00162503
0.0503357
-0.0166761
0.0495391
-0.0179939
0.0480476
-0.0191194
0.0459153
-0.0200045
0.043215
-0.0206058
0.0400348
-0.0208858
0.0364739
-0.0208151
0.0326375
-0.0203733
0.0286319
-0.01955
0.0245594
-0.0183458
0.0205133
-0.0167722
0.0165739
-0.0148518
0.0128045
-0.0126176
0.00924941
-0.0101121
0.00593196
-0.00738645
0.00285464
-0.0044983
-0.00151061
0.0432802
-0.0145987
0.0427656
-0.0156186
0.0416735
-0.0164849
0.0400395
-0.0171622
0.0379142
-0.017618
0.0353606
-0.0178233
0.0324514
-0.0177539
0.0292659
-0.0173913
0.0258861
-0.0167237
0.0223937
-0.015746
0.0188659
-0.0144609
0.0153724
-0.0128785
0.0119724
-0.0110166
0.00871199
-0.00889995
0.00562235
-0.00656034
0.00271871
-0.00403541
-0.00136786
0.0365749
-0.0127114
0.0362869
-0.0134864
0.035525
-0.0141375
0.0343111
-0.0146393
0.032679
-0.0149678
0.0306718
-0.0151011
0.0283415
-0.0150199
0.0257458
-0.0147087
0.0229467
-0.0141558
0.0200074
-0.013354
0.0169901
-0.0123007
0.0139532
-0.0109988
0.0109495
-0.00945596
0.0080233
-0.00768514
0.00520942
-0.00570428
0.00253123
-0.00353599
-0.0012072
0.0303162
-0.0109802
0.0302026
-0.0115558
0.029706
-0.0120309
0.0288384
-0.0123875
0.0276206
-0.0126082
0.0260812
-0.012677
0.0242555
-0.0125791
0.0221846
-0.0123019
0.0199136
-0.0118353
0.0174902
-0.0111715
0.0149628
-0.0103061
0.012379
-0.00923765
0.00978348
-0.00796809
0.00721686
-0.0065028
0.00471378
-0.00485062
0.00230173
-0.00302377
-0.00103769
0.0245684
-0.00936851
0.0245819
-0.00978374
0.0242912
-0.0101172
0.0237016
-0.0103565
0.0228246
-0.0104894
0.0216778
-0.0105043
0.0202843
-0.0103905
0.0186719
-0.0101385
0.0168726
-0.00973987
0.0149209
-0.0091879
0.0128535
-0.00847759
0.0107075
-0.00760585
0.00851964
-0.00657167
0.00632492
-0.00537618
0.00415544
-0.00402273
0.00203938
-0.00251695
-0.000866673
0.0193662
-0.00783829
0.0194642
-0.00812631
0.0193263
-0.00834813
0.018953
-0.00849541
0.0183495
-0.00855998
0.0175257
-0.0085339
0.0164955
-0.0084097
0.0152771
-0.00818046
0.0138919
-0.00783998
0.0123641
-0.00738292
0.0107204
-0.00680488
0.00898866
-0.00610258
0.00719779
-0.00527393
0.00537649
-0.00431808
0.00355265
-0.00323557
0.00175254
-0.00202829
-0.000699579
0.014718
-0.0063506
0.0148632
-0.00653934
0.0148309
-0.00667551
0.0146191
-0.00675381
0.0142288
-0.00676903
0.0136646
-0.00671608
0.0129343
-0.00659009
0.0120487
-0.00638645
0.0110215
-0.00610096
0.00986885
-0.00572982
0.00860919
-0.00526978
0.00726269
-0.00471814
0.00585087
-0.00407285
0.00439611
-0.00333259
0.00292113
-0.00249676
0.00144848
-0.00156556
-0.000540034
0.0106109
-0.00486535
0.0107705
-0.0049785
0.0108027
-0.00505174
0.010704
-0.00508199
0.0104736
-0.00506621
0.0101126
-0.00500146
0.00962463
-0.00488486
0.00901558
-0.00471371
0.00829351
-0.00448548
0.00746852
-0.00419786
0.00655262
-0.0038488
0.00555949
-0.00343653
0.00450426
-0.00295962
0.00340323
-0.00241701
0.00227361
-0.00180798
0.00113319
-0.00113228
-0.000390058
0.00701615
-0.00334109
0.00716114
-0.00339899
0.00722164
-0.0034295
0.00719422
-0.00343111
0.00707697
-0.00340231
0.00686944
-0.00334168
0.00657279
-0.00324782
0.00618971
-0.00311942
0.0057244
-0.00295526
0.00518258
-0.00275424
0.00457138
-0.00251536
0.00389928
-0.00223777
0.00317596
-0.00192076
0.00241224
-0.00156378
0.00161987
-0.00116647
0.000811401
-0.000728662
-0.000250364
0.00389429
-0.00173451
0.00399882
-0.00175514
0.00405593
-0.00176148
0.00406305
-0.00175301
0.00401844
-0.00172924
0.00392119
-0.00168971
0.00377129
-0.00163397
0.0035696
-0.00156163
0.00331792
-0.00147233
0.0030189
-0.00136576
0.00267611
-0.00124165
0.00229395
-0.00109979
0.00187762
-0.000940019
0.00143309
-0.000762229
0.000967027
-0.000566382
0.000486719
-0.0003525
-0.000120671
0.00120059
-2.94948e-18
0.00124102
-2.33901e-18
0.00126653
-2.50687e-18
0.00127611
-2.43944e-18
0.00126903
-1.89877e-18
0.0012448
-1.80717e-18
0.00120323
-1.71979e-18
0.00114442
-1.289e-18
0.00106876
-8.96787e-19
0.000976956
-6.39765e-19
0.000869982
-3.61602e-19
0.000749117
-3.63459e-19
0.000615921
-4.51734e-19
0.000472218
-3.16636e-19
0.000320086
-1.61681e-19
0.000161839
-6.48097e-20
-1.2969e-20
-0.00111045
0.00191068
-0.00115628
0.00191496
-0.00118788
0.00190318
-0.00120412
0.0018753
-0.00120412
0.00183133
-0.00118725
0.00177131
-0.00115319
0.00169535
-0.00110188
0.00160362
-0.00103357
0.00149631
-0.0009488
0.00137366
-0.000848413
0.00123595
-0.00073353
0.0010835
-0.000605558
0.000916644
-0.000466173
0.000735766
-0.000317305
0.000541263
-0.000161121
0.000333556
0.000113085
-0.00308109
0.0040485
-0.00323448
0.00403992
-0.00334668
0.00399689
-0.00341394
0.00391984
-0.00343328
0.00380934
-0.00340253
0.00366607
-0.00332037
0.00349085
-0.00318636
0.00328461
-0.00300094
0.00304837
-0.00276542
0.00278323
-0.002482
0.00249034
-0.00215372
0.00217093
-0.00178443
0.00182624
-0.00137876
0.00145756
-0.00094204
0.00106616
-0.000480265
0.000653313
0.00022029
-0.00474698
0.00646691
-0.00502882
0.00642638
-0.0052436
0.00633014
-0.00538454
0.00617969
-0.00544623
0.00597681
-0.00542469
0.00572354
-0.0053174
0.00542209
-0.00512332
0.00507486
-0.00484294
0.0046844
-0.00447816
0.00425332
-0.00403233
0.00378432
-0.00351016
0.00328012
-0.00291759
0.00274342
-0.00226173
0.00217689
-0.00155071
0.00158309
-0.000793554
0.000964511
0.000323481
-0.00613433
0.00922112
-0.0065654
0.00912643
-0.00690356
0.00895131
-0.0071387
0.00869916
-0.00726279
0.00837381
-0.00726994
0.00797946
-0.00715645
0.00752058
-0.0069208
0.00700188
-0.00656358
0.00642819
-0.00608744
0.00580439
-0.00549691
0.00513536
-0.00479829
0.00442588
-0.00399943
0.00368059
-0.00310952
0.00290387
-0.00213884
0.00209984
-0.00109846
0.00127229
0.000424606
-0.00725764
0.012367
-0.00785866
0.0121915
-0.00834
0.0119069
-0.00868796
0.0115196
-0.00889186
0.0110364
-0.00894404
0.0104648
-0.00883987
0.00981258
-0.00857769
0.00908771
-0.00815862
0.00829818
-0.00758638
0.00745192
-0.00686699
0.00655659
-0.00600848
0.00561952
-0.00502047
0.00464756
-0.00391384
0.00364698
-0.00270025
0.00262337
-0.00139167
0.00158158
0.000525665
-0.00811786
0.0159593
-0.00890943
0.0156707
-0.00955275
0.0152399
-0.0100304
0.0146775
-0.0103292
0.0139949
-0.01044
0.0132041
-0.0103578
0.0123176
-0.0100815
0.0113477
-0.00961346
0.0103064
-0.00895898
0.00920559
-0.0081261
0.00805621
-0.00712478
0.00686842
-0.00596637
0.00565134
-0.00466295
0.00441289
-0.00322664
0.00315971
-0.00166891
0.00189702
0.000628668
-0.00870112
0.0200497
-0.00970352
0.0196088
-0.0105265
0.0189875
-0.0111491
0.0182026
-0.0115556
0.017272
-0.0117364
0.016214
-0.0116868
0.0150469
-0.0114072
0.013789
-0.010902
0.0124575
-0.0101792
0.0110685
-0.00924923
0.00963691
-0.00812441
0.00817566
-0.00681761
0.0066958
-0.00534148
0.00520627
-0.00370746
0.00371378
-0.00192484
0.00222279
0.000735551
-0.00897799
0.0246843
-0.0102109
0.0240433
-0.0112302
0.0231786
-0.0120112
0.0221156
-0.0125367
0.0208807
-0.0127971
0.0195006
-0.0127894
0.0180019
-0.0125167
0.0164096
-0.0119867
0.0147474
-0.011211
0.0130364
-0.0102033
0.0112954
-0.00897816
0.00953967
-0.00754988
0.00778146
-0.00593075
0.00602949
-0.00413008
0.00428909
-0.00215307
0.00256228
0.000848017
-0.00890366
0.0299006
-0.0103861
0.0290026
-0.0116171
0.0278319
-0.0125687
0.0264257
-0.013223
0.024822
-0.0135717
0.0230587
-0.0136151
0.0211723
-0.0133603
0.0191968
-0.0128199
0.0171629
-0.0120101
0.0150972
-0.0109484
0.0130219
-0.00965189
0.0109539
-0.00813538
0.008905
-0.00640971
0.00688208
-0.00448037
0.00488706
-0.00234644
0.0029175
0.000967232
-0.00841917
0.0357252
-0.0101692
0.0345028
-0.0116264
0.032953
-0.01276
0.0311287
-0.0135523
0.0290834
-0.0139982
0.0268693
-0.0141028
0.0245355
-0.0138794
0.0221264
-0.0133469
0.0196808
-0.0125269
0.0172304
-0.0114412
0.0147999
-0.0101091
0.0124061
-0.00854492
0.0100587
-0.00675651
0.00775986
-0.00474358
0.00550598
-0.00249725
0.00328808
0.00109336
-0.00745393
0.042171
-0.00948905
0.0405456
-0.0111864
0.0385323
-0.012513
0.036205
-0.0134531
0.0336372
-0.0140066
0.0308993
-0.0141855
0.0280556
-0.0140111
0.0251627
-0.0135101
0.0222677
-0.0127106
0.0194069
-0.0116386
0.0166056
-0.0103145
0.0138782
-0.00875089
0.0112291
-0.00695054
0.0086535
-0.00490558
0.00613942
-0.0025978
0.00366985
0.00122492
-0.00592982
0.0492348
-0.00826722
0.0471165
-0.010219
0.0445439
-0.0117507
0.0416186
-0.0128503
0.0384398
-0.0135248
0.0351003
-0.0137956
0.031683
-0.013694
0.028258
-0.0132557
0.0248802
-0.0125155
0.0215889
-0.0115031
0.0184076
-0.0102387
0.0153449
-0.00873081
0.0123961
-0.006975
0.00954652
-0.00495425
0.006774
-0.00264089
0.00405294
0.00135793
-0.00376683
0.0568956
-0.00642418
0.0541835
-0.00864591
0.0509449
-0.0103973
0.047317
-0.0116718
0.0434318
-0.0124859
0.0394099
-0.0128728
0.0353556
-0.0128757
0.0313534
-0.0125402
0.0274652
-0.0119075
0.0237305
-0.0110093
0.0201667
-0.00986324
0.0167724
-0.00847123
0.0135303
-0.00681948
0.0104127
-0.00488104
0.00738665
-0.00262042
0.00441956
0.00148498
-0.000890119
0.065114
-0.00388653
0.0616968
-0.00639672
0.0576751
-0.00838656
0.0532315
-0.00985694
0.0485391
-0.0108365
0.0437522
-0.0113726
0.0389996
-0.0115215
0.0343803
-0.0113389
0.0299611
-0.0108711
0.025777
-0.0101493
0.0218347
-0.00918538
0.0181172
-0.00797139
0.0145907
-0.00648241
0.011213
-0.00468227
0.00794147
-0.00253194
0.0047415
0.00159423
0.00276172
0.0738315
-0.000595443
0.0695896
-0.003417
0.0646585
-0.00567014
0.0592789
-0.00736529
0.0536746
-0.0085456
0.0480401
-0.00927443
0.0425317
-0.00962198
0.037262
-0.00965298
0.0322985
-0.00941647
0.0276661
-0.00893911
0.0233538
-0.00822271
0.0193236
-0.00724634
0.0155219
-0.00597301
0.011892
-0.00436016
0.00838637
-0.00237312
0.00497783
0.00166853
0.00722796
0.0829711
0.00348463
0.0777788
0.000322713
0.0718053
-0.0022267
0.065364
-0.0041853
0.0587409
-0.00561289
0.0521783
-0.00659011
0.0458619
-0.00720084
0.0399156
-0.00751659
0.0344018
-0.00758474
0.0293273
-0.0074223
0.0246555
-0.00701599
0.0203217
-0.00632877
0.0162505
-0.00531222
0.0123743
-0.00392337
0.00865018
-0.00214399
0.00507297
0.0016849
0.0125171
0.0924389
0.00835763
0.0861681
0.00481887
0.0790148
0.00193049
0.0713827
-0.000341782
0.0636341
-0.00207585
0.0560662
-0.00337007
0.0488961
-0.00432033
0.0422545
-0.00500087
0.0361902
-0.00545139
0.0306821
-0.00567249
0.025659
-0.0056302
0.0210244
-0.00526909
0.0166821
-0.00453244
0.0125618
-0.00338672
0.00864038
-0.00184707
0.00495584
0.00161446
0.0185996
0.102125
0.0139889
0.0946501
0.0100284
0.0861786
0.00674751
0.0772263
0.00409881
0.0682472
0.0019857
0.0596022
0.000292969
0.0515396
-0.00108391
0.0441907
-0.00221577
0.0375793
-0.00312658
0.0316441
-0.00379243
0.0262701
-0.00415293
0.0213255
-0.00413359
0.0166988
-0.00367585
0.0123315
-0.00277023
0.00824243
-0.00148712
0.00454041
0.00142309
0.0254022
0.111908
0.0203006
0.10311
0.0158649
0.0931848
0.0121267
0.0827849
0.00902611
0.0724745
0.00644833
0.0626868
0.00426375
0.0537003
0.00236467
0.0456369
0.000692127
0.0384816
-0.000751999
0.0321183
-0.00191003
0.0263794
-0.00268999
0.0210977
-0.00300019
0.0161577
-0.00279116
0.011535
-0.00209731
0.00732114
-0.00107079
0.00372816
0.00107301
0.0328053
0.121651
0.0271697
0.111427
0.0221978
0.0999214
0.0179271
0.0879523
0.0142873
0.0762158
0.0111476
0.0652271
0.00836831
0.0552916
0.00584635
0.0465091
0.00354565
0.0388077
0.00150608
0.0320014
-0.000171015
0.0258615
-0.00135826
0.0201914
-0.00195234
0.0148906
-0.00192909
0.0100009
-0.00139236
0.00572453
-0.000605978
0.0024128
0.000525238
-0.0467677
-0.0841811
0.0493439
-0.0437678
-0.0916956
-0.0403872
-0.0988442
-0.0366817