/*--------------------------------*- C++ -*----------------------------------*\
  =========                 |
  \\      /  F ield         | OpenFOAM: The Open Source CFD Toolbox
   \\    /   O peration     | Website:  https://openfoam.org
    \\  /    A nd           | Version:  6
     \\/     M anipulation  |
\*---------------------------------------------------------------------------*/
FoamFile
{
    version     2.0;
    format      ascii;
    class       volScalarField;
    location    "3.42";
    object      p;
}
// * * * * * * * * * * * * * * * * * * * * * * * * * * * * * * * * * * * * * //

dimensions      [1 -1 -2 0 0 0 0];

internalField   nonuniform List<scalar> 
10000
(
1
1
1
1
1
1
1
1
1
1
1
1
1
1
1
1
1
1
1
1
1
1
1
1
1
1
1
1
1
1
1
1
1
1
1
1
1
1
1
1
1
1
1
1
1
1
0.999999
0.999997
0.999995
0.999991
0.999987
0.999982
0.999976
0.99997
0.999965
0.999961
0.999959
0.99996
0.999963
0.99997
0.999981
0.999994
1.00001
1.00003
1.00004
1.00006
1.00007
1.00008
1.00008
1.00008
1.00007
1.00006
1.00005
1.00004
1.00003
1.00002
1.00001
1
0.999994
0.999992
0.99999
0.99999
0.999991
0.999992
0.999993
0.999995
0.999996
0.999997
0.999998
0.999999
0.999999
0.999999
1
1
1
1
1
1
1
1
1
1
1
1
1
1
1
1
1
1
1
1
1
1
1
1
1
1
1
1
1
1
1
1
1
1
1
1
1
1
1
1
1
1
1
1
1
1
1
1
1
1
1
1
1
1
0.999999
0.999997
0.999994
0.999989
0.999983
0.999977
0.999969
0.999962
0.999956
0.999952
0.999949
0.99995
0.999954
0.999963
0.999975
0.999991
1.00001
1.00003
1.00005
1.00007
1.00009
1.0001
1.00011
1.00011
1.0001
1.0001
1.00008
1.00006
1.00005
1.00003
1.00002
1.00001
1
0.999993
0.99999
0.999989
0.999988
0.999989
0.999991
0.999993
0.999994
0.999996
0.999997
0.999998
0.999999
0.999999
1
1
1
1
1
1
1
1
1
1
1
1
1
1
1
1
1
1
1
1
1
1
1
1
1
1
1
1
1
1
1
1
1
1
1
1
1
1
1
1
1
1
1
1
1
1
1
1
1
1
1
1
1
1
1
0.999997
0.999992
0.999987
0.999979
0.999971
0.999962
0.999954
0.999947
0.999942
0.99994
0.999942
0.999947
0.999957
0.999972
0.99999
1.00001
1.00004
1.00006
1.00009
1.00011
1.00013
1.00014
1.00015
1.00015
1.00014
1.00012
1.00011
1.00008
1.00006
1.00004
1.00003
1.00001
0.999999
0.999992
0.999988
0.999987
0.999987
0.999988
0.99999
0.999992
0.999994
0.999996
0.999997
0.999998
0.999999
0.999999
1
1
1
1
1
1
1
1
1
1
1
1
1
1
1
1
1
1
1
1
1
1
1
1
1
1
1
1
1
1
1
1
1
1
1
1
1
1
1
1
1
1
1
1
1
1
1
1
1
1.00001
1.00001
1.00001
1
1
0.999998
0.999992
0.999984
0.999974
0.999965
0.999955
0.999946
0.999939
0.999934
0.999934
0.999937
0.999945
0.999956
0.999973
0.999996
1.00002
1.00005
1.00008
1.00011
1.00014
1.00017
1.00018
1.00019
1.0002
1.00019
1.00018
1.00016
1.00014
1.00011
1.00008
1.00005
1.00003
1.00001
0.999999
0.999991
0.999986
0.999984
0.999985
0.999987
0.999989
0.999991
0.999994
0.999996
0.999997
0.999998
0.999999
0.999999
1
1
1
1
1
1
1
1
1
1
1
1
1
1
1
1
1
1
1
1
1
1
1
1
1
0.999999
1
0.999999
1
1
1
1
1
0.999999
1
1
1
1
1
1
1
1
1
1
1
1.00001
1.00001
1.00001
1.00001
1.00001
1.00001
1.00001
1.00001
1
0.999992
0.999982
0.999971
0.99996
0.999949
0.999941
0.999934
0.999932
0.999934
0.99994
0.999951
0.999967
0.999988
1.00001
1.00005
1.00008
1.00012
1.00015
1.00019
1.00022
1.00024
1.00026
1.00027
1.00027
1.00026
1.00024
1.00021
1.00017
1.00014
1.0001
1.00007
1.00004
1.00002
0.999998
0.999988
0.999983
0.999982
0.999983
0.999985
0.999988
0.999991
0.999994
0.999996
0.999997
0.999998
0.999999
0.999999
1
1
1
1
1
1
1
1
1
1
1
1
1
1
1
1
1
1
1
1
1
1
1
1
1
1
1
1
1
1
1
1
0.999999
1
1
1
1
1
1
1
1
1
1.00001
1.00001
1.00001
1.00001
1.00002
1.00002
1.00002
1.00002
1.00002
1.00001
1
0.999994
0.999982
0.99997
0.999959
0.999949
0.999942
0.999938
0.99994
0.999946
0.999957
0.999974
0.999996
1.00002
1.00005
1.00009
1.00013
1.00017
1.00022
1.00026
1.00029
1.00033
1.00035
1.00036
1.00037
1.00036
1.00034
1.00031
1.00026
1.00022
1.00017
1.00013
1.00008
1.00005
1.00002
0.999997
0.999985
0.999979
0.999978
0.99998
0.999984
0.999987
0.999991
0.999994
0.999996
0.999997
0.999998
0.999999
1
1
1
1
1
1
1
1
1
1
1
1
1
1
1
1
1
1
1
1
1
1
1
1
1
0.999999
1
0.999999
1
1
1
1
1
1
1
1
1
1
1
1
1.00001
1.00001
1.00001
1.00001
1.00002
1.00002
1.00003
1.00003
1.00003
1.00003
1.00003
1.00002
1.00001
1
0.999987
0.999976
0.999966
0.999959
0.999956
0.999958
0.999966
0.99998
1
1.00002
1.00006
1.00009
1.00013
1.00017
1.00022
1.00027
1.00032
1.00036
1.00041
1.00045
1.00048
1.0005
1.0005
1.0005
1.00048
1.00044
1.0004
1.00034
1.00027
1.00021
1.00015
1.0001
1.00006
1.00002
0.999996
0.999982
0.999975
0.999975
0.999978
0.999982
0.999987
0.999991
0.999994
0.999996
0.999998
0.999999
0.999999
1
1
1
1
1
1
1
1
1
1
1
1
1
1
1
1
1
1
1
1
1
1
0.999999
1
0.999999
1
0.999999
1
1
0.999998
1
1
0.999998
1
0.999999
1
1
1.00001
1.00001
1.00001
1.00002
1.00002
1.00003
1.00004
1.00004
1.00005
1.00005
1.00005
1.00005
1.00004
1.00004
1.00002
1.00001
1
0.999993
0.999988
0.999987
0.999991
1
1.00002
1.00005
1.00008
1.00012
1.00016
1.00021
1.00026
1.00031
1.00037
1.00042
1.00048
1.00053
1.00058
1.00063
1.00066
1.00069
1.0007
1.00069
1.00067
1.00063
1.00058
1.00051
1.00043
1.00034
1.00026
1.00018
1.00012
1.00006
1.00002
0.999994
0.999978
0.999971
0.999972
0.999976
0.999981
0.999987
0.999991
0.999994
0.999997
0.999998
0.999999
1
1
1
1
1
1
1
1
1
1
1
1
1
1
1
1
1
1
1
0.999999
1
1
0.999999
1
1
0.999999
1
1
0.999999
1
1
1
1
1
1
1
1.00001
1.00001
1.00002
1.00002
1.00003
1.00004
1.00005
1.00006
1.00007
1.00008
1.00008
1.00008
1.00008
1.00007
1.00006
1.00005
1.00004
1.00003
1.00003
1.00004
1.00005
1.00006
1.00009
1.00013
1.00017
1.00022
1.00027
1.00034
1.0004
1.00047
1.00053
1.0006
1.00067
1.00073
1.0008
1.00085
1.0009
1.00094
1.00097
1.00098
1.00097
1.00094
1.00089
1.00083
1.00074
1.00064
1.00053
1.00042
1.00031
1.00021
1.00013
1.00007
1.00002
0.999991
0.999975
0.999969
0.99997
0.999975
0.999981
0.999987
0.999992
0.999995
0.999997
0.999999
0.999999
1
1
1
1
1
1
1
1
1
1
1
1
1
1
1
1
1
0.999999
1
1
0.999999
1
0.999999
1
0.999998
1
0.999998
0.999999
1
0.999999
1
1
0.999999
1.00001
1.00001
1.00002
1.00002
1.00003
1.00004
1.00005
1.00007
1.00008
1.00009
1.00011
1.00011
1.00012
1.00012
1.00012
1.00011
1.0001
1.00009
1.00009
1.00009
1.00011
1.00013
1.00016
1.00019
1.00024
1.0003
1.00037
1.00044
1.00052
1.00061
1.0007
1.00079
1.00087
1.00096
1.00104
1.00112
1.00119
1.00126
1.00132
1.00136
1.00138
1.00139
1.00137
1.00134
1.00127
1.00119
1.00108
1.00095
1.00081
1.00066
1.00051
1.00037
1.00024
1.00014
1.00007
1.00002
0.999986
0.999971
0.999967
0.999969
0.999975
0.999982
0.999988
0.999993
0.999996
0.999998
0.999999
1
1
1
1
1
1
1
1
1
1
1
1
1
1
1
0.999999
1
0.999999
1
0.999999
1
1
0.999997
1
1
1
0.999994
1.00001
1
0.999999
1
1
1.00001
1.00002
1.00002
1.00002
1.00004
1.00005
1.00007
1.00009
1.00011
1.00013
1.00015
1.00016
1.00017
1.00017
1.00017
1.00017
1.00017
1.00017
1.00017
1.00018
1.00021
1.00024
1.00028
1.00034
1.00041
1.00049
1.00058
1.00068
1.00079
1.0009
1.00102
1.00114
1.00126
1.00138
1.00149
1.0016
1.0017
1.00179
1.00186
1.00193
1.00198
1.00201
1.002
1.00197
1.00191
1.00183
1.00171
1.00155
1.00138
1.00119
1.001
1.0008
1.0006
1.00042
1.00027
1.00015
1.00006
1.00001
0.999979
0.999967
0.999966
0.99997
0.999977
0.999984
0.99999
0.999994
0.999997
0.999998
0.999999
1
1
1
1
1
1
1
1
1
1
1
1
1
1
1
1
1
1
0.999998
1
0.999999
0.999998
1
1
0.999992
1.00001
1
0.999997
1
1.00001
1.00001
1.00002
1.00001
1.00004
1.00004
1.00007
1.00009
1.00011
1.00014
1.00017
1.00019
1.00021
1.00023
1.00024
1.00024
1.00025
1.00025
1.00026
1.00028
1.0003
1.00034
1.0004
1.00046
1.00055
1.00064
1.00075
1.00088
1.00101
1.00116
1.00131
1.00146
1.00163
1.00179
1.00195
1.0021
1.00225
1.0024
1.00252
1.00264
1.00274
1.00282
1.00289
1.00292
1.0029
1.00285
1.00277
1.00264
1.00247
1.00226
1.00202
1.00176
1.00148
1.00121
1.00094
1.00069
1.00047
1.00028
1.00014
1.00005
0.999994
0.999969
0.999962
0.999965
0.999972
0.999979
0.999986
0.999992
0.999995
0.999998
0.999999
1
1
1
1
1
1
1
1
1
1
1
1
1
0.999999
1
0.999998
1
0.999997
1
1
0.999996
1
1
0.999995
0.999997
1.00001
0.99999
1
1.00001
1.00002
1.00001
1.00002
1.00003
1.00006
1.00008
1.00011
1.00014
1.00017
1.00021
1.00024
1.00027
1.0003
1.00032
1.00033
1.00034
1.00036
1.00038
1.00041
1.00046
1.00052
1.0006
1.0007
1.00082
1.00096
1.00111
1.00128
1.00146
1.00165
1.00185
1.00206
1.00227
1.00248
1.0027
1.00291
1.00312
1.00333
1.00352
1.00369
1.00386
1.00398
1.00411
1.0042
1.00421
1.00421
1.00417
1.00403
1.00383
1.00358
1.00329
1.00296
1.0026
1.0022
1.0018
1.00142
1.00107
1.00076
1.00049
1.00028
1.00013
1.00003
0.999979
0.999959
0.999958
0.999965
0.999974
0.999983
0.999989
0.999994
0.999997
0.999998
0.999999
1
1
1
1
1
1
1
1
1
1
1
1
0.999999
1
0.999999
1
0.999996
1.00001
0.999996
0.999998
1.00001
0.999993
0.999994
1.00002
0.999992
0.999998
1.00001
1.00002
1.00001
1.00003
1.00003
1.00008
1.00008
1.00014
1.00015
1.00021
1.00025
1.0003
1.00034
1.00037
1.0004
1.00043
1.00046
1.00049
1.00053
1.00058
1.00066
1.00075
1.00088
1.00102
1.00119
1.00138
1.00159
1.00181
1.00205
1.0023
1.00257
1.00283
1.00311
1.00339
1.00367
1.00396
1.00424
1.00453
1.00479
1.00504
1.00532
1.0055
1.0057
1.00591
1.006
1.00606
1.00609
1.00601
1.00585
1.00561
1.00524
1.00481
1.00433
1.0038
1.00324
1.00269
1.00215
1.00164
1.00118
1.0008
1.00049
1.00026
1.00011
1.00001
0.999966
0.999953
0.999957
0.999967
0.999978
0.999986
0.999992
0.999996
0.999998
0.999999
1
1
1
1
1
1
1
1
1
1
1
1
1
0.999999
1
0.999997
1
1
0.999995
1.00001
1
0.999987
1.00001
1
0.99998
1.00002
1.00001
1.00002
1.00001
1.00005
1.00007
1.0001
1.00013
1.00019
1.00023
1.00029
1.00036
1.0004
1.00045
1.00049
1.00054
1.00058
1.00063
1.0007
1.00079
1.00091
1.00105
1.00122
1.00143
1.00167
1.00192
1.00221
1.00251
1.00283
1.00316
1.0035
1.00386
1.0042
1.00456
1.00492
1.0053
1.00565
1.00602
1.00642
1.00672
1.00713
1.00745
1.00772
1.00807
1.00826
1.00845
1.00862
1.00866
1.00859
1.00844
1.00811
1.00764
1.00707
1.00636
1.00558
1.00478
1.00398
1.00321
1.00248
1.00182
1.00126
1.0008
1.00046
1.00022
1.00007
0.999987
0.999953
0.999949
0.999958
0.99997
0.999981
0.999989
0.999994
0.999997
0.999998
1
1
1
1
1
1
1
1
1
1
1
0.999999
1
0.999998
1
0.999995
1.00001
0.999991
1
1.00001
0.999983
1.00001
1.00001
0.999976
1.00002
1.00001
1.00002
0.999994
1.00007
1.00005
1.00012
1.00012
1.00022
1.00023
1.00035
1.00038
1.00047
1.00052
1.00058
1.00064
1.00071
1.00079
1.0009
1.00103
1.0012
1.00141
1.00166
1.00194
1.00227
1.00262
1.003
1.00341
1.00383
1.00426
1.00471
1.00515
1.0056
1.00606
1.00651
1.00696
1.00745
1.00788
1.0084
1.00882
1.00932
1.00983
1.01016
1.01071
1.01108
1.0114
1.01174
1.01195
1.0121
1.01214
1.01198
1.01158
1.01107
1.0103
1.00931
1.00822
1.00705
1.00588
1.00473
1.00367
1.00274
1.00194
1.00127
1.00075
1.00039
1.00016
1.00002
0.999961
0.999944
0.999949
0.999962
0.999975
0.999985
0.999992
0.999996
0.999998
0.999999
1
0.999999
1
1
1
1
1
1
0.999999
1
0.999999
1
1
0.999998
1
0.999999
0.999996
1.00001
0.99999
0.999997
1.00002
0.999978
1
1.00003
0.999998
1.00001
1.00003
1.00008
1.00008
1.00015
1.0002
1.00027
1.00034
1.00044
1.00051
1.00058
1.00067
1.00075
1.00084
1.00096
1.00111
1.0013
1.00154
1.00183
1.00217
1.00257
1.00301
1.00348
1.00399
1.00452
1.00508
1.00564
1.00621
1.00678
1.00737
1.00792
1.00851
1.00906
1.00964
1.0102
1.01081
1.01139
1.01192
1.01267
1.01313
1.01381
1.01441
1.01489
1.01549
1.01587
1.01628
1.01656
1.0167
1.0166
1.01635
1.01576
1.01474
1.01352
1.01201
1.01038
1.00868
1.00698
1.00544
1.00408
1.0029
1.00194
1.0012
1.00066
1.0003
1.00008
0.999978
0.99994
0.999938
0.999951
0.999967
0.99998
0.999989
0.999994
0.999998
0.999998
0.999999
1
0.999999
1
0.999999
1
0.999999
1
1
0.999999
1
0.999997
1
0.999995
1.00001
0.999989
1.00001
0.999998
0.999985
1.00003
0.999985
0.99999
1.00003
1
1.00001
1.00001
1.0001
1.00004
1.00018
1.00015
1.00031
1.00031
1.0005
1.0005
1.00068
1.00069
1.00086
1.00096
1.00113
1.00132
1.00159
1.00191
1.0023
1.00277
1.00329
1.00388
1.00452
1.00519
1.00589
1.00661
1.00733
1.00807
1.0088
1.00951
1.01024
1.01094
1.01162
1.01233
1.01302
1.01368
1.01445
1.01507
1.01594
1.01659
1.01733
1.01825
1.01883
1.01973
1.0203
1.02101
1.02159
1.02199
1.02233
1.02246
1.02239
1.02175
1.0208
1.01932
1.01734
1.01511
1.01268
1.01032
1.00809
1.00603
1.0043
1.00291
1.00183
1.00104
1.00051
1.00019
1.00001
0.999942
0.999928
0.999939
0.999958
0.999973
0.999986
0.999992
0.999997
0.999998
0.999998
1
0.999999
1
1
1
1
0.999999
1
0.999998
1
0.999999
0.999999
1
0.999997
1
1.00001
0.999982
1.00002
1
0.999978
1.00002
1.00001
0.999989
1.00002
1.00006
1.00008
1.0001
1.00019
1.00023
1.00035
1.00044
1.00055
1.00063
1.00078
1.00091
1.00106
1.00128
1.00153
1.00186
1.00229
1.0028
1.00341
1.0041
1.00487
1.0057
1.00658
1.00749
1.00842
1.00935
1.01029
1.01121
1.01212
1.013
1.01385
1.01471
1.01549
1.01634
1.01711
1.01798
1.01872
1.01963
1.02055
1.02127
1.02245
1.02315
1.02429
1.02515
1.02601
1.02705
1.02757
1.02834
1.02884
1.02929
1.02934
1.0291
1.0284
1.02679
1.02455
1.02165
1.0184
1.01509
1.01183
1.00891
1.00642
1.00435
1.00275
1.0016
1.00083
1.00034
1.00008
0.99996
0.999925
0.999929
0.999948
0.999967
0.99998
0.999991
0.999994
0.999999
0.999999
0.999999
1
0.999998
1
0.999998
1
0.999999
1
1
0.999998
1
0.999996
1.00001
0.999991
1.00001
0.999988
0.999999
1.00002
0.999962
1.00003
1.00001
0.999997
1
1.00003
1.0001
1.00004
1.0002
1.00016
1.00037
1.00035
1.00058
1.00057
1.00084
1.00088
1.0012
1.00133
1.00172
1.0021
1.00265
1.00327
1.00406
1.00494
1.00592
1.00699
1.00811
1.00928
1.01047
1.01166
1.01284
1.014
1.01512
1.01619
1.01725
1.01823
1.01918
1.02015
1.02101
1.02194
1.02287
1.02372
1.02483
1.02557
1.02685
1.02775
1.02887
1.03013
1.03094
1.03244
1.03316
1.03419
1.03504
1.03561
1.03624
1.03665
1.03707
1.03664
1.03551
1.03344
1.03021
1.02617
1.02163
1.01717
1.01307
1.00944
1.00645
1.00415
1.00245
1.0013
1.00058
1.00018
0.999988
0.999921
0.999919
0.999936
0.99996
0.999975
0.999988
0.999993
0.999997
1
0.999997
1
0.999999
1
1
0.999999
1
0.999997
1
0.999998
1
1
0.999997
1
1
0.999987
1.00003
0.999974
1.00001
1.00002
0.999999
0.999986
1.00003
1.00007
1.00006
1.00009
1.00019
1.00025
1.00039
1.00044
1.00061
1.00074
1.00098
1.00112
1.00146
1.0018
1.00229
1.00293
1.0037
1.00463
1.00573
1.00694
1.00828
1.0097
1.01117
1.01267
1.01416
1.01564
1.01708
1.01846
1.01977
1.021
1.02217
1.02327
1.0243
1.02532
1.02623
1.02727
1.0281
1.02924
1.03007
1.03118
1.03235
1.03323
1.03482
1.03557
1.03715
1.03817
1.03913
1.04049
1.04101
1.04176
1.0422
1.04299
1.04365
1.04406
1.04413
1.04282
1.04001
1.03569
1.03029
1.02447
1.01874
1.01368
1.00948
1.00615
1.0037
1.00201
1.00094
1.00033
1.00003
0.999918
0.999902
0.999922
0.999947
0.999971
0.999982
0.999994
0.999994
0.999997
1
0.999997
1
0.999996
1
0.999997
1
0.999998
1
1
0.999999
1
0.999996
1.00001
0.999987
1.00001
1
0.999969
1.00005
0.99997
1.00002
0.999981
1.00008
1.00005
1.00001
1.00019
1.00016
1.00036
1.00033
1.00059
1.00064
1.00096
1.00107
1.00148
1.00178
1.00245
1.00305
1.00402
1.00506
1.00639
1.00783
1.00946
1.0112
1.01301
1.01487
1.01672
1.01854
1.0203
1.02197
1.02354
1.02498
1.02632
1.02754
1.02868
1.02974
1.03065
1.03167
1.03251
1.03346
1.03441
1.03521
1.0365
1.03714
1.03863
1.03949
1.04073
1.04213
1.04265
1.04408
1.04459
1.04528
1.04572
1.04584
1.04624
1.04686
1.04844
1.04983
1.05026
1.04914
1.04579
1.04035
1.0335
1.02629
1.0195
1.01361
1.00893
1.00547
1.00305
1.0015
1.0006
1.00013
0.999939
0.999887
0.999906
0.999932
0.999962
0.999978
0.99999
0.999996
0.999994
1
0.999998
1
1
0.999999
1
0.999997
1
0.999996
1
0.999997
1
1
0.999998
0.999997
1.00002
0.999964
1.00004
0.999989
0.999996
0.999982
1.00006
1.00004
0.999993
1.00009
1.00021
1.00019
1.00032
1.00042
1.00065
1.00076
1.00108
1.00131
1.00185
1.00232
1.00315
1.00411
1.00531
1.0068
1.00847
1.01038
1.01245
1.01463
1.01686
1.01911
1.02131
1.02343
1.02542
1.02726
1.02893
1.03041
1.03175
1.03293
1.03396
1.03488
1.03572
1.03653
1.03719
1.03811
1.03861
1.03967
1.04021
1.04118
1.04219
1.04276
1.04424
1.04454
1.04556
1.04586
1.04577
1.04611
1.04574
1.04543
1.04482
1.04522
1.04687
1.04947
1.05265
1.05455
1.05378
1.04993
1.04344
1.0353
1.02678
1.01907
1.01274
1.00789
1.00449
1.00229
1.00099
1.0003
0.99999
0.999892
0.999889
0.999922
0.999949
0.999976
0.999984
0.999997
0.999999
0.999995
1
0.999995
1.00001
0.999995
1
0.999996
1
0.999997
1
0.999999
1
1
0.999995
1.00001
0.999986
0.999999
1.00003
0.999954
1.00002
0.999992
1.00009
0.999915
1.00007
1.00018
1.00011
1.00024
1.00029
1.00057
1.00062
1.00094
1.00119
1.00166
1.00222
1.00304
1.00397
1.00535
1.00685
1.00879
1.01088
1.01328
1.0158
1.01845
1.0211
1.02371
1.02621
1.02854
1.03066
1.03253
1.03415
1.03555
1.03669
1.03768
1.03848
1.03912
1.03973
1.04011
1.04068
1.04098
1.04151
1.04199
1.04222
1.0431
1.04316
1.04416
1.04429
1.04452
1.04478
1.04378
1.04324
1.04186
1.04065
1.03931
1.03792
1.03725
1.03785
1.04131
1.04684
1.05248
1.05625
1.05632
1.05206
1.04436
1.03506
1.02576
1.01755
1.01109
1.00644
1.00337
1.00152
1.00054
1.00007
0.999912
0.999881
0.99991
0.99994
0.999968
0.999984
0.999991
0.999999
0.999996
1
1
0.999999
1
0.999997
1
0.999996
1
0.999996
1
0.999997
1
0.999999
1.00001
0.999978
1.00004
0.99996
1.00001
1.00001
1.00006
0.999939
1
1.00015
1.00009
1.00005
1.00029
1.00035
1.00052
1.00069
1.0011
1.00139
1.00204
1.00266
1.0038
1.00498
1.00665
1.00863
1.01089
1.01354
1.01637
1.01939
1.02245
1.02549
1.02838
1.03107
1.03347
1.03554
1.03726
1.03865
1.03973
1.04054
1.04113
1.04155
1.04178
1.04184
1.04193
1.04195
1.04185
1.04203
1.04169
1.04203
1.04173
1.04186
1.04188
1.04122
1.04105
1.03944
1.03796
1.03554
1.03249
1.02982
1.02712
1.02491
1.02276
1.02246
1.02542
1.0319
1.04122
1.05047
1.05624
1.05662
1.05177
1.04315
1.03293
1.02314
1.01502
1.00892
1.0048
1.00227
1.00087
1.0002
0.999941
0.999882
0.999895
0.999935
0.999958
0.999984
0.999988
0.999992
1
0.999994
1
0.999995
1
0.999996
1
0.999997
1
0.999998
1
0.999997
1
1
0.999991
1.00001
1
0.99996
1.00005
1.00001
0.999989
0.999933
1.00018
1.00001
1
1.00017
1.00028
1.00037
1.00047
1.00086
1.00115
1.00165
1.00237
1.00324
1.0045
1.0061
1.00801
1.01041
1.0131
1.01621
1.0195
1.02298
1.02642
1.02974
1.0328
1.03551
1.03779
1.03958
1.04092
1.04186
1.04243
1.04272
1.04278
1.04263
1.04228
1.04179
1.04135
1.04072
1.04033
1.03955
1.03909
1.0385
1.03773
1.03737
1.03604
1.03517
1.03314
1.0306
1.02746
1.02296
1.01853
1.01391
1.01011
1.00683
1.00422
1.0031
1.00453
1.01092
1.02233
1.03608
1.04826
1.05531
1.05547
1.04941
1.03969
1.02902
1.0194
1.01186
1.00657
1.00323
1.00133
1.00039
0.999995
0.999887
0.999887
0.999923
0.999955
0.999975
0.999992
0.999993
0.999999
1
0.999998
1
0.999996
1
0.999995
1
0.999996
1
0.999997
1
0.999999
1
0.999994
1.00003
0.999948
1.00004
1.00001
0.999958
0.999956
1.00011
1.00002
0.999936
1.00009
1.00025
1.00015
1.00039
1.00059
1.00091
1.0012
1.00194
1.00265
1.00389
1.00516
1.00715
1.00936
1.01209
1.01527
1.01873
1.02252
1.02634
1.03011
1.03358
1.03665
1.03918
1.0411
1.0424
1.04315
1.04343
1.04335
1.04296
1.04237
1.04152
1.0405
1.03942
1.03826
1.0372
1.03602
1.03478
1.0337
1.03222
1.03124
1.02956
1.02788
1.02547
1.022
1.01814
1.01278
1.00713
1.00102
0.995194
0.990484
0.98698
0.984732
0.982991
0.983596
0.989001
1.0003
1.01664
1.03422
1.04799
1.05434
1.0527
1.04507
1.03451
1.0239
1.01504
1.00857
1.00435
1.00189
1.00063
1.00008
0.9999
0.999885
0.999911
0.999951
0.99997
0.99999
0.999998
0.999993
1
0.999996
1
0.999998
1
1
0.999999
1
0.999998
1
1
0.999999
0.999999
1.00001
0.999983
0.999996
1.00006
0.999927
0.999989
1.00008
1.00001
0.999872
1.0001
1.00014
1.0001
1.00015
1.0004
1.00064
1.00085
1.00142
1.00209
1.00298
1.00429
1.00591
1.00797
1.01059
1.01365
1.01716
1.02103
1.02519
1.02933
1.03329
1.0368
1.0397
1.04187
1.04323
1.04383
1.04382
1.04333
1.04247
1.04131
1.03998
1.03841
1.03665
1.03488
1.03317
1.0315
1.02965
1.02791
1.02591
1.02418
1.02219
1.01988
1.01719
1.0131
1.00839
1.00246
0.996103
0.98948
0.982546
0.976368
0.971483
0.968616
0.966792
0.965743
0.966419
0.97041
0.980515
0.997365
1.01789
1.03685
1.04932
1.05294
1.0485
1.03907
1.02815
1.01827
1.01068
1.00558
1.00253
1.00092
1.00019
0.999931
0.999883
0.999907
0.999941
0.999972
0.999982
0.999993
0.999998
0.999997
1
0.999996
1
0.999995
1
0.999996
1
0.999999
1
1
0.999998
1
1
0.999972
1.00007
0.999933
0.999979
1.0001
0.999983
0.999899
1.00007
1.00011
1.00001
1
1.0003
1.00033
1.00056
1.0009
1.00156
1.00214
1.00328
1.00451
1.00655
1.00865
1.01156
1.01494
1.01872
1.02294
1.02735
1.0318
1.03585
1.03929
1.04188
1.04353
1.04417
1.04395
1.04309
1.04175
1.04006
1.03808
1.03602
1.03366
1.03115
1.02879
1.02658
1.02424
1.02184
1.01932
1.01691
1.01459
1.01188
1.00882
1.0045
0.999223
0.992864
0.985914
0.979145
0.972339
0.965998
0.960323
0.956166
0.953754
0.952802
0.952965
0.953616
0.95677
0.96558
0.981379
1.00271
1.02498
1.04239
1.05091
1.0501
1.04251
1.03184
1.02132
1.01282
1.00688
1.00323
1.00125
1.00032
0.999974
0.999886
0.999904
0.999935
0.999967
0.999983
0.999989
1
0.999996
1
0.999999
0.999999
1
0.999996
1.00001
0.999994
1.00001
0.999994
1
0.999998
1
0.999986
1.00003
0.999987
0.999931
1.00012
0.999958
0.99989
1.0001
1.00009
0.999936
0.999955
1.00014
1.00025
1.00027
1.00053
1.001
1.00143
1.00227
1.00337
1.00485
1.00674
1.00928
1.01218
1.01582
1.01992
1.02432
1.02898
1.03363
1.03777
1.04106
1.04325
1.04427
1.04413
1.04303
1.04129
1.03908
1.03651
1.03372
1.03093
1.02776
1.02458
1.02179
1.01912
1.01617
1.01302
1.00998
1.00729
1.00448
1.00116
0.996629
0.990966
0.98451
0.977437
0.970497
0.963956
0.958255
0.953204
0.948691
0.945174
0.943198
0.943024
0.943342
0.943929
0.946665
0.954028
0.968478
0.989832
1.01397
1.03487
1.04755
1.05029
1.04482
1.03484
1.02404
1.01483
1.00817
1.00394
1.0016
1.00047
1.00002
0.999898
0.999899
0.999934
0.999961
0.999984
0.999992
0.999995
1
0.999996
1
0.999996
1
0.999997
1
0.999999
0.999999
1
0.999997
1
0.999992
1.00001
1.00001
0.999933
1.0001
0.999981
0.999872
1.00011
1.00005
0.999885
0.999949
1.00009
1.00017
1.00005
1.00028
1.00053
1.00093
1.00135
1.00232
1.0033
1.00504
1.00677
1.00954
1.01253
1.01629
1.02064
1.02523
1.03004
1.03482
1.03907
1.0422
1.04397
1.04432
1.04338
1.04141
1.03881
1.03569
1.03225
1.02869
1.02516
1.02119
1.01753
1.01454
1.01138
1.00763
1.0038
1.00069
0.997983
0.994731
0.990145
0.984145
0.977401
0.970342
0.963535
0.957326
0.952053
0.947719
0.94384
0.94025
0.937288
0.935806
0.935573
0.93577
0.936341
0.938114
0.94408
0.957472
0.978461
1.00366
1.02722
1.04341
1.04939
1.04614
1.03714
1.02635
1.01663
1.00935
1.00463
1.00195
1.00063
1.00008
0.999914
0.999899
0.999931
0.99996
0.99998
0.999992
0.999995
0.999999
1
0.999999
1
0.999996
1
0.999994
1.00001
0.999993
1.00001
0.999994
1
0.999997
1.00001
0.999962
1.00004
1.00003
0.999872
1.00012
1.00006
0.999836
0.999982
1.00006
1.0001
0.999975
1.00005
1.00025
1.00048
1.00076
1.0014
1.00211
1.00326
1.00474
1.0069
1.00934
1.01263
1.01638
1.02087
1.02567
1.03055
1.03543
1.03978
1.04286
1.04424
1.04393
1.04221
1.03943
1.03599
1.03195
1.02765
1.02333
1.01905
1.01439
1.01066
1.00752
1.00355
0.998898
0.995056
0.992467
0.989799
0.985471
0.979062
0.971556
0.964086
0.957368
0.951639
0.94681
0.942746
0.939145
0.935825
0.932777
0.930502
0.929469
0.92958
0.930283
0.930582
0.931422
0.936192
0.948093
0.968236
0.994069
1.01967
1.03876
1.04769
1.04661
1.03873
1.02814
1.01813
1.01039
1.00525
1.00228
1.00078
1.00014
0.999931
0.999904
0.999927
0.99996
0.999978
0.999989
0.999998
0.999996
1
0.999997
1
0.999998
1
1
0.999999
1
0.999998
1
0.999997
1.00001
0.999984
1.00001
1.00004
0.999892
1.00008
1.00006
0.999835
1.00003
1.0001
1.00003
0.999949
0.999913
1.00012
1.00021
1.00041
1.00066
1.00125
1.00185
1.00313
1.00436
1.00667
1.00909
1.01233
1.0161
1.02065
1.02564
1.03059
1.0355
1.03997
1.04313
1.04427
1.04336
1.04089
1.03736
1.03309
1.02819
1.02296
1.01792
1.01287
1.00783
1.00436
1.00069
0.995587
0.990785
0.988021
0.986141
0.982516
0.975742
0.966916
0.958359
0.9515
0.946298
0.941834
0.937463
0.93315
0.92914
0.925478
0.922289
0.920151
0.919802
0.921449
0.923732
0.925208
0.926539
0.93044
0.940805
0.959925
0.985768
1.01266
1.03401
1.0454
1.04629
1.03957
1.02939
1.01928
1.01123
1.00578
1.00257
1.00092
1.0002
0.999952
0.999909
0.999929
0.999958
0.999979
0.99999
0.999996
0.999999
0.999999
1
0.999998
1
0.999997
1
0.999996
1
0.999995
1
0.999997
0.999999
0.999999
1.00003
0.999943
1.00004
1.00007
0.999843
1.00003
1.00011
0.999938
0.999964
0.99991
1.00005
1.0001
1.00016
1.00027
1.00059
1.00096
1.00169
1.00272
1.00423
1.00599
1.00871
1.01173
1.01549
1.02
1.02515
1.03026
1.03513
1.0397
1.04309
1.0442
1.04279
1.0396
1.03537
1.03035
1.02457
1.01841
1.01265
1.00679
1.00194
0.998558
0.99377
0.988202
0.98478
0.983401
0.980601
0.97373
0.963738
0.953844
0.946368
0.941213
0.936557
0.930826
0.923832
0.91642
0.909363
0.902998
0.897863
0.89522
0.896624
0.902063
0.909375
0.915874
0.92042
0.925386
0.935477
0.95375
0.979175
1.00672
1.0296
1.04286
1.04543
1.03981
1.03011
1.02005
1.01185
1.00619
1.0028
1.00104
1.00025
0.999976
0.999915
0.999932
0.999957
0.999979
0.999991
0.999995
1
0.999998
1
0.999999
1
0.999999
1
1
1
1
1
0.999999
1
1.00001
0.999976
1.00001
1.00006
0.999893
1.00003
1.00011
0.9999
0.999948
0.999963
0.999982
1.00008
1.00002
1.00005
1.00016
1.00044
1.00078
1.0015
1.00224
1.00384
1.00538
1.00791
1.011
1.01462
1.01898
1.02423
1.02958
1.03448
1.03905
1.04273
1.04408
1.04241
1.03851
1.03357
1.0279
1.02128
1.01424
1.0075
1.00114
0.996775
0.992742
0.987248
0.982968
0.981235
0.979026
0.972676
0.962316
0.951495
0.943127
0.936935
0.930427
0.92132
0.908985
0.894261
0.878582
0.863585
0.851167
0.843479
0.842771
0.850307
0.865014
0.883066
0.899279
0.910876
0.919888
0.931295
0.949363
0.974464
1.00221
1.02595
1.04048
1.04429
1.03955
1.03033
1.02043
1.0122
1.00645
1.00297
1.00113
1.0003
0.999998
0.999926
0.999934
0.99996
0.999978
0.99999
0.999996
0.999998
1
0.999999
1
0.999999
1
0.999998
1
0.999998
1
0.999997
1
1
0.999993
1
1.00003
0.99994
1.00002
1.00009
0.9999
0.999972
1.00005
0.999971
1.00004
0.999967
0.999935
1
1.00015
1.00029
1.00063
1.00118
1.00193
1.00304
1.00484
1.00695
1.01004
1.0136
1.01774
1.02289
1.02852
1.03361
1.03813
1.04203
1.04386
1.04227
1.03776
1.03205
1.02578
1.0185
1.01053
1.00262
0.996212
0.99178
0.987046
0.982625
0.979887
0.977392
0.97216
0.962936
0.951857
0.94216
0.934078
0.924098
0.908658
0.887243
0.861441
0.832986
0.803978
0.778055
0.759964
0.753821
0.761595
0.782629
0.813399
0.847398
0.877339
0.899136
0.914161
0.928101
0.946767
0.971722
0.999348
1.02338
1.03851
1.04301
1.03888
1.0301
1.02043
1.01229
1.00655
1.00305
1.00119
1.00034
1.00002
0.999937
0.999939
0.999962
0.999979
0.999991
0.999996
0.999998
1
0.999999
1
1
1
1
1
0.999999
1
1
1
0.999996
1.00001
1.00001
0.999976
1.00001
1.00005
0.99992
0.999984
1.00007
0.999961
0.999998
1.00001
0.999912
0.999971
1.00003
1.00009
1.0002
1.00045
1.00079
1.00158
1.00244
1.00405
1.00605
1.00884
1.01239
1.01638
1.02124
1.02704
1.03252
1.03709
1.04106
1.04343
1.04232
1.03749
1.03089
1.02399
1.01631
1.00735
0.998403
0.991702
0.986721
0.982588
0.979868
0.976535
0.971549
0.964419
0.954691
0.943803
0.932934
0.918816
0.895876
0.862453
0.821975
0.778596
0.734761
0.69343
0.660253
0.642234
0.644221
0.666827
0.706703
0.757308
0.80974
0.855003
0.887764
0.909323
0.926424
0.946089
0.970954
0.998221
1.02199
1.03706
1.04173
1.03793
1.02947
1.02008
1.01213
1.00651
1.00306
1.00122
1.00036
1.00004
0.999948
0.999946
0.999964
0.999981
0.999992
0.999996
0.999999
0.999999
1
1
1
0.999999
1
0.999999
1
0.999998
1
0.999997
1
0.999999
0.999991
1.00001
1.00001
0.99996
1
1.00006
0.99996
0.99997
1.00001
0.999931
0.999968
1.00004
1.00001
0.999985
1.00011
1.00031
1.00054
1.00108
1.00202
1.00323
1.0051
1.00757
1.01098
1.01491
1.01948
1.02517
1.03109
1.036
1.03997
1.04271
1.0424
1.03773
1.03026
1.02251
1.0146
1.00491
0.994992
0.987351
0.982175
0.979447
0.977267
0.972056
0.965386
0.957856
0.947686
0.934286
0.915899
0.886966
0.843371
0.788049
0.728329
0.669871
0.615476
0.568532
0.535487
0.523945
0.53853
0.578458
0.638006
0.708132
0.7779
0.836838
0.879116
0.906507
0.926574
0.947261
0.972075
0.998758
1.02176
1.0362
1.04056
1.03674
1.02849
1.0194
1.01173
1.00632
1.00299
1.00121
1.00038
1.00005
0.999961
0.999954
0.999969
0.999983
0.999993
0.999997
0.999999
1
1
1
1
1
1
1
1
1
1
1
0.999999
0.999997
1.00001
0.999999
0.999984
1.00001
1.00002
0.99997
0.999983
1.00003
0.999972
0.99996
1.00002
0.999962
0.999946
0.999994
1.00003
1.00013
1.00042
1.00075
1.00145
1.00252
1.0041
1.00632
1.00941
1.0133
1.0177
1.02307
1.02924
1.03475
1.03891
1.04179
1.04226
1.03833
1.03031
1.02142
1.01319
1.00328
0.992443
0.983527
0.978322
0.976545
0.974208
0.967721
0.960074
0.951473
0.938072
0.916891
0.884723
0.836822
0.772234
0.697758
0.62353
0.556416
0.499105
0.454104
0.426999
0.425163
0.45321
0.509626
0.58691
0.67373
0.757243
0.826203
0.875102
0.906463
0.928638
0.950206
0.974965
1.00084
1.02263
1.03591
1.03946
1.03533
1.02719
1.01843
1.01113
1.00599
1.00285
1.00117
1.00038
1.00007
0.999974
0.999962
0.999973
0.999985
0.999994
0.999997
0.999999
1
1
1
1
1
0.999999
1
0.999999
1
0.999998
1
0.999998
1
0.999998
0.999995
1.00001
1
0.99998
1
1.00002
0.999983
0.999975
1.00002
0.999992
0.999936
0.999951
0.999987
1.00001
1.00004
1.00022
1.00052
1.00097
1.00183
1.00315
1.00509
1.00782
1.01152
1.01589
1.02097
1.02702
1.03313
1.03787
1.04088
1.04183
1.03898
1.03109
1.02099
1.01193
1.00222
0.990951
0.980695
0.974782
0.973278
0.971168
0.964396
0.954829
0.942277
0.921865
0.889836
0.842946
0.777535
0.695479
0.607464
0.526498
0.45951
0.40674
0.36807
0.348228
0.355411
0.395295
0.466164
0.558551
0.65841
0.751124
0.825417
0.876953
0.909675
0.932798
0.954925
0.979487
1.00429
1.02443
1.03604
1.03838
1.03372
1.02563
1.01722
1.01034
1.00556
1.00266
1.0011
1.00037
1.00008
0.999986
0.999971
0.999978
0.999988
0.999995
0.999998
0.999999
1
1
1
1
1
1
1
1
1
1
0.999999
1
0.999998
1
1.00001
0.999994
0.999995
1.00001
1
0.999987
0.99999
1.00001
0.999993
0.999962
0.999983
0.999983
0.999957
0.999972
1.00003
1.00009
1.00026
1.00064
1.00126
1.0023
1.00393
1.00632
1.00963
1.01392
1.01892
1.02468
1.03105
1.03664
1.04012
1.04128
1.03934
1.03234
1.02151
1.01097
1.00134
0.990466
0.979091
0.971607
0.969818
0.968244
0.961442
0.948355
0.929097
0.900042
0.857205
0.796933
0.717509
0.624984
0.533305
0.455272
0.394692
0.348522
0.315691
0.30226
0.318114
0.369473
0.45344
0.55785
0.665874
0.761809
0.835512
0.88505
0.916358
0.939172
0.961387
0.985493
1.00887
1.02689
1.03637
1.03719
1.03187
1.02381
1.01581
1.00942
1.00505
1.00242
1.00102
1.00036
1.00009
0.999998
0.99998
0.999984
0.99999
0.999997
0.999999
0.999999
1
1
1
1
1
1
0.999999
1
0.999999
1
0.999999
1
1
1