/*--------------------------------*- C++ -*----------------------------------*\
  =========                 |
  \\      /  F ield         | OpenFOAM: The Open Source CFD Toolbox
   \\    /   O peration     | Website:  https://openfoam.org
    \\  /    A nd           | Version:  6
     \\/     M anipulation  |
\*---------------------------------------------------------------------------*/
FoamFile
{
    version     2.0;
    format      ascii;
    class       surfaceScalarField;
    location    "1.39";
    object      meshPhi;
}
// * * * * * * * * * * * * * * * * * * * * * * * * * * * * * * * * * * * * * //

dimensions      [0 3 -1 0 0 0 0];

internalField   nonuniform List<scalar> 
11670
(
0.117579
-0.0786916
0.1192
-0.189781
0.0759905
-0.00804528
0.0199249
-0.0636928
0.156203
-0.0777347
0.0791476
-0.167927
0.390161
-0.254208
0.427857
-0.603934
0.28404
-0.0743782
0.217243
-0.43857
-0.0079068
0.00498407
0.00330363
0.0016867
-0.802552
0.167046
-0.207589
0.851259
0.263194
0.0384233
0.0161268
-0.270469
-0.302688
-0.0774932
0.0497249
0.303097
0.366344
-0.0939392
0.164213
-0.400045
-0.686965
0.131629
-0.428921
0.985509
0.00616211
0.00359584
-0.00796383
0.0111227
-0.00093805
-0.00263865
-0.0174318
0.00836825
-0.0118269
0.00620585
0.00826185
-0.018497
0.00301784
-0.00234329
0.0234675
-0.00850363
-0.00327288
0.00178091
-0.00996174
0.00410219
0.0018894
-0.000165926
0.00757035
-0.00331989
0.00251117
0.000846119
-0.00334118
0.0046496
-0.00575435
0.000452939
-0.0139756
0.0087773
-0.00380979
-0.000297926
0.00325166
-0.004792
-0.000543576
0.00166191
0.00969703
-0.00358362
-0.00314272
-0.000819749
0.0028777
-0.00288172
0.00263
0.000468382
-0.00311942
0.00453636
0.00698549
0.000907768
0.0133183
-0.00851115
0.000369963
-0.00182861
-0.0110148
0.00407305
-0.0131216
0.00890144
0.00834153
-0.0276941
0.00116518
-5.13597e-05
-0.00878777
0.0272356
-0.0171605
0.00517469
-0.0200704
0.0131397
0.00616524
0.001692
-0.0135783
0.0214894
0.0143502
-0.016126
0.0135667
-0.0434598
0.00900459
0.000775579
-0.0169013
0.0269095
-0.0226053
0.0078258
-0.0246476
0.0163443
0.0213444
-0.0237059
0.0168755
-0.0537272
0.0065014
0.00947015
0.0265538
-0.0177778
0.0192928
-0.0169155
-0.0183556
0.0585186
-0.0347914
0.0324099
0.0183513
-0.0586585
-0.000163357
-0.015756
-0.0264286
0.0177737
-0.0132432
0.00855895
-0.0391317
0.017952
0.0160098
-0.00308325
0.0263534
-0.0175864
-0.00930239
0.0156142
-0.0203947
0.0643394
0.00319906
-0.012524
-0.0245824
0.0154388
-0.00217056
0.0033773
0.0422432
-0.0149458
0.0231115
-0.0303055
0.0146723
-0.0478455
0.0158924
0.000911152
-0.0139971
0.0189775
-0.0143658
0.00769821
0.0106719
-0.0212276
0.00529138
-0.000594368
0.0230565
-0.0108011
0.000599349
-0.00566724
-0.0256149
0.0108093
0.0105845
-0.00343594
-0.0106638
0.0233954
-8.11436e-05
-0.00353557
-0.00953441
0.00598802
0.00415944
0.00194089
-0.00541624
0.00668121
0.00450205
-0.00726515
0.00569074
-0.0186608
0.00161172
-0.00112025
0.017502
-0.00578336
0.000183654
0.000143128
-2.63289e-05
0.000629578
-0.000305105
0.000225211
-0.00138075
-3.23977e-05
9.35552e-15
3.06492e-14
-7.07229e-14
1.09635e-13
-0.00261135
-0.00821077
0.00518479
-0.00443153
0.00428516
0.00444209
0.00640522
-0.00530573
0.00493863
-0.00459001
-0.0212933
0.0069651
-0.00103551
-0.000866881
-0.00605839
0.0173569
-0.0161618
0.00460426
-0.0190436
0.013106
0.0122608
0.000616194
-0.0121422
0.0175387
0.0144397
-0.0162137
0.013532
-0.0438265
-0.00190856
0.00500521
0.0471537
-0.0150871
0.00125919
-0.00810068
-0.0180356
0.0113272
0.0138742
-0.0193203
0.0107648
-0.0357394
-0.0018988
0.000919362
0.0401749
-0.0116737
0.0104609
0.00226885
-0.0108489
0.013724
0.00519884
-0.015842
0.0183927
-0.0292835
0.0216539
-0.000462634
-0.0176266
0.0231135
-0.0112857
0.009723
0.0637517
-0.0189666
-0.00888909
0.0109283
-0.0178465
0.0578636
0.0176528
-0.0022199
0.0255825
-0.0172848
-0.0278397
0.00715482
0.0171487
-0.0226401
0.0258632
-0.024486
-0.0621229
0.0184524
-0.0219294
0.00740392
-0.0240386
0.0163244
0.0214479
-0.0236446
0.0168549
-0.054178
0.0084529
0.010832
-0.016189
0.0209429
0.0154782
-0.0169235
0.0590846
-0.0174197
0.0161578
0.00634347
0.0165145
-0.0136797
0.00196088
-0.0175249
-0.0168345
0.0123468
0.0213757
-0.0276276
0.0194743
-0.0538601
0.00261417
-0.00751907
-0.0156202
0.0447509
-0.00857688
0.0055464
0.0975384
0.0256464
-0.0446948
0.162956
0.023018
-0.0320713
0.105387
0.0350013
-0.0404463
-0.787186
0.0591795
-0.0162967
0.233361
-0.000323017
0.000477573
-0.00537991
-0.0831108
0.0780541
0.302831
0.1183
-0.129627
0.37059
0.0713671
-0.139052
-0.257128
-0.00723423
0.0010674
0.401004
0.0375087
-0.0265941
-0.689926
-0.0186437
0.0696064
-0.461024
0.394819
-0.194018
-0.0252748
0.00800696
0.205363
1.22656e-05
0.00095857
0.00328673
-0.00141504
-0.00985296
0.00767052
0.0524113
-0.0445746
0.0205324
-0.0613523
-0.0672718
0.115351
-0.0307497
0.109545
0.106782
-0.177652
-0.0258348
0.127341
0.0678658
-0.1751
-0.030795
-0.0802447
0.149286
-0.0448555
-0.120935
-0.461024
0.371803
0.00201577
0.00326543
-0.0115258
0.00439144
0.000844224
0.00990639
-0.00742013
0.00525852
0.014954
-0.0813393
-0.028526
0.0892371
0.00643165
0.0142256
-0.0105614
-0.0128453
0.0225207
-0.0189453
0.00762986
-0.0165734
0.0549883
-0.02928
0.00191974
-0.0139135
0.0121057
0.0532805
-0.168928
0.0846425
0.00244856
0.112087
-0.08743
0.00131182
0.00294132
-0.00145496
0.0123937
-0.139452
0.104434
-0.166668
-0.0296053
0.159807
-0.020228
-0.0246366
0.0406289
0.016756
0.00733496
0.0229388
-0.0514047
0.0418457
0.0245112
-0.0539759
0.000226662
0.00314255
0.000215492
0.0200052
0.0436277
0.000194154
-0.0200052
-0.0679123
-0.030817
-0.113282
0.193815
-0.240972
-0.113902
0.268765
-0.0115621
-0.0183037
0.028092
-0.00486791
-0.0386883
-0.0184709
0.0389554
-0.0745411
-0.12611
-0.221272
0.406778
-0.309868
-0.206942
0.427124
-0.120221
0.0233456
-0.101176
0.217533
-0.189434
-0.0998205
0.188514
0.0496976
-0.0528051
-0.0292576
0.0493061
0.0271439
-0.0288783
0.0683731
-0.126561
0.226515
0.137379
-0.245009
0.01231
0.136177
-0.282723
-2.7989e-05
0.00331947
-1.12182e-05
0.0020715
0.00740587
-1.05996e-05
-0.0020715
-0.193296
0.143709
-0.173964
0.00467682
0.0439505
0.138738
0.252337
-0.021416
-0.0170716
-0.196959
0.0580462
0.00585702
-0.0261594
-0.0506389
0.180917
-0.0130919
-0.0112045
-0.140987
-0.0557456
0.0112505
-0.011812
0.0420756
-0.102006
0.00250153
0.0247834
0.0860663
0.100204
-0.0060928
-0.00581382
-0.0746292
-0.033121
0.000960169
0.00943795
0.0315238
0.0295309
0.00263323
-0.0130038
-0.0290205
-0.0470726
0.00662274
-0.00583963
0.0340692
0.0548786
0.00883462
-0.0318125
-0.0448442
-0.054519
0.0151256
-0.020076
0.0447753
0.193763
-0.109137
0.0529168
-0.161246
-0.207085
-0.081592
0.0976469
0.16388
0.538872
-0.0559782
-0.0429845
-0.406346
-0.295778
0.0385985
0.037463
0.247348
0.200583
0.0300685
-0.107757
-0.138119
-0.750096
0.128414
0.0358128
0.606346
0.730997
-0.0474966
-0.11027
-0.55554
0.297212
-0.0212167
-0.0521706
-0.1968
0.0955049
0.0180671
-0.0590305
-0.0801774
-0.335547
0.0554729
0.146268
0.124471
-0.464018
0.05699
0.181528
0.216711
1.03861
-0.164544
-0.0389709
-0.799516
-0.731585
-0.187424
0.401318
0.472885
0.356331
0.0411135
-0.210529
-0.213785
0.0985224
-1.09068
0.231219
0.777466
0.677028
-0.143116
-0.119733
-0.382673
0.447451
-0.123331
0.0360721
-0.305209
-0.154332
-0.344351
1.23953
-0.730571
-0.725621
-0.131411
0.266211
0.571193
0.81026
-0.16536
-0.0539283
-0.559377
-0.758356
0.0281512
0.158362
0.606094
0.427834
-0.236458
-0.00847015
-0.199945
-0.875648
0.285172
0.124138
0.495526
-0.21337
-0.0362422
0.0974921
0.214786
0.195415
0.0599359
-0.151691
-0.155285
-0.749595
0.398943
0.152624
0.187508
-0.854443
-0.197477
0.363593
0.64225
0.570722
-0.156942
-0.149289
-0.256161
0.589847
-0.139287
0.0311137
-0.44328
-0.325103
0.138188
0.00876003
0.159201
0.388
-0.104713
0.036649
-0.27166
0.614002
-0.267251
0.113412
-0.480063
0.646187
-0.0647641
-0.2755
-0.315738
0.443046
0.126565
-0.277378
-0.334993
0.0312627
0.143317
-0.582279
0.442734
-0.166987
0.0139057
0.072665
0.115411
-0.208153
-0.0103443
0.0577447
0.148129
0.0671571
-0.02762
0.0101441
-0.0651483
-0.481707
-0.0392437
0.142514
0.424136
0.505885
-0.284619
0.158499
-0.423571
-0.199774
-0.032086
0.0872728
0.20071
-0.247709
0.0520139
0.128823
0.0651496
0.164449
-0.0760442
-0.0505612
-0.0433738
-0.00455498
0.0449617
-0.0259966
1.01441e-15
-0.00190491
0.0011057
-4.08439e-16
-0.00148666
0.00228586
-1.13638e-15
5.5108e-16
-0.00374153
0.0386574
-0.0228741
0.0235617
0.123316
-0.509475
0.364483
0.380086
-0.0803246
-0.0243726
-0.276665
-1.58944e-13
-0.000418662
-0.0045298
1.04802e-13
3.29091e-14
-0.00196969
-0.00010055
-5.2434e-14
0.0185419
-6.0421e-06
-0.00300642
-0.0102239
0.0656435
-0.0142337
-0.00114122
-0.0313486
0.0250625
7.54847e-05
-0.000888617
-0.0140256
-0.0185419
9.94389e-05
-0.000886846
0.010223
-0.0250641
2.7765e-05
0.00497492
0.0140256
0.000192646
0.00647136
-0.00162798
-2.46391e-05
4.78836e-07
-0.0051786
-0.00164683
-4.00518e-06
-3.27584e-06
-0.00272516
-0.00674724
2.53858e-07
-0.00256807
0.011724
-4.23774e-05
0.00019867
0.123954
0.0109137
-0.0523698
-0.0907045
-0.507399
0.00653298
0.205916
0.301721
0.0376188
-0.0101421
-0.12934
0.0958514
0.541935
-0.0559896
-0.0837352
-0.386418
-0.747546
0.376098
0.168862
0.195863
0.16224
-0.019098
-0.0380042
-0.0901353
-0.833071
0.303855
-0.133413
0.627026
-0.201845
0.0180423
0.0600145
0.137396
-0.325673
0.133408
0.0296563
0.147035
0.300416
0.0214282
-0.0715418
-0.210254
0.000410653
0.0138007
-0.00250317
-4.01008e-05
-5.76678e-05
-0.00237641
0.0161147
0.000382542
0.00155922
-0.00811797
-0.00208453
0.00165887
-0.115876
-0.0443435
0.0521162
0.0870485
0.0747077
0.0329648
-0.382233
0.292591
0.495179
-0.051849
-0.0630139
-0.362327
0.140883
-0.0795936
0.0337553
-0.117235
0.6141
-0.125678
-0.341961
-0.161016
0.106879
0.0399047
-0.4848
0.359384
-0.128509
0.0253214
-0.0114279
0.0638102
0.47734
0.113102
-0.225358
-0.400304
0.0537385
-0.000283783
-0.0327612
-0.0301921
0.248758
-0.0270008
-0.0178268
-0.192843
-0.288314
0.00408361
0.0671668
0.230368
0.150157
-0.0119711
-0.0897699
-0.0680913
-0.16604
0.0641429
-0.0172275
0.16719
-0.0495985
-0.0318742
0.30699
-0.219623
-0.463179
0.0861133
0.0190424
0.37378
0.567861
-0.0230574
-0.0696334
-0.45771
-0.806326
0.168738
0.0448977
0.60227
0.185289
-0.0808167
0.0254198
-0.139569
-0.0436512
-0.143604
0.770584
-0.575818
-0.037797
0.0728334
-0.216209
0.171598
-0.659435
0.195214
0.498536
0.274071
-0.0202329
-0.0445306
-0.191636
0.250947
0.0337425
-0.979502
0.697748
-0.369025
0.114018
-0.0435602
0.269126
-0.136889
-0.0186258
0.0342903
0.07148
-0.29434
0.0506625
0.0391021
0.21425
0.376906
0.0422529
-0.312866
-0.246281
0.0554118
0.0182769
0.193883
0.924205
-0.0270909
-0.214389
-0.683624
0.124929
0.0340086
-0.0650593
-0.124063
0.0861924
-0.00993825
-0.0444474
-0.106161
-0.0148921
0.0321858
0.0519265
1.09115
0.000320394
-0.257902
-0.828713
0.104189
-0.0114535
0.00082847
-0.0525225
0.991815
0.0442617
-0.274106
-0.767381
0.0747466
-0.0141702
-0.00590818
-0.0344246
-1.12963
0.25788
0.0289179
0.850595
0.0965009
0.00223752
-0.00728816
-0.0490645
0.0384464
-0.0998799
0.00506279
0.0208566
0.766074
0.0646346
-0.246984
-0.593341
-1.15303
0.275311
-0.0401462
0.915623
0.178549
0.0121225
-0.0857553
-0.109383
-0.582018
0.118371
0.20444
0.263116
0.533722
-0.16641
-0.126046
-0.241275
-0.192612
0.0179127
0.0586269
0.119329
-0.572686
0.00681977
0.249034
0.316469
0.337226
-0.109434
-0.0463007
-0.159507
-0.00813037
-0.0708993
0.140695
-0.0682123
-0.137698
0.0486328
0.01886
0.0667595
0.0353776
0.147904
-0.817447
0.647814
0.732292
-0.119497
-0.0486035
-0.554427
-0.00420639
0.0163993
3.94356e-12
-3.06557e-12
-3.00784e-12
0.0158908
-0.00552924
2.34484e-12
0.130028
-0.0258422
-0.0356897
-0.0658769
-0.124586
0.0284319
0.0399542
0.0633379
-0.884123
0.238632
-0.0641526
0.702413
0.964268
-0.382382
-0.0244287
-0.55596
-0.050683
0.013192
-0.0153783
0.04084
0.0565549
0.00893559
-0.0315363
-0.0471094
-0.512687
0.107751
0.025663
0.388765
-0.0235896
-0.0847626
0.573271
-0.455166
-0.445005
0.102191
0.223113
0.11695
-0.128761
0.0698374
0.0110255
0.0321754
-0.204457
0.0368542
0.0279039
0.170307
0.0133957
0.0280538
-0.0859107
0.0416516
0.0437996
0.00312296
-0.0243806
-0.028086
-0.0428709
-0.00522038
0.0833929
-0.0404309
0.156511
-0.091096
-0.00903374
-0.069019
0.05492
0.00500926
-0.0280043
-0.0413133
0.108742
-0.0139621
-0.08381
-0.027152
0.0126348
-0.00665678
-0.0585414
0.0444008
0.193525
-0.00685392
-0.0563516
-0.121863
-0.110883
0.0548441
0.0394188
0.0284377
0.329202
-0.160682
-0.0898498
-0.0868181
0.130426
-0.0483769
-0.0407741
-0.0336377
0.00387355
-0.0316968
0.0590651
-0.0370119
0.171609
-0.00272253
-0.0810926
-0.102818
0.547676
-0.222878
-0.0118758
-0.315839
-0.0544691
0.0179334
-0.00488189
0.0303726
-0.151261
0.00814962
0.0659235
0.0666768
-0.0306623
-0.0246158
0.246745
-0.182745
-0.19805
-0.000207381
0.0516839
0.151638
-0.0570835
0.00996655
-0.00224457
0.0440058
0.00442309
-0.0250913
0.0580239
-0.0457327
-0.205613
0.00482456
0.0523121
0.162084
0.0937049
-0.00270835
-0.0212114
-0.0547586
0.274662
-0.0249105
-0.016708
-0.216554
-0.0313846
0.00428128
0.00678627
0.0133738
-0.284298
0.00857414
0.0760744
0.209699
0.153385
-0.0209083
0.000604223
-0.130866
0.188286
-0.0269336
-0.0141655
-0.139442
0.0540606
0.00345157
-0.0281612
-0.0340204
-0.209421
0.0236334
0.022218
0.176456
0.0350668
-0.00235924
-0.00874958
-0.020211
0.419576
-0.033513
-0.060879
-0.289974
-0.130915
-0.000725883
0.0506488
0.0825878
-0.114941
-0.0138551
0.0306584
0.0735456
0.58722
-0.362433
0.0824627
-0.328652
-0.576347
0.0615421
0.158307
0.373025
-0.0754187
0.0339118
0.128754
-0.12009
-0.188202
0.0353147
0.0583604
0.132187
-0.141638
0.00279692
0.0341491
0.14313
0.216108
-0.161074
0.081781
-0.187148
0.0086909
-0.0994534
0.0918254
-0.296396
-0.00677734
0.205011
0.149704
-0.0206542
-0.106372
-0.053123
0.113657
-0.0983241
-0.534305
-0.0827624
0.299114
0.293036
0.166441
-0.129567
0.0775886
-0.167085
0.177673
-0.0107838
-0.0516909
-0.110958
0.240297
0.0814354
-1.16662
0.856619
0.505341
-0.19709
0.0692239
-0.390231
-0.236889
0.0653279
-0.010452
0.218878
0.980046
-0.149723
-0.159699
-0.639487
-0.4945
-0.0988944
0.211574
0.335386
0.643688
-0.243261
0.0158828
-0.388308
-0.808746
0.580195
0.200796
-0.00292224
-0.198119
-0.0423051
0.0731596
0.138298
0.335881
-0.0544423
-0.00991593
-0.234862
0.246742
-0.142526
0.0776723
-0.216811
0.0469447
0.00029631
-0.0119531
-0.0340522
-0.0295664
0.00494964
0.00107033
0.0293158
0.0331405
-0.0083819
0.000992089
-0.031084
0.176582
-0.000442616
-0.0291232
-0.119075
-0.102571
-0.00131145
0.0276134
0.0746425
-0.222027
0.0491873
0.00675277
0.140544
-0.30786
0.0759609
0.799539
-0.585048
0.324013
-0.0208108
-0.143365
-0.189536
0.36748
-0.20531
0.0930382
-0.292147
0.412523
-0.069979
-0.0631439
-0.244773
-0.299574
-0.101143
0.147023
0.205248
-0.243776
0.0466729
0.0847961
0.123077
0.362955
0.0928116
-0.208974
-0.289923
0.659819
0.10888
-0.238359
-0.557315
-0.351978
-0.0276028
0.135847
0.296533
0.922154
-0.219515
-0.135918
-0.578455
-0.959425
0.10314
0.178447
0.692771
0.237
0.0080251
-0.048957
-0.159123
-0.575806
-0.0757403
0.183977
0.456251
0.301015
0.0120509
-0.0611447
-0.22227
1.23252
-0.0731194
-0.24214
-0.909736
-0.468148
0.12011
0.389498
-0.0101587
-0.217358
0.266696
-0.0681399
-0.257362
-0.0923049
0.12347
0.193317
-0.869438
-0.0471636
0.272004
0.63218
-0.365153
0.117137
0.025271
0.228973
-0.586625
0.0659796
0.202337
0.336703
-0.613899
0.21734
0.255684
0.16126
0.861926
0.137073
-0.319284
-0.702206
0.834804
-0.0398677
-0.187325
-0.570029
-0.122394
0.213449
-0.448933
0.319908
0.610917
-0.163238
0.0344843
-0.428714
0.282446
-0.133357
-0.657578
0.461203
-0.809225
0.268415
-0.0762344
0.59696
0.594557
-0.323149
0.055969
-0.364054
-0.581241
0.0846595
0.05547
0.45916
0.271393
-0.0253725
-0.0383692
-0.169508
-0.26497
-0.03192
0.120829
0.169271
-0.102551
0.0161275
0.0162865
0.0798529
0.118604
-0.00995641
-0.0219516
-0.0809159
0.0860629
-0.034281
-0.00763765
-0.0601737
1.0246e-12
-0.00202371
-0.00586994
-7.63011e-13
-0.00730704
-0.00297475
0.0141831
0.00241182
0.0217759
0.0312808
-0.117787
0.062936
-0.000478875
-0.00551381
0.00385338
-1.00843e-12
-0.00366279
-0.000937892
9.0876e-13
0.140807
-0.0674431
0.0158856
-0.103903
0.00514075
0.00557551
-0.0100239
0.00611306
-0.00155166
-0.00014139
0.00731039
-0.000769083
3.70601e-06
-0.0033791
-0.00727519
-3.04593e-07
-0.0219678
0.0440763
-0.121236
0.0854266
-0.0901523
0.00854371
0.0476684
0.0225701
-0.43271
0.0377087
0.10135
0.291498
0.140902
0.0104518
-0.0617441
-0.102327
-0.112577
0.0381973
0.012541
0.0667849
0.0965672
-0.0740662
-0.0105987
-0.0241761
0.396072
-0.134589
0.00241832
-0.264018
-0.315492
0.10529
0.0645609
0.154483
-5.73707e-07
-0.00627753
-0.0024093
4.54864e-06
7.61525e-13
2.69502e-05
-0.00323241
-5.14302e-13
-0.117035
0.031184
-0.000610998
0.0753793
-0.0549377
0.0176666
0.00425812
0.0195852
0.0639128
-0.0200907
-0.00190887
-0.0359584
0.0809046
-0.0101739
-0.0164023
-0.0449542
0.262522
-0.194147
0.114448
-0.234214
-0.287393
0.0171417
0.174127
0.139447
-0.900019
0.0932202
0.262266
0.564262
-0.37934
0.236724
0.0202944
0.0975051
0.681067
-0.170805
-0.0315855
-0.433545
0.618478
0.00506898
-0.485022
0.0792062
0.0936409
-0.203863
0.0510381
0.230585
-0.0333305
-0.0342189
-0.133472
-0.219268
0.0772871
-0.0378993
0.141202
-1.08132
0.346336
-0.149351
0.862666
0.747255
-0.278885
-0.258267
-0.19616
-0.810825
0.32099
0.297232
0.207015
0.443845
9.39603e-06
-0.997341
0.547572
0.70952
-0.0735481
-0.0660657
-0.553673
-0.813649
0.367239
-0.0561704
0.483776
0.210001
-0.163469
-0.0122428
-0.0532562
-0.405894
-0.155736
0.21647
0.292235
-0.162314
0.0714632
-0.0210519
0.159607
-0.14018
-0.102777
0.34904
-0.087384
-0.218678
-0.045745
0.106353
0.137171
0.653868
-0.116917
-0.387597
-0.167208
0.215115
0.0615364
-0.584857
0.330586
0.878463
-0.246371
-0.0809621
-0.542681
0.876527
-0.290245
-0.356175
-0.223815
-0.210789
0.0122362
0.12934
0.0535429
-0.393103
0.205407
-0.0521276
0.2128
0.386866
0.0390313
-0.096567
-0.278566
-0.127038
0.0419415
-0.00464914
0.126265
0.18211
0.0478366
-0.0965777
-0.169726
0.607568
-0.308769
-0.145088
-0.157988
-0.966968
0.386187
0.0299071
0.553409
0.406152
0.171142
-0.787361
0.201149
-0.282423
0.0139705
0.229576
0.605775
-0.156338
-0.172848
-0.27555
-0.599839
0.208156
0.241349
0.155976
0.274934
0.0135852
-0.0510882
-0.200901
-0.390567
0.128917
-0.0372272
0.271917
0.940078
0.0330638
-0.218036
-0.758307
-0.0652854
0.375991
-0.285945
0.364057
-0.113989
-0.0231206
-0.219746
-1.14288
0.255297
-0.0323047
0.919552
-0.0326695
-0.181003
0.888024
-0.640065
-0.854214
0.391063
-0.231078
0.650005
0.338652
-0.0898008
-1.19698
0.931324
0.854315
-0.117669
-0.1098
-0.614574
0.589047
0.0389891
-0.15245
-0.426991
-0.962423
0.33972
-0.102869
0.697752
1.03734
-0.0415594
-0.188951
-0.795559
-0.290896
0.0433808
0.103157
0.141535
1.09041
-0.00304255
-0.396065
-0.687935
-0.277928
0.10096
-0.0515399
0.186604
-0.6986
0.171771
0.0176202
0.545044
0.592544
0.185693
-0.337177
-0.482629
0.907084
0.0718238
-0.293742
-0.702585
0.135267
0.0878027
-0.744794
0.538333
-0.226459
-0.0799124
0.403382
-0.103303
-0.388167
0.135256
-0.0455088
0.353785
0.239916
-0.023846
-0.032355
-0.151444
0.122587
-0.318715
0.722816
-0.559789
-1.14087
0.202788
0.039223
0.913991
0.344603
0.0907799
-0.236713
-0.231811
-0.297798
0.166538
-0.0111168
0.174655
-0.402471
0.133625
0.168352
0.103072
-0.0764059
-0.397955
0.286375
-0.112313
0.285458
-0.673931
0.476612
0.918549
-0.126599
-0.0527728
-0.698564
0.416647
-0.203357
-0.316412
-0.339458
-0.123709
0.180162
0.234812
-0.752294
0.308111
0.270936
0.192035
0.653872
-0.302421
0.109763
-0.487777
-0.581684
0.0439702
0.100319
0.473244
-0.490653
-0.172697
0.268271
0.339353
0.613506
-0.134685
0.0128932
-0.443441
0.375299
-0.0774084
-0.113685
-0.18185
0.20735
-0.027934
-0.0310176
-0.1199
0.225221
-0.163698
0.0817127
-0.187256
-0.0657423
-0.0195039
0.292841
-0.206345
-0.867289
0.203862
0.0141535
0.647871
-0.381745
-0.0258434
0.112926
0.348343
0.300384
-0.227513
0.124259
-0.249834
0.270492
-0.0817752
-0.0436518
-0.13108
0.629528
-0.0756441
-0.175436
-0.398567
-0.352087
0.078617
0.082402
0.210749
-0.209805
0.0811667
-0.00208366
0.107143
-0.0141655
-0.0345961
0.151552
-0.0842091
0.037631
0.0511924
-0.318224
0.234822
0.016476
-0.18859
0.849928
-0.683287
-0.348213
0.186137
0.0634619
0.0870843
0.235401
-0.000171846
-0.0413168
-0.170401
0.495578
0.0466886
-0.233345
-0.323327
-0.21645
0.0651621
-0.0121337
0.138497
0.203469
-0.0423207
-0.126482
-0.0508687
-0.194046
0.0471751
0.000751214
0.176482
0.564481
-0.503241
-0.00348387
0.0154363
-0.0545811
0.150534
0.0804825
-0.315157
-0.127309
0.476977
-0.228117
-0.081866
0.364798
-0.12008
0.127045
0.0120782
-0.0214312
0.0623211
-0.347781
-0.0095143
0.0405263
-0.0157479
0.102078
0.0216763
-0.0801362
-0.0508897
0.057582
-0.00946241
0.0490492
-0.114459
0.267407
-0.333135
0.168044
-0.00389645
0.0207604
0.153493
-0.302321
0.0300655
0.0349302
-0.0942443
0.0823794
-0.434243
-0.0449204
0.0183389
0.057538
-0.0154038
-0.0127595
-0.130189
0.00314278
0.0386909
0.156522
-0.0324311
0.0189336
-0.0652448
0.0118001
-0.0114355
0.0423587
0.0052905
-0.0245169
-0.0417759
-0.00874646
-0.00731511
-0.0721064
0.00180038
0.0220335
0.0917915
0.0302903
-0.0107995
0.258242
0.0361496
-0.0308825
-0.718463
-0.0565783
0.0853841
0.149863
0.110565
-0.159939
0.197773
-0.00626953
0.0093625
0.578567
0.0134686
0.0476932
0.26967
-0.0421744
-0.0124758
-0.210834
-0.109241
0.0502861
-0.172816
0.0016488
-0.00954328
-0.0212503
0.000397378
0.0066185
0.0298042
0.0181574
-0.0215858
0.0407763
0.0422305
-0.0242916
-0.282654
0.0102617
0.00307819
0.0837881
-0.111365
-0.0200362
-0.661027
0.0891391
-0.0481677
0.130224
-0.0665686
0.100185
0.688836
0.213284
-0.297579
0.386954
-0.23394
-0.0390608
-0.843291
0.00456448
-0.00343164
0.0166851
-0.00260993
-0.00189273
-0.0180349
-0.0273874
0.0287296
0.0543591
-0.406622
0.319666
0.655011
0.215793
-0.526826
0.919069
0.0408595
-0.0292119
0.142739
0.0584635
-0.0431715
-0.238078
0.439416
-0.434023
-0.804132
0.173335
-0.0930018
-0.778341
-0.276274
0.330268
-0.556373
0.0150838
-0.00815057
0.0413369
0.262755
-0.286168
0.406255
-0.00939292
0.011588
1.07197
0.102467
-0.159742
0.577011
-0.0015972
-0.00501619
1.45258e-13
0.0034362
0.0013359
0.0020665
-0.00468834
-0.00126904
-3.44241e-07
-0.00624293
-0.00814255
-0.000183923
0.125769
-0.127317
-1.13844
0.412162
-0.407178
-0.914222
0.0119052
-0.0427253
-0.041031
-0.134592
0.0776368
0.696139
0.254867
-0.267053
0.370344
0.00665092
0.00149301
0.00592651
-0.0115584
-0.00576542
0.000138536
0.544772
-0.234704
-1.09249
-0.136703
-0.0940589
0.835058
-0.156483
0.240822
-0.45913
0.044602
-0.126023
-0.351411
0.122678
-0.0366668
0.346657
-0.28667
0.21534
0.513966
0.0221851
0.129499
0.592469
-0.00232472
0.0246583
0.126581
-0.0797174
0.0576817
0.130614
-0.00128773
0.0102221
0.0180363
-6.80339e-05
-0.00598053
-0.0166851
-0.027188
-0.0547212
-0.363837
0.120361
-0.129806
-0.868905
0.0784661
-0.287756
1.16882
0.0627858
-0.0635501
-0.139574
0.0774077
0.0184366
0.418929
-0.00270541
0.0151128
4.14618e-05
0.119942
-0.10187
-0.208944
-0.0201485
-0.0713701
-0.408087
0.205869
-0.189156
0.571175
0.296091
-0.278217
-0.889074
-0.0199444
0.0153056
0.563475
-0.180839
0.203167
0.892799
0.203657
-0.228358
0.443007
-0.0629071
0.0863717
0.319904
0.211249
-0.1559
-0.430733
-0.214046
0.252405
-0.722628
-0.120679
0.110935
-0.568529
-0.146256
0.26018
1.12224
0.0464799
-0.10972
-0.333483
0.121868
-0.0361116
0.266367
-0.0219568
0.00549933
-0.198387
0.0506411
-0.0518397
-0.119643
0.106589
-0.132664
0.135163
0.0419504
-0.0548987
-0.118453
0.0807257
-0.0790423
-0.276581
0.0301756
-0.0146562
0.116551
-0.112577
0.201533
-0.44261
-0.0287254
0.00352558
-0.0943274
-0.0528775
0.0470311
0.115973
0.0856965
-0.00547143
-0.571151
0.0157849
-0.0020181
2.75266e-12
0.0376672
-0.0271288
0.0767303
0.102153
0.0121141
0.46855
-0.120987
0.0621449
0.80313
0.195898
-0.207449
-0.726568
-0.15264
0.0259639
0.660903
0.0242526
-0.0247493
0.264989
-0.0165491
0.181125
-0.736486
0.0792808
-0.116738
0.106736
0.0220229
-0.0337285
-0.0959205
-0.0492644
0.0704767
-0.118264
-0.00471686
0.00259549
-0.0298178
0.00242468
0.00106226
0.0212466
-0.0366556
0.131547
-0.666547
0.0272901
0.00151166
-0.133924
0.00355823
-0.0268171
0.197831
0.0740395
-0.0836456
-0.310929
-0.0317242
0.00888019
-0.0403732
0.0349014
-0.0126391
0.276731
-0.041072
0.0109071
-0.0422965
-0.00316789
0.00455117
0.143609
0.0114252
-0.00210946
0.183981
-0.10929
0.137175
-0.205484
0.0871167
-0.0747119
0.300334
-0.00900652
0.0354346
0.185167
-0.0171621
0.0188101
-0.188356
-0.00523886
0.00581391
-0.188822
-0.0159906
0.00876096
-0.0410807
-0.1756
0.0945809
0.186313
0.105375
-0.170805
0.198591
0.133839
-0.124577
-0.198103
0.00208098
-0.00381896
0.466837
0.00683958
-0.0185716
-0.0525387
-0.0194277
0.008748
0.0358427
0.00311744
-0.0262364
-0.143816
-0.00108831
0.039343
0.116597
0.0536199
-0.0146486
-0.226892
0.050128
-0.067907
0.0885046
0.0747124
-0.083834
-0.157346
0.00846728
-0.0131835
0.0519132
-0.0094189
0.00230308
0.0477752
-0.0166179
-0.00251534
-0.110514
-0.000527621
0.0933876
-0.628221
-0.0222501
0.0186273
0.0415888
0.0463835
-0.0248234
-0.285083
-0.0195252
0.0153795
0.0454807
0.00979611
-0.0222885
-0.0837481
-0.312925
0.114948
-0.897691
0.0327447
-0.0274737
0.178195
0.0782047
-0.0802886
0.720731
0.029596
-0.0165144
-0.117522
-0.0141359
0.00381014
0.058709
-0.0809534
0.0749895
0.0927009
0.153866
-0.295634
-0.693426
0.0544679
-0.00973304
0.170977
0.0144912
-0.0524134
-0.155165
-0.139519
0.199753
-0.345978
0.00440302
-0.0244353
-0.0694227
0.0925294
-0.10937
-0.187569
-0.182759
0.190743
0.253157
-0.10534
0.0812232
0.338724
0.0688499
-0.0111583
-0.273183
-0.0886416
0.0544941
-0.248873
-0.222616
0.251965
0.584005
0.0216945
-0.0707842
0.385395
0.182941
-0.146553
0.258293
0.0472431
-0.0242241
-0.118161
-0.000838561
-0.00375337
7.28972e-13
0.00614821
0.00086168
0.00625003
-0.00555338
-0.00706485
-3.35713e-06
0.014221
-0.0318332
-0.115816
0.00380593
0.000354722
-0.00207605
-0.00236361
-0.00624262
-9.27324e-13
-0.00700271
-0.0061602
0.000464437
-0.00582334
-0.00194478
4.12698e-07
0.00248316
0.0041271
-0.00509319
-0.0396439
0.100748
0.270459
0.0447284
-0.0104601
0.0906604
0.0430034
0.113801
-0.439999
-0.00404588
-0.00113107
-6.77027e-13
-0.0501016
0.0275413
0.075992
-0.0313416
0.0301851
-0.0812733
0.167376
-0.108128
-0.467613
0.12051
-0.0661589
0.611896
0.295016
-0.13315
-0.989931
-0.00439658
-0.0609883
0.447886
-0.114214
0.0599889
-0.177401
-0.078487
0.107336
0.181063
-0.226538
0.041049
0.596681
-0.14852
0.091199
-0.215697
-0.0978245
0.137492
0.169398
-0.261395
0.26507
-0.433462
-0.380487
0.358849
0.545457
0.209714
-0.219304
0.766698
0.289602
-0.239645
0.777031
-0.0862669
0.287921
0.778355
-0.0478378
-0.0690039
-0.440966
0.0849627
0.0336477
0.526749
0.201601
-0.0739338
-0.971664
0.268934
-0.139234
0.616781
0.174033
-0.275802
-0.354801
0.255241
-0.295843
-0.514522
-0.145262
0.112153
-0.259772
0.115919
-0.0484554
0.393763
-0.177993
0.106205
-0.270016
-0.127809
0.178341
0.270899
-0.152246
0.0504712
0.804776
0.20776
-0.137637
-0.320999
-0.194442
0.20827
0.469346
-0.0971137
0.00188714
1.11529
0.332544
-0.448531
1.00538
0.128854
-0.128213
-0.919859
-0.0048171
0.00210897
-0.571861
-0.00425324
0.00633766
0.889971
0.0289336
-0.00561374
0.114978
0.0178813
-0.037475
0.14741
-0.138772
0.131361
0.60856
0.188239
0.0525687
-1.19318
-0.125306
0.115341
-0.416355
0.000157473
-0.0528478
-0.198136
0.0595308
-0.00108246
0.251986
-0.0854296
0.127392
0.399294
-0.196031
0.305123
-0.566558
0.248631
-0.445051
0.800781
-0.17285
0.246285
0.856503
-0.039425
-0.0178575
0.433547
-0.19439
0.192602
-0.876831
-0.0350596
0.165882
-0.428749
0.21326
0.0069614
0.822665
0.0078962
-0.206696
-0.938897
-0.19399
0.147505
1.13832
-0.300368
-0.0770384
1.26969
0.0759452
-0.124411
0.65331
-0.053573
0.0565799
-1.1102
-0.425486
0.414698
-0.892908
-0.094501
0.0598256
-0.830066
0.0124029
-0.0115335
0.965258
0.315068
-0.139056
0.706339
0.172289
-0.334828
-0.828244
-0.303328
0.271167
0.39672
0.0360427
-0.155847
-0.532878
0.148214
-0.0301021
0.51329
0.321209
-0.389443
0.591033
0.0842558
-0.0328958
-0.573904
0.230816
-0.253365
-0.378017
0.266293
-0.234864
-0.397385
0.0875595
-0.123242
-0.277827
-0.149972
-0.0288487
0.559995
-0.191801
0.186267
0.279555
0.0842382
-0.0845415
0.310548
0.0839999
-0.0789443
-0.23478
-0.110287
0.120314
0.159598
0.0322122
-0.0952014
0.339696
0.0336093
0.137079
-0.566073
0.0633163
0.197732
-0.961077
0.357694
-0.379735
0.620441
0.176382
-0.0877875
-0.465604
-0.0208147
0.0388579
0.240619
0.126602
-0.173727
0.507817
0.338755
-0.353239
-0.546274
-0.141053
0.0728959
0.745203
0.0859612
-0.0869934
0.166667
0.0236229
-0.0364793
-0.139478
0.133081
-0.104249
-0.296729
-0.0773501
0.0402751
-0.273573
-0.155212
0.176579
0.212589
0.154926
-0.0444926
-0.41619
0.0300783
-0.12742
0.408766
0.289382
-0.350174
0.634629
0.239833
-0.139467
-0.382894
1.52174
0.165681
-0.828115
-0.0388493
0.751286
-0.0390302
-0.751182
0.535032
-0.541702
0.136582
0.358618
1.44925
-0.611969
-0.622556
0.79778
0.678967
-0.021841
-0.354407
-0.276659
-0.292036
5.67512e-18
0.014911
-0.0188693
-0.014911
0.0109527
-1.82824e-15
1.1881e-16
-0.0180122
-2.20408e-14
0.0118097
-1.95602
-0.217891
1.39764
0.0158082
0.430702
-0.242404
-0.170054
0.310593
-0.0984931
0.0288496
0.120779
0.19608
0.292822
-0.542037
-0.916931
-0.518396
0.489947
-1.81884
1.08227
-0.0575072
0.192986
-0.305059
0.0976674
0.0386555
-0.296585
0.536382
0.0228682
-0.265453
-0.0546132
0.319363
0.46483
-0.213941
-0.208296
-0.0629307
-0.842424
1.9919
0.206771
0.226153
-0.251326
0.141098
0.0640001
0.346229
1.16344
-0.987575
1.13112
-0.234515
-0.615502
0.328849
0.238018
0.837661
0.560038
-0.0644063
0.313787
-0.0867714
0.38568
-0.292577
-0.173449
0.154896
-0.31679
0.302351
-0.0616629
0.305151
-0.164243
-0.0174151
-0.3219
0.169235
0.187111
-0.395652
0.202655
0.0366987
-0.130184
-0.206472
-0.206984
-1.03738
1.79785
-0.827995
1.4075
-0.157641
-0.464777
-0.862771
0.0533095
0.101657
0.213647
0.212331
0.170779
-1.39458
0.357395
1.1956
0.698798
-1.21126
-0.13969
0.8919
0.0902852
0.985476
-0.509549
-0.574054
-0.581144
0.238893
0.592845
-0.0383723
-0.25175
0.175062
0.160529
0.204822
-0.00466975
-0.0686079
0.101035
-0.122729