/*--------------------------------*- C++ -*----------------------------------*\
  =========                 |
  \\      /  F ield         | OpenFOAM: The Open Source CFD Toolbox
   \\    /   O peration     | Website:  https://openfoam.org
    \\  /    A nd           | Version:  6
     \\/     M anipulation  |
\*---------------------------------------------------------------------------*/
FoamFile
{
    version     2.0;
    format      ascii;
    class       surfaceVectorField;
    location    "3.84";
    object      Uf;
}
// * * * * * * * * * * * * * * * * * * * * * * * * * * * * * * * * * * * * * //

dimensions      [0 1 -1 0 0 0 0];

internalField   nonuniform List<vector> 
8193
(
(4.93621 -0.0117718 5.92298e-20)
(5.05501 -0.0373199 -3.8266e-20)
(4.54068 -0.0889462 -1.00207e-19)
(5.13292 0.0575054 5.75408e-19)
(5.23167 0.0612938 9.11787e-20)
(5.22 0.126493 -8.8915e-20)
(5.28638 0.139969 -1.14297e-19)
(5.26663 0.181491 -4.61844e-19)
(5.30955 0.194043 -1.23365e-19)
(5.2894 0.220228 -2.19319e-19)
(5.31777 0.23402 -7.67031e-21)
(5.2979 0.247439 2.55458e-19)
(5.3159 0.261066 3.92164e-20)
(5.29237 0.261616 -1.31858e-20)
(5.30174 0.276292 -3.5683e-21)
(5.272 0.262487 0)
(5.27335 0.279239 -1.25965e-20)
(5.23793 0.248474 0)
(5.23105 0.268622 0)
(5.19038 0.215856 0)
(5.17526 0.242139 0)
(5.13016 0.159346 9.03305e-23)
(5.10618 0.196723 -1.45978e-20)
(5.06222 0.06871 -2.38591e-20)
(5.02384 0.125643 1.25857e-20)
(4.98679 -0.0676543 -5.82794e-19)
(4.93304 0.0179226 3.88004e-21)
(4.84515 -0.232775 -7.73435e-19)
(4.81751 -0.132284 -2.64045e-20)
(4.48554 -0.370961 7.63321e-20)
(4.56155 -0.280708 2.43539e-20)
(3.85531 -0.461445 1.60766e-18)
(4.00698 -0.339304 4.47906e-20)
(3.26221 -0.591804 6.76182e-19)
(3.27265 -0.359502 -2.08226e-22)
(3.09437 -0.873818 -3.43022e-19)
(2.83809 -0.514285 -4.06754e-20)
(3.23623 -1.30415 -1.75438e-20)
(2.89368 -0.879087 -1.38533e-19)
(3.38493 -1.74615 -3.27296e-21)
(3.04532 -1.335 3.48448e-21)
(3.51755 -2.11162 -3.68954e-21)
(3.19034 -1.75631 4.94744e-22)
(3.71389 -2.36851 1.82749e-20)
(3.39167 -2.11113 1.46125e-20)
(4.01677 -2.51735 -5.45289e-20)
(3.68376 -2.37134 1.34739e-20)
(4.41009 -2.55783 1.34028e-18)
(4.08212 -2.51134 -3.00592e-19)
(4.8323 -2.49974 3.10427e-20)
(4.55032 -2.53887 2.10041e-19)
(5.22638 -2.34448 0)
(5.03707 -2.4922 4.07705e-19)
(5.55142 -2.10783 9.15454e-20)
(5.48443 -2.33271 1.68006e-20)
(5.7765 -1.82781 -1.99791e-18)
(5.83653 -2.10419 7.82979e-20)
(5.89784 -1.53779 1.31698e-18)
(6.06173 -1.81945 -4.05898e-19)
(5.93986 -1.26634 8.078e-20)
(6.15883 -1.52365 9.69255e-20)
(5.93953 -1.0311 3.95946e-21)
(6.16473 -1.24313 -3.24615e-19)
(5.92164 -0.839314 8.05784e-22)
(6.12429 -1.00019 5.19029e-20)
(5.89913 -0.688351 2.34459e-22)
(6.06711 -0.80262 5.77367e-20)
(5.8775 -0.568921 -5.79707e-22)
(6.01465 -0.649411 1.80134e-20)
(5.85503 -0.469542 1.1441e-22)
(5.97507 -0.531605 0)
(5.82744 -0.37988 -4.77706e-20)
(5.94439 -0.435585 -6.60816e-21)
(5.79272 -0.292372 4.84053e-19)
(5.91469 -0.351143 -5.18644e-20)
(5.74925 -0.199987 4.77706e-20)
(5.88589 -0.274196 9.81754e-20)
(5.67232 -0.103061 0)
(5.86145 -0.196294 -6.65961e-20)
(5.46787 -0.0168895 -1.14403e-19)
(5.81065 -0.0989552 3.37088e-20)
(5.62094 0.0123472 -3.12378e-20)
(5.01756 0.066355 -7.43343e-20)
(5.28717 0.0812598 2.22271e-18)
(5.27106 0.0490193 1.32696e-19)
(5.12993 -0.0586917 -4.18666e-18)
(5.32256 0.155729 -2.08275e-19)
(5.31677 0.147716 1.06344e-19)
(5.33395 0.215159 -3.58606e-20)
(5.34112 0.21291 -1.23364e-19)
(5.33597 0.255214 5.84055e-20)
(5.34122 0.251928 1.00216e-19)
(5.3295 0.279979 -1.40325e-20)
(5.33176 0.279532 -7.45782e-20)
(5.31237 0.294019 1.48797e-20)
(5.31524 0.297499 3.52352e-20)
(5.27982 0.296868 8.10589e-20)
(5.28426 0.304716 1.55414e-20)
(5.23351 0.28692 -1.23599e-20)
(5.24038 0.300249 -2.20979e-20)
(5.17387 0.262519 0)
(5.18323 0.282968 8.59621e-21)
(5.10003 0.221137 -1.47288e-20)
(5.11203 0.250793 -1.53676e-20)
(5.01121 0.157889 -8.78305e-20)
(5.02589 0.200817 3.5779e-20)
(4.90864 0.0652912 3.7006e-20)
(4.92446 0.127926 -2.42946e-20)
(4.78297 -0.0622441 1.89383e-19)
(4.80857 0.0252336 1.8259e-20)
(4.56745 -0.20141 -2.50621e-20)
(4.65603 -0.10833 7.01148e-20)
(4.1347 -0.282409 -6.83537e-21)
(4.36562 -0.222191 -1.98407e-19)
(3.48801 -0.286222 2.09399e-20)
(3.80953 -0.225704 -1.5795e-20)
(2.92253 -0.323863 2.10863e-20)
(3.10161 -0.169766 2.47555e-19)
(2.72722 -0.528521 -3.57364e-21)
(2.65807 -0.241778 -7.3783e-20)
(2.79689 -0.917985 -7.82306e-21)
(2.63547 -0.531218 2.36457e-20)
(2.93287 -1.34038 -4.26529e-21)
(2.75258 -0.931962 1.24425e-19)
(3.11854 -1.74886 3.53397e-20)
(2.88259 -1.33431 -1.93077e-20)
(3.39088 -2.10766 4.01768e-20)
(3.08906 -1.71672 2.3927e-20)
(3.7655 -2.38208 -2.78025e-19)
(3.40637 -2.05539 -9.54973e-20)
(4.24137 -2.56393 8.55807e-19)
(3.83147 -2.30531 -1.79873e-19)
(4.77488 -2.62922 5.70083e-19)
(4.35117 -2.43364 2.03658e-19)
(5.30028 -2.57374 -2.13689e-18)
(4.91529 -2.46562 -3.88108e-19)
(5.75766 -2.41137 -2.11405e-18)
(5.46026 -2.40289 3.37638e-19)
(6.09442 -2.1597 -1.799e-18)
(5.92935 -2.25033 6.98699e-19)
(6.28649 -1.85353 -1.39259e-19)
(6.26483 -2.00857 -2.4125e-19)
(6.34636 -1.53456 -9.18327e-19)
(6.43906 -1.71896 1.06063e-19)
(6.31675 -1.23637 9.2049e-19)
(6.47499 -1.4132 -2.51084e-19)
(6.24319 -0.981303 9.59502e-19)
(6.42048 -1.1297 5.14527e-20)
(6.16105 -0.777923 7.91269e-20)
(6.3199 -0.888271 2.54809e-19)
(6.09206 -0.623906 -2.19762e-21)
(6.21184 -0.697938 -6.63273e-20)
(6.04184 -0.507582 -8.98711e-22)
(6.12361 -0.556113 -1.17247e-19)
(6.00451 -0.416333 -9.61422e-22)
(6.05985 -0.448995 5.75304e-20)
(5.97166 -0.339699 3.27205e-20)
(6.01252 -0.36352 -6.76942e-20)
(5.94273 -0.268722 3.95647e-19)
(5.97515 -0.296269 3.31878e-20)
(5.92208 -0.194625 -1.34578e-19)
(5.94777 -0.237371 -2.6779e-20)
(5.88938 -0.111919 3.49664e-20)
(5.91178 -0.158802 -2.06952e-20)
(5.8619 -0.0575989 5.94554e-22)
(5.7418 0.0449159 4.11249e-21)
(5.34926 0.143998 2.80887e-21)
(5.36915 0.123478 -3.49573e-21)
(5.33388 0.0426247 -1.86895e-18)
(5.35369 0.204292 2.15528e-19)
(5.3697 0.196055 9.22623e-20)
(5.35186 0.246276 4.54121e-20)
(5.37315 0.247096 -1.64764e-19)
(5.34301 0.278473 1.26303e-19)
(5.3596 0.279528 5.67185e-20)
(5.32335 0.299917 -1.98117e-19)
(5.33458 0.302996 -6.64047e-20)
(5.29014 0.309949 2.21059e-20)
(5.30145 0.318189 7.64197e-20)
(5.24508 0.309628 -2.11079e-21)
(5.25662 0.323274 -4.50596e-20)
(5.18742 0.297111 -2.26713e-20)
(5.1983 0.317175 1.64699e-20)
(5.11586 0.270651 -5.72742e-20)
(5.12598 0.298675 -8.8151e-22)
(5.02906 0.228174 -1.07889e-19)
(5.03883 0.266001 -2.54431e-20)
(4.9261 0.166246 2.92374e-19)
(4.93559 0.21693 1.14017e-19)
(4.8062 0.0800908 -3.72114e-20)
(4.81524 0.148723 -5.28411e-20)
(4.65776 -0.0321554 6.12607e-20)
(4.67526 0.0579388 -1.16984e-19)
(4.42234 -0.143332 2.9887e-19)
(4.49264 -0.0518412 1.38351e-19)
(3.99543 -0.189209 -7.67042e-19)
(4.18092 -0.129774 -2.58428e-19)
(3.37694 -0.142089 -6.13057e-19)
(3.6408 -0.0983171 1.30224e-19)
(2.81217 -0.0980474 4.4549e-20)
(2.97084 0.0158144 7.17106e-20)
(2.55753 -0.240101 -1.95863e-20)
(2.48784 0.0318987 -2.0177e-20)
(2.57316 -0.558915 5.16435e-20)
(2.38515 -0.164684 2.21299e-20)
(2.67702 -0.927055 5.88126e-21)
(2.45678 -0.490804 -2.29458e-21)
(2.83595 -1.29833 -9.41198e-20)
(2.55901 -0.838479 -1.88889e-20)
(3.09289 -1.65546 -5.62599e-20)
(2.74232 -1.18187 -1.57338e-19)
(3.46806 -1.96956 0)
(3.04928 -1.51099 2.36611e-19)
(3.95583 -2.20392 7.71353e-20)
(3.48848 -1.79021 3.36572e-19)
(4.53315 -2.34844 -6.90824e-19)
(4.03213 -1.98386 -1.36458e-19)
(5.13668 -2.38584 2.18975e-18)
(4.65294 -2.08428 -7.67118e-19)
(5.69502 -2.31958 3.09891e-18)
(5.28648 -2.1185 2.30522e-20)
(6.1522 -2.15842 6.06341e-19)
(5.87328 -2.07669 -3.5683e-19)
(6.45945 -1.91914 0)
(6.34757 -1.94299 6.51191e-19)
(6.60138 -1.63133 0)
(6.6515 -1.71836 -1.98662e-19)
(6.60562 -1.33203 0)
(6.7763 -1.45008 0)
(6.51942 -1.05669 1.72238e-19)
(6.75357 -1.17417 5.27759e-19)
(6.39089 -0.823851 -6.78167e-19)
(6.63888 -0.922311 -6.75502e-19)
(6.26378 -0.642859 -8.45364e-19)
(6.47924 -0.712629 5.03608e-19)
(6.16254 -0.507634 -4.85127e-20)
(6.32879 -0.553354 -3.3211e-19)
(6.09058 -0.406549 -6.31832e-19)
(6.21138 -0.435668 -4.02861e-20)
(6.03868 -0.327789 -6.84355e-20)
(6.12794 -0.345766 1.28219e-19)
(5.99729 -0.261394 5.64258e-20)
(6.07076 -0.279043 -5.17163e-21)
(5.96601 -0.203498 -2.16948e-19)
(6.02757 -0.226103 -1.85371e-20)
(5.94736 -0.143098 -5.66789e-20)
(5.98492 -0.166397 -5.72815e-20)
(5.96324 -0.106268 7.40962e-20)
(5.93349 -0.0498999 1.06605e-19)
(5.40339 0.194315 8.679e-20)
(5.41989 0.181275 1.89609e-19)
(5.41687 0.127008 1.13647e-18)
(5.39197 0.2442 -2.30849e-20)
(5.40369 0.236498 -2.43023e-20)
(5.37346 0.279888 5.03408e-20)
(5.38969 0.280216 7.47178e-21)
(5.34743 0.307007 3.55109e-20)
(5.36362 0.309661 -7.36737e-20)
(5.31175 0.325248 -7.5385e-20)
(5.32522 0.330911 -1.13841e-19)
(5.26463 0.333633 1.38823e-20)
(5.27784 0.344955 5.9966e-20)
(5.20502 0.331945 -2.27809e-20)
(5.21886 0.34992 -2.38137e-20)
(5.13161 0.318847 2.95359e-20)
(5.14562 0.344151 2.36068e-20)
(5.0431 0.292449 3.84493e-20)
(5.05743 0.326389 7.6035e-21)
(4.93862 0.251071 4.9418e-20)
(4.95408 0.295225 -3.14889e-20)
(4.81718 0.193292 2.43494e-19)
(4.83452 0.249666 5.82339e-20)
(4.67616 0.117652 1.18786e-20)
(4.6969 0.189617 -1.47882e-20)
(4.50198 0.0268918 -2.18906e-19)
(4.53631 0.115398 -2.97163e-20)
(4.2436 -0.0523289 -3.57886e-20)
(4.33083 0.035039 1.14219e-20)
(3.81941 -0.0600227 -2.99482e-19)
(4.0132 -0.00848836 -1.12487e-19)
(3.23359 0.0369099 9.19103e-20)
(3.50979 0.0543535 1.25897e-19)
(2.67208 0.14545 -1.93845e-20)
(2.8805 0.215573 -1.09462e-19)
(2.35767 0.111834 4.77755e-20)
(2.3665 0.33161 1.48796e-19)
(2.29429 -0.107145 -4.88682e-20)
(2.16468 0.262881 -6.40524e-21)
(2.34905 -0.405589 -9.13223e-20)
(2.16787 0.0421053 -2.34638e-19)
(2.47557 -0.715352 -3.0917e-20)
(2.23478 -0.227169 3.7377e-20)
(2.71082 -1.02674 1.99955e-19)
(2.3783 -0.50109 1.34597e-19)
(3.08164 -1.31896 7.11935e-19)
(2.64833 -0.775229 2.00163e-19)
(3.57964 -1.56734 3.32756e-19)
(3.06359 -1.02752 2.75304e-19)
(4.17566 -1.75881 -2.12916e-19)
(3.59807 -1.2435 3.95929e-19)
(4.83795 -1.89948 -2.3521e-19)
(4.21369 -1.41231 -1.14131e-18)
(5.50121 -1.95484 -1.16896e-18)
(4.90109 -1.52775 -2.34637e-19)
(6.09848 -1.91937 1.04319e-18)
(5.588 -1.59735 -2.29911e-18)
(6.56198 -1.78352 4.56643e-19)
(6.22019 -1.59421 3.11543e-18)
(6.83919 -1.56721 -1.98824e-19)
(6.70302 -1.48527 -9.37309e-19)
(6.92892 -1.31201 5.18625e-19)
(6.97764 -1.30748 2.16885e-19)
(6.87468 -1.0564 -6.41375e-19)
(7.04703 -1.08779 5.19467e-19)
(6.72474 -0.823559 -1.13364e-19)
(6.97451 -0.864753 -8.37808e-19)
(6.54113 -0.63406 1.32275e-19)
(6.79616 -0.665736 4.7535e-19)
(6.375 -0.490921 -3.26116e-19)
(6.58904 -0.509316 -2.59629e-19)
(6.24928 -0.386157 4.35009e-19)
(6.40621 -0.3945 -9.53994e-20)
(6.16173 -0.307509 -1.47461e-19)
(6.27034 -0.309415 3.2799e-19)
(6.09863 -0.246008 -1.97707e-19)
(6.17884 -0.248282 -1.31594e-19)
(6.05087 -0.196713 -8.01013e-20)
(6.11238 -0.20068 -8.02287e-20)
(6.01666 -0.151066 7.49983e-20)
(6.0562 -0.152085 0)
(6.02763 -0.115822 1.60328e-19)
(6.00137 -0.0987354 9.18959e-19)
(5.43159 0.235199 4.4963e-20)
(5.45048 0.226308 6.34891e-20)
(5.45586 0.181673 5.30776e-19)
(5.40669 0.277584 -1.61256e-20)
(5.42249 0.273484 3.09657e-20)
(5.37631 0.310117 -4.67425e-20)
(5.39603 0.313478 1.10539e-19)
(5.3374 0.335432 -1.27765e-19)
(5.35814 0.342572 -9.35831e-20)
(5.2887 0.35359 -9.92382e-20)
(5.3077 0.36443 -2.59347e-20)
(5.22807 0.363178 2.01348e-20)
(5.24661 0.379876 1.28277e-19)
(5.15373 0.362979 -2.44922e-21)
(5.17274 0.387048 6.3283e-21)
(5.06477 0.351729 1.89079e-20)
(5.08399 0.383936 4.14698e-20)
(4.96058 0.327924 2.25883e-20)
(4.97987 0.369308 -5.81485e-21)
(4.84068 0.290906 -2.09112e-20)
(4.86096 0.342505 1.26017e-20)
(4.70384 0.241353 -4.69508e-22)
(4.72667 0.304013 1.07587e-19)
(4.54612 0.181039 9.27331e-20)
(4.57459 0.25615 -1.14008e-19)
(4.35413 0.11606 1.21544e-19)
(4.39849 0.202938 7.97001e-20)
(4.08837 0.0699879 -7.33623e-20)
(4.17908 0.154125 -4.85175e-20)
(3.69039 0.0934167 -3.43787e-20)
(3.8685 0.143456 -1.77417e-19)
(3.15463 0.224647 -9.06096e-20)
(3.41533 0.228992 1.109e-19)
(2.60134 0.401141 2.39412e-20)
(2.84068 0.42241 -1.09152e-19)
(2.21951 0.489054 9.47437e-20)
(2.31513 0.626604 -3.23669e-19)
(2.06841 0.404425 7.62413e-20)
(2.0112 0.701587 -4.66185e-19)
(2.06167 0.210998 1.15761e-19)
(1.91767 0.622033 7.7708e-20)
(2.13604 -0.0102116 1.83795e-19)
(1.93235 0.465021 -9.45248e-21)
(2.31601 -0.239308 1.01218e-19)
(2.02864 0.2851 3.81059e-20)
(2.63737 -0.471816 -2.58585e-19)
(2.23852 0.0938951 2.79991e-19)
(3.09695 -0.69642 3.7736e-19)
(2.59195 -0.0970242 7.00611e-19)
(3.66442 -0.903966 -5.71698e-19)
(3.07366 -0.287338 -3.50243e-19)
(4.32009 -1.08444 -1.13975e-18)
(3.65139 -0.472987 1.45724e-19)
(5.04293 -1.23641 -1.33739e-18)
(4.31196 -0.641689 3.29308e-20)
(5.75884 -1.31443 2.11603e-18)
(5.05557 -0.787884 -2.22369e-18)
(6.39395 -1.32003 1.80099e-18)
(5.79353 -0.90019 2.63543e-18)
(6.86361 -1.24373 -3.81034e-19)
(6.45374 -0.938916 -1.84097e-18)
(7.10763 -1.09302 2.17294e-19)
(6.94663 -0.898988 1.32494e-18)
(7.15485 -0.902024 0)
(7.19161 -0.792384 -2.15179e-19)
(7.05442 -0.711764 -6.86137e-20)
(7.22426 -0.645895 1.03417e-18)
(6.84917 -0.541953 -1.1522e-19)
(7.10359 -0.497387 -9.09818e-19)
(6.62443 -0.414066 -3.10655e-20)
(6.87291 -0.375155 -9.52086e-20)
(6.43186 -0.321716 1.44483e-19)
(6.63563 -0.2866 3.5341e-20)
(6.29173 -0.255235 -8.16608e-20)
(6.43892 -0.224454 1.00896e-19)
(6.19471 -0.204687 -1.27883e-19)
(6.30194 -0.182139 -1.27015e-19)
(6.12626 -0.165982 0)
(6.20336 -0.148789 1.20028e-19)
(6.07729 -0.13041 8.66456e-20)
(6.13011 -0.115859 -1.11493e-19)
(6.08519 -0.0943632 -1.72825e-20)
(6.04831 -0.0966708 5.19601e-19)
(5.44942 0.274674 5.57023e-20)
(5.47153 0.271179 8.70528e-20)
(5.47958 0.228689 -8.26951e-20)
(5.41521 0.314508 1.64922e-19)
(5.4342 0.315832 6.35555e-20)
(5.37339 0.346958 4.02516e-20)
(5.39607 0.355618 1.13367e-19)
(5.32211 0.373325 8.07268e-21)
(5.34675 0.386372 -1.73735e-19)
(5.25996 0.393425 6.56508e-20)
(5.28416 0.410622 1.31389e-19)
(5.18489 0.405876 4.27568e-20)
(5.20917 0.429228 -3.71761e-20)
(5.0952 0.409155 9.98439e-21)
(5.11989 0.440439 -7.95132e-20)
(4.99038 0.401961 -2.37331e-20)
(5.01525 0.442022 -4.69147e-20)
(4.87073 0.383426 1.27177e-20)
(4.89566 0.432832 1.40742e-20)
(4.73637 0.353973 1.4384e-19)
(4.76252 0.41309 3.42035e-20)
(4.586 0.31611 2.54487e-20)
(4.6159 0.384821 5.16971e-20)
(4.41496 0.274373 -1.22882e-19)
(4.45316 0.352431 -4.52832e-20)
(4.21137 0.236599 -9.95062e-21)
(4.26748 0.322408 -1.88762e-20)
(3.94813 0.222593 -1.77616e-19)
(4.04368 0.304585 5.39431e-21)
(3.5853 0.272033 -1.41957e-19)
(3.75 0.324578 -1.53062e-19)
(3.1092 0.423124 9.06425e-20)
(3.354 0.428551 1.44015e-19)
(2.58861 0.650366 -9.18936e-20)
(2.85322 0.636731 -5.25308e-20)
(2.16144 0.847471 2.08731e-21)
(2.34626 0.895562 3.89107e-19)
(1.91768 0.919061 1.71481e-20)
(1.96681 1.09655 1.69264e-20)
(1.83413 0.872078 -4.51406e-20)
(1.76239 1.17707 0)
(1.85365 0.765142 -1.51619e-19)
(1.69108 1.16147 -4.49132e-20)
(1.96841 0.630478 1.58513e-20)
(1.71834 1.09691 -8.75818e-20)
(2.20539 0.482475 1.22227e-18)
(1.85826 1.00967 1.80984e-19)
(2.57927 0.318537 3.83519e-19)
(2.12448 0.907543 1.27527e-18)
(3.07426 0.140184 5.66921e-19)
(2.51492 0.781523 -2.14966e-18)
(3.67182 -0.0451741 1.44263e-18)
(3.01147 0.625756 2.25967e-18)
(4.36495 -0.224001 -8.30775e-19)
(3.60988 0.446627 -1.94174e-18)
(5.12699 -0.397659 -8.88364e-19)
(4.30464 0.257227 2.75493e-18)
(5.89041 -0.535055 -1.47903e-18)
(5.06684 0.0688106 -1.79591e-18)
(6.57028 -0.610264 -2.58861e-19)
(5.84019 -0.0909948 -1.47842e-18)
(7.05205 -0.612346 7.17198e-19)
(6.54181 -0.201695 1.54151e-18)
(7.26847 -0.543307 7.953e-19)
(7.0507 -0.247916 1.11328e-19)
(7.2813 -0.437471 9.16381e-20)
(7.27852 -0.228773 1.24371e-18)
(7.13679 -0.326199 -7.28879e-19)
(7.28939 -0.173759 -1.43772e-18)
(6.89585 -0.244578 3.20178e-20)
(7.10786 -0.118713 8.18014e-19)
(6.64918 -0.18666 -4.45986e-20)
(6.86132 -0.0828292 -3.63084e-19)
(6.44939 -0.150215 -2.96546e-20)
(6.61631 -0.0672456 1.7735e-19)
(6.30986 -0.126462 1.19317e-19)
(6.42711 -0.0624446 0)
(6.21361 -0.107514 -3.5316e-19)
(6.29455 -0.0580856 1.54883e-19)
(6.14403 -0.0874835 -2.18477e-19)
(6.20453 -0.0502441 1.26228e-20)
(6.14278 -0.046275 -4.58102e-19)
(6.09565 -0.0692535 -2.08581e-19)
(5.46212 0.320918 -7.09966e-21)
(5.48907 0.32404 -7.90625e-20)
(5.49895 0.276773 4.55019e-20)
(5.41819 0.361581 1.71421e-20)
(5.44283 0.369887 8.43909e-20)
(5.36521 0.396401 -3.2693e-20)
(5.39345 0.411916 5.4449e-20)
(5.30161 0.425542 -6.73523e-20)
(5.33215 0.445733 -9.58582e-20)
(5.22581 0.449171 3.66173e-20)
(5.25691 0.473836 2.47855e-20)
(5.13576 0.466188 2.92116e-21)
(5.16758 0.49737 1.22608e-20)
(5.03031 0.474908 -4.09297e-20)
(5.06259 0.514478 -4.09623e-20)
(4.90984 0.473866 -1.41183e-20)
(4.94209 0.522696 1.08187e-20)
(4.77588 0.462867 -1.20305e-20)
(4.80811 0.521071 -9.02005e-20)
(4.62937 0.443594 -5.81483e-20)
(4.66304 0.510833 0)
(4.4692 0.420095 6.83134e-21)
(4.50746 0.495457 -1.07121e-19)
(4.29108 0.39871 7.91871e-20)
(4.33888 0.480616 5.00202e-20)
(4.08566 0.388198 -1.94924e-20)
(4.15057 0.473597 1.05002e-19)
(3.8347 0.404222 5.6806e-21)
(3.93067 0.484247 9.28893e-20)
(3.51327 0.479511 3.53148e-20)
(3.66338 0.53377 -9.24037e-20)
(3.10467 0.640586 0)
(3.32296 0.65427 0)
(2.64201 0.886142 3.44266e-20)
(2.90358 0.862614 3.19123e-20)
(2.20912 1.15469 3.43457e-20)
(2.45054 1.13716 3.17101e-20)
(1.88939 1.36349 0)
(2.04651 1.41424 -5.2596e-20)
(1.71201 1.477 0)
(1.75232 1.62907 9.71256e-20)
(1.65553 1.51457 0)
(1.57777 1.7622 1.79927e-20)
(1.69699 1.50191 0)
(1.509 1.83228 2.59436e-19)
(1.83463 1.45786 4.29405e-19)
(1.56055 1.86742 -3.80758e-19)
(2.08211 1.38051 -7.4642e-19)
(1.72499 1.87389 7.89951e-19)
(2.45484 1.26102 -6.66029e-19)
(1.99306 1.83293 -3.84857e-19)
(2.94932 1.10396 -9.70222e-19)
(2.3672 1.73518 8.84889e-19)
(3.55528 0.917582 1.7357e-18)
(2.85396 1.58567 -2.37494e-19)
(4.26423 0.707549 1.92066e-18)
(3.45015 1.38916 2.06182e-18)
(5.04845 0.49384 -1.79636e-18)
(4.15377 1.16303 -8.43267e-21)
(5.85584 0.30215 6.21055e-19)
(4.93466 0.926485 -8.97585e-19)
(6.59629 0.150075 1.35496e-18)
(5.72878 0.697869 4.65353e-19)
(7.12122 0.0543629 5.81328e-19)
(6.4551 0.511944 1.05918e-18)
(7.34307 0.0304321 -8.23119e-19)
(6.99138 0.389563 1.6682e-18)
(7.3101 0.0346236 4.90491e-19)
(7.23929 0.317707 -1.42858e-18)
(7.10849 0.0512495 4.34639e-19)
(7.21853 0.272043 7.57529e-19)
(6.85475 0.0439675 -3.30278e-19)
(7.00394 0.227682 -4.02092e-19)
(6.6126 0.0273602 3.66006e-19)
(6.75652 0.177368 3.97163e-19)
(6.42802 0.00791301 -8.60109e-21)
(6.53236 0.128652 0)
(6.29955 -0.00610306 1.22199e-19)
(6.37082 0.0880671 -8.66912e-21)
(6.20874 -0.0108476 -1.53348e-19)
(6.26742 0.0563411 2.78711e-19)
(6.18985 0.034799 -4.77679e-19)
(6.14357 -0.0143619 6.87923e-19)
(5.47423 0.381077 -4.28116e-19)
(5.50738 0.390584 -1.30351e-19)
(5.51879 0.335157 -3.36941e-19)
(5.41997 0.424476 1.47014e-19)
(5.45142 0.440093 6.59065e-20)
(5.35543 0.462923 1.01733e-20)
(5.39075 0.486315 7.61166e-20)
(5.2792 0.496327 0)
(5.31714 0.524647 0)
(5.18936 0.525215 0)
(5.2288 0.558095 0)
(5.08379 0.548636 0)
(5.12465 0.588338 4.30762e-20)
(4.96237 0.564623 1.26224e-20)
(5.00383 0.613095 -4.68066e-20)
(4.82717 0.571649 -1.81128e-20)
(4.86821 0.629553 8.49682e-20)
(4.68117 0.570235 -7.27683e-21)
(4.72186 0.637143 4.72041e-24)
(4.52613 0.563312 -7.42144e-20)
(4.56813 0.638205 -7.81225e-20)
(4.36126 0.555916 -9.13248e-20)
(4.40762 0.637405 7.11674e-20)
(4.18285 0.554772 6.48622e-20)
(4.23779 0.640821 -6.51407e-21)
(3.98383 0.569132 2.17488e-19)
(4.0531 0.655703 1.13973e-19)
(3.75256 0.615758 -9.92509e-20)
(3.84779 0.692716 2.59191e-21)
(3.47043 0.712309 -1.26325e-19)
(3.60792 0.769181 -1.27956e-19)
(3.12862 0.87789 3.20452e-20)
(3.3195 0.904295 0)
(2.74029 1.11865 2.92452e-20)
(2.97712 1.10632 -1.56113e-19)
(2.34452 1.40928 -5.45556e-20)
(2.59803 1.36943 -4.25898e-19)
(1.99529 1.69755 4.35122e-20)
(2.22193 1.66659 -6.25602e-19)
(1.73385 1.939 1.11384e-19)
(1.89296 1.95332 8.13384e-19)
(1.57508 2.1168 2.71661e-19)
(1.63727 2.19792 1.7564e-20)
(1.51313 2.24073 -1.12324e-19)
(1.47353 2.39332 1.16026e-18)
(1.5387 2.31315 -1.43229e-19)
(1.41913 2.54879 -1.04269e-18)
(1.66 2.33668 1.29815e-18)
(1.47105 2.65929 6.89984e-19)
(1.89367 2.2969 1.10163e-18)
(1.59801 2.70346 2.25787e-18)
(2.24654 2.19322 9.91688e-19)
(1.81759 2.68083 -3.4219e-18)
(2.71859 2.0321 6.26869e-20)
(2.15219 2.58853 1.59453e-19)
(3.31199 1.81898 6.76342e-19)
(2.60363 2.41657 1.52755e-18)
(4.02355 1.56691 7.01245e-19)
(3.18288 2.18211 2.31753e-18)
(4.82341 1.30063 -1.56121e-18)
(3.88773 1.91161 -6.12552e-18)
(5.65688 1.04889 -1.69551e-18)
(4.67711 1.62482 8.19957e-20)
(6.42882 0.837379 7.27103e-19)
(5.49893 1.35126 -1.9875e-19)
(6.99157 0.676341 -2.9051e-19)
(6.25492 1.11179 2.88303e-19)
(7.24988 0.557296 -1.49824e-18)
(6.79097 0.91968 -1.74813e-19)
(7.19933 0.461868 -5.81333e-20)
(7.05046 0.772131 0)
(6.97297 0.372328 -2.26181e-20)
(7.00233 0.640084 -4.45788e-19)
(6.72318 0.289439 3.81969e-20)
(6.80636 0.511395 3.56074e-19)
(6.50715 0.21338 0)
(6.58371 0.392434 1.73608e-19)
(6.35352 0.152917 1.44756e-19)
(6.40525 0.289876 -6.38031e-22)
(6.24972 0.109801 5.6168e-19)
(6.29203 0.204815 -1.26619e-20)
(6.20286 0.1509 -3.25049e-19)
(6.17575 0.0732875 -1.30903e-19)
(5.48879 0.458061 -7.62292e-20)
(5.52986 0.473479 2.16528e-19)
(5.54238 0.407411 -6.81752e-20)
(5.42362 0.506451 -2.14703e-19)
(5.46343 0.528981 -1.56246e-19)
(5.34707 0.549911 9.07439e-20)
(5.39102 0.58145 2.10851e-19)
(5.258 0.589001 0)
(5.30504 0.625939 -9.12424e-20)
(5.15398 0.624868 4.46613e-20)
(5.20348 0.666233 9.90368e-20)
(5.03295 0.656447 2.74356e-20)
(5.08421 0.704795 4.3236e-20)
(4.89626 0.681224 -4.66429e-20)
(4.94768 0.73874 -7.95262e-20)
(4.74833 0.697715 3.96411e-20)
(4.79842 0.764717 -6.98209e-20)
(4.59364 0.707255 -7.3817e-20)
(4.64255 0.782759 -1.62583e-20)
(4.43435 0.71388 1.00638e-19)
(4.48391 0.79646 -5.47982e-20)
(4.26973 0.723282 1.5008e-19)
(4.32262 0.811336 1.44426e-19)
(4.09698 0.742925 1.23507e-20)
(4.15679 0.833374 1.77283e-20)
(3.91084 0.783341 -2.33818e-19)
(3.9832 0.869822 1.62322e-20)
(3.70057 0.854832 -1.19396e-19)
(3.79513 0.931083 -1.09276e-19)
(3.45595 0.968458 0)
(3.58302 1.02927 0)
(3.174 1.13603 -3.10494e-20)
(3.34122 1.17492 2.55015e-21)
(2.85925 1.36302 -7.1696e-20)
(3.0643 1.3704 -3.322e-20)
(2.52628 1.6408 3.55795e-20)
(2.75779 1.61319 3.40288e-20)
(2.20025 1.94513 -1.64899e-19)
(2.4388 1.894 -4.55884e-20)
(1.90856 2.2454 -2.63395e-19)
(2.1297 2.19064 -9.53803e-19)
(1.67171 2.51745 -5.39898e-19)
(1.85049 2.47896 -3.32219e-20)
(1.50248 2.74603 -1.20643e-18)
(1.62565 2.74383 -1.67454e-18)
(1.41783 2.91961 -3.42266e-19)
(1.479 2.9764 -1.54582e-18)
(1.41656 3.03034 1.51951e-18)
(1.41773 3.15814 -8.57984e-19)
(1.49794 3.07078 -1.2257e-18)
(1.40976 3.27102 2.09174e-18)
(1.68264 3.04636 -3.49093e-18)
(1.48159 3.32109 -1.08082e-18)
(1.98602 2.93403 1.5712e-18)
(1.6275 3.28689 -3.1731e-20)
(2.42041 2.73825 2.61006e-18)
(1.8862 3.15538 1.63119e-18)
(2.99491 2.48808 -3.66301e-18)
(2.30393 2.94083 1.60338e-20)
(3.70037 2.19893 -3.19412e-18)
(2.87107 2.66965 -3.25855e-18)
(4.50108 1.89639 1.26472e-18)
(3.57504 2.36778 2.62872e-18)
(5.3375 1.60385 -1.18082e-18)
(4.3833 2.05655 7.97745e-19)
(6.1098 1.3428 3.36516e-19)
(5.22581 1.76139 -2.4172e-18)
(6.67373 1.13426 1.28263e-18)
(5.98379 1.50575 1.14608e-18)
(6.93075 0.953103 6.06783e-20)
(6.51948 1.28931 6.54149e-19)
(6.88962 0.787779 8.04994e-20)
(6.74005 1.08794 6.07595e-20)
(6.69869 0.623195 1.8822e-19)
(6.68859 0.886606 1.29403e-20)
(6.49857 0.474873 4.60343e-19)
(6.51813 0.69182 1.70172e-19)
(6.34483 0.355733 7.32138e-19)
(6.35649 0.522853 1.15413e-19)
(6.24187 0.26512 -3.82237e-19)
(6.24953 0.382154 -2.44556e-19)
(6.16885 0.291371 -2.2382e-19)
(6.16727 0.194983 2.60179e-18)
(5.5093 0.553725 1.18208e-19)
(5.56094 0.573617 9.26493e-20)
(5.57242 0.495345 7.34521e-19)
(5.4327 0.609481 3.40841e-20)
(5.48302 0.637788 -8.92981e-20)
(5.34393 0.659466 1.89872e-20)
(5.3981 0.698746 -1.60016e-20)
(5.24224 0.705623 3.43856e-20)
(5.30013 0.751101 2.58091e-20)
(5.12413 0.749953 9.5621e-20)
(5.18536 0.799889 7.432e-20)
(4.98796 0.791097 -3.37656e-20)
(5.05085 0.848256 -1.11374e-19)
(4.83746 0.825878 -3.58946e-20)
(4.89937 0.892745 6.85637e-20)
(4.6796 0.852993 -2.90487e-20)
(4.73885 0.929568 -4.88835e-20)
(4.51998 0.874783 3.88963e-20)
(4.57712 0.959473 2.59336e-20)
(4.3607 0.896514 2.31639e-20)
(4.41796 0.987178 5.62972e-20)
(4.20101 0.92481 5.79561e-22)
(4.26096 1.0186 1.75102e-20)
(4.03789 0.966632 -9.80105e-21)
(4.10361 1.05959 6.57539e-21)
(3.86557 1.02906 1.31918e-20)
(3.94231 1.11731 -3.27181e-20)
(3.67709 1.11905 2.19471e-20)
(3.77138 1.19974 2.24621e-20)
(3.46813 1.24551 2.58783e-21)
(3.5874 1.314 0)
(3.23638 1.41389 -2.06206e-20)
(3.3852 1.46563 -4.40674e-20)
(2.9828 1.62713 7.27417e-20)
(3.16037 1.65534 -2.57832e-21)
(2.71276 1.88077 -4.05684e-20)
(2.91297 1.87937 -4.73819e-20)
(2.43672 2.16333 5.56469e-20)
(2.65128 2.13278 -3.10499e-19)
(2.16727 2.45909 1.81884e-19)
(2.38615 2.40493 -1.66509e-20)
(1.91754 2.75126 1.14588e-19)
(2.12785 2.68106 -3.24228e-20)
(1.7002 3.01817 9.68857e-19)
(1.88909 2.94711 -3.61778e-19)
(1.52707 3.24011 -6.7797e-19)
(1.69291 3.19159 1.42717e-18)
(1.40891 3.39976 -8.14168e-19)
(1.54764 3.39185 -2.37132e-18)
(1.36933 3.50448 1.69274e-18)
(1.44387 3.53273 -1.11241e-18)
(1.39989 3.53395 9.89043e-19)
(1.38316 3.61313 1.28472e-18)
(1.50712 3.45938 7.09517e-19)
(1.35271 3.59428 7.77788e-20)
(1.73714 3.31281 4.144e-19)
(1.44065 3.4983 -7.08437e-19)
(2.12661 3.08486 -1.63545e-19)
(1.64974 3.31138 1.50097e-18)
(2.68394 2.79977 1.93579e-21)
(2.02708 3.05891 -1.45661e-18)
(3.39399 2.48917 8.18458e-19)
(2.58438 2.76818 2.81618e-19)
(4.21486 2.1817 -3.95597e-19)
(3.30515 2.46271 -5.21162e-19)
(5.06563 1.89626 -6.82034e-19)
(4.13772 2.16919 2.4816e-19)
(5.81978 1.64091 9.84546e-19)
(4.9903 1.90802 -1.23596e-18)
(6.33763 1.40777 6.5484e-19)
(5.72507 1.67699 5.2564e-19)
(6.54849 1.18394 -5.92567e-20)
(6.19902 1.45107 1.52988e-19)
(6.51212 0.964049 -6.11038e-20)
(6.36421 1.21117 -7.94898e-20)
(6.37346 0.757473 8.49923e-20)
(6.31439 0.967525 2.88104e-20)
(6.24387 0.581857 1.94175e-18)
(6.20289 0.749703 5.43122e-20)
(6.15513 0.440983 -8.17785e-20)
(6.11961 0.563606 -7.65353e-20)
(6.05704 0.431651 0)
(6.09682 0.328218 0)
(5.54068 0.668434 -1.19718e-19)
(5.60633 0.69049 4.70848e-19)
(5.61419 0.598301 -1.1953e-19)
(5.45119 0.734243 -1.2255e-19)
(5.51458 0.766655 -3.01151e-19)
(5.3499 0.792521 6.1353e-21)
(5.41683 0.838583 -1.18877e-19)
(5.23603 0.847289 5.24007e-20)
(5.30793 0.900706 1.75498e-19)
(5.10409 0.901666 -1.28799e-19)
(5.18023 0.959994 -1.97219e-19)
(4.95341 0.953802 -7.30239e-20)
(5.03074 1.01992 -6.90002e-20)
(4.79123 1.00006 -1.43842e-20)
(4.86633 1.07644 7.57245e-21)
(4.62708 1.03963 -8.02273e-20)
(4.69836 1.1258 -1.74659e-19)
(4.46692 1.07596 -7.638e-20)
(4.53538 1.16941 1.40085e-19)
(4.31175 1.11476 1.39415e-19)
(4.37972 1.21264 -5.83231e-20)
(4.15961 1.16208 -1.61131e-19)
(4.22954 1.26136 -3.04461e-20)
(4.00679 1.22375 -2.8773e-19)
(4.08169 1.32164 -3.08797e-20)
(3.84859 1.30459 -2.20923e-20)
(3.93191 1.39969 1.08163e-20)
(3.68209 1.41047 0)
(3.77819 1.49995 0)
(3.5043 1.54575 -4.73836e-20)
(3.61771 1.62599 -5.94854e-20)
(3.31248 1.71335 -4.59447e-20)
(3.44648 1.78069 5.83774e-20)
(3.10523 1.91422 -1.22078e-19)
(3.26042 1.96429 0)
(2.884 2.14469 -2.91746e-19)
(3.05651 2.17217 -2.06872e-19)
(2.65395 2.39651 -3.96043e-19)
(2.83859 2.39918 -2.61601e-19)
(2.4213 2.65925 -2.26734e-19)
(2.61264 2.63822 -6.90372e-19)
(2.19233 2.92161 -5.06667e-19)
(2.38416 2.87835 0)
(1.97369 3.16995 -9.47562e-21)
(2.15885 3.10843 -1.26567e-18)
(1.77213 3.38056 7.41324e-19)
(1.94435 3.31539 3.09517e-19)
(1.59492 3.53435 -1.53659e-18)
(1.75067 3.47971 -9.95932e-19)
(1.44833 3.63276 -1.29765e-18)
(1.58812 3.59781 -1.21255e-18)
(1.33644 3.64911 4.06198e-19)
(1.43354 3.63795 1.23352e-18)
(1.29059 3.60074 -6.12793e-19)
(1.30177 3.60221 -7.88072e-19)
(1.351 3.47437 3.37245e-19)
(1.23776 3.50055 -9.1556e-19)
(1.54023 3.27117 -1.80215e-19)
(1.26519 3.32458 1.47547e-18)
(1.90672 3.00882 -1.18575e-18)
(1.44699 3.08412 -1.32098e-18)
(2.46429 2.71821 -1.91549e-19)
(1.82872 2.8075 -2.24221e-19)
(3.18784 2.4299 2.60862e-20)
(2.41713 2.52236 3.21748e-19)
(4.01997 2.16391 -2.10664e-19)
(3.1721 2.25601 6.226e-19)
(4.86139 1.92727 -4.44211e-19)
(4.02163 2.02785 -8.07317e-19)
(5.56513 1.70929 -4.4104e-19)
(4.85242 1.8302 -2.30869e-19)
(5.99708 1.48837 1.8413e-18)
(5.51307 1.62889 4.7807e-19)
(6.13885 1.24884 7.70432e-21)
(5.87944 1.4024 -4.00724e-19)
(6.10722 0.998301 -2.51757e-18)
(5.96339 1.15059 2.03862e-19)
(6.04022 0.769738 1.64486e-18)
(5.92157 0.904593 -2.97636e-20)
(5.99148 0.588099 3.28131e-21)
(5.89353 0.694164 1.01395e-19)
(5.87425 0.53813 -6.08065e-20)
(5.96017 0.446305 0)
(5.58814 0.80165 1.02654e-18)
(5.67201 0.822593 -1.8926e-19)
(5.67491 0.714938 9.83032e-19)
(5.48391 0.880193 -2.91732e-19)
(5.56351 0.914817 1.04614e-19)
(5.37087 0.949133 6.01119e-20)
(5.45489 1.0006 1.33966e-19)
(5.24559 1.01482 -1.70832e-19)
(5.3367 1.07542 1.83171e-20)
(5.10041 1.08149 -1.21712e-19)
(5.19672 1.14789 -3.07978e-19)
(4.93701 1.14678 7.64303e-20)
(5.03371 1.22163 1.40604e-19)
(4.76656 1.20668 -7.07029e-20)
(4.85975 1.29233 -2.26706e-19)
(4.60025 1.2609 -1.62972e-20)
(4.68873 1.35666 8.87318e-20)
(4.44301 1.31339 2.53041e-19)
(4.52811 1.41651 1.05338e-19)
(4.29414 1.36976 6.77984e-20)
(4.37786 1.47703 -1.42132e-19)
(4.15023 1.43567 -7.82062e-20)
(4.23489 1.5442 -4.00468e-20)
(4.00706 1.51544 -2.95417e-19)
(4.09483 1.62391 1.93083e-19)
(3.8622 1.61336 2.86129e-20)
(3.95546 1.72027 -7.9148e-20)
(3.71386 1.73228 -6.09475e-20)
(3.8148 1.83495 -1.85039e-19)
(3.5596 1.87426 -5.30153e-20)
(3.6706 1.97 2.07645e-19)
(3.39639 2.04011 1.08858e-19)
(3.51953 2.12598 2.70698e-19)
(3.22157 2.22894 1.2887e-19)
(3.35781 2.30215 -1.65373e-19)
(3.034 2.43788 4.27566e-19)
(3.18211 2.49377 1.27079e-19)
(2.83518 2.65951 4.44028e-19)
(2.99214 2.69499 2.96987e-19)
(2.6283 2.88437 1.23314e-19)
(2.79138 2.89894 -2.79886e-19)
(2.4163 3.10156 1.56501e-19)