/*--------------------------------*- C++ -*----------------------------------*\
  =========                 |
  \\      /  F ield         | OpenFOAM: The Open Source CFD Toolbox
   \\    /   O peration     | Website:  https://openfoam.org
    \\  /    A nd           | Version:  6
     \\/     M anipulation  |
\*---------------------------------------------------------------------------*/
FoamFile
{
    version     2.0;
    format      ascii;
    class       surfaceScalarField;
    location    "4.28";
    object      phi;
}
// * * * * * * * * * * * * * * * * * * * * * * * * * * * * * * * * * * * * * //

dimensions      [0 3 -1 0 0 0 0];

internalField   nonuniform List<scalar> 
8193
(
0.0781187
-0.18312
-0.0829817
0.0662274
-0.194218
0.0529285
-0.1977
0.0405374
-0.199638
0.0297425
-0.201654
0.0207298
-0.203674
0.0135313
-0.205356
0.00814332
-0.206437
0.00450624
-0.206707
0.00248493
-0.205967
0.00187173
-0.204007
0.00239906
-0.200605
0.00374764
-0.195545
0.00554012
-0.18867
0.00736131
-0.179986
0.00892518
-0.169754
0.0105656
-0.158157
0.0132679
-0.14408
0.0165903
-0.125187
0.0174319
-0.102246
0.013926
-0.0808588
0.00911816
-0.0662295
0.00689069
-0.0616679
0.0076118
-0.0649059
0.010968
-0.0789871
0.0154326
-0.10467
0.0200474
-0.140167
0.0239179
-0.179597
0.02617
-0.215699
0.0263075
-0.240428
0.0237558
-0.250387
0.0185763
-0.246392
0.0113225
-0.235849
0.00236822
-0.225906
-0.00831735
-0.218806
-0.020792
-0.213597
-0.0351937
-0.209678
-0.0516983
-0.206976
-0.0698091
-0.205521
-0.0872109
-0.204409
-0.197532
-0.0992284
0.0747696
-0.178341
-0.083681
0.0600168
-0.185426
0.0457429
-0.191001
0.0332465
-0.196093
0.0227721
-0.20126
0.0143796
-0.206229
0.00805708
-0.210587
0.00379351
-0.214071
0.00153467
-0.216436
0.00114185
-0.217409
0.00237799
-0.216693
0.00492254
-0.214001
0.00841189
-0.209094
0.0124522
-0.201802
0.0165589
-0.192065
0.020103
-0.180021
0.0226447
-0.166065
0.0251017
-0.150463
0.0295347
-0.132047
0.0353234
-0.108926
0.0384271
-0.0833066
0.0364148
-0.0620251
0.0324339
-0.0539938
0.0290925
-0.0564293
0.0276018
-0.071002
0.0278736
-0.0971945
0.028783
-0.132208
0.0297185
-0.170694
0.0300688
-0.205419
0.0293207
-0.228454
0.0267306
-0.236192
0.0221416
-0.230054
0.0160214
-0.218086
0.00859726
-0.207203
-0.000290625
-0.199272
-0.0107923
-0.19335
-0.0231164
-0.188775
-0.0376013
-0.185334
-0.0545919
-0.183035
-0.0738412
-0.181543
-0.179478
-0.0903456
0.0638573
-0.170142
-0.0779258
0.049168
-0.178137
0.0357114
-0.186263
0.0241933
-0.194386
0.0146614
-0.202396
0.00714118
-0.209995
0.00172898
-0.21684
-0.00152865
-0.222623
-0.0026602
-0.227031
-0.00178324
-0.229714
0.000863462
-0.230269
0.00491711
-0.228298
0.00993804
-0.223505
0.0154767
-0.21573
0.0210683
-0.204915
0.0261813
-0.191153
0.030248
-0.174825
0.0330785
-0.156595
0.0360137
-0.136845
0.0410285
-0.114341
0.0468297
-0.0880416
0.049149
-0.0618296
0.0469578
-0.0478778
0.0430008
-0.0471974
0.0389599
-0.0604175
0.0361216
-0.0866469
0.0342957
-0.121631
0.0330486
-0.1598
0.0318662
-0.193859
0.0303424
-0.216007
0.0277573
-0.222342
0.0237679
-0.214677
0.0187041
-0.201745
0.0126532
-0.190229
0.00542805
-0.181727
-0.00315694
-0.1753
-0.0133519
-0.170218
-0.0254096
-0.166256
-0.0397385
-0.163252
-0.0566929
-0.160905
-0.159094
-0.075339
0.0523516
-0.162922
-0.0669215
0.0385862
-0.172946
0.0262291
-0.183505
0.0156601
-0.194232
0.00702879
-0.204782
0.000458908
-0.214829
-0.00393432
-0.224024
-0.00609256
-0.232009
-0.00603241
-0.238403
-0.00386043
-0.24278
0.00020867
-0.244639
0.00583224
-0.243472
0.012557
-0.238886
0.019863
-0.230674
0.0271663
-0.218732
0.0338224
-0.203109
0.0391792
-0.184198
0.0427677
-0.162864
0.0449664
-0.140355
0.0479088
-0.117212
0.0532244
-0.0919061
0.0585301
-0.0643272
0.0593148
-0.0445386
0.0562572
-0.0387602
0.0509461
-0.0485506
0.0455136
-0.073581
0.0409431
-0.108467
0.0372493
-0.14669
0.0342505
-0.180777
0.031668
-0.202848
0.0287073
-0.208502
0.0250421
-0.200035
0.0207252
-0.18657
0.0157426
-0.174734
0.00989174
-0.165942
0.00296612
-0.159251
-0.00528714
-0.153883
-0.0152042
-0.14952
-0.027106
-0.146003
-0.0411766
-0.143147
-0.140783
-0.057624
0.0407337
-0.157487
-0.054696
0.028011
-0.169676
0.0168133
-0.182504
0.00735669
-0.19553
-0.000183092
-0.208364
-0.00566243
-0.220651
-0.0089661
-0.232017
-0.0100268
-0.242059
-0.00884155
-0.250345
-0.00548961
-0.256373
-0.000150244
-0.259557
0.00691302
-0.259318
0.0153015
-0.255144
0.0244609
-0.246686
0.0336456
-0.233664
0.0419874
-0.216023
0.0485806
-0.194132
0.0527992
-0.169153
0.0547108
-0.143045
0.0557213
-0.117702
0.0585661
-0.0929419
0.0640127
-0.0667023
0.0675626
-0.0437975
0.0666892
-0.0324362
0.061807
-0.0371349
0.0547441
-0.0589959
0.0477156
-0.0930397
0.0416327
-0.131461
0.0367605
-0.166157
0.0329655
-0.188865
0.0294717
-0.194558
0.0259263
-0.185968
0.0221016
-0.172354
0.0179178
-0.160499
0.0131624
-0.151691
0.00760969
-0.144975
0.00102235
-0.139556
-0.00689598
-0.135051
-0.0164784
-0.13125
-0.0280167
-0.127991
-0.125011
-0.0418723
0.0294498
-0.154098
-0.0422092
0.0180346
-0.168276
0.00814323
-0.183115
-5.3845e-05
-0.19816
-0.00639357
-0.213014
-0.0107328
-0.227302
-0.0129594
-0.240623
-0.0129987
-0.252544
-0.0108255
-0.26259
-0.00647399
-0.27021
-3.0911e-05
-0.274778
0.00837599
-0.275683
0.0184611
-0.272271
0.029624
-0.263889
0.0408647
-0.249874
0.0509958
-0.229996
0.0588713
-0.204681
0.063622
-0.175381
0.065279
-0.144969
0.0648631
-0.116343
0.0647186
-0.0906592
0.0678369
-0.0665166
0.0722645
-0.0437988
0.0737909
-0.028473
0.0707465
-0.0276118
0.0633506
-0.0442219
0.0545403
-0.0760573
0.046331
-0.114407
0.0396255
-0.15007
0.0345216
-0.173996
0.0304042
-0.180455
0.0267419
-0.172278
0.0231858
-0.158915
0.0195542
-0.147324
0.0156107
-0.138742
0.01112
-0.132216
0.00585813
-0.126959
-0.000443798
-0.122534
-0.00806436
-0.118708
-0.017288
-0.115296
-0.11197
-0.0284428
0.0191987
-0.152708
-0.0304508
0.00928158
-0.168613
0.00083074
-0.185179
-0.00601239
-0.201957
-0.0111054
-0.218549
-0.014321
-0.234568
-0.01556
-0.249588
-0.0147412
-0.263163
-0.0118114
-0.274797
-0.0067246
-0.283941
0.000598287
-0.290011
0.0102587
-0.29243
0.0220124
-0.290208
0.035149
-0.282239
0.0483981
-0.267312
0.0602946
-0.245014
0.0693573
-0.215766
0.0746817
-0.181609
0.0760825
-0.14615
0.0746079
-0.113531
0.0720396
-0.0856536
0.0717159
-0.0626868
0.0748352
-0.0423876
0.0776481
-0.0257882
0.0768949
-0.0204649
0.0707342
-0.0308567
0.0610988
-0.0585056
0.0512521
-0.096046
0.0428861
-0.13272
0.0364873
-0.158284
0.0316247
-0.166104
0.0276937
-0.158847
0.0242393
-0.146123
0.0209535
-0.135044
0.0175685
-0.126887
0.0138471
-0.120733
0.00957398
-0.115812
0.00452311
-0.111667
-0.00153932
-0.108045
-0.00886856
-0.104723
-0.101347
-0.0177221
0.0108313
-0.153164
-0.0203688
0.00254848
-0.170502
-0.00438473
-0.188488
-0.00985841
-0.206687
-0.0137582
-0.224703
-0.0159724
-0.242147
-0.0164087
-0.258577
-0.0149814
-0.273546
-0.0116049
-0.286562
-0.00610186
-0.297176
0.00183562
-0.304942
0.012557
-0.309334
0.025761
-0.308721
0.0404586
-0.30132
0.0551845
-0.285452
0.068414
-0.260656
0.0785426
-0.227285
0.0844724
-0.187896
0.085871
-0.146871
0.0837409
-0.109698
0.0796073
-0.0788142
0.076309
-0.0557115
0.076644
-0.038118
0.0793642
-0.0230317
0.0804373
-0.0152571
0.0761246
-0.0195395
0.0669961
-0.0417425
0.0562158
-0.0771073
0.0465308
-0.114472
0.0389584
-0.141875
0.0333051
-0.151484
0.0290031
-0.145601
0.0255187
-0.133878
0.0224111
-0.123524
0.0193751
-0.115957
0.0161636
-0.110313
0.012565
-0.105854
0.00841082
-0.102158
0.00349098
-0.0989159
-0.00240379
-0.0958899
-0.0927311
-0.00945689
0.0053136
-0.155198
-0.0130528
-0.00131166
-0.173657
-0.00676634
-0.192737
-0.01097
-0.212022
-0.0138352
-0.231123
-0.0152779
-0.24965
-0.0152025
-0.267171
-0.0135088
-0.283249
-0.0100541
-0.297439
-0.00447296
-0.309521
0.00374919
-0.319204
0.0151091
-0.325953
0.0290393
-0.32708
0.0444032
-0.320241
0.0595679
-0.30327
0.0733078
-0.276122
0.0839899
-0.238752
0.0905189
-0.194263
0.0922083
-0.147455
0.0902019
-0.105657
0.0856732
-0.0713431
0.0806787
-0.0468996
0.0783193
-0.031109
0.0795279
-0.018812
0.0815304
-0.0111169
0.079399
-0.0106273
0.0717651
-0.0267772
0.0609667
-0.0585267
0.0504484
-0.0958319
0.0419481
-0.125036
0.0355486
-0.136662
0.0308222
-0.132509
0.0272179
-0.122114
0.0241758
-0.112682
0.02133
-0.105826
0.0184288
-0.100796
0.0152649
-0.0968916
0.011681
-0.0937334
0.00752278
-0.0910032
0.00260937
-0.088419
-0.0856605
-0.00319122
0.00359268
-0.158413
-0.00959986
-0.00150923
-0.177658
-0.00567298
-0.197492
-0.00884006
-0.217524
-0.0109419
-0.237372
-0.0119186
-0.256635
-0.0116887
-0.274907
-0.0101407
-0.291781
-0.00701152
-0.306969
-0.00174966
-0.320543
0.00627825
-0.3323
0.0175401
-0.341546
0.0309519
-0.344046
0.0454914
-0.337527
0.0598885
-0.319582
0.0731089
-0.29041
0.0836048
-0.249458
0.0909044
-0.200915
0.0935364
-0.148589
0.0922909
-0.102077
0.0884737
-0.0643788
0.0833518
-0.0378504
0.0794837
-0.0225745
0.0788525
-0.0128264
0.0806161
-0.00689914
0.0802812
-0.00375571
0.0746997
-0.0141859
0.0650857
-0.0415232
0.0545618
-0.0776426
0.0454074
-0.108055
0.0383814
-0.121771
0.0332576
-0.119614
0.0294388
-0.110755
0.0263853
-0.102462
0.0236636
-0.0964541
0.0209424
-0.0920819
0.0180397
-0.0887901
0.0147928
-0.0862087
0.0110725
-0.0840409
0.00675199
-0.0819903
-0.0797518
0.00173922
0.00645973
-0.162242
-0.0109987
0.0025729
-0.18194
-0.000639591
-0.202203
-0.0031316
-0.222657
-0.00484642
-0.242931
-0.00574306
-0.262608
-0.0057399
-0.281321
-0.00474305
-0.298679
-0.00234498
-0.314709
0.00212386
-0.329748
0.00922698
-0.343494
0.0192602
-0.354988
0.0307226
-0.358206
0.0429999
-0.351765
0.0553418
-0.333131
0.0669452
-0.302455
0.0763561
-0.25854
0.0842231
-0.207685
0.0895461
-0.152055
0.0902037
-0.100135
0.0872927
-0.0581486
0.0830058
-0.0295559
0.0790074
-0.0139197
0.0772721
-0.0058345
0.0785216
-0.00234924
0.0792036
0.00183729
0.075812
-0.00412101
0.0681551
-0.0268819
0.0585235
-0.0608127
0.049308
-0.0915337
0.0418241
-0.106989
0.0363159
-0.106938
0.0322561
-0.0997861
0.0291418
-0.0928282
0.0264681
-0.087783
0.0238961
-0.0841647
0.0211484
-0.0814737
0.0180919
-0.0794756
0.014599
-0.0778665
0.0105696
-0.0763615
-0.074717
0.0059844
0.0144227
-0.165961
-0.0179554
0.0112843
-0.18582
0.00855968
-0.206226
0.00628723
-0.226824
0.0045131
-0.247246
0.00325048
-0.267041
0.00261511
-0.285946
0.00267566
-0.303521
0.00401202
-0.320309
0.00713707
-0.336583
0.0124099
-0.351889
0.0199158
-0.365
0.0281431
-0.368299
0.0375286
-0.362358
0.0464991
-0.342636
0.0553731
-0.311183
0.0626041
-0.264942
0.0690361
-0.212609
0.075693
-0.156535
0.0800701
-0.101683
0.080693
-0.0553124
0.0786396
-0.0234438
0.0757626
-0.00642193
0.0743064
0.000758863
0.0753685
0.00218801
0.0767478
0.00645661
0.0751515
0.00380069
0.0698688
-0.0150285
0.0618448
-0.0460637
0.0532795
-0.0761888
0.0457093
-0.0926919
0.0398452
-0.0945147
0.0356106
-0.0892783
0.0324478
-0.0838008
0.0298108
-0.0798125
0.0273227
-0.076994
0.0247234
-0.0749572
0.021793
-0.0734987
0.0184265
-0.072417
0.0145406
-0.0714335
-0.0703316
0.0100978
0.0275907
-0.168741
-0.0307331
0.0246205
-0.188544
0.0218437
-0.208886
0.0192835
-0.229412
0.0169792
-0.249768
0.0149019
-0.269432
0.0132327
-0.288353
0.0119855
-0.305923
0.0119343
-0.323446
0.0131811
-0.340527
0.0158855
-0.356771
0.0199453
-0.370694
0.0241652
-0.37359
0.0300684
-0.368754
0.034419
-0.34689
0.0396543
-0.315727
0.044028
-0.268029
0.0489416
-0.215645
0.0557282
-0.160863
0.0625
-0.10543
0.0675215
-0.056767
0.0691438
-0.0209844
0.0689581
-0.00167504
0.0691653
0.00554933
0.0705585
0.00617843
0.0725101
0.0102154
0.0727452
0.00953501
0.0699832
-0.00611445
0.0641624
-0.0339935
0.0567657
-0.0625386
0.0495061
-0.0792754
0.0435851
-0.0826402
0.0393216
-0.0793762
0.0361765
-0.0754458
0.0336054
-0.0725742
0.0312156
-0.0705908
0.0287262
-0.0692138
0.0259374
-0.0683116
0.0226872
-0.0677086
0.0189058
-0.0672031
-0.0665796
0.0145421
0.0456132
-0.169743
-0.0490439
0.0421913
-0.189365
0.0388091
-0.209534
0.035443
-0.229836
0.0321497
-0.249994
0.0288293
-0.26933
0.0257984
-0.288208
0.0229136
-0.305561
0.0212047
-0.323868
0.020043
-0.341077
0.0197311
-0.357727
0.0202825
-0.372049
0.0197743
-0.373403
0.021145
-0.36995
0.0200434
-0.345109
0.0214437
-0.315938
0.0223958
-0.267281
0.0256019
-0.216646
0.0316461
-0.164206
0.0396751
-0.110277
0.0482136
-0.0616621
0.0542404
-0.0229335
0.0580366
-0.000992273
0.0610231
0.00740326
0.0635831
0.00877279
0.06636
0.0128515
0.0684845
0.0130189
0.0683944
-0.000292347
0.0651549
-0.0249783
0.0593779
-0.0510299
0.0528454
-0.0671495
0.0472495
-0.0716897
0.0431231
-0.0702382
0.040086
-0.0678469
0.0376381
-0.0661206
0.0353701
-0.0649766
0.0330071
-0.0642618
0.030336
-0.0638977
0.0272089
-0.0637622
0.0235139
-0.0636747
-0.0634295
0.019166
0.0677267
-0.168238
-0.0720699
0.0632732
-0.18763
0.0587946
-0.207629
0.0541315
-0.227574
0.0494577
-0.247521
0.044507
-0.266351
0.0398641
-0.285278
0.0350199
-0.302143
0.0314006
-0.32136
0.0274081
-0.337855
0.0240957
-0.354821
0.0201943
-0.368171
0.0149191
-0.367751
0.0111297
-0.365371
0.00479923
-0.337567
0.00199961
-0.3115
-0.000940803
-0.262275
0.00077126
-0.215868
0.00522924
-0.16576
0.0133199
-0.115061
0.0242598
-0.0689128
0.0344862
-0.0291121
0.0427373
-0.00486746
0.0492459
0.00556175
0.0538013
0.0091315
0.0580206
0.0137416
0.0623156
0.0139691
0.0651223
0.00221487
0.0646283
-0.019177
0.0607702
-0.0419534
0.0552892
-0.0566279
0.0503745
-0.0620067
0.046605
-0.0620708
0.0437876
-0.0611021
0.0415413
-0.0605172
0.0394155
-0.0601607
0.0372105
-0.0601249
0.0346361
-0.0602323
0.0315971
-0.0605441
0.0278749
-0.0607426
-0.0607877
0.0234335
0.0928649
-0.163712
-0.0985909
0.0868905
-0.182823
0.0809208
-0.202767
0.0745529
-0.222226
0.0682083
-0.24208
0.0613768
-0.260277
0.0549161
-0.279398
0.0478257
-0.295428
0.0420125
-0.315689
0.0348241
-0.33055
0.0283129
-0.347913
0.0198176
-0.358977
0.0103925
-0.35731
0.00116615
-0.354797
-0.00971363
-0.324998
-0.0177256
-0.301453
-0.02413
-0.253487
-0.0244319
-0.212838
-0.0218176
-0.165306
-0.0133693
-0.120115
-0.00114367
-0.0774333
0.0125642
-0.0388265
0.0251721
-0.0132216
0.0342862
0.000927442
0.0409912
0.00709135
0.0473635
0.012171
0.0543347
0.0118806
0.0602779
0.00117227
0.062444
-0.0164953
0.0608731
-0.0356652
0.0562444
-0.0474964
0.0523537
-0.0539167
0.048983
-0.0548969
0.0467007
-0.0555071
0.0446381
-0.0557265
0.0427687
-0.0562386
0.0406763
-0.0567407
0.0381965
-0.0572988
0.0351781
-0.057976
0.0313643
-0.0583359
-0.0586284
0.0268043
0.119612
-0.127055
0.111747
0.103979
0.0956718
0.0874735
0.0786465
0.0701807
0.0608399
0.0524081
0.0423515
0.0323823
0.0204808
0.00684852
-0.00739764
-0.0235716
-0.0363986
-0.0461235
-0.0481476
-0.0462658
-0.0378135
-0.0241242
-0.00860052
0.0069979
0.0187436
0.0271697
0.0363046
0.0459749
0.0547962
0.0578565
0.0587954
0.0548145
0.0525397
0.0497808
0.0482269
0.0464565
0.0447193
0.0427981
0.040103
0.0372178
0.0329123
0.0282699
0.0609431
0.0209855
0.0638117
0.020708
0.0661672
0.0184281
0.0680459
0.0151896
0.0694542
0.01155
0.070563
0.00786939
0.0714959
0.00433655
0.0721053
0.000752689
0.0721239
-0.00332183
0.0711311
-0.00838632
0.0685599
-0.0149591
0.0638381
-0.0234889
0.0564042
-0.0342349
0.0460325
-0.0471391
0.0327031
-0.0620392
0.018283
-0.0761396
-0.0813729
0.0596685
0.0141687
0.0619924
0.0145062
0.0638752
0.0131529
0.0652568
0.0108819
0.0661727
0.00814509
0.0667191
0.00523271
0.0670328
0.00228446
0.0670498
-0.000704327
0.0665709
-0.00404293
0.0652604
-0.00809793
0.0626708
-0.0132769
0.0582856
-0.0199591
0.0515935
-0.0284068
0.0421941
-0.0386683
0.0297909
-0.0506793
0.0154453
-0.0629944
-0.0673181
0.0575758
0.00691966
0.0595631
0.00816254
0.0610931
0.00766617
0.0621092
0.00629534
0.0626572
0.00439128
0.0627942
0.00222517
0.0626036
-9.62536e-05
0.0621312
-0.0025459
0.0612131
-0.00522837
0.0596094
-0.00843737
0.0569644
-0.0124669
0.0528562
-0.0176306
0.0468523
-0.0241796
0.0385946
-0.0322339
0.0277465
-0.0417475
0.0145019
-0.0518002
-0.055036
0.0549579
0.000316541
0.0565351
0.00191219
0.0577361
0.00211349
0.0584886
0.00150385
0.0587678
0.000370146
0.0586387
-0.00111218
0.0581316
-0.0028076
0.0572747
-0.00469179
0.056025
-0.00680249
0.0541839
-0.00928123
0.0514859
-0.0123574
0.0475824
-0.0162634
0.0420959
-0.0212211
0.0346774
-0.0273787
0.0250217
-0.0347322
0.0131371
-0.0426716
-0.0448057
0.0515562
-0.00637548
0.052864
-0.00423799
0.0538122
-0.00342574
0.0543439
-0.00337288
0.0544547
-0.0038502
0.0541477
-0.00469492
0.0534498
-0.00579987
0.052367
-0.00712396
0.0508767
-0.0086803
0.0488784
-0.0105359
0.0461649
-0.0128156
0.0424723
-0.0156972
0.0374876
-0.0193546
0.0308859
-0.0239242
0.0223581
-0.0294172
0.0117957
-0.035423
-0.036458
0.047734
-0.0123283
0.0487034
-0.0100888
0.0493915
-0.00880587
0.0497299
-0.00821676
0.0496983
-0.00814387
0.0492972
-0.00844978
0.048524
-0.00902759
0.0473602
-0.00982424
0.0457686
-0.0108373
0.0436916
-0.0121164
0.0410111
-0.0137283
0.0375292
-0.0157731
0.0329968
-0.0183747
0.027138
-0.0216442
0.01968
-0.0255958
0.0103927
-0.0298615
-0.0299106
0.0433026
-0.018123
0.0440224
-0.0156187
0.0445234
-0.0139816
0.044724
-0.012957
0.0445883
-0.0124165
0.0441095
-0.0122548
0.0432918
-0.0123788
0.0421264
-0.0127259
0.0405797
-0.0132715
0.0385784
-0.014028
0.0360274
-0.015043
0.032802
-0.0163889
0.0287264
-0.0181402
0.0235853
-0.0203698
0.0171301
-0.0230596
0.00907584
-0.0258053
-0.0249392
0.038581
-0.0231552
0.0390006
-0.0206877
0.039291
-0.0188319
0.0393742
-0.0175094
0.0391881
-0.01661
0.0386974
-0.0160577
0.037889
-0.0157844
0.0367559
-0.0157358
0.0352757
-0.0158744
0.0334087
-0.0161974
0.0310832
-0.0167228
0.0281936
-0.0174909
0.0246109
-0.0185543
0.020169
-0.0199507
0.014657
-0.021618
0.00766918
-0.0229584
-0.0215046
0.0334767
-0.027841
0.0336795
-0.025311
0.033808
-0.0233295
0.0337801
-0.0217966
0.0335457
-0.0206362
0.0330674
-0.0197868
0.032318
-0.0191923
0.0312845
-0.0188149
0.0299435
-0.0186086
0.0282628
-0.0185636
0.0261945
-0.0186843
0.0236697
-0.0189914
0.0205901
-0.0195101
0.0168292
-0.0202512
0.0121798
-0.0210733
0.00631957
-0.0212645
-0.0194324
0.0282407
-0.0318134
0.0282117
-0.0294255
0.0281724
-0.027413
0.0280431
-0.025766
0.0277699
-0.0244356
0.0273136
-0.0233763
0.0266443
-0.022543
0.0257376
-0.0219049
0.0245764
-0.0214249
0.023133
-0.0210843
0.0213742
-0.0208834
0.0192522
-0.0208301
0.0166867
-0.0209184
0.0135849
-0.021148
0.00975013
-0.021275
0.00505746
-0.0206606
-0.0185312
0.0228684
-0.0353195
0.0226386
-0.0330328
0.0224555
-0.0310704
0.0222428
-0.029393
0.0219457
-0.027974
0.0215237
-0.0267834
0.0209487
-0.0257901
0.0201937
-0.0249649
0.0192416
-0.0242823
0.0180711
-0.0237207
0.0166566
-0.0232774
0.0149596
-0.0229484
0.0129215
-0.0227094
0.0104659
-0.0225432
0.00746993
-0.0221607
0.00392143
-0.0210351
-0.0185855
0.0174766
-0.0382758
0.0170953
-0.0361693
0.0167867
-0.0343009
0.0164923
-0.032654
0.0161694
-0.0312184
0.0157821
-0.0299721
0.0153025
-0.0288924
0.0147091
-0.0279577
0.0139815
-0.0271445
0.013103
-0.026436
0.012052
-0.0258256
0.0107963
-0.0252997
0.00930085
-0.0248321
0.00750364
-0.0243801
0.00537172
-0.0236844
0.00286548
-0.0222127
-0.0194398
0.0121106
-0.0406755
0.0115515
-0.0388098
0.0111279
-0.0371107
0.0107833
-0.0355705
0.0104673
-0.0341863
0.0101409
-0.0329476
0.00977497
-0.0318425
0.00934829
-0.0308576
0.00884708
-0.029978
0.00825944
-0.0291893
0.00756919
-0.0284814
0.00675794
-0.0278394
0.00580738
-0.0272381
0.00468489
-0.0266212
0.00338558
-0.0257582
0.00185034
-0.0240632
-0.0209921
0.00660938
-0.0427757
0.00599816
-0.0410928
0.00551656
-0.0395641
0.00513772
-0.0381611
0.00482873
-0.0368752
0.00456241
-0.0357017
0.00431596
-0.0346337
0.00407137
-0.0336632
0.00381587
-0.0327807
0.00353959
-0.0319754
0.00322894
-0.031234
0.0028723
-0.0305443
0.00246323
-0.0298869
0.00200164
-0.0292125
0.00148601
-0.0282898
0.000870145
-0.026489
-0.0231588
0.00115856
-0.0443448
0.000443446
-0.0429871
-8.79092e-05
-0.0416859
-0.000475303
-0.0404635
-0.00074702
-0.0393227
-0.000925329
-0.0382654
-0.00102923
-0.0372879
-0.00107494
-0.0363853
-0.0010745
-0.0355526
-0.00103307
-0.0347864
-0.000956309
-0.0340732
-0.000851162
-0.0333998
-0.000722369
-0.0327496
-0.000556959
-0.0320913
-0.000331784
-0.0312046
-7.64632e-05
-0.0294073
-0.0258691
-0.00455469
-0.0458514
-0.00520926
-0.044684
-0.00569915
-0.0435902
-0.00602996
-0.0425615
-0.00621612
-0.041592
-0.00627176
-0.0406838
-0.00620845
-0.0398361
-0.00603569
-0.0390459
-0.00576397
-0.0383077
-0.00539736
-0.0376243
-0.00493359
-0.0369892
-0.00437492
-0.0363847
-0.00371584
-0.0358022
-0.00295414
-0.0352076
-0.00204125
-0.0344271
-0.000978647
-0.0327289
-0.0290511
-0.0103259
-0.0469919
-0.0109898
-0.0461435
-0.0114332
-0.0453085
-0.011678
-0.0445075
-0.0117429
-0.043738
-0.0116406
-0.0430078
-0.0113796
-0.0423204
-0.0109637
-0.0416776
-0.0103937
-0.041077
-0.00967833
-0.0405135
-0.00881366
-0.0399931
-0.00778723
-0.039507
-0.0065884
-0.0390449
-0.005225
-0.0385544
-0.00364646
-0.0379202
-0.00182625
-0.0363869
-0.0326304
-0.0166705
-0.0481977
-0.0171711
-0.0475698
-0.0174749
-0.0469618
-0.0175763
-0.0463836
-0.0174725
-0.0458292
-0.0171651
-0.0453023
-0.0166578
-0.044804
-0.0159527
-0.0443376
-0.0150481
-0.0439044
-0.0139453
-0.0434966
-0.0126432
-0.0431223
-0.011129
-0.0427845
-0.00939282
-0.0424702
-0.00742262
-0.0421291
-0.00517905
-0.0416734
-0.00263613
-0.0403343
-0.036556
-0.0231053
-0.0491906
-0.0235615
-0.0488743
-0.0237563
-0.0485474
-0.0236987
-0.0482298
-0.0233928
-0.0479205
-0.0228407
-0.0476249
-0.0220441
-0.0473445
-0.0210059
-0.0470812
-0.0197283
-0.0468368
-0.0182031
-0.046614
-0.0164291
-0.0464138
-0.0144055
-0.0462388
-0.0121209
-0.0460867
-0.00954522
-0.0459257
-0.00665154
-0.0456652
-0.00341721
-0.0445321
-0.0407903
-0.0303642
-0.0503746
-0.0305687
-0.0502932
-0.0305242
-0.0502209
-0.0302169
-0.0501593
-0.0296376
-0.0501027
-0.0287806
-0.0500523
-0.027642
-0.0500081
-0.0262186
-0.0499708
-0.0245086
-0.049941
-0.0225116
-0.0499198
-0.0202265
-0.0499092
-0.0176504
-0.049913
-0.0147739
-0.049936
-0.011576
-0.0499576
-0.00807233
-0.0498511
-0.00416107
-0.0489607
-0.0452909
-0.0377448
-0.0514531
-0.0378354
-0.051714
-0.0375982
-0.0519584
-0.0370391
-0.052194
-0.0361574
-0.0524211
-0.0349514
-0.052642
-0.0334194
-0.0528566
-0.0315601
-0.0530649
-0.029373
-0.0532668
-0.0268588
-0.0534624
-0.0240193
-0.0536521
-0.0208577
-0.0538388
-0.0173748
-0.0540298
-0.0135572
-0.0542188
-0.00941186
-0.0542589
-0.00485508
-0.0535852
-0.0500058
-0.0461125
-0.0528649
-0.0458639
-0.0533837
-0.0452952
-0.0539173
-0.0443859
-0.0544475
-0.0431216
-0.0549684
-0.0414946
-0.0554753
-0.0395014
-0.0559643
-0.0371412
-0.0564322
-0.0344162
-0.0568764
-0.0313306
-0.0572949
-0.0278906
-0.0576862
-0.0241055
-0.0580507
-0.0199881
-0.058392
-0.0155424
-0.0587134
-0.0107228
-0.0589175
-0.00552069
-0.0584032
-0.0549065
-0.0546336
-0.0542233
-0.0542272
-0.0551386
-0.0533958
-0.0560429
-0.0521457
-0.0569213
-0.0504754
-0.0577753
-0.048385
-0.0585991
-0.0458765
-0.0593868
-0.0429551
-0.0601321
-0.0396295
-0.0608292
-0.0359114
-0.0614736
-0.0318152
-0.0620613
-0.027358
-0.0625904
-0.022562
-0.0630602
-0.0174496
-0.063474
-0.0119934
-0.0637855
-0.00614409
-0.0634156
-0.0599536
-0.0642379
-0.0560392
-0.0634171
-0.0572482
-0.0621705
-0.0584971
-0.060472
-0.0597287
-0.0583071
-0.060933
-0.0556719
-0.062094
-0.0525698
-0.0631988
-0.0490106
-0.0642351
-0.0450103
-0.0651916
-0.04059
-0.0660589
-0.0357755
-0.0668294
-0.0305959
-0.0674986
-0.025086
-0.0680607
-0.0192824
-0.0685187
-0.0131698
-0.0688788
-0.00672059
-0.0685754
-0.0651062
-0.0739649
-0.057792
-0.0729483
-0.0595027
-0.0713604
-0.0612104
-0.0692161
-0.0628675
-0.0665212
-0.0644736
-0.0632856
-0.0660091
-0.0595238
-0.0674571
-0.0552569
-0.0687996
-0.0505127
-0.0700193
-0.045326
-0.071101
-0.0397374
-0.0720323
-0.0337914
-0.0728062
-0.0275347
-0.0734158
-0.0210168
-0.0738629
-0.0142506
-0.0741915
-0.00725178
-0.0738351
-0.070329
-0.0847577
-0.0601306
-0.0832537
-0.0621978
-0.0811689
-0.0643379
-0.0784703
-0.0664415
-0.0751537
-0.06848
-0.0712314
-0.0704186
-0.0667262
-0.0722305
-0.061671
-0.0738891
-0.056107
-0.0753701
-0.0500842
-0.0766512
-0.0436603
-0.0777137
-0.0368991
-0.0785465
-0.0298676
-0.0791411
-0.0226344
-0.0795
-0.0152396
-0.0796971
-0.00771386
-0.0791784
-0.0755685
-0.0956569
-0.0623229
-0.0939128
-0.065086
-0.0913777
-0.0678277
-0.0880961
-0.0704694
-0.0840938
-0.0730021
-0.0794025
-0.0753868
-0.0740636
-0.0775887
-0.0681297
-0.0795717
-0.061663
-0.0813039
-0.0547347
-0.0827563
-0.0474243
-0.083904
-0.0398182
-0.0847314
-0.0320044
-0.0852313
-0.0240693
-0.0854098
-0.0160836
-0.0853597
-0.00808583
-0.0845615
-0.0807572
-0.107384
-0.0652541
-0.105083
-0.0684803
-0.101969
-0.0717989
-0.098011
-0.0750288
-0.0932295
-0.0781137
-0.0876715
-0.0809882
-0.0814013
-0.0836032
-0.0744971
-0.0859114
-0.0670481
-0.0878727
-0.0591521
-0.0894521
-0.0509142
-0.0906208
-0.0424444
-0.0913611
-0.033855
-0.0916671
-0.0252541
-0.0915521
-0.0167372
-0.091125
-0.00835422
-0.0899151
-0.0858229
-0.1191
-0.0679654
-0.116469
-0.0721451
-0.112762
-0.0762506
-0.108052
-0.0801754
-0.102399
-0.0838817
-0.0958769
-0.0872914
-0.0885786
-0.0903396
-0.0806146
-0.0929655
-0.0721083
-0.0951197
-0.063191
-0.0967629
-0.0539985
-0.0978659
-0.0446684
-0.0984133
-0.0353364
-0.0984047
-0.0261284
-0.0978676
-0.0171644
-0.0969206
-0.0084949
-0.0951662
-0.0906793
-0.131241
-0.0715233
-0.127993
-0.0763562
-0.123592
-0.0812641
-0.118044
-0.0859701
-0.111421
-0.0903746
-0.10383
-0.094367
-0.0954024
-0.0978624
-0.0862906
-0.100785
-0.0766588
-0.103078
-0.0666784
-0.104699
-0.0565211
-0.105624
-0.0463543
-0.105846
-0.0363361
-0.10538
-0.0266104
-0.104271
-0.0173139
-0.10265
-0.00848283
-0.100225
-0.095227
-0.143134
-0.0748504
-0.139421
-0.080944
-0.134264
-0.0868786
-0.127774
-0.092487
-0.12007
-0.0976675
-0.111299
-0.102285
-0.101643
-0.10623
-0.0913012
-0.109412
-0.080488
-0.111765
-0.0694207
-0.11325
-0.0583112
-0.113855
-0.0473582
-0.113593
-0.0367412
-0.112501
-0.0266194
-0.110652
-0.0171309
-0.108202
-0.00829668
-0.104979
-0.0993581
-0.154903
-0.0790433
-0.150505
-0.0861109
-0.144509
-0.0931492
-0.136985
-0.0997825
-0.12809
-0.105828
-0.118033
-0.111111
-0.107051
-0.115494
-0.0954081
-0.118872
-0.083375
-0.121177
-0.0712206
-0.122382
-0.0591996
-0.122495
-0.0475415
-0.121559
-0.0364441
-0.119651
-0.0260715
-0.116883
-0.0165565
-0.113446
-0.00791304
-0.109293
-0.102955
-0.166014
-0.0830686
-0.16101
-0.091755
-0.154082
-0.100137
-0.145409
-0.107931
-0.135213
-0.114924
-0.123764
-0.120898
-0.111374
-0.125685
-0.0983776
-0.129169
-0.085112
-0.131286
-0.0719019
-0.13203
-0.0590443
-0.131444
-0.046797
-0.12962
-0.0353693
-0.126689
-0.0249208
-0.122816
-0.0155689
-0.118242
-0.0073223
-0.11303
-0.105903
-0.176356
-0.0878894
-0.170595
-0.0980026
-0.16267
-0.107872
-0.15276
-0.116977
-0.141161
-0.125004
-0.128232
-0.131681
-0.114374
-0.136812
-0.100002
-0.140276
-0.0855235
-0.142026
-0.0713243
-0.142092
-0.0577439
-0.140569
-0.0450593
-0.13762
-0.0334812
-0.133448
-0.0231534
-0.128292
-0.0141694
-0.122445
-0.00652466
-0.116069
-0.108103
-0.18551
-0.0926502
-0.179013
-0.104804
-0.169989
-0.116417
-0.158738
-0.126978
-0.145648
-0.136103
-0.131176
-0.143468
-0.11582
-0.148846
-0.100089
-0.152121
-0.0844698
-0.153282
-0.0693978
-0.152419
-0.0552409
-0.149706
-0.0422979
-0.145382
-0.0307691
-0.139754
-0.0207711
-0.133149
-0.0123634
-0.125917
-0.00551811
-0.118308
-0.109463
-0.193263
-0.0980428
-0.185924
-0.112237
-0.175762
-0.125769
-0.163123
-0.137928
-0.148498
-0.148209
-0.132455
-0.156222
-0.115608
-0.16172
-0.0985638
-0.164606
-0.0818899
-0.164923
-0.0660805
-0.162846
-0.051531
-0.158659
-0.0385213
-0.152723
-0.0272436
-0.145438
-0.0177816
-0.137238
-0.0101561
-0.128536
-0.00430578
-0.119658
-0.109907
-0.199239
-0.103514
-0.19113
-0.120199
-0.179812
-0.135903
-0.165759
-0.1498
-0.14958
-0.161277
-0.131974
-0.169875
-0.113676
-0.175333
-0.0954031
-0.17759
-0.0778027
-0.176776
-0.061416
-0.173186
-0.0466547
-0.167241
-0.0337909
-0.159449
-0.0229632
-0.150343
-0.0142263
-0.14044
-0.00756249
-0.130217
-0.00290176
-0.120043
-0.10938
-0.203349
-0.109361
-0.194444
-0.128687
-0.181985
-0.146761
-0.166528
-0.162531
-0.148813
-0.175229
-0.129685
-0.184321
-0.110014
-0.189544
-0.09063
-0.190902
-0.0722606
-0.188645
-0.0554867
-0.183226
-0.0407203
-0.175246
-0.0282062
-0.165381
-0.0180386
-0.154312
-0.0102108
-0.14265
-0.00466871
-0.130905
-0.00135028
-0.119435
-0.107872
-0.205349
-0.115252
-0.195754
-0.137567
-0.182206
-0.158248
-0.165393
-0.176017
-0.146197
-0.189946
-0.125619
-0.199421
-0.10468
-0.204186
-0.0843314
-0.204344
-0.0653763
-0.200308
-0.0484225
-0.192743
-0.0338678
-0.182465
-0.0219106
-0.170347
-0.0125925
-0.15722
-0.00584495
-0.143789
-0.00157847
-0.13056
0.000289629
-0.117858
-0.105437
-0.2052
-0.121177
-0.195009
-0.146722
-0.180474
-0.170224
-0.162389
-0.19012
-0.141802
-0.205279
-0.119888
-0.214997
-0.0978288
-0.219053
-0.0766945
-0.217685
-0.0573591
-0.211528
-0.0404473
-0.201506
-0.0263198
-0.1887
-0.0151099
-0.174205
-0.00678432
-0.159
-0.00122663
-0.143847
0.00169674
-0.129237
0.00204107
-0.115371
-0.102098
0.0187998
-0.0371394
-0.0136582
0.0221037
-0.0351437
0.0249509
-0.0337717
0.0263908
-0.0333153
0.0271736
-0.0335236
0.0270905
-0.0343919
0.0261757
-0.0357985
0.0248813
-0.0373855
0.0228531
-0.0391466
0.0207584
-0.0407315
0.0181274
-0.04229
0.0157002
-0.043526
0.0129399
-0.0446236
0.010575
-0.0454117
0.00812507
-0.0461077
0.0061761
-0.0465427
0.00434066
-0.0470097
0.00305415
-0.0474631
0.00197864
-0.0481238
0.0014874
-0.049094
0.00130771
-0.0505431
0.00173468
-0.052587
0.00256431
-0.055355
0.00400996
-0.0589732
0.00593848
-0.0635374
0.00850102
-0.0691563
0.0116194
-0.0758652
0.0153861
-0.0837099
0.0197717
-0.0926562
0.0248146
-0.10265
0.0305249
-0.113568
0.0368938
-0.12523
0.0439407
-0.137413
0.051648
-0.149836
0.0600004
-0.162175
0.0689867
-0.174077
0.0785277
-0.185175
0.0886238
-0.195107
0.0991294
-0.203543
0.110034
-0.210178
-0.214822
0.0209126
-0.0396195
-0.0160318
0.024571
-0.0373949
0.0271232
-0.0358735
0.0285536
-0.0351996
0.0289951
-0.0352569
0.0285708
-0.0360202
0.0273182
-0.0372741
0.0255056
-0.0388856
0.0231886
-0.0406328
0.0206144
-0.0423566
0.0177976
-0.043976
0.0149718
-0.0454175
0.0121347
-0.0466342
0.00947979
-0.0476574
0.00702909
-0.0485397
0.00495577
-0.0492711
0.00325015
-0.0499689
0.00203132