/*--------------------------------*- C++ -*----------------------------------*\
  =========                 |
  \\      /  F ield         | OpenFOAM: The Open Source CFD Toolbox
   \\    /   O peration     | Website:  https://openfoam.org
    \\  /    A nd           | Version:  6
     \\/     M anipulation  |
\*---------------------------------------------------------------------------*/
FoamFile
{
    version     2.0;
    format      ascii;
    class       surfaceScalarField;
    location    "1.07";
    object      meshPhi;
}
// * * * * * * * * * * * * * * * * * * * * * * * * * * * * * * * * * * * * * //

dimensions      [0 3 -1 0 0 0 0];

internalField   nonuniform List<scalar> 
11670
(
-0.201858
-0.0911282
-0.0175932
0.325815
-0.0845457
0.0276261
-0.0374263
0.0708635
-0.477915
-0.0545576
-0.00189378
0.513783
-0.598956
-0.242464
-0.0532537
0.927128
-0.253142
-0.0657981
-0.0306239
0.390863
0.00790461
0.00707907
0.00027391
-0.00168623
0.669696
0.0658814
-0.012576
-0.710341
-0.305265
-0.0707734
0.00828639
0.313704
0.481405
-0.191478
0.214099
-0.482055
-0.380045
0.157119
-0.225863
0.415006
0.890923
0.329048
0.0519021
-1.2781
-0.00413213
-0.00780664
0.00974367
-0.0136085
0.011875
-0.00749893
0.0213277
-0.0102385
0.00173852
0.00513875
-0.0101083
0.0226309
-0.00971832
0.00889301
-0.0287122
0.0104041
-0.00260272
0.00442813
0.0121881
-0.005019
-0.00482461
0.00271595
-0.00926226
0.00406186
-0.000970929
-0.00313669
0.0040879
-0.00568874
-0.000387688
0.00687392
0.0170991
-0.010739
0.000260643
0.00476511
-0.00397838
0.00586297
-0.00438239
0.00301412
-0.0118642
0.00438453
0.000944622
0.00390342
-0.00352084
0.00352576
-0.00028804
-0.0035028
0.00381659
-0.00555019
-0.011963
0.00230565
-0.0162948
0.0104133
0.00639591
-0.00461127
0.0134765
-0.00498335
-0.0103508
0.0155142
-0.0102058
0.0338835
0.00708901
-0.00845176
0.0107518
-0.0333225
0.00483753
0.00982697
0.024556
-0.0160763
-0.0102322
0.000618878
0.016613
-0.0262921
0.0208192
-0.0186465
-0.0165988
0.0531728
-0.0128029
0.000836923
0.0206786
-0.0329235
0.00595043
0.0121321
0.0301561
-0.0199971
0.025455
-0.0225657
-0.020647
0.0657348
-0.00661198
-0.0129291
-0.0324884
0.021751
-0.0270953
0.0241867
0.0224579
-0.071597
-0.0154845
0.0183983
-0.0224527
0.0717682
0.0242683
-0.00479114
0.0323352
-0.021746
-0.0100765
0.0158077
0.0478774
-0.0219641
-0.021012
0.00519644
-0.0322432
0.0215168
0.0171925
-0.0249149
0.0249528
-0.0787187
0.0121152
-0.000706257
0.0300764
-0.0188893
0.00746692
-0.00894335
-0.0516843
0.0182861
0.0262795
-0.0174777
-0.0179515
0.0585385
-0.0219468
0.00138778
0.0171253
-0.0232188
0.00205879
0.0060989
-0.013057
0.0259718
-0.0014075
-0.00433926
-0.0282094
0.013215
0.0168454
-0.0106449
0.0313396
-0.0132251
-0.0174915
0.00874534
0.013047
-0.0286241
0.00468555
-0.000260536
0.0116653
-0.0073263
-0.00798383
0.000520127
0.00662672
-0.0081744
0.0102779
-0.00689726
-0.00696257
0.0228313
0.00306636
-0.00366768
-0.0214135
0.00707589
-0.000458938
5.91233e-05
3.22132e-05
-0.000770283
-0.000286896
0.000384645
0.00168933
3.96383e-05
-5.26821e-14
3.07694e-15
8.51294e-14
-1.32827e-13
0.0106168
0.00262399
-0.00634355
0.00542194
-0.00902196
-0.00165575
-0.00783673
0.00649151
0.00652488
-0.00695142
0.0260522
-0.00852175
-0.00265391
0.00498147
0.00741239
-0.021236
0.00466858
0.00947193
0.0232997
-0.0160351
-0.0180428
0.00228795
0.0148559
-0.0214585
0.0205106
-0.0183402
-0.0165563
0.0536213
0.0118231
-0.0156118
-0.0576922
0.018459
0.00887766
-0.000507147
0.0220664
-0.0138587
0.0200453
-0.013382
-0.0131706
0.0437268
0.0109787
-0.00978038
-0.0491537
0.0142826
-0.016831
0.00125624
0.0132735
-0.0167912
0.0140834
-0.00106167
-0.0225033
0.0358281
-0.0279757
0.00204833
0.021566
-0.0282792
0.017433
-0.015521
-0.0779997
0.0232055
0.0148803
-0.0173752
0.0218351
-0.0707956
-0.0233495
0.00446753
-0.0313
0.0211478
0.00819071
0.0171171
-0.0209813
0.0276999
0.0263264
-0.0280115
0.0760068
-0.0225763
0.00585108
0.0119207
0.029411
-0.0199727
0.0254354
-0.0227477
-0.0206218
0.0662863
-0.00785864
-0.0157362
0.0198071
-0.0256235
-0.0240916
0.0258599
-0.0722895
0.0213128
-0.0232094
-0.00432074
-0.0202053
0.0167369
0.0174734
0.00156903
0.0205969
-0.0151062
0.0238482
-0.0161989
-0.0238267
0.0658974
-0.00678899
0.0127901
0.0191112
-0.0547524
-0.0134632
0.0198143
-0.10852
0.169127
-0.164748
-0.498573
0.0538281
-0.0636466
-0.180928
-0.182364
0.20305
0.656874
0.0343212
-0.0532476
-0.207976
0.00174604
0.00952396
0.00537842
0.130761
-0.124149
-0.351239
0.194424
-0.197583
-0.568911
0.161605
-0.0719844
0.408945
-0.0589053
0.0694203
-0.416001
-0.310702
0.294113
0.894763
-0.296042
0.177072
0.859418
-0.736003
0.0378924
-0.0445368
0.257266
-0.248718
-1.54868e-05
-0.00354848
-0.00229415
0.00240511
0.0176188
0.0283904
-0.105203
0.0485141
-0.0298576
0.153993
0.0808244
-0.218577
0.0511821
-0.302082
-0.105656
0.342319
0.0334467
0.0629254
-0.137239
0.055559
0.0565871
-0.270993
-0.0754615
0.289142
-0.123202
0.859418
-0.693097
-0.00466685
0.0140842
0.0221486
-0.0385307
-0.000940661
-0.0153515
0.00827714
-0.00278704
-0.0164327
-0.0280527
0.101517
-0.0465524
-0.0120067
-0.0158716
0.015335
0.0309498
-0.0257829
0.0066711
-0.0118448
-0.0633073
-0.0247977
0.0823109
-0.0342545
0.0273932
-0.00438287
0.171385
0.0377902
-0.162231
0.0750945
-0.224218
0.106526
0.000784329
-0.00530459
0.00112159
-0.116412
0.269277
-0.116129
-0.0929782
0.251816
-0.103586
0.0631689
0.0241075
-0.0802259
-0.0434665
0.120488
0.0785411
-0.176007
0.0369751
0.0839248
-0.18481
-0.000260094
0.0204846
-0.000523868
-0.0486333
-0.0773541
-0.000471995
0.0486333
0.07533
-0.129788
-0.117713
0.201396
-0.0563662
-0.118357
0.279278
0.0181015
-0.0350072
0.053728
-0.0376454
-0.0218998
-0.0353269
0.074505
0.215848
-0.524907
-0.358458
0.658976
-0.149385
-0.335244
0.691936
0.164854
0.155442
0.304769
-0.655265
0.401823
0.300686
-0.567855
-0.0749859
0.128693
0.118045
-0.198934
0.0571809
0.116515
-0.275863
0.110826
0.06086
0.183019
-0.326405
0.334356
0.181418
-0.376649
3.57223e-05
-0.0175112
-5.92805e-05
0.0109465
0.00444992
-5.60118e-05
-0.0109465
0.0699389
-0.408115
0.141764
-0.0350493
0.0258197
-0.113059
-0.190022
-0.0182093
0.0887813
0.14832
-0.104774
0.0272684
-0.0228127
0.0914037
-0.147431
-0.0125454
0.0633505
0.114891
0.135674
0.0119187
-0.0622319
-0.102404
0.0942712
-0.0237738
0.017102
-0.0795399
-0.0926055
-0.00657324
0.0376725
0.06897
0.0364479
-0.0124766
0.00753701
-0.0346903
-0.0406699
0.0141846
-0.00978223
0.0399669
0.0849664
0.00615179
-0.0366074
-0.0614953
-0.175941
0.0376472
-0.0331321
0.143771
0.203763
0.0209087
-0.0907438
-0.167346
-0.426074
-0.0920231
0.158876
0.354571
0.565133
-0.224621
0.0933698
-0.447226
-0.455681
0.176133
-0.0659492
0.343615
0.280812
0.0584322
-0.115685
-0.234832
-0.547388
0.186873
-0.0316831
0.376926
0.589535
0.120435
-0.209917
-0.476555
-0.556864
0.243629
-0.0843764
0.423203
-0.282172
-0.0221556
0.103956
0.186842
-0.129764
0.057216
-0.0120677
0.108938
0.764033
-0.472094
-0.0213425
-0.283418
0.759589
-0.304534
-0.096536
-0.354752
-1.20785
0.451736
-0.212539
0.929799
0.934125
-0.315461
0.0366427
-0.603804
-0.662468
0.324518
-0.048694
0.397456
-0.283968
0.934301
0.0216491
-0.665995
-0.616399
0.243353
0.00817686
0.348404
-0.533035
0.180723
-0.0763859
0.363586
0.425838
0.0656811
-1.18845
0.700464
1.22426
-0.482889
0.2215
-0.963708
-0.823588
0.264643
-0.0366408
0.568578
0.890599
0.165176
-0.382557
-0.711785
-0.656789
0.0807422
0.282968
0.306945
0.890051
-0.440248
0.030955
-0.503677
0.258637
0.0674894
-0.141604
-0.260354
-0.241345
0.165167
-0.0531302
0.191783
0.794127
-0.136575
-0.439417
-0.198647
0.929744
-0.326305
0.162862
-0.69885
-0.825861
0.337607
0.102206
0.370676
-0.823966
0.277841
-0.129376
0.619224
0.368145
-0.0317007
-0.130474
-0.180278
-0.516186
0.163689
-0.0740158
0.36141
-1.00511
-0.186631
0.410008
0.785855
-0.833983
0.356037
0.0806997
0.407498
-0.624072
0.245771
-0.0508736
0.47187
0.0393547
-0.225196
0.629511
-0.478647
0.189744
0.0145861
-0.111111
-0.131139
0.194328
-0.0494066
0.03564
-0.13829
-0.0742099
-0.0160082
0.0454293
0.0719902
0.640852
0.129367
-0.268571
-0.56426
-0.572862
-0.11421
0.267386
0.479649
0.25141
0.0620754
-0.131894
-0.252587
0.204681
-0.0895168
-0.0390157
-0.0538327
-0.153526
0.0247893
0.108053
0.040493
0.0113797
-0.0496836
0.0287268
-1.58158e-15
0.000969701
-0.00318371
7.66565e-16
0.00317985
-0.000965842
1.40574e-15
-6.80958e-16
-0.00145656
-0.0529655
0.0313404
-0.102827
0.0253085
0.389851
-0.278903
-0.314063
-0.0145643
0.12901
0.228607
2.88518e-13
-0.0105891
-0.0031195
-1.90563e-13
-4.68172e-14
-0.00157824
-0.00415689
7.19992e-14
-0.0255359
0.000175332
-0.00279705
0.0140803
-0.0730339
0.0249475
-0.00438765
0.0348779
-0.02758
9.22314e-05
0.00790899
0.0154344
0.0255359
8.40129e-05
-0.00798662
-0.0140791
0.0275818
0.000193387
0.00340968
-0.0154344
-0.000177436
0.00321051
0.0107937
2.26937e-05
-8.70006e-07
-0.006254
-0.0126621
7.27709e-06
8.08288e-06
-0.0180956
-0.00816232
-6.26374e-07
0.0187929
0.00734501
3.43743e-05
-0.00016115
-0.427371
0.125165
-0.0456191
0.312732
0.375775
-0.0818107
-0.0449613
-0.223452
0.0351675
-0.171736
0.388889
-0.288198
-1.01025
-0.101204
0.346649
0.720341
0.679697
-0.117418
-0.361424
-0.178086
-0.151464
0.0464598
0.016573
0.0841487
0.797842
0.141178
-0.270599
-0.60051
0.188439
0.0229848
-0.0865837
-0.12827
0.337853
-0.0410293
-0.119568
-0.152534
-0.447615
-0.0655558
0.137295
0.313276
-0.000307598
0.0100658
0.0225151
3.00373e-05
4.17587e-05
0.0261879
0.0130589
-0.000277009
-0.00511284
0.00611512
-0.0173003
-0.00543959
0.348407
-0.153822
0.0468297
-0.26173
0.0423672
-0.104797
0.315837
-0.241767
-0.378912
0.149616
-0.0298721
0.277253
-0.329536
-0.0730907
0.113835
0.274222
-0.58813
0.361595
0.101796
0.154207
-0.356263
0.0970033
0.819557
-0.607541
0.152976
0.00603165
-0.0188717
-0.0759589
-0.495192
0.231461
-0.0944669
0.415275
-0.200846
0.0577497
0.00486561
0.112842
-0.18318
-0.0197028
0.0952793
0.142005
0.209951
-0.0467507
0.0432596
-0.167754
-0.172994
0.09467
0.0260236
0.0784473
0.216556
-0.115729
0.0531802
-0.218057
-0.0423077
0.217046
-0.744108
0.532342
0.354426
0.0697518
-0.11383
-0.286017
-0.420553
0.173826
-0.0610192
0.338976
0.614248
0.0669894
-0.193578
-0.458801
-0.566905
-0.0673978
0.178973
0.42702
0.242007
-0.0599767
-0.593155
0.443235
-0.248578
0.0804865
0.635612
-0.504464
0.575963
0.0857474
-0.435431
-0.557189
-0.056876
0.173867
0.389597
0.0968712
-0.282546
0.776399
-0.553067
0.358621
0.0611121
-0.100918
-0.261539
0.172271
-0.0312561
0.0078679
-0.0899556
0.598394
-0.22646
0.0289162
-0.435572
-0.366281
0.169583
0.304046
0.406034
-0.169773
0.0393532
-0.319647
-0.754192
0.307962
-0.0742588
0.557867
-0.140301
0.0778122
-0.0332615
0.139329
-0.112416
0.00860557
0.0579702
0.136075
-0.0201135
-0.00663177
-0.0665585
-0.918513
0.365189
-0.113761
0.6976
-0.118387
0.0212305
-0.00708799
0.0596801
-1.1501
0.469683
-0.198497
0.889847
-0.0958089
0.0199931
0.00550759
0.0441249
0.942631
0.110851
-0.318752
-0.709787
-0.12787
-0.00992107
0.0146483
0.0650138
0.074514
0.00120913
-0.0174339
-0.0120791
-1.12052
0.452511
-0.201025
0.867866
1.33509
0.242213
-0.509397
-1.06019
-0.546281
0.108056
0.083291
0.334664
0.443373
-0.165255
-0.0632882
-0.200438
-0.419476
0.0479551
0.199887
0.189629
0.423543
0.0370425
-0.221172
-0.262398
0.4501
-0.115965
-0.0583303
-0.248728
-0.381872
0.145179
0.0318896
0.180625
0.148913
0.0556493
-0.413615
0.200531
0.421297
-0.0459515
-0.183871
-0.204255
-0.197875
0.0947012
0.629228
-0.498654
-0.55785
-0.0533465
0.214146
0.422355
0.0244339
0.00934387
-2.89188e-12
2.24087e-12
2.18444e-12
0.0065968
0.0221076
-1.69996e-12
-0.285923
0.0856456
0.0420914
0.14486
0.213888
-0.0202182
-0.102608
-0.108738
1.3003
0.237456
-0.510763
-1.03306
-1.00959
0.123492
0.310266
0.58209
0.189426
0.0199151
-0.0885537
-0.152638
-0.200211
0.0419613
-0.0413883
0.166773
0.379692
0.0450915
-0.109341
-0.287916
0.169808
-0.0472587
-0.429204
0.34078
0.360874
-0.173981
-0.0664551
-0.0948396
0.250283
-0.0355557
-0.148844
-0.0625417
0.209015
-0.0997445
0.0440383
-0.174104
-0.130598
-0.0291666
0.282277
-0.136855
-0.0687008
0.0105306
0.0102269
0.0440536
0.0405073
0.0956143
-0.287523
0.139398
-0.304221
0.0447077
0.128034
0.134157
-0.205262
0.0390767
-0.0192118
0.154407
-0.165515
0.100174
0.0354077
0.0413277
0.013365
-0.0891256
0.187684
-0.142349
-0.150732
-0.0118255
0.0835047
0.0949162
0.168773
-0.117333
-0.0309075
-0.0432846
-0.293392
0.0481495
0.194501
0.0773741
-0.253519
0.0457556
0.117385
0.0653841
0.0143708
0.0221179
-0.123624
0.0774665
-0.423747
0.210345
-0.0464531
0.253885
-0.444135
0.0655694
0.149022
0.256128
0.192827
-0.0091536
-0.0986348
-0.107522
0.373503
-0.169725
-0.0430913
-0.164643
-0.0141912
0.0948794
-0.185811
0.137616
0.154256
-0.02982
0.0271556
-0.118107
0.160755
0.0117099
-0.074219
-0.123926
0.0383773
-0.0293311
-0.205411
0.161899
0.160147
-0.0383894
0.0288473
-0.126243
-0.142627
-0.0117688
0.0437027
0.0833474
-0.202255
-0.0199688
0.0954006
0.159466
0.0492275
-6.38777e-05
-0.0301238
-0.0209771
0.207026
-0.041678
0.0204388
-0.152703
-0.132317
-0.0161975
0.0650691
0.112891
-0.464927
-0.0812022
0.153187
0.34432
-0.152242
0.0159941
0.0199522
0.095806
0.407067
-0.184643
0.0726093
-0.34299
-0.0550032
0.00932711
-0.00250918
0.0317014
-0.373935
-0.0493004
0.155085
0.258431
0.112934
-0.018437
0.0022325
-0.0712443
0.17495
-0.0540528
0.00870008
-0.111943
-0.820296
0.135114
0.246623
0.459098
0.467385
0.0659676
-0.224077
-0.302503
-0.0321255
0.0774238
-0.172978
0.161338
0.232438
-0.0326056
-0.0831503
-0.163257
0.159066
0.0428804
-0.0806174
-0.160742
-0.261956
-0.0388601
0.136224
0.226852
0.0200077
0.135129
-0.124765
0.281398
-0.0756441
-0.194637
-0.257011
0.0679397
0.182619
-0.0136693
-0.126453
0.109394
0.746379
-0.205869
-0.106324
-0.409347
-0.217079
-0.057096
0.115208
0.217918
-0.144787
-0.013638
0.0877629
0.0904202
0.115841
-0.381404
1.04497
-0.767294
-0.971739
-0.173061
0.381175
0.750389
0.341433
-0.156436
0.0727244
-0.315472
-1.03827
0.388176
-0.0536127
0.677477
0.589082
-0.179966
0.0491125
-0.399534
-0.821894
0.382578
-0.0929844
0.495812
0.126694
0.556381
-0.196844
-0.448892
0.326631
-0.10505
0.0262698
-0.228007
-0.326412
0.116154
-0.0432267
0.228241
-0.406794
-0.0881425
0.159029
0.357448
-0.0847356
0.0128192
-0.013075
0.0614645
0.0407187
0.0069282
-0.0227992
-0.0403736
-0.0364694
-0.00623134
0.0230482
0.0342063
-0.254511
-0.0177616
0.0577912
0.171625
0.0947933
-0.0149325
0.0168583
-0.0689823
0.235907
0.02907
-0.0768881
-0.14933
-0.135571
0.455768
-1.15697
0.846592
-0.363757
0.227361
-0.0354683
0.212785
-0.54754
-0.0623823
0.207769
0.435296
-0.427951
0.114765
0.0268788
0.253927
0.446361
-0.156791
0.0614679
-0.305816
0.417476
-0.0415996
-0.187184
-0.210774
-0.436026
0.190255
-0.0485407
0.348291
-0.627303
0.278914
-0.122978
0.529849
0.438735
0.0750662
-0.210277
-0.369624
-1.07242
-0.131317
0.548092
0.672715
1.23825
-0.450828
0.0846166
-0.894104
-0.318534
-0.0223227
0.07654
0.213865
1.12522
-0.447385
0.194405
-0.891591
-0.515499
-0.0836677
0.16066
0.380645
-1.09574
0.40405
-0.100192
0.808779
0.689702
-0.279434
-0.573829
0.222203
0.0679324
-0.345227
0.0882041
0.523219
-0.194189
0.0746823
-0.393014
1.27871
-0.469003
0.123259
-0.929764
0.731069
-0.363686
0.0667723
-0.458426
0.512369
0.0390993
-0.261742
-0.294083
0.587938
-0.111127
-0.335651
-0.154441
-1.00666
0.395529
-0.177951
0.820116
-0.799501
-0.0770841
0.304265
0.545923
-0.264991
0.0738351
0.758925
-0.540807
-0.774474
0.265698
-0.103114
0.54349
0.084742
-0.256394
0.777402
-0.545244
0.711574
0.124511
-0.255727
-0.524924
-0.811562
-0.0528186
0.405401
0.496929
0.924708
-0.392804
0.158362
-0.730486
-0.314775
0.0173404
0.0570962
0.196604
0.702837
-0.1989
-0.0742377
-0.448994
0.159014
0.00909286
-0.0688464
-0.123819
-0.241216
0.0593758
-0.0126956
0.164567
-0.133448
-0.0218502
0.0704823
0.0933044
-2.16435e-12
-0.0149987
-0.00686887
1.6175e-12
0.00627773
0.0121587
0.00304247
-0.00207207
0.0178719
-0.187085
0.314927
-0.168273
0.00137318
0.00385444
-0.0110496
1.58072e-12
-0.00422719
-0.00851798
-1.41558e-12
-0.376477
-0.0251007
0.10903
0.277807
-0.00441659
0.00534997
0.0169153
-0.00525194
0.00155123
0.00542975
-0.00184558
0.00076887
-1.0627e-05
-0.0203273
-0.00916802
8.73421e-07
-0.153107
0.0160709
0.398347
-0.280687
0.241041
-0.156483
-0.0335663
-0.060346
0.342161
-0.11991
0.0493804
-0.230499
-0.142275
0.0726698
-0.00285192
0.103325
0.22896
-0.0341955
-0.0831492
-0.135827
-0.196398
0.0418469
0.10333
0.0491693
-0.31319
0.0398214
0.0879918
0.20877
0.249472
-0.0280391
-0.0916926
-0.122156
1.21266e-06
-0.00793252
-0.0161212
-9.61453e-06
-1.20908e-12
-0.0070062
-0.00187382
8.18457e-13
0.118176
0.00843076
-0.0238429
-0.076114
0.0851856
-0.00470896
-0.0438098
-0.0303686
-0.0991021
0.0124296
0.0139935
0.0557565
-0.0816932
0.00300172
0.0289
0.0453924
-0.365856
-0.101252
0.192703
0.326406
0.401552
-0.144653
-0.200884
-0.0976226
0.964604
-0.269517
-0.106934
-0.604753
0.517795
-0.0810479
-0.277691
-0.133093
-0.754894
0.260878
-0.0342447
0.480541
-0.983948
-0.142846
0.77163
-0.044751
-0.131138
0.211994
-0.0530738
-0.251371
0.0512224
0.0240466
0.145504
0.305576
0.0160709
-0.085074
-0.196782
1.25389
0.221582
-0.444101
-1.00034
-0.679432
0.389977
0.108536
0.178356
0.737232
-0.136332
-0.415397
-0.188226
-0.149079
-0.26531
0.96193
-0.52813
-1.18487
-0.209047
0.425906
0.924612
1.1901
-0.0108309
-0.459682
-0.707607
-0.384979
0.0759489
0.220177
0.0976306
0.645546
-0.252797
0.115894
-0.464779
0.208051
-0.114546
0.049258
-0.204581
0.183799
0.0474684
-0.320023
0.0801194
0.400887
-0.0908559
-0.0472285
-0.251465
-0.664623
0.409357
0.11617
0.169958
-0.46763
0.0370358
0.897842
-0.507499
-0.696311
0.338963
-0.0600507
0.430154
-0.779254
0.460086
0.128848
0.198977
0.471378
-0.279671
-0.0726215
-0.119736
0.42499
-0.0465127
-0.109029
-0.230062
-0.544937
-0.0851126
0.164343
0.392387
0.168334
-0.0875938
0.0362486
-0.16731
-0.206927
0.101459
-0.0372372
0.192856
-0.893567
0.157602
0.501743
0.232357
1.01241
-0.126871
-0.301135
-0.579419
-0.133798
-0.416347
0.768422
-0.19631
0.443799
0.0308987
-0.360756
-1.02205
0.544576
-0.00331561
0.464904
0.87737
-0.511385
-0.151684
-0.228143
-0.432032
-0.0650521
0.11865
0.315696
0.390977
0.0379872
-0.110243
-0.272203
-0.805293
0.322576
-0.131357
0.649583
0.192362
-0.699017
0.53161
-0.775024
0.0834568
0.192185
0.467808
0.953683
0.174806
-0.322654
-0.767328
-0.10476
0.355754
-1.03714
0.74754
1.0973
0.193684
-0.406174
-0.834979
0.159547
-0.406282
1.2582
-0.978952
-1.24959
-0.0685353
0.394365
0.898923
-0.696383
-0.106295
0.241081
0.504798
1.03149
0.098355
-0.338475
-0.747822
-0.865619
0.36527
-0.14093
0.663861
0.662362
-0.292062
-0.0602493
-0.322272
-1.04547
0.282166
0.113652
0.659585
0.346433
0.0243884
-0.0880327
-0.2326
0.825899
-0.309159
0.0861263
-0.644362
-0.751181
0.33431
-0.146902
0.61184
-0.972176
0.350724
-0.101705
0.753002
-0.376072
0.0534997
1.06113
-0.766977
0.143375
0.434503
-0.788277
0.201872
0.466314
-0.210135
0.102653
-0.42501
-0.31056
0.0218278
0.0505456
0.196038
0.324187
-0.0956967
-0.801168
0.62047
0.960369
0.185113
-0.355008
-0.769386
-0.399687
0.124748
0.0494416
0.268866
0.385487
-0.239379
0.03768
-0.226083
0.773927
-0.463272
-0.131517
-0.1982
-0.346351
0.885414
-0.637158
-0.445046
0.12469
1.12544
-0.795923
-0.807706
0.311988
-0.133189
0.614267
-0.834165
-0.0686227
0.633486
0.581333
-0.224105
0.0781741
-0.402124
0.747201
-0.43233
-0.136874
-0.190734
-1.04026
-0.113229
0.393094
0.776013
0.553018
0.11014
-0.234238
-0.449922
0.722857
-0.270918
0.100965
-0.499953
-0.641553
0.224309
-0.0923437
0.463713
-0.721677
0.284552
0.0724247
0.349687
-0.220313
0.0492777
0.0161339
0.127395
-0.324614
-0.0642277
0.159987
0.269895
-0.0387449
0.229442
-0.752884
0.530504
0.69415
0.0767034
-0.218487
-0.518535
0.428571
0.0948868
-0.190277
-0.391071
-0.403723
-0.0787229
0.203545
0.335782
-0.4302
0.157084
0.0400553
0.208473
-0.625386
0.346189
-0.0798184
0.395945
0.559971
-0.186066
-0.0738194
-0.335182
0.228718
-0.00799385
-0.069909
-0.116802
0.0112759
0.0557518
-0.211206
0.117355
-0.258371
0.0379719
0.711631
-0.525122
0.273223
-0.0929368
-0.714067
0.574063
0.319265
-0.0553382
-0.155777
-0.0798446
-0.431543
-0.0731942
0.137953
0.312383
-0.454379
0.145119
0.0482008
0.296448
0.225083
0.0147649
-0.0541756
-0.144021
-0.211584
0.146477
0.0395391
0.0528976
0.288142
-0.139794
0.061497
-0.262061
-0.218068
0.655153
0.00416366
-0.032047
0.103464
-0.182923
-0.108006
0.552855
0.180893
-0.983876
0.666445
0.132117
-0.178719
0.151896
-0.753928
-0.0275704
0.145024
-0.093024
0.168621
0.00999308
-0.0263142
0.0175429
-0.147049
-0.0256051
0.0339129
0.0434606
-0.169632
0.0252835
-0.0388583
0.195419
-0.298165
0.505287
-0.102635
0.00514337
-0.0122618
-0.278656
0.385079
0.125886
-0.0496603
0.172794
-0.244799
0.339975
-0.084206
0.0488966
-0.184467
-0.0171625
0.0732438
0.106092
-0.0353998
0.0379228
-0.127551
-0.0888971
0.0352529
0.158793
0.0124266
-0.0503058
-0.0764579
0.0209809
-0.0199713
0.0754059
-0.0110308
0.047262
0.0666385
-0.0227896
0.0244017
-0.0848309
0.109127
-0.0553885
-0.194469
0.259517
-0.209583
0.564673
-0.267529
0.112204
-0.408974
0.17837
-0.169589
-0.434892
-0.175957
0.213631
-0.489248
-0.0810752
0.0384988
-0.256025
-0.0218819
0.0878132
0.200165
-0.170143
0.245892
0.471613
0.00733966
-0.00692597
0.0292659
-0.00776589
0.00836974
-0.032798
0.0237661
-0.11534
-0.1524
0.114282
-0.0514365
0.205829
-0.0339013
0.0238343
-0.0932212
-0.0970475
0.238513
0.503561
0.0458538
-0.242708
-0.398428
0.268884
-0.279306
-0.62715
0.29242
-0.210407
-0.719398
-0.104816
0.364611
0.703691
0.00434688
-0.0174785
-0.0229787
-0.0037541
0.0162357
0.0198465
-0.0491993
0.0316622
-0.0738585
-0.382691
0.474436
-1.07224
0.661201
-0.268509
-1.18617
0.0615809
-0.0454059
-0.133259
0.0904294
-0.0653743
0.222266
0.465679
-0.481889
1.02676
-0.394712
0.302181
0.914069
-0.427921
0.29705
0.910773
0.0232093
-0.019195
-0.0456781
0.2517
-0.248043
-0.623662
0.503519
-0.501617
-1.24665
-0.20856
0.27755
-0.687374
-0.0122678
-0.00605499
-2.64257e-13
0.0110057
0.0110751
-0.00190334
-0.00514643
-0.0113583
6.25458e-07
-0.022986
-0.0176405
0.000453814
0.543961
-0.535849
1.31819
0.414328
-0.396432
0.99479
0.0516892
-0.0460774
0.153352
0.400312
-0.326632
-0.972447
0.284323
-0.300451
-0.521665
0.0215677
0.0213273
-0.00443922
-0.02405
-0.031513
-0.000454274
0.359785
-0.662248
1.15739
0.679405
-0.359229
-1.20837
-0.199871
0.115436
0.519916
-0.107612
0.214608
0.467509
-0.204669
0.0891041
-0.461184
-0.153268
0.24807
-0.582011
-0.180762
0.102479
-0.451335
0.0282478
-0.0512612
-0.143832
-0.134898
0.0961138
-0.305515
-0.00704222
0.0068086
-0.019848
0.0081322
-0.00853983
0.0229787
0.146158
-0.0486976
0.278408
0.526906
-0.533111
1.27792
0.665622
-0.425707
-1.22376
0.0864137
-0.188981
0.41966
0.0783012
-0.113478
-0.320565
0.0236975
0.0108202
-3.00235e-05
0.0849843
-0.118859
0.267821
0.161415
-0.0529983
0.302226
0.217422
-0.204861
-0.547021
0.319363
-0.294937
0.851476
-0.423873
0.400666
-1.0504
-0.272834
0.319965
-0.728563
0.219391
-0.161955
-0.459575
0.152448
-0.191739
-0.476653
0.144275
-0.174849
0.446842
-0.214988
0.242209
0.631157
-0.468533
0.438232
1.111
-0.330558
0.263967
-0.997701
0.169712
-0.0795146
0.324081
0.0755332
-0.13293
-0.258857
0.108899
-0.0931445
0.327073
-0.0743197
0.0759146
0.145026
0.0910241
-0.0609335
-0.166932
-0.0645545
0.0805119
0.14907
0.225484
-0.298243
0.733635
-0.0544186
0.033077
-0.15201
-0.49383
0.218586
1.00781
0.0599442
-0.0287898
0.107182
-0.157283
0.0845837
-0.399851
0.175629
-0.169461
0.422989
0.0127103
0.0256299
-1.99636e-12
0.0402831
-0.0404653
-0.0861718
0.0863645
-0.126045
-0.347004
-0.182296
0.289885
-0.611814
0.489677
-0.510983
1.22586
-0.156837
0.318405
-0.519434
0.114594
-0.0445161
-0.195132
-0.275156
0.21036
0.578838
0.111055
-0.0536153
-0.122969
-0.048047
0.061902
0.125103
0.0734509
-0.0997799
0.146061
-0.00417897
0.0171445
0.0328129
0.00391891
-0.0166106
-0.0292608
-0.203863
0.18458
0.507766
-0.125738
0.0621165
0.22992
-0.107808
0.129465
-0.339635
0.124534
-0.0802568
0.295196
-0.0409609
0.0423261
0.150893
0.115098
-0.0582467
-0.203779
-0.0476353
0.051422
0.149735
0.0854314
-0.106587
-0.279143
0.139954
-0.201352
-0.454297
-0.241097
0.102307
0.399414
0.128217
-0.100421
-0.267664
-0.0320285
0.0533337
-0.144222
-0.0275653
0.0701976
0.146706
0.125469
-0.153442
0.367028
-0.0299106
0.0134435
0.0644361
-0.134161
0.202962
-0.36215
0.199403
-0.145755
-0.490374
0.119903
-0.248525
0.489168
-0.147175
0.180699
-0.416055
0.0394278
-0.069454
0.147956
-0.0300831
0.0162142
-0.0562202
-0.0529039
0.0886287
0.147022
-0.0356815
0.0422286
-0.100583
0.0784961
-0.0465796
0.176721
0.0686987
-0.0728816
-0.134712
0.082858
-0.111333
0.239494
0.0324034
-0.0795647
-0.146195
-0.0306838
0.018538
-0.0749367
-0.0182298
0.0699035
0.0953345
-0.201445
0.173375
0.509452
-0.122074
0.0277329
-0.147229
0.110344
-0.0508131
0.207598
-0.101489
0.0251048
-0.169982
-0.0374053
0.0556646
0.0940531
-0.223501
0.458473
1.04095
0.0921958
-0.0350762
-0.145212
0.473046
-0.499454
-1.20359
0.056626
-0.0263041
0.108611
-0.0391602
0.0246097
-0.10597
-0.0672221
0.0606518
-0.120904
0.482472
-0.295306
1.01426
-0.118197
0.0497984
-0.246432
-0.0662849
0.116458
0.223641
-0.147712
0.114715
0.367607
-0.0241713
0.048907
0.0919898
0.0686156
-0.0524459
0.236051
-0.099453
0.106015
-0.28421
0.187119
-0.156862
-0.455253
-0.21732
0.109077
0.467835
0.136928
-0.0946205
0.310217
-0.227633
0.248747
-0.555225
-0.165017
0.236937
-0.660002
0.126432
-0.166813
-0.310294
-0.0749494
0.0446869
0.151457
-0.00865537
-0.00406555
-1.14439e-12
0.0162641
0.0117131
-0.00536961
-0.0175615
-0.0150114
9.6266e-06
0.0706907
-0.0288758
0.116945
0.00317829
0.0105727
0.00207547
-0.0160186
-0.00782061
1.952e-12
-0.0149566
-0.0192392
-0.00133178
-0.0066595
-0.0148587
-8.72326e-07
0.021201
0.00994114
0.00437573
0.0820655
-0.151941
-0.313692
0.0378415
-0.0489906
-0.0915441
-0.164642
0.0915686
0.347925
-0.00487587
-0.00946569
1.06245e-12
-0.0450622
0.0442985
-0.117832
-0.05479
0.026476
0.126021
-0.354656
0.262056
0.688913
-0.259909
0.190039
-0.775714
0.226195
-0.32193
0.870475
-0.0957023
0.174054
-0.43526
-0.0621794
0.118594
0.292475
-0.147531
0.0635015
-0.298511
0.350903
-0.138286
-0.675678
-0.069454
0.129528
0.3006
-0.1395
0.0644516
-0.236077
-0.214887
0.193872
0.59167
-0.281883
0.288996
-0.744541
-0.415115
0.430817
-0.849806
0.328956
-0.381173
-0.907506
-0.421277
0.192242
-0.902572
-0.114237
0.291054
0.701541
-0.337518
0.139178
-0.838015
-0.54375
0.416364
1.04139
0.271572
-0.48026
-0.90215
0.282614
-0.161298
0.564287
0.201455
-0.148545
0.612933
-0.194041
0.197428
0.528118
-0.19951
0.135368
-0.408489
-0.0819037
0.16474
0.40232
-0.190301
0.088545
-0.403636
0.429822
-0.302011
-1.02758
0.132565
-0.380973
0.717837
-0.309673
0.235414
-0.902523
0.596988
-0.482494
-1.18155
0.473677
-0.330907
-1.16921
-0.628776
0.623672
1.18719
0.180989
-0.166267
0.547677
0.26074
-0.245087
-0.852335
-0.0584872
0.0255999
-0.152354
-0.0344603
0.0589681
-0.188948
-0.323754
0.32008
-0.895025
0.427758
-0.662564
1.24926
-0.132901
0.170123
0.416793
-0.0593805
0.136474
0.31135
-0.157165
0.059182
-0.395971
0.178572
-0.240549
-0.562442
-0.300461
0.207127
0.612515
0.466865
-0.23263
-0.813952
-0.233073
0.21146
-0.7337
-0.367026
0.445656
-0.922958
-0.470942
0.452674
1.28958
-0.562965
0.202529
0.976249
0.152008
-0.303813
-0.68648
0.362846
-0.161172
0.783471
-0.35729
0.429024
-1.09141
-0.222734
0.595064
-1.12878
0.459699
-0.40732
-1.10226
-0.364738
0.406599
0.934549
-0.468388
0.473125
1.14701
-0.215503
0.287965
0.664359
-0.324784
0.357186
-0.848779
0.1608
-0.335662
-0.757025
0.371848
-0.182262
0.887678
-0.304832
0.278727
-0.79427
-0.137204
0.279707
0.629979
-0.257834
0.118958
-0.606822
0.33476
-0.255367
-0.749266
-0.231535
0.199668
0.545622
0.240636
-0.268083
0.647368
0.167511
-0.211072
0.495335
-0.137961
0.181143
0.33376
-0.215373
0.524026
-1.07683
-0.134342
0.151139
-0.324242
-0.13825
0.137818
-0.40199
-0.13697
0.129628
0.303912
-0.109446
0.0677597
-0.230032
-0.113177
0.188377
-0.360932
-0.579302
0.215107
1.08852
0.264936
-0.508519
0.95457
0.396528
-0.410498
-0.987072
0.157695
-0.195206
0.426896
0.138255
-0.186533
-0.441109
0.269697
-0.173688
-0.4656
0.309031
-0.326633
0.804801
0.327003
-0.247505
-0.77927
0.104758
-0.0790445
-0.173315
-0.0928313
0.103981
0.207114
0.125721
-0.122184
0.308564
0.136273
-0.0922113
0.307131
-0.132598
0.0869034
-0.285724
-0.358053
0.174515
0.661922
-0.150242
0.29781
-0.650114
0.302941
-0.200403
-0.630454
0.115834
-0.19929
0.41741
-1.54677
-0.378745
1.06272
-0.236075
-0.475231
-0.204444
0.620698
-0.123623
0.447605
-0.267776
-0.296324
-1.47309
0.422337
0.632796
-1.07362
-0.690134
-0.145619
0.507521
0.115945
0.241308
1.50128e-15
-0.020571
0.00960547
0.020571
-0.0315366
2.27479e-15
2.38991e-14
0.0119797
3.07646e-14
-0.0291623
1.77849
-0.679135
-0.327768
-0.094179
-0.402095
0.334432
0.158759
-0.289964
0.0412375
0.0686182
-0.179468
-0.183057
-0.148981
1.23281
0.142567
0.471345
-1.25696
1.65376
-0.984043
-0.0726504
-0.0833348
0.363139
-0.116262
-0.181834
0.353051
-1.09047
0.127421
0.339959
0.274487
-0.835196
-0.945002
0.583058
0.423466
-0.437025
1.24869
-1.67676
-0.27938
-0.459771
0.285577
-0.0223636
-0.0727219
0.512607
-1.62523
0.356526
-1.58008
1.29708
0.859803
0.430348
-1.24849
-0.306697
-0.782326
-0.318222
-0.960051
0.675518
-1.18001
0.27464
0.530679
0.0615663
0.136509
-0.366496
0.325904
-0.36989
0.199088
-0.164953
0.707839
-0.208365
-0.411447
0.870016
-0.688352
-0.320943
0.473857
0.454021
0.162245
0.432802
-1.5134
0.696995
-1.65293
1.43443
-0.692691
1.01322
0.40143
-0.991075
-0.653668
-0.200624
-1.0157
1.63777
-0.419717
-0.15407
-0.820655
0.982266
-0.349629
-0.159663
0.256334
-0.799165
0.149999
0.465525
0.867159
-0.55593
-0.480764
0.166932
0.383186
-0.39375
-0.244339
-0.311757
-0.0591353
0.154271
-0.064023
0.104161
0.145894
-0.180673
-0.377373
1.08334
-0.537046
0.184169
-0.509044
0.0878862
0.304245
-0.705896
0.644131
0.0274113
0.275493
-0.24017
-0.107477
-0.0549383
-0.376385
0.195099
0.185336
0.10288
0.71224
-0.604655
-0.521937
0.174894
0.198667
-0.0569837
0.0778993
-0.277393
-0.237434
-0.213719
0.521937
-0.369108
-0.0179935
-0.138659
0.513619
-0.0917015
-0.349614
0.187244
0.248803
0.254459
0.302654
-0.130714
-0.0677524
-0.239987
-0.066319
0.102028
0.101372
0.0484863
0.0840845
0.146282
0.284862
-0.485759
0.257363
-0.376385