/*--------------------------------*- C++ -*----------------------------------*\
  =========                 |
  \\      /  F ield         | OpenFOAM: The Open Source CFD Toolbox
   \\    /   O peration     | Website:  https://openfoam.org
    \\  /    A nd           | Version:  6
     \\/     M anipulation  |
\*---------------------------------------------------------------------------*/
FoamFile
{
    version     2.0;
    format      ascii;
    class       volScalarField;
    location    "1.43";
    object      rho;
}
// * * * * * * * * * * * * * * * * * * * * * * * * * * * * * * * * * * * * * //

dimensions      [1 -3 0 0 0 0 0];

internalField   nonuniform List<scalar> 
5835
(
1.77604e-05
1.18662e-05
2.78883e-05
1.20089e-05
1.19616e-05
1.18592e-05
1.18568e-05
1.18968e-05
1.18563e-05
1.1889e-05
1.18572e-05
1.20814e-05
1.18571e-05
1.18577e-05
1.26984e-05
1.18586e-05
3.71003e-05
3.63165e-05
1.18658e-05
1.18584e-05
4.06588e-05
1.18571e-05
3.89243e-05
1.23852e-05
1.1857e-05
1.18584e-05
1.28118e-05
1.186e-05
1.189e-05
1.18567e-05
1.186e-05
1.18624e-05
1.1857e-05
1.18571e-05
1.18622e-05
1.18584e-05
1.18601e-05
1.18567e-05
1.18583e-05
1.18586e-05
1.18739e-05
1.18593e-05
1.18586e-05
1.18602e-05
1.18575e-05
1.18617e-05
1.18569e-05
1.18645e-05
1.18653e-05
1.1857e-05
1.18582e-05
1.18574e-05
1.18571e-05
1.1857e-05
1.1857e-05
1.18571e-05
1.1857e-05
1.18569e-05
1.18583e-05
1.18601e-05
1.18676e-05
1.18577e-05
1.18808e-05
1.18749e-05
1.18582e-05
1.18602e-05
1.18574e-05
1.18609e-05
1.18593e-05
1.18633e-05
1.18599e-05
1.18586e-05
1.18613e-05
1.18568e-05
1.18596e-05
1.18568e-05
1.18571e-05
1.1862e-05
1.1858e-05
1.18569e-05
1.18567e-05
1.18609e-05
1.18665e-05
2.89328e-05
1.7518e-05
1.18566e-05
1.19206e-05
1.18604e-05
1.19016e-05
1.20178e-05
1.18565e-05
1.18953e-05
1.18568e-05
1.18699e-05
1.18695e-05
1.18601e-05
1.18613e-05
1.18679e-05
1.23117e-05
1.18573e-05
1.1858e-05
1.1863e-05
1.18577e-05
1.18601e-05
1.20778e-05
1.18609e-05
1.18569e-05
1.22687e-05
1.18612e-05
1.18701e-05
1.18643e-05
1.18588e-05
1.22356e-05
1.18689e-05
1.18607e-05
1.18569e-05
1.18613e-05
1.18641e-05
1.18626e-05
1.19509e-05
1.19328e-05
1.18569e-05
1.1857e-05
1.186e-05
1.18616e-05
1.18678e-05
1.18697e-05
1.18633e-05
1.18643e-05
1.18581e-05
1.18687e-05
1.18589e-05
1.18583e-05
1.18696e-05
1.18741e-05
1.18625e-05
5.09922e-05
1.18592e-05
5.37842e-05
1.1864e-05
1.18572e-05
1.18605e-05
4.77612e-05
4.96177e-05
5.43409e-05
5.5363e-05
2.35683e-05
2.82316e-05
1.18666e-05
1.18926e-05
2.8724e-05
1.18791e-05
1.18567e-05
1.18718e-05
1.52564e-05
1.61916e-05
1.22131e-05
1.18572e-05
1.18804e-05
1.43524e-05
1.18811e-05
1.18569e-05
1.18613e-05
1.18571e-05
1.24826e-05
1.18712e-05
1.18997e-05
1.20714e-05
1.18617e-05
1.1877e-05
1.18564e-05
1.18792e-05
1.18795e-05
1.18568e-05
1.18658e-05
1.18604e-05
1.18665e-05
1.22665e-05
1.18604e-05
1.19364e-05
1.18673e-05
1.18602e-05
1.18589e-05
1.18568e-05
1.18778e-05
1.18566e-05
1.18682e-05
1.18572e-05
1.18823e-05
1.18603e-05
1.18575e-05
1.18571e-05
1.18606e-05
1.18626e-05
1.18717e-05
1.1858e-05
1.18579e-05
1.18581e-05
1.18576e-05
1.18577e-05
4.515e-05
4.28608e-05
1.18581e-05
1.18581e-05
1.18587e-05
1.18589e-05
1.18569e-05
1.18975e-05
1.18609e-05
1.18635e-05
1.1858e-05
1.18612e-05
1.18683e-05
1.18627e-05
1.18589e-05
1.18583e-05
1.18621e-05
1.1857e-05
1.18583e-05
1.18639e-05
1.1865e-05
1.18568e-05
1.1857e-05
1.19263e-05
1.18704e-05
1.18563e-05
1.18567e-05
5.73783e-05
1.18568e-05
1.18691e-05
1.18585e-05
1.18648e-05
1.18652e-05
1.18693e-05
1.18567e-05
1.18775e-05
3.05372e-05
1.18574e-05
2.88082e-05
1.18855e-05
1.18579e-05
1.18999e-05
1.18602e-05
1.18616e-05
1.18648e-05
1.18563e-05
1.18648e-05
1.18567e-05
1.18565e-05
1.18628e-05
1.18624e-05
1.18775e-05
1.18611e-05
1.18565e-05
1.18692e-05
1.1888e-05
1.18612e-05
1.19541e-05
1.18567e-05
1.18754e-05
1.18596e-05
1.21797e-05
1.20779e-05
1.18594e-05
1.22228e-05
1.18569e-05
1.1857e-05
1.18578e-05
1.21832e-05
1.21402e-05
1.18588e-05
1.18577e-05
1.18618e-05
1.18622e-05
1.18669e-05
1.18565e-05
1.18599e-05
1.18574e-05
1.18724e-05
1.18568e-05
1.18586e-05
1.18572e-05
1.30313e-05
1.18623e-05
1.18569e-05
1.1857e-05
1.1857e-05
1.18578e-05
1.18682e-05
1.18593e-05
3.55932e-05
1.82547e-05
1.1882e-05
2.11761e-05
1.1857e-05
1.1857e-05
1.18986e-05
1.18588e-05
1.18612e-05
3.39887e-05
1.18641e-05
5.5078e-05
5.65046e-05
3.26916e-05
1.71195e-05
3.26065e-05
1.18583e-05
3.24284e-05
1.18567e-05
2.52358e-05
5.74971e-05
2.3377e-05
4.16184e-05
1.25967e-05
1.18619e-05
1.18597e-05
1.18656e-05
1.21806e-05
1.18567e-05
1.18757e-05
1.18735e-05
1.18562e-05
1.18595e-05
1.26686e-05
1.18577e-05
1.34105e-05
1.18573e-05
1.18567e-05
3.72651e-05
1.18864e-05
1.18567e-05
1.23798e-05
1.1857e-05
1.18741e-05
1.18638e-05
1.18627e-05
1.18603e-05
1.18574e-05
1.18567e-05
1.18574e-05
1.18588e-05
3.99714e-05
1.20438e-05
3.89329e-05
1.18666e-05
1.18573e-05
1.18563e-05
1.18566e-05
1.18571e-05
1.18611e-05
1.37195e-05
1.18563e-05
1.18564e-05
1.18834e-05
1.18566e-05
1.18842e-05
1.18791e-05
1.18653e-05
1.31688e-05
1.18566e-05
1.20378e-05
1.18723e-05
1.18651e-05
1.1875e-05
1.54335e-05
1.18696e-05
1.18591e-05
1.18566e-05
1.18838e-05
1.18618e-05
1.18711e-05
1.18655e-05
1.18955e-05
1.18565e-05
1.22772e-05
1.18629e-05
1.18718e-05
1.18585e-05
1.18598e-05
1.18569e-05
1.18577e-05
1.18569e-05
1.18627e-05
1.18578e-05
1.18575e-05
1.18587e-05
1.18599e-05
1.18592e-05
1.18584e-05
1.18616e-05
1.18573e-05
1.18578e-05
1.18566e-05
1.18587e-05
1.18611e-05
1.18661e-05
1.1888e-05
1.18579e-05
1.18571e-05
1.18615e-05
1.18582e-05
1.18572e-05
1.18649e-05
1.18567e-05
1.18694e-05
1.18947e-05
1.18577e-05
1.18751e-05
1.21508e-05
1.18576e-05
1.18667e-05
1.18624e-05
1.18834e-05
1.19756e-05
1.18582e-05
1.18965e-05
1.25072e-05
1.18678e-05
1.18664e-05
1.18694e-05
1.18686e-05
1.18634e-05
1.18569e-05
1.18757e-05
1.18615e-05
1.18653e-05
1.18838e-05
1.18604e-05
1.18686e-05
1.18571e-05
1.18634e-05
1.1874e-05
1.18946e-05
1.19082e-05
1.18684e-05
1.18627e-05
1.18567e-05
1.1858e-05
1.18571e-05
1.18779e-05
1.18566e-05
1.18584e-05
1.1861e-05
1.18853e-05
1.1864e-05
1.18849e-05
1.18623e-05
1.187e-05
1.18602e-05
1.1885e-05
1.18563e-05
1.18755e-05
1.18563e-05
1.18646e-05
1.18782e-05
1.18567e-05
1.18563e-05
1.18731e-05
1.18675e-05
1.18716e-05
1.18573e-05
1.18574e-05
1.18938e-05
1.18562e-05
1.18728e-05
1.18601e-05
1.18732e-05
1.18903e-05
1.18642e-05
1.18576e-05
1.1862e-05
1.18931e-05
1.18568e-05
1.19143e-05
1.18671e-05
1.18695e-05
1.18583e-05
1.18702e-05
1.18567e-05
1.18591e-05
1.18969e-05
1.18841e-05
1.18566e-05
1.18584e-05
1.18564e-05
1.18651e-05
1.18801e-05
1.186e-05
1.1865e-05
1.18567e-05
1.18576e-05
1.1857e-05
1.18562e-05
1.18607e-05
1.18944e-05
1.18637e-05
1.18662e-05
1.18608e-05
1.18672e-05
1.18635e-05
1.2713e-05
1.18573e-05
1.18672e-05
1.18575e-05
1.18623e-05
1.1862e-05
1.18645e-05
1.18569e-05
1.20011e-05
1.18605e-05
1.18772e-05
1.18584e-05
1.18593e-05
1.22744e-05
1.186e-05
1.18594e-05
5.11825e-05
1.18732e-05
1.18609e-05
5.00777e-05
4.88146e-05
4.87578e-05
1.18633e-05
1.18578e-05
1.18625e-05
1.1879e-05
2.83773e-05
2.09054e-05
1.18667e-05
1.18771e-05
1.18963e-05
2.87052e-05
4.44154e-05
1.18579e-05
5.54297e-05
1.18712e-05
1.18587e-05
1.18775e-05
3.11878e-05
1.18569e-05
1.42516e-05
1.18865e-05
4.50832e-05
1.18603e-05
1.40423e-05
1.22148e-05
1.18701e-05
1.18635e-05
1.18567e-05
1.18834e-05
1.18974e-05
1.22736e-05
1.18565e-05
1.20571e-05
1.1857e-05
1.18658e-05
1.18583e-05
1.18577e-05
1.1858e-05
1.18589e-05
1.18715e-05
1.18785e-05
5.48086e-05
1.18791e-05
1.1907e-05
1.18618e-05
1.18596e-05
1.193e-05
1.18562e-05
1.1859e-05
1.18775e-05
1.18713e-05
1.18561e-05
1.18564e-05
1.18621e-05
1.18569e-05
3.93149e-05
1.18587e-05
1.18695e-05
1.18604e-05
1.1859e-05
1.1865e-05
1.18567e-05
1.1857e-05
1.18627e-05
1.18716e-05
1.18694e-05
1.18616e-05
1.18652e-05
1.18561e-05
1.18557e-05
1.18581e-05
1.18667e-05
1.18819e-05
1.18635e-05
1.18562e-05
1.1859e-05
1.18558e-05
1.18629e-05
1.18745e-05
1.18555e-05
1.18662e-05
1.18737e-05
1.18675e-05
1.56328e-05
1.18604e-05
1.18578e-05
1.18897e-05
1.18573e-05
1.1856e-05
1.18565e-05
1.21572e-05
1.25437e-05
1.20946e-05
1.18584e-05
1.21456e-05
1.18556e-05
1.18641e-05
1.18796e-05
4.01908e-05
1.18581e-05
1.22415e-05
1.18621e-05
1.18592e-05
1.24331e-05
1.18596e-05
2.9498e-05
1.18584e-05
2.25767e-05
2.72334e-05
1.18639e-05
1.18623e-05
3.18526e-05
3.08377e-05
2.26929e-05
1.18584e-05
1.18576e-05
1.18569e-05
1.18628e-05
1.24174e-05
5.32177e-05
1.18571e-05
1.31671e-05
1.18565e-05
1.18642e-05
1.18605e-05
1.18593e-05
5.41337e-05
4.26785e-05
1.18603e-05
1.2271e-05
1.1857e-05
2.92747e-05
1.18569e-05
1.18734e-05
1.18827e-05
3.22253e-05
1.2572e-05
3.49156e-05
1.1857e-05
1.18562e-05
1.18716e-05
1.21092e-05
1.20853e-05
1.18631e-05
1.18623e-05
1.18628e-05
1.18553e-05
1.18914e-05
1.35994e-05
1.18831e-05
1.18558e-05
1.35322e-05
1.18555e-05
1.18693e-05
1.1857e-05
1.18624e-05
1.18578e-05
1.18603e-05
1.18581e-05
1.18575e-05
1.18584e-05
1.18573e-05
1.18569e-05
1.18667e-05
1.18563e-05
1.18736e-05
1.1857e-05
1.18584e-05
1.18607e-05
1.19675e-05
1.18797e-05
1.19002e-05
1.18586e-05
1.18598e-05
1.18565e-05
1.18569e-05
1.18622e-05
1.18566e-05
1.18829e-05
1.18599e-05
1.18831e-05
1.1858e-05
1.18561e-05
1.21999e-05
1.2191e-05
1.18972e-05
1.18564e-05
1.1866e-05
1.18736e-05
1.18626e-05
1.18614e-05
1.18603e-05
1.18562e-05
1.18658e-05
1.18648e-05
1.18566e-05
1.186e-05
1.1856e-05
1.18802e-05
1.19088e-05
1.18993e-05
1.18619e-05
1.18744e-05
1.18571e-05
1.19115e-05
1.18687e-05
1.18594e-05
1.18569e-05
1.18572e-05
1.18624e-05
1.1856e-05
1.18561e-05
1.18687e-05
1.18672e-05
1.18667e-05
1.1856e-05
1.18864e-05
1.18559e-05
1.18556e-05
1.18564e-05
1.18941e-05
1.18746e-05
1.18899e-05
1.18629e-05
1.18557e-05
1.18847e-05
1.18633e-05
1.1876e-05
1.18636e-05
1.18565e-05
1.19205e-05
1.18615e-05
1.1867e-05
1.18672e-05
1.18658e-05
1.18555e-05
1.18608e-05
1.1874e-05
1.18564e-05
1.18742e-05
1.18739e-05
1.19018e-05
1.18615e-05
1.18838e-05
1.1857e-05
1.18556e-05
1.18709e-05
1.18759e-05
1.18663e-05
1.18611e-05
1.18572e-05
1.1885e-05
1.18562e-05
1.18667e-05
1.18592e-05
1.18556e-05
1.18846e-05
1.18754e-05
1.18671e-05
1.18691e-05
1.18762e-05
1.18618e-05
1.18633e-05
1.18719e-05
1.18653e-05
1.18577e-05
1.1857e-05
1.1857e-05
1.18581e-05
1.19093e-05
1.18661e-05
1.18572e-05
1.18599e-05
1.18696e-05
1.19258e-05
1.19029e-05
1.18577e-05
1.18555e-05
1.18577e-05
1.18637e-05
1.18571e-05
1.1882e-05
1.1859e-05
1.18562e-05
1.18664e-05
1.1857e-05
1.18617e-05
1.18637e-05
1.18596e-05
1.18586e-05
1.18554e-05
1.18567e-05
1.18573e-05
1.18579e-05
1.18573e-05
1.18588e-05
1.18838e-05
1.1856e-05
1.18614e-05
1.1858e-05
1.18546e-05
1.18557e-05
1.18626e-05
1.18682e-05
1.18861e-05
1.18897e-05
1.70989e-05
1.97521e-05
2.23926e-05
1.60953e-05
1.18667e-05
1.18578e-05
1.18567e-05
1.18571e-05
1.1857e-05
1.18623e-05
1.18598e-05
1.1858e-05
1.18598e-05
1.18585e-05
1.18582e-05
1.18603e-05
1.18624e-05
1.18587e-05
1.1858e-05
1.18579e-05
1.18571e-05
1.18569e-05
1.18597e-05
1.18565e-05
1.18686e-05
1.18635e-05
1.1863e-05
1.19274e-05
1.18714e-05
1.45644e-05
1.18669e-05
1.19036e-05
1.19642e-05
1.18686e-05
1.18582e-05
1.18565e-05
1.61355e-05
1.18575e-05
1.18567e-05
1.18577e-05
1.19035e-05
1.18864e-05
1.18661e-05
1.18728e-05
1.1917e-05
1.19048e-05
1.1875e-05
1.18815e-05
1.18572e-05
1.19167e-05
1.18761e-05
1.1858e-05
1.18923e-05
1.18567e-05
1.18782e-05
1.54609e-05
1.21526e-05
1.19139e-05
1.18662e-05
1.18566e-05
1.19046e-05
1.21225e-05
1.18565e-05
2.02967e-05
1.18591e-05
3.45812e-05
1.18564e-05
1.19175e-05
1.18704e-05
1.18581e-05
1.18567e-05
1.18825e-05
1.18619e-05
1.18754e-05
1.18752e-05
1.46478e-05
1.52845e-05
1.18768e-05
1.18807e-05
1.20426e-05
1.18567e-05
1.47247e-05
1.1857e-05
1.19588e-05
1.18883e-05
1.1857e-05
6.64098e-05
7.09661e-05
1.18571e-05
1.18585e-05
1.18573e-05
6.26954e-05
7.07931e-05
7.32525e-05
1.18682e-05
5.83737e-05
1.18582e-05
1.18569e-05
1.18656e-05
7.24304e-05
5.62299e-05
1.18601e-05
7.02856e-05
5.27754e-05
1.18579e-05
1.18579e-05
1.18571e-05
7.35875e-05
1.18575e-05
1.18575e-05
7.26614e-05
1.18568e-05
5.8834e-05
1.18568e-05
1.18569e-05
1.1857e-05
6.28792e-05
5.35314e-05
6.17101e-05
1.18595e-05
1.18575e-05
1.18632e-05
5.13698e-05
7.17692e-05
7.10061e-05
5.87845e-05
5.4974e-05
1.18573e-05
1.18577e-05
6.75106e-05
1.18587e-05
1.18583e-05
5.33159e-05
5.48085e-05
6.3195e-05
1.18576e-05
6.0326e-05
1.18576e-05
1.24301e-05
1.18603e-05
1.18626e-05
1.18644e-05
1.18575e-05
1.18712e-05
1.18577e-05
1.18974e-05
1.18922e-05
1.19033e-05
1.47672e-05
1.53615e-05
1.1868e-05
1.18662e-05
1.21092e-05
1.18762e-05
1.1899e-05
5.0657e-05
1.18584e-05
1.18571e-05
4.66245e-05
1.18569e-05
1.20034e-05
1.18628e-05
1.18569e-05
1.18567e-05
1.18664e-05
1.18595e-05
1.18606e-05
1.18661e-05
1.18624e-05
1.18572e-05
1.18666e-05
1.18602e-05
1.18673e-05
1.18595e-05
1.18573e-05
1.18596e-05
1.18571e-05
1.18739e-05
1.1857e-05
1.1858e-05
1.18574e-05
1.18573e-05
1.18568e-05
1.18669e-05
1.18573e-05
1.18615e-05
1.18614e-05
1.18604e-05
1.18592e-05
1.19138e-05
1.18671e-05
1.18566e-05
1.18594e-05
1.18566e-05
1.42254e-05
3.11015e-05
1.18568e-05
1.1857e-05
1.23462e-05
3.2332e-05
1.1857e-05
1.4717e-05
1.25457e-05
1.18571e-05
1.18571e-05
1.18569e-05
1.18648e-05
1.18597e-05
1.18589e-05
1.18578e-05
1.1866e-05
1.18569e-05
1.18571e-05
1.18574e-05
1.18606e-05
1.18579e-05
1.1867e-05
1.18626e-05
1.18609e-05
1.18734e-05
1.18605e-05
1.1857e-05
1.18792e-05
1.18734e-05
1.18716e-05
1.21926e-05
1.74425e-05
1.18576e-05
1.18707e-05
1.18569e-05
1.18573e-05
1.18663e-05
1.18741e-05
1.18567e-05
1.18575e-05
1.18639e-05
1.18584e-05
1.18559e-05
1.18608e-05
1.18772e-05
1.18579e-05
1.18597e-05
1.18569e-05
1.18669e-05
1.18646e-05
1.18628e-05
1.18687e-05
1.18651e-05
1.18634e-05
1.18852e-05
1.18557e-05
1.18704e-05
1.18561e-05
1.18749e-05
1.18582e-05
1.18725e-05
1.18564e-05
1.18669e-05
1.18655e-05
1.1864e-05
1.18732e-05
1.1877e-05
1.18587e-05
1.1877e-05
1.1919e-05
1.18595e-05
1.18661e-05
1.18634e-05
1.18719e-05
1.18828e-05
1.18627e-05
1.18579e-05
1.18632e-05
1.18651e-05
1.1864e-05
1.18695e-05
1.18806e-05
1.18737e-05
1.18768e-05
1.18779e-05
1.18572e-05
1.18574e-05
1.1874e-05
1.1882e-05
1.18564e-05
1.18673e-05
1.18746e-05
1.18795e-05
1.18572e-05
1.18826e-05
1.1857e-05
1.19004e-05
1.18571e-05
1.18645e-05
1.18571e-05
1.18598e-05
1.18565e-05
1.18788e-05
1.18574e-05
1.18573e-05
1.18575e-05
1.18562e-05
1.18785e-05
1.1857e-05
1.18568e-05
1.18729e-05
1.18997e-05
1.18573e-05
1.18637e-05
1.18573e-05
1.18818e-05
1.18655e-05
1.18557e-05
1.18598e-05
1.1863e-05
1.18648e-05
1.18718e-05
1.19134e-05
1.18592e-05
1.18899e-05
1.18673e-05
1.18569e-05
1.18801e-05
1.18567e-05
1.18641e-05
1.18585e-05
1.18836e-05
1.18636e-05
1.1873e-05
1.19122e-05
1.1855e-05
1.18565e-05
1.18571e-05
1.18589e-05
1.18569e-05
1.18598e-05
1.18562e-05
1.18943e-05
1.18646e-05
1.18569e-05
1.18736e-05
1.1864e-05
1.18569e-05
1.18736e-05
1.18774e-05
1.18668e-05
1.18573e-05
1.18752e-05
1.18623e-05
1.18649e-05
1.18705e-05
1.18654e-05
1.1879e-05
1.18779e-05
1.18758e-05
1.18558e-05
1.18661e-05
1.18771e-05
1.18605e-05
1.18585e-05
1.18725e-05
1.1924e-05
1.18704e-05
1.18607e-05
1.1861e-05
1.18744e-05
1.18775e-05
1.1864e-05
1.1869e-05
1.18665e-05
1.18652e-05
1.18576e-05
1.197e-05
1.1858e-05
1.18714e-05
1.18575e-05
1.1857e-05
1.18726e-05
1.18651e-05
1.1858e-05
1.18704e-05
1.1862e-05
1.18569e-05
1.18602e-05
1.18576e-05
1.18626e-05
1.1869e-05
1.18733e-05
1.18804e-05
1.1856e-05
1.1858e-05
1.18652e-05
1.18605e-05
1.18569e-05
1.18682e-05
1.18564e-05
1.18672e-05
1.2116e-05
1.18613e-05
1.18666e-05
1.18641e-05
1.18693e-05
1.18685e-05
1.20019e-05
1.1857e-05
1.18914e-05
1.18706e-05
1.18716e-05
1.18761e-05
1.18742e-05
1.3714e-05
1.19141e-05
1.19618e-05
1.18569e-05
1.18569e-05
1.18573e-05
1.18589e-05
1.18587e-05
1.18668e-05
1.18881e-05
1.30832e-05
1.18746e-05
1.18698e-05
1.18669e-05
1.19189e-05
1.1864e-05
1.18613e-05
1.18632e-05
1.18866e-05
1.18641e-05
1.18616e-05
1.18606e-05
1.18941e-05
1.26966e-05
1.18656e-05
1.1896e-05
1.18591e-05
1.18624e-05
1.18775e-05
1.18588e-05
1.18576e-05
1.18572e-05
1.18564e-05
1.27619e-05
1.18995e-05
1.18584e-05
1.1861e-05
1.18583e-05
1.18646e-05
1.1859e-05
1.18612e-05
1.18656e-05
1.22298e-05
1.18795e-05
1.18892e-05
1.18788e-05
1.18609e-05
1.18572e-05
1.18683e-05
1.18582e-05
1.19411e-05
1.18782e-05
1.18568e-05
1.18576e-05
1.18784e-05
1.1922e-05
1.18728e-05
1.18568e-05
1.19243e-05
1.18565e-05
1.19286e-05
1.18664e-05
1.19059e-05
1.18774e-05
1.18568e-05
1.18566e-05
1.18592e-05
1.1865e-05
1.18686e-05
1.18585e-05
1.18821e-05
1.18567e-05
1.18576e-05
1.18581e-05
1.18857e-05
1.18577e-05
1.32803e-05
1.19024e-05
1.186e-05
1.18559e-05
1.19164e-05
1.55717e-05
2.39675e-05
1.18568e-05
1.1857e-05
1.18569e-05
1.18579e-05
1.18596e-05
1.18565e-05
1.18628e-05
1.18569e-05
1.18644e-05
1.19319e-05
6.73873e-05
1.18607e-05
1.18561e-05
1.18636e-05
1.3167e-05
1.59294e-05
1.18582e-05
1.18577e-05
2.19674e-05
1.18792e-05
1.1857e-05
1.18577e-05
1.47823e-05
1.18609e-05
1.18591e-05
1.33388e-05
2.7984e-05
4.93754e-05
1.18567e-05
5.46348e-05
1.73571e-05
1.1866e-05
5.11384e-05
1.18621e-05
2.74511e-05
5.02063e-05
1.53247e-05
3.04671e-05
3.15367e-05
1.18665e-05
2.00058e-05
1.20997e-05
3.24596e-05
1.18605e-05
1.27402e-05
1.41105e-05
1.89827e-05
1.18614e-05
1.18606e-05
1.18578e-05
1.18609e-05
1.18572e-05
4.61128e-05
3.67948e-05
1.18572e-05
1.18573e-05
1.18572e-05
1.31661e-05
1.68738e-05
1.1863e-05
1.18584e-05
1.84304e-05
1.18585e-05
1.18611e-05
3.68612e-05
1.18729e-05
1.18584e-05
1.18571e-05
1.62161e-05
1.90237e-05
1.1872e-05
1.18706e-05
1.54345e-05
1.18772e-05
1.42341e-05
1.18637e-05
1.2863e-05
1.18568e-05
1.18611e-05
1.20875e-05
1.21028e-05
1.18573e-05
1.18651e-05
1.3809e-05
1.1857e-05
1.18779e-05
1.18572e-05
1.18644e-05
1.1857e-05
1.18559e-05
1.18566e-05
1.1862e-05
1.18605e-05
1.1868e-05
1.99015e-05
1.18602e-05
1.18631e-05
1.188e-05
1.52416e-05
1.18592e-05
1.18572e-05
1.18581e-05
1.18708e-05
1.18569e-05
1.18585e-05
1.19186e-05
1.18612e-05
1.18616e-05
1.18646e-05
1.18587e-05
1.1861e-05
1.18617e-05
1.18684e-05
1.18559e-05
1.18673e-05
1.3002e-05
1.18617e-05
1.18488e-05
1.24278e-05
1.18573e-05
1.18578e-05
1.18607e-05
1.18735e-05
1.92285e-05
1.91143e-05
1.18601e-05
1.18621e-05
1.18561e-05
1.18577e-05
1.18602e-05
1.18598e-05
1.28311e-05
1.18779e-05
1.18725e-05
1.18614e-05
1.18573e-05
1.18586e-05
1.18616e-05
1.18748e-05
1.18667e-05
2.06456e-05
1.18589e-05
1.18622e-05
1.18588e-05
1.1878e-05
1.18572e-05
1.18615e-05
1.25453e-05
1.31684e-05
1.18806e-05
1.1861e-05
1.18571e-05
1.18712e-05
1.51499e-05
2.50716e-05
1.18786e-05
1.1859e-05
1.18591e-05
1.186e-05
1.18655e-05
1.18802e-05
1.18624e-05
1.18723e-05
1.18644e-05
1.18669e-05
1.18569e-05
1.18699e-05
1.18519e-05
1.18633e-05
1.18631e-05
1.18568e-05
1.18592e-05
1.18573e-05
1.18579e-05
1.18631e-05
1.18591e-05
1.1857e-05
1.18586e-05
1.18627e-05
1.18595e-05
1.18576e-05
1.18572e-05
1.1857e-05
1.18595e-05
1.18595e-05
1.18599e-05
1.18617e-05
1.1859e-05
1.18615e-05
1.1859e-05
1.18569e-05
1.18618e-05
1.18579e-05
1.18581e-05
1.18633e-05
1.18627e-05
1.18577e-05
1.1857e-05
1.18571e-05
1.18588e-05
1.18608e-05
1.18595e-05
1.18572e-05
1.18583e-05
1.1857e-05
1.18593e-05
1.18592e-05
1.18572e-05
1.18586e-05
1.18577e-05
1.18584e-05
1.18623e-05
1.18582e-05
1.18576e-05
1.18618e-05
1.18599e-05
1.18581e-05
1.18583e-05
1.18569e-05
1.18598e-05
1.18571e-05
1.18641e-05
1.18635e-05
2.54199e-05
1.18592e-05
1.1857e-05
1.19393e-05
1.18622e-05
1.18638e-05
1.18659e-05
1.18623e-05
1.18699e-05
1.18597e-05
1.18576e-05
1.18637e-05
1.1858e-05
1.19776e-05
1.18907e-05
1.18585e-05
1.19598e-05
1.18644e-05
1.18673e-05
1.18572e-05
1.18644e-05
1.1873e-05
1.18608e-05
1.18693e-05
1.18682e-05
1.18571e-05
1.18878e-05
1.18572e-05
1.1857e-05
1.18634e-05
1.18777e-05
1.18619e-05
1.18703e-05
1.1859e-05
1.1858e-05
1.18581e-05
1.18754e-05
1.18651e-05
1.18563e-05
1.18578e-05
1.18673e-05
1.18702e-05
1.18639e-05
1.18589e-05
1.18668e-05
1.18565e-05
1.18551e-05
1.18586e-05
1.18578e-05
1.18759e-05
2.55556e-05
1.18704e-05
1.18581e-05
1.18878e-05
1.1877e-05
1.18566e-05
1.18652e-05
1.18589e-05
1.18639e-05
5.20542e-05
1.18593e-05
1.18571e-05
1.18717e-05
1.18558e-05
1.18915e-05
1.18805e-05
1.18705e-05
3.95465e-05
1.18771e-05
1.18574e-05
1.1867e-05
1.18592e-05
1.18735e-05
1.1864e-05
1.1855e-05
1.18781e-05
1.33463e-05
1.18837e-05
1.18673e-05
1.18583e-05
6.369e-05
1.18576e-05
1.18583e-05
2.53422e-05
1.18567e-05
1.42117e-05
1.18572e-05
1.18613e-05
1.187e-05
1.18615e-05
1.18582e-05
1.19369e-05
1.18623e-05
1.19124e-05
1.18763e-05
1.18634e-05
1.18639e-05
1.18603e-05
1.18753e-05
1.18647e-05
1.19119e-05
1.1946e-05
1.18965e-05
1.1857e-05
1.21126e-05
1.1864e-05
1.1891e-05
1.18863e-05
1.18611e-05
1.18567e-05
1.18606e-05
1.18622e-05
1.20442e-05
1.18708e-05
1.18679e-05
1.1858e-05
1.18611e-05
1.18554e-05
1.18583e-05
1.18584e-05
1.18571e-05
1.19588e-05
1.18579e-05
1.18687e-05
1.18649e-05
1.18593e-05
1.18569e-05
1.18673e-05
1.18592e-05
1.18637e-05
1.18573e-05
1.18634e-05
1.18571e-05
1.18877e-05
1.18635e-05
1.18613e-05
1.18606e-05
1.20041e-05
1.18659e-05
1.18604e-05
1.18604e-05
1.18596e-05
1.18998e-05
1.18715e-05
1.23081e-05
1.18575e-05
1.19878e-05
1.18704e-05
1.18801e-05
1.18588e-05
1.18616e-05
1.18572e-05
1.18617e-05
1.21687e-05
1.18654e-05
1.18573e-05
1.18581e-05
1.18579e-05
1.18623e-05
1.18596e-05
1.18571e-05
1.18606e-05
1.18579e-05
1.26829e-05
1.37256e-05
1.18574e-05
1.18576e-05
1.18622e-05
1.18576e-05
1.18594e-05
1.1857e-05
1.18587e-05
1.18583e-05
1.18594e-05
1.26142e-05
1.18581e-05
3.10414e-05
1.18624e-05
1.1858e-05
1.18574e-05
1.24035e-05
1.18697e-05
1.34661e-05
1.18566e-05
1.18575e-05
1.18596e-05
1.18613e-05
4.3558e-05
1.18653e-05
1.18575e-05
1.18587e-05
1.29959e-05
1.18599e-05
1.18583e-05
1.18618e-05
1.1859e-05
1.18574e-05
1.18583e-05
1.18597e-05
1.18828e-05
1.18577e-05
1.18712e-05
1.18571e-05
1.18602e-05
6.57109e-05
1.18619e-05
5.00127e-05
1.18575e-05
1.18588e-05
1.18628e-05
1.18573e-05
1.18589e-05
1.18574e-05
1.18563e-05
1.18564e-05
1.18632e-05
1.18636e-05
1.18609e-05
1.18742e-05
1.18569e-05
1.18603e-05
1.18635e-05
1.18645e-05
1.18616e-05
1.18568e-05
1.18573e-05
1.18603e-05
1.18684e-05
1.18576e-05
1.18571e-05
1.18964e-05
1.18619e-05
1.18623e-05
1.18588e-05
1.26031e-05
1.1859e-05
6.69457e-05
1.18575e-05
3.16086e-05
1.18584e-05
1.18609e-05
1.1857e-05
1.66336e-05
1.18577e-05
5.10961e-05
1.1857e-05
3.89098e-05
1.18571e-05
2.44771e-05
3.81433e-05
2.21929e-05
1.43858e-05
1.18941e-05
1.18886e-05
4.6186e-05
1.18684e-05
1.18744e-05
5.97021e-05
1.1876e-05
1.18938e-05
4.39346e-05
1.18663e-05
3.62268e-05
3.78424e-05
1.18602e-05
1.18877e-05
1.18593e-05
4.06496e-05
1.18707e-05
2.28765e-05
1.18628e-05
6.79635e-05
1.18574e-05
3.79796e-05
1.18616e-05
1.20831e-05
1.18687e-05
1.18569e-05
1.18608e-05
1.18583e-05
1.18581e-05
1.18606e-05
1.18969e-05
1.19055e-05
1.18785e-05
1.19275e-05
1.18568e-05
1.18568e-05
1.1864e-05
2.24323e-05
1.36042e-05
1.18573e-05
1.18571e-05
6.37438e-05
6.90867e-05
1.18571e-05
1.18571e-05
7.04574e-05
8.09946e-05
1.18586e-05
1.18575e-05
6.62849e-05
7.38955e-05
1.1857e-05
6.65888e-05
8.13296e-05
1.18572e-05
1.18575e-05
1.18587e-05
8.42552e-05
7.99465e-05
1.18597e-05
8.49238e-05
1.18577e-05
8.23675e-05
1.18575e-05
1.18593e-05
6.39774e-05
7.09409e-05
6.93509e-05
1.18571e-05
1.1858e-05
7.05387e-05
6.99026e-05
1.1857e-05
6.61592e-05
1.18585e-05
6.63431e-05
1.18585e-05
1.18574e-05
6.55245e-05
6.4256e-05
1.18584e-05
1.1859e-05
7.04503e-05
1.18575e-05
1.18581e-05
7.14326e-05
6.93732e-05
1.1857e-05
1.18574e-05
7.2419e-05
7.1124e-05
1.18597e-05
1.1857e-05
8.85247e-05
8.51823e-05
1.1857e-05
7.43557e-05
7.58953e-05
1.1857e-05
1.18579e-05
8.42409e-05
1.18571e-05
8.29953e-05
8.52549e-05
1.1857e-05
1.18596e-05
8.71773e-05
1.18572e-05
8.17931e-05
1.1857e-05
8.11721e-05
7.94339e-05
1.1857e-05
1.1857e-05
7.78283e-05
1.38479e-05
1.18882e-05
1.18767e-05
1.37002e-05
1.1874e-05
1.18765e-05
1.18638e-05
1.18842e-05
1.19185e-05
1.18785e-05
1.18574e-05
2.45279e-05
1.55914e-05
1.18889e-05
1.18618e-05
1.18709e-05
1.18575e-05
7.2465e-05
1.18571e-05
1.18571e-05
6.92987e-05
1.18573e-05
7.40439e-05
8.24954e-05
1.18573e-05
6.64092e-05
1.18573e-05
6.39194e-05
1.1857e-05
7.47337e-05
1.18573e-05
1.18569e-05
1.18568e-05
8.11797e-05
8.47147e-05
6.96545e-05
7.49513e-05
1.18571e-05
1.18587e-05
1.1858e-05
1.18588e-05
7.28848e-05
1.18638e-05
1.1858e-05
1.18577e-05
1.18574e-05
1.1857e-05
1.18584e-05
7.2668e-05
6.27049e-05
6.83286e-05
7.60339e-05
6.17868e-05
7.87381e-05
1.18573e-05
1.18605e-05
7.40791e-05
1.18582e-05
6.8082e-05
8.31857e-05
6.91081e-05
1.18587e-05
1.18573e-05
7.47716e-05
1.1858e-05
7.4141e-05
1.18572e-05
7.42126e-05
7.15249e-05
1.18573e-05
1.18671e-05
1.1857e-05
1.18723e-05
1.18672e-05
1.18578e-05
1.1856e-05
1.18612e-05
1.94132e-05
1.29328e-05
1.18672e-05
1.18571e-05
1.18574e-05
1.18689e-05
1.18801e-05
1.18791e-05
1.18826e-05
1.18754e-05
1.22664e-05
1.91136e-05
5.29507e-05
1.18574e-05
1.18575e-05
1.18572e-05
5.70758e-05
1.18577e-05
5.76924e-05
6.10755e-05
1.18566e-05
1.18679e-05
1.18596e-05
1.18583e-05
1.18566e-05
1.18692e-05
1.18588e-05
1.18625e-05
1.18627e-05
1.18567e-05
1.18573e-05
1.18572e-05
1.186e-05
1.1858e-05
1.18656e-05
1.1857e-05
1.1857e-05
1.18582e-05
1.18569e-05
1.18584e-05
1.18573e-05
1.1857e-05
1.18567e-05
1.18689e-05
1.18573e-05
1.18617e-05
1.18663e-05
1.18593e-05
1.18598e-05
1.18689e-05
1.18631e-05
1.18609e-05
1.18573e-05
1.18567e-05
1.1857e-05
2.03277e-05
1.18651e-05
1.5814e-05
1.62643e-05
1.18567e-05
1.1857e-05
1.18616e-05
2.06144e-05
1.19436e-05
1.18571e-05
1.1857e-05
1.18619e-05
1.18579e-05
1.19238e-05
1.18567e-05
1.18589e-05
1.18569e-05
1.18612e-05
1.18571e-05
1.18643e-05
1.18569e-05
1.18569e-05
1.18577e-05
1.18577e-05
1.18569e-05
1.18622e-05
1.18584e-05
1.18588e-05
1.18671e-05
1.18571e-05
1.18679e-05
1.18576e-05
1.18569e-05
1.18608e-05
1.18571e-05
1.18577e-05
1.18572e-05
1.18579e-05
1.18659e-05
1.18658e-05
1.1857e-05
1.1857e-05
1.18627e-05
1.1857e-05
1.1865e-05
1.18592e-05
1.18584e-05
1.18596e-05
1.18565e-05
1.18567e-05
1.18634e-05
1.18709e-05
1.18583e-05
1.18621e-05
1.18678e-05
1.18624e-05
1.18628e-05
1.18567e-05
1.18595e-05
1.1879e-05
1.18706e-05
1.18675e-05
1.18737e-05
1.18631e-05
1.18638e-05
1.18616e-05
1.18594e-05
1.1867e-05
1.18641e-05
1.18677e-05
1.18693e-05
1.18628e-05
1.18667e-05
1.18712e-05
1.18693e-05
1.18718e-05
1.18744e-05
1.1873e-05
1.18794e-05
1.18634e-05
1.1862e-05
1.18845e-05
1.18804e-05
1.18655e-05
1.18571e-05
1.18857e-05
1.18651e-05
1.18754e-05
1.18574e-05
1.18936e-05
1.18656e-05
1.18646e-05
1.19114e-05
1.18733e-05
1.18582e-05
1.18923e-05
1.18575e-05
1.1866e-05
1.18668e-05
1.18602e-05
1.18659e-05
1.18752e-05
1.18888e-05
1.18605e-05
1.18846e-05
1.18583e-05
1.18927e-05
1.18571e-05
1.18763e-05
1.18755e-05
1.1867e-05
1.18716e-05
1.18565e-05
1.18711e-05
1.18598e-05
1.1876e-05
1.18866e-05
1.18781e-05
1.18592e-05
1.18855e-05
1.18571e-05
1.18909e-05
1.18645e-05
1.18573e-05
1.18799e-05
1.18657e-05
1.1875e-05
1.18571e-05
1.18578e-05
1.18571e-05
1.18571e-05
1.18568e-05
1.1867e-05
1.18622e-05
1.18641e-05
1.18582e-05
1.18566e-05
1.1857e-05
1.18566e-05
1.18579e-05
1.18572e-05
1.18604e-05
1.18579e-05
1.18645e-05
1.18601e-05
1.18832e-05
1.18737e-05
1.18576e-05
1.1857e-05
1.18661e-05
1.18714e-05
1.19106e-05
1.18674e-05
1.18581e-05
1.18758e-05
1.18572e-05
1.18756e-05
1.18596e-05
1.18567e-05
1.18855e-05
1.18733e-05
1.1859e-05
1.18651e-05
1.18576e-05
1.18576e-05
1.18598e-05
1.18904e-05
1.18775e-05
1.18701e-05
1.18753e-05
1.18624e-05
1.18652e-05
1.18701e-05
1.18731e-05
1.18642e-05
1.1921e-05
1.18585e-05
1.18662e-05
1.18579e-05
1.18569e-05
1.18568e-05
1.18685e-05
1.18661e-05
1.18732e-05
1.18816e-05
1.18747e-05
1.19e-05
1.18819e-05
1.18624e-05
1.18568e-05
1.18566e-05
1.1866e-05
1.18712e-05
1.18648e-05
1.18652e-05
1.18568e-05
1.18565e-05
1.18725e-05
1.18573e-05
1.18769e-05
1.18747e-05
1.18655e-05
1.18629e-05
1.18573e-05
1.18643e-05
1.18562e-05
1.19092e-05
1.18575e-05
1.18785e-05
1.18686e-05
1.18569e-05
1.18688e-05
1.18715e-05
1.18637e-05
1.1859e-05
1.1877e-05
1.18724e-05
1.18781e-05
1.1876e-05
1.18882e-05
1.18642e-05
1.18687e-05
1.18654e-05
1.18601e-05
1.18894e-05
1.18572e-05
1.18634e-05
1.18643e-05
1.18563e-05
1.18766e-05
1.18665e-05
1.18566e-05
1.18565e-05
1.18599e-05
1.1865e-05
1.19304e-05
1.1862e-05
1.18623e-05
1.18745e-05
1.18743e-05
1.18569e-05
1.18573e-05
1.18702e-05
1.18564e-05
1.18699e-05
1.18672e-05
1.18627e-05
1.18693e-05
1.18567e-05
1.18749e-05
1.18662e-05
1.18624e-05
1.18686e-05
1.18611e-05
1.18742e-05
1.18566e-05
1.18567e-05
1.18618e-05
1.18587e-05
1.1878e-05
1.18587e-05
1.18719e-05
1.1861e-05
1.18673e-05
1.18588e-05
1.18654e-05
1.18726e-05
1.1871e-05
1.18627e-05
1.18592e-05
1.1859e-05
1.18659e-05
1.18582e-05
1.18727e-05
1.18572e-05
1.18654e-05
1.1858e-05
1.1877e-05
1.18672e-05
1.18681e-05
1.18581e-05
1.1869e-05
1.18626e-05
1.1857e-05
1.20315e-05
1.18593e-05
1.18594e-05
1.18669e-05
1.18574e-05
1.18654e-05
1.19874e-05
1.18584e-05
1.1873e-05
1.18673e-05
1.18696e-05
1.18804e-05
1.18686e-05
1.18589e-05
1.18637e-05
1.19769e-05
1.18572e-05
1.18636e-05
1.18675e-05
1.18691e-05
1.1873e-05
1.18784e-05
1.18837e-05
1.18708e-05
1.18852e-05
1.18733e-05
1.18604e-05
1.18772e-05
1.18666e-05
1.18571e-05
1.18574e-05
1.19235e-05
1.18669e-05
1.19071e-05
1.18823e-05
1.38255e-05
1.18571e-05
1.18632e-05
1.18574e-05
1.18586e-05
1.18911e-05
1.35906e-05
1.18565e-05
1.19066e-05
1.18609e-05
1.18636e-05
1.18827e-05
1.33843e-05
1.18657e-05
1.1882e-05
1.18661e-05
1.18568e-05
1.32485e-05
1.18698e-05
1.18697e-05
1.18648e-05
1.1857e-05
1.1857e-05
1.18597e-05
1.18646e-05
1.19173e-05
1.18583e-05
1.18621e-05
1.18705e-05
1.18572e-05
1.18713e-05
1.18845e-05
1.18567e-05
1.18745e-05
1.18679e-05
1.18681e-05
1.18605e-05
1.18632e-05
1.18841e-05
1.18579e-05
1.18572e-05
1.18698e-05
1.18908e-05
1.18569e-05
1.18599e-05
1.18639e-05
1.18571e-05
1.19079e-05
1.18679e-05
1.18635e-05
1.18598e-05
1.18979e-05
1.18666e-05
1.18584e-05
1.18659e-05
1.18575e-05
1.1861e-05
1.18599e-05
1.18593e-05
1.18596e-05
1.19273e-05
1.18629e-05
1.21772e-05
1.18701e-05
1.18713e-05
1.18565e-05
1.18827e-05
1.18692e-05
1.18579e-05
1.18658e-05
1.18687e-05
1.18565e-05
1.18564e-05
1.18809e-05
1.18568e-05
1.18574e-05
1.18646e-05
1.1924e-05
1.18651e-05
1.187e-05
1.18568e-05
1.18568e-05
1.18625e-05
1.1887e-05
1.1857e-05
1.18571e-05
1.18572e-05
1.18644e-05
1.18888e-05
1.18569e-05
1.18644e-05
1.18564e-05
1.19108e-05
1.18696e-05
1.18605e-05
1.18617e-05
1.18612e-05
1.18568e-05
1.1857e-05
1.18713e-05
1.18957e-05
1.18567e-05
1.18906e-05
1.18566e-05
1.18565e-05
1.21477e-05