/*--------------------------------*- C++ -*----------------------------------*\
  =========                 |
  \\      /  F ield         | OpenFOAM: The Open Source CFD Toolbox
   \\    /   O peration     | Website:  https://openfoam.org
    \\  /    A nd           | Version:  6
     \\/     M anipulation  |
\*---------------------------------------------------------------------------*/
FoamFile
{
    version     2.0;
    format      ascii;
    class       volScalarField;
    location    "3.26";
    object      p;
}
// * * * * * * * * * * * * * * * * * * * * * * * * * * * * * * * * * * * * * //

dimensions      [1 -1 -2 0 0 0 0];

internalField   nonuniform List<scalar> 
22500
(
1
1
1
1
1
1
1
1
1
1
1
1
1
1
1
1
1
1
1
1
1
1
1
1
1
1
1
1
1
1
1
1
1
1
1
1
1
1
1
1
1
1
1
1
1
1
1
1
1
1
1
1
1
1
1
1
1
1
1
1
1
1
1
1
1
1
0.999999
1
0.999999
0.999999
0.999998
0.999997
0.999997
0.999995
0.999994
0.999993
0.999991
0.999989
0.999987
0.999985
0.999983
0.999981
0.99998
0.999978
0.999978
0.999977
0.999977
0.999978
0.999979
0.999981
0.999984
0.999987
0.999991
0.999995
0.999999
1
1.00001
1.00001
1.00002
1.00002
1.00002
1.00003
1.00003
1.00003
1.00003
1.00003
1.00003
1.00003
1.00003
1.00003
1.00002
1.00002
1.00002
1.00002
1.00001
1.00001
1.00001
1.00001
1.00001
1.00001
1
1
1
1
1
1
1
1
1
1
1
1
1
1
1
1
1
1
1
1
1
1
1
1
1
1
1
1
1
1
1
1
1
1
1
1
1
1
1
1
1
1
1
1
1
1
1
1
1
1
1
1
1
1
1
1
1
1
1
1
1
1
1
1
1
1
1
1
1
1
1
1
1
1
1
1
1
1
1
1
1
1
1
1
1
1
1
1
1
1
1
1
1
1
1
1
1
0.999999
0.999999
0.999998
0.999998
0.999997
0.999995
0.999994
0.999993
0.999991
0.999988
0.999986
0.999984
0.999982
0.999979
0.999977
0.999975
0.999973
0.999973
0.999973
0.999973
0.999974
0.999976
0.999979
0.999983
0.999987
0.999992
0.999997
1
1.00001
1.00001
1.00002
1.00003
1.00003
1.00003
1.00004
1.00004
1.00004
1.00004
1.00004
1.00004
1.00004
1.00004
1.00003
1.00003
1.00003
1.00002
1.00002
1.00002
1.00002
1.00001
1.00001
1.00001
1.00001
1.00001
1
1
1
1
1
1
1
1
1
1
1
1
1
1
1
1
1
1
1
1
1
1
1
1
1
1
1
1
1
1
1
1
1
1
1
1
1
1
1
1
1
1
1
1
1
1
1
1
1
1
1
1
1
1
1
1
1
1
1
1
1
1
1
1
1
1
1
1
1
1
1
1
1
1
1
1
1
1
1
1
1
1
1
1
1
1
1
1
1
1
1
1
1
1
1
0.999999
0.999999
0.999999
0.999998
0.999997
0.999996
0.999995
0.999992
0.99999
0.999988
0.999986
0.999983
0.99998
0.999977
0.999974
0.999971
0.99997
0.999968
0.999967
0.999967
0.999969
0.999971
0.999974
0.999978
0.999984
0.99999
0.999996
1
1.00001
1.00002
1.00002
1.00003
1.00004
1.00004
1.00005
1.00005
1.00005
1.00005
1.00005
1.00005
1.00005
1.00005
1.00005
1.00004
1.00004
1.00004
1.00003
1.00003
1.00002
1.00002
1.00002
1.00001
1.00001
1.00001
1.00001
1.00001
1
1
1
1
1
1
1
1
1
1
1
1
1
1
1
1
1
1
1
1
1
1
1
1
1
1
1
1
1
1
1
1
1
1
1
1
1
1
1
1
1
1
1
1
1
1
1
1
1
1
1
1
1
1
1
1
1
1
1
1
1
1
1
1
1
1
1
1
1
1
1
1
1
1
1
1
1
1
1
1
1
1
1
1
1
1
1
1
1
1
1
1
1
1
0.999999
0.999999
0.999999
0.999997
0.999996
0.999995
0.999993
0.999991
0.999988
0.999985
0.999982
0.999979
0.999975
0.999972
0.999969
0.999966
0.999964
0.999963
0.999963
0.999964
0.999966
0.99997
0.999975
0.999981
0.999988
0.999997
1.00001
1.00001
1.00002
1.00003
1.00004
1.00005
1.00006
1.00006
1.00007
1.00007
1.00007
1.00007
1.00007
1.00007
1.00007
1.00006
1.00006
1.00006
1.00005
1.00005
1.00004
1.00004
1.00003
1.00003
1.00002
1.00002
1.00001
1.00001
1.00001
1.00001
1
1
1
1
1
1
1
1
1
1
1
1
1
1
1
1
1
1
1
1
1
1
1
1
1
1
1
1
1
1
1
1
1
1
1
1
1
1
1
1
1
1
1
1
1
1
1
1
1
1
1
1
1
1
1
1
1
1
1
1
1
1
1
1
1
1
1
1
1
1
1
1
1
1
1
1
1
1
1
1
1
1
1
1
1
1
1
1
1
1
1
1
1
1
0.999999
0.999999
0.999998
0.999997
0.999996
0.999994
0.999992
0.999988
0.999985
0.999982
0.999979
0.999974
0.999971
0.999967
0.999964
0.999961
0.99996
0.999959
0.99996
0.999962
0.999967
0.999973
0.99998
0.999989
0.999999
1.00001
1.00002
1.00003
1.00005
1.00006
1.00007
1.00008
1.00009
1.00009
1.0001
1.0001
1.0001
1.0001
1.0001
1.0001
1.00009
1.00009
1.00008
1.00007
1.00007
1.00006
1.00005
1.00005
1.00004
1.00003
1.00003
1.00002
1.00002
1.00001
1.00001
1.00001
1.00001
1
1
1
1
1
1
1
1
1
1
1
1
1
1
1
1
1
1
1
1
1
1
1
1
1
1
1
1
1
1
1
1
1
1
1
1
1
1
1
1
1
1
1
1
1
1
1
1
1
1
1
1
1
1
1
1
1
1
1
1
1
1
1
1
1
1
1
1
1
1
1
1
1
1
1
1
1
1
1
1
1
1
1
1
1
1
1
1
1
1
1
1
1
0.999999
0.999999
0.999998
0.999996
0.999994
0.999993
0.99999
0.999987
0.999983
0.999979
0.999975
0.99997
0.999965
0.999962
0.999959
0.999956
0.999956
0.999957
0.999961
0.999965
0.999972
0.999982
0.999994
1.00001
1.00002
1.00004
1.00005
1.00007
1.00008
1.0001
1.00011
1.00012
1.00013
1.00014
1.00014
1.00014
1.00014
1.00014
1.00014
1.00013
1.00012
1.00011
1.00011
1.0001
1.00009
1.00008
1.00007
1.00006
1.00005
1.00004
1.00003
1.00003
1.00002
1.00002
1.00001
1.00001
1.00001
1.00001
1
1
1
1
1
1
1
1
1
1
1
1
1
1
1
1
1
1
1
1
1
1
1
1
1
1
1
1
1
1
1
1
1
1
1
1
1
1
1
1
1
1
1
1
1
1
1
1
1
1
1
1
1
1
1
1
1
1
1
1
1
1
1
1
1
1
1
1
1
1
1
1
1
1
1
1
1
1
1
1
1
1
1
1
1
1
1
1
1
1
1
1
0.999999
0.999999
0.999997
0.999996
0.999994
0.999991
0.999988
0.999984
0.99998
0.999975
0.99997
0.999965
0.999961
0.999958
0.999956
0.999955
0.999956
0.99996
0.999967
0.999976
0.999988
1
1.00002
1.00004
1.00006
1.00008
1.0001
1.00012
1.00014
1.00016
1.00018
1.00019
1.0002
1.0002
1.00021
1.00021
1.0002
1.0002
1.00019
1.00018
1.00017
1.00015
1.00014
1.00013
1.00011
1.0001
1.00009
1.00007
1.00006
1.00005
1.00004
1.00003
1.00003
1.00002
1.00002
1.00001
1.00001
1.00001
1
1
1
1
1
1
1
1
1
1
1
1
1
1
1
1
1
1
1
1
1
1
1
1
1
1
1
1
1
1
1
1
1
1
1
1
1
1
1
1
1
1
1
1
1
1
1
1
1
1
1
1
1
1
1
1
1
1
1
1
1
1
1
1
1
1
1
1
1
1
1
1
1
1
1
1
1
1
1
1
1
1
1
1
1
1
1
1
1
1
1
1
0.999999
0.999999
0.999997
0.999996
0.999993
0.99999
0.999986
0.999982
0.999977
0.999971
0.999967
0.999962
0.999958
0.999955
0.999955
0.999957
0.999962
0.99997
0.999983
0.999998
1.00002
1.00004
1.00007
1.00009
1.00012
1.00015
1.00018
1.00021
1.00023
1.00026
1.00027
1.00029
1.0003
1.0003
1.0003
1.0003
1.00029
1.00028
1.00026
1.00024
1.00023
1.00021
1.00019
1.00017
1.00015
1.00013
1.00011
1.0001
1.00008
1.00007
1.00005
1.00004
1.00003
1.00003
1.00002
1.00002
1.00001
1.00001
1
1
1
1
1
1
1
1
1
1
1
1
1
1
1
1
1
1
1
1
1
1
1
1
1
1
1
1
1
1
1
1
1
1
1
1
1
1
1
1
1
1
1
1
1
1
1
1
1
1
1
1
1
1
1
1
1
1
1
1
1
1
1
1
1
1
1
1
1
1
1
1
1
1
1
1
1
1
1
1
1
1
1
1
1
1
1
1
1
1
1
1
1
0.999999
0.999997
0.999995
0.999992
0.999988
0.999984
0.999979
0.999974
0.999969
0.999964
0.99996
0.999958
0.999958
0.999961
0.999967
0.999978
0.999993
1.00001
1.00004
1.00007
1.0001
1.00014
1.00018
1.00022
1.00027
1.00031
1.00034
1.00037
1.0004
1.00042
1.00044
1.00045
1.00045
1.00044
1.00043
1.00041
1.00039
1.00037
1.00034
1.00031
1.00028
1.00025
1.00022
1.0002
1.00017
1.00015
1.00012
1.0001
1.00009
1.00007
1.00005
1.00004
1.00003
1.00002
1.00002
1.00001
1.00001
1.00001
1
1
1
1
1
0.999999
0.999999
0.999999
0.999999
0.999999
1
1
1
1
1
1
1
1
1
1
1
1
1
1
1
1
1
1
1
1
1
1
1
1
1
1
1
1
1
1
1
1
1
1
1
1
1
1
1
1
1
1
1
1
1
1
1
1
1
1
1
1
1
1
1
1
1
1
1
1
1
1
1
1
1
1
1
1
1
1
1
1
1
1
1
1
1
1
1
1
1
1
0.999999
0.999997
0.999995
0.999991
0.999987
0.999982
0.999978
0.999973
0.999968
0.999964
0.999962
0.999962
0.999966
0.999975
0.999989
1.00001
1.00004
1.00007
1.00011
1.00016
1.00021
1.00026
1.00032
1.00038
1.00044
1.00049
1.00054
1.00058
1.00062
1.00064
1.00066
1.00066
1.00066
1.00065
1.00062
1.00059
1.00056
1.00052
1.00048
1.00043
1.00039
1.00034
1.0003
1.00026
1.00022
1.00019
1.00016
1.00013
1.00011
1.00009
1.00007
1.00005
1.00004
1.00003
1.00002
1.00002
1.00001
1.00001
1
1
1
1
0.999999
0.999999
0.999999
0.999999
0.999999
0.999999
0.999999
1
1
1
1
1
1
1
1
1
1
1
1
1
1
1
1
1
1
1
1
1
1
1
1
1
1
1
1
1
1
1
1
1
1
1
1
1
1
1
1
1
1
1
1
1
1
1
1
1
1
1
1
1
1
1
1
1
1
1
1
1
1
1
1
1
1
1
1
1
1
1
1
1
1
1
1
1
1
1
1
1
0.999999
0.999998
0.999995
0.999991
0.999987
0.999982
0.999977
0.999973
0.999969
0.999967
0.999969
0.999975
0.999986
1
1.00003
1.00006
1.00011
1.00016
1.00022
1.00029
1.00037
1.00045
1.00053
1.00061
1.00069
1.00077
1.00083
1.00089
1.00093
1.00096
1.00098
1.00098
1.00096
1.00094
1.0009
1.00085
1.0008
1.00073
1.00067
1.0006
1.00054
1.00047
1.00041
1.00035
1.0003
1.00025
1.00021
1.00017
1.00014
1.00011
1.00009
1.00007
1.00005
1.00004
1.00003
1.00002
1.00001
1.00001
1
1
1
0.999999
0.999999
0.999998
0.999998
0.999999
0.999999
0.999999
0.999999
0.999999
0.999999
1
1
1
1
1
1
1
1
1
1
1
1
1
1
1
1
1
1
1
1
1
1
1
1
1
1
1
1
1
1
1
1
1
1
1
1
1
1
1
1
1
1
1
1
1
1
1
1
1
1
1
1
1
1
1
1
1
1
1
1
1
1
1
1
1
1
1
1
1
1
1
1
1
1
1
1
1
1
1
1
0.999998
0.999995
0.999992
0.999987
0.999983
0.999979
0.999976
0.999975
0.999978
0.999985
0.999999
1.00002
1.00005
1.0001
1.00015
1.00022
1.0003
1.00039
1.00049
1.00061
1.00072
1.00084
1.00095
1.00106
1.00117
1.00125
1.00133
1.00138
1.00142
1.00143
1.00142
1.0014
1.00135
1.00129
1.00122
1.00113
1.00104
1.00094
1.00084
1.00075
1.00065
1.00056
1.00048
1.00041
1.00034
1.00028
1.00023
1.00018
1.00014
1.00011
1.00009
1.00006
1.00005
1.00003
1.00002
1.00001
1.00001
1
1
1
0.999999
0.999998
0.999998
0.999998
0.999998
0.999998
0.999998
0.999999
0.999999
0.999999
0.999999
1
1
1
1
1
1
1
1
1
1
1
1
1
1
1
1
1
1
1
1
1
1
1
1
1
1
1
1
1
1
1
1
1
1
1
1
1
1
1
1
1
1
1
1
1
1
1
1
1
1
1
1
1
1
1
1
1
1
1
1
1
1
1
1
1
1
1
1
1
1
1
1
1
1
1
1
1
1
1
1
0.999997
0.999994
0.999989
0.999986
0.999984
0.999984
0.999988
0.999997
1.00001
1.00004
1.00008
1.00013
1.0002
1.00029
1.00039
1.00051
1.00065
1.00079
1.00095
1.00112
1.00128
1.00144
1.00159
1.00173
1.00185
1.00194
1.00201
1.00205
1.00207
1.00205
1.002
1.00193
1.00184
1.00173
1.0016
1.00146
1.00132
1.00118
1.00104
1.0009
1.00077
1.00066
1.00055
1.00046
1.00037
1.0003
1.00024
1.00019
1.00015
1.00011
1.00008
1.00006
1.00004
1.00003
1.00002
1.00001
1
1
0.999999
0.999998
0.999997
0.999997
0.999997
0.999997
0.999998
0.999998
0.999998
0.999999
0.999999
0.999999
0.999999
1
1
1
1
1
1
1
1
1
1
1
1
1
1
1
1
1
1
1
1
1
1
1
1
1
1
1
1
1
1
1
1
1
1
1
1
1
1
1
1
1
1
1
1
1
1
1
1
1
1
1
1
1
1
1
1
1
1
1
1
1
1
1
1
1
1
1
1
1
1
1
1
1.00001
1.00001
1.00001
1.00001
1.00001
1
1
1
0.999997
0.999994
0.999993
0.999994
0.999999
1.00001
1.00003
1.00006
1.00011
1.00017
1.00026
1.00036
1.00049
1.00065
1.00082
1.00101
1.00122
1.00145
1.00167
1.0019
1.00212
1.00233
1.00251
1.00267
1.00279
1.00288
1.00293
1.00294
1.00291
1.00284
1.00273
1.0026
1.00243
1.00225
1.00205
1.00185
1.00164
1.00144
1.00125
1.00107
1.0009
1.00075
1.00062
1.0005
1.0004
1.00032
1.00025
1.00019
1.00014
1.00011
1.00008
1.00005
1.00003
1.00002
1.00001
1.00001
1
0.999998
0.999996
0.999996
0.999995
0.999996
0.999996
0.999997
0.999997
0.999998
0.999998
0.999999
0.999999
0.999999
0.999999
1
1
1
1
1
1
1
1
1
1
1
1
1
1
1
1
1
1
1
1
1
1
1
1
1
1
1
1
1
1
1
1
1
1
1
1
1
1
1
1
1
1
1
1
1
1
1
1
1
1
1
1
1
1
1
1
1
1
1
1
1
1
1
1
1
1
1
1
1
1.00001
1.00001
1.00001
1.00001
1.00001
1.00001
1.00001
1.00001
1.00001
1
1
1
1
1.00001
1.00003
1.00005
1.00009
1.00014
1.00022
1.00031
1.00044
1.0006
1.00079
1.00101
1.00126
1.00153
1.00183
1.00213
1.00245
1.00276
1.00305
1.00333
1.00357
1.00378
1.00394
1.00405
1.00411
1.00412
1.00407
1.00396
1.00381
1.00362
1.00339
1.00313
1.00286
1.00257
1.00228
1.002
1.00173
1.00148
1.00124
1.00103
1.00084
1.00068
1.00054
1.00043
1.00033
1.00025
1.00019
1.00014
1.0001
1.00007
1.00004
1.00003
1.00001
1.00001
1
0.999997
0.999995
0.999994
0.999994
0.999994
0.999995
0.999996
0.999996
0.999997
0.999998
0.999998
0.999999
0.999999
0.999999
1
1
1
1
1
1
1
1
1
1
1
1
1
1
1
1
1
1
1
1
1
1
1
1
1
1
1
1
1
1
1
1
1
1
1
1
1
1
1
1
1
1
1
1
1
1
1
1
1
1
1
1
1
1
1
1
1
1
1
1
1
1
1
1
1
1
1
1
1.00001
1.00001
1.00001
1.00001
1.00001
1.00001
1.00001
1.00001
1.00001
1.00001
1.00001
1.00001
1.00002
1.00002
1.00004
1.00007
1.00011
1.00017
1.00026
1.00037
1.00052
1.00071
1.00094
1.00121
1.00152
1.00187
1.00225
1.00265
1.00307
1.00349
1.00391
1.0043
1.00467
1.00499
1.00526
1.00547
1.00561
1.00568
1.00568
1.0056
1.00546
1.00525
1.00498
1.00467
1.00432
1.00394
1.00354
1.00315
1.00276
1.00238
1.00203
1.0017
1.00141
1.00115
1.00093
1.00074
1.00058
1.00045
1.00034
1.00025
1.00018
1.00013
1.00009
1.00006
1.00003
1.00002
1.00001
1
0.999995
0.999993
0.999992
0.999992
0.999992
0.999993
0.999994
0.999995
0.999996
0.999997
0.999998
0.999998
0.999999
0.999999
0.999999
1
1
1
1
1
1
1
1
1
1
1
1
1
1
1
1
1
1
1
1
1
1
1
1
1
1
1
1
1
1
1
1
1
1
1
1
1
1
1
1
1
1
1
1
1
1
1
1
1
1
1
1
1
1
1
1
1
1
1
1
1
1
1
1
1
1
1.00001
1.00001
1.00001
1.00001
1.00001
1.00002
1.00002
1.00002
1.00002
1.00002
1.00002
1.00002
1.00003
1.00004
1.00005
1.00008
1.00013
1.0002
1.00029
1.00042
1.0006
1.00082
1.00109
1.00141
1.00179
1.00223
1.0027
1.00322
1.00377
1.00432
1.00488
1.00543
1.00595
1.00642
1.00683
1.00718
1.00744
1.00762
1.00771
1.0077
1.00759
1.0074
1.00712
1.00676
1.00634
1.00587
1.00537
1.00483
1.0043
1.00377
1.00326
1.00278
1.00233
1.00193
1.00158
1.00127
1.001
1.00078
1.0006
1.00045
1.00033
1.00024
1.00017
1.00011
1.00007
1.00004
1.00002
1.00001
0.999999
0.999994
0.999991
0.999989
0.999989
0.99999
0.999991
0.999993
0.999994
0.999995
0.999996
0.999997
0.999998
0.999998
0.999999
0.999999
0.999999
1
1
1
1
1
1
1
1
1
1
1
1
1
1
1
1
1
1
1
1
1
1
1
1
1
1
1
1
1
1
1
1
1
1
1
1
1
1
1
1
1
1
1
1
1
1
1
1
1
1
1
1
1
1
1
1
1
1
1
1
1
1
1
1
1.00001
1.00001
1.00001
1.00001
1.00001
1.00002
1.00002
1.00002
1.00002
1.00003
1.00003
1.00003
1.00004
1.00005
1.00007
1.0001
1.00015
1.00022
1.00032
1.00047
1.00066
1.00091
1.00123
1.00161
1.00206
1.00259
1.00317
1.00382
1.00451
1.00523
1.00596
1.00669
1.00739
1.00806
1.00866
1.00918
1.00962
1.00995
1.01017
1.01027
1.01025
1.01011
1.00986
1.0095
1.00904
1.0085
1.00788
1.00722
1.00652
1.00581
1.0051
1.00442
1.00377
1.00317
1.00263
1.00214
1.00172
1.00137
1.00106
1.00081
1.00061
1.00045
1.00032
1.00023
1.00015
1.0001
1.00006
1.00003
1.00001
0.999999
0.999992
0.999988
0.999986
0.999986
0.999987
0.999989
0.99999
0.999992
0.999994
0.999995
0.999996
0.999997
0.999998
0.999998
0.999999
0.999999
0.999999
1
1
1
1
1
1
1
1
1
1
1
1
1
1
1
1
1
1
1
1
1
1
1
1
1
1
1
1
1
1
1
1
1
1
1
1
1
1
1
1
1
1
1
1
1
1
1
1
1
1
1
1
1
1
1
1
1
1
1
1
1
1
1.00001
1.00001
1.00001
1.00001
1.00002
1.00002
1.00002
1.00003
1.00003
1.00003
1.00004
1.00004
1.00005
1.00006
1.00008
1.00011
1.00016
1.00024
1.00035
1.00051
1.00072
1.001
1.00135
1.00179
1.00232
1.00293
1.00364
1.00442
1.00527
1.00617
1.00711
1.00805
1.00898
1.00987
1.0107
1.01145
1.0121
1.01263
1.01303
1.0133
1.01342
1.0134
1.01322
1.01291
1.01246
1.01188
1.01119
1.01042
1.00957
1.00867
1.00774
1.00682
1.00592
1.00507
1.00427
1.00355
1.0029
1.00233
1.00185
1.00144
1.0011
1.00083
1.00061
1.00044
1.00031
1.00021
1.00013
1.00008
1.00004
1.00002
1
0.999991
0.999985
0.999983
0.999983
0.999984
0.999986
0.999988
0.99999
0.999992
0.999994
0.999995
0.999996
0.999997
0.999998
0.999999
0.999999
0.999999
1
1
1
1
1
1
1
1
1
1
1
1
1
1
1
1
1
1
1
1
1
1
1
1
1
1
1
1
1
1
1
1
1
1
1
1
1
1
1
1
1
1
1
1
1
1
1
1
1
1
1
1
1
1
1
1
1
1
1
1
1
1
1.00001
1.00001
1.00001
1.00002
1.00002
1.00002
1.00003
1.00003
1.00004
1.00004
1.00005
1.00006
1.00007
1.00009
1.00012
1.00017
1.00025
1.00037
1.00053
1.00076
1.00106
1.00145
1.00194
1.00254
1.00325
1.00408
1.00501
1.00603
1.00713
1.00829
1.00947
1.01066
1.01181
1.0129
1.01392
1.01482
1.0156
1.01624
1.01672
1.01703
1.01718
1.01714
1.01694
1.01656
1.01602
1.01532
1.01449
1.01353
1.01247
1.01135
1.01019
1.00901
1.00785
1.00674
1.0057
1.00475
1.00389
1.00314
1.00249
1.00194
1.00149
1.00112
1.00083
1.00059
1.00042
1.00028
1.00018
1.00011
1.00006
1.00003
1
0.99999
0.999982
0.999979
0.999979
0.99998
0.999982
0.999985
0.999988
0.99999
0.999992
0.999994
0.999995
0.999997
0.999998
0.999998
0.999999
0.999999
0.999999
1
1
1
1
1
1
1
1
1
1
1
1
1
1
1
1
1
1
1
1
1
1
1
1
1
1
1
1
1
1
1
1
1
1
1
1
1
1
1
1
1
1
1
1
1
1
1
1
1
1
1
1
1
1
1
1
1
1
1
1
1.00001
1.00001
1.00001
1.00001
1.00002
1.00002
1.00003
1.00003
1.00004
1.00005
1.00006
1.00007
1.00008
1.0001
1.00013
1.00018
1.00026
1.00038
1.00055
1.00078
1.0011
1.00152
1.00206
1.00273
1.00353
1.00447
1.00555
1.00676
1.00807
1.00947
1.01091
1.01238
1.01382
1.01521
1.01652
1.01771
1.01877
1.01967
1.02041
1.02095
1.02131
1.02147
1.02144
1.02121
1.02078
1.02015
1.01935
1.01837
1.01724
1.01597
1.01461
1.01318
1.01172
1.01027
1.00886
1.00753
1.00629
1.00518
1.00419
1.00333
1.00261
1.002
1.00151
1.00112
1.00081
1.00057
1.00039
1.00025
1.00015
1.00009
1.00004
1.00001
0.999991
0.99998
0.999976
0.999975
0.999976
0.999978
0.999981
0.999985
0.999987
0.99999
0.999992
0.999994
0.999996
0.999997
0.999998
0.999998
0.999999
0.999999
1
1
1
1
1
1
1
1
1
1
1
1
1
1
1
1
1
1
1
1
1
1
1
1
1
1
1
1
1
1
1
1
1
1
1
1
1
1
1
1
1
1
1
1
1
1
1
1
1
1
1
1
1
1
1
1
1
1
1
1.00001
1.00001
1.00001
1.00001
1.00002
1.00002
1.00003
1.00004
1.00004
1.00005
1.00006
1.00007
1.00009
1.00011
1.00014
1.00019
1.00027
1.00038
1.00055
1.00079
1.00112
1.00156
1.00214
1.00286
1.00375
1.0048
1.00603
1.00742
1.00895
1.0106
1.01232
1.01408
1.01583
1.01754
1.01917
1.02067
1.02202
1.02321
1.0242
1.025
1.0256
1.02599
1.02616
1.02613
1.02588
1.02542
1.02474
1.02386
1.02277
1.02149
1.02004
1.01845
1.01675
1.015
1.01322
1.01147
1.0098
1.00824
1.00681
1.00553
1.00442
1.00347
1.00268
1.00202
1.0015
1.00109
1.00077
1.00053
1.00035
1.00022
1.00012
1.00006
1.00002
0.999994
0.999979
0.999972
0.99997
0.999971
0.999974
0.999977
0.999981
0.999985
0.999988
0.999991
0.999993
0.999995
0.999996
0.999997
0.999998
0.999999
0.999999
0.999999
1
1
1
1
1
1
1
1
1
1
1
1
1
1
1
1
1
1
1
1
1
1
1
1
1
1
1
1
1
1
1
1
1
1
1
1
1
1
1
1
1
1
1
1
1
1
1
1
1
1
1
1
1
1
1
1
1
1
1.00001
1.00001
1.00001
1.00002
1.00002
1.00003
1.00004
1.00004
1.00005
1.00006
1.00007
1.00009
1.00011
1.00015
1.00019
1.00027
1.00038
1.00054
1.00078
1.00112
1.00157
1.00217
1.00294
1.00389
1.00505
1.00642
1.00799
1.00973
1.01163
1.01364
1.01571
1.01778
1.01982
1.02176
1.02357
1.02522
1.02668
1.02793
1.02897
1.02979
1.0304
1.03079
1.03097
1.03094
1.0307
1.03024
1.02956
1.02865
1.02751
1.02615
1.02457
1.0228
1.02087
1.01883
1.01672
1.01462
1.01258
1.01063
1.00884
1.00722
1.0058
1.00458
1.00354
1.00269
1.002
1.00146
1.00104
1.00071
1.00048
1.0003
1.00018
1.00009
1.00004
1
0.99998
0.99997
0.999966
0.999966
0.999969
0.999973
0.999977
0.999981
0.999985
0.999989
0.999991
0.999994
0.999995
0.999997
0.999998
0.999998
0.999999
0.999999
0.999999
1
1
1
1
1
1
1
1
1
1
1
1
1
1
1
1
1
1
1
1
1
1
1
1
1
1
1
1
1
1
1
1
1
1
1
1
1
1
1
1
1
1
1
1
1
1
1
1
1
1
1
1
1
1
1
1
1.00001
1.00001
1.00001
1.00002
1.00002
1.00003
1.00003
1.00004
1.00005
1.00006
1.00008
1.00009
1.00012
1.00015
1.00019
1.00026
1.00037
1.00053
1.00076
1.00109
1.00154
1.00215
1.00295
1.00396
1.00521
1.0067
1.00843
1.01038
1.01253
1.01482
1.0172
1.0196
1.02196
1.02422
1.02633
1.02825
1.02995
1.03142
1.03265
1.03364
1.03441
1.03497
1.03533
1.0355
1.03547
1.03526
1.03485
1.03423
1.03338
1.03229
1.03095
1.02934
1.02749
1.02541
1.02314
1.02075
1.0183
1.01587
1.01353
1.01133
1.00931
1.00752
1.00597
1.00464
1.00355
1.00265
1.00194
1.00139
1.00096
1.00065
1.00042
1.00025
1.00014
1.00006
1.00001
0.999984
0.999968
0.999962
0.999961
0.999963
0.999968
0.999973
0.999978
0.999982
0.999986
0.999989
0.999992
0.999994
0.999996
0.999997
0.999998
0.999999
0.999999
0.999999
1
1
1
1
1
1
1
1
1
1
1
1
1
1
1
1
1
1
1
1
1
1
1
1
1
1
1
1
1
1
1
1
1
1
1
1
1
1
1
1
1
1
1
1
1
1
1
1
1
1
1
1
1
1
1
1.00001
1.00001
1.00001
1.00001
1.00002
1.00003
1.00003
1.00004
1.00005
1.00006
1.00008
1.0001
1.00012
1.00015
1.00019
1.00026
1.00036
1.0005
1.00072
1.00104
1.00149
1.0021
1.0029
1.00395
1.00526
1.00684
1.00872
1.01087
1.01325
1.01582
1.01851
1.02123
1.02391
1.02647
1.02885
1.03101
1.0329
1.03451
1.03586
1.03694
1.03778
1.03841
1.03884
1.03912
1.03924
1.03923
1.03907
1.03876
1.03828
1.0376
1.03668
1.0355
1.03402
1.03223
1.03014
1.02777
1.02519
1.02246
1.01967
1.01692
1.01429
1.01184
1.00963
1.00769
1.00602
1.00462
1.00348
1.00256
1.00184
1.00129
1.00087
1.00057
1.00035
1.0002
1.0001
1.00003
0.999991
0.999969
0.999958
0.999956
0.999958
0.999962
0.999968
0.999973
0.999979
0.999983
0.999987
0.999991
0.999993
0.999995
0.999996
0.999998
0.999998
0.999999
0.999999
0.999999
1
1
1
1
1
1
1
1
1
1
1
1
1
1
1
1
1
1
1
1
1
1
1
1
1
1
1
1
1
1
1
1
1
1
1
1
1
1
1
1
1
1
1
1
1
1
1
1
1
1
1
1
1
1
1.00001
1.00001
1.00001
1.00002
1.00002
1.00003
1.00004
1.00005
1.00006
1.00008
1.00009
1.00012
1.00015
1.00019
1.00025
1.00034
1.00047
1.00068
1.00098
1.0014
1.002
1.0028
1.00385
1.0052
1.00686
1.00885
1.01117
1.01377
1.0166
1.01958
1.02261
1.0256
1.02845
1.03107
1.03341
1.03544
1.03712
1.03848
1.03953
1.04032
1.04088
1.04126
1.0415
1.04163
1.04168
1.04167
1.0416
1.04144
1.04118
1.04078
1.04017
1.03932
1.03815
1.03663
1.03473
1.03245
1.02983
1.02694
1.02389
1.02078
1.01772
1.01482
1.01216
1.00978
1.00771
1.00596
1.00451
1.00334
1.00242
1.00171
1.00117
1.00077
1.00049
1.00029
1.00015
1.00006
1
0.999973
0.999957
0.999951
0.999952
0.999956
0.999962
0.999969
0.999975
0.99998
0.999985
0.999989
0.999992
0.999994
0.999996
0.999997
0.999998
0.999999
0.999999
0.999999
1
1
1
1
1
1
1
1
1
1
1
1
1
1
1
1
1
1
1
1
1
1
1
1
1
1
1
1
1
1
1
1
1
1
1
1
1
1
1
1
1
1
1
1
1
1
1
1
1
1
1
1
1
1
1.00001
1.00001
1.00002
1.00002
1.00003
1.00004
1.00005
1.00006
1.00007
1.00009
1.00011
1.00014
1.00018
1.00024
1.00032
1.00044
1.00063
1.0009
1.0013
1.00187
1.00264
1.00368
1.00504
1.00674
1.00881
1.01126
1.01405
1.01712
1.02038
1.02371
1.02699
1.03011
1.03295
1.03543
1.03752
1.0392
1.04047
1.04138
1.04197
1.04231
1.04247
1.0425
1.04246
1.0424
1.04236
1.04234
1.04236
1.04241
1.04244
1.04241
1.04225
1.04189
1.04124
1.04021
1.03874
1.03679
1.03437
1.03153
1.02836
1.025
1.02158
1.01825
1.01511
1.01226
1.00974
1.00759
1.00579
1.00432
1.00315
1.00224
1.00155
1.00103
1.00066
1.0004
1.00022
1.0001
1.00003
0.999981
0.999958
0.999948
0.999947
0.99995
0.999956
0.999963
0.99997
0.999977
0.999982
0.999986
0.99999
0.999993
0.999995
0.999996
0.999998
0.999998
0.999999
0.999999
1
1
1
1
1
1
1
1
1
1
1
1
1
1
1
1
1
1
1
1
1
1
1
1
1
1
1
1
1
1
1
1
1
1
1
1
1
1
1
1
1
1
1
1
1
1
1
1
1
1
1
1
1
1.00001
1.00001
1.00001
1.00002
1.00002
1.00003
1.00004
1.00005
1.00007
1.00009
1.00011
1.00014
1.00017
1.00022
1.0003
1.0004
1.00057
1.00082
1.00118
1.00171
1.00245
1.00345
1.00478
1.00649
1.0086
1.01115
1.01409
1.01737
1.02088
1.0245
1.02806
1.03143
1.03446
1.03705
1.03916
1.04075
1.04185
1.0425
1.04277
1.04275
1.04252
1.04217
1.04178
1.04142
1.04113
1.04097
1.04094
1.04107
1.04132
1.04169
1.0421
1.04248
1.04275
1.04278
1.04247
1.04169
1.04035
1.03841
1.03588
1.03283
1.0294
1.02575
1.02206
1.01848
1.01514
1.01215
1.00954
1.00733
1.00551
1.00405
1.0029
1.00203
1.00137
1.00089
1.00055
1.00031
1.00016
1.00006
0.999995
0.999962
0.999946
0.999942
0.999944
0.999951
0.999958
0.999966
0.999973
0.999979
0.999984
0.999988
0.999991
0.999994
0.999996
0.999997
0.999998
0.999999
0.999999
0.999999
1
1
1
1
1
1
1
1
1
1
1
1
1
1
1
1
1
1
1
1
1
1
1
1
1
1
1
1
1
1
1
1
1
1
1
1
1
1
1
1
1
1
1
1
1
1
1
1
1
1
1
1.00001
1.00001
1.00001
1.00001
1.00002
1.00003
1.00004
1.00005
1.00006
1.00008
1.0001
1.00013
1.00016
1.00021
1.00027
1.00037
1.00051
1.00073
1.00106
1.00154
1.00222
1.00317
1.00445
1.00612
1.00823
1.01082
1.01387
1.01732
1.02107
1.02495
1.02878
1.03239
1.0356
1.03829
1.04038
1.04184
1.04269
1.043
1.04285
1.04235
1.04162
1.04075
1.03985
1.039
1.03828
1.03776
1.03746
1.03741
1.03763
1.03811
1.0388
1.03967
1.04064
1.0416
1.04244
1.043
1.04313
1.04267
1.04151
1.03961
1.03698
1.03374
1.03006
1.02614
1.02219
1.0184
1.01492
1.01182
1.00916
1.00694
1.00514
1.00372
1.00262
1.00179
1.00118
1.00074
1.00044
1.00023
1.0001
1.00002
0.999971
0.999947
0.999939
0.999939
0.999945
0.999952
0.999961
0.999969
0.999975
0.999981
0.999986
0.99999
0.999993
0.999995
0.999997
0.999998
0.999998
0.999999
0.999999
1
1
1
1
1
1
1
1
1
1
1
1
1
1
1
1
1
1
1
1
1
1
1
1
1
1
1
1
1
1
1
1
1
1
1
1
1
1
1
1
1
1
1
1
1
1
1
1
1
1
1
1.00001
1.00001
1.00001
1.00002
1.00002
1.00003
1.00004
1.00006
1.00007
1.00009
1.00012
1.00015
1.00019
1.00025
1.00033
1.00046
1.00065
1.00094
1.00136
1.00198
1.00285
1.00405
1.00566
1.00773
1.01031
1.01341
1.01698
1.02092
1.02504
1.02915
1.033
1.0364
1.03918
1.04124
1.04254
1.04311
1.04303
1.04239
1.04134
1.04001
1.03852
1.03699
1.03554
1.03426
1.03321
1.03245
1.03202
1.03195
1.03225
1.03292
1.03392
1.03522
1.03674
1.0384
1.04007
1.04158
1.04275
1.04337
1.04327
1.0423
1.04042
1.03768
1.03424
1.0303
1.02613
1.02197
1.01803
1.01444
1.0113
1.00864
1.00645
1.0047
1.00334
1.00231
1.00154
1.00099
1.0006
1.00033
1.00016
1.00005
0.999986
0.999952
0.999937
0.999935
0.999939
0.999947
0.999955
0.999964
0.999972
0.999978
0.999984
0.999988
0.999992
0.999994
0.999996
0.999997
0.999998
0.999999
0.999999
0.999999
1
1
1
1
1
1
1
1
1
1
1
1
1
1
1
1
1
1
1
1
1
1
1
1
1
1
1
1
1
1
1
1
1
1
1
1
1
1
1
1
1
1
1
1
1
1
1
1
1
1
1.00001
1.00001
1.00001
1.00002
1.00003
1.00004
1.00005
1.00007
1.00008
1.00011
1.00014
1.00018
1.00023
1.0003
1.00041
1.00057
1.00082
1.00119
1.00173
1.00252
1.00362
1.00512
1.0071
1.00962
1.01272
1.01636
1.02044
1.02478
1.02914
1.03325
1.03685
1.03975
1.04179
1.04295
1.04324
1.04275
1.04161
1.03997
1.03799
1.03583
1.03362
1.03149
1.02955
1.02788
1.02653
1.02557
1.02503
1.02494
1.0253
1.02612
1.02737
1.02903
1.03104
1.03332
1.03576
1.0382
1.04044
1.04224
1.04337
1.0436
1.04279
1.04089
1.03801
1.03433
1.03015
1.02575
1.02142
1.01736
1.01373
1.0106
1.00799
1.00587
1.00421
1.00294
1.00198
1.00129
1.0008
1.00046
1.00024
1.00009
1.00001
0.999961
0.999938
0.999932
0.999934
0.999941
0.99995
0.99996
0.999968
0.999975
0.999982
0.999986
0.99999
0.999993
0.999995
0.999997
0.999998
0.999999
0.999999
0.999999
1
1
1
1
1
1
1
1
1
1
1
1
1
1
1
1
1
1
1
1
1
1
1
1
1
1
1
1
1
1
1
1
1
1
1
1
1
1
1
1
1
1
1
1
1
1
1
1
1
1
1.00001
1.00001
1.00002
1.00002
1.00003
1.00004
1.00006
1.00007
1.0001
1.00012
1.00016
1.0002
1.00027
1.00036
1.0005
1.00071
1.00102
1.00149
1.00218
1.00317
1.00454
1.00639
1.0088
1.01183
1.01546
1.01963
1.02414
1.02875
1.03313
1.03697
1.04002
1.04211
1.04317
1.04321
1.04233
1.04069
1.03846
1.03584
1.03299
1.03009
1.02726
1.02463
1.02228
1.02029
1.01872
1.01761
1.01698
1.01686
1.01726
1.01819
1.01963
1.02157
1.02396
1.02674
1.02983
1.03308
1.03631
1.03928
1.0417
1.04329
1.04378
1.04304
1.04105
1.03795
1.03403
1.0296
1.02501
1.02055
1.01645
1.01283
1.00976
1.00725
1.00524
1.00369
1.00252
1.00166
1.00105
1.00063
1.00034
1.00015
1.00004
0.999976
0.999943
0.99993
0.99993
0.999936
0.999945
0.999955
0.999964
0.999972
0.999979
0.999985
0.999989
0.999992
0.999994
0.999996
0.999997
0.999998
0.999999
0.999999
0.999999
1
1
1
1
1
1
1
1
1
1
1
1
1
1
1
1
1
1
1
1
1
1
1
1
1
1
1
1
1
1
1
1
1
1
1
1
1
1
1
1
1
1
1
1
1
1
1
1
1.00001
1.00001
1.00001
1.00002
1.00003
1.00004
1.00005
1.00006
1.00008
1.00011
1.00014
1.00018
1.00024
1.00031
1.00043
1.0006
1.00087
1.00127
1.00186
1.00273
1.00395
1.00564
1.00789
1.01078
1.01434
1.01851
1.02315
1.02797
1.03263
1.03676
1.04003
1.04223
1.04325
1.04311
1.04191
1.03982
1.03704
1.0338
1.03029
1.02669
1.02317
1.01985
1.01683
1.01418
1.01197
1.01024
1.00901
1.00832
1.00818
1.0086
1.0096
1.01116
1.01329
1.01595
1.01911
1.02269
1.0266
1.03067
1.03468
1.03833
1.0413
1.04323
1.04387
1.04308
1.04089
1.03753
1.03332
1.02866
1.02392
1.0194
1.01531
1.01177
1.00882
1.00644
1.00458
1.00316
1.00211
1.00136
1.00083
1.00047
1.00023
1.00008
0.999998
0.999952
0.999931
0.999927
0.999931
0.99994
0.99995
0.99996
0.999969
0.999976
0.999983
0.999987
0.999991
0.999994
0.999996
0.999997
0.999998
0.999999
0.999999
0.999999
1
1
1
1
1
1
1
1
1
1
1
1
1
1
1
1
1
1
1
1
1
1
1
1
1
1
1
1
1
1
1
1
1
1
1
1
1
1
1
1
1
1
1
1
1
1
1
1
1.00001
1.00001
1.00001
1.00002
1.00003
1.00004
1.00005
1.00007
1.00009
1.00012
1.00016
1.00021
1.00027
1.00037
1.00051
1.00073
1.00106
1.00156
1.0023
1.00337
1.00487
1.00692
1.00962
1.01302
1.01713
1.02181
1.02681
1.03174
1.03619
1.03976
1.04217
1.04326
1.04303
1.04159
1.03913
1.03586
1.03205
1.02792
1.02367
1.01948
1.0155
1.01182
1.00852
1.00568
1.00332
1.00148
1.00019
0.999451
0.999288
0.999715
1.00074
1.00237
1.00461
1.00745
1.01086
1.0148
1.01919
1.02391
1.02877
1.0335
1.03775
1.04113
1.04327
1.0439
1.04291
1.04042
1.03672
1.03222
1.02736
1.02252
1.018
1.014
1.0106
1.00782
1.00561
1.00391
1.00265
1.00172
1.00107
1.00063
1.00033
1.00014
1.00003
0.999966
0.999936
0.999926
0.999928
0.999935
0.999945
0.999956
0.999965
0.999974
0.99998
0.999986
0.99999
0.999993
0.999995
0.999997
0.999998
0.999999
0.999999
0.999999
1
1
1
1
1
1
1
1
1
1
1
1
1
1
1
1
1
1
1
1
1
1
1
1
1
1
1
1
1
1
1
1
1
1
1
1
1
1
1
1
1
1
1
1
1
1
1
1
1.00001
1.00001
1.00002
1.00002
1.00003
1.00005
1.00006
1.00008
1.00011
1.00014
1.00018
1.00024
1.00032
1.00043
1.00061
1.00088
1.00129
1.00191
1.00282
1.00413
1.00595
1.0084
1.01158
1.01553
1.02017
1.02526
1.03045
1.03525
1.03919
1.04192
1.0432
1.04301
1.04145
1.03871
1.03505
1.03074
1.02604
1.02119
1.01637
1.01175
1.00743
1.00352
1.00005
0.997088
0.994644
0.992744
0.991401
0.99063
0.990443
0.990857
0.991885
0.993539
0.995831
0.998763
1.00233
1.0065
1.01122
1.01641
1.02192
1.02752
1.03289
1.03762
1.04126
1.04341
1.04384
1.0425
1.0396
1.03553
1.03075
1.02573
1.02086
1.01642
1.01257
1.00936
1.00678
1.00478
1.00327
1.00216
1.00137
1.00082
1.00045
1.00021
1.00007
0.999986
0.999944
0.999927
0.999925
0.999931
0.999941
0.999952
0.999962
0.999971
0.999978
0.999984
0.999989
0.999992
0.999994
0.999996
0.999997
0.999998
0.999999
0.999999
1
1
1
1
1
1
1
1
1
1
1
1
1
1
1
1
1
1
1
1
1
1
1
1
1
1
1
1
1
1
1
1
1
1
1
1
1
1
1
1
1
1
1
1
1
1
1
1.00001
1.00001
1.00001
1.00002
1.00003
1.00004
1.00005
1.00007
1.00009
1.00012
1.00015
1.0002
1.00027
1.00036
1.0005
1.00072
1.00105
1.00156
1.00232
1.00343
1.005
1.00718
1.01008
1.01378
1.01827
1.02337
1.02875
1.0339
1.03828
1.04143
1.04305
1.04305
1.04151
1.03862
1.03467
1.02995
1.02476
1.01935
1.01394
1.00871
1.00379
0.999275
0.995215
0.991655
0.988622
0.986128
0.984185
0.982805
0.982001
0.981786
0.982173
0.983183
0.984831
0.987133
0.990103
0.993747
0.998055
1.003
1.00851
1.0145
1.02077
1.02704
1.03293
1.03796
1.04164
1.0436
1.04362
1.04179
1.03841
1.03394
1.02892
1.02381
1.01899
1.01471
1.01107
1.0081
1.00577
1.00398
1.00266
1.00171
1.00105
1.0006
1.0003
1.00012
1.00001
0.999957
0.999931
0.999924
0.999928
0.999937
0.999948
0.999958
0.999968
0.999976
0.999982
0.999987
0.999991
0.999994
0.999996
0.999997
0.999998
0.999999
0.999999
0.999999
1
1
1
1
1
1
1
1
1
1
1
1
1
1
1
1
1
1
1
1
1
1
1
1
1
1
1
1
1
1
1
1
1
1
1
1
1
1
1
1
1
1
1
1
1
1
1.00001
1.00001
1.00001
1.00002
1.00003
1.00004
1.00006
1.00007
1.0001
1.00013
1.00017
1.00023
1.0003
1.00042
1.00059
1.00085
1.00126
1.00187
1.00279
1.00413
1.00601
1.00858
1.01196
1.01619
1.02119
1.02665
1.03212
1.03697
1.04065
1.04276
1.04311
1.04175
1.03887
1.03475
1.02973
1.02412
1.01822
1.01227
1.00647
1.00097
0.995865
0.991223
0.987083
0.983465
0.980383
0.977845