/*--------------------------------*- C++ -*----------------------------------*\
  =========                 |
  \\      /  F ield         | OpenFOAM: The Open Source CFD Toolbox
   \\    /   O peration     | Website:  https://openfoam.org
    \\  /    A nd           | Version:  6
     \\/     M anipulation  |
\*---------------------------------------------------------------------------*/
FoamFile
{
    version     2.0;
    format      ascii;
    class       volScalarField;
    location    "1.89";
    object      rho;
}
// * * * * * * * * * * * * * * * * * * * * * * * * * * * * * * * * * * * * * //

dimensions      [1 -3 0 0 0 0 0];

internalField   nonuniform List<scalar> 
5835
(
3.43422e-05
1.1857e-05
3.20615e-05
1.45404e-05
1.1857e-05
1.1857e-05
1.1857e-05
1.18746e-05
1.1857e-05
1.1857e-05
1.1857e-05
2.54864e-05
1.1857e-05
1.1857e-05
2.69591e-05
1.1857e-05
5.83719e-05
5.66369e-05
1.1857e-05
1.1857e-05
5.91797e-05
1.1857e-05
6.21768e-05
2.54933e-05
1.1857e-05
1.1857e-05
2.87002e-05
1.1857e-05
1.50249e-05
1.1857e-05
1.22811e-05
1.1857e-05
1.1857e-05
1.18983e-05
1.19325e-05
1.1857e-05
1.1857e-05
1.1857e-05
1.18627e-05
1.18622e-05
1.1857e-05
1.18575e-05
1.1857e-05
1.18577e-05
1.1857e-05
1.1857e-05
1.1857e-05
1.18571e-05
1.1857e-05
1.1857e-05
1.1857e-05
1.1857e-05
1.1857e-05
1.1857e-05
1.1857e-05
1.1857e-05
1.1857e-05
1.1857e-05
1.1857e-05
1.1857e-05
1.4125e-05
1.1857e-05
1.53411e-05
1.1857e-05
1.1857e-05
1.18571e-05
1.1857e-05
1.1857e-05
1.18901e-05
1.19038e-05
1.18637e-05
1.18613e-05
1.1857e-05
1.1857e-05
1.1857e-05
1.1857e-05
1.22717e-05
1.2292e-05
1.18575e-05
1.1857e-05
1.1857e-05
1.18576e-05
1.1857e-05
3.3031e-05
3.38088e-05
1.1857e-05
1.1857e-05
1.1857e-05
1.18777e-05
1.44527e-05
1.1857e-05
1.1857e-05
1.1857e-05
1.1859e-05
1.18586e-05
1.1857e-05
1.1857e-05
1.1857e-05
1.57611e-05
1.18573e-05
1.1857e-05
1.18595e-05
1.1857e-05
1.1857e-05
2.43373e-05
1.1857e-05
1.1857e-05
2.52544e-05
1.1857e-05
1.18574e-05
1.1857e-05
1.1857e-05
1.55769e-05
1.1857e-05
1.1857e-05
1.1857e-05
1.1857e-05
1.1857e-05
1.1857e-05
2.29828e-05
2.23575e-05
1.1857e-05
1.1857e-05
1.1857e-05
1.1857e-05
1.1857e-05
1.1857e-05
1.1857e-05
1.1857e-05
1.18572e-05
1.18572e-05
1.1857e-05
1.1857e-05
1.18606e-05
1.1857e-05
1.1857e-05
5.61495e-05
1.1857e-05
5.7595e-05
1.1857e-05
1.1857e-05
1.1857e-05
5.66396e-05
5.56103e-05
5.6859e-05
5.62286e-05
3.75332e-05
3.63152e-05
1.1857e-05
1.1857e-05
3.58957e-05
1.1857e-05
1.1857e-05
1.1857e-05
3.56224e-05
2.32227e-05
1.51675e-05
1.1857e-05
1.24408e-05
2.31742e-05
1.1857e-05
1.1857e-05
1.1857e-05
1.1857e-05
1.54042e-05
1.1857e-05
1.1857e-05
1.48822e-05
1.1857e-05
1.1857e-05
1.2167e-05
1.19621e-05
1.19415e-05
1.1857e-05
1.1857e-05
1.19136e-05
1.1857e-05
1.52812e-05
1.25281e-05
1.43294e-05
1.1857e-05
1.1857e-05
1.18571e-05
1.18571e-05
1.1857e-05
1.19227e-05
1.1857e-05
1.18571e-05
1.18571e-05
1.1857e-05
1.1857e-05
1.1857e-05
1.1857e-05
1.18571e-05
1.18571e-05
1.1857e-05
1.1857e-05
1.1857e-05
1.1857e-05
1.1857e-05
5.46941e-05
5.62169e-05
1.1857e-05
1.1857e-05
1.1857e-05
1.1857e-05
1.1857e-05
1.1857e-05
1.1857e-05
1.1857e-05
1.18676e-05
1.1857e-05
1.18672e-05
1.1857e-05
1.1866e-05
1.1857e-05
1.1857e-05
1.1857e-05
1.1857e-05
1.1857e-05
1.1857e-05
1.1857e-05
1.18571e-05
1.18672e-05
1.1857e-05
1.18987e-05
1.18665e-05
5.68064e-05
1.1857e-05
1.1857e-05
1.18645e-05
1.1857e-05
1.1857e-05
1.1857e-05
1.1857e-05
1.1857e-05
3.51854e-05
1.1857e-05
3.55483e-05
1.18583e-05
1.1857e-05
1.18581e-05
1.18582e-05
1.18891e-05
1.1857e-05
1.18581e-05
1.1857e-05
1.18581e-05
1.1858e-05
1.1857e-05
1.36937e-05
1.1857e-05
1.1857e-05
1.1857e-05
1.1857e-05
1.1857e-05
1.1857e-05
1.94692e-05
1.1857e-05
1.1857e-05
1.1857e-05
2.81893e-05
3.01913e-05
1.1857e-05
3.03595e-05
1.1857e-05
1.1857e-05
1.1857e-05
2.6876e-05
2.86601e-05
1.1857e-05
1.1857e-05
1.1857e-05
1.1857e-05
1.1857e-05
1.19666e-05
1.1857e-05
1.1857e-05
1.1857e-05
1.1857e-05
1.1857e-05
1.1857e-05
2.87647e-05
1.1857e-05
1.1857e-05
1.1857e-05
1.1857e-05
1.1857e-05
1.1857e-05
1.1857e-05
5.59874e-05
3.18235e-05
1.1857e-05
3.11123e-05
1.1857e-05
1.1857e-05
1.1857e-05
1.1857e-05
1.1857e-05
5.42775e-05
1.1857e-05
5.52625e-05
5.5166e-05
5.24697e-05
3.14261e-05
5.36535e-05
1.1857e-05
5.48223e-05
1.1857e-05
3.54427e-05
5.94684e-05
3.48791e-05
5.34937e-05
3.00451e-05
1.1857e-05
1.1857e-05
1.18716e-05
3.01956e-05
1.18577e-05
1.1857e-05
1.1857e-05
1.21e-05
1.1857e-05
3.11791e-05
1.1857e-05
3.25157e-05
1.18753e-05
1.18622e-05
5.51346e-05
1.18673e-05
1.1857e-05
1.89145e-05
1.1857e-05
1.20171e-05
1.1857e-05
1.20101e-05
1.18576e-05
1.1857e-05
1.18576e-05
1.1857e-05
1.1857e-05
5.49265e-05
1.78613e-05
5.70512e-05
1.1857e-05
1.187e-05
1.1857e-05
1.18608e-05
1.1857e-05
1.18612e-05
2.08371e-05
1.1857e-05
1.1857e-05
1.20803e-05
1.19681e-05
1.1857e-05
1.31994e-05
1.1857e-05
2.08024e-05
1.18673e-05
1.43148e-05
1.1857e-05
1.18575e-05
1.18694e-05
2.19565e-05
1.1857e-05
1.1857e-05
1.1857e-05
1.1857e-05
1.18603e-05
1.21823e-05
1.1857e-05
1.1857e-05
1.1857e-05
1.45641e-05
1.18776e-05
1.1857e-05
1.1857e-05
1.1857e-05
1.1857e-05
1.1857e-05
1.1857e-05
1.1857e-05
1.1857e-05
1.1857e-05
1.1857e-05
1.1857e-05
1.1857e-05
1.1857e-05
1.1857e-05
1.1857e-05
1.1857e-05
1.1857e-05
1.1857e-05
1.1857e-05
1.1857e-05
1.1857e-05
1.1857e-05
1.1857e-05
1.1857e-05
1.1857e-05
1.1857e-05
1.1857e-05
1.1857e-05
1.18601e-05
1.19219e-05
1.1857e-05
1.18932e-05
1.47648e-05
1.18572e-05
1.1859e-05
1.1857e-05
1.1857e-05
1.1857e-05
1.1857e-05
1.1857e-05
1.53974e-05
1.1857e-05
1.1857e-05
1.1857e-05
1.1857e-05
1.18574e-05
1.1857e-05
1.26526e-05
1.1857e-05
1.1857e-05
1.1857e-05
1.1857e-05
1.33157e-05
1.1857e-05
1.1857e-05
1.78658e-05
1.18678e-05
1.1857e-05
1.26935e-05
1.1857e-05
1.1857e-05
1.18662e-05
1.1857e-05
1.7335e-05
1.66713e-05
1.1857e-05
1.1857e-05
1.65566e-05
1.19497e-05
1.1857e-05
1.1857e-05
1.18664e-05
1.19406e-05
1.1857e-05
1.61543e-05
1.1857e-05
1.24508e-05
1.1857e-05
1.19459e-05
1.1857e-05
1.1857e-05
1.18665e-05
1.18588e-05
1.19474e-05
1.18655e-05
1.1857e-05
1.65484e-05
1.1857e-05
1.18666e-05
1.18586e-05
1.1857e-05
1.1857e-05
1.65096e-05
1.1857e-05
1.1857e-05
1.23637e-05
1.1857e-05
1.64025e-05
1.1857e-05
1.2508e-05
1.18586e-05
1.5903e-05
1.1857e-05
1.18573e-05
1.1857e-05
1.24841e-05
1.1857e-05
1.18588e-05
1.1857e-05
1.18588e-05
1.1857e-05
1.18582e-05
1.18573e-05
1.1857e-05
1.1857e-05
1.18572e-05
1.1857e-05
1.1857e-05
1.1857e-05
1.18572e-05
1.18578e-05
1.1857e-05
1.1857e-05
1.1857e-05
1.72599e-05
1.18572e-05
1.1857e-05
1.1857e-05
2.25532e-05
1.1857e-05
1.1857e-05
1.1857e-05
2.3812e-05
1.1857e-05
1.1857e-05
1.18572e-05
1.1857e-05
1.59826e-05
1.1857e-05
1.1857e-05
5.59298e-05
1.1857e-05
1.1857e-05
5.5996e-05
5.49699e-05
5.41296e-05
1.1857e-05
1.1857e-05
1.1857e-05
1.1857e-05
3.51938e-05
3.80929e-05
1.1857e-05
1.1857e-05
1.1857e-05
3.58805e-05
5.36243e-05
1.1857e-05
5.51364e-05
1.1857e-05
1.1857e-05
1.1857e-05
3.45534e-05
1.1857e-05
2.31959e-05
1.1857e-05
5.50585e-05
1.1857e-05
3.40803e-05
1.5227e-05
1.25632e-05
1.18571e-05
1.18571e-05
1.24766e-05
1.1857e-05
1.50859e-05
1.18571e-05
1.46352e-05
1.1857e-05
1.1857e-05
1.1857e-05
1.1857e-05
1.1857e-05
1.1857e-05
1.1857e-05
1.19541e-05
5.47255e-05
1.1857e-05
1.42318e-05
1.1857e-05
1.1857e-05
1.19706e-05
1.1857e-05
1.19156e-05
1.1857e-05
1.1857e-05
1.19195e-05
1.1857e-05
1.1857e-05
1.18571e-05
5.36446e-05
1.1857e-05
1.1857e-05
1.1857e-05
1.19592e-05
1.1857e-05
1.1857e-05
1.1857e-05
1.38544e-05
1.1857e-05
1.18675e-05
1.18675e-05
1.1857e-05
1.18581e-05
1.18665e-05
1.1857e-05
1.18664e-05
1.18583e-05
1.1857e-05
1.18668e-05
1.18581e-05
1.1858e-05
1.1857e-05
1.1857e-05
1.21304e-05
1.1857e-05
1.1857e-05
1.1857e-05
2.25938e-05
1.1857e-05
1.1857e-05
1.1857e-05
1.1857e-05
1.1858e-05
1.1857e-05
2.85781e-05
1.54503e-05
2.90731e-05
1.1857e-05
2.95186e-05
1.1864e-05
1.1857e-05
1.1857e-05
5.45355e-05
1.1857e-05
2.73914e-05
1.1857e-05
1.1857e-05
2.97046e-05
1.1857e-05
5.29076e-05
1.1857e-05
3.23342e-05
3.66862e-05
1.1857e-05
1.1857e-05
5.36556e-05
5.18213e-05
3.3871e-05
1.1857e-05
1.1857e-05
1.1857e-05
1.1857e-05
3.0486e-05
5.418e-05
1.1857e-05
2.9643e-05
1.1857e-05
1.1857e-05
1.1857e-05
1.1857e-05
5.53005e-05
5.32034e-05
1.1857e-05
3.05923e-05
1.1857e-05
5.29868e-05
1.1857e-05
1.1857e-05
1.1857e-05
5.41755e-05
1.55185e-05
5.46185e-05
1.1857e-05
1.18624e-05
1.1857e-05
1.81375e-05
1.80695e-05
1.1857e-05
1.1857e-05
1.18838e-05
1.1857e-05
1.35018e-05
2.06692e-05
1.20531e-05
1.1857e-05
2.14159e-05
1.1857e-05
1.1857e-05
1.1857e-05
1.1857e-05
1.1857e-05
1.1857e-05
1.1857e-05
1.1857e-05
1.1857e-05
1.1857e-05
1.1857e-05
1.18784e-05
1.1857e-05
1.1857e-05
1.1857e-05
1.1857e-05
1.1857e-05
1.40351e-05
1.21799e-05
1.1857e-05
1.1857e-05
1.18575e-05
1.18576e-05
1.1857e-05
1.1857e-05
1.1857e-05
1.1857e-05
1.1857e-05
1.18962e-05
1.1857e-05
1.1857e-05
1.4355e-05
1.47522e-05
1.19158e-05
1.1857e-05
1.1857e-05
1.19904e-05
1.18575e-05
1.1857e-05
1.18607e-05
1.18609e-05
1.1857e-05
1.1857e-05
1.1857e-05
1.1857e-05
1.19536e-05
1.1857e-05
1.1857e-05
1.1857e-05
1.1857e-05
1.1857e-05
1.18686e-05
1.1857e-05
1.74642e-05
1.1857e-05
1.1857e-05
1.1857e-05
1.31425e-05
1.27083e-05
1.70077e-05
1.1857e-05
1.18687e-05
1.1857e-05
1.60557e-05
1.62599e-05
1.25289e-05
1.1857e-05
1.1857e-05
1.66553e-05
1.1857e-05
1.1857e-05
1.64404e-05
1.1857e-05
1.1857e-05
1.1857e-05
1.1944e-05
1.194e-05
1.1857e-05
1.67462e-05
1.1857e-05
1.1857e-05
1.19555e-05
1.18587e-05
1.1857e-05
1.18669e-05
1.18672e-05
1.1857e-05
1.64344e-05
1.18588e-05
1.24208e-05
1.1857e-05
1.1857e-05
1.18572e-05
1.1857e-05
1.1857e-05
1.24362e-05
1.1857e-05
1.18572e-05
1.1857e-05
1.23447e-05
1.1857e-05
1.18588e-05
1.18587e-05
1.1857e-05
1.1857e-05
1.1857e-05
1.1857e-05
1.18572e-05
1.18571e-05
1.1857e-05
1.1857e-05
1.18572e-05
1.18571e-05
1.1857e-05
1.1857e-05
1.1857e-05
1.1857e-05
1.18745e-05
1.1857e-05
1.1857e-05
1.1857e-05
1.1857e-05
1.18754e-05
1.18668e-05
1.1924e-05
1.1886e-05
1.1857e-05
1.1857e-05
1.1857e-05
1.1857e-05
1.1857e-05
1.70655e-05
1.18784e-05
1.18718e-05
1.18795e-05
1.18716e-05
1.1857e-05
1.1857e-05
1.21852e-05
1.20147e-05
1.1857e-05
1.1857e-05
1.1857e-05
1.1857e-05
1.1857e-05
1.19479e-05
1.1857e-05
1.1857e-05
1.20412e-05
1.19521e-05
1.1857e-05
1.1857e-05
1.1857e-05
1.1857e-05
3.215e-05
3.4279e-05
3.48194e-05
3.08676e-05
1.1857e-05
1.1857e-05
1.1857e-05
1.1857e-05
1.1857e-05
1.1857e-05
1.1857e-05
1.1857e-05
1.1857e-05
1.1857e-05
1.1857e-05
1.1857e-05
1.1857e-05
1.1857e-05
1.1857e-05
1.1857e-05
1.1857e-05
1.1857e-05
1.1857e-05
1.1857e-05
1.1857e-05
1.1857e-05
1.18605e-05
1.1857e-05
1.18587e-05
2.03485e-05
1.18595e-05
1.1857e-05
2.12065e-05
1.18585e-05
1.1857e-05
1.1857e-05
2.34902e-05
1.1857e-05
1.1857e-05
1.1857e-05
1.18711e-05
1.18657e-05
1.66913e-05
1.1857e-05
1.1857e-05
1.18705e-05
1.18643e-05
1.1857e-05
1.1857e-05
2.03081e-05
1.1857e-05
1.18615e-05
1.1857e-05
1.1857e-05
1.1857e-05
2.14436e-05
1.90621e-05
1.1857e-05
1.1857e-05
1.1857e-05
1.1857e-05
1.54461e-05
1.1857e-05
3.6832e-05
1.1857e-05
3.64745e-05
1.1857e-05
1.18927e-05
1.1857e-05
1.1857e-05
1.1857e-05
1.1857e-05
1.1857e-05
1.1857e-05
1.1857e-05
2.12481e-05
2.33577e-05
1.1857e-05
1.1857e-05
2.02008e-05
1.1857e-05
2.1517e-05
1.1857e-05
1.86697e-05
1.1857e-05
1.1857e-05
5.40818e-05
5.54552e-05
1.1857e-05
1.1857e-05
1.1857e-05
5.313e-05
5.52479e-05
5.5437e-05
1.1857e-05
5.26487e-05
1.1857e-05
1.1857e-05
1.1857e-05
5.88531e-05
5.12111e-05
1.1857e-05
5.45845e-05
5.03949e-05
1.1857e-05
1.1857e-05
1.1857e-05
5.55695e-05
1.1857e-05
1.1857e-05
5.44486e-05
1.1857e-05
5.15325e-05
1.1857e-05
1.1857e-05
1.1857e-05
5.3357e-05
4.99972e-05
5.22289e-05
1.1857e-05
1.1857e-05
1.1857e-05
5.01284e-05
5.71367e-05
5.50178e-05
4.968e-05
5.22927e-05
1.1857e-05
1.1857e-05
5.38939e-05
1.1857e-05
1.1857e-05
5.09602e-05
5.12095e-05
5.3147e-05
1.1857e-05
5.31655e-05
1.1857e-05
1.66193e-05
1.1857e-05
1.1857e-05
1.1857e-05
1.1857e-05
1.18573e-05
1.1857e-05
1.1857e-05
1.1857e-05
1.1857e-05
2.10094e-05
2.29035e-05
1.1857e-05
1.1857e-05
2.01206e-05
1.1857e-05
1.1857e-05
4.89948e-05
1.1857e-05
1.1857e-05
4.8967e-05
1.1857e-05
2.39132e-05
1.1857e-05
1.1857e-05
1.1857e-05
1.18583e-05
1.1857e-05
1.18715e-05
1.19515e-05
1.18572e-05
1.1857e-05
1.21741e-05
1.18847e-05
1.27662e-05
1.1857e-05
1.1857e-05
1.18607e-05
1.1857e-05
1.40076e-05
1.1857e-05
1.1857e-05
1.1857e-05
1.1857e-05
1.1857e-05
1.1857e-05
1.1857e-05
1.18574e-05
1.18575e-05
1.18619e-05
1.1857e-05
1.74797e-05
1.19039e-05
1.1857e-05
1.1857e-05
1.1857e-05
3.12544e-05
5.13769e-05
1.1857e-05
1.1857e-05
2.37398e-05
4.93659e-05
1.1857e-05
3.24471e-05
2.34395e-05
1.1857e-05
1.1857e-05
1.1857e-05
1.19922e-05
1.18718e-05
1.1857e-05
1.18588e-05
1.18572e-05
1.1857e-05
1.1857e-05
1.1857e-05
1.1857e-05
1.1857e-05
1.1857e-05
1.25995e-05
1.1857e-05
2.35185e-05
1.1857e-05
1.1857e-05
1.1857e-05
1.1857e-05
1.1857e-05
2.4346e-05
2.82349e-05
1.1857e-05
1.20217e-05
1.1857e-05
1.1857e-05
1.19814e-05
1.20475e-05
1.1857e-05
1.1857e-05
1.18798e-05
1.18601e-05
1.1857e-05
1.20235e-05
1.21685e-05
1.1857e-05
1.18581e-05
1.1857e-05
1.18776e-05
1.18623e-05
1.1857e-05
1.1857e-05
1.20015e-05
1.1898e-05
1.20849e-05
1.1857e-05
1.18761e-05
1.1857e-05
1.18626e-05
1.1857e-05
1.20169e-05
1.1857e-05
1.18977e-05
1.21493e-05
1.1857e-05
1.1857e-05
1.20172e-05
1.1857e-05
1.19003e-05
1.21101e-05
1.1857e-05
1.18599e-05
1.18751e-05
1.1857e-05
1.1857e-05
1.1857e-05
1.1857e-05
1.1857e-05
1.186e-05
1.1857e-05
1.1857e-05
1.1857e-05
1.1887e-05
1.20457e-05
1.18768e-05
1.1857e-05
1.1857e-05
1.18622e-05
1.1857e-05
1.21953e-05
1.1857e-05
1.19698e-05
1.186e-05
1.18784e-05
1.1857e-05
1.18602e-05
1.1857e-05
1.18603e-05
1.36541e-05
1.1857e-05
1.1857e-05
1.1857e-05
1.32838e-05
1.1857e-05
1.18573e-05
1.1857e-05
1.1857e-05
1.1857e-05
1.18795e-05
1.18632e-05
1.1857e-05
1.42473e-05
1.2033e-05
1.18572e-05
1.18575e-05
1.1857e-05
1.1857e-05
1.1857e-05
1.18574e-05
1.18579e-05
1.1857e-05
1.1857e-05
1.27467e-05
1.18574e-05
1.1857e-05
1.18576e-05
1.1857e-05
1.1904e-05
1.1857e-05
1.1857e-05
1.18909e-05
1.1857e-05
1.1857e-05
1.18827e-05
1.20387e-05
1.2218e-05
1.1857e-05
1.18577e-05
1.1857e-05
1.29491e-05
1.1857e-05
1.4168e-05
1.1857e-05
1.1857e-05
1.18991e-05
1.1857e-05
1.18575e-05
1.1885e-05
1.1857e-05
1.1857e-05
1.18635e-05
1.1857e-05
1.1858e-05
1.1857e-05
1.3908e-05
1.1857e-05
1.18982e-05
1.191e-05
1.1857e-05
1.1857e-05
1.19154e-05
1.1857e-05
1.30758e-05
1.22188e-05
1.18658e-05
1.1857e-05
1.1857e-05
1.18619e-05
1.1857e-05
1.1857e-05
1.29664e-05
1.1857e-05
1.23531e-05
1.18576e-05
1.1857e-05
1.18632e-05
1.18638e-05
1.1857e-05
1.19508e-05
1.1857e-05
1.18576e-05
1.1857e-05
1.43748e-05
1.1857e-05
1.36538e-05
1.1857e-05
1.18691e-05
1.1857e-05
1.18664e-05
1.18645e-05
1.1857e-05
1.1857e-05
1.1857e-05
1.1857e-05
1.18707e-05
1.1857e-05
1.1857e-05
1.4303e-05
1.41657e-05
1.1857e-05
1.18673e-05
1.55101e-05
1.36466e-05
1.1857e-05
1.1857e-05
1.20826e-05
1.1857e-05
1.1857e-05
1.33826e-05
1.1857e-05
1.18892e-05
1.20002e-05
1.1857e-05
1.1857e-05
1.1857e-05
1.86406e-05
1.1857e-05
1.33495e-05
1.1857e-05
1.19445e-05
1.18758e-05
1.1857e-05
1.1857e-05
1.18715e-05
1.1857e-05
1.71836e-05
1.1857e-05
1.18839e-05
1.1858e-05
1.1857e-05
1.1857e-05
1.18586e-05
1.1857e-05
1.20362e-05
1.1857e-05
1.18655e-05
1.1857e-05
1.28135e-05
1.68487e-05
1.1857e-05
1.1857e-05
1.1857e-05
1.1857e-05
1.1857e-05
1.18586e-05
1.1857e-05
1.18778e-05
1.26422e-05
1.81849e-05
1.19975e-05
1.1857e-05
1.1857e-05
1.18579e-05
1.1857e-05
1.1857e-05
1.18591e-05
1.1857e-05
1.71293e-05
1.1857e-05
1.18773e-05
1.1857e-05
1.18601e-05
1.18579e-05
1.1857e-05
1.18583e-05
1.92736e-05
1.23984e-05
1.1857e-05
1.1857e-05
1.19939e-05
1.97947e-05
1.8146e-05
1.1857e-05
2.0228e-05
1.1857e-05
1.97287e-05
1.1857e-05
1.92027e-05
1.58838e-05
1.83168e-05
1.1857e-05
1.1857e-05
1.18586e-05
1.1857e-05
1.18581e-05
1.1857e-05
1.1857e-05
1.21083e-05
1.1857e-05
1.1906e-05
1.98948e-05
1.7394e-05
1.46031e-05
1.1857e-05
1.1857e-05
1.46717e-05
3.40648e-05
4.57935e-05
1.1857e-05
1.1857e-05
1.1857e-05
1.1857e-05
1.1857e-05
1.1857e-05
1.1857e-05
1.1857e-05
1.1857e-05
2.43877e-05
5.81613e-05
1.1857e-05
1.1857e-05
1.1857e-05
3.72398e-05
3.67517e-05
1.1857e-05
1.1857e-05
4.78285e-05
1.22384e-05
1.1857e-05
1.1857e-05
2.65839e-05
1.1857e-05
1.1857e-05
3.29601e-05
3.99579e-05
5.1628e-05
1.1857e-05
5.48929e-05
4.6037e-05
1.1857e-05
5.04088e-05
1.1857e-05
4.41333e-05
4.95007e-05
3.55657e-05
4.50337e-05
4.13766e-05
1.1857e-05
3.0599e-05
2.43707e-05
4.13677e-05
1.18865e-05
3.74852e-05
3.61327e-05
4.67174e-05
1.1857e-05
1.1857e-05
1.1857e-05
1.1857e-05
1.1857e-05
4.75347e-05
4.31853e-05
1.1857e-05
1.1857e-05
1.1857e-05
2.44714e-05
3.61274e-05
1.1857e-05
1.1857e-05
2.92306e-05
1.97263e-05
1.1857e-05
4.17366e-05
1.1857e-05
1.1857e-05
1.1857e-05
4.49042e-05
2.66262e-05
1.22607e-05
1.1857e-05
2.56548e-05
1.1857e-05
2.44263e-05
1.1857e-05
2.2393e-05
1.1857e-05
1.1857e-05
1.3423e-05
2.04843e-05
1.1857e-05
1.1857e-05
3.63956e-05
1.1857e-05
1.34203e-05
1.1857e-05
1.1857e-05
1.1857e-05
1.18682e-05
1.20372e-05
1.1857e-05
1.1857e-05
1.18974e-05
4.69649e-05
1.1857e-05
1.1857e-05
1.18783e-05
4.56032e-05
1.1857e-05
1.1857e-05
1.1857e-05
1.20641e-05
1.1857e-05
1.1857e-05
2.40665e-05
1.1857e-05
1.1857e-05
1.18581e-05
1.1857e-05
1.18603e-05
1.1879e-05
1.1857e-05
1.24834e-05
2.01029e-05
3.6199e-05
1.1857e-05
2.37899e-05
3.78864e-05
1.18576e-05
1.1857e-05
1.1857e-05
2.03458e-05
4.67172e-05
4.77742e-05
1.1857e-05
1.18596e-05
1.1857e-05
1.1857e-05
1.1857e-05
1.18571e-05
3.76596e-05
1.1857e-05
1.1857e-05
1.18571e-05
1.1857e-05
1.18571e-05
1.18571e-05
1.1857e-05
1.18574e-05
4.69158e-05
1.1857e-05
1.1857e-05
1.1857e-05
1.9423e-05
1.1857e-05
1.18613e-05
3.63435e-05
1.66137e-05
2.44225e-05
1.1857e-05
1.1857e-05
1.18573e-05
3.95878e-05
4.83888e-05
1.18571e-05
1.1857e-05
1.1857e-05
1.1857e-05
1.1857e-05
2.05211e-05
1.18571e-05
1.1857e-05
1.1857e-05
2.00151e-05
1.1857e-05
1.1857e-05
2.37409e-05
1.1857e-05
1.1857e-05
1.1857e-05
1.1857e-05
1.1857e-05
1.1857e-05
1.1857e-05
1.1857e-05
1.1857e-05
1.1857e-05
1.1857e-05
1.1857e-05
1.1857e-05
1.1857e-05
1.1857e-05
1.1857e-05
1.1857e-05
1.1857e-05
1.1857e-05
1.1857e-05
1.1857e-05
1.1857e-05
1.1857e-05
1.1857e-05
1.1857e-05
1.1857e-05
1.1857e-05
1.1857e-05
1.1857e-05
1.1857e-05
1.1857e-05
1.1857e-05
1.1857e-05
1.1857e-05
1.1857e-05
1.1857e-05
1.1857e-05
1.18571e-05
1.1857e-05
1.1857e-05
1.1857e-05
1.1857e-05
1.1857e-05
1.1857e-05
1.1857e-05
1.1857e-05
1.1857e-05
1.1857e-05
1.1857e-05
1.1857e-05
1.1857e-05
1.1857e-05
1.1857e-05
1.1857e-05
1.1857e-05
5.04392e-05
1.1857e-05
1.1859e-05
2.20343e-05
1.1857e-05
1.1857e-05
2.39581e-05
1.1857e-05
1.1857e-05
1.1857e-05
1.50131e-05
1.1857e-05
1.1857e-05
2.41378e-05
2.15838e-05
1.1857e-05
2.53955e-05
1.1857e-05
1.1857e-05
1.20112e-05
1.1857e-05
1.18697e-05
1.1857e-05
1.58026e-05
1.18741e-05
1.1857e-05
1.20356e-05
1.1857e-05
1.1857e-05
1.1857e-05
1.1857e-05
1.18834e-05
1.1857e-05
1.19708e-05
1.18571e-05
1.18907e-05
1.1857e-05
1.1857e-05
1.18591e-05
1.20888e-05
1.1857e-05
1.1857e-05
1.1857e-05
1.18571e-05
1.1857e-05
1.18754e-05
1.18784e-05
1.1857e-05
1.1857e-05
1.1857e-05
3.14217e-05
1.1857e-05
1.1857e-05
1.1857e-05
1.1857e-05
1.19836e-05
1.18573e-05
1.1857e-05
1.1857e-05
5.08601e-05
1.1857e-05
1.18597e-05
1.1857e-05
1.20385e-05
1.1857e-05
1.18605e-05
1.1857e-05
4.34618e-05
1.1857e-05
1.1857e-05
1.18571e-05
1.1857e-05
1.1857e-05
1.55287e-05
1.29171e-05
1.1857e-05
1.77925e-05
1.1857e-05
1.1857e-05
1.18592e-05
5.66621e-05
1.1857e-05
1.1857e-05
4.83552e-05
1.18592e-05
1.9272e-05
1.1857e-05
1.188e-05
1.1857e-05
1.1857e-05
1.18615e-05
1.32977e-05
1.1857e-05
1.20498e-05
1.1857e-05
1.1857e-05
1.18613e-05
1.1857e-05
1.1857e-05
1.1857e-05
1.19948e-05
1.30941e-05
1.1857e-05
1.1857e-05
1.38005e-05
1.1857e-05
1.27243e-05
1.1857e-05
1.1857e-05
1.18593e-05
1.1857e-05
1.1857e-05
1.37961e-05
1.19823e-05
1.1857e-05
1.186e-05
1.1857e-05
1.18619e-05
1.18572e-05
1.1857e-05
1.1857e-05
1.29876e-05
1.18573e-05
1.1857e-05
1.1857e-05
1.18572e-05
1.18571e-05
1.1857e-05
1.1857e-05
1.1857e-05
1.18571e-05
1.1857e-05
1.1857e-05
1.18589e-05
1.1857e-05
1.1857e-05
1.18571e-05
1.6018e-05
1.1857e-05
1.18571e-05
1.1857e-05
1.1857e-05
1.51621e-05
1.1857e-05
1.66211e-05
1.1857e-05
1.70155e-05
1.1857e-05
1.1857e-05
1.18571e-05
1.1857e-05
1.1857e-05
1.1857e-05
1.64045e-05
1.1857e-05
1.18571e-05
1.1857e-05
1.1857e-05
1.1857e-05
1.1857e-05
1.1857e-05
1.1857e-05
1.1857e-05
1.74052e-05
1.9147e-05
1.1857e-05
1.1857e-05
1.1857e-05
1.1857e-05
1.1857e-05
1.1857e-05
1.1857e-05
1.1857e-05
1.1857e-05
2.87981e-05
1.1857e-05
5.02723e-05
1.1857e-05
1.1857e-05
1.1857e-05
1.71072e-05
1.1857e-05
1.95326e-05
1.18572e-05
1.1857e-05
1.1857e-05
1.1857e-05
4.23554e-05
1.1857e-05
1.1857e-05
1.1857e-05
1.77228e-05
1.1857e-05
1.1857e-05
1.1857e-05
1.1857e-05
1.1857e-05
1.1857e-05
1.1857e-05
1.1857e-05
1.1857e-05
1.1857e-05
1.18574e-05
1.1857e-05
6.0253e-05
1.1857e-05
4.95326e-05
1.1857e-05
1.1857e-05
1.1857e-05
1.1857e-05
1.1857e-05
1.1857e-05
1.18572e-05
1.1857e-05
1.1857e-05
1.1857e-05
1.1857e-05
1.18574e-05
1.18572e-05
1.1857e-05
1.18573e-05
1.1857e-05
1.1857e-05
1.18574e-05
1.18572e-05
1.1857e-05
1.18571e-05
1.1857e-05
1.18574e-05
1.18575e-05
1.18572e-05
1.1857e-05
1.1857e-05
2.7018e-05
1.1857e-05
5.72767e-05
1.1857e-05
4.88142e-05
1.1857e-05
1.1857e-05
1.1857e-05
2.77443e-05
1.1857e-05
5.10982e-05
1.1857e-05
4.28556e-05
1.1857e-05
3.04046e-05
4.24545e-05
3.18283e-05
2.61974e-05
1.1857e-05
1.1857e-05
4.86199e-05
1.1857e-05
1.1857e-05
5.32705e-05
1.1857e-05
1.1857e-05
5.09654e-05
1.1857e-05
4.24854e-05
5.15345e-05
1.1857e-05
1.1857e-05
1.1857e-05
4.80293e-05
1.1857e-05
4.24419e-05
1.1857e-05
5.77342e-05
1.1857e-05
4.89451e-05
1.1857e-05
1.48059e-05
1.1857e-05
1.1857e-05
1.1857e-05
1.1857e-05
1.18572e-05
1.1857e-05
1.18634e-05
1.28024e-05
1.1857e-05
1.1857e-05
1.1857e-05
1.1857e-05
1.1857e-05
2.91856e-05
2.68884e-05
1.1857e-05
1.1857e-05
5.11301e-05
5.61033e-05
1.1857e-05
1.1857e-05
5.47558e-05
5.80417e-05
1.1857e-05
1.1857e-05
5.56274e-05
5.55851e-05
1.1857e-05
5.46995e-05
6.17767e-05
1.1857e-05
1.1857e-05
1.1857e-05
6.34234e-05
6.06649e-05
1.1857e-05
6.66446e-05
1.1857e-05
6.23087e-05
1.1857e-05
1.1857e-05
5.44331e-05
6.00264e-05
5.66304e-05
1.1857e-05
1.1857e-05
5.91744e-05
5.4153e-05
1.1857e-05
5.5081e-05
1.1857e-05
5.57054e-05
1.1857e-05
1.1857e-05
5.58079e-05
5.45121e-05
1.1857e-05
1.1857e-05
5.80946e-05
1.1857e-05
1.1857e-05
5.65717e-05
5.71793e-05
1.1857e-05
1.1857e-05
5.89421e-05
5.84312e-05
1.1857e-05
1.1857e-05
6.46636e-05
6.43314e-05
1.1857e-05
5.98301e-05
6.01391e-05
1.1857e-05
1.1857e-05
6.40615e-05
1.1857e-05
6.26177e-05
6.30113e-05
1.1857e-05
1.1857e-05
6.63678e-05
1.1857e-05
6.2083e-05
1.1857e-05
6.29139e-05
6.13216e-05
1.1857e-05
1.1857e-05
6.12445e-05
1.91586e-05
1.1857e-05
1.1857e-05
1.89178e-05
1.1857e-05
1.1857e-05
1.1857e-05
1.1857e-05
1.32452e-05
1.1857e-05
1.1857e-05
2.84003e-05
2.91407e-05
1.1857e-05
1.1857e-05
1.18644e-05
1.1857e-05
5.55216e-05
1.1857e-05
1.1857e-05
5.45061e-05
1.1857e-05
5.6384e-05
5.66006e-05
1.1857e-05
4.97671e-05
1.1857e-05
5.20956e-05
1.1857e-05
5.88827e-05
1.1857e-05
1.1857e-05
1.1857e-05
5.80263e-05
6.00875e-05
5.36397e-05
5.54409e-05
1.1857e-05
1.1857e-05
1.1857e-05
1.1857e-05
5.37558e-05
1.1857e-05
1.1857e-05
1.1857e-05
1.1857e-05
1.1857e-05
1.1857e-05
5.67022e-05
5.12846e-05
5.13374e-05
5.77732e-05
5.09793e-05
5.21451e-05
1.1857e-05
1.1857e-05
6.13865e-05
1.1857e-05
5.06694e-05
5.79782e-05
5.45694e-05
1.1857e-05
1.1857e-05
5.75402e-05
1.1857e-05
5.33779e-05
1.1857e-05
5.62495e-05
5.51358e-05
1.1857e-05
1.27413e-05
1.1857e-05
1.1862e-05
1.1857e-05
1.1857e-05
1.1857e-05
1.1857e-05
2.7363e-05
2.44436e-05
1.1857e-05
1.1857e-05
1.18699e-05
1.1857e-05
1.26104e-05
1.1857e-05
1.1857e-05
1.1857e-05
2.63362e-05
3.02151e-05
5.17695e-05
1.1857e-05
1.1857e-05
1.1857e-05
5.60413e-05
1.1857e-05
5.2643e-05
5.37193e-05
1.1857e-05
1.18584e-05
1.1857e-05
1.18725e-05
1.1857e-05
1.19848e-05
1.1857e-05
1.19777e-05
1.18572e-05
1.1857e-05
1.18673e-05
1.1857e-05
1.18579e-05
1.1857e-05
1.26931e-05
1.1857e-05
1.27245e-05
1.1857e-05
1.1857e-05
1.1857e-05
1.1857e-05
1.1857e-05
1.1857e-05
1.1857e-05
1.1857e-05
1.18571e-05
1.1857e-05
1.18582e-05
1.1857e-05
1.18701e-05
1.19388e-05
1.1857e-05
1.31201e-05
1.1857e-05
1.1857e-05
4.95682e-05
2.03275e-05
3.56249e-05
3.56786e-05
1.1857e-05
1.1857e-05
2.04758e-05
4.6088e-05
2.04594e-05
1.1857e-05
1.1857e-05
1.31691e-05
1.1857e-05
1.91553e-05
1.1857e-05
1.20231e-05
1.1857e-05
1.18696e-05
1.18589e-05
1.18572e-05
1.1857e-05
1.1857e-05
1.1857e-05
1.1857e-05
1.1857e-05
1.1857e-05
1.1857e-05
1.1857e-05
1.19355e-05
1.1857e-05
1.2003e-05
1.18663e-05
1.1857e-05
1.1858e-05
1.1857e-05
1.1857e-05
1.18699e-05
1.1857e-05
1.20413e-05
1.18581e-05
1.1857e-05
1.1857e-05
1.20175e-05
1.1857e-05
1.18834e-05
1.18596e-05
1.1857e-05
1.18588e-05
1.1857e-05
1.1857e-05
1.20421e-05
1.1857e-05
1.18793e-05
1.20067e-05
1.18762e-05
1.18613e-05
1.1857e-05
1.1857e-05
1.1857e-05
1.2053e-05
1.1857e-05
1.1857e-05
1.20143e-05
1.18837e-05
1.18772e-05
1.1857e-05
1.1857e-05
1.18601e-05
1.18591e-05
1.1857e-05
1.2094e-05
1.1857e-05
1.18829e-05
1.20424e-05
1.1857e-05
1.18768e-05
1.1857e-05
1.1857e-05
1.20573e-05
1.1857e-05
1.18606e-05
1.18802e-05
1.20275e-05
1.1857e-05
1.1857e-05
1.1857e-05
1.1857e-05
1.18755e-05
1.18603e-05
1.1857e-05
1.18597e-05
1.1857e-05
1.21102e-05
1.18824e-05
1.1857e-05
1.20594e-05
1.1857e-05
1.1878e-05
1.1861e-05
1.1857e-05
1.1857e-05
1.1857e-05
1.18765e-05
1.1857e-05
1.19948e-05
1.1857e-05
1.18795e-05
1.1857e-05
1.18607e-05
1.1857e-05
1.186e-05
1.1857e-05
1.20423e-05
1.1857e-05
1.1993e-05
1.20626e-05
1.18779e-05
1.1857e-05
1.20086e-05
1.18763e-05
1.1857e-05
1.1857e-05
1.18613e-05
1.18829e-05
1.1857e-05
1.18607e-05
1.1857e-05
1.18622e-05
1.18611e-05
1.25315e-05
1.1857e-05
1.1857e-05
1.33894e-05
1.18572e-05
1.18573e-05
1.1857e-05
1.1857e-05
1.1857e-05
1.1857e-05
1.18574e-05
1.1857e-05
1.25544e-05
1.1857e-05
1.18571e-05
1.18574e-05
1.1857e-05
1.35146e-05
1.20598e-05
1.1857e-05
1.18574e-05
1.1857e-05
1.33381e-05
1.20144e-05
1.1857e-05
1.37028e-05
1.1857e-05
1.20031e-05
1.18575e-05
1.1857e-05
1.30867e-05
1.1857e-05
1.18575e-05
1.1857e-05
1.18575e-05
1.1857e-05
1.1857e-05
1.18856e-05
1.1857e-05
1.1857e-05
1.18847e-05
1.18576e-05
1.1857e-05
1.18575e-05
1.1857e-05
1.1857e-05
1.21895e-05
1.1857e-05
1.18575e-05
1.18576e-05
1.1857e-05
1.1857e-05
1.18846e-05
1.1857e-05
1.18862e-05
1.1857e-05
1.1857e-05
1.30381e-05
1.21135e-05
1.18576e-05
1.1857e-05
1.35533e-05
1.18612e-05
1.1857e-05
1.18575e-05
1.1857e-05
1.1857e-05
1.32146e-05
1.18907e-05
1.1857e-05
1.215e-05
1.1857e-05
1.18906e-05
1.1857e-05
1.18617e-05
1.1857e-05
1.34622e-05
1.1857e-05
1.18608e-05
1.21879e-05
1.1857e-05
1.19022e-05
1.1857e-05
1.18924e-05
1.1857e-05
1.1857e-05
1.30793e-05
1.1857e-05
1.19025e-05
1.19077e-05
1.1857e-05
1.1857e-05
1.18627e-05
1.31087e-05
1.18614e-05
1.1857e-05
1.22397e-05
1.1857e-05
1.1857e-05
1.19027e-05
1.18988e-05
1.1857e-05
1.18641e-05
1.22081e-05
1.18577e-05
1.1857e-05
1.1857e-05
1.18623e-05
1.22825e-05
1.1857e-05
1.1857e-05
1.18576e-05
1.23047e-05
1.1857e-05
1.19047e-05
1.1857e-05
1.1865e-05
1.18644e-05
1.18578e-05
1.19098e-05
1.1857e-05
1.1857e-05
1.18577e-05
1.18627e-05
1.1857e-05
1.34227e-05
1.18641e-05
1.19211e-05
1.1857e-05
1.1857e-05
1.35324e-05
1.1857e-05
1.3159e-05
1.1857e-05
1.18684e-05
1.1857e-05
1.18676e-05
1.1857e-05
1.32091e-05
1.1867e-05
1.1857e-05
1.18674e-05
1.1857e-05
1.41285e-05
1.1857e-05
1.1857e-05
1.39816e-05
1.36148e-05
1.1857e-05
1.43237e-05
1.1857e-05
1.41465e-05
1.1857e-05
1.1857e-05
1.48219e-05
1.3227e-05
1.1857e-05
1.1857e-05
1.49644e-05
1.43446e-05
1.1857e-05
1.30045e-05
1.1857e-05
1.2064e-05
1.1857e-05
1.18738e-05
1.20325e-05
1.1857e-05
1.1857e-05
1.46538e-05
1.3123e-05
1.1857e-05
1.1857e-05
1.18719e-05
1.1857e-05
1.1857e-05
1.20253e-05
1.20109e-05
1.1857e-05
1.18762e-05
1.1857e-05
1.1857e-05
1.18719e-05
1.1857e-05
1.1857e-05
1.18577e-05
1.29261e-05
1.1857e-05
1.26899e-05
1.2032e-05
1.87191e-05
1.1857e-05
1.18792e-05
1.1857e-05
1.1857e-05
1.27592e-05
1.80045e-05
1.1857e-05
1.19947e-05
1.1857e-05
1.1857e-05
1.1857e-05
1.79815e-05
1.1857e-05
1.1857e-05
1.1857e-05
1.18734e-05
1.75799e-05
1.1857e-05
1.1857e-05
1.1857e-05
1.18696e-05
1.19581e-05
1.1859e-05
1.1857e-05
1.1857e-05
1.18579e-05
1.18589e-05
1.1857e-05
1.18684e-05
1.1857e-05
1.27204e-05
1.1857e-05
1.1857e-05
1.18589e-05
1.1857e-05
1.23752e-05
1.1857e-05
1.25575e-05
1.1857e-05
1.1857e-05
1.18592e-05
1.19535e-05
1.18579e-05
1.1857e-05
1.1948e-05
1.18709e-05
1.1857e-05
1.18579e-05
1.1857e-05
1.1857e-05
1.19277e-05
1.1857e-05
1.18689e-05
1.1857e-05
1.1857e-05
1.23891e-05
1.1857e-05
1.1858e-05
1.1857e-05
1.1857e-05
1.18578e-05
1.65788e-05
1.1857e-05
1.1857e-05
1.24009e-05
1.18583e-05
1.23902e-05
1.1857e-05
1.1857e-05
1.19166e-05
1.1857e-05
1.1857e-05
1.18789e-05
1.1857e-05
1.1857e-05
1.1902e-05
1.57074e-05
1.1857e-05
1.1857e-05
1.1858e-05
1.18584e-05
1.1857e-05
1.18581e-05
1.1857e-05
1.1857e-05
1.20773e-05
1.1857e-05
1.18808e-05
1.1857e-05
1.1857e-05
1.1857e-05
1.51652e-05
1.1857e-05
1.1857e-05
1.18581e-05
1.18584e-05
1.20423e-05
1.1857e-05
1.2242e-05
1.18844e-05
1.1857e-05
1.46907e-05
1.1857e-05
1.1857e-05
1.36944e-05
1.1857e-05
1.18578e-05
1.18577e-05
1.1857e-05
1.1857e-05
1.2147e-05
1.20315e-05
1.1857e-05
1.1857e-05
1.18584e-05
1.1881e-05
1.1857e-05
1.4154e-05
1.1857e-05
1.1857e-05
1.18609e-05
1.1857e-05
1.18922e-05
1.32552e-05
1.1857e-05
1.18578e-05
1.1857e-05
1.1857e-05
1.20542e-05
1.1857e-05
1.18577e-05
1.19574e-05
1.1857e-05
4.34873e-05
1.1857e-05
1.1857e-05
1.1857e-05
1.97515e-05
3.63648e-05
3.78535e-05
3.81916e-05
1.1857e-05
1.1857e-05
3.65025e-05
3.72562e-05
1.1857e-05
1.1857e-05
2.29537e-05
1.1857e-05
4.56157e-05
3.93956e-05
1.1857e-05
1.1857e-05
1.1857e-05
1.1857e-05
1.1857e-05
3.83635e-05
1.1857e-05
1.1857e-05
1.1857e-05
2.1988e-05
4.25467e-05
1.1857e-05
1.1857e-05
3.78088e-05
1.1857e-05
1.1857e-05
4.78192e-05
4.05125e-05
4.83203e-05
1.1857e-05
3.71601e-05
4.34083e-05
2.22936e-05
4.3156e-05
4.41011e-05
4.40196e-05
3.76668e-05
2.66061e-05
1.1857e-05
4.198e-05
2.94283e-05
4.25807e-05
1.1857e-05
1.1857e-05
2.17515e-05
4.90165e-05
4.53113e-05
1.1857e-05
1.1857e-05
1.1857e-05
4.37993e-05
2.06845e-05
1.1857e-05
1.18583e-05
1.1857e-05
1.1857e-05
1.1857e-05
1.1857e-05
4.2255e-05
4.88318e-05
1.1857e-05
1.1857e-05
2.52396e-05
2.98938e-05
3.67575e-05
3.82605e-05
1.18608e-05
3.91972e-05
4.46865e-05