/*--------------------------------*- C++ -*----------------------------------*\
  =========                 |
  \\      /  F ield         | OpenFOAM: The Open Source CFD Toolbox
   \\    /   O peration     | Website:  https://openfoam.org
    \\  /    A nd           | Version:  6
     \\/     M anipulation  |
\*---------------------------------------------------------------------------*/
FoamFile
{
    version     2.0;
    format      ascii;
    class       volVectorField;
    location    "2.28";
    object      U;
}
// * * * * * * * * * * * * * * * * * * * * * * * * * * * * * * * * * * * * * //

dimensions      [0 1 -1 0 0 0 0];

internalField   nonuniform List<vector> 
4214
(
(9.71291 -0.33447 0)
(10.3051 -0.0337241 -6.64179e-19)
(10.4804 0.217196 1.94866e-19)
(10.5121 0.416027 4.83167e-19)
(10.5104 0.599051 2.47645e-19)
(10.5018 0.778995 -1.88656e-20)
(10.489 0.95734 -2.66746e-19)
(10.4721 1.13617 -1.26789e-19)
(10.4482 1.31745 1.29578e-19)
(10.4142 1.50135 0)
(10.3625 1.68668 1.21246e-20)
(10.2919 1.87064 1.06099e-19)
(10.2052 2.051 -1.08646e-19)
(10.1168 2.22963 0)
(10.0457 2.40788 -4.3241e-20)
(9.99562 2.57695 4.37559e-20)
(9.93023 2.70504 -1.75125e-21)
(9.76303 2.73159 9.74506e-22)
(9.36928 2.57622 0)
(8.6154 2.17112 -2.20611e-21)
(7.4282 1.51561 0)
(6.57191 0.75789 3.57262e-21)
(7.62813 -0.0262527 0)
(9.30797 -0.601443 -9.84948e-21)
(10.3274 -0.953522 -6.29626e-21)
(10.5989 -1.11377 -2.06069e-20)
(10.5724 -1.1771 2.03568e-20)
(10.4866 -1.19854 0)
(10.44 -1.1843 -6.19164e-20)
(10.4307 -1.14282 6.28384e-20)
(10.4339 -1.07717 -8.06795e-21)
(10.4357 -0.993112 0)
(10.4347 -0.896392 1.04796e-19)
(10.4326 -0.790189 -1.02519e-19)
(10.4296 -0.675499 -2.37073e-19)
(10.4256 -0.552219 -2.49661e-20)
(10.4204 -0.420418 2.74484e-19)
(10.4113 -0.280722 3.9748e-19)
(10.3763 -0.123718 1.83051e-19)
(10.2115 0.0834488 -5.43066e-19)
(9.6645 0.344305 0)
(10.7579 0.0134904 0)
(10.8437 0.251826 4.25615e-20)
(10.8257 0.452341 -1.08978e-19)
(10.7879 0.60127 -5.77551e-19)
(10.7534 0.754114 6.79249e-19)
(10.7317 0.922468 0)
(10.7145 1.09873 0)
(10.6937 1.27952 2.60983e-19)
(10.6647 1.46523 -2.66792e-19)
(10.6226 1.65548 -2.64633e-19)
(10.5616 1.84813 2.57607e-19)
(10.4799 2.04071 5.81401e-20)
(10.3869 2.23442 -1.15888e-20)
(10.3 2.4347 0)
(10.2275 2.63997 0)
(10.1489 2.83031 0)
(9.99432 2.95959 5.89069e-21)
(9.65166 2.95346 -3.42982e-20)
(9.011 2.73062 -4.99212e-21)
(8.00116 2.24652 3.56465e-20)
(6.66302 1.52399 2.93071e-20)
(5.74364 0.751215 2.6947e-20)
(6.7939 0.00884608 4.76575e-20)
(8.64457 -0.548244 1.02505e-20)
(9.94247 -0.91786 -7.31511e-20)
(10.4448 -1.10937 0)
(10.5286 -1.19004 0)
(10.4943 -1.22205 0)
(10.4723 -1.22185 4.82016e-21)
(10.4852 -1.19333 -3.14497e-20)
(10.5137 -1.13813 2.01952e-19)
(10.5396 -1.06198 -1.89845e-19)
(10.557 -0.971915 -2.28448e-19)
(10.5705 -0.872269 2.23399e-19)
(10.5817 -0.764796 0)
(10.5912 -0.650868 0)
(10.6041 -0.535362 4.42824e-19)
(10.6266 -0.426524 -5.12936e-19)
(10.6567 -0.316963 1.0555e-19)
(10.6719 -0.1611 -4.12643e-20)
(10.5994 0.0314565 1.85561e-18)
(10.9453 0.145797 -2.54989e-18)
(10.912 0.332175 -1.02046e-18)
(10.904 0.516555 1.15871e-18)
(10.8786 0.671018 0)
(10.855 0.827882 8.50285e-19)
(10.8396 0.997482 -2.59456e-20)
(10.825 1.17527 -9.64452e-19)
(10.8045 1.35845 0)
(10.7743 1.54739 -3.3567e-19)
(10.7291 1.74179 4.94162e-19)
(10.6638 1.93966 -4.81711e-19)
(10.5809 2.14031 4.43953e-19)
(10.4932 2.34798 0)
(10.414 2.56828 0)
(10.3382 2.79265 -1.03329e-19)
(10.2268 2.9917 1.62095e-19)
(9.99332 3.11003 -2.43245e-20)
(9.52965 3.06603 2.50314e-21)
(8.75096 2.78712 1.87629e-20)
(7.6239 2.24771 -1.39524e-20)
(6.2295 1.47891 0)
(5.31771 0.673933 2.31924e-20)
(6.39716 -0.0483954 -6.1608e-20)
(8.30565 -0.570461 -3.36681e-20)
(9.70837 -0.927964 -6.61677e-20)
(10.3358 -1.13223 -8.16887e-20)
(10.4781 -1.22355 9.17469e-20)
(10.48 -1.25733 0)
(10.4737 -1.25927 0)
(10.4982 -1.23321 3.08809e-19)
(10.5388 -1.1816 -3.7045e-19)
(10.5764 -1.10807 3.72689e-19)
(10.6044 -1.01972 -4.79441e-19)
(10.6258 -0.921838 0)
(10.6433 -0.81649 -8.72636e-19)
(10.6572 -0.704875 -5.40208e-20)
(10.6712 -0.59106 9.73259e-19)
(10.6912 -0.47984 2.86657e-19)
(10.7112 -0.364349 9.13383e-19)
(10.7173 -0.222273 -9.94043e-19)
(10.7492 -0.0750681 2.50831e-18)
(11.0951 0.302584 -2.91514e-18)
(11.0641 0.437661 3.79347e-19)
(11.0594 0.614689 0)
(11.0389 0.769306 1.36878e-18)
(11.0171 0.923614 -1.40437e-18)
(11.0011 1.0907 -1.35621e-18)
(10.9855 1.26861 1.38948e-18)
(10.964 1.45441 -1.10599e-18)
(10.9313 1.64771 5.62685e-19)
(10.8816 1.8478 -7.10276e-19)
(10.8124 2.05358 7.24892e-19)
(10.7309 2.26703 -6.89191e-19)
(10.6516 2.49485 7.01244e-19)
(10.5795 2.74052 0)
(10.4912 2.98648 -3.02295e-19)
(10.3254 3.19328 2.47523e-19)
(9.97936 3.29445 2.48484e-20)
(9.35231 3.20255 -4.58411e-20)
(8.38883 2.8544 -3.85464e-20)
(7.10583 2.24058 4.07044e-20)
(5.64209 1.40753 0)
(4.7563 0.565419 1.80216e-19)
(5.87976 -0.139477 1.80741e-19)
(7.86555 -0.634513 -3.76272e-19)
(9.39805 -0.980264 6.78138e-20)
(10.1701 -1.18667 -1.12116e-19)
(10.4182 -1.28447 9.91033e-20)
(10.4657 -1.31967 0)
(10.4834 -1.32054 3.02869e-19)
(10.5227 -1.29408 -2.97442e-19)
(10.5788 -1.24437 5.67554e-19)
(10.633 -1.17288 -4.6348e-19)
(10.6754 -1.08533 6.83828e-19)
(10.708 -0.988269 -2.22954e-19)
(10.7351 -0.884837 1.23146e-18)
(10.7583 -0.776712 -1.20142e-18)
(10.7802 -0.667872 -1.32487e-18)
(10.8037 -0.560679 9.98924e-19)
(10.8235 -0.445388 0)
(10.8306 -0.310466 -3.71728e-19)
(10.8624 -0.211097 2.85636e-18)
(11.2417 0.38739 -8.74188e-19)
(11.2068 0.530082 -2.15603e-18)
(11.1987 0.703258 2.32894e-18)
(11.1826 0.856454 -1.80676e-18)
(11.1669 1.01016 1.85401e-18)
(11.1549 1.1774 2.34115e-18)
(11.1412 1.35726 -1.87044e-18)
(11.1201 1.54682 1.36212e-18)
(11.086 1.7453 -9.6776e-19)
(11.0338 1.95217 0)
(10.9655 2.16835 0)
(10.8929 2.39898 0)
(10.8276 2.6517 1.82049e-19)
(10.7604 2.92445 -8.7423e-19)
(10.6464 3.1891 6.67744e-20)
(10.4032 3.39522 3.58804e-19)
(9.91854 3.46495 -2.96704e-21)
(9.11165 3.31152 -8.38578e-20)
(7.96711 2.88387 4.20086e-20)
(6.54434 2.18885 4.9275e-20)
(5.03004 1.28884 -6.5186e-20)
(4.2028 0.4099 -1.40342e-21)
(5.39825 -0.277978 3.12097e-19)
(7.45143 -0.745764 6.30523e-20)
(9.09554 -1.07515 -3.37306e-19)
(9.99338 -1.27387 -1.39699e-19)
(10.3404 -1.37288 1.69202e-19)
(10.4466 -1.4075 -1.16826e-19)
(10.4899 -1.40254 2.0755e-19)
(10.5436 -1.37127 0)
(10.6133 -1.31915 0)
(10.682 -1.24729 0)
(10.7383 -1.15904 -7.49476e-19)
(10.7815 -1.06074 3.94562e-19)
(10.8169 -0.957065 -1.62428e-18)
(10.8474 -0.850092 1.13067e-18)
(10.8747 -0.743149 1.7225e-18)
(10.9003 -0.637318 -1.67795e-18)
(10.9209 -0.522856 1.26668e-18)
(10.9353 -0.390877 -1.32381e-18)
(10.974 -0.281935 8.59757e-19)
(11.3895 0.49488 4.92823e-19)
(11.3578 0.623397 -3.37533e-18)
(11.352 0.78924 1.10569e-18)
(11.3418 0.940288 6.31326e-19)
(11.332 1.09382 0)
(11.3238 1.26218 1.21743e-19)
(11.3119 1.44488 0)
(11.2912 1.63877 -5.39836e-19)
(11.2562 1.84318 2.49146e-18)
(11.2044 2.05856 -2.53061e-18)
(11.1436 2.28877 1.28606e-18)
(11.0873 2.5415 1.24822e-18)
(11.0377 2.82265 -9.94147e-19)
(10.966 3.12084 0)
(10.8059 3.39806 0)
(10.4549 3.59132 0)
(9.80149 3.61222 6.64154e-20)
(8.79517 3.386 5.11286e-20)
(7.46227 2.8698 -2.71195e-20)
(5.90465 2.0889 0)
(4.35457 1.12016 0)
(3.61943 0.20896 0)
(4.91221 -0.459363 1.91205e-19)
(7.02993 -0.900697 1.63587e-19)
(8.77683 -1.21266 1.06273e-19)
(9.80006 -1.4015 0)
(10.2585 -1.4956 -7.45038e-21)
(10.4288 -1.52409 0)
(10.5021 -1.50905 -6.23267e-19)
(10.5704 -1.46892 5.17648e-19)
(10.6528 -1.41027 8.02791e-19)
(10.7358 -1.33484 -1.6723e-18)
(10.8061 -1.2443 1.81442e-18)
(10.8608 -1.14319 -1.45592e-18)
(10.9046 -1.03745 0)
(10.9426 -0.930036 -9.83298e-20)
(10.9761 -0.823539 0)
(11.0051 -0.718188 -5.82492e-19)
(11.0276 -0.605363 3.22477e-18)
(11.0453 -0.479664 -9.49797e-19)
(11.0842 -0.38268 -1.62714e-18)
(11.5387 0.575837 0)
(11.511 0.70415 -3.14543e-20)
(11.5112 0.867345 3.3666e-18)
(11.5082 1.01694 -6.43513e-19)
(11.5052 1.17065 2.82931e-18)
(11.5014 1.34156 -1.45617e-18)
(11.4923 1.52825 -2.97269e-18)
(11.4732 1.72701 1.67618e-18)
(11.4392 1.93825 -7.00271e-19)
(11.3934 2.16442 0)
(11.349 2.41283 -1.60994e-18)
(11.3155 2.69178 3.24646e-18)
(11.2784 3.00187 -1.63354e-18)
(11.1859 3.31924 4.43435e-19)
(10.9518 3.60041 -1.09335e-18)
(10.4563 3.76182 3.14732e-19)
(9.60792 3.70662 0)
(8.39163 3.40829 1.13254e-19)
(6.86891 2.79616 -6.20714e-20)
(5.18912 1.92841 0)
(3.62548 0.895182 0)
(3.0206 -0.0385203 0)
(4.43248 -0.681575 1.79414e-19)
(6.61128 -1.09697 -5.33725e-19)
(8.45242 -1.391 0)
(9.6037 -1.57142 -2.66407e-19)
(10.1744 -1.65649 1.1263e-19)
(10.4132 -1.67091 -8.75971e-20)
(10.5217 -1.64159 -6.79909e-19)
(10.6055 -1.58833 1.534e-18)
(10.6985 -1.51912 -8.49149e-19)
(10.7942 -1.43623 0)
(10.8779 -1.3409 -1.78959e-18)
(10.9441 -1.23537 1.03615e-18)
(10.9959 -1.12552 -2.50134e-18)
(11.0403 -1.01557 1.14037e-18)
(11.0795 -0.90779 2.48305e-18)
(11.1127 -0.80161 5.94021e-19)
(11.1369 -0.688827 1.98772e-18)
(11.1554 -0.564701 -5.03687e-18)
(11.1954 -0.466116 1.16623e-18)
(11.6903 0.653376 -1.64304e-18)
(11.6734 0.77715 -3.12093e-18)
(11.6823 0.937092 -1.77025e-18)
(11.6862 1.08418 0)
(11.6897 1.23879 0)
(11.691 1.41391 8.0921e-19)
(11.6859 1.6049 0)
(11.6698 1.80884 1.02069e-18)
(11.6412 2.02836 -2.8054e-18)
(11.6098 2.26829 -8.91267e-19)
(11.5903 2.53886 2.02117e-18)
(11.581 2.84573 2.03236e-18)
(11.5447 3.18078 -2.06737e-18)
(11.4068 3.50719 -2.57394e-18)
(11.0622 3.78164 5.13849e-19)
(10.3882 3.88118 1.30753e-18)
(9.32371 3.76263 -1.34052e-19)
(7.88755 3.35806 -2.38771e-19)
(6.18043 2.65036 -1.67713e-19)
(4.39515 1.70052 -1.16366e-20)
(2.84408 0.611452 5.63736e-20)
(2.41056 -0.330483 -1.19265e-19)
(3.95713 -0.941379 3.75504e-19)
(6.19621 -1.33398 -6.78989e-20)
(8.12736 -1.61442 -5.169e-19)
(9.4029 -1.78317 1.20263e-20)
(10.0856 -1.85282 2.2854e-19)
(10.4028 -1.85006 2.38884e-19)
(10.5535 -1.8026 -8.74371e-19)
(10.6547 -1.73141 8.57628e-19)
(10.7565 -1.64726 1.24105e-18)
(10.862 -1.55279 -1.92198e-18)
(10.958 -1.4495 -7.92013e-19)
(11.0356 -1.3376 2.05196e-18)
(11.0954 -1.22169 0)
(11.1452 -1.10711 -6.93076e-19)
(11.1893 -0.9963 1.6361e-18)
(11.2271 -0.888119 0)
(11.2544 -0.774532 1.63613e-18)
(11.273 -0.651976 1.38616e-18)
(11.3099 -0.555793 1.58431e-18)
(11.849 0.712792 -2.23913e-19)
(11.8451 0.836265 -3.94835e-18)
(11.8637 0.993862 3.54407e-18)
(11.8745 1.13868 0)
(11.8846 1.29593 0)
(11.8928 1.47581 0)
(11.8928 1.67052 0)
(11.8828 1.88023 0)
(11.8673 2.11028 2.35849e-18)
(11.8613 2.36793 -4.84842e-18)
(11.873 2.66345 0)
(11.8805 2.99576 0)
(11.8223 3.34648 -1.28217e-18)
(11.6047 3.6684 2.4692e-18)
(11.1098 3.91042 -2.64845e-18)
(10.2315 3.92137 2.34049e-18)
(8.93456 3.74187 -8.0144e-20)
(7.27015 3.22214 4.61261e-19)
(5.39318 2.42073 0)
(3.5267 1.40041 4.28228e-20)
(2.01799 0.27003 -3.86976e-20)
(1.80107 -0.661452 2.45706e-19)
(3.4871 -1.23718 1.5995e-19)
(5.78284 -1.61122 0)
(7.7971 -1.87827 7.21149e-19)
(9.19227 -2.03348 -3.34252e-19)
(9.99497 -2.08643 1.92314e-19)
(10.4012 -2.06356 1.40653e-19)
(10.6018 -1.99355 -3.99143e-19)
(10.7234 -1.89948 0)
(10.8323 -1.79561 0)
(10.9441 -1.6852 -5.41351e-20)
(11.0496 -1.57023 6.93878e-19)
(11.138 -1.44948 0)
(11.2058 -1.32558 0)
(11.2601 -1.2042 0)
(11.3073 -1.08833 -1.6702e-18)
(11.3485 -0.976637 0)
(11.3793 -0.860876 3.80652e-18)
(11.3996 -0.737828 -1.61665e-18)
(11.4332 -0.640234 2.16509e-19)
(12.018 0.754827 -1.29208e-17)
(12.0257 0.878648 6.21568e-18)
(12.0552 1.03324 2.11255e-18)
(12.074 1.17841 4.64836e-18)
(12.0907 1.33879 -9.59806e-18)
(12.1071 1.52208 2.26783e-18)
(12.1146 1.72057 -2.80938e-18)
(12.1166 1.9372 0)
(12.1247 2.18018 -5.92029e-18)
(12.1547 2.45861 2.90621e-18)
(12.1974 2.77915 3.02429e-18)
(12.2049 3.13018 1.42786e-18)
(12.0929 3.48291 -4.84421e-18)
(11.7556 3.78091 1.64915e-18)
(11.0747 3.96168 -1.98142e-18)
(9.96099 3.91658 1.53129e-19)
(8.41554 3.61303 9.01402e-19)
(6.53259 2.98544 -1.13532e-18)
(4.51104 2.10255 1.29434e-19)
(2.5922 1.02807 -2.35609e-19)
(1.16155 -0.122231 0)
(1.20204 -1.02154 -4.40973e-20)
(3.02124 -1.56155 -2.90315e-19)
(5.36602 -1.92035 -2.00481e-19)
(7.4582 -2.17792 -3.73734e-19)
(8.9751 -2.32137 2.68999e-19)
(9.90595 -2.35673 7.164e-20)
(10.4111 -2.31097 5.60137e-19)
(10.6713 -2.21487 -2.00315e-18)
(10.8182 -2.09311 2.31104e-18)
(10.9334 -1.96463 1.87587e-18)
(11.0475 -1.83356 -7.23544e-19)
(11.1579 -1.70267 1.18203e-18)
(11.2552 -1.57012 0)
(11.3306 -1.43615 0)
(11.3891 -1.30582 6.53343e-18)
(11.4376 -1.18265 -8.41303e-18)
(11.4801 -1.06589 4.14461e-18)
(11.5134 -0.946984 -1.94618e-18)
(11.5363 -0.82184 2.15837e-18)
(11.5667 -0.723217 -3.70842e-18)
(12.1978 0.77471 -7.49793e-18)
(12.2148 0.899466 0)
(12.2538 1.05133 -2.74828e-18)
(12.2836 1.20012 0)
(12.3081 1.36267 0)
(12.333 1.54744 2.74214e-18)
(12.3522 1.74992 2.87046e-18)
(12.3766 1.97529 -3.47331e-18)
(12.4202 2.23328 6.79253e-18)
(12.4911 2.53256 2.2133e-18)
(12.5526 2.8722 0)
(12.5329 3.22963 5.70928e-18)
(12.3323 3.56616 -6.24857e-18)
(11.8336 3.82042 4.39867e-18)
(10.9241 3.94564 -2.28259e-18)
(9.54325 3.79593 5.20156e-18)
(7.74587 3.35436 -2.84767e-18)
(5.67664 2.63747 1.33108e-18)
(3.54669 1.69759 -1.02959e-18)
(1.6061 0.590572 -4.70171e-20)
(0.2972 -0.552805 0)
(0.619916 -1.3968 4.1147e-20)
(2.55841 -1.90496 1.21141e-19)
(4.94432 -2.25288 -1.16788e-19)
(7.11105 -2.5057 8.29248e-20)
(8.75149 -2.64047 1.62493e-19)
(9.81884 -2.65953 -6.03059e-19)
(10.4348 -2.58963 -2.56909e-19)
(10.7663 -2.46525 -8.96628e-19)
(10.9458 -2.31158 9.39676e-19)
(11.0677 -2.15366 0)
(11.1803 -1.99707 0)
(11.2893 -1.84558 -4.89864e-18)
(11.3917 -1.69782 2.68122e-18)
(11.4733 -1.5513 -2.68371e-18)
(11.5357 -1.40994 -2.31603e-18)
(11.5842 -1.27697 0)
(11.6258 -1.15328 0)
(11.6595 -1.03035 2.55877e-18)
(11.6831 -0.900228 0)
(11.7117 -0.796742 -2.14785e-18)
(12.3847 0.774654 -1.10002e-17)
(12.4108 0.897475 -5.6798e-18)
(12.458 1.04627 1.17803e-17)
(12.5004 1.19838 -9.5735e-18)
(12.5346 1.36193 2.98525e-18)
(12.57 1.54688 3.6461e-18)
(12.608 1.75338 0)
(12.6686 1.98917 -5.28495e-19)
(12.7553 2.26228 -3.73756e-18)
(12.861 2.57764 -1.28503e-17)
(12.9132 2.92436 -4.71161e-19)
(12.8308 3.26903 4.84594e-18)
(12.5029 3.56946 -2.43192e-18)
(11.7941 3.7831 -2.65593e-18)
(10.6109 3.76193 3.19528e-19)
(8.95569 3.51156 1.09522e-18)
(6.9341 2.97577 -5.01978e-18)
(4.71908 2.19316 3.24944e-18)
(2.51798 1.22175 2.23546e-19)
(0.582854 0.103191 -4.04022e-19)
(-0.540861 -1.00276 0)
(0.0534539 -1.78065 2.51567e-20)
(2.0947 -2.25359 1.34499e-19)
(4.51407 -2.59685 -8.42723e-21)
(6.75065 -2.85045 -3.82823e-19)
(8.51698 -2.98138 1.69159e-18)
(9.73094 -2.98801 -1.14428e-18)
(10.4713 -2.89416 2.99581e-18)
(10.8881 -2.74106 -5.79795e-18)
(11.1115 -2.55235 9.61708e-19)
(11.2422 -2.3605 5.89142e-18)
(11.3517 -2.17381 3.67908e-19)
(11.4517 -1.99656 5.90835e-18)
(11.5531 -1.82988 -2.74232e-18)
(11.6373 -1.66792 -4.32775e-19)
(11.7034 -1.51381 -3.13354e-18)
(11.7516 -1.36876 8.86794e-18)
(11.791 -1.23579 -5.62946e-18)
(11.8221 -1.1067 -5.02671e-20)
(11.8422 -0.970532 -5.36434e-18)
(11.8702 -0.858051 1.07472e-17)
(12.5783 0.751938 -3.2287e-18)
(12.6124 0.868916 0)
(12.6674 1.01348 -3.20552e-18)
(12.7213 1.16657 3.37259e-18)
(12.7668 1.32998 3.53928e-18)
(12.8201 1.5159 4.32293e-18)
(12.8875 1.72623 -3.78541e-18)
(12.9961 1.97234 8.71116e-18)
(13.1204 2.25715 4.3401e-19)
(13.2391 2.57889 4.69229e-18)
(13.2388 2.91531 4.99975e-18)
(13.0553 3.22589 -8.98126e-18)
(12.5503 3.48187 -1.3823e-19)
(11.5865 3.58117 6.14946e-18)
(10.1137 3.47828 -6.30104e-18)
(8.20473 3.11486 2.97744e-18)
(6.00224 2.50243 -2.61038e-19)
(3.68286 1.68089 -2.41624e-18)
(1.44423 0.698545 2.20763e-18)
(-0.453239 -0.409604 -7.84568e-19)
(-1.33889 -1.44746 0)
(-0.487794 -2.15208 4.06301e-20)
(1.62572 -2.59109 3.45092e-19)
(4.07016 -2.93724 -1.16185e-19)
(6.37046 -3.19574 4.62786e-19)
(8.26329 -3.32884 -6.58819e-19)
(9.63411 -3.33072 -1.23072e-18)
(10.5144 -3.21541 5.28346e-20)
(11.0317 -3.03549 6.21049e-18)
(11.3163 -2.81086 1.8863e-19)
(11.4608 -2.58116 -3.11851e-18)
(11.5698 -2.36064 -3.22007e-18)
(11.6537 -2.1522 -1.0701e-17)
(11.7465 -1.96261 3.48624e-18)
(11.8272 -1.78178 -7.51612e-18)
(11.8954 -1.61344 1.00228e-17)
(11.943 -1.4546 -3.14972e-18)
(11.9789 -1.30995 0)
(12.0041 -1.1711 3.01802e-18)
(12.019 -1.03042 0)
(12.0454 -0.909119 3.15696e-18)
(12.7753 0.699223 -1.06507e-17)
(12.8172 0.810082 -7.35045e-18)
(12.8788 0.949324 7.55524e-18)
(12.9428 1.10019 0)
(13.0034 1.26283 0)
(13.0878 1.44878 0)
(13.1961 1.6633 -9.74504e-18)
(13.3562 1.9173 5.51801e-18)
(13.4933 2.20665 -1.08726e-17)
(13.5904 2.52011 5.801e-18)
(13.4839 2.82768 0)
(13.1676 3.09241 6.86291e-18)
(12.4261 3.28467 -3.02779e-19)
(11.1824 3.2834 -3.12101e-19)
(9.43003 3.07575 -8.10553e-18)
(7.30517 2.62061 7.75282e-18)
(4.97271 1.96473 -5.88142e-18)
(2.58994 1.1285 1.79606e-18)
(0.344742 0.153383 0)
(-1.46176 -0.914971 6.05283e-19)
(-2.07777 -1.8577 -2.14604e-19)
(-1.01047 -2.48445 -1.6385e-19)
(1.14827 -2.90399 0)
(3.60611 -3.25522 6.06607e-19)
(5.96197 -3.52143 -1.61596e-18)
(7.97846 -3.66025 2.86851e-18)
(9.51489 -3.66875 4.43416e-19)
(10.5551 -3.53801 4.01468e-18)
(11.1863 -3.33603 -3.62111e-18)
(11.5593 -3.079 -4.15937e-18)
(11.7248 -2.80928 0)
(11.8427 -2.5525 4.31891e-18)
(11.9054 -2.30806 -2.71249e-19)
(11.9823 -2.09088 -4.55594e-18)
(12.0493 -1.88772 8.29539e-18)
(12.1145 -1.70248 0)
(12.1597 -1.52881 0)
(12.1906 -1.37031 0)
(12.2075 -1.21967 7.29479e-18)
(12.2176 -1.07439 -7.09237e-18)
(12.2403 -0.947386 1.06865e-17)
(12.957 0.612054 -4.0262e-18)
(13.0119 0.72007 0)
(13.0834 0.854617 0)
(13.1562 0.994947 0)
(13.2446 1.15842 0)
(13.375 1.33876 1.06819e-17)
(13.5293 1.56041 -5.6668e-18)
(13.7312 1.81157 -1.18153e-17)
(13.8402 2.09591 -6.23893e-19)
(13.8829 2.38356 -7.47227e-18)
(13.6141 2.64995 -8.15106e-18)
(13.144 2.86059 4.49086e-18)
(12.0959 2.97178 -8.49619e-18)
(10.5751 2.8683 4.2727e-18)
(8.56618 2.57736 4.39196e-18)
(6.2878 2.05909 4.42753e-18)
(3.87611 1.39507 -4.60607e-18)
(1.46139 0.563327 2.15498e-18)
(-0.758609 -0.386768 -9.45194e-19)
(-2.41978 -1.37786 1.64205e-19)
(-2.76579 -2.20897 -3.02937e-19)
(-1.51979 -2.76575 1.40504e-19)
(0.661374 -3.17456 0)
(3.11475 -3.52968 1.01372e-18)
(5.51661 -3.80554 -3.94556e-18)
(7.65119 -3.94822 2.07046e-18)
(9.35708 -3.97408 -2.00916e-18)
(10.5918 -3.83923 -2.15921e-18)
(11.344 -3.62044 -5.23739e-18)
(11.8456 -3.33951 1.61083e-18)
(12.0374 -3.03269 5.88608e-18)
(12.1805 -2.73754 5.74049e-18)
(12.2174 -2.45787 1.07692e-17)
(12.2725 -2.20494 -3.56624e-19)
(12.3114 -1.9803 -1.4284e-17)
(12.3636 -1.77131 9.46712e-18)
(12.4014 -1.58533 0)
(12.4267 -1.40838 4.66888e-18)
(12.4347 -1.248 0)
(12.4418 -1.09604 0)
(12.456 -0.967101 4.14081e-18)
(13.11 0.498701 8.54242e-18)
(13.1821 0.592393 0)
(13.2704 0.7314 0)
(13.3493 0.845699 -1.57926e-17)
(13.4923 1.02084 1.07513e-17)
(13.6685 1.17664 0)
(13.8627 1.41415 0)
(14.0804 1.63038 0)
(14.113 1.90826 2.29176e-17)
(14.0751 2.15518 -2.93364e-19)
(13.5974 2.38488 -7.00308e-19)
(12.9815 2.53985 2.89392e-17)
(11.5188 2.54772 -1.51032e-17)
(9.80689 2.37381 1.05351e-17)
(7.55488 2.01586 -1.1157e-17)
(5.20778 1.48613 -5.11976e-18)
(2.73657 0.830356 2.17856e-19)
(0.307334 0.0177261 2.51318e-18)
(-1.79921 -0.878514 1.93223e-18)
(-3.24627 -1.75385 -9.57893e-19)
(-3.31456 -2.45762 0)
(-2.0086 -2.9918 -7.47427e-19)
(0.150671 -3.39048 7.53261e-19)
(2.57739 -3.74339 1.5216e-18)
(5.0259 -4.02714 3.43935e-18)
(7.28262 -4.17218 -3.02363e-18)
(9.12889 -4.21467 4.66928e-19)
(10.6305 -4.09667 6.64431e-18)
(11.487 -3.86095 -1.01699e-17)
(12.1788 -3.55899 1.19686e-17)
(12.3922 -3.23222 -1.26147e-17)
(12.5849 -2.88714 -1.227e-17)
(12.591 -2.59375 4.87284e-19)
(12.6234 -2.28474 6.45578e-18)
(12.6229 -2.05587 0)
(12.6471 -1.804 0)
(12.6683 -1.62139 1.05022e-17)
(12.6874 -1.41242 -9.61807e-18)
(12.6854 -1.25676 0)
(12.6885 -1.08305 0)
(12.6837 -0.960272 -8.92635e-18)
(13.2538 0.366743 -4.53058e-18)
(13.3249 0.418838 0)
(13.4498 0.585065 0)
(13.5179 0.646174 -3.68329e-19)
(13.7666 0.855374 0)
(13.9326 0.949729 1.35456e-17)
(14.1654 1.21752 -1.38944e-17)
(14.3417 1.34719 0)
(14.2469 1.65879 -1.72099e-17)
(14.1686 1.8443 0)
(13.3305 2.05614 1.06625e-17)
(12.6723 2.16171 -1.02925e-17)
(10.6168 2.03792 -1.73529e-17)
(8.97219 1.86735 6.0428e-18)
(6.38306 1.43646 -6.28182e-20)
(4.15523 0.992923 1.20546e-17)
(1.54195 0.29665 -3.2692e-18)
(-0.938341 -0.469767 0)
(-2.97486 -1.3277 0)
(-4.18286 -2.06078 1.21018e-18)
(-4.24366 -2.61526 0)
(-2.64403 -3.06484 -1.16475e-18)
(-0.468165 -3.5113 -2.39674e-18)
(2.00311 -3.91313 0)
(4.45578 -4.16652 -6.20849e-18)
(6.92211 -4.32533 8.62487e-18)
(8.73415 -4.35693 -8.21672e-18)
(10.6619 -4.2968 4.45036e-18)
(11.5209 -4.05113 -1.31558e-17)
(12.5177 -3.69571 2.53786e-17)
(12.7323 -3.40049 -8.91912e-18)
(13.0266 -2.95855 0)
(13.0126 -2.71306 8.10132e-18)
(13.0265 -2.30212 -6.61327e-18)
(12.9953 -2.11999 -1.33842e-17)
(12.9688 -1.77715 1.30213e-17)
(12.9662 -1.64305 0)
(12.9676 -1.36072 6.0782e-19)
(12.955 -1.25272 0)
(12.945 -1.01388 0)
(12.9223 -0.930436 4.80207e-18)
(12.8948 -0.736291 -5.10886e-18)
(12.6948 -0.834137 0)
(12.4951 -0.871692 0)
(12.2977 -0.875214 -7.30637e-18)
(12.1119 -0.857044 -3.29529e-18)
(11.9408 -0.822352 -5.86774e-18)
(11.784 -0.769829 -2.82672e-19)
(11.645 -0.703009 -2.68909e-18)
(11.5206 -0.626326 -2.18825e-18)
(11.4053 -0.550862 2.18546e-18)
(11.2946 -0.463262 0)
(11.1842 -0.392654 0)
(11.0775 -0.279787 3.06513e-18)
(10.9777 -0.246189 -4.78363e-18)
(10.8703 -0.0168116 -4.57293e-18)
(10.4065 0.0139761 -3.16303e-18)
(8.88598 0.495981 2.03794e-19)
(12.8724 -0.66615 -1.02371e-17)
(12.6973 -0.715963 0)
(12.5338 -0.753026 0)
(12.3678 -0.769516 -1.26626e-17)
(12.2023 -0.765936 -3.99659e-18)
(12.043 -0.745539 -7.14895e-18)
(11.8928 -0.707859 3.06023e-18)
(11.7611 -0.656822 -3.05434e-18)
(11.645 -0.591035 2.55467e-18)
(11.5358 -0.524093 -2.54898e-18)
(11.4281 -0.444232 -4.64593e-18)
(11.3236 -0.382592 0)
(11.2187 -0.273579 -3.23881e-18)
(11.1291 -0.255168 3.42866e-18)
(11.0231 -0.0428057 2.3654e-18)
(10.6507 -0.1583 -2.73626e-18)
(9.08661 0.340426 0)
(12.836 -0.488716 2.17848e-17)
(12.6966 -0.587222 4.8983e-18)
(12.5581 -0.640516 0)
(12.4166 -0.665707 8.98572e-18)
(12.27 -0.67426 0)
(12.1242 -0.667054 7.62054e-18)
(11.9851 -0.644646 -3.45787e-18)
(11.8618 -0.607071 3.44724e-18)
(11.7544 -0.553194 0)
(11.6525 -0.494845 2.71575e-18)
(11.5501 -0.424519 -2.71534e-19)
(11.4507 -0.368247 2.14199e-19)
(11.3506 -0.267931 3.28837e-18)
(11.2665 -0.251243 -5.56982e-18)
(11.1617 -0.042247 9.18517e-19)
(10.7986 -0.196507 3.24989e-18)
(9.27751 0.371272 -3.6669e-19)
(12.808 -0.432283 -5.33044e-18)
(12.6837 -0.488224 -1.09126e-17)
(12.5694 -0.532407 -1.02602e-17)
(12.453 -0.564186 -9.78052e-18)
(12.3274 -0.581302 4.45635e-18)
(12.1979 -0.584226 -1.31534e-17)
(12.0733 -0.575066 -3.88029e-18)
(11.9604 -0.550182 3.86328e-18)
(11.8615 -0.509711 0)
(11.7671 -0.460327 0)
(11.6717 -0.400183 -9.21523e-18)
(11.5786 -0.348513 5.60043e-18)
(11.4853 -0.26173 -2.68277e-18)
(11.4064 -0.242806 0)
(11.3071 -0.0629166 0)
(10.9635 -0.207595 0)
(9.51239 0.342521 -3.77767e-18)
(12.7626 -0.277872 2.38635e-17)
(12.669 -0.373304 5.62066e-18)
(12.5741 -0.431776 5.4404e-18)
(12.4768 -0.468118 1.04966e-17)
(12.3715 -0.490007 0)
(12.2603 -0.500967 1.8866e-17)
(12.1524 -0.501039 0)
(12.052 -0.487957 -8.53169e-18)
(11.9609 -0.461069 3.82552e-18)
(11.874 -0.421491 -1.5017e-17)
(11.787 -0.371176 1.02635e-17)
(11.7018 -0.324052 6.78462e-18)
(11.6167 -0.249263 0)
(11.5435 -0.226715 1.36564e-18)
(11.4505 -0.0651776 -1.35756e-18)
(11.1235 -0.194848 -2.89826e-19)
(9.75412 0.324439 -4.34566e-19)
(12.731 -0.233804 -1.27286e-17)
(12.6439 -0.290434 0)
(12.5665 -0.338757 -5.75221e-18)
(12.4866 -0.375784 5.70888e-18)
(12.4014 -0.402488 0)
(12.3114 -0.418716 -1.02239e-17)
(12.2222 -0.425181 4.79282e-18)
(12.1361 -0.422568 8.89084e-18)
(12.0524 -0.406888 -4.50241e-18)
(11.9726 -0.378194 4.03429e-18)
(11.8947 -0.338009 4.04188e-18)
(11.8187 -0.29628 -5.37741e-18)
(11.7431 -0.2341 -1.80808e-18)
(11.677 -0.207051 0)
(11.5921 -0.0762756 0)
(11.281 -0.168981 3.51692e-19)
(9.98864 0.280279 4.59928e-18)
(12.6791 -0.099998 6.6395e-18)
(12.6165 -0.189854 6.30119e-18)
(12.5525 -0.249751 -6.12173e-18)
(12.4856 -0.290416 1.19889e-17)
(12.4167 -0.319548 -5.81786e-18)
(12.3485 -0.339258 5.5832e-18)
(12.28 -0.350449 -5.32983e-18)
(12.2093 -0.354043 5.37552e-18)
(12.1351 -0.34789 9.76834e-18)
(12.062 -0.330983 -4.74347e-18)
(11.993 -0.301363 -4.35512e-18)
(11.9266 -0.265615 8.66283e-18)
(11.8613 -0.215165 4.15848e-18)
(11.8035 -0.183967 2.10578e-18)
(11.7274 -0.0778606 6.52277e-18)
(11.432 -0.140018 2.33402e-18)
(10.2127 0.241356 3.80218e-18)
(12.6455 -0.066731 -1.40158e-17)
(12.5829 -0.123313 6.63618e-18)
(12.5287 -0.170874 -6.50425e-18)
(12.474 -0.209891 6.42733e-18)
(12.4197 -0.241226 -1.23577e-17)
(12.3698 -0.263992 1.19406e-17)
(12.3212 -0.277992 -5.91242e-18)
(12.2671 -0.28539 -5.5916e-18)
(12.206 -0.286241 0)
(12.142 -0.279179 5.22578e-18)
(12.081 -0.260881 0)
(12.0236 -0.233367 2.20634e-19)
(11.9689 -0.194653 2.50051e-19)
(11.9203 -0.161835 2.73792e-19)
(11.8536 -0.0822443 -2.96298e-18)
(11.5736 -0.109831 -6.91792e-19)
(10.42 0.195942 -3.56045e-18)
(12.5887 0.0457722 0)
(12.5467 -0.0380767 -2.07059e-19)
(12.5019 -0.0942354 6.8432e-18)
(12.4563 -0.134657 -1.33901e-17)
(12.4147 -0.167367 1.97448e-17)
(12.3782 -0.192844 -6.34713e-18)
(12.3432 -0.210162 6.24414e-18)
(12.304 -0.219943 -6.07475e-18)
(12.2586 -0.223934 5.85496e-18)
(12.2084 -0.223918 -5.56568e-18)
(12.1572 -0.215209 0)
(12.1082 -0.198466 -1.04435e-17)
(12.0633 -0.170838 -4.92814e-18)
(12.0238 -0.14043 -4.7343e-18)
(11.9662 -0.0841533 1.15852e-18)
(11.7024 -0.0822229 -4.95879e-18)
(10.6103 0.145917 -5.50767e-19)
(12.5515 0.0689654 1.55656e-17)
(12.505 0.0144338 -2.26568e-17)
(12.4678 -0.028869 7.1465e-18)
(12.4337 -0.0657418 7.21791e-18)
(12.4039 -0.0987675 -1.39362e-17)
(12.3775 -0.125975 6.80496e-18)
(12.3503 -0.145707 6.62669e-18)
(12.3203 -0.159716 -6.4386e-18)
(12.2881 -0.166245 -6.24588e-18)
(12.2535 -0.16897 0)
(12.2164 -0.164913 2.92696e-18)
(12.1776 -0.159717 2.74933e-18)
(12.1418 -0.142535 -2.84855e-18)
(12.1109 -0.119564 -1.37257e-18)
(12.0597 -0.0819142 -1.30778e-18)
(11.8144 -0.0612228 -5.7558e-18)
(10.7808 0.0915938 6.1572e-19)
(12.4876 0.162421 -7.97916e-18)
(12.4596 0.084497 -7.87241e-18)
(12.4318 0.0342392 -1.03144e-19)
(12.4083 -0.00229092 0)
(12.389 -0.0350631 0)
(12.3697 -0.0634172 -7.11567e-18)
(12.3475 -0.0857994 6.98058e-18)
(12.3232 -0.102766 0)
(12.299 -0.113219 0)
(12.2752 -0.120476 0)
(12.2514 -0.118368 0)
(12.2253 -0.118528 -6.11793e-18)
(12.2008 -0.106657 8.86579e-18)
(12.1783 -0.0973257 -4.35503e-18)
(12.1309 -0.0739284 1.41723e-18)
(11.9052 -0.0444907 5.38664e-18)
(10.9258 0.041874 0)
(12.4454 0.175898 4.52487e-18)
(12.4111 0.123068 0)
(12.391 0.0862389 -3.96048e-18)
(12.3781 0.0536214 3.995e-18)
(12.3672 0.0208421 -7.68367e-18)
(12.3537 -0.00761506 -3.68496e-18)
(12.3365 -0.030499 -3.5982e-18)
(12.3179 -0.0499133 -3.51421e-18)
(12.2996 -0.0641206 2.83502e-20)
(12.282 -0.0761965 -3.36824e-18)
(12.2656 -0.0786301 -6.58799e-18)
(12.2486 -0.0846235 6.47092e-18)
(12.236 -0.0719164 -3.15584e-18)
(12.2232 -0.075704 -3.07102e-18)
(12.184 -0.0582966 -3.0062e-18)
(11.9715 -0.0345622 -2.94032e-18)
(11.0402 0.00375238 -2.89546e-18)
(12.3733 0.251264 8.9785e-18)
(12.3588 0.179186 -8.52969e-18)
(12.3498 0.137768 4.2704e-18)
(12.3444 0.104261 4.16319e-18)
(12.3377 0.0703957 7.75098e-20)
(12.3277 0.0415773 5.76203e-20)
(12.3156 0.0176564 7.62697e-18)
(12.303 -0.00364283 1.02316e-19)
(12.2908 -0.0197478 3.64112e-18)
(12.2788 -0.0351596 7.06664e-18)
(12.2677 -0.0410081 2.20075e-20)
(12.2565 -0.0550238 3.37625e-18)
(12.2517 -0.0469524 -3.25167e-18)
(12.2447 -0.0612585 -1.57301e-18)
(12.2161 -0.0375949 4.71633e-18)
(12.0132 -0.0290773 3.06901e-18)
(11.123 -0.019035 3.01616e-18)
(12.3258 0.255638 -9.13906e-18)
(12.3051 0.207506 9.03825e-18)
(12.3028 0.178195 0)
(12.3029 0.147414 4.22675e-18)
(12.2986 0.114173 -3.92681e-18)
(12.2914 0.0855387 0)
(12.2836 0.0607061 -3.80607e-18)
(12.2759 0.0374455 3.85333e-18)
(12.2688 0.0190019 -3.70243e-18)
(12.262 -6.6235e-05 3.60717e-18)
(12.256 -0.00822212 3.53073e-18)
(12.2548 -0.0282881 -3.44397e-18)
(12.2547 -0.0204523 3.40326e-18)
(12.2499 -0.0462879 4.97995e-18)
(12.2297 -0.0225251 -1.61476e-18)
(12.0307 -0.0302822 0)
(11.1795 -0.0255084 0)
(12.2481 0.317918 4.87782e-18)
(12.2479 0.254473 0)
(12.252 0.218822 0)
(12.2531 0.187603 0)
(12.2494 0.154538 4.26991e-18)
(12.2445 0.125389 4.05874e-18)
(12.24 0.0996428 4.041e-18)
(12.2359 0.075215 -3.82875e-18)
(12.2322 0.0546125 -3.74369e-18)
(12.2292 0.0328821 3.63791e-18)
(12.2269 0.0220359 1.7832e-18)
(12.2265 -0.00366888 -1.73536e-18)
(12.2284 0.00390871 0)
(12.232 -0.0354385 -1.66917e-18)
(12.2265 -0.00437404 1.62783e-18)
(12.023 -0.0377548 0)
(11.2112 -0.0306564 0)
(12.1987 0.319459 0)
(12.1907 0.277403 4.64734e-18)
(12.1933 0.249799 -2.29792e-18)
(12.1936 0.221429 0)
(12.1906 0.190104 0)
(12.1875 0.161269 0)
(12.185 0.134948 -3.93537e-18)
(12.1829 0.109681 3.80688e-18)
(12.1813 0.0871194 1.79563e-18)
(12.1805 0.0634529 -1.81023e-18)
(12.1805 0.0492233 3.52203e-18)
(12.1834 0.0196665 -1.71448e-18)
(12.1881 0.0267776 0)
(12.1943 -0.0246444 8.24567e-19)
(12.1822 0.0166051 7.53941e-19)
(11.9915 -0.0485703 -3.96773e-19)
(11.2176 -0.0198051 3.88187e-19)
(12.1219 0.375371 2.35362e-18)
(12.129 0.318542 7.47703e-20)
(12.1296 0.283427 -2.36068e-18)
(12.1273 0.253719 2.14097e-18)
(12.1241 0.223015 -7.00634e-20)
(12.1213 0.193882 -3.90687e-18)
(12.1192 0.166897 3.76927e-18)
(12.1177 0.141132 0)
(12.1166 0.117139 -3.67612e-18)
(12.1166 0.0923956 -7.69156e-21)
(12.1174 0.07501 1.7024e-18)
(12.1212 0.0433388 0)
(12.1263 0.0472808 0)
(12.134 -0.0139588 0)
(12.1159 0.03837 -1.21112e-18)
(11.9398 -0.0614095 -5.68606e-19)
(11.1975 0.00199059 1.86413e-19)
(12.0685 0.378585 -1.32756e-18)
(12.0633 0.338515 2.35471e-18)
(12.0585 0.310369 -2.24856e-18)
(12.0542 0.2813 -2.08e-18)
(12.05 0.252611 -2.06951e-18)
(12.0463 0.224101 3.9022e-18)
(12.0431 0.196858 -7.15617e-20)
(12.0406 0.170498 -3.55665e-18)
(12.0389 0.144985 1.71649e-18)
(12.0383 0.119572 -8.33801e-19)
(12.0385 0.0994914 8.05899e-19)
(12.0421 0.0675226 -1.53183e-18)
(12.0466 0.0672638 7.61418e-19)