/*--------------------------------*- C++ -*----------------------------------*\
  =========                 |
  \\      /  F ield         | OpenFOAM: The Open Source CFD Toolbox
   \\    /   O peration     | Website:  https://openfoam.org
    \\  /    A nd           | Version:  6
     \\/     M anipulation  |
\*---------------------------------------------------------------------------*/
FoamFile
{
    version     2.0;
    format      ascii;
    class       volVectorField;
    location    "4.97";
    object      U;
}
// * * * * * * * * * * * * * * * * * * * * * * * * * * * * * * * * * * * * * //

dimensions      [0 1 -1 0 0 0 0];

internalField   nonuniform List<vector> 
10000
(
(0.894392 0.44718 0)
(0.894391 0.447184 0)
(0.894392 0.447187 0)
(0.894393 0.447191 0)
(0.894395 0.447193 0)
(0.894396 0.447196 0)
(0.894397 0.447197 0)
(0.894398 0.447198 0)
(0.894399 0.447199 0)
(0.894399 0.4472 0)
(0.8944 0.447199 0)
(0.8944 0.4472 0)
(0.8944 0.4472 0)
(0.8944 0.4472 0)
(0.8944 0.4472 0)
(0.8944 0.4472 0)
(0.8944 0.4472 0)
(0.8944 0.4472 0)
(0.8944 0.4472 0)
(0.8944 0.4472 0)
(0.8944 0.4472 0)
(0.8944 0.4472 0)
(0.8944 0.4472 0)
(0.8944 0.4472 0)
(0.8944 0.4472 0)
(0.8944 0.4472 0)
(0.8944 0.4472 0)
(0.8944 0.4472 0)
(0.8944 0.4472 0)
(0.8944 0.4472 0)
(0.8944 0.4472 0)
(0.8944 0.4472 0)
(0.8944 0.4472 0)
(0.8944 0.4472 0)
(0.8944 0.4472 0)
(0.894399 0.4472 0)
(0.894399 0.447201 0)
(0.894398 0.447201 0)
(0.894397 0.447203 0)
(0.894395 0.447205 0)
(0.894392 0.447208 0)
(0.894389 0.447212 0)
(0.894385 0.447218 0)
(0.894381 0.447226 0)
(0.894378 0.447235 0)
(0.894377 0.447246 0)
(0.894378 0.447258 0)
(0.894381 0.447272 0)
(0.894383 0.44729 0)
(0.89438 0.447317 0)
(0.894361 0.447364 0)
(0.894312 0.447448 0)
(0.894214 0.447596 0)
(0.894048 0.447841 0)
(0.893798 0.448225 0)
(0.893455 0.448788 0)
(0.89302 0.449565 0)
(0.89251 0.450577 0)
(0.891954 0.451826 0)
(0.891391 0.453292 0)
(0.890866 0.454933 0)
(0.890424 0.456692 0)
(0.890102 0.458499 0)
(0.889928 0.460284 0)
(0.889918 0.461983 0)
(0.890074 0.463539 0)
(0.890388 0.464913 0)
(0.890844 0.466077 0)
(0.891422 0.467015 0)
(0.892097 0.467723 0)
(0.892845 0.4682 0)
(0.893643 0.468448 0)
(0.894465 0.468468 0)
(0.895287 0.468259 0)
(0.896087 0.46782 0)
(0.896835 0.467143 0)
(0.897504 0.466224 0)
(0.898061 0.465065 0)
(0.898474 0.463677 0)
(0.89872 0.462092 0)
(0.898788 0.460362 0)
(0.898682 0.458556 0)
(0.898424 0.456751 0)
(0.898048 0.455024 0)
(0.897598 0.453437 0)
(0.897114 0.452036 0)
(0.896634 0.450846 0)
(0.896185 0.44987 0)
(0.895786 0.449096 0)
(0.895445 0.448502 0)
(0.895164 0.448061 0)
(0.894942 0.447744 0)
(0.89477 0.447524 0)
(0.894643 0.447377 0)
(0.894551 0.447283 0)
(0.894487 0.447227 0)
(0.894445 0.447196 0)
(0.894419 0.447181 0)
(0.894403 0.447176 0)
(0.894395 0.447177 0)
(0.894389 0.447174 0)
(0.894388 0.447179 0)
(0.894389 0.447183 0)
(0.894391 0.447188 0)
(0.894393 0.447191 0)
(0.894395 0.447194 0)
(0.894396 0.447196 0)
(0.894397 0.447197 0)
(0.894398 0.447198 0)
(0.894399 0.447199 0)
(0.894399 0.4472 0)
(0.8944 0.4472 0)
(0.8944 0.4472 0)
(0.8944 0.4472 0)
(0.8944 0.4472 0)
(0.8944 0.4472 0)
(0.8944 0.4472 0)
(0.8944 0.4472 0)
(0.8944 0.4472 0)
(0.8944 0.4472 0)
(0.8944 0.4472 0)
(0.8944 0.4472 0)
(0.8944 0.4472 0)
(0.8944 0.4472 0)
(0.8944 0.4472 0)
(0.8944 0.4472 0)
(0.8944 0.4472 0)
(0.8944 0.4472 0)
(0.8944 0.4472 0)
(0.8944 0.4472 0)
(0.8944 0.4472 0)
(0.8944 0.4472 0)
(0.8944 0.4472 0)
(0.8944 0.4472 0)
(0.8944 0.4472 0)
(0.894399 0.447201 0)
(0.894398 0.447201 0)
(0.894397 0.447202 0)
(0.894395 0.447204 0)
(0.894393 0.447206 0)
(0.894389 0.447211 0)
(0.894384 0.447216 0)
(0.894379 0.447224 0)
(0.894374 0.447234 0)
(0.894369 0.447247 0)
(0.894367 0.447261 0)
(0.894366 0.447279 0)
(0.894366 0.447299 0)
(0.894362 0.447329 0)
(0.894345 0.447375 0)
(0.894298 0.447456 0)
(0.894202 0.447598 0)
(0.89403 0.447839 0)
(0.893758 0.448228 0)
(0.893368 0.448818 0)
(0.892852 0.449656 0)
(0.892225 0.450778 0)
(0.891517 0.452196 0)
(0.890776 0.453892 0)
(0.89006 0.45582 0)
(0.889429 0.457908 0)
(0.888937 0.460068 0)
(0.888624 0.462209 0)
(0.888514 0.464246 0)
(0.888614 0.466112 0)
(0.888915 0.467756 0)
(0.889396 0.469152 0)
(0.89003 0.47029 0)
(0.890787 0.471174 0)
(0.891639 0.471819 0)
(0.89256 0.47224 0)
(0.893526 0.472453 0)
(0.894516 0.472465 0)
(0.89551 0.472277 0)
(0.896486 0.471882 0)
(0.897421 0.471263 0)
(0.898285 0.470397 0)
(0.899038 0.469261 0)
(0.899639 0.467842 0)
(0.900044 0.466147 0)
(0.900225 0.464215 0)
(0.900173 0.462113 0)
(0.899902 0.459933 0)
(0.899452 0.457776 0)
(0.898875 0.45574 0)
(0.898231 0.453899 0)
(0.897574 0.452303 0)
(0.896949 0.450971 0)
(0.896385 0.449902 0)
(0.8959 0.449072 0)
(0.895499 0.44845 0)
(0.895179 0.447999 0)
(0.894933 0.447684 0)
(0.89475 0.447471 0)
(0.894618 0.447335 0)
(0.894527 0.447251 0)
(0.894466 0.447204 0)
(0.894428 0.447181 0)
(0.894406 0.447172 0)
(0.894394 0.447171 0)
(0.894386 0.447167 0)
(0.894384 0.447173 0)
(0.894385 0.447179 0)
(0.894388 0.447184 0)
(0.89439 0.447189 0)
(0.894393 0.447192 0)
(0.894395 0.447195 0)
(0.894396 0.447197 0)
(0.894398 0.447198 0)
(0.894399 0.447199 0)
(0.894399 0.447199 0)
(0.894399 0.4472 0)
(0.8944 0.4472 0)
(0.8944 0.4472 0)
(0.8944 0.4472 0)
(0.8944 0.4472 0)
(0.8944 0.4472 0)
(0.8944 0.4472 0)
(0.8944 0.4472 0)
(0.8944 0.4472 0)
(0.8944 0.4472 0)
(0.8944 0.4472 0)
(0.8944 0.4472 0)
(0.8944 0.4472 0)
(0.8944 0.4472 0)
(0.8944 0.4472 0)
(0.8944 0.4472 0)
(0.8944 0.4472 0)
(0.8944 0.4472 0)
(0.8944 0.4472 0)
(0.8944 0.4472 0)
(0.8944 0.4472 0)
(0.8944 0.4472 0)
(0.8944 0.4472 0)
(0.894399 0.447201 0)
(0.894399 0.447201 0)
(0.894398 0.447202 0)
(0.894396 0.447203 0)
(0.894394 0.447205 0)
(0.89439 0.447209 0)
(0.894385 0.447214 0)
(0.894379 0.447221 0)
(0.894371 0.447232 0)
(0.894364 0.447245 0)
(0.894358 0.447261 0)
(0.894353 0.447281 0)
(0.894349 0.447304 0)
(0.894343 0.447335 0)
(0.894327 0.447381 0)
(0.894285 0.447457 0)
(0.894194 0.447589 0)
(0.894024 0.447817 0)
(0.893741 0.448196 0)
(0.893315 0.448788 0)
(0.892728 0.449659 0)
(0.891984 0.450862 0)
(0.891115 0.452422 0)
(0.890173 0.454328 0)
(0.889234 0.456529 0)
(0.888377 0.458937 0)
(0.887677 0.461441 0)
(0.887192 0.463921 0)
(0.886959 0.466267 0)
(0.886987 0.468392 0)
(0.887266 0.470236 0)
(0.887767 0.47177 0)
(0.888454 0.472994 0)
(0.889287 0.473928 0)
(0.890227 0.474605 0)
(0.891244 0.475065 0)
(0.892313 0.475345 0)
(0.893416 0.475474 0)
(0.894539 0.47547 0)
(0.895669 0.475337 0)
(0.896796 0.475063 0)
(0.897904 0.474619 0)
(0.898967 0.473964 0)
(0.899945 0.473042 0)
(0.900783 0.471803 0)
(0.90142 0.470213 0)
(0.901799 0.468275 0)
(0.901882 0.466037 0)
(0.901668 0.46359 0)
(0.901188 0.461058 0)
(0.900502 0.458573 0)
(0.89969 0.456254 0)
(0.898828 0.454189 0)
(0.897985 0.452429 0)
(0.89721 0.450989 0)
(0.896533 0.449854 0)
(0.895969 0.448993 0)
(0.895516 0.448362 0)
(0.895166 0.447916 0)
(0.894905 0.447613 0)
(0.894716 0.447415 0)
(0.894585 0.447293 0)
(0.894498 0.447222 0)
(0.894443 0.447185 0)
(0.894411 0.447169 0)
(0.894394 0.447165 0)
(0.894383 0.447161 0)
(0.89438 0.447166 0)
(0.894381 0.447173 0)
(0.894383 0.44718 0)
(0.894387 0.447185 0)
(0.89439 0.44719 0)
(0.894393 0.447193 0)
(0.894395 0.447196 0)
(0.894397 0.447197 0)
(0.894398 0.447198 0)
(0.894399 0.447199 0)
(0.894399 0.447199 0)
(0.8944 0.4472 0)
(0.8944 0.4472 0)
(0.8944 0.4472 0)
(0.8944 0.4472 0)
(0.8944 0.4472 0)
(0.8944 0.4472 0)
(0.8944 0.4472 0)
(0.8944 0.4472 0)
(0.8944 0.4472 0)
(0.8944 0.4472 0)
(0.8944 0.4472 0)
(0.8944 0.4472 0)
(0.8944 0.4472 0)
(0.8944 0.4472 0)
(0.8944 0.4472 0)
(0.8944 0.4472 0)
(0.8944 0.4472 0)
(0.8944 0.4472 0)
(0.8944 0.4472 0)
(0.8944 0.4472 0)
(0.8944 0.4472 0)
(0.894399 0.4472 0)
(0.894399 0.447201 0)
(0.894398 0.447201 0)
(0.894397 0.447202 0)
(0.894395 0.447204 0)
(0.894391 0.447207 0)
(0.894386 0.447211 0)
(0.89438 0.447218 0)
(0.894371 0.447228 0)
(0.894361 0.447241 0)
(0.894352 0.447258 0)
(0.894342 0.447279 0)
(0.894334 0.447304 0)
(0.894325 0.447337 0)
(0.894309 0.447381 0)
(0.894271 0.447452 0)
(0.894188 0.447572 0)
(0.894028 0.44778 0)
(0.893747 0.448133 0)
(0.893303 0.448704 0)
(0.892661 0.449575 0)
(0.891812 0.450819 0)
(0.89078 0.452481 0)
(0.889625 0.454562 0)
(0.888436 0.457009 0)
(0.887317 0.459717 0)
(0.886372 0.462544 0)
(0.885684 0.465336 0)
(0.885304 0.467949 0)
(0.885252 0.470267 0)
(0.885511 0.472217 0)
(0.886043 0.473769 0)
(0.886796 0.474932 0)
(0.887714 0.475746 0)
(0.888745 0.476269 0)
(0.889845 0.476568 0)
(0.890985 0.476711 0)
(0.892147 0.476758 0)
(0.893323 0.476752 0)
(0.89451 0.476721 0)
(0.895711 0.476672 0)
(0.896929 0.476591 0)
(0.89816 0.476441 0)
(0.899394 0.476164 0)
(0.900598 0.475675 0)
(0.901711 0.474879 0)
(0.902651 0.473686 0)
(0.903329 0.47204 0)
(0.903666 0.46994 0)
(0.903621 0.467452 0)
(0.903204 0.464705 0)
(0.902471 0.461861 0)
(0.901515 0.459088 0)
(0.90044 0.45653 0)
(0.899347 0.454286 0)
(0.898315 0.452405 0)
(0.897396 0.450896 0)
(0.896618 0.44973 0)
(0.895987 0.448865 0)
(0.895495 0.448245 0)
(0.895126 0.447818 0)
(0.894858 0.447536 0)
(0.894672 0.447358 0)
(0.894547 0.447253 0)
(0.894468 0.447196 0)
(0.894421 0.447169 0)
(0.894395 0.44716 0)
(0.894382 0.447155 0)
(0.894375 0.44716 0)
(0.894375 0.447167 0)
(0.894378 0.447175 0)
(0.894383 0.447182 0)
(0.894387 0.447187 0)
(0.894391 0.447191 0)
(0.894393 0.447194 0)
(0.894396 0.447196 0)
(0.894397 0.447198 0)
(0.894398 0.447198 0)
(0.894399 0.447199 0)
(0.894399 0.447199 0)
(0.8944 0.4472 0)
(0.8944 0.4472 0)
(0.8944 0.4472 0)
(0.8944 0.4472 0)
(0.8944 0.4472 0)
(0.8944 0.4472 0)
(0.8944 0.4472 0)
(0.8944 0.4472 0)
(0.8944 0.4472 0)
(0.8944 0.4472 0)
(0.8944 0.4472 0)
(0.8944 0.4472 0)
(0.8944 0.4472 0)
(0.8944 0.4472 0)
(0.8944 0.4472 0)
(0.8944 0.4472 0)
(0.8944 0.4472 0)
(0.8944 0.4472 0)
(0.8944 0.4472 0)
(0.8944 0.4472 0)
(0.894399 0.4472 0)
(0.894399 0.447201 0)
(0.894398 0.447201 0)
(0.894396 0.447203 0)
(0.894393 0.447205 0)
(0.894388 0.447209 0)
(0.894381 0.447215 0)
(0.894372 0.447224 0)
(0.894361 0.447236 0)
(0.894349 0.447253 0)
(0.894336 0.447274 0)
(0.894323 0.4473 0)
(0.89431 0.447333 0)
(0.894291 0.447377 0)
(0.894257 0.447442 0)
(0.894184 0.447549 0)
(0.894039 0.447732 0)
(0.893773 0.448049 0)
(0.893331 0.448577 0)
(0.89266 0.449413 0)
(0.891729 0.450651 0)
(0.890549 0.452364 0)
(0.889177 0.454571 0)
(0.887718 0.457223 0)
(0.886306 0.460198 0)
(0.885079 0.463321 0)
(0.884155 0.466393 0)
(0.88361 0.469226 0)
(0.883472 0.47167 0)
(0.883723 0.47363 0)
(0.88431 0.475074 0)
(0.885159 0.476022 0)
(0.886192 0.476537 0)
(0.887335 0.476705 0)
(0.888529 0.476625 0)
(0.889732 0.476399 0)
(0.890921 0.476116 0)
(0.892089 0.475855 0)
(0.893244 0.475672 0)
(0.8944 0.475601 0)
(0.895577 0.475653 0)
(0.896793 0.475814 0)
(0.898067 0.476047 0)
(0.899406 0.476283 0)
(0.900795 0.476418 0)
(0.902184 0.476321 0)
(0.903478 0.475841 0)
(0.904555 0.474845 0)
(0.905284 0.473254 0)
(0.905566 0.471072 0)
(0.905362 0.468396 0)
(0.904702 0.465399 0)
(0.903679 0.462295 0)
(0.902425 0.45929 0)
(0.901075 0.45655 0)
(0.89975 0.454183 0)
(0.898539 0.452235 0)
(0.897492 0.4507 0)
(0.89663 0.44954 0)
(0.895951 0.448696 0)
(0.895436 0.448107 0)
(0.895061 0.447712 0)
(0.894797 0.447459 0)
(0.89462 0.447305 0)
(0.894506 0.447219 0)
(0.894438 0.447175 0)
(0.8944 0.447158 0)
(0.894382 0.447152 0)
(0.894371 0.447154 0)
(0.894369 0.447161 0)
(0.894373 0.447169 0)
(0.894378 0.447177 0)
(0.894383 0.447184 0)
(0.894388 0.447189 0)
(0.894391 0.447193 0)
(0.894394 0.447195 0)
(0.894396 0.447197 0)
(0.894398 0.447198 0)
(0.894398 0.447199 0)
(0.894399 0.447199 0)
(0.894399 0.4472 0)
(0.8944 0.4472 0)
(0.8944 0.4472 0)
(0.8944 0.4472 0)
(0.8944 0.4472 0)
(0.8944 0.4472 0)
(0.8944 0.4472 0)
(0.8944 0.4472 0)
(0.8944 0.4472 0)
(0.8944 0.4472 0)
(0.8944 0.4472 0)
(0.8944 0.4472 0)
(0.8944 0.4472 0)
(0.8944 0.4472 0)
(0.8944 0.4472 0)
(0.8944 0.4472 0)
(0.8944 0.4472 0)
(0.8944 0.4472 0)
(0.8944 0.4472 0)
(0.8944 0.447201 0)
(0.894399 0.4472 0)
(0.894398 0.447201 0)
(0.894397 0.447202 0)
(0.894394 0.447204 0)
(0.89439 0.447207 0)
(0.894384 0.447211 0)
(0.894375 0.447219 0)
(0.894363 0.44723 0)
(0.894349 0.447245 0)
(0.894333 0.447266 0)
(0.894316 0.447292 0)
(0.894298 0.447325 0)
(0.894277 0.447368 0)
(0.894244 0.447428 0)
(0.89418 0.447521 0)
(0.894053 0.447679 0)
(0.893813 0.447953 0)
(0.893394 0.448422 0)
(0.892724 0.44919 0)
(0.891747 0.450374 0)
(0.890447 0.452077 0)
(0.888872 0.454348 0)
(0.887136 0.457149 0)
(0.885404 0.460348 0)
(0.883858 0.463736 0)
(0.882663 0.467058 0)
(0.881929 0.470073 0)
(0.881702 0.472585 0)
(0.881961 0.474476 0)
(0.882636 0.475705 0)
(0.883625 0.476305 0)
(0.884819 0.476364 0)
(0.886117 0.476001 0)
(0.887437 0.475351 0)
(0.888721 0.474547 0)
(0.889935 0.473711 0)
(0.891069 0.47295 0)
(0.892134 0.472348 0)
(0.893157 0.471969 0)
(0.894171 0.47185 0)
(0.895212 0.472004 0)
(0.896319 0.472419 0)
(0.897528 0.473062 0)
(0.898872 0.473869 0)
(0.900365 0.474736 0)
(0.901979 0.475511 0)
(0.903629 0.476001 0)
(0.905171 0.475994 0)
(0.906424 0.475313 0)
(0.907214 0.47386 0)
(0.907423 0.471655 0)
(0.907023 0.468841 0)
(0.906081 0.465647 0)
(0.904739 0.462341 0)
(0.903171 0.459169 0)
(0.901548 0.456316 0)
(0.900006 0.453891 0)
(0.898638 0.451931 0)
(0.897489 0.450417 0)
(0.896569 0.449297 0)
(0.895864 0.448501 0)
(0.895344 0.447958 0)
(0.894977 0.447604 0)
(0.894727 0.447385 0)
(0.894565 0.447258 0)
(0.894466 0.447191 0)
(0.89441 0.447161 0)
(0.894386 0.447151 0)
(0.894368 0.447149 0)
(0.894364 0.447155 0)
(0.894366 0.447164 0)
(0.894372 0.447173 0)
(0.894378 0.44718 0)
(0.894384 0.447186 0)
(0.894389 0.447191 0)
(0.894392 0.447194 0)
(0.894395 0.447196 0)
(0.894397 0.447198 0)
(0.894398 0.447199 0)
(0.894399 0.447199 0)
(0.894399 0.4472 0)
(0.8944 0.4472 0)
(0.8944 0.4472 0)
(0.8944 0.4472 0)
(0.8944 0.4472 0)
(0.8944 0.4472 0)
(0.8944 0.4472 0)
(0.8944 0.4472 0)
(0.8944 0.4472 0)
(0.8944 0.4472 0)
(0.8944 0.4472 0)
(0.8944 0.4472 0)
(0.8944 0.4472 0)
(0.8944 0.4472 0)
(0.8944 0.4472 0)
(0.8944 0.4472 0)
(0.8944 0.4472 0)
(0.8944 0.4472 0)
(0.8944 0.4472 0)
(0.894399 0.447201 0)
(0.894399 0.447201 0)
(0.894397 0.447201 0)
(0.894396 0.447203 0)
(0.894392 0.447205 0)
(0.894387 0.447209 0)
(0.894379 0.447214 0)
(0.894368 0.447224 0)
(0.894352 0.447237 0)
(0.894335 0.447256 0)
(0.894314 0.447281 0)
(0.894292 0.447313 0)
(0.894266 0.447354 0)
(0.894233 0.44741 0)
(0.894176 0.447491 0)
(0.894068 0.447625 0)
(0.89386 0.447855 0)
(0.893482 0.448254 0)
(0.892846 0.44893 0)
(0.891867 0.450014 0)
(0.890494 0.451642 0)
(0.888749 0.4539 0)
(0.886744 0.456782 0)
(0.884675 0.460151 0)
(0.882775 0.463766 0)
(0.881267 0.467316 0)
(0.880312 0.47049 0)
(0.879984 0.473039 0)
(0.880263 0.474808 0)
(0.881059 0.475753 0)
(0.882239 0.475917 0)
(0.883653 0.475415 0)
(0.885163 0.474401 0)
(0.886657 0.473047 0)
(0.888057 0.471521 0)
(0.889317 0.469975 0)
(0.890421 0.468541 0)
(0.891379 0.467324 0)
(0.892223 0.466406 0)
(0.892999 0.465847 0)
(0.893761 0.465682 0)
(0.894561 0.465924 0)
(0.895453 0.466564 0)
(0.896488 0.467579 0)
(0.897724 0.468919 0)
(0.899205 0.4705 0)
(0.900944 0.47218 0)
(0.902887 0.473752 0)
(0.904896 0.474954 0)
(0.906756 0.475509 0)
(0.908218 0.475198 0)
(0.909063 0.473917 0)
(0.909165 0.471716 0)
(0.908526 0.468797 0)
(0.907266 0.465454 0)
(0.905583 0.462009 0)
(0.903702 0.458741 0)
(0.901823 0.455847 0)
(0.900095 0.453432 0)
(0.898604 0.451517 0)
(0.897388 0.450068 0)
(0.89644 0.449019 0)
(0.895733 0.448291 0)
(0.895227 0.447808 0)
(0.89488 0.447502 0)
(0.894652 0.44732 0)
(0.894511 0.447219 0)
(0.894429 0.44717 0)
(0.894397 0.447156 0)
(0.894368 0.447147 0)
(0.894358 0.44715 0)
(0.894359 0.447159 0)
(0.894365 0.447168 0)
(0.894373 0.447177 0)
(0.89438 0.447184 0)
(0.894386 0.447189 0)
(0.89439 0.447193 0)
(0.894393 0.447195 0)
(0.894396 0.447197 0)
(0.894397 0.447198 0)
(0.894398 0.447199 0)
(0.894399 0.4472 0)
(0.8944 0.4472 0)
(0.8944 0.4472 0)
(0.8944 0.4472 0)
(0.8944 0.4472 0)
(0.8944 0.4472 0)
(0.8944 0.4472 0)
(0.8944 0.4472 0)
(0.8944 0.4472 0)
(0.8944 0.4472 0)
(0.8944 0.4472 0)
(0.8944 0.4472 0)
(0.8944 0.4472 0)
(0.8944 0.4472 0)
(0.8944 0.4472 0)
(0.8944 0.4472 0)
(0.8944 0.4472 0)
(0.8944 0.4472 0)
(0.894399 0.4472 0)
(0.894399 0.447201 0)
(0.894398 0.447201 0)
(0.894397 0.447201 0)
(0.894394 0.447203 0)
(0.89439 0.447206 0)
(0.894383 0.447211 0)
(0.894372 0.447218 0)
(0.894358 0.44723 0)
(0.894339 0.447246 0)
(0.894317 0.447269 0)
(0.89429 0.447298 0)
(0.894261 0.447337 0)
(0.894226 0.447388 0)
(0.894174 0.44746 0)
(0.894082 0.447571 0)
(0.893908 0.447759 0)
(0.893581 0.448089 0)
(0.893007 0.448658 0)
(0.892074 0.449607 0)
(0.890691 0.451096 0)
(0.888832 0.45326 0)
(0.886592 0.456136 0)
(0.884183 0.459608 0)
(0.881895 0.463408 0)
(0.880026 0.467165 0)
(0.878804 0.470494 0)
(0.878347 0.473077 0)
(0.878645 0.474718 0)
(0.879587 0.475356 0)
(0.881001 0.47505 0)
(0.882693 0.473945 0)
(0.88448 0.47223 0)
(0.886209 0.470116 0)
(0.887774 0.467805 0)
(0.889113 0.46548 0)
(0.890207 0.463294 0)
(0.891063 0.461369 0)
(0.891719 0.459796 0)
(0.892229 0.458643 0)
(0.892658 0.457956 0)
(0.893078 0.457763 0)
(0.893556 0.458074 0)
(0.894153 0.458883 0)
(0.894929 0.460175 0)
(0.895956 0.461925 0)
(0.897306 0.464079 0)
(0.899039 0.466537 0)
(0.901153 0.469116 0)
(0.90355 0.471545 0)
(0.906016 0.473489 0)
(0.908248 0.474607 0)
(0.909923 0.474647 0)
(0.910788 0.473513 0)
(0.91073 0.471307 0)
(0.909799 0.468298 0)
(0.908186 0.464849 0)
(0.906157 0.46133 0)
(0.903981 0.458042 0)
(0.901882 0.455183 0)
(0.900009 0.452842 0)
(0.898441 0.451025 0)
(0.897196 0.449679 0)
(0.896253 0.448727 0)
(0.895568 0.448082 0)
(0.895093 0.447666 0)
(0.894777 0.447411 0)
(0.894579 0.447265 0)
(0.894461 0.447189 0)
(0.894418 0.447169 0)
(0.894372 0.447149 0)
(0.894355 0.447148 0)
(0.894353 0.447154 0)
(0.894358 0.447164 0)
(0.894367 0.447173 0)
(0.894375 0.447181 0)
(0.894382 0.447187 0)
(0.894388 0.447191 0)
(0.894392 0.447194 0)
(0.894395 0.447197 0)
(0.894397 0.447198 0)
(0.894398 0.447199 0)
(0.894399 0.447199 0)
(0.894399 0.447199 0)
(0.8944 0.4472 0)
(0.8944 0.4472 0)
(0.8944 0.4472 0)
(0.8944 0.4472 0)
(0.8944 0.4472 0)
(0.8944 0.4472 0)
(0.8944 0.4472 0)
(0.8944 0.4472 0)
(0.8944 0.4472 0)
(0.8944 0.4472 0)
(0.8944 0.4472 0)
(0.8944 0.4472 0)
(0.8944 0.4472 0)
(0.8944 0.4472 0)
(0.8944 0.4472 0)
(0.894399 0.4472 0)
(0.894399 0.447201 0)
(0.894399 0.4472 0)
(0.894398 0.447201 0)
(0.894396 0.447202 0)
(0.894392 0.447204 0)
(0.894386 0.447207 0)
(0.894378 0.447214 0)
(0.894365 0.447222 0)
(0.894346 0.447236 0)
(0.894323 0.447256 0)
(0.894295 0.447283 0)
(0.894262 0.447318 0)
(0.894224 0.447364 0)
(0.894174 0.447427 0)
(0.894095 0.44752 0)
(0.893952 0.447671 0)
(0.893681 0.447934 0)
(0.893186 0.448396 0)
(0.892343 0.44919 0)
(0.891017 0.450491 0)
(0.889127 0.452476 0)
(0.886714 0.455247 0)
(0.883988 0.458735 0)
(0.881289 0.462666 0)
(0.879004 0.466615 0)
(0.877451 0.470111 0)
(0.876812 0.472757 0)
(0.877102 0.474301 0)
(0.878195 0.474664 0)
(0.879876 0.473915 0)
(0.881896 0.472227 0)
(0.884019 0.469832 0)
(0.886046 0.466974 0)
(0.887834 0.463891 0)
(0.889296 0.460794 0)
(0.890402 0.457862 0)
(0.891165 0.45523 0)
(0.891632 0.452997 0)
(0.891865 0.451229 0)
(0.891944 0.449968 0)
(0.891953 0.449238 0)
(0.891977 0.449054 0)
(0.89209 0.449419 0)
(0.892357 0.450329 0)
(0.892836 0.45178 0)
(0.893597 0.453765 0)
(0.894731 0.456271 0)
(0.896333 0.459252 0)
(0.898468 0.462587 0)
(0.901106 0.466047 0)
(0.904079 0.469292 0)
(0.907076 0.471908 0)
(0.909693 0.4735 0)
(0.911542 0.473798 0)
(0.912354 0.472738 0)
(0.912056 0.470488 0)
(0.910776 0.467394 0)
(0.908787 0.463882 0)
(0.906422 0.460356 0)
(0.903988 0.457124 0)
(0.901719 0.454371 0)
(0.899758 0.452165 0)
(0.898162 0.450488 0)
(0.89693 0.449275 0)
(0.896022 0.448437 0)
(0.895383 0.447884 0)
(0.894953 0.447538 0)
(0.894677 0.447333 0)
(0.894511 0.447222 0)
(0.894452 0.447192 0)
(0.894384 0.447157 0)
(0.894355 0.447148 0)
(0.894348 0.447151 0)
(0.894351 0.44716 0)
(0.89436 0.447169 0)
(0.894369 0.447178 0)
(0.894378 0.447184 0)
(0.894384 0.44719 0)
(0.894389 0.447193 0)
(0.894393 0.447196 0)
(0.894396 0.447197 0)
(0.894397 0.447198 0)
(0.894399 0.447199 0)
(0.894399 0.4472 0)
(0.894399 0.4472 0)
(0.8944 0.4472 0)
(0.8944 0.4472 0)
(0.8944 0.4472 0)
(0.8944 0.4472 0)
(0.8944 0.4472 0)
(0.8944 0.4472 0)
(0.8944 0.4472 0)
(0.8944 0.4472 0)
(0.8944 0.4472 0)
(0.8944 0.4472 0)
(0.8944 0.4472 0)
(0.8944 0.4472 0)
(0.8944 0.4472 0)
(0.8944 0.4472 0)
(0.8944 0.4472 0)
(0.894399 0.4472 0)
(0.894399 0.4472 0)
(0.894397 0.447201 0)
(0.894395 0.447203 0)
(0.89439 0.447205 0)
(0.894383 0.447209 0)
(0.894371 0.447216 0)
(0.894356 0.447227 0)
(0.894332 0.447243 0)
(0.894305 0.447266 0)
(0.89427 0.447297 0)
(0.894229 0.447339 0)
(0.894179 0.447394 0)
(0.894109 0.447471 0)
(0.89399 0.447593 0)
(0.893772 0.447798 0)
(0.893364 0.448159 0)
(0.892639 0.448796 0)
(0.891436 0.449879 0)
(0.88961 0.451615 0)
(0.887123 0.454176 0)
(0.884138 0.45757 0)
(0.881028 0.461558 0)
(0.878271 0.465675 0)
(0.876305 0.469363 0)
(0.875403 0.472125 0)
(0.875626 0.473643 0)
(0.876843 0.473809 0)
(0.878797 0.472697 0)
(0.88118 0.470508 0)
(0.883691 0.467508 0)
(0.886077 0.463982 0)
(0.888149 0.460199 0)
(0.889785 0.456398 0)
(0.890936 0.45278 0)
(0.891614 0.449501 0)
(0.891874 0.44667 0)
(0.891805 0.444355 0)
(0.891505 0.442587 0)
(0.891079 0.441374 0)
(0.890626 0.44071 0)
(0.890239 0.440589 0)
(0.889995 0.441006 0)
(0.889951 0.441956 0)
(0.890155 0.443444 0)
(0.89066 0.445483 0)
(0.891554 0.448094 0)
(0.892953 0.451287 0)
(0.894978 0.455021 0)
(0.897686 0.45915 0)
(0.900994 0.463389 0)
(0.904638 0.467318 0)
(0.908188 0.47045 0)
(0.911145 0.472351 0)
(0.91307 0.472758 0)
(0.913717 0.471666 0)
(0.913085 0.469321 0)
(0.911402 0.466146 0)
(0.90903 0.462616 0)
(0.906359 0.459152 0)
(0.903723 0.456049 0)
(0.90135 0.453466 0)
(0.899361 0.451443 0)
(0.89779 0.449941 0)
(0.896611 0.44888 0)
(0.895767 0.448166 0)
(0.89519 0.447707 0)
(0.894815 0.447429 0)
(0.894584 0.447272 0)
(0.894505 0.447227 0)
(0.894405 0.447172 0)
(0.894359 0.447152 0)
(0.894344 0.44715 0)
(0.894345 0.447157 0)
(0.894353 0.447166 0)
(0.894363 0.447175 0)
(0.894373 0.447182 0)
(0.894381 0.447188 0)
(0.894387 0.447192 0)
(0.894392 0.447195 0)
(0.894395 0.447197 0)
(0.894397 0.447198 0)
(0.894398 0.447199 0)
(0.894399 0.4472 0)
(0.894399 0.447199 0)
(0.894399 0.4472 0)
(0.8944 0.4472 0)
(0.894399 0.4472 0)
(0.8944 0.4472 0)
(0.8944 0.4472 0)
(0.8944 0.4472 0)
(0.8944 0.4472 0)
(0.8944 0.4472 0)
(0.8944 0.4472 0)
(0.8944 0.4472 0)
(0.8944 0.4472 0)
(0.8944 0.4472 0)
(0.8944 0.4472 0)
(0.8944 0.4472 0)
(0.894399 0.4472 0)
(0.894399 0.447201 0)
(0.894398 0.447201 0)
(0.894396 0.447202 0)
(0.894393 0.447204 0)
(0.894387 0.447206 0)
(0.894378 0.447211 0)
(0.894364 0.44722 0)
(0.894345 0.447232 0)
(0.894317 0.447251 0)
(0.894283 0.447277 0)
(0.894241 0.447313 0)
(0.89419 0.447361 0)
(0.894124 0.447426 0)
(0.894025 0.447522 0)
(0.893851 0.447681 0)
(0.893527 0.447956 0)
(0.892932 0.448447 0)
(0.891897 0.449307 0)
(0.890229 0.45075 0)
(0.887794 0.453003 0)
(0.88466 0.456179 0)
(0.881178 0.46012 0)
(0.877909 0.464361 0)
(0.875433 0.46826 0)
(0.874156 0.471211 0)
(0.874213 0.472805 0)
(0.875487 0.472888 0)
(0.877686 0.471536 0)
(0.880441 0.468971 0)
(0.88338 0.465492 0)
(0.886182 0.461414 0)
(0.888601 0.457038 0)
(0.890474 0.452631 0)
(0.891718 0.448416 0)
(0.892326 0.44457 0)
(0.892361 0.441225 0)
(0.891933 0.438458 0)
(0.891179 0.436299 0)
(0.89024 0.434739 0)
(0.88925 0.433745 0)
(0.888323 0.433275 0)
(0.887555 0.433291 0)
(0.887013 0.433772 0)
(0.886739 0.434715 0)
(0.886756 0.436134 0)
(0.887091 0.438061 0)
(0.887803 0.440548 0)
(0.889008 0.443653 0)
(0.890861 0.447411 0)
(0.893499 0.451775 0)
(0.89695 0.45656 0)
(0.901046 0.461409 0)
(0.9054 0.465822 0)
(0.909457 0.469251 0)
(0.912634 0.471246 0)
(0.914484 0.471586 0)
(0.914823 0.470345 0)
(0.91376 0.467859 0)
(0.911634 0.464617 0)
(0.908894 0.461124 0)
(0.905973 0.45779 0)
(0.903207 0.454883 0)
(0.900803 0.452523 0)
(0.89885 0.45072 0)
(0.897354 0.449414 0)
(0.896262 0.448514 0)
(0.895505 0.447924 0)
(0.895003 0.447557 0)
(0.894689 0.447342 0)
(0.89458 0.447277 0)
(0.89444 0.447196 0)
(0.894371 0.447162 0)
(0.894344 0.447153 0)
(0.89434 0.447156 0)
(0.894346 0.447164 0)
(0.894357 0.447172 0)
(0.894368 0.44718 0)
(0.894377 0.447187 0)
(0.894384 0.447191 0)
(0.89439 0.447194 0)
(0.894394 0.447196 0)
(0.894396 0.447198 0)
(0.894398 0.447199 0)
(0.894399 0.4472 0)
(0.894399 0.447199 0)
(0.894399 0.4472 0)
(0.8944 0.4472 0)
(0.8944 0.4472 0)
(0.8944 0.4472 0)
(0.8944 0.4472 0)
(0.8944 0.4472 0)
(0.8944 0.4472 0)
(0.8944 0.4472 0)
(0.8944 0.4472 0)
(0.8944 0.4472 0)
(0.8944 0.4472 0)
(0.8944 0.4472 0)
(0.8944 0.4472 0)
(0.8944 0.4472 0)
(0.894399 0.4472 0)
(0.894399 0.4472 0)
(0.894398 0.447201 0)
(0.894395 0.447202 0)
(0.894391 0.447204 0)
(0.894384 0.447207 0)
(0.894373 0.447213 0)
(0.894356 0.447222 0)
(0.894332 0.447238 0)
(0.894299 0.447259 0)
(0.894258 0.447289 0)
(0.894207 0.447328 0)
(0.894145 0.447384 0)
(0.894058 0.447461 0)
(0.893918 0.447582 0)
(0.893666 0.447787 0)
(0.893197 0.448153 0)
(0.892351 0.448809 0)
(0.890912 0.449948 0)
(0.888664 0.451824 0)
(0.885538 0.454654 0)
(0.881785 0.458411 0)
(0.878003 0.462694 0)
(0.874923 0.466807 0)
(0.873128 0.470021 0)
(0.872879 0.471809 0)
(0.874098 0.471955 0)
(0.876472 0.470515 0)
(0.879572 0.46773 0)
(0.882956 0.463926 0)
(0.886225 0.459443 0)
(0.889063 0.454605 0)
(0.891248 0.4497 0)
(0.892652 0.444979 0)
(0.893234 0.440643 0)
(0.89304 0.43685 0)
(0.892193 0.433702 0)
(0.890867 0.431247 0)
(0.889262 0.429476 0)
(0.887573 0.428337 0)
(0.885968 0.427746 0)
(0.88458 0.427613 0)
(0.8835 0.427861 0)
(0.882776 0.428443 0)
(0.882418 0.429349 0)
(0.882409 0.430609 0)
(0.882734 0.432281 0)
(0.883411 0.434446 0)
(0.884528 0.437205 0)
(0.886245 0.440655 0)
(0.888757 0.444841 0)
(0.8922 0.449693 0)
(0.896538 0.454965 0)
(0.901486 0.460216 0)
(0.906512 0.464869 0)
(0.910943 0.468338 0)
(0.91415 0.470194 0)
(0.915729 0.470292 0)
(0.915606 0.468804 0)
(0.914027 0.466154 0)
(0.911448 0.462879 0)
(0.908386 0.459483 0)
(0.905291 0.456348 0)
(0.902479 0.453692 0)
(0.900119 0.451594 0)
(0.898264 0.450033 0)
(0.896884 0.448931 0)
(0.895908 0.448191 0)
(0.895251 0.44772 0)
(0.894832 0.447436 0)
(0.894684 0.447344 0)
(0.894492 0.447231 0)
(0.894392 0.447178 0)
(0.894349 0.447159 0)
(0.894337 0.447157 0)
(0.89434 0.447163 0)
(0.894351 0.447171 0)
(0.894362 0.447179 0)
(0.894373 0.447185 0)
(0.894381 0.44719 0)
(0.894387 0.447193 0)
(0.894392 0.447196 0)
(0.894395 0.447197 0)
(0.894397 0.447199 0)
(0.894398 0.447199 0)
(0.894399 0.447199 0)
(0.8944 0.4472 0)
(0.8944 0.4472 0)
(0.8944 0.4472 0)
(0.8944 0.4472 0)
(0.8944 0.4472 0)
(0.8944 0.4472 0)
(0.8944 0.4472 0)
(0.8944 0.4472 0)
(0.8944 0.4472 0)
(0.8944 0.4472 0)
(0.8944 0.4472 0)
(0.8944 0.4472 0)
(0.8944 0.4472 0)
(0.8944 0.4472 0)
(0.894399 0.4472 0)
(0.894399 0.4472 0)
(0.894397 0.447201 0)
(0.894394 0.447202 0)
(0.894389 0.447204 0)
(0.89438 0.447209 0)
(0.894367 0.447215 0)
(0.894346 0.447226 0)
(0.894317 0.447243 0)
(0.89428 0.447267 0)
(0.89423 0.447299 0)
(0.894169 0.447344 0)
(0.894091 0.447407 0)
(0.893976 0.447499 0)
(0.89378 0.44765 0)
(0.893422 0.447916 0)
(0.892761 0.448397 0)
(0.891585 0.449256 0)
(0.889635 0.450734 0)
(0.8867 0.453111 0)
(0.882854 0.456524 0)
(0.87863 0.460719 0)
(0.874881 0.465007 0)
(0.872413 0.468539 0)
(0.871672 0.470645 0)
(0.872674 0.471009 0)
(0.875105 0.469655 0)
(0.878482 0.466825 0)
(0.882292 0.462867 0)
(0.886061 0.458141 0)
(0.889393 0.452985 0)
(0.891987 0.447702 0)
(0.893648 0.44256 0)
(0.894283 0.437791 0)
(0.893901 0.433583 0)
(0.892607 0.430077 0)
(0.890596 0.427356 0)
(0.888124 0.425437 0)
(0.885468 0.424275 0)
(0.882892 0.423767 0)
(0.880615 0.423776 0)
(0.878793 0.424153 0)
(0.87751 0.424763 0)
(0.876779 0.425516 0)
(0.876557 0.426386 0)
(0.876764 0.427415 0)
(0.877324 0.428697 0)
(0.878198 0.430362 0)
(0.879427 0.432554 0)
(0.881151 0.435422 0)
(0.883591 0.439085 0)
(0.88697 0.443578 0)
(0.891388 0.448777 0)
(0.896706 0.454353 0)
(0.902487 0.459774 0)
(0.908051 0.464402 0)
(0.912637 0.467649 0)
(0.915626 0.469148 0)
(0.916717 0.468858 0)
(0.915991 0.467062 0)
(0.913847 0.464259 0)
(0.910843 0.461004 0)
(0.907535 0.457774 0)
(0.90436 0.454897 0)
(0.901591 0.452535 0)
(0.899349 0.450722 0)
(0.897643 0.449409 0)
(0.896412 0.448507 0)
(0.895569 0.447919 0)
(0.895021 0.447555 0)
(0.894823 0.447429 0)
(0.894564 0.447278 0)
(0.894425 0.447202 0)
(0.89436 0.44717 0)
(0.894337 0.447161 0)
(0.894336 0.447163 0)
(0.894345 0.44717 0)
(0.894357 0.447177 0)
(0.894368 0.447184 0)
(0.894378 0.447189 0)
(0.894385 0.447193 0)
(0.894391 0.447196 0)
(0.894394 0.447197 0)
(0.894396 0.447198 0)
(0.894398 0.447199 0)
(0.894399 0.4472 0)
(0.894399 0.4472 0)
(0.894399 0.4472 0)
(0.8944 0.4472 0)
(0.8944 0.4472 0)
(0.8944 0.4472 0)
(0.8944 0.4472 0)
(0.8944 0.4472 0)
(0.8944 0.4472 0)
(0.8944 0.4472 0)
(0.8944 0.4472 0)
(0.8944 0.4472 0)
(0.8944 0.4472 0)
(0.8944 0.4472 0)
(0.8944 0.4472 0)
(0.894399 0.4472 0)
(0.894398 0.4472 0)
(0.894396 0.447201 0)
(0.894393 0.447203 0)
(0.894386 0.447205 0)
(0.894376 0.44721 0)
(0.89436 0.447218 0)
(0.894335 0.447229 0)
(0.894301 0.447248 0)
(0.894257 0.447274 0)
(0.894199 0.44731 0)
(0.894127 0.447359 0)
(0.894028 0.447431 0)
(0.893876 0.447541 0)
(0.893605 0.44773 0)
(0.893105 0.448071 0)
(0.892192 0.448694 0)
(0.890598 0.4498 0)
(0.888022 0.451674 0)
(0.884323 0.45459 0)
(0.879832 0.458513 0)
(0.875423 0.462873 0)
(0.872138 0.466741 0)
(0.870691 0.469271 0)
(0.871258 0.470012 0)
(0.873569 0.468921 0)
(0.877108 0.466231 0)
(0.881287 0.462297 0)
(0.885557 0.457498 0)
(0.889443 0.452177 0)
(0.892557 0.446643 0)
(0.894611 0.441171 0)
(0.89543 0.436014 0)
(0.894959 0.431395 0)
(0.893259 0.4275 0)
(0.890508 0.424461 0)
(0.886989 0.42235 0)
(0.883058 0.42116 0)
(0.879095 0.420811 0)
(0.875453 0.421151 0)
(0.87242 0.421984 0)
(0.87019 0.423087 0)
(0.868844 0.42425 0)
(0.868346 0.42531 0)
(0.868569 0.426197 0)
(0.869336 0.426956 0)
(0.870476 0.427725 0)
(0.871873 0.428703 0)
(0.873507 0.430107 0)
(0.87548 0.432146 0)
(0.878013 0.435001 0)
(0.881385 0.438786 0)
(0.885819 0.443488 0)
(0.891334 0.448899 0)
(0.897643 0.454588 0)
(0.904136 0.459938 0)
(0.910002 0.464278 0)
(0.91445 0.467061 0)
(0.916941 0.468024 0)