/*--------------------------------*- C++ -*----------------------------------*\
  =========                 |
  \\      /  F ield         | OpenFOAM: The Open Source CFD Toolbox
   \\    /   O peration     | Website:  https://openfoam.org
    \\  /    A nd           | Version:  6
     \\/     M anipulation  |
\*---------------------------------------------------------------------------*/
FoamFile
{
    version     2.0;
    format      ascii;
    class       volScalarField;
    location    "1.65";
    object      rho;
}
// * * * * * * * * * * * * * * * * * * * * * * * * * * * * * * * * * * * * * //

dimensions      [1 -3 0 0 0 0 0];

internalField   nonuniform List<scalar> 
5835
(
4.02883e-05
1.1857e-05
3.96753e-05
1.99831e-05
1.1857e-05
1.1857e-05
1.1857e-05
1.18983e-05
1.1857e-05
1.1857e-05
1.1857e-05
2.71142e-05
1.1857e-05
1.1857e-05
2.83243e-05
1.1857e-05
5.95077e-05
5.7196e-05
1.1857e-05
1.1857e-05
5.95308e-05
1.1857e-05
6.33335e-05
2.75415e-05
1.1857e-05
1.1857e-05
3.07196e-05
1.1857e-05
1.54559e-05
1.1857e-05
1.23793e-05
1.1857e-05
1.1857e-05
1.19139e-05
1.19765e-05
1.1857e-05
1.1857e-05
1.1857e-05
1.18676e-05
1.18654e-05
1.1857e-05
1.18579e-05
1.1857e-05
1.1858e-05
1.1857e-05
1.1857e-05
1.1857e-05
1.18571e-05
1.1857e-05
1.1857e-05
1.1857e-05
1.1857e-05
1.1857e-05
1.1857e-05
1.1857e-05
1.1857e-05
1.1857e-05
1.1857e-05
1.1857e-05
1.1857e-05
1.49342e-05
1.1857e-05
1.61537e-05
1.1857e-05
1.1857e-05
1.18572e-05
1.18571e-05
1.1857e-05
1.19162e-05
1.19386e-05
1.18684e-05
1.18651e-05
1.1857e-05
1.1857e-05
1.1857e-05
1.1857e-05
1.24779e-05
1.2514e-05
1.18581e-05
1.1857e-05
1.1857e-05
1.18584e-05
1.1857e-05
4.11633e-05
3.8328e-05
1.1857e-05
1.1857e-05
1.1857e-05
1.19095e-05
1.93637e-05
1.1857e-05
1.1857e-05
1.1857e-05
1.18576e-05
1.18576e-05
1.1857e-05
1.1857e-05
1.1857e-05
2.10078e-05
1.18579e-05
1.1857e-05
1.18578e-05
1.1857e-05
1.1857e-05
2.32804e-05
1.1857e-05
1.1857e-05
2.4974e-05
1.1857e-05
1.18582e-05
1.1857e-05
1.1857e-05
2.04061e-05
1.1857e-05
1.1857e-05
1.1857e-05
1.1857e-05
1.1857e-05
1.1857e-05
2.27057e-05
2.15684e-05
1.1857e-05
1.1857e-05
1.1857e-05
1.1857e-05
1.1857e-05
1.1857e-05
1.1857e-05
1.1857e-05
1.18575e-05
1.18575e-05
1.1857e-05
1.1857e-05
1.18582e-05
1.1857e-05
1.1857e-05
5.78394e-05
1.1857e-05
5.89072e-05
1.1857e-05
1.1857e-05
1.1857e-05
5.82398e-05
5.73002e-05
5.80996e-05
5.64089e-05
4.59542e-05
4.33761e-05
1.1857e-05
1.1857e-05
4.56358e-05
1.1857e-05
1.1857e-05
1.1857e-05
3.97687e-05
3.46072e-05
2.26984e-05
1.1857e-05
1.43407e-05
3.34216e-05
1.1857e-05
1.1857e-05
1.1857e-05
1.1857e-05
2.42781e-05
1.1857e-05
1.1857e-05
2.08307e-05
1.1857e-05
1.1857e-05
1.25352e-05
1.2554e-05
1.22763e-05
1.1857e-05
1.1857e-05
1.20513e-05
1.1857e-05
2.35774e-05
1.56744e-05
1.79681e-05
1.1857e-05
1.1857e-05
1.18572e-05
1.18572e-05
1.1857e-05
1.21178e-05
1.1857e-05
1.18572e-05
1.18572e-05
1.1857e-05
1.1857e-05
1.1857e-05
1.1857e-05
1.18571e-05
1.18573e-05
1.1857e-05
1.1857e-05
1.1857e-05
1.1857e-05
1.1857e-05
5.57904e-05
5.69277e-05
1.1857e-05
1.1857e-05
1.1857e-05
1.1857e-05
1.1857e-05
1.18571e-05
1.1857e-05
1.1857e-05
1.19198e-05
1.1857e-05
1.19038e-05
1.1857e-05
1.18816e-05
1.1857e-05
1.1857e-05
1.1857e-05
1.1857e-05
1.1857e-05
1.1857e-05
1.1857e-05
1.18571e-05
1.19117e-05
1.1857e-05
1.19372e-05
1.18915e-05
5.84912e-05
1.1857e-05
1.1857e-05
1.18745e-05
1.1857e-05
1.1857e-05
1.1857e-05
1.1857e-05
1.1857e-05
4.41083e-05
1.1857e-05
4.39415e-05
1.18615e-05
1.1857e-05
1.18615e-05
1.186e-05
1.18943e-05
1.1857e-05
1.18602e-05
1.1857e-05
1.1862e-05
1.18591e-05
1.1857e-05
1.46495e-05
1.1857e-05
1.1857e-05
1.1857e-05
1.1857e-05
1.1857e-05
1.1857e-05
1.99675e-05
1.1857e-05
1.1857e-05
1.1857e-05
2.39242e-05
2.58125e-05
1.1857e-05
2.61017e-05
1.1857e-05
1.1857e-05
1.1857e-05
2.28561e-05
2.43089e-05
1.1857e-05
1.1857e-05
1.1857e-05
1.1857e-05
1.1857e-05
1.272e-05
1.1857e-05
1.1857e-05
1.1857e-05
1.1857e-05
1.1857e-05
1.1857e-05
2.76858e-05
1.1857e-05
1.1857e-05
1.1857e-05
1.1857e-05
1.1857e-05
1.1857e-05
1.1857e-05
5.35484e-05
3.55426e-05
1.1857e-05
3.58088e-05
1.1857e-05
1.1857e-05
1.1857e-05
1.1857e-05
1.1857e-05
5.18075e-05
1.1857e-05
5.57503e-05
5.56702e-05
5.03283e-05
3.40893e-05
5.08806e-05
1.1857e-05
5.24621e-05
1.1857e-05
4.25588e-05
6.07845e-05
4.02542e-05
5.43185e-05
2.77799e-05
1.1857e-05
1.1857e-05
1.1862e-05
2.64711e-05
1.18577e-05
1.1857e-05
1.1857e-05
1.20809e-05
1.1857e-05
2.96221e-05
1.1857e-05
3.21515e-05
1.18639e-05
1.18625e-05
5.32266e-05
1.19266e-05
1.1857e-05
2.22694e-05
1.1857e-05
1.19596e-05
1.1857e-05
1.1916e-05
1.18576e-05
1.1857e-05
1.18575e-05
1.1857e-05
1.1857e-05
5.51884e-05
2.00019e-05
5.65845e-05
1.1857e-05
1.18599e-05
1.1857e-05
1.18593e-05
1.1857e-05
1.18599e-05
2.65937e-05
1.1857e-05
1.1857e-05
1.24136e-05
1.18821e-05
1.1857e-05
1.42129e-05
1.1857e-05
2.59293e-05
1.19292e-05
1.78376e-05
1.1857e-05
1.18573e-05
1.18594e-05
3.05364e-05
1.1857e-05
1.1857e-05
1.1857e-05
1.1857e-05
1.18586e-05
1.29219e-05
1.1857e-05
1.1857e-05
1.1857e-05
1.96443e-05
1.1901e-05
1.1857e-05
1.1857e-05
1.1857e-05
1.1857e-05
1.1857e-05
1.1857e-05
1.1857e-05
1.1857e-05
1.1857e-05
1.1857e-05
1.1857e-05
1.1857e-05
1.1857e-05
1.1857e-05
1.1857e-05
1.1857e-05
1.1857e-05
1.1857e-05
1.1857e-05
1.1857e-05
1.1857e-05
1.1857e-05
1.1857e-05
1.1857e-05
1.1857e-05
1.1857e-05
1.1857e-05
1.1857e-05
1.18657e-05
1.22436e-05
1.1857e-05
1.20028e-05
1.94987e-05
1.18574e-05
1.18613e-05
1.1857e-05
1.1857e-05
1.1857e-05
1.1857e-05
1.1857e-05
2.27363e-05
1.1857e-05
1.1857e-05
1.1857e-05
1.1857e-05
1.18581e-05
1.1857e-05
1.2196e-05
1.1857e-05
1.1857e-05
1.1857e-05
1.1857e-05
1.29143e-05
1.1857e-05
1.1857e-05
1.77076e-05
1.18591e-05
1.1857e-05
1.21479e-05
1.1857e-05
1.1857e-05
1.18588e-05
1.1857e-05
1.63887e-05
1.44519e-05
1.1857e-05
1.1857e-05
1.42557e-05
1.1887e-05
1.1857e-05
1.1857e-05
1.1859e-05
1.19023e-05
1.1857e-05
1.39388e-05
1.1857e-05
1.20164e-05
1.1857e-05
1.18982e-05
1.1857e-05
1.1857e-05
1.18596e-05
1.18574e-05
1.19342e-05
1.1867e-05
1.1857e-05
1.42891e-05
1.1857e-05
1.1866e-05
1.18575e-05
1.1857e-05
1.1857e-05
1.4596e-05
1.1857e-05
1.1857e-05
1.20395e-05
1.1857e-05
1.49829e-05
1.1857e-05
1.22452e-05
1.18575e-05
1.58321e-05
1.1857e-05
1.18571e-05
1.1857e-05
1.23783e-05
1.1857e-05
1.18582e-05
1.1857e-05
1.18581e-05
1.1857e-05
1.18589e-05
1.18572e-05
1.1857e-05
1.1857e-05
1.18572e-05
1.1857e-05
1.1857e-05
1.1857e-05
1.18573e-05
1.18573e-05
1.1857e-05
1.1857e-05
1.1857e-05
2.38408e-05
1.18576e-05
1.1857e-05
1.1857e-05
2.14194e-05
1.1857e-05
1.1857e-05
1.1857e-05
2.37321e-05
1.1857e-05
1.1857e-05
1.18573e-05
1.1857e-05
2.05654e-05
1.1857e-05
1.1857e-05
5.79704e-05
1.1857e-05
1.1857e-05
5.72342e-05
5.66207e-05
5.58262e-05
1.1857e-05
1.1857e-05
1.1857e-05
1.1857e-05
4.42602e-05
4.64307e-05
1.1857e-05
1.1857e-05
1.1857e-05
4.40728e-05
5.49774e-05
1.1857e-05
5.62715e-05
1.1857e-05
1.1857e-05
1.1857e-05
4.34669e-05
1.1857e-05
3.24609e-05
1.1857e-05
5.63018e-05
1.1857e-05
3.71301e-05
2.28178e-05
1.57174e-05
1.18572e-05
1.18572e-05
1.46418e-05
1.1857e-05
2.2308e-05
1.18572e-05
1.96201e-05
1.1857e-05
1.1857e-05
1.1857e-05
1.1857e-05
1.1857e-05
1.1857e-05
1.1857e-05
1.23805e-05
5.46426e-05
1.1857e-05
1.70268e-05
1.1857e-05
1.1857e-05
1.26191e-05
1.1857e-05
1.20726e-05
1.1857e-05
1.1857e-05
1.20722e-05
1.1857e-05
1.1857e-05
1.18571e-05
5.42104e-05
1.1857e-05
1.1857e-05
1.1857e-05
1.26579e-05
1.1857e-05
1.1857e-05
1.1857e-05
1.50878e-05
1.1857e-05
1.19115e-05
1.19092e-05
1.1857e-05
1.18617e-05
1.18861e-05
1.1857e-05
1.18853e-05
1.18618e-05
1.1857e-05
1.1925e-05
1.18602e-05
1.18599e-05
1.1857e-05
1.1857e-05
1.23185e-05
1.1857e-05
1.1857e-05
1.1857e-05
3.37234e-05
1.1857e-05
1.1857e-05
1.18571e-05
1.1857e-05
1.18588e-05
1.1857e-05
2.42709e-05
2.4323e-05
2.49503e-05
1.1857e-05
2.52977e-05
1.18714e-05
1.1857e-05
1.1857e-05
5.48785e-05
1.1857e-05
2.32058e-05
1.1857e-05
1.1857e-05
2.75637e-05
1.1857e-05
5.07295e-05
1.1857e-05
3.72525e-05
4.47859e-05
1.1857e-05
1.1857e-05
5.21643e-05
5.03034e-05
3.84373e-05
1.1857e-05
1.1857e-05
1.1857e-05
1.1857e-05
2.77051e-05
5.42178e-05
1.1857e-05
2.91307e-05
1.1857e-05
1.1857e-05
1.1857e-05
1.1857e-05
5.59208e-05
5.40139e-05
1.1857e-05
2.6991e-05
1.1857e-05
5.09454e-05
1.1857e-05
1.1857e-05
1.1857e-05
5.31099e-05
2.38066e-05
5.39655e-05
1.1857e-05
1.18635e-05
1.1857e-05
2.06546e-05
2.05937e-05
1.1857e-05
1.1857e-05
1.18816e-05
1.1857e-05
1.49388e-05
2.59304e-05
1.22882e-05
1.1857e-05
2.77282e-05
1.1857e-05
1.1857e-05
1.1857e-05
1.1857e-05
1.1857e-05
1.1857e-05
1.1857e-05
1.1857e-05
1.1857e-05
1.1857e-05
1.1857e-05
1.19077e-05
1.1857e-05
1.1857e-05
1.1857e-05
1.1857e-05
1.1857e-05
1.69221e-05
1.30643e-05
1.1857e-05
1.1857e-05
1.18575e-05
1.18575e-05
1.1857e-05
1.1857e-05
1.1857e-05
1.1857e-05
1.1857e-05
1.20247e-05
1.1857e-05
1.1857e-05
1.88933e-05
1.96583e-05
1.21808e-05
1.1857e-05
1.1857e-05
1.19261e-05
1.18573e-05
1.1857e-05
1.18591e-05
1.18596e-05
1.1857e-05
1.1857e-05
1.1857e-05
1.1857e-05
1.18786e-05
1.1857e-05
1.1857e-05
1.1857e-05
1.1857e-05
1.1857e-05
1.18593e-05
1.1857e-05
1.62121e-05
1.1857e-05
1.1857e-05
1.1857e-05
1.26769e-05
1.22242e-05
1.47368e-05
1.1857e-05
1.18592e-05
1.1857e-05
1.3871e-05
1.40039e-05
1.20412e-05
1.1857e-05
1.1857e-05
1.44034e-05
1.1857e-05
1.1857e-05
1.44186e-05
1.1857e-05
1.1857e-05
1.1857e-05
1.19011e-05
1.18967e-05
1.1857e-05
1.55015e-05
1.1857e-05
1.1857e-05
1.19554e-05
1.18575e-05
1.1857e-05
1.18674e-05
1.18677e-05
1.1857e-05
1.6102e-05
1.18575e-05
1.20696e-05
1.1857e-05
1.1857e-05
1.18571e-05
1.1857e-05
1.1857e-05
1.21563e-05
1.1857e-05
1.18573e-05
1.1857e-05
1.23524e-05
1.1857e-05
1.18582e-05
1.18581e-05
1.1857e-05
1.1857e-05
1.1857e-05
1.1857e-05
1.18574e-05
1.18572e-05
1.1857e-05
1.1857e-05
1.18574e-05
1.18572e-05
1.1857e-05
1.1857e-05
1.1857e-05
1.1857e-05
1.19637e-05
1.1857e-05
1.1857e-05
1.1857e-05
1.1857e-05
1.19754e-05
1.19143e-05
1.19706e-05
1.19165e-05
1.1857e-05
1.1857e-05
1.1857e-05
1.1857e-05
1.1857e-05
1.75551e-05
1.18636e-05
1.18622e-05
1.18656e-05
1.18623e-05
1.1857e-05
1.1857e-05
1.21634e-05
1.20113e-05
1.1857e-05
1.1857e-05
1.1857e-05
1.1857e-05
1.1857e-05
1.18866e-05
1.1857e-05
1.1857e-05
1.1924e-05
1.18912e-05
1.1857e-05
1.1857e-05
1.1857e-05
1.1857e-05
3.58511e-05
3.67458e-05
3.78579e-05
3.39514e-05
1.1857e-05
1.1857e-05
1.1857e-05
1.1857e-05
1.1857e-05
1.1857e-05
1.1857e-05
1.1857e-05
1.1857e-05
1.1857e-05
1.1857e-05
1.1857e-05
1.1857e-05
1.1857e-05
1.1857e-05
1.1857e-05
1.1857e-05
1.1857e-05
1.1857e-05
1.1857e-05
1.1857e-05
1.1857e-05
1.18667e-05
1.1857e-05
1.18614e-05
2.78917e-05
1.1863e-05
1.1857e-05
2.13957e-05
1.18605e-05
1.1857e-05
1.1857e-05
3.16035e-05
1.1857e-05
1.1857e-05
1.1857e-05
1.18598e-05
1.18589e-05
1.68789e-05
1.1857e-05
1.1857e-05
1.18598e-05
1.18586e-05
1.1857e-05
1.1857e-05
2.01439e-05
1.1857e-05
1.18585e-05
1.1857e-05
1.1857e-05
1.1857e-05
3.19338e-05
2.19929e-05
1.1857e-05
1.1857e-05
1.1857e-05
1.1857e-05
2.08918e-05
1.1857e-05
4.02594e-05
1.1857e-05
4.35975e-05
1.1857e-05
1.19658e-05
1.1857e-05
1.1857e-05
1.1857e-05
1.1857e-05
1.1857e-05
1.1857e-05
1.1857e-05
3.17874e-05
3.36241e-05
1.1857e-05
1.1857e-05
2.26443e-05
1.1857e-05
3.11113e-05
1.1857e-05
2.04522e-05
1.1857e-05
1.1857e-05
5.50406e-05
5.68923e-05
1.1857e-05
1.1857e-05
1.1857e-05
5.26784e-05
5.67082e-05
5.80659e-05
1.1857e-05
5.05598e-05
1.1857e-05
1.1857e-05
1.1857e-05
6.09933e-05
4.59042e-05
1.1857e-05
5.64625e-05
4.46175e-05
1.1857e-05
1.1857e-05
1.1857e-05
5.76117e-05
1.1857e-05
1.1857e-05
5.68425e-05
1.1857e-05
4.68143e-05
1.1857e-05
1.1857e-05
1.1857e-05
4.98019e-05
4.41368e-05
5.1981e-05
1.1857e-05
1.1857e-05
1.1857e-05
4.48345e-05
5.91959e-05
5.7133e-05
4.7338e-05
4.68042e-05
1.1857e-05
1.1857e-05
5.45979e-05
1.1857e-05
1.1857e-05
4.5212e-05
4.57815e-05
5.21825e-05
1.1857e-05
5.04736e-05
1.1857e-05
2.31657e-05
1.1857e-05
1.1857e-05
1.1857e-05
1.1857e-05
1.18577e-05
1.1857e-05
1.1857e-05
1.1857e-05
1.1857e-05
3.1453e-05
3.47712e-05
1.1857e-05
1.1857e-05
2.32607e-05
1.1857e-05
1.1857e-05
4.90364e-05
1.1857e-05
1.1857e-05
4.84861e-05
1.1857e-05
2.35378e-05
1.1857e-05
1.1857e-05
1.1857e-05
1.18596e-05
1.1857e-05
1.18784e-05
1.19989e-05
1.18574e-05
1.1857e-05
1.2299e-05
1.19059e-05
1.30206e-05
1.1857e-05
1.1857e-05
1.18635e-05
1.1857e-05
1.45693e-05
1.1857e-05
1.1857e-05
1.1857e-05
1.1857e-05
1.1857e-05
1.18571e-05
1.1857e-05
1.18579e-05
1.18579e-05
1.18668e-05
1.1857e-05
1.81272e-05
1.1942e-05
1.1857e-05
1.1857e-05
1.1857e-05
3.20528e-05
5.27569e-05
1.1857e-05
1.1857e-05
2.53993e-05
4.98724e-05
1.1857e-05
3.38555e-05
2.47832e-05
1.1857e-05
1.1857e-05
1.1857e-05
1.20678e-05
1.18842e-05
1.18571e-05
1.18605e-05
1.18572e-05
1.1857e-05
1.1857e-05
1.1857e-05
1.1857e-05
1.1857e-05
1.1857e-05
1.36044e-05
1.1857e-05
2.32283e-05
1.1857e-05
1.1857e-05
1.1857e-05
1.1857e-05
1.1857e-05
2.58147e-05
3.81967e-05
1.1857e-05
1.20566e-05
1.1857e-05
1.1857e-05
1.20359e-05
1.20577e-05
1.1857e-05
1.1857e-05
1.18872e-05
1.18615e-05
1.1857e-05
1.20247e-05
1.20835e-05
1.1857e-05
1.18593e-05
1.1857e-05
1.18791e-05
1.1863e-05
1.1857e-05
1.1857e-05
1.19547e-05
1.18863e-05
1.19546e-05
1.1857e-05
1.18722e-05
1.1857e-05
1.18619e-05
1.1857e-05
1.1936e-05
1.1857e-05
1.18767e-05
1.19853e-05
1.1857e-05
1.1857e-05
1.19207e-05
1.1857e-05
1.18738e-05
1.19423e-05
1.1857e-05
1.18588e-05
1.18644e-05
1.1857e-05
1.1857e-05
1.1857e-05
1.1857e-05
1.1857e-05
1.18584e-05
1.1857e-05
1.1857e-05
1.1857e-05
1.18645e-05
1.19058e-05
1.18619e-05
1.1857e-05
1.1857e-05
1.18584e-05
1.1857e-05
1.19382e-05
1.1857e-05
1.18775e-05
1.18578e-05
1.18609e-05
1.1857e-05
1.18578e-05
1.1857e-05
1.18578e-05
1.38951e-05
1.1857e-05
1.1857e-05
1.1857e-05
1.28802e-05
1.1857e-05
1.18576e-05
1.1857e-05
1.1857e-05
1.1857e-05
1.18614e-05
1.18583e-05
1.1857e-05
1.3196e-05
1.18925e-05
1.18575e-05
1.18576e-05
1.1857e-05
1.1857e-05
1.1857e-05
1.18576e-05
1.18576e-05
1.1857e-05
1.1857e-05
1.21257e-05
1.18574e-05
1.1857e-05
1.18573e-05
1.1857e-05
1.18669e-05
1.1857e-05
1.1857e-05
1.18643e-05
1.1857e-05
1.1857e-05
1.18622e-05
1.18789e-05
1.19931e-05
1.1857e-05
1.18573e-05
1.1857e-05
1.21151e-05
1.1857e-05
1.2757e-05
1.1857e-05
1.1857e-05
1.18694e-05
1.1857e-05
1.18572e-05
1.18643e-05
1.1857e-05
1.1857e-05
1.18585e-05
1.1857e-05
1.18573e-05
1.1857e-05
1.24999e-05
1.1857e-05
1.18768e-05
1.18785e-05
1.1857e-05
1.1857e-05
1.18864e-05
1.1857e-05
1.21757e-05
1.21426e-05
1.186e-05
1.1857e-05
1.1857e-05
1.18588e-05
1.1857e-05
1.1857e-05
1.21771e-05
1.1857e-05
1.2304e-05
1.18572e-05
1.1857e-05
1.186e-05
1.18604e-05
1.1857e-05
1.1937e-05
1.1857e-05
1.18572e-05
1.1857e-05
1.29179e-05
1.1857e-05
1.26158e-05
1.1857e-05
1.18694e-05
1.1857e-05
1.18659e-05
1.18617e-05
1.1857e-05
1.1857e-05
1.1857e-05
1.1857e-05
1.18723e-05
1.1857e-05
1.1857e-05
1.38343e-05
1.33736e-05
1.1857e-05
1.18693e-05
1.51527e-05
1.84842e-05
1.1857e-05
1.1857e-05
1.33014e-05
1.1857e-05
1.1857e-05
1.7186e-05
1.1857e-05
1.20659e-05
1.27436e-05
1.1857e-05
1.1857e-05
1.1857e-05
2.68406e-05
1.1857e-05
1.65246e-05
1.1857e-05
1.19932e-05
1.18893e-05
1.1857e-05
1.1857e-05
1.19486e-05
1.1857e-05
2.47438e-05
1.1857e-05
1.20063e-05
1.18574e-05
1.1857e-05
1.1857e-05
1.18582e-05
1.1857e-05
1.27284e-05
1.1857e-05
1.18674e-05
1.1857e-05
1.47545e-05
2.33785e-05
1.1857e-05
1.1857e-05
1.1857e-05
1.1857e-05
1.1857e-05
1.18581e-05
1.1857e-05
1.19718e-05
1.306e-05
2.35759e-05
1.24776e-05
1.1857e-05
1.1857e-05
1.18577e-05
1.1857e-05
1.1857e-05
1.18591e-05
1.1857e-05
2.09363e-05
1.1857e-05
1.1949e-05
1.1857e-05
1.18729e-05
1.18575e-05
1.1857e-05
1.18583e-05
1.9691e-05
1.33412e-05
1.1857e-05
1.1857e-05
1.23085e-05
1.93664e-05
1.71119e-05
1.1857e-05
1.84424e-05
1.1857e-05
1.7308e-05
1.1857e-05
1.6347e-05
1.82616e-05
1.57131e-05
1.1857e-05
1.1857e-05
1.18629e-05
1.1857e-05
1.1858e-05
1.1857e-05
1.1857e-05
1.38394e-05
1.1857e-05
1.20357e-05
1.65686e-05
2.67377e-05
1.58263e-05
1.1857e-05
1.1857e-05
1.68925e-05
3.44877e-05
4.66923e-05
1.1857e-05
1.1857e-05
1.1857e-05
1.1857e-05
1.1857e-05
1.1857e-05
1.1857e-05
1.1857e-05
1.1857e-05
2.0888e-05
5.72889e-05
1.1857e-05
1.1857e-05
1.1857e-05
3.33931e-05
3.61619e-05
1.1857e-05
1.1857e-05
4.55988e-05
1.27397e-05
1.1857e-05
1.1857e-05
3.0802e-05
1.1857e-05
1.1857e-05
3.03901e-05
4.35434e-05
5.45312e-05
1.1857e-05
5.02545e-05
4.44608e-05
1.1857e-05
5.27463e-05
1.1857e-05
4.52348e-05
5.08362e-05
3.38421e-05
4.63313e-05
4.51659e-05
1.1857e-05
3.6995e-05
2.30804e-05
4.56623e-05
1.21018e-05
3.33906e-05
3.33448e-05
4.45273e-05
1.1857e-05
1.1857e-05
1.1857e-05
1.1857e-05
1.1857e-05
4.88949e-05
4.94293e-05
1.1857e-05
1.1857e-05
1.1857e-05
2.6531e-05
3.76441e-05
1.1857e-05
1.1857e-05
3.46684e-05
1.63459e-05
1.1857e-05
4.64307e-05
1.1857e-05
1.1857e-05
1.1857e-05
4.3394e-05
3.54682e-05
1.25745e-05
1.1857e-05
3.16396e-05
1.1857e-05
2.8677e-05
1.1857e-05
2.53544e-05
1.1857e-05
1.1857e-05
1.88629e-05
2.22201e-05
1.1857e-05
1.1857e-05
3.23071e-05
1.1857e-05
1.41845e-05
1.1857e-05
1.1857e-05
1.1857e-05
1.1881e-05
1.31814e-05
1.1857e-05
1.1857e-05
1.19655e-05
4.43706e-05
1.1857e-05
1.1857e-05
1.20092e-05
4.40723e-05
1.1857e-05
1.1857e-05
1.1857e-05
1.22044e-05
1.1857e-05
1.1857e-05
2.02655e-05
1.1857e-05
1.1857e-05
1.18605e-05
1.1857e-05
1.18644e-05
1.19006e-05
1.1857e-05
1.29948e-05
1.65806e-05
3.18188e-05
1.1857e-05
1.99543e-05
3.3825e-05
1.18585e-05
1.1857e-05
1.1857e-05
1.70013e-05
4.60993e-05
4.56624e-05
1.1857e-05
1.18627e-05
1.1857e-05
1.1857e-05
1.1857e-05
1.18571e-05
3.40405e-05
1.1857e-05
1.1857e-05
1.18571e-05
1.1857e-05
1.18571e-05
1.18571e-05
1.1857e-05
1.18578e-05
4.69827e-05
1.1857e-05
1.1857e-05
1.1857e-05
1.65971e-05
1.1857e-05
1.1884e-05
3.2128e-05
2.55938e-05
2.07557e-05
1.1857e-05
1.1857e-05
1.18575e-05
3.86882e-05
4.7519e-05
1.18575e-05
1.1857e-05
1.1857e-05
1.1857e-05
1.1857e-05
1.72785e-05
1.18573e-05
1.1857e-05
1.1857e-05
1.80264e-05
1.1857e-05
1.1857e-05
2.0241e-05
1.1857e-05
1.1857e-05
1.1857e-05
1.1857e-05
1.1857e-05
1.1857e-05
1.1857e-05
1.1857e-05
1.1857e-05
1.1857e-05
1.1857e-05
1.1857e-05
1.1857e-05
1.1857e-05
1.1857e-05
1.1857e-05
1.1857e-05
1.1857e-05
1.1857e-05
1.1857e-05
1.1857e-05
1.1857e-05
1.1857e-05
1.1857e-05
1.1857e-05
1.1857e-05
1.1857e-05
1.1857e-05
1.1857e-05
1.1857e-05
1.1857e-05
1.1857e-05
1.1857e-05
1.1857e-05
1.18571e-05
1.1857e-05
1.1857e-05
1.18571e-05
1.1857e-05
1.1857e-05
1.1857e-05
1.1857e-05
1.1857e-05
1.1857e-05
1.1857e-05
1.1857e-05
1.1857e-05
1.1857e-05
1.1857e-05
1.1857e-05
1.1857e-05
1.18571e-05
1.1857e-05
1.1857e-05
1.1857e-05
5.06886e-05
1.1857e-05
1.18603e-05
2.11227e-05
1.1857e-05
1.1857e-05
2.23031e-05
1.1857e-05
1.1857e-05
1.1857e-05
1.59389e-05
1.1857e-05
1.1857e-05
2.11357e-05
2.00637e-05
1.1857e-05
2.33145e-05
1.1857e-05
1.1857e-05
1.23287e-05
1.1857e-05
1.1883e-05
1.1857e-05
1.68703e-05
1.19104e-05
1.1857e-05
1.32274e-05
1.1857e-05
1.1857e-05
1.1857e-05
1.1857e-05
1.19493e-05
1.1857e-05
1.22753e-05
1.18571e-05
1.20112e-05
1.1857e-05
1.1857e-05
1.1861e-05
1.29029e-05
1.1857e-05
1.1857e-05
1.1857e-05
1.18571e-05
1.1857e-05
1.19378e-05
1.19709e-05
1.1857e-05
1.1857e-05
1.1857e-05
3.96727e-05
1.1857e-05
1.1857e-05
1.1857e-05
1.1857e-05
1.24593e-05
1.18579e-05
1.1857e-05
1.1857e-05
5.26635e-05
1.1857e-05
1.18649e-05
1.1857e-05
1.28336e-05
1.1857e-05
1.18788e-05
1.1857e-05
4.95978e-05
1.1857e-05
1.1857e-05
1.18573e-05
1.1857e-05
1.1857e-05
1.72742e-05
1.61709e-05
1.1857e-05
2.84481e-05
1.1857e-05
1.1857e-05
1.18633e-05
5.50291e-05
1.1857e-05
1.1857e-05
4.9088e-05
1.18623e-05
2.963e-05
1.1857e-05
1.19964e-05
1.1857e-05
1.1857e-05
1.18751e-05
1.83917e-05
1.1857e-05
1.31445e-05
1.1857e-05
1.1857e-05
1.187e-05
1.1857e-05
1.1857e-05
1.1857e-05
1.27641e-05
1.80397e-05
1.1857e-05
1.1857e-05
2.05648e-05
1.1857e-05
1.58223e-05
1.1857e-05
1.1857e-05
1.18645e-05
1.1857e-05
1.1857e-05
1.98661e-05
1.29285e-05
1.1857e-05
1.18713e-05
1.1857e-05
1.18811e-05
1.18572e-05
1.1857e-05
1.1857e-05
1.7878e-05
1.18573e-05
1.1857e-05
1.1857e-05
1.18572e-05
1.18572e-05
1.1857e-05
1.1857e-05
1.1857e-05
1.18571e-05
1.1857e-05
1.1857e-05
1.18651e-05
1.1857e-05
1.1857e-05
1.18571e-05
1.99894e-05
1.1857e-05
1.18571e-05
1.1857e-05
1.1857e-05
1.73777e-05
1.1857e-05
2.34607e-05
1.1857e-05
2.08522e-05
1.1857e-05
1.1857e-05
1.18571e-05
1.1857e-05
1.1857e-05
1.1857e-05
2.20693e-05
1.1857e-05
1.18572e-05
1.1857e-05
1.1857e-05
1.1857e-05
1.1857e-05
1.1857e-05
1.1857e-05
1.1857e-05
2.68388e-05
3.02419e-05
1.1857e-05
1.1857e-05
1.1857e-05
1.1857e-05
1.1857e-05
1.1857e-05
1.1857e-05
1.1857e-05
1.1857e-05
3.06051e-05
1.1857e-05
5.13147e-05
1.1857e-05
1.1857e-05
1.1857e-05
2.64448e-05
1.1857e-05
2.89478e-05
1.18574e-05
1.18571e-05
1.1857e-05
1.1857e-05
4.80223e-05
1.1857e-05
1.1857e-05
1.1857e-05
2.83991e-05
1.1857e-05
1.1857e-05
1.1857e-05
1.1857e-05
1.1857e-05
1.1857e-05
1.1857e-05
1.1857e-05
1.1857e-05
1.1857e-05
1.1858e-05
1.1857e-05
5.86234e-05
1.1857e-05
5.11602e-05
1.1857e-05
1.1857e-05
1.1857e-05
1.1857e-05
1.1857e-05
1.1857e-05
1.18575e-05
1.18571e-05
1.1857e-05
1.1857e-05
1.1857e-05
1.18585e-05
1.18574e-05
1.1857e-05
1.18578e-05
1.1857e-05
1.1857e-05
1.18579e-05
1.18576e-05
1.1857e-05
1.1857e-05
1.1857e-05
1.18582e-05
1.18587e-05
1.18575e-05
1.1857e-05
1.1857e-05
2.94053e-05
1.1857e-05
5.71207e-05
1.1857e-05
5.04655e-05
1.1857e-05
1.1857e-05
1.1857e-05
3.55974e-05
1.1857e-05
5.20255e-05
1.1857e-05
4.95787e-05
1.1857e-05
3.87954e-05
4.91478e-05
3.92581e-05
3.22485e-05
1.1857e-05
1.1857e-05
5.1335e-05
1.1857e-05
1.1857e-05
5.66547e-05
1.1857e-05
1.1857e-05
5.23872e-05
1.1857e-05
4.70201e-05
5.31703e-05
1.1857e-05
1.1857e-05
1.1857e-05
4.95476e-05
1.1857e-05
4.59365e-05
1.1857e-05
5.83343e-05
1.1857e-05
5.09061e-05
1.1857e-05
1.93848e-05
1.1857e-05
1.1857e-05
1.1857e-05
1.1857e-05
1.18574e-05
1.1857e-05
1.18765e-05
1.55235e-05
1.1857e-05
1.1857e-05
1.1857e-05
1.1857e-05
1.1857e-05
3.832e-05
3.11886e-05
1.1857e-05
1.1857e-05
4.80637e-05
5.27682e-05
1.1857e-05
1.1857e-05
5.43048e-05
5.98019e-05
1.1857e-05
1.1857e-05
4.8054e-05
5.52169e-05
1.1857e-05
4.67904e-05
6.44863e-05
1.1857e-05
1.1857e-05
1.1857e-05
6.83503e-05
6.43899e-05
1.1857e-05
7.10491e-05
1.1857e-05
6.71546e-05
1.1857e-05
1.1857e-05
4.74984e-05
5.26213e-05
5.17456e-05
1.1857e-05
1.1857e-05
5.38771e-05
4.53165e-05
1.1857e-05
4.69373e-05
1.1857e-05
4.76574e-05
1.1857e-05
1.1857e-05
4.80789e-05
4.7555e-05
1.1857e-05
1.1857e-05
5.01263e-05
1.1857e-05
1.1857e-05
5.06929e-05
5.13971e-05
1.1857e-05
1.1857e-05
5.54542e-05
5.44195e-05
1.1857e-05
1.1857e-05
6.94244e-05
7.00378e-05
1.1857e-05
5.79285e-05
5.91608e-05
1.1857e-05
1.1857e-05
7.03921e-05
1.1857e-05
6.67715e-05
6.76789e-05
1.1857e-05
1.1857e-05
7.24305e-05
1.1857e-05
6.5578e-05
1.1857e-05
6.53105e-05
6.27427e-05
1.1857e-05
1.1857e-05
6.1683e-05
2.91059e-05
1.1857e-05
1.1857e-05
2.85354e-05
1.1857e-05
1.1857e-05
1.1857e-05
1.1857e-05
1.70485e-05
1.1857e-05
1.1857e-05
3.67283e-05
3.39769e-05
1.1857e-05
1.1857e-05
1.18723e-05
1.1857e-05
5.47979e-05
1.1857e-05
1.1857e-05
5.14293e-05
1.1857e-05
5.7432e-05
5.86939e-05
1.1857e-05
4.24034e-05
1.1857e-05
4.44245e-05
1.1857e-05
6.03841e-05
1.1857e-05
1.1857e-05
1.1857e-05
6.23779e-05
6.16814e-05
4.94554e-05
4.91151e-05
1.1857e-05
1.1857e-05
1.1857e-05
1.1857e-05
5.0034e-05
1.1857e-05
1.1857e-05
1.1857e-05
1.1857e-05
1.1857e-05
1.1857e-05
5.89939e-05
4.35823e-05
4.31199e-05
5.99008e-05
4.37479e-05
5.1427e-05
1.1857e-05
1.1857e-05
6.42076e-05
1.1857e-05
4.23235e-05
6.27558e-05
4.71251e-05
1.1857e-05
1.1857e-05
5.92927e-05
1.1857e-05
4.86459e-05
1.1857e-05
5.61375e-05
5.28097e-05
1.1857e-05
1.50925e-05
1.1857e-05
1.18703e-05
1.1857e-05
1.1857e-05
1.1857e-05
1.1857e-05
3.80445e-05
2.79853e-05
1.1857e-05
1.1857e-05
1.19158e-05
1.1857e-05
1.38231e-05
1.1857e-05
1.1857e-05
1.1857e-05
2.83276e-05
4.07038e-05
5.09521e-05
1.1857e-05
1.1857e-05
1.1857e-05
5.51462e-05
1.1857e-05
5.21694e-05
5.33707e-05
1.1857e-05
1.18598e-05
1.1857e-05
1.18808e-05
1.1857e-05
1.20428e-05
1.1857e-05
1.20898e-05
1.18575e-05
1.1857e-05
1.18807e-05
1.1857e-05
1.18597e-05
1.1857e-05
1.30202e-05
1.1857e-05
1.32839e-05
1.1857e-05
1.1857e-05
1.1857e-05
1.1857e-05
1.1857e-05
1.1857e-05
1.1857e-05
1.1857e-05
1.18573e-05
1.1857e-05
1.18598e-05
1.1857e-05
1.18839e-05
1.19429e-05
1.1857e-05
1.35619e-05
1.1857e-05
1.1857e-05
5.21914e-05
2.24391e-05
3.64041e-05
3.67145e-05
1.1857e-05
1.1857e-05
2.19735e-05
4.73287e-05
2.17933e-05
1.1857e-05
1.1857e-05
1.36668e-05
1.1857e-05
1.99388e-05
1.1857e-05
1.21116e-05
1.1857e-05
1.1882e-05
1.18607e-05
1.18572e-05
1.1857e-05
1.1857e-05
1.1857e-05
1.1857e-05
1.1857e-05
1.1857e-05
1.1857e-05
1.1857e-05
1.19775e-05
1.1857e-05
1.2062e-05
1.18751e-05
1.1857e-05
1.18594e-05
1.1857e-05
1.1857e-05
1.1878e-05
1.1857e-05
1.20827e-05
1.18595e-05
1.1857e-05
1.1857e-05
1.20551e-05
1.1857e-05
1.18908e-05
1.18607e-05
1.1857e-05
1.186e-05
1.1857e-05
1.1857e-05
1.20222e-05
1.1857e-05
1.18775e-05
1.19847e-05
1.18739e-05
1.18613e-05
1.1857e-05
1.1857e-05
1.1857e-05
1.19768e-05
1.1857e-05
1.1857e-05
1.19449e-05
1.18732e-05
1.18707e-05
1.1857e-05
1.1857e-05
1.18596e-05
1.18587e-05
1.1857e-05
1.1963e-05
1.1857e-05
1.18692e-05
1.1936e-05
1.1857e-05
1.18661e-05
1.1857e-05
1.1857e-05
1.19342e-05
1.1857e-05
1.18588e-05
1.18647e-05
1.19188e-05
1.1857e-05
1.1857e-05
1.1857e-05
1.1857e-05
1.18634e-05
1.18584e-05
1.1857e-05
1.18582e-05
1.1857e-05
1.19322e-05
1.18639e-05
1.1857e-05
1.19103e-05
1.1857e-05
1.18627e-05
1.18583e-05
1.1857e-05
1.1857e-05
1.1857e-05
1.18616e-05
1.1857e-05
1.18853e-05
1.1857e-05
1.18621e-05
1.1857e-05
1.1858e-05
1.1857e-05
1.18579e-05
1.1857e-05
1.1896e-05
1.1857e-05
1.18824e-05
1.18976e-05
1.18609e-05
1.1857e-05
1.18856e-05
1.18607e-05
1.1857e-05
1.1857e-05
1.1858e-05
1.18618e-05
1.1857e-05
1.18579e-05
1.1857e-05
1.18582e-05
1.1858e-05
1.29057e-05
1.1857e-05
1.1857e-05
1.35339e-05
1.18575e-05
1.18576e-05
1.1857e-05
1.1857e-05
1.1857e-05
1.1857e-05
1.18576e-05
1.1857e-05
1.28599e-05
1.1857e-05
1.18573e-05
1.18574e-05
1.1857e-05
1.2729e-05
1.18961e-05
1.1857e-05
1.18577e-05
1.1857e-05
1.24899e-05
1.18765e-05
1.1857e-05
1.33269e-05
1.1857e-05
1.18806e-05
1.18576e-05
1.1857e-05
1.26431e-05
1.1857e-05
1.18573e-05
1.1857e-05
1.18574e-05
1.1857e-05
1.1857e-05
1.18626e-05
1.1857e-05
1.1857e-05
1.18627e-05
1.18573e-05
1.1857e-05
1.18574e-05
1.1857e-05
1.1857e-05
1.19473e-05
1.1857e-05
1.18572e-05
1.18574e-05
1.1857e-05
1.1857e-05
1.1863e-05
1.1857e-05
1.1863e-05
1.1857e-05
1.1857e-05
1.22548e-05
1.19261e-05
1.18573e-05
1.1857e-05
1.25062e-05
1.18581e-05
1.1857e-05
1.18572e-05
1.1857e-05
1.1857e-05
1.22002e-05
1.18655e-05
1.1857e-05
1.19946e-05
1.1857e-05
1.18653e-05
1.1857e-05
1.18583e-05
1.1857e-05
1.22557e-05
1.1857e-05
1.18581e-05
1.20154e-05
1.1857e-05
1.1871e-05
1.1857e-05
1.18666e-05
1.1857e-05
1.1857e-05
1.21592e-05
1.1857e-05
1.18789e-05
1.18799e-05
1.1857e-05
1.1857e-05
1.1859e-05
1.2145e-05
1.18586e-05
1.1857e-05
1.21431e-05
1.1857e-05
1.1857e-05
1.18796e-05
1.18778e-05
1.1857e-05
1.186e-05
1.21586e-05
1.18573e-05
1.1857e-05
1.1857e-05
1.18591e-05
1.22467e-05
1.1857e-05
1.1857e-05
1.18572e-05
1.23221e-05
1.1857e-05
1.18881e-05
1.1857e-05
1.18606e-05
1.18606e-05
1.18573e-05
1.19006e-05
1.1857e-05
1.1857e-05
1.18572e-05
1.18604e-05
1.1857e-05
1.2283e-05
1.18605e-05
1.19272e-05
1.1857e-05
1.1857e-05
1.23562e-05
1.1857e-05
1.21865e-05
1.1857e-05
1.18686e-05
1.1857e-05
1.18665e-05
1.1857e-05
1.22171e-05
1.1869e-05
1.1857e-05
1.18677e-05
1.1857e-05
1.29557e-05
1.1857e-05
1.1857e-05
1.2764e-05
1.25723e-05
1.1857e-05
1.32966e-05
1.1857e-05
1.32856e-05
1.1857e-05
1.1857e-05
1.43947e-05
1.78889e-05
1.1857e-05
1.1857e-05
1.48999e-05
1.37657e-05
1.1857e-05
1.69751e-05
1.1857e-05
1.32084e-05
1.1857e-05
1.19652e-05
1.29496e-05
1.1857e-05
1.1857e-05
1.42974e-05
1.73869e-05
1.1857e-05
1.1857e-05
1.19554e-05
1.1857e-05
1.1857e-05
1.29472e-05
1.28015e-05
1.1857e-05
1.19789e-05
1.1857e-05
1.1857e-05
1.19456e-05
1.1857e-05
1.1857e-05
1.18573e-05
1.60654e-05
1.1857e-05
1.51705e-05
1.27616e-05
2.77256e-05
1.1857e-05
1.19737e-05
1.1857e-05
1.1857e-05
1.52434e-05
2.50506e-05
1.1857e-05
1.25446e-05
1.1857e-05
1.1857e-05
1.1857e-05
2.67655e-05
1.1857e-05
1.1857e-05
1.1857e-05
1.19414e-05
2.45891e-05
1.1857e-05
1.1857e-05
1.1857e-05
1.18767e-05
1.20042e-05
1.18658e-05
1.1857e-05
1.1857e-05
1.18575e-05
1.1865e-05
1.1857e-05
1.18715e-05
1.1857e-05
1.4383e-05
1.1857e-05
1.1857e-05
1.1864e-05
1.1857e-05
1.27319e-05
1.1857e-05
1.39179e-05
1.1857e-05
1.1857e-05
1.1866e-05
1.22486e-05
1.18577e-05
1.1857e-05
1.20111e-05
1.18867e-05
1.1857e-05
1.18574e-05
1.1857e-05
1.1857e-05
1.21461e-05
1.1857e-05
1.18795e-05
1.1857e-05
1.1857e-05
1.27067e-05
1.1857e-05
1.18579e-05
1.1857e-05
1.1857e-05
1.18574e-05
2.10448e-05
1.1857e-05
1.1857e-05
1.28669e-05
1.18613e-05
1.32603e-05
1.1857e-05
1.1857e-05
1.20613e-05
1.1857e-05
1.1857e-05
1.20369e-05
1.1857e-05
1.1857e-05
1.20081e-05
1.90956e-05
1.1857e-05
1.1857e-05
1.18578e-05
1.18584e-05
1.1857e-05
1.186e-05
1.1857e-05
1.1857e-05
1.36104e-05
1.1857e-05
1.20369e-05
1.1857e-05
1.1857e-05
1.1857e-05
1.83286e-05
1.1857e-05
1.1857e-05
1.1858e-05
1.18587e-05
1.33063e-05
1.1857e-05
1.2654e-05
1.20538e-05
1.1857e-05
1.63831e-05
1.1857e-05
1.1857e-05
1.96457e-05
1.1857e-05
1.18592e-05
1.1859e-05
1.1857e-05
1.1857e-05
1.2417e-05
1.32994e-05
1.1857e-05
1.1857e-05
1.18585e-05
1.20238e-05
1.1857e-05
1.54624e-05
1.1857e-05
1.1857e-05
1.18659e-05
1.1857e-05
1.19337e-05
1.40285e-05
1.1857e-05
1.1859e-05
1.1857e-05
1.1857e-05
1.3298e-05
1.1857e-05
1.18587e-05
1.20398e-05
1.1857e-05
4.49243e-05
1.1857e-05
1.1857e-05
1.1857e-05
2.10999e-05
3.67733e-05
3.50769e-05
3.49504e-05
1.1857e-05
1.1857e-05
3.65256e-05
3.75254e-05
1.1857e-05
1.1857e-05
1.94926e-05
1.1857e-05
4.33804e-05
3.76567e-05
1.1857e-05
1.1857e-05
1.1857e-05
1.1857e-05
1.1857e-05
3.48309e-05
1.1857e-05
1.1857e-05
1.1857e-05
1.83731e-05
4.59275e-05
1.1857e-05
1.1857e-05
3.44977e-05
1.1857e-05
1.1857e-05
5.03011e-05
4.30253e-05
5.22083e-05
1.1857e-05
3.597e-05
4.57732e-05
2.14055e-05
4.06014e-05
4.96462e-05
4.77406e-05
3.6038e-05
3.01304e-05
1.1857e-05
4.3585e-05
3.43856e-05
4.14772e-05
1.1857e-05
1.1857e-05
2.03736e-05
5.17443e-05
4.25978e-05
1.1857e-05
1.1857e-05
1.1857e-05
4.80954e-05
2.2469e-05
1.1857e-05
1.18587e-05
1.1857e-05
1.1857e-05
1.1857e-05
1.1857e-05
4.60174e-05
5.16257e-05
1.1857e-05
1.1857e-05
2.79941e-05
3.72816e-05
3.79898e-05
3.97316e-05
1.18657e-05
4.11328e-05