/*--------------------------------*- C++ -*----------------------------------*\
  =========                 |
  \\      /  F ield         | OpenFOAM: The Open Source CFD Toolbox
   \\    /   O peration     | Website:  https://openfoam.org
    \\  /    A nd           | Version:  6
     \\/     M anipulation  |
\*---------------------------------------------------------------------------*/
FoamFile
{
    version     2.0;
    format      ascii;
    class       volScalarField;
    location    "1.16";
    object      rho;
}
// * * * * * * * * * * * * * * * * * * * * * * * * * * * * * * * * * * * * * //

dimensions      [1 -3 0 0 0 0 0];

internalField   nonuniform List<scalar> 
5835
(
3.35282e-05
1.1857e-05
3.40516e-05
1.4886e-05
1.1857e-05
1.1857e-05
1.1857e-05
1.1877e-05
1.1857e-05
1.1857e-05
1.1857e-05
2.67092e-05
1.1857e-05
1.1857e-05
2.73934e-05
1.1857e-05
5.9691e-05
5.92005e-05
1.1857e-05
1.1857e-05
6.16313e-05
1.1857e-05
6.32633e-05
2.66068e-05
1.1857e-05
1.1857e-05
2.94543e-05
1.1857e-05
1.48375e-05
1.1857e-05
1.21866e-05
1.1857e-05
1.1857e-05
1.19182e-05
1.19074e-05
1.1857e-05
1.1857e-05
1.1857e-05
1.18607e-05
1.18634e-05
1.1857e-05
1.18576e-05
1.1857e-05
1.18576e-05
1.1857e-05
1.18571e-05
1.1857e-05
1.18571e-05
1.1857e-05
1.1857e-05
1.1857e-05
1.1857e-05
1.1857e-05
1.1857e-05
1.1857e-05
1.1857e-05
1.1857e-05
1.1857e-05
1.1857e-05
1.1857e-05
1.53475e-05
1.1857e-05
1.57171e-05
1.1857e-05
1.1857e-05
1.18571e-05
1.18571e-05
1.1857e-05
1.19221e-05
1.19154e-05
1.18645e-05
1.1866e-05
1.1857e-05
1.1857e-05
1.1857e-05
1.1857e-05
1.22624e-05
1.24583e-05
1.18579e-05
1.1857e-05
1.1857e-05
1.1858e-05
1.1857e-05
3.55824e-05
3.34181e-05
1.1857e-05
1.1857e-05
1.1857e-05
1.18791e-05
1.49726e-05
1.1857e-05
1.1857e-05
1.1857e-05
1.18579e-05
1.18577e-05
1.1857e-05
1.1857e-05
1.1857e-05
1.70031e-05
1.18573e-05
1.1857e-05
1.18581e-05
1.1857e-05
1.1857e-05
2.27726e-05
1.1857e-05
1.1857e-05
2.34264e-05
1.1857e-05
1.18574e-05
1.1857e-05
1.1857e-05
1.67887e-05
1.1857e-05
1.1857e-05
1.1857e-05
1.1857e-05
1.1857e-05
1.1857e-05
2.11276e-05
2.06314e-05
1.1857e-05
1.1857e-05
1.1857e-05
1.1857e-05
1.1857e-05
1.1857e-05
1.1857e-05
1.1857e-05
1.18572e-05
1.18572e-05
1.1857e-05
1.1857e-05
1.18588e-05
1.1857e-05
1.1857e-05
5.36998e-05
1.1857e-05
5.59688e-05
1.1857e-05
1.1857e-05
1.1857e-05
5.4202e-05
5.35589e-05
5.65872e-05
5.77428e-05
3.74767e-05
3.88009e-05
1.1857e-05
1.1857e-05
3.78645e-05
1.1857e-05
1.1857e-05
1.1857e-05
3.3805e-05
2.62841e-05
1.60299e-05
1.1857e-05
1.2522e-05
2.42752e-05
1.1857e-05
1.1857e-05
1.1857e-05
1.1857e-05
1.68578e-05
1.1857e-05
1.1857e-05
1.54384e-05
1.1857e-05
1.1857e-05
1.21538e-05
1.19971e-05
1.19589e-05
1.1857e-05
1.1857e-05
1.19061e-05
1.1857e-05
1.61877e-05
1.28637e-05
1.4463e-05
1.1857e-05
1.1857e-05
1.1857e-05
1.1857e-05
1.1857e-05
1.19184e-05
1.1857e-05
1.18571e-05
1.1857e-05
1.1857e-05
1.1857e-05
1.1857e-05
1.1857e-05
1.18571e-05
1.18571e-05
1.1857e-05
1.1857e-05
1.1857e-05
1.1857e-05
1.1857e-05
5.2095e-05
5.33776e-05
1.1857e-05
1.1857e-05
1.1857e-05
1.1857e-05
1.1857e-05
1.18571e-05
1.1857e-05
1.1857e-05
1.18709e-05
1.1857e-05
1.18681e-05
1.1857e-05
1.18637e-05
1.1857e-05
1.1857e-05
1.1857e-05
1.1857e-05
1.1857e-05
1.1857e-05
1.1857e-05
1.1857e-05
1.18695e-05
1.1857e-05
1.18892e-05
1.18651e-05
5.75059e-05
1.1857e-05
1.1857e-05
1.18622e-05
1.1857e-05
1.1857e-05
1.1857e-05
1.1857e-05
1.1857e-05
3.71199e-05
1.1857e-05
3.8978e-05
1.18582e-05
1.1857e-05
1.18586e-05
1.18578e-05
1.18796e-05
1.1857e-05
1.18578e-05
1.1857e-05
1.18586e-05
1.18577e-05
1.1857e-05
1.32614e-05
1.1857e-05
1.1857e-05
1.1857e-05
1.1857e-05
1.1857e-05
1.1857e-05
1.86122e-05
1.1857e-05
1.1857e-05
1.1857e-05
2.71444e-05
2.76592e-05
1.1857e-05
2.86573e-05
1.1857e-05
1.1857e-05
1.1857e-05
2.57263e-05
2.70051e-05
1.1857e-05
1.1857e-05
1.1857e-05
1.1857e-05
1.1857e-05
1.20413e-05
1.1857e-05
1.1857e-05
1.1857e-05
1.1857e-05
1.1857e-05
1.1857e-05
2.99345e-05
1.1857e-05
1.1857e-05
1.1857e-05
1.1857e-05
1.1857e-05
1.1857e-05
1.1857e-05
5.68675e-05
3.32354e-05
1.1857e-05
3.35875e-05
1.1857e-05
1.1857e-05
1.1857e-05
1.1857e-05
1.1857e-05
5.23173e-05
1.1857e-05
5.84315e-05
5.69887e-05
5.32014e-05
3.30135e-05
5.39905e-05
1.1857e-05
5.33037e-05
1.1857e-05
3.8355e-05
6.15722e-05
3.79349e-05
5.6891e-05
3.02398e-05
1.1857e-05
1.1857e-05
1.18656e-05
2.98271e-05
1.18573e-05
1.1857e-05
1.1857e-05
1.20271e-05
1.1857e-05
2.88507e-05
1.1857e-05
3.06058e-05
1.18689e-05
1.18598e-05
5.30012e-05
1.18743e-05
1.1857e-05
1.97544e-05
1.1857e-05
1.19568e-05
1.1857e-05
1.1956e-05
1.18573e-05
1.1857e-05
1.18573e-05
1.1857e-05
1.1857e-05
5.21387e-05
1.86767e-05
5.39619e-05
1.1857e-05
1.18627e-05
1.1857e-05
1.18589e-05
1.1857e-05
1.18591e-05
2.29668e-05
1.1857e-05
1.1857e-05
1.20715e-05
1.19185e-05
1.1857e-05
1.32354e-05
1.1857e-05
2.2567e-05
1.18743e-05
1.50697e-05
1.1857e-05
1.18572e-05
1.18619e-05
2.52688e-05
1.1857e-05
1.1857e-05
1.1857e-05
1.1857e-05
1.18588e-05
1.22264e-05
1.1857e-05
1.1857e-05
1.1857e-05
1.56456e-05
1.18756e-05
1.1857e-05
1.1857e-05
1.1857e-05
1.1857e-05
1.1857e-05
1.1857e-05
1.1857e-05
1.1857e-05
1.1857e-05
1.1857e-05
1.1857e-05
1.1857e-05
1.1857e-05
1.1857e-05
1.1857e-05
1.1857e-05
1.1857e-05
1.1857e-05
1.1857e-05
1.1857e-05
1.1857e-05
1.1857e-05
1.1857e-05
1.1857e-05
1.1857e-05
1.1857e-05
1.1857e-05
1.1857e-05
1.18605e-05
1.19538e-05
1.1857e-05
1.1893e-05
1.58523e-05
1.18572e-05
1.18594e-05
1.1857e-05
1.1857e-05
1.1857e-05
1.1857e-05
1.1857e-05
1.71668e-05
1.1857e-05
1.1857e-05
1.1857e-05
1.1857e-05
1.18575e-05
1.1857e-05
1.23804e-05
1.1857e-05
1.1857e-05
1.1857e-05
1.1857e-05
1.29739e-05
1.1857e-05
1.1857e-05
1.70248e-05
1.1862e-05
1.1857e-05
1.23638e-05
1.1857e-05
1.1857e-05
1.18606e-05
1.1857e-05
1.64263e-05
1.55867e-05
1.1857e-05
1.1857e-05
1.55395e-05
1.18991e-05
1.1857e-05
1.1857e-05
1.1861e-05
1.19058e-05
1.1857e-05
1.50816e-05
1.1857e-05
1.22034e-05
1.1857e-05
1.19031e-05
1.1857e-05
1.1857e-05
1.18608e-05
1.18578e-05
1.1917e-05
1.18645e-05
1.1857e-05
1.55088e-05
1.1857e-05
1.18637e-05
1.18577e-05
1.1857e-05
1.1857e-05
1.56731e-05
1.1857e-05
1.1857e-05
1.21658e-05
1.1857e-05
1.5707e-05
1.1857e-05
1.23146e-05
1.18578e-05
1.63061e-05
1.1857e-05
1.18571e-05
1.1857e-05
1.2323e-05
1.1857e-05
1.18581e-05
1.1857e-05
1.18579e-05
1.1857e-05
1.18581e-05
1.18571e-05
1.1857e-05
1.1857e-05
1.18571e-05
1.1857e-05
1.1857e-05
1.1857e-05
1.18572e-05
1.18574e-05
1.1857e-05
1.1857e-05
1.1857e-05
1.86357e-05
1.18572e-05
1.1857e-05
1.1857e-05
2.09459e-05
1.1857e-05
1.1857e-05
1.1857e-05
2.22128e-05
1.1857e-05
1.1857e-05
1.18572e-05
1.1857e-05
1.72384e-05
1.1857e-05
1.1857e-05
5.42266e-05
1.1857e-05
1.1857e-05
5.51605e-05
5.24203e-05
5.24175e-05
1.1857e-05
1.1857e-05
1.1857e-05
1.1857e-05
3.67492e-05
3.67862e-05
1.1857e-05
1.1857e-05
1.1857e-05
3.85383e-05
5.12801e-05
1.1857e-05
5.50191e-05
1.1857e-05
1.1857e-05
1.1857e-05
3.62006e-05
1.1857e-05
2.41531e-05
1.1857e-05
5.23688e-05
1.1857e-05
3.19423e-05
1.60982e-05
1.2909e-05
1.18571e-05
1.1857e-05
1.26457e-05
1.1857e-05
1.59954e-05
1.1857e-05
1.52359e-05
1.1857e-05
1.1857e-05
1.1857e-05
1.1857e-05
1.1857e-05
1.1857e-05
1.1857e-05
1.19908e-05
5.64072e-05
1.1857e-05
1.42753e-05
1.1857e-05
1.1857e-05
1.20206e-05
1.1857e-05
1.19105e-05
1.1857e-05
1.1857e-05
1.19134e-05
1.1857e-05
1.1857e-05
1.1857e-05
5.09036e-05
1.1857e-05
1.1857e-05
1.1857e-05
1.20215e-05
1.1857e-05
1.1857e-05
1.1857e-05
1.35067e-05
1.1857e-05
1.18699e-05
1.18694e-05
1.1857e-05
1.18585e-05
1.18647e-05
1.1857e-05
1.18646e-05
1.18583e-05
1.1857e-05
1.18727e-05
1.18578e-05
1.18578e-05
1.1857e-05
1.1857e-05
1.21164e-05
1.1857e-05
1.1857e-05
1.1857e-05
2.58779e-05
1.1857e-05
1.1857e-05
1.18571e-05
1.1857e-05
1.18577e-05
1.1857e-05
2.68889e-05
1.72157e-05
2.6694e-05
1.1857e-05
2.77264e-05
1.18622e-05
1.1857e-05
1.1857e-05
5.18451e-05
1.1857e-05
2.66847e-05
1.1857e-05
1.1857e-05
2.73244e-05
1.1857e-05
5.26414e-05
1.1857e-05
3.42534e-05
3.9639e-05
1.1857e-05
1.1857e-05
5.41671e-05
5.2838e-05
3.65754e-05
1.1857e-05
1.1857e-05
1.1857e-05
1.1857e-05
3.00758e-05
5.76837e-05
1.1857e-05
3.1139e-05
1.1857e-05
1.1857e-05
1.1857e-05
1.1857e-05
5.73314e-05
5.60507e-05
1.1857e-05
3.03197e-05
1.1857e-05
5.24292e-05
1.1857e-05
1.1857e-05
1.1857e-05
5.14849e-05
1.73904e-05
5.20686e-05
1.1857e-05
1.18602e-05
1.1857e-05
1.90547e-05
1.88036e-05
1.1857e-05
1.1857e-05
1.1873e-05
1.1857e-05
1.35042e-05
2.25465e-05
1.20212e-05
1.1857e-05
2.36937e-05
1.1857e-05
1.1857e-05
1.1857e-05
1.1857e-05
1.1857e-05
1.1857e-05
1.1857e-05
1.1857e-05
1.1857e-05
1.1857e-05
1.1857e-05
1.18759e-05
1.1857e-05
1.1857e-05
1.1857e-05
1.1857e-05
1.1857e-05
1.45393e-05
1.22778e-05
1.1857e-05
1.1857e-05
1.18573e-05
1.18573e-05
1.1857e-05
1.1857e-05
1.1857e-05
1.1857e-05
1.1857e-05
1.19005e-05
1.1857e-05
1.1857e-05
1.53784e-05
1.59353e-05
1.19374e-05
1.1857e-05
1.1857e-05
1.19385e-05
1.18573e-05
1.1857e-05
1.18588e-05
1.18589e-05
1.1857e-05
1.1857e-05
1.1857e-05
1.1857e-05
1.19104e-05
1.1857e-05
1.1857e-05
1.1857e-05
1.1857e-05
1.1857e-05
1.18623e-05
1.1857e-05
1.66184e-05
1.1857e-05
1.1857e-05
1.1857e-05
1.28544e-05
1.24417e-05
1.58841e-05
1.1857e-05
1.18618e-05
1.1857e-05
1.49661e-05
1.51995e-05
1.22548e-05
1.1857e-05
1.1857e-05
1.56068e-05
1.1857e-05
1.1857e-05
1.55175e-05
1.1857e-05
1.1857e-05
1.1857e-05
1.19044e-05
1.19011e-05
1.1857e-05
1.609e-05
1.1857e-05
1.1857e-05
1.19266e-05
1.18578e-05
1.1857e-05
1.18642e-05
1.18646e-05
1.1857e-05
1.63384e-05
1.18578e-05
1.21935e-05
1.1857e-05
1.1857e-05
1.18571e-05
1.1857e-05
1.1857e-05
1.22358e-05
1.1857e-05
1.18572e-05
1.1857e-05
1.2331e-05
1.1857e-05
1.18579e-05
1.1858e-05
1.1857e-05
1.1857e-05
1.1857e-05
1.1857e-05
1.18571e-05
1.18571e-05
1.1857e-05
1.1857e-05
1.18571e-05
1.18571e-05
1.1857e-05
1.1857e-05
1.1857e-05
1.1857e-05
1.18812e-05
1.1857e-05
1.1857e-05
1.1857e-05
1.1857e-05
1.18835e-05
1.1871e-05
1.18972e-05
1.18824e-05
1.1857e-05
1.1857e-05
1.1857e-05
1.1857e-05
1.1857e-05
1.6296e-05
1.18699e-05
1.18662e-05
1.18709e-05
1.1866e-05
1.1857e-05
1.1857e-05
1.20827e-05
1.1993e-05
1.1857e-05
1.1857e-05
1.1857e-05
1.1857e-05
1.1857e-05
1.19135e-05
1.1857e-05
1.1857e-05
1.19644e-05
1.19171e-05
1.1857e-05
1.1857e-05
1.1857e-05
1.1857e-05
3.37956e-05
3.53923e-05
3.63064e-05
3.25383e-05
1.1857e-05
1.1857e-05
1.1857e-05
1.1857e-05
1.1857e-05
1.1857e-05
1.1857e-05
1.1857e-05
1.1857e-05
1.1857e-05
1.1857e-05
1.1857e-05
1.1857e-05
1.1857e-05
1.1857e-05
1.1857e-05
1.1857e-05
1.1857e-05
1.1857e-05
1.1857e-05
1.1857e-05
1.1857e-05
1.18614e-05
1.1857e-05
1.18586e-05
2.29159e-05
1.18601e-05
1.1857e-05
1.93269e-05
1.18585e-05
1.1857e-05
1.1857e-05
2.76389e-05
1.1857e-05
1.1857e-05
1.1857e-05
1.18628e-05
1.18604e-05
1.62259e-05
1.1857e-05
1.1857e-05
1.18628e-05
1.186e-05
1.1857e-05
1.1857e-05
1.81469e-05
1.1857e-05
1.18591e-05
1.1857e-05
1.1857e-05
1.1857e-05
2.26539e-05
1.83298e-05
1.1857e-05
1.1857e-05
1.1857e-05
1.1857e-05
1.59726e-05
1.1857e-05
3.6579e-05
1.1857e-05
3.92405e-05
1.1857e-05
1.19e-05
1.1857e-05
1.1857e-05
1.1857e-05
1.1857e-05
1.1857e-05
1.1857e-05
1.1857e-05
2.12749e-05
2.43546e-05
1.1857e-05
1.1857e-05
1.91022e-05
1.1857e-05
2.27451e-05
1.1857e-05
1.8085e-05
1.1857e-05
1.1857e-05
5.26216e-05
5.42702e-05
1.1857e-05
1.1857e-05
1.1857e-05
5.12628e-05
5.63912e-05
5.6159e-05
1.1857e-05
5.05683e-05
1.1857e-05
1.1857e-05
1.1857e-05
6.01782e-05
4.9723e-05
1.1857e-05
5.35688e-05
4.83514e-05
1.1857e-05
1.1857e-05
1.1857e-05
5.74847e-05
1.1857e-05
1.1857e-05
5.59275e-05
1.1857e-05
5.12304e-05
1.1857e-05
1.1857e-05
1.1857e-05
5.40224e-05
4.9137e-05
5.42407e-05
1.1857e-05
1.1857e-05
1.1857e-05
4.88658e-05
5.89624e-05
5.65176e-05
5.07501e-05
5.23041e-05
1.1857e-05
1.1857e-05
5.26323e-05
1.1857e-05
1.1857e-05
4.8459e-05
4.88095e-05
5.12837e-05
1.1857e-05
5.08758e-05
1.1857e-05
1.8342e-05
1.1857e-05
1.1857e-05
1.1857e-05
1.1857e-05
1.18572e-05
1.1857e-05
1.1857e-05
1.1857e-05
1.1857e-05
2.13037e-05
2.41713e-05
1.1857e-05
1.1857e-05
1.87518e-05
1.1857e-05
1.1857e-05
5.07978e-05
1.1857e-05
1.1857e-05
4.99524e-05
1.1857e-05
2.19827e-05
1.1857e-05
1.1857e-05
1.1857e-05
1.18596e-05
1.1857e-05
1.18763e-05
1.19994e-05
1.18573e-05
1.1857e-05
1.22383e-05
1.18966e-05
1.30892e-05
1.1857e-05
1.1857e-05
1.18612e-05
1.1857e-05
1.4313e-05
1.1857e-05
1.1857e-05
1.1857e-05
1.1857e-05
1.1857e-05
1.1857e-05
1.1857e-05
1.18577e-05
1.18576e-05
1.1862e-05
1.1857e-05
1.8568e-05
1.19023e-05
1.1857e-05
1.1857e-05
1.1857e-05
3.23115e-05
5.2326e-05
1.1857e-05
1.1857e-05
2.45029e-05
5.1113e-05
1.1857e-05
3.3655e-05
2.44062e-05
1.1857e-05
1.1857e-05
1.1857e-05
1.20212e-05
1.18737e-05
1.18571e-05
1.1859e-05
1.18572e-05
1.1857e-05
1.1857e-05
1.1857e-05
1.1857e-05
1.1857e-05
1.1857e-05
1.26053e-05
1.1857e-05
2.13696e-05
1.1857e-05
1.1857e-05
1.1857e-05
1.1857e-05
1.1857e-05
2.36519e-05
3.00131e-05
1.1857e-05
1.20664e-05
1.1857e-05
1.1857e-05
1.20121e-05
1.20266e-05
1.1857e-05
1.1857e-05
1.18793e-05
1.18601e-05
1.1857e-05
1.19823e-05
1.20126e-05
1.1857e-05
1.18591e-05
1.1857e-05
1.18738e-05
1.18598e-05
1.1857e-05
1.1857e-05
1.19573e-05
1.1878e-05
1.19626e-05
1.1857e-05
1.18708e-05
1.1857e-05
1.18597e-05
1.1857e-05
1.19498e-05
1.1857e-05
1.18726e-05
1.20004e-05
1.1857e-05
1.1857e-05
1.19466e-05
1.1857e-05
1.18736e-05
1.19681e-05
1.1857e-05
1.18586e-05
1.18662e-05
1.1857e-05
1.1857e-05
1.1857e-05
1.1857e-05
1.1857e-05
1.18586e-05
1.1857e-05
1.1857e-05
1.1857e-05
1.18692e-05
1.19428e-05
1.18652e-05
1.1857e-05
1.1857e-05
1.18591e-05
1.1857e-05
1.20252e-05
1.1857e-05
1.1907e-05
1.18583e-05
1.1866e-05
1.1857e-05
1.18583e-05
1.1857e-05
1.18585e-05
1.38057e-05
1.1857e-05
1.1857e-05
1.1857e-05
1.2956e-05
1.1857e-05
1.18574e-05
1.1857e-05
1.1857e-05
1.1857e-05
1.18667e-05
1.18596e-05
1.1857e-05
1.34927e-05
1.19433e-05
1.18573e-05
1.18573e-05
1.1857e-05
1.1857e-05
1.1857e-05
1.18573e-05
1.18574e-05
1.1857e-05
1.1857e-05
1.22841e-05
1.18573e-05
1.1857e-05
1.18573e-05
1.1857e-05
1.18811e-05
1.1857e-05
1.1857e-05
1.18714e-05
1.1857e-05
1.1857e-05
1.1868e-05
1.19752e-05
1.20899e-05
1.1857e-05
1.18573e-05
1.1857e-05
1.24972e-05
1.1857e-05
1.34037e-05
1.1857e-05
1.1857e-05
1.18782e-05
1.1857e-05
1.18572e-05
1.18709e-05
1.1857e-05
1.1857e-05
1.18599e-05
1.1857e-05
1.18574e-05
1.1857e-05
1.31768e-05
1.1857e-05
1.18777e-05
1.18894e-05
1.1857e-05
1.1857e-05
1.18903e-05
1.1857e-05
1.25979e-05
1.2096e-05
1.18615e-05
1.1857e-05
1.1857e-05
1.18596e-05
1.1857e-05
1.1857e-05
1.25426e-05
1.1857e-05
1.2211e-05
1.18572e-05
1.1857e-05
1.18608e-05
1.18601e-05
1.1857e-05
1.1924e-05
1.1857e-05
1.18573e-05
1.1857e-05
1.36813e-05
1.1857e-05
1.30353e-05
1.1857e-05
1.18637e-05
1.1857e-05
1.18616e-05
1.18606e-05
1.1857e-05
1.1857e-05
1.1857e-05
1.1857e-05
1.18634e-05
1.1857e-05
1.1857e-05
1.36311e-05
1.3633e-05
1.1857e-05
1.18631e-05
1.50597e-05
1.44718e-05
1.1857e-05
1.1857e-05
1.22342e-05
1.1857e-05
1.1857e-05
1.39031e-05
1.1857e-05
1.19059e-05
1.20928e-05
1.1857e-05
1.1857e-05
1.1857e-05
2.09224e-05
1.1857e-05
1.36848e-05
1.1857e-05
1.1922e-05
1.18712e-05
1.1857e-05
1.1857e-05
1.18798e-05
1.1857e-05
1.94009e-05
1.1857e-05
1.18929e-05
1.18575e-05
1.1857e-05
1.1857e-05
1.18579e-05
1.1857e-05
1.20888e-05
1.1857e-05
1.18621e-05
1.1857e-05
1.30097e-05
1.84145e-05
1.1857e-05
1.1857e-05
1.1857e-05
1.1857e-05
1.1857e-05
1.1858e-05
1.1857e-05
1.18819e-05
1.25376e-05
1.92124e-05
1.20275e-05
1.1857e-05
1.1857e-05
1.18574e-05
1.1857e-05
1.1857e-05
1.18582e-05
1.1857e-05
1.74371e-05
1.1857e-05
1.1878e-05
1.1857e-05
1.18616e-05
1.18575e-05
1.1857e-05
1.18576e-05
2.03804e-05
1.24698e-05
1.1857e-05
1.1857e-05
1.19803e-05
1.96191e-05
1.80175e-05
1.1857e-05
1.93278e-05
1.1857e-05
1.89455e-05
1.1857e-05
1.80698e-05
1.5847e-05
1.75581e-05
1.1857e-05
1.1857e-05
1.18591e-05
1.1857e-05
1.18576e-05
1.1857e-05
1.1857e-05
1.22897e-05
1.1857e-05
1.19235e-05
1.8436e-05
1.99291e-05
1.47803e-05
1.1857e-05
1.1857e-05
1.47137e-05
3.66006e-05
4.86561e-05
1.1857e-05
1.1857e-05
1.1857e-05
1.1857e-05
1.1857e-05
1.1857e-05
1.1857e-05
1.1857e-05
1.1857e-05
2.32997e-05
5.8526e-05
1.1857e-05
1.1857e-05
1.1857e-05
3.61421e-05
3.78123e-05
1.1857e-05
1.1857e-05
4.90005e-05
1.22561e-05
1.1857e-05
1.1857e-05
2.75786e-05
1.1857e-05
1.1857e-05
3.26304e-05
4.26893e-05
5.37202e-05
1.1857e-05
5.36535e-05
4.66132e-05
1.1857e-05
5.30398e-05
1.1857e-05
4.65029e-05
5.21344e-05
3.67134e-05
4.74555e-05
4.3659e-05
1.1857e-05
3.26282e-05
2.40082e-05
4.42732e-05
1.19091e-05
3.68647e-05
3.59593e-05
4.73632e-05
1.1857e-05
1.1857e-05
1.1857e-05
1.1857e-05
1.1857e-05
4.98944e-05
4.70829e-05
1.1857e-05
1.1857e-05
1.1857e-05
2.62356e-05
3.89103e-05
1.1857e-05
1.1857e-05
3.08639e-05
1.82302e-05
1.1857e-05
4.45357e-05
1.1857e-05
1.1857e-05
1.1857e-05
4.5247e-05
3.00099e-05
1.22787e-05
1.1857e-05
2.81048e-05
1.1857e-05
2.59443e-05
1.1857e-05
2.34781e-05
1.1857e-05
1.1857e-05
1.4266e-05
2.16809e-05
1.1857e-05
1.1857e-05
3.4746e-05
1.1857e-05
1.37852e-05
1.1857e-05
1.1857e-05
1.1857e-05
1.18656e-05
1.21604e-05
1.1857e-05
1.1857e-05
1.1903e-05
4.69501e-05
1.1857e-05
1.1857e-05
1.18914e-05
4.48826e-05
1.1857e-05
1.1857e-05
1.1857e-05
1.21239e-05
1.1857e-05
1.1857e-05
2.25497e-05
1.1857e-05
1.1857e-05
1.18581e-05
1.1857e-05
1.18623e-05
1.18864e-05
1.1857e-05
1.2445e-05
1.85211e-05
3.4835e-05
1.1857e-05
2.23191e-05
3.55832e-05
1.18577e-05
1.1857e-05
1.1857e-05
1.89833e-05
4.45045e-05
4.63073e-05
1.1857e-05
1.18603e-05
1.1857e-05
1.1857e-05
1.1857e-05
1.1857e-05
3.55326e-05
1.1857e-05
1.1857e-05
1.1857e-05
1.1857e-05
1.1857e-05
1.18571e-05
1.1857e-05
1.18578e-05
4.47617e-05
1.1857e-05
1.1857e-05
1.1857e-05
1.79074e-05
1.1857e-05
1.18642e-05
3.44857e-05
1.8392e-05
2.2576e-05
1.1857e-05
1.1857e-05
1.18574e-05
3.7093e-05
4.64004e-05
1.18573e-05
1.1857e-05
1.1857e-05
1.1857e-05
1.1857e-05
1.9099e-05
1.18572e-05
1.1857e-05
1.1857e-05
1.90741e-05
1.1857e-05
1.1857e-05
2.20501e-05
1.1857e-05
1.1857e-05
1.1857e-05
1.1857e-05
1.1857e-05
1.1857e-05
1.1857e-05
1.1857e-05
1.1857e-05
1.1857e-05
1.1857e-05
1.1857e-05
1.1857e-05
1.1857e-05
1.1857e-05
1.1857e-05
1.1857e-05
1.1857e-05
1.1857e-05
1.1857e-05
1.1857e-05
1.1857e-05
1.1857e-05
1.1857e-05
1.1857e-05
1.1857e-05
1.1857e-05
1.1857e-05
1.1857e-05
1.1857e-05
1.1857e-05
1.1857e-05
1.1857e-05
1.1857e-05
1.1857e-05
1.1857e-05
1.1857e-05
1.1857e-05
1.1857e-05
1.1857e-05
1.1857e-05
1.1857e-05
1.1857e-05
1.1857e-05
1.1857e-05
1.1857e-05
1.1857e-05
1.1857e-05
1.1857e-05
1.1857e-05
1.1857e-05
1.1857e-05
1.1857e-05
1.1857e-05
1.1857e-05
4.81081e-05
1.1857e-05
1.18583e-05
2.0279e-05
1.1857e-05
1.1857e-05
2.22034e-05
1.1857e-05
1.1857e-05
1.1857e-05
1.41899e-05
1.1857e-05
1.1857e-05
2.22963e-05
2.0376e-05
1.1857e-05
2.42319e-05
1.1857e-05
1.1857e-05
1.20131e-05
1.1857e-05
1.18653e-05
1.1857e-05
1.52832e-05
1.18705e-05
1.1857e-05
1.21406e-05
1.1857e-05
1.1857e-05
1.1857e-05
1.1857e-05
1.18832e-05
1.1857e-05
1.19569e-05
1.1857e-05
1.18967e-05
1.1857e-05
1.1857e-05
1.18584e-05
1.21525e-05
1.1857e-05
1.1857e-05
1.1857e-05
1.1857e-05
1.1857e-05
1.18734e-05
1.18816e-05
1.1857e-05
1.1857e-05
1.1857e-05
3.4167e-05
1.1857e-05
1.1857e-05
1.1857e-05
1.1857e-05
1.19795e-05
1.18574e-05
1.1857e-05
1.1857e-05
5.19316e-05
1.1857e-05
1.18591e-05
1.1857e-05
1.21024e-05
1.1857e-05
1.18626e-05
1.1857e-05
4.46678e-05
1.1857e-05
1.1857e-05
1.18572e-05
1.1857e-05
1.1857e-05
1.49951e-05
1.32011e-05
1.1857e-05
2.00815e-05
1.1857e-05
1.1857e-05
1.18586e-05
5.50727e-05
1.1857e-05
1.1857e-05
4.61359e-05
1.18584e-05
2.21172e-05
1.1857e-05
1.18873e-05
1.1857e-05
1.1857e-05
1.18617e-05
1.39177e-05
1.1857e-05
1.21421e-05
1.1857e-05
1.1857e-05
1.18609e-05
1.1857e-05
1.1857e-05
1.1857e-05
1.20338e-05
1.3675e-05
1.1857e-05
1.1857e-05
1.47328e-05
1.1857e-05
1.30715e-05
1.1857e-05
1.1857e-05
1.18588e-05
1.1857e-05
1.1857e-05
1.46132e-05
1.20532e-05
1.1857e-05
1.18606e-05
1.1857e-05
1.18633e-05
1.18571e-05
1.1857e-05
1.1857e-05
1.34869e-05
1.18571e-05
1.1857e-05
1.1857e-05
1.18571e-05
1.18572e-05
1.1857e-05
1.1857e-05
1.1857e-05
1.18571e-05
1.1857e-05
1.1857e-05
1.18599e-05
1.1857e-05
1.1857e-05
1.1857e-05
1.60995e-05
1.1857e-05
1.1857e-05
1.1857e-05
1.1857e-05
1.48524e-05
1.1857e-05
1.74963e-05
1.1857e-05
1.67961e-05
1.1857e-05
1.1857e-05
1.18571e-05
1.1857e-05
1.1857e-05
1.1857e-05
1.66868e-05
1.1857e-05
1.1857e-05
1.1857e-05
1.1857e-05
1.1857e-05
1.1857e-05
1.1857e-05
1.1857e-05
1.1857e-05
1.86329e-05
2.09596e-05
1.1857e-05
1.1857e-05
1.1857e-05
1.1857e-05
1.1857e-05
1.1857e-05
1.1857e-05
1.1857e-05
1.1857e-05
2.80721e-05
1.1857e-05
4.82279e-05
1.1857e-05
1.1857e-05
1.1857e-05
1.78917e-05
1.1857e-05
2.11135e-05
1.18571e-05
1.1857e-05
1.1857e-05
1.1857e-05
4.44664e-05
1.1857e-05
1.1857e-05
1.1857e-05
1.90413e-05
1.1857e-05
1.1857e-05
1.1857e-05
1.1857e-05
1.1857e-05
1.1857e-05
1.1857e-05
1.1857e-05
1.1857e-05
1.1857e-05
1.18573e-05
1.1857e-05
6.04232e-05
1.1857e-05
5.03628e-05
1.1857e-05
1.1857e-05
1.1857e-05
1.1857e-05
1.1857e-05
1.1857e-05
1.18571e-05
1.1857e-05
1.1857e-05
1.1857e-05
1.1857e-05
1.18576e-05
1.18571e-05
1.1857e-05
1.18573e-05
1.1857e-05
1.1857e-05
1.18573e-05
1.18572e-05
1.1857e-05
1.18571e-05
1.1857e-05
1.18574e-05
1.18577e-05
1.18572e-05
1.1857e-05
1.1857e-05
2.62184e-05
1.1857e-05
5.58226e-05
1.1857e-05
4.68679e-05
1.1857e-05
1.1857e-05
1.1857e-05
2.93248e-05
1.1857e-05
5.23349e-05
1.1857e-05
4.50449e-05
1.1857e-05
3.28453e-05
4.40568e-05
3.37959e-05
2.64038e-05
1.1857e-05
1.1857e-05
4.84081e-05
1.1857e-05
1.1857e-05
5.27352e-05
1.1857e-05
1.1857e-05
4.97072e-05
1.1857e-05
4.39324e-05
5.01573e-05
1.1857e-05
1.1857e-05
1.1857e-05
4.70429e-05
1.1857e-05
4.10939e-05
1.1857e-05
5.65384e-05
1.1857e-05
4.75585e-05
1.1857e-05
1.63442e-05
1.1857e-05
1.1857e-05
1.1857e-05
1.1857e-05
1.18571e-05
1.1857e-05
1.1863e-05
1.29759e-05
1.1857e-05
1.1857e-05
1.1857e-05
1.1857e-05
1.1857e-05
3.07537e-05
2.59198e-05
1.1857e-05
1.1857e-05
5.18034e-05
5.69215e-05
1.1857e-05
1.1857e-05
5.60622e-05
5.90424e-05
1.1857e-05
1.1857e-05
5.35697e-05
5.7044e-05
1.1857e-05
5.35778e-05
6.35307e-05
1.1857e-05
1.1857e-05
1.1857e-05
6.5676e-05
6.30318e-05
1.1857e-05
6.91261e-05
1.1857e-05
6.40599e-05
1.1857e-05
1.1857e-05
5.32096e-05
5.95157e-05
5.6714e-05
1.1857e-05
1.1857e-05
5.88895e-05
5.18981e-05
1.1857e-05
5.29146e-05
1.1857e-05
5.34728e-05
1.1857e-05
1.1857e-05
5.24309e-05
5.19405e-05
1.1857e-05
1.1857e-05
5.63275e-05
1.1857e-05
1.1857e-05
5.40051e-05
5.46579e-05
1.1857e-05
1.1857e-05
5.62841e-05
5.59518e-05
1.1857e-05
1.1857e-05
6.59813e-05
6.58379e-05
1.1857e-05
5.76549e-05
5.8084e-05
1.1857e-05
1.1857e-05
6.53136e-05
1.1857e-05
6.40905e-05
6.35058e-05
1.1857e-05
1.1857e-05
6.70239e-05
1.1857e-05
6.12657e-05
1.1857e-05
6.18859e-05
6.01166e-05
1.1857e-05
1.1857e-05
5.9558e-05
2.01917e-05
1.1857e-05
1.1857e-05
1.99367e-05
1.1857e-05
1.1857e-05
1.1857e-05
1.1857e-05
1.36644e-05
1.1857e-05
1.1857e-05
3.10292e-05
2.93327e-05
1.1857e-05
1.1857e-05
1.18651e-05
1.1857e-05
5.38605e-05
1.1857e-05
1.1857e-05
5.22062e-05
1.1857e-05
5.55686e-05
5.69321e-05
1.1857e-05
4.6893e-05
1.1857e-05
4.8745e-05
1.1857e-05
6.08404e-05
1.1857e-05
1.1857e-05
1.1857e-05
5.81562e-05
6.25645e-05
5.42023e-05
5.48819e-05
1.1857e-05
1.1857e-05
1.1857e-05
1.1857e-05
5.45961e-05
1.1857e-05
1.1857e-05
1.1857e-05
1.1857e-05
1.1857e-05
1.1857e-05
5.74348e-05
4.99982e-05
4.84504e-05
5.95663e-05
4.94273e-05
5.31967e-05
1.1857e-05
1.1857e-05
6.10196e-05
1.1857e-05
4.91652e-05
5.70556e-05
5.27057e-05
1.1857e-05
1.1857e-05
5.62698e-05
1.1857e-05
5.15047e-05
1.1857e-05
5.46655e-05
5.33034e-05
1.1857e-05
1.27357e-05
1.1857e-05
1.18637e-05
1.1857e-05
1.1857e-05
1.1857e-05
1.1857e-05
2.94073e-05
2.33469e-05
1.1857e-05
1.1857e-05
1.18721e-05
1.1857e-05
1.26056e-05
1.1857e-05
1.1857e-05
1.1857e-05
2.53998e-05
3.19637e-05
5.25594e-05
1.1857e-05
1.1857e-05
1.1857e-05
5.68849e-05
1.1857e-05
5.42458e-05
5.51025e-05
1.1857e-05
1.18601e-05
1.1857e-05
1.18823e-05
1.1857e-05
1.20586e-05
1.1857e-05
1.18591e-05
1.18574e-05
1.1857e-05
1.18588e-05
1.1857e-05
1.1857e-05
1.1857e-05
1.34404e-05
1.1857e-05
1.2658e-05
1.1857e-05
1.1857e-05
1.1857e-05
1.1857e-05
1.1857e-05
1.1857e-05
1.1857e-05
1.1857e-05
1.1857e-05
1.18571e-05
1.1858e-05
1.1857e-05
1.18739e-05
1.20237e-05
1.1857e-05
1.34061e-05
1.1857e-05
1.1857e-05
4.95708e-05
2.02651e-05
3.64553e-05
3.64413e-05
1.1857e-05
1.1857e-05
2.16514e-05
4.63557e-05
2.1793e-05
1.1857e-05
1.1857e-05
1.3719e-05
1.1857e-05
2.06452e-05
1.1857e-05
1.20886e-05
1.1857e-05
1.18792e-05
1.18597e-05
1.18574e-05
1.1857e-05
1.1857e-05
1.1857e-05
1.1857e-05
1.1857e-05
1.1857e-05
1.1857e-05
1.1857e-05
1.19477e-05
1.1857e-05
1.20607e-05
1.18736e-05
1.1857e-05
1.18592e-05
1.1857e-05
1.1857e-05
1.18785e-05
1.1857e-05
1.20564e-05
1.18598e-05
1.1857e-05
1.1857e-05
1.20402e-05
1.1857e-05
1.18811e-05
1.18596e-05
1.1857e-05
1.18593e-05
1.1857e-05
1.1857e-05
1.19485e-05
1.1857e-05
1.18694e-05
1.19665e-05
1.18727e-05
1.18589e-05
1.1857e-05
1.1857e-05
1.1857e-05
1.19433e-05
1.1857e-05
1.1857e-05
1.19608e-05
1.18705e-05
1.18708e-05
1.1857e-05
1.1857e-05
1.18587e-05
1.18585e-05
1.1857e-05
1.19628e-05
1.1857e-05
1.18664e-05
1.19615e-05
1.1857e-05
1.18675e-05
1.1857e-05
1.1857e-05
1.19432e-05
1.1857e-05
1.18589e-05
1.18656e-05
1.19497e-05
1.1857e-05
1.1857e-05
1.1857e-05
1.1857e-05
1.18658e-05
1.18586e-05
1.1857e-05
1.18586e-05
1.1857e-05
1.19516e-05
1.18664e-05
1.1857e-05
1.19471e-05
1.1857e-05
1.18656e-05
1.18587e-05
1.1857e-05
1.1857e-05
1.1857e-05
1.18646e-05
1.1857e-05
1.19203e-05
1.1857e-05
1.18665e-05
1.1857e-05
1.18586e-05
1.1857e-05
1.18584e-05
1.1857e-05
1.19339e-05
1.1857e-05
1.19137e-05
1.19475e-05
1.18652e-05
1.1857e-05
1.19248e-05
1.18649e-05
1.1857e-05
1.1857e-05
1.18587e-05
1.18682e-05
1.1857e-05
1.18586e-05
1.1857e-05
1.18592e-05
1.18588e-05
1.3032e-05
1.1857e-05
1.1857e-05
1.34052e-05
1.18574e-05
1.18574e-05
1.1857e-05
1.1857e-05
1.1857e-05
1.1857e-05
1.18573e-05
1.1857e-05
1.31635e-05
1.1857e-05
1.18572e-05
1.18573e-05
1.1857e-05
1.28525e-05
1.1953e-05
1.1857e-05
1.18574e-05
1.1857e-05
1.27105e-05
1.19291e-05
1.1857e-05
1.3272e-05
1.1857e-05
1.19177e-05
1.18573e-05
1.1857e-05
1.28212e-05
1.1857e-05
1.18573e-05
1.1857e-05
1.18573e-05
1.1857e-05
1.1857e-05
1.18697e-05
1.1857e-05
1.1857e-05
1.18692e-05
1.18573e-05
1.1857e-05
1.18572e-05
1.1857e-05
1.1857e-05
1.20667e-05
1.1857e-05
1.18573e-05
1.18574e-05
1.1857e-05
1.1857e-05
1.18701e-05
1.1857e-05
1.18703e-05
1.1857e-05
1.1857e-05
1.25e-05
1.20152e-05
1.18573e-05
1.1857e-05
1.28682e-05
1.18588e-05
1.1857e-05
1.18573e-05
1.1857e-05
1.1857e-05
1.26117e-05
1.18727e-05
1.1857e-05
1.20357e-05
1.1857e-05
1.1873e-05
1.1857e-05
1.18591e-05
1.1857e-05
1.28004e-05
1.1857e-05
1.18587e-05
1.20949e-05
1.1857e-05
1.18817e-05
1.1857e-05
1.18751e-05
1.1857e-05
1.1857e-05
1.25328e-05
1.1857e-05
1.18788e-05
1.18839e-05
1.1857e-05
1.1857e-05
1.18595e-05
1.25915e-05
1.18589e-05
1.1857e-05
1.21067e-05
1.1857e-05
1.1857e-05
1.18797e-05
1.18779e-05
1.1857e-05
1.18611e-05
1.21166e-05
1.18573e-05
1.1857e-05
1.1857e-05
1.18599e-05
1.21465e-05
1.1857e-05
1.1857e-05
1.18573e-05
1.2197e-05
1.1857e-05
1.18816e-05
1.1857e-05
1.18613e-05
1.18605e-05
1.18574e-05
1.18896e-05
1.1857e-05
1.1857e-05
1.18573e-05
1.18595e-05
1.1857e-05
1.28442e-05
1.18601e-05
1.19075e-05
1.1857e-05
1.1857e-05
1.29312e-05
1.1857e-05
1.26268e-05
1.1857e-05
1.18632e-05
1.1857e-05
1.1862e-05
1.1857e-05
1.27144e-05
1.18624e-05
1.1857e-05
1.18625e-05
1.1857e-05
1.34665e-05
1.1857e-05
1.1857e-05
1.32688e-05
1.29806e-05
1.1857e-05
1.38632e-05
1.1857e-05
1.35209e-05
1.1857e-05
1.1857e-05
1.42601e-05
1.39413e-05
1.1857e-05
1.1857e-05
1.45332e-05
1.37015e-05
1.1857e-05
1.36969e-05
1.1857e-05
1.21978e-05
1.1857e-05
1.18847e-05
1.21476e-05
1.1857e-05
1.1857e-05
1.39297e-05
1.37752e-05
1.1857e-05
1.1857e-05
1.18805e-05
1.1857e-05
1.1857e-05
1.21253e-05
1.21134e-05
1.1857e-05
1.18826e-05
1.1857e-05
1.1857e-05
1.18782e-05
1.1857e-05
1.1857e-05
1.18574e-05
1.33089e-05
1.1857e-05
1.31199e-05
1.20935e-05
2.12666e-05
1.1857e-05
1.18832e-05
1.1857e-05
1.1857e-05
1.29604e-05
2.02999e-05
1.1857e-05
1.20231e-05
1.1857e-05
1.1857e-05
1.1857e-05
2.02686e-05
1.1857e-05
1.1857e-05
1.1857e-05
1.18762e-05
2.01499e-05
1.1857e-05
1.1857e-05
1.1857e-05
1.18649e-05
1.19327e-05
1.186e-05
1.1857e-05
1.1857e-05
1.18575e-05
1.18599e-05
1.1857e-05
1.18633e-05
1.1857e-05
1.28095e-05
1.1857e-05
1.1857e-05
1.18595e-05
1.1857e-05
1.2227e-05
1.1857e-05
1.26903e-05
1.1857e-05
1.1857e-05
1.18598e-05
1.19476e-05
1.18575e-05
1.1857e-05
1.19201e-05
1.18687e-05
1.1857e-05
1.18575e-05
1.1857e-05
1.1857e-05
1.1952e-05
1.1857e-05
1.18648e-05
1.1857e-05
1.1857e-05
1.22083e-05
1.1857e-05
1.18575e-05
1.1857e-05
1.1857e-05
1.18574e-05
1.6998e-05
1.1857e-05
1.1857e-05
1.2378e-05
1.18585e-05
1.24572e-05
1.1857e-05
1.1857e-05
1.1924e-05
1.1857e-05
1.1857e-05
1.18948e-05
1.1857e-05
1.1857e-05
1.19208e-05
1.61333e-05
1.1857e-05
1.1857e-05
1.18576e-05
1.18576e-05
1.1857e-05
1.18585e-05
1.1857e-05
1.1857e-05
1.22382e-05
1.1857e-05
1.18959e-05
1.1857e-05
1.1857e-05
1.1857e-05
1.5667e-05
1.1857e-05
1.1857e-05
1.18576e-05
1.18577e-05
1.21726e-05
1.1857e-05
1.21895e-05
1.19032e-05
1.1857e-05
1.46701e-05
1.1857e-05
1.1857e-05
1.46129e-05
1.1857e-05
1.18578e-05
1.18579e-05
1.1857e-05
1.1857e-05
1.219e-05
1.21595e-05
1.1857e-05
1.1857e-05
1.18577e-05
1.18949e-05
1.1857e-05
1.43701e-05
1.1857e-05
1.1857e-05
1.1862e-05
1.1857e-05
1.19008e-05
1.36505e-05
1.1857e-05
1.18576e-05
1.1857e-05
1.1857e-05
1.21891e-05
1.1857e-05
1.18579e-05
1.20721e-05
1.1857e-05
4.59763e-05
1.1857e-05
1.1857e-05
1.1857e-05
2.13898e-05
3.85817e-05
3.77983e-05
3.79326e-05
1.1857e-05
1.1857e-05
3.87109e-05
3.99225e-05
1.1857e-05
1.1857e-05
2.16035e-05
1.1857e-05
4.62414e-05
4.02592e-05
1.1857e-05
1.1857e-05
1.1857e-05
1.1857e-05
1.1857e-05
3.80409e-05
1.1857e-05
1.1857e-05
1.1857e-05
2.10716e-05
4.48055e-05
1.1857e-05
1.1857e-05
3.77858e-05
1.1857e-05
1.1857e-05
5.03826e-05
4.25141e-05
5.1068e-05
1.1857e-05
3.87806e-05
4.4645e-05
2.20705e-05
4.36924e-05
4.7659e-05
4.69637e-05
3.8855e-05
2.79501e-05
1.1857e-05
4.42935e-05
3.11698e-05
4.44237e-05
1.1857e-05
1.1857e-05
2.11081e-05
5.09297e-05
4.57982e-05
1.1857e-05
1.1857e-05
1.1857e-05
4.72817e-05
2.25805e-05
1.1857e-05
1.18578e-05
1.1857e-05
1.1857e-05
1.1857e-05
1.1857e-05
4.44384e-05
5.26695e-05
1.1857e-05
1.1857e-05
2.69721e-05
3.2624e-05
3.91269e-05
4.09759e-05
1.18613e-05
4.16644e-05
4.7569e-05