/*--------------------------------*- C++ -*----------------------------------*\
  =========                 |
  \\      /  F ield         | OpenFOAM: The Open Source CFD Toolbox
   \\    /   O peration     | Website:  https://openfoam.org
    \\  /    A nd           | Version:  6
     \\/     M anipulation  |
\*---------------------------------------------------------------------------*/
FoamFile
{
    version     2.0;
    format      ascii;
    class       surfaceScalarField;
    location    "1.15";
    object      phi;
}
// * * * * * * * * * * * * * * * * * * * * * * * * * * * * * * * * * * * * * //

dimensions      [0 3 -1 0 0 0 0];

internalField   nonuniform List<scalar> 
1540
(
0.0550555
0.152906
0.0605696
-0.00603528
0.0578399
0.00220851
0.0646345
-0.00731617
0.060791
0.00332249
0.0527729
0.00749679
0.054468
-0.00221651
0.0558399
-0.00189311
0.0521075
0.00321093
0.058787
-0.00720067
0.0491927
0.00959429
0.0283274
0.0208654
0.0319944
-0.00366707
0.029193
0.00280151
-0.0166324
0.0458254
0.0532436
-0.069876
0.04013
0.0131136
-0.00285596
0.0429861
-0.0196787
0.0168228
-0.0196786
-0.00606675
0.158451
0.0142122
-0.0268355
-0.0180034
0.033903
-0.0134426
-0.0123986
-0.0146462
0.00400508
0.0401348
-0.0478056
0.0360846
0.00131231
0.0373858
-0.00371555
0.0299412
0.010134
0.029705
-0.00748552
-0.0220124
0.0613116
-0.0088202
0.00767324
0.0339589
-0.0464462
0.0186483
0.0181122
0.0421935
0.0222802
0.0048899
-0.0325724
0.00870913
0.00929446
0.0489714
0.00272382
-0.0127343
0.0785285
-0.0324128
0.0170555
0.140875
0.0310388
-0.04134
0.0385932
0.0258274
0.046929
-0.021256
0.0405934
0.00981971
0.0208872
-0.0286207
0.0254199
-0.00374183
0.0228692
-0.0016861
0.0334957
-0.00101392
0.0414879
-0.0159989
0.0653962
0.0374033
0.0489931
0.0240764
0.0495091
-0.0469622
0.0579758
0.00964559
-0.0724138
0.15267
-0.00910196
-0.0958841
0.0363138
-0.0361213
0.0135975
0.0254403
-0.0195089
0.111635
-0.0519217
-0.018637
0.158991
-0.0197719
-0.0407263
-0.032363
0.0378973
-0.0207466
-0.0333939
-0.031059
0.019611
-0.00878754
-0.0514134
-0.00576372
-0.00728708
0.0236364
-0.0316075
0.0181107
0.00399034
0.0162222
-0.0146315
-0.0161875
0.0698129
-0.0141257
0.0220147
-0.0442682
-0.0168198
-0.0817365
0.047114
-0.05959
0.130523
-0.0525254
-0.102949
-0.04507
-0.0435767
-0.0232969
0.00366718
-0.0116804
0.100018
-0.063602
0.00998366
0.148486
0.017919
-0.0491829
0.0274471
0.027848
0.0358342
-0.0423024
0.0290273
0.0258968
0.0234205
-0.0463279
0.0358201
-0.0202082
0.0276378
-0.0239464
0.0207468
0.0103599
0.0242421
-0.0186479
0.0327264
0.0613286
0.0380549
0.0166862
0.0136828
0.00755235
0.0260147
0.034782
-0.0379047
0.194443
-0.00740775
-0.133446
0.0247544
-0.0757388
-0.0130477
0.0414693
-0.0195411
0.106512
-0.0831431
-0.0211533
0.169118
-0.027184
-0.0436734
-0.0346431
0.034786
-0.033097
-0.0443701
-0.037583
0.0298618
0.0222871
-0.106719
0.0162815
-0.0147239
0.0272135
-0.0353997
0.0237988
0.0132532
0.000249969
0.00437983
-0.0101878
0.0717663
-0.0155843
0.0220828
-0.00281956
-0.00521239
-0.025594
0.0575565
-0.051099
0.219947
-0.0482392
-0.136305
-0.0379325
-0.0860454
-0.0199931
0.02353
-0.0110384
0.0975573
-0.0941815
0.00823202
0.160365
0.014486
-0.0504486
0.0199854
0.0287655
0.0244627
-0.0493688
0.0170427
0.0367607
0.024084
-0.114282
0.0331874
-0.0243488
0.0458038
-0.0485373
0.0375736
0.020962
0.0135438
0.0278885
0.0325946
0.0527155
0.00472648
0.049951
-0.0510698
0.0505838
0.0022398
0.00424696
-0.028904
0.251091
-0.0165978
-0.148611
0.0244672
-0.12711
-0.024226
0.0722232
-0.0217929
0.0951243
-0.115974
-0.0251081
0.184951
-0.0279236
-0.0481544
-0.0337771
0.0340979
-0.038474
-0.0451933
-0.0306887
0.0284543
0.00337438
-0.148866
0.00358631
-0.0250821
-0.00517126
-0.040301
-0.0367897
0.0520591
-0.040349
0.0309267
0.00663668
0.00572972
0.0293324
0.0272554
-0.0442733
0.12419
-0.0494173
0.00939104
-0.0230474
0.224721
-0.0364392
-0.13522
-0.0436851
-0.119865
-0.0304616
0.0589998
-0.0199594
0.0846221
-0.135934
0.00694513
0.177485
0.00493124
-0.0466617
0.0239629
0.014545
0.0459086
-0.0676604
0.0257742
0.0480676
0.0265813
-0.150194
-0.000445228
0.00142297
0.00311943
-0.0443869
0.031049
0.0236082
0.037642
0.0238125
0.033723
0.00964869
-0.0123763
0.0733547
-0.0417109
0.153524
0.0154342
-0.0477541
-0.00622232
0.246378
-0.00992816
-0.131514
0.0202141
-0.150007
-0.0446771
0.123891
-0.0300994
0.0700445
-0.166033
-0.0325879
0.209552
-0.0429814
-0.0367895
-0.0302912
0.00133371
-0.0148986
-0.0835743
-0.0160036
0.0486514
-0.0232916
-0.143428
-0.00742853
-0.0149615
-0.0153215
-0.0370151
-0.0629865
0.0707519
-0.0556095
0.0159144
-0.0611377
0.0151769
-0.040086
0.0523031
-0.0472053
0.160643
-0.0455906
-0.0493687
-0.0231868
0.223974
-0.0332906
-0.12141
-0.0586608
-0.124636
-0.0478989
0.113129
-0.0244906
0.0466363
-0.190524
0.00363887
0.205392
0.029476
-0.0631478
0.0323825
-0.00209385
0.0231341
-0.0748473
0.021524
0.0497404
0.00962448
-0.132049
-0.034834
0.0289756
-0.0359657
-0.0364046
-0.008995
0.0432599
-0.00503342
0.0114317
-0.0262811
0.0364246
-0.0485632
0.0745851
-0.0178697
0.12995
0.0340802
-0.101319
0.00819017
0.249864
0.017747
-0.130967
0.0431278
-0.150017
-0.0401271
0.196384
-0.0288508
0.03536
-0.219374
-0.0195492
0.22442
-0.031072
-0.0521463
-0.0239229
-0.00976409
-0.0170909
-0.0822008
-0.0236738
0.0558022
-0.0125288
-0.143716
0.0201313
-0.00420588
0.0280836
-0.0448781
0.0215792
0.0492429
-0.00238679
0.0348765
-0.0699729
0.104011
-0.0412412
0.0458534
-0.0285975
0.117306
-0.0238791
-0.106037
-0.00669996
0.232685
-0.0296438
-0.108023
-0.050718
-0.128943
-0.0339949
0.179661
-0.0291393
0.0305045
-0.248514
0.0097684
0.21413
0.0400819
-0.082981
0.0332901
-0.0034934
0.0168014
-0.0662336
0.0176503
0.0544322
0.0566068
-0.183193
0.0400664
0.0118132
-0.00283224
-0.00250069
-0.0426396
0.0885289
-0.058267
0.0499829
-0.0325821
0.0783258
-0.0399623
0.0532336
8.02911e-05
0.0772634
0.0426958
-0.148652
0.0213834
0.253997
0.017878
-0.104517
0.0165595
-0.127624
-0.0500043
0.246225
-0.0261311
0.00663145
-0.274645
-0.0131277
0.226737
-0.0286003
-0.0680295
-0.0321287
-0.000486197
-0.0297361
-0.0691476
-0.0222249
0.0464
-0.00469203
-0.201248
-0.00820765
0.0148074
-0.0104353
-0.000794301
0.00970353
0.0678687
0.00782661
0.0513386
-0.0481306
0.134283
-0.0209342
0.0260373
-0.015032
0.071361
-0.0175976
-0.146087
-0.0192753
0.255675
-0.0494741
-0.0743185
-0.0608483
-0.11625
-0.0341609
0.219537
-0.0299493
0.00242005
-0.304594
0.0135808
0.212635
0.0336225
-0.0885924
0.0252429
0.00737229
0.0234359
-0.067862
0.0252189
0.0440958
0.0601482
-0.236698
0.0376168
0.0368176
-0.00605169
0.042353
-0.0304589
0.0917546
-0.0453824
0.065741
-0.00838575
0.0972863
-0.0187242
0.0363759
0.0100421
0.0425946
0.0440515
-0.180096
0.0248007
0.274926
0.0188669
-0.0683847
0.00796348
-0.105347
-0.0489017
0.276402
-0.0216571
-0.0248245
-0.326251
-0.00736932
0.219483
-0.0230147
-0.0734683
-0.0341363
0.0179728
-0.0342842
-0.0682355
-0.0185123
0.0278028
-0.000784162
-0.254947
-0.0155105
0.0510226
-0.0208687
0.0471899
-0.00235717
0.0727217
-0.0042453
0.067108
-0.0255804
0.118621
0.00671003
0.00408545
-0.00448097
0.0537855
-0.0135958
-0.170982
-0.0320665
0.293397
-0.0758727
-0.0245784
-0.0721848
-0.109035
-0.0224308
0.226648
-0.0198414
-0.0274138
-0.346093
0.0122022
0.206759
0.0231216
-0.0849088
0.0185721
0.0220011
0.0375939
-0.0877786
0.0423893
0.0224863
0.0385438
-0.251623
-0.000467019
0.0895122
-0.0291008
0.0753025
-0.0408687
0.0839682
-0.0488119
0.0745301
0.0128574
0.0569521
0.00101194
0.0159309
0.0159889
0.0388084
0.0422058
-0.197198
0.026734
0.308869
0.0207284
-0.0185727
0.0149014
-0.103208
-0.0309428
0.272493
-0.00851656
-0.04984
-0.354609
-7.31897e-05
0.206311
-0.0138654
-0.0716379
-0.0270168
0.0346314
-0.0361097
-0.0792071
-0.0263165
0.0121719
-0.00244062
-0.27602
-0.00754252
0.0940928
-0.0110608
0.0782995
-0.00433482
0.076721
-0.00638422
0.0760583
-0.0116815
0.0622493
0.0106481
-0.00639858
-0.00881963
0.058276
-0.0147379
-0.19128
-0.0441924
0.338323
-0.0844821
0.0217173
-0.0683899
-0.1193
-0.00378512
0.207888
-0.00439713
-0.0492279
-0.359006
0.0091691
0.196621
0.0197097
-0.0826996
0.020691
0.0331289
0.0461953
-0.105233
0.0472616
0.0105845
0.0229213
-0.252201
-0.0152855
0.131778
-0.0305254
0.0930182
-0.0307037
0.076378
-0.0366099
0.0814434
0.0148438
0.0107955
-0.00457923
0.0130245
0.0140042
0.0396926
0.0372739
-0.21455
0.0266857
0.348911
0.0206922
0.027711
0.0239137
-0.122521
-0.00656116
0.238363
0.0055794
-0.0613684
-0.353427
0.00743287
0.188667
-0.00294096
-0.072847
-0.0155635
0.0452303
-0.0405317
-0.080786
-0.0393478
0.00887953
-0.0116455
-0.280425
-0.00879879
0.12841
-0.00595805
0.0896563
-0.0133391
0.0832377
-0.0051463
0.0727295
-0.0105421
0.0161913
-0.0115777
0.0140601
-0.0223161
0.0504309
-0.0184003
-0.218466
-0.0434276
0.373939
-0.0690585
0.0533421
-0.0557614
-0.135818
0.0128859
0.169715
0.0122438
-0.0607261
-0.341183
0.0107168
0.177429
0.0209102
-0.0835616
0.0243132
0.0413061
0.0445799
-0.101574
0.0368489
0.0160895
0.00486863
-0.248966
-0.0216934
0.154451
-0.0302655
0.0977072
-0.0218481
0.0742989
-0.0232189
0.0735792
0.000223646
-0.00725124
-0.0367756
0.0510593
-0.00397023
0.0176254
0.0272732
-0.249709
0.0173678
0.383844
0.0194239
0.0512862
0.0419355
-0.15833
0.017479
0.194172
0.0206231
-0.0638702
-0.32056
0.0125521
0.164356
0.00520465
-0.0767354
0.00112574
0.0448639
-0.0286987
-0.072271
-0.0410767
0.0279463
-0.0184004
-0.272163
-0.0159851
0.151515
-0.0140908
0.0952917
-0.0194167
0.0791035
-0.0045626
0.0582039
-0.000333237
-0.0114806
0.0258058
0.0249203
0.00184726
0.0415838
-0.0217376
-0.226124
-0.0157364
0.377843
-0.0304672
0.0660172
-0.0441292
-0.144668
0.0339546
0.116088
0.0268246
-0.0567401
-0.293735
0.0142494
0.149585
0.0224391
-0.0854463
0.0209613
0.0458206
0.0303661
-0.0821972
0.0188541
0.0389373
-0.00884668
-0.244984
-0.0251016
0.167248
-0.034708
0.104377
-0.0209144
0.0647885
-0.00461285
0.0413813
0.0126739
-0.0287673
-0.0187554
0.0563496
0.0131945
0.00963371
0.0231015
-0.236031
0.0116357
0.389309
0.00686911
0.070784
0.0455814
-0.18338
0.0320499
0.12962
0.0301203
-0.0548105
-0.263615
0.0155368
0.133527
0.00745899
-0.0778897
0.00974874
0.0430097
-0.011184
-0.0617859
-0.0302405
0.0574726
-0.0205864
-0.255159
-0.020956
0.167097
-0.0161137
0.0990133
-0.00879897
0.0569524
0.015716
0.0163452
0.00498741
-0.0180388
0.017828
0.043509
0.000958846
0.0265027
-0.0242901
-0.210782
0.00128729
0.363731
0.0160237
0.0560478
-0.0238496
-0.143507
0.0409784
0.0647919
0.0375926
-0.0514246
-0.226023
0.0243621
0.108644
0.0235937
-0.0776424
0.00502862
0.0610537
0.0113157
-0.0685945
0.0088545
0.0594128
-0.0134747
-0.233351
-0.0180151
0.171116
-0.0192305
0.0997075
-0.00925152
0.0464521
-0.000765889
0.0073385
0.0157187
-0.0345234
-0.0114533
0.0706811
0.0150559
-6.55063e-06
0.017698
-0.213424
0.0246934
0.356736
0.0200321
0.0607093
0.0572785
-0.180753
0.0369905
0.0850799
0.0306846
-0.0451186
-0.195338
0.0111837
0.096939
0.00434131
-0.0713213
0.0185847
0.0462891
-0.00140244
-0.0491288
-0.0241141
0.0816033
-0.0188184
-0.239168
-0.0130974
0.164874
-0.00224615
0.0883351
1.08561e-05
0.0436736
0.014385
-0.00755669
0.00204867
-0.0221871
0.0229007
0.0498291
0.00113798
0.021756
-0.0277371
-0.184549
0.0139729
0.315026
0.0580716
0.0166108
-0.000591816
-0.12209
0.044986
0.0395022
0.0469078
-0.0470403
-0.14843
0.0286314
0.0677864
0.0191381
-0.0623492
-0.00972542
0.0746315
-0.00147953
-0.0578961
0.00627489
0.0733279
-0.0135537
-0.219861
-0.00908948
0.159888
-0.00616523
0.0848896
-0.00666674
0.0436537
-0.00594887
-0.00879565
0.0120816
-0.0402176
-0.00224874
0.0641594
0.018291
0.00121619
0.0102206
-0.176479
0.0645421
0.260704
0.0559251
0.025228
0.0622442
-0.128409
0.0283461
0.0734003
0.0208506
-0.0395448
-0.12758
-0.00257487
0.0698401
-0.00303639
-0.0624089
0.0158828
0.0551912
-0.000617454
-0.0419173
-0.0181044
0.0902938
-0.0155758
-0.22291
-0.00542208
0.149213
0.00539845
0.0735479
0.0044653
0.0440655
0.00926431
-0.0141158
-0.0061983
-0.024755
0.0190385
0.0389226
-0.00962947
0.029884
-0.0472406
-0.138868
0.00994686
0.203517
0.0625065
-0.0273315
0.000150509
-0.066053
0.0699575
0.00359335
0.0673156
-0.0369029
-0.0602638
0.0202806
0.0490383
0.00860053
-0.05125
-0.0157288
0.0789994
-0.00583423
-0.0523334
0.0071638
0.0767747
-0.0119574
-0.20431
-0.00273808
0.139473
-0.000679693
0.0709683
-0.00717806
0.0500425
-0.00870527
-0.0131097
0.00992533
-0.0433856
-0.00205268
0.0509006
0.0172368
0.0105945
0.0144828
-0.136114
0.0206291
0.197371
-0.00839224
0.00169005
0.0401799
-0.114625
-0.00894163
0.052715
-0.0141154
-0.0317291
-0.0743792
-0.00202485
0.050542
-0.00554327
-0.0482527
0.00595986
0.0669751
-0.00267726
-0.0442177
-0.0109415
0.0845178
-0.0111583
-0.204615
-0.000940523
0.128734
0.00578345
0.0637231
0.00691649
0.0483881
0.0103426
-0.0170569
-0.0119737
-0.0210694
0.0125995
0.0263275
-0.0179371
0.0411309
-0.0526595
-0.101391
-0.0194022
0.164113
0.0380573
-0.0557693
-0.0115308
-0.065037
0.0520689
-0.0108847
0.0643314
-0.0439916
-0.0100477
0.00314895
0.0468719
-0.0101053
-0.0355196
-0.0145928
0.0709414
-0.00548193
-0.05385
0.00915658
0.0693583
-0.00982438
-0.186155
0.00186757
0.11652
0.00272818
0.0623413
-0.00567828
0.0562732
-0.00876642
-0.0144898
0.0123905
-0.0422263
-0.00362987
0.0423479
0.0148241
0.0226769
0.0221404
-0.108708
-0.00472618
0.19098
-0.0518818
-0.00861348
-0.00818811
-0.108731
-0.0346074
0.0155346
-0.00645541
-0.0721436
-0.016503
0.00812901
0.0382218
0.0059171
-0.0338289
0.00686701
0.0694704
0.00121196
-0.0487164
-0.00394469
0.0739938
-0.00682262
-0.183798
0.00193887
0.107238
0.00473366
0.0590253
0.0076242
0.0528613
0.0121564
-0.0195431
-0.0134162
-0.0166537
0.010186
0.0187457
-0.0176368
0.0504997
-0.0460116
-0.0803328
0.00137572
0.143593
0.0204755
-0.0277131
-0.042756
-0.0454992
0.0482724
-0.0754937
0.0457075
-0.0695786
0.0292046
-0.00460828
0.0423089
-0.0131538
-0.0258046
-0.00839078
0.0641862
-0.00556035
-0.0520683
0.0107128
0.0571996
-0.00968671
-0.16392
0.00476024
0.0922694
0.00568736
0.057577
-0.00417967
0.062207
-0.00936596
-0.014878
0.0180219
-0.0440416
-0.000492751
0.0372603
0.0148778
0.0351292
0.0299695
-0.0954245
0.018379
0.155183
-0.00794088
-0.00139312
0.0201309
-0.073571
-0.0312354
-0.0241274
-0.016733
-0.0840809
0.0124717
0.00376444
0.0380233
0.00741413
-0.0299755
0.0168055
0.0542737
0.0114223
-0.0472064
0.00104066
0.0670602
-0.00424087
-0.15916
0.00193094
0.0855763
0.00112958
0.0578571
0.00669412
0.0561212
0.014679
-0.023384
-0.00380648
-0.0255562
0.00753915
0.0259147
-0.0190798
0.0617481
-0.042577
-0.0719273
-0.00712598
0.119732
-0.0121596
0.0036406
-0.0476784
-0.0380521
0.0561485
-0.127954
0.0151936
-0.043126
0.0276654
-0.00423713
0.0417393
-0.0149745
-0.0197594
-0.00566531
0.0444433
-0.00467927
-0.048714
0.01165
0.0502099
-0.0188572
-0.129174
0.000404924
0.065793
0.00999203
0.0477488
0.0013256
0.0642663
-0.00694609
-0.0156334
0.0166493
-0.0491516
0.000380448
0.0421836
0.0230765
0.039052
0.0447759
-0.0936266
0.0291961
0.135312
0.0439907
-0.0111538
0.0600943
-0.0541557
-0.0178487
-0.0500112
-0.0174849
-0.0434897
0.0101805
0.0133638
0.0278544
0.0215479
-0.0284647
0.0328502
0.0326199
0.0209981
-0.0373833
0.0025335
0.0681534
-0.00784355
-0.119318
-0.00534204
0.0627702
-0.00346555
0.0453511
0.0104493
0.0498302
0.0167226
-0.0224279
0.00392874
-0.0363578
0.0133673
0.032745
-0.00639976
0.058819
-0.0297468
-0.0702796
0.0262604
0.079305
0.0436434
-0.0285367
-0.00752024
-0.00299205
0.0135843
-0.0711157
-0.010738
-0.0191675
-0.000557351
0.00687766
0.0204556
-0.00780222
-0.014306
-0.0170485
0.0413451
-0.0110342
-0.0439192
0.0180816
0.0385167
-0.0368068
-0.0649509
-0.00851497
0.0339572
0.0230463
0.0132686
0.00823738
0.0641179
-0.00920565
-0.00550598
0.0113414
-0.0569048
0.011706
0.0323804
0.0416147
0.0289103
0.0531535
-0.0818183
0.0447762
0.0876823
0.036032
-0.0197925
0.0387227
-0.00568267
-0.0180625
-0.0143305
9.83127e-05
-0.0373282
-0.000458984
0.000211586
0.0197228
-0.00250912
-0.0121065
0.0115912
0.0267236
0.0131147
-0.0459642
0.0229027
0.0282077
0.000976165
-0.0435456
-0.00362147
0.0380336
0.0083331
0.000792768
0.0221219
0.0498079
0.0186565
-0.00256179
-0.0175188
-0.0207295
0.00198177
0.0128798
0.00648167
0.0244104
-0.00471149
-0.0706251
0.0391486
0.0438222
0.0422787
-0.0229225
0.0351465
0.00144953
0.0471159
-0.0262998
0.0176417
-0.00785404
0.0171828
0.00752103
0.0116806
-0.000277275
-0.00482945
0.00511483
0.0208103
-0.00761698
-0.0337539
0.024704
-0.00463414
-0.0123282
-0.00703467
-0.00614489
0.031329
-0.00940864
0.0035353
0.0288822
0.0109958
0.0194873
0.0063119
0.0370757
-0.0383179
0.00222165
0.0477339
0.0110302
0.0156019
0.0322666
-0.0918615
0.0413965
0.0346922
0.0252745
-0.00680045
0.0140301
0.012694
-0.0424578
0.030188
-0.0264322
-0.0238796
-0.00924941
0.0111594
0.00580874
0.0260979
-0.00817722
-0.0133326
-0.0208884
0.00991934
0.0129334
0.023408
0.0291987
-0.00911914
0.0386147
0.0542166
-0.0376449
-0.00295262
-0.00975306
0.00294096
0.033129
0.00924941
)
;

boundaryField
{
    piston
    {
        type            calculated;
        value           nonuniform List<scalar> 
40
(
0
0
0
-8.67362e-19
0
0
0
0
0
0
0
0
0
0
0
0
0
0
0
0
0
0
0
0
0
0
0
0
0
0
0
0
0
0
0
0
0
0
0
0
)
;
    }
    outlet
    {
        type            calculated;
        value           uniform 0;
    }
    walls
    {
        type            calculated;
        value           uniform 0;
    }
    front
    {
        type            empty;
        value           nonuniform 0();
    }
    back
    {
        type            empty;
        value           nonuniform 0();
    }
}


// ************************************************************************* //
