/*--------------------------------*- C++ -*----------------------------------*\
  =========                 |
  \\      /  F ield         | OpenFOAM: The Open Source CFD Toolbox
   \\    /   O peration     | Website:  https://openfoam.org
    \\  /    A nd           | Version:  6
     \\/     M anipulation  |
\*---------------------------------------------------------------------------*/
FoamFile
{
    version     2.0;
    format      ascii;
    class       volScalarField;
    location    "1.9";
    object      rho;
}
// * * * * * * * * * * * * * * * * * * * * * * * * * * * * * * * * * * * * * //

dimensions      [1 -3 0 0 0 0 0];

internalField   nonuniform List<scalar> 
10000
(
1.40001
1.40001
1.40001
1.40001
1.40001
1.40001
1.40001
1.40001
1.40001
1.40001
1.40001
1.40001
1.40001
1.40001
1.40001
1.40001
1.40001
1.40001
1.40001
1.40001
1.40001
1.40001
1.40001
1.40001
1.40001
1.40001
1.40001
1.4
1.40001
1.4
1.40001
1.4
1.40001
1.40001
1.40001
1.40001
1.40001
1.4
1.40001
1.4
1.40001
1.40001
1.40001
1.40001
1.40001
1.4
1.40001
1.4
1.40001
1.4
1.40001
1.4
1.4
1.4
1.4
1.40001
1.40001
1.40001
1.40001
1.40001
1.40001
1.40001
1.40001
1.40001
1.4
1.40001
1.4
1.4
1.4
1.4
1.4
1.4
1.4
1.4
1.4
1.40001
1.4
1.40001
1.40001
1.40001
1.40001
1.40001
1.40001
1.40001
1.40001
1.40001
1.40001
1.40001
1.40001
1.40001
1.40001
1.40001
1.40001
1.40001
1.40001
1.40001
1.40001
1.40001
1.40001
1.40001
1.40001
1.40001
1.40001
1.40001
1.40001
1.40001
1.40001
1.40001
1.40001
1.40001
1.40001
1.40001
1.40001
1.40001
1.40001
1.40001
1.40001
1.40001
1.40001
1.40001
1.40001
1.40001
1.40001
1.40001
1.40001
1.40001
1.40001
1.40001
1.4
1.40001
1.4
1.40001
1.4
1.40001
1.40001
1.40001
1.40001
1.40001
1.40001
1.40001
1.40001
1.40001
1.40001
1.40001
1.40001
1.40001
1.4
1.4
1.4
1.4
1.4
1.4
1.4
1.4
1.4
1.4
1.40001
1.40001
1.40001
1.40001
1.40001
1.40001
1.40001
1.40001
1.40001
1.40001
1.4
1.4
1.4
1.4
1.4
1.4
1.4
1.4
1.4
1.4
1.4
1.4
1.40001
1.40001
1.40001
1.40001
1.40001
1.40001
1.40001
1.40001
1.40001
1.40001
1.40001
1.40001
1.40001
1.40001
1.40001
1.40001
1.40001
1.40001
1.40001
1.40001
1.40001
1.40001
1.40001
1.40001
1.40001
1.40001
1.40001
1.40001
1.40001
1.40001
1.40001
1.40001
1.40001
1.40001
1.40001
1.40001
1.40001
1.40001
1.40001
1.40001
1.40001
1.40001
1.40001
1.40001
1.40001
1.40001
1.40001
1.40001
1.40001
1.40001
1.40001
1.40001
1.40001
1.40001
1.40001
1.40001
1.40001
1.40001
1.40001
1.4
1.40001
1.4
1.40001
1.4
1.40001
1.4
1.40001
1.4
1.4
1.4
1.4
1.4
1.4
1.4
1.4
1.4
1.4
1.4
1.40001
1.40001
1.40001
1.40001
1.40001
1.40001
1.40001
1.40001
1.40001
1.40001
1.4
1.4
1.4
1.4
1.4
1.4
1.4
1.4
1.4
1.4
1.4
1.4
1.4
1.40001
1.40001
1.40001
1.40001
1.40001
1.40001
1.40001
1.40001
1.40001
1.40001
1.40001
1.40001
1.40001
1.40001
1.40001
1.40001
1.40001
1.40001
1.40001
1.40001
1.40001
1.40001
1.40001
1.40001
1.40001
1.40001
1.40001
1.40001
1.40001
1.40001
1.40001
1.40001
1.40001
1.40001
1.40001
1.40001
1.40001
1.40001
1.40001
1.40001
1.40001
1.40001
1.40001
1.40001
1.40001
1.40001
1.40001
1.40001
1.40001
1.40001
1.40001
1.4
1.40001
1.40001
1.40001
1.40001
1.40001
1.40001
1.40001
1.40001
1.40001
1.40001
1.40001
1.40001
1.4
1.4
1.4
1.4
1.4
1.4
1.4
1.4
1.4
1.4
1.4
1.4
1.4
1.40001
1.40001
1.40001
1.40001
1.40001
1.40001
1.40001
1.40001
1.40001
1.40001
1.40001
1.4
1.4
1.4
1.4
1.4
1.4
1.4
1.4
1.4
1.4
1.4
1.4
1.4
1.4
1.40001
1.40001
1.40001
1.40001
1.40001
1.40001
1.40001
1.40001
1.40001
1.40001
1.40001
1.40001
1.40001
1.40001
1.40001
1.40001
1.40001
1.40001
1.40001
1.40001
1.40001
1.40001
1.40001
1.40001
1.40001
1.40001
1.40001
1.40001
1.40001
1.40001
1.40001
1.40001
1.40001
1.40001
1.40001
1.40001
1.40001
1.40001
1.40001
1.40001
1.40001
1.40001
1.40001
1.40001
1.40001
1.40001
1.40001
1.40001
1.40001
1.40001
1.40001
1.40001
1.40001
1.4
1.40001
1.4
1.4
1.40001
1.4
1.40001
1.4
1.40001
1.4
1.4
1.4
1.4
1.4
1.4
1.4
1.4
1.4
1.4
1.4
1.4
1.4
1.40001
1.40001
1.40001
1.40001
1.40001
1.40001
1.40001
1.40001
1.40001
1.40001
1.40001
1.4
1.4
1.4
1.4
1.4
1.4
1.4
1.4
1.4
1.4
1.4
1.4
1.4
1.4
1.4
1.40001
1.40001
1.40001
1.40001
1.40001
1.40001
1.40001
1.40001
1.40001
1.40001
1.40001
1.40001
1.40001
1.40001
1.40001
1.40001
1.40001
1.40001
1.40001
1.40001
1.40001
1.40001
1.40001
1.40001
1.40001
1.40001
1.40001
1.40001
1.40001
1.40001
1.40001
1.40001
1.40001
1.40001
1.40001
1.40001
1.40001
1.40001
1.40001
1.40001
1.40001
1.40001
1.40001
1.40001
1.40001
1.40001
1.40001
1.40001
1.4
1.40001
1.4
1.40001
1.4
1.40001
1.40001
1.4
1.40001
1.4
1.40001
1.4
1.4
1.4
1.4
1.4
1.4
1.4
1.4
1.4
1.4
1.4
1.4
1.4
1.4
1.4
1.40001
1.40001
1.40001
1.40001
1.40001
1.40001
1.40001
1.40001
1.40001
1.40001
1.40001
1.4
1.4
1.4
1.4
1.4
1.4
1.4
1.4
1.4
1.4
1.4
1.4
1.4
1.4
1.4
1.4
1.40001
1.40001
1.40001
1.40001
1.40001
1.40001
1.40001
1.40001
1.40001
1.40001
1.40001
1.40001
1.40001
1.40001
1.40001
1.40001
1.40001
1.40001
1.40001
1.40001
1.40001
1.40001
1.40001
1.40001
1.40001
1.40001
1.40001
1.40001
1.40001
1.40001
1.40001
1.40001
1.40001
1.40001
1.40001
1.40001
1.40001
1.40001
1.40001
1.40001
1.40001
1.40001
1.40001
1.40001
1.40001
1.4
1.40001
1.4
1.40001
1.4
1.40001
1.4
1.40001
1.40001
1.4
1.40001
1.4
1.40001
1.4
1.4
1.4
1.4
1.4
1.4
1.4
1.4
1.4
1.4
1.4
1.4
1.4
1.4
1.4
1.40001
1.40001
1.40001
1.40001
1.40002
1.40002
1.40002
1.40002
1.40002
1.40001
1.40001
1.40001
1.4
1.4
1.4
1.4
1.4
1.4
1.4
1.4
1.4
1.4
1.4
1.4
1.4
1.4
1.4
1.4
1.40001
1.40001
1.40001
1.40001
1.40001
1.40001
1.40001
1.40001
1.40001
1.40001
1.40001
1.40001
1.40001
1.40001
1.40001
1.40001
1.40001
1.40001
1.40001
1.40001
1.40001
1.40001
1.40001
1.40001
1.40001
1.40001
1.40001
1.40001
1.40001
1.40001
1.40001
1.40001
1.40001
1.40001
1.40001
1.40001
1.40001
1.40001
1.40001
1.40001
1.40001
1.40001
1.40001
1.40001
1.40001
1.40001
1.4
1.40001
1.4
1.40001
1.4
1.4
1.40001
1.4
1.40001
1.40001
1.40001
1.4
1.4
1.4
1.4
1.4
1.4
1.4
1.4
1.4
1.4
1.4
1.4
1.4
1.4
1.4
1.4
1.40001
1.40002
1.40002
1.40002
1.40003
1.40003
1.40003
1.40003
1.40002
1.40002
1.40001
1.40001
1.4
1.4
1.4
1.4
1.4
1.4
1.4
1.4
1.4
1.4
1.4
1.4
1.4
1.4
1.4
1.4
1.40001
1.40001
1.40001
1.40001
1.40001
1.40001
1.40001
1.40001
1.40001
1.40001
1.40001
1.40001
1.40001
1.40001
1.40001
1.40001
1.40001
1.40001
1.40001
1.40001
1.40001
1.40001
1.40001
1.40001
1.40001
1.40001
1.40001
1.40001
1.40001
1.40001
1.40001
1.40001
1.40001
1.40001
1.40001
1.4
1.40001
1.4
1.40001
1.4
1.40001
1.4
1.40001
1.4
1.40001
1.4
1.4
1.40001
1.4
1.40001
1.4
1.40001
1.4
1.4
1.40001
1.4
1.4
1.4
1.4
1.4
1.4
1.4
1.4
1.4
1.39999
1.39999
1.39999
1.39999
1.39999
1.39999
1.4
1.4
1.40001
1.40002
1.40003
1.40004
1.40004
1.40005
1.40005
1.40005
1.40004
1.40003
1.40002
1.40001
1.4
1.4
1.39999
1.39999
1.39999
1.39999
1.39999
1.4
1.4
1.4
1.4
1.4
1.4
1.4
1.4
1.4
1.4
1.40001
1.40001
1.40001
1.40001
1.40001
1.40001
1.40001
1.40001
1.40001
1.40001
1.40001
1.40001
1.40001
1.40001
1.40001
1.40001
1.40001
1.40001
1.40001
1.40001
1.40001
1.40001
1.40001
1.40001
1.40001
1.40001
1.40001
1.40001
1.40001
1.40001
1.40001
1.40001
1.40001
1.40001
1.4
1.40001
1.4
1.40001
1.4
1.40001
1.4
1.40001
1.4
1.40001
1.40001
1.4
1.40001
1.4
1.40001
1.4
1.40001
1.4
1.4
1.4
1.4
1.4
1.4
1.4
1.4
1.4
1.4
1.39999
1.39999
1.39999
1.39998
1.39998
1.39998
1.39998
1.39999
1.39999
1.4
1.40002
1.40003
1.40005
1.40006
1.40007
1.40008
1.40008
1.40008
1.40008
1.40006
1.40005
1.40003
1.40002
1.4
1.39999
1.39999
1.39998
1.39999
1.39999
1.39999
1.39999
1.4
1.4
1.4
1.4
1.4
1.4
1.4
1.4
1.4
1.40001
1.40001
1.40001
1.40001
1.40001
1.40001
1.40001
1.40001
1.40001
1.40001
1.40001
1.40001
1.40001
1.40001
1.40001
1.40001
1.40001
1.40001
1.40001
1.40001
1.40001
1.40001
1.40001
1.40001
1.40001
1.40001
1.40001
1.40001
1.40001
1.40001
1.40001
1.40001
1.40001
1.4
1.40001
1.4
1.40001
1.4
1.40001
1.4
1.40001
1.4
1.40001
1.4
1.40001
1.4
1.4
1.40001
1.4
1.40001
1.40001
1.4
1.4
1.4
1.4
1.4
1.4
1.4
1.4
1.39999
1.39999
1.39998
1.39998
1.39997
1.39997
1.39997
1.39997
1.39997
1.39998
1.4
1.40002
1.40004
1.40007
1.4001
1.40012
1.40014
1.40015
1.40015
1.40014
1.40012
1.4001
1.40007
1.40004
1.40002
1.4
1.39999
1.39998
1.39998
1.39998
1.39998
1.39999
1.39999
1.4
1.4
1.4
1.4
1.4
1.4
1.4
1.4
1.4
1.40001
1.40001
1.40001
1.40001
1.40001
1.40001
1.40001
1.40001
1.40001
1.40001
1.40001
1.40001
1.40001
1.40001
1.40001
1.40001
1.40001
1.40001
1.40001
1.40001
1.40001
1.40001
1.40001
1.40001
1.40001
1.40001
1.40001
1.40001
1.40001
1.40001
1.40001
1.40001
1.4
1.40001
1.4
1.40001
1.4
1.40001
1.4
1.40001
1.4
1.40001
1.4
1.40001
1.4
1.40001
1.40001
1.40001
1.4
1.4
1.40001
1.40001
1.4
1.4
1.4
1.4
1.4
1.39999
1.39999
1.39998
1.39998
1.39997
1.39996
1.39995
1.39995
1.39995
1.39995
1.39997
1.39999
1.40003
1.40007
1.40011
1.40016
1.4002
1.40023
1.40026
1.40026
1.40025
1.40023
1.40019
1.40015
1.40011
1.40006
1.40002
1.4
1.39998
1.39997
1.39997
1.39997
1.39998
1.39999
1.39999
1.4
1.4
1.4
1.4
1.4
1.4
1.4
1.4
1.40001
1.40001
1.40001
1.40001
1.40001
1.40001
1.40001
1.40001
1.40001
1.40001
1.40001
1.40001
1.40001
1.40001
1.40001
1.40001
1.40001
1.40001
1.40001
1.40001
1.40001
1.40001
1.40001
1.40001
1.40001
1.40001
1.40001
1.40001
1.40001
1.40001
1.4
1.40001
1.4
1.40001
1.4
1.40001
1.40001
1.40001
1.4
1.40001
1.4
1.40001
1.40001
1.4
1.40001
1.4
1.40001
1.40001
1.4
1.4
1.40001
1.40001
1.4
1.4
1.4
1.4
1.4
1.39999
1.39998
1.39997
1.39996
1.39995
1.39994
1.39992
1.39992
1.39992
1.39993
1.39995
1.39999
1.40004
1.40011
1.40018
1.40026
1.40033
1.40039
1.40044
1.40046
1.40045
1.40042
1.40036
1.4003
1.40022
1.40015
1.40008
1.40003
1.39999
1.39997
1.39996
1.39996
1.39997
1.39998
1.39999
1.39999
1.4
1.4
1.4
1.4
1.4
1.4
1.4
1.4
1.40001
1.40001
1.40001
1.40001
1.40001
1.40001
1.40001
1.40001
1.40001
1.40001
1.40001
1.40001
1.40001
1.40001
1.40001
1.40001
1.40001
1.40001
1.40001
1.40001
1.40001
1.40001
1.40001
1.40001
1.40001
1.40001
1.40001
1.40001
1.40001
1.4
1.40001
1.4
1.40001
1.40001
1.4
1.40001
1.4
1.40001
1.4
1.40001
1.4
1.40001
1.4
1.40001
1.4
1.4
1.40001
1.4
1.40001
1.40001
1.4
1.4
1.4
1.4
1.4
1.39999
1.39999
1.39998
1.39996
1.39995
1.39993
1.39991
1.39989
1.39988
1.39988
1.3999
1.39993
1.39999
1.40008
1.40018
1.4003
1.40043
1.40055
1.40066
1.40074
1.40078
1.40078
1.40074
1.40065
1.40055
1.40042
1.4003
1.40018
1.40009
1.40003
1.39998
1.39996
1.39995
1.39996
1.39997
1.39998
1.39999
1.39999
1.4
1.4
1.4
1.4
1.4
1.4
1.4
1.40001
1.40001
1.40001
1.40001
1.40001
1.40001
1.40001
1.40001
1.40001
1.40001
1.40001
1.40001
1.40001
1.40001
1.40001
1.40001
1.40001
1.40001
1.40001
1.40001
1.40001
1.40001
1.40001
1.40001
1.40001
1.40001
1.40001
1.40001
1.40001
1.40001
1.40001
1.40001
1.4
1.40001
1.4
1.40001
1.4
1.40001
1.4
1.40001
1.4
1.40001
1.4
1.40001
1.4
1.40001
1.40001
1.40001
1.40001
1.40001
1.4
1.40001
1.4
1.4
1.4
1.39999
1.39998
1.39996
1.39994
1.39992
1.3999
1.39987
1.39985
1.39984
1.39984
1.39987
1.39993
1.40003
1.40016
1.40033
1.40052
1.40073
1.40092
1.4011
1.40123
1.40131
1.40132
1.40125
1.40113
1.40096
1.40076
1.40056
1.40038
1.40022
1.4001
1.40001
1.39997
1.39995
1.39995
1.39995
1.39997
1.39998
1.39999
1.39999
1.4
1.4
1.4
1.4
1.4
1.4
1.40001
1.40001
1.40001
1.40001
1.40001
1.40001
1.40001
1.40001
1.40001
1.40001
1.40001
1.40001
1.40001
1.40001
1.40001
1.40001
1.40001
1.40001
1.40001
1.40001
1.40001
1.40001
1.40001
1.40001
1.40001
1.40001
1.40001
1.4
1.40001
1.4
1.40001
1.40001
1.4
1.40001
1.40001
1.4
1.40001
1.4
1.4
1.40001
1.4
1.4
1.40001
1.40001
1.4
1.40001
1.4
1.40001
1.4
1.40001
1.40001
1.4
1.4
1.4
1.4
1.39999
1.39997
1.39995
1.39992
1.39989
1.39986
1.39983
1.3998
1.39979
1.39982
1.39987
1.39998
1.40014
1.40036
1.40063
1.40093
1.40125
1.40157
1.40184
1.40205
1.40217
1.40218
1.40208
1.4019
1.40163
1.40131
1.40099
1.40069
1.40043
1.40023
1.40008
1.4
1.39995
1.39994
1.39994
1.39995
1.39997
1.39998
1.39999
1.4
1.4
1.4
1.4
1.4
1.4
1.4
1.40001
1.40001
1.40001
1.40001
1.40001
1.40001
1.40001
1.40001
1.40001
1.40001
1.40001
1.40001
1.40001
1.40001
1.40001
1.40001
1.40001
1.40001
1.40001
1.40001
1.40001
1.40001
1.40001
1.40001
1.40001
1.40001
1.40001
1.40001
1.40001
1.40001
1.40001
1.4
1.40001
1.40001
1.4
1.40001
1.4
1.40001
1.4
1.40001
1.4
1.4
1.40001
1.4
1.40001
1.40001
1.4
1.40001
1.40001
1.40001
1.40001
1.4
1.4
1.39999
1.39998
1.39996
1.39993
1.3999
1.39986
1.39982
1.39979
1.39977
1.39978
1.39983
1.39995
1.40014
1.40041
1.40077
1.4012
1.40168
1.40218
1.40266
1.40307
1.40338
1.40354
1.40354
1.40339
1.40308
1.40265
1.40217
1.40166
1.40118
1.40077
1.40044
1.4002
1.40005
1.39997
1.39993
1.39993
1.39994
1.39996
1.39997
1.39998
1.39999
1.4
1.4
1.4
1.4
1.4
1.4
1.40001
1.40001
1.40001
1.40001
1.40001
1.40001
1.40001
1.40001
1.40001
1.40001
1.40001
1.40001
1.40001
1.40001
1.40001
1.40001
1.40001
1.40001
1.40001
1.40001
1.40001
1.40001
1.40001
1.40001
1.40001
1.40001
1.40001
1.4
1.40001
1.4
1.40001
1.4
1.40001
1.4
1.40001
1.4
1.40001
1.40001
1.4
1.40001
1.4
1.40001
1.40001
1.40001
1.4
1.40001
1.40001
1.40001
1.40001
1.40001
1.40001
1.40001
1.4
1.39999
1.39998
1.39995
1.39991
1.39987
1.39983
1.39979
1.39977
1.39977
1.39983
1.39996
1.40018
1.40052
1.40098
1.40157
1.40225
1.403
1.40376
1.40447
1.40507
1.4055
1.40571
1.40567
1.40538
1.40488
1.40421
1.40345
1.40266
1.40193
1.40129
1.40078
1.4004
1.40015
1.4
1.39994
1.39992
1.39992
1.39994
1.39996
1.39998
1.39999
1.4
1.4
1.4
1.4
1.4
1.4
1.40001
1.40001
1.40001
1.40001
1.40001
1.40001
1.40001
1.40001
1.40001
1.40001
1.40001
1.40001
1.40001
1.40001
1.40001
1.40001
1.40001
1.40001
1.40001
1.40001
1.40001
1.40001
1.40001
1.40001
1.40001
1.40001
1.4
1.40001
1.4
1.40001
1.4
1.4
1.40001
1.4
1.40001
1.4
1.40001
1.4
1.4
1.40001
1.4
1.4
1.4
1.40001
1.4
1.40001
1.40001
1.40001
1.40001
1.40001
1.40001
1.40001
1.4
1.39999
1.39997
1.39993
1.39989
1.39985
1.3998
1.39978
1.39979
1.39986
1.40002
1.40029
1.40072
1.40131
1.40207
1.40301
1.40407
1.4052
1.40633
1.40737
1.40821
1.40878
1.40902
1.40888
1.40837
1.40756
1.40651
1.40533
1.40414
1.40302
1.40205
1.40127
1.4007
1.40031
1.40007
1.39995
1.39991
1.39991
1.39992
1.39995
1.39997
1.39998
1.39999
1.4
1.4
1.4
1.4
1.4
1.4
1.40001
1.40001
1.40001
1.40001
1.40001
1.40001
1.40001
1.40001
1.40001
1.40001
1.40001
1.40001
1.40001
1.40001
1.40001
1.40001
1.40001
1.40001
1.40001
1.40001
1.40001
1.40001
1.4
1.40001
1.4
1.40001
1.4
1.40001
1.4
1.40001
1.40001
1.4
1.40001
1.4
1.4
1.40001
1.4
1.40001
1.4
1.40001
1.4
1.4
1.40001
1.40001
1.40001
1.40001
1.40001
1.40001
1.40002
1.40002
1.40002
1.40001
1.39999
1.39996
1.39992
1.39987
1.39983
1.39981
1.39984
1.39993
1.40013
1.40048
1.401
1.40175
1.40274
1.40398
1.40543
1.40703
1.40871
1.41034
1.4118
1.41296
1.41369
1.41391
1.41359
1.41274
1.41144
1.40981
1.40802
1.40623
1.40457
1.40313
1.40199
1.40113
1.40054
1.40018
1.39998
1.3999
1.39988
1.3999
1.39993
1.39995
1.39997
1.39999
1.4
1.4
1.4
1.4
1.4
1.4
1.40001
1.40001
1.40001
1.40001
1.40001
1.40001
1.40001
1.40001
1.40001
1.40001
1.40001
1.40001
1.40001
1.40001
1.40001
1.40001
1.40001
1.40001
1.40001
1.40001
1.40001
1.40001
1.40001
1.4
1.40001
1.4
1.4
1.40001
1.4
1.40001
1.4
1.4
1.40001
1.4
1.40001
1.4
1.4
1.40001
1.4
1.40001
1.40001
1.4
1.40001
1.40001
1.40001
1.40001
1.40002
1.40002
1.40002
1.40003
1.40003
1.40002
1.4
1.39996
1.39992
1.39987
1.39985
1.39988
1.40001
1.40026
1.4007
1.40137
1.40231
1.40357
1.40516
1.40706
1.40923
1.41157
1.41395
1.41623
1.41822
1.41974
1.42065
1.42083
1.42021
1.41886
1.41687
1.41443
1.41179
1.40915
1.40673
1.40464
1.40298
1.40173
1.40087
1.40033
1.40003
1.3999
1.39986
1.39987
1.39991
1.39994
1.39996
1.39998
1.39999
1.4
1.4
1.4
1.4
1.4
1.4
1.40001
1.40001
1.40001
1.40001
1.40001
1.40001
1.40001
1.40001
1.40001
1.40001
1.40001
1.40001
1.40001
1.40001
1.40001
1.40001
1.40001
1.40001
1.40001
1.40001
1.40001
1.40001
1.40001
1.40001
1.4
1.40001
1.4
1.40001
1.4
1.4
1.40001
1.4
1.4
1.40001
1.4
1.40001
1.4
1.40001
1.4
1.40001
1.40001
1.40001
1.40001
1.40001
1.40002
1.40002
1.40003
1.40004
1.40005
1.40005
1.40004
1.40001
1.39997
1.39992
1.3999
1.39993
1.40008
1.40038
1.40092
1.40176
1.40293
1.4045
1.40649
1.40891
1.4117
1.41478
1.41803
1.42127
1.4243
1.42689
1.42883
1.42992
1.43002
1.42904
1.42704
1.42416
1.42067
1.41687
1.41311
1.40966
1.4067
1.40433
1.40256
1.40133
1.40055
1.40011
1.39991
1.39984
1.39984
1.39988
1.39992
1.39995
1.39997
1.39999
1.4
1.4
1.4
1.4
1.4
1.4
1.40001
1.40001
1.40001
1.40001
1.40001
1.40001
1.40001
1.40001
1.40001
1.40001
1.40001
1.40001
1.40001
1.40001
1.40001
1.40001
1.40001
1.40001
1.40001
1.40001
1.40001
1.4
1.40001
1.4
1.40001
1.4
1.40001
1.40001
1.4
1.40001
1.40001
1.4
1.40001
1.4
1.4
1.40001
1.4
1.40001
1.40001
1.4
1.40001
1.40001
1.40001
1.40002
1.40003
1.40003
1.40005
1.40006
1.40007
1.40007
1.40006
1.40004
1.4
1.39997
1.39999
1.40013
1.40047
1.40109
1.40209
1.40352
1.40545
1.4079
1.41087
1.41432
1.41818
1.42232
1.42655
1.43068
1.43445
1.43764
1.43999
1.44127
1.4413
1.43998
1.43729
1.43341
1.42867
1.42347
1.4183
1.41351
1.40942
1.40613
1.40367
1.40196
1.40086
1.40023
1.39993
1.39981
1.39981
1.39984
1.39989
1.39993
1.39996
1.39998
1.39999
1.4
1.4
1.4
1.4
1.4
1.40001
1.40001
1.40001
1.40001
1.40001
1.40001
1.40001
1.40001
1.40001
1.40001
1.40001
1.40001
1.40001
1.40001
1.40001
1.40001
1.40001
1.40001
1.40001
1.4
1.40001
1.40001
1.4
1.40001
1.4
1.4
1.40001
1.4
1.4
1.40001
1.4
1.40001
1.40001
1.4
1.40001
1.40001
1.4
1.40001
1.40001
1.40001
1.40001
1.40001
1.40002
1.40002
1.40004
1.40005
1.40007
1.40009
1.40011
1.40011
1.4001
1.40008
1.40005
1.40007
1.40019
1.40052
1.40119
1.4023
1.40398
1.40628
1.40923
1.41281
1.41696
1.42159
1.42655
1.43168
1.43676
1.44157
1.44587
1.44945
1.4521
1.45359
1.4537
1.45222
1.44906
1.44432
1.43832
1.43161
1.42478
1.41841
1.41291
1.40847
1.40513
1.4028
1.40129
1.40042
1.39997
1.39979
1.39977
1.3998
1.39986
1.39991
1.39995
1.39997
1.39999
1.4
1.4
1.4
1.4
1.4
1.4
1.40001
1.40001
1.40001
1.40001
1.40001
1.40001
1.40001
1.40001
1.40001
1.40001
1.40001
1.40001
1.40001
1.40001
1.40001
1.40001
1.40001
1.40001
1.4
1.40001
1.4
1.40001
1.40001
1.4
1.40001
1.4
1.4
1.40001
1.4
1.40001
1.40001
1.4
1.4
1.40001
1.4
1.4
1.40001
1.40001
1.40001
1.40001
1.40001
1.40002
1.40004
1.40005
1.40008
1.40011
1.40013
1.40016
1.40017
1.40017
1.40015
1.40016
1.40026
1.40056
1.40121
1.40238
1.40422
1.40685
1.4103
1.41453
1.41943
1.42483
1.43055
1.43638
1.44211
1.44751
1.4524
1.45664
1.46015
1.46283
1.46457
1.46507
1.46398
1.46097
1.45592
1.44906
1.44099
1.43247
1.42436
1.4172
1.4114
1.40699
1.40389
1.40186
1.40067
1.40003
1.39978
1.39972
1.39976
1.39982
1.39989
1.39993
1.39997
1.39998
1.39999
1.4
1.4
1.4
1.4
1.4
1.40001
1.40001
1.40001
1.40001
1.40001
1.40001
1.40001
1.40001
1.40001
1.40001
1.40001
1.40001
1.40001
1.40001
1.40001
1.40001
1.40001
1.4
1.40001
1.4
1.4
1.40001
1.4
1.40001
1.4
1.40001
1.4
1.40001
1.4
1.40001
1.4
1.4
1.40001
1.40001
1.4
1.40001
1.40001
1.40001
1.40001
1.40001
1.40002
1.40003
1.40005
1.40008
1.40011
1.40016
1.4002
1.40023
1.40026
1.40026
1.40028
1.40036
1.40061
1.4012
1.40233
1.40423
1.40708
1.41096
1.41583
1.42151
1.42773
1.43417
1.44054
1.44655
1.45198
1.45664
1.46049
1.46361
1.4662
1.46851
1.47054
1.47202
1.47231
1.47066
1.46647
1.45971
1.45089
1.44101
1.43116
1.42227
1.4149
1.40926
1.40523
1.4026
1.401
1.40016
1.39979
1.39969
1.39971
1.39978
1.39986
1.39991
1.39995
1.39998
1.39999
1.4
1.4
1.4
1.4
1.4
1.4
1.40001
1.40001
1.40001
1.40001
1.40001
1.40001
1.40001
1.40001
1.40001
1.40001
1.40001
1.40001
1.40001
1.40001
1.40001
1.40001
1.4
1.40001
1.4
1.40001
1.4
1.40001
1.4
1.40001
1.4
1.40001
1.4
1.40001
1.40001
1.4
1.4
1.40001
1.4
1.4
1.40001
1.40001
1.40001
1.40002
1.40002
1.40003
1.40005
1.40008
1.40012
1.40017
1.40022
1.40028
1.40033
1.40037
1.4004
1.40047
1.40068
1.40118
1.40221
1.40405
1.40696
1.41111
1.41651
1.42296
1.43005
1.43727
1.44412
1.45017
1.45509
1.45869
1.46094
1.46207
1.46256
1.46312
1.46449
1.46704
1.47041
1.47358
1.47508
1.4736
1.46855
1.46018
1.44966
1.43843
1.42788
1.4189
1.4119
1.40685
1.4035
1.40144
1.40034
1.39982
1.39966
1.39967
1.39974
1.39983
1.39989
1.39994
1.39997
1.39999
1.4
1.4
1.4
1.4
1.4
1.4
1.40001
1.40001
1.40001
1.40001
1.40001
1.40001
1.40001
1.40001
1.40001
1.40001
1.40001
1.40001
1.40001
1.40001
1.40001
1.4
1.40001
1.4
1.40001
1.40001
1.4
1.40001
1.4
1.40001
1.4
1.40001
1.4
1.40002
1.4
1.4
1.40001
1.40001
1.4
1.40001
1.40001
1.40001
1.40001
1.40001
1.40003
1.40005
1.40008
1.40011
1.40016
1.40023
1.40031
1.40039
1.40046
1.40052
1.4006
1.40077
1.40119
1.40208
1.40375
1.40655
1.41076
1.4165
1.42359
1.43156
1.43967
1.4471
1.45313
1.45725
1.45915
1.45882
1.4565
1.45284
1.44893
1.44627
1.44629
1.4498
1.45636
1.46431
1.47125
1.47484
1.47361
1.46745
1.45747
1.44559
1.43367
1.42319
1.4148
1.40869
1.40454
1.40198
1.40057
1.39989
1.39964
1.39963
1.3997
1.39979
1.39987
1.39993
1.39996
1.39998
1.39999
1.4
1.4
1.4
1.4
1.4
1.40001
1.40001
1.40001
1.40001
1.40001
1.40001
1.40001
1.40001
1.40001
1.40001
1.40001
1.40001
1.4
1.40001
1.40001
1.40001
1.40001
1.40001
1.40001
1.4
1.40001
1.4
1.40001
1.4
1.40001
1.4
1.40001
1.4
1.4
1.40001
1.40001
1.4
1.40001
1.40001
1.40001
1.40001
1.40002
1.40002
1.40004
1.40007
1.4001
1.40015
1.40022
1.40032
1.40042
1.40052
1.40062
1.40073
1.40088
1.40122
1.40195
1.4034
1.40595
1.41
1.4158
1.42331
1.43206
1.44113
1.44936
1.45559
1.45895
1.45891
1.45537
1.44861
1.43935
1.42883
1.41896
1.41218
1.41085
1.41617
1.42754
1.44246
1.45731
1.46846
1.4734
1.4714
1.46349
1.45194
1.43926
1.4275
1.41784
1.41064
1.40569
1.4026
1.40084
1.39998
1.39965
1.3996
1.39966
1.39976
1.39985
1.39991
1.39995
1.39998
1.39999
1.4
1.4
1.4
1.4
1.4
1.4
1.40001
1.40001
1.40001
1.40001
1.40001
1.40001
1.40001
1.40001
1.40001
1.40001
1.40001
1.40001
1.40001
1.4
1.40001
1.4
1.40001
1.4
1.40001
1.40001
1.4
1.40001
1.4
1.40001
1.4
1.40001
1.4
1.40001
1.40001
1.4
1.4
1.40002
1.40001
1.40001
1.40002
1.40002
1.40003
1.40006
1.40009
1.40013
1.40021
1.40031
1.40042
1.40055
1.40069
1.40082
1.40099
1.40127
1.40186
1.40305
1.40526
1.40896
1.41453
1.42214
1.43143
1.44145
1.45072
1.45758
1.46058
1.45881
1.45198
1.44033
1.42469
1.40641
1.38746
1.3707
1.35967
1.35761
1.36613
1.38418
1.40822
1.43323
1.45419
1.46742
1.47143
1.4671
1.45696
1.44421
1.43156
1.42082
1.41258
1.40688
1.40325
1.40116
1.4001
1.39967
1.39958
1.39964
1.39974
1.39983
1.3999
1.39995
1.39997
1.39999
1.4
1.4
1.4
1.4
1.4
1.4
1.40001
1.40001
1.40001
1.40001
1.40001
1.40001
1.40001
1.40001
1.40001
1.40001
1.4
1.40001
1.40001
1.40001
1.40001
1.40001
1.4
1.40001
1.40001
1.4
1.40001
1.4
1.40001
1.4
1.40001
1.4
1.40001
1.40001
1.39999
1.4
1.40002
1.4
1.40001
1.40001
1.40001
1.40002
1.40004
1.40007
1.40011
1.40018
1.40028
1.4004
1.40054
1.40071
1.40088
1.40107
1.40133
1.4018
1.40275
1.40458
1.40777
1.41287
1.42021
1.42969
1.44048
1.45092
1.45892
1.46232
1.45954
1.4499
1.43355
1.41136
1.3849
1.35627
1.32827
1.30469
1.29016
1.28876
1.30221
1.32884
1.36386
1.40082
1.43326
1.45633
1.4678
1.46822
1.46045
1.44826
1.43519
1.42355
1.41445
1.40804
1.4039
1.40149
1.40024
1.39972
1.39958
1.39962
1.39971
1.39981
1.39989
1.39994
1.39997
1.39999
1.4
1.4
1.4
1.4
1.4
1.4
1.40001
1.40001
1.40001
1.40001
1.40001
1.40001
1.40001
1.40001
1.40001
1.40001
1.40001
1.40001
1.4
1.40001
1.4
1.40001
1.4
1.40001
1.4
1.4
1.40001
1.4
1.40001
1.40001
1.4
1.40001
1.40001
1.4
1.40001
1.40001
1.40001
1.4
1.40001
1.40001
1.40002
1.40003
1.40005
1.40009
1.40015
1.40024
1.40035
1.4005
1.40068
1.40088
1.40109
1.40136
1.40177
1.40251
1.40395
1.40658
1.411
1.41774
1.42697
1.43815
1.44972
1.45925
1.46397
1.46139
1.45006
1.42984
1.40162
1.36711
1.3288
1.28961
1.25305
1.22374
1.20724
1.20826
1.22842
1.2652
1.31256
1.36262
1.40762
1.44153
1.46134
1.46731
1.46255
1.45143
1.43824
1.42595
1.41615
1.40911
1.40451
1.4018
1.40039
1.39977
1.39958
1.3996
1.3997
1.3998
1.39988
1.39993
1.39997
1.39999
1.4
1.4
1.4
1.4
1.4
1.4
1.40001
1.40001
1.40001
1.40001
1.40001
1.40001
1.40001
1.40001
1.40001
1.40001
1.40001
1.40001
1.40001
1.40001
1.40001
1.4
1.40001
1.4
1.40001
1.40001
1.4
1.40001
1.40001
1.4
1.40001
1.40001
1.4
1.4
1.40002
1.4
1.4
1.40002
1.40001
1.40001
1.40002
1.40004
1.40007
1.40011
1.40019
1.40029
1.40043
1.40061
1.40082
1.40106
1.40134
1.40171
1.40231
1.40341
1.40548
1.40911
1.41497
1.4235
1.43456
1.44692
1.45815
1.46496
1.46402
1.45281
1.43034
1.39733
1.35563
1.30799
1.25788
1.209
1.16534
1.13211
1.11555
1.12074
1.14902
1.19697
1.25739
1.32114
1.37919
1.42443
1.45301
1.46496
1.46353
1.45381
1.44074
1.42802
1.41761
1.41003
1.40506
1.4021
1.40053
1.39982
1.3996
1.3996
1.39969
1.39979
1.39987
1.39993
1.39996
1.39998
1.39999
1.4
1.4
1.4
1.4
1.4
1.4
1.40001
1.40001
1.40001
1.40001
1.40001
1.40001
1.40001
1.40001
1.40001
1.40001
1.40001
1.40001
1.40001
1.40001
1.40001
1.40001
1.4
1.40001
1.4
1.4
1.40001
1.4
1.40001
1.40001
1.4
1.40001
1.40001
1.4
1.4
1.40001
1.40001
1.4
1.40002
1.40003
1.40005
1.40008
1.40013
1.40022
1.40034
1.40051
1.40071
1.40096
1.40125
1.4016
1.40211
1.40297
1.40453
1.40737
1.41217
1.41962
1.42997
1.44253
1.4552
1.46457
1.46655
1.45754
1.4353
1.39966
1.35246
1.29668
1.23613
1.17531
1.11847
1.06977
1.0347
1.01993
1.03077
1.06817
1.12787
1.20156
1.27897
1.34992
1.40634
1.44368
1.46164
1.4637
1.45549
1.44272
1.42971
1.41881
1.4108
1.40552
1.40235
1.40065
1.39988
1.39962
1.3996
1.39969
1.39978
1.39987
1.39992
1.39996
1.39998
1.39999
1.4
1.4
1.4
1.4
1.4
1.4
1.40001
1.40001
1.40001
1.40001
1.40001
1.40001
1.40001
1.40001
1.40001
1.40001
1.40001
1.4
1.40001
1.4
1.40001
1.4
1.40001
1.4
1.4
1.40001
1.4
1.4
1.40001
1.4
1.40001
1.40001
1.40001
1.4
1.40002
1.40001
1.4
1.40001
1.40003
1.40003
1.40006
1.40009
1.40015
1.40025
1.40039
1.40057
1.4008
1.40108
1.40143
1.40188
1.40257
1.40375
1.40588
1.4096
1.4157
1.4248
1.43681
1.45028
1.46207
1.46779
1.46285
1.44366
1.40862
1.35866
1.29686
1.22736
1.15509
1.0854
1.02281
0.97137
0.936559
0.925343
0.943115
0.990432
1.06216
1.14888
1.23921
1.32216
1.38888
1.4343
1.45785
1.46324
1.45656
1.44418
1.43097
1.41971
1.4114
1.40587
1.40254
1.40076
1.39993
1.39964
1.39961
1.39969
1.39979
1.39987
1.39992
1.39996
1.39998
1.39999
1.4
1.4
1.4
1.4
1.4
1.4
1.40001
1.40001
1.40001
1.40001
1.40001
1.40001
1.40001
1.40001
1.40001
1.40001
1.40001
1.40001
1.40001
1.4
1.40001
1.4
1.40001
1.4
1.40001
1.40001
1.4
1.40001
1.4
1.40001
1.40001
1.4
1.4
1.40001
1.40001
1.39999
1.40001
1.40002
1.40002
1.40003
1.40005
1.4001
1.40018
1.40028
1.40042
1.40062
1.40088
1.40119
1.40159
1.40217
1.40308
1.40465
1.40742
1.41212
1.41958
1.43027
1.44358
1.4571
1.46662
1.46696
1.45332
1.42249
1.37376
1.30928
1.23338
1.1514
1.0693
0.993035
0.927116
0.87526
0.842821
0.836925
0.862955
0.920942
1.00463
1.10341
1.20516
1.29841
1.37387
1.42601
1.45425
1.46243
1.45708
1.4451
1.4318
1.42032
1.41179
1.40611
1.40269
1.40085
1.39999
1.39967
1.39963
1.3997
1.39979
1.39987
1.39992
1.39996
1.39998
1.39999
1.4
1.4
1.4
1.4
1.4
1.4
1.40001
1.40001
1.40001
1.40001
1.40001
1.40001
1.40001
1.40001
1.40001
1.40001
1.40001
1.40001
1.40001
1.40001
1.4
1.40001
1.4
1.40001
1.40001
1.4
1.40001
1.4
1.4
1.40001
1.40001
1.4
1.40001
1.40001
1.4
1.4
1.40002
1.40001
1.40001
1.40003
1.40006
1.40011
1.40018
1.40028
1.40043
1.40064
1.40091
1.40126
1.40174
1.40246
1.40364
1.40566
1.40913
1.41484
1.42363
1.4357
1.44978
1.46237
1.46823
1.46174
1.43825
1.39517
1.3328
1.25446
1.16568
1.07305
0.983459
0.903141
0.836349
0.786384
0.758448
0.759689
0.795296
0.864345
0.959215
1.06833
1.17933
1.28065
1.36271
1.41983
1.45144
1.46159
1.4572
1.44551
1.4322
1.42062
1.41198
1.40623
1.40278
1.40092
1.40004
1.39971
1.39966
1.39972
1.3998
1.39987
1.39993
1.39996
1.39998
1.39999
1.4
1.4
1.4
1.4
1.4
1.4
1.40001
1.40001
1.40001
1.40001
1.40001
1.40001
1.40001
1.40001
1.40001
1.40001
1.40001
1.40001
1.40001
1.40001
1.40001
1.4
1.40001
1.40001
1.40001
1.4
1.40001
1.4
1.40001
1.40001
1.4
1.40001
1.40001
1.4
1.4
1.40001
1.40001
1.40001
1.40002
1.40003
1.40006
1.4001
1.40016
1.40026
1.40042
1.40063
1.40091
1.40129
1.40187
1.40276
1.40424
1.40674
1.41094
1.41765
1.42762
1.44076
1.45497
1.46565
1.46673
1.45249
1.41877
1.3637
1.28855
1.19762
1.09765
0.996542
0.901985
0.820161
0.754851
0.708955
0.687504
0.697494
0.743489
0.823226
0.927704
1.04495
1.16281
1.26974
1.3561
1.41626
1.44978
1.46097
1.45703
1.44548
1.4322
1.4206
1.41196
1.40624
1.40281
1.40095
1.40008
1.39975
1.39969
1.39974
1.39982
1.39988
1.39993
1.39996
1.39998
1.39999
1.4
1.4
1.4
1.4
1.4
1.4
1.40001
1.40001
1.40001
1.40001
1.40001
1.40001
1.40001
1.40001
1.40001
1.40001
1.40001
1.40001
1.40001
1.40001
1.4
1.40001
1.4
1.4
1.40001
1.4
1.40001
1.40001
1.4
1.4
1.40001
1.40001
1.4
1.40001
1.40001
1.4
1.4
1.40001
1.40001
1.40003
1.40005
1.40008
1.40015
1.40024
1.40038
1.40058
1.40087
1.4013
1.40196
1.40305
1.40486
1.40787
1.41279
1.42041
1.43135
1.44515
1.45887
1.46685
1.46243
1.44016
1.39659
1.33056
1.24406
1.14223
1.03301
0.925699
0.828629
0.747612
0.685791
0.645758
0.632306
0.651988
0.7083
0.797486
0.909657
1.03291
1.1554
1.26561
1.35406
1.41534
1.44932
1.46062
1.45663
1.44506
1.43181
1.42029
1.41176
1.40614
1.40278
1.40097
1.40012
1.3998
1.39973
1.39977
1.39983
1.3999
1.39994
1.39997
1.39999
1.4
1.4
1.4
1.4
1.4
1.4
1.4
1.40001
1.40001
1.40001
1.40001
1.40001
1.40001
1.40001
1.40001
1.40001
1.40001
1.40001
1.40001
1.40001
1.40001
1.4
1.40001
1.4
1.40001
1.40001
1.4
1.40001
1.40001
1.4
1.40001
1.40001
1.4
1.40001
1.4
1.40001
1.40001
1.40001
1.40001
1.40001
1.40002
1.40004
1.40006
1.40011
1.40019
1.40031
1.4005
1.4008
1.40126
1.40203
1.40334
1.40549
1.40901
1.41461
1.42301
1.43464
1.44867
1.46142
1.46624
1.45609
1.4261
1.37367
1.29826
1.20224
1.09144
0.97505
0.863745
0.766271
0.687802
0.630874
0.597845
0.593172
0.622546
0.688192
0.785224
0.90339
1.031
1.15622
1.26767
1.35618
1.41683
1.44993
1.46046
1.456
1.44426
1.43106
1.41971
1.41138
1.40594
1.40271
1.40098
1.40016
1.39984
1.39977
1.3998
1.39986
1.39991
1.39995
1.39997
1.39999
1.4
1.4
1.4
1.4
1.4
1.4
1.4
1.40001
1.40001
1.40001
1.40001
1.40001
1.40001
1.40001
1.40001
1.40001
1.40001
1.40001
1.4
1.40001
1.40001
1.4
1.40001
1.4
1.40001
1.4
1.4
1.40001
1.4
1.4
1.40001
1.4
1.4
1.40001
1.4
1.40001
1.40001
1.4
1.4
1.40001
1.40001
1.40002
1.40004
1.40007
1.40013
1.40024
1.40041
1.40071
1.40121
1.40208
1.4036
1.4061
1.41009
1.41632
1.42536
1.43739
1.45128
1.46277
1.46435
1.44874
1.41179
1.35189
1.26901
1.16559
1.04792
0.926537
0.813276
0.716935
0.641998
0.590616
0.565027
0.569055
0.607234
0.680762
0.78419
0.907144
1.03779
1.16414
1.27503
1.36184
1.42031
1.45137
1.46039
1.4551
1.44309
1.42998
1.4189
1.41086
1.40566
1.40259
1.40096
1.40019
1.39989
1.39982
1.39984
1.39988