/*--------------------------------*- C++ -*----------------------------------*\
  =========                 |
  \\      /  F ield         | OpenFOAM: The Open Source CFD Toolbox
   \\    /   O peration     | Website:  https://openfoam.org
    \\  /    A nd           | Version:  6
     \\/     M anipulation  |
\*---------------------------------------------------------------------------*/
FoamFile
{
    version     2.0;
    format      ascii;
    class       surfaceScalarField;
    location    "1.69";
    object      phi;
}
// * * * * * * * * * * * * * * * * * * * * * * * * * * * * * * * * * * * * * //

dimensions      [0 3 -1 0 0 0 0];

internalField   nonuniform List<scalar> 
1540
(
-0.301224
0.103025
0.453966
-0.754692
0.483759
-0.029297
0.464634
0.0196219
0.462495
0.00263592
0.458142
0.00485018
0.449739
0.00889965
0.448
0.00223534
0.437282
0.011215
0.437666
0.000112384
0.427172
0.0104937
0.423295
0.00387711
0.42227
0.00102485
0.408221
0.0140493
0.416469
-0.00824816
0.3966
0.0198689
0.402301
-0.00570117
0.389938
0.012363
0.380361
0.00957717
0.380361
-0.278061
0.381582
-0.154158
-0.878099
0.151729
-0.334687
0.1607
0.0111478
0.161923
0.00191013
0.173389
-0.00611942
0.163091
0.0196953
0.176735
-0.0109132
0.164223
0.0242248
0.168521
-0.00368904
0.159043
0.0199717
0.146563
0.0163567
0.173167
-0.0255791
0.134797
0.0524197
0.169368
-0.0428195
0.127663
0.0615737
0.145747
-0.0237849
0.128839
0.0292708
0.133243
0.00517273
0.513604
-0.00267108
0.38475
0.152293
-1.03257
0.0225129
-0.20441
-0.0562086
0.0903658
-0.0499401
-0.00386016
-0.00425919
-0.0513038
0.00223107
0.0137022
0.0156527
-0.0238385
0.0236709
0.0167039
0.0408436
-0.0203655
0.0778679
-0.0170526
0.0563601
0.0378644
0.0705797
-0.0397986
0.0426213
0.0803781
0.072137
-0.0723353
0.055055
0.0786556
0.0611721
-0.029902
0.00275134
0.0876916
0.0245016
-0.0165776
0.538106
-0.200093
0.58534
-0.174331
-1.05783
0.0465882
-0.424833
-0.0147351
0.152186
-0.0603582
0.0422608
-0.0391313
-0.0720342
-0.0492547
0.0243228
0.0037328
-0.0763296
0.0232487
-0.00231457
0.0143488
-0.0109694
5.21074e-05
-0.00275578
0.0141517
0.0237648
0.0251973
-0.0508442
0.0389672
0.0666082
0.0565091
-0.0898772
0.0553692
0.0797954
0.075875
-0.0504078
0.0369831
0.126583
0.0539194
-0.033514
0.592025
0.0219922
0.563845
0.100095
-1.13544
-0.00228849
-0.321953
-0.0476905
0.198084
-0.0441836
0.0392515
-0.0450553
-0.0706659
-0.0249704
0.00473505
-0.0210171
-0.0797864
-0.00220395
-0.0206304
0.00702094
-0.019698
0.00480028
-0.000535084
0.00586079
0.0227042
0.015799
-0.0607824
0.016037
0.0663702
0.0331029
-0.106943
0.03135
0.0815482
0.0575968
-0.0766546
0.0347292
0.149451
0.0517645
-0.0505493
0.64379
-0.161117
0.725459
-0.173951
-1.12211
0.0103525
-0.505759
-0.028499
0.237432
-0.0660741
0.0773239
-0.054548
-0.0816954
-0.0566873
0.00737149
-0.0203776
-0.115599
-0.0148046
-0.0257062
-0.0182404
-0.0157658
-0.0198894
0.00111404
0.00514997
-0.00233524
0.00461202
-0.0602444
0.022983
0.0479992
0.0282034
-0.112164
0.040112
0.0696394
0.0647722
-0.101315
0.0522388
0.161984
0.0631786
-0.0614892
0.706968
0.0370739
0.688881
0.0815254
-1.16606
-0.0215628
-0.402174
-0.0583582
0.274724
-0.0564647
0.0759277
-0.0538989
-0.0837646
-0.0326197
-0.0134106
-0.0363695
-0.111353
-0.0198495
-0.041729
-0.00432247
-0.0307964
-0.000246299
-0.00296211
-0.000398373
-0.00218323
0.00387917
-0.0645219
0.0104643
0.041414
0.0200468
-0.121746
0.0260427
0.0636434
0.0479008
-0.123173
0.0364653
0.17342
0.0511978
-0.0762218
0.758166
-0.134467
0.823845
-0.168453
-1.13158
-0.014619
-0.555512
-0.040691
0.301293
-0.0667307
0.102465
-0.0393777
-0.110621
-0.0423325
-0.00995886
-0.0272952
-0.125894
-0.0212206
-0.0473065
-0.0240416
-0.0274789
-0.023707
-0.00329669
1.75821e-05
-0.0259078
-0.00839174
-0.0561125
0.00342226
0.0295999
0.00298393
-0.121308
0.0314925
0.0351346
0.0511033
-0.142784
0.0515547
0.172968
0.0581073
-0.0827745
0.816273
0.0490785
0.775263
0.0736581
-1.15566
-0.0354048
-0.445952
-0.0704695
0.336854
-0.0693925
0.101885
-0.0604005
-0.119116
-0.031736
-0.0381264
-0.0324034
-0.12473
-0.0240008
-0.0552121
-0.00609718
-0.0448862
-0.00264152
-0.00675233
-0.00654458
-0.0220048
-0.00605095
-0.0566061
0.00304125
0.0205076
0.000990809
-0.119257
0.0102838
0.0258413
0.0329322
-0.165432
0.028163
0.177738
0.0387183
-0.0933298
0.854992
-0.11428
0.890039
-0.161895
-1.10755
-0.0359165
-0.571434
-0.0462597
0.347693
-0.0629477
0.11907
-0.0462019
-0.135366
-0.0469888
-0.0368425
-0.0289121
-0.14231
-0.0230623
-0.0605649
-0.0224552
-0.0449968
-0.0203748
-0.00883266
-0.0104526
-0.0319271
-0.0174902
-0.0495684
-0.00216078
0.00517812
-0.0154477
-0.105971
0.0142595
-0.00386606
0.0391032
-0.190276
0.0491104
0.16773
0.0466144
-0.0908339
0.901606
0.0595194
0.831017
0.0765836
-1.12412
-0.0386313
-0.455722
-0.0712077
0.380766
-0.0632593
0.111619
-0.0571269
-0.141001
-0.0337341
-0.0597385
-0.025429
-0.150119
-0.0159935
-0.0695035
-0.00309844
-0.0573954
-0.000257245
-0.0116739
-0.00674508
-0.0254393
-0.0105362
-0.0457773
-0.00556256
0.000204435
-0.00822852
-0.103305
-0.000484623
-0.0116101
0.0185035
-0.209264
0.0178558
0.168378
0.0215678
-0.0945459
0.923174
-0.100999
0.932513
-0.164616
-1.06
-0.0623215
-0.55752
-0.0434694
0.362411
-0.0492953
0.117942
-0.0418056
-0.147995
-0.0415392
-0.059508
-0.0265726
-0.164589
-0.0138398
-0.0817394
-0.0156927
-0.055046
-0.0159666
-0.0113999
-0.0192983
-0.0221077
-0.0233806
-0.0416949
-0.00352315
-0.0196531
-0.0204471
-0.0863807
0.00762549
-0.0396829
0.0244006
-0.226039
0.0417278
0.151051
0.0299529
-0.0827712
0.953127
0.0699353
0.863074
0.0963814
-1.08595
-0.0249856
-0.435656
-0.0660987
0.40402
-0.0525504
0.104891
-0.0449637
-0.155085
-0.0287786
-0.0751962
-0.0238158
-0.169055
-0.0141268
-0.0909315
0.000193309
-0.0688697
-0.000220618
-0.010986
0.000783302
-0.0231117
-0.00501682
-0.0358947
-0.0135883
-0.0110817
-0.0114277
-0.0885414
-0.00790459
-0.043206
0.00390706
-0.237851
0.0118679
0.14309
0.00475058
-0.0756539
0.957877
-0.0975272
0.961098
-0.181256
-1.00173
-0.0932519
-0.523163
-0.0483234
0.359588
-0.0505965
0.107661
-0.0388281
-0.166357
-0.0338446
-0.0796829
-0.0257776
-0.176625
-0.0104961
-0.105716
-0.0129587
-0.0659107
-0.0147598
-0.00918488
-0.026559
-0.0113125
-0.0281644
-0.0342894
-0.00862336
-0.0306228
-0.0247702
-0.0723946
0.00178314
-0.0697595
0.0095429
-0.245611
0.0320757
0.120557
0.00196263
-0.045541
0.95984
0.081482
0.880113
0.120345
-1.04009
-0.00448873
-0.397833
-0.0623412
0.417937
-0.055513
0.10133
-0.0379005
-0.183472
-0.0272415
-0.0898451
-0.022179
-0.181191
-0.0121597
-0.115239
-0.00190254
-0.0756714
-0.000763948
-0.0103235
0.00261823
-0.0146947
-0.0140628
-0.0176083
-0.0184197
-0.0262659
-0.00974932
-0.0810649
-0.0164387
-0.0630701
-0.0141619
-0.247887
0.0113502
0.0950446
-0.00640434
-0.0277866
0.953436
-0.102469
0.983078
-0.193989
-0.948075
-0.107364
-0.483961
-0.0549044
0.365974
-0.0641804
0.111103
-0.0420001
-0.205156
-0.0327561
-0.0985923
-0.0261803
-0.18727
-0.0110679
-0.129854
-0.0202622
-0.0659807
-0.0183124
-0.0122732
-0.0201935
-0.0128137
-0.0221273
-0.0156745
-0.0133671
-0.0350262
-0.0280177
-0.0664143
-0.00247686
-0.0886111
-0.00964877
-0.240716
0.00755049
0.0778452
-0.0298153
0.0095791
0.92362
0.0915571
0.892018
0.122873
-0.978894
0.00215579
-0.362747
-0.0444366
0.413063
-0.0593719
0.126536
-0.0376945
-0.226337
-0.0280153
-0.107775
-0.0228852
-0.191904
-0.0106755
-0.141567
-0.00503732
-0.0711224
-0.0086046
-0.00870595
-0.0102256
-0.0111927
-0.0254575
-0.000442504
-0.0231664
-0.0373174
-0.0169803
-0.0726005
-0.025096
-0.0804955
-0.0302353
-0.235576
0.00168341
0.0459264
-0.00982454
0.021087
0.913796
-0.108167
1.00068
-0.189289
-0.897274
-0.101065
-0.450475
-0.0541533
0.366649
-0.0729798
0.145859
-0.0513384
-0.247482
-0.0372336
-0.121383
-0.0348842
-0.193757
-0.0239305
-0.152024
-0.0253695
-0.0691869
-0.0208179
-0.0132575
-0.0200187
-0.011992
-0.0188034
-0.00165778
-0.0169283
-0.0391925
-0.0299014
-0.0596274
-0.00759317
-0.102804
-0.0225993
-0.22057
-0.0181273
0.0414542
-0.0400128
0.0429724
0.873783
0.0957928
0.905385
0.104257
-0.905242
-0.0119782
-0.333743
-0.0249035
0.380071
-0.0557267
0.17718
-0.0466359
-0.256076
-0.0321364
-0.135385
-0.0196918
-0.205705
-0.0103888
-0.16083
-0.00299145
-0.0760879
-0.0143275
-0.0019214
-0.0163478
-0.00997186
-0.0257977
0.00779219
-0.0248829
-0.0401074
-0.0210702
-0.0634402
-0.0326026
-0.0912714
-0.0406194
-0.212553
-0.0187088
0.0195435
-0.0111172
0.0353807
0.862666
-0.106099
1.01198
-0.171285
-0.839559
-0.0928031
-0.411728
-0.0520503
0.339814
-0.0701602
0.195787
-0.0560817
-0.269658
-0.0396269
-0.151343
-0.0395441
-0.205291
-0.0308667
-0.169011
-0.0286669
-0.0777911
-0.0223276
-0.00826074
-0.024944
-0.0073555
-0.0235777
0.00642595
-0.0275552
-0.0361299
-0.0377395
-0.0532559
-0.013348
-0.115663
-0.0280195
-0.197882
-0.0297946
0.0213184
-0.0495942
0.0551802
0.813072
0.092799
0.919679
0.076676
-0.822939
-0.0401942
-0.294361
-0.0153294
0.315446
-0.0429764
0.223931
-0.0506956
-0.261442
-0.0289086
-0.172634
-0.0196947
-0.214008
-0.0176559
-0.170553
0.000704063
-0.0956546
-0.0176318
0.0100751
-0.0180175
-0.00696983
-0.0188882
0.00729667
-0.0204525
-0.0345657
-0.0232458
-0.0504627
-0.0410102
-0.0978985
-0.0465519
-0.19234
-0.0294668
0.00423321
-0.0120227
0.0377361
0.801049
-0.0943729
1.01455
-0.146594
-0.770221
-0.0911382
-0.34932
-0.0579018
0.282706
-0.0637562
0.230282
-0.0592433
-0.265458
-0.0409482
-0.190432
-0.0361865
-0.218274
-0.031978
-0.174264
-0.0323077
-0.0948284
-0.0199957
-0.00223698
-0.0260018
-0.000963714
-0.0282671
0.00956194
-0.0312728
-0.03156
-0.0374347
-0.0443008
-0.0179903
-0.117343
-0.031052
-0.179279
-0.0364164
0.00959751
-0.0566268
0.0579463
0.744422
0.0829833
0.932062
0.0520738
-0.738815
-0.0748373
-0.221912
-0.023388
0.231754
-0.025474
0.232866
-0.0494701
-0.240965
-0.0259319
-0.213473
-0.0155143
-0.228195
-0.0211956
-0.168086
-0.00245344
-0.113074
-0.0203087
0.0156182
-0.0203691
-0.000903331
-0.016929
0.00612178
-0.0243003
-0.0241888
-0.0302986
-0.0383025
-0.0468218
-0.10082
-0.0502575
-0.175843
-0.0369291
-0.00373104
-0.0128397
0.0338569
0.731582
-0.0777106
1.01027
-0.122351
-0.693677
-0.0951436
-0.248622
-0.0760682
0.213175
-0.0600916
0.217386
-0.0593343
-0.241226
-0.0334946
-0.238816
-0.021047
-0.240146
-0.0298576
-0.158779
-0.0295045
-0.112931
-0.0120527
-0.00183361
-0.02677
0.0138139
-0.0291342
0.00848598
-0.0258421
-0.027481
-0.0291022
-0.0350423
-0.0219391
-0.107983
-0.0353945
-0.162387
-0.0428182
0.00369246
-0.0612337
0.0522724
0.670349
0.0666799
0.944086
0.0605271
-0.687027
-0.0874536
-0.100145
-0.0385987
0.164817
-0.00681864
0.186104
-0.0487835
-0.198765
-0.0306117
-0.256491
-0.0142731
-0.255988
-0.0196358
-0.152919
-0.0114978
-0.120572
-0.0247943
0.0114629
-0.0194298
0.00844932
-0.0205626
0.00961882
-0.0298731
-0.0181705
-0.0340373
-0.0308782
-0.047897
-0.0941232
-0.0527481
-0.157536
-0.0426273
-0.0064284
-0.0142636
0.0239086
0.656085
-0.060169
1.00475
-0.131107
-0.615593
-0.124008
-0.106746
-0.0879519
0.129258
-0.0632807
0.16193
-0.0526159
-0.208933
-0.0329978
-0.275613
-0.0215413
-0.266947
-0.0337754
-0.140189
-0.0420174
-0.111834
-0.022888
-0.00766651
-0.0267323
0.0122936
-0.0318831
0.0147697
-0.0266154
-0.0234383
-0.0278476
-0.029646
-0.0261638
-0.095807
-0.0401155
-0.143585
-0.0479124
0.00136839
-0.0641498
0.0401459
0.591935
0.0508166
0.954431
0.119892
-0.684171
0.0565422
-0.042899
0.0624574
0.123839
0.0139675
0.210917
-0.0435994
-0.150869
-0.0374186
-0.281297
-0.0162821
-0.287587
-0.0195507
-0.136423
-0.0188048
-0.112083
-0.0264242
-4.71974e-05
-0.022763
0.00863236
-0.020278
0.0122847
-0.0300953
-0.0136211
-0.0354425
-0.0242988
-0.0477047
-0.0835449
-0.0550768
-0.136213
-0.0482334
-0.00547511
-0.0167593
0.00867181
0.575176
-0.0325918
0.98752
-0.129839
-0.586427
-0.115084
-0.0571573
-0.0688039
0.0780562
-0.0554846
0.198095
-0.0392922
-0.166565
-0.0364213
-0.283671
-0.0323811
-0.291131
-0.0342816
-0.134026
-0.0301809
-0.115687
-0.0238852
-0.00634289
-0.0272852
0.0120323
-0.029935
0.0149345
-0.0288086
-0.0147475
-0.0269632
-0.0261443
-0.0324421
-0.0780661
-0.0449604
-0.123694
-0.0513763
0.000940687
-0.0645714
0.0218669
0.510605
0.0515627
0.936454
0.111804
-0.646171
0.0707893
-0.0156458
0.0847349
0.0646071
0.0286475
0.25468
-0.0307493
-0.106672
-0.0412632
-0.27266
-0.023322
-0.308575
-0.025194
-0.131657
-0.0268396
-0.113545
-0.0232268
-0.00995567
-0.0250598
0.0138653
-0.019523
0.00939762
-0.0277485
-0.00652205
-0.0350997
-0.0187931
-0.0466484
-0.0665174
-0.0548361
-0.115507
-0.0483437
-0.00555176
-0.0213154
-0.00516148
0.489289
-0.0121244
0.949075
-0.118837
-0.538961
-0.113031
-0.0209545
-0.0760162
0.0280891
-0.0325504
0.211711
-0.0151785
-0.123547
-0.0346041
-0.252738
-0.0349758
-0.307707
-0.0282878
-0.137848
-0.0229612
-0.118375
-0.0272743
-0.00564267
-0.0294671
0.016058
-0.0260631
0.00599366
-0.0297498
-0.00283543
-0.0298326
-0.0187103
-0.0356814
-0.0606687
-0.0476436
-0.103544
-0.0521784
-0.00101703
-0.0630847
0.00574475
0.426204
0.0589207
0.890651
0.127428
-0.606972
0.103029
0.003942
0.0988613
0.0327534
0.0614679
0.249602
-0.00442854
-0.0571537
-0.0356656
-0.221004
-0.0289264
-0.31395
-0.0220579
-0.14422
-0.0297265
-0.11021
-0.0251924
-0.0101768
-0.0230063
0.0138718
-0.0246531
0.00764048
-0.0314016
0.00391297
-0.0327168
-0.0173952
-0.0465236
-0.0468619
-0.0514334
-0.0986346
-0.0455765
-0.00687399
-0.0251657
-0.0146661
0.401039
0.0113126
0.879835
-0.0960744
-0.499088
-0.0955839
0.00394864
-0.0671425
0.00480902
-0.00374136
0.186697
0.00725997
-0.0676585
-0.0209253
-0.192322
-0.0344061
-0.299972
-0.0321365
-0.145993
-0.0305148
-0.111335
-0.0258215
-0.0148701
-0.0309731
0.0190234
-0.0353423
0.0120098
-0.016688
-0.0147415
-0.0182862
-0.015797
-0.0337249
-0.0314233
-0.0447144
-0.0876451
-0.0468851
-0.00470332
-0.0605375
-0.00101377
0.340501
0.0698385
0.810493
0.138714
-0.567467
0.128899
0.0142607
0.11794
0.0162647
0.104483
0.200652
0.0385293
-0.00120837
-0.0130228
-0.140273
-0.0223896
-0.290109
-0.0220864
-0.145799
-0.0336192
-0.0993052
-0.0235286
-0.0249607
-0.0175312
0.0130259
-0.0319491
0.0264277
-0.022047
-0.0246437
-0.0153413
-0.0225027
-0.0409748
-0.00578989
-0.0489914
-0.0796286
-0.0450595
-0.00863523
-0.0284898
-0.0175835
0.312011
0.0387547
0.772235
-0.0677849
-0.460431
-0.0681293
0.0151022
-0.0433089
-0.0080586
-0.00594056
0.163781
-0.00985998
0.00320752
0.00580619
-0.155443
-0.0207758
-0.26303
-0.0210493
-0.145029
-0.0291571
-0.0907009
-0.0347774
-0.0193404
-0.0296719
0.00792037
-0.035006
0.0317618
-0.0317345
-0.0279152
-0.0293171
-0.0249202
-0.0242579
-0.0108492
-0.043095
-0.0607915
-0.044359
-0.00737132
-0.0561591
-0.00578344
0.255852
0.0839589
0.688773
0.133751
-0.509726
0.135756
0.0135945
0.121528
0.00666603
0.150899
0.134906
0.126673
0.027931
0.0343452
-0.0626184
-0.0125479
-0.215641
-0.0174469
-0.139633
-0.0298509
-0.0778002
-0.0338433
-0.0153481
-0.029072
0.00314896
-0.0161164
0.0188062
-0.0197747
-0.0242569
-0.0315334
-0.0131615
-0.0473791
0.00499632
-0.0522722
-0.0558984
-0.0449962
-0.0146473
-0.0275549
-0.0232248
0.228297
0.0687636
0.620506
-0.0765479
-0.363918
-0.0837291
0.0212726
-0.0725736
-0.00399256
-0.0123182
0.0751477
0.00961933
0.00648996
0.0265645
-0.0790668
-0.00545786
-0.183122
-0.0165229
-0.128071
-0.0165069
-0.0773197
-0.0293075
-0.00254745
-0.0324404
0.00628181
-0.022153
0.00851882
-0.0186085
-0.0278014
-0.03027
-0.00150009
-0.0234495
-0.00182419
-0.0451209
-0.034227
-0.0435687
-0.0161995
-0.0497563
-0.0170372
0.178541
0.122391
0.498612
0.152982
-0.394012
0.158558
0.0161935
0.151475
0.00358576
0.149623
0.077498
0.158539
-0.00193014
0.0999629
-0.0199936
0.0128069
-0.0954688
-0.0139307
-0.100837
-0.0314413
-0.0593125
-0.0328237
-0.00116506
-0.023409
-0.00313294
-0.0212797
0.0063895
-0.0205162
-0.028565
-0.0171287
-0.00488759
-0.0406078
0.0216549
-0.0409621
-0.0338727
-0.0460738
-0.0110879
-0.0392085
-0.0239025
0.139332
0.112228
0.38688
-0.0721004
-0.209186
-0.0578908
0.00248069
-0.0517259
-0.00208289
-0.00728589
0.0335554
0.00685916
-0.0155785
0.0402094
-0.0528471
0.0353229
-0.0900857
-0.00334259
-0.061675
-0.00932773
-0.0528308
-0.0101303
-0.000362533
-0.0200538
0.00679054
-0.0203172
0.00665288
-0.0274235
-0.0214587
-0.0325315
0.000220365
-0.0232597
0.0123831
-0.040216
-0.0169165
-0.0406403
-0.0106636
-0.0514656
-0.0130772
0.0878669
0.173157
0.21422
0.222249
-0.257781
0.22172
0.00350682
0.209714
0.0104192
0.199041
0.0447257
0.183232
0.00072735
0.168591
-0.0377096
0.0840416
-0.00503919
0.00393566
0.0189277
-0.0318639
-0.0165347
-0.0233908
-0.00883561
-0.0199747
0.00337442
-0.0138103
0.000488426
-0.0244467
-0.0108223
-0.0241302
-9.62092e-05
-0.036982
0.0252348
-0.0336905
-0.020208
-0.0413804
-0.00297374
-0.0376102
-0.0168474
0.0502566
0.214716
-0.0425679
-0.0385644
-0.0276485
0.0175739
0.0187979
-0.018415
-0.0229575
-0.00353315
-0.0195711
-0.0284067
-0.0250323
-0.0245439
-0.0353662
-0.0354624
-0.0102276
-0.0304355
-0.0334093
-0.0502566
)
;

boundaryField
{
    piston
    {
        type            calculated;
        value           uniform 0;
    }
    outlet
    {
        type            calculated;
        value           uniform 0;
    }
    walls
    {
        type            calculated;
        value           uniform 0;
    }
    front
    {
        type            empty;
        value           nonuniform 0();
    }
    back
    {
        type            empty;
        value           nonuniform 0();
    }
}


// ************************************************************************* //
