# vtk DataFile Version 2.0
bottom_cyc
ASCII
DATASET POLYDATA
POINTS 202 float
-10 -7.5 0 -9.8 -7.5 0 -9.8 -7.5 1 -10 -7.5
1 -9.6 -7.5 0 -9.6 -7.5 1 -9.4 -7.5 0
-9.4 -7.5 1 -9.2 -7.5 0 -9.2 -7.5 1 -9
-7.5 0 -9 -7.5 1 -8.8 -7.5 0 -8.8 -7.5
1 -8.6 -7.5 0 -8.6 -7.5 1 -8.4 -7.5 0
-8.4 -7.5 1 -8.2 -7.5 0 -8.2 -7.5 1 -8
-7.5 0 -8 -7.5 1 -7.8 -7.5 0 -7.8 -7.5
1 -7.6 -7.5 0 -7.6 -7.5 1 -7.4 -7.5 0
-7.4 -7.5 1 -7.2 -7.5 0 -7.2 -7.5 1 -7
-7.5 0 -7 -7.5 1 -6.8 -7.5 0 -6.8 -7.5
1 -6.6 -7.5 0 -6.6 -7.5 1 -6.4 -7.5 0
-6.4 -7.5 1 -6.2 -7.5 0 -6.2 -7.5 1 -6
-7.5 0 -6 -7.5 1 -5.8 -7.5 0 -5.8 -7.5
1 -5.6 -7.5 0 -5.6 -7.5 1 -5.4 -7.5 0
-5.4 -7.5 1 -5.2 -7.5 0 -5.2 -7.5 1 -5
-7.5 0 -5 -7.5 1 -4.8 -7.5 0 -4.8 -7.5
1 -4.6 -7.5 0 -4.6 -7.5 1 -4.4 -7.5 0
-4.4 -7.5 1 -4.2 -7.5 0 -4.2 -7.5 1 -4
-7.5 0 -4 -7.5 1 -3.8 -7.5 0 -3.8 -7.5
1 -3.6 -7.5 0 -3.6 -7.5 1 -3.4 -7.5 0
-3.4 -7.5 1 -3.2 -7.5 0 -3.2 -7.5 1 -3
-7.5 0 -3 -7.5 1 -2.8 -7.5 0 -2.8 -7.5
1 -2.6 -7.5 0 -2.6 -7.5 1 -2.4 -7.5 0
-2.4 -7.5 1 -2.2 -7.5 0 -2.2 -7.5 1 -2
-7.5 0 -2 -7.5 1 -1.8 -7.5 0 -1.8 -7.5
1 -1.6 -7.5 0 -1.6 -7.5 1 -1.4 -7.5 0
-1.4 -7.5 1 -1.2 -7.5 0 -1.2 -7.5 1 -1
-7.5 0 -1 -7.5 1 -0.8 -7.5 0 -0.8 -7.5
1 -0.6 -7.5 0 -0.6 -7.5 1 -0.4 -7.5 0
-0.4 -7.5 1 -0.2 -7.5 0 -0.2 -7.5 1 -1.23261e-11
-7.5 0 -1.23261e-11 -7.5 1 0.2 -7.5 0 0.2 -7.5
1 0.4 -7.5 0 0.4 -7.5 1 0.6 -7.5 0
0.6 -7.5 1 0.8 -7.5 0 0.8 -7.5 1 1
-7.5 0 1 -7.5 1 1.2 -7.5 0 1.2 -7.5
1 1.4 -7.5 0 1.4 -7.5 1 1.6 -7.5 0
1.6 -7.5 1 1.8 -7.5 0 1.8 -7.5 1 2
-7.5 0 2 -7.5 1 2.2 -7.5 0 2.2 -7.5
1 2.4 -7.5 0 2.4 -7.5 1 2.6 -7.5 0
2.6 -7.5 1 2.8 -7.5 0 2.8 -7.5 1 3
-7.5 0 3 -7.5 1 3.2 -7.5 0 3.2 -7.5
1 3.4 -7.5 0 3.4 -7.5 1 3.6 -7.5 0
3.6 -7.5 1 3.8 -7.5 0 3.8 -7.5 1 4
-7.5 0 4 -7.5 1 4.2 -7.5 0 4.2 -7.5
1 4.4 -7.5 0 4.4 -7.5 1 4.6 -7.5 0
4.6 -7.5 1 4.8 -7.5 0 4.8 -7.5 1 5
-7.5 0 5 -7.5 1 5.2 -7.5 0 5.2 -7.5
1 5.4 -7.5 0 5.4 -7.5 1 5.6 -7.5 0
5.6 -7.5 1 5.8 -7.5 0 5.8 -7.5 1 6
-7.5 0 6 -7.5 1 6.2 -7.5 0 6.2 -7.5
1 6.4 -7.5 0 6.4 -7.5 1 6.6 -7.5 0
6.6 -7.5 1 6.8 -7.5 0 6.8 -7.5 1 7
-7.5 0 7 -7.5 1 7.2 -7.5 0 7.2 -7.5
1 7.4 -7.5 0 7.4 -7.5 1 7.6 -7.5 0
7.6 -7.5 1 7.8 -7.5 0 7.8 -7.5 1 8
-7.5 0 8 -7.5 1 8.2 -7.5 0 8.2 -7.5
1 8.4 -7.5 0 8.4 -7.5 1 8.6 -7.5 0
8.6 -7.5 1 8.8 -7.5 0 8.8 -7.5 1 9
-7.5 0 9 -7.5 1 9.2 -7.5 0 9.2 -7.5
1 9.4 -7.5 0 9.4 -7.5 1 9.6 -7.5 0
9.6 -7.5 1 9.8 -7.5 0 9.8 -7.5 1 10
-7.5 0 10 -7.5 1 
POLYGONS 100 500
4 0 1 2 3 4 1 4 5 2 4
4 6 7 5 4 6 8 9 7 4
8 10 11 9 4 10 12 13 11 4
12 14 15 13 4 14 16 17 15 4
16 18 19 17 4 18 20 21 19 4
20 22 23 21 4 22 24 25 23 4
24 26 27 25 4 26 28 29 27 4
28 30 31 29 4 30 32 33 31 4
32 34 35 33 4 34 36 37 35 4
36 38 39 37 4 38 40 41 39 4
40 42 43 41 4 42 44 45 43 4
44 46 47 45 4 46 48 49 47 4
48 50 51 49 4 50 52 53 51 4
52 54 55 53 4 54 56 57 55 4
56 58 59 57 4 58 60 61 59 4
60 62 63 61 4 62 64 65 63 4
64 66 67 65 4 66 68 69 67 4
68 70 71 69 4 70 72 73 71 4
72 74 75 73 4 74 76 77 75 4
76 78 79 77 4 78 80 81 79 4
80 82 83 81 4 82 84 85 83 4
84 86 87 85 4 86 88 89 87 4
88 90 91 89 4 90 92 93 91 4
92 94 95 93 4 94 96 97 95 4
96 98 99 97 4 98 100 101 99 4
100 102 103 101 4 102 104 105 103 4
104 106 107 105 4 106 108 109 107 4
108 110 111 109 4 110 112 113 111 4
112 114 115 113 4 114 116 117 115 4
116 118 119 117 4 118 120 121 119 4
120 122 123 121 4 122 124 125 123 4
124 126 127 125 4 126 128 129 127 4
128 130 131 129 4 130 132 133 131 4
132 134 135 133 4 134 136 137 135 4
136 138 139 137 4 138 140 141 139 4
140 142 143 141 4 142 144 145 143 4
144 146 147 145 4 146 148 149 147 4
148 150 151 149 4 150 152 153 151 4
152 154 155 153 4 154 156 157 155 4
156 158 159 157 4 158 160 161 159 4
160 162 163 161 4 162 164 165 163 4
164 166 167 165 4 166 168 169 167 4
168 170 171 169 4 170 172 173 171 4
172 174 175 173 4 174 176 177 175 4
176 178 179 177 4 178 180 181 179 4
180 182 183 181 4 182 184 185 183 4
184 186 187 185 4 186 188 189 187 4
188 190 191 189 4 190 192 193 191 4
192 194 195 193 4 194 196 197 195 4
196 198 199 197 4 198 200 201 199 
CELL_DATA 100
FIELD attributes 7
patchID 1 100 float
2 2 2 2 2 2 2 2 2 2 2
2 2 2 2 2 2 2 2 2 2
2 2 2 2 2 2 2 2 2 2
2 2 2 2 2 2 2 2 2 2
2 2 2 2 2 2 2 2 2 2
2 2 2 2 2 2 2 2 2 2
2 2 2 2 2 2 2 2 2 2
2 2 2 2 2 2 2 2 2 2
2 2 2 2 2 2 2 2 2 2
2 2 2 2 2 2 2 2 2 
mag(U) 1 100 float
0.99997 0.99997 0.99997 0.99997 0.99997 0.99997 0.99997 0.99997 0.99997 0.99997 0.99997
0.99997 0.99997 0.99997 0.99997 0.99997 0.99997 0.99997 0.99997 0.99997 0.99997
0.99997 0.99997 0.99997 0.99997 0.99997 0.99997 0.99997 0.99997 0.99997 0.99997
0.99997 0.99997 0.99997 0.99997 0.99997 0.99997 0.99997 0.99997 0.999969 0.999969
0.999969 0.99997 0.99997 0.99997 0.999973 0.999974 0.999977 0.99998 0.999983 0.999986
0.999987 0.999987 0.999985 0.99998 0.999972 0.999962 0.999951 0.99994 0.999932 0.999928
0.99993 0.99994 0.999958 0.999985 1.00002 1.00005 1.0001 1.00013 1.00016 1.00019
1.00022 1.00023 1.00023 1.00022 1.00021 1.0002 1.00017 1.00014 1.00012 1.00009
1.00006 1.00004 1.00002 1.00001 0.999996 0.999986 0.99998 0.999976 0.999973 0.99997
0.99997 0.999969 0.999969 0.999969 0.999969 0.99997 0.99997 0.99997 0.99997 
p 1 100 float
1 1 1 1 1 1 1 1 1 1 1
1 1 1 1 1 1 1 1 1 1
1 1 1 1 1 1 1 1 1 1
1 1 1 1 1 1 1 1 1 1
1 1 1 1 1 0.999998 0.999994 0.999987 0.999977 0.999964
0.999949 0.999934 0.99992 0.999911 0.99991 0.999919 0.999942 0.999978 1.00003 1.0001
1.00017 1.00025 1.00034 1.00042 1.00049 1.00056 1.0006 1.00063 1.00064 1.00064
1.0006 1.00057 1.00052 1.00048 1.00042 1.00036 1.00031 1.00025 1.0002 1.00015
1.00012 1.00008 1.00006 1.00004 1.00003 1.00002 1.00001 1.00001 1 1
1 1 1 1 1 1 1 1 1 
T 1 100 float
1 1 1 1 1 1 1 1 1 1 1
1 1 1 1 1 1 1 1 1 1
1 1 1 1 1 1 1 1 1 1
1 1 1 1 1 1 1 1 1 1
1 1 1 1 1 1 1 1 1 1
1 1 1 1 1 1 1 1 1 1
1 1 1 1 1 1 1 1 1 1
1 1 1 1 1 1 1 1 1 1
1 1 1 1 1 1 1 1 1 1
1 1 1 1 1 1 1 1 1 
e 1 100 float
1006.29 1006.29 1006.29 1006.29 1006.29 1006.29 1006.29 1006.29 1006.29 1006.29 1006.29
1006.29 1006.29 1006.29 1006.29 1006.29 1006.29 1006.29 1006.29 1006.29 1006.29
1006.29 1006.29 1006.29 1006.29 1006.29 1006.29 1006.29 1006.29 1006.29 1006.29
1006.29 1006.29 1006.29 1006.29 1006.29 1006.29 1006.29 1006.29 1006.29 1006.29
1006.29 1006.29 1006.29 1006.29 1006.29 1006.29 1006.29 1006.29 1006.29 1006.29
1006.29 1006.29 1006.29 1006.29 1006.29 1006.29 1006.29 1006.29 1006.29 1006.29
1006.29 1006.29 1006.29 1006.29 1006.29 1006.29 1006.29 1006.29 1006.29 1006.29
1006.29 1006.29 1006.29 1006.29 1006.29 1006.29 1006.29 1006.29 1006.29 1006.29
1006.29 1006.29 1006.29 1006.29 1006.29 1006.29 1006.29 1006.29 1006.29 1006.29
1006.29 1006.29 1006.29 1006.29 1006.29 1006.29 1006.29 1006.29 1006.29 
rho 1 100 float
1.4 1.40001 1.4 1.40001 1.40001 1.4 1.40001 1.4 1.40001 1.4 1.40001
1.4 1.40001 1.4 1.40001 1.4 1.4 1.4 1.40001 1.4 1.40001
1.4 1.4 1.4 1.4 1.40001 1.4 1.4 1.4 1.4 1.4
1.40001 1.4 1.4 1.4 1.40001 1.40001 1.40001 1.40001 1.40001 1.40001
1.40001 1.40001 1.40001 1.40001 1.40001 1.4 1.39999 1.39998 1.39997 1.39996
1.39994 1.39991 1.39989 1.39988 1.39988 1.39989 1.39992 1.39997 1.40005 1.40014
1.40024 1.40036 1.40048 1.40059 1.40069 1.40078 1.40084 1.40088 1.40089 1.40089
1.40085 1.40081 1.40074 1.40067 1.40059 1.40051 1.40043 1.40035 1.40029 1.40023
1.40017 1.40013 1.40009 1.40006 1.40005 1.40003 1.40002 1.40001 1.40001 1.40001
1.4 1.4 1.4 1.4 1.4 1.4 1.4 1.4 1.4 
U 3 100 float
0.8944 0.4472 0 0.8944 0.4472 0 0.8944 0.4472 0 0.8944 0.4472
0 0.8944 0.4472 0 0.8944 0.4472 0 0.8944 0.4472 0
0.8944 0.4472 0 0.8944 0.4472 0 0.8944 0.4472 0 0.8944
0.4472 0 0.8944 0.4472 0 0.8944 0.4472 0 0.8944 0.4472
0 0.8944 0.4472 0 0.8944 0.4472 0 0.8944 0.4472 0
0.8944 0.4472 0 0.8944 0.4472 0 0.8944 0.4472 0 0.8944
0.4472 0 0.8944 0.4472 0 0.8944 0.4472 0 0.8944 0.4472
0 0.8944 0.4472 0 0.8944 0.4472 0 0.8944 0.4472 0
0.8944 0.4472 0 0.8944 0.4472 0 0.8944 0.4472 0 0.8944
0.4472 0 0.8944 0.4472 0 0.8944 0.4472 0 0.8944 0.4472
0 0.8944 0.4472 0 0.8944 0.4472 0 0.8944 0.4472 0
0.8944 0.4472 0 0.8944 0.4472 0 0.8944 0.447201 0 0.894399
0.447201 0 0.8944 0.447201 0 0.8944 0.447201 0 0.8944 0.447203
0 0.8944 0.447203 0 0.894402 0.447203 0 0.894404 0.447201 0
0.894409 0.447199 0 0.894414 0.447195 0 0.894421 0.447188 0 0.894428
0.447179 0 0.894436 0.447167 0 0.894443 0.447154 0 0.894447 0.44714
0 0.894447 0.447129 0 0.894442 0.447122 0 0.894431 0.447123 0
0.894412 0.447134 0 0.894387 0.447158 0 0.89436 0.447196 0 0.894329
0.447246 0 0.894301 0.447309 0 0.894275 0.447382 0 0.894257 0.447459
0 0.894247 0.447537 0 0.894247 0.44761 0 0.894257 0.447672 0
0.894276 0.447722 0 0.894302 0.447756 0 0.894333 0.447771 0 0.894367
0.447769 0 0.8944 0.44775 0 0.89443 0.447717 0 0.894455 0.447673
0 0.894476 0.447622 0 0.894489 0.447567 0 0.894494 0.447511 0
0.894495 0.447457 0 0.894491 0.447406 0 0.894482 0.44736 0 0.894472
0.447322 0 0.89446 0.447289 0 0.894449 0.447263 0 0.894437 0.447243
0 0.894428 0.447228 0 0.894421 0.447217 0 0.894414 0.447209 0
0.894409 0.447205 0 0.894405 0.447202 0 0.894404 0.4472 0 0.894401
0.447199 0 0.894401 0.447199 0 0.8944 0.447199 0 0.8944 0.447199
0 0.8944 0.447199 0 0.8944 0.447199 0 0.8944 0.4472 0
0.8944 0.4472 0 0.8944 0.4472 0 0.8944 0.4472 0 
POINT_DATA  202
FIELD attributes 6
mag(U) 1 202 float
0.99997 0.99997 0.99997 0.99997 0.99997 0.99997 0.99997 0.99997 0.99997 0.99997 0.99997
0.99997 0.99997 0.99997 0.99997 0.99997 0.99997 0.99997 0.99997 0.99997 0.99997
0.99997 0.99997 0.99997 0.99997 0.99997 0.99997 0.99997 0.99997 0.99997 0.99997
0.99997 0.99997 0.99997 0.99997 0.99997 0.99997 0.99997 0.99997 0.99997 0.99997
0.99997 0.99997 0.99997 0.99997 0.99997 0.99997 0.99997 0.99997 0.99997 0.99997
0.99997 0.99997 0.99997 0.99997 0.99997 0.99997 0.99997 0.99997 0.99997 0.99997
0.99997 0.99997 0.99997 0.99997 0.99997 0.99997 0.99997 0.99997 0.99997 0.99997
0.99997 0.99997 0.99997 0.99997 0.99997 0.99997 0.99997 0.99997 0.99997 0.999969
0.999969 0.999969 0.999969 0.99997 0.99997 0.99997 0.99997 0.99997 0.99997 0.999972
0.999972 0.999973 0.999973 0.999975 0.999975 0.999978 0.999978 0.999982 0.999982 0.999985
0.999985 0.999987 0.999987 0.999987 0.999987 0.999986 0.999986 0.999982 0.999982 0.999976
0.999976 0.999967 0.999967 0.999956 0.999956 0.999945 0.999945 0.999936 0.999936 0.999929
0.999929 0.999929 0.999929 0.999935 0.999935 0.999949 0.999949 0.999971 0.999971 1
1 1.00003 1.00003 1.00007 1.00007 1.00011 1.00011 1.00015 1.00015 1.00018
1.00018 1.00021 1.00021 1.00022 1.00022 1.00023 1.00023 1.00023 1.00023 1.00022
1.00022 1.0002 1.0002 1.00018 1.00018 1.00015 1.00015 1.00013 1.00013 1.0001
1.0001 1.00008 1.00008 1.00005 1.00005 1.00003 1.00003 1.00001 1.00001 1
1 0.999991 0.999991 0.999983 0.999983 0.999978 0.999978 0.999974 0.999974 0.999972
0.999972 0.99997 0.99997 0.999969 0.999969 0.999969 0.999969 0.999969 0.999969 0.999969
0.999969 0.99997 0.99997 0.99997 0.99997 0.99997 0.99997 0.99997 0.99997 0.99997
0.99997 
p 1 202 float
1 1 1 1 1 1 1 1 1 1 1
1 1 1 1 1 1 1 1 1 1
1 1 1 1 1 1 1 1 1 1
1 1 1 1 1 1 1 1 1 1
1 1 1 1 1 1 1 1 1 1
1 1 1 1 1 1 1 1 1 1
1 1 1 1 1 1 1 1 1 1
1 1 1 1 1 1 1 1 1 1
1 1 1 1 1 1 1 1 1 1
1 0.999999 0.999999 0.999996 0.999996 0.99999 0.99999 0.999982 0.999982 0.99997
0.99997 0.999956 0.999956 0.999942 0.999942 0.999927 0.999927 0.999916 0.999916 0.99991
0.99991 0.999914 0.999914 0.99993 0.99993 0.99996 0.99996 1 1 1.00006
1.00006 1.00013 1.00013 1.00021 1.00021 1.0003 1.0003 1.00038 1.00038 1.00046
1.00046 1.00052 1.00052 1.00058 1.00058 1.00061 1.00061 1.00063 1.00063 1.00064
1.00064 1.00062 1.00062 1.00059 1.00059 1.00055 1.00055 1.0005 1.0005 1.00045
1.00045 1.00039 1.00039 1.00033 1.00033 1.00028 1.00028 1.00022 1.00022 1.00018
1.00018 1.00014 1.00014 1.0001 1.0001 1.00007 1.00007 1.00005 1.00005 1.00004
1.00004 1.00002 1.00002 1.00002 1.00002 1.00001 1.00001 1 1 1
1 1 1 1 1 1 1 1 1 1
1 1 1 1 1 1 1 1 1 1
1 
T 1 202 float
1 1 1 1 1 1 1 1 1 1 1
1 1 1 1 1 1 1 1 1 1
1 1 1 1 1 1 1 1 1 1
1 1 1 1 1 1 1 1 1 1
1 1 1 1 1 1 1 1 1 1
1 1 1 1 1 1 1 1 1 1
1 1 1 1 1 1 1 1 1 1
1 1 1 1 1 1 1 1 1 1
1 1 1 1 1 1 1 1 1 1
1 1 1 1 1 1 1 1 1 1
1 1 1 1 1 1 1 1 1 1
1 1 1 1 1 1 1 1 1 1
1 1 1 1 1 1 1 1 1 1
1 1 1 1 1 1 1 1 1 1
1 1 1 1 1 1 1 1 1 1
1 1 1 1 1 1 1 1 1 1
1 1 1 1 1 1 1 1 1 1
1 1 1 1 1 1 1 1 1 1
1 1 1 1 1 1 1 1 1 1
1 1 1 1 1 1 1 1 1 1
1 
e 1 202 float
1006.29 1006.29 1006.29 1006.29 1006.29 1006.29 1006.29 1006.29 1006.29 1006.29 1006.29
1006.29 1006.29 1006.29 1006.29 1006.29 1006.29 1006.29 1006.29 1006.29 1006.29
1006.29 1006.29 1006.29 1006.29 1006.29 1006.29 1006.29 1006.29 1006.29 1006.29
1006.29 1006.29 1006.29 1006.29 1006.29 1006.29 1006.29 1006.29 1006.29 1006.29
1006.29 1006.29 1006.29 1006.29 1006.29 1006.29 1006.29 1006.29 1006.29 1006.29
1006.29 1006.29 1006.29 1006.29 1006.29 1006.29 1006.29 1006.29 1006.29 1006.29
1006.29 1006.29 1006.29 1006.29 1006.29 1006.29 1006.29 1006.29 1006.29 1006.29
1006.29 1006.29 1006.29 1006.29 1006.29 1006.29 1006.29 1006.29 1006.29 1006.29
1006.29 1006.29 1006.29 1006.29 1006.29 1006.29 1006.29 1006.29 1006.29 1006.29
1006.29 1006.29 1006.29 1006.29 1006.29 1006.29 1006.29 1006.29 1006.29 1006.29
1006.29 1006.29 1006.29 1006.29 1006.29 1006.29 1006.29 1006.29 1006.29 1006.29
1006.29 1006.29 1006.29 1006.29 1006.29 1006.29 1006.29 1006.29 1006.29 1006.29
1006.29 1006.29 1006.29 1006.29 1006.29 1006.29 1006.29 1006.29 1006.29 1006.29
1006.29 1006.29 1006.29 1006.29 1006.29 1006.29 1006.29 1006.29 1006.29 1006.29
1006.29 1006.29 1006.29 1006.29 1006.29 1006.29 1006.29 1006.29 1006.29 1006.29
1006.29 1006.29 1006.29 1006.29 1006.29 1006.29 1006.29 1006.29 1006.29 1006.29
1006.29 1006.29 1006.29 1006.29 1006.29 1006.29 1006.29 1006.29 1006.29 1006.29
1006.29 1006.29 1006.29 1006.29 1006.29 1006.29 1006.29 1006.29 1006.29 1006.29
1006.29 1006.29 1006.29 1006.29 1006.29 1006.29 1006.29 1006.29 1006.29 1006.29
1006.29 1006.29 1006.29 1006.29 1006.29 1006.29 1006.29 1006.29 1006.29 1006.29
1006.29 
rho 1 202 float
1.4 1.4 1.4 1.4 1.40001 1.40001 1.40001 1.40001 1.40001 1.40001 1.40001
1.40001 1.40001 1.40001 1.40001 1.40001 1.40001 1.40001 1.4 1.4 1.4
1.4 1.40001 1.40001 1.40001 1.40001 1.40001 1.40001 1.40001 1.40001 1.40001
1.40001 1.4 1.4 1.4 1.4 1.40001 1.40001 1.4 1.4 1.4
1.4 1.40001 1.40001 1.4 1.4 1.4 1.4 1.4 1.4 1.40001
1.40001 1.40001 1.40001 1.4 1.4 1.4 1.4 1.4 1.4 1.4
1.4 1.40001 1.40001 1.40001 1.40001 1.4 1.4 1.4 1.4 1.4
1.4 1.40001 1.40001 1.40001 1.40001 1.40001 1.40001 1.40001 1.40001 1.40001
1.40001 1.40001 1.40001 1.40001 1.40001 1.40001 1.40001 1.40001 1.40001 1.40001
1.40001 1.4 1.4 1.4 1.4 1.39999 1.39999 1.39998 1.39998 1.39997
1.39997 1.39995 1.39995 1.39992 1.39992 1.3999 1.3999 1.39989 1.39989 1.39988
1.39988 1.39989 1.39989 1.39991 1.39991 1.39995 1.39995 1.40001 1.40001 1.40009
1.40009 1.40019 1.40019 1.4003 1.4003 1.40042 1.40042 1.40053 1.40053 1.40065
1.40065 1.40074 1.40074 1.40081 1.40081 1.40086 1.40086 1.40089 1.40089 1.40089
1.40089 1.40087 1.40087 1.40083 1.40083 1.40077 1.40077 1.4007 1.4007 1.40063
1.40063 1.40055 1.40055 1.40047 1.40047 1.40039 1.40039 1.40032 1.40032 1.40025
1.40025 1.4002 1.4002 1.40015 1.40015 1.40011 1.40011 1.40008 1.40008 1.40006
1.40006 1.40004 1.40004 1.40003 1.40003 1.40001 1.40001 1.40001 1.40001 1.40001
1.40001 1.4 1.4 1.4 1.4 1.4 1.4 1.4 1.4 1.4
1.4 1.4 1.4 1.4 1.4 1.4 1.4 1.4 1.4 1.4
1.4 
U 3 202 float
0.8944 0.4472 0 0.8944 0.4472 0 0.8944 0.4472 0 0.8944 0.4472
0 0.8944 0.4472 0 0.8944 0.4472 0 0.8944 0.4472 0
0.8944 0.4472 0 0.8944 0.4472 0 0.8944 0.4472 0 0.8944
0.4472 0 0.8944 0.4472 0 0.8944 0.4472 0 0.8944 0.4472
0 0.8944 0.4472 0 0.8944 0.4472 0 0.8944 0.4472 0
0.8944 0.4472 0 0.8944 0.4472 0 0.8944 0.4472 0 0.8944
0.4472 0 0.8944 0.4472 0 0.8944 0.4472 0 0.8944 0.4472
0 0.8944 0.4472 0 0.8944 0.4472 0 0.8944 0.4472 0
0.8944 0.4472 0 0.8944 0.4472 0 0.8944 0.4472 0 0.8944
0.4472 0 0.8944 0.4472 0 0.8944 0.4472 0 0.8944 0.4472
0 0.8944 0.4472 0 0.8944 0.4472 0 0.8944 0.4472 0
0.8944 0.4472 0 0.8944 0.4472 0 0.8944 0.4472 0 0.8944
0.4472 0 0.8944 0.4472 0 0.8944 0.4472 0 0.8944 0.4472
0 0.8944 0.4472 0 0.8944 0.4472 0 0.8944 0.4472 0
0.8944 0.4472 0 0.8944 0.4472 0 0.8944 0.4472 0 0.8944
0.4472 0 0.8944 0.4472 0 0.8944 0.4472 0 0.8944 0.4472
0 0.8944 0.4472 0 0.8944 0.4472 0 0.8944 0.4472 0
0.8944 0.4472 0 0.8944 0.4472 0 0.8944 0.4472 0 0.8944
0.4472 0 0.8944 0.4472 0 0.8944 0.4472 0 0.8944 0.4472
0 0.8944 0.4472 0 0.8944 0.4472 0 0.8944 0.4472 0
0.8944 0.4472 0 0.8944 0.4472 0 0.8944 0.4472 0 0.8944
0.4472 0 0.8944 0.4472 0 0.8944 0.4472 0 0.8944 0.4472
0 0.8944 0.4472 0 0.8944 0.4472 0 0.8944 0.4472 0
0.8944 0.4472 0 0.8944 0.4472 0 0.8944 0.4472 0 0.894399
0.447201 0 0.894399 0.447201 0 0.894399 0.447201 0 0.894399 0.447201
0 0.8944 0.447201 0 0.8944 0.447201 0 0.8944 0.447202 0
0.8944 0.447202 0 0.8944 0.447203 0 0.8944 0.447203 0 0.894401
0.447203 0 0.894401 0.447203 0 0.894403 0.447202 0 0.894403 0.447202
0 0.894406 0.4472 0 0.894406 0.4472 0 0.894411 0.447197 0
0.894411 0.447197 0 0.894418 0.447192 0 0.894418 0.447192 0 0.894425
0.447184 0 0.894425 0.447184 0 0.894432 0.447173 0 0.894432 0.447173
0 0.89444 0.447161 0 0.89444 0.447161 0 0.894445 0.447147 0
0.894445 0.447147 0 0.894447 0.447134 0 0.894447 0.447134 0 0.894445
0.447125 0 0.894445 0.447125 0 0.894436 0.447122 0 0.894436 0.447122
0 0.894421 0.447128 0 0.894421 0.447128 0 0.8944 0.447145 0
0.8944 0.447145 0 0.894373 0.447176 0 0.894373 0.447176 0 0.894345
0.447221 0 0.894345 0.447221 0 0.894315 0.447278 0 0.894315 0.447278
0 0.894288 0.447346 0 0.894288 0.447346 0 0.894266 0.447421 0
0.894266 0.447421 0 0.894252 0.447498 0 0.894252 0.447498 0 0.894247
0.447573 0 0.894247 0.447573 0 0.894252 0.447641 0 0.894252 0.447641
0 0.894266 0.447697 0 0.894266 0.447697 0 0.894289 0.447739 0
0.894289 0.447739 0 0.894318 0.447764 0 0.894318 0.447764 0 0.89435
0.44777 0 0.89435 0.44777 0 0.894383 0.447759 0 0.894383 0.447759
0 0.894415 0.447733 0 0.894415 0.447733 0 0.894443 0.447695 0
0.894443 0.447695 0 0.894466 0.447648 0 0.894466 0.447648 0 0.894482
0.447594 0 0.894482 0.447594 0 0.894491 0.447539 0 0.894491 0.447539
0 0.894495 0.447484 0 0.894495 0.447484 0 0.894493 0.447431 0
0.894493 0.447431 0 0.894487 0.447383 0 0.894487 0.447383 0 0.894477
0.447341 0 0.894477 0.447341 0 0.894466 0.447306 0 0.894466 0.447306
0 0.894454 0.447276 0 0.894454 0.447276 0 0.894443 0.447253 0
0.894443 0.447253 0 0.894433 0.447235 0 0.894433 0.447235 0 0.894424
0.447222 0 0.894424 0.447222 0 0.894417 0.447213 0 0.894417 0.447213
0 0.894412 0.447207 0 0.894412 0.447207 0 0.894407 0.447203 0
0.894407 0.447203 0 0.894404 0.447201 0 0.894404 0.447201 0 0.894403
0.4472 0 0.894403 0.4472 0 0.894401 0.447199 0 0.894401 0.447199
0 0.8944 0.447199 0 0.8944 0.447199 0 0.8944 0.447199 0
0.8944 0.447199 0 0.8944 0.447199 0 0.8944 0.447199 0 0.8944
0.447199 0 0.8944 0.447199 0 0.8944 0.4472 0 0.8944 0.4472
0 0.8944 0.4472 0 0.8944 0.4472 0 0.8944 0.4472 0
0.8944 0.4472 0 0.8944 0.4472 0 0.8944 0.4472 0 0.8944
0.4472 0 0.8944 0.4472 0 
