/*--------------------------------*- C++ -*----------------------------------*\
  =========                 |
  \\      /  F ield         | OpenFOAM: The Open Source CFD Toolbox
   \\    /   O peration     | Website:  https://openfoam.org
    \\  /    A nd           | Version:  6
     \\/     M anipulation  |
\*---------------------------------------------------------------------------*/
FoamFile
{
    version     2.0;
    format      ascii;
    class       volScalarField;
    location    "1.28";
    object      nut;
}
// * * * * * * * * * * * * * * * * * * * * * * * * * * * * * * * * * * * * * //

dimensions      [0 2 -1 0 0 0 0];

internalField   nonuniform List<scalar> 
4214
(
0.00504343
0.00444646
0.00595324
0.00859326
0.0106723
0.0115125
0.0114641
0.0108245
0.00974375
0.00844769
0.00725021
0.00641285
0.00606633
0.00626533
0.00706522
0.00857729
0.0110614
0.0150751
0.0220498
0.0326744
0.0389707
0.0301561
0.0199724
0.0138511
0.0104204
0.00831685
0.00704991
0.00641398
0.00633537
0.00677997
0.00769956
0.00895695
0.0102776
0.0113363
0.011907
0.0118466
0.0108677
0.00865889
0.00595688
0.00444169
0.00504395
0.00552554
0.00799453
0.010022
0.0111015
0.0114829
0.0114342
0.0110234
0.0102307
0.00910433
0.00786138
0.0067932
0.00611709
0.00593241
0.00628639
0.00724127
0.00891895
0.0115964
0.0158587
0.0232155
0.0341352
0.0400196
0.0309556
0.0206268
0.0143445
0.0107768
0.00853971
0.0071412
0.00637036
0.00614859
0.00644086
0.00721277
0.00836398
0.00966454
0.0108045
0.0115581
0.0118858
0.0118241
0.0113181
0.0101174
0.00800354
0.00550616
0.00918727
0.0103016
0.010881
0.0111157
0.0111172
0.0108956
0.0103866
0.00953822
0.00842222
0.00727432
0.00636023
0.00585577
0.00583724
0.00634998
0.00746545
0.00931603
0.0121974
0.016727
0.0244878
0.0356924
0.0410977
0.0318049
0.0213427
0.014904
0.0111949
0.00881812
0.00728105
0.00636894
0.00599836
0.00613062
0.00673875
0.00775167
0.00898475
0.0101492
0.0109888
0.0114328
0.0115514
0.0114287
0.01107
0.0103789
0.00918418
0.00986278
0.0103172
0.0105365
0.0105912
0.0104986
0.0102144
0.0096554
0.00878943
0.00772429
0.00670425
0.00596134
0.00563431
0.00578458
0.00645977
0.00774192
0.00977252
0.012868
0.0176835
0.0258965
0.0373619
0.0422401
0.0327272
0.0221344
0.0155348
0.0116805
0.0091585
0.00747568
0.00641522
0.00589035
0.00585698
0.00629029
0.0071402
0.00826491
0.00940962
0.0102998
0.0108172
0.0110089
0.0109811
0.0107961
0.010451
0.00989244
0.00959329
0.00981414
0.00990259
0.00988765
0.00975319
0.00943533
0.00885262
0.00800374
0.00702739
0.00616229
0.00560258
0.0054566
0.00577837
0.00662059
0.00807653
0.0102953
0.0136164
0.0187385
0.0274271
0.0391195
0.0434275
0.0337302
0.0230151
0.016251
0.0122451
0.00957018
0.0077329
0.00651549
0.00582962
0.00562497
0.00587491
0.00654194
0.00752117
0.00860034
0.00950549
0.0100753
0.0103187
0.0103412
0.0102267
0.0100052
0.00966201
0.00899063
0.00909012
0.00911593
0.00907203
0.00892054
0.00858855
0.00800624
0.00720764
0.00635235
0.00566139
0.00529134
0.00532783
0.00582388
0.00683859
0.00847632
0.010892
0.0144521
0.019902
0.0290733
0.0409779
0.044682
0.0348381
0.0240206
0.0170696
0.0129017
0.0100644
0.00806264
0.00667821
0.00582346
0.00544197
0.00550289
0.00597353
0.00677773
0.00774822
0.00862935
0.0092293
0.00951114
0.00956732
0.00949255
0.00933808
0.00910992
0.0081866
0.00822639
0.00823167
0.00818607
0.00803509
0.00770501
0.00714597
0.00642782
0.00571862
0.00521321
0.00503488
0.00525406
0.0059279
0.00712146
0.00894988
0.0115719
0.0153865
0.0211859
0.0308566
0.0429422
0.0460168
0.0360668
0.0251733
0.0180096
0.0136659
0.0106547
0.00847728
0.00691426
0.00588127
0.00531666
0.00518476
0.00545133
0.00605964
0.00688409
0.00770113
0.00830558
0.00861284
0.00869107
0.00863718
0.00852017
0.00836242
0.00725702
0.00728821
0.00730525
0.00727603
0.00713559
0.00681935
0.00630394
0.00569105
0.00514446
0.00482868
0.00484099
0.00524274
0.00609918
0.00747892
0.00950797
0.0123466
0.0164346
0.0226131
0.0327893
0.0450159
0.047454
0.0374434
0.0264764
0.0190926
0.0145568
0.0113577
0.00899249
0.0072378
0.00601551
0.00526004
0.00493237
0.00499179
0.00539275
0.00604303
0.00675874
0.00734022
0.00766008
0.00775255
0.00770525
0.00760087
0.00747676
0.00628933
0.0063486
0.0063946
0.00638746
0.00625942
0.00596517
0.00551058
0.0050211
0.00464543
0.00451777
0.00471838
0.00530326
0.00634908
0.00792335
0.0101643
0.0132308
0.0176143
0.0242079
0.0348735
0.0472014
0.0490175
0.0390019
0.027963
0.020345
0.015598
0.0121947
0.00962841
0.00766731
0.00624257
0.0052862
0.00475924
0.00461102
0.00480122
0.00525991
0.0058435
0.00637456
0.00669441
0.00679829
0.0067509
0.0066416
0.00651781
0.00537951
0.00547595
0.00554888
0.00555745
0.00543757
0.00517147
0.00479184
0.00443714
0.00423425
0.00428986
0.00467724
0.00544738
0.00669205
0.0084704
0.0109364
0.0142432
0.018947
0.0259619
0.0371174
0.0495063
0.0507318
0.040776
0.0296771
0.0218067
0.01682
0.0131925
0.010411
0.00822673
0.00658424
0.00541349
0.00468165
0.00432505
0.00430668
0.00456616
0.00499579
0.00545079
0.00575738
0.00587403
0.0058293
0.00571155
0.00557218
0.00459092
0.004712
0.00479675
0.00480852
0.00469127
0.00446006
0.00416731
0.0039528
0.00392093
0.00415405
0.00473003
0.00568979
0.00714657
0.0091399
0.0118472
0.0154081
0.020461
0.0279068
0.039535
0.0519395
0.0526195
0.0427991
0.0316591
0.0235093
0.0182611
0.0143856
0.011374
0.00894676
0.00706945
0.00566576
0.00471978
0.00415041
0.00392784
0.00398722
0.00425056
0.00460683
0.00488471
0.00501595
0.00498313
0.0048663
0.0047145
0.00394134
0.00406727
0.00414572
0.00414934
0.00403259
0.00384538
0.00364985
0.00357654
0.00371386
0.00411991
0.00489227
0.00604859
0.00773667
0.00995605
0.0129271
0.0167572
0.0221925
0.0300705
0.04214
0.0545121
0.0547005
0.0451055
0.0339565
0.0255044
0.0199707
0.0158183
0.0125601
0.00986691
0.00773599
0.00607333
0.00489937
0.00410518
0.00368138
0.00354144
0.00363436
0.00387286
0.00410358
0.00424694
0.00423537
0.004135
0.00398461
0.0034186
0.00353255
0.00359026
0.00358024
0.00346777
0.00333589
0.00324723
0.00331299
0.00362192
0.00419813
0.00518412
0.00654528
0.00849342
0.0109486
0.0142158
0.0183291
0.0241878
0.0324838
0.0449501
0.0572417
0.056992
0.0477312
0.0366215
0.0278501
0.0220118
0.0175465
0.0140239
0.0110365
0.00863214
0.00667378
0.00525398
0.00421019
0.00358437
0.00324077
0.00316489
0.00326982
0.00343321
0.00357871
0.00359211
0.00352292
0.00338889
0.00300137
0.00309263
0.00312087
0.00309902
0.00300073
0.00293569
0.00296486
0.00316491
0.00365754
0.00440121
0.00563333
0.00720474
0.00945762
0.0121541
0.0157663
0.0201714
0.0265074
0.0351825
0.0479884
0.0601513
0.0594988
0.0507134
0.0397124
0.030613
0.0244637
0.0196384
0.0158371
0.0125138
0.00981978
0.00751193
0.00582849
0.00448992
0.00365837
0.00309317
0.00285366
0.00280958
0.00288734
0.00301686
0.0030504
0.00302265
0.00291606
0.0026701
0.00273379
0.00272937
0.00270418
0.00263595
0.00264607
0.00281041
0.00313463
0.00384222
0.00474336
0.00628132
0.00805433
0.0106868
0.0136139
0.0176536
0.0223384
0.029233
0.0381989
0.0512676
0.0632375
0.0621644
0.0540652
0.0432846
0.0338631
0.0274276
0.0221743
0.0180934
0.0143654
0.0113808
0.00863774
0.00668597
0.00497243
0.00393688
0.00310525
0.00271238
0.00249614
0.00247699
0.00256464
0.00260487
0.00262326
0.00255019
0.00240919
0.00244576
0.00241105
0.00239559
0.00238217
0.00246581
0.00280162
0.00322337
0.00421749
0.00523688
0.00719705
0.00911865
0.012272
0.015368
0.0199939
0.0248802
0.0324837
0.0415317
0.0547416
0.0663991
0.0647775
0.0577051
0.0473599
0.0376504
0.0310384
0.0252382
0.0209257
0.0166591
0.0134346
0.0100988
0.007924
0.00568468
0.00448013
0.00328267
0.00276499
0.00232744
0.00221498
0.00222405
0.00225152
0.00231389
0.00227499
0.00220657
0.0022217
0.00216803
0.00217266
0.00226074
0.00238709
0.0029836
0.00342169
0.00487094
0.00587575
0.00851198
0.010398
0.01438
0.017429
0.0229896
0.0277977
0.0364548
0.0450777
0.0582673
0.069455
0.0670376
0.061441
0.0518955
0.0419405
0.0354958
0.0288747
0.0245551
0.019436
0.016187
0.0119129
0.00971795
0.0066316
0.00540973
0.00361942
0.00307261
0.00229279
0.00212823
0.00199425
0.0019936
0.00208452
0.00207295
0.00207102
0.00222665
0.00246274
0.00279671
0.00324674
0.00383251
0.00456844
0.00544464
0.00640431
0.00734516
0.00815991
0.00878998
0.0091598
0.00903956
0.00738216
0.00378304
0.00923595
0.00203437
0.00214543
0.00232453
0.00258647
0.00294789
0.00342721
0.00403906
0.00478013
0.00560968
0.00644651
0.00719629
0.00780088
0.00817686
0.00811213
0.00666134
0.00355165
0.00899362
0.00199316
0.00207462
0.002209
0.00241048
0.00269488
0.00307917
0.00357704
0.00418862
0.00488474
0.00560263
0.00626438
0.00681664
0.00718184
0.00716723
0.00595489
0.00336781
0.00869582
0.0019709
0.00202294
0.00211817
0.00226804
0.00248605
0.00278687
0.00318256
0.00367498
0.00424366
0.00484099
0.00540507
0.00588857
0.0062279
0.00625259
0.00528423
0.00321587
0.00838998
0.00194777
0.00198118
0.0020468
0.00215464
0.00231672
0.00254585
0.00285255
0.00323934
0.00369225
0.00417592
0.00464266
0.005051
0.00535421
0.00540579
0.00466823
0.00309094
0.00808161
0.00193892
0.00195498
0.001995
0.00206758
0.00218287
0.00235172
0.00258286
0.00287889
0.00323052
0.00361261
0.00398928
0.00432483
0.00458599
0.0046573
0.00411939
0.00298262
0.00777523
0.00193362
0.00193729
0.00195811
0.00200275
0.00208016
0.00219975
0.00236864
0.00258917
0.00285521
0.00314971
0.00344679
0.00371733
0.00393667
0.00402085
0.00364494
0.00288135
0.00747146
0.0019346
0.00192987
0.00193547
0.00195787
0.00200515
0.00208547
0.00220455
0.00236416
0.00256009
0.00278139
0.0030103
0.00322532
0.0034073
0.00349519
0.00324901
0.00278677
0.00717091
0.00194235
0.0019297
0.00192409
0.00193
0.00195444
0.00200453
0.00208488
0.00219665
0.00233694
0.00249899
0.00267175
0.00284032
0.00299111
0.0030776
0.00293389
0.00270552
0.00687932
0.00194999
0.00193539
0.00192264
0.001917
0.00192498
0.00195258
0.00200354
0.00207868
0.00217615
0.00229222
0.00242045
0.00255252
0.00267913
0.00276404
0.0027044
0.00264911
0.00660613
0.0019664
0.00194715
0.00192944
0.00191643
0.00191336
0.00192496
0.00195419
0.00200202
0.0020676
0.00214963
0.00224511
0.00235195
0.0024629
0.00255216
0.00255981
0.00263916
0.00635725
0.00197838
0.00196153
0.00194263
0.00192594
0.00191611
0.00191684
0.00193051
0.00195853
0.00200129
0.00205962
0.00213348
0.00222711
0.00233365
0.00243887
0.00250494
0.00272011
0.00613525
0.00200013
0.00198094
0.00196137
0.00194327
0.00192976
0.00192352
0.00192658
0.0019408
0.00196795
0.00201086
0.00207269
0.00216397
0.0022795
0.00241813
0.00255605
0.00292963
0.00594687
0.00201501
0.0020008
0.0019834
0.00196591
0.00195101
0.00194081
0.00193723
0.00194249
0.00195962
0.00199319
0.00205014
0.00214631
0.00228337
0.0024758
0.00271814
0.00328763
0.00579746
0.00203947
0.00202439
0.00200821
0.00199182
0.00197689
0.001965
0.00195791
0.00195813
0.00196952
0.00199817
0.00205464
0.00215867
0.00232436
0.00258547
0.00296767
0.00374487
0.00568626
0.00205625
0.00204679
0.00203339
0.00201881
0.00200483
0.00199287
0.00198462
0.00198275
0.00199154
0.00201831
0.00207643
0.00218859
0.00238264
0.00271189
0.00324494
0.00419719
0.00560716
0.00208093
0.00207086
0.00205855
0.00204556
0.00203297
0.00202195
0.00201404
0.00201198
0.00202022
0.00204697
0.00210734
0.00222638
0.00244272
0.00282405
0.003476
0.00457479
0.00555485
0.00209829
0.00209242
0.00208199
0.00207088
0.00205996
0.00205039
0.00204361
0.00204234
0.00205111
0.00207871
0.00214079
0.00226455
0.00249499
0.00290207
0.00361342
0.00481241
0.00552516
0.00212033
0.0021135
0.00210382
0.00209434
0.00208507
0.00207706
0.00207164
0.00207143
0.00208102
0.0021093
0.00217216
0.00229794
0.00253446
0.00294437
0.0036543
0.00487649
0.00551768
0.00213642
0.00213178
0.00212347
0.00211563
0.00210785
0.00210128
0.00209713
0.00209785
0.00210805
0.00213631
0.00219846
0.00232322
0.00255919
0.00296176
0.0036207
0.00477848
0.0055296
0.00215349
0.00214871
0.00214138
0.00213483
0.0021283
0.0021229
0.00211967
0.00212104
0.00213132
0.00215875
0.00221865
0.00233935
0.00256878
0.002957
0.00354757
0.00458347
0.00556374
0.00216768
0.00216361
0.0021575
0.002152
0.00214647
0.00214193
0.00213934
0.00214096
0.00215085
0.00217676
0.0022333
0.00234793
0.00256678
0.00293664
0.00348255
0.00436245
0.00562376
0.00218058
0.00217732
0.00217215
0.00216738
0.0021626
0.00215863
0.00215637
0.00215786
0.00216687
0.00219054
0.00224263
0.00234925
0.00255486
0.00290833
0.00342313
0.00417424
0.005709
0.00219274
0.00218973
0.00218535
0.00218122
0.002177
0.00217338
0.00217118
0.00217219
0.00217984
0.00220066
0.00224739
0.00234474
0.00253611
0.00287527
0.00337879
0.00407893
0.00581911
0.00220377
0.00220144
0.00219765
0.00219394
0.00219011
0.00218671
0.00218442
0.00218476
0.00219076
0.00220835
0.00224917
0.00233646
0.00251297
0.00283958
0.00335066
0.00406795
0.00595441
0.00221444
0.00221225
0.00220906
0.00220584
0.00220239
0.00219917
0.00219674
0.00219639
0.00220067
0.00221491
0.00224959
0.0023264
0.00248753
0.00280187
0.00333234
0.00411407
0.00611611
0.00222435
0.00222282
0.0022201
0.00221728
0.00221422
0.00221123
0.00220876
0.00220781
0.00221054
0.00222149
0.00225015
0.0023164
0.00246155
0.00276197
0.00331477
0.00419039
0.00630602
0.00223425
0.00223286
0.0022308
0.00222852
0.00222596
0.00222332
0.00222094
0.00221963
0.0022211
0.00222912
0.00225208
0.00230801
0.00243666
0.00272023
0.00329092
0.00427672
0.0065258
0.00224371
0.002243
0.00224149
0.00223981
0.00223785
0.00223572
0.00223366
0.00223226
0.00223287
0.00223852
0.00225627
0.0023024
0.00241412
0.00267674
0.00325497
0.00435486
0.0067765
0.00225321
0.00225292
0.00225223
0.0022513
0.00225009
0.00224866
0.00224717
0.00224602
0.00224621
0.00225012
0.00226346
0.00230037
0.0023949
0.00263187
0.00320309
0.00441385
0.00705858
0.00226264
0.00226314
0.00226319
0.00226311
0.0022628
0.00226228
0.00226162
0.00226107
0.00226134
0.00226419
0.00227409
0.00230265
0.00238026
0.00258749
0.00313432
0.00444307
0.00737192
0.0022721
0.00227335
0.0022744
0.00227533
0.00227609
0.00227667
0.0022771
0.00227752
0.00227836
0.00228087
0.00228838
0.00230999
0.00237152
0.00254644
0.00305118
0.00442974
0.00771591
0.00228173
0.00228393
0.00228595
0.002288
0.00228999
0.00229189
0.00229367
0.0022954
0.00229733
0.00230026
0.00230652
0.00232291
0.00237
0.00251214
0.00295931
0.00436285
0.00808961
0.0022915
0.00229465
0.00229787
0.00230118
0.00230456
0.00230796
0.00231136
0.00231475
0.00231827
0.00232237
0.00232859
0.00234166
0.00237704
0.00248789
0.00286637
0.00423614
0.00849179
0.00230149
0.00230577
0.00231019
0.00231489
0.00231981
0.00232493
0.0023302
0.00233562
0.00234123
0.00234727
0.00235465
0.00236646
0.00239354
0.00247666
0.00278143
0.0040516
0.0089211
0.00231171
0.00231713
0.00232295
0.00232917
0.0023358
0.00234284
0.00235026
0.00235807
0.00236629
0.00237503
0.00238481
0.00239744
0.00241993
0.00248111
0.00271369
0.00382216
0.00937599
0.00232222
0.00232894
0.00233618
0.00234406
0.00235258
0.00236176
0.00237164
0.00238223
0.00239359
0.00240583
0.00241922
0.00243479
0.00245663
0.00250324
0.00267133
0.00357146
0.00985484
0.00233305
0.00234109
0.00234994
0.00235963
0.00237023
0.00238181
0.00239446
0.00240828
0.00242339
0.00243997
0.00245826
0.00247889
0.00250407
0.00254432
0.00266173
0.00333162
0.0103559
0.00234423
0.00235375
0.00236428
0.00237594
0.00238883
0.00240309
0.0024189
0.00243646
0.00245602
0.00247791
0.00250251
0.00253043
0.002563
0.00260547
0.00269113
0.00313562
0.0108769
0.00235583
0.00236689
0.00237926
0.00239307
0.0024085
0.00242578
0.00244519
0.00246711
0.00249197
0.00252034
0.00255293
0.00259069
0.00263497
0.00268859
0.00276493
0.00301735
0.0114155
0.00236843
0.00238002
0.00239151
0.00240283
0.00241395
0.00242478
0.00243529
0.00244539
0.00245504
0.00246418
0.00247276
0.00248073
0.00248803
0.00249463
0.00250048
0.00250554
0.00250979
0.0025132
0.00251575
0.00251743
0.00251817
0.0025174
0.0025157
0.00251312
0.00250968
0.0025054
0.00250031
0.00249444
0.00248782
0.00248048
0.00247249
0.00246388
0.00245472
0.00244504
0.00243491
0.00242439
0.00241353
0.00240239
0.00239105
0.00237953
0.0023679
0.00238112
0.00239334
0.00240542
0.00241726
0.00242887
0.00244014
0.00245106
0.00246153
0.00247152
0.00248096
0.00248982
0.00249802
0.00250554
0.00251231
0.00251832
0.0025235
0.00252785
0.00253133
0.00253393
0.00253563
0.00253637
0.00253561
0.00253389
0.00253126
0.00252775
0.00252338
0.00251816
0.00251213
0.00250534
0.00249779
0.00248957
0.00248068
0.00247122
0.0024612
0.00245071
0.00243977
0.00242848
0.00241685
0.00240499
0.00239289
0.00238065
0.00239539
0.00240824
0.00242085
0.00243322
0.00244528
0.002457
0.00246829
0.00247913
0.00248944
0.00249918
0.00250829
0.00251672
0.00252443
0.00253138
0.00253752
0.00254283
0.00254727
0.00255082
0.00255346
0.00255518
0.00255591
0.00255516
0.00255342
0.00255075
0.00254718
0.00254272
0.00253738
0.00253122
0.00252425
0.00251651
0.00250805
0.00249892
0.00248916
0.00247883
0.00246797
0.00245666
0.00244493
0.00243285
0.00242047
0.00240784
0.00239498
0.0024115
0.00242491
0.00243805
0.0024509
0.00246341
0.00247553
0.00248721
0.00249838
0.00250899
0.002519
0.00252836
0.00253701
0.0025449
0.00255201
0.00255829
0.0025637
0.00256823
0.00257184
0.00257452
0.00257625
0.00257697
0.00257623
0.00257448
0.00257178
0.00256814
0.0025636
0.00255816
0.00255186
0.00254473
0.00253681
0.00252814
0.00251877
0.00250874
0.00249811
0.00248692
0.00247523
0.00246309
0.00245056
0.0024377
0.00242455
0.00241113
0.0024297
0.00244365
0.00245727
0.00247057
0.00248351
0.00249601
0.00250804
0.00251952
0.00253042
0.00254069
0.00255026
0.00255911
0.00256717
0.00257443
0.00258082
0.00258633
0.00259093
0.0025946
0.00259731
0.00259905
0.00259977
0.00259903
0.00259727
0.00259454
0.00259086
0.00258624
0.00258071
0.00257429
0.00256702
0.00255893
0.00255007
0.00254048
0.0025302
0.00251928
0.00250778
0.00249574
0.00248322
0.00247028
0.00245696
0.00244333
0.00242937
0.00245034
0.00246479
0.00247886
0.00249258
0.0025059
0.00251875
0.0025311
0.00254287
0.00255402
0.00256451
0.00257429
0.0025833
0.00259152
0.00259889
0.00260539
0.00261099
0.00261565
0.00261935
0.00262209
0.00262383
0.00262454
0.00262382
0.00262206
0.0026193
0.00261558
0.0026109
0.00260529
0.00259878
0.00259138
0.00258315
0.00257412
0.00256433
0.00255382
0.00254266
0.00253087
0.00251852
0.00250565
0.00249232
0.00247859
0.00246451
0.00245005
0.00247387
0.00248877
0.00250325
0.00251734
0.00253099
0.00254415
0.00255677
0.00256879
0.00258017
0.00259085
0.00260079
0.00260994
0.00261828
0.00262575
0.00263233
0.00263798
0.00264269
0.00264643
0.00264917
0.00265092
0.00265162
0.00265091
0.00264915
0.00264638
0.00264263
0.00263791
0.00263224
0.00262565
0.00261816
0.00260981
0.00260064
0.00259069
0.00257999
0.00256861
0.00255658
0.00254395
0.00253078
0.00251712
0.00250301
0.00248853
0.00247362
0.00250086
0.00251615
0.00253097
0.00254537
0.0025593
0.00257271
0.00258555
0.00259777
0.00260931
0.00262013
0.00263019
0.00263945
0.00264787
0.00265541
0.00266204
0.00266773
0.00267246
0.00267621
0.00267896
0.00268069
0.00268138
0.00268068
0.00267893
0.00267617
0.00267241
0.00266767
0.00266196
0.00265532
0.00264777
0.00263934
0.00263007
0.00262
0.00260916
0.00259761
0.00258539
0.00257254
0.00255912
0.00254518
0.00253077
0.00251594
0.00250065
0.00253204
0.00254762
0.00256271
0.00257734
0.00259147
0.00260506
0.00261804
0.00263038
0.00264203
0.00265293
0.00266306
0.00267236
0.00268081
0.00268837
0.00269502
0.00270071
0.00270544
0.00270917
0.00271191
0.00271363
0.00271429
0.00271362
0.00271189
0.00270915
0.0027054
0.00270066
0.00269495
0.0026883
0.00268073
0.00267227
0.00266296
0.00265282
0.00264191
0.00263026
0.00261791
0.00260492
0.00259133
0.00257719
0.00256255
0.00254746
0.00253187
0.00256835
0.00258411
0.00259934
0.0026141
0.00262833
0.00264199
0.00265502
0.00266739
0.00267905
0.00268996
0.00270007
0.00270936
0.00271778
0.0027253
0.0027319
0.00273756
0.00274224
0.00274595
0.00274865
0.00275034
0.00275098
0.00275033
0.00274863
0.00274592
0.00274221
0.00273752
0.00273185
0.00272524
0.00271771
0.00270928
0.00269999
0.00268987
0.00267896
0.00266729
0.00265492
0.00264188
0.00262822
0.00261398
0.00259922
0.00258398
0.00256822
0.00261104
0.00262678
0.00264202
0.00265676
0.00267095
0.00268454
0.0026975
0.00270977
0.00272133
0.00273213
0.00274213
0.0027513
0.0027596
0.00276702
0.00277351
0.00277907
0.00278367
0.0027873
0.00278994
0.00279158
0.00279219
0.00279157
0.00278992
0.00278728
0.00278364
0.00277904
0.00277347
0.00276697
0.00275955
0.00275124
0.00274207
0.00273206
0.00272126
0.0027097
0.00269742
0.00268446
0.00267086
0.00265667
0.00264193
0.00262669
0.00261095
0.00266177
0.00267723
0.00269226
0.00270678
0.00272074
0.00273409
0.00274678
0.0027588
0.0027701
0.00278064
0.00279039
0.00279931
0.00280739
0.00281459
0.00282089
0.00282628
0.00283073
0.00283423
0.00283678
0.00283835
0.00283893
0.00283835
0.00283677
0.00283422
0.00283071
0.00282626
0.00282087
0.00281456
0.00280735
0.00279927
0.00279034
0.00278059
0.00277005
0.00275875
0.00274673
0.00273403
0.00272068
0.00270672
0.0026922
0.00267716
0.0026617
0.00272277
0.00273758
0.00275213
0.00276615
0.00277961
0.00279245
0.00280466
0.00281618
0.002827
0.00283708
0.00284639
0.00285491
0.0028626
0.00286945
0.00287544
0.00288055
0.00288477
0.00288808
0.00289048
0.00289196
0.0028925
0.00289196
0.00289048
0.00288808
0.00288476
0.00288054
0.00287542
0.00286943
0.00286258
0.00285488
0.00284636
0.00283705
0.00282697
0.00281615
0.00280462
0.00279242
0.00277957
0.00276611
0.00275209
0.00273754
0.00272273
0.0027972
0.00281081
0.00282446
0.0028376
0.00285017
0.00286216
0.00287353
0.00288424
0.00289428
0.00290362
0.00291224
0.0029201
0.0029272
0.00293351
0.00293902
0.00294372
0.00294759
0.00295063
0.00295282
0.00295416
0.00295464
0.00295416
0.00295282
0.00295062
0.00294758
0.00294371
0.00293901
0.0029335
0.00292719
0.00292009
0.00291222
0.0029036
0.00289426
0.00288422
0.0028735
0.00286214
0.00285015
0.00283757
0.00282444
0.00281078
0.00279717
0.0028895
0.00290113
0.00291329
0.00292497
0.00293612
0.00294673
0.00295678
0.00296622
0.00297505
0.00298326
0.00299081
0.0029977
0.0030039
0.00300941
0.00301421
0.0030183
0.00302166
0.0030243
0.00302619
0.00302735
0.00302776
0.00302735
0.00302619
0.00302429
0.00302166
0.0030183
0.00301421
0.0030094
0.00300389
0.00299769
0.0029908
0.00298325
0.00297504
0.00296621
0.00295676
0.00294672
0.00293611
0.00292496
0.00291328
0.00290112
0.00288949
0.00300624
0.00301473
0.00302451
0.00303387
0.0030428
0.00305127
0.00305926
0.00306677
0.00307377
0.00308026
0.00308623
0.00309165
0.00309653
0.00310086
0.00310463
0.00310783
0.00311046
0.00311251
0.00311399
0.00311489
0.0031152
0.00311488
0.00311399
0.00311251
0.00311045
0.00310783
0.00310462
0.00310086
0.00309653
0.00309165
0.00308622
0.00308026
0.00307377
0.00306677
0.00305926
0.00305126
0.00304279
0.00303387
0.0030245
0.00301473
0.00300624
0.0031573
0.00316098
0.00316699
0.00317273
0.00317819
0.00318335
0.0031882
0.00319275
0.00319699
0.0032009
0.00320449
0.00320775
0.00321067
0.00321326
0.00321551
0.00321741
0.00321898
0.0032202
0.00322107
0.0032216
0.00322178
0.0032216
0.00322107
0.0032202
0.00321898
0.00321741
0.00321551
0.00321326
0.00321067
0.00320775
0.00320449
0.0032009
0.00319699
0.00319275
0.0031882
0.00318335
0.00317819
0.00317273
0.00316699
0.00316098
0.0031573
0.00922032
0.00379556
0.00742372
0.00907476
0.009185
0.00878612
0.00810222
0.00722244
0.00624044
0.00528949
0.00446713
0.00380502
0.00328924
0.00289215
0.00258903
0.00236075
0.00219178
0.00897528
0.00356241
0.00670492
0.0081545
0.00821277
0.00781526
0.00716964
0.00637128
0.00550605
0.00468707
0.00399065
0.00343785
0.00301397
0.00269375
0.00245508
0.00228136
0.00215828
0.00867532
0.00337575
0.00599879
0.00721439
0.00722528
0.00684447
0.00626307
0.00556727
0.00483094
0.00414505
0.00356853
0.00311594
0.00277383
0.00252028
0.0023351
0.00220367
0.0021171
0.00836769
0.00322033
0.00532626
0.00630128
0.00627459
0.00592439
0.00542151
0.00483533
0.00422732
0.00366788
0.00320174
0.00283933
0.00256952
0.00237396
0.0022342
0.00213506
0.00206563
0.00805828
0.00309145
0.00470631
0.00545277
0.0054
0.00508945
0.00466888
0.00418904
0.00370035
0.00325552
0.0028878
0.00260487
0.00239824
0.00225306
0.00215368
0.00208744
0.00204451
0.00775156
0.00297945
0.00415124
0.00469858
0.00462699
0.00436103
0.00401824
0.0036347
0.00325132
0.00290648
0.00262394
0.00240944
0.00225682
0.00215374
0.00208638
0.00204441
0.00202224
0.00744826
0.00287634
0.00366999
0.00405381
0.00397034
0.00374794
0.00347345
0.00317336
0.00287942
0.00261876
0.00240765
0.00225061
0.00214338
0.00207558
0.00203447
0.00200973
0.00199591
0.00714938
0.00278208
0.00326758
0.00352053
0.00343276
0.00324895
0.003032
0.00280212
0.00258185
0.0023897
0.00223649
0.00212606
0.00205561
0.00201669
0.0019981
0.00199022
0.00198749
0.00686036
0.00270219
0.0029468
0.00309554
0.00300899
0.0028573
0.00268793
0.00251496
0.00235359
0.00221551
0.00210777
0.00203368
0.00199149
0.00197438
0.00197241
0.00197689
0.00198314
0.00659051
0.00264786
0.00271204
0.00277567
0.00269099
0.00256416
0.00243177
0.00230337
0.00218735
0.00209075
0.00201786
0.00197121
0.00194975
0.00194804
0.00195746
0.00196991
0.00198178
0.00634623
0.00263908
0.00256475
0.0025593
0.00247053
0.00235974
0.00225262
0.00215679
0.00207421
0.00200859
0.00196175
0.00193522
0.00192807
0.00193621
0.0019527
0.00197008
0.00198426
0.00612884
0.00271835
0.00250771
0.00244311
0.0023386
0.00223236
0.00213809
0.00206369
0.00200463
0.0019614
0.00193354
0.00192121
0.00192326
0.00193678
0.00195648
0.00197612
0.00199084
0.00594287
0.00292436
0.0025565
0.00242048
0.00228275
0.00216754
0.00207548
0.00201296
0.00196932
0.00194157
0.00192704
0.00192431
0.00193189
0.00194761
0.00196771
0.0019876
0.00200448
0.00579427
0.00327931
0.0027165
0.00247786
0.00228615
0.00214916
0.00205209
0.00199433
0.00196004
0.00194223
0.00193641
0.00193978
0.00195035
0.00196625
0.00198477
0.00200215
0.00201607
0.00568372
0.00373823
0.00296554
0.00258825
0.00232763
0.00216156
0.00205642
0.00199897
0.00196953
0.00195744
0.00195662
0.00196331
0.00197512
0.0019903
0.00200675
0.00202123
0.00203009
0.00560546
0.00419381
0.00324454
0.00271597
0.00238697
0.00219197
0.00207842
0.00201914
0.00199147
0.00198198
0.0019833
0.00199118
0.00200296
0.00201697
0.00203151
0.0020442
0.00205253
0.0055542
0.00457464
0.00347827
0.00282929
0.00244806
0.00223028
0.00210957
0.00204795
0.00202022
0.00201132
0.00201292
0.00202053
0.00203138
0.00204387
0.0020565
0.00206709
0.0020722
0.00552588
0.00481402
0.00361683
0.00290861
0.00250076
0.00226867
0.00214311
0.00207971
0.00205122
0.00204188
0.00204279
0.00204936
0.00205882
0.00206971
0.00208073
0.00209017
0.00209158
0.00551946
0.0048767
0.00365676
0.0029508
0.00254007
0.00230184
0.00217435
0.0021103
0.00208125
0.00207119
0.0020711
0.00207637
0.00208429
0.00209358
0.0021031
0.00211245
0.00211579
0.00553201
0.0047745
0.00362209
0.00296655
0.00256411
0.00232664
0.00220042
0.00213727
0.00210837
0.00209777
0.00209681
0.00210086
0.00210735
0.00211512
0.00212301
0.00213156
0.00213623
0.00556788
0.00458178
0.00354736
0.00296068
0.00257281
0.00234213
0.0022203
0.00215962
0.00213168
0.00212108
0.00211951
0.00212265
0.00212798
0.00213447
0.00214103
0.00214846
0.00215306
0.00562912
0.00436306
0.0034815
0.0029389
0.00256955
0.00235006
0.00223466
0.00217753
0.00215123
0.00214109
0.0021393
0.00214182
0.00214629
0.0021518
0.00215738
0.00216367
0.00216776
0.00571508
0.00417453
0.00342293
0.00290981
0.00255674
0.00235072
0.0022436
0.00219113
0.00216719
0.002158
0.0021564
0.00215859
0.00216249
0.00216726
0.00217202
0.00217712
0.00218072
0.00582549
0.00407899
0.0033786
0.00287612
0.00253726
0.00234569
0.00224806
0.00220109
0.00218011
0.00217234
0.00217126
0.00217341
0.00217699
0.0021812
0.00218531
0.0021897
0.00219298
0.00596074
0.00406814
0.00335026
0.00283983
0.00251352
0.00233698
0.00224959
0.00220866
0.00219099
0.00218493
0.00218454
0.0021868
0.00219018
0.00219397
0.00219765
0.00220155
0.00220417
0.00612213
0.00411434
0.00333158
0.0028015
0.00248755
0.00232658
0.00224983
0.00221515
0.00220089
0.00219658
0.00219691
0.00219931
0.0022025
0.00220592
0.00220918
0.00221236
0.00221448
0.00631155
0.0041906
0.00331342
0.00276101
0.00246115
0.00231634
0.00225027
0.00222169
0.00221077
0.00220804
0.00220897
0.00221144
0.00221441
0.00221745
0.00222021
0.00222281
0.0022248
0.00653074
0.00427664
0.00328891
0.00271879
0.00243596
0.0023078
0.00225214
0.00222931
0.00222134
0.00221989
0.00222121
0.00222357
0.0022262
0.00222875
0.00223102
0.00223322
0.00223468
0.0067808
0.00435386
0.00325231
0.00267488
0.00241325
0.00230214
0.00225633
0.00223873
0.00223315
0.00223257
0.00223397
0.00223602
0.00223814
0.00224008
0.00224175
0.0022432
0.00224402
0.00706219
0.00441162
0.00319981
0.00262981
0.00239399
0.00230012
0.00226354
0.00225036
0.00224653
0.00224636
0.00224752
0.00224901
0.00225042
0.00225163
0.00225255
0.00225319
0.00225352
0.00737487
0.00443963
0.00313059
0.0025854
0.00237941
0.00230247
0.00227422
0.00226447
0.00226169
0.00226145
0.002262
0.00226266
0.00226317
0.00226348
0.00226353
0.0022635
0.00226317
0.00771823
0.00442518
0.00304729
0.00254452
0.00237082
0.0023099
0.00228857
0.00228119
0.00227873
0.00227791
0.0022775
0.00227707
0.00227648
0.00227571
0.00227479
0.00227379
0.00227248
0.00809135
0.00435742
0.00295554
0.00251052
0.00236951
0.00232293
0.00230676
0.0023006
0.00229771
0.0022958
0.00229407
0.00229229
0.0022904
0.00228841
0.00228636
0.00228425
0.00228214
0.00849304
0.00423041
0.0028631
0.00248666
0.00237675
0.00234178
0.00232887
0.00232272
0.00231865
0.00231515
0.00231176
0.00230837
0.00230497
0.0023016
0.00229828
0.00229514
0.00229214
0.00892193
0.00404617
0.00277887
0.00247584
0.00239343
0.00236665
0.00235495
0.00234762
0.0023416
0.00233601
0.0023306
0.00232533
0.00232023
0.00231531
0.00231062
0.00230622
0.00230194
0.00937651
0.00381762
0.00271191
0.00248065
0.00241997
0.00239766
0.00238509
0.00237536
0.00236664
0.00235844
0.00235065
0.00234324
0.00233622
0.0023296
0.00232339
0.00231757
0.00231218
0.00985513
0.00356818
0.00267027
0.00250306
0.00245674
0.00243501
0.00241949
0.00240613
0.00239392
0.00238257
0.002372
0.00236215
0.00235299
0.00234449
0.00233662
0.0023294
0.00232286
0.010356
0.00332959
0.00266121
0.0025443
0.00250421
0.00247909
0.00245849
0.00244023
0.00242368
0.00240859
0.0023948
0.00238218
0.00237062
0.00236005