/*--------------------------------*- C++ -*----------------------------------*\
  =========                 |
  \\      /  F ield         | OpenFOAM: The Open Source CFD Toolbox
   \\    /   O peration     | Website:  https://openfoam.org
    \\  /    A nd           | Version:  6
     \\/     M anipulation  |
\*---------------------------------------------------------------------------*/
FoamFile
{
    version     2.0;
    format      ascii;
    class       volScalarField;
    location    "1.5";
    object      rho;
}
// * * * * * * * * * * * * * * * * * * * * * * * * * * * * * * * * * * * * * //

dimensions      [1 -3 0 0 0 0 0];

internalField   nonuniform List<scalar> 
5625
(
1.27593
1.20576
1.1301
1.05327
0.979563
0.912815
0.856202
0.812161
0.782394
0.767821
0.768525
0.783933
0.813228
0.855683
0.910537
0.976413
1.05071
1.12946
1.20763
1.27993
1.3417
1.38973
1.42289
1.44212
1.44991
1.44955
1.44427
1.43673
1.42881
1.4216
1.41561
1.41094
1.40747
1.405
1.4033
1.40216
1.40141
1.40092
1.40061
1.40041
1.40028
1.40019
1.40014
1.4001
1.40007
1.40005
1.40003
1.40002
1.40002
1.40001
1.40001
1.40001
1.40001
1.40001
1.40001
1.40001
1.40001
1.40001
1.40001
1.40001
1.40001
1.40001
1.40001
1.40001
1.40001
1.40001
1.40001
1.40001
1.40001
1.40001
1.40001
1.40001
1.40001
1.40001
1.40001
1.3032
1.24007
1.17121
1.10061
1.03231
0.970043
0.916987
0.875632
0.847749
0.834269
0.835272
0.850212
0.878266
0.918627
0.970356
1.03188
1.10053
1.17248
1.24308
1.30755
1.36177
1.40307
1.4307
1.44577
1.45076
1.44875
1.4427
1.43498
1.4272
1.42028
1.4146
1.41021
1.40698
1.40469
1.40311
1.40205
1.40135
1.4009
1.40061
1.40041
1.40029
1.4002
1.40014
1.4001
1.40007
1.40005
1.40004
1.40003
1.40002
1.40001
1.40001
1.40001
1.40001
1.40001
1.40001
1.40001
1.40001
1.40001
1.40001
1.40001
1.40001
1.40001
1.40001
1.40001
1.40001
1.40001
1.40001
1.40001
1.40001
1.40001
1.40001
1.40001
1.40001
1.40001
1.40001
1.33076
1.27521
1.21378
1.15011
1.08793
1.03084
0.981958
0.943786
0.918084
0.905759
0.90692
0.921075
0.947439
0.985144
1.03311
1.0896
1.15192
1.21644
1.27891
1.33508
1.38142
1.41578
1.43779
1.44872
1.451
1.44746
1.44077
1.43296
1.4254
1.41882
1.4135
1.40943
1.40645
1.40434
1.4029
1.40193
1.40129
1.40087
1.40059
1.40041
1.40029
1.4002
1.40014
1.4001
1.40007
1.40005
1.40004
1.40003
1.40002
1.40001
1.40001
1.40001
1.40001
1.40001
1.40001
1.40001
1.40001
1.40001
1.40001
1.40001
1.40001
1.40001
1.40001
1.40001
1.40001
1.40001
1.40001
1.40001
1.40001
1.40001
1.40001
1.40001
1.40001
1.40001
1.40001
1.35753
1.30993
1.25643
1.20024
1.14482
1.09353
1.04938
1.01479
0.991469
0.98031
0.981473
0.994547
1.0188
1.05332
1.09692
1.14776
1.20319
1.2598
1.31377
1.36142
1.39978
1.42723
1.44374
1.45072
1.4505
1.44564
1.43846
1.43069
1.42344
1.41726
1.41234
1.40861
1.40589
1.40398
1.40267
1.40179
1.40121
1.40083
1.40057
1.4004
1.40028
1.4002
1.40015
1.4001
1.40007
1.40005
1.40004
1.40003
1.40002
1.40001
1.40001
1.40001
1.40001
1.40001
1.40001
1.40001
1.40001
1.40001
1.40001
1.40001
1.40001
1.40001
1.40001
1.40001
1.40001
1.40001
1.40001
1.40001
1.40001
1.40001
1.40001
1.40001
1.40001
1.40001
1.40001
1.38245
1.34293
1.29763
1.24933
1.20112
1.1561
1.11709
1.08638
1.06558
1.05559
1.05663
1.06837
1.09014
1.12104
1.15978
1.20449
1.25262
1.30105
1.34641
1.38555
1.41607
1.43687
1.44822
1.45161
1.4492
1.44329
1.43582
1.42823
1.42137
1.41565
1.41115
1.40777
1.40532
1.40361
1.40244
1.40165
1.40113
1.40078
1.40055
1.40039
1.40028
1.4002
1.40014
1.4001
1.40007
1.40005
1.40004
1.40003
1.40002
1.40001
1.40001
1.40001
1.40001
1.40001
1.40001
1.40001
1.40001
1.40001
1.40001
1.40001
1.40001
1.40001
1.40001
1.40001
1.40001
1.40001
1.40001
1.40001
1.40001
1.40001
1.40001
1.40001
1.40001
1.40001
1.40001
1.40457
1.37301
1.33592
1.29563
1.25486
1.21639
1.18277
1.1561
1.13791
1.12909
1.12992
1.14014
1.15918
1.18613
1.21967
1.25797
1.29862
1.33883
1.3757
1.40659
1.42969
1.44431
1.45101
1.45128
1.4471
1.44043
1.4329
1.42562
1.41923
1.414
1.40995
1.40693
1.40476
1.40324
1.40221
1.40151
1.40104
1.40073
1.40052
1.40037
1.40027
1.40019
1.40014
1.4001
1.40007
1.40005
1.40004
1.40003
1.40002
1.40001
1.40001
1.40001
1.40001
1.40001
1.40001
1.40001
1.40001
1.40001
1.40001
1.40001
1.40001
1.40001
1.40001
1.40001
1.40001
1.40001
1.40001
1.40001
1.40001
1.40001
1.40001
1.40001
1.40001
1.40001
1.40001
1.42313
1.39913
1.36996
1.33754
1.30418
1.27227
1.24409
1.22152
1.20598
1.19835
1.19895
1.20758
1.22374
1.24656
1.27475
1.30655
1.33978
1.37199
1.40073
1.4239
1.4402
1.44933
1.45203
1.44976
1.44426
1.43717
1.42977
1.42293
1.41708
1.41237
1.40876
1.4061
1.4042
1.40288
1.40197
1.40136
1.40095
1.40068
1.40048
1.40035
1.40026
1.40019
1.40014
1.4001
1.40007
1.40005
1.40004
1.40003
1.40002
1.40001
1.40001
1.40001
1.40001
1.40001
1.40001
1.40001
1.40001
1.40001
1.40001
1.40001
1.40001
1.40001
1.40001
1.40001
1.40001
1.40001
1.40001
1.40001
1.40001
1.40001
1.40001
1.40001
1.40001
1.40001
1.40001
1.43764
1.42054
1.39875
1.37377
1.34749
1.32194
1.29906
1.28053
1.26764
1.26122
1.26158
1.26863
1.28189
1.30057
1.32345
1.3489
1.375
1.39967
1.42089
1.43709
1.4474
1.45187
1.45134
1.44715
1.4408
1.43359
1.42653
1.42022
1.41496
1.41079
1.40763
1.40531
1.40367
1.40253
1.40175
1.40122
1.40086
1.40062
1.40045
1.40033
1.40024
1.40018
1.40013
1.4001
1.40007
1.40005
1.40004
1.40003
1.40002
1.40001
1.40001
1.40001
1.40001
1.40001
1.40001
1.40001
1.40001
1.40001
1.40001
1.40001
1.40001
1.40001
1.40001
1.40001
1.40001
1.40001
1.40001
1.40001
1.40001
1.40001
1.40001
1.40001
1.40001
1.40001
1.40001
1.44788
1.43684
1.42166
1.40345
1.38371
1.36409
1.34623
1.33156
1.32123
1.31599
1.31614
1.32167
1.33215
1.34684
1.36462
1.38408
1.40357
1.42136
1.4359
1.44605
1.45135
1.45208
1.44911
1.44363
1.43687
1.42984
1.42327
1.41757
1.41291
1.40928
1.40655
1.40457
1.40317
1.4022
1.40153
1.40108
1.40078
1.40056
1.40041
1.40031
1.40023
1.40017
1.40012
1.40009
1.40007
1.40005
1.40003
1.40002
1.40002
1.40001
1.40001
1.40001
1.40001
1.40001
1.40001
1.40001
1.40001
1.40001
1.40001
1.40001
1.40001
1.40001
1.40001
1.40001
1.40001
1.40001
1.40001
1.40001
1.40001
1.40001
1.40001
1.40001
1.40001
1.40001
1.40001
1.45395
1.44799
1.43849
1.42621
1.41227
1.398
1.38471
1.37361
1.36567
1.36154
1.36154
1.36565
1.37353
1.38451
1.3976
1.41161
1.42519
1.43698
1.44582
1.45099
1.45233
1.45026
1.44563
1.43944
1.43266
1.42604
1.42008
1.41504
1.41099
1.40787
1.40555
1.40388
1.4027
1.40189
1.40133
1.40095
1.40069
1.40051
1.40038
1.40028
1.40021
1.40016
1.40012
1.40008
1.40006
1.40004
1.40003
1.40002
1.40002
1.40001
1.40001
1.40001
1.40001
1.40001
1.40001
1.40001
1.40001
1.40001
1.40001
1.40001
1.40001
1.40001
1.40001
1.40001
1.40001
1.40001
1.40001
1.40001
1.40001
1.40001
1.40001
1.40001
1.40001
1.40001
1.40001
1.4562
1.45428
1.44943
1.44212
1.43315
1.4235
1.41422
1.40628
1.40048
1.39739
1.39727
1.40012
1.40565
1.4133
1.42224
1.43151
1.44004
1.44682
1.45106
1.45235
1.45079
1.44684
1.44126
1.43486
1.42836
1.42231
1.41703
1.41267
1.40921
1.40658
1.40464
1.40326
1.40228
1.40161
1.40115
1.40083
1.40061
1.40046
1.40034
1.40026
1.40019
1.40014
1.40011
1.40008
1.40006
1.40004
1.40003
1.40002
1.40002
1.40001
1.40001
1.40001
1.40001
1.40001
1.40001
1.40001
1.40001
1.40001
1.40001
1.40001
1.40001
1.40001
1.40001
1.40001
1.40001
1.40001
1.40001
1.40001
1.40001
1.40001
1.40001
1.40001
1.40001
1.40001
1.40001
1.45521
1.45628
1.45502
1.45167
1.44675
1.44094
1.43505
1.4298
1.42584
1.42363
1.42342
1.42519
1.4287
1.43349
1.43892
1.44425
1.44869
1.45152
1.45228
1.4508
1.4473
1.44227
1.43633
1.43012
1.42415
1.41878
1.41421
1.4105
1.4076
1.40543
1.40383
1.4027
1.40191
1.40136
1.40098
1.40072
1.40054
1.4004
1.40031
1.40023
1.40018
1.40013
1.4001
1.40007
1.40005
1.40004
1.40003
1.40002
1.40002
1.40001
1.40001
1.40001
1.40001
1.40001
1.40001
1.40001
1.40001
1.40001
1.40001
1.40001
1.40001
1.40001
1.40001
1.40001
1.40001
1.40001
1.40001
1.40001
1.40001
1.40001
1.40001
1.40001
1.40001
1.40001
1.40001
1.45173
1.4548
1.45611
1.45571
1.4539
1.45112
1.44792
1.44486
1.44243
1.44096
1.44066
1.44153
1.44337
1.44584
1.44848
1.45074
1.45206
1.452
1.45033
1.44708
1.4425
1.43704
1.43121
1.42546
1.42015
1.41551
1.41165
1.40856
1.40618
1.40441
1.40312
1.40221
1.40157
1.40114
1.40083
1.40062
1.40047
1.40036
1.40027
1.40021
1.40016
1.40012
1.40009
1.40007
1.40005
1.40004
1.40003
1.40002
1.40001
1.40001
1.40001
1.40001
1.40001
1.40001
1.40001
1.40001
1.40001
1.40001
1.40001
1.40001
1.40001
1.40001
1.40001
1.40001
1.40001
1.40001
1.40001
1.40001
1.40001
1.40001
1.40001
1.40001
1.40001
1.40001
1.40001
1.44657
1.45077
1.45371
1.45532
1.45572
1.45517
1.45401
1.45263
1.45136
1.45048
1.45012
1.45029
1.45085
1.45156
1.45212
1.45214
1.45128
1.44931
1.44616
1.44196
1.43697
1.43159
1.42617
1.42106
1.41649
1.41258
1.40939
1.40687
1.40495
1.40353
1.40251
1.40179
1.40129
1.40094
1.4007
1.40053
1.4004
1.40031
1.40024
1.40018
1.40014
1.40011
1.40008
1.40006
1.40004
1.40003
1.40002
1.40002
1.40001
1.40001
1.40001
1.40001
1.40001
1.40001
1.40001
1.40001
1.40001
1.40001
1.40001
1.40001
1.40001
1.40001
1.40001
1.40001
1.40001
1.40001
1.40001
1.40001
1.40001
1.40001
1.40001
1.40001
1.40001
1.40001
1.40001
1.44049
1.44513
1.44892
1.45172
1.45354
1.45447
1.45473
1.45453
1.45412
1.45366
1.45326
1.45293
1.45259
1.45209
1.45122
1.44978
1.44757
1.44451
1.44065
1.43613
1.43124
1.42625
1.42145
1.41706
1.41323
1.41002
1.40743
1.40541
1.4039
1.40278
1.40199
1.40143
1.40104
1.40077
1.40058
1.40044
1.40034
1.40027
1.40021
1.40016
1.40012
1.40009
1.40007
1.40005
1.40004
1.40003
1.40002
1.40002
1.40001
1.40001
1.40001
1.40001
1.40001
1.40001
1.40001
1.40001
1.40001
1.40001
1.40001
1.40001
1.40001
1.40001
1.40001
1.40001
1.40001
1.40001
1.40001
1.40001
1.40001
1.40001
1.40001
1.40001
1.40001
1.40001
1.40001
1.43416
1.43873
1.44277
1.4461
1.44866
1.45047
1.45159
1.45217
1.45231
1.45214
1.45173
1.45109
1.45019
1.44894
1.44723
1.44497
1.44208
1.43857
1.43454
1.43017
1.42568
1.42128
1.41719
1.41353
1.4104
1.40782
1.40577
1.40419
1.40301
1.40216
1.40155
1.40113
1.40083
1.40062
1.40048
1.40037
1.40029
1.40023
1.40018
1.40014
1.40011
1.40008
1.40006
1.40005
1.40003
1.40003
1.40002
1.40002
1.40001
1.40001
1.40001
1.40001
1.40001
1.40001
1.40001
1.40001
1.40001
1.40001
1.40001
1.40001
1.40001
1.40001
1.40001
1.40001
1.40001
1.40001
1.40001
1.40001
1.40001
1.40001
1.40001
1.40001
1.40001
1.40001
1.40001
1.42808
1.43225
1.43611
1.43951
1.44232
1.44451
1.44607
1.44705
1.44751
1.44752
1.44712
1.44633
1.44514
1.44352
1.44143
1.43884
1.43576
1.43226
1.42844
1.42449
1.42057
1.41685
1.41347
1.4105
1.40801
1.40599
1.40439
1.40318
1.40229
1.40165
1.40119
1.40088
1.40066
1.4005
1.40039
1.40031
1.40025
1.4002
1.40015
1.40012
1.40009
1.40007
1.40005
1.40004
1.40003
1.40002
1.40002
1.40001
1.40001
1.40001
1.40001
1.40001
1.40001
1.40001
1.40001
1.40001
1.40001
1.40001
1.40001
1.40001
1.40001
1.40001
1.40001
1.40001
1.40001
1.40001
1.40001
1.40001
1.40001
1.40001
1.40001
1.40001
1.40001
1.40001
1.40001
1.42254
1.42615
1.42961
1.43275
1.43548
1.4377
1.43938
1.44051
1.44112
1.44122
1.44085
1.44003
1.43876
1.43704
1.43488
1.4323
1.42936
1.42614
1.42276
1.41936
1.41608
1.41303
1.41032
1.40798
1.40604
1.40448
1.40328
1.40237
1.40171
1.40123
1.4009
1.40067
1.40051
1.4004
1.40032
1.40025
1.40021
1.40016
1.40013
1.4001
1.40008
1.40006
1.40005
1.40004
1.40003
1.40002
1.40002
1.40001
1.40001
1.40001
1.40001
1.40001
1.40001
1.40001
1.40001
1.40001
1.40001
1.40001
1.40001
1.40001
1.40001
1.40001
1.40001
1.40001
1.40001
1.40001
1.40001
1.40001
1.40001
1.40001
1.40001
1.40001
1.40001
1.40001
1.40001
1.41772
1.42073
1.42366
1.4264
1.42884
1.43088
1.43247
1.43358
1.4342
1.43434
1.43401
1.43323
1.432
1.43036
1.42835
1.42599
1.42337
1.42058
1.41773
1.41492
1.41226
1.40984
1.40772
1.40592
1.40445
1.40328
1.40239
1.40172
1.40124
1.40091
1.40067
1.40051
1.4004
1.40031
1.40025
1.40021
1.40017
1.40014
1.40011
1.40009
1.40007
1.40005
1.40004
1.40003
1.40002
1.40002
1.40001
1.40001
1.40001
1.40001
1.40001
1.40001
1.40001
1.40001
1.40001
1.40001
1.40001
1.40001
1.40001
1.40001
1.40001
1.40001
1.40001
1.40001
1.40001
1.40001
1.40001
1.40001
1.40001
1.40001
1.40001
1.40001
1.40001
1.40001
1.40001
1.41369
1.4161
1.41849
1.42077
1.42282
1.42457
1.42597
1.42696
1.42753
1.42766
1.42736
1.42666
1.42556
1.4241
1.42233
1.4203
1.41808
1.41577
1.41345
1.41121
1.40912
1.40725
1.40563
1.40428
1.40319
1.40233
1.40169
1.40122
1.40088
1.40065
1.40049
1.40038
1.4003
1.40025
1.4002
1.40017
1.40014
1.40011
1.40009
1.40007
1.40006
1.40005
1.40004
1.40003
1.40002
1.40002
1.40001
1.40001
1.40001
1.40001
1.40001
1.40001
1.40001
1.40001
1.40001
1.40001
1.40001
1.40001
1.40001
1.40001
1.40001
1.40001
1.40001
1.40001
1.40001
1.40001
1.40001
1.40001
1.40001
1.40001
1.40001
1.40001
1.40001
1.40001
1.40001
1.4104
1.41229
1.41418
1.41599
1.41764
1.41908
1.42023
1.42105
1.42152
1.42163
1.42137
1.42076
1.41982
1.41858
1.4171
1.41542
1.41362
1.41177
1.40994
1.40821
1.40661
1.4052
1.404
1.40301
1.40222
1.40162
1.40116
1.40084
1.40061
1.40045
1.40035
1.40028
1.40023
1.40019
1.40016
1.40013
1.40011
1.40009
1.40008
1.40006
1.40005
1.40004
1.40003
1.40002
1.40002
1.40001
1.40001
1.40001
1.40001
1.40001
1.40001
1.40001
1.40001
1.40001
1.40001
1.40001
1.40001
1.40001
1.40001
1.40001
1.40001
1.40001
1.40001
1.40001
1.40001
1.40001
1.40001
1.40001
1.40001
1.40001
1.40001
1.40001
1.40001
1.40001
1.40001
1.4078
1.40923
1.41068
1.41208
1.41337
1.41449
1.4154
1.41604
1.41641
1.41648
1.41625
1.41573
1.41495
1.41394
1.41274
1.41141
1.40999
1.40855
1.40716
1.40584
1.40466
1.40362
1.40275
1.40204
1.40149
1.40107
1.40077
1.40055
1.40041
1.40031
1.40024
1.4002
1.40017
1.40014
1.40012
1.40011
1.40009
1.40008
1.40006
1.40005
1.40004
1.40003
1.40003
1.40002
1.40002
1.40001
1.40001
1.40001
1.40001
1.40001
1.40001
1.40001
1.40001
1.40001
1.40001
1.40001
1.40001
1.40001
1.40001
1.40001
1.40001
1.40001
1.40001
1.40001
1.40001
1.40001
1.40001
1.40001
1.40001
1.40001
1.40001
1.40001
1.40001
1.40001
1.40001
1.40578
1.40685
1.40793
1.40898
1.40995
1.41079
1.41147
1.41196
1.41222
1.41225
1.41206
1.41163
1.411
1.41019
1.40925
1.40822
1.40713
1.40605
1.405
1.40404
1.40318
1.40244
1.40182
1.40133
1.40096
1.40068
1.40048
1.40035
1.40026
1.4002
1.40016
1.40014
1.40012
1.40011
1.40009
1.40008
1.40007
1.40006
1.40005
1.40004
1.40003
1.40003
1.40002
1.40002
1.40001
1.40001
1.40001
1.40001
1.40001
1.40001
1.40001
1.40001
1.40001
1.40001
1.40001
1.40001
1.40001
1.40001
1.40001
1.40001
1.40001
1.40001
1.40001
1.40001
1.40001
1.40001
1.40001
1.40001
1.40001
1.40001
1.40001
1.40001
1.40001
1.40001
1.40001
1.40424
1.40502
1.40581
1.40657
1.40729
1.4079
1.4084
1.40874
1.40892
1.40892
1.40874
1.40839
1.4079
1.40727
1.40655
1.40576
1.40495
1.40415
1.40339
1.40269
1.40208
1.40157
1.40115
1.40082
1.40057
1.4004
1.40028
1.4002
1.40015
1.40012
1.4001
1.40009
1.40009
1.40008
1.40007
1.40007
1.40006
1.40005
1.40004
1.40003
1.40003
1.40002
1.40002
1.40001
1.40001
1.40001
1.40001
1.40001
1.40001
1.40001
1.40001
1.40001
1.40001
1.40001
1.40001
1.40001
1.40001
1.40001
1.40001
1.40001
1.40001
1.40001
1.40001
1.40001
1.40001
1.40001
1.40001
1.40001
1.40001
1.40001
1.40001
1.40001
1.40001
1.40001
1.40001
1.40309
1.40365
1.40422
1.40476
1.40526
1.4057
1.40604
1.40627
1.40638
1.40636
1.4062
1.40592
1.40553
1.40505
1.40451
1.40392
1.40333
1.40275
1.40221
1.40172
1.4013
1.40095
1.40067
1.40046
1.40031
1.4002
1.40014
1.4001
1.40008
1.40007
1.40006
1.40006
1.40006
1.40006
1.40006
1.40005
1.40004
1.40004
1.40003
1.40003
1.40002
1.40002
1.40002
1.40001
1.40001
1.40001
1.40001
1.40001
1.40001
1.40001
1.40001
1.40001
1.40001
1.40001
1.40001
1.40001
1.40001
1.40001
1.40001
1.40001
1.40001
1.40001
1.40001
1.40001
1.40001
1.40001
1.40001
1.40001
1.40001
1.40001
1.40001
1.40001
1.40001
1.40001
1.40001
1.40225
1.40264
1.40303
1.40341
1.40376
1.40405
1.40429
1.40443
1.40448
1.40444
1.4043
1.40408
1.40378
1.40341
1.40301
1.40258
1.40216
1.40175
1.40137
1.40103
1.40075
1.40052
1.40035
1.40022
1.40013
1.40007
1.40004
1.40003
1.40002
1.40003
1.40003
1.40004
1.40004
1.40004
1.40004
1.40004
1.40004
1.40003
1.40003
1.40002
1.40002
1.40002
1.40001
1.40001
1.40001
1.40001
1.40001
1.40001
1.40001
1.40001
1.40001
1.40001
1.40001
1.40001
1.40001
1.40001
1.40001
1.40001
1.40001
1.40001
1.40001
1.40001
1.40001
1.40001
1.40001
1.40001
1.40001
1.40001
1.40001
1.40001
1.40001
1.40001
1.40001
1.40001
1.40001
1.40163
1.4019
1.40217
1.40243
1.40266
1.40286
1.403
1.40308
1.4031
1.40304
1.40293
1.40275
1.40252
1.40224
1.40194
1.40164
1.40133
1.40105
1.40079
1.40057
1.40038
1.40024
1.40013
1.40006
1.40002
1.39999
1.39998
1.39999
1.39999
1.4
1.40001
1.40002
1.40003
1.40003
1.40003
1.40003
1.40003
1.40002
1.40002
1.40002
1.40002
1.40001
1.40001
1.40001
1.40001
1.40001
1.40001
1.40001
1.40001
1.40001
1.40001
1.40001
1.40001
1.40001
1.4
1.4
1.40001
1.40001
1.40001
1.40001
1.40001
1.40001
1.40001
1.40001
1.40001
1.40001
1.40001
1.40001
1.40001
1.40001
1.40001
1.40001
1.40001
1.40001
1.40001
1.40118
1.40137
1.40155
1.40173
1.40188
1.40199
1.40208
1.40211
1.40211
1.40205
1.40195
1.4018
1.40162
1.40142
1.40121
1.40099
1.40077
1.40058
1.40041
1.40026
1.40015
1.40006
1.4
1.39996
1.39995
1.39994
1.39995
1.39996
1.39998
1.39999
1.4
1.40001
1.40002
1.40002
1.40002
1.40002
1.40002
1.40002
1.40002
1.40002
1.40001
1.40001
1.40001
1.40001
1.40001
1.40001
1.40001
1.40001
1.40001
1.40001
1.40001
1.40001
1.40001
1.40001
1.40001
1.40001
1.40001
1.40001
1.40001
1.40001
1.40001
1.40001
1.40001
1.40001
1.40001
1.40001
1.40001
1.40001
1.40001
1.40001
1.40001
1.40001
1.40001
1.40001
1.40001
1.40087
1.40099
1.40111
1.40122
1.40131
1.40138
1.40142
1.40144
1.40141
1.40136
1.40127
1.40115
1.40102
1.40087
1.40071
1.40055
1.40041
1.40028
1.40016
1.40007
1.4
1.39995
1.39992
1.39991
1.39991
1.39992
1.39993
1.39995
1.39997
1.39998
1.39999
1.4
1.40001
1.40001
1.40002
1.40002
1.40002
1.40002
1.40001
1.40001
1.40001
1.40001
1.40001
1.40001
1.40001
1.40001
1.40001
1.40001
1.40001
1.40001
1.40001
1.40001
1.40001
1.40001
1.40001
1.40001
1.40001
1.40001
1.40001
1.40001
1.40001
1.40001
1.40001
1.40001
1.40001
1.40001
1.40001
1.40001
1.40001
1.40001
1.40001
1.40001
1.40001
1.40001
1.40001
1.40063
1.40072
1.4008
1.40087
1.40092
1.40096
1.40098
1.40097
1.40094
1.40089
1.40081
1.40071
1.40061
1.4005
1.40038
1.40028
1.40018
1.40009
1.40002
1.39996
1.39992
1.3999
1.39989
1.39989
1.3999
1.39991
1.39993
1.39995
1.39996
1.39998
1.39999
1.4
1.40001
1.40001
1.40001
1.40001
1.40001
1.40001
1.40001
1.40001
1.40001
1.40001
1.40001
1.40001
1.40001
1.40001
1.40001
1.40001
1.40001
1.40001
1.40001
1.40001
1.40001
1.40001
1.40001
1.40001
1.40001
1.40001
1.40001
1.40001
1.40001
1.40001
1.40001
1.40001
1.40001
1.40001
1.40001
1.40001
1.40001
1.40001
1.40001
1.40001
1.40001
1.40001
1.40001
1.40048
1.40053
1.40058
1.40062
1.40065
1.40067
1.40066
1.40065
1.40061
1.40057
1.4005
1.40043
1.40035
1.40027
1.40018
1.40011
1.40004
1.39998
1.39993
1.3999
1.39988
1.39987
1.39987
1.39988
1.3999
1.39991
1.39993
1.39995
1.39996
1.39998
1.39999
1.39999
1.4
1.40001
1.40001
1.40001
1.40001
1.40001
1.40001
1.40001
1.40001
1.40001
1.40001
1.40001
1.40001
1.40001
1.40001
1.40001
1.40001
1.40001
1.40001
1.40001
1.40001
1.40001
1.40001
1.40001
1.40001
1.40001
1.40001
1.40001
1.40001
1.40001
1.40001
1.40001
1.40001
1.40001
1.40001
1.40001
1.40001
1.40001
1.40001
1.40001
1.40001
1.40001
1.40001
1.40036
1.40039
1.40042
1.40045
1.40046
1.40046
1.40046
1.40044
1.4004
1.40036
1.4003
1.40025
1.40019
1.40012
1.40006
1.40001
1.39996
1.39992
1.3999
1.39988
1.39987
1.39987
1.39988
1.39989
1.3999
1.39992
1.39994
1.39995
1.39997
1.39998
1.39999
1.39999
1.4
1.4
1.40001
1.40001
1.40001
1.40001
1.40001
1.40001
1.40001
1.40001
1.40001
1.40001
1.40001
1.40001
1.40001
1.40001
1.4
1.4
1.40001
1.40001
1.40001
1.40001
1.40001
1.40001
1.40001
1.40001
1.40001
1.40001
1.40001
1.40001
1.40001
1.40001
1.40001
1.40001
1.40001
1.40001
1.40001
1.40001
1.40001
1.40001
1.40001
1.40001
1.40001
1.40027
1.4003
1.40031
1.40033
1.40033
1.40033
1.40031
1.40029
1.40026
1.40023
1.40018
1.40013
1.40009
1.40004
1.4
1.39996
1.39992
1.3999
1.39988
1.39987
1.39987
1.39988
1.39989
1.3999
1.39991
1.39993
1.39994
1.39996
1.39997
1.39998
1.39999
1.39999
1.4
1.4
1.40001
1.40001
1.40001
1.40001
1.40001
1.40001
1.40001
1.40001
1.40001
1.40001
1.40001
1.40001
1.40001
1.40001
1.40001
1.40001
1.40001
1.40001
1.40001
1.40001
1.40001
1.40001
1.40001
1.40001
1.40001
1.40001
1.40001
1.40001
1.40001
1.40001
1.40001
1.40001
1.40001
1.40001
1.40001
1.40001
1.40001
1.40001
1.40001
1.40001
1.40001
1.40021
1.40022
1.40024
1.40024
1.40024
1.40023
1.40022
1.4002
1.40017
1.40014
1.40011
1.40007
1.40003
1.39999
1.39996
1.39993
1.39991
1.3999
1.39989
1.39988
1.39989
1.39989
1.3999
1.39991
1.39993
1.39994
1.39995
1.39996
1.39997
1.39998
1.39999
1.4
1.4
1.4
1.4
1.4
1.40001
1.40001
1.40001
1.40001
1.40001
1.40001
1.40001
1.40001
1.40001
1.40001
1.40001
1.40001
1.40001
1.40001
1.40001
1.40001
1.40001
1.40001
1.40001
1.40001
1.40001
1.40001
1.40001
1.40001
1.40001
1.40001
1.40001
1.40001
1.40001
1.40001
1.40001
1.40001
1.40001
1.40001
1.40001
1.40001
1.40001
1.40001
1.40001
1.40016
1.40017
1.40018
1.40018
1.40018
1.40017
1.40016
1.40014
1.40011
1.40009
1.40006
1.40003
1.4
1.39997
1.39995
1.39993
1.39991
1.3999
1.3999
1.3999
1.3999
1.39991
1.39992
1.39993
1.39994
1.39995
1.39996
1.39997
1.39998
1.39999
1.39999
1.4
1.4
1.4
1.4
1.40001
1.40001
1.40001
1.40001
1.40001
1.40001
1.40001
1.40001
1.40001
1.40001
1.40001
1.40001
1.40001
1.40001
1.40001
1.40001
1.40001
1.40001
1.40001
1.40001
1.40001
1.40001
1.40001
1.40001
1.40001
1.40001
1.40001
1.40001
1.40001
1.40001
1.40001
1.40001
1.40001
1.40001
1.40001
1.40001
1.40001
1.40001
1.40001
1.40001
1.40012
1.40013
1.40014
1.40013
1.40013
1.40012
1.40011
1.4001
1.40008
1.40006
1.40003
1.40001
1.39999
1.39997
1.39995
1.39993
1.39992
1.39992
1.39991
1.39991
1.39992
1.39992
1.39993
1.39994
1.39995
1.39996
1.39997
1.39998
1.39998
1.39999
1.39999
1.4
1.4
1.4
1.4
1.4
1.40001
1.40001
1.40001
1.40001
1.40001
1.40001
1.40001
1.40001
1.40001
1.40001
1.40001
1.40001
1.40001
1.40001
1.40001
1.40001
1.40001
1.40001
1.40001
1.40001
1.40001
1.40001
1.40001
1.40001
1.40001
1.40001
1.40001
1.40001
1.40001
1.40001
1.40001
1.40001
1.40001
1.40001
1.40001
1.40001
1.40001
1.40001
1.40001
1.4001
1.4001
1.4001
1.4001
1.4001
1.40009
1.40008
1.40007
1.40005
1.40004
1.40002
1.4
1.39998
1.39997
1.39995
1.39994
1.39994
1.39993
1.39993
1.39993
1.39993
1.39994
1.39995
1.39995
1.39996
1.39997
1.39998
1.39998
1.39999
1.39999
1.4
1.4
1.4
1.4
1.4
1.4
1.4
1.4
1.40001
1.40001
1.40001
1.40001
1.40001
1.40001
1.40001
1.40001
1.40001
1.40001
1.40001
1.40001
1.40001
1.40001
1.40001
1.40001
1.40001
1.40001
1.40001
1.40001
1.40001
1.40001
1.40001
1.40001
1.40001
1.40001
1.40001
1.40001
1.40001
1.40001
1.40001
1.40001
1.40001
1.40001
1.40001
1.40001
1.40001
1.40007
1.40008
1.40008
1.40008
1.40007
1.40007
1.40006
1.40005
1.40004
1.40002
1.40001
1.4
1.39998
1.39997
1.39996
1.39995
1.39995
1.39994
1.39994
1.39995
1.39995
1.39995
1.39996
1.39996
1.39997
1.39998
1.39998
1.39999
1.39999
1.39999
1.4
1.4
1.4
1.4
1.4
1.4
1.4
1.40001
1.40001
1.40001
1.40001
1.40001
1.40001
1.40001
1.40001
1.40001
1.40001
1.40001
1.40001
1.40001
1.40001
1.4
1.4
1.4
1.4
1.40001
1.40001
1.40001
1.40001
1.40001
1.40001
1.40001
1.40001
1.40001
1.40001
1.40001
1.40001
1.40001
1.40001
1.40001
1.40001
1.40001
1.40001
1.40001
1.40001
1.40006
1.40006
1.40006
1.40006
1.40006
1.40005
1.40005
1.40004
1.40003
1.40002
1.40001
1.4
1.39998
1.39998
1.39997
1.39996
1.39996
1.39996
1.39996
1.39996
1.39996
1.39996
1.39997
1.39997
1.39998
1.39998
1.39999
1.39999
1.39999
1.4
1.4
1.4
1.4
1.4
1.4
1.4
1.40001
1.40001
1.40001
1.40001
1.40001
1.40001
1.40001
1.40001
1.40001
1.40001
1.4
1.4
1.40001
1.40001
1.40001
1.40001
1.40001
1.40001
1.40001
1.40001
1.40001
1.40001
1.40001
1.40001
1.40001
1.40001
1.40001
1.40001
1.40001
1.40001
1.40001
1.40001
1.40001
1.40001
1.40001
1.40001
1.40001
1.40001
1.40001
1.40005
1.40005
1.40005
1.40005
1.40004
1.40004
1.40003
1.40003
1.40002
1.40001
1.40001
1.4
1.39999
1.39998
1.39998
1.39997
1.39997
1.39997
1.39997
1.39997
1.39997
1.39997
1.39998
1.39998
1.39998
1.39999
1.39999
1.39999
1.4
1.4
1.4
1.4
1.4
1.4
1.4
1.4
1.4
1.4
1.40001
1.40001
1.40001
1.4
1.4
1.4
1.4
1.40001
1.40001
1.40001
1.40001
1.4
1.4
1.4
1.4
1.4
1.40001
1.40001
1.40001
1.40001
1.40001
1.40001
1.40001
1.40001
1.40001
1.40001
1.40001
1.40001
1.40001
1.40001
1.40001
1.40001
1.40001
1.40001
1.40001
1.40001
1.40001
1.40003
1.40004
1.40004
1.40004
1.40003
1.40003
1.40003
1.40002
1.40002
1.40001
1.4
1.4
1.39999
1.39999
1.39998
1.39998
1.39998
1.39998
1.39998
1.39998
1.39998
1.39998
1.39998
1.39999
1.39999
1.39999
1.39999
1.4
1.4
1.4
1.4
1.4
1.4
1.4
1.4
1.4
1.4
1.4
1.4
1.4
1.4
1.40001
1.40001
1.40001
1.40001
1.4
1.4
1.40001
1.40001
1.40001
1.40001
1.40001
1.40001
1.40001
1.40001
1.40001
1.40001
1.40001
1.40001
1.40001
1.40001
1.40001
1.40001
1.40001
1.40001
1.40001
1.40001
1.40001
1.40001
1.40001
1.40001
1.40001
1.40001
1.40001
1.40001
1.40003
1.40003
1.40003
1.40003
1.40003
1.40002
1.40002
1.40002
1.40001
1.40001
1.4
1.4
1.39999
1.39999
1.39999
1.39999
1.39998
1.39998
1.39998
1.39998
1.39999
1.39999
1.39999
1.39999
1.39999
1.39999
1.4
1.4
1.4
1.4
1.4
1.4
1.4
1.4
1.4
1.4
1.4
1.4
1.40001
1.40001
1.4
1.4
1.4
1.40001
1.40001
1.40001
1.40001
1.40001
1.4
1.4
1.4
1.4
1.4
1.40001
1.40001
1.40001
1.40001
1.40001
1.40001
1.40001
1.40001
1.40001
1.40001
1.40001
1.40001
1.40001
1.40001
1.40001
1.40001
1.40001
1.40001
1.40001
1.40001
1.40001
1.40001
1.40002
1.40002
1.40002
1.40002
1.40002
1.40002
1.40002
1.40001
1.40001
1.40001
1.4
1.4
1.4
1.39999
1.39999
1.39999
1.39999
1.39999
1.39999
1.39999
1.39999
1.39999
1.39999
1.39999
1.4
1.4
1.4
1.4
1.4
1.4
1.4
1.4
1.4
1.4
1.4
1.4
1.40001
1.40001
1.40001
1.40001
1.40001
1.40001
1.40001
1.40001
1.4
1.4
1.40001
1.40001
1.40001
1.40001
1.40001
1.40001
1.40001
1.40001
1.40001
1.40001
1.40001
1.40001
1.40001
1.40001
1.40001
1.40001
1.40001
1.40001
1.40001
1.40001
1.40001
1.40001
1.40001
1.40001
1.40001
1.40001
1.40001
1.40001
1.40001
1.40002
1.40002
1.40002
1.40002
1.40002
1.40001
1.40001
1.40001
1.40001
1.40001
1.4
1.4
1.4
1.4
1.4
1.39999
1.39999
1.39999
1.39999
1.39999
1.39999
1.39999
1.4
1.4
1.4
1.4
1.4
1.4
1.4
1.4
1.4
1.4
1.4
1.4
1.4
1.4
1.4
1.40001
1.40001
1.40001
1.40001
1.40001
1.40001
1.40001
1.40001
1.40001
1.40001
1.4
1.4
1.4
1.4
1.4
1.40001
1.40001
1.40001
1.40001
1.40001
1.40001
1.40001
1.40001
1.40001
1.40001
1.40001
1.40001
1.40001
1.40001
1.40001
1.40001
1.40001
1.40001
1.40001
1.40001
1.40001
1.40001
1.40001
1.40001
1.40001
1.40001
1.40001
1.40001
1.40001
1.40001
1.40001
1.40001
1.40001
1.4
1.4
1.4
1.4
1.4
1.4
1.4
1.4
1.4
1.4
1.4
1.4
1.4
1.4
1.4
1.4
1.4
1.4
1.4
1.4
1.4
1.4
1.4
1.4
1.40001
1.40001
1.40001
1.40001
1.4
1.4
1.40001
1.40001
1.40001
1.40001
1.40001
1.40001
1.40001
1.40001
1.40001
1.40001
1.40001
1.40001
1.40001
1.40001
1.40001
1.40001
1.40001
1.40001
1.40001
1.40001
1.40001
1.40001
1.40001
1.40001
1.40001
1.40001
1.40001
1.40001
1.40001
1.40001
1.40001
1.40001
1.40001
1.40001
1.40001
1.40001
1.40001
1.40001
1.40001
1.40001
1.40001
1.40001
1.40001
1.40001
1.40001
1.4
1.4
1.4
1.4
1.4
1.4
1.4
1.4
1.4
1.4
1.4
1.4
1.4
1.4
1.4
1.4
1.4
1.4
1.4
1.4
1.4
1.4
1.4
1.40001
1.40001
1.40001
1.40001
1.40001
1.4
1.4
1.4
1.4
1.4
1.40001
1.40001
1.40001
1.4
1.4
1.4
1.4
1.40001
1.40001
1.40001
1.40001
1.40001
1.40001
1.40001
1.40001
1.40001
1.40001
1.40001
1.40001
1.40001
1.40001
1.40001
1.40001
1.40001
1.40001
1.40001
1.40001
1.40001
1.40001
1.40001
1.40001
1.40001
1.40001
1.40001
1.40001
1.40001
1.40001
1.40001
1.40001
1.40001
1.40001
1.40001
1.4
1.4
1.4
1.4
1.4
1.4
1.4
1.4
1.4
1.4
1.4
1.4
1.4
1.4
1.4
1.4
1.4
1.4
1.4
1.4
1.4
1.4
1.4
1.4
1.4
1.4
1.4
1.4
1.4
1.40001
1.40001
1.40001
1.40001
1.40001
1.40001
1.40001
1.40001
1.40001
1.40001
1.40001
1.40001
1.40001
1.40001
1.40001
1.40001
1.40001
1.40001
1.40001
1.40001
1.40001
1.40001
1.40001
1.40001
1.40001
1.40001
1.40001
1.40001
1.40001
1.40001
1.40001
1.40001
1.40001
1.40001
1.40001
1.40001
1.40001
1.40001
1.40001
1.40001
1.40001
1.40001
1.40001
1.40001
1.40001
1.40001
1.4
1.4
1.4
1.4
1.4
1.4
1.4
1.4
1.4
1.4
1.4
1.4
1.4
1.4
1.4
1.4
1.4
1.4
1.4
1.4
1.4
1.4
1.40001
1.40001
1.40001
1.40001
1.40001
1.4
1.4
1.4
1.40001
1.40001
1.40001
1.40001
1.40001
1.40001
1.40001
1.40001
1.40001
1.40001
1.40001
1.40001
1.40001
1.40001
1.40001
1.40001
1.40001
1.40001
1.40001
1.40001
1.40001
1.40001
1.40001
1.40001
1.40001
1.40001
1.40001
1.40001
1.40001
1.40001
1.40001
1.40001
1.40001
1.40001
1.40001
1.40001
1.40001
1.40001
1.40001
1.40001
1.40001
1.40001
1.40001
1.40001
1.4
1.4
1.4
1.4
1.4
1.4
1.4
1.4
1.4
1.4
1.4
1.4
1.4
1.4
1.4
1.4
1.4
1.4
1.4
1.4
1.4
1.4
1.4
1.4
1.4
1.4
1.4
1.4
1.4
1.40001
1.40001
1.40001
1.40001
1.40001
1.40001
1.40001
1.40001
1.40001
1.40001
1.40001
1.40001
1.40001
1.40001
1.40001
1.40001
1.40001
1.40001
1.40001
1.40001
1.40001
1.40001
1.40001
1.40001
1.40001
1.40001
1.40001
1.40001
1.40001
1.40001
1.40001
1.40001
1.40001
1.40001
1.40001
1.40001
1.40001
1.40001
1.40001
1.40001
1.40001
1.40001
1.40001
1.40001
1.40001
1.40001
1.40001
1.40001
1.4
1.4
1.4
1.4
1.4
1.4
1.4
1.4
1.4
1.4
1.4
1.4
1.4
1.4
1.4
1.4
1.4
1.4
1.4
1.40001
1.40001
1.40001
1.4
1.4
1.40001
1.40001
1.40001
1.40001
1.40001
1.40001
1.40001
1.40001
1.40001
1.40001
1.40001
1.40001
1.40001
1.40001
1.40001
1.40001
1.40001
1.40001
1.40001
1.40001
1.40001
1.40001
1.40001
1.40001
1.40001
1.40001
1.40001
1.40001
1.40001
1.40001
1.40001
1.40001
1.40001
1.40001
1.40001
1.40001
1.40001
1.40001
1.40001
1.40001
1.40001
1.40001
1.40001
1.40001
1.40001
1.40001
1.40001
1.40001
1.40001
1.4
1.4
1.4
1.4
1.4
1.4
1.4
1.4
1.4
1.4
1.4
1.4
1.4
1.4
1.4
1.4
1.4
1.4
1.4
1.40001
1.40001
1.40001
1.4
1.4
1.4
1.4
1.4
1.40001
1.40001
1.40001
1.4
1.4
1.40001
1.40001
1.40001
1.40001
1.40001
1.40001
1.40001
1.40001
1.40001
1.40001
1.40001
1.40001
1.40001
1.40001
1.40001
1.40001
1.40001
1.40001
1.40001
1.40001
1.40001
1.40001
1.40001
1.40001
1.40001
1.40001
1.40001
1.40001
1.40001
1.40001
1.40001
1.40001
1.40001
1.40001
1.40001
1.40001
1.40001
1.40001
1.40001
1.40001
1.40001
1.40001
1.40001
1.40001
1.40001
1.4
1.4
1.4
1.4
1.4
1.4
1.4
1.4
1.4
1.4
1.4
1.4
1.4
1.4
1.4
1.4
1.40001
1.40001
1.40001
1.4
1.4
1.4
1.40001
1.40001
1.40001
1.40001
1.40001
1.40001