/*--------------------------------*- C++ -*----------------------------------*\
  =========                 |
  \\      /  F ield         | OpenFOAM: The Open Source CFD Toolbox
   \\    /   O peration     | Website:  https://openfoam.org
    \\  /    A nd           | Version:  6
     \\/     M anipulation  |
\*---------------------------------------------------------------------------*/
FoamFile
{
    version     2.0;
    format      ascii;
    class       volScalarField;
    location    "3.14";
    object      nut;
}
// * * * * * * * * * * * * * * * * * * * * * * * * * * * * * * * * * * * * * //

dimensions      [0 2 -1 0 0 0 0];

internalField   nonuniform List<scalar> 
4214
(
0.00454292
0.00258548
0.00214955
0.00259598
0.00476052
0.0155114
0.058742
0.151064
0.245292
0.282412
0.260297
0.216848
0.181415
0.15953
0.144923
0.131636
0.116311
0.0988778
0.080713
0.0642268
0.0508284
0.0407942
0.0332301
0.026942
0.0211771
0.0158213
0.0111622
0.00751201
0.00495885
0.0033653
0.00248717
0.00208098
0.00194625
0.00193172
0.0019449
0.00194511
0.00191005
0.00183797
0.00190199
0.00256105
0.00456308
0.00228787
0.00224473
0.00240218
0.00272894
0.00495895
0.0163309
0.059929
0.151198
0.247914
0.288994
0.266731
0.217532
0.175326
0.148073
0.129659
0.113881
0.0978758
0.0813713
0.0663068
0.0546824
0.0469237
0.0418469
0.0376275
0.0329028
0.0271688
0.0208161
0.0147365
0.00974775
0.00619548
0.00397185
0.0027441
0.00216501
0.001959
0.00192522
0.0019396
0.0019508
0.00194769
0.00192696
0.00190083
0.0019847
0.00246725
0.0022309
0.00235053
0.0024549
0.00274798
0.0050182
0.0163553
0.0577241
0.146823
0.246782
0.294876
0.275093
0.220653
0.169902
0.135666
0.112663
0.0945498
0.0787174
0.0653962
0.0559298
0.0509537
0.0492059
0.0484545
0.0466522
0.0426399
0.0361884
0.0281065
0.0198897
0.012947
0.00795222
0.00483203
0.00311537
0.00229584
0.00198749
0.00192215
0.0019332
0.00194801
0.00195186
0.00194672
0.0019328
0.00192199
0.00199402
0.00231396
0.00239113
0.00247009
0.00275625
0.00499059
0.0160408
0.0542011
0.1393
0.241717
0.298982
0.284848
0.22634
0.166481
0.12504
0.09808
0.0791062
0.0654459
0.0569065
0.0535709
0.054489
0.0573388
0.0596225
0.0593354
0.055487
0.0479234
0.0376469
0.0267143
0.0172251
0.0103081
0.00598663
0.00362028
0.00248358
0.00203788
0.00192634
0.00192952
0.00194605
0.00195255
0.00195229
0.00194912
0.00194254
0.00194206
0.00234175
0.00240115
0.00247188
0.00274447
0.0048534
0.0152644
0.0497029
0.128566
0.231883
0.299645
0.295375
0.235954
0.166803
0.117761
0.0875719
0.0689924
0.0585996
0.0551375
0.0572809
0.0628223
0.068878
0.0735173
0.0745176
0.0707167
0.0619843
0.0492921
0.0352274
0.0226682
0.0133381
0.00747692
0.00427695
0.00273516
0.00211271
0.00193811
0.00192815
0.00194535
0.00195341
0.00195443
0.00195483
0.00195691
0.00195965
0.00235171
0.00240224
0.00246882
0.00271945
0.00463237
0.0141246
0.0453429
0.11564
0.217168
0.295201
0.305192
0.250146
0.172793
0.114854
0.081567
0.0640909
0.0572752
0.0583514
0.064758
0.0737739
0.0828299
0.0896802
0.0920541
0.0883116
0.0783644
0.0630294
0.0454356
0.0293297
0.0171064
0.00934491
0.00510659
0.00305981
0.00221649
0.0019593
0.00192968
0.00194635
0.00195577
0.00195703
0.0019575
0.001962
0.00197166
0.00235319
0.00239932
0.00246222
0.00268411
0.00434914
0.0127115
0.0404311
0.103256
0.197843
0.284163
0.311497
0.268303
0.186527
0.11782
0.0802343
0.063683
0.0600202
0.0647193
0.0744548
0.0865026
0.0983992
0.107628
0.111684
0.108253
0.0970864
0.0788679
0.057289
0.0371798
0.0216327
0.0116168
0.00612683
0.00346577
0.00235353
0.00199171
0.00193447
0.00194906
0.00195988
0.00196134
0.00196086
0.00196437
0.00197509
0.00235225
0.00239442
0.00245321
0.0026432
0.00403199
0.0111411
0.0350246
0.0904849
0.177729
0.265832
0.310388
0.2871
0.210353
0.129484
0.0839521
0.0667959
0.0654047
0.0727424
0.0850413
0.0996589
0.114291
0.12608
0.132352
0.129985
0.117951
0.0967927
0.0707494
0.0461237
0.026886
0.0142954
0.0073497
0.0039599
0.0025282
0.00203741
0.0019431
0.00195346
0.00196571
0.0019677
0.00196627
0.00196775
0.00197615
0.00235005
0.00238889
0.00244313
0.00260101
0.00370678
0.00951936
0.0294217
0.0770629
0.156003
0.243354
0.299895
0.299185
0.243632
0.156043
0.0953678
0.0731146
0.0722987
0.0810599
0.0950403
0.111632
0.128617
0.142949
0.151958
0.151947
0.140111
0.116465
0.0857283
0.056034
0.0327868
0.017356
0.00877936
0.00454635
0.00274479
0.00209861
0.00195636
0.00195954
0.00197312
0.00197605
0.00197404
0.00197354
0.00197862
0.00234728
0.00238336
0.00243299
0.00256092
0.00339589
0.00793709
0.0238896
0.0634638
0.132879
0.216945
0.282284
0.301353
0.269344
0.201295
0.126755
0.0870965
0.081417
0.089865
0.104296
0.121748
0.140021
0.156211
0.168036
0.171731
0.161911
0.137118
0.101728
0.0668177
0.039236
0.0207465
0.010411
0.00522539
0.00300749
0.00217756
0.00197531
0.00196735
0.00198193
0.00198622
0.00198411
0.00198208
0.00198402
0.00234361
0.00237745
0.00242282
0.00252466
0.00311682
0.00646754
0.0186501
0.0501373
0.108898
0.186862
0.257593
0.294036
0.285936
0.240762
0.176105
0.12462
0.103522
0.104665
0.116066
0.131728
0.148924
0.165123
0.178899
0.186752
0.181344
0.157497
0.118113
0.0781635
0.0461118
0.024387
0.012232
0.00599193
0.00332053
0.00227637
0.00200148
0.00197707
0.00199195
0.00199801
0.00199631
0.00199336
0.0019928
0.00233898
0.00237066
0.0024121
0.0024925
0.00288192
0.00516752
0.0138828
0.0375114
0.0847389
0.153639
0.22547
0.275403
0.289248
0.268154
0.223042
0.177403
0.146582
0.135005
0.136791
0.145987
0.158391
0.171547
0.184821
0.19568
0.196364
0.176036
0.134165
0.089577
0.0532579
0.0281696
0.0142258
0.0068333
0.00368866
0.00239661
0.00203691
0.00198907
0.00200305
0.00201123
0.00201043
0.00200721
0.002005
0.00233369
0.00236324
0.00240101
0.00246428
0.002698
0.00407909
0.0097367
0.0260477
0.0613419
0.118385
0.186341
0.244609
0.276765
0.278652
0.257122
0.225558
0.196566
0.177017
0.167656
0.166264
0.170177
0.177313
0.187469
0.199046
0.205605
0.191363
0.148747
0.100477
0.0605138
0.031951
0.0163783
0.00772602
0.00411813
0.00253851
0.00208453
0.00200394
0.00201511
0.00202567
0.0020262
0.00202343
0.00202049
0.00232793
0.00235522
0.00238935
0.00243916
0.00256586
0.00324459
0.00638675
0.0163842
0.0402842
0.0836028
0.14264
0.20279
0.247761
0.269303
0.268645
0.25364
0.232914
0.212962
0.197219
0.186865
0.181856
0.181814
0.187393
0.197759
0.208639
0.202887
0.160999
0.110216
0.0676921
0.0355421
0.0186917
0.00862929
0.00461904
0.00269927
0.0021486
0.00202262
0.00202822
0.00204119
0.00204328
0.00204164
0.00203896
0.00232212
0.00234763
0.00237893
0.00242031
0.00249357
0.00277182
0.00422466
0.0095732
0.0239472
0.0533929
0.099458
0.154245
0.204429
0.239157
0.255272
0.255221
0.244475
0.228552
0.211977
0.197567
0.187453
0.182129
0.184096
0.193079
0.206217
0.210148
0.170329
0.118126
0.0747176
0.0386835
0.0212089
0.00947281
0.00521084
0.00286942
0.00223576
0.00204628
0.00204287
0.00205794
0.00206133
0.0020612
0.00205951
0.00231537
0.00233961
0.00236852
0.00240532
0.00245889
0.00259027
0.00321188
0.00579501
0.0136277
0.0313974
0.0634389
0.106883
0.153799
0.193055
0.218305
0.229445
0.228199
0.219008
0.205891
0.1924
0.181955
0.175123
0.176405
0.185254
0.199551
0.213445
0.176546
0.123544
0.0817469
0.0409835
0.0240573
0.0101305
0.00593496
0.00302516
0.00235755
0.00207543
0.00206045
0.00207679
0.00208041
0.00208166
0.00208086
0.00230853
0.00233167
0.00235955
0.00239314
0.00243926
0.00252086
0.00287825
0.00418796
0.00923914
0.0194242
0.0413078
0.0703879
0.107764
0.141068
0.167164
0.182866
0.188056
0.186706
0.179564
0.171236
0.164685
0.160063
0.164007
0.174533
0.189436
0.213475
0.179995
0.125662
0.0893775
0.0417892
0.0275413
0.0103641
0.00688546
0.00311162
0.00253757
0.00210731
0.00208423
0.0020998
0.00210189
0.0021039
0.00210311
0.0021028
0.00208067
0.00205822
0.00203701
0.00201927
0.00200596
0.00199717
0.00199288
0.00199249
0.00199426
0.0019941
0.00198567
0.00197052
0.00200472
0.00232893
0.00380425
0.009326
0.00210449
0.00208337
0.00206185
0.00204254
0.00202766
0.00201776
0.00201281
0.00201245
0.00201525
0.00201785
0.00201406
0.00199775
0.00198093
0.00204721
0.0024599
0.00401495
0.00854122
0.00210712
0.00208694
0.00206668
0.00204985
0.0020383
0.00203232
0.00203182
0.00203595
0.00204211
0.00204483
0.00203589
0.00201133
0.00199692
0.00209872
0.00258236
0.00416656
0.00770933
0.00211069
0.00209141
0.00207283
0.00205895
0.00205105
0.00204943
0.00205383
0.00206276
0.00207205
0.00207382
0.00205837
0.00202606
0.00201698
0.00215129
0.0026797
0.00421836
0.00692259
0.00211545
0.00209678
0.00208041
0.00206976
0.00206578
0.0020686
0.00207812
0.00209198
0.00210421
0.00210417
0.00208099
0.00204106
0.00203819
0.00219644
0.00273992
0.00417101
0.00620043
0.00212055
0.00210312
0.00208941
0.00208223
0.00208183
0.00208913
0.00210384
0.00212272
0.00213785
0.00213575
0.0021047
0.00205691
0.00205622
0.00222589
0.00276081
0.00404253
0.00555659
0.00212681
0.00211061
0.00209998
0.00209564
0.00209865
0.0021103
0.00213008
0.00215408
0.00217247
0.00216896
0.00213054
0.00207369
0.0020682
0.00223393
0.00274072
0.00387773
0.005017
0.00213337
0.00211953
0.00211151
0.00210959
0.00211568
0.00213129
0.00215587
0.00218516
0.00220774
0.00220456
0.00216046
0.0020927
0.00207441
0.00222303
0.00269094
0.0036982
0.00458431
0.00214115
0.00212981
0.00212357
0.00212371
0.00213239
0.00215135
0.0021803
0.00221503
0.00224327
0.00224362
0.00219683
0.00211712
0.00207836
0.00219857
0.00262102
0.00351862
0.00425578
0.00215014
0.00214076
0.00213596
0.00213769
0.0021483
0.00216979
0.00220246
0.00224263
0.00227832
0.00228643
0.00224217
0.00215176
0.00208627
0.00216761
0.00253847
0.00334992
0.00402618
0.00216031
0.00215224
0.00214853
0.00215131
0.00216307
0.00218612
0.00222154
0.00226677
0.00231132
0.00233186
0.00229774
0.00220193
0.00210634
0.00213896
0.0024498
0.00319932
0.00388816
0.00217118
0.00216417
0.00216117
0.00216444
0.00217654
0.00220008
0.00223697
0.00228624
0.00233992
0.00237671
0.00236191
0.00227145
0.00214784
0.00212227
0.00236554
0.00306831
0.00383276
0.00218269
0.0021765
0.00217387
0.00217711
0.00218876
0.00221168
0.00224852
0.00230009
0.00236156
0.00241597
0.00242873
0.00235926
0.0022186
0.00213019
0.00229685
0.00295647
0.00384991
0.00219478
0.00218921
0.00218666
0.00218943
0.00219994
0.0022212
0.00225646
0.00230806
0.00237445
0.00244442
0.00248855
0.00245677
0.0023212
0.00217435
0.00225142
0.00286436
0.0039288
0.00220745
0.00220236
0.00219966
0.00220161
0.00221046
0.00222922
0.0022615
0.00231079
0.00237833
0.00245881
0.0025316
0.00254841
0.00244792
0.00226249
0.00223963
0.00279197
0.00405852
0.00222068
0.00221596
0.002213
0.00221393
0.00222078
0.00223645
0.00226466
0.00230961
0.0023746
0.00245919
0.00255231
0.00261707
0.00257861
0.00239402
0.00227128
0.00273072
0.00422864
0.0022345
0.00223012
0.00222685
0.00222669
0.00223139
0.00224366
0.00226711
0.00230627
0.00236568
0.00244842
0.00255136
0.00265246
0.00268605
0.00255219
0.00235334
0.00268794
0.00442989
0.00224889
0.00224488
0.00224138
0.00224019
0.00224278
0.00225158
0.00226998
0.0023025
0.0023543
0.00243066
0.00253403
0.00265526
0.00274997
0.00270327
0.00247864
0.0026849
0.00465471
0.00226393
0.00226035
0.0022567
0.00225465
0.00225532
0.00226084
0.00227425
0.00229984
0.00234291
0.00240998
0.00250701
0.00263396
0.00276755
0.00281388
0.00263536
0.00270854
0.00489772
0.00227956
0.00227652
0.00227291
0.00227023
0.00226928
0.00227188
0.00228066
0.00229944
0.00233345
0.00238963
0.00247606
0.00259861
0.00274973
0.00286726
0.00278551
0.00276591
0.00515635
0.00229586
0.00229347
0.00229008
0.00228703
0.00228483
0.00228496
0.00228964
0.00230212
0.00232724
0.00237188
0.00244519
0.00255683
0.00271032
0.00287135
0.00290123
0.00285585
0.00543086
0.00231269
0.00231112
0.00230816
0.00230503
0.00230199
0.0023002
0.00230143
0.0023084
0.00232535
0.00235868
0.00241775
0.00251451
0.0026601
0.00284108
0.00296284
0.00296896
0.00572433
0.00233008
0.00232949
0.00232714
0.00232419
0.00232069
0.00231751
0.002316
0.00231836
0.00232813
0.00235097
0.00239589
0.00247578
0.00260688
0.00279164
0.00297561
0.00308695
0.00604186
0.00234781
0.00234833
0.00234682
0.00234432
0.00234073
0.00233667
0.00233311
0.00233176
0.00233547
0.00234904
0.00238065
0.00244316
0.00255574
0.00273336
0.00295568
0.00318943
0.00638931
0.00236586
0.00236764
0.0023671
0.00236525
0.00236188
0.00235738
0.0023524
0.00234819
0.00234695
0.00235261
0.00237227
0.00241802
0.00251017
0.00267291
0.00291604
0.00326842
0.00677159
0.00238398
0.00238706
0.00238769
0.00238672
0.00238384
0.00237927
0.00237341
0.0023671
0.00236195
0.00236107
0.00237044
0.00240088
0.00247237
0.00261502
0.00286516
0.00332985
0.00719079
0.00240204
0.00240659
0.00240846
0.00240851
0.00240633
0.00240197
0.00239563
0.00238783
0.00237971
0.00237359
0.00237435
0.00239146
0.00244334
0.00256292
0.00280803
0.00337595
0.00764901
0.00241979
0.00242581
0.00242908
0.00243032
0.00242902
0.0024251
0.00241858
0.00240974
0.00239934
0.00238916
0.002383
0.00238878
0.00242285
0.00251839
0.00274817
0.00340342
0.00814629
0.00243706
0.0024447
0.00244939
0.0024519
0.00245161
0.00244826
0.00244175
0.00243217
0.00242004
0.00240674
0.00239522
0.0023918
0.00241055
0.00248255
0.00268848
0.00340663
0.00867443
0.00245367
0.00246288
0.00246909
0.00247298
0.00247378
0.00247109
0.0024647
0.00245458
0.00244116
0.00242547
0.0024099
0.00239946
0.00240556
0.00245585
0.00263184
0.00338145
0.00922208
0.00246943
0.00248033
0.00248803
0.00249334
0.00249525
0.00249325
0.00248703
0.00247655
0.00246209
0.00244458
0.00242607
0.00241059
0.00240696
0.00243826
0.00258105
0.00332659
0.00977549
0.00248426
0.00249672
0.00250598
0.00251277
0.00251581
0.0025145
0.00250849
0.00249769
0.00248236
0.0024635
0.00244302
0.00242424
0.00241379
0.00242949
0.00253871
0.00324469
0.0103188
0.00249795
0.00251208
0.00252285
0.00253115
0.00253528
0.00253466
0.00252885
0.0025177
0.00250165
0.00248188
0.00246031
0.00243977
0.00242517
0.00242929
0.00250717
0.0031426
0.0108343
0.00251054
0.00252615
0.00253851
0.00254835
0.00255357
0.00255363
0.00254794
0.00253643
0.0025198
0.00249957
0.00247776
0.00245691
0.00244059
0.00243739
0.00248849
0.00303082
0.0113039
0.00252178
0.002539
0.00255294
0.00256429
0.00257067
0.00257137
0.00256567
0.00255375
0.00253675
0.00251659
0.00249549
0.00247573
0.00245995
0.00245356
0.00248439
0.00292198
0.0117093
0.00253181
0.00255043
0.00256605
0.002579
0.00258659
0.00258783
0.00258197
0.00256962
0.00255256
0.00253316
0.00251382
0.00249663
0.00248359
0.00247791
0.00249628
0.0028291
0.0120327
0.00254041
0.00256057
0.00257785
0.00259254
0.0026014
0.00260298
0.00259674
0.00258404
0.00256739
0.00254965
0.00253333
0.00252038
0.00251235
0.00251114
0.00252555
0.00276419
0.0122587
0.00254772
0.00256922
0.00258847
0.00260497
0.00261509
0.00261666
0.00260985
0.00259704
0.00258155
0.00256661
0.00255483
0.00254805
0.0025476
0.00255478
0.00257381
0.00273793
0.0123745
0.00255359
0.00257664
0.00259804
0.00261639
0.00262756
0.00262858
0.00262115
0.00260879
0.0025955
0.0025848
0.00257937
0.00258108
0.00259131
0.00261132
0.00264341
0.00276071
0.0123712
0.00255795
0.00258292
0.00260669
0.00262684
0.00263847
0.00263837
0.0026306
0.00261964
0.00260992
0.00260522
0.00260834
0.00262141
0.00264622
0.00268462
0.00273901
0.00284127
0.0122465
0.00227695
0.00229611
0.00231508
0.00233363
0.00235159
0.00236876
0.00238499
0.00240015
0.00241415
0.00242691
0.00243842
0.00244869
0.00245778
0.00246578
0.00247282
0.002479
0.00248449
0.00248949
0.00249428
0.00249943
0.00250834
0.0025163
0.00252066
0.00252428
0.00252775
0.00253122
0.00253483
0.00253858
0.00254253
0.00254664
0.00255088
0.00255443
0.0025574
0.00255982
0.00256206
0.00256346
0.00256463
0.00256476
0.00256455
0.00256313
0.00256125
0.00230041
0.0023201
0.00233953
0.00235848
0.00237674
0.00239411
0.00241044
0.00242559
0.00243946
0.00245199
0.00246318
0.00247304
0.00248165
0.00248911
0.00249555
0.00250109
0.00250592
0.00251024
0.00251432
0.0025187
0.00252639
0.00253327
0.00253702
0.00254024
0.00254341
0.00254671
0.00255025
0.00255407
0.00255817
0.00256255
0.00256717
0.00257196
0.00257618
0.00257958
0.0025827
0.00258539
0.00258763
0.00258911
0.00258991
0.00258975
0.00258861
0.00232707
0.00234716
0.00236695
0.0023862
0.00240468
0.00242219
0.00243854
0.00245361
0.0024673
0.00247954
0.00249033
0.00249972
0.00250778
0.00251462
0.00252038
0.00252522
0.00252931
0.00253287
0.00253617
0.00253969
0.00254604
0.00255172
0.00255477
0.00255746
0.00256024
0.00256326
0.00256662
0.00257036
0.0025745
0.00257901
0.00258385
0.00258896
0.00259424
0.00259928
0.00260364
0.00260732
0.00261045
0.00261296
0.00261466
0.00261527
0.00261459
0.00235681
0.0023772
0.00239727
0.00241676
0.0024354
0.00245299
0.00246934
0.00248428
0.00249773
0.00250964
0.00252
0.00252886
0.0025363
0.00254246
0.00254749
0.00255155
0.00255483
0.00255756
0.00255999
0.00256256
0.00256748
0.00257182
0.00257406
0.00257611
0.00257836
0.00258095
0.00258398
0.00258748
0.00259146
0.00259588
0.00260071
0.00260587
0.00261125
0.00261673
0.00262212
0.00262713
0.00263139
0.00263465
0.00263668
0.00263726
0.00263613
0.00238947
0.00241011
0.00243041
0.0024501
0.00246889
0.00248654
0.00250285
0.00251765
0.00253085
0.0025424
0.00255228
0.00256057
0.00256736
0.0025728
0.00257704
0.00258026
0.00258267
0.00258449
0.00258599
0.00258753
0.00259091
0.00259381
0.00259511
0.00259638
0.00259794
0.00259993
0.00260243
0.00260546
0.00260903
0.00261309
0.00261759
0.00262242
0.00262745
0.00263253
0.00263745
0.00264198
0.00264584
0.0026487
0.00265019
0.00264983
0.00264711
0.0024249
0.00244576
0.00246629
0.00248618
0.00250512
0.00252284
0.00253912
0.00255378
0.00256672
0.00257789
0.0025873
0.002595
0.00260112
0.00260579
0.0026092
0.00261154
0.00261303
0.00261389
0.00261437
0.00261482
0.00261658
0.00261793
0.00261818
0.00261851
0.00261921
0.0026204
0.00262213
0.00262444
0.00262729
0.00263065
0.00263441
0.00263846
0.00264262
0.0026467
0.00265044
0.00265355
0.00265569
0.00265646
0.00265539
0.00265197
0.00264565
0.00246294
0.00248407
0.00250486
0.00252499
0.0025441
0.00256191
0.00257818
0.00259273
0.00260543
0.00261624
0.00262517
0.00263229
0.00263772
0.00264163
0.00264419
0.00264562
0.00264614
0.00264599
0.0026454
0.00264469
0.00264478
0.0026445
0.00264357
0.00264282
0.00264247
0.00264264
0.00264336
0.00264465
0.00264647
0.00264874
0.00265135
0.00265414
0.0026569
0.00265939
0.00266131
0.00266231
0.00266201
0.00265995
0.00265567
0.00264864
0.00263836
0.00250353
0.00252501
0.00254613
0.00256655
0.00258589
0.00260384
0.00262014
0.0026346
0.00264709
0.00265757
0.00266605
0.00267261
0.00267737
0.00268052
0.00268224
0.00268275
0.00268228
0.00268108
0.00267939
0.00267748
0.00267586
0.0026739
0.00267168
0.0026697
0.00266813
0.00266705
0.00266652
0.0026665
0.00266696
0.00266779
0.00266885
0.00266996
0.00267088
0.00267133
0.00267098
0.00266948
0.00266642
0.00266137
0.0026539
0.00264361
0.00263009
0.00254673
0.00256867
0.00259022
0.002611
0.00263063
0.00264877
0.00266515
0.00267956
0.00269188
0.00270207
0.00271013
0.00271617
0.0027203
0.00272271
0.00272361
0.00272321
0.00272177
0.00271952
0.0027167
0.00271355
0.00271025
0.0027066
0.00270301
0.00269967
0.00269672
0.00269422
0.0026922
0.00269063
0.00268945
0.00268855
0.00268777
0.0026869
0.00268569
0.00268388
0.00268112
0.00267709
0.00267141
0.00266374
0.00265373
0.00264113
0.00262565
0.00259281
0.00261533
0.0026374
0.00265863
0.0026786
0.00269697
0.00271346
0.00272786
0.00274005
0.00274998
0.00275768
0.00276323
0.00276678
0.00276851
0.00276863
0.00276738
0.00276499
0.00276172
0.00275779
0.00275342
0.0027485
0.0027432
0.00273819
0.00273341
0.00272897
0.00272491
0.00272124
0.00271795
0.00271495
0.00271213
0.00270934
0.00270638
0.002703
0.00269896
0.00269397
0.00268773
0.00267996
0.00267041
0.00265884
0.00264512
0.00262906
0.00264237
0.00266558
0.00268824
0.00270995
0.00273028
0.00274888
0.00276549
0.00277989
0.00279196
0.00280166
0.00280903
0.00281415
0.00281718
0.00281831
0.00281773
0.0028157
0.00281244
0.00280821
0.00280323
0.0027977
0.00279129
0.00278445
0.00277806
0.00277183
0.00276585
0.00276017
0.0027548
0.00274971
0.00274484
0.00274009
0.00273531
0.00273034
0.00272497
0.00271899
0.00271218
0.00270432
0.00269521
0.00268467
0.00267259
0.00265889
0.00264348
0.00269657
0.00272044
0.00274368
0.00276581
0.00278643
0.00280521
0.00282187
0.00283622
0.00284814
0.00285762
0.00286468
0.00286942
0.00287199
0.00287259
0.00287143
0.00286873
0.00286473
0.00285967
0.00285377
0.00284721
0.00283953
0.00283137
0.00282369
0.00281611
0.00280868
0.00280145
0.00279444
0.00278764
0.00278102
0.00277448
0.00276793
0.00276123
0.00275424
0.00274681
0.00273878
0.00273001
0.00272036
0.00270974
0.0026981
0.0026854
0.00267161
0.00275733
0.00278162
0.00280522
0.00282757
0.00284827
0.00286702
0.00288355
0.00289771
0.00290938
0.00291856
0.00292529
0.00292967
0.00293186
0.00293205
0.00293043
0.00292722
0.00292267
0.00291698
0.00291038
0.00290303
0.00289442
0.00288527
0.00287657
0.00286786
0.0028592
0.00285066
0.00284227
0.00283404
0.00282596
0.00281799
0.00281007
0.00280212
0.00279406
0.00278579
0.00277722
0.00276827
0.00275886
0.00274896
0.00273854
0.00272759
0.0027162
0.00282775
0.00285183
0.00287528
0.00289733
0.00291764
0.00293593
0.00295196
0.00296561
0.00297679
0.0029855
0.00299181
0.00299582
0.00299768
0.00299756
0.00299566
0.00299219
0.00298735
0.00298135
0.00297438
0.00296661
0.00295757
0.00294794
0.00293865
0.00292926
0.00291982
0.00291043
0.00290115
0.002892
0.002883
0.00287417
0.00286548
0.00285692
0.00284845
0.00284003
0.00283163
0.00282321
0.00281475
0.00280622
0.00279761
0.00278893
0.0027805
0.00291278
0.00293534
0.00295757
0.00297834
0.00299736
0.00301437
0.00302921
0.00304176
0.00305199
0.00305991
0.00306559
0.00306913
0.00307068
0.00307039
0.00306844
0.003065
0.00306027
0.00305441
0.00304761
0.00304
0.00303122
0.00302187
0.00301269
0.00300332
0.00299386
0.00298439
0.00297499
0.00296572
0.00295663
0.00294775
0.00293912
0.00293075
0.00292266
0.00291486
0.00290734
0.00290011
0.00289317
0.0028865
0.00288011
0.00287398
0.00286888
0.00302016
0.00303886
0.00305791
0.0030756
0.0030917
0.00310603
0.00311845
0.0031289
0.00313738
0.00314391
0.00314855
0.00315142
0.00315262
0.00315229
0.00315057
0.0031476
0.00314353
0.00313849
0.00313262
0.00312605
0.00311854
0.00311054
0.00310253
0.00309431
0.00308598
0.00307761
0.00306929
0.00306108
0.00305306
0.00304529
0.00303781
0.00303067
0.00302392
0.00301758
0.00301168
0.00300625
0.00300128
0.0029968
0.00299277
0.0029892
0.00298754
0.00316224
0.00317294
0.00318541
0.00319691
0.00320732
0.00321653
0.00322447
0.00323112
0.00323649
0.0032406
0.00324352
0.00324531
0.00324604
0.00324581
0.0032447
0.00324279
0.00324017
0.00323693
0.00323314
0.00322889
0.0032241
0.00321898
0.00321376
0.00320838
0.00320291
0.0031974
0.00319192
0.00318653
0.00318127
0.00317621
0.00317138
0.00316684
0.00316263
0.00315878
0.00315531
0.00315226
0.00314964
0.00314745
0.00314568
0.0031443
0.00314596
0.00934405
0.00288905
0.00215724
0.0022313
0.00228058
0.00230763
0.00231483
0.00231827
0.00231885
0.00231797
0.00231582
0.00231279
0.0023092
0.00230513
0.00230067
0.00229492
0.00228818
0.0084442
0.00303189
0.0021642
0.00216872
0.0022277
0.00226923
0.00228556
0.00229303
0.00229575
0.00229583
0.00229431
0.00229194
0.00228911
0.00228569
0.00228156
0.00227578
0.00226885
0.0076077
0.00320553
0.00221264
0.0021177
0.00216913
0.00222338
0.00225512
0.00227099
0.00227817
0.00228026
0.00227954
0.00227736
0.00227433
0.00227051
0.00226578
0.00225942
0.00225134
0.00682317
0.00335578
0.00230429
0.00209784
0.00211834
0.00217682
0.00222291
0.00225127
0.00226572
0.00227111
0.00227118
0.00226837
0.00226404
0.00225871
0.00225249
0.00224485
0.00223557
0.00609431
0.00344366
0.00241262
0.00211714
0.00208838
0.00213794
0.00219495
0.00223628
0.00225944
0.00226872
0.00226921
0.00226483
0.00225805
0.00225011
0.00224143
0.00223165
0.00222097
0.00543096
0.00344054
0.00251237
0.00216416
0.00208462
0.00211633
0.00217729
0.00222919
0.00226048
0.00227311
0.00227313
0.00226604
0.00225565
0.00224402
0.00223205
0.00221964
0.00220682
0.00484859
0.00337293
0.00257017
0.00220803
0.00209686
0.00211257
0.00217391
0.002233
0.00227021
0.00228441
0.00228223
0.00227093
0.00225575
0.0022395
0.00222359
0.00220819
0.00219324
0.00438898
0.00331152
0.00258753
0.00223481
0.00211306
0.00212231
0.00218543
0.00224947
0.00228928
0.00230199
0.0022952
0.00227797
0.00225685
0.00223534
0.00221511
0.00219652
0.00217969
0.00404794
0.00328705
0.00258494
0.00224509
0.00212812
0.00214241
0.00221152
0.00227893
0.00231723
0.00232433
0.00231
0.0022851
0.00225717
0.00223016
0.00220571
0.00218426
0.00216565
0.00381666
0.00324384
0.00257232
0.00224471
0.00214377
0.00217363
0.00225248
0.00232056
0.00235197
0.00234867
0.00232378
0.00228982
0.0022548
0.00222257
0.0021945
0.00217091
0.00215121
0.00368432
0.00318456
0.00254449
0.0022381
0.00216561
0.00221982
0.00230894
0.00237186
0.00238937
0.00237082
0.0023331
0.00228956
0.00224798
0.00221149
0.00218092
0.00215617
0.00213648
0.00363943
0.00312539
0.0025023
0.00223136
0.00220146
0.0022854
0.00237937
0.00242722
0.0024231
0.00238562
0.00233437
0.00228212
0.00223544
0.00219634
0.00216483
0.00214028
0.00212147
0.00367029
0.00307145
0.00245373
0.00223488
0.00226021
0.0023716
0.00245704
0.00247723
0.00244544
0.00238809
0.0023248
0.00226617
0.00221678
0.0021772
0.00214652
0.00212356
0.00210658
0.00376512
0.00302145
0.00240973
0.00226177
0.00234816
0.00247205
0.00252878
0.00251052
0.00244953
0.00237499
0.00230334
0.00224182
0.00219267
0.00215494
0.00212687
0.00210672
0.0020925
0.0039123
0.00297322
0.00238261
0.00232446
0.0024631
0.0025701
0.00257798
0.00251775
0.00243193
0.00234599
0.00227105
0.00221068
0.00216479
0.00213103
0.00210701
0.00209058
0.00207955
0.00410072
0.00292644
0.00238546
0.00242762
0.00258694
0.00264187
0.00259164
0.00249561
0.0023938
0.00230378
0.00223093
0.0021755
0.00213538
0.00210715
0.00208808
0.0020758
0.0020681
0.00432039
0.00288384
0.00242964
0.00256029
0.00268906
0.00266872
0.00256674
0.00244763
0.00234015
0.00225321
0.00218721
0.00213967
0.00210694
0.00208506
0.00207121
0.00206308
0.00205864
0.00456309
0.00285019
0.00251963
0.00269312
0.00274169
0.00264679
0.00251012
0.00238214
0.00227838
0.00220033
0.00214451
0.00210649
0.00208169
0.00206618
0.00205725
0.0020529
0.00205128
0.0048228
0.00283802
0.0026427
0.00278748
0.00273541
0.00258591
0.00243384
0.00230919
0.00221622
0.00215077
0.00210667
0.00207838
0.00206113
0.00205133
0.00204661
0.00204542
0.00204608
0.00509616
0.00285276
0.00277034
0.00281969
0.00268041
0.00250181
0.00235049
0.00223804
0.00216012
0.0021087
0.00207619
0.00205674
0.00204596
0.00204085
0.00203943
0.00204062
0.00204305
0.00538284
0.00290323
0.00286298
0.00279195
0.00259578
0.00240984
0.0022707
0.00217561
0.00211422
0.00207633
0.00205407
0.00204192
0.00203624
0.00203468
0.00203564
0.00203854
0.00204202
0.00568559
0.00298266
0.0028978
0.00272307
0.00249979
0.0023223
0.00220217
0.00212618
0.00208047
0.00205424
0.00204018
0.00203361
0.0020316
0.00203245
0.00203496
0.00203889
0.00204285
0.00600925
0.00306986
0.0028822
0.00263437
0.00240633
0.00224729
0.00214881
0.00209099
0.00205868
0.00204166
0.00203367
0.00203098
0.00203138
0.00203364
0.00203695
0.00204121
0.00204529
0.00635993
0.00315138
0.00283234
0.00254162
0.00232438
0.00218879
0.00211144
0.00206928
0.00204752
0.00203726
0.00203342
0.00203317
0.00203487
0.00203777
0.00204131
0.00204548
0.00204919
0.00674323
0.00321898
0.00276447
0.00245524
0.00225861
0.00214753
0.00208891
0.00205925
0.00204525
0.00203958
0.00203826
0.00203923
0.00204141
0.00204434
0.00204766
0.00205137
0.00205437
0.00716232
0.00326719
0.00269053
0.00238136
0.00221044
0.0021223
0.00207912
0.00205883
0.00205017
0.00204723
0.00204711
0.00204841
0.00205041
0.0020529
0.00205557
0.00205829
0.00206054
0.00761859
0.00329779
0.00261775
0.00232279
0.00217909
0.00211095
0.00207978
0.00206615
0.00206072
0.00205908
0.00205919
0.00206014
0.0020615
0.00206318
0.00206485
0.00206646
0.0020678
0.00811304
0.00330902
0.00254995
0.00227948
0.00216255
0.00211109
0.00208886
0.00207949
0.00207568
0.00207427
0.0020739
0.00207402
0.00207439
0.00207498
0.0020754
0.00207581
0.00207607
0.00863784
0.0032971
0.00248999
0.00225123
0.0021586
0.00212054
0.00210461
0.0020976
0.00209421
0.00209226
0.0020909
0.00208983
0.00208892
0.00208818
0.00208705
0.00208593
0.00208512
0.00918195
0.00325988
0.00243983
0.00223688
0.0021655
0.00213761
0.00212568
0.00211963
0.00211579
0.00211274
0.00211
0.00210746
0.00210508
0.00210274
0.00209977
0.00209717
0.00209532
0.00973176
0.0031979
0.00240118
0.00223526
0.00218167
0.002161
0.0021512
0.00214509
0.00214016
0.00213559
0.00213118
0.00212692
0.00212282
0.00211859
0.00211371
0.00210973
0.0021067
0.0102713
0.00311507
0.00237549
0.00224528
0.00220584
0.00218978
0.0021807
0.00217373
0.00216723
0.00216081
0.00215444
0.00214822
0.00214216
0.00213575
0.0021289
0.00212337
0.00211905
0.0107834
0.00301879
0.00236404
0.00226606
0.00223702
0.00222345
0.002214
0.00220551
0.00219707
0.00218846
0.00217986
0.00217141
0.00216308
0.00215422
0.00214542
0.00213833
0.00213266
0.0112498
0.0029192
0.00236779
0.00229694
0.00227467
0.00226184
0.0022511
0.00224054
0.00222974
0.00221864
0.0022075
0.00219651
0.00218555
0.00217407
0.00216341
0.00215472
0.00214751
0.0116526
0.00282782
0.00238751
0.00233745
0.00231864
0.00230504
0.00229217
0.00227897
0.00226537
0.00225142
0.00223739
0.00222349
0.00220955
0.00219542
0.00218288
0.00217235
0.00216332
0.0119749
0.00275608
0.00242385
0.00238749
0.0023692
0.00235337
0.00233745
0.00232096
0.00230405
0.00228685
0.00226953
0.0022523
0.00223509
0.00221841
0.00220382
0.00219121
0.00218027
0.0122021
0.00271429
0.00247761
0.0024476
0.00242695
0.00240731
0.00238728
0.00236672
0.00234588
0.00232494
0.00230386
0.0022829
0.0022623
0.00224309
0.00222617
0.00221127
0.00219819
0.0123231
0.00271147
0.00255008
0.00251899
0.00249289
0.00246752
0.00244207
0.00241647
0.00239095
0.00236567
0.00234033
0.00231528
0.00229133
0.00226942
0.00224982
0.00223234
0.00221688
0.0123303
0.00275667
0.00264338
0.00260374
0.00256842
0.00253491
0.00250234
0.00247048
0.00243936
0.00240903
0.00237888
0.00234962
0.00232227
0.00229727
0.00227463
0.00225431
0.00223636
0.012222
0.00285683
0.00276178
0.00270506
0.00265562
0.0026107
0.0025688
0.00252911
0.00249124
0.00245498
0.00241963
0.00238612
0.00235506