/*--------------------------------*- C++ -*----------------------------------*\
  =========                 |
  \\      /  F ield         | OpenFOAM: The Open Source CFD Toolbox
   \\    /   O peration     | Website:  https://openfoam.org
    \\  /    A nd           | Version:  6
     \\/     M anipulation  |
\*---------------------------------------------------------------------------*/
FoamFile
{
    version     2.0;
    format      ascii;
    class       volScalarField;
    location    "4.1";
    object      rho;
}
// * * * * * * * * * * * * * * * * * * * * * * * * * * * * * * * * * * * * * //

dimensions      [1 -3 0 0 0 0 0];

internalField   nonuniform List<scalar> 
5625
(
1.4502
1.44372
1.43529
1.42564
1.41542
1.40514
1.39525
1.38611
1.37805
1.37131
1.36599
1.36224
1.36009
1.35947
1.36016
1.3617
1.36357
1.3654
1.36688
1.3676
1.36732
1.36607
1.36412
1.36187
1.3596
1.35743
1.35579
1.3552
1.35562
1.3565
1.35753
1.35881
1.36027
1.36144
1.36196
1.36184
1.36114
1.35989
1.35829
1.35682
1.35614
1.35668
1.35852
1.36156
1.36573
1.37118
1.3782
1.38704
1.39764
1.40954
1.42182
1.43325
1.44256
1.44875
1.45132
1.4504
1.44663
1.44098
1.43442
1.4278
1.42171
1.41645
1.41216
1.40879
1.40625
1.40437
1.40303
1.40209
1.40143
1.40098
1.40068
1.40047
1.40033
1.40024
1.40017
1.45204
1.44662
1.43903
1.42999
1.42017
1.4101
1.40022
1.39093
1.38254
1.37529
1.36935
1.36485
1.36186
1.36034
1.36011
1.36087
1.36241
1.36441
1.36637
1.36783
1.36869
1.36903
1.36883
1.36814
1.36714
1.36604
1.36516
1.36469
1.36444
1.36414
1.3639
1.36388
1.36389
1.36356
1.36278
1.36168
1.36035
1.35884
1.35737
1.35641
1.35647
1.35783
1.36045
1.36419
1.36902
1.37512
1.38276
1.39212
1.40303
1.41492
1.42677
1.43735
1.44548
1.45031
1.45155
1.44952
1.44499
1.43892
1.43227
1.42578
1.41994
1.415
1.41102
1.40793
1.40562
1.40393
1.40272
1.40187
1.40129
1.40089
1.40062
1.40043
1.40031
1.40022
1.40016
1.45347
1.44924
1.44262
1.43432
1.425
1.41523
1.40546
1.39611
1.38748
1.37982
1.37331
1.36814
1.36437
1.36194
1.36075
1.36071
1.36167
1.36325
1.36496
1.36662
1.3682
1.36945
1.37014
1.37034
1.37021
1.36986
1.3694
1.36887
1.36816
1.36727
1.36643
1.36569
1.36483
1.36364
1.36221
1.36073
1.35929
1.35792
1.35689
1.35664
1.35755
1.35974
1.36311
1.3675
1.37295
1.37965
1.38786
1.39766
1.40876
1.42046
1.43169
1.44124
1.44803
1.45142
1.45133
1.44825
1.44304
1.43667
1.43001
1.42371
1.41818
1.41357
1.40991
1.40711
1.40502
1.4035
1.40243
1.40168
1.40116
1.4008
1.40056
1.4004
1.40028
1.4002
1.40015
1.45439
1.45148
1.44596
1.43852
1.42984
1.42048
1.41092
1.4016
1.39283
1.38485
1.37788
1.37211
1.36758
1.36429
1.36224
1.3614
1.36155
1.36234
1.36356
1.36515
1.36684
1.36822
1.36921
1.36993
1.37034
1.37037
1.37008
1.36952
1.36867
1.36761
1.36655
1.36546
1.36415
1.3626
1.36103
1.35962
1.35842
1.35749
1.35711
1.35768
1.35946
1.36245
1.3665
1.37149
1.37751
1.38477
1.39348
1.40361
1.41474
1.42607
1.43647
1.44479
1.45011
1.45201
1.45062
1.44658
1.44081
1.43424
1.42766
1.42162
1.41643
1.41218
1.40885
1.40632
1.40445
1.4031
1.40215
1.40149
1.40103
1.40072
1.40051
1.40036
1.40026
1.40019
1.40014
1.4547
1.4532
1.44893
1.4425
1.43459
1.42576
1.41654
1.40736
1.39853
1.39034
1.38302
1.37672
1.37151
1.36747
1.36464
1.36295
1.36219
1.36215
1.36281
1.36397
1.36522
1.36634
1.3674
1.36832
1.36887
1.36898
1.36878
1.36828
1.36747
1.36645
1.36538
1.36418
1.36277
1.36127
1.35992
1.35887
1.35813
1.35781
1.35821
1.35964
1.36226
1.36597
1.37062
1.37615
1.38269
1.39046
1.39957
1.4099
1.42088
1.4316
1.44096
1.44787
1.45162
1.45201
1.44939
1.44451
1.43831
1.43167
1.42527
1.41955
1.41473
1.41085
1.40784
1.40557
1.40392
1.40273
1.4019
1.40132
1.40092
1.40065
1.40046
1.40033
1.40024
1.40017
1.40013
1.45431
1.45431
1.45141
1.44614
1.43914
1.43099
1.42223
1.4133
1.40454
1.39624
1.38866
1.38194
1.37618
1.3715
1.36793
1.36539
1.36374
1.36294
1.36292
1.36337
1.36401
1.3648
1.3657
1.36644
1.36683
1.36693
1.36681
1.36639
1.36567
1.36479
1.36383
1.3627
1.36145
1.36027
1.35938
1.35885
1.35871
1.35909
1.3603
1.36257
1.36594
1.37028
1.37545
1.38146
1.38847
1.39666
1.40608
1.41642
1.42703
1.43692
1.445
1.45034
1.45246
1.45138
1.44764
1.44207
1.43559
1.429
1.42286
1.41751
1.41309
1.40958
1.40688
1.40488
1.40342
1.40239
1.40166
1.40116
1.40081
1.40057
1.40041
1.4003
1.40022
1.40016
1.40012
1.45314
1.45469
1.45328
1.44932
1.44338
1.43605
1.42789
1.41934
1.41076
1.40248
1.39475
1.38773
1.38154
1.37631
1.37207
1.36876
1.36634
1.36482
1.36402
1.36369
1.36373
1.36409
1.36458
1.36492
1.3651
1.36518
1.36508
1.36469
1.36408
1.36338
1.36259
1.36168
1.36076
1.36007
1.35975
1.35981
1.3603
1.36142
1.36343
1.36647
1.37049
1.37535
1.38096
1.38739
1.3948
1.40332
1.41288
1.42305
1.43304
1.44184
1.44843
1.45209
1.45256
1.4501
1.44539
1.43931
1.43271
1.42628
1.42047
1.41553
1.41152
1.40838
1.406
1.40424
1.40297
1.40207
1.40145
1.40101
1.40072
1.40051
1.40037
1.40027
1.4002
1.40015
1.40011
1.45117
1.45424
1.4544
1.45187
1.44715
1.44082
1.4334
1.42537
1.41712
1.40899
1.40123
1.394
1.3875
1.38184
1.37704
1.37308
1.37
1.36777
1.3662
1.36515
1.3646
1.36442
1.36438
1.36434
1.36433
1.3643
1.36411
1.36372
1.36323
1.36274
1.36218
1.36158
1.3611
1.36096
1.36122
1.36187
1.36301
1.36485
1.3676
1.37129
1.37584
1.38112
1.3871
1.39388
1.40161
1.41035
1.41987
1.42962
1.43871
1.44616
1.45109
1.453
1.45187
1.44818
1.44269
1.43628
1.42971
1.42355
1.41815
1.41365
1.41005
1.40727
1.40518
1.40366
1.40256
1.40179
1.40125
1.40088
1.40063
1.40045
1.40033
1.40024
1.40018
1.40013
1.4001
1.44839
1.45288
1.45463
1.45366
1.45033
1.44514
1.43862
1.43126
1.42349
1.41564
1.40795
1.40067
1.394
1.38802
1.38276
1.37828
1.37464
1.37176
1.3695
1.36784
1.36671
1.36597
1.36542
1.36503
1.36479
1.36456
1.36424
1.36386
1.36353
1.36322
1.36291
1.36267
1.36268
1.36308
1.36387
1.36509
1.36685
1.36936
1.37273
1.37696
1.38193
1.38754
1.39381
1.40087
1.40882
1.41761
1.42687
1.43592
1.44384
1.44971
1.45284
1.45299
1.45039
1.44566
1.43961
1.43306
1.42667
1.42088
1.41592
1.41187
1.40869
1.40625
1.40444
1.40313
1.4022
1.40154
1.40108
1.40077
1.40055
1.4004
1.40029
1.40022
1.40016
1.40012
1.40009
1.44486
1.45059
1.4539
1.45454
1.45272
1.44885
1.4434
1.43689
1.42973
1.42229
1.41484
1.40766
1.40092
1.39472
1.38914
1.38429
1.38018
1.37674
1.37393
1.37174
1.37008
1.36879
1.36779
1.36708
1.36657
1.36612
1.3657
1.36536
1.36515
1.36501
1.36495
1.36508
1.36557
1.36645
1.36773
1.36946
1.37179
1.37487
1.37876
1.3834
1.38866
1.39451
1.401
1.40825
1.4163
1.42494
1.43367
1.44171
1.44817
1.45227
1.45356
1.45204
1.44815
1.44261
1.43623
1.42973
1.42364
1.41829
1.41382
1.41022
1.40743
1.40533
1.40378
1.40266
1.40187
1.40131
1.40093
1.40066
1.40048
1.40035
1.40026
1.40019
1.40014
1.40011
1.40008
1.44071
1.44739
1.45212
1.45439
1.45418
1.45175
1.44756
1.44206
1.43569
1.42881
1.42177
1.41482
1.40812
1.40183
1.3961
1.391
1.38652
1.38263
1.37938
1.37674
1.3746
1.37285
1.37149
1.37048
1.36969
1.36904
1.36856
1.36827
1.36816
1.36816
1.36834
1.36884
1.36973
1.37103
1.37273
1.37491
1.37774
1.38129
1.38557
1.39048
1.39593
1.40194
1.40858
1.41591
1.42387
1.4321
1.44
1.44673
1.4515
1.45371
1.45318
1.45015
1.44522
1.43914
1.43266
1.42638
1.4207
1.41584
1.41186
1.40872
1.4063
1.4045
1.40319
1.40224
1.40158
1.40111
1.40079
1.40057
1.40041
1.40031
1.40023
1.40017
1.40013
1.4001
1.40007
1.43612
1.44339
1.4493
1.45311
1.45454
1.45369
1.45091
1.4466
1.44117
1.43505
1.42856
1.42196
1.41547
1.40927
1.40351
1.39824
1.39349
1.38931
1.38575
1.38274
1.3802
1.3781
1.37644
1.37515
1.37412
1.37332
1.37279
1.37253
1.37248
1.37262
1.37305
1.37386
1.37509
1.37671
1.37877
1.38135
1.38457
1.38847
1.39301
1.39808
1.40364
1.40973
1.41641
1.42367
1.43131
1.43884
1.44557
1.4507
1.4536
1.45391
1.45169
1.44741
1.44172
1.43537
1.429
1.42308
1.4179
1.41356
1.41007
1.40735
1.4053
1.40377
1.40267
1.40188
1.40133
1.40094
1.40067
1.40049
1.40036
1.40027
1.4002
1.40015
1.40012
1.40009
1.40007
1.43135
1.43877
1.44549
1.45064
1.45369
1.45449
1.45324
1.45027
1.44599
1.44079
1.435
1.42893
1.42281
1.41684
1.41116
1.40584
1.40099
1.39667
1.39288
1.38957
1.38674
1.3844
1.38251
1.38097
1.37974
1.37885
1.37829
1.37803
1.37803
1.37831
1.37896
1.38003
1.3815
1.38338
1.38572
1.38862
1.39214
1.39627
1.40094
1.40607
1.41165
1.41773
1.42432
1.4313
1.43833
1.44482
1.45006
1.45338
1.45433
1.45283
1.44918
1.44394
1.43781
1.43145
1.42537
1.41993
1.41528
1.41147
1.40846
1.40614
1.40441
1.40313
1.40221
1.40156
1.40111
1.40079
1.40057
1.40042
1.40031
1.40023
1.40018
1.40013
1.4001
1.40008
1.40006
1.42663
1.43381
1.44091
1.44706
1.45154
1.45399
1.45437
1.45289
1.44992
1.44581
1.44092
1.43553
1.42993
1.42433
1.41887
1.41368
1.40887
1.4045
1.40057
1.39709
1.39409
1.39157
1.38948
1.38776
1.38643
1.38547
1.38488
1.38461
1.38465
1.38506
1.38589
1.38714
1.3888
1.39087
1.39343
1.39656
1.40026
1.4045
1.40918
1.41428
1.4198
1.42575
1.43207
1.4385
1.44459
1.4497
1.4532
1.45457
1.45363
1.45054
1.44576
1.43991
1.43364
1.4275
1.42187
1.41696
1.41288
1.40959
1.40703
1.40508
1.40363
1.40258
1.40182
1.40129
1.40092
1.40066
1.40048
1.40036
1.40027
1.4002
1.40015
1.40012
1.40009
1.40007
1.40005
1.42219
1.4288
1.43583
1.44254
1.44814
1.45209
1.45412
1.45425
1.45273
1.44989
1.44605
1.44153
1.43662
1.43154
1.42646
1.42153
1.41687
1.41255
1.40861
1.4051
1.40203
1.3994
1.39718
1.39536
1.39396
1.39297
1.39235
1.39208
1.39218
1.39269
1.39364
1.39501
1.39678
1.399
1.40172
1.40498
1.40875
1.41297
1.41758
1.42255
1.42789
1.43354
1.43933
1.44489
1.44969
1.45314
1.45472
1.45417
1.45155
1.44719
1.44165
1.43554
1.4294
1.42366
1.41856
1.41425
1.41072
1.40793
1.40578
1.40416
1.40297
1.40211
1.40149
1.40106
1.40076
1.40055
1.40041
1.4003
1.40023
1.40017
1.40013
1.4001
1.40008
1.40006
1.40005
1.4182
1.42402
1.43059
1.43737
1.44366
1.44881
1.45235
1.45412
1.45419
1.45276
1.45016
1.4467
1.44264
1.43823
1.43368
1.42916
1.42478
1.42065
1.41682
1.41337
1.41032
1.40766
1.40539
1.40355
1.40213
1.40111
1.40047
1.40021
1.40037
1.40096
1.40198
1.40341
1.40526
1.40757
1.41037
1.41366
1.41739
1.42149
1.42592
1.43065
1.43565
1.44076
1.44571
1.45005
1.45326
1.45485
1.45451
1.45223
1.44823
1.443
1.43709
1.43103
1.42524
1.42003
1.41553
1.41181
1.40881
1.40647
1.40469
1.40337
1.4024
1.40171
1.40121
1.40087
1.40063
1.40046
1.40034
1.40026
1.4002
1.40015
1.40012
1.40009
1.40007
1.40005
1.40004
1.41469
1.41967
1.42552
1.43195
1.43843
1.44433
1.4491
1.45238
1.45405
1.45417
1.45297
1.45073
1.4477
1.44415
1.44029
1.43631
1.43236
1.42854
1.42496
1.42167
1.41871
1.41611
1.41389
1.41208
1.41067
1.40965
1.40902
1.4088
1.40901
1.40965
1.41069
1.41215
1.41402
1.41635
1.41914
1.42236
1.42593
1.42981
1.43394
1.43828
1.4427
1.44698
1.45076
1.45357
1.45499
1.45469
1.4526
1.4489
1.44395
1.43826
1.43232
1.42657
1.4213
1.41669
1.41281
1.40965
1.40715
1.40523
1.40378
1.4027
1.40193
1.40137
1.40098
1.40071
1.40051
1.40038
1.40029
1.40022
1.40017
1.40013
1.4001
1.40008
1.40006
1.40005
1.40004
1.41171
1.41585
1.42087
1.42665
1.43286
1.43901
1.44456
1.44905
1.45219
1.45387
1.45419
1.45332
1.4515
1.44898
1.44599
1.44272
1.43934
1.43598
1.43274
1.42972
1.42696
1.42451
1.42241
1.42068
1.41933
1.41835
1.41776
1.41758
1.41782
1.41847
1.41952
1.42096
1.42282
1.4251
1.42778
1.4308
1.4341
1.43762
1.4413
1.44502
1.44859
1.45172
1.45403
1.45512
1.45472
1.4527
1.44918
1.44448
1.43902
1.43326
1.42759
1.42233
1.41767
1.4137
1.41042
1.40779
1.40574
1.40417
1.403
1.40215
1.40153
1.40109
1.40078
1.40057
1.40042
1.40031
1.40024
1.40018
1.40014
1.40011
1.40009
1.40007
1.40005
1.40004
1.40003
1.40921
1.4126
1.41679
1.42176
1.42737
1.43331
1.43914
1.44439
1.44867
1.45176
1.45356
1.45416
1.45369
1.45238
1.45043
1.44804
1.44538
1.44262
1.43988
1.43724
1.43478
1.43258
1.43067
1.42908
1.42782
1.42692
1.4264
1.42627
1.42653
1.42716
1.42817
1.42956
1.43134
1.43348
1.43593
1.43864
1.44154
1.44454
1.44755
1.45039
1.45282
1.45453
1.45519
1.45455
1.45249
1.44909
1.44459
1.43936
1.4338
1.42828
1.42309
1.41844
1.41443
1.41108
1.40836
1.40621
1.40455
1.40329
1.40236
1.40169
1.40121
1.40087
1.40063
1.40046
1.40034
1.40026
1.4002
1.40015
1.40012
1.4001
1.40007
1.40006
1.40005
1.40004
1.40003
1.40717
1.40987
1.41329
1.41745
1.4223
1.42769
1.43332
1.43882
1.4438
1.44794
1.45104
1.45304
1.45398
1.45398
1.45322
1.45187
1.45011
1.44811
1.44599
1.44387
1.44184
1.43997
1.43832
1.43693
1.43584
1.43506
1.43463
1.43454
1.4348
1.43539
1.43633
1.43761
1.43921
1.4411
1.4432
1.44546
1.44778
1.45006
1.45215
1.45386
1.45493
1.45509
1.45413
1.45195
1.44859
1.44426
1.43925
1.43392
1.42859
1.42354
1.41897
1.41497
1.4116
1.40883
1.40661
1.40488
1.40356
1.40257
1.40184
1.40132
1.40094
1.40068
1.4005
1.40037
1.40028
1.40021
1.40016
1.40013
1.4001
1.40008
1.40006
1.40005
1.40004
1.40003
1.40002
1.40551
1.40765
1.41039
1.41377
1.41783
1.42248
1.42759
1.43289
1.43806
1.4428
1.44682
1.44998
1.4522
1.45351
1.454
1.45381
1.45309
1.45198
1.45063
1.44916
1.44768
1.44625
1.44496
1.44385
1.44297
1.44235
1.44201
1.44196
1.44221
1.44274
1.44356
1.44465
1.44597
1.44748
1.44909
1.45073
1.45229
1.45365
1.45463
1.45505
1.45468
1.45336
1.45101
1.44766
1.44347
1.43869
1.43361
1.42851
1.42366
1.41922
1.4153
1.41196
1.40918
1.40693
1.40516
1.40379
1.40275
1.40198
1.40142
1.40102
1.40073
1.40053
1.40039
1.40029
1.40022
1.40017
1.40014
1.40011
1.40009
1.40007
1.40005
1.40004
1.40003
1.40003
1.40002
1.40418
1.40586
1.40802
1.41072
1.41401
1.4179
1.42231
1.42709
1.43203
1.43688
1.44137
1.4453
1.44851
1.45094
1.4526
1.45357
1.45394
1.45383
1.45337
1.45266
1.45181
1.45093
1.45008
1.44933
1.44872
1.44829
1.44807
1.44805
1.44826
1.44869
1.44932
1.45013
1.45107
1.45207
1.45306
1.45393
1.45459
1.45489
1.45468
1.45381
1.45214
1.44961
1.44626
1.44222
1.43767
1.43286
1.42804
1.42343
1.41918
1.4154
1.41214
1.4094
1.40716
1.40537
1.40397
1.4029
1.4021
1.40151
1.40108
1.40078
1.40056
1.40041
1.40031
1.40023
1.40018
1.40014
1.40011
1.40009
1.40007
1.40006
1.40005
1.40004
1.40003
1.40002
1.40002
1.40314
1.40444
1.40612
1.40824
1.41086
1.41401
1.41768
1.42179
1.42622
1.43078
1.43529
1.43953
1.44332
1.44654
1.44914
1.45112
1.4525
1.45337
1.45381
1.45392
1.4538
1.45353
1.45319
1.45285
1.45255
1.45234
1.45224
1.45226
1.45242
1.45269
1.45307
1.45352
1.45398
1.45438
1.45464
1.45468
1.45438
1.45363
1.45231
1.45035
1.44769
1.44436
1.44047
1.43618
1.43169
1.42719
1.42286
1.41885
1.41525
1.41212
1.40947
1.40727
1.4055
1.4041
1.40301
1.40219
1.40158
1.40114
1.40082
1.40059
1.40043
1.40032
1.40024
1.40019
1.40015
1.40012
1.40009
1.40008
1.40006
1.40005
1.40004
1.40003
1.40003
1.40002
1.40002
1.40233
1.40332
1.40461
1.40626
1.40831
1.41081
1.41377
1.41717
1.42095
1.425
1.42917
1.43332
1.43726
1.44088
1.44405
1.44675
1.44893
1.45062
1.45188
1.45277
1.45335
1.4537
1.45389
1.45398
1.45402
1.45403
1.45406
1.4541
1.45418
1.45428
1.45437
1.45441
1.45434
1.45411
1.45365
1.45288
1.45172
1.45008
1.44791
1.44519
1.44194
1.43826
1.43427
1.43011
1.42596
1.42196
1.41823
1.41487
1.41191
1.40938
1.40727
1.40554
1.40416
1.40308
1.40225
1.40163
1.40117
1.40084
1.40061
1.40044
1.40033
1.40024
1.40019
1.40015
1.40012
1.40009
1.40008
1.40006
1.40005
1.40004
1.40003
1.40003
1.40002
1.40002
1.40001
1.40172
1.40246
1.40344
1.4047
1.40629
1.40823
1.41057
1.4133
1.4164
1.41983
1.42347
1.42724
1.431
1.43462
1.43799
1.44104
1.44371
1.44598
1.44785
1.44935
1.45053
1.45143
1.4521
1.45258
1.45292
1.45315
1.4533
1.45336
1.45335
1.45325
1.45304
1.45269
1.45215
1.45136
1.45029
1.44886
1.44704
1.4448
1.44212
1.43903
1.4356
1.43194
1.42816
1.42439
1.42076
1.41736
1.41426
1.41151
1.40914
1.40714
1.40548
1.40415
1.4031
1.40228
1.40166
1.4012
1.40086
1.40062
1.40045
1.40033
1.40024
1.40019
1.40015
1.40012
1.40009
1.40008
1.40006
1.40005
1.40004
1.40003
1.40003
1.40002
1.40002
1.40002
1.40001
1.40125
1.40181
1.40255
1.4035
1.4047
1.4062
1.40801
1.41015
1.41263
1.41542
1.41846
1.4217
1.42504
1.42838
1.43164
1.43471
1.43753
1.44007
1.44229
1.44419
1.44577
1.44706
1.44809
1.44889
1.44947
1.44987
1.4501
1.45017
1.45008
1.44982
1.44936
1.44869
1.44777
1.44658
1.44507
1.44323
1.44104
1.43851
1.43567
1.43256
1.42928
1.4259
1.42255
1.4193
1.41624
1.41344
1.41094
1.40875
1.40689
1.40534
1.40407
1.40306
1.40227
1.40166
1.4012
1.40086
1.40062
1.40045
1.40033
1.40024
1.40018
1.40014
1.40011
1.40009
1.40007
1.40006
1.40005
1.40004
1.40004
1.40003
1.40002
1.40002
1.40002
1.40001
1.40001
1.40091
1.40132
1.40186
1.40258
1.40349
1.40461
1.40599
1.40765
1.40958
1.41178
1.41424
1.41691
1.41974
1.42264
1.42555
1.42841
1.43112
1.43365
1.43594
1.43799
1.43976
1.44126
1.44249
1.44347
1.44421
1.44472
1.445
1.44507
1.44492
1.44454
1.44392
1.44304
1.4419
1.44048
1.43877
1.43677
1.43449
1.43195
1.42922
1.42635
1.42341
1.42047
1.41763
1.41493
1.41245
1.41021
1.40824
1.40654
1.40511
1.40392
1.40297
1.40221
1.40163
1.40118
1.40085
1.40061
1.40044
1.40032
1.40023
1.40018
1.40014
1.40011
1.40009
1.40007
1.40006
1.40005
1.40004
1.40003
1.40003
1.40002
1.40002
1.40002
1.40001
1.40001
1.40001
1.40065
1.40095
1.40136
1.40188
1.40256
1.4034
1.40445
1.4057
1.40717
1.40888
1.41081
1.41294
1.41523
1.41764
1.42012
1.4226
1.42502
1.42734
1.42951
1.43149
1.43325
1.43478
1.43607
1.43711
1.4379
1.43846
1.43876
1.43881
1.43862
1.43818
1.43749
1.43654
1.43533
1.43386
1.43214
1.43019
1.42803
1.4257
1.42326
1.42075
1.41825
1.41581
1.41349
1.41132
1.40936
1.40761
1.40609
1.40479
1.40371
1.40283
1.40212
1.40157
1.40115
1.40083
1.40059
1.40042
1.4003
1.40022
1.40016
1.40013
1.4001
1.40008
1.40007
1.40006
1.40005
1.40004
1.40003
1.40003
1.40002
1.40002
1.40002
1.40001
1.40001
1.40001
1.40001
1.40047
1.40069
1.40098
1.40137
1.40187
1.40249
1.40326
1.4042
1.40532
1.40661
1.40809
1.40975
1.41155
1.41348
1.41549
1.41755
1.4196
1.42161
1.42351
1.42529
1.4269
1.42833
1.42955
1.43055
1.43131
1.43184
1.43214
1.43219
1.43199
1.43154
1.43085
1.42993
1.42877
1.42739
1.4258
1.42404
1.42213
1.42011
1.41804
1.41596
1.41391
1.41195
1.41011
1.40842
1.4069
1.40557
1.40442
1.40345
1.40265
1.402
1.40149
1.40109
1.40079
1.40056
1.4004
1.40029
1.40021
1.40015
1.40011
1.40009
1.40007
1.40006
1.40005
1.40004
1.40004
1.40003
1.40003
1.40002
1.40002
1.40002
1.40001
1.40001
1.40001
1.40001
1.40001
1.40034
1.4005
1.40071
1.40099
1.40135
1.40181
1.40238
1.40307
1.4039
1.40487
1.40599
1.40724
1.40863
1.41013
1.41172
1.41336
1.41502
1.41667
1.41827
1.41977
1.42116
1.4224
1.42348
1.42437
1.42505
1.42553
1.42578
1.42582
1.42563
1.42522
1.4246
1.42376
1.42272
1.42151
1.42013
1.41863
1.41703
1.41536
1.41367
1.412
1.41038
1.40885
1.40743
1.40614
1.40499
1.40399
1.40314
1.40242
1.40184
1.40138
1.40101
1.40073
1.40052
1.40037
1.40026
1.40019
1.40013
1.4001
1.40008
1.40006
1.40005
1.40004
1.40004
1.40003
1.40003
1.40003
1.40002
1.40002
1.40002
1.40001
1.40001
1.40001
1.40001
1.40001
1.40001
1.40025
1.40036
1.40052
1.40072
1.40098
1.40131
1.40173
1.40223
1.40284
1.40355
1.40438
1.40532
1.40636
1.4075
1.40872
1.41
1.4113
1.4126
1.41388
1.41511
1.41625
1.41727
1.41817
1.41891
1.41949
1.4199
1.42011
1.42013
1.41996
1.41961
1.41907
1.41835
1.41748
1.41646
1.41533
1.4141
1.4128
1.41147
1.41014
1.40884
1.40759
1.40642
1.40535
1.40438
1.40353
1.4028
1.40218
1.40167
1.40125
1.40092
1.40067
1.40048
1.40034
1.40023
1.40016
1.40012
1.40008
1.40006
1.40005
1.40004
1.40004
1.40003
1.40003
1.40003
1.40002
1.40002
1.40002
1.40002
1.40001
1.40001
1.40001
1.40001
1.40001
1.40001
1.40001
1.40018
1.40027
1.40038
1.40052
1.40071
1.40095
1.40125
1.40161
1.40205
1.40257
1.40318
1.40387
1.40464
1.40549
1.40641
1.40737
1.40836
1.40937
1.41036
1.41132
1.41221
1.41303
1.41375
1.41435
1.41481
1.41513
1.4153
1.41531
1.41517
1.41487
1.41442
1.41384
1.41313
1.41231
1.41141
1.41044
1.40942
1.40839
1.40737
1.40638
1.40544
1.40457
1.40377
1.40306
1.40244
1.40191
1.40147
1.40111
1.40082
1.40059
1.40042
1.4003
1.4002
1.40014
1.4001
1.40007
1.40005
1.40004
1.40003
1.40003
1.40003
1.40002
1.40002
1.40002
1.40002
1.40002
1.40002
1.40001
1.40001
1.40001
1.40001
1.40001
1.40001
1.40001
1.40001
1.40014
1.4002
1.40027
1.40038
1.40052
1.40069
1.4009
1.40117
1.40148
1.40185
1.40229
1.40279
1.40336
1.40398
1.40465
1.40536
1.4061
1.40686
1.40761
1.40834
1.40902
1.40965
1.4102
1.41066
1.41102
1.41127
1.41139
1.4114
1.41128
1.41104
1.41068
1.41021
1.40965
1.40901
1.40831
1.40757
1.40679
1.40601
1.40525
1.40451
1.40381
1.40317
1.40259
1.40208
1.40164
1.40127
1.40096
1.40071
1.40052
1.40037
1.40025
1.40017
1.40011
1.40007
1.40005
1.40003
1.40003
1.40002
1.40002
1.40002
1.40002
1.40002
1.40002
1.40002
1.40002
1.40001
1.40001
1.40001
1.40001
1.40001
1.40001
1.40001
1.40001
1.40001
1.40001
1.4001
1.40015
1.40021
1.40028
1.40038
1.4005
1.40066
1.40084
1.40107
1.40134
1.40165
1.402
1.40241
1.40286
1.40334
1.40386
1.4044
1.40496
1.40551
1.40605
1.40656
1.40702
1.40743
1.40778
1.40805
1.40823
1.40832
1.40831
1.40822
1.40803
1.40775
1.40739
1.40696
1.40647
1.40594
1.40537
1.4048
1.40422
1.40365
1.40311
1.40261
1.40215
1.40174
1.40138
1.40107
1.40081
1.4006
1.40043
1.4003
1.40021
1.40014
1.40009
1.40005
1.40003
1.40002
1.40001
1.40001
1.40001
1.40001
1.40001
1.40001
1.40001
1.40001
1.40001
1.40001
1.40001
1.40001
1.40001
1.40001
1.40001
1.40001
1.40001
1.40001
1.40001
1.40001
1.40008
1.40011
1.40016
1.40022
1.40028
1.40037
1.40048
1.40061
1.40077
1.40096
1.40118
1.40144
1.40172
1.40204
1.40238
1.40276
1.40315
1.40354
1.40394
1.40433
1.4047
1.40504
1.40534
1.40559
1.40578
1.40591
1.40597
1.40596
1.40588
1.40573
1.40551
1.40524
1.40492
1.40455
1.40415
1.40374
1.40331
1.40289
1.40248
1.4021
1.40174
1.40141
1.40112
1.40087
1.40066
1.40049
1.40035
1.40025
1.40016
1.4001
1.40006
1.40003
1.40001
1.4
1.4
1.4
1.4
1.4
1.40001
1.40001
1.40001
1.40001
1.40001
1.40001
1.40001
1.40001
1.40001
1.40001
1.40001
1.40001
1.40001
1.40001
1.40001
1.40001
1.40001
1.40006
1.40009
1.40012
1.40016
1.40021
1.40028
1.40036
1.40045
1.40056
1.4007
1.40085
1.40102
1.40123
1.40145
1.40169
1.40195
1.40223
1.40251
1.40279
1.40307
1.40333
1.40357
1.40378
1.40396
1.40409
1.40417
1.40421
1.4042
1.40413
1.40401
1.40385
1.40364
1.4034
1.40313
1.40284
1.40254
1.40223
1.40193
1.40164
1.40137
1.40112
1.40089
1.4007
1.40053
1.40039
1.40028
1.40019
1.40012
1.40007
1.40003
1.40001
1.4
1.39999
1.39999
1.39999
1.39999
1.4
1.4
1.4
1.4
1.40001
1.40001
1.40001
1.40001
1.40001
1.40001
1.40001
1.40001
1.40001
1.40001
1.40001
1.40001
1.40001
1.40001
1.40001
1.40006
1.40007
1.4001
1.40013
1.40017
1.40021
1.40027
1.40033
1.40041
1.4005
1.40061
1.40074
1.40088
1.40103
1.4012
1.40138
1.40157
1.40176
1.40196
1.40215
1.40233
1.4025
1.40264
1.40276
1.40285
1.4029
1.40292
1.4029
1.40285
1.40276
1.40264
1.40248
1.4023
1.40211
1.4019
1.40168
1.40147
1.40125
1.40105
1.40086
1.40069
1.40054
1.40041
1.4003
1.40021
1.40013
1.40008
1.40004
1.40001
1.39999
1.39998
1.39998
1.39998
1.39998
1.39998
1.39999
1.39999
1.4
1.4
1.4
1.40001
1.40001
1.40001
1.40001
1.40001
1.40001
1.40001
1.40001
1.40001
1.40001
1.40001
1.40001
1.40001
1.40001
1.40001
1.40004
1.40006
1.40008
1.4001
1.40013
1.40016
1.4002
1.40025
1.40031
1.40037
1.40045
1.40053
1.40063
1.40074
1.40085
1.40098
1.40111
1.40124
1.40137
1.40149
1.40162
1.40173
1.40183
1.4019
1.40196
1.40199
1.402
1.40198
1.40193
1.40186
1.40177
1.40166
1.40153
1.40139
1.40124
1.40108
1.40093
1.40078
1.40064
1.40052
1.4004
1.4003
1.40021
1.40014
1.40009
1.40004
1.40001
1.39999
1.39998
1.39997
1.39997
1.39997
1.39997
1.39998
1.39998
1.39999
1.39999
1.4
1.4
1.4
1.4
1.4
1.40001
1.40001
1.40001
1.40001
1.40001
1.40001
1.40001
1.40001
1.40001
1.40001
1.40001
1.40001
1.40001
1.40004
1.40005
1.40006
1.40008
1.4001
1.40013
1.40016
1.40019
1.40023
1.40028
1.40033
1.40039
1.40046
1.40053
1.40061
1.40069
1.40077
1.40087
1.40096
1.40104
1.40112
1.40118
1.40125
1.4013
1.40133
1.40135
1.40134
1.40133
1.40129
1.40123
1.40116
1.40108
1.40098
1.40088
1.40078
1.40067
1.40057
1.40046
1.40037
1.40028
1.40021
1.40015
1.40009
1.40005
1.40001
1.39999
1.39997
1.39996
1.39996
1.39996
1.39996
1.39997
1.39997
1.39998
1.39998
1.39999
1.39999
1.4
1.4
1.4
1.4
1.4
1.40001
1.40001
1.40001
1.40001
1.40001
1.40001
1.40001
1.40001
1.40001
1.40001
1.40001
1.40001
1.40001
1.40003
1.40004
1.40005
1.40006
1.40008
1.4001
1.40012
1.40015
1.40018
1.40021
1.40025
1.40029
1.40033
1.40038
1.40044
1.4005
1.40055
1.4006
1.40066
1.40072
1.40077
1.40081
1.40085
1.40087
1.40089
1.4009
1.40089
1.40087
1.40084
1.4008
1.40075
1.40069
1.40062
1.40054
1.40047
1.4004
1.40032
1.40026
1.40019
1.40014
1.40009
1.40005
1.40002
1.39999
1.39997
1.39996
1.39995
1.39995
1.39995
1.39996
1.39996
1.39997
1.39997
1.39998
1.39998
1.39999
1.39999
1.4
1.4
1.4
1.4
1.4
1.40001
1.40001
1.40001
1.40001
1.40001
1.40001
1.40001
1.40001
1.40001
1.40001
1.40001
1.4
1.40001
1.40003
1.40004
1.40004
1.40006
1.40007
1.40008
1.4001
1.40012
1.40014
1.40016
1.40019
1.40022
1.40025
1.40028
1.40032
1.40035
1.40039
1.40043
1.40047
1.4005
1.40053
1.40055
1.40058
1.40059
1.40059
1.40059
1.40058
1.40057
1.40054
1.40051
1.40046
1.40042
1.40037
1.40032
1.40027
1.40022
1.40017
1.40012
1.40008
1.40005
1.40002
1.39999
1.39997
1.39996
1.39995
1.39995
1.39995
1.39995
1.39995
1.39996
1.39996
1.39997
1.39998
1.39998
1.39999
1.39999
1.39999
1.4
1.4
1.4
1.4
1.4
1.4
1.40001
1.40001
1.40001
1.40001
1.40001
1.40001
1.40001
1.40001
1.40001
1.40001
1.40001
1.40001
1.40002
1.40003
1.40004
1.40004
1.40005
1.40007
1.40008
1.40009
1.40011
1.40013
1.40015
1.40016
1.40019
1.40021
1.40024
1.40026
1.40028
1.40031
1.40033
1.40035
1.40036
1.40038
1.40039
1.40039
1.4004
1.40039
1.40038
1.40036
1.40034
1.40031
1.40028
1.40025
1.40021
1.40018
1.40014
1.40011
1.40007
1.40004
1.40002
1.4
1.39998
1.39996
1.39995
1.39995
1.39994
1.39994
1.39995
1.39995
1.39996
1.39996
1.39997
1.39997
1.39998
1.39998
1.39999
1.39999
1.4
1.4
1.4
1.4
1.4
1.4
1.4
1.4
1.4
1.4
1.40001
1.40001
1.40001
1.40001
1.40001
1.40001
1.4
1.40001
1.40001
1.40002
1.40002
1.40003
1.40004
1.40004
1.40005
1.40006
1.40008
1.40008
1.4001
1.40012
1.40013
1.40014
1.40016
1.40018
1.40019
1.40021
1.40022
1.40023
1.40025
1.40026
1.40026
1.40026
1.40026
1.40026
1.40025
1.40024
1.40023
1.40021
1.40019
1.40017
1.40014
1.40011
1.40009
1.40006
1.40004
1.40002
1.4
1.39998
1.39997
1.39996
1.39995
1.39995
1.39995
1.39995
1.39995
1.39995
1.39996
1.39996
1.39997
1.39997
1.39998
1.39998
1.39999
1.39999
1.39999
1.4
1.4
1.4
1.4
1.4
1.4
1.4
1.40001
1.40001
1.40001
1.40001
1.40001
1.4
1.40001
1.40001
1.40001
1.40001
1.40001
1.40001
1.40002
1.40002
1.40002
1.40003
1.40004
1.40005
1.40005
1.40006
1.40007
1.40008
1.40009
1.4001
1.40011
1.40012
1.40013
1.40014
1.40015
1.40016
1.40017
1.40017
1.40018
1.40018
1.40018
1.40018
1.40017
1.40016
1.40015
1.40014
1.40013
1.40011
1.40009
1.40007
1.40005
1.40003
1.40002
1.4
1.39999
1.39997
1.39996
1.39996
1.39995
1.39995
1.39995
1.39995
1.39995
1.39995
1.39996
1.39996
1.39997
1.39997
1.39998
1.39998
1.39999
1.39999
1.39999
1.4
1.4
1.4
1.4
1.4
1.4
1.4
1.4
1.4
1.4
1.40001
1.40001
1.40001
1.40001
1.40001
1.4
1.4
1.40001
1.40001
1.40001
1.40001
1.40002
1.40003
1.40003
1.40002
1.40004
1.40005
1.40005
1.40005
1.40006
1.40007
1.40008
1.40009
1.4001
1.4001
1.40011
1.40011
1.40012
1.40013
1.40013
1.40013
1.40013
1.40013
1.40012
1.40012
1.40011
1.4001
1.40009
1.40007
1.40006
1.40005
1.40003
1.40002
1.40001
1.39999
1.39998
1.39997
1.39996
1.39996
1.39995
1.39995
1.39995
1.39995
1.39995
1.39996
1.39996
1.39996
1.39997
1.39997
1.39998
1.39998
1.39999
1.39999
1.39999
1.4
1.4
1.4
1.4
1.4
1.4
1.4
1.4
1.4
1.4
1.4
1.4
1.4
1.40001
1.40001
1.40001
1.40001
1.40001
1.40001
1.40001
1.4
1.40002
1.40001
1.40001
1.40002
1.40003
1.40003
1.40003
1.40004
1.40005
1.40005
1.40006
1.40006
1.40007
1.40007
1.40008
1.40008
1.40009
1.40009
1.40009
1.40009
1.40009
1.40009
1.40009
1.40008
1.40008
1.40007
1.40006
1.40005
1.40004
1.40003
1.40002
1.40001
1.4
1.39999
1.39998
1.39998
1.39997
1.39996
1.39996
1.39996
1.39996
1.39996
1.39996
1.39996
1.39996
1.39997
1.39997
1.39998
1.39998
1.39998
1.39999
1.39999
1.39999
1.4
1.4
1.4
1.4
1.4
1.4
1.4
1.4
1.4
1.4
1.4
1.40001
1.40001
1.4
1.4
1.4
1.4
1.4
1.4
1.40001
1.40001
1.40001
1.40001
1.40002
1.40001
1.40002
1.40002
1.40003
1.40003
1.40003
1.40003
1.40004
1.40005
1.40005
1.40005
1.40006
1.40006
1.40007
1.40007
1.40007
1.40007
1.40007
1.40007
1.40007
1.40006
1.40006
1.40006
1.40005
1.40004
1.40003
1.40003
1.40002
1.40001
1.4
1.39999
1.39999
1.39998
1.39997
1.39997
1.39997
1.39996
1.39996
1.39996
1.39996
1.39997
1.39997
1.39997
1.39997
1.39998
1.39998
1.39999
1.39999
1.39999
1.39999
1.4
1.4
1.4
1.4
1.4
1.4
1.4
1.4
1.4
1.4
1.4
1.4
1.40001
1.40001
1.40001
1.40001
1.40001
1.40001
1.40001
1.40001
1.4
1.40001
1.4
1.40001
1.40001
1.40001
1.40002
1.40002
1.40002
1.40002
1.40003
1.40003
1.40003
1.40004
1.40004
1.40004
1.40005
1.40005
1.40005
1.40005
1.40005
1.40005
1.40005
1.40005
1.40005
1.40005
1.40004
1.40004
1.40003
1.40003
1.40002
1.40001
1.40001
1.4
1.39999
1.39999
1.39998
1.39998
1.39998
1.39997
1.39997
1.39997
1.39997
1.39997
1.39997
1.39997
1.39998
1.39998
1.39998
1.39998
1.39999
1.39999
1.39999
1.39999
1.4
1.4
1.4
1.4
1.4
1.4
1.4
1.4
1.4
1.4
1.4
1.4
1.4
1.4
1.4
1.4
1.4
1.40001
1.40001
1.40001
1.40001
1.40001
1.40001
1.40001
1.40001
1.40001
1.40001
1.40001
1.40002
1.40002
1.40002
1.40002
1.40002
1.40003
1.40003
1.40003
1.40003
1.40004
1.40004
1.40004
1.40004
1.40004
1.40004
1.40004
1.40004
1.40004
1.40004
1.40003
1.40003
1.40002
1.40002
1.40002
1.40001
1.4
1.4
1.39999
1.39999
1.39999
1.39998
1.39998
1.39998
1.39998
1.39998
1.39998
1.39998
1.39998
1.39998
1.39998
1.39998
1.39999
1.39999
1.39999
1.39999
1.39999
1.4
1.4
1.4
1.4
1.4
1.4
1.4
1.4
1.4
1.4
1.4
1.4
1.4
1.40001
1.40001
1.40001
1.40001
1.4
1.4
1.4
1.4
1.4
1.40001
1.40001
1.4
1.40001
1.40001
1.40001
1.40001
1.40001
1.40001
1.40002
1.40002
1.40002
1.40002
1.40002
1.40003
1.40003
1.40003
1.40003
1.40003
1.40003
1.40003
1.40003
1.40003
1.40003
1.40003
1.40003
1.40003
1.40002
1.40002
1.40001
1.40001
1.40001
1.4
1.4
1.39999
1.39999
1.39999
1.39999
1.39998
1.39998
1.39998
1.39998
1.39998
1.39998
1.39999
1.39999
1.39999
1.39999
1.39999
1.39999
1.39999
1.39999
1.4
1.4
1.4
1.4
1.4
1.4
1.4
1.4
1.4
1.4
1.4
1.4
1.4
1.4
1.4
1.4
1.40001
1.40001
1.40001
1.40001
1.40001
1.40001
1.40001
1.40001
1.4
1.40001
1.40001
1.40001
1.40001
1.40001
1.40001
1.40001
1.40001
1.40001
1.40002
1.40002
1.40002
1.40002
1.40002
1.40002
1.40003
1.40003
1.40003
1.40003
1.40002
1.40003
1.40003
1.40002
1.40002
1.40002
1.40002
1.40001
1.40001
1.40001
1.4
1.4
1.4
1.4
1.39999
1.39999
1.39999
1.39999
1.39999
1.39999
1.39999
1.39999