/*--------------------------------*- C++ -*----------------------------------*\
  =========                 |
  \\      /  F ield         | OpenFOAM: The Open Source CFD Toolbox
   \\    /   O peration     | Website:  https://openfoam.org
    \\  /    A nd           | Version:  6
     \\/     M anipulation  |
\*---------------------------------------------------------------------------*/
FoamFile
{
    version     2.0;
    format      ascii;
    class       volVectorField;
    location    "3.6";
    object      U;
}
// * * * * * * * * * * * * * * * * * * * * * * * * * * * * * * * * * * * * * //

dimensions      [0 1 -1 0 0 0 0];

internalField   nonuniform List<vector> 
22500
(
(0.8944 0.4472 0)
(0.8944 0.4472 0)
(0.8944 0.4472 0)
(0.8944 0.4472 0)
(0.8944 0.4472 0)
(0.8944 0.4472 0)
(0.8944 0.4472 0)
(0.8944 0.4472 0)
(0.8944 0.4472 0)
(0.8944 0.4472 0)
(0.8944 0.4472 0)
(0.8944 0.4472 0)
(0.8944 0.4472 0)
(0.8944 0.4472 0)
(0.8944 0.4472 0)
(0.8944 0.4472 0)
(0.8944 0.4472 0)
(0.8944 0.4472 0)
(0.8944 0.4472 0)
(0.8944 0.4472 0)
(0.8944 0.4472 0)
(0.8944 0.4472 0)
(0.8944 0.4472 0)
(0.8944 0.4472 0)
(0.8944 0.4472 0)
(0.8944 0.4472 0)
(0.8944 0.4472 0)
(0.8944 0.4472 0)
(0.8944 0.4472 0)
(0.8944 0.4472 0)
(0.8944 0.4472 0)
(0.8944 0.4472 0)
(0.8944 0.4472 0)
(0.8944 0.4472 0)
(0.8944 0.4472 0)
(0.8944 0.4472 0)
(0.8944 0.4472 0)
(0.8944 0.4472 0)
(0.8944 0.4472 0)
(0.8944 0.4472 0)
(0.8944 0.4472 0)
(0.8944 0.4472 0)
(0.8944 0.4472 0)
(0.8944 0.4472 0)
(0.8944 0.4472 0)
(0.8944 0.4472 0)
(0.8944 0.4472 0)
(0.8944 0.4472 0)
(0.8944 0.4472 0)
(0.8944 0.4472 0)
(0.8944 0.4472 0)
(0.8944 0.4472 0)
(0.8944 0.4472 0)
(0.8944 0.4472 0)
(0.8944 0.4472 0)
(0.8944 0.4472 0)
(0.8944 0.4472 0)
(0.8944 0.4472 0)
(0.8944 0.4472 0)
(0.8944 0.4472 0)
(0.8944 0.4472 0)
(0.8944 0.4472 0)
(0.8944 0.4472 0)
(0.8944 0.4472 0)
(0.8944 0.4472 0)
(0.8944 0.4472 0)
(0.894401 0.4472 0)
(0.894401 0.4472 0)
(0.894401 0.4472 0)
(0.894402 0.447199 0)
(0.894402 0.447199 0)
(0.894403 0.447198 0)
(0.894404 0.447197 0)
(0.894405 0.447195 0)
(0.894406 0.447193 0)
(0.894408 0.447191 0)
(0.894409 0.447189 0)
(0.89441 0.447186 0)
(0.894411 0.447182 0)
(0.894412 0.447179 0)
(0.894413 0.447176 0)
(0.894413 0.447172 0)
(0.894412 0.447169 0)
(0.894411 0.447167 0)
(0.894409 0.447166 0)
(0.894407 0.447165 0)
(0.894403 0.447166 0)
(0.894399 0.447168 0)
(0.894395 0.447172 0)
(0.89439 0.447178 0)
(0.894386 0.447185 0)
(0.894381 0.447194 0)
(0.894377 0.447203 0)
(0.894373 0.447214 0)
(0.89437 0.447225 0)
(0.894368 0.447237 0)
(0.894367 0.447248 0)
(0.894367 0.44726 0)
(0.894368 0.44727 0)
(0.89437 0.447279 0)
(0.894373 0.447287 0)
(0.894377 0.447294 0)
(0.894381 0.447298 0)
(0.894385 0.447301 0)
(0.89439 0.447302 0)
(0.894395 0.447302 0)
(0.8944 0.4473 0)
(0.894404 0.447296 0)
(0.894408 0.447291 0)
(0.894411 0.447286 0)
(0.894414 0.447279 0)
(0.894416 0.447272 0)
(0.894417 0.447265 0)
(0.894418 0.447258 0)
(0.894418 0.447251 0)
(0.894418 0.447244 0)
(0.894417 0.447237 0)
(0.894416 0.447231 0)
(0.894414 0.447226 0)
(0.894413 0.447221 0)
(0.894411 0.447217 0)
(0.89441 0.447213 0)
(0.894408 0.44721 0)
(0.894407 0.447208 0)
(0.894405 0.447206 0)
(0.894404 0.447204 0)
(0.894403 0.447203 0)
(0.894402 0.447202 0)
(0.894402 0.447201 0)
(0.894401 0.447201 0)
(0.894401 0.4472 0)
(0.894401 0.4472 0)
(0.8944 0.4472 0)
(0.8944 0.4472 0)
(0.8944 0.4472 0)
(0.8944 0.4472 0)
(0.8944 0.4472 0)
(0.8944 0.4472 0)
(0.8944 0.4472 0)
(0.8944 0.4472 0)
(0.8944 0.4472 0)
(0.8944 0.4472 0)
(0.8944 0.4472 0)
(0.8944 0.4472 0)
(0.8944 0.4472 0)
(0.8944 0.4472 0)
(0.8944 0.4472 0)
(0.8944 0.4472 0)
(0.8944 0.4472 0)
(0.8944 0.4472 0)
(0.8944 0.4472 0)
(0.8944 0.4472 0)
(0.8944 0.4472 0)
(0.8944 0.4472 0)
(0.8944 0.4472 0)
(0.8944 0.4472 0)
(0.8944 0.4472 0)
(0.8944 0.4472 0)
(0.8944 0.4472 0)
(0.8944 0.4472 0)
(0.8944 0.4472 0)
(0.8944 0.4472 0)
(0.8944 0.4472 0)
(0.8944 0.4472 0)
(0.8944 0.4472 0)
(0.8944 0.4472 0)
(0.8944 0.4472 0)
(0.8944 0.4472 0)
(0.8944 0.4472 0)
(0.8944 0.4472 0)
(0.8944 0.4472 0)
(0.8944 0.4472 0)
(0.8944 0.4472 0)
(0.8944 0.4472 0)
(0.8944 0.4472 0)
(0.8944 0.4472 0)
(0.8944 0.4472 0)
(0.8944 0.4472 0)
(0.8944 0.4472 0)
(0.8944 0.4472 0)
(0.8944 0.4472 0)
(0.8944 0.4472 0)
(0.8944 0.4472 0)
(0.8944 0.4472 0)
(0.8944 0.4472 0)
(0.8944 0.4472 0)
(0.8944 0.4472 0)
(0.8944 0.4472 0)
(0.8944 0.4472 0)
(0.8944 0.4472 0)
(0.8944 0.4472 0)
(0.8944 0.4472 0)
(0.8944 0.4472 0)
(0.8944 0.4472 0)
(0.8944 0.4472 0)
(0.8944 0.4472 0)
(0.8944 0.4472 0)
(0.8944 0.4472 0)
(0.8944 0.4472 0)
(0.8944 0.4472 0)
(0.8944 0.4472 0)
(0.8944 0.4472 0)
(0.8944 0.4472 0)
(0.8944 0.4472 0)
(0.8944 0.4472 0)
(0.8944 0.4472 0)
(0.8944 0.4472 0)
(0.8944 0.4472 0)
(0.8944 0.4472 0)
(0.8944 0.4472 0)
(0.8944 0.4472 0)
(0.8944 0.4472 0)
(0.8944 0.4472 0)
(0.8944 0.4472 0)
(0.8944 0.4472 0)
(0.8944 0.4472 0)
(0.894401 0.4472 0)
(0.894401 0.4472 0)
(0.894401 0.4472 0)
(0.894402 0.447199 0)
(0.894403 0.447199 0)
(0.894404 0.447198 0)
(0.894405 0.447196 0)
(0.894406 0.447194 0)
(0.894408 0.447192 0)
(0.89441 0.44719 0)
(0.894411 0.447187 0)
(0.894413 0.447183 0)
(0.894414 0.447179 0)
(0.894415 0.447175 0)
(0.894415 0.447172 0)
(0.894415 0.447169 0)
(0.894414 0.447166 0)
(0.894412 0.447164 0)
(0.89441 0.447164 0)
(0.894406 0.447165 0)
(0.894402 0.447168 0)
(0.894396 0.447173 0)
(0.894391 0.447179 0)
(0.894385 0.447188 0)
(0.894379 0.447199 0)
(0.894373 0.447211 0)
(0.894368 0.447225 0)
(0.894363 0.447241 0)
(0.89436 0.447256 0)
(0.894358 0.447271 0)
(0.894357 0.447286 0)
(0.894358 0.447301 0)
(0.89436 0.447313 0)
(0.894363 0.447324 0)
(0.894367 0.447333 0)
(0.894372 0.447339 0)
(0.894378 0.447344 0)
(0.894384 0.447345 0)
(0.89439 0.447345 0)
(0.894396 0.447342 0)
(0.894402 0.447337 0)
(0.894408 0.447331 0)
(0.894413 0.447323 0)
(0.894416 0.447315 0)
(0.89442 0.447305 0)
(0.894422 0.447295 0)
(0.894423 0.447285 0)
(0.894424 0.447275 0)
(0.894424 0.447266 0)
(0.894423 0.447256 0)
(0.894422 0.447248 0)
(0.894421 0.44724 0)
(0.894419 0.447233 0)
(0.894417 0.447227 0)
(0.894415 0.447221 0)
(0.894412 0.447217 0)
(0.89441 0.447213 0)
(0.894409 0.44721 0)
(0.894407 0.447207 0)
(0.894405 0.447205 0)
(0.894404 0.447203 0)
(0.894403 0.447202 0)
(0.894402 0.447201 0)
(0.894402 0.447201 0)
(0.894401 0.4472 0)
(0.894401 0.4472 0)
(0.8944 0.4472 0)
(0.8944 0.4472 0)
(0.8944 0.4472 0)
(0.8944 0.4472 0)
(0.8944 0.4472 0)
(0.8944 0.4472 0)
(0.8944 0.4472 0)
(0.8944 0.4472 0)
(0.8944 0.4472 0)
(0.8944 0.4472 0)
(0.8944 0.4472 0)
(0.8944 0.4472 0)
(0.8944 0.4472 0)
(0.8944 0.4472 0)
(0.8944 0.4472 0)
(0.8944 0.4472 0)
(0.8944 0.4472 0)
(0.8944 0.4472 0)
(0.8944 0.4472 0)
(0.8944 0.4472 0)
(0.8944 0.4472 0)
(0.8944 0.4472 0)
(0.8944 0.4472 0)
(0.8944 0.4472 0)
(0.8944 0.4472 0)
(0.8944 0.4472 0)
(0.8944 0.4472 0)
(0.8944 0.4472 0)
(0.8944 0.4472 0)
(0.8944 0.4472 0)
(0.8944 0.4472 0)
(0.8944 0.4472 0)
(0.8944 0.4472 0)
(0.8944 0.4472 0)
(0.8944 0.4472 0)
(0.8944 0.4472 0)
(0.8944 0.4472 0)
(0.8944 0.4472 0)
(0.8944 0.4472 0)
(0.8944 0.4472 0)
(0.8944 0.4472 0)
(0.8944 0.4472 0)
(0.8944 0.4472 0)
(0.8944 0.4472 0)
(0.8944 0.4472 0)
(0.8944 0.4472 0)
(0.8944 0.4472 0)
(0.8944 0.4472 0)
(0.8944 0.4472 0)
(0.8944 0.4472 0)
(0.8944 0.4472 0)
(0.8944 0.4472 0)
(0.8944 0.4472 0)
(0.8944 0.4472 0)
(0.8944 0.4472 0)
(0.8944 0.4472 0)
(0.8944 0.4472 0)
(0.8944 0.4472 0)
(0.8944 0.4472 0)
(0.8944 0.4472 0)
(0.8944 0.4472 0)
(0.8944 0.4472 0)
(0.8944 0.4472 0)
(0.8944 0.4472 0)
(0.8944 0.4472 0)
(0.8944 0.4472 0)
(0.8944 0.4472 0)
(0.8944 0.4472 0)
(0.8944 0.4472 0)
(0.8944 0.4472 0)
(0.8944 0.4472 0)
(0.8944 0.4472 0)
(0.8944 0.4472 0)
(0.8944 0.4472 0)
(0.8944 0.4472 0)
(0.8944 0.4472 0)
(0.8944 0.4472 0)
(0.8944 0.4472 0)
(0.8944 0.4472 0)
(0.8944 0.4472 0)
(0.8944 0.4472 0)
(0.8944 0.4472 0)
(0.8944 0.447201 0)
(0.8944 0.447201 0)
(0.894401 0.4472 0)
(0.894401 0.447201 0)
(0.894402 0.4472 0)
(0.894402 0.447199 0)
(0.894404 0.447198 0)
(0.894405 0.447197 0)
(0.894407 0.447196 0)
(0.894408 0.447193 0)
(0.89441 0.447191 0)
(0.894412 0.447188 0)
(0.894414 0.447185 0)
(0.894416 0.447181 0)
(0.894417 0.447177 0)
(0.894418 0.447173 0)
(0.894418 0.447169 0)
(0.894417 0.447166 0)
(0.894416 0.447165 0)
(0.894413 0.447164 0)
(0.894409 0.447165 0)
(0.894403 0.447169 0)
(0.894398 0.447176 0)
(0.894391 0.447184 0)
(0.894383 0.447195 0)
(0.894375 0.447209 0)
(0.894368 0.447226 0)
(0.894361 0.447244 0)
(0.894355 0.447264 0)
(0.89435 0.447284 0)
(0.894347 0.447306 0)
(0.894344 0.447326 0)
(0.894344 0.447346 0)
(0.894346 0.447364 0)
(0.89435 0.447379 0)
(0.894355 0.447392 0)
(0.894361 0.447402 0)
(0.894368 0.447408 0)
(0.894376 0.447411 0)
(0.894384 0.44741 0)
(0.894392 0.447407 0)
(0.8944 0.4474 0)
(0.894407 0.447391 0)
(0.894414 0.447381 0)
(0.89442 0.447368 0)
(0.894424 0.447355 0)
(0.894428 0.447341 0)
(0.894431 0.447326 0)
(0.894432 0.447312 0)
(0.894433 0.447298 0)
(0.894432 0.447285 0)
(0.894431 0.447273 0)
(0.894429 0.447261 0)
(0.894427 0.447251 0)
(0.894424 0.447241 0)
(0.894421 0.447233 0)
(0.894419 0.447226 0)
(0.894416 0.447221 0)
(0.894413 0.447216 0)
(0.894411 0.447212 0)
(0.894409 0.447208 0)
(0.894407 0.447206 0)
(0.894405 0.447204 0)
(0.894404 0.447202 0)
(0.894403 0.447201 0)
(0.894402 0.447201 0)
(0.894401 0.4472 0)
(0.894401 0.4472 0)
(0.894401 0.4472 0)
(0.8944 0.4472 0)
(0.8944 0.4472 0)
(0.8944 0.4472 0)
(0.8944 0.4472 0)
(0.8944 0.4472 0)
(0.8944 0.4472 0)
(0.8944 0.4472 0)
(0.8944 0.4472 0)
(0.8944 0.4472 0)
(0.8944 0.4472 0)
(0.8944 0.4472 0)
(0.8944 0.4472 0)
(0.8944 0.4472 0)
(0.8944 0.4472 0)
(0.8944 0.4472 0)
(0.8944 0.4472 0)
(0.8944 0.4472 0)
(0.8944 0.4472 0)
(0.8944 0.4472 0)
(0.8944 0.4472 0)
(0.8944 0.4472 0)
(0.8944 0.4472 0)
(0.8944 0.4472 0)
(0.8944 0.4472 0)
(0.8944 0.4472 0)
(0.8944 0.4472 0)
(0.8944 0.4472 0)
(0.8944 0.4472 0)
(0.8944 0.4472 0)
(0.8944 0.4472 0)
(0.8944 0.4472 0)
(0.8944 0.4472 0)
(0.8944 0.4472 0)
(0.8944 0.4472 0)
(0.8944 0.4472 0)
(0.8944 0.4472 0)
(0.8944 0.4472 0)
(0.8944 0.4472 0)
(0.8944 0.4472 0)
(0.8944 0.4472 0)
(0.8944 0.4472 0)
(0.8944 0.4472 0)
(0.8944 0.4472 0)
(0.8944 0.4472 0)
(0.8944 0.4472 0)
(0.8944 0.4472 0)
(0.8944 0.4472 0)
(0.8944 0.4472 0)
(0.8944 0.4472 0)
(0.8944 0.4472 0)
(0.8944 0.4472 0)
(0.8944 0.4472 0)
(0.8944 0.4472 0)
(0.8944 0.4472 0)
(0.8944 0.4472 0)
(0.8944 0.4472 0)
(0.8944 0.4472 0)
(0.8944 0.4472 0)
(0.8944 0.4472 0)
(0.8944 0.4472 0)
(0.8944 0.4472 0)
(0.8944 0.4472 0)
(0.8944 0.4472 0)
(0.8944 0.4472 0)
(0.8944 0.4472 0)
(0.8944 0.4472 0)
(0.8944 0.4472 0)
(0.8944 0.4472 0)
(0.8944 0.4472 0)
(0.8944 0.4472 0)
(0.8944 0.4472 0)
(0.8944 0.4472 0)
(0.8944 0.4472 0)
(0.8944 0.4472 0)
(0.8944 0.4472 0)
(0.8944 0.4472 0)
(0.8944 0.4472 0)
(0.8944 0.4472 0)
(0.8944 0.447201 0)
(0.8944 0.447201 0)
(0.8944 0.447201 0)
(0.8944 0.447201 0)
(0.8944 0.447201 0)
(0.894401 0.447201 0)
(0.894401 0.447201 0)
(0.894402 0.4472 0)
(0.894403 0.447199 0)
(0.894405 0.447199 0)
(0.894406 0.447197 0)
(0.894408 0.447195 0)
(0.89441 0.447193 0)
(0.894412 0.44719 0)
(0.894415 0.447187 0)
(0.894417 0.447183 0)
(0.894419 0.447179 0)
(0.89442 0.447175 0)
(0.894421 0.447171 0)
(0.89442 0.447168 0)
(0.894419 0.447166 0)
(0.894416 0.447166 0)
(0.894412 0.447169 0)
(0.894406 0.447173 0)
(0.894398 0.447181 0)
(0.89439 0.447193 0)
(0.894381 0.447207 0)
(0.894371 0.447225 0)
(0.894361 0.447247 0)
(0.894352 0.447271 0)
(0.894343 0.447298 0)
(0.894337 0.447326 0)
(0.894331 0.447356 0)
(0.894328 0.447384 0)
(0.894327 0.447412 0)
(0.894328 0.447438 0)
(0.894331 0.44746 0)
(0.894337 0.447479 0)
(0.894345 0.447494 0)
(0.894354 0.447504 0)
(0.894364 0.447509 0)
(0.894375 0.447509 0)
(0.894386 0.447505 0)
(0.894397 0.447496 0)
(0.894407 0.447484 0)
(0.894416 0.447469 0)
(0.894424 0.447451 0)
(0.894431 0.447432 0)
(0.894437 0.447411 0)
(0.894441 0.44739 0)
(0.894443 0.447369 0)
(0.894444 0.447349 0)
(0.894444 0.447329 0)
(0.894443 0.447311 0)
(0.894441 0.447294 0)
(0.894438 0.447279 0)
(0.894435 0.447265 0)
(0.894432 0.447253 0)
(0.894428 0.447242 0)
(0.894424 0.447233 0)
(0.89442 0.447225 0)
(0.894417 0.447219 0)
(0.894414 0.447214 0)
(0.894411 0.44721 0)
(0.894409 0.447207 0)
(0.894407 0.447205 0)
(0.894405 0.447203 0)
(0.894404 0.447201 0)
(0.894403 0.447201 0)
(0.894402 0.4472 0)
(0.894401 0.4472 0)
(0.894401 0.4472 0)
(0.8944 0.4472 0)
(0.8944 0.4472 0)
(0.8944 0.4472 0)
(0.8944 0.4472 0)
(0.8944 0.4472 0)
(0.8944 0.4472 0)
(0.8944 0.4472 0)
(0.8944 0.4472 0)
(0.8944 0.4472 0)
(0.8944 0.4472 0)
(0.8944 0.4472 0)
(0.8944 0.4472 0)
(0.8944 0.4472 0)
(0.8944 0.4472 0)
(0.8944 0.4472 0)
(0.8944 0.4472 0)
(0.8944 0.4472 0)
(0.8944 0.4472 0)
(0.8944 0.4472 0)
(0.8944 0.4472 0)
(0.8944 0.4472 0)
(0.8944 0.4472 0)
(0.8944 0.4472 0)
(0.8944 0.4472 0)
(0.8944 0.4472 0)
(0.8944 0.4472 0)
(0.8944 0.4472 0)
(0.8944 0.4472 0)
(0.8944 0.4472 0)
(0.8944 0.4472 0)
(0.8944 0.4472 0)
(0.8944 0.4472 0)
(0.8944 0.4472 0)
(0.8944 0.4472 0)
(0.8944 0.4472 0)
(0.8944 0.4472 0)
(0.8944 0.4472 0)
(0.8944 0.4472 0)
(0.8944 0.4472 0)
(0.8944 0.4472 0)
(0.8944 0.4472 0)
(0.8944 0.4472 0)
(0.8944 0.4472 0)
(0.8944 0.4472 0)
(0.8944 0.4472 0)
(0.8944 0.4472 0)
(0.8944 0.4472 0)
(0.8944 0.4472 0)
(0.8944 0.4472 0)
(0.8944 0.4472 0)
(0.8944 0.4472 0)
(0.8944 0.4472 0)
(0.8944 0.4472 0)
(0.8944 0.4472 0)
(0.8944 0.4472 0)
(0.8944 0.4472 0)
(0.8944 0.4472 0)
(0.8944 0.4472 0)
(0.8944 0.4472 0)
(0.8944 0.4472 0)
(0.8944 0.4472 0)
(0.8944 0.4472 0)
(0.8944 0.4472 0)
(0.8944 0.4472 0)
(0.8944 0.4472 0)
(0.8944 0.4472 0)
(0.8944 0.4472 0)
(0.8944 0.4472 0)
(0.8944 0.4472 0)
(0.8944 0.4472 0)
(0.8944 0.4472 0)
(0.8944 0.4472 0)
(0.8944 0.4472 0)
(0.8944 0.4472 0)
(0.8944 0.4472 0)
(0.8944 0.4472 0)
(0.8944 0.447201 0)
(0.8944 0.4472 0)
(0.8944 0.447201 0)
(0.8944 0.447201 0)
(0.8944 0.447201 0)
(0.8944 0.447201 0)
(0.8944 0.447201 0)
(0.894401 0.447201 0)
(0.894402 0.447201 0)
(0.894402 0.4472 0)
(0.894404 0.4472 0)
(0.894405 0.447199 0)
(0.894407 0.447197 0)
(0.89441 0.447195 0)
(0.894412 0.447192 0)
(0.894415 0.447189 0)
(0.894418 0.447186 0)
(0.89442 0.447182 0)
(0.894422 0.447178 0)
(0.894423 0.447174 0)
(0.894423 0.447172 0)
(0.894421 0.44717 0)
(0.894418 0.447171 0)
(0.894414 0.447174 0)
(0.894407 0.44718 0)
(0.894399 0.44719 0)
(0.894389 0.447205 0)
(0.894377 0.447225 0)
(0.894365 0.447249 0)
(0.894352 0.447277 0)
(0.89434 0.44731 0)
(0.894328 0.447346 0)
(0.894318 0.447385 0)
(0.89431 0.447425 0)
(0.894304 0.447466 0)
(0.894302 0.447506 0)
(0.894302 0.447543 0)
(0.894306 0.447576 0)
(0.894313 0.447605 0)
(0.894322 0.447628 0)
(0.894334 0.447645 0)
(0.894347 0.447654 0)
(0.894361 0.447656 0)
(0.894376 0.447652 0)
(0.894391 0.447642 0)
(0.894406 0.447625 0)
(0.894419 0.447604 0)
(0.894431 0.447579 0)
(0.89444 0.44755 0)
(0.894449 0.447521 0)
(0.894455 0.447489 0)
(0.894459 0.447458 0)
(0.894461 0.447428 0)
(0.894462 0.447399 0)
(0.894461 0.447371 0)
(0.894458 0.447346 0)
(0.894455 0.447322 0)
(0.894451 0.447302 0)
(0.894446 0.447283 0)
(0.894441 0.447267 0)
(0.894436 0.447253 0)
(0.894431 0.447241 0)
(0.894426 0.447231 0)
(0.894422 0.447223 0)
(0.894418 0.447217 0)
(0.894414 0.447212 0)
(0.894411 0.447208 0)
(0.894408 0.447205 0)
(0.894406 0.447203 0)
(0.894404 0.447202 0)
(0.894403 0.4472 0)
(0.894402 0.4472 0)
(0.894401 0.447199 0)
(0.894401 0.447199 0)
(0.8944 0.447199 0)
(0.8944 0.447199 0)
(0.8944 0.447199 0)
(0.8944 0.447199 0)
(0.8944 0.4472 0)
(0.8944 0.4472 0)
(0.8944 0.4472 0)
(0.8944 0.4472 0)
(0.8944 0.4472 0)
(0.8944 0.4472 0)
(0.8944 0.4472 0)
(0.8944 0.4472 0)
(0.8944 0.4472 0)
(0.8944 0.4472 0)
(0.8944 0.4472 0)
(0.8944 0.4472 0)
(0.8944 0.4472 0)
(0.8944 0.4472 0)
(0.8944 0.4472 0)
(0.8944 0.4472 0)
(0.8944 0.4472 0)
(0.8944 0.4472 0)
(0.8944 0.4472 0)
(0.8944 0.4472 0)
(0.8944 0.4472 0)
(0.8944 0.4472 0)
(0.8944 0.4472 0)
(0.8944 0.4472 0)
(0.8944 0.4472 0)
(0.8944 0.4472 0)
(0.8944 0.4472 0)
(0.8944 0.4472 0)
(0.8944 0.4472 0)
(0.8944 0.4472 0)
(0.8944 0.4472 0)
(0.8944 0.4472 0)
(0.8944 0.4472 0)
(0.8944 0.4472 0)
(0.8944 0.4472 0)
(0.8944 0.4472 0)
(0.8944 0.4472 0)
(0.8944 0.4472 0)
(0.8944 0.4472 0)
(0.8944 0.4472 0)
(0.8944 0.4472 0)
(0.8944 0.4472 0)
(0.8944 0.4472 0)
(0.8944 0.4472 0)
(0.8944 0.4472 0)
(0.8944 0.4472 0)
(0.8944 0.4472 0)
(0.8944 0.4472 0)
(0.8944 0.4472 0)
(0.8944 0.4472 0)
(0.8944 0.4472 0)
(0.8944 0.4472 0)
(0.8944 0.4472 0)
(0.8944 0.4472 0)
(0.8944 0.4472 0)
(0.8944 0.4472 0)
(0.8944 0.4472 0)
(0.8944 0.4472 0)
(0.8944 0.4472 0)
(0.8944 0.4472 0)
(0.8944 0.4472 0)
(0.8944 0.4472 0)
(0.8944 0.4472 0)
(0.8944 0.4472 0)
(0.8944 0.4472 0)
(0.8944 0.4472 0)
(0.8944 0.4472 0)
(0.8944 0.4472 0)
(0.8944 0.4472 0)
(0.8944 0.4472 0)
(0.8944 0.4472 0)
(0.8944 0.4472 0)
(0.8944 0.447201 0)
(0.8944 0.447201 0)
(0.8944 0.447201 0)
(0.894399 0.447201 0)
(0.8944 0.447201 0)
(0.8944 0.447202 0)
(0.8944 0.447202 0)
(0.894401 0.447202 0)
(0.894402 0.447202 0)
(0.894403 0.447201 0)
(0.894404 0.4472 0)
(0.894406 0.447199 0)
(0.894409 0.447198 0)
(0.894412 0.447195 0)
(0.894414 0.447193 0)
(0.894417 0.447189 0)
(0.89442 0.447186 0)
(0.894423 0.447182 0)
(0.894424 0.447179 0)
(0.894425 0.447176 0)
(0.894424 0.447176 0)
(0.894421 0.447177 0)
(0.894415 0.447182 0)
(0.894408 0.44719 0)
(0.894399 0.447204 0)
(0.894386 0.447223 0)
(0.894372 0.447247 0)
(0.894356 0.447279 0)
(0.89434 0.447317 0)
(0.894324 0.44736 0)
(0.894308 0.447409 0)
(0.894293 0.447462 0)
(0.894281 0.447518 0)
(0.894273 0.447576 0)
(0.894268 0.447632 0)
(0.894266 0.447687 0)
(0.89427 0.447737 0)
(0.894277 0.447781 0)
(0.894289 0.447818 0)
(0.894304 0.447845 0)
(0.894321 0.447864 0)
(0.894341 0.447872 0)
(0.894362 0.44787 0)
(0.894382 0.447859 0)
(0.894403 0.447838 0)
(0.894422 0.44781 0)
(0.894439 0.447775 0)
(0.894454 0.447735 0)
(0.894466 0.447692 0)
(0.894475 0.447646 0)
(0.894482 0.4476 0)
(0.894485 0.447554 0)
(0.894487 0.447509 0)
(0.894486 0.447467 0)
(0.894483 0.447428 0)
(0.894479 0.447393 0)
(0.894474 0.44736 0)
(0.894468 0.447332 0)
(0.894461 0.447307 0)
(0.894454 0.447286 0)
(0.894447 0.447267 0)
(0.89444 0.447252 0)
(0.894434 0.447239 0)
(0.894428 0.447229 0)
(0.894423 0.447221 0)
(0.894418 0.447214 0)
(0.894414 0.44721 0)
(0.894411 0.447206 0)
(0.894408 0.447203 0)
(0.894405 0.447201 0)
(0.894404 0.4472 0)
(0.894402 0.447199 0)
(0.894401 0.447199 0)
(0.894401 0.447199 0)
(0.8944 0.447199 0)
(0.8944 0.447199 0)
(0.8944 0.447199 0)
(0.8944 0.447199 0)
(0.8944 0.447199 0)
(0.8944 0.447199 0)
(0.8944 0.4472 0)
(0.8944 0.4472 0)
(0.8944 0.4472 0)
(0.8944 0.4472 0)
(0.8944 0.4472 0)
(0.8944 0.4472 0)
(0.8944 0.4472 0)
(0.8944 0.4472 0)
(0.8944 0.4472 0)
(0.8944 0.4472 0)
(0.8944 0.4472 0)
(0.8944 0.4472 0)
(0.8944 0.4472 0)
(0.8944 0.4472 0)
(0.8944 0.4472 0)
(0.8944 0.4472 0)
(0.8944 0.4472 0)
(0.8944 0.4472 0)
(0.8944 0.4472 0)
(0.8944 0.4472 0)
(0.8944 0.4472 0)
(0.8944 0.4472 0)
(0.8944 0.4472 0)
(0.8944 0.4472 0)
(0.8944 0.4472 0)
(0.8944 0.4472 0)
(0.8944 0.4472 0)
(0.8944 0.4472 0)
(0.8944 0.4472 0)
(0.8944 0.4472 0)
(0.8944 0.4472 0)
(0.8944 0.4472 0)
(0.8944 0.4472 0)
(0.8944 0.4472 0)
(0.8944 0.4472 0)
(0.8944 0.4472 0)
(0.8944 0.4472 0)
(0.8944 0.4472 0)
(0.8944 0.4472 0)
(0.8944 0.4472 0)
(0.8944 0.4472 0)
(0.8944 0.4472 0)
(0.8944 0.4472 0)
(0.8944 0.4472 0)
(0.8944 0.4472 0)
(0.8944 0.4472 0)
(0.8944 0.4472 0)
(0.8944 0.4472 0)
(0.8944 0.4472 0)
(0.8944 0.4472 0)
(0.8944 0.4472 0)
(0.8944 0.4472 0)
(0.8944 0.4472 0)
(0.8944 0.4472 0)
(0.8944 0.4472 0)
(0.8944 0.4472 0)
(0.8944 0.4472 0)
(0.8944 0.4472 0)
(0.8944 0.4472 0)
(0.8944 0.4472 0)
(0.8944 0.4472 0)
(0.8944 0.4472 0)
(0.8944 0.4472 0)
(0.8944 0.4472 0)
(0.8944 0.4472 0)
(0.8944 0.4472 0)
(0.8944 0.4472 0)
(0.8944 0.4472 0)
(0.8944 0.4472 0)
(0.8944 0.4472 0)
(0.894399 0.447201 0)
(0.8944 0.447201 0)
(0.894399 0.447201 0)
(0.894399 0.447201 0)
(0.894399 0.447202 0)
(0.8944 0.447202 0)
(0.8944 0.447202 0)
(0.894401 0.447202 0)
(0.894402 0.447202 0)
(0.894403 0.447202 0)
(0.894405 0.447201 0)
(0.894407 0.4472 0)
(0.89441 0.447198 0)
(0.894414 0.447196 0)
(0.894417 0.447193 0)
(0.89442 0.44719 0)
(0.894423 0.447187 0)
(0.894425 0.447184 0)
(0.894426 0.447183 0)
(0.894425 0.447183 0)
(0.894422 0.447185 0)
(0.894417 0.447192 0)
(0.894408 0.447203 0)
(0.894397 0.44722 0)
(0.894382 0.447244 0)
(0.894365 0.447276 0)
(0.894345 0.447317 0)
(0.894324 0.447366 0)
(0.894302 0.447423 0)
(0.89428 0.447489 0)
(0.89426 0.447561 0)
(0.894243 0.447638 0)
(0.894229 0.447718 0)
(0.89422 0.447799 0)
(0.894216 0.447878 0)
(0.894218 0.447952 0)
(0.894226 0.44802 0)
(0.894239 0.448078 0)
(0.894258 0.448125 0)
(0.894281 0.448158 0)
(0.894308 0.448178 0)
(0.894336 0.448184 0)
(0.894366 0.448175 0)
(0.894395 0.448153 0)
(0.894423 0.448118 0)
(0.894448 0.448072 0)
(0.894471 0.448018 0)
(0.894489 0.447957 0)
(0.894504 0.447891 0)
(0.894515 0.447823 0)
(0.894521 0.447755 0)
(0.894524 0.447688 0)
(0.894524 0.447624 0)
(0.894521 0.447563 0)
(0.894516 0.447508 0)
(0.894508 0.447457 0)
(0.8945 0.447413 0)
(0.89449 0.447373 0)
(0.894481 0.447339 0)
(0.894471 0.447311 0)
(0.894461 0.447286 0)
(0.894452 0.447266 0)
(0.894443 0.447249 0)
(0.894436 0.447236 0)
(0.894429 0.447226 0)
(0.894423 0.447217 0)
(0.894417 0.447211 0)
(0.894413 0.447207 0)
(0.89441 0.447204 0)
(0.894407 0.447201 0)
(0.894405 0.4472 0)
(0.894403 0.447199 0)
(0.894402 0.447199 0)
(0.894401 0.447198 0)
(0.8944 0.447198 0)
(0.8944 0.447199 0)
(0.8944 0.447199 0)
(0.8944 0.447199 0)
(0.8944 0.447199 0)
(0.8944 0.447199 0)
(0.8944 0.447199 0)
(0.8944 0.4472 0)
(0.8944 0.4472 0)
(0.8944 0.4472 0)
(0.8944 0.4472 0)
(0.8944 0.4472 0)
(0.8944 0.4472 0)
(0.8944 0.4472 0)
(0.8944 0.4472 0)
(0.8944 0.4472 0)
(0.8944 0.4472 0)
(0.8944 0.4472 0)
(0.8944 0.4472 0)
(0.8944 0.4472 0)
(0.8944 0.4472 0)
(0.8944 0.4472 0)
(0.8944 0.4472 0)
(0.8944 0.4472 0)
(0.8944 0.4472 0)
(0.8944 0.4472 0)
(0.8944 0.4472 0)
(0.8944 0.4472 0)
(0.8944 0.4472 0)
(0.8944 0.4472 0)
(0.8944 0.4472 0)
(0.8944 0.4472 0)
(0.8944 0.4472 0)
(0.8944 0.4472 0)
(0.8944 0.4472 0)
(0.8944 0.4472 0)
(0.8944 0.4472 0)
(0.8944 0.4472 0)
(0.8944 0.4472 0)
(0.8944 0.4472 0)
(0.8944 0.4472 0)
(0.8944 0.4472 0)
(0.8944 0.4472 0)
(0.8944 0.4472 0)
(0.8944 0.4472 0)
(0.8944 0.4472 0)
(0.8944 0.4472 0)
(0.8944 0.4472 0)
(0.8944 0.4472 0)
(0.8944 0.4472 0)
(0.8944 0.4472 0)
(0.8944 0.4472 0)
(0.8944 0.4472 0)
(0.8944 0.4472 0)
(0.8944 0.4472 0)
(0.8944 0.4472 0)
(0.8944 0.4472 0)
(0.8944 0.4472 0)
(0.8944 0.4472 0)
(0.8944 0.4472 0)
(0.8944 0.4472 0)
(0.8944 0.4472 0)
(0.8944 0.4472 0)
(0.8944 0.4472 0)
(0.8944 0.4472 0)
(0.8944 0.4472 0)
(0.8944 0.4472 0)
(0.8944 0.4472 0)
(0.8944 0.4472 0)
(0.8944 0.4472 0)
(0.8944 0.4472 0)
(0.8944 0.4472 0)
(0.8944 0.4472 0)
(0.8944 0.4472 0)
(0.8944 0.447201 0)
(0.8944 0.447201 0)
(0.894399 0.447201 0)
(0.894399 0.447201 0)
(0.894399 0.447202 0)
(0.894399 0.447202 0)
(0.894399 0.447202 0)
(0.8944 0.447203 0)
(0.8944 0.447203 0)
(0.894401 0.447204 0)
(0.894402 0.447204 0)
(0.894404 0.447204 0)
(0.894406 0.447203 0)
(0.894409 0.447201 0)
(0.894412 0.4472 0)
(0.894416 0.447198 0)
(0.894419 0.447196 0)
(0.894422 0.447193 0)
(0.894425 0.447191 0)
(0.894426 0.44719 0)
(0.894425 0.447191 0)
(0.894423 0.447195 0)
(0.894417 0.447204 0)
(0.894407 0.447218 0)
(0.894394 0.44724 0)
(0.894376 0.44727 0)
(0.894355 0.44731 0)
(0.89433 0.447361 0)
(0.894303 0.447425 0)
(0.894274 0.447499 0)
(0.894245 0.447585 0)
(0.894217 0.447681 0)
(0.894191 0.447785 0)
(0.89417 0.447895 0)
(0.894155 0.448008 0)
(0.894146 0.448122 0)
(0.894145 0.448231 0)
(0.894152 0.448332 0)
(0.894167 0.448423 0)
(0.894189 0.448499 0)
(0.894219 0.448559 0)
(0.894253 0.448601 0)
(0.894292 0.448622 0)
(0.894334 0.448623 0)
(0.894376 0.448604 0)
(0.894417 0.448566 0)
(0.894455 0.44851 0)
(0.894489 0.44844 0)
(0.894519 0.448358 0)
(0.894543 0.448267 0)
(0.894561 0.44817 0)
(0.894573 0.44807 0)
(0.894579 0.447971 0)
(0.89458 0.447874 0)
(0.894577 0.447782 0)
(0.894571 0.447696 0)
(0.894561 0.447617 0)
(0.894549 0.447547 0)
(0.894536 0.447484 0)
(0.894522 0.44743 0)
(0.894508 0.447383 0)
(0.894494 0.447344 0)
(0.89448 0.447311 0)
(0.894468 0.447284 0)
(0.894456 0.447263 0)
(0.894446 0.447245 0)
(0.894436 0.447232 0)
(0.894429 0.447221 0)
(0.894422 0.447213 0)
(0.894416 0.447208 0)
(0.894412 0.447204 0)
(0.894408 0.447201 0)
(0.894406 0.447199 0)
(0.894403 0.447198 0)
(0.894402 0.447198 0)
(0.894401 0.447198 0)
(0.8944 0.447198 0)
(0.8944 0.447198 0)
(0.8944 0.447198 0)
(0.894399 0.447198 0)
(0.894399 0.447199 0)
(0.894399 0.447199 0)
(0.8944 0.447199 0)
(0.8944 0.447199 0)
(0.8944 0.4472 0)
(0.8944 0.4472 0)
(0.8944 0.4472 0)
(0.8944 0.4472 0)
(0.8944 0.4472 0)
(0.8944 0.4472 0)
(0.8944 0.4472 0)
(0.8944 0.4472 0)
(0.8944 0.4472 0)
(0.8944 0.4472 0)
(0.8944 0.4472 0)
(0.8944 0.4472 0)
(0.8944 0.4472 0)
(0.8944 0.4472 0)
(0.8944 0.4472 0)
(0.8944 0.4472 0)
(0.8944 0.4472 0)
(0.8944 0.4472 0)
(0.8944 0.4472 0)
(0.8944 0.4472 0)
(0.8944 0.4472 0)
(0.8944 0.4472 0)
(0.8944 0.4472 0)
(0.8944 0.4472 0)
(0.8944 0.4472 0)
(0.8944 0.4472 0)
(0.8944 0.4472 0)
(0.8944 0.4472 0)
(0.8944 0.4472 0)
(0.8944 0.4472 0)
(0.8944 0.4472 0)
(0.8944 0.4472 0)
(0.8944 0.4472 0)
(0.8944 0.4472 0)
(0.8944 0.4472 0)
(0.8944 0.4472 0)
(0.8944 0.4472 0)
(0.8944 0.4472 0)
(0.8944 0.4472 0)
(0.8944 0.4472 0)
(0.8944 0.4472 0)
(0.8944 0.4472 0)
(0.8944 0.4472 0)
(0.8944 0.4472 0)
(0.8944 0.4472 0)
(0.8944 0.4472 0)
(0.8944 0.4472 0)
(0.8944 0.4472 0)
(0.8944 0.4472 0)
(0.8944 0.4472 0)
(0.8944 0.4472 0)
(0.8944 0.4472 0)
(0.8944 0.4472 0)
(0.8944 0.4472 0)
(0.8944 0.4472 0)
(0.8944 0.4472 0)
(0.8944 0.4472 0)
(0.8944 0.4472 0)
(0.8944 0.4472 0)
(0.8944 0.4472 0)
(0.8944 0.4472 0)
(0.8944 0.4472 0)
(0.8944 0.4472 0)
(0.8944 0.4472 0)
(0.8944 0.4472 0)
(0.894399 0.447201 0)
(0.894399 0.447201 0)
(0.894399 0.447201 0)
(0.894399 0.447201 0)
(0.894399 0.447202 0)
(0.894399 0.447203 0)
(0.894399 0.447203 0)
(0.894399 0.447203 0)
(0.894399 0.447204 0)
(0.8944 0.447205 0)
(0.894401 0.447205 0)
(0.894402 0.447205 0)
(0.894404 0.447205 0)
(0.894407 0.447205 0)
(0.89441 0.447204 0)
(0.894413 0.447202 0)
(0.894417 0.447201 0)
(0.89442 0.4472 0)
(0.894423 0.447198 0)
(0.894425 0.447198 0)
(0.894425 0.447201 0)
(0.894422 0.447207 0)
(0.894415 0.447217 0)
(0.894404 0.447235 0)
(0.894389 0.447261 0)
(0.894368 0.447299 0)
(0.894342 0.447348 0)
(0.894311 0.447411 0)
(0.894277 0.447491 0)
(0.894239 0.447586 0)
(0.894199 0.447697 0)
(0.89416 0.447822 0)
(0.894124 0.44796 0)
(0.894092 0.448109 0)
(0.894067 0.448264 0)
(0.89405 0.448422 0)
(0.894043 0.448578 0)
(0.894047 0.448728 0)
(0.894061 0.448865 0)
(0.894086 0.448986 0)
(0.894122 0.449087 0)
(0.894167 0.449164 0)
(0.894219 0.449215 0)
(0.894275 0.449238 0)
(0.894335 0.449232 0)
(0.894394 0.449199 0)
(0.894452 0.449139 0)
(0.894504 0.449055 0)
(0.894551 0.448951 0)
(0.89459 0.44883 0)
(0.894621 0.448697 0)
(0.894643 0.448557 0)
(0.894657 0.448414 0)
(0.894662 0.448271 0)
(0.894661 0.448133 0)
(0.894653 0.448002 0)
(0.894641 0.44788 0)
(0.894625 0.44777 0)
(0.894606 0.44767 0)
(0.894586 0.447583 0)
(0.894565 0.447508 0)
(0.894544 0.447444 0)
(0.894524 0.44739 0)
(0.894506 0.447345 0)
(0.894488 0.447309 0)
(0.894473 0.44728 0)
(0.894459 0.447257 0)
(0.894447 0.44724 0)
(0.894436 0.447226 0)
(0.894428 0.447216 0)
(0.89442 0.447209 0)
(0.894415 0.447204 0)
(0.89441 0.447201 0)
(0.894407 0.447198 0)
(0.894404 0.447197 0)
(0.894402 0.447197 0)
(0.894401 0.447197 0)
(0.8944 0.447197 0)
(0.8944 0.447197 0)
(0.894399 0.447198 0)
(0.894399 0.447198 0)
(0.894399 0.447198 0)
(0.894399 0.447199 0)
(0.894399 0.447199 0)
(0.894399 0.447199 0)
(0.8944 0.447199 0)
(0.8944 0.4472 0)
(0.8944 0.4472 0)
(0.8944 0.4472 0)
(0.8944 0.4472 0)
(0.8944 0.4472 0)
(0.8944 0.4472 0)
(0.8944 0.4472 0)
(0.8944 0.4472 0)
(0.8944 0.4472 0)
(0.8944 0.4472 0)
(0.8944 0.4472 0)
(0.8944 0.4472 0)
(0.8944 0.4472 0)
(0.8944 0.4472 0)
(0.8944 0.4472 0)
(0.8944 0.4472 0)
(0.8944 0.4472 0)
(0.8944 0.4472 0)
(0.8944 0.4472 0)
(0.8944 0.4472 0)
(0.8944 0.4472 0)
(0.8944 0.4472 0)
(0.8944 0.4472 0)
(0.8944 0.4472 0)
(0.8944 0.4472 0)
(0.8944 0.4472 0)
(0.8944 0.4472 0)
(0.8944 0.4472 0)
(0.8944 0.4472 0)
(0.8944 0.4472 0)
(0.8944 0.4472 0)
(0.8944 0.4472 0)
(0.8944 0.4472 0)
(0.8944 0.4472 0)
(0.8944 0.4472 0)
(0.8944 0.4472 0)
(0.8944 0.4472 0)
(0.8944 0.4472 0)
(0.8944 0.4472 0)
(0.8944 0.4472 0)
(0.8944 0.4472 0)
(0.8944 0.4472 0)
(0.8944 0.4472 0)
(0.8944 0.4472 0)
(0.8944 0.4472 0)
(0.8944 0.4472 0)
(0.8944 0.4472 0)
(0.8944 0.4472 0)
(0.8944 0.4472 0)
(0.8944 0.4472 0)
(0.8944 0.4472 0)
(0.8944 0.4472 0)
(0.8944 0.4472 0)
(0.8944 0.4472 0)
(0.8944 0.4472 0)
(0.8944 0.4472 0)
(0.8944 0.4472 0)
(0.8944 0.4472 0)
(0.8944 0.4472 0)
(0.8944 0.4472 0)
(0.8944 0.4472 0)
(0.8944 0.4472 0)
(0.894399 0.4472 0)
(0.8944 0.447201 0)
(0.894399 0.447201 0)
(0.894399 0.447201 0)
(0.894399 0.447201 0)
(0.894399 0.447202 0)
(0.894398 0.447202 0)
(0.894398 0.447203 0)
(0.894398 0.447204 0)
(0.894398 0.447205 0)
(0.894398 0.447206 0)
(0.894399 0.447206 0)
(0.894401 0.447207 0)
(0.894402 0.447208 0)
(0.894404 0.447208 0)
(0.894407 0.447208 0)
(0.89441 0.447207 0)
(0.894414 0.447207 0)
(0.894418 0.447206 0)
(0.894421 0.447206 0)
(0.894423 0.447207 0)
(0.894423 0.447211 0)
(0.89442 0.447219 0)
(0.894413 0.447232 0)
(0.894401 0.447253 0)
(0.894383 0.447284 0)
(0.894358 0.447329 0)
(0.894327 0.447389 0)
(0.894288 0.447466 0)
(0.894244 0.447563 0)
(0.894195 0.447681 0)
(0.894143 0.447821 0)
(0.89409 0.447982 0)
(0.894039 0.448162 0)
(0.893992 0.448357 0)
(0.893952 0.448566 0)
(0.893922 0.448781 0)
(0.893904 0.448999 0)
(0.8939 0.449212 0)
(0.893911 0.449414 0)
(0.893938 0.449599 0)
(0.893978 0.449759 0)
(0.894033 0.449892 0)
(0.894099 0.449991 0)
(0.894175 0.450053 0)
(0.894256 0.450077 0)
(0.89434 0.450062 0)
(0.894423 0.450009 0)
(0.894503 0.449919 0)
(0.894576 0.449798 0)
(0.89464 0.449648 0)
(0.894692 0.449476 0)
(0.894733 0.449287 0)
(0.894761 0.449089 0)
(0.894776 0.448886 0)
(0.89478 0.448684 0)
(0.894774 0.44849 0)
(0.89476 0.448305 0)
(0.89474 0.448134 0)
(0.894714 0.447979 0)
(0.894685 0.447841 0)
(0.894655 0.447719 0)
(0.894624 0.447615 0)
(0.894595 0.447526 0)
(0.894566 0.447453 0)
(0.89454 0.447392 0)
(0.894516 0.447343 0)
(0.894495 0.447304 0)
(0.894476 0.447274 0)
(0.89446 0.44725 0)
(0.894446 0.447233 0)
(0.894435 0.44722 0)