/*--------------------------------*- C++ -*----------------------------------*\
  =========                 |
  \\      /  F ield         | OpenFOAM: The Open Source CFD Toolbox
   \\    /   O peration     | Website:  https://openfoam.org
    \\  /    A nd           | Version:  6
     \\/     M anipulation  |
\*---------------------------------------------------------------------------*/
FoamFile
{
    version     2.0;
    format      ascii;
    class       volScalarField;
    location    "1.9";
    object      rho;
}
// * * * * * * * * * * * * * * * * * * * * * * * * * * * * * * * * * * * * * //

dimensions      [1 -3 0 0 0 0 0];

internalField   nonuniform List<scalar> 
5835
(
3.39628e-05
1.1857e-05
3.16454e-05
1.43447e-05
1.1857e-05
1.1857e-05
1.1857e-05
1.18738e-05
1.1857e-05
1.1857e-05
1.1857e-05
2.54316e-05
1.1857e-05
1.1857e-05
2.68973e-05
1.1857e-05
5.83181e-05
5.66418e-05
1.1857e-05
1.1857e-05
5.91918e-05
1.1857e-05
6.21119e-05
2.54111e-05
1.1857e-05
1.1857e-05
2.8614e-05
1.1857e-05
1.50051e-05
1.1857e-05
1.22766e-05
1.1857e-05
1.1857e-05
1.1898e-05
1.19308e-05
1.1857e-05
1.1857e-05
1.1857e-05
1.18626e-05
1.18621e-05
1.1857e-05
1.18575e-05
1.1857e-05
1.18576e-05
1.1857e-05
1.1857e-05
1.1857e-05
1.18571e-05
1.1857e-05
1.1857e-05
1.1857e-05
1.1857e-05
1.1857e-05
1.1857e-05
1.1857e-05
1.1857e-05
1.1857e-05
1.1857e-05
1.1857e-05
1.1857e-05
1.41064e-05
1.1857e-05
1.5316e-05
1.1857e-05
1.1857e-05
1.18571e-05
1.1857e-05
1.1857e-05
1.18896e-05
1.19028e-05
1.18636e-05
1.18613e-05
1.1857e-05
1.1857e-05
1.1857e-05
1.1857e-05
1.22661e-05
1.22868e-05
1.18575e-05
1.1857e-05
1.1857e-05
1.18576e-05
1.1857e-05
3.26237e-05
3.35186e-05
1.1857e-05
1.1857e-05
1.1857e-05
1.18766e-05
1.42833e-05
1.1857e-05
1.1857e-05
1.1857e-05
1.18591e-05
1.18587e-05
1.1857e-05
1.1857e-05
1.1857e-05
1.5552e-05
1.18573e-05
1.1857e-05
1.18596e-05
1.1857e-05
1.1857e-05
2.43768e-05
1.1857e-05
1.1857e-05
2.52326e-05
1.1857e-05
1.18574e-05
1.1857e-05
1.1857e-05
1.53959e-05
1.1857e-05
1.1857e-05
1.1857e-05
1.1857e-05
1.1857e-05
1.1857e-05
2.29545e-05
2.23637e-05
1.1857e-05
1.1857e-05
1.1857e-05
1.1857e-05
1.1857e-05
1.1857e-05
1.1857e-05
1.1857e-05
1.18572e-05
1.18572e-05
1.1857e-05
1.1857e-05
1.18608e-05
1.1857e-05
1.1857e-05
5.59526e-05
1.1857e-05
5.73989e-05
1.1857e-05
1.1857e-05
1.1857e-05
5.64539e-05
5.54214e-05
5.66715e-05
5.61279e-05
3.70018e-05
3.58871e-05
1.1857e-05
1.1857e-05
3.53793e-05
1.1857e-05
1.1857e-05
1.1857e-05
3.53243e-05
2.27076e-05
1.49129e-05
1.1857e-05
1.23878e-05
2.26971e-05
1.1857e-05
1.1857e-05
1.1857e-05
1.1857e-05
1.51129e-05
1.1857e-05
1.1857e-05
1.46665e-05
1.1857e-05
1.1857e-05
1.21511e-05
1.19505e-05
1.19336e-05
1.1857e-05
1.1857e-05
1.19092e-05
1.1857e-05
1.50006e-05
1.24588e-05
1.41878e-05
1.1857e-05
1.1857e-05
1.18571e-05
1.18571e-05
1.1857e-05
1.19171e-05
1.1857e-05
1.18571e-05
1.18571e-05
1.1857e-05
1.1857e-05
1.1857e-05
1.1857e-05
1.1857e-05
1.18571e-05
1.1857e-05
1.1857e-05
1.1857e-05
1.1857e-05
1.1857e-05
5.45329e-05
5.60797e-05
1.1857e-05
1.1857e-05
1.1857e-05
1.1857e-05
1.1857e-05
1.1857e-05
1.1857e-05
1.1857e-05
1.18666e-05
1.1857e-05
1.18663e-05
1.1857e-05
1.18655e-05
1.1857e-05
1.1857e-05
1.1857e-05
1.1857e-05
1.1857e-05
1.1857e-05
1.1857e-05
1.1857e-05
1.18662e-05
1.1857e-05
1.18972e-05
1.18658e-05
5.6624e-05
1.1857e-05
1.1857e-05
1.18641e-05
1.1857e-05
1.1857e-05
1.1857e-05
1.1857e-05
1.1857e-05
3.4682e-05
1.1857e-05
3.50558e-05
1.18582e-05
1.1857e-05
1.1858e-05
1.18581e-05
1.18885e-05
1.1857e-05
1.1858e-05
1.1857e-05
1.1858e-05
1.1858e-05
1.1857e-05
1.36311e-05
1.1857e-05
1.1857e-05
1.1857e-05
1.1857e-05
1.1857e-05
1.1857e-05
1.94185e-05
1.1857e-05
1.1857e-05
1.1857e-05
2.84644e-05
3.04198e-05
1.1857e-05
3.0611e-05
1.1857e-05
1.1857e-05
1.1857e-05
2.71359e-05
2.89238e-05
1.1857e-05
1.1857e-05
1.1857e-05
1.1857e-05
1.1857e-05
1.19542e-05
1.1857e-05
1.1857e-05
1.1857e-05
1.1857e-05
1.1857e-05
1.1857e-05
2.88812e-05
1.1857e-05
1.1857e-05
1.1857e-05
1.1857e-05
1.1857e-05
1.1857e-05
1.1857e-05
5.61643e-05
3.16315e-05
1.1857e-05
3.08869e-05
1.1857e-05
1.1857e-05
1.1857e-05
1.1857e-05
1.1857e-05
5.43813e-05
1.1857e-05
5.5208e-05
5.50525e-05
5.2631e-05
3.13013e-05
5.38312e-05
1.1857e-05
5.493e-05
1.1857e-05
3.50642e-05
5.93574e-05
3.46099e-05
5.35041e-05
3.02156e-05
1.1857e-05
1.1857e-05
1.18724e-05
3.0464e-05
1.18576e-05
1.1857e-05
1.1857e-05
1.20988e-05
1.1857e-05
3.12274e-05
1.1857e-05
3.24947e-05
1.18764e-05
1.18621e-05
5.51784e-05
1.18663e-05
1.1857e-05
1.8762e-05
1.1857e-05
1.20197e-05
1.1857e-05
1.20176e-05
1.18576e-05
1.1857e-05
1.18576e-05
1.1857e-05
1.1857e-05
5.48184e-05
1.77662e-05
5.69794e-05
1.1857e-05
1.1871e-05
1.1857e-05
1.18609e-05
1.1857e-05
1.18612e-05
2.0579e-05
1.1857e-05
1.1857e-05
1.20686e-05
1.19771e-05
1.1857e-05
1.31555e-05
1.1857e-05
2.05689e-05
1.18663e-05
1.41913e-05
1.1857e-05
1.18575e-05
1.18705e-05
2.15873e-05
1.1857e-05
1.1857e-05
1.1857e-05
1.1857e-05
1.18604e-05
1.21612e-05
1.1857e-05
1.1857e-05
1.1857e-05
1.43885e-05
1.18768e-05
1.1857e-05
1.1857e-05
1.1857e-05
1.1857e-05
1.1857e-05
1.1857e-05
1.1857e-05
1.1857e-05
1.1857e-05
1.1857e-05
1.1857e-05
1.1857e-05
1.1857e-05
1.1857e-05
1.1857e-05
1.1857e-05
1.1857e-05
1.1857e-05
1.1857e-05
1.1857e-05
1.1857e-05
1.1857e-05
1.1857e-05
1.1857e-05
1.1857e-05
1.1857e-05
1.1857e-05
1.1857e-05
1.18599e-05
1.19157e-05
1.1857e-05
1.18904e-05
1.45909e-05
1.18572e-05
1.18589e-05
1.1857e-05
1.1857e-05
1.1857e-05
1.1857e-05
1.1857e-05
1.51529e-05
1.1857e-05
1.1857e-05
1.1857e-05
1.1857e-05
1.18574e-05
1.1857e-05
1.26851e-05
1.1857e-05
1.1857e-05
1.1857e-05
1.1857e-05
1.33382e-05
1.1857e-05
1.1857e-05
1.78659e-05
1.18688e-05
1.1857e-05
1.27387e-05
1.1857e-05
1.1857e-05
1.1867e-05
1.1857e-05
1.7373e-05
1.68281e-05
1.1857e-05
1.1857e-05
1.673e-05
1.19554e-05
1.1857e-05
1.1857e-05
1.18672e-05
1.19437e-05
1.1857e-05
1.63205e-05
1.1857e-05
1.24924e-05
1.1857e-05
1.19499e-05
1.1857e-05
1.1857e-05
1.18671e-05
1.18589e-05
1.19486e-05
1.18655e-05
1.1857e-05
1.672e-05
1.1857e-05
1.18667e-05
1.18588e-05
1.1857e-05
1.1857e-05
1.66577e-05
1.1857e-05
1.1857e-05
1.23928e-05
1.1857e-05
1.65092e-05
1.1857e-05
1.25286e-05
1.18587e-05
1.59268e-05
1.1857e-05
1.18573e-05
1.1857e-05
1.2492e-05
1.1857e-05
1.18588e-05
1.1857e-05
1.18589e-05
1.1857e-05
1.18582e-05
1.18573e-05
1.1857e-05
1.1857e-05
1.18572e-05
1.1857e-05
1.1857e-05
1.1857e-05
1.18572e-05
1.18579e-05
1.1857e-05
1.1857e-05
1.1857e-05
1.69759e-05
1.18572e-05
1.1857e-05
1.1857e-05
2.25947e-05
1.1857e-05
1.1857e-05
1.1857e-05
2.37779e-05
1.1857e-05
1.1857e-05
1.18572e-05
1.1857e-05
1.58053e-05
1.1857e-05
1.1857e-05
5.5698e-05
1.1857e-05
1.1857e-05
5.58249e-05
5.47761e-05
5.39519e-05
1.1857e-05
1.1857e-05
1.1857e-05
1.1857e-05
3.47005e-05
3.75423e-05
1.1857e-05
1.1857e-05
1.1857e-05
3.54171e-05
5.34559e-05
1.1857e-05
5.497e-05
1.1857e-05
1.1857e-05
1.1857e-05
3.40594e-05
1.1857e-05
2.27567e-05
1.1857e-05
5.48868e-05
1.1857e-05
3.38309e-05
1.49645e-05
1.24922e-05
1.18571e-05
1.18571e-05
1.242e-05
1.1857e-05
1.48373e-05
1.18571e-05
1.44508e-05
1.1857e-05
1.1857e-05
1.1857e-05
1.1857e-05
1.1857e-05
1.1857e-05
1.1857e-05
1.19448e-05
5.46416e-05
1.1857e-05
1.41129e-05
1.1857e-05
1.1857e-05
1.19583e-05
1.1857e-05
1.19108e-05
1.1857e-05
1.1857e-05
1.19146e-05
1.1857e-05
1.1857e-05
1.18571e-05
5.35176e-05
1.1857e-05
1.1857e-05
1.1857e-05
1.19475e-05
1.1857e-05
1.1857e-05
1.1857e-05
1.37827e-05
1.1857e-05
1.18666e-05
1.18665e-05
1.1857e-05
1.1858e-05
1.18659e-05
1.1857e-05
1.18657e-05
1.18582e-05
1.1857e-05
1.18658e-05
1.1858e-05
1.1858e-05
1.1857e-05
1.1857e-05
1.21212e-05
1.1857e-05
1.1857e-05
1.1857e-05
2.20962e-05
1.1857e-05
1.1857e-05
1.1857e-05
1.1857e-05
1.18579e-05
1.1857e-05
2.88394e-05
1.51582e-05
2.92877e-05
1.1857e-05
2.97673e-05
1.18636e-05
1.1857e-05
1.1857e-05
5.4425e-05
1.1857e-05
2.76726e-05
1.1857e-05
1.1857e-05
2.97896e-05
1.1857e-05
5.30474e-05
1.1857e-05
3.20867e-05
3.62589e-05
1.1857e-05
1.1857e-05
5.37767e-05
5.19595e-05
3.36431e-05
1.1857e-05
1.1857e-05
1.1857e-05
1.1857e-05
3.06804e-05
5.41589e-05
1.1857e-05
2.9728e-05
1.1857e-05
1.1857e-05
1.1857e-05
1.1857e-05
5.52289e-05
5.31992e-05
1.1857e-05
3.08531e-05
1.1857e-05
5.31104e-05
1.1857e-05
1.1857e-05
1.1857e-05
5.416e-05
1.52513e-05
5.45795e-05
1.1857e-05
1.18623e-05
1.1857e-05
1.80254e-05
1.79536e-05
1.1857e-05
1.1857e-05
1.18835e-05
1.1857e-05
1.3441e-05
2.04299e-05
1.20439e-05
1.1857e-05
2.11413e-05
1.1857e-05
1.1857e-05
1.1857e-05
1.1857e-05
1.1857e-05
1.1857e-05
1.1857e-05
1.1857e-05
1.1857e-05
1.1857e-05
1.1857e-05
1.18774e-05
1.1857e-05
1.1857e-05
1.1857e-05
1.1857e-05
1.1857e-05
1.3929e-05
1.2157e-05
1.1857e-05
1.1857e-05
1.18575e-05
1.18576e-05
1.1857e-05
1.1857e-05
1.1857e-05
1.1857e-05
1.1857e-05
1.18931e-05
1.1857e-05
1.1857e-05
1.41951e-05
1.45753e-05
1.19104e-05
1.1857e-05
1.1857e-05
1.19941e-05
1.18575e-05
1.1857e-05
1.18607e-05
1.18609e-05
1.1857e-05
1.1857e-05
1.1857e-05
1.1857e-05
1.19614e-05
1.1857e-05
1.1857e-05
1.1857e-05
1.1857e-05
1.1857e-05
1.18696e-05
1.1857e-05
1.75275e-05
1.1857e-05
1.1857e-05
1.1857e-05
1.31729e-05
1.27429e-05
1.71643e-05
1.1857e-05
1.18697e-05
1.1857e-05
1.62187e-05
1.64307e-05
1.25753e-05
1.1857e-05
1.1857e-05
1.68251e-05
1.1857e-05
1.1857e-05
1.65972e-05
1.1857e-05
1.1857e-05
1.1857e-05
1.19475e-05
1.19435e-05
1.1857e-05
1.6837e-05
1.1857e-05
1.1857e-05
1.1956e-05
1.18588e-05
1.1857e-05
1.18669e-05
1.18672e-05
1.1857e-05
1.64703e-05
1.1859e-05
1.24526e-05
1.1857e-05
1.1857e-05
1.18572e-05
1.1857e-05
1.1857e-05
1.24591e-05
1.1857e-05
1.18572e-05
1.1857e-05
1.23474e-05
1.1857e-05
1.18588e-05
1.18588e-05
1.1857e-05
1.1857e-05
1.1857e-05
1.1857e-05
1.18571e-05
1.18571e-05
1.1857e-05
1.1857e-05
1.18571e-05
1.18571e-05
1.1857e-05
1.1857e-05
1.1857e-05
1.1857e-05
1.18728e-05
1.1857e-05
1.1857e-05
1.1857e-05
1.1857e-05
1.18735e-05
1.18659e-05
1.19206e-05
1.1885e-05
1.1857e-05
1.1857e-05
1.1857e-05
1.1857e-05
1.1857e-05
1.70261e-05
1.18798e-05
1.18726e-05
1.18806e-05
1.18724e-05
1.1857e-05
1.1857e-05
1.2183e-05
1.20159e-05
1.1857e-05
1.1857e-05
1.1857e-05
1.1857e-05
1.1857e-05
1.19535e-05
1.1857e-05
1.1857e-05
1.20501e-05
1.19574e-05
1.1857e-05
1.1857e-05
1.1857e-05
1.1857e-05
3.19645e-05
3.4157e-05
3.46688e-05
3.07134e-05
1.1857e-05
1.1857e-05
1.1857e-05
1.1857e-05
1.1857e-05
1.1857e-05
1.1857e-05
1.1857e-05
1.1857e-05
1.1857e-05
1.1857e-05
1.1857e-05
1.1857e-05
1.1857e-05
1.1857e-05
1.1857e-05
1.1857e-05
1.1857e-05
1.1857e-05
1.1857e-05
1.1857e-05
1.1857e-05
1.18603e-05
1.1857e-05
1.18586e-05
2.00251e-05
1.18594e-05
1.1857e-05
2.1126e-05
1.18585e-05
1.1857e-05
1.1857e-05
2.31311e-05
1.1857e-05
1.1857e-05
1.1857e-05
1.18723e-05
1.18664e-05
1.6688e-05
1.1857e-05
1.1857e-05
1.18716e-05
1.18649e-05
1.1857e-05
1.1857e-05
2.02466e-05
1.1857e-05
1.18618e-05
1.1857e-05
1.1857e-05
1.1857e-05
2.09558e-05
1.88934e-05
1.1857e-05
1.1857e-05
1.1857e-05
1.1857e-05
1.52401e-05
1.1857e-05
3.66161e-05
1.1857e-05
3.61178e-05
1.1857e-05
1.18905e-05
1.1857e-05
1.1857e-05
1.1857e-05
1.1857e-05
1.1857e-05
1.1857e-05
1.1857e-05
2.07335e-05
2.28373e-05
1.1857e-05
1.1857e-05
2.00327e-05
1.1857e-05
2.10525e-05
1.1857e-05
1.85647e-05
1.1857e-05
1.1857e-05
5.3957e-05
5.52934e-05
1.1857e-05
1.1857e-05
1.1857e-05
5.30803e-05
5.50976e-05
5.52521e-05
1.1857e-05
5.26921e-05
1.1857e-05
1.1857e-05
1.1857e-05
5.86726e-05
5.14607e-05
1.1857e-05
5.44239e-05
5.06646e-05
1.1857e-05
1.1857e-05
1.1857e-05
5.54556e-05
1.1857e-05
1.1857e-05
5.42927e-05
1.1857e-05
5.17878e-05
1.1857e-05
1.1857e-05
1.1857e-05
5.35603e-05
5.03045e-05
5.22615e-05
1.1857e-05
1.1857e-05
1.1857e-05
5.04029e-05
5.70089e-05
5.48689e-05
4.98131e-05
5.26002e-05
1.1857e-05
1.1857e-05
5.37914e-05
1.1857e-05
1.1857e-05
5.12226e-05
5.14422e-05
5.31242e-05
1.1857e-05
5.32336e-05
1.1857e-05
1.63667e-05
1.1857e-05
1.1857e-05
1.1857e-05
1.1857e-05
1.18572e-05
1.1857e-05
1.1857e-05
1.1857e-05
1.1857e-05
2.0512e-05
2.23491e-05
1.1857e-05
1.1857e-05
1.99107e-05
1.1857e-05
1.1857e-05
4.90137e-05
1.1857e-05
1.1857e-05
4.90029e-05
1.1857e-05
2.38852e-05
1.1857e-05
1.1857e-05
1.1857e-05
1.18583e-05
1.1857e-05
1.18714e-05
1.19506e-05
1.18572e-05
1.1857e-05
1.21714e-05
1.18842e-05
1.27637e-05
1.1857e-05
1.1857e-05
1.18606e-05
1.1857e-05
1.39932e-05
1.1857e-05
1.1857e-05
1.1857e-05
1.1857e-05
1.1857e-05
1.1857e-05
1.1857e-05
1.18574e-05
1.18575e-05
1.18617e-05
1.1857e-05
1.74745e-05
1.19026e-05
1.1857e-05
1.1857e-05
1.1857e-05
3.12416e-05
5.13059e-05
1.1857e-05
1.1857e-05
2.36774e-05
4.93638e-05
1.1857e-05
3.23998e-05
2.33907e-05
1.1857e-05
1.1857e-05
1.1857e-05
1.19896e-05
1.18714e-05
1.1857e-05
1.18587e-05
1.18572e-05
1.1857e-05
1.1857e-05
1.1857e-05
1.1857e-05
1.1857e-05
1.1857e-05
1.25596e-05
1.1857e-05
2.34871e-05
1.1857e-05
1.1857e-05
1.1857e-05
1.1857e-05
1.1857e-05
2.42447e-05
2.77054e-05
1.1857e-05
1.20216e-05
1.1857e-05
1.1857e-05
1.19804e-05
1.20488e-05
1.1857e-05
1.1857e-05
1.18796e-05
1.18601e-05
1.1857e-05
1.20243e-05
1.21745e-05
1.1857e-05
1.18581e-05
1.1857e-05
1.18777e-05
1.18623e-05
1.1857e-05
1.1857e-05
1.20053e-05
1.18989e-05
1.2096e-05
1.1857e-05
1.18765e-05
1.1857e-05
1.18627e-05
1.1857e-05
1.20237e-05
1.1857e-05
1.18992e-05
1.2163e-05
1.1857e-05
1.1857e-05
1.20261e-05
1.1857e-05
1.19025e-05
1.21259e-05
1.1857e-05
1.186e-05
1.1876e-05
1.1857e-05
1.1857e-05
1.1857e-05
1.1857e-05
1.1857e-05
1.18601e-05
1.1857e-05
1.1857e-05
1.1857e-05
1.18893e-05
1.20592e-05
1.18783e-05
1.1857e-05
1.1857e-05
1.18626e-05
1.1857e-05
1.22206e-05
1.1857e-05
1.19801e-05
1.18602e-05
1.18804e-05
1.1857e-05
1.18605e-05
1.1857e-05
1.18606e-05
1.36557e-05
1.1857e-05
1.1857e-05
1.1857e-05
1.33134e-05
1.1857e-05
1.18573e-05
1.1857e-05
1.1857e-05
1.1857e-05
1.18815e-05
1.18637e-05
1.1857e-05
1.43307e-05
1.20476e-05
1.18572e-05
1.18575e-05
1.1857e-05
1.1857e-05
1.1857e-05
1.18574e-05
1.18579e-05
1.1857e-05
1.1857e-05
1.27993e-05
1.18574e-05
1.1857e-05
1.18576e-05
1.1857e-05
1.19079e-05
1.1857e-05
1.1857e-05
1.18937e-05
1.1857e-05
1.1857e-05
1.18848e-05
1.20576e-05
1.22373e-05
1.1857e-05
1.18577e-05
1.1857e-05
1.30268e-05
1.1857e-05
1.42857e-05
1.1857e-05
1.1857e-05
1.19019e-05
1.1857e-05
1.18575e-05
1.1887e-05
1.1857e-05
1.1857e-05
1.18641e-05
1.1857e-05
1.18581e-05
1.1857e-05
1.40301e-05
1.1857e-05
1.18993e-05
1.19127e-05
1.1857e-05
1.1857e-05
1.19173e-05
1.1857e-05
1.31583e-05
1.22205e-05
1.18663e-05
1.1857e-05
1.1857e-05
1.18621e-05
1.1857e-05
1.1857e-05
1.30354e-05
1.1857e-05
1.2354e-05
1.18576e-05
1.1857e-05
1.18636e-05
1.1864e-05
1.1857e-05
1.19517e-05
1.1857e-05
1.18577e-05
1.1857e-05
1.44942e-05
1.1857e-05
1.37294e-05
1.1857e-05
1.1869e-05
1.1857e-05
1.18663e-05
1.18646e-05
1.1857e-05
1.1857e-05
1.1857e-05
1.1857e-05
1.18705e-05
1.1857e-05
1.1857e-05
1.43162e-05
1.42116e-05
1.1857e-05
1.1867e-05
1.55387e-05
1.35047e-05
1.1857e-05
1.1857e-05
1.20594e-05
1.1857e-05
1.1857e-05
1.3266e-05
1.1857e-05
1.18859e-05
1.19859e-05
1.1857e-05
1.1857e-05
1.1857e-05
1.82991e-05
1.1857e-05
1.32499e-05
1.1857e-05
1.19418e-05
1.18752e-05
1.1857e-05
1.1857e-05
1.18701e-05
1.1857e-05
1.68866e-05
1.1857e-05
1.18815e-05
1.18581e-05
1.1857e-05
1.1857e-05
1.18586e-05
1.1857e-05
1.20205e-05
1.1857e-05
1.18652e-05
1.1857e-05
1.27531e-05
1.65752e-05
1.1857e-05
1.1857e-05
1.1857e-05
1.1857e-05
1.1857e-05
1.18587e-05
1.1857e-05
1.18759e-05
1.26245e-05
1.79483e-05
1.19864e-05
1.1857e-05
1.1857e-05
1.18579e-05
1.1857e-05
1.1857e-05
1.18591e-05
1.1857e-05
1.69561e-05
1.1857e-05
1.18756e-05
1.1857e-05
1.18598e-05
1.18579e-05
1.1857e-05
1.18582e-05
1.92861e-05
1.23677e-05
1.1857e-05
1.1857e-05
1.19848e-05
1.98404e-05
1.82336e-05
1.1857e-05
2.0353e-05
1.1857e-05
1.99084e-05
1.1857e-05
1.94116e-05
1.57731e-05
1.85168e-05
1.1857e-05
1.1857e-05
1.18585e-05
1.1857e-05
1.18581e-05
1.1857e-05
1.1857e-05
1.20789e-05
1.1857e-05
1.19027e-05
2.01268e-05
1.70313e-05
1.45506e-05
1.1857e-05
1.1857e-05
1.45734e-05
3.41022e-05
4.58143e-05
1.1857e-05
1.1857e-05
1.1857e-05
1.1857e-05
1.1857e-05
1.1857e-05
1.1857e-05
1.1857e-05
1.1857e-05
2.46338e-05
5.81251e-05
1.1857e-05
1.1857e-05
1.1857e-05
3.74888e-05
3.68279e-05
1.1857e-05
1.1857e-05
4.80037e-05
1.22196e-05
1.1857e-05
1.1857e-05
2.63615e-05
1.1857e-05
1.1857e-05
3.31343e-05
3.97884e-05
5.14557e-05
1.1857e-05
5.51209e-05
4.61707e-05
1.1857e-05
5.03085e-05
1.1857e-05
4.41178e-05
4.93887e-05
3.57186e-05
4.50013e-05
4.11777e-05
1.1857e-05
3.02604e-05
2.44772e-05
4.11292e-05
1.18833e-05
3.77649e-05
3.6323e-05
4.68785e-05
1.1857e-05
1.1857e-05
1.1857e-05
1.1857e-05
1.1857e-05
4.74362e-05
4.284e-05
1.1857e-05
1.1857e-05
1.1857e-05
2.43962e-05
3.60955e-05
1.1857e-05
1.1857e-05
2.89529e-05
1.99598e-05
1.1857e-05
4.146e-05
1.1857e-05
1.1857e-05
1.1857e-05
4.50335e-05
2.6184e-05
1.22484e-05
1.1857e-05
2.53651e-05
1.1857e-05
2.42139e-05
1.1857e-05
2.22507e-05
1.1857e-05
1.1857e-05
1.32773e-05
2.04221e-05
1.1857e-05
1.1857e-05
3.66275e-05
1.1857e-05
1.33915e-05
1.1857e-05
1.1857e-05
1.1857e-05
1.18676e-05
1.20171e-05
1.1857e-05
1.1857e-05
1.18953e-05
4.71383e-05
1.1857e-05
1.1857e-05
1.1876e-05
4.56999e-05
1.1857e-05
1.1857e-05
1.1857e-05
1.20586e-05
1.1857e-05
1.1857e-05
2.43172e-05
1.1857e-05
1.1857e-05
1.1858e-05
1.1857e-05
1.18602e-05
1.18783e-05
1.1857e-05
1.24578e-05
2.03433e-05
3.64599e-05
1.1857e-05
2.40439e-05
3.81114e-05
1.18576e-05
1.1857e-05
1.1857e-05
2.05709e-05
4.67039e-05
4.78762e-05
1.1857e-05
1.18595e-05
1.1857e-05
1.1857e-05
1.1857e-05
1.18571e-05
3.78473e-05
1.1857e-05
1.1857e-05
1.18571e-05
1.1857e-05
1.18571e-05
1.18571e-05
1.1857e-05
1.18574e-05
4.68571e-05
1.1857e-05
1.1857e-05
1.1857e-05
1.96004e-05
1.1857e-05
1.18609e-05
3.65759e-05
1.6286e-05
2.46471e-05
1.1857e-05
1.1857e-05
1.18573e-05
3.95793e-05
4.83853e-05
1.18571e-05
1.1857e-05
1.1857e-05
1.1857e-05
1.1857e-05
2.07274e-05
1.18571e-05
1.1857e-05
1.1857e-05
2.0136e-05
1.1857e-05
1.1857e-05
2.3964e-05
1.1857e-05
1.1857e-05
1.1857e-05
1.1857e-05
1.1857e-05
1.1857e-05
1.1857e-05
1.1857e-05
1.1857e-05
1.1857e-05
1.1857e-05
1.1857e-05
1.1857e-05
1.1857e-05
1.1857e-05
1.1857e-05
1.1857e-05
1.1857e-05
1.1857e-05
1.1857e-05
1.1857e-05
1.1857e-05
1.1857e-05
1.1857e-05
1.1857e-05
1.1857e-05
1.1857e-05
1.1857e-05
1.1857e-05
1.1857e-05
1.1857e-05
1.1857e-05
1.1857e-05
1.1857e-05
1.1857e-05
1.1857e-05
1.1857e-05
1.18571e-05
1.1857e-05
1.1857e-05
1.1857e-05
1.1857e-05
1.1857e-05
1.1857e-05
1.1857e-05
1.1857e-05
1.1857e-05
1.1857e-05
1.1857e-05
1.1857e-05
1.1857e-05
1.1857e-05
1.1857e-05
1.1857e-05
1.1857e-05
5.0359e-05
1.1857e-05
1.18589e-05
2.20453e-05
1.1857e-05
1.1857e-05
2.4033e-05
1.1857e-05
1.1857e-05
1.1857e-05
1.49339e-05
1.1857e-05
1.1857e-05
2.43027e-05
2.16534e-05
1.1857e-05
2.55126e-05
1.1857e-05
1.1857e-05
1.20023e-05
1.1857e-05
1.1869e-05
1.1857e-05
1.57357e-05
1.18729e-05
1.1857e-05
1.20153e-05
1.1857e-05
1.1857e-05
1.1857e-05
1.1857e-05
1.18817e-05
1.1857e-05
1.19612e-05
1.18571e-05
1.1888e-05
1.1857e-05
1.1857e-05
1.1859e-05
1.20696e-05
1.1857e-05
1.1857e-05
1.1857e-05
1.18571e-05
1.1857e-05
1.18738e-05
1.18764e-05
1.1857e-05
1.1857e-05
1.1857e-05
3.09448e-05
1.1857e-05
1.1857e-05
1.1857e-05
1.1857e-05
1.19713e-05
1.18572e-05
1.1857e-05
1.1857e-05
5.06717e-05
1.1857e-05
1.18595e-05
1.1857e-05
1.20206e-05
1.1857e-05
1.18602e-05
1.1857e-05
4.30323e-05
1.1857e-05
1.1857e-05
1.18571e-05
1.1857e-05
1.1857e-05
1.54153e-05
1.28234e-05
1.1857e-05
1.73699e-05
1.1857e-05
1.1857e-05
1.1859e-05
5.669e-05
1.1857e-05
1.1857e-05
4.82452e-05
1.18591e-05
1.88393e-05
1.1857e-05
1.18777e-05
1.1857e-05
1.1857e-05
1.18611e-05
1.31667e-05
1.1857e-05
1.2029e-05
1.1857e-05
1.1857e-05
1.18611e-05
1.1857e-05
1.1857e-05
1.1857e-05
1.19792e-05
1.29723e-05
1.1857e-05
1.1857e-05
1.36172e-05
1.1857e-05
1.26442e-05
1.1857e-05
1.1857e-05
1.18591e-05
1.1857e-05
1.1857e-05
1.36241e-05
1.19676e-05
1.1857e-05
1.18597e-05
1.1857e-05
1.18615e-05
1.18572e-05
1.1857e-05
1.1857e-05
1.28696e-05
1.18573e-05
1.1857e-05
1.1857e-05
1.18572e-05
1.18571e-05
1.1857e-05
1.1857e-05
1.1857e-05
1.18571e-05
1.1857e-05
1.1857e-05
1.18588e-05
1.1857e-05
1.1857e-05
1.18571e-05
1.58341e-05
1.1857e-05
1.18571e-05
1.1857e-05
1.1857e-05
1.50421e-05
1.1857e-05
1.63328e-05
1.1857e-05
1.68383e-05
1.1857e-05
1.1857e-05
1.18571e-05
1.1857e-05
1.1857e-05
1.1857e-05
1.61611e-05
1.1857e-05
1.18571e-05
1.1857e-05
1.1857e-05
1.1857e-05
1.1857e-05
1.1857e-05
1.1857e-05
1.1857e-05
1.70179e-05
1.86725e-05
1.1857e-05
1.1857e-05
1.1857e-05
1.1857e-05
1.1857e-05
1.1857e-05
1.1857e-05
1.1857e-05
1.1857e-05
2.86771e-05
1.1857e-05
5.01436e-05
1.1857e-05
1.1857e-05
1.1857e-05
1.67436e-05
1.1857e-05
1.9123e-05
1.18572e-05
1.1857e-05
1.1857e-05
1.1857e-05
4.19985e-05
1.1857e-05
1.1857e-05
1.1857e-05
1.7291e-05
1.1857e-05
1.1857e-05
1.1857e-05
1.1857e-05
1.1857e-05
1.1857e-05
1.1857e-05
1.1857e-05
1.1857e-05
1.1857e-05
1.18574e-05
1.1857e-05
6.02091e-05
1.1857e-05
4.93548e-05
1.1857e-05
1.1857e-05
1.1857e-05
1.1857e-05
1.1857e-05
1.1857e-05
1.18572e-05
1.1857e-05
1.1857e-05
1.1857e-05
1.1857e-05
1.18574e-05
1.18572e-05
1.1857e-05
1.18573e-05
1.1857e-05
1.1857e-05
1.18573e-05
1.18572e-05
1.1857e-05
1.18571e-05
1.1857e-05
1.18574e-05
1.18574e-05
1.18572e-05
1.1857e-05
1.1857e-05
2.68604e-05
1.1857e-05
5.72263e-05
1.1857e-05
4.86479e-05
1.1857e-05
1.1857e-05
1.1857e-05
2.73279e-05
1.1857e-05
5.09611e-05
1.1857e-05
4.24466e-05
1.1857e-05
2.99539e-05
4.20723e-05
3.13964e-05
2.58476e-05
1.1857e-05
1.1857e-05
4.84052e-05
1.1857e-05
1.1857e-05
5.30048e-05
1.1857e-05
1.1857e-05
5.0799e-05
1.1857e-05
4.21685e-05
5.13767e-05
1.1857e-05
1.1857e-05
1.1857e-05
4.78495e-05
1.1857e-05
4.21831e-05
1.1857e-05
5.76436e-05
1.1857e-05
4.87685e-05
1.1857e-05
1.4641e-05
1.1857e-05
1.1857e-05
1.1857e-05
1.1857e-05
1.18572e-05
1.1857e-05
1.1863e-05
1.27239e-05
1.1857e-05
1.1857e-05
1.1857e-05
1.1857e-05
1.1857e-05
2.86554e-05
2.66056e-05
1.1857e-05
1.1857e-05
5.12959e-05
5.62885e-05
1.1857e-05
1.1857e-05
5.47845e-05
5.79437e-05
1.1857e-05
1.1857e-05
5.60193e-05
5.56092e-05
1.1857e-05
5.51249e-05
6.16396e-05
1.1857e-05
1.1857e-05
1.1857e-05
6.31594e-05
6.04743e-05
1.1857e-05
6.64272e-05
1.1857e-05
6.20518e-05
1.1857e-05
1.1857e-05
5.47962e-05
6.04398e-05
5.68982e-05
1.1857e-05
1.1857e-05
5.94609e-05
5.46002e-05
1.1857e-05
5.54999e-05
1.1857e-05
5.6123e-05
1.1857e-05
1.1857e-05
5.61676e-05
5.48394e-05
1.1857e-05
1.1857e-05
5.85139e-05
1.1857e-05
1.1857e-05
5.68227e-05
5.74297e-05
1.1857e-05
1.1857e-05
5.90417e-05
5.85783e-05
1.1857e-05
1.1857e-05
6.43662e-05
6.40256e-05
1.1857e-05
5.98537e-05
6.01078e-05
1.1857e-05
1.1857e-05
6.37379e-05
1.1857e-05
6.23494e-05
6.2723e-05
1.1857e-05
1.1857e-05
6.60288e-05
1.1857e-05
6.18432e-05
1.1857e-05
6.27037e-05
6.11777e-05
1.1857e-05
1.1857e-05
6.11408e-05
1.8716e-05
1.1857e-05
1.1857e-05
1.84846e-05
1.1857e-05
1.1857e-05
1.1857e-05
1.1857e-05
1.31317e-05
1.1857e-05
1.1857e-05
2.79543e-05
2.88567e-05
1.1857e-05
1.1857e-05
1.18641e-05
1.1857e-05
5.5493e-05
1.1857e-05
1.1857e-05
5.45902e-05
1.1857e-05
5.62729e-05
5.64447e-05
1.1857e-05
5.00792e-05
1.1857e-05
5.24129e-05
1.1857e-05
5.87128e-05
1.1857e-05
1.1857e-05
1.1857e-05
5.77534e-05
6.00069e-05
5.3867e-05
5.57799e-05
1.1857e-05
1.1857e-05
1.1857e-05
1.1857e-05
5.39513e-05
1.1857e-05
1.1857e-05
1.1857e-05
1.1857e-05
1.1857e-05
1.1857e-05
5.65258e-05
5.16703e-05
5.17209e-05
5.76138e-05
5.13233e-05
5.21749e-05
1.1857e-05
1.1857e-05
6.11236e-05
1.1857e-05
5.11049e-05
5.76718e-05
5.49248e-05
1.1857e-05
1.1857e-05
5.73773e-05
1.1857e-05
5.35742e-05
1.1857e-05
5.61886e-05
5.5193e-05
1.1857e-05
1.26655e-05
1.1857e-05
1.18617e-05
1.1857e-05
1.1857e-05
1.1857e-05
1.1857e-05
2.6809e-05
2.41908e-05
1.1857e-05
1.1857e-05
1.18689e-05
1.1857e-05
1.25635e-05
1.1857e-05
1.1857e-05
1.1857e-05
2.61975e-05
2.96469e-05
5.18229e-05
1.1857e-05
1.1857e-05
1.1857e-05
5.60977e-05
1.1857e-05
5.26838e-05
5.37474e-05
1.1857e-05
1.18583e-05
1.1857e-05
1.18724e-05
1.1857e-05
1.19838e-05
1.1857e-05
1.19731e-05
1.18572e-05
1.1857e-05
1.18669e-05
1.1857e-05
1.18579e-05
1.1857e-05
1.26912e-05
1.1857e-05
1.27046e-05
1.1857e-05
1.1857e-05
1.1857e-05
1.1857e-05
1.1857e-05
1.1857e-05
1.1857e-05
1.1857e-05
1.18571e-05
1.1857e-05
1.18582e-05
1.1857e-05
1.18696e-05
1.19391e-05
1.1857e-05
1.31022e-05
1.1857e-05
1.1857e-05
4.94017e-05
2.02283e-05
3.56116e-05
3.56428e-05
1.1857e-05
1.1857e-05
2.04157e-05
4.60128e-05
2.04302e-05
1.1857e-05
1.1857e-05
1.31578e-05
1.1857e-05
1.91527e-05
1.1857e-05
1.20206e-05
1.1857e-05
1.18693e-05
1.18589e-05
1.18572e-05
1.1857e-05
1.1857e-05
1.1857e-05
1.1857e-05
1.1857e-05
1.1857e-05
1.1857e-05
1.1857e-05
1.19349e-05
1.1857e-05
1.20021e-05
1.18661e-05
1.1857e-05
1.1858e-05
1.1857e-05
1.1857e-05
1.18698e-05
1.1857e-05
1.2041e-05
1.1858e-05
1.1857e-05
1.1857e-05
1.20172e-05
1.1857e-05
1.18832e-05
1.18596e-05
1.1857e-05
1.18588e-05
1.1857e-05
1.1857e-05
1.20438e-05
1.1857e-05
1.18795e-05
1.20088e-05
1.18765e-05
1.18613e-05
1.1857e-05
1.1857e-05
1.1857e-05
1.20586e-05
1.1857e-05
1.1857e-05
1.202e-05
1.18846e-05
1.18778e-05
1.1857e-05
1.1857e-05
1.18601e-05
1.18591e-05
1.1857e-05
1.21052e-05
1.1857e-05
1.1884e-05
1.20521e-05
1.1857e-05
1.18777e-05
1.1857e-05
1.1857e-05
1.20681e-05
1.1857e-05
1.18608e-05
1.18815e-05
1.20375e-05
1.1857e-05
1.1857e-05
1.1857e-05
1.1857e-05
1.18766e-05
1.18604e-05
1.1857e-05
1.18598e-05
1.1857e-05
1.21266e-05
1.18842e-05
1.1857e-05
1.20738e-05
1.1857e-05
1.18796e-05
1.18613e-05
1.1857e-05
1.1857e-05
1.1857e-05
1.18781e-05
1.1857e-05
1.20064e-05
1.1857e-05
1.18814e-05
1.1857e-05
1.1861e-05
1.1857e-05
1.18602e-05
1.1857e-05
1.20578e-05
1.1857e-05
1.20052e-05
1.20798e-05
1.18797e-05
1.1857e-05
1.20219e-05
1.1878e-05
1.1857e-05
1.1857e-05
1.18617e-05
1.18852e-05
1.1857e-05
1.1861e-05
1.1857e-05
1.18626e-05
1.18614e-05
1.25262e-05
1.1857e-05
1.1857e-05
1.33933e-05
1.18572e-05
1.18573e-05
1.1857e-05
1.1857e-05
1.1857e-05
1.1857e-05
1.18574e-05
1.1857e-05
1.25517e-05
1.1857e-05
1.18571e-05
1.18574e-05
1.1857e-05
1.35801e-05
1.20768e-05
1.1857e-05
1.18574e-05
1.1857e-05
1.34084e-05
1.203e-05
1.1857e-05
1.37286e-05
1.1857e-05
1.20162e-05
1.18575e-05
1.1857e-05
1.31209e-05
1.1857e-05
1.18575e-05
1.1857e-05
1.18575e-05
1.1857e-05
1.1857e-05
1.18881e-05
1.1857e-05
1.1857e-05
1.1887e-05
1.18576e-05
1.1857e-05
1.18576e-05
1.1857e-05
1.1857e-05
1.22133e-05
1.1857e-05
1.18575e-05
1.18576e-05
1.1857e-05
1.1857e-05
1.1887e-05
1.1857e-05
1.18886e-05
1.1857e-05
1.1857e-05
1.31049e-05
1.21322e-05
1.18577e-05
1.1857e-05
1.36411e-05
1.18615e-05
1.1857e-05
1.18576e-05
1.1857e-05
1.1857e-05
1.33074e-05
1.18931e-05
1.1857e-05
1.21604e-05
1.1857e-05
1.18929e-05
1.1857e-05
1.1862e-05
1.1857e-05
1.357e-05
1.1857e-05
1.18611e-05
1.22025e-05
1.1857e-05
1.19051e-05
1.1857e-05
1.18947e-05
1.1857e-05
1.1857e-05
1.31617e-05
1.1857e-05
1.19037e-05
1.19097e-05
1.1857e-05
1.1857e-05
1.1863e-05
1.31969e-05
1.18616e-05
1.1857e-05
1.22422e-05
1.1857e-05
1.1857e-05
1.19037e-05
1.19002e-05
1.1857e-05
1.18644e-05
1.22112e-05
1.18577e-05
1.1857e-05
1.1857e-05
1.18626e-05
1.22832e-05
1.1857e-05
1.1857e-05
1.18577e-05
1.23068e-05
1.1857e-05
1.19049e-05
1.1857e-05
1.18653e-05
1.18646e-05
1.18579e-05
1.19103e-05
1.1857e-05
1.1857e-05
1.18577e-05
1.18629e-05
1.1857e-05
1.35259e-05
1.18643e-05
1.19213e-05
1.1857e-05
1.1857e-05
1.36332e-05
1.1857e-05
1.32444e-05
1.1857e-05
1.18682e-05
1.1857e-05
1.18674e-05
1.1857e-05
1.32967e-05
1.18668e-05
1.1857e-05
1.18672e-05
1.1857e-05
1.42198e-05
1.1857e-05
1.1857e-05
1.407e-05
1.36908e-05
1.1857e-05
1.44009e-05
1.1857e-05
1.41939e-05
1.1857e-05
1.1857e-05
1.48489e-05
1.3102e-05
1.1857e-05
1.1857e-05
1.49767e-05
1.43672e-05
1.1857e-05
1.29006e-05
1.1857e-05
1.20426e-05
1.1857e-05
1.18722e-05
1.2015e-05
1.1857e-05
1.1857e-05
1.4658e-05
1.30108e-05
1.1857e-05
1.1857e-05
1.18705e-05
1.1857e-05
1.1857e-05
1.2008e-05
1.19958e-05
1.1857e-05
1.18743e-05
1.1857e-05
1.1857e-05
1.18705e-05
1.1857e-05
1.1857e-05
1.18578e-05
1.28386e-05
1.1857e-05
1.26232e-05
1.20162e-05
1.83438e-05
1.1857e-05
1.18772e-05
1.1857e-05
1.1857e-05
1.26925e-05
1.77122e-05
1.1857e-05
1.19825e-05
1.1857e-05
1.1857e-05
1.1857e-05
1.76254e-05
1.1857e-05
1.1857e-05
1.1857e-05
1.1872e-05
1.72956e-05
1.1857e-05
1.1857e-05
1.1857e-05
1.18691e-05
1.19554e-05
1.18589e-05
1.1857e-05
1.1857e-05
1.18579e-05
1.18587e-05
1.1857e-05
1.18679e-05
1.1857e-05
1.26669e-05
1.1857e-05
1.1857e-05
1.18587e-05
1.1857e-05
1.23545e-05
1.1857e-05
1.25147e-05
1.1857e-05
1.1857e-05
1.1859e-05
1.19459e-05
1.18579e-05
1.1857e-05
1.19441e-05
1.18703e-05
1.1857e-05
1.18579e-05
1.1857e-05
1.1857e-05
1.19223e-05
1.1857e-05
1.18684e-05
1.1857e-05
1.1857e-05
1.23653e-05
1.1857e-05
1.1858e-05
1.1857e-05
1.1857e-05
1.18578e-05
1.63849e-05
1.1857e-05
1.1857e-05
1.23865e-05
1.18582e-05
1.23606e-05
1.1857e-05
1.1857e-05
1.19128e-05
1.1857e-05
1.1857e-05
1.18766e-05
1.1857e-05
1.1857e-05
1.18993e-05
1.55622e-05
1.1857e-05
1.1857e-05
1.1858e-05
1.18583e-05
1.1857e-05
1.1858e-05
1.1857e-05
1.1857e-05
1.20517e-05
1.1857e-05
1.18783e-05
1.1857e-05
1.1857e-05
1.1857e-05
1.5034e-05
1.1857e-05
1.1857e-05
1.18581e-05
1.18584e-05
1.2021e-05
1.1857e-05
1.22249e-05
1.18815e-05
1.1857e-05
1.46144e-05
1.1857e-05
1.1857e-05
1.35265e-05
1.1857e-05
1.18578e-05
1.18577e-05
1.1857e-05
1.1857e-05
1.21362e-05
1.20109e-05
1.1857e-05
1.1857e-05
1.18584e-05
1.18785e-05
1.1857e-05
1.40979e-05
1.1857e-05
1.1857e-05
1.18608e-05
1.1857e-05
1.18908e-05
1.32295e-05
1.1857e-05
1.18577e-05
1.1857e-05
1.1857e-05
1.20323e-05
1.1857e-05
1.18576e-05
1.19563e-05
1.1857e-05
4.34623e-05
1.1857e-05
1.1857e-05
1.1857e-05
1.97281e-05
3.63982e-05
3.80422e-05
3.84114e-05
1.1857e-05
1.1857e-05
3.65622e-05
3.73144e-05
1.1857e-05
1.1857e-05
2.32033e-05
1.1857e-05
4.57889e-05
3.95344e-05
1.1857e-05
1.1857e-05
1.1857e-05
1.1857e-05
1.1857e-05
3.86083e-05
1.1857e-05
1.1857e-05
1.1857e-05
2.22524e-05
4.23762e-05
1.1857e-05
1.1857e-05
3.80494e-05
1.1857e-05
1.1857e-05
4.77039e-05
4.03901e-05
4.80867e-05
1.1857e-05
3.72857e-05
4.32546e-05
2.23817e-05
4.3354e-05
4.37939e-05
4.38285e-05
3.78134e-05
2.64258e-05
1.1857e-05
4.1919e-05
2.91701e-05
4.27091e-05
1.1857e-05
1.1857e-05
2.18585e-05
4.88588e-05
4.5506e-05
1.1857e-05
1.1857e-05
1.1857e-05
4.3542e-05
2.06335e-05
1.1857e-05
1.18583e-05
1.1857e-05
1.1857e-05
1.1857e-05
1.1857e-05
4.20416e-05
4.86636e-05
1.1857e-05
1.1857e-05
2.51255e-05
2.95055e-05
3.67379e-05
3.8234e-05
1.18607e-05
3.91366e-05
4.46343e-05