/*--------------------------------*- C++ -*----------------------------------*\
  =========                 |
  \\      /  F ield         | OpenFOAM: The Open Source CFD Toolbox
   \\    /   O peration     | Website:  https://openfoam.org
    \\  /    A nd           | Version:  6
     \\/     M anipulation  |
\*---------------------------------------------------------------------------*/
FoamFile
{
    version     2.0;
    format      ascii;
    class       volVectorField;
    location    "1.1";
    object      U;
}
// * * * * * * * * * * * * * * * * * * * * * * * * * * * * * * * * * * * * * //

dimensions      [0 1 -1 0 0 0 0];

internalField   nonuniform List<vector> 
4214
(
(9.80138 -0.157269 0)
(9.90595 -0.062554 -1.99335e-19)
(9.91546 0.0185392 4.99758e-20)
(9.90716 0.0856037 1.54569e-19)
(9.92225 0.145229 9.12063e-20)
(9.9661 0.200258 -9.29465e-21)
(10.0287 0.250441 -9.58852e-20)
(10.0813 0.295011 -3.51919e-20)
(10.1089 0.334971 3.59799e-20)
(10.1114 0.370993 0)
(10.0966 0.402172 1.25438e-21)
(10.0726 0.426086 2.1603e-21)
(10.0447 0.438127 -3.11751e-21)
(10.014 0.436634 0)
(9.97519 0.419155 1.49191e-20)
(9.93861 0.387017 -1.51137e-20)
(9.95366 0.349938 2.31175e-21)
(10.0671 0.323546 2.80008e-21)
(10.2338 0.308488 0)
(10.2095 0.230069 -9.65777e-22)
(10.1242 0.0558754 0)
(10.1678 -0.119617 9.68533e-22)
(10.1514 -0.208426 0)
(9.96516 -0.250887 -2.74069e-21)
(9.85076 -0.297871 -2.45955e-21)
(9.85336 -0.349754 -1.60043e-20)
(9.9005 -0.395822 1.57953e-20)
(9.94555 -0.422438 0)
(9.98023 -0.432041 -1.6373e-21)
(10.0124 -0.426047 2.49673e-21)
(10.0448 -0.405967 -1.33666e-21)
(10.0747 -0.376301 0)
(10.0904 -0.340354 3.59093e-20)
(10.077 -0.300676 -3.51184e-20)
(10.0293 -0.257333 -9.67778e-20)
(9.96406 -0.20872 -9.3656e-21)
(9.91574 -0.154297 1.1069e-19)
(9.89923 -0.0938326 1.33409e-19)
(9.90731 -0.0248273 4.92826e-20)
(9.89925 0.0587015 -1.7071e-19)
(9.79644 0.155492 0)
(10.0496 -0.0387154 0)
(10.0327 0.0242789 1.4372e-20)
(10.011 0.093476 -4.13774e-20)
(9.99784 0.150435 -2.17482e-19)
(10.0182 0.204373 2.54109e-19)
(10.0673 0.256717 0)
(10.1191 0.304308 0)
(10.1521 0.345794 5.9465e-20)
(10.1601 0.382332 -6.08212e-20)
(10.1472 0.414742 -3.23427e-20)
(10.1195 0.442451 3.17383e-20)
(10.0825 0.462921 1.04226e-21)
(10.0403 0.471685 5.34162e-22)
(9.99203 0.467308 0)
(9.93702 0.446986 0)
(9.89698 0.415463 0)
(9.93044 0.380835 -3.30726e-20)
(10.0609 0.361188 -1.94535e-20)
(10.1881 0.340065 1.60774e-20)
(10.0699 0.246636 2.30334e-20)
(9.93126 0.050436 1.08034e-20)
(10.0229 -0.139857 6.5047e-21)
(10.0886 -0.242962 1.53235e-20)
(9.93251 -0.287216 9.22623e-21)
(9.80746 -0.33286 -2.77041e-20)
(9.79203 -0.384461 0)
(9.84764 -0.431366 0)
(9.91244 -0.460921 0)
(9.96653 -0.472389 -4.13771e-22)
(10.0143 -0.468523 -1.73205e-21)
(10.0601 -0.450787 3.75009e-20)
(10.1025 -0.42401 -3.53935e-20)
(10.1335 -0.391332 -6.33759e-20)
(10.1417 -0.354867 6.19544e-20)
(10.1172 -0.314502 0)
(10.0657 -0.268396 0)
(10.0141 -0.216697 1.69858e-19)
(9.99238 -0.161912 -1.96074e-19)
(10.0061 -0.102813 4.13336e-20)
(10.0288 -0.0307281 -1.43021e-20)
(10.0467 0.035117 7.59838e-19)
(10.0852 -0.0114612 -1.0477e-18)
(10.0534 0.0551353 -4.02411e-19)
(10.0404 0.127288 4.55531e-19)
(10.0419 0.18863 0)
(10.0689 0.243414 2.81654e-19)
(10.113 0.294106 -4.1467e-20)
(10.154 0.339288 -2.8843e-19)
(10.1765 0.37865 0)
(10.1771 0.413282 -5.2316e-20)
(10.1583 0.443868 8.07835e-20)
(10.1245 0.469871 -2.10119e-20)
(10.0817 0.488062 2.07717e-20)
(10.0324 0.49434 0)
(9.97686 0.487975 0)
(9.91701 0.466822 4.96014e-20)
(9.8812 0.435853 -6.80466e-20)
(9.92203 0.404863 3.01351e-20)
(10.0572 0.38611 1.1894e-20)
(10.1517 0.358487 2.05925e-20)
(9.98212 0.251086 -7.46348e-21)
(9.82002 0.0431544 0)
(9.93718 -0.153708 7.48024e-21)
(10.0465 -0.265969 -2.05474e-20)
(9.91431 -0.314566 -1.14461e-20)
(9.78504 -0.362554 -2.90958e-20)
(9.76403 -0.413605 -6.4557e-20)
(9.81954 -0.458989 8.00568e-20)
(9.89187 -0.489225 0)
(9.95488 -0.501385 0)
(10.0106 -0.498718 2.85191e-20)
(10.0626 -0.482078 -3.86531e-20)
(10.1104 -0.456375 8.5036e-20)
(10.1471 -0.425227 -1.11133e-19)
(10.1628 -0.390512 0)
(10.1495 -0.352225 -2.9377e-19)
(10.1106 -0.308481 -3.99386e-20)
(10.0652 -0.258358 3.52237e-19)
(10.0378 -0.20253 1.10156e-19)
(10.0371 -0.138783 3.70721e-19)
(10.0513 -0.0635564 -4.01868e-19)
(10.0839 0.00607112 1.0439e-18)
(10.1326 0.0492322 -1.19359e-18)
(10.1103 0.105032 1.52575e-19)
(10.1031 0.177839 0)
(10.1102 0.239667 4.7834e-19)
(10.1377 0.292812 -4.90871e-19)
(10.1749 0.341513 -3.84679e-19)
(10.2039 0.385143 3.94266e-19)
(10.2139 0.422996 -2.257e-19)
(10.2032 0.455913 1.14182e-19)
(10.1745 0.484808 -6.4819e-20)
(10.1318 0.508311 6.62176e-20)
(10.0808 0.523611 2.78879e-20)
(10.0218 0.527386 -2.84163e-20)
(9.95627 0.51869 0)
(9.89013 0.496022 1.17522e-19)
(9.8596 0.46508 -1.00919e-19)
(9.91102 0.438197 -3.08279e-20)
(10.0481 0.417339 -4.29312e-20)
(10.0958 0.381806 2.14131e-20)
(9.86054 0.259108 3.67182e-20)
(9.6686 0.0335384 0)
(9.81963 -0.174462 6.8239e-20)
(9.98737 -0.298664 6.12308e-20)
(9.88705 -0.353516 -1.40866e-19)
(9.75743 -0.402896 2.97687e-20)
(9.7262 -0.453467 -9.51275e-20)
(9.78166 -0.498741 7.7088e-20)
(9.86432 -0.529957 0)
(9.9396 -0.542919 -1.78697e-20)
(10.0063 -0.541374 1.75358e-20)
(10.0669 -0.526221 8.72364e-20)
(10.1228 -0.501943 -7.34589e-20)
(10.1682 -0.472203 1.75985e-19)
(10.1952 -0.439058 -5.32101e-20)
(10.1961 -0.402034 4.02164e-19)
(10.1714 -0.359585 -3.9237e-19)
(10.1348 -0.311229 -4.943e-19)
(10.108 -0.256784 3.69437e-19)
(10.1024 -0.192213 0)
(10.1109 -0.11606 -1.5207e-19)
(10.1341 -0.0570837 1.18842e-18)
(10.1901 0.0915733 -3.54612e-19)
(10.1675 0.156522 -8.39484e-19)
(10.1637 0.230872 8.92285e-19)
(10.1756 0.292351 -6.11013e-19)
(10.202 0.344792 6.27154e-19)
(10.2302 0.392855 6.41813e-19)
(10.2464 0.435576 -5.07829e-19)
(10.2442 0.472403 2.64262e-19)
(10.2231 0.504233 -1.79123e-19)
(10.185 0.531405 0)
(10.1345 0.552301 0)
(10.0756 0.564932 0)
(10.0075 0.566124 -3.48875e-20)
(9.93382 0.555093 1.56876e-19)
(9.86475 0.530909 3.80959e-20)
(9.84247 0.50137 -1.38455e-19)
(9.90341 0.478565 -5.25096e-20)
(10.039 0.451097 -7.16625e-20)
(10.0268 0.404692 1.68693e-19)
(9.7259 0.263261 3.52463e-20)
(9.51157 0.0201816 -3.78479e-20)
(9.6955 -0.198869 2.53518e-21)
(9.92032 -0.336478 1.23989e-19)
(9.85761 -0.400794 3.17618e-20)
(9.72922 -0.452039 -1.56793e-19)
(9.69264 -0.501009 -1.29533e-19)
(9.74487 -0.546147 9.92457e-20)
(9.83578 -0.578291 1.40484e-19)
(9.92216 -0.591999 -7.04363e-20)
(9.99932 -0.591477 0)
(10.0681 -0.577646 0)
(10.1311 -0.554794 0)
(10.1844 -0.526051 -1.88055e-19)
(10.2212 -0.493613 9.09297e-20)
(10.2351 -0.457157 -5.19068e-19)
(10.2249 -0.41512 3.56874e-19)
(10.1993 -0.366984 6.32642e-19)
(10.1751 -0.312948 -6.16356e-19)
(10.1656 -0.248405 5.12348e-19)
(10.1711 -0.170415 -5.28505e-19)
(10.1947 -0.10216 3.52387e-19)
(10.2521 0.152024 1.9897e-19)
(10.233 0.215455 -1.29493e-18)
(10.2343 0.289241 4.35401e-19)
(10.2484 0.350085 2.14078e-19)
(10.2693 0.402157 0)
(10.2859 0.450185 2.74761e-20)
(10.2888 0.492736 0)
(10.2741 0.52915 -8.0831e-20)
(10.2417 0.560107 3.68361e-19)
(10.1942 0.585576 -2.43046e-19)
(10.1352 0.604026 8.88002e-20)
(10.0677 0.614221 -6.86391e-20)
(9.99027 0.612926 4.54414e-20)
(9.90915 0.599606 0)
(9.83936 0.574255 0)
(9.82784 0.546485 0)
(9.89555 0.524754 -5.73294e-20)
(10.006 0.49229 -8.41816e-20)
(9.95348 0.429321 -1.37948e-19)
(9.56977 0.261563 0)
(9.33825 0.00165516 0)
(9.55639 -0.229646 0)
(9.83974 -0.381869 9.50463e-20)
(9.82239 -0.457213 8.13852e-20)
(9.70043 -0.51174 5.43866e-20)
(9.65948 -0.558595 0)
(9.70666 -0.603158 1.52935e-20)
(9.80496 -0.636365 0)
(9.90227 -0.650935 6.92735e-20)
(9.99061 -0.651411 -4.8417e-20)
(10.0684 -0.638794 1.05907e-19)
(10.1391 -0.617297 -2.74948e-19)
(10.2005 -0.589327 3.96072e-19)
(10.2474 -0.557002 -3.5967e-19)
(10.2743 -0.520088 0)
(10.279 -0.477323 -2.86252e-20)
(10.2666 -0.428492 0)
(10.2491 -0.374304 -2.15885e-19)
(10.2387 -0.309992 1.27855e-18)
(10.24 -0.232318 -3.72845e-19)
(10.2604 -0.165535 -6.659e-19)
(10.3205 0.211522 0)
(10.3058 0.278089 2.26452e-20)
(10.3116 0.352419 1.25495e-18)
(10.3245 0.413018 -2.18393e-19)
(10.3365 0.465458 8.09711e-19)
(10.3398 0.513895 -4.98883e-19)
(10.3289 0.556609 -7.41256e-19)
(10.3016 0.59293 2.68375e-19)
(10.2581 0.623205 -1.38182e-19)
(10.2011 0.647305 0)
(10.1335 0.66388 -6.49809e-21)
(10.0569 0.672022 -8.70675e-20)
(9.97021 0.668443 9.55891e-20)
(9.88332 0.653147 -7.26637e-20)
(9.81552 0.627432 3.28162e-19)
(9.81626 0.600835 -8.53958e-20)
(9.88525 0.576946 0)
(9.96735 0.539347 -2.2041e-19)
(9.85755 0.455392 3.04816e-19)
(9.39097 0.255763 0)
(9.15003 -0.0217307 0)
(9.40212 -0.267135 0)
(9.74361 -0.436114 1.02277e-19)
(9.7754 -0.523216 -2.81627e-19)
(9.67195 -0.582921 0)
(9.62847 -0.628582 -3.40913e-19)
(9.66828 -0.670818 2.93727e-20)
(9.77252 -0.704558 6.4315e-20)
(9.88004 -0.720316 6.82027e-20)
(9.98007 -0.721802 -3.48843e-20)
(10.0678 -0.710176 -3.12903e-20)
(10.1465 -0.689583 0)
(10.216 -0.661831 -3.99124e-19)
(10.2726 -0.62903 2.43196e-19)
(10.3122 -0.591076 -7.63601e-19)
(10.332 -0.546802 2.96075e-19)
(10.3342 -0.496294 8.2587e-19)
(10.3266 -0.440907 2.20228e-19)
(10.3182 -0.37626 7.90331e-19)
(10.3159 -0.297673 -2.01184e-18)
(10.3328 -0.227752 4.77374e-19)
(10.3975 0.279113 -6.5099e-19)
(10.3899 0.347389 -1.19747e-18)
(10.3979 0.422089 -6.28272e-19)
(10.4042 0.482545 0)
(10.4036 0.535342 0)
(10.3925 0.584173 2.13865e-19)
(10.3679 0.627266 0)
(10.3281 0.663864 1.33765e-19)
(10.2738 0.694005 -4.16007e-19)
(10.2071 0.717536 -2.25674e-20)
(10.1301 0.732861 1.10773e-19)
(10.0439 0.73944 -1.20651e-19)
(9.94812 0.734051 1.23125e-19)
(9.85733 0.717484 4.48847e-19)
(9.79383 0.691847 -3.71252e-20)
(9.80427 0.66574 -4.19399e-19)
(9.86916 0.637771 8.00786e-23)
(9.91415 0.588286 7.36099e-20)
(9.71927 0.481055 2.49639e-19)
(9.18679 0.251493 4.20041e-20)
(8.94334 -0.0479318 7.3683e-20)
(9.2293 -0.310476 -1.14898e-19)
(9.63581 -0.500686 2.44521e-19)
(9.71888 -0.601746 -3.68384e-20)
(9.64078 -0.667397 -4.04797e-19)
(9.59991 -0.713216 -1.21584e-19)
(9.63152 -0.751769 1.70685e-19)
(9.73893 -0.784769 -4.28531e-20)
(9.85577 -0.801538 8.79148e-20)
(9.96781 -0.80384 -8.61354e-20)
(10.0668 -0.792822 1.41154e-19)
(10.1547 -0.77246 -2.40028e-19)
(10.2325 -0.744033 -1.90176e-19)
(10.2986 -0.70987 4.77458e-19)
(10.3503 -0.670192 0)
(10.385 -0.623965 -2.19562e-19)
(10.403 -0.57145 5.52392e-19)
(10.4086 -0.514314 0)
(10.4067 -0.448863 6.31836e-19)
(10.4029 -0.369301 5.57363e-19)
(10.4134 -0.297505 6.48561e-19)
(10.4895 0.352798 -9.02361e-20)
(10.4859 0.423663 -1.44787e-18)
(10.49 0.4986 1.31122e-18)
(10.4847 0.558694 0)
(10.4693 0.611551 0)
(10.444 0.660846 0)
(10.4061 0.70474 0)
(10.3543 0.742205 0)
(10.2896 0.773171 2.37701e-19)
(10.2132 0.797237 -4.31123e-19)
(10.126 0.812077 0)
(10.0291 0.817839 0)
(9.92482 0.811367 1.52793e-19)
(9.8324 0.794643 -3.37095e-19)
(9.77452 0.769168 6.3352e-19)
(9.79037 0.743082 -7.53038e-19)
(9.84307 0.708587 -4.67492e-20)
(9.83706 0.64224 -3.05148e-19)
(9.56233 0.508797 0)
(8.95682 0.2477 -2.25747e-19)
(8.7148 -0.0771443 -8.88066e-20)
(9.03401 -0.360207 3.11908e-19)
(9.50865 -0.576418 1.70001e-19)
(9.64965 -0.694816 0)
(9.60537 -0.767175 8.45587e-19)
(9.57392 -0.814154 -7.01501e-19)
(9.59958 -0.849172 2.52844e-20)
(9.70581 -0.879879 2.76412e-20)
(9.8301 -0.896137 1.28944e-19)
(9.95438 -0.898886 0)
(10.0664 -0.887946 0)
(10.1648 -0.866594 -5.34157e-20)
(10.2512 -0.83623 9.62864e-20)
(10.3266 -0.799552 0)
(10.3896 -0.757207 0)
(10.4383 -0.70846 0)
(10.4722 -0.653802 -5.64169e-19)
(10.4933 -0.595014 0)
(10.5028 -0.528684 1.49174e-18)
(10.5025 -0.447861 -6.21568e-19)
(10.5088 -0.372665 9.0925e-20)
(10.5968 0.434998 -5.23182e-18)
(10.5896 0.506589 2.4013e-18)
(10.5833 0.580729 7.42827e-19)
(10.5637 0.640372 1.40497e-18)
(10.534 0.693472 -2.72884e-18)
(10.4952 0.743787 6.5843e-19)
(10.445 0.789293 -5.8147e-19)
(10.3818 0.828614 0)
(10.3069 0.86168 -6.48161e-19)
(10.2207 0.88758 3.61061e-19)
(10.1224 0.903186 1.48325e-19)
(10.0137 0.909083 -1.30835e-19)
(9.90176 0.902247 3.6163e-19)
(9.8102 0.886985 -1.84096e-19)
(9.75783 0.862032 4.33474e-19)
(9.77449 0.835326 1.07032e-19)
(9.80231 0.79202 -2.46031e-19)
(9.73521 0.705239 6.76553e-19)
(9.36971 0.539934 -1.99835e-19)
(8.69308 0.242177 5.09634e-19)
(8.46013 -0.110543 0)
(8.81114 -0.418835 -1.0582e-19)
(9.34889 -0.664177 -3.70929e-19)
(9.56529 -0.803028 -3.44835e-19)
(9.56416 -0.884795 -7.18122e-19)
(9.54955 -0.934006 1.06814e-19)
(9.57347 -0.965833 3.18388e-19)
(9.67593 -0.992705 -1.5259e-19)
(9.80498 -1.00622 2.69957e-19)
(9.94218 -1.00864 -1.30169e-19)
(10.068 -0.996784 2.00217e-19)
(10.178 -0.972742 1.11949e-20)
(10.274 -0.938852 2.75133e-19)
(10.3586 -0.898279 0)
(10.4319 -0.851968 0)
(10.4931 -0.799781 2.05191e-18)
(10.5417 -0.742609 -2.80182e-18)
(10.5786 -0.682288 1.43568e-18)
(10.6028 -0.61528 -7.4925e-19)
(10.6123 -0.534086 8.87344e-19)
(10.6216 -0.456953 -1.49792e-18)
(10.7126 0.521236 -3.14964e-18)
(10.6946 0.592374 0)
(10.6743 0.66535 -9.67227e-19)
(10.6413 0.725421 0)
(10.5992 0.780123 0)
(10.5487 0.83287 6.76796e-19)
(10.4869 0.881411 5.9497e-19)
(10.413 0.924137 -5.71824e-19)
(10.3278 0.960644 8.19969e-19)
(10.231 0.989774 1.6684e-19)
(10.1212 1.00801 0)
(10.0009 1.01522 -2.45947e-19)
(9.88174 1.00885 3.61043e-19)
(9.793 0.997028 -6.07477e-19)
(9.74416 0.973079 4.17684e-19)
(9.75507 0.945228 -1.3296e-18)
(9.74307 0.890685 9.59859e-19)
(9.60705 0.778151 -7.39208e-19)
(9.1371 0.574501 6.77204e-19)
(8.39116 0.236879 1.72401e-20)
(8.17423 -0.147262 0)
(8.55655 -0.486413 -1.67435e-20)
(9.16559 -0.765905 1.75862e-19)
(9.46134 -0.92979 -8.0411e-19)
(9.5151 -1.02429 8.91756e-19)
(9.52656 -1.07683 -7.05398e-19)
(9.55359 -1.10443 6.61967e-19)
(9.65273 -1.12589 -4.93286e-20)
(9.78426 -1.1349 1.10747e-20)
(9.93364 -1.13513 -1.07786e-19)
(10.073 -1.11982 0)
(10.1959 -1.09166 0)
(10.3032 -1.05269 -9.3022e-19)
(10.3974 -1.00656 6.25001e-19)
(10.4803 -0.954634 -7.26841e-19)
(10.552 -0.89754 -7.0485e-19)
(10.613 -0.836715 0)
(10.6639 -0.774132 0)
(10.7026 -0.7062 9.81915e-19)
(10.726 -0.625613 0)
(10.7462 -0.548341 -8.89557e-19)
(10.8275 0.603541 -4.62823e-18)
(10.7967 0.674903 -2.09154e-18)
(10.764 0.748378 4.26056e-18)
(10.7209 0.811555 -2.95899e-18)
(10.6689 0.870512 9.55344e-19)
(10.6076 0.92805 9.08715e-19)
(10.535 0.981725 0)
(10.4508 1.02986 -9.66113e-20)
(10.3549 1.07154 -4.51835e-19)
(10.2459 1.10532 -8.79554e-19)
(10.1239 1.12757 7.38074e-20)
(9.99378 1.13852 -2.08877e-19)
(9.86844 1.13466 1.14089e-19)
(9.78311 1.12789 3.67022e-19)
(9.73264 1.10504 5.25954e-20)
(9.72719 1.0759 -2.84668e-19)
(9.65894 1.00521 1.5328e-18)
(9.42842 0.862475 -1.37052e-18)
(8.85756 0.616628 -2.44869e-19)
(8.04709 0.234767 3.02661e-19)
(7.85297 -0.18603 0)
(8.26221 -0.562524 2.58286e-19)
(8.94455 -0.883355 -3.05584e-19)
(9.33243 -1.07858 4.84333e-19)
(9.45439 -1.18934 1.03074e-18)
(9.50546 -1.24724 -1.93222e-18)
(9.54166 -1.26896 8.3651e-19)
(9.64008 -1.28347 -6.74461e-19)
(9.77303 -1.28509 5.10621e-19)
(9.93098 -1.28028 -1.23629e-19)
(10.0832 -1.2585 5.73205e-19)
(10.2209 -1.22451 1.40677e-19)
(10.3414 -1.17887 1.12796e-18)
(10.4464 -1.12536 -6.39975e-19)
(10.5385 -1.06588 -1.21048e-19)
(10.6193 -1.0019 -9.56469e-19)
(10.6899 -0.935319 3.03819e-18)
(10.7515 -0.868423 -1.95114e-18)
(10.8019 -0.797703 3.32824e-20)
(10.8384 -0.717011 -2.11661e-18)
(10.8716 -0.640283 4.63103e-18)
(10.9385 0.672578 -1.35114e-18)
(10.8985 0.748484 0)
(10.8579 0.826699 -1.14558e-18)
(10.808 0.897273 1.08979e-18)
(10.7471 0.964091 1.01625e-18)
(10.6758 1.02964 9.27305e-19)
(10.5928 1.09112 -9.50443e-19)
(10.4981 1.14712 1.36443e-18)
(10.3902 1.19601 -3.00612e-20)
(10.2675 1.23614 3.68075e-19)
(10.1327 1.26403 1.60978e-19)
(9.99443 1.28196 2.26448e-19)
(9.86542 1.28332 1.37589e-19)
(9.78199 1.28391 -7.42315e-19)
(9.7193 1.26233 9.10421e-19)
(9.68737 1.23152 -6.6504e-19)
(9.53956 1.13755 5.3004e-20)
(9.20943 0.961245 1.10078e-18)
(8.52972 0.668346 -1.21873e-18)
(7.65692 0.237597 5.33135e-19)
(7.49372 -0.225683 0)
(7.92246 -0.646726 1.24775e-19)
(8.67934 -1.01617 -5.94234e-19)
(9.17019 -1.25088 7.15418e-20)
(9.37432 -1.38234 -4.32289e-19)
(9.48413 -1.44996 5.91727e-19)
(9.53815 -1.4649 3.50748e-19)
(9.64224 -1.47144 -8.50387e-20)
(9.77506 -1.46064 -2.82788e-19)
(9.93803 -1.44599 1.41339e-19)
(10.1021 -1.41498 -2.63815e-19)
(10.2553 -1.373 -4.60341e-19)
(10.3907 -1.31873 -2.15351e-18)
(10.5083 -1.25607 7.4891e-19)
(10.6101 -1.18697 -2.18349e-18)
(10.6994 -1.1138 2.95639e-18)
(10.7775 -1.03852 -1.055e-18)
(10.8469 -0.964067 0)
(10.9051 -0.886663 1.16657e-18)
(10.9508 -0.802061 0)
(10.9933 -0.722009 1.35628e-18)
(11.0525 0.724019 -4.734e-18)
(11.0084 0.811539 -2.81845e-18)
(10.9636 0.899569 2.90077e-18)
(10.908 0.982327 0)
(10.838 1.06088 0)
(10.7575 1.13805 0)
(10.6637 1.21027 -2.13943e-18)
(10.558 1.27686 1.0002e-18)
(10.4363 1.33528 -1.28765e-18)
(10.2994 1.38424 6.34066e-19)
(10.1527 1.42059 0)
(10.0076 1.44898 -1.06994e-20)
(9.87686 1.45935 9.06503e-20)
(9.79129 1.47157 9.4113e-20)
(9.70183 1.45022 1.26957e-18)
(9.62952 1.41637 -1.60953e-18)
(9.37314 1.29026 1.55666e-18)
(8.93418 1.078 -5.82618e-19)
(8.14107 0.728862 0)
(7.21078 0.246187 -4.75403e-19)
(7.08711 -0.264221 1.99907e-19)
(7.52535 -0.736501 2.68644e-19)
(8.35701 -1.1616 0)
(8.96443 -1.44742 -5.33059e-19)
(9.265 -1.60473 1.30709e-18)
(9.45725 -1.68953 -1.401e-18)
(9.54319 -1.69776 1.085e-19)
(9.66472 -1.69508 -4.3824e-19)
(9.7959 -1.6665 2.74092e-19)
(9.96216 -1.63672 -1.53016e-19)
(10.1352 -1.59217 0)
(10.3027 -1.53881 7.59635e-19)
(10.4535 -1.47359 3.52429e-20)
(10.5858 -1.39976 -1.11348e-18)
(10.6982 -1.31892 2.31331e-18)
(10.797 -1.23412 0)
(10.8813 -1.14677 0)
(10.9568 -1.06091 0)
(11.0194 -0.971686 2.95368e-18)
(11.0707 -0.877455 -2.86981e-18)
(11.1181 -0.786521 4.7565e-18)
(11.1876 0.764344 -1.86988e-18)
(11.1421 0.866695 0)
(11.091 0.966973 0)
(11.0292 1.06504 0)
(10.9496 1.15951 0)
(10.8612 1.2515 2.65777e-18)
(10.7547 1.33805 -1.55099e-18)
(10.6373 1.41802 -2.03268e-18)
(10.4998 1.48941 -1.89938e-20)
(10.3496 1.55071 -7.93673e-19)
(10.194 1.60028 -5.10024e-19)
(10.044 1.64366 -1.28058e-19)
(9.91151 1.66796 1.18971e-19)
(9.81849 1.69614 -3.78382e-19)
(9.68324 1.67159 -6.03102e-19)
(9.54792 1.63455 -1.02926e-18)
(9.15314 1.46611 1.14073e-18)
(8.5994 1.2195 -6.66607e-19)
(7.67598 0.801019 4.49271e-19)
(6.68319 0.266198 -1.16584e-19)
(6.6046 -0.299773 2.32594e-19)
(7.04745 -0.833518 -1.1455e-19)
(7.96187 -1.3174 0)
(8.70885 -1.67017 -6.00717e-19)
(9.12134 -1.8563 2.00098e-18)
(9.42652 -1.96917 -8.93337e-19)
(9.56263 -1.97123 4.85285e-19)
(9.71591 -1.95929 2.65676e-19)
(9.84874 -1.90697 -1.00324e-19)
(10.0163 -1.85679 -1.82741e-19)
(10.1935 -1.79308 7.22049e-19)
(10.3719 -1.72288 9.82057e-19)
(10.5362 -1.64362 2.39698e-18)
(10.6852 -1.5551 -1.77867e-21)
(10.8088 -1.46037 -4.22175e-18)
(10.9197 -1.36038 2.85471e-18)
(11.0095 -1.25783 0)
(11.0912 -1.15573 1.80433e-18)
(11.1559 -1.05041 0)
(11.2122 -0.941073 0)
(11.2623 -0.834213 1.87805e-18)
(11.3666 0.802519 4.18011e-18)
(11.3184 0.909915 0)
(11.2538 1.02785 0)
(11.187 1.13876 -5.85426e-18)
(11.0953 1.25809 3.84812e-18)
(11.0014 1.36411 0)
(10.8764 1.47312 0)
(10.7488 1.5671 0)
(10.5918 1.65902 3.53754e-18)
(10.433 1.73565 -2.74062e-19)
(10.2706 1.80623 8.89531e-20)
(10.1185 1.8685 8.69207e-19)
(9.98203 1.91132 1.61531e-19)
(9.87241 1.95811 -6.76875e-19)
(9.66738 1.9279 1.03629e-18)
(9.45558 1.89268 1.0958e-18)
(8.88261 1.67187 2.39557e-19)
(8.20759 1.40558 -7.36293e-19)
(7.11936 0.89874 -9.76145e-19)
(6.0478 0.317597 5.20458e-19)
(6.01913 -0.332667 0)
(6.46631 -0.957519 4.8977e-19)
(7.4797 -1.49082 -4.81051e-19)
(8.40401 -1.92893 -6.465e-19)
(8.93894 -2.13623 -8.36983e-19)
(9.39683 -2.29115 9.20199e-19)
(9.60076 -2.2832 -6.23173e-20)
(9.80722 -2.26459 -3.63804e-19)
(9.9496 -2.18678 -2.68674e-19)
(10.1183 -2.10814 7.41028e-19)
(10.2937 -2.02198 -1.42651e-18)
(10.4793 -1.92469 -2.30168e-18)
(10.6504 -1.82955 5.49956e-21)
(10.8197 -1.71714 1.78032e-18)
(10.9518 -1.60874 0)
(11.0813 -1.48379 0)
(11.1745 -1.36683 4.015e-18)
(11.2667 -1.23727 -3.54582e-18)
(11.3315 -1.11817 0)
(11.3954 -0.983017 0)
(11.4463 -0.864331 -4.20032e-18)
(11.5828 0.850089 -2.32084e-18)
(11.5398 0.93303 0)
(11.4509 1.10246 0)
(11.3932 1.19834 -4.24856e-19)
(11.2714 1.37221 0)
(11.1882 1.46967 4.16903e-18)
(11.0227 1.62791 -4.29611e-18)
(10.9061 1.72054 0)
(10.7112 1.85552 -3.169e-18)
(10.5669 1.93856 0)
(10.3838 2.0484 1.05381e-18)
(10.2428 2.12277 -8.28187e-19)
(10.078 2.19696 -2.05445e-19)
(9.94754 2.25791 -1.0778e-19)
(9.62104 2.22349 1.59721e-19)
(9.33799 2.20054 -1.87445e-18)
(8.52308 1.91941 4.9043e-19)
(7.76163 1.66509 0)
(6.47751 1.04102 0)
(5.32754 0.430847 -6.07304e-19)
(5.38723 -0.36307 0)
(5.79793 -1.14136 5.77182e-19)
(6.89916 -1.69413 9.76128e-19)
(8.04406 -2.23976 0)
(8.67838 -2.44462 1.46604e-18)
(9.3534 -2.65843 -1.42362e-18)
(9.62483 -2.63647 9.02834e-19)
(9.93765 -2.60922 8.90519e-20)
(10.0901 -2.51453 -7.60014e-19)
(10.2834 -2.38985 2.47367e-18)
(10.4396 -2.29107 -1.40591e-18)
(10.6446 -2.14224 0)
(10.7962 -2.04305 2.01147e-18)
(11.0035 -1.87939 -1.82654e-18)
(11.1219 -1.77489 -4.62231e-18)
(11.2919 -1.59318 4.48584e-18)
(11.3729 -1.48586 0)
(11.4943 -1.29181 4.34964e-19)
(11.5486 -1.18988 0)
(11.6298 -0.992808 0)
(11.6702 -0.895853 2.33311e-18)
(11.7322 -0.71529 -2.75858e-18)
(11.5101 -0.749394 0)
(11.3263 -0.751947 0)
(11.1801 -0.726142 -3.06643e-18)
(11.0525 -0.676654 -1.4504e-18)
(10.9257 -0.604087 -2.46762e-18)
(10.7935 -0.518272 -1.328e-19)
(10.6657 -0.432732 -1.16325e-18)
(10.5564 -0.353585 -9.30171e-19)
(10.4672 -0.28385 9.28362e-19)
(10.3905 -0.216434 0)
(10.318 -0.161328 0)
(10.2521 -0.0943051 1.29558e-18)
(10.1939 -0.0696732 -1.97704e-18)
(10.1566 0.0264013 -1.90262e-18)
(10.0619 0.00870767 -1.28483e-18)
(9.6159 0.220133 7.73266e-20)
(11.7637 -0.629053 -5.72236e-18)
(11.5684 -0.63571 0)
(11.3984 -0.651419 0)
(11.2582 -0.650181 -5.99515e-18)
(11.1339 -0.625626 -1.86119e-18)
(11.0131 -0.575718 -3.3133e-18)
(10.8885 -0.505765 1.37011e-18)
(10.7662 -0.429025 -1.3667e-18)
(10.6577 -0.353862 1.11831e-18)
(10.566 -0.287434 -1.11509e-18)
(10.4861 -0.222141 -2.04551e-18)
(10.4123 -0.171102 0)
(10.3424 -0.100194 -1.36925e-18)
(10.2823 -0.0799548 1.47447e-18)
(10.2325 0.031115 9.83909e-19)
(10.1382 -0.0401654 -1.15516e-18)
(9.61741 0.201218 0)
(11.8002 -0.462324 1.22647e-17)
(11.6181 -0.507061 2.6893e-18)
(11.4582 -0.541678 0)
(11.3239 -0.561823 4.33714e-18)
(11.2035 -0.560244 0)
(11.0878 -0.532461 3.53213e-18)
(10.9704 -0.47924 -1.60916e-18)
(10.8542 -0.413606 1.60332e-18)
(10.7481 -0.344845 0)
(10.6558 -0.282642 1.22014e-18)
(10.5746 -0.220003 -1.55216e-19)
(10.5007 -0.17314 1.03658e-19)
(10.4306 -0.103499 1.44626e-18)
(10.3698 -0.0878124 -2.40459e-18)
(10.315 0.0292057 3.96786e-19)
(10.2065 -0.0590209 1.37165e-18)
(9.62152 0.217735 -1.5322e-19)
(11.8134 -0.392793 -3.22846e-18)
(11.6503 -0.398965 -6.01242e-18)
(11.5044 -0.430859 -5.6267e-18)
(11.3794 -0.463511 -5.16182e-18)
(11.2664 -0.483057 2.21165e-18)
(11.1589 -0.479089 -6.5626e-18)
(11.0527 -0.446759 -1.87199e-18)
(10.9461 -0.395947 1.86276e-18)
(10.8441 -0.335807 0)
(10.7513 -0.278507 0)
(10.6686 -0.218527 -4.30017e-18)
(10.5945 -0.174967 2.56113e-18)
(10.5248 -0.107051 -1.22014e-18)
(10.4638 -0.0936262 0)
(10.4055 0.0240709 0)
(10.28 -0.0695325 0)
(9.63634 0.227636 -1.64198e-18)
(11.8283 -0.265225 1.44393e-17)
(11.6804 -0.286585 3.21075e-18)
(11.544 -0.318149 2.85652e-18)
(11.4246 -0.356573 5.53993e-18)
(11.3187 -0.392037 0)
(11.2205 -0.409249 9.62492e-18)
(11.1271 -0.400023 0)
(11.0326 -0.367898 -4.31309e-18)
(10.9372 -0.320311 1.86553e-18)
(10.8459 -0.270463 -7.34026e-18)
(10.7627 -0.214272 4.86202e-18)
(10.6889 -0.17407 3.26536e-18)
(10.6206 -0.107937 0)
(10.5612 -0.0976173 6.26562e-19)
(10.5019 0.0224294 -6.22872e-19)
(10.3587 -0.0761963 -1.30053e-19)
(9.65759 0.234649 -2.54138e-19)
(11.8309 -0.22266 -7.80033e-18)
(11.6967 -0.2033 0)
(11.5702 -0.215688 -3.29009e-18)
(11.4571 -0.249731 3.26411e-18)
(11.3586 -0.291144 0)
(11.2711 -0.324598 -5.31342e-18)
(11.1913 -0.338253 2.47717e-18)
(11.1108 -0.327453 4.4685e-18)
(11.0252 -0.296465 -2.30035e-18)
(10.9385 -0.257665 1.96979e-18)
(10.857 -0.20787 2.01311e-18)
(10.7843 -0.171817 -2.58094e-18)
(10.7177 -0.10768 -8.78039e-19)
(10.6608 -0.100439 0)
(10.6021 0.0200075 0)
(10.4412 -0.0810166 1.631e-19)
(9.68404 0.237731 2.06686e-18)
(11.8322 -0.148665 4.28306e-18)
(11.7093 -0.130358 3.96236e-18)
(11.5904 -0.128222 -3.6346e-18)
(11.4804 -0.1492 7.00631e-18)
(11.3863 -0.186589 -3.23442e-18)
(11.3085 -0.228466 3.0183e-18)
(11.2414 -0.259239 -2.82378e-18)
(11.1754 -0.269905 2.92733e-18)
(11.1029 -0.258525 5.12619e-18)
(11.0252 -0.23509 -2.47564e-18)
(10.949 -0.195789 -2.21869e-18)
(10.8791 -0.166092 4.43792e-18)
(10.8152 -0.105757 2.11179e-18)
(10.7615 -0.101755 1.08593e-18)
(10.7043 0.0188559 3.20596e-18)
(10.5253 -0.0852405 1.16617e-18)
(9.71441 0.236633 1.82945e-18)
(11.8304 -0.136048 -9.04725e-18)
(11.7147 -0.0902694 4.35373e-18)
(11.6023 -0.0647705 -3.99621e-18)
(11.4952 -0.06642 3.94803e-18)
(11.4037 -0.0902731 -7.27404e-18)
(11.3327 -0.12809 6.73135e-18)
(11.2762 -0.166643 -3.31487e-18)
(11.2231 -0.194797 -2.98446e-18)
(11.1652 -0.202682 0)
(11.1005 -0.197695 2.84186e-18)
(11.0343 -0.172322 0)
(10.9707 -0.153682 1.98532e-19)
(10.9121 -0.0988752 2.0916e-19)
(10.8626 -0.101196 2.1777e-19)
(10.8078 0.0189562 -1.45551e-18)
(10.609 -0.0886517 -2.77855e-19)
(9.74666 0.231306 -1.7161e-18)
(11.8293 -0.110065 0)
(11.7195 -0.0621584 -4.85125e-20)
(11.6114 -0.0250917 4.41291e-18)
(11.5069 -0.00732683 -8.37577e-18)
(11.4163 -0.0115595 1.20998e-17)
(11.3478 -0.0352868 -3.74035e-18)
(11.2973 -0.0703883 3.56357e-18)
(11.2533 -0.106111 -3.35714e-18)
(11.2079 -0.128758 3.33467e-18)
(11.1576 -0.142183 -3.02714e-18)
(11.1047 -0.132287 0)
(11.0518 -0.130729 -5.65978e-18)
(11.0026 -0.083782 -2.59147e-18)
(10.9597 -0.098509 -2.46984e-18)
(10.9087 0.0235969 6.02797e-19)
(10.6906 -0.0924203 -2.54424e-18)
(9.77836 0.223391 -2.82864e-19)
(11.8273 -0.123983 1.03722e-17)
(11.7232 -0.0640711 -1.49057e-17)
(11.6181 -0.0109541 4.77304e-18)
(11.5158 0.0238796 4.56694e-18)
(11.4268 0.0397719 -8.67329e-18)
(11.3583 0.036617 4.2461e-18)
(11.3081 0.0160787 3.93555e-18)
(11.2673 -0.0149895 -3.73981e-18)
(11.2288 -0.0435082 -3.55725e-18)
(11.1897 -0.0709995 0)
(11.1496 -0.0748971 1.64185e-18)
(11.1094 -0.0937255 1.48368e-18)
(11.0732 -0.0562838 -1.62434e-18)
(11.0408 -0.091676 -7.63049e-19)
(10.991 0.0308217 -7.12761e-19)
(10.7661 -0.0970166 -3.15134e-18)
(9.80808 0.211281 3.28204e-19)
(11.8284 -0.136301 -5.41576e-18)
(11.7286 -0.0783916 -5.24736e-18)
(11.6268 -0.0202643 7.63985e-21)
(11.526 0.027 0)
(11.4363 0.0596386 0)
(11.3651 0.0756943 -4.48835e-18)
(11.3108 0.076137 4.40083e-18)
(11.2673 0.0610726 0)
(11.2291 0.0385719 0)
(11.1941 0.00698739 0)
(11.1608 -0.00520608 0)
(11.1305 -0.041827 -3.61084e-18)
(11.1067 -0.0135371 4.99475e-18)
(11.088 -0.0770565 -2.46678e-18)
(11.0458 0.0401359 7.97972e-19)
(10.8248 -0.0999738 2.95997e-18)
(9.83327 0.192239 0)
(11.8263 -0.168536 3.04191e-18)
(11.7351 -0.116856 0)
(11.6394 -0.0542089 -2.67211e-18)
(11.5408 0.00289378 2.59844e-18)
(11.4479 0.0488752 -5.05756e-18)
(11.3691 0.0809331 -2.40225e-18)
(11.3059 0.0972779 -2.31989e-18)
(11.255 0.0996398 -2.24223e-18)
(11.2118 0.0938325 -1.37369e-20)
(11.1737 0.0742054 -2.13396e-18)
(11.1393 0.0603824 -4.06075e-18)
(11.1112 0.0170079 3.77078e-18)
(11.0926 0.0361831 -1.88504e-18)
(11.0941 -0.0509754 -1.84303e-18)
(11.0702 0.0563089 -1.77189e-18)
(10.8528 -0.0979909 -1.73399e-18)
(9.84582 0.175169 -1.67897e-18)
(11.8255 -0.196919 6.20653e-18)
(11.7445 -0.160383 -5.8543e-18)
(11.6567 -0.106351 2.91507e-18)
(11.5621 -0.0488371 2.80718e-18)
(11.4671 0.0052966 4.65894e-20)
(11.379 0.0515319 2.9202e-20)
(11.3018 0.0850498 4.95392e-18)
(11.2364 0.103416 2.32068e-20)
(11.1811 0.10811 2.30138e-18)
(11.1333 0.104657 4.4379e-18)
(11.0909 0.098268 -2.47722e-20)
(11.0554 0.0674584 2.06836e-18)
(11.0287 0.0759182 -2.02566e-18)
(11.0284 -0.0120019 -1.01681e-18)
(11.0573 0.0754825 2.80807e-18)
(10.844 -0.103622 1.81056e-18)
(9.84033 0.161224 1.74975e-18)
(11.8186 -0.228652 -6.3585e-18)
(11.7504 -0.208499 6.25412e-18)
(11.675 -0.165149 0)
(11.5877 -0.116023 2.86369e-18)
(11.4944 -0.06537 -2.69571e-18)
(11.4017 -0.0153292 0)
(11.313 0.0302142 -2.5404e-18)
(11.2302 0.0665914 2.50637e-18)
(11.155 0.0923071 -2.39774e-18)
(11.0875 0.100664 2.33497e-18)
(11.0272 0.104225 2.24752e-18)
(10.9735 0.0872666 -2.19186e-18)
(10.925 0.09097 2.12129e-18)
(10.8949 0.0172925 3.09722e-18)
(10.9213 0.0900705 -1.00986e-18)
(10.8077 -0.111438 0)
(9.81854 0.146692 0)
(11.8078 -0.233758 3.40684e-18)
(11.7537 -0.23465 0)
(11.6887 -0.212681 0)
(11.6114 -0.18036 0)
(11.526 -0.141927 2.90051e-18)
(11.4363 -0.0992189 2.74442e-18)
(11.3441 -0.0555378 2.68245e-18)
(11.251 -0.0143189 -2.56827e-18)
(11.1589 0.0219264 -2.47642e-18)
(11.0696 0.0470086 2.40506e-18)
(10.9842 0.0710693 1.16328e-18)
(10.9025 0.061686 -1.13172e-18)
(10.8243 0.0865259 0)
(10.7625 0.0131972 -1.06826e-18)
(10.7526 0.104852 1.04216e-18)
(10.7582 -0.109445 0)
(9.77729 0.135592 0)
(11.7964 -0.244937 0)
(11.7515 -0.247546 3.26226e-18)
(11.6963 -0.238412 -1.61558e-18)
(11.6307 -0.222195 0)
(11.5573 -0.199708 0)
(11.4772 -0.170796 0)
(11.3904 -0.137181 -2.67981e-18)
(11.2977 -0.101121 2.59079e-18)
(11.2001 -0.0652842 1.21856e-18)
(11.0989 -0.0331636 -1.21288e-18)
(10.9944 0.00228874 2.35336e-18)
(10.8871 0.0070664 -1.14259e-18)
(10.774 0.0601563 0)
(10.677 -0.00883505 5.41344e-19)
(10.6258 0.11377 5.02885e-19)
(10.67 -0.107971 -2.58199e-19)
(9.71897 0.124949 2.52923e-19)
(11.7737 -0.203043 1.66071e-18)
(11.7423 -0.232938 5.02704e-20)
(11.6975 -0.236993 -1.6576e-18)
(11.6442 -0.233455 1.49364e-18)
(11.5838 -0.225423 -5.02597e-20)
(11.5166 -0.212002 -2.70452e-18)
(11.4419 -0.191791 2.60348e-18)
(11.3592 -0.166789 0)
(11.2686 -0.138703 -2.50193e-18)
(11.1694 -0.107066 -1.74535e-21)
(11.0604 -0.0710736 1.15586e-18)
(10.9414 -0.0537915 0)
(10.8032 0.0130775 0)
(10.6759 -0.0420765 0)
(10.577 0.110625 -7.9836e-19)
(10.5355 -0.116691 -3.79686e-19)
(9.66087 0.122799 1.24134e-19)
(11.7443 -0.177568 -9.40041e-19)
(11.7181 -0.20541 1.65946e-18)
(11.6864 -0.213488 -1.58062e-18)