/*--------------------------------*- C++ -*----------------------------------*\
  =========                 |
  \\      /  F ield         | OpenFOAM: The Open Source CFD Toolbox
   \\    /   O peration     | Website:  https://openfoam.org
    \\  /    A nd           | Version:  6
     \\/     M anipulation  |
\*---------------------------------------------------------------------------*/
FoamFile
{
    version     2.0;
    format      ascii;
    class       volVectorField;
    location    "4.81";
    object      U;
}
// * * * * * * * * * * * * * * * * * * * * * * * * * * * * * * * * * * * * * //

dimensions      [0 1 -1 0 0 0 0];

internalField   nonuniform List<vector> 
5625
(
(0.894397 0.447195 0)
(0.894397 0.447196 0)
(0.894398 0.447197 0)
(0.894398 0.447197 0)
(0.894398 0.447198 0)
(0.894399 0.447198 0)
(0.894399 0.447199 0)
(0.894399 0.447199 0)
(0.8944 0.447199 0)
(0.8944 0.4472 0)
(0.8944 0.4472 0)
(0.8944 0.4472 0)
(0.8944 0.4472 0)
(0.8944 0.4472 0)
(0.8944 0.4472 0)
(0.8944 0.4472 0)
(0.8944 0.4472 0)
(0.8944 0.4472 0)
(0.8944 0.4472 0)
(0.8944 0.4472 0)
(0.8944 0.4472 0)
(0.8944 0.4472 0)
(0.8944 0.4472 0)
(0.8944 0.4472 0)
(0.8944 0.4472 0)
(0.8944 0.4472 0)
(0.8944 0.4472 0)
(0.8944 0.4472 0)
(0.8944 0.4472 0)
(0.8944 0.4472 0)
(0.8944 0.4472 0)
(0.8944 0.4472 0)
(0.8944 0.4472 0)
(0.8944 0.4472 0)
(0.8944 0.4472 0)
(0.8944 0.4472 0)
(0.8944 0.4472 0)
(0.8944 0.4472 0)
(0.8944 0.4472 0)
(0.8944 0.4472 0)
(0.8944 0.4472 0)
(0.8944 0.4472 0)
(0.8944 0.4472 0)
(0.8944 0.4472 0)
(0.8944 0.4472 0)
(0.8944 0.4472 0)
(0.8944 0.4472 0)
(0.8944 0.4472 0)
(0.8944 0.4472 0)
(0.8944 0.4472 0)
(0.8944 0.4472 0)
(0.8944 0.4472 0)
(0.8944 0.4472 0)
(0.8944 0.4472 0)
(0.8944 0.4472 0)
(0.894399 0.4472 0)
(0.8944 0.447201 0)
(0.894399 0.447201 0)
(0.894399 0.447201 0)
(0.894398 0.447202 0)
(0.894398 0.447202 0)
(0.894397 0.447203 0)
(0.894397 0.447204 0)
(0.894396 0.447206 0)
(0.894395 0.447207 0)
(0.894395 0.447209 0)
(0.894394 0.447211 0)
(0.894394 0.447213 0)
(0.894395 0.447215 0)
(0.894395 0.447218 0)
(0.894395 0.447221 0)
(0.894396 0.447225 0)
(0.894396 0.44723 0)
(0.894395 0.447238 0)
(0.894391 0.447248 0)
(0.894396 0.447193 0)
(0.894396 0.447195 0)
(0.894397 0.447196 0)
(0.894397 0.447197 0)
(0.894398 0.447197 0)
(0.894398 0.447198 0)
(0.894399 0.447199 0)
(0.894399 0.447199 0)
(0.894399 0.447199 0)
(0.8944 0.4472 0)
(0.8944 0.4472 0)
(0.8944 0.4472 0)
(0.8944 0.4472 0)
(0.8944 0.4472 0)
(0.8944 0.4472 0)
(0.8944 0.4472 0)
(0.8944 0.4472 0)
(0.8944 0.4472 0)
(0.8944 0.4472 0)
(0.8944 0.4472 0)
(0.8944 0.4472 0)
(0.8944 0.4472 0)
(0.8944 0.4472 0)
(0.8944 0.4472 0)
(0.8944 0.4472 0)
(0.8944 0.4472 0)
(0.8944 0.4472 0)
(0.8944 0.4472 0)
(0.8944 0.4472 0)
(0.8944 0.4472 0)
(0.8944 0.4472 0)
(0.8944 0.4472 0)
(0.8944 0.4472 0)
(0.8944 0.4472 0)
(0.8944 0.4472 0)
(0.8944 0.4472 0)
(0.8944 0.4472 0)
(0.8944 0.4472 0)
(0.8944 0.4472 0)
(0.8944 0.4472 0)
(0.8944 0.4472 0)
(0.8944 0.4472 0)
(0.8944 0.4472 0)
(0.8944 0.4472 0)
(0.8944 0.4472 0)
(0.8944 0.4472 0)
(0.8944 0.4472 0)
(0.8944 0.4472 0)
(0.8944 0.4472 0)
(0.8944 0.4472 0)
(0.8944 0.4472 0)
(0.8944 0.4472 0)
(0.8944 0.4472 0)
(0.8944 0.4472 0)
(0.8944 0.4472 0)
(0.8944 0.447201 0)
(0.894399 0.447201 0)
(0.894399 0.447201 0)
(0.894399 0.447202 0)
(0.894398 0.447202 0)
(0.894397 0.447203 0)
(0.894396 0.447204 0)
(0.894396 0.447205 0)
(0.894395 0.447207 0)
(0.894394 0.447209 0)
(0.894393 0.447211 0)
(0.894393 0.447213 0)
(0.894392 0.447216 0)
(0.894392 0.447219 0)
(0.894392 0.447223 0)
(0.894392 0.447228 0)
(0.894392 0.447233 0)
(0.894391 0.447241 0)
(0.894387 0.447252 0)
(0.894379 0.447268 0)
(0.894395 0.447192 0)
(0.894396 0.447194 0)
(0.894396 0.447195 0)
(0.894397 0.447196 0)
(0.894397 0.447197 0)
(0.894398 0.447198 0)
(0.894398 0.447198 0)
(0.894399 0.447199 0)
(0.894399 0.447199 0)
(0.894399 0.447199 0)
(0.894399 0.4472 0)
(0.8944 0.4472 0)
(0.8944 0.4472 0)
(0.8944 0.4472 0)
(0.8944 0.4472 0)
(0.8944 0.4472 0)
(0.8944 0.4472 0)
(0.8944 0.4472 0)
(0.8944 0.4472 0)
(0.8944 0.4472 0)
(0.8944 0.4472 0)
(0.8944 0.4472 0)
(0.8944 0.4472 0)
(0.8944 0.4472 0)
(0.8944 0.4472 0)
(0.8944 0.4472 0)
(0.8944 0.4472 0)
(0.8944 0.4472 0)
(0.8944 0.4472 0)
(0.8944 0.4472 0)
(0.8944 0.4472 0)
(0.8944 0.4472 0)
(0.8944 0.4472 0)
(0.8944 0.4472 0)
(0.8944 0.4472 0)
(0.8944 0.4472 0)
(0.8944 0.4472 0)
(0.8944 0.4472 0)
(0.8944 0.4472 0)
(0.8944 0.4472 0)
(0.8944 0.4472 0)
(0.8944 0.4472 0)
(0.8944 0.4472 0)
(0.8944 0.4472 0)
(0.8944 0.4472 0)
(0.8944 0.4472 0)
(0.8944 0.4472 0)
(0.8944 0.4472 0)
(0.8944 0.4472 0)
(0.8944 0.4472 0)
(0.8944 0.4472 0)
(0.8944 0.4472 0)
(0.8944 0.4472 0)
(0.8944 0.447201 0)
(0.894399 0.4472 0)
(0.894399 0.447201 0)
(0.894399 0.447201 0)
(0.894399 0.447201 0)
(0.894398 0.447202 0)
(0.894397 0.447203 0)
(0.894397 0.447204 0)
(0.894396 0.447205 0)
(0.894394 0.447206 0)
(0.894393 0.447209 0)
(0.894392 0.447211 0)
(0.894391 0.447213 0)
(0.89439 0.447216 0)
(0.89439 0.44722 0)
(0.894389 0.447224 0)
(0.894388 0.447229 0)
(0.894388 0.447236 0)
(0.894386 0.447243 0)
(0.894382 0.447255 0)
(0.894375 0.447271 0)
(0.894361 0.447296 0)
(0.894394 0.44719 0)
(0.894394 0.447192 0)
(0.894395 0.447194 0)
(0.894396 0.447195 0)
(0.894397 0.447196 0)
(0.894397 0.447197 0)
(0.894398 0.447198 0)
(0.894398 0.447198 0)
(0.894399 0.447199 0)
(0.894399 0.447199 0)
(0.894399 0.447199 0)
(0.8944 0.4472 0)
(0.8944 0.4472 0)
(0.8944 0.4472 0)
(0.8944 0.4472 0)
(0.8944 0.4472 0)
(0.8944 0.4472 0)
(0.8944 0.4472 0)
(0.8944 0.4472 0)
(0.8944 0.4472 0)
(0.8944 0.4472 0)
(0.8944 0.4472 0)
(0.8944 0.4472 0)
(0.8944 0.4472 0)
(0.8944 0.4472 0)
(0.8944 0.4472 0)
(0.8944 0.4472 0)
(0.8944 0.4472 0)
(0.8944 0.4472 0)
(0.8944 0.4472 0)
(0.8944 0.4472 0)
(0.8944 0.4472 0)
(0.8944 0.4472 0)
(0.8944 0.4472 0)
(0.8944 0.4472 0)
(0.8944 0.4472 0)
(0.8944 0.4472 0)
(0.8944 0.4472 0)
(0.8944 0.4472 0)
(0.8944 0.4472 0)
(0.8944 0.4472 0)
(0.8944 0.4472 0)
(0.8944 0.4472 0)
(0.8944 0.4472 0)
(0.8944 0.4472 0)
(0.8944 0.4472 0)
(0.8944 0.4472 0)
(0.8944 0.4472 0)
(0.8944 0.4472 0)
(0.8944 0.4472 0)
(0.8944 0.4472 0)
(0.8944 0.4472 0)
(0.894399 0.4472 0)
(0.8944 0.4472 0)
(0.8944 0.447201 0)
(0.894399 0.447201 0)
(0.894398 0.447201 0)
(0.894398 0.447202 0)
(0.894398 0.447202 0)
(0.894396 0.447203 0)
(0.894396 0.447204 0)
(0.894394 0.447206 0)
(0.894393 0.447208 0)
(0.894392 0.44721 0)
(0.89439 0.447213 0)
(0.894389 0.447216 0)
(0.894387 0.447221 0)
(0.894386 0.447225 0)
(0.894385 0.44723 0)
(0.894384 0.447237 0)
(0.894381 0.447245 0)
(0.894377 0.447257 0)
(0.89437 0.447273 0)
(0.894356 0.447297 0)
(0.894334 0.447332 0)
(0.894392 0.447188 0)
(0.894393 0.447191 0)
(0.894394 0.447192 0)
(0.894395 0.447194 0)
(0.894396 0.447195 0)
(0.894397 0.447196 0)
(0.894397 0.447197 0)
(0.894398 0.447198 0)
(0.894399 0.447199 0)
(0.894399 0.447199 0)
(0.894399 0.447199 0)
(0.894399 0.447199 0)
(0.8944 0.4472 0)
(0.8944 0.4472 0)
(0.8944 0.4472 0)
(0.8944 0.4472 0)
(0.8944 0.4472 0)
(0.8944 0.4472 0)
(0.8944 0.4472 0)
(0.8944 0.4472 0)
(0.8944 0.4472 0)
(0.8944 0.4472 0)
(0.8944 0.4472 0)
(0.8944 0.4472 0)
(0.8944 0.4472 0)
(0.8944 0.4472 0)
(0.8944 0.4472 0)
(0.8944 0.4472 0)
(0.8944 0.4472 0)
(0.8944 0.4472 0)
(0.8944 0.4472 0)
(0.8944 0.4472 0)
(0.8944 0.4472 0)
(0.8944 0.4472 0)
(0.8944 0.4472 0)
(0.8944 0.4472 0)
(0.8944 0.4472 0)
(0.8944 0.4472 0)
(0.8944 0.4472 0)
(0.8944 0.4472 0)
(0.8944 0.4472 0)
(0.8944 0.4472 0)
(0.8944 0.4472 0)
(0.8944 0.4472 0)
(0.8944 0.4472 0)
(0.8944 0.4472 0)
(0.8944 0.4472 0)
(0.8944 0.4472 0)
(0.8944 0.4472 0)
(0.8944 0.4472 0)
(0.894399 0.4472 0)
(0.8944 0.4472 0)
(0.8944 0.4472 0)
(0.894399 0.4472 0)
(0.894399 0.447201 0)
(0.894399 0.447201 0)
(0.894398 0.447201 0)
(0.894397 0.447202 0)
(0.894397 0.447203 0)
(0.894396 0.447204 0)
(0.894394 0.447205 0)
(0.894393 0.447208 0)
(0.894391 0.44721 0)
(0.89439 0.447212 0)
(0.894388 0.447216 0)
(0.894386 0.44722 0)
(0.894384 0.447225 0)
(0.894382 0.447231 0)
(0.89438 0.447237 0)
(0.894377 0.447246 0)
(0.894373 0.447258 0)
(0.894365 0.447273 0)
(0.894352 0.447297 0)
(0.89433 0.447331 0)
(0.894295 0.447381 0)
(0.894391 0.447186 0)
(0.894391 0.447189 0)
(0.894392 0.447191 0)
(0.894394 0.447193 0)
(0.894395 0.447195 0)
(0.894396 0.447196 0)
(0.894397 0.447197 0)
(0.894398 0.447198 0)
(0.894398 0.447198 0)
(0.894399 0.447199 0)
(0.894399 0.447199 0)
(0.894399 0.447199 0)
(0.894399 0.4472 0)
(0.8944 0.4472 0)
(0.8944 0.4472 0)
(0.8944 0.4472 0)
(0.8944 0.4472 0)
(0.8944 0.4472 0)
(0.8944 0.4472 0)
(0.8944 0.4472 0)
(0.8944 0.4472 0)
(0.8944 0.4472 0)
(0.8944 0.4472 0)
(0.8944 0.4472 0)
(0.8944 0.4472 0)
(0.8944 0.4472 0)
(0.8944 0.4472 0)
(0.8944 0.4472 0)
(0.8944 0.4472 0)
(0.8944 0.4472 0)
(0.8944 0.4472 0)
(0.8944 0.4472 0)
(0.8944 0.4472 0)
(0.8944 0.4472 0)
(0.8944 0.4472 0)
(0.8944 0.4472 0)
(0.8944 0.4472 0)
(0.8944 0.4472 0)
(0.8944 0.4472 0)
(0.8944 0.4472 0)
(0.8944 0.4472 0)
(0.8944 0.4472 0)
(0.8944 0.4472 0)
(0.8944 0.4472 0)
(0.8944 0.4472 0)
(0.8944 0.4472 0)
(0.8944 0.4472 0)
(0.8944 0.4472 0)
(0.8944 0.4472 0)
(0.8944 0.4472 0)
(0.8944 0.4472 0)
(0.8944 0.4472 0)
(0.8944 0.4472 0)
(0.894399 0.447201 0)
(0.894399 0.4472 0)
(0.894398 0.447201 0)
(0.894398 0.447202 0)
(0.894397 0.447202 0)
(0.894396 0.447203 0)
(0.894395 0.447205 0)
(0.894393 0.447206 0)
(0.894391 0.447209 0)
(0.894389 0.447212 0)
(0.894387 0.447215 0)
(0.894385 0.44722 0)
(0.894382 0.447224 0)
(0.894379 0.44723 0)
(0.894377 0.447238 0)
(0.894374 0.447246 0)
(0.894369 0.447258 0)
(0.894361 0.447273 0)
(0.894348 0.447295 0)
(0.894327 0.447327 0)
(0.894293 0.447374 0)
(0.894241 0.447445 0)
(0.894389 0.447184 0)
(0.89439 0.447187 0)
(0.894391 0.447189 0)
(0.894392 0.447191 0)
(0.894394 0.447193 0)
(0.894395 0.447195 0)
(0.894396 0.447196 0)
(0.894397 0.447197 0)
(0.894398 0.447198 0)
(0.894398 0.447199 0)
(0.894399 0.447199 0)
(0.894399 0.447199 0)
(0.894399 0.447199 0)
(0.8944 0.4472 0)
(0.8944 0.4472 0)
(0.8944 0.4472 0)
(0.8944 0.4472 0)
(0.8944 0.4472 0)
(0.8944 0.4472 0)
(0.8944 0.4472 0)
(0.8944 0.4472 0)
(0.8944 0.4472 0)
(0.8944 0.4472 0)
(0.8944 0.4472 0)
(0.8944 0.4472 0)
(0.8944 0.4472 0)
(0.8944 0.4472 0)
(0.8944 0.4472 0)
(0.8944 0.4472 0)
(0.8944 0.4472 0)
(0.8944 0.4472 0)
(0.8944 0.4472 0)
(0.8944 0.4472 0)
(0.8944 0.4472 0)
(0.8944 0.4472 0)
(0.8944 0.4472 0)
(0.8944 0.4472 0)
(0.8944 0.4472 0)
(0.8944 0.4472 0)
(0.8944 0.4472 0)
(0.8944 0.4472 0)
(0.8944 0.4472 0)
(0.8944 0.4472 0)
(0.8944 0.4472 0)
(0.8944 0.4472 0)
(0.8944 0.4472 0)
(0.8944 0.4472 0)
(0.8944 0.4472 0)
(0.8944 0.4472 0)
(0.8944 0.4472 0)
(0.8944 0.4472 0)
(0.894399 0.4472 0)
(0.8944 0.4472 0)
(0.894399 0.447201 0)
(0.894398 0.447201 0)
(0.894398 0.447201 0)
(0.894397 0.447202 0)
(0.894396 0.447203 0)
(0.894395 0.447204 0)
(0.894393 0.447206 0)
(0.894391 0.447208 0)
(0.894389 0.447211 0)
(0.894387 0.447214 0)
(0.894384 0.447218 0)
(0.894381 0.447223 0)
(0.894378 0.447229 0)
(0.894374 0.447236 0)
(0.89437 0.447245 0)
(0.894365 0.447256 0)
(0.894357 0.447272 0)
(0.894345 0.447292 0)
(0.894325 0.447322 0)
(0.894293 0.447367 0)
(0.894242 0.447432 0)
(0.894166 0.447527 0)
(0.894387 0.447182 0)
(0.894387 0.447184 0)
(0.894389 0.447187 0)
(0.89439 0.44719 0)
(0.894392 0.447192 0)
(0.894394 0.447194 0)
(0.894395 0.447195 0)
(0.894396 0.447197 0)
(0.894397 0.447198 0)
(0.894398 0.447198 0)
(0.894398 0.447199 0)
(0.894399 0.447199 0)
(0.894399 0.447199 0)
(0.8944 0.4472 0)
(0.8944 0.4472 0)
(0.8944 0.4472 0)
(0.8944 0.4472 0)
(0.8944 0.4472 0)
(0.8944 0.4472 0)
(0.8944 0.4472 0)
(0.8944 0.4472 0)
(0.8944 0.4472 0)
(0.8944 0.4472 0)
(0.8944 0.4472 0)
(0.8944 0.4472 0)
(0.8944 0.4472 0)
(0.8944 0.4472 0)
(0.8944 0.4472 0)
(0.8944 0.4472 0)
(0.8944 0.4472 0)
(0.8944 0.4472 0)
(0.8944 0.4472 0)
(0.8944 0.4472 0)
(0.8944 0.4472 0)
(0.8944 0.4472 0)
(0.8944 0.4472 0)
(0.8944 0.4472 0)
(0.8944 0.4472 0)
(0.8944 0.4472 0)
(0.8944 0.4472 0)
(0.8944 0.4472 0)
(0.8944 0.4472 0)
(0.8944 0.4472 0)
(0.8944 0.4472 0)
(0.8944 0.4472 0)
(0.8944 0.4472 0)
(0.8944 0.4472 0)
(0.8944 0.4472 0)
(0.8944 0.4472 0)
(0.8944 0.4472 0)
(0.894399 0.4472 0)
(0.8944 0.4472 0)
(0.894399 0.4472 0)
(0.894399 0.447201 0)
(0.894398 0.447201 0)
(0.894398 0.447202 0)
(0.894397 0.447203 0)
(0.894395 0.447204 0)
(0.894394 0.447205 0)
(0.894392 0.447207 0)
(0.89439 0.44721 0)
(0.894387 0.447213 0)
(0.894383 0.447217 0)
(0.89438 0.447222 0)
(0.894376 0.447228 0)
(0.894372 0.447235 0)
(0.894368 0.447243 0)
(0.894362 0.447255 0)
(0.894354 0.447269 0)
(0.894342 0.447289 0)
(0.894323 0.447316 0)
(0.894292 0.447356 0)
(0.894245 0.447417 0)
(0.894173 0.447505 0)
(0.894064 0.447635 0)
(0.894385 0.447179 0)
(0.894385 0.447182 0)
(0.894387 0.447185 0)
(0.894389 0.447188 0)
(0.89439 0.447191 0)
(0.894392 0.447193 0)
(0.894394 0.447195 0)
(0.894395 0.447196 0)
(0.894396 0.447197 0)
(0.894397 0.447198 0)
(0.894398 0.447198 0)
(0.894399 0.447199 0)
(0.894399 0.447199 0)
(0.894399 0.4472 0)
(0.8944 0.4472 0)
(0.8944 0.4472 0)
(0.8944 0.4472 0)
(0.8944 0.4472 0)
(0.8944 0.4472 0)
(0.8944 0.4472 0)
(0.8944 0.4472 0)
(0.8944 0.4472 0)
(0.8944 0.4472 0)
(0.8944 0.4472 0)
(0.8944 0.4472 0)
(0.8944 0.4472 0)
(0.8944 0.4472 0)
(0.8944 0.4472 0)
(0.8944 0.4472 0)
(0.8944 0.4472 0)
(0.8944 0.4472 0)
(0.8944 0.4472 0)
(0.8944 0.4472 0)
(0.8944 0.4472 0)
(0.8944 0.4472 0)
(0.8944 0.4472 0)
(0.8944 0.4472 0)
(0.8944 0.4472 0)
(0.8944 0.4472 0)
(0.8944 0.4472 0)
(0.8944 0.4472 0)
(0.8944 0.4472 0)
(0.8944 0.4472 0)
(0.8944 0.4472 0)
(0.8944 0.4472 0)
(0.8944 0.4472 0)
(0.8944 0.4472 0)
(0.8944 0.4472 0)
(0.8944 0.4472 0)
(0.8944 0.4472 0)
(0.8944 0.4472 0)
(0.894399 0.4472 0)
(0.894399 0.4472 0)
(0.894399 0.447201 0)
(0.894398 0.447201 0)
(0.894397 0.447202 0)
(0.894396 0.447203 0)
(0.894395 0.447205 0)
(0.894392 0.447206 0)
(0.89439 0.447208 0)
(0.894387 0.447211 0)
(0.894384 0.447216 0)
(0.89438 0.44722 0)
(0.894375 0.447226 0)
(0.894371 0.447233 0)
(0.894366 0.447241 0)
(0.89436 0.447252 0)
(0.894351 0.447266 0)
(0.89434 0.447284 0)
(0.894322 0.44731 0)
(0.894294 0.447346 0)
(0.894249 0.447401 0)
(0.894181 0.44748 0)
(0.894078 0.447599 0)
(0.893929 0.447772 0)
(0.894383 0.447177 0)
(0.894383 0.44718 0)
(0.894384 0.447183 0)
(0.894386 0.447186 0)
(0.894389 0.447189 0)
(0.894391 0.447192 0)
(0.894393 0.447193 0)
(0.894394 0.447195 0)
(0.894396 0.447196 0)
(0.894397 0.447198 0)
(0.894398 0.447198 0)
(0.894398 0.447199 0)
(0.894399 0.447199 0)
(0.894399 0.447199 0)
(0.894399 0.4472 0)
(0.8944 0.4472 0)
(0.8944 0.4472 0)
(0.8944 0.4472 0)
(0.8944 0.4472 0)
(0.8944 0.4472 0)
(0.8944 0.4472 0)
(0.8944 0.4472 0)
(0.8944 0.4472 0)
(0.8944 0.4472 0)
(0.8944 0.4472 0)
(0.8944 0.4472 0)
(0.8944 0.4472 0)
(0.8944 0.4472 0)
(0.8944 0.4472 0)
(0.8944 0.4472 0)
(0.8944 0.4472 0)
(0.8944 0.4472 0)
(0.8944 0.4472 0)
(0.8944 0.4472 0)
(0.8944 0.4472 0)
(0.8944 0.4472 0)
(0.8944 0.4472 0)
(0.8944 0.4472 0)
(0.8944 0.4472 0)
(0.8944 0.4472 0)
(0.8944 0.4472 0)
(0.8944 0.4472 0)
(0.8944 0.4472 0)
(0.8944 0.4472 0)
(0.8944 0.4472 0)
(0.8944 0.4472 0)
(0.8944 0.4472 0)
(0.8944 0.4472 0)
(0.8944 0.4472 0)
(0.8944 0.4472 0)
(0.8944 0.4472 0)
(0.894399 0.447201 0)
(0.894399 0.4472 0)
(0.894398 0.447201 0)
(0.894398 0.447202 0)
(0.894396 0.447203 0)
(0.894395 0.447203 0)
(0.894393 0.447205 0)
(0.894391 0.447208 0)
(0.894388 0.44721 0)
(0.894384 0.447213 0)
(0.89438 0.447218 0)
(0.894376 0.447223 0)
(0.894371 0.44723 0)
(0.894365 0.447238 0)
(0.894358 0.447249 0)
(0.89435 0.447262 0)
(0.894338 0.447279 0)
(0.894321 0.447302 0)
(0.894296 0.447335 0)
(0.894255 0.447383 0)
(0.894192 0.447455 0)
(0.894096 0.447562 0)
(0.893954 0.447718 0)
(0.89375 0.447945 0)
(0.894381 0.447175 0)
(0.894381 0.447178 0)
(0.894382 0.447181 0)
(0.894384 0.447184 0)
(0.894386 0.447187 0)
(0.894389 0.44719 0)
(0.894391 0.447193 0)
(0.894393 0.447194 0)
(0.894395 0.447196 0)
(0.894396 0.447197 0)
(0.894397 0.447198 0)
(0.894398 0.447199 0)
(0.894399 0.447199 0)
(0.894399 0.447199 0)
(0.894399 0.4472 0)
(0.894399 0.4472 0)
(0.8944 0.4472 0)
(0.8944 0.4472 0)
(0.8944 0.4472 0)
(0.8944 0.4472 0)
(0.8944 0.4472 0)
(0.8944 0.4472 0)
(0.8944 0.4472 0)
(0.8944 0.4472 0)
(0.8944 0.4472 0)
(0.8944 0.4472 0)
(0.8944 0.4472 0)
(0.8944 0.4472 0)
(0.8944 0.4472 0)
(0.8944 0.4472 0)
(0.8944 0.4472 0)
(0.8944 0.4472 0)
(0.8944 0.4472 0)
(0.8944 0.4472 0)
(0.8944 0.4472 0)
(0.8944 0.4472 0)
(0.8944 0.4472 0)
(0.8944 0.4472 0)
(0.8944 0.4472 0)
(0.8944 0.4472 0)
(0.8944 0.4472 0)
(0.8944 0.4472 0)
(0.8944 0.4472 0)
(0.8944 0.4472 0)
(0.8944 0.4472 0)
(0.8944 0.4472 0)
(0.8944 0.4472 0)
(0.8944 0.4472 0)
(0.8944 0.4472 0)
(0.8944 0.4472 0)
(0.894399 0.4472 0)
(0.894399 0.447201 0)
(0.894399 0.447201 0)
(0.894398 0.447201 0)
(0.894397 0.447202 0)
(0.894396 0.447203 0)
(0.894393 0.447204 0)
(0.894392 0.447206 0)
(0.894389 0.447209 0)
(0.894385 0.447212 0)
(0.894381 0.447215 0)
(0.894377 0.447221 0)
(0.894371 0.447228 0)
(0.894364 0.447235 0)
(0.894357 0.447245 0)
(0.894348 0.447257 0)
(0.894338 0.447273 0)
(0.894321 0.447294 0)
(0.894297 0.447323 0)
(0.894261 0.447366 0)
(0.894204 0.44743 0)
(0.894116 0.447524 0)
(0.893984 0.447663 0)
(0.893791 0.447867 0)
(0.893518 0.448162 0)
(0.89438 0.447173 0)
(0.894378 0.447175 0)
(0.894379 0.447179 0)
(0.894381 0.447182 0)
(0.894384 0.447186 0)
(0.894387 0.447189 0)
(0.894389 0.447191 0)
(0.894392 0.447194 0)
(0.894394 0.447195 0)
(0.894395 0.447197 0)
(0.894397 0.447197 0)
(0.894397 0.447198 0)
(0.894398 0.447199 0)
(0.894399 0.447199 0)
(0.894399 0.4472 0)
(0.894399 0.4472 0)
(0.8944 0.4472 0)
(0.8944 0.4472 0)
(0.8944 0.4472 0)
(0.8944 0.4472 0)
(0.8944 0.4472 0)
(0.8944 0.4472 0)
(0.8944 0.4472 0)
(0.8944 0.4472 0)
(0.8944 0.4472 0)
(0.8944 0.4472 0)
(0.8944 0.4472 0)
(0.8944 0.4472 0)
(0.8944 0.4472 0)
(0.8944 0.4472 0)
(0.8944 0.4472 0)
(0.8944 0.4472 0)
(0.8944 0.4472 0)
(0.8944 0.4472 0)
(0.8944 0.4472 0)
(0.8944 0.4472 0)
(0.8944 0.4472 0)
(0.8944 0.4472 0)
(0.8944 0.4472 0)
(0.8944 0.4472 0)
(0.8944 0.4472 0)
(0.8944 0.4472 0)
(0.8944 0.4472 0)
(0.8944 0.4472 0)
(0.8944 0.4472 0)
(0.8944 0.4472 0)
(0.8944 0.4472 0)
(0.8944 0.4472 0)
(0.8944 0.4472 0)
(0.8944 0.4472 0)
(0.894399 0.4472 0)
(0.894399 0.447201 0)
(0.894398 0.447201 0)
(0.894397 0.447202 0)
(0.894396 0.447202 0)
(0.894395 0.447204 0)
(0.894392 0.447205 0)
(0.89439 0.447207 0)
(0.894387 0.44721 0)
(0.894382 0.447214 0)
(0.894377 0.447218 0)
(0.894371 0.447225 0)
(0.894365 0.447232 0)
(0.894358 0.447241 0)
(0.894348 0.447251 0)
(0.894337 0.447267 0)
(0.894322 0.447286 0)
(0.8943 0.447312 0)
(0.894267 0.447349 0)
(0.894215 0.447404 0)
(0.894137 0.447486 0)
(0.894017 0.447609 0)
(0.893838 0.44779 0)
(0.89358 0.448053 0)
(0.893218 0.44843 0)
(0.89438 0.447172 0)
(0.894377 0.447174 0)
(0.894377 0.447177 0)
(0.894379 0.44718 0)
(0.894382 0.447184 0)
(0.894385 0.447187 0)
(0.894388 0.44719 0)
(0.89439 0.447193 0)
(0.894393 0.447195 0)
(0.894394 0.447196 0)
(0.894396 0.447197 0)
(0.894397 0.447198 0)
(0.894398 0.447199 0)
(0.894398 0.447199 0)
(0.894399 0.447199 0)
(0.894399 0.4472 0)
(0.8944 0.4472 0)
(0.8944 0.4472 0)
(0.8944 0.4472 0)
(0.8944 0.4472 0)
(0.8944 0.4472 0)
(0.8944 0.4472 0)
(0.8944 0.4472 0)
(0.8944 0.4472 0)
(0.8944 0.4472 0)
(0.8944 0.4472 0)
(0.8944 0.4472 0)
(0.8944 0.4472 0)
(0.8944 0.4472 0)
(0.8944 0.4472 0)
(0.8944 0.4472 0)
(0.8944 0.4472 0)
(0.8944 0.4472 0)
(0.8944 0.4472 0)
(0.8944 0.4472 0)
(0.8944 0.4472 0)
(0.8944 0.4472 0)
(0.8944 0.4472 0)
(0.8944 0.4472 0)
(0.8944 0.4472 0)
(0.8944 0.4472 0)
(0.8944 0.4472 0)
(0.8944 0.4472 0)
(0.8944 0.4472 0)
(0.8944 0.4472 0)
(0.8944 0.4472 0)
(0.8944 0.4472 0)
(0.8944 0.4472 0)
(0.8944 0.4472 0)
(0.894399 0.4472 0)
(0.894399 0.4472 0)
(0.894399 0.447201 0)
(0.894398 0.447201 0)
(0.894397 0.447202 0)
(0.894395 0.447202 0)
(0.894394 0.447205 0)
(0.894391 0.447206 0)
(0.894388 0.447208 0)
(0.894384 0.447212 0)
(0.894379 0.447216 0)
(0.894373 0.447221 0)
(0.894366 0.447228 0)
(0.894358 0.447236 0)
(0.894349 0.447247 0)
(0.894338 0.44726 0)
(0.894323 0.447277 0)
(0.894303 0.4473 0)
(0.894274 0.447334 0)
(0.894228 0.447381 0)
(0.894157 0.447451 0)
(0.89405 0.447556 0)
(0.893889 0.447714 0)
(0.893651 0.447946 0)
(0.893311 0.448283 0)
(0.892837 0.448761 0)
(0.89438 0.447173 0)
(0.894375 0.447173 0)
(0.894374 0.447175 0)
(0.894376 0.447178 0)
(0.894379 0.447182 0)
(0.894382 0.447186 0)
(0.894386 0.447189 0)
(0.894389 0.447192 0)
(0.894391 0.447194 0)
(0.894393 0.447195 0)
(0.894395 0.447197 0)
(0.894396 0.447198 0)
(0.894397 0.447198 0)
(0.894398 0.447199 0)
(0.894399 0.447199 0)
(0.894399 0.4472 0)
(0.894399 0.447199 0)
(0.8944 0.4472 0)
(0.8944 0.4472 0)
(0.8944 0.4472 0)
(0.8944 0.4472 0)
(0.8944 0.4472 0)
(0.8944 0.4472 0)
(0.8944 0.4472 0)
(0.8944 0.4472 0)
(0.8944 0.4472 0)
(0.8944 0.4472 0)
(0.8944 0.4472 0)
(0.8944 0.4472 0)
(0.8944 0.4472 0)
(0.8944 0.4472 0)
(0.8944 0.4472 0)
(0.8944 0.4472 0)
(0.8944 0.4472 0)
(0.8944 0.4472 0)
(0.8944 0.4472 0)
(0.8944 0.4472 0)
(0.8944 0.4472 0)
(0.8944 0.4472 0)
(0.8944 0.4472 0)
(0.8944 0.4472 0)
(0.8944 0.4472 0)
(0.8944 0.4472 0)
(0.8944 0.4472 0)
(0.8944 0.4472 0)
(0.8944 0.4472 0)
(0.8944 0.4472 0)
(0.8944 0.4472 0)
(0.8944 0.4472 0)
(0.8944 0.447201 0)
(0.894399 0.447201 0)
(0.894398 0.447201 0)
(0.894397 0.447202 0)
(0.894397 0.447203 0)
(0.894394 0.447203 0)
(0.894392 0.447205 0)
(0.89439 0.447207 0)
(0.894386 0.44721 0)
(0.894381 0.447213 0)
(0.894375 0.447218 0)
(0.894369 0.447225 0)
(0.89436 0.447232 0)
(0.894351 0.447241 0)
(0.89434 0.447253 0)
(0.894326 0.447269 0)
(0.894307 0.44729 0)
(0.894279 0.447318 0)
(0.89424 0.447358 0)
(0.894179 0.447419 0)
(0.894084 0.447508 0)
(0.89394 0.447642 0)
(0.893725 0.447843 0)
(0.893412 0.448137 0)
(0.892969 0.448563 0)
(0.89236 0.449162 0)
(0.894383 0.447174 0)
(0.894375 0.447172 0)
(0.894372 0.447174 0)
(0.894373 0.447177 0)
(0.894376 0.447181 0)
(0.89438 0.447184 0)
(0.894383 0.447188 0)
(0.894387 0.447191 0)
(0.89439 0.447193 0)
(0.894392 0.447195 0)
(0.894394 0.447196 0)
(0.894396 0.447197 0)
(0.894397 0.447198 0)
(0.894398 0.447199 0)
(0.894398 0.447199 0)
(0.894399 0.4472 0)
(0.894399 0.4472 0)
(0.8944 0.4472 0)
(0.8944 0.4472 0)
(0.8944 0.4472 0)
(0.8944 0.4472 0)
(0.8944 0.4472 0)
(0.8944 0.4472 0)
(0.8944 0.4472 0)
(0.8944 0.4472 0)
(0.8944 0.4472 0)
(0.8944 0.4472 0)
(0.8944 0.4472 0)
(0.8944 0.4472 0)
(0.8944 0.4472 0)
(0.8944 0.4472 0)
(0.8944 0.4472 0)
(0.8944 0.4472 0)
(0.8944 0.4472 0)
(0.8944 0.4472 0)
(0.8944 0.4472 0)
(0.8944 0.4472 0)
(0.8944 0.4472 0)
(0.8944 0.4472 0)
(0.8944 0.4472 0)
(0.8944 0.4472 0)
(0.8944 0.4472 0)
(0.8944 0.4472 0)
(0.8944 0.4472 0)
(0.8944 0.4472 0)
(0.8944 0.4472 0)
(0.8944 0.4472 0)
(0.8944 0.4472 0)
(0.894399 0.4472 0)
(0.894399 0.447201 0)
(0.894399 0.447201 0)
(0.894398 0.447201 0)
(0.894397 0.447201 0)
(0.894396 0.447203 0)
(0.894393 0.447204 0)
(0.894391 0.447205 0)
(0.894387 0.447208 0)
(0.894383 0.447212 0)
(0.894377 0.447215 0)
(0.894371 0.44722 0)
(0.894363 0.447228 0)
(0.894354 0.447236 0)
(0.894342 0.447247 0)
(0.894329 0.447261 0)
(0.894311 0.447279 0)
(0.894287 0.447303 0)
(0.894251 0.447338 0)
(0.894198 0.447388 0)
(0.894116 0.447464 0)
(0.89399 0.447577 0)
(0.8938 0.447746 0)
(0.893518 0.447999 0)
(0.893111 0.448369 0)
(0.892542 0.4489 0)
(0.891767 0.449643 0)
(0.894388 0.447177 0)
(0.894375 0.447173 0)
(0.894371 0.447173 0)
(0.894371 0.447176 0)
(0.894373 0.447179 0)
(0.894377 0.447183 0)
(0.894381 0.447186 0)
(0.894385 0.447189 0)
(0.894388 0.447192 0)
(0.894391 0.447194 0)
(0.894393 0.447196 0)
(0.894395 0.447197 0)
(0.894396 0.447198 0)
(0.894398 0.447199 0)
(0.894398 0.447199 0)
(0.894399 0.447199 0)
(0.894399 0.4472 0)
(0.894399 0.4472 0)
(0.8944 0.4472 0)
(0.8944 0.4472 0)
(0.8944 0.4472 0)
(0.8944 0.4472 0)
(0.8944 0.4472 0)
(0.8944 0.4472 0)
(0.8944 0.4472 0)
(0.8944 0.4472 0)
(0.8944 0.4472 0)
(0.8944 0.4472 0)
(0.8944 0.4472 0)
(0.8944 0.4472 0)
(0.8944 0.4472 0)
(0.8944 0.4472 0)
(0.8944 0.4472 0)
(0.8944 0.4472 0)
(0.8944 0.4472 0)
(0.8944 0.4472 0)
(0.8944 0.4472 0)
(0.8944 0.4472 0)
(0.8944 0.4472 0)
(0.8944 0.4472 0)
(0.8944 0.4472 0)
(0.8944 0.4472 0)
(0.8944 0.4472 0)
(0.8944 0.4472 0)
(0.8944 0.4472 0)
(0.8944 0.4472 0)
(0.8944 0.4472 0)
(0.894399 0.4472 0)
(0.894399 0.4472 0)
(0.894399 0.4472 0)
(0.894398 0.447201 0)
(0.894398 0.447201 0)
(0.894396 0.447201 0)
(0.894395 0.447204 0)
(0.894392 0.447204 0)
(0.894389 0.447206 0)
(0.894385 0.447209 0)
(0.89438 0.447213 0)
(0.894374 0.447217 0)
(0.894366 0.447223 0)
(0.894357 0.447231 0)
(0.894346 0.447241 0)
(0.894332 0.447253 0)
(0.894315 0.447268 0)
(0.894293 0.44729 0)
(0.894262 0.447319 0)
(0.894216 0.447361 0)
(0.894146 0.447423 0)
(0.894037 0.447517 0)
(0.893872 0.447659 0)
(0.893623 0.447873 0)
(0.893258 0.448188 0)
(0.892737 0.448647 0)
(0.892014 0.449302 0)
(0.891041 0.450212 0)
(0.894395 0.447182 0)
(0.894378 0.447175 0)
(0.89437 0.447173 0)
(0.894369 0.447175 0)
(0.894371 0.447178 0)
(0.894374 0.447182 0)
(0.894378 0.447185 0)
(0.894382 0.447188 0)
(0.894386 0.447191 0)
(0.894389 0.447193 0)
(0.894392 0.447195 0)
(0.894394 0.447197 0)
(0.894396 0.447198 0)
(0.894397 0.447198 0)
(0.894398 0.447199 0)
(0.894399 0.447199 0)
(0.894399 0.4472 0)
(0.894399 0.4472 0)
(0.894399 0.4472 0)
(0.8944 0.4472 0)
(0.8944 0.4472 0)
(0.8944 0.4472 0)
(0.8944 0.4472 0)
(0.8944 0.4472 0)
(0.8944 0.4472 0)
(0.8944 0.4472 0)
(0.8944 0.4472 0)
(0.8944 0.4472 0)
(0.8944 0.4472 0)
(0.8944 0.4472 0)
(0.8944 0.4472 0)
(0.8944 0.4472 0)
(0.8944 0.4472 0)
(0.8944 0.4472 0)
(0.8944 0.4472 0)
(0.8944 0.4472 0)
(0.8944 0.4472 0)
(0.8944 0.4472 0)
(0.8944 0.4472 0)
(0.8944 0.4472 0)
(0.8944 0.4472 0)
(0.8944 0.4472 0)
(0.8944 0.4472 0)
(0.8944 0.4472 0)
(0.8944 0.4472 0)
(0.8944 0.4472 0)
(0.8944 0.4472 0)
(0.8944 0.447201 0)
(0.894399 0.4472 0)
(0.894399 0.4472 0)
(0.894398 0.447202 0)
(0.894397 0.447201 0)
(0.894395 0.447202 0)
(0.894394 0.447204 0)
(0.894391 0.447205 0)
(0.894387 0.447207 0)
(0.894382 0.44721 0)
(0.894377 0.447214 0)
(0.89437 0.44722 0)
(0.894361 0.447226 0)
(0.89435 0.447234 0)
(0.894337 0.447245 0)
(0.894321 0.447259 0)
(0.894301 0.447277 0)
(0.894273 0.447302 0)
(0.894232 0.447337 0)
(0.894173 0.447389 0)
(0.894081 0.447465 0)
(0.893939 0.447581 0)
(0.893724 0.447758 0)
(0.893403 0.448023 0)
(0.892937 0.448412 0)
(0.892276 0.448978 0)
(0.891368 0.449776 0)
(0.890161 0.450877 0)
(0.894406 0.44719 0)
(0.894382 0.447178 0)
(0.894371 0.447174 0)
(0.894367 0.447174 0)
(0.894368 0.447177 0)
(0.894371 0.44718 0)
(0.894376 0.447184 0)
(0.89438 0.447187 0)
(0.894384 0.44719 0)
(0.894388 0.447193 0)
(0.894391 0.447195 0)
(0.894393 0.447196 0)
(0.894395 0.447197 0)
(0.894396 0.447198 0)
(0.894398 0.447199 0)
(0.894398 0.447199 0)
(0.894399 0.447199 0)
(0.894399 0.4472 0)
(0.894399 0.4472 0)
(0.8944 0.4472 0)
(0.8944 0.4472 0)
(0.8944 0.4472 0)
(0.8944 0.4472 0)
(0.8944 0.4472 0)
(0.8944 0.4472 0)
(0.8944 0.4472 0)
(0.8944 0.4472 0)
(0.8944 0.4472 0)
(0.8944 0.4472 0)
(0.8944 0.4472 0)
(0.8944 0.4472 0)
(0.8944 0.4472 0)
(0.8944 0.4472 0)
(0.8944 0.4472 0)
(0.8944 0.4472 0)
(0.8944 0.4472 0)
(0.8944 0.4472 0)
(0.8944 0.4472 0)
(0.8944 0.4472 0)
(0.8944 0.4472 0)
(0.8944 0.4472 0)
(0.8944 0.4472 0)
(0.8944 0.4472 0)
(0.8944 0.4472 0)
(0.8944 0.4472 0)
(0.8944 0.4472 0)
(0.8944 0.4472 0)
(0.8944 0.447201 0)
(0.894399 0.4472 0)
(0.894398 0.4472 0)
(0.894398 0.447201 0)
(0.894397 0.447202 0)
(0.894395 0.447202 0)
(0.894392 0.447204 0)
(0.894389 0.447205 0)
(0.894386 0.447208 0)
(0.89438 0.447211 0)
(0.894373 0.447215 0)
(0.894365 0.447222 0)
(0.894355 0.447229 0)
(0.894342 0.447238 0)
(0.894327 0.44725 0)
(0.894308 0.447266 0)
(0.894284 0.447286 0)
(0.894249 0.447316 0)
(0.894197 0.447357 0)
(0.89412 0.44742 0)
(0.894001 0.447514 0)
(0.893818 0.447657 0)
(0.893541 0.447874 0)
(0.893132 0.4482 0)
(0.892542 0.448677 0)
(0.891714 0.449365 0)
(0.890588 0.450329 0)
(0.889111 0.451644 0)
(0.894422 0.4472 0)
(0.89439 0.447183 0)
(0.894373 0.447176 0)
(0.894367 0.447175 0)
(0.894366 0.447176 0)
(0.894369 0.447179 0)
(0.894373 0.447183 0)
(0.894378 0.447187 0)
(0.894382 0.44719 0)
(0.894386 0.447192 0)
(0.894389 0.447194 0)
(0.894392 0.447196 0)
(0.894394 0.447197 0)
(0.894396 0.447198 0)
(0.894397 0.447199 0)
(0.894398 0.447199 0)
(0.894398 0.447199 0)
(0.894399 0.4472 0)
(0.894399 0.4472 0)
(0.8944 0.4472 0)
(0.8944 0.4472 0)
(0.8944 0.4472 0)
(0.8944 0.4472 0)
(0.8944 0.4472 0)
(0.8944 0.4472 0)
(0.8944 0.4472 0)
(0.8944 0.4472 0)
(0.8944 0.4472 0)
(0.8944 0.4472 0)
(0.8944 0.4472 0)
(0.8944 0.4472 0)
(0.8944 0.4472 0)
(0.8944 0.4472 0)
(0.8944 0.4472 0)
(0.8944 0.4472 0)
(0.8944 0.4472 0)
(0.8944 0.4472 0)
(0.8944 0.4472 0)
(0.8944 0.4472 0)
(0.8944 0.4472 0)
(0.8944 0.4472 0)
(0.8944 0.4472 0)
(0.8944 0.4472 0)
(0.8944 0.4472 0)
(0.8944 0.4472 0)
(0.8944 0.4472 0)
(0.894399 0.4472 0)
(0.8944 0.447201 0)
(0.894399 0.4472 0)
(0.894398 0.447201 0)
(0.894397 0.447201 0)
(0.894396 0.447202 0)
(0.894394 0.447203 0)
(0.894391 0.447204 0)
(0.894387 0.447206 0)
(0.894383 0.447209 0)
(0.894377 0.447213 0)
(0.894369 0.447217 0)
(0.89436 0.447224 0)
(0.894348 0.447231 0)
(0.894334 0.447242 0)
(0.894316 0.447255 0)
(0.894294 0.447273 0)
(0.894263 0.447296 0)
(0.89422 0.447331 0)
(0.894155 0.44738 0)
(0.894055 0.447456 0)
(0.893903 0.447571 0)
(0.893669 0.447746 0)
(0.893317 0.448011 0)
(0.8928 0.448408 0)
(0.892062 0.448986 0)
(0.891037 0.449814 0)
(0.889658 0.450965 0)
(0.887873 0.452516 0)
(0.894443 0.447214 0)
(0.8944 0.447191 0)
(0.894377 0.447179 0)
(0.894367 0.447176 0)
(0.894364 0.447176 0)
(0.894366 0.447179 0)
(0.89437 0.447182 0)
(0.894375 0.447186 0)
(0.89438 0.447189 0)
(0.894384 0.447191 0)
(0.894388 0.447194 0)
(0.894391 0.447195 0)
(0.894394 0.447197 0)
(0.894395 0.447198 0)
(0.894397 0.447198 0)
(0.894398 0.447199 0)
(0.894398 0.447199 0)
(0.894399 0.4472 0)
(0.894399 0.4472 0)
(0.8944 0.4472 0)
(0.8944 0.4472 0)
(0.8944 0.4472 0)
(0.8944 0.4472 0)
(0.8944 0.4472 0)
(0.8944 0.4472 0)
(0.8944 0.4472 0)
(0.8944 0.4472 0)
(0.8944 0.4472 0)
(0.8944 0.4472 0)
(0.8944 0.4472 0)
(0.8944 0.4472 0)
(0.8944 0.4472 0)
(0.8944 0.4472 0)
(0.8944 0.4472 0)
(0.8944 0.4472 0)
(0.8944 0.4472 0)
(0.8944 0.4472 0)
(0.8944 0.4472 0)
(0.8944 0.4472 0)
(0.8944 0.4472 0)
(0.8944 0.4472 0)
(0.8944 0.4472 0)
(0.8944 0.4472 0)
(0.8944 0.4472 0)
(0.894399 0.4472 0)
(0.8944 0.4472 0)