/*--------------------------------*- C++ -*----------------------------------*\
  =========                 |
  \\      /  F ield         | OpenFOAM: The Open Source CFD Toolbox
   \\    /   O peration     | Website:  https://openfoam.org
    \\  /    A nd           | Version:  6
     \\/     M anipulation  |
\*---------------------------------------------------------------------------*/
FoamFile
{
    version     2.0;
    format      ascii;
    class       volScalarField;
    location    "1.9";
    object      epsilon;
}
// * * * * * * * * * * * * * * * * * * * * * * * * * * * * * * * * * * * * * //

dimensions      [0 2 -3 0 0 0 0];

internalField   nonuniform List<scalar> 
4214
(
0.0993809
0.0423401
0.0220969
0.0144926
0.0117022
0.0110593
0.0117534
0.0138109
0.0178544
0.0252498
0.03862
0.0629191
0.107408
0.188706
0.333594
0.57649
0.91553
1.17214
1.05934
0.565891
0.407446
0.359752
0.338737
0.31464
0.282358
0.242642
0.199099
0.155814
0.116694
0.084063
0.0586653
0.0402195
0.0277016
0.0198372
0.0154433
0.0136195
0.0140502
0.0174862
0.0270127
0.0520828
0.122361
0.0299094
0.0175694
0.0127627
0.0109187
0.0104345
0.0108095
0.0120593
0.0145716
0.0191838
0.0274751
0.0423896
0.0694614
0.119048
0.20984
0.372717
0.64724
1.02392
1.29819
1.18401
0.650268
0.480414
0.435507
0.415643
0.38954
0.353656
0.308413
0.257466
0.205132
0.155924
0.113278
0.079027
0.053449
0.0356895
0.0242729
0.017554
0.0140734
0.012783
0.013225
0.0158344
0.0227472
0.040282
0.01553
0.012022
0.0106257
0.010199
0.0103703
0.0111241
0.0126958
0.0156093
0.0208387
0.0301588
0.0468517
0.0770757
0.132381
0.233752
0.416374
0.724805
1.14033
1.42981
1.31954
0.744699
0.56446
0.527204
0.511702
0.485129
0.445069
0.394002
0.335311
0.272925
0.211671
0.156158
0.109698
0.0737737
0.048126
0.0312737
0.0211493
0.015663
0.0130895
0.0122645
0.0126767
0.0145967
0.0195535
0.0117205
0.0105859
0.0101868
0.0102319
0.0106829
0.0116761
0.0135419
0.0168963
0.0228422
0.0333673
0.052131
0.0859831
0.14777
0.260999
0.465749
0.81268
1.27586
1.59175
1.49421
0.884129
0.67542
0.646072
0.636956
0.610627
0.5661
0.508078
0.440497
0.366653
0.291013
0.219107
0.156023
0.105178
0.0676406
0.0423528
0.0269013
0.0184149
0.0142829
0.0125594
0.0120851
0.0124315
0.0138308
0.0106163
0.0102769
0.0102644
0.0105401
0.011183
0.0124021
0.0145953
0.0184691
0.0252687
0.0372236
0.0584164
0.0964496
0.165551
0.291925
0.520902
0.909529
1.42581
1.77508
1.68998
1.07105
0.810098
0.79315
0.796955
0.774439
0.726248
0.660147
0.582239
0.495561
0.403365
0.311309
0.226143
0.154045
0.0986079
0.0600975
0.0360819
0.022759
0.0162455
0.0134397
0.012362
0.0120718
0.0123294
0.0104618
0.0104259
0.0105972
0.0110246
0.0118425
0.0133104
0.0158916
0.0203922
0.0282221
0.0418894
0.0659503
0.108823
0.186188
0.327049
0.582107
1.01521
1.59142
1.98756
1.92165
1.31902
0.977376
0.975749
1.00249
0.991059
0.942168
0.867409
0.77651
0.674011
0.562284
0.445827
0.332027
0.230262
0.148176
0.0889569
0.051038
0.0297151
0.019296
0.0148513
0.0131001
0.0124195
0.012246
0.0106993
0.0108019
0.01109
0.0116537
0.0126652
0.0144315
0.0174885
0.0227597
0.0318498
0.0475887
0.0750639
0.123568
0.21028
0.36697
0.649476
1.12848
1.77049
2.23209
2.19584
1.63855
1.18328
1.19578
1.26104
1.27501
1.23498
1.15496
1.04975
0.924645
0.787362
0.640927
0.490719
0.348658
0.22773
0.1364
0.075872
0.0411321
0.0240924
0.0169303
0.0141877
0.0131101
0.0126971
0.0111317
0.0113186
0.0117126
0.0124306
0.0136796
0.0158194
0.0194732
0.0257068
0.0363595
0.0546355
0.0862175
0.14133
0.238648
0.412521
0.723242
1.24786
1.96026
2.51145
2.52432
2.02993
1.44682
1.44796
1.57194
1.63592
1.62598
1.55312
1.43544
1.28678
1.11114
0.924392
0.727045
0.531193
0.355021
0.214787
0.117744
0.0603801
0.0319087
0.0200512
0.0156713
0.0140399
0.0134131
0.0116782
0.0119472
0.012469
0.0133845
0.0149392
0.0175581
0.0219747
0.0294317
0.0420541
0.063484
0.100072
0.163021
0.272454
0.464919
0.803985
1.37183
2.15656
2.82397
2.91827
2.47416
1.80463
1.71395
1.91568
2.06762
2.13247
2.10444
1.9906
1.81162
1.59158
1.34438
1.08025
0.810937
0.557209
0.344036
0.188929
0.0935325
0.045123
0.0249577
0.0177288
0.0152067
0.0143013
0.0123201
0.0126995
0.0133948
0.0145731
0.0165303
0.0197756
0.0251875
0.034231
0.0493866
0.0748093
0.117606
0.189985
0.313413
0.526067
0.893196
1.50014
2.3543
3.15829
3.38354
2.98026
2.26959
1.97264
2.24897
2.54109
2.75568
2.85284
2.80262
2.61665
2.33264
1.99043
1.62037
1.24194
0.876487
0.555635
0.309912
0.151413
0.0681538
0.0330727
0.0207395
0.0166928
0.0153703
0.013081
0.0136218
0.0145578
0.0160903
0.0185863
0.0226681
0.0294116
0.040563
0.0590556
0.0896423
0.1403
0.224249
0.364149
0.59907
0.99404
1.63464
2.54741
3.49099
3.90613
3.57021
2.82797
2.25533
2.51146
2.99754
3.44757
3.77896
3.90608
3.79566
3.4818
3.01819
2.47911
1.92302
1.38466
0.900217
0.514027
0.252717
0.109086
0.0470738
0.0254338
0.0186609
0.0166592
0.0140259
0.0147985
0.0160672
0.0180802
0.021314
0.0265438
0.0351258
0.0491557
0.0721691
0.109591
0.170444
0.268894
0.428658
0.688766
1.11185
1.77988
2.7333
3.79509
4.44149
4.2568
3.48784
2.68036
2.62121
3.3937
4.21175
4.86991
5.26848
5.37419
5.15738
4.62483
3.87398
3.03225
2.20842
1.4657
0.856424
0.428597
0.182393
0.0720168
0.0332663
0.0214776
0.0183353
0.0152577
0.0163598
0.0180894
0.0207649
0.0250475
0.0319053
0.0431255
0.0611967
0.0905271
0.137192
0.211613
0.328594
0.51293
0.802298
1.25478
1.94496
2.91971
4.05756
4.9289
4.99815
4.28137
3.32679
2.74947
3.10751
4.32306
5.62791
6.72918
7.33296
7.32079
6.87411
6.01418
4.83652
3.56437
2.39398
1.43
0.73005
0.312942
0.11721
0.0470522
0.0257881
0.0207133
0.0169623
0.018508
0.0208852
0.0244995
0.0303606
0.0396076
0.0547947
0.0786658
0.117138
0.176467
0.26944
0.410345
0.625859
0.950054
1.43542
2.14533
3.12238
4.28274
5.31047
5.6845
5.16202
4.18201
3.33772
3.07544
3.81234
5.47928
7.23632
8.72917
9.61196
9.60945
8.8109
7.46792
5.72308
3.91886
2.37656
1.24134
0.541344
0.199111
0.0723325
0.0327231
0.0243663
0.0194109
0.0215188
0.0248813
0.0298784
0.0383285
0.0511497
0.0726819
0.104882
0.157206
0.233696
0.352953
0.524316
0.780693
1.14666
1.67153
2.4014
3.36257
4.49066
5.56551
6.17147
5.95955
5.0601
4.08176
3.47566
3.58164
4.83055
6.95244
9.11243
10.8736
11.8669
11.8495
10.6487
8.66799
6.23405
3.90699
2.08767
0.933598
0.344297
0.120419
0.0441672
0.0302783
0.0229373
0.0257258
0.0309135
0.0379325
0.0512152
0.0691093
0.101836
0.145127
0.220252
0.317991
0.477298
0.683974
0.997691
1.41033
1.98564
2.7353
3.66209
4.71615
5.71984
6.3869
6.39505
5.67579
4.68475
3.97285
3.76492
4.42939
6.34351
8.91629
11.3256
13.1521
14.1031
13.7566
11.9946
9.19105
6.11275
3.39807
1.5978
0.594766
0.218424
0.063238
0.0403075
0.0280823
0.0314392
0.0412491
0.0501962
0.0746583
0.0969884
0.153656
0.205694
0.325896
0.438646
0.671334
0.901226
1.3126
1.75533
2.40842
3.16245
4.03246
4.99239
5.80125
6.42478
6.55939
6.03689
5.08485
4.29675
3.98471
4.33771
5.90085
8.36442
11.3671
13.5783
15.8024
16.0657
15.5173
12.3158
8.94827
5.15643
2.78835
1.00022
0.456328
0.0945181
0.0600775
0.0355137
0.0288768
0.0238718
0.0205604
0.0184308
0.0169485
0.0157899
0.014797
0.0139107
0.0131568
0.012587
0.0124251
0.0132879
0.0173366
0.0319708
0.087699
0.342691
0.030633
0.0256284
0.0222424
0.0199389
0.0183492
0.0171471
0.0161444
0.0152474
0.0144285
0.0136959
0.0131249
0.0129181
0.0137044
0.0178742
0.0341118
0.0988376
0.365248
0.0264935
0.0236607
0.0213966
0.01971
0.0184491
0.0174258
0.0165291
0.0157031
0.0149333
0.014236
0.0136731
0.0134305
0.0141132
0.0181644
0.035119
0.106017
0.391337
0.0251529
0.0228273
0.0210892
0.0197482
0.018683
0.0177739
0.0169524
0.0161832
0.0154564
0.01479
0.0142432
0.0139755
0.0145426
0.0182822
0.0351386
0.109708
0.422084
0.023965
0.0223978
0.0210602
0.0199516
0.0190124
0.0181798
0.0174119
0.0166858
0.0159961
0.0153622
0.0148378
0.0145613
0.0150225
0.0183435
0.0343326
0.110695
0.455736
0.02375
0.0223866
0.0212467
0.0202785
0.0194195
0.0186371
0.0179074
0.0172155
0.0165589
0.0159581
0.0154628
0.0151961
0.0155865
0.0184875
0.0331604
0.109422
0.491048
0.0236103
0.0225332
0.0215573
0.0206877
0.0198883
0.0191409
0.0184393
0.0177752
0.01715
0.016585
0.0161268
0.0158914
0.0162603
0.0188358
0.0321063
0.106574
0.527882
0.0238273
0.0228638
0.0219761
0.0211664
0.0204106
0.0196889
0.0190091
0.0183695
0.0177758
0.0172507
0.01684
0.0166592
0.0170639
0.0194656
0.0315335
0.103629
0.567172
0.0241545
0.0232821
0.0224661
0.0217025
0.0209769
0.0202807
0.0196197
0.0190042
0.0184445
0.0179652
0.0176149
0.0175152
0.0180175
0.0204139
0.0315853
0.10125
0.610307
0.0245626
0.0237872
0.0230231
0.022293
0.0215896
0.020915
0.0202763
0.0196873
0.0191666
0.0187421
0.0184681
0.0184809
0.0191482
0.0217139
0.032421
0.100054
0.658545
0.0251448
0.0243705
0.023638
0.0229347
0.0222513
0.0215957
0.0209841
0.0204289
0.0199555
0.0195983
0.0194221
0.0195841
0.0204903
0.0233955
0.0340996
0.100396
0.712721
0.0256596
0.0249933
0.0243058
0.0236293
0.0229665
0.022333
0.0217508
0.0212405
0.0208276
0.0205547
0.0205042
0.0208602
0.022085
0.0254891
0.0365845
0.102104
0.773175
0.0264214
0.0257096
0.0250364
0.0243814
0.0237414
0.0231359
0.0225917
0.0221356
0.0218007
0.0216363
0.0217464
0.0223512
0.0239875
0.0280541
0.039961
0.106029
0.839858
0.0270199
0.026439
0.0258173
0.0251941
0.0245841
0.0240155
0.0235211
0.0231343
0.0228964
0.0228706
0.023184
0.0241017
0.0262508
0.0311448
0.0443298
0.112614
0.912191
0.0279412
0.027288
0.026675
0.0260784
0.0255048
0.0249843
0.0245543
0.024255
0.0241385
0.024285
0.0248538
0.0261593
0.0289258
0.0348089
0.0497079
0.12211
0.988811
0.02863
0.0281346
0.0275865
0.0270364
0.0265128
0.0260549
0.0257061
0.0255152
0.0255472
0.0259032
0.0267815
0.0285548
0.0320604
0.0391027
0.0561899
0.135104
1.06766
0.0297119
0.0291284
0.0285927
0.0280836
0.0276197
0.0272395
0.0269902
0.0269297
0.0271379
0.0277433
0.0289861
0.031302
0.0356443
0.0440024
0.0636635
0.151855
1.14726
0.0305123
0.0301127
0.0296595
0.0292194
0.0288334
0.0285478
0.0284165
0.0285074
0.0289198
0.0298135
0.0314719
0.0344
0.0396663
0.0494615
0.071904
0.170343
1.22761
0.0317596
0.031265
0.0308372
0.030461
0.0301635
0.0299878
0.029991
0.0302521
0.0308938
0.0321078
0.0342254
0.0378228
0.0440815
0.0554018
0.0808213
0.190425
1.30729
0.0327001
0.0324112
0.032086
0.0318042
0.0316139
0.0315636
0.0317152
0.0321624
0.033051
0.0346081
0.0372147
0.0415192
0.048815
0.061717
0.0902502
0.21167
1.38302
0.0341145
0.0337337
0.0334556
0.0332655
0.0331927
0.0332791
0.03359
0.0342329
0.035378
0.0372882
0.0403946
0.0454175
0.0537595
0.0682552
0.0999336
0.233178
1.44974
0.0352246
0.0350625
0.0349085
0.0348421
0.0349045
0.0351389
0.0356168
0.0364599
0.0378615
0.0401203
0.0437158
0.0494413
0.0588005
0.0748592
0.109611
0.254438
1.50709
0.036801
0.0365642
0.0364922
0.036553
0.0367615
0.0371527
0.0378024
0.0388452
0.040496
0.0430857
0.0471387
0.0535167
0.0638141
0.0813397
0.118961
0.274577
1.55073
0.0381
0.0380959
0.0381839
0.0384055
0.0387776
0.039336
0.040162
0.0414031
0.0432915
0.0461852
0.0506472
0.0575985
0.0687126
0.0875294
0.127608
0.292261
1.582
0.0398308
0.039802
0.0400312
0.0404253
0.0409755
0.041713
0.042723
0.0441632
0.0462789
0.0494484
0.054264
0.0616938
0.0734824
0.0933583
0.135349
0.306004
1.60668
0.0413328
0.0415828
0.0420298
0.042631
0.0433816
0.0443163
0.0455254
0.0471729
0.0495143
0.052941
0.0580655
0.0658907
0.0782213
0.0989362
0.142285
0.315211
1.62509
0.0432216
0.0435548
0.0442223
0.0450525
0.0460292
0.0471881
0.0486226
0.0504999
0.0530828
0.0567707
0.0621887
0.0703627
0.0831442
0.104529
0.148776
0.320879
1.64104
0.044959
0.0456584
0.0466152
0.0477148
0.0489558
0.0503793
0.0520811
0.0542295
0.0570915
0.0610729
0.0668049
0.0753263
0.0885223
0.110477
0.155298
0.324098
1.65457
0.0470382
0.0479745
0.0492398
0.0506482
0.0522031
0.0539478
0.0559778
0.0584616
0.0616669
0.0660062
0.0721131
0.0810316
0.0946667
0.117166
0.16238
0.3262
1.66299
0.0490611
0.0504666
0.0521035
0.0538795
0.0558154
0.0579573
0.0603996
0.0633092
0.0669552
0.071753
0.0783414
0.0877621
0.101926
0.125012
0.170554
0.328387
1.66129
0.0513765
0.0531762
0.0552249
0.0574365
0.0598383
0.0624765
0.0654427
0.0689022
0.0731254
0.0785306
0.0857607
0.0958549
0.110714
0.134511
0.180403
0.331663
1.64321
0.0537393
0.0560768
0.0586102
0.0613445
0.064318
0.0675781
0.0712144
0.0753901
0.0803783
0.0866027
0.094708
0.105736
0.121568
0.146322
0.192681
0.336956
1.60241
0.0563251
0.0591787
0.0622699
0.0656285
0.0693012
0.0733397
0.0778338
0.0829465
0.0889558
0.0962951
0.105619
0.117969
0.135219
0.161388
0.208534
0.345523
1.53496
0.0590633
0.0624657
0.0662094
0.0703117
0.0748353
0.0798433
0.0854331
0.0917735
0.0991521
0.108021
0.119059
0.133328
0.152699
0.181092
0.229781
0.359533
1.44134
0.0619945
0.0659388
0.0704365
0.0754177
0.0809692
0.0871772
0.0941601
0.102106
0.111326
0.122307
0.135781
0.152871
0.175485
0.207478
0.259267
0.382838
1.32683
0.0651229
0.069625
0.0749589
0.0809737
0.0877577
0.0954399
0.104183
0.114221
0.125916
0.139827
0.156788
0.17806
0.205697
0.243576
0.301333
0.421617
1.19921
0.0683946
0.0736301
0.0797907
0.0870178
0.0952699
0.104752
0.115705
0.128455
0.143473
0.161457
0.18344
0.210959
0.246407
0.293996
0.362713
0.485432
1.06701
0.0718185
0.0779293
0.0850419
0.0936046
0.1036
0.115269
0.128986
0.14524
0.164712
0.188369
0.217619
0.254558
0.302258
0.365855
0.454618
0.588829
0.939646
0.0754011
0.082501
0.0908625
0.100805
0.112877
0.127204
0.144379
0.165156
0.190594
0.222183
0.26201
0.313248
0.380648
0.470431
0.59393
0.760303
0.827974
0.0791596
0.0873733
0.0971721
0.108957
0.12326
0.140878
0.162399
0.189054
0.222528
0.265272
0.320824
0.393655
0.491497
0.626193
0.815888
1.06969
0.731296
0.108713
0.114427
0.121157
0.127342
0.134135
0.140841
0.147255
0.153355
0.15903
0.164164
0.168651
0.1724
0.175339
0.177421
0.178618
0.178935
0.178391
0.177036
0.174917
0.172051
0.167952
0.162927
0.158673
0.154245
0.14967
0.144998
0.14028
0.135559
0.130871
0.126248
0.121712
0.117284
0.112972
0.108785
0.104726
0.100801
0.0970071
0.0933472
0.089815
0.0864069
0.0831112
0.121382
0.128715
0.136301
0.143996
0.151796
0.15931
0.166434
0.173166
0.179383
0.184954
0.189769
0.193727
0.196756
0.198806
0.19986
0.199923
0.199035
0.197252
0.194644
0.191241
0.186537
0.180907
0.176046
0.171011
0.165834
0.160573
0.155284
0.150012
0.144799
0.139675
0.134668
0.129794
0.125063
0.120479
0.116048
0.11177
0.107646
0.103673
0.0998452
0.0961545
0.0925872
0.137721
0.146302
0.155093
0.164031
0.17278
0.181074
0.189023
0.196482
0.203314
0.209382
0.214559
0.218742
0.221853
0.223847
0.224709
0.224461
0.223151
0.220857
0.217665
0.213628
0.208224
0.201895
0.19633
0.190591
0.18472
0.178781
0.172837
0.166938
0.161127
0.155439
0.1499
0.144527
0.139328
0.134305
0.129464
0.124804
0.120323
0.116017
0.111877
0.107892
0.104045
0.15767
0.167729
0.177962
0.187939
0.197572
0.206922
0.215828
0.224127
0.231662
0.238289
0.243868
0.248288
0.25147
0.25337
0.253984
0.253346
0.251525
0.248616
0.244729
0.239941
0.233724
0.226584
0.220197
0.21364
0.206965
0.200244
0.193548
0.186929
0.180437
0.174107
0.167968
0.162035
0.156314
0.150805
0.145514
0.140439
0.135575
0.130915
0.126449
0.122163
0.118033
0.18272
0.19395
0.205149
0.216317
0.227285
0.237871
0.247889
0.257156
0.265496
0.272751
0.278773
0.283441
0.286673
0.288432
0.288725
0.287605
0.28516
0.281512
0.276797
0.27112
0.263954
0.255868
0.248521
0.24101
0.233399
0.225772
0.218206
0.210761
0.203488
0.196427
0.189608
0.183045
0.176739
0.170693
0.164909
0.159383
0.15411
0.149079
0.144277
0.139687
0.135278
0.212177
0.224934
0.237817
0.250639
0.263184
0.275226
0.286546
0.296935
0.306198
0.314162
0.320669
0.325591
0.328845
0.330402
0.330283
0.328565
0.325363
0.320826
0.315121
0.308388
0.300111
0.290921
0.282447
0.273818
0.265115
0.256435
0.24786
0.239461
0.231291
0.223396
0.215804
0.208528
0.201568
0.194925
0.1886
0.182588
0.176881
0.171465
0.166323
0.161434
0.156754
0.248134
0.262843
0.277697
0.292473
0.306892
0.320668
0.333528
0.345228
0.355558
0.364328
0.371369
0.376549
0.379788
0.381064
0.380424
0.377969
0.373847
0.368242
0.361355
0.353366
0.343786
0.333301
0.323499
0.313558
0.303576
0.293666
0.283919
0.274414
0.265211
0.256357
0.247883
0.239801
0.232106
0.224801
0.217885
0.211352
0.20519
0.199382
0.193904
0.188728
0.183795
0.292504
0.309561
0.326763
0.343859
0.360516
0.376374
0.391081
0.404339
0.415918
0.425617
0.433254
0.438698
0.441876
0.442782
0.441487
0.438129
0.432894
0.426007
0.41771
0.408226
0.397112
0.385106
0.373737
0.362252
0.350771
0.339421
0.328306
0.317515
0.307116
0.29716
0.287677
0.278679
0.27016
0.262122
0.254563
0.247476
0.240846
0.234647
0.228849
0.223411
0.218255
0.347611
0.367572
0.387637
0.40753
0.42687
0.445232
0.462174
0.477312
0.490378
0.501166
0.509487
0.51521
0.518279
0.518709
0.516607
0.512154
0.50558
0.49716
0.487184
0.475927
0.463009
0.449212
0.435994
0.422691
0.409447
0.396409
0.383695
0.371408
0.359623
0.348395
0.337757
0.327721
0.318278
0.309433
0.301182
0.293516
0.286414
0.279843
0.273757
0.268104
0.262775
0.416791
0.44036
0.463955
0.487256
0.509832
0.5312
0.550837
0.568255
0.583114
0.595203
0.604326
0.610362
0.613279
0.613124
0.610049
0.604284
0.596117
0.585879
0.573918
0.560567
0.545531
0.529632
0.514239
0.498798
0.483485
0.46847
0.453888
0.439861
0.426469
0.413775
0.401816
0.390606
0.380136
0.370409
0.361424
0.353169
0.345615
0.338713
0.332403
0.326617
0.321206
0.505112
0.533093
0.561004
0.588444
0.614912
0.639861
0.662707
0.682862
0.699882
0.71353
0.723613
0.730022
0.73276
0.731918
0.727698
0.720397
0.710367
0.698005
0.683724
0.667927
0.65043
0.632081
0.614145
0.596208
0.578483
0.561164
0.544413
0.528369
0.513125
0.498751
0.485293
0.472768
0.461167
0.450497
0.440758
0.431933
0.423979
0.416831
0.410412
0.404631
0.399299
0.620457
0.653696
0.686751
0.719108
0.750173
0.779315
0.805888
0.829237
0.848803
0.864297
0.875522
0.882391
0.884949
0.88334
0.877831
0.868788
0.856641
0.84186
0.824935
0.806341
0.786036
0.76488
0.744027
0.723223
0.702725
0.682761
0.663524
0.645176
0.627825
0.611556
0.596424
0.582454
0.569643
0.558002
0.547533
0.538209
0.52997
0.522732
0.516401
0.510863
0.505877
0.775348
0.81463
0.853561
0.891512
0.927779
0.961628
0.992344
1.01923
1.04164
1.05922
1.07175
1.07918
1.08159
1.07918
1.07231
1.0614
1.04697
1.02957
1.00976
0.988104
0.964723
0.940473
0.916392
0.892408
0.86883
0.845927
0.823932
0.803032
0.783362
0.765027
0.748097
0.73261
0.718577
0.706013
0.694921
0.685261
0.676955
0.669903
0.663991
0.659073
0.65485
0.990274
1.03606
1.0812
1.125
1.16665
1.20532
1.24022
1.27064
1.2959
1.31558
1.32946
1.33749
1.33981
1.33669
1.32852
1.31582
1.29917
1.2792
1.25655
1.23184
1.20538
1.17801
1.15064
1.1234
1.09666
1.07073
1.0459
1.02238
1.00035
0.97994
0.961246
0.944329
0.92922
0.915943
0.904497
0.89483
0.88685
0.88044
0.875461
0.871733
0.868864
1.30014
1.35184
1.40238
1.45113
1.49721
1.53973
1.57789
1.61097
1.63836
1.65961
1.6745
1.683
1.68529
1.68167
1.67259
1.65861
1.64035
1.61847
1.59367
1.56662
1.53778
1.50795
1.47794
1.44804
1.41868
1.39025
1.36306
1.33739
1.31345
1.29141
1.27141
1.25353
1.23785
1.2244
1.21317
1.20411
1.1971
1.19203
1.18871
1.18693
1.18612
1.76736
1.82151
1.87367
1.92355
1.9703
2.01313
2.0513
2.0842
2.11133
2.13231
2.14698
2.15534
2.15755
2.15393
2.14494
2.13108
2.11295
2.0912
2.06646
2.03942
2.01058
1.98068
1.9504
1.92016
1.89041
1.86158
1.83403
1.80806
1.78394
1.76189
1.74209
1.72466
1.70971
1.69729
1.68739
1.67996
1.67489
1.67202
1.67115
1.67203
1.67371
2.51041
2.55574
2.59797
2.63784
2.67479
2.7083
2.73792
2.76325
2.78403
2.80006
2.81127
2.81768
2.81944
2.81678
2.81002
2.79954
2.78575
2.76911
2.75008
2.72914
2.7067
2.6833
2.65944
2.63548
2.61183
2.58883
2.56682
2.54608
2.52689
2.50947
2.49402
2.48068
2.46956
2.46073
2.45418
2.44988
2.44772
2.44755
2.44916
2.45228
2.45522
0.276789
0.0637849
0.0244206
0.0144433
0.0114977
0.0107358
0.0107471
0.0110852
0.011575
0.0121524
0.012811
0.0135992
0.0145884
0.0159288
0.0178976
0.0207753
0.0243789
0.288435
0.0741338
0.0269665
0.0152263
0.0119522
0.0111687
0.0111951
0.0115362
0.012017
0.0125763
0.0132024
0.0139245
0.0147816
0.0158743
0.0174068
0.0196978
0.0230909
0.306609
0.0829184
0.0290984
0.0158753
0.012414
0.0116423
0.0116828
0.0120215
0.0124907
0.0130326
0.0136321
0.0143042
0.0150638
0.0159766
0.0171645
0.0188381
0.0215493
0.33349
0.0906461
0.0307701
0.0164326
0.0129051
0.0121607
0.01221
0.0125411
0.0129959
0.0135203
0.014097
0.0147301
0.0154183
0.0162085
0.0171661
0.0183446
0.0197322
0.368522
0.0970011
0.0318751
0.0169306
0.013446
0.012733
0.0127816
0.0130988
0.0135362
0.0140425
0.0145991
0.0152006
0.0158362
0.0165434
0.0173708
0.0183818
0.0196084
0.410435
0.102103
0.03254
0.0174437
0.0140617
0.0133673
0.0134024
0.0136989
0.0141155
0.0146025
0.0151404
0.0157153
0.0163115
0.0169566
0.0176822
0.0185404
0.0196159
0.457821
0.105985
0.0329351
0.018042
0.0147735
0.0140732
0.0140797
0.0143479
0.0147395
0.0152053
0.0157247
0.0162757
0.0168432
0.0174436
0.0180944
0.0188204
0.0196748
0.509781
0.108855
0.0332785
0.0187964
0.0156034
0.0148618
0.0148225
0.0150535
0.0154152
0.0158568
0.0163563
0.0168844
0.0174304
0.0180007
0.0186061
0.0192556
0.0199506
0.566251
0.111156
0.0338031
0.0197715
0.0165751
0.0157478
0.0156421
0.0158254
0.016151
0.0165641
0.017039
0.0175449
0.0180717
0.0186184
0.0191944
0.0198079
0.0204221
0.627845
0.113286
0.0347015
0.0210246
0.0177154
0.01675
0.0165529
0.0166752
0.0169567
0.0173357
0.0177796
0.0182633
0.0187714
0.0192943
0.0198385
0.020429
0.0211276
0.695362
0.115613
0.0361304
0.0226088
0.0190558
0.0178918
0.0175724
0.0176166
0.0178438
0.0181805
0.0185883
0.0190474
0.0195367
0.0200374
0.0205441
0.0210607
0.021604
0.769283
0.1185
0.0382037
0.0245745
0.0206333
0.0192016
0.0187222
0.0186666
0.0188263
0.0191098
0.0194763
0.0199039
0.0203693
0.0208509
0.0213394
0.0218285
0.0222547
0.849456
0.122097
0.0410031
0.0269734
0.0224912
0.0207139
0.0200289
0.0198464
0.0199197
0.0201387
0.0204549
0.0208413
0.021273
0.0217264
0.0221932
0.0226932
0.0232857
0.934964
0.126766
0.0446334
0.0298603
0.0246776
0.0224677
0.0215225
0.0211787
0.0211426
0.0212822
0.0215363
0.0218724
0.0222627
0.0226784
0.0230966
0.0235111
0.0239541
1.02402
0.133201
0.0491957
0.03328
0.0272352
0.0244992
0.0232364
0.0226877
0.0225142
0.0225553
0.0227336
0.0230083
0.0233501
0.023729
0.0241161
0.0244822
0.024748
1.11388
0.142327
0.0547833
0.0372586
0.0302157
0.0268572
0.0252002
0.0243984
0.0240558
0.0239762
0.0240614
0.0242599
0.0245384
0.0248674
0.0252228
0.0256051
0.0260553
1.20057
0.155634
0.0616283
0.0418682
0.0336418
0.0295562
0.0274398
0.0263371
0.0257899
0.0255639
0.0255366
0.0256433
0.0258437
0.0261023
0.0263825
0.0266628
0.0269811
1.28419
0.172153
0.0692867
0.0470104
0.0375072
0.0326172
0.0299784
0.0285261
0.0277372
0.0273362
0.0271758
0.0271747
0.0272861
0.0274715
0.0276869
0.0278785
0.0279476
1.365
0.189337
0.0775588
0.052652
0.041805
0.0360467
0.0328302
0.0309828
0.0299156
0.0293101
0.0289924
0.0288645
0.0288693
0.0289683
0.0291238
0.029311
0.0295432
1.44172
0.207503
0.0862503
0.058739
0.0465113
0.0398387
0.0360006
0.0337185
0.0323395
0.0315018
0.0310033
0.0307277
0.0306056
0.0305911
0.0306367
0.0307016
0.0308245
1.51089
0.225926
0.0953079
0.0652024
0.0515859
0.0439766
0.0394865
0.0367392
0.0350199
0.0339247
0.0332241
0.0327829
0.0325195
0.0323838
0.0323218
0.0322475
0.0320364
1.57243
0.244507
0.10464
0.0719872
0.0569867
0.0484374
0.0432794
0.0400467
0.0379648
0.0365901
0.0356663
0.0350397
0.0346173
0.034349
0.0341892
0.0340713
0.0339703
1.62491
0.262775
0.114129
0.0790048
0.0626554
0.0531868
0.0473642
0.0436386
0.0411806
0.0395099
0.038344
0.037511
0.0369083
0.0364795
0.0361687
0.0359011
0.035723
1.66791
0.280345
0.123692
0.0861931
0.0685523
0.0582028
0.0517349
0.047521
0.0446815
0.0427028
0.0412792
0.0402243
0.0394259
0.0388203
0.0383432
0.0378821
0.0372813
1.70093
0.296733
0.133234
0.0935067
0.0746562
0.0634807
0.0564006
0.0517126
0.0484917
0.0461952
0.0444985
0.0432025
0.0421876
0.0413904
0.0407614
0.0402092
0.0396562
1.72403
0.311205
0.142643
0.100941
0.080974
0.0690444
0.0613954
0.0562537
0.0526542
0.0500308
0.0480432
0.0464818
0.0452201
0.0441941
0.0433548
0.0426175
0.0420207
1.73987
0.323101
0.151907
0.108552
0.0875797
0.0749729
0.0667984
0.0612203
0.0572408
0.0542761
0.0519743
0.0501196
0.0485824
0.0472968
0.0462041
0.0451815
0.0440227
1.74966
0.332575
0.161209
0.11652
0.0946588
0.0814323
0.0727564
0.0667408
0.0623629
0.0590257
0.0563715
0.0541822
0.0523263
0.0507433
0.0493979
0.0482006
0.0470004
1.75071
0.339855
0.170849
0.125179
0.102525
0.0886984
0.079504
0.0730124
0.068184
0.0644154
0.0613474
0.0587581
0.0565156
0.0545651
0.05288
0.051398
0.0501824
1.73958
0.345675
0.18136
0.13503
0.111628
0.0971586
0.087365
0.0803012
0.0749217
0.0706233
0.0670437
0.0639613
0.061249
0.0588521
0.0567316
0.054777
0.0527507
1.71189
0.351284
0.193494
0.146752
0.122568
0.107319
0.0967564
0.0889461
0.0828501
0.0778655
0.0736298
0.069926
0.0666289
0.0636864
0.061083
0.0587578
0.0565036
1.66296
0.358175
0.208281
0.161251
0.136118
0.119821
0.108201
0.0993675
0.0923001
0.0863986
0.0813053
0.0768031
0.0727612
0.0691264
0.0658909
0.0630448
0.0607409
1.58964
0.368176
0.227168
0.179746
0.153277
0.135474
0.122346
0.112075
0.103662
0.0965218
0.0902967
0.0847625
0.0797796
0.0752817
0.0712331
0.0675534
0.0640255
1.4923
0.384017
0.252294
0.203914
0.175359
0.155307
0.139996
0.127677
0.117395
0.108575
0.100852
0.0939868
0.0878178
0.0822582
0.0772731
0.0728265
0.068691
1.37511
0.410034
0.286858
0.236133
0.204145
0.180672
0.162149
0.14691
0.134032
0.122941
0.113243
0.104661
0.0969912
0.0901076
0.0839539
0.0785505
0.0741822
1.24484
0.452929
0.335664
0.279845
0.242139
0.213357
0.190085
0.170679
0.154213
0.140063
0.127769
0.116978
0.107419
0.0989
0.0912951
0.0845031
0.0783371
1.1092
0.522769
0.406074
0.340209
0.292903
0.25581
0.225476
0.20013
0.178725
0.160479
0.144779
0.13115
0.119216
0.108691
0.0994004
0.0912388
0.0839158
0.976351
0.63533
0.510046
0.425127
0.361685
0.311486
0.270582
0.236773
0.208598
0.184873
0.164702
0.147417
0.132484
0.119464
0.108134
0.0983946
0.0905574
0.858585
0.818537
0.665648
0.547393
0.45631
0.385379
0.328537
0.282704
0.245238
0.214146
0.188078
0.166077
0.147355
0.131211
0.117409
0.105598
0.0954762
0.755739
1.14387
0.90768
0.724072
0.588931
0.484996
0.404028
0.341065
0.290636
0.249494
0.215595
0.187502
0.164014
0.143944
0.127281
0.113331
0.10155
0.0379859
0.065801
0.132442
0.280849
0.583857
1.15662
2.15774
3.67269
5.37321
6.36098
5.75877
4.42986
4.74796
8.95953
14.5783
17.1954
13.6395
6.31412
1.38037
0.129078
0.0468052
0.0864502
0.179888
0.382213
0.779298
1.49478
2.66482
4.27959
5.87854
6.60422
5.91954
4.52919
4.48846
8.41459
14.8387
18.9997
16.3628
8.00397
1.77436
0.166477
0.0596199
0.1167
0.24859
0.52553
1.04883
1.95098
3.32446
5.01202
6.47409
6.9772
6.16619
4.65052
4.32412
7.97419
15.1974
20.881
18.9247
9.64149
2.18506
0.212001
0.0784491
0.161233
0.347897
0.727184
1.41968
2.5609
4.13741
5.86876
7.14417
7.38891
6.43609
4.78162
4.25394
7.76194
15.7296
22.807
21.4883
11.3892
2.62836
0.266624
0.1064
0.226989
0.491101
1.01065
1.92863
3.35483
5.16906
6.86883
7.89143
7.85271
6.72427
4.92952
4.26497
7.79312
16.441
24.6671
23.8653
13.0082
3.07917
0.331309
0.148222
0.324192
0.697024
1.40767
2.62501
4.3961
6.3568
7.90729
8.63363
8.33939
7.03101
5.11642
4.36824
8.07824
17.3269
26.3306
25.8375
14.3681
3.51418
0.408487
0.21134
0.468206
0.992996
1.96114
3.54567
5.60476
7.53657
8.82585
9.28376
8.81756
7.34197
5.28854
4.61131
8.60078
18.3445
27.6932
27.233
15.3558
3.90522
0.500434
0.307617
0.682604
1.41805
2.72015
4.66668
6.80608
8.49569
9.51351
9.80246
9.2243
7.60493
5.41802
4.98993
9.35703
19.414
28.6903
28.0831
16.0576
4.26241
0.614026
0.456592
1.00413
2.02661
3.71048
5.83825
7.74623
9.10606
9.9563
10.1824
9.51668
7.70756
5.54956
5.50221
10.3168
20.4142
29.2372
28.4681
16.5726
4.63315
0.762443
0.691188
1.48916
2.89039
4.86285
6.80546
8.27696
9.39879
10.205
10.4035
9.63264
7.61367
5.70063
6.15691
11.3822
21.1422
29.1479
28.3371
16.9215
5.05874
0.968161
1.06659
2.227
4.02855
5.95569
7.38022
8.45979
9.48047
10.2855
10.4454
9.43346
7.39469
5.89238
6.92497
12.3668
21.3375
28.3186
27.5439
17.0893
5.60046
1.2765
1.67754
3.31994
5.31076
6.75125
7.61718
8.47435
9.43798
10.1803
10.1814
8.87382
7.09645
6.14179
7.70058
13.0192
20.79
26.623
25.9972
17.0633
6.37217
1.7719
2.69366
4.77461
6.4689
7.20949
7.7109
8.44444
9.2763
9.80623
9.37443
8.14078
6.80001
6.44079
8.33163
13.1187
19.4128
24.0066
23.6897
16.87
7.58992
2.63669
4.26893
6.34912
7.2892
7.47859
7.78317
8.34395
8.88216
8.99827
8.35219
7.39207
6.5776
6.72651
8.68074
12.6188
17.3695
20.7514
20.7833
16.5137
9.53715
4.26122
6.36693
7.69875
7.80999
7.66289
7.77359
8.03383
8.12275
7.84551
7.35699
6.79726
6.49061
6.97521
8.72411
11.6726
14.9578
17.1687
17.3772
15.2216
11.5076
7.3442
8.53444
8.54029
8.03903
7.64214
7.48835
7.38259
7.19149
6.92208
6.69284
6.52019
6.60152
7.2288
8.61375
10.6249
12.6839
14.0005
14.1452
13.1225
12.1913
12.2771
9.61231
8.66507
7.81521
7.19766
6.86848
6.65658
6.5308
6.52199
6.59532
6.73062
7.05901
7.68843
8.6722
9.91572
11.0664
11.7254
11.6863
10.9061
10.1872
11.2649
9.40481
8.01436
7.05832
6.59174
6.3986
6.40874
6.60198
6.88865
7.22893
7.62008
8.09549
8.67012
9.3285
9.9921
10.5123
10.6785
10.3519
9.57103
8.7348
8.71091
8.46478
7.49012
7.07786
6.92569
7.01349
7.34776
7.79075
8.28815
8.81848
9.36429
9.90436
10.4145
10.866
11.2071
11.3467
11.1685
10.6324
9.82438
8.99084
9.05821
10.5385
10.9873
11.2833
11.6797
12.2065
12.9193
13.7393
14.5702
15.4017
16.2299
17.0446
17.8248
18.5308
19.1112
19.5341
19.6563
19.7481
19.8421
20.0814
20.6802
17.9093
10.0152
10.6
15.0371
11.2196
4.49438
2.0862
1.14913
0.708676
0.469201
0.326549
0.236347
0.17667
0.135623
0.106426
0.0850621
0.0690702
0.0569387
0.0476311
0.040439
13.4821
9.62981
12.1099
14.9248
7.48405
3.10698
1.47399
0.802863
0.480453
0.307413
0.207336
0.146253
0.107374
0.0817265
0.0642901
0.0521138
0.0434112
0.037073
0.0323965
0.0289007
10.0741
9.17923
16.0256
12.1779
5.12177
2.11264
1.02428
0.555757
0.328805
0.208309
0.139644
0.0985498
0.0730413
0.0567057
0.045939
0.0386511
0.0335963
0.0300113
0.027411
0.0254795
7.563
8.3355
15.8761
8.0021
3.07313
1.3179
0.651834
0.358425
0.214694
0.137932
0.0944194
0.0687231
0.0530409
0.0431748
0.0367821
0.032517
0.0295839
0.0274977
0.0259524
0.0247578
5.80276
7.74998
11.0323
4.56263
1.71525
0.776321
0.397038
0.22509
0.139058
0.0927371