/*--------------------------------*- C++ -*----------------------------------*\
  =========                 |
  \\      /  F ield         | OpenFOAM: The Open Source CFD Toolbox
   \\    /   O peration     | Website:  https://openfoam.org
    \\  /    A nd           | Version:  6
     \\/     M anipulation  |
\*---------------------------------------------------------------------------*/
FoamFile
{
    version     2.0;
    format      ascii;
    class       volScalarField;
    location    "1.2";
    object      k;
}
// * * * * * * * * * * * * * * * * * * * * * * * * * * * * * * * * * * * * * //

dimensions      [0 2 -2 0 0 0 0];

internalField   nonuniform List<scalar> 
4214
(
0.0826116
0.0480027
0.0371875
0.0341886
0.0336954
0.0339824
0.0345379
0.0353043
0.0363856
0.0379743
0.0403895
0.0441375
0.0500064
0.0590689
0.0728167
0.0933072
0.124821
0.175139
0.262256
0.394168
0.478477
0.376969
0.245223
0.163439
0.118135
0.0900752
0.0716133
0.0589435
0.0503618
0.0446362
0.0408349
0.0382664
0.0364873
0.0352347
0.0343532
0.0337502
0.0334709
0.034009
0.0370696
0.0479543
0.0826597
0.0336697
0.0324217
0.032474
0.0329168
0.0334636
0.0340603
0.0347479
0.0356359
0.0368858
0.0387248
0.0415227
0.045851
0.0525804
0.0628573
0.0782785
0.101037
0.135751
0.190619
0.284869
0.423784
0.506051
0.399937
0.262257
0.175483
0.126973
0.0965654
0.0763721
0.0623767
0.0527952
0.0463431
0.0420377
0.0391252
0.037109
0.0356833
0.0346644
0.0339085
0.0332978
0.0327725
0.0323675
0.0323555
0.0336417
0.0310793
0.031704
0.032344
0.0329622
0.0335682
0.034209
0.0349715
0.035985
0.0374292
0.0395635
0.0428144
0.0478251
0.0555536
0.0672152
0.0845228
0.109807
0.148069
0.208027
0.310223
0.456316
0.535232
0.424596
0.280914
0.188861
0.136898
0.103926
0.0818086
0.0663154
0.055586
0.0482852
0.0433863
0.0400702
0.0377816
0.0361646
0.0350085
0.0341567
0.0334769
0.0328665
0.0322627
0.0316455
0.0310421
0.0311514
0.0318218
0.0324579
0.0330618
0.0336723
0.0343531
0.0352032
0.0363629
0.0380343
0.0405169
0.0443062
0.0501203
0.0590084
0.0722488
0.0916815
0.119768
0.161957
0.227593
0.338815
0.4924
0.566839
0.451442
0.301446
0.20374
0.148081
0.112326
0.0880714
0.0708766
0.0588227
0.0505255
0.044924
0.0411299
0.0385245
0.0366905
0.0353813
0.0344234
0.0336787
0.0330368
0.0324212
0.0317855
0.0311252
0.0312797
0.0319019
0.0324975
0.0330842
0.0337118
0.034453
0.0354169
0.0367563
0.0387044
0.0416097
0.0460484
0.0528149
0.0630539
0.078098
0.0999303
0.131131
0.177694
0.249704
0.371148
0.532089
0.60068
0.480614
0.324163
0.220451
0.160789
0.121989
0.0953473
0.0762092
0.062618
0.053142
0.0466961
0.0423219
0.0393333
0.0372401
0.0357498
0.0346631
0.0338348
0.0331493
0.0325231
0.0318999
0.0312618
0.0313149
0.0318699
0.0324299
0.0330132
0.0336784
0.0345059
0.0356154
0.0371769
0.0394658
0.0428887
0.0481152
0.0560133
0.0678298
0.0849369
0.109485
0.144151
0.195614
0.274822
0.407919
0.575763
0.637313
0.512729
0.349555
0.239386
0.175355
0.133195
0.103876
0.0825065
0.0671231
0.0562444
0.0487771
0.0436889
0.0402277
0.0378172
0.0361091
0.034866
0.0339321
0.0331862
0.0325391
0.0319246
0.0313242
0.0311735
0.0316809
0.0322216
0.0328248
0.0335572
0.0345043
0.0358004
0.0376395
0.0403547
0.0444173
0.0506046
0.0598494
0.0735119
0.0929808
0.120608
0.159141
0.216126
0.303476
0.449112
0.623808
0.677134
0.548365
0.378432
0.261047
0.19219
0.146287
0.113954
0.0900117
0.0725325
0.0599769
0.0512666
0.0452901
0.0412351
0.0384253
0.0364477
0.0350115
0.0339427
0.0331126
0.0324294
0.0318163
0.0312393
0.0308282
0.0313005
0.0318508
0.0325095
0.0333467
0.0344532
0.0359878
0.0381768
0.0414304
0.0462867
0.0536493
0.0644969
0.0803241
0.102498
0.133623
0.176487
0.23974
0.336291
0.495552
0.676829
0.720697
0.588108
0.411739
0.286056
0.211801
0.161691
0.125953
0.0990368
0.0791011
0.0645325
0.0543046
0.0472152
0.0424064
0.0390842
0.0367665
0.0350885
0.0338487
0.0329019
0.0321561
0.0315303
0.0309837
0.030208
0.0307045
0.0313157
0.0320749
0.0330597
0.0343718
0.0362108
0.0388436
0.042782
0.0486244
0.0574281
0.0701823
0.088554
0.113822
0.148934
0.196662
0.267106
0.37414
0.548195
0.735429
0.768663
0.632744
0.449705
0.315163
0.234821
0.179934
0.140343
0.109983
0.0871641
0.0701712
0.0580873
0.0495962
0.0438251
0.0398366
0.0370829
0.0350979
0.0336427
0.0325386
0.0316905
0.0310135
0.030461
0.0293442
0.0299297
0.0306531
0.0315537
0.0327291
0.0342989
0.0365285
0.0397257
0.0445417
0.0516081
0.0621847
0.0772011
0.0985748
0.127377
0.167054
0.220262
0.299051
0.418295
0.607804
0.800258
0.821841
0.683337
0.493441
0.349307
0.262052
0.20168
0.157722
0.12337
0.0971658
0.0772462
0.0628926
0.0526266
0.0456244
0.0407606
0.0374426
0.0350629
0.0333397
0.0320333
0.0310385
0.030259
0.0296453
0.0283465
0.0290603
0.0299279
0.0309972
0.032407
0.0342962
0.0370336
0.0409513
0.0469008
0.0554838
0.0682531
0.0859436
0.110873
0.1437
0.188641
0.248041
0.336593
0.469272
0.675272
0.872101
0.881165
0.741078
0.544452
0.389699
0.29453
0.227771
0.178862
0.139871
0.109704
0.0862402
0.0691157
0.0565896
0.0480127
0.0419868
0.0379325
0.035035
0.0329803
0.0314237
0.0302457
0.0293177
0.0285884
0.0273432
0.0281866
0.0292085
0.0304632
0.0321629
0.0344509
0.0378654
0.042704
0.0501366
0.0605875
0.0760946
0.096926
0.126094
0.16348
0.214562
0.280963
0.381044
0.528504
0.751682
0.951891
0.947733
0.807325
0.604307
0.437819
0.333601
0.259297
0.20478
0.160356
0.125598
0.0978154
0.0773229
0.0618968
0.0513141
0.0437231
0.038702
0.0351031
0.0326342
0.0307687
0.0293829
0.028279
0.0274086
0.0264148
0.0273661
0.0285483
0.0300064
0.0320887
0.0348835
0.0392324
0.0452419
0.0546504
0.0673737
0.086349
0.110824
0.145117
0.187589
0.245985
0.320298
0.434101
0.597578
0.838193
1.04083
1.02292
0.883701
0.674914
0.495519
0.381027
0.297654
0.236807
0.185972
0.145966
0.11287
0.0883349
0.069141
0.0560295
0.0462896
0.0399984
0.035407
0.0324073
0.0301366
0.0285232
0.0272264
0.026219
0.0255912
0.02662
0.0279939
0.0296865
0.0323234
0.0357615
0.0414553
0.0489176
0.0610322
0.0764415
0.0999206
0.1285
0.169154
0.217134
0.284514
0.367581
0.497966
0.678239
0.936053
1.14042
1.10828
0.97212
0.75851
0.565071
0.439146
0.344637
0.276724
0.218202
0.172346
0.132609
0.10335
0.0791561
0.0629357
0.050162
0.0422302
0.0361605
0.0324697
0.0296062
0.0277368
0.0262104
0.0250863
0.0248843
0.0259565
0.0276247
0.0295898
0.0331066
0.0373157
0.0450463
0.0541879
0.0701734
0.0885409
0.11812
0.151007
0.199895
0.253491
0.332424
0.424695
0.575665
0.772398
1.04618
1.25172
1.20464
1.07426
0.857494
0.64912
0.511123
0.40249
0.327011
0.258883
0.206886
0.158578
0.12414
0.0930587
0.073248
0.0560069
0.0460798
0.0376798
0.0331227
0.0292867
0.027127
0.0252635
0.0240556
0.0243355
0.0254036
0.0276319
0.0298436
0.0348878
0.039826
0.0508738
0.0615675
0.0834992
0.10449
0.142942
0.179486
0.239859
0.298182
0.393204
0.493751
0.671583
0.881296
1.16745
1.37356
1.31037
1.18982
0.973543
0.750249
0.601462
0.473848
0.391273
0.310133
0.252692
0.192561
0.153389
0.11218
0.0889279
0.0646495
0.052726
0.040382
0.0349404
0.0293395
0.0269187
0.0244371
0.0232153
0.0241138
0.0250198
0.028465
0.0305606
0.0385764
0.0434835
0.0605741
0.0713749
0.103543
0.124791
0.177761
0.214695
0.293224
0.352363
0.472668
0.576031
0.792388
1.00362
1.29441
1.50359
1.42378
1.31601
1.10617
0.869455
0.716982
0.560966
0.475333
0.37382
0.314695
0.236012
0.195503
0.137607
0.113404
0.0767796
0.0643737
0.0446388
0.039096
0.0299322
0.0276354
0.0238023
0.0227854
0.0211913
0.0220041
0.0230073
0.0241514
0.0253989
0.0267147
0.028022
0.0291765
0.0300228
0.0305109
0.0306892
0.0307417
0.0305914
0.030433
0.0304998
0.038709
0.188861
0.0206666
0.0212079
0.0220518
0.0231018
0.0242941
0.0255799
0.0268895
0.0281015
0.029063
0.0296922
0.0299936
0.0301573
0.0300669
0.0299669
0.0301777
0.0394045
0.198986
0.0199511
0.0204685
0.0212133
0.022157
0.0232617
0.0244827
0.0257539
0.0269733
0.0280011
0.0287395
0.0291563
0.0294214
0.0294078
0.0293695
0.0297843
0.0404465
0.20714
0.0197066
0.020011
0.0205689
0.0213519
0.0223245
0.0234395
0.0246317
0.0258148
0.0268647
0.0276759
0.0281885
0.0285403
0.0286135
0.0286412
0.0292953
0.0416803
0.214825
0.0194459
0.0196375
0.0200471
0.0206682
0.0214856
0.0224633
0.0235459
0.0246571
0.0256864
0.0265271
0.0271052
0.0275211
0.0276809
0.027774
0.0287071
0.043111
0.222007
0.0193951
0.0194444
0.0196821
0.0201219
0.0207604
0.0215742
0.0225199
0.0235299
0.0245032
0.0253338
0.0259442
0.0263946
0.0266412
0.0267925
0.0280314
0.0447169
0.228637
0.0194408
0.0193503
0.0194348
0.0197021
0.0201587
0.0207962
0.0215855
0.0224706
0.0233596
0.0241484
0.0247604
0.0252177
0.0255283
0.0257459
0.0272846
0.0463833
0.234635
0.0195369
0.0193688
0.0193151
0.0194169
0.0196964
0.020157
0.0207802
0.0215229
0.0223038
0.0230271
0.0236174
0.0240652
0.0244065
0.0247098
0.0264915
0.0478788
0.239929
0.0198072
0.0194978
0.0193108
0.0192651
0.0193862
0.0196834
0.0201444
0.0207353
0.0213882
0.022027
0.0225786
0.0230125
0.0233763
0.0237563
0.0257484
0.0490255
0.244333
0.0200247
0.0196982
0.0194186
0.019254
0.0192439
0.0194007
0.0197136
0.0201536
0.0206701
0.0212058
0.0217027
0.0221256
0.0225201
0.0229583
0.0251954
0.0498721
0.247771
0.0204762
0.0200185
0.0196458
0.0193898
0.0192812
0.0193264
0.0195117
0.0198125
0.0201938
0.0206183
0.0210522
0.0214685
0.0219085
0.0224411
0.0250203
0.0505525
0.250613
0.0208045
0.0203884
0.0199832
0.0196766
0.0195034
0.0194653
0.0195471
0.0197294
0.0199891
0.0203106
0.0206835
0.0211115
0.0216311
0.0223429
0.0254278
0.0511967
0.253273
0.0214092
0.0208886
0.0204468
0.0201152
0.019905
0.019808
0.0198104
0.0198998
0.0200653
0.0203122
0.0206467
0.0211279
0.021782
0.0228144
0.0265443
0.0530765
0.255893
0.0218402
0.0214225
0.0210147
0.0206941
0.0204698
0.0203345
0.0202793
0.0203027
0.020408
0.0206204
0.0209649
0.0215722
0.0224524
0.0240313
0.028809
0.0577088
0.259052
0.0225572
0.0220803
0.0216946
0.0213977
0.0211755
0.0210184
0.0209268
0.0209108
0.0209881
0.0212044
0.0216156
0.0224301
0.0236818
0.0261357
0.0326746
0.065828
0.263402
0.0230855
0.0227617
0.0224526
0.0221985
0.0219926
0.0218329
0.0217277
0.0216958
0.0217714
0.0220189
0.0225397
0.0236077
0.0254005
0.0290949
0.0383982
0.0782872
0.268938
0.0238882
0.0235462
0.0232851
0.0230735
0.022894
0.0227492
0.0226519
0.0226281
0.0227231
0.0230186
0.023666
0.0249877
0.0274257
0.0326377
0.0456748
0.0936797
0.275478
0.0245159
0.0243418
0.0241577
0.0239976
0.0238555
0.0237413
0.0236709
0.0236744
0.0238046
0.0241598
0.0249274
0.0264777
0.0295316
0.0362595
0.0533297
0.108724
0.282426
0.025365
0.0252012
0.0250652
0.0249558
0.0248585
0.0247866
0.0247565
0.0248004
0.0249769
0.0253955
0.026267
0.0280087
0.0315458
0.0394652
0.0598716
0.121796
0.28922
0.0260898
0.0260623
0.0259885
0.025935
0.0258886
0.0258668
0.0258849
0.0259769
0.026204
0.0266823
0.0276351
0.0295196
0.0333795
0.041979
0.0643636
0.130741
0.295281
0.02694
0.0269507
0.0269291
0.026931
0.0269387
0.0269704
0.0270407
0.0271832
0.0274594
0.0279875
0.0289973
0.0309653
0.0349664
0.0437337
0.0665608
0.134235
0.300673
0.0277729
0.0278416
0.0278817
0.0279405
0.0280053
0.0280927
0.0282169
0.0284105
0.0287332
0.0293005
0.0303395
0.0323306
0.036344
0.045016
0.066959
0.132891
0.305812
0.0286212
0.0287494
0.0288499
0.0289663
0.0290899
0.0292346
0.0294138
0.0296582
0.0300244
0.0306221
0.0316716
0.0336427
0.037573
0.0459644
0.0666377
0.128361
0.310328
0.0294866
0.0296683
0.0298326
0.030011
0.0301969
0.0304021
0.0306392
0.0309361
0.0313454
0.0319695
0.0330176
0.0349391
0.0387296
0.0467802
0.0662483
0.122385
0.313864
0.0303608
0.0306105
0.0308406
0.0310832
0.0313351
0.0316057
0.031906
0.0322605
0.0327166
0.0333689
0.0344119
0.0362696
0.0398925
0.047576
0.065909
0.117921
0.31618
0.0312614
0.0315709
0.0318735
0.0321892
0.0325146
0.0328582
0.03323
0.033651
0.0341628
0.034851
0.0358938
0.0376857
0.0411286
0.0484371
0.0659001
0.115584
0.317227
0.0321764
0.0325652
0.0329446
0.0333389
0.0337465
0.0341737
0.0346287
0.0351294
0.0357115
0.0364499
0.0375065
0.0392431
0.0425103
0.0494534
0.0662339
0.114719
0.317171
0.0331264
0.0335883
0.0340566
0.0345419
0.0350437
0.0355677
0.0361211
0.0367189
0.0373913
0.0382022
0.0392957
0.0410005
0.0441139
0.0507184
0.0669214
0.114669
0.316321
0.034101
0.0346579
0.0352218
0.0358088
0.0364188
0.037056
0.0377269
0.0384437
0.0392317
0.0401448
0.0413075
0.0430164
0.0460101
0.052296
0.0679339
0.115043
0.31499
0.035116
0.0357694
0.0364456
0.0371504
0.0378856
0.0386557
0.0394665
0.0403289
0.0412637
0.0423156
0.04359
0.0453483
0.048266
0.0542499
0.0692681
0.115502
0.313426
0.0361694
0.0369403
0.0377393
0.0385779
0.039458
0.040384
0.0413617
0.0424009
0.0435194
0.0447542
0.046193
0.0480591
0.0509591
0.0566674
0.0709736
0.116026
0.31179
0.0372696
0.0381671
0.0391096
0.0401027
0.0411507
0.0422593
0.0434352
0.0446881
0.0460342
0.0475048
0.0491719
0.0512215
0.054182
0.0596665
0.0731887
0.116772
0.310168
0.0384193
0.0394651
0.0405668
0.0417362
0.0429786
0.044301
0.0457119
0.0472223
0.0488485
0.0506186
0.0525926
0.0549226
0.0580517
0.0634094
0.0761315
0.117899
0.308586
0.0396242
0.0408321
0.0421181
0.0434903
0.0449577
0.0465303
0.0482197
0.05004
0.0520097
0.0541572
0.0565353
0.0592683
0.0627168
0.0681028
0.0800824
0.119644
0.307035
0.0408856
0.0422809
0.0437731
0.0453773
0.0471052
0.0489708
0.0509905
0.0531838
0.0555748
0.0581962
0.0611
0.0643927
0.0683637
0.0740127
0.0854192
0.122425
0.305486
0.0422084
0.0438102
0.0455394
0.0474102
0.0494403
0.0516497
0.054062
0.0567053
0.0596136
0.06283
0.0664143
0.0704685
0.0752309
0.0814902
0.0926603
0.126883
0.303906
0.0435924
0.0454306
0.0474264
0.0496031
0.0519842
0.0545982
0.0574789
0.0606674
0.0642134
0.0681788
0.0726439
0.0777248
0.0836394
0.0910064
0.10252
0.133975
0.302262
0.0450409
0.0471412
0.0494424
0.0519709
0.0547608
0.0578523
0.0612945
0.0651472
0.0694842
0.0743981
0.0800072
0.0864698
0.094029
0.10321
0.116022
0.14523
0.300518
0.0465524
0.04895
0.0515957
0.054529
0.0577958
0.0614532
0.0655715
0.0702385
0.0755643
0.0816898
0.0887972
0.0971279
0.107019
0.119028
0.134661
0.163064
0.298636
0.0481274
0.0508558
0.0538947
0.0572943
0.0611193
0.0654499
0.0703872
0.0760598
0.0826332
0.0903236
0.0994181
0.110305
0.123525
0.139865
0.160734
0.191572
0.296559
0.0497982
0.0511343
0.0524808
0.0538314
0.0551798
0.0565188
0.0578396
0.0591332
0.0603905
0.0616015
0.0627564
0.0638447
0.0648563
0.0657809
0.0666092
0.067332
0.0679412
0.0684297
0.0687912
0.0690216
0.0691125
0.0690201
0.0687875
0.0684239
0.0679332
0.0673219
0.066597
0.0657667
0.06484
0.0638264
0.0627364
0.0615796
0.060367
0.0591081
0.0578131
0.0564909
0.0551506
0.0538007
0.0524489
0.0511013
0.0497635
0.052897
0.0543101
0.055733
0.057157
0.0585779
0.0599859
0.0613742
0.0627315
0.0640502
0.0653182
0.0665269
0.0676642
0.0687208
0.0696853
0.0705487
0.0713012
0.071935
0.0724423
0.0728173
0.0730551
0.0731483
0.0730537
0.0728138
0.0724367
0.0719273
0.0712915
0.0705369
0.0696715
0.0687051
0.0676466
0.0665075
0.0652971
0.0640275
0.0627074
0.0613487
0.0599591
0.0585499
0.0571277
0.0557028
0.0542792
0.0528652
0.0563782
0.057874
0.0593766
0.0608801
0.0623774
0.0638602
0.0653195
0.0667456
0.0681286
0.069458
0.0707231
0.071913
0.0730168
0.0740238
0.0749241
0.0757082
0.0763678
0.0768952
0.0772842
0.0775301
0.0776254
0.0775287
0.0772808
0.0768898
0.0763604
0.075699
0.0749128
0.0740106
0.0730017
0.0718961
0.0707046
0.0694379
0.068107
0.0667226
0.0652952
0.0638348
0.062351
0.0608527
0.0593484
0.0578451
0.0563487
0.0603139
0.0618969
0.0634848
0.0650723
0.0666517
0.0682137
0.0697492
0.071248
0.0726999
0.074094
0.0754192
0.0766643
0.0778182
0.0788701
0.0798094
0.0806268
0.0813135
0.0818619
0.0822658
0.0825202
0.0826177
0.0825189
0.0822626
0.0818569
0.0813066
0.080618
0.0797987
0.0788575
0.077804
0.0766483
0.0754016
0.0740749
0.0726795
0.0712264
0.0697264
0.0681899
0.0666271
0.0650469
0.0634585
0.0618698
0.0602862
0.064792
0.0664686
0.0681475
0.0698243
0.0714911
0.0731375
0.0747538
0.0763298
0.0778547
0.0793171
0.0807058
0.0820092
0.083216
0.0843149
0.0852952
0.0861474
0.0868626
0.0874331
0.0878525
0.0881157
0.0882155
0.0881145
0.0878495
0.0874284
0.0868561
0.0861392
0.0852852
0.0843031
0.0832026
0.0819943
0.0806894
0.0792994
0.0778357
0.0763097
0.0747327
0.0731155
0.0714684
0.0698011
0.0681231
0.0664434
0.0647663
0.0699256
0.0717023
0.0734786
0.0752505
0.0770096
0.0787453
0.0804474
0.0821049
0.0837067
0.0852411
0.0866965
0.088061
0.0893229
0.090471
0.091494
0.0923825
0.0931273
0.0937207
0.0941561
0.0944285
0.0945307
0.0944274
0.0941533
0.0937164
0.0931214
0.0923749
0.0914848
0.0904601
0.0893106
0.0880472
0.0866814
0.0852248
0.0836892
0.0820865
0.0804281
0.0787254
0.076989
0.0752292
0.0734562
0.0716792
0.069902
0.0758599
0.0777436
0.0796234
0.081496
0.0833527
0.0851823
0.0869742
0.0887173
0.0903997
0.0920093
0.0935341
0.094962
0.0962811
0.0974799
0.0985471
0.0994728
0.100248
0.100865
0.101317
0.101599
0.101703
0.101597
0.101314
0.100861
0.100243
0.099466
0.0985387
0.09747
0.0962699
0.0949495
0.0935204
0.0919945
0.090384
0.0887009
0.0869571
0.0851644
0.0833342
0.0814768
0.0796032
0.0777227
0.0758386
0.0827839
0.084781
0.08677
0.0887486
0.0907074
0.092635
0.0945203
0.0963519
0.0981176
0.0998047
0.101401
0.102894
0.104271
0.105522
0.106633
0.107597
0.108403
0.109043
0.109512
0.109803
0.10991
0.109802
0.109509
0.10904
0.108398
0.107591
0.106626
0.105513
0.104261
0.102883
0.101389
0.0997917
0.0981039
0.0963376
0.0945053
0.0926193
0.0906911
0.0887316
0.0867521
0.0847626
0.0827651
0.0909469
0.093063
0.0951658
0.0972544
0.0993188
0.101347
0.103328
0.105249
0.107099
0.108864
0.110532
0.11209
0.113526
0.114827
0.115983
0.116984
0.11782
0.118483
0.118968
0.119268
0.119377
0.119267
0.118966
0.11848
0.117816
0.116979
0.115977
0.114819
0.113517
0.11208
0.110522
0.108853
0.107087
0.105237
0.103315
0.101333
0.0993047
0.0972397
0.0951505
0.0930471
0.0909308
0.100685
0.102922
0.105141
0.107341
0.109512
0.111641
0.113716
0.115726
0.117658
0.1195
0.121237
0.122858
0.124349
0.125699
0.126897
0.127932
0.128796
0.129481
0.12998
0.130288
0.130399
0.130288
0.129979
0.129479
0.128793
0.127928
0.126891
0.125692
0.124341
0.12285
0.121229
0.119491
0.117649
0.115716
0.113705
0.111629
0.1095
0.107329
0.105128
0.102909
0.100671
0.112456
0.114813
0.117146
0.119454
0.121726
0.123951
0.126116
0.128209
0.130217
0.132128
0.133928
0.135605
0.137145
0.138538
0.139772
0.140837
0.141725
0.142428
0.142939
0.143254
0.143366
0.143253
0.142938
0.142426
0.141722
0.140834
0.139767
0.138532
0.137139
0.135598
0.133921
0.132121
0.130209
0.1282
0.126107
0.123942
0.121717
0.119444
0.117135
0.114803
0.112446
0.126904
0.129369
0.131804
0.134208
0.136571
0.138878
0.141118
0.14328
0.14535
0.147316
0.149165
0.150884
0.152461
0.153885
0.155144
0.15623
0.157134
0.157849
0.158367
0.158685
0.158798
0.158685
0.158366
0.157847
0.157132
0.156228
0.155141
0.153881
0.152456
0.150879
0.149159
0.14731
0.145344
0.143273
0.141112
0.138871
0.136564
0.134201
0.131796
0.129361
0.126896
0.144948
0.147493
0.150006
0.152479
0.154903
0.157265
0.159553
0.161754
0.163858
0.165853
0.167724
0.169462
0.171052
0.172486
0.173753
0.174843
0.175749
0.176464
0.176982
0.177299
0.17741
0.177299
0.176981
0.176463
0.175748
0.174841
0.17375
0.172483
0.171049
0.169458
0.167721
0.165849
0.163854
0.16175
0.159548
0.15726
0.154898
0.152474
0.15
0.147488
0.144943
0.167947
0.170515
0.17305
0.175538
0.177968
0.18033
0.182612
0.184802
0.186889
0.188863
0.190711
0.192423
0.193987
0.195394
0.196635
0.197702
0.198587
0.199284
0.199788
0.200096
0.200203
0.200096
0.199788
0.199283
0.198586
0.197701
0.196634
0.195392
0.193985
0.192421
0.190709
0.18886
0.186887
0.184799
0.182609
0.180327
0.177965
0.175534
0.173046
0.170511
0.167943
0.197963
0.200444
0.202895
0.205293
0.207627
0.209887
0.212065
0.214147
0.216126
0.217992
0.219735
0.221345
0.222814
0.224132
0.225292
0.226288
0.227112
0.22776
0.228228
0.228513
0.228611
0.228513
0.228228
0.22776
0.227112
0.226287
0.225291
0.224131
0.222813
0.221344
0.219734
0.217991
0.216125
0.214145
0.212063
0.209886
0.207625
0.205291
0.202893
0.200442
0.197962
0.238256
0.240439
0.242602
0.24471
0.246753
0.248724
0.250615
0.252418
0.254125
0.255729
0.257223
0.258598
0.25985
0.26097
0.261955
0.262797
0.263494
0.26404
0.264434
0.264673
0.264754
0.264673
0.264434
0.26404
0.263493
0.262797
0.261954
0.26097
0.25985
0.258598
0.257222
0.255728
0.254124
0.252417
0.250615
0.248723
0.246752
0.244709
0.242601
0.240439
0.238255
0.294192
0.295677
0.297157
0.29859
0.299973
0.301301
0.302568
0.303772
0.304907
0.30597
0.306955
0.30786
0.308681
0.309413
0.310055
0.310603
0.311055
0.31141
0.311664
0.311818
0.31187
0.311818
0.311664
0.311409
0.311055
0.310603
0.310055
0.309413
0.308681
0.30786
0.306955
0.30597
0.304907
0.303772
0.302568
0.3013
0.299973
0.29859
0.297157
0.295677
0.294192
0.188558
0.0386912
0.0305343
0.0304417
0.0306108
0.0307643
0.0306886
0.030433
0.0298255
0.0288889
0.0277633
0.026629
0.0255916
0.024686
0.0239151
0.0232626
0.022684
0.198563
0.0393694
0.0302116
0.0299767
0.0300786
0.0301688
0.0299805
0.0296047
0.0288726
0.0278516
0.0266969
0.025572
0.0245625
0.0237016
0.0230177
0.022545
0.0222839
0.206593
0.040387
0.0298212
0.0293878
0.0294228
0.0294293
0.0291391
0.0286552
0.0278356
0.0267783
0.0256384
0.024556
0.0235985
0.0227958
0.022175
0.0217841
0.021717
0.214146
0.0415915
0.0293352
0.0286682
0.0286338
0.0285489
0.0281733
0.0276053
0.0267389
0.0256899
0.0246049
0.023601
0.0227306
0.0220188
0.0214757
0.0210953
0.0208727
0.221197
0.0429847
0.0287491
0.0278103
0.0277079
0.0275333
0.0270973
0.0264788
0.0256098
0.0246085
0.0236096
0.0227125
0.0219603
0.0213796
0.0209832
0.020763
0.0206907
0.227719
0.0445426
0.0280709
0.0268377
0.0266753
0.0264124
0.0259472
0.0253122
0.024477
0.0235534
0.0226648
0.0218948
0.0212787
0.0208376
0.0205787
0.0204921
0.0205619
0.233621
0.0461509
0.0273177
0.025796
0.0255652
0.0252421
0.0247742
0.0241514
0.0233762
0.0225519
0.0217902
0.0211613
0.0206939
0.0204028
0.020282
0.0203047
0.0204594
0.238838
0.0475993
0.026516
0.024755
0.0244435
0.0240923
0.0236378
0.0230481
0.0223504
0.0216401
0.0210126
0.0205283
0.0202122
0.0200764
0.0201052
0.0202525
0.0204732
0.243207
0.0487505
0.025771
0.0237947
0.0234078
0.0230365
0.0226003
0.0220584
0.0214509
0.0208635
0.0203684
0.0200196
0.019842
0.0198484
0.0200176
0.020291
0.0205883
0.246672
0.0496416
0.0252167
0.0229906
0.0225413
0.0221433
0.0217231
0.0212416
0.0207353
0.0202703
0.0198999
0.0196699
0.019609
0.019733
0.0200212
0.0204162
0.0208702
0.249645
0.0503928
0.0250371
0.022463
0.0219207
0.0214813
0.0210714
0.0206542
0.0202514
0.0199025
0.0196443
0.0195142
0.0195432
0.0197512
0.0201211
0.0205849
0.0210618
0.252584
0.0511389
0.0254418
0.022355
0.0216383
0.0211239
0.0207025
0.0203423
0.0200318
0.0197866
0.0196251
0.0195753
0.0196661
0.0199225
0.0203403
0.0208578
0.0213406
0.255515
0.0530001
0.0265628
0.0228233
0.0217884
0.0211417
0.0206633
0.0203341
0.0200898
0.019927
0.0198437
0.0198559
0.0199845
0.0202553
0.0206821
0.0212407
0.021861
0.258848
0.0575107
0.0288176
0.0240407
0.0224589
0.0215835
0.0209746
0.02063
0.020416
0.020308
0.0202831
0.020341
0.0204903
0.0207501
0.0211403
0.0216547
0.0222332
0.263249
0.0655567
0.0326636
0.0261444
0.0236885
0.0224366
0.021618
0.0212032
0.020984
0.0209025
0.0209145
0.0210028
0.021162
0.0213998
0.0217372
0.022184
0.0226598
0.268839
0.078005
0.0383746
0.0291096
0.0254115
0.0236151
0.0225406
0.0220135
0.0217617
0.021681
0.0217078
0.0218079
0.0219642
0.0221742
0.0224537
0.0228393
0.0233523
0.275364
0.0935506
0.04568
0.0326755
0.0274505
0.0250033
0.0236715
0.023016
0.0227143
0.0226133
0.0226315
0.0227232
0.022863
0.0230393
0.0232548
0.0235377
0.0239316
0.282342
0.108744
0.0534116
0.0363346
0.0295797
0.026507
0.0249418
0.0241631
0.0237996
0.0236629
0.023654
0.0237199
0.0238301
0.0239688
0.0241289
0.0243246
0.0245392
0.289167
0.121931
0.060044
0.0395832
0.0316188
0.0280524
0.0262902
0.0254052
0.0249767
0.0247939
0.0247452
0.0247718
0.0248408
0.0249357
0.0250444
0.0251855
0.0253675
0.29526
0.130991
0.064615
0.0421399
0.0334742
0.0295734
0.0276642
0.0266968
0.0262093
0.0259762
0.0258801
0.0258594
0.0258791
0.0259239
0.0259771
0.0260574
0.0261468
0.300805
0.134565
0.066821
0.0438892
0.0350552
0.0310191
0.0290298
0.028007
0.02747
0.0271883
0.0270422
0.0269702
0.0269368
0.026928
0.0269262
0.0269503
0.0269381
0.306083
0.133236
0.0671949
0.0451505
0.0364233
0.0323806
0.0303717
0.0293216
0.0287475
0.0284205
0.0282241
0.0280986
0.0280099
0.0279452
0.0278879
0.0278532
0.0277868
0.310703
0.128691
0.0668
0.0460732
0.0376411
0.0336878
0.0317028
0.0306448
0.0300416
0.029672
0.0294254
0.0292449
0.0290991
0.0289758
0.0288592
0.0287586
0.0286404
0.314302
0.122677
0.0663913
0.0468653
0.0387865
0.0349794
0.0330478
0.0319933
0.0313651
0.0309531
0.0306545
0.0304162
0.0302105
0.0300248
0.0298458
0.0296833
0.0295084
0.316639
0.118139
0.0660176
0.0476417
0.0399397
0.0363057
0.0344411
0.0333936
0.0327383
0.0322802
0.0319242
0.031623
0.0313518
0.0310993
0.0308559
0.0306293
0.0303878
0.317673
0.115744
0.0659751
0.0484856
0.0411675
0.0377184
0.0359224
0.0348767
0.0341865
0.0336732
0.0332509
0.0328781
0.0325336
0.0322077
0.031893
0.0315904
0.0312798
0.317583
0.114828
0.0662776
0.0494873
0.0425423
0.0392731
0.0375348
0.0364768
0.035737
0.0351538
0.0346521
0.0341963
0.0337684
0.0333603
0.0329645
0.0325824
0.0322054
0.316685
0.114736
0.0669392
0.0507409
0.0441406
0.0410287
0.0393241
0.0382303
0.0374186
0.0367454
0.0361467
0.0355925
0.0350678
0.0345655
0.0340799
0.0336145
0.0331547
0.315301
0.115075
0.0679325
0.0523087
0.0460329
0.0430436
0.0413364
0.0401741
0.0392606
0.0384721
0.0377544
0.0370829
0.036445
0.0358342
0.0352468
0.0346813
0.0341269
0.313682
0.115493
0.0692516
0.0542565
0.0482865
0.0453752
0.0436194
0.0423459
0.0412939
0.0403588
0.0394957
0.0386843
0.0379136
0.0371781
0.036473
0.0357954
0.0351434
0.311994
0.115976
0.070946
0.0566704
0.0509787
0.0480862
0.0462232
0.0447854
0.0435507
0.0424319
0.0413922
0.040414
0.0394876
0.0386072
0.0377676
0.036969
0.0362039
0.310324
0.116694
0.0731551
0.0596686
0.0542018
0.051249
0.0492026
0.0475366
0.0460662
0.0447199
0.0434666
0.0422904
0.0411815
0.0401332
0.0391403
0.0381992
0.0372987
0.3087
0.117802
0.0760951
0.0634124
0.0580723
0.0549505
0.0526235
0.0506505
0.0488806
0.0472544
0.0457438
0.0443329
0.0430104
0.041768
0.0405984
0.0394943
0.0384517
0.307113
0.119545
0.0800498
0.0681085
0.0627385
0.0592963
0.0565659
0.0541887
0.0520415
0.050072
0.0482519
0.0465626
0.0449901
0.0435228
0.0421505
0.0408662
0.0396629
0.305537
0.122331
0.0853937
0.0740217
0.068386
0.0644202
0.0611296
0.0582267
0.0556059
0.0532154
0.0510226
0.0490032
0.0471379
0.0454102
0.0438062
0.0423145
0.0409189
0.303936
0.126805
0.0926442
0.0815024
0.0752532
0.0704948
0.0664424
0.0628591
0.0596436
0.0567361
0.0540935
0.0516818
0.0494729
0.0474433
0.045573
0.0438438
0.0422424
0.302278
0.133919
0.102513
0.0910207
0.0836607
0.0777492
0.0726699
0.0682062
0.064242
0.060697
0.0575095
0.0546296
0.0520164
0.049636
0.0474597
0.0454642
0.0436325
0.300526
0.145195
0.116023
0.103225
0.0940483
0.0864916
0.0800308
0.0744233
0.0695108
0.065175
0.0613236
0.0578826
0.0547921
0.0520033
0.0494757
0.0471768
0.0450743
0.298638
0.163048
0.134667
0.119042
0.107036
0.0971463
0.0888174
0.0817119
0.0755882
0.070264
0.0655987
0.0614819
0.0578259
0.0545603
0.0516284
0.0489826
0.0465863
0.29656
0.191568
0.16074
0.139874
0.123536
0.110319
0.0994338
0.0903415
0.0826534
0.0760822
0.0704116
0.0654762
0.0611473
0.0573241
0.053926
0.0508891
0.0481662
0.0247476
0.0315181
0.0478193
0.082826
0.148412
0.255627
0.415308
0.669562
1.13469
1.64797
1.45585
1.00435
0.663678
0.449972
0.288341
0.168625
0.0918204
0.050102
0.0309042
0.0232978
0.0256022
0.0342935
0.0554452
0.100277
0.182206
0.312272
0.501376
0.796523
1.31475
1.82885
1.64353
1.18603
0.802455
0.553407
0.360319
0.212813
0.114684
0.0597663
0.0340958
0.0240639
0.0270098
0.0384864
0.0663124
0.124044
0.226522
0.384831
0.610816
0.954232
1.53376
2.08248
1.8931
1.41038
0.978491
0.686486
0.453548
0.271569
0.146419
0.0739138
0.0391424
0.0254821
0.0292369
0.0447705
0.0818018
0.15641
0.28466
0.478415
0.75129
1.15064
1.7883
2.36057
2.17183
1.68104
1.20683
0.859664
0.574907
0.349297
0.19017
0.0944837
0.0469678
0.0278806
0.0326971
0.0541681
0.103893
0.200465
0.361126
0.600311
0.933283
1.39802
2.07994
2.71754
2.55564
2.00111
1.5
1.08876
0.734816
0.452056
0.250129
0.124238
0.0589826
0.0317827
0.0380513
0.0682179
0.135355
0.260315
0.462299
0.761131
1.17196
1.70488
2.40876
3.00367
2.88336
2.36717
1.86343
1.39676
0.949315
0.588742
0.331836
0.166976
0.0773235
0.0380421
0.0463544
0.0892136
0.179944
0.341483
0.597654
0.976722
1.48915
2.06929
2.80916
3.24182
3.1483
2.82446
2.30718
1.78993
1.24017
0.773162
0.44286
0.227815
0.105158
0.0480566
0.0592887
0.120474
0.242712
0.451836
0.782164
1.26998
1.88109
2.49509
3.20403
3.41526
3.331
3.29703
2.84718
2.31306
1.6277
1.02473
0.594058
0.313556
0.14704
0.0640941
0.0795084
0.16669
0.330533
0.603071
1.03575
1.66956
2.40021
3.00311
3.54922
3.48904
3.41009
3.69124
3.45678
2.96022
2.15946
1.37156
0.801212
0.433544
0.209358
0.0897747
0.111132
0.234453
0.453423
0.812201
1.38667
2.19568
3.02674
3.58385
3.88919
3.45664
3.39859
4.00395
4.15121
3.69958
2.82093
1.84419
1.08655
0.601335
0.301032
0.130759
0.160473
0.333317
0.625896
1.10418
1.85672
2.82236
3.72375
4.32835
4.23333
3.37621
3.29309
4.2041
4.90613
4.48097
3.56447
2.44915
1.48363
0.835612
0.43502
0.1958
0.237272
0.477811
0.86854
1.50499
2.42497
3.49214
4.44381
4.96648
4.52822
3.29055
3.17978
4.29422
5.40609
5.25823
4.32149
3.13253
2.00826
1.16408
0.63002
0.298526
0.357133
0.689348
1.21789
2.01233
3.02591
4.15306
5.15303
5.50853
4.73154
3.20655
3.08911
4.28827
5.64268
5.94909
5.05633
3.81978
2.62808
1.62473
0.913713
0.460542
0.545062
1.00532
1.68365
2.56166
3.60831
4.7798
5.75287
5.76397
4.79092
3.16149
3.03373
4.21846
5.63202
6.28762
5.71575
4.46558
3.25645
2.205
1.33551
0.716616
0.847301
1.46097
2.22011
3.10187
4.1624
5.29417
5.92645
5.69581
4.71523
3.18295
3.05969
4.13207
5.4003
6.12751
6.01661
5.04719
3.83647
2.81379
1.91224
1.1292
1.33054
2.02846
2.76043
3.61938
4.62533
5.36085
5.62391
5.36972
4.56861
3.35438
3.19941
4.08587
5.08411
5.71075
5.82787
5.34182
4.34448
3.36654
2.56187
1.76568
1.99872
2.60278
3.24372
4.05024
4.67578
5.06342
5.17938
5.02272
4.50419
3.71215
3.57119
4.21136
4.87461
5.26602
5.34073
5.13256
4.59206
3.79044
3.1292
2.55431
2.64962
3.01847