/*--------------------------------*- C++ -*----------------------------------*\
  =========                 |
  \\      /  F ield         | OpenFOAM: The Open Source CFD Toolbox
   \\    /   O peration     | Website:  https://openfoam.org
    \\  /    A nd           | Version:  6
     \\/     M anipulation  |
\*---------------------------------------------------------------------------*/
FoamFile
{
    version     2.0;
    format      ascii;
    class       volScalarField;
    location    "4.69";
    object      p;
}
// * * * * * * * * * * * * * * * * * * * * * * * * * * * * * * * * * * * * * //

dimensions      [1 -1 -2 0 0 0 0];

internalField   nonuniform List<scalar> 
5625
(
1.03573
1.03242
1.02758
1.02171
1.01524
1.00855
1.00193
0.995616
0.989847
0.98481
0.980618
0.977409
0.975304
0.974345
0.974528
0.975759
0.977817
0.980494
0.983562
0.986622
0.989273
0.9914
0.993001
0.993912
0.994058
0.99368
0.992997
0.992042
0.990983
0.990124
0.989538
0.989189
0.989197
0.989632
0.990296
0.990973
0.991618
0.992125
0.992181
0.991518
0.990126
0.98815
0.985686
0.982802
0.979709
0.976817
0.974584
0.973305
0.973038
0.973686
0.975153
0.977459
0.98075
0.985224
0.990999
0.998004
1.0059
1.01408
1.02176
1.02811
1.03246
1.03445
1.03414
1.03189
1.0283
1.02402
1.01961
1.01547
1.01186
1.00886
1.00647
1.00465
1.00328
1.0023
1.00159
1.0365
1.03396
1.02974
1.02433
1.01818
1.01168
1.00513
0.99878
0.992863
0.987558
0.983012
0.979356
0.976677
0.975047
0.974511
0.974987
0.976333
0.978449
0.981125
0.98397
0.986705
0.989245
0.991413
0.992954
0.993903
0.994474
0.994686
0.99452
0.994188
0.993882
0.99357
0.993279
0.993169
0.993231
0.993267
0.993177
0.992978
0.992547
0.991626
0.990088
0.988043
0.985658
0.983011
0.980182
0.977403
0.975059
0.973514
0.972952
0.97335
0.974584
0.976579
0.979388
0.983175
0.988118
0.99429
1.00155
1.00947
1.01742
1.02457
1.03016
1.03362
1.03472
1.03364
1.03084
1.02694
1.02255
1.0182
1.01422
1.01081
1.00802
1.00583
1.00417
1.00294
1.00205
1.00142
1.03695
1.03526
1.03175
1.02688
1.02112
1.01487
1.00845
1.00212
0.996113
0.990605
0.985747
0.981679
0.978499
0.976279
0.975043
0.974757
0.975399
0.97689
0.978964
0.981333
0.983885
0.986499
0.988871
0.990795
0.992353
0.993585
0.994371
0.994754
0.994951
0.995017
0.994894
0.99468
0.994494
0.994247
0.993797
0.993158
0.992356
0.991253
0.989675
0.987638
0.985313
0.982847
0.980296
0.977755
0.975472
0.973791
0.972984
0.973134
0.974161
0.975943
0.978435
0.981724
0.985982
0.991361
0.997873
1.0053
1.01315
1.02073
1.02724
1.03197
1.03448
1.03468
1.03288
1.02958
1.02543
1.02101
1.01676
1.01297
1.00978
1.00721
1.00522
1.00372
1.00261
1.00182
1.00127
1.03701
1.03625
1.03353
1.0293
1.02402
1.01809
1.01186
1.0056
0.999566
0.993918
0.988811
0.984386
0.980764
0.978012
0.976135
0.975151
0.975086
0.97584
0.977192
0.979017
0.981252
0.983654
0.985917
0.987963
0.989818
0.991347
0.992447
0.993236
0.99382
0.994123
0.994131
0.993983
0.99372
0.993219
0.992437
0.991459
0.990285
0.988773
0.986855
0.984652
0.982355
0.980064
0.977821
0.975741
0.974077
0.973121
0.973053
0.973879
0.975488
0.977772
0.980726
0.984467
0.989167
0.994939
1.00172
1.00922
1.01688
1.02395
1.02968
1.03346
1.03498
1.03431
1.03183
1.02812
1.0238
1.0194
1.01531
1.01174
1.00878
1.00644
1.00463
1.00329
1.00231
1.00161
1.00112
1.03664
1.03687
1.03503
1.03152
1.02681
1.02129
1.01532
1.00921
1.00319
0.99746
0.99217
0.987469
0.983468
0.980217
0.977758
0.976161
0.975426
0.975428
0.976064
0.977316
0.979053
0.98098
0.982918
0.984864
0.986721
0.98829
0.989543
0.990576
0.991337
0.991723
0.99181
0.991718
0.991395
0.990741
0.9898
0.988671
0.98732
0.985647
0.983678
0.98159
0.979548
0.977613
0.975821
0.974313
0.973333
0.973114
0.973753
0.975198
0.977327
0.980065
0.983448
0.987614
0.992721
0.998829
1.0058
1.01325
1.02056
1.02699
1.03183
1.03458
1.0351
1.03359
1.03051
1.02648
1.02207
1.01776
1.01386
1.01053
1.00782
1.0057
1.00409
1.00289
1.00203
1.00141
1.00099
1.03579
1.03704
1.03616
1.03348
1.02943
1.0244
1.01879
1.01289
1.00696
1.00121
0.995801
0.990891
0.986563
0.98288
0.979938
0.977805
0.976426
0.975716
0.975686
0.976311
0.977386
0.97871
0.980249
0.981952
0.983599
0.985028
0.986269
0.987325
0.988073
0.988474
0.988631
0.988573
0.988201
0.987485
0.986528
0.985396
0.984033
0.9824
0.980604
0.97883
0.977194
0.975724
0.97447
0.973592
0.973314
0.973805
0.97509
0.977083
0.97967
0.982816
0.986595
0.991154
0.996622
1.00299
1.01004
1.01731
1.02412
1.02975
1.03358
1.03527
1.03481
1.03252
1.02894
1.02468
1.02027
1.01611
1.01244
1.00937
1.00691
1.00501
1.00358
1.00253
1.00177
1.00124
1.00086
1.03443
1.03669
1.03685
1.03509
1.0318
1.02736
1.02219
1.01659
1.01083
1.00512
0.999671
0.994608
0.990017
0.986001
0.982669
0.980032
0.978037
0.976701
0.97607
0.976044
0.97644
0.977193
0.978285
0.979555
0.980794
0.981959
0.983065
0.984003
0.98465
0.985034
0.985216
0.985146
0.984743
0.984056
0.983191
0.982159
0.980908
0.979471
0.978004
0.976663
0.975509
0.974557
0.973881
0.973651
0.974057
0.9752
0.977055
0.979517
0.982501
0.98601
0.99015
0.995065
1.00084
1.00738
1.01438
1.02129
1.02744
1.03213
1.03488
1.03547
1.03408
1.03111
1.02715
1.02276
1.01843
1.01447
1.01106
1.00827
1.00606
1.00437
1.00311
1.00219
1.00154
1.00107
1.00075
1.03257
1.03579
1.03701
1.03626
1.03383
1.0301
1.02546
1.02024
1.01473
1.00916
1.00373
0.998576
0.993806
0.989544
0.985867
0.982766
0.980263
0.978428
0.97724
0.976564
0.976325
0.976532
0.977095
0.977824
0.97862
0.979489
0.980356
0.981059
0.981545
0.98187
0.982024
0.981912
0.981518
0.980932
0.980223
0.979358
0.978317
0.977194
0.976149
0.975287
0.974632
0.974206
0.974111
0.974514
0.975555
0.977277
0.979615
0.982471
0.985792
0.989626
0.994094
0.999318
1.00532
1.01191
1.01871
1.0251
1.03041
1.03404
1.03564
1.03517
1.03292
1.02939
1.02516
1.02076
1.01658
1.01287
1.00975
1.00723
1.00527
1.00378
1.00268
1.00189
1.00132
1.00093
1.00065
1.03023
1.03431
1.03659
1.0369
1.03543
1.03251
1.02852
1.02378
1.0186
1.01326
1.00792
1.00274
0.997882
0.993449
0.989481
0.98601
0.98312
0.980847
0.979112
0.977838
0.97705
0.976737
0.976755
0.976967
0.977349
0.977869
0.978394
0.978811
0.979128
0.979364
0.979445
0.979295
0.97895
0.978501
0.977964
0.9773
0.976532
0.975782
0.975186
0.974802
0.974635
0.974724
0.975188
0.976176
0.97778
0.979991
0.982726
0.985906
0.989517
0.99364
0.998396
1.00387
1.00999
1.0165
1.02291
1.02859
1.03291
1.03538
1.03581
1.03434
1.03136
1.02741
1.02304
1.01872
1.01476
1.01133
1.00851
1.00626
1.00454
1.00324
1.0023
1.00162
1.00113
1.0008
1.00056
1.0275
1.03226
1.03552
1.03693
1.03651
1.03451
1.03126
1.02711
1.02238
1.01734
1.01218
1.00707
1.0022
0.997648
0.993468
0.989736
0.986532
0.983845
0.981624
0.979885
0.97865
0.977838
0.977321
0.977055
0.977038
0.977178
0.977341
0.977487
0.977639
0.977753
0.977736
0.977563
0.977299
0.976991
0.976618
0.976167
0.975702
0.975346
0.975189
0.975249
0.975535
0.976107
0.97709
0.9786
0.980682
0.983291
0.986341
0.98978
0.993638
0.998013
1.00301
1.00865
1.01477
1.02102
1.02685
1.03163
1.03481
1.03607
1.03537
1.03301
1.02944
1.02521
1.02083
1.01668
1.01299
1.00988
1.00735
1.00538
1.00388
1.00276
1.00195
1.00137
1.00097
1.00068
1.00048
1.02447
1.02968
1.03379
1.03627
1.03696
1.03597
1.03358
1.03014
1.02597
1.02131
1.01642
1.01149
1.00668
1.00207
0.99777
0.993869
0.990413
0.987383
0.984793
0.982687
0.981036
0.979742
0.978759
0.978095
0.977702
0.977461
0.977297
0.977208
0.977183
0.977141
0.97702
0.976846
0.976673
0.976498
0.976284
0.976053
0.9759
0.975921
0.976159
0.976614
0.977309
0.978325
0.979774
0.981733
0.9842
0.987113
0.990401
0.99405
0.998117
1.0027
1.00787
1.01356
1.01953
1.02531
1.03035
1.03406
1.03602
1.03606
1.03433
1.03121
1.02722
1.02287
1.01859
1.01468
1.01131
1.00852
1.00629
1.00458
1.00329
1.00234
1.00165
1.00116
1.00082
1.00058
1.00042
1.02131
1.02668
1.03144
1.0349
1.03669
1.03678
1.03538
1.03276
1.02924
1.02509
1.02058
1.01592
1.01124
1.00667
1.00234
0.998343
0.994693
0.991406
0.988542
0.986124
0.984096
0.982407
0.981064
0.980059
0.979306
0.978715
0.978269
0.977971
0.977765
0.977572
0.977376
0.977217
0.977115
0.977045
0.976984
0.97698
0.977122
0.977478
0.978056
0.978855
0.979913
0.981321
0.983169
0.985491
0.988254
0.99139
0.994856
0.99867
1.00291
1.00765
1.0129
1.0185
1.02411
1.02922
1.03326
1.03576
1.03645
1.03534
1.03271
1.02902
1.02478
1.02045
1.01638
1.01277
1.00973
1.00727
1.00533
1.00386
1.00276
1.00196
1.00138
1.00098
1.00069
1.00049
1.00035
1.01817
1.02341
1.02853
1.03279
1.03564
1.03686
1.03652
1.03484
1.03209
1.02858
1.02455
1.02023
1.01578
1.01136
1.0071
1.00305
0.999279
0.995841
0.99279
0.990114
0.987782
0.985799
0.98417
0.98285
0.981767
0.980889
0.980221
0.979733
0.979351
0.979029
0.978784
0.978646
0.978598
0.97861
0.978691
0.978905
0.979317
0.979954
0.980812
0.9819
0.983276
0.98502
0.987192
0.98979
0.992762
0.99605
0.999641
1.00358
1.00795
1.01277
1.01797
1.02329
1.02832
1.03253
1.03541
1.03662
1.03607
1.03393
1.03059
1.02652
1.02221
1.01803
1.01424
1.01097
1.00828
1.00614
1.00448
1.00322
1.0023
1.00163
1.00115
1.00082
1.00058
1.00042
1.0003
1.0152
1.02007
1.02523
1.03001
1.03378
1.03611
1.03689
1.03623
1.03439
1.03162
1.0282
1.02433
1.02022
1.01604
1.01191
1.00791
1.00412
1.00062
0.997443
0.994572
0.992021
0.989817
0.987949
0.986362
0.985022
0.983931
0.983076
0.982404
0.981864
0.981449
0.981181
0.981055
0.981041
0.981126
0.981343
0.981753
0.98239
0.983253
0.984336
0.985668
0.987312
0.989332
0.991748
0.994534
0.997635
1.00102
1.00469
1.00872
1.01314
1.01793
1.02291
1.02774
1.03195
1.03506
1.03666
1.03658
1.03489
1.03191
1.02806
1.02382
1.01959
1.01566
1.01221
1.00931
1.00697
1.00513
1.00372
1.00267
1.0019
1.00135
1.00095
1.00068
1.00048
1.00035
1.00026
1.01251
1.01683
1.02174
1.02673
1.03115
1.03447
1.03638
1.03684
1.03599
1.0341
1.03139
1.0281
1.02444
1.02059
1.01669
1.01283
1.00912
1.00563
1.00238
0.999395
0.996714
0.994358
0.992302
0.990515
0.988991
0.987733
0.986716
0.98589
0.985232
0.984753
0.984462
0.984336
0.98435
0.984509
0.984853
0.985423
0.98623
0.987264
0.988528
0.990062
0.991924
0.99415
0.996732
0.999627
1.00279
1.00622
1.00993
1.01399
1.01838
1.02298
1.02752
1.03161
1.03479
1.03663
1.03692
1.03563
1.03299
1.02938
1.02526
1.02103
1.01701
1.01341
1.01034
1.00781
1.0058
1.00424
1.00306
1.00219
1.00156
1.00111
1.00078
1.00056
1.0004
1.00029
1.00022
1.01016
1.01386
1.0183
1.02315
1.02791
1.03198
1.03492
1.03651
1.03677
1.03585
1.03397
1.03138
1.02829
1.02488
1.0213
1.01769
1.01414
1.01072
1.00749
1.00449
1.00176
0.99931
0.997119
0.995194
0.993547
0.992169
0.991021
0.990077
0.989338
0.988818
0.988507
0.988376
0.988413
0.988639
0.989092
0.989786
0.990715
0.991874
0.99328
0.994976
0.997001
0.999362
1.00203
1.00497
1.00814
1.01157
1.01528
1.01927
1.02348
1.02768
1.03155
1.03466
1.03662
1.03714
1.03616
1.03383
1.03047
1.02649
1.02231
1.01825
1.01454
1.01132
1.00864
1.00647
1.00477
1.00347
1.0025
1.00178
1.00127
1.0009
1.00064
1.00046
1.00033
1.00025
1.00018
1.00815
1.01125
1.01508
1.01954
1.02427
1.02877
1.03252
1.03517
1.03656
1.03672
1.0358
1.03403
1.03163
1.02877
1.02563
1.02235
1.01904
1.0158
1.01268
1.00974
1.00702
1.00453
1.00228
1.00029
0.998566
0.997095
0.995854
0.99484
0.994062
0.993514
0.993178
0.993036
0.993099
0.99339
0.993927
0.994708
0.995721
0.99697
0.998483
1.00029
1.00242
1.00484
1.00753
1.01045
1.01359
1.01697
1.02058
1.02439
1.02821
1.03178
1.03472
1.03665
1.03729
1.03653
1.03445
1.03132
1.0275
1.0234
1.01934
1.01557
1.01224
1.00943
1.00713
1.0053
1.00388
1.00281
1.00202
1.00144
1.00102
1.00073
1.00052
1.00038
1.00028
1.00021
1.00015
1.00645
1.009
1.01222
1.01612
1.02052
1.02508
1.02933
1.03282
1.03526
1.03654
1.03669
1.03587
1.03427
1.03209
1.0295
1.02667
1.02371
1.02072
1.01779
1.01498
1.01234
1.00989
1.00765
1.00566
1.0039
1.00238
1.0011
1.00005
0.999247
0.99868
0.99833
0.998194
0.998287
0.998626
0.999216
1.00005
1.00111
1.00243
1.00401
1.00589
1.00805
1.01047
1.01311
1.01596
1.01901
1.02226
1.02566
1.02908
1.03228
1.03496
1.03676
1.03741
1.03676
1.03486
1.03192
1.02827
1.02427
1.02025
1.01646
1.01307
1.01016
1.00775
1.00581
1.00429
1.00313
1.00226
1.00161
1.00115
1.00082
1.00059
1.00042
1.00031
1.00023
1.00017
1.00013
1.00506
1.00711
1.00976
1.01305
1.01694
1.02123
1.0256
1.02961
1.03289
1.03521
1.03646
1.03668
1.03602
1.03466
1.03276
1.03048
1.02797
1.02534
1.02269
1.02009
1.0176
1.01525
1.0131
1.01115
1.00941
1.00789
1.0066
1.00556
1.00475
1.00418
1.00382
1.0037
1.00382
1.0042
1.00481
1.00567
1.00676
1.00811
1.00973
1.01161
1.01375
1.01611
1.01865
1.02137
1.02425
1.02723
1.03023
1.03303
1.03537
1.03694
1.03749
1.03687
1.03508
1.03229
1.0288
1.02491
1.02096
1.01719
1.01377
1.0108
1.00831
1.00628
1.00467
1.00343
1.00249
1.00179
1.00128
1.00091
1.00065
1.00047
1.00034
1.00025
1.00019
1.00014
1.00011
1.00392
1.00556
1.00769
1.0104
1.0137
1.01752
1.02167
1.02582
1.02963
1.03275
1.03501
1.0363
1.03667
1.03624
1.03515
1.03357
1.03163
1.02947
1.0272
1.0249
1.02265
1.02048
1.01846
1.01661
1.01494
1.01347
1.01223
1.01121
1.01042
1.00985
1.00951
1.00941
1.00956
1.00995
1.01058
1.01144
1.01253
1.01388
1.01549
1.01732
1.01937
1.0216
1.02397
1.02647
1.02904
1.03159
1.03395
1.0359
1.03717
1.03753
1.03684
1.03509
1.03242
1.02906
1.0253
1.02145
1.01773
1.01432
1.01132
1.00879
1.0067
1.00502
1.00371
1.00271
1.00196
1.00141
1.00101
1.00072
1.00052
1.00037
1.00027
1.0002
1.00015
1.00012
1.00009
1.003
1.00429
1.00599
1.00818
1.0109
1.01415
1.01785
1.02182
1.02577
1.02938
1.0324
1.03464
1.03604
1.03661
1.03645
1.03568
1.03446
1.03289
1.03111
1.02922
1.02729
1.02539
1.02357
1.02188
1.02034
1.01897
1.0178
1.01684
1.01609
1.01556
1.01525
1.01517
1.01533
1.01573
1.01635
1.01719
1.01827
1.01958
1.0211
1.02283
1.02472
1.02673
1.02884
1.03098
1.03307
1.03497
1.03648
1.03739
1.03749
1.03667
1.0349
1.03229
1.02905
1.02543
1.02169
1.01806
1.0147
1.01172
1.00917
1.00704
1.00533
1.00397
1.00292
1.00212
1.00153
1.0011
1.00078
1.00056
1.00041
1.0003
1.00022
1.00016
1.00013
1.0001
1.00007
1.00227
1.00328
1.00462
1.00635
1.00854
1.01122
1.01439
1.01793
1.02169
1.02543
1.02888
1.03181
1.03408
1.03561
1.03642
1.03656
1.03616
1.03532
1.03416
1.03279
1.03129
1.02975
1.02822
1.02676
1.02541
1.0242
1.02315
1.02227
1.02159
1.02111
1.02085
1.0208
1.02097
1.02135
1.02194
1.02274
1.02375
1.02497
1.02636
1.02789
1.02952
1.03122
1.03292
1.03454
1.03595
1.037
1.03751
1.03731
1.0363
1.03447
1.0319
1.02876
1.02528
1.02168
1.01817
1.01489
1.01196
1.00943
1.00731
1.00557
1.00418
1.00309
1.00226
1.00164
1.00118
1.00084
1.00061
1.00044
1.00032
1.00023
1.00017
1.00013
1.0001
1.00008
1.00006
1.0017
1.00248
1.00352
1.00488
1.00661
1.00877
1.01138
1.0144
1.01776
1.02131
1.02483
1.02812
1.03098
1.03329
1.03497
1.03602
1.0365
1.03647
1.03604
1.0353
1.03434
1.03326
1.03213
1.03099
1.0299
1.02889
1.02801
1.02727
1.0267
1.02629
1.02608
1.02605
1.02622
1.02657
1.02711
1.02783
1.02873
1.02978
1.03094
1.03218
1.03346
1.0347
1.03583
1.03675
1.03734
1.03743
1.03691
1.03569
1.03378
1.03123
1.02819
1.02485
1.02141
1.01804
1.01489
1.01205
1.00957
1.00747
1.00574
1.00434
1.00323
1.00238
1.00173
1.00125
1.0009
1.00064
1.00046
1.00034
1.00025
1.00018
1.00014
1.00011
1.00008
1.00006
1.00005
1.00126
1.00185
1.00265
1.0037
1.00506
1.00676
1.00885
1.01135
1.01421
1.01736
1.02067
1.02398
1.0271
1.02989
1.03222
1.03405
1.03534
1.03612
1.03647
1.03645
1.03613
1.03561
1.03495
1.03422
1.03347
1.03275
1.03209
1.03153
1.03109
1.03079
1.03063
1.03063
1.03078
1.03108
1.03154
1.03213
1.03284
1.03364
1.03448
1.03533
1.03612
1.03678
1.03722
1.03734
1.03703
1.0362
1.03478
1.03278
1.03025
1.02732
1.02414
1.02088
1.01769
1.01468
1.01196
1.00957
1.00753
1.00583
1.00444
1.00333
1.00247
1.00181
1.00131
1.00094
1.00068
1.00049
1.00035
1.00026
1.00019
1.00014
1.00011
1.00008
1.00007
1.00005
1.00004
1.00092
1.00137
1.00197
1.00278
1.00383
1.00516
1.0068
1.0088
1.01115
1.01382
1.01673
1.0198
1.02287
1.02582
1.02852
1.03086
1.03278
1.03427
1.03534
1.03603
1.03639
1.03648
1.03636
1.03611
1.03576
1.03539
1.03502
1.03468
1.03441
1.03423
1.03414
1.03416
1.03428
1.03451
1.03483
1.03523
1.03569
1.03616
1.0366
1.03695
1.03717
1.03717
1.03688
1.03621
1.0351
1.03351
1.03145
1.02896
1.02616
1.02315
1.02009
1.0171
1.01428
1.01171
1.00944
1.00748
1.00583
1.00447
1.00338
1.00252
1.00186
1.00135
1.00098
1.0007
1.00051
1.00036
1.00026
1.00019
1.00015
1.00011
1.00009
1.00007
1.00005
1.00004
1.00003
1.00066
1.001
1.00146
1.00207
1.00286
1.00388
1.00516
1.00673
1.0086
1.01078
1.01324
1.01591
1.01871
1.02155
1.0243
1.02686
1.02916
1.03114
1.03278
1.03406
1.03503
1.0357
1.03614
1.03639
1.03649
1.03649
1.03643
1.03635
1.03627
1.03622
1.03621
1.03625
1.03633
1.03645
1.03661
1.03677
1.03692
1.03701
1.03699
1.03683
1.03646
1.03583
1.03487
1.03355
1.03185
1.02977
1.02736
1.02471
1.02191
1.01907
1.0163
1.01369
1.01129
1.00916
1.00731
1.00574
1.00444
1.00338
1.00254
1.00188
1.00138
1.001
1.00072
1.00052
1.00037
1.00027
1.0002
1.00015
1.00011
1.00009
1.00007
1.00005
1.00004
1.00003
1.00003
1.00048
1.00072
1.00106
1.00152
1.00212
1.0029
1.00387
1.00508
1.00655
1.00828
1.01027
1.0125
1.01491
1.01745
1.02002
1.02255
1.02495
1.02715
1.02912
1.03081
1.03223
1.03339
1.03429
1.03499
1.0355
1.03587
1.03613
1.03631
1.03643
1.03651
1.03657
1.03661
1.03664
1.03665
1.03662
1.03654
1.03636
1.03607
1.03562
1.03498
1.03411
1.03296
1.03152
1.02978
1.02774
1.02546
1.02299
1.02042
1.01783
1.01531
1.01292
1.01073
1.00876
1.00704
1.00557
1.00434
1.00333
1.00252
1.00188
1.00138
1.00101
1.00073
1.00052
1.00037
1.00027
1.0002
1.00015
1.00011
1.00008
1.00007
1.00005
1.00004
1.00003
1.00003
1.00002
1.00033
1.00052
1.00077
1.00111
1.00156
1.00214
1.00288
1.0038
1.00492
1.00627
1.00784
1.00964
1.01163
1.01377
1.01603
1.01833
1.02061
1.0228
1.02486
1.02674
1.02841
1.02986
1.0311
1.03213
1.03297
1.03364
1.03416
1.03455
1.03485
1.03505
1.03518
1.03522
1.03519
1.03508
1.03488
1.03456
1.03411
1.03351
1.03272
1.03172
1.0305
1.02904
1.02733
1.02541
1.0233
1.02105
1.01874
1.01642
1.01416
1.01201
1.01003
1.00825
1.00668
1.00532
1.00417
1.00323
1.00246
1.00184
1.00137
1.001
1.00072
1.00052
1.00037
1.00027
1.00019
1.00014
1.00011
1.00008
1.00006
1.00005
1.00004
1.00003
1.00003
1.00002
1.00002
1.00024
1.00037
1.00055
1.0008
1.00113
1.00157
1.00212
1.00281
1.00366
1.00469
1.00591
1.00731
1.0089
1.01065
1.01253
1.0145
1.01652
1.01853
1.02049
1.02234
1.02407
1.02563
1.02702
1.02823
1.02927
1.03013
1.03084
1.03139
1.0318
1.03209
1.03225
1.0323
1.03222
1.03202
1.03168
1.0312
1.03056
1.02974
1.02874
1.02755
1.02616
1.02458
1.02283
1.02094
1.01895
1.0169
1.01486
1.01287
1.01098
1.00923
1.00764
1.00623
1.005
1.00395
1.00307
1.00236
1.00178
1.00132
1.00097
1.00071
1.00051
1.00036
1.00026
1.00019
1.00014
1.0001
1.00008
1.00006
1.00005
1.00004
1.00003
1.00003
1.00002
1.00002
1.00001
1.00017
1.00026
1.0004
1.00058
1.00082
1.00114
1.00155
1.00206
1.0027
1.00347
1.0044
1.00547
1.00671
1.00809
1.00961
1.01123
1.01292
1.01465
1.01638
1.01807
1.01969
1.0212
1.02259
1.02384
1.02494
1.02588
1.02666
1.02729
1.02777
1.0281
1.02828
1.02832
1.02821
1.02795
1.02754
1.02697
1.02623
1.02533
1.02425
1.02301
1.02162
1.02009
1.01845
1.01674
1.01498
1.01322
1.01151
1.00988
1.00835
1.00696
1.00571
1.00461
1.00367
1.00288
1.00222
1.00169
1.00126
1.00093
1.00068
1.00049
1.00035
1.00025
1.00018
1.00013
1.00009
1.00007
1.00005
1.00004
1.00003
1.00003
1.00002
1.00002
1.00002
1.00001
1.00001
1.00012
1.00019
1.00028
1.00041
1.00059
1.00082
1.00112
1.0015
1.00197
1.00255
1.00324
1.00405
1.00499
1.00606
1.00724
1.00853
1.00989
1.01132
1.01277
1.01422
1.01564
1.01699
1.01827
1.01944
1.02049
1.0214
1.02218
1.02281
1.02329
1.02363
1.02381
1.02384
1.02371
1.02344
1.023
1.02242
1.02168
1.02078
1.01975
1.01859
1.01731
1.01594
1.0145
1.01303
1.01156
1.01011
1.00873
1.00742
1.00622
1.00514
1.00419
1.00336
1.00265
1.00206
1.00157
1.00119
1.00088
1.00064
1.00046
1.00033
1.00023
1.00017
1.00012
1.00008
1.00006
1.00005
1.00004
1.00003
1.00003
1.00002
1.00002
1.00002
1.00001
1.00001
1.00001
1.00008
1.00013
1.00021
1.0003
1.00042
1.00059
1.00081
1.00109
1.00143
1.00185
1.00236
1.00297
1.00367
1.00448
1.00538
1.00637
1.00744
1.00857
1.00974
1.01093
1.01211
1.01326
1.01435
1.01538
1.01631
1.01713
1.01784
1.01842
1.01886
1.01917
1.01934
1.01937
1.01924
1.01897
1.01856
1.01801
1.01733
1.01652
1.0156
1.01457
1.01347
1.01231
1.01111
1.00991
1.00872
1.00757
1.00648
1.00547
1.00455
1.00373
1.00301
1.00239
1.00187
1.00144
1.00109
1.00081
1.00059
1.00043
1.0003
1.00021
1.00015
1.00011
1.00007
1.00005
1.00004
1.00003
1.00003
1.00002
1.00002
1.00002
1.00001
1.00001
1.00001
1.00001
1.00001
1.00006
1.0001
1.00014
1.00022
1.00031
1.00043
1.00058
1.00078
1.00103
1.00134
1.00171
1.00216
1.00268
1.00328
1.00395
1.0047
1.00552
1.00639
1.0073
1.00824
1.00918
1.01011
1.01101
1.01186
1.01264
1.01333
1.01394
1.01444
1.01483
1.01509
1.01523
1.01525
1.01514
1.0149
1.01454
1.01406
1.01346
1.01277
1.01199
1.01114
1.01023
1.00929
1.00833
1.00737
1.00644
1.00555
1.00472
1.00396
1.00326
1.00265
1.00212
1.00167
1.00129
1.00098
1.00074
1.00054
1.00039
1.00028
1.00019
1.00013
1.00009
1.00006
1.00004
1.00003
1.00003
1.00002
1.00002
1.00002
1.00001
1.00001
1.00001
1.00001
1.00001
1.00001
1.00001
1.00004
1.00007
1.00011
1.00016
1.00022
1.00031
1.00042
1.00056
1.00074
1.00096
1.00124
1.00156
1.00193
1.00237
1.00287
1.00343
1.00404
1.00469
1.00539
1.00611
1.00684
1.00756
1.00827
1.00895
1.00958
1.01014
1.01063
1.01104
1.01136
1.01158
1.01169
1.0117
1.0116
1.0114
1.01109
1.0107
1.01021
1.00964
1.00901
1.00832
1.0076
1.00686
1.00611
1.00538
1.00467
1.00399
1.00337
1.0028
1.00229
1.00185
1.00146
1.00114
1.00087
1.00065
1.00048
1.00034
1.00024
1.00017
1.00011
1.00008
1.00005
1.00004
1.00002
1.00002
1.00001
1.00001
1.00001
1.00001
1.00001
1.00001
1.00001
1.00001
1.00001
1
1
1.00004
1.00005
1.00008
1.00012
1.00016
1.00023
1.0003
1.00041
1.00054
1.00069
1.00088
1.00112
1.00139
1.00171
1.00207
1.00248
1.00293
1.00341
1.00392
1.00446
1.00502
1.00557
1.00611
1.00663
1.00712
1.00756
1.00795
1.00826
1.00851
1.00868
1.00877
1.00877
1.00869
1.00852
1.00828
1.00795
1.00757
1.00712
1.00662
1.00609
1.00553
1.00497
1.0044
1.00384
1.00331
1.00282
1.00236
1.00194
1.00157
1.00125
1.00098
1.00075
1.00056
1.00042
1.0003
1.00021
1.00014
1.00009
1.00006
1.00004
1.00002
1.00002
1.00001
1.00001
1.00001
1.00001
1.00001
1.00001
1.00001
1.00001
1.00001
1
1
1
1
1.00003
1.00004
1.00006
1.00009
1.00012
1.00017
1.00022
1.0003
1.00039
1.0005
1.00064
1.0008
1.001
1.00122
1.00148
1.00177
1.0021
1.00245
1.00283
1.00322
1.00363
1.00404
1.00444
1.00484
1.0052
1.00553
1.00582
1.00607
1.00626
1.00638
1.00644
1.00644
1.00638
1.00625
1.00605
1.0058
1.0055
1.00515
1.00477
1.00437
1.00395
1.00352
1.0031
1.00269
1.0023
1.00194
1.00161
1.00131
1.00105
1.00082
1.00063
1.00048
1.00035
1.00025
1.00017
1.00012
1.00007
1.00004
1.00003
1.00001
1.00001
1
1
1
1
1
1
1
1
1
1
1
1
1
1
1.00002
1.00003
1.00005
1.00007
1.00009
1.00013
1.00017
1.00022
1.00028
1.00036
1.00046
1.00057
1.00071
1.00087
1.00106
1.00126
1.00149
1.00175
1.00202
1.0023
1.0026
1.00289
1.00319
1.00347
1.00374
1.00399
1.0042
1.00438
1.00452
1.00461
1.00465
1.00465
1.00459
1.00449
1.00434
1.00415
1.00392
1.00366
1.00337
1.00307
1.00276
1.00245
1.00214
1.00184
1.00156
1.0013
1.00107
1.00086
1.00068
1.00052
1.00039
1.00029
1.0002
1.00014
1.00009
1.00005
1.00003
1.00001
1
0.999998
0.999996
0.999996
0.999996
0.999998
0.999999
1
1
1
1
1
1
1
1
1
1
1.00002
1.00003
1.00004
1.00005
1.00007
1.00009
1.00013
1.00016
1.00021
1.00026
1.00033
1.00042
1.00051
1.00062
1.00075
1.0009
1.00106
1.00124
1.00143
1.00163
1.00184
1.00205
1.00226
1.00247
1.00266
1.00283
1.00299
1.00311
1.00321
1.00327
1.0033
1.0033
1.00325
1.00317
1.00305
1.00291
1.00274
1.00255
1.00234
1.00212
1.00189
1.00166
1.00144
1.00123
1.00103
1.00085
1.00068
1.00054
1.00041
1.00031
1.00023
1.00016
1.0001
1.00006
1.00003
1.00001
1
0.999994
0.999991
0.99999
0.99999
0.999992
0.999994
0.999996
0.999997
0.999999
1
1
1
1
1
1
1
1
1
1.00001
1.00002
1.00003
1.00004
1.00006
1.00007
1.00009
1.00012
1.00016
1.0002
1.00024
1.0003
1.00037
1.00045
1.00054
1.00064
1.00075
1.00088
1.00101
1.00115
1.00129
1.00144
1.00159
1.00173
1.00187
1.00199
1.0021
1.00218
1.00225
1.00229
1.00231
1.0023
1.00226
1.0022
1.00211
1.002
1.00188
1.00173
1.00158
1.00142
1.00126
1.0011
1.00094
1.00079
1.00066
1.00053
1.00042
1.00032
1.00024
1.00017
1.00011
1.00007
1.00004
1.00002
1
0.999991
0.999986
0.999983
0.999983
0.999985
0.999987
0.999989
0.999992
0.999994
0.999996
0.999998
0.999999
1
1
1
1
1
1
1
1
1.00001
1.00002
1.00002
1.00003
1.00004
1.00006
1.00008
1.00009
1.00012
1.00015
1.00018
1.00022
1.00027
1.00032
1.00039
1.00046
1.00053
1.00062
1.00071
1.00081
1.0009
1.001
1.00111
1.00121
1.0013
1.00138
1.00145
1.00151
1.00155
1.00158
1.00159
1.00157
1.00154
1.0015
1.00143
1.00135
1.00126
1.00116
1.00105
1.00093
1.00082
1.0007
1.0006
1.00049
1.0004
1.00031
1.00024
1.00018
1.00012
1.00008
1.00005
1.00002
1
0.999989
0.999981
0.999978
0.999977
0.999978
0.99998
0.999983
0.999986
0.999989
0.999992
0.999994
0.999996
0.999998
0.999999
1
1
1
1
1
1
1
1
1.00001
1.00002
1.00002
1.00003
1.00004
1.00005
1.00006
1.00007
1.00009
1.00011
1.00014
1.00017
1.0002
1.00023
1.00028
1.00033
1.00038
1.00044
1.0005
1.00056
1.00063
1.0007
1.00077
1.00083
1.00089
1.00095
1.001
1.00103
1.00106
1.00107
1.00107
1.00106
1.00104
1.001
1.00095
1.00089
1.00083
1.00075
1.00067
1.00059
1.00051
1.00043
1.00036
1.00029
1.00023
1.00017
1.00012
1.00008
1.00005
1.00002
1
0.999989
0.99998
0.999975
0.999972
0.999972
0.999974
0.999977
0.99998
0.999983
0.999986
0.999989
0.999992
0.999994
0.999996
0.999997
0.999999
0.999999
1
1
1
1
1
1
1
1
1.00001
1.00002
1.00002
1.00003
1.00004
1.00005
1.00006
1.00007
1.00009
1.00011
1.00013
1.00015
1.00018
1.0002
1.00024
1.00027
1.00031
1.00035
1.00039
1.00044
1.00049
1.00053
1.00057
1.00061
1.00064
1.00067
1.0007
1.00071
1.00072
1.00072
1.0007
1.00068
1.00066
1.00062
1.00057
1.00053
1.00047
1.00042
1.00036
1.00031
1.00025
1.0002
1.00016
1.00012
1.00008
1.00005
1.00002
1
0.999989
0.999979
0.999972
0.999968
0.999967
0.999968
0.99997
0.999973
0.999977
0.999981
0.999985
0.999988
0.999991
0.999993
0.999995
0.999997
0.999998
0.999999
0.999999
0.999999
1
1
1
1
1
1
1.00001
1.00001
1.00001
1.00002
1.00002
1.00003
1.00004
1.00005
1.00006
1.00007
1.00008
1.00009
1.00011
1.00013
1.00015
1.00017
1.0002
1.00022
1.00025
1.00028
1.00031
1.00034
1.00036
1.00039
1.00042
1.00044
1.00046
1.00047
1.00047
1.00048
1.00047
1.00046
1.00044
1.00042
1.00039
1.00036
1.00033
1.00029
1.00025
1.00021
1.00017
1.00014
1.0001
1.00007
1.00005
1.00002
1.00001
0.999991
0.999979
0.999972
0.999967
0.999965
0.999964
0.999966
0.999969
0.999972
0.999976
0.999979
0.999982
0.999985
0.999989
0.999991
0.999994
0.999995
0.999997
0.999998
0.999999
1
1
1
1
1
1
1
1
1.00001
1.00001
1.00001
1.00001
1.00002
1.00002
1.00003
1.00004
1.00004
1.00005
1.00006
1.00008
1.00009
1.0001
1.00011
1.00013
1.00015
1.00016
1.00018
1.0002
1.00022
1.00024
1.00026
1.00027
1.00028
1.0003
1.00031
1.00031
1.00031
1.00031
1.0003
1.0003
1.00028
1.00026
1.00024
1.00022
1.00019
1.00017
1.00014
1.00011
1.00009
1.00006
1.00004
1.00002
1.00001
0.999991
0.99998
0.999972
0.999967
0.999964
0.999963
0.999963
0.999965
0.999967
0.99997
0.999974
0.999978
0.999982
0.999985
0.999988
0.99999
0.999993
0.999995
0.999996
0.999997
0.999998
0.999998
0.999999
0.999999
1
1
1
1
1
1
1
1.00001
1.00001
1.00001
1.00001
1.00002
1.00002
1.00003
1.00004
1.00004
1.00005
1.00006
1.00007
1.00008
1.00009
1.00009
1.00011
1.00012
1.00013
1.00014
1.00015
1.00017
1.00018
1.00019
1.0002
1.0002
1.0002
1.00021
1.00021
1.0002
1.00019
1.00018
1.00017
1.00016
1.00014
1.00013
1.00011
1.00009
1.00007
1.00005
1.00003
1.00002
1
0.999992
0.999983
0.999975
0.999969
0.999965
0.999962
0.999962
0.999962
0.999964
0.999967
0.999971
0.999975
0.999978
0.999981
0.999984
0.999987
0.99999
0.999992
0.999994
0.999995
0.999996
0.999998
0.999998
0.999999
0.999999
1
1
1
1
1
1
1
1
1
1.00001
1.00001
1.00001
1.00002
1.00002
1.00002
1.00003
1.00003
1.00004
1.00005
1.00005
1.00006
1.00007
1.00008
1.00008
1.00009
1.0001
1.00011
1.00011
1.00012
1.00012
1.00013
1.00013
1.00014
1.00014
1.00014
1.00013
1.00013
1.00012
1.00012
1.00011
1.00009
1.00008
1.00007
1.00006
1.00004
1.00003
1.00002
1
0.999995
0.999986
0.999978
0.999971
0.999967
0.999965
0.999964
0.999964
0.999965
0.999967
0.999969
0.999971
0.999974
0.999977
0.999981
0.999984
0.999986
0.999989
0.999991
0.999993
0.999995
0.999997
0.999997
0.999998
0.999998
0.999999
0.999999
1
1
1
1
1
1
1
1.00001
1
1
1.00001
1.00001
1.00001
1.00001
1.00002
1.00002
1.00003
1.00003
1.00004
1.00004
1.00005
1.00005
1.00006
1.00006
1.00007
1.00007
1.00008
1.00008
1.00009
1.00009
1.00009
1.00009
1.00009
1.00009
1.00009
1.00009
1.00008
1.00008
1.00007
1.00006
1.00005
1.00004
1.00003
1.00002
1.00001
1.00001
0.999997
0.999989
0.999982
0.999977
0.999973
0.999969
0.999967
0.999965
0.999965
0.999966
0.999968
0.99997
0.999973
0.999977
0.99998
0.999982
0.999984
0.999987
0.999989
0.999991
0.999993
0.999994
0.999995
0.999996
0.999998
0.999999
0.999999
0.999999
0.999999
1
1
1
1
1
1
1
1
1.00001
1.00001
1
1.00001
1.00001
1.00001
1.00001
1.00002
1.00002
1.00002
1.00003
1.00003
1.00004
1.00004
1.00004
1.00005
1.00005
1.00006
1.00006
1.00006
1.00006
1.00006
1.00007
1.00007
1.00006
1.00006
1.00006
1.00006
1.00005
1.00005
1.00004
1.00003
1.00003
1.00002
1.00001
1.00001
1
0.999994
0.999987
0.999982
0.999977
0.999973
0.999971
0.99997
0.99997
0.99997
0.99997
0.999972
0.999973
0.999975
0.999977
0.999979
0.999982
0.999985
0.999988
0.99999
0.999991
0.999993
0.999995
0.999996
0.999997
0.999998
0.999998
0.999998
0.999999
0.999999
0.999999
0.999999
1
1
1
1
1
1
1
0.999999
1
1.00001
1
1
1.00001
1.00001
1.00001
1.00001
1.00002
1.00002
1.00002
1.00003
1.00003
1.00003
1.00004
1.00004
1.00004
1.00004
1.00005
1.00005
1.00005
1.00005
1.00005
1.00005
1.00004
1.00004
1.00004
1.00003
1.00003
1.00003
1.00002
1.00001
1.00001
1
0.999997
0.999992
0.999988
0.999984
0.999981
0.999978
0.999976
0.999974
0.999973
0.999973
0.999973
0.999975
0.999976
0.999978
0.99998
0.999983
0.999985
0.999987
0.999988
0.99999
0.999992
0.999993
0.999994
0.999995
0.999996
0.999997
0.999998
0.999999
0.999999
0.999999
1
1
1
1
1
1
1
1
1
1
1
1
1
1.00001
1.00001
1.00001
1.00001
1.00001
1.00002
1.00001
1.00001
1.00002
1.00002
1.00002
1.00002
1.00003
1.00003
1.00003
1.00003
1.00003
1.00003
1.00003
1.00003
1.00003
1.00003