/*--------------------------------*- C++ -*----------------------------------*\
  =========                 |
  \\      /  F ield         | OpenFOAM: The Open Source CFD Toolbox
   \\    /   O peration     | Website:  https://openfoam.org
    \\  /    A nd           | Version:  6
     \\/     M anipulation  |
\*---------------------------------------------------------------------------*/
FoamFile
{
    version     2.0;
    format      ascii;
    class       volVectorField;
    location    "2.51";
    object      U;
}
// * * * * * * * * * * * * * * * * * * * * * * * * * * * * * * * * * * * * * //

dimensions      [0 1 -1 0 0 0 0];

internalField   nonuniform List<vector> 
5625
(
(0.8944 0.4472 0)
(0.8944 0.4472 0)
(0.8944 0.4472 0)
(0.8944 0.4472 0)
(0.8944 0.4472 0)
(0.8944 0.4472 0)
(0.8944 0.4472 0)
(0.8944 0.4472 0)
(0.8944 0.4472 0)
(0.8944 0.4472 0)
(0.8944 0.4472 0)
(0.8944 0.4472 0)
(0.8944 0.4472 0)
(0.8944 0.4472 0)
(0.8944 0.4472 0)
(0.8944 0.4472 0)
(0.8944 0.4472 0)
(0.8944 0.4472 0)
(0.8944 0.4472 0)
(0.8944 0.4472 0)
(0.8944 0.4472 0)
(0.8944 0.4472 0)
(0.8944 0.4472 0)
(0.8944 0.4472 0)
(0.8944 0.4472 0)
(0.8944 0.4472 0)
(0.8944 0.4472 0)
(0.8944 0.4472 0)
(0.894401 0.4472 0)
(0.8944 0.4472 0)
(0.8944 0.4472 0)
(0.8944 0.4472 0)
(0.8944 0.4472 0)
(0.8944 0.4472 0)
(0.8944 0.4472 0)
(0.8944 0.4472 0)
(0.8944 0.4472 0)
(0.8944 0.4472 0)
(0.8944 0.4472 0)
(0.8944 0.4472 0)
(0.8944 0.4472 0)
(0.894401 0.447201 0)
(0.8944 0.447199 0)
(0.894401 0.447201 0)
(0.894402 0.447199 0)
(0.894404 0.4472 0)
(0.894406 0.447201 0)
(0.894407 0.447199 0)
(0.894413 0.447201 0)
(0.894419 0.4472 0)
(0.894428 0.447199 0)
(0.894438 0.447199 0)
(0.894452 0.447197 0)
(0.894468 0.447195 0)
(0.894483 0.447189 0)
(0.894497 0.447176 0)
(0.894499 0.447154 0)
(0.894475 0.447114 0)
(0.894408 0.447037 0)
(0.894256 0.4469 0)
(0.893976 0.446662 0)
(0.893491 0.446259 0)
(0.892708 0.445592 0)
(0.89152 0.444523 0)
(0.889795 0.442853 0)
(0.887445 0.440319 0)
(0.884439 0.436594 0)
(0.880916 0.431287 0)
(0.877321 0.423978 0)
(0.874472 0.414241 0)
(0.873527 0.401724 0)
(0.875875 0.386044 0)
(0.882867 0.366743 0)
(0.895472 0.343489 0)
(0.914219 0.316088 0)
(0.8944 0.4472 0)
(0.8944 0.4472 0)
(0.8944 0.4472 0)
(0.8944 0.4472 0)
(0.8944 0.4472 0)
(0.8944 0.4472 0)
(0.8944 0.4472 0)
(0.8944 0.4472 0)
(0.8944 0.4472 0)
(0.8944 0.4472 0)
(0.8944 0.4472 0)
(0.8944 0.4472 0)
(0.8944 0.4472 0)
(0.8944 0.4472 0)
(0.8944 0.4472 0)
(0.8944 0.4472 0)
(0.8944 0.4472 0)
(0.8944 0.4472 0)
(0.8944 0.4472 0)
(0.8944 0.4472 0)
(0.8944 0.4472 0)
(0.8944 0.4472 0)
(0.8944 0.4472 0)
(0.8944 0.4472 0)
(0.8944 0.4472 0)
(0.8944 0.4472 0)
(0.8944 0.4472 0)
(0.8944 0.4472 0)
(0.8944 0.4472 0)
(0.8944 0.4472 0)
(0.8944 0.4472 0)
(0.8944 0.4472 0)
(0.8944 0.4472 0)
(0.894401 0.4472 0)
(0.894399 0.4472 0)
(0.8944 0.4472 0)
(0.8944 0.4472 0)
(0.8944 0.4472 0)
(0.8944 0.4472 0)
(0.8944 0.447201 0)
(0.8944 0.4472 0)
(0.894401 0.4472 0)
(0.8944 0.4472 0)
(0.894402 0.4472 0)
(0.894401 0.4472 0)
(0.894404 0.4472 0)
(0.894405 0.447201 0)
(0.894409 0.4472 0)
(0.894412 0.4472 0)
(0.894418 0.4472 0)
(0.894429 0.447201 0)
(0.894437 0.4472 0)
(0.894453 0.4472 0)
(0.894469 0.447199 0)
(0.894486 0.447194 0)
(0.894502 0.447188 0)
(0.894509 0.447166 0)
(0.894494 0.447136 0)
(0.89444 0.447067 0)
(0.894316 0.446948 0)
(0.894075 0.446735 0)
(0.893656 0.44637 0)
(0.892971 0.445767 0)
(0.891925 0.444787 0)
(0.890394 0.443259 0)
(0.888291 0.440925 0)
(0.885572 0.437494 0)
(0.882331 0.432589 0)
(0.878936 0.42583 0)
(0.876084 0.416828 0)
(0.874857 0.405264 0)
(0.876551 0.390881 0)
(0.882514 0.373337 0)
(0.893833 0.352337 0)
(0.911156 0.327734 0)
(0.8944 0.4472 0)
(0.8944 0.4472 0)
(0.8944 0.4472 0)
(0.8944 0.4472 0)
(0.8944 0.4472 0)
(0.8944 0.4472 0)
(0.8944 0.4472 0)
(0.8944 0.4472 0)
(0.8944 0.4472 0)
(0.8944 0.4472 0)
(0.8944 0.4472 0)
(0.8944 0.4472 0)
(0.8944 0.4472 0)
(0.8944 0.4472 0)
(0.8944 0.4472 0)
(0.8944 0.4472 0)
(0.8944 0.4472 0)
(0.8944 0.4472 0)
(0.8944 0.4472 0)
(0.8944 0.4472 0)
(0.8944 0.4472 0)
(0.8944 0.4472 0)
(0.8944 0.4472 0)
(0.8944 0.4472 0)
(0.8944 0.4472 0)
(0.8944 0.4472 0)
(0.8944 0.4472 0)
(0.8944 0.4472 0)
(0.8944 0.4472 0)
(0.8944 0.4472 0)
(0.8944 0.4472 0)
(0.8944 0.4472 0)
(0.8944 0.4472 0)
(0.8944 0.4472 0)
(0.8944 0.4472 0)
(0.8944 0.4472 0)
(0.8944 0.4472 0)
(0.8944 0.4472 0)
(0.8944 0.4472 0)
(0.894401 0.4472 0)
(0.894399 0.4472 0)
(0.894401 0.447201 0)
(0.8944 0.4472 0)
(0.894403 0.4472 0)
(0.8944 0.447201 0)
(0.894405 0.447201 0)
(0.894404 0.4472 0)
(0.894411 0.447201 0)
(0.894411 0.447201 0)
(0.894419 0.447201 0)
(0.894427 0.447203 0)
(0.894437 0.447202 0)
(0.894453 0.447203 0)
(0.894469 0.447202 0)
(0.894486 0.4472 0)
(0.894505 0.447195 0)
(0.894515 0.447181 0)
(0.894508 0.447154 0)
(0.894468 0.447098 0)
(0.894366 0.446992 0)
(0.894166 0.446808 0)
(0.893805 0.446481 0)
(0.893216 0.445941 0)
(0.892301 0.445058 0)
(0.890963 0.443671 0)
(0.889098 0.441555 0)
(0.886662 0.438416 0)
(0.883715 0.433929 0)
(0.880537 0.427726 0)
(0.877711 0.419453 0)
(0.876217 0.408832 0)
(0.877259 0.395662 0)
(0.882138 0.379735 0)
(0.892008 0.360842 0)
(0.907639 0.338851 0)
(0.8944 0.4472 0)
(0.8944 0.4472 0)
(0.8944 0.4472 0)
(0.8944 0.4472 0)
(0.8944 0.4472 0)
(0.8944 0.4472 0)
(0.8944 0.4472 0)
(0.8944 0.4472 0)
(0.8944 0.4472 0)
(0.8944 0.4472 0)
(0.8944 0.4472 0)
(0.8944 0.4472 0)
(0.8944 0.4472 0)
(0.8944 0.4472 0)
(0.8944 0.4472 0)
(0.8944 0.4472 0)
(0.8944 0.4472 0)
(0.8944 0.4472 0)
(0.8944 0.4472 0)
(0.8944 0.4472 0)
(0.8944 0.4472 0)
(0.8944 0.4472 0)
(0.8944 0.4472 0)
(0.8944 0.4472 0)
(0.8944 0.4472 0)
(0.8944 0.4472 0)
(0.8944 0.4472 0)
(0.8944 0.4472 0)
(0.8944 0.4472 0)
(0.8944 0.4472 0)
(0.8944 0.4472 0)
(0.8944 0.4472 0)
(0.8944 0.4472 0)
(0.8944 0.4472 0)
(0.8944 0.4472 0)
(0.8944 0.4472 0)
(0.8944 0.4472 0)
(0.8944 0.4472 0)
(0.8944 0.447201 0)
(0.8944 0.4472 0)
(0.8944 0.4472 0)
(0.8944 0.4472 0)
(0.8944 0.4472 0)
(0.894402 0.4472 0)
(0.894402 0.447201 0)
(0.894404 0.447201 0)
(0.894404 0.4472 0)
(0.894409 0.447201 0)
(0.89441 0.447201 0)
(0.894419 0.447203 0)
(0.894426 0.447203 0)
(0.894437 0.447204 0)
(0.89445 0.447205 0)
(0.894467 0.447206 0)
(0.894486 0.447205 0)
(0.894504 0.447203 0)
(0.894519 0.447193 0)
(0.894519 0.447173 0)
(0.894489 0.447125 0)
(0.89441 0.447037 0)
(0.894244 0.446878 0)
(0.893941 0.446591 0)
(0.893439 0.446112 0)
(0.892649 0.445328 0)
(0.891489 0.444084 0)
(0.889853 0.442182 0)
(0.887698 0.439348 0)
(0.885045 0.435279 0)
(0.882104 0.429637 0)
(0.879354 0.422085 0)
(0.877627 0.41238 0)
(0.878043 0.400357 0)
(0.881844 0.385909 0)
(0.890181 0.368928 0)
(0.903931 0.349332 0)
(0.8944 0.4472 0)
(0.8944 0.4472 0)
(0.8944 0.4472 0)
(0.8944 0.4472 0)
(0.8944 0.4472 0)
(0.8944 0.4472 0)
(0.8944 0.4472 0)
(0.8944 0.4472 0)
(0.8944 0.4472 0)
(0.8944 0.4472 0)
(0.8944 0.4472 0)
(0.8944 0.4472 0)
(0.8944 0.4472 0)
(0.8944 0.4472 0)
(0.8944 0.4472 0)
(0.8944 0.4472 0)
(0.8944 0.4472 0)
(0.8944 0.4472 0)
(0.8944 0.4472 0)
(0.8944 0.4472 0)
(0.8944 0.4472 0)
(0.8944 0.4472 0)
(0.8944 0.4472 0)
(0.8944 0.4472 0)
(0.8944 0.4472 0)
(0.8944 0.4472 0)
(0.894401 0.4472 0)
(0.894399 0.4472 0)
(0.8944 0.4472 0)
(0.8944 0.4472 0)
(0.8944 0.4472 0)
(0.8944 0.4472 0)
(0.894401 0.4472 0)
(0.8944 0.4472 0)
(0.8944 0.4472 0)
(0.8944 0.4472 0)
(0.8944 0.4472 0)
(0.894401 0.4472 0)
(0.894399 0.4472 0)
(0.8944 0.4472 0)
(0.8944 0.4472 0)
(0.8944 0.447199 0)
(0.894401 0.447201 0)
(0.894401 0.4472 0)
(0.894402 0.4472 0)
(0.894402 0.4472 0)
(0.894406 0.447201 0)
(0.894406 0.447201 0)
(0.894412 0.447202 0)
(0.894417 0.447202 0)
(0.894425 0.447204 0)
(0.894437 0.447205 0)
(0.894448 0.447206 0)
(0.894465 0.44721 0)
(0.894485 0.447211 0)
(0.894504 0.44721 0)
(0.89452 0.447204 0)
(0.894525 0.447189 0)
(0.894506 0.447151 0)
(0.894446 0.44708 0)
(0.894309 0.446942 0)
(0.894061 0.446697 0)
(0.893635 0.446278 0)
(0.892963 0.445588 0)
(0.891968 0.44449 0)
(0.890553 0.442796 0)
(0.888664 0.44027 0)
(0.886307 0.436618 0)
(0.883621 0.43153 0)
(0.880991 0.424695 0)
(0.879098 0.415876 0)
(0.878946 0.40494 0)
(0.881706 0.391844 0)
(0.88851 0.37657 0)
(0.900281 0.35912 0)
(0.8944 0.4472 0)
(0.8944 0.4472 0)
(0.8944 0.4472 0)
(0.8944 0.4472 0)
(0.8944 0.4472 0)
(0.8944 0.4472 0)
(0.8944 0.4472 0)
(0.8944 0.4472 0)
(0.8944 0.4472 0)
(0.8944 0.4472 0)
(0.8944 0.4472 0)
(0.8944 0.4472 0)
(0.8944 0.4472 0)
(0.8944 0.4472 0)
(0.8944 0.4472 0)
(0.8944 0.4472 0)
(0.8944 0.4472 0)
(0.8944 0.4472 0)
(0.8944 0.4472 0)
(0.8944 0.4472 0)
(0.8944 0.4472 0)
(0.8944 0.4472 0)
(0.8944 0.4472 0)
(0.8944 0.4472 0)
(0.8944 0.4472 0)
(0.8944 0.4472 0)
(0.8944 0.4472 0)
(0.8944 0.4472 0)
(0.8944 0.4472 0)
(0.8944 0.4472 0)
(0.8944 0.4472 0)
(0.8944 0.4472 0)
(0.8944 0.4472 0)
(0.8944 0.4472 0)
(0.8944 0.4472 0)
(0.8944 0.4472 0)
(0.894399 0.4472 0)
(0.8944 0.4472 0)
(0.8944 0.4472 0)
(0.8944 0.4472 0)
(0.894401 0.4472 0)
(0.8944 0.4472 0)
(0.894401 0.4472 0)
(0.894401 0.4472 0)
(0.894403 0.4472 0)
(0.894401 0.4472 0)
(0.894407 0.447202 0)
(0.894404 0.4472 0)
(0.894414 0.447203 0)
(0.894414 0.447202 0)
(0.894426 0.447204 0)
(0.894432 0.447208 0)
(0.894449 0.447207 0)
(0.894462 0.447213 0)
(0.894482 0.447214 0)
(0.894502 0.447216 0)
(0.894518 0.447213 0)
(0.894529 0.447203 0)
(0.894516 0.447175 0)
(0.894477 0.447118 0)
(0.894362 0.447002 0)
(0.894163 0.446794 0)
(0.893806 0.446435 0)
(0.893249 0.445835 0)
(0.892392 0.444877 0)
(0.891188 0.443388 0)
(0.889551 0.441159 0)
(0.887485 0.43792 0)
(0.885071 0.433381 0)
(0.882598 0.427246 0)
(0.880624 0.419288 0)
(0.879993 0.409389 0)
(0.881786 0.397531 0)
(0.88711 0.38378 0)
(0.8969 0.368216 0)
(0.8944 0.4472 0)
(0.8944 0.4472 0)
(0.8944 0.4472 0)
(0.8944 0.4472 0)
(0.8944 0.4472 0)
(0.8944 0.4472 0)
(0.8944 0.4472 0)
(0.8944 0.4472 0)
(0.8944 0.4472 0)
(0.8944 0.4472 0)
(0.8944 0.4472 0)
(0.8944 0.4472 0)
(0.8944 0.4472 0)
(0.8944 0.4472 0)
(0.8944 0.4472 0)
(0.8944 0.4472 0)
(0.8944 0.4472 0)
(0.8944 0.4472 0)
(0.8944 0.4472 0)
(0.8944 0.4472 0)
(0.8944 0.4472 0)
(0.8944 0.4472 0)
(0.8944 0.4472 0)
(0.8944 0.4472 0)
(0.8944 0.4472 0)
(0.8944 0.4472 0)
(0.8944 0.4472 0)
(0.8944 0.4472 0)
(0.8944 0.4472 0)
(0.8944 0.4472 0)
(0.8944 0.4472 0)
(0.8944 0.4472 0)
(0.8944 0.4472 0)
(0.8944 0.4472 0)
(0.8944 0.4472 0)
(0.8944 0.4472 0)
(0.8944 0.4472 0)
(0.8944 0.4472 0)
(0.894401 0.4472 0)
(0.8944 0.4472 0)
(0.8944 0.4472 0)
(0.894401 0.4472 0)
(0.8944 0.4472 0)
(0.894402 0.4472 0)
(0.894401 0.4472 0)
(0.894402 0.447201 0)
(0.894405 0.447201 0)
(0.894406 0.447202 0)
(0.894412 0.447202 0)
(0.894414 0.447203 0)
(0.894425 0.447204 0)
(0.894429 0.447207 0)
(0.894447 0.44721 0)
(0.894458 0.447214 0)
(0.894477 0.447218 0)
(0.894499 0.44722 0)
(0.894516 0.447222 0)
(0.894528 0.447215 0)
(0.894525 0.447196 0)
(0.894495 0.44715 0)
(0.894408 0.447058 0)
(0.894246 0.446882 0)
(0.893956 0.446579 0)
(0.893489 0.446067 0)
(0.892776 0.445237 0)
(0.891753 0.443952 0)
(0.890358 0.442002 0)
(0.888564 0.439162 0)
(0.88643 0.435159 0)
(0.884155 0.429707 0)
(0.882168 0.422588 0)
(0.881179 0.413674 0)
(0.882134 0.402971 0)
(0.886075 0.390582 0)
(0.893945 0.376657 0)
(0.8944 0.4472 0)
(0.8944 0.4472 0)
(0.8944 0.4472 0)
(0.8944 0.4472 0)
(0.8944 0.4472 0)
(0.8944 0.4472 0)
(0.8944 0.4472 0)
(0.8944 0.4472 0)
(0.8944 0.4472 0)
(0.8944 0.4472 0)
(0.8944 0.4472 0)
(0.8944 0.4472 0)
(0.8944 0.4472 0)
(0.8944 0.4472 0)
(0.8944 0.4472 0)
(0.8944 0.4472 0)
(0.8944 0.4472 0)
(0.8944 0.4472 0)
(0.8944 0.4472 0)
(0.8944 0.4472 0)
(0.8944 0.4472 0)
(0.8944 0.4472 0)
(0.8944 0.4472 0)
(0.8944 0.4472 0)
(0.8944 0.4472 0)
(0.8944 0.4472 0)
(0.8944 0.4472 0)
(0.8944 0.4472 0)
(0.8944 0.4472 0)
(0.8944 0.4472 0)
(0.8944 0.4472 0)
(0.8944 0.4472 0)
(0.8944 0.4472 0)
(0.8944 0.4472 0)
(0.8944 0.4472 0)
(0.8944 0.4472 0)
(0.8944 0.4472 0)
(0.894399 0.4472 0)
(0.894401 0.4472 0)
(0.8944 0.447201 0)
(0.8944 0.447199 0)
(0.8944 0.4472 0)
(0.8944 0.447201 0)
(0.894402 0.4472 0)
(0.894401 0.447201 0)
(0.894403 0.4472 0)
(0.894403 0.447201 0)
(0.894407 0.447202 0)
(0.894409 0.447202 0)
(0.894415 0.447204 0)
(0.89442 0.447205 0)
(0.894431 0.447208 0)
(0.89444 0.447211 0)
(0.894458 0.447215 0)
(0.894472 0.44722 0)
(0.894492 0.447224 0)
(0.894513 0.447228 0)
(0.894524 0.447224 0)
(0.894529 0.447213 0)
(0.894509 0.44718 0)
(0.894445 0.447103 0)
(0.894313 0.446966 0)
(0.894084 0.446708 0)
(0.893694 0.446278 0)
(0.893107 0.445573 0)
(0.892249 0.444467 0)
(0.891072 0.442792 0)
(0.889541 0.440329 0)
(0.887681 0.436836 0)
(0.885632 0.43205 0)
(0.883713 0.425742 0)
(0.882484 0.417779 0)
(0.882748 0.408158 0)
(0.88546 0.397003 0)
(0.891538 0.384507 0)
(0.8944 0.4472 0)
(0.8944 0.4472 0)
(0.8944 0.4472 0)
(0.8944 0.4472 0)
(0.8944 0.4472 0)
(0.8944 0.4472 0)
(0.8944 0.4472 0)
(0.8944 0.4472 0)
(0.8944 0.4472 0)
(0.8944 0.4472 0)
(0.8944 0.4472 0)
(0.8944 0.4472 0)
(0.8944 0.4472 0)
(0.8944 0.4472 0)
(0.8944 0.4472 0)
(0.8944 0.4472 0)
(0.8944 0.4472 0)
(0.8944 0.4472 0)
(0.8944 0.4472 0)
(0.8944 0.4472 0)
(0.8944 0.4472 0)
(0.8944 0.4472 0)
(0.8944 0.4472 0)
(0.8944 0.4472 0)
(0.8944 0.4472 0)
(0.8944 0.4472 0)
(0.8944 0.4472 0)
(0.8944 0.4472 0)
(0.8944 0.4472 0)
(0.8944 0.4472 0)
(0.8944 0.4472 0)
(0.8944 0.4472 0)
(0.8944 0.4472 0)
(0.8944 0.4472 0)
(0.8944 0.4472 0)
(0.8944 0.4472 0)
(0.8944 0.4472 0)
(0.8944 0.4472 0)
(0.8944 0.4472 0)
(0.894401 0.4472 0)
(0.8944 0.4472 0)
(0.8944 0.4472 0)
(0.894401 0.4472 0)
(0.894401 0.4472 0)
(0.894401 0.4472 0)
(0.894403 0.4472 0)
(0.894403 0.447201 0)
(0.894406 0.447202 0)
(0.894409 0.447202 0)
(0.894413 0.447204 0)
(0.894419 0.447205 0)
(0.894428 0.447208 0)
(0.894437 0.447212 0)
(0.894454 0.447216 0)
(0.894468 0.447221 0)
(0.894486 0.447227 0)
(0.894507 0.447233 0)
(0.89452 0.447233 0)
(0.894528 0.447226 0)
(0.894517 0.447203 0)
(0.89447 0.447145 0)
(0.894369 0.447032 0)
(0.894183 0.446827 0)
(0.893871 0.446465 0)
(0.893387 0.445874 0)
(0.892682 0.444941 0)
(0.891696 0.443511 0)
(0.890403 0.441405 0)
(0.888813 0.438393 0)
(0.887004 0.43424 0)
(0.885211 0.428718 0)
(0.883862 0.421675 0)
(0.883608 0.413085 0)
(0.88528 0.403066 0)
(0.889749 0.391831 0)
(0.8944 0.4472 0)
(0.8944 0.4472 0)
(0.8944 0.4472 0)
(0.8944 0.4472 0)
(0.8944 0.4472 0)
(0.8944 0.4472 0)
(0.8944 0.4472 0)
(0.8944 0.4472 0)
(0.8944 0.4472 0)
(0.8944 0.4472 0)
(0.8944 0.4472 0)
(0.8944 0.4472 0)
(0.8944 0.4472 0)
(0.8944 0.4472 0)
(0.8944 0.4472 0)
(0.8944 0.4472 0)
(0.8944 0.4472 0)
(0.8944 0.4472 0)
(0.8944 0.4472 0)
(0.8944 0.4472 0)
(0.8944 0.4472 0)
(0.8944 0.4472 0)
(0.8944 0.4472 0)
(0.8944 0.4472 0)
(0.8944 0.4472 0)
(0.8944 0.4472 0)
(0.8944 0.4472 0)
(0.8944 0.4472 0)
(0.8944 0.4472 0)
(0.8944 0.4472 0)
(0.8944 0.4472 0)
(0.8944 0.4472 0)
(0.8944 0.4472 0)
(0.8944 0.4472 0)
(0.8944 0.4472 0)
(0.8944 0.4472 0)
(0.8944 0.4472 0)
(0.8944 0.4472 0)
(0.8944 0.4472 0)
(0.8944 0.4472 0)
(0.8944 0.4472 0)
(0.8944 0.4472 0)
(0.8944 0.4472 0)
(0.894401 0.4472 0)
(0.894401 0.4472 0)
(0.894402 0.4472 0)
(0.894405 0.447202 0)
(0.894403 0.447201 0)
(0.894409 0.447202 0)
(0.894411 0.447204 0)
(0.894418 0.447206 0)
(0.894425 0.447209 0)
(0.894436 0.447211 0)
(0.894446 0.447217 0)
(0.894464 0.447222 0)
(0.894481 0.447228 0)
(0.894497 0.447235 0)
(0.894516 0.44724 0)
(0.894525 0.447238 0)
(0.894518 0.447221 0)
(0.894489 0.447182 0)
(0.89441 0.447091 0)
(0.894261 0.446924 0)
(0.894017 0.446632 0)
(0.893623 0.446141 0)
(0.893044 0.445362 0)
(0.892233 0.444162 0)
(0.891159 0.442377 0)
(0.889811 0.439816 0)
(0.888252 0.436256 0)
(0.886629 0.43148 0)
(0.885259 0.425329 0)
(0.884657 0.417733 0)
(0.885507 0.408783 0)
(0.888598 0.398692 0)
(0.8944 0.4472 0)
(0.8944 0.4472 0)
(0.8944 0.4472 0)
(0.8944 0.4472 0)
(0.8944 0.4472 0)
(0.8944 0.4472 0)
(0.8944 0.4472 0)
(0.8944 0.4472 0)
(0.8944 0.4472 0)
(0.8944 0.4472 0)
(0.8944 0.4472 0)
(0.8944 0.4472 0)
(0.8944 0.4472 0)
(0.8944 0.4472 0)
(0.8944 0.4472 0)
(0.8944 0.4472 0)
(0.8944 0.4472 0)
(0.8944 0.4472 0)
(0.8944 0.4472 0)
(0.8944 0.4472 0)
(0.8944 0.4472 0)
(0.8944 0.4472 0)
(0.8944 0.4472 0)
(0.8944 0.4472 0)
(0.8944 0.4472 0)
(0.8944 0.4472 0)
(0.8944 0.4472 0)
(0.8944 0.4472 0)
(0.8944 0.4472 0)
(0.8944 0.4472 0)
(0.8944 0.4472 0)
(0.8944 0.4472 0)
(0.8944 0.4472 0)
(0.894399 0.4472 0)
(0.894401 0.4472 0)
(0.8944 0.4472 0)
(0.8944 0.4472 0)
(0.8944 0.4472 0)
(0.8944 0.4472 0)
(0.8944 0.4472 0)
(0.8944 0.4472 0)
(0.8944 0.4472 0)
(0.894401 0.4472 0)
(0.8944 0.447201 0)
(0.894402 0.447199 0)
(0.894402 0.447201 0)
(0.894403 0.447201 0)
(0.894404 0.447201 0)
(0.894408 0.447202 0)
(0.89441 0.447204 0)
(0.894416 0.447206 0)
(0.894423 0.447208 0)
(0.89443 0.447212 0)
(0.894444 0.447216 0)
(0.894457 0.447223 0)
(0.894473 0.44723 0)
(0.894491 0.447237 0)
(0.894506 0.447243 0)
(0.89452 0.447247 0)
(0.894519 0.447237 0)
(0.894496 0.447208 0)
(0.894442 0.447141 0)
(0.894326 0.447008 0)
(0.894129 0.446775 0)
(0.893818 0.446375 0)
(0.893351 0.44573 0)
(0.892688 0.444736 0)
(0.891804 0.443246 0)
(0.890684 0.441092 0)
(0.889356 0.438079 0)
(0.887932 0.434004 0)
(0.886627 0.428698 0)
(0.885824 0.422067 0)
(0.886075 0.414151 0)
(0.888048 0.405128 0)
(0.8944 0.4472 0)
(0.8944 0.4472 0)
(0.8944 0.4472 0)
(0.8944 0.4472 0)
(0.8944 0.4472 0)
(0.8944 0.4472 0)
(0.8944 0.4472 0)
(0.8944 0.4472 0)
(0.8944 0.4472 0)
(0.8944 0.4472 0)
(0.8944 0.4472 0)
(0.8944 0.4472 0)
(0.8944 0.4472 0)
(0.8944 0.4472 0)
(0.8944 0.4472 0)
(0.8944 0.4472 0)
(0.8944 0.4472 0)
(0.8944 0.4472 0)
(0.8944 0.4472 0)
(0.8944 0.4472 0)
(0.8944 0.4472 0)
(0.8944 0.4472 0)
(0.8944 0.4472 0)
(0.8944 0.4472 0)
(0.8944 0.4472 0)
(0.8944 0.4472 0)
(0.8944 0.4472 0)
(0.8944 0.4472 0)
(0.8944 0.4472 0)
(0.8944 0.4472 0)
(0.8944 0.4472 0)
(0.8944 0.4472 0)
(0.8944 0.4472 0)
(0.8944 0.4472 0)
(0.8944 0.4472 0)
(0.8944 0.4472 0)
(0.8944 0.4472 0)
(0.8944 0.4472 0)
(0.8944 0.4472 0)
(0.894401 0.4472 0)
(0.8944 0.4472 0)
(0.8944 0.4472 0)
(0.8944 0.447201 0)
(0.894401 0.447199 0)
(0.894401 0.447201 0)
(0.894401 0.4472 0)
(0.894402 0.4472 0)
(0.894404 0.447202 0)
(0.894407 0.447202 0)
(0.894409 0.447204 0)
(0.894415 0.447205 0)
(0.894419 0.447209 0)
(0.894429 0.447211 0)
(0.89444 0.447216 0)
(0.89445 0.447222 0)
(0.894467 0.447229 0)
(0.894482 0.44724 0)
(0.894498 0.447245 0)
(0.894511 0.447251 0)
(0.894515 0.447249 0)
(0.894501 0.447228 0)
(0.894461 0.447181 0)
(0.894372 0.447078 0)
(0.89422 0.446893 0)
(0.893974 0.446571 0)
(0.893599 0.446052 0)
(0.893066 0.445234 0)
(0.892348 0.444005 0)
(0.89143 0.442218 0)
(0.890321 0.439699 0)
(0.889096 0.436269 0)
(0.887909 0.431757 0)
(0.887033 0.426047 0)
(0.886883 0.419137 0)
(0.888007 0.411147 0)
(0.8944 0.4472 0)
(0.8944 0.4472 0)
(0.8944 0.4472 0)
(0.8944 0.4472 0)
(0.8944 0.4472 0)
(0.8944 0.4472 0)
(0.8944 0.4472 0)
(0.8944 0.4472 0)
(0.8944 0.4472 0)
(0.8944 0.4472 0)
(0.8944 0.4472 0)
(0.8944 0.4472 0)
(0.8944 0.4472 0)
(0.8944 0.4472 0)
(0.8944 0.4472 0)
(0.8944 0.4472 0)
(0.8944 0.4472 0)
(0.8944 0.4472 0)
(0.8944 0.4472 0)
(0.8944 0.4472 0)
(0.8944 0.4472 0)
(0.8944 0.4472 0)
(0.8944 0.4472 0)
(0.8944 0.4472 0)
(0.8944 0.4472 0)
(0.8944 0.4472 0)
(0.8944 0.4472 0)
(0.8944 0.4472 0)
(0.8944 0.4472 0)
(0.8944 0.4472 0)
(0.894401 0.4472 0)
(0.894399 0.4472 0)
(0.8944 0.4472 0)
(0.8944 0.4472 0)
(0.8944 0.4472 0)
(0.8944 0.4472 0)
(0.8944 0.4472 0)
(0.8944 0.4472 0)
(0.8944 0.447199 0)
(0.8944 0.4472 0)
(0.8944 0.4472 0)
(0.8944 0.4472 0)
(0.894401 0.4472 0)
(0.8944 0.4472 0)
(0.8944 0.4472 0)
(0.894403 0.4472 0)
(0.894401 0.4472 0)
(0.894405 0.447202 0)
(0.894405 0.447202 0)
(0.894408 0.447204 0)
(0.894412 0.447205 0)
(0.894419 0.447206 0)
(0.894423 0.447212 0)
(0.894436 0.447215 0)
(0.894444 0.447222 0)
(0.894459 0.447229 0)
(0.894476 0.447237 0)
(0.894487 0.447246 0)
(0.894503 0.447253 0)
(0.894509 0.447255 0)
(0.894502 0.447245 0)
(0.894469 0.44721 0)
(0.894411 0.447135 0)
(0.894288 0.446989 0)
(0.894097 0.446738 0)
(0.8938 0.44632 0)
(0.893377 0.445659 0)
(0.8928 0.444658 0)
(0.892051 0.443194 0)
(0.891142 0.441115 0)
(0.890117 0.438264 0)
(0.889073 0.434481 0)
(0.888207 0.429643 0)
(0.88783 0.423702 0)
(0.88836 0.416721 0)
(0.8944 0.4472 0)
(0.8944 0.4472 0)
(0.8944 0.4472 0)
(0.8944 0.4472 0)
(0.8944 0.4472 0)
(0.8944 0.4472 0)
(0.8944 0.4472 0)
(0.8944 0.4472 0)
(0.8944 0.4472 0)
(0.8944 0.4472 0)
(0.8944 0.4472 0)
(0.8944 0.4472 0)
(0.8944 0.4472 0)
(0.8944 0.4472 0)
(0.8944 0.4472 0)
(0.8944 0.4472 0)
(0.8944 0.4472 0)
(0.8944 0.4472 0)
(0.8944 0.4472 0)
(0.8944 0.4472 0)
(0.8944 0.4472 0)
(0.8944 0.4472 0)
(0.8944 0.4472 0)
(0.8944 0.4472 0)
(0.8944 0.4472 0)
(0.8944 0.4472 0)
(0.8944 0.4472 0)
(0.8944 0.4472 0)
(0.8944 0.4472 0)
(0.8944 0.4472 0)
(0.8944 0.4472 0)
(0.8944 0.4472 0)
(0.8944 0.4472 0)
(0.8944 0.4472 0)
(0.8944 0.4472 0)
(0.8944 0.4472 0)
(0.8944 0.4472 0)
(0.8944 0.4472 0)
(0.8944 0.4472 0)
(0.8944 0.447199 0)
(0.8944 0.447201 0)
(0.8944 0.4472 0)
(0.8944 0.4472 0)
(0.894401 0.4472 0)
(0.894401 0.447201 0)
(0.894401 0.4472 0)
(0.894403 0.447201 0)
(0.894403 0.447202 0)
(0.894404 0.447202 0)
(0.894408 0.447203 0)
(0.89441 0.447204 0)
(0.894417 0.447208 0)
(0.89442 0.44721 0)
(0.894432 0.447214 0)
(0.894441 0.447221 0)
(0.894452 0.447228 0)
(0.894466 0.447236 0)
(0.89448 0.447246 0)
(0.894492 0.447255 0)
(0.894498 0.447259 0)
(0.894499 0.447256 0)
(0.894478 0.447232 0)
(0.894428 0.447178 0)
(0.894341 0.447068 0)
(0.89419 0.446871 0)
(0.89396 0.446542 0)
(0.893626 0.446018 0)
(0.893165 0.445211 0)
(0.892569 0.444024 0)
(0.891834 0.442332 0)
(0.890982 0.439993 0)
(0.890094 0.436867 0)
(0.8893 0.43283 0)
(0.888818 0.427803 0)
(0.888967 0.421804 0)
(0.8944 0.4472 0)
(0.8944 0.4472 0)
(0.8944 0.4472 0)
(0.8944 0.4472 0)
(0.8944 0.4472 0)
(0.8944 0.4472 0)
(0.8944 0.4472 0)
(0.8944 0.4472 0)
(0.8944 0.4472 0)
(0.8944 0.4472 0)
(0.8944 0.4472 0)
(0.8944 0.4472 0)
(0.8944 0.4472 0)
(0.8944 0.4472 0)
(0.8944 0.4472 0)
(0.8944 0.4472 0)
(0.8944 0.4472 0)
(0.8944 0.4472 0)
(0.8944 0.4472 0)
(0.8944 0.4472 0)
(0.8944 0.4472 0)
(0.8944 0.4472 0)
(0.8944 0.4472 0)
(0.8944 0.4472 0)
(0.8944 0.4472 0)
(0.8944 0.4472 0)
(0.8944 0.4472 0)
(0.8944 0.4472 0)
(0.8944 0.4472 0)
(0.8944 0.4472 0)
(0.8944 0.4472 0)
(0.8944 0.4472 0)
(0.8944 0.4472 0)
(0.8944 0.4472 0)
(0.8944 0.4472 0)
(0.8944 0.4472 0)
(0.8944 0.447199 0)
(0.8944 0.4472 0)
(0.8944 0.4472 0)
(0.8944 0.4472 0)
(0.894401 0.447199 0)
(0.8944 0.447201 0)
(0.8944 0.4472 0)
(0.894401 0.4472 0)
(0.8944 0.4472 0)
(0.894402 0.447201 0)
(0.894402 0.4472 0)
(0.894403 0.447201 0)
(0.894403 0.447203 0)
(0.894407 0.447202 0)
(0.894409 0.447206 0)
(0.894413 0.447207 0)
(0.894421 0.44721 0)
(0.894425 0.447213 0)
(0.894436 0.447219 0)
(0.894445 0.447226 0)
(0.894458 0.447235 0)
(0.894472 0.447243 0)
(0.894481 0.447255 0)
(0.894491 0.447259 0)
(0.894489 0.447262 0)
(0.89448 0.447249 0)
(0.894443 0.447208 0)
(0.894374 0.44713 0)
(0.894264 0.446978 0)
(0.89408 0.446723 0)
(0.893822 0.44631 0)
(0.893459 0.44567 0)
(0.892987 0.444722 0)
(0.892397 0.443362 0)
(0.891712 0.441466 0)
(0.890972 0.438919 0)
(0.890273 0.435596 0)
(0.889775 0.431414 0)
(0.889696 0.426354 0)
(0.8944 0.4472 0)
(0.8944 0.4472 0)
(0.8944 0.4472 0)
(0.8944 0.4472 0)
(0.8944 0.4472 0)
(0.8944 0.4472 0)
(0.8944 0.4472 0)
(0.8944 0.4472 0)
(0.8944 0.4472 0)
(0.8944 0.4472 0)
(0.8944 0.4472 0)
(0.8944 0.4472 0)
(0.8944 0.4472 0)
(0.8944 0.4472 0)
(0.8944 0.4472 0)
(0.8944 0.4472 0)
(0.8944 0.4472 0)
(0.8944 0.4472 0)
(0.8944 0.4472 0)
(0.8944 0.4472 0)
(0.8944 0.4472 0)
(0.8944 0.4472 0)
(0.8944 0.4472 0)
(0.8944 0.4472 0)
(0.8944 0.4472 0)
(0.8944 0.4472 0)
(0.8944 0.4472 0)
(0.8944 0.4472 0)
(0.8944 0.4472 0)
(0.8944 0.4472 0)
(0.8944 0.4472 0)
(0.8944 0.4472 0)
(0.8944 0.4472 0)
(0.8944 0.4472 0)
(0.8944 0.4472 0)
(0.8944 0.4472 0)
(0.8944 0.4472 0)
(0.8944 0.4472 0)
(0.8944 0.4472 0)
(0.8944 0.4472 0)
(0.8944 0.4472 0)
(0.8944 0.4472 0)
(0.8944 0.4472 0)
(0.8944 0.4472 0)
(0.8944 0.447201 0)
(0.894402 0.447199 0)
(0.8944 0.447202 0)
(0.894404 0.4472 0)
(0.894403 0.447202 0)
(0.894405 0.447203 0)
(0.89441 0.447202 0)
(0.894409 0.447208 0)
(0.894418 0.447208 0)
(0.894423 0.447212 0)
(0.89443 0.447219 0)
(0.89444 0.447224 0)
(0.89445 0.447232 0)
(0.894461 0.447242 0)
(0.894473 0.447251 0)
(0.894481 0.447259 0)
(0.894483 0.447264 0)
(0.894475 0.447257 0)
(0.894451 0.447232 0)
(0.894399 0.447176 0)
(0.894312 0.447061 0)
(0.894177 0.446864 0)
(0.89397 0.44655 0)
(0.893693 0.446043 0)
(0.893321 0.445298 0)
(0.892854 0.444215 0)
(0.892306 0.442701 0)
(0.891705 0.44065 0)
(0.891114 0.437958 0)
(0.890645 0.434535 0)
(0.890454 0.430338 0)
(0.8944 0.4472 0)
(0.8944 0.4472 0)
(0.8944 0.4472 0)
(0.8944 0.4472 0)
(0.8944 0.4472 0)
(0.8944 0.4472 0)
(0.8944 0.4472 0)
(0.8944 0.4472 0)
(0.8944 0.4472 0)
(0.8944 0.4472 0)
(0.8944 0.4472 0)
(0.8944 0.4472 0)
(0.8944 0.4472 0)
(0.8944 0.4472 0)
(0.8944 0.4472 0)
(0.8944 0.4472 0)
(0.8944 0.4472 0)
(0.8944 0.4472 0)
(0.8944 0.4472 0)
(0.8944 0.4472 0)
(0.8944 0.4472 0)
(0.8944 0.4472 0)
(0.8944 0.4472 0)
(0.8944 0.4472 0)
(0.8944 0.4472 0)
(0.8944 0.4472 0)
(0.8944 0.4472 0)
(0.8944 0.4472 0)
(0.8944 0.4472 0)
(0.8944 0.4472 0)
(0.8944 0.4472 0)
(0.8944 0.4472 0)
(0.8944 0.4472 0)
(0.8944 0.4472 0)
(0.8944 0.4472 0)
(0.8944 0.4472 0)
(0.8944 0.4472 0)
(0.8944 0.4472 0)
(0.8944 0.4472 0)
(0.8944 0.4472 0)
(0.8944 0.4472 0)
(0.8944 0.4472 0)
(0.894401 0.4472 0)
(0.894399 0.4472 0)
(0.894402 0.4472 0)
(0.894399 0.4472 0)
(0.894402 0.447201 0)
(0.894402 0.447201 0)
(0.894404 0.447202 0)
(0.894405 0.447201 0)
(0.894406 0.447205 0)
(0.89441 0.447205 0)
(0.894413 0.447209 0)
(0.894421 0.447211 0)
(0.894424 0.447216 0)
(0.894435 0.447223 0)
(0.894445 0.447229 0)
(0.894451 0.447238 0)
(0.894464 0.44725 0)
(0.894471 0.447256 0)
(0.894474 0.447264 0)
(0.894469 0.447263 0)
(0.894453 0.447247 0)
(0.894415 0.447207 0)
(0.894346 0.447125 0)
(0.894245 0.446975 0)
(0.89409 0.446733 0)
(0.893873 0.446348 0)
(0.89358 0.445762 0)
(0.89322 0.444913 0)
(0.892786 0.443718 0)
(0.892304 0.442088 0)
(0.891819 0.439934 0)
(0.891406 0.437175 0)
(0.891177 0.433759 0)
(0.8944 0.4472 0)
(0.8944 0.4472 0)
(0.8944 0.4472 0)
(0.8944 0.4472 0)
(0.8944 0.4472 0)
(0.8944 0.4472 0)
(0.8944 0.4472 0)
(0.8944 0.4472 0)
(0.8944 0.4472 0)
(0.8944 0.4472 0)
(0.8944 0.4472 0)
(0.8944 0.4472 0)
(0.8944 0.4472 0)
(0.8944 0.4472 0)
(0.8944 0.4472 0)
(0.8944 0.4472 0)
(0.8944 0.4472 0)
(0.8944 0.4472 0)
(0.8944 0.4472 0)
(0.8944 0.4472 0)
(0.8944 0.4472 0)
(0.8944 0.4472 0)
(0.8944 0.4472 0)
(0.8944 0.4472 0)
(0.8944 0.4472 0)
(0.8944 0.4472 0)
(0.8944 0.4472 0)
(0.8944 0.4472 0)
(0.8944 0.4472 0)
(0.8944 0.4472 0)
(0.8944 0.447199 0)
(0.8944 0.4472 0)
(0.8944 0.4472 0)
(0.8944 0.4472 0)
(0.8944 0.4472 0)
(0.8944 0.4472 0)
(0.8944 0.4472 0)
(0.8944 0.4472 0)
(0.8944 0.4472 0)
(0.8944 0.4472 0)
(0.8944 0.4472 0)
(0.8944 0.4472 0)
(0.8944 0.4472 0)
(0.894401 0.4472 0)
(0.8944 0.4472 0)
(0.894401 0.447201 0)
(0.894401 0.4472 0)
(0.894402 0.447201 0)
(0.894402 0.447203 0)
(0.894404 0.447201 0)
(0.894407 0.447204 0)
(0.894406 0.447205 0)
(0.894414 0.447206 0)
(0.894414 0.447211 0)
(0.894423 0.447215 0)
(0.894428 0.447219 0)
(0.894436 0.447227 0)
(0.894447 0.447236 0)
(0.894453 0.447242 0)
(0.894463 0.447255 0)
(0.894463 0.44726 0)
(0.894462 0.447264 0)
(0.894451 0.447256 0)
(0.894423 0.447227 0)
(0.894371 0.44717 0)
(0.894294 0.447061 0)
(0.894177 0.446875 0)
(0.894006 0.446581 0)
(0.893788 0.446132 0)
(0.893503 0.445476 0)
(0.893166 0.444542 0)
(0.892788 0.443264 0)
(0.892395 0.441563 0)
(0.892045 0.439371 0)
(0.89182 0.43663 0)
(0.8944 0.4472 0)
(0.8944 0.4472 0)
(0.8944 0.4472 0)
(0.8944 0.4472 0)
(0.8944 0.4472 0)
(0.8944 0.4472 0)
(0.8944 0.4472 0)
(0.8944 0.4472 0)
(0.8944 0.4472 0)
(0.8944 0.4472 0)
(0.8944 0.4472 0)
(0.8944 0.4472 0)
(0.8944 0.4472 0)
(0.8944 0.4472 0)
(0.8944 0.4472 0)
(0.8944 0.4472 0)
(0.8944 0.4472 0)
(0.8944 0.4472 0)
(0.8944 0.4472 0)
(0.8944 0.4472 0)
(0.8944 0.4472 0)
(0.8944 0.4472 0)
(0.8944 0.4472 0)
(0.8944 0.4472 0)
(0.8944 0.4472 0)
(0.8944 0.4472 0)
(0.8944 0.4472 0)
(0.8944 0.4472 0)
(0.8944 0.4472 0)
(0.8944 0.4472 0)
(0.8944 0.4472 0)
(0.8944 0.4472 0)
(0.8944 0.4472 0)
(0.8944 0.4472 0)
(0.8944 0.4472 0)
(0.8944 0.4472 0)
(0.894401 0.4472 0)
(0.8944 0.4472 0)
(0.8944 0.4472 0)
(0.8944 0.4472 0)
(0.8944 0.4472 0)
(0.8944 0.4472 0)
(0.8944 0.4472 0)
(0.8944 0.4472 0)
(0.8944 0.4472 0)
(0.894401 0.447201 0)
(0.894401 0.4472 0)
(0.894402 0.4472 0)
(0.894401 0.447201 0)
(0.894405 0.447202 0)
(0.894403 0.447203 0)
(0.894409 0.447204 0)
(0.894409 0.447207 0)
(0.894415 0.447208 0)
(0.894418 0.447213 0)
(0.894423 0.447218 0)
(0.894432 0.447223 0)
(0.894438 0.447232 0)
(0.894445 0.44724 0)
(0.894452 0.447248 0)
(0.894457 0.447259 0)
(0.894452 0.44726 0)
(0.894448 0.447259 0)
(0.894424 0.447243 0)
(0.894389 0.4472 0)
(0.894328 0.447121 0)
(0.894237 0.446984 0)
(0.894109 0.446763 0)
(0.893941 0.446422 0)
(0.893726 0.445917 0)
(0.893462 0.445201 0)
(0.893166 0.444208 0)
(0.892859 0.442883 0)
(0.892573 0.441164 0)
(0.892368 0.438998 0)
(0.8944 0.4472 0)
(0.8944 0.4472 0)
(0.8944 0.4472 0)
(0.8944 0.4472 0)
(0.8944 0.4472 0)
(0.8944 0.4472 0)
(0.8944 0.4472 0)
(0.8944 0.4472 0)
(0.8944 0.4472 0)
(0.8944 0.4472 0)
(0.8944 0.4472 0)
(0.8944 0.4472 0)
(0.8944 0.4472 0)
(0.8944 0.4472 0)
(0.8944 0.4472 0)
(0.8944 0.4472 0)
(0.8944 0.4472 0)
(0.8944 0.4472 0)
(0.8944 0.4472 0)
(0.8944 0.4472 0)
(0.8944 0.4472 0)
(0.8944 0.4472 0)
(0.8944 0.4472 0)
(0.8944 0.4472 0)
(0.8944 0.4472 0)
(0.8944 0.4472 0)
(0.8944 0.4472 0)
(0.8944 0.4472 0)
(0.8944 0.4472 0)
(0.8944 0.4472 0)
(0.8944 0.4472 0)
(0.8944 0.4472 0)
(0.8944 0.4472 0)
(0.894401 0.4472 0)
(0.8944 0.4472 0)
(0.8944 0.4472 0)
(0.8944 0.4472 0)
(0.8944 0.4472 0)
(0.8944 0.4472 0)
(0.8944 0.4472 0)
(0.8944 0.4472 0)
(0.8944 0.4472 0)
(0.8944 0.447199 0)
(0.8944 0.447201 0)
(0.8944 0.4472 0)
(0.894401 0.4472 0)
(0.8944 0.447201 0)
(0.894402 0.4472 0)
(0.894401 0.447202 0)
(0.894404 0.447201 0)
(0.894403 0.447202 0)
(0.894407 0.447204 0)
(0.894408 0.447205 0)
(0.894411 0.447209 0)
(0.894415 0.44721 0)
(0.894423 0.447216 0)
(0.894424 0.447222 0)
(0.89443 0.447226 0)
(0.894442 0.447235 0)
(0.89444 0.447246 0)
(0.894447 0.44725 0)
(0.894449 0.447259 0)
(0.894439 0.447258 0)
(0.894425 0.447247 0)
(0.894399 0.447222 0)
(0.894349 0.447164 0)
(0.894285 0.447065 0)
(0.894187 0.4469 0)
(0.894054 0.446642 0)
(0.89389 0.446261 0)