/*--------------------------------*- C++ -*----------------------------------*\
  =========                 |
  \\      /  F ield         | OpenFOAM: The Open Source CFD Toolbox
   \\    /   O peration     | Website:  https://openfoam.org
    \\  /    A nd           | Version:  6
     \\/     M anipulation  |
\*---------------------------------------------------------------------------*/
FoamFile
{
    version     2.0;
    format      ascii;
    class       surfaceScalarField;
    location    "1.78";
    object      phi;
}
// * * * * * * * * * * * * * * * * * * * * * * * * * * * * * * * * * * * * * //

dimensions      [1 0 -1 0 0 0 0];

internalField   nonuniform List<scalar> 
11670
(
5.18006e-05
6.83734e-05
-0.000265589
0.000144961
1.79e-07
2.51804e-07
-1.74283e-07
-1.50032e-07
5.5001e-06
7.01176e-05
-0.000269724
0.000193702
5.29575e-06
5.69469e-06
-3.51749e-05
2.41458e-05
3.26907e-07
-6.574e-07
9.556e-07
-5.04759e-07
-1.376e-08
8.17856e-08
2.74031e-08
2.95457e-09
-6.7577e-07
1.69101e-06
-1.57807e-06
7.16783e-07
9.31562e-07
-1.18897e-06
7.82233e-07
-3.60023e-07
-1.50012e-06
-5.4889e-07
3.99988e-07
1.50214e-06
7.13057e-07
1.25025e-06
-1.0136e-06
-7.78652e-07
-2.30723e-06
3.41718e-06
-4.44309e-06
3.30991e-06
-5.27237e-05
2.15093e-06
3.58398e-05
1.4843e-05
2.59144e-08
-3.64982e-08
-5.15828e-08
2.47626e-08
-6.25439e-08
4.59107e-08
2.44478e-08
-5.47347e-08
-3.38255e-06
-8.60992e-05
8.8876e-05
7.4033e-07
-3.83442e-08
3.39293e-08
-2.94779e-08
1.21389e-08
-0.000185424
4.15464e-05
0.000109505
3.45018e-05
-0.000151563
2.58322e-06
8.69024e-05
6.2144e-05
-3.47908e-08
1.91033e-08
-4.13555e-08
2.5973e-08
-3.00576e-08
1.79024e-08
9.62204e-09
-1.41801e-08
8.60444e-05
-0.000263337
0.000244234
-6.68621e-05
-2.22308e-08
1.05054e-08
8.51545e-09
-8.52735e-09
8.12588e-05
-0.000133354
0.000176845
-0.00012465
-6.61137e-05
1.29281e-05
6.7287e-06
4.65845e-05
2.96518e-08
-3.39681e-08
-3.2594e-08
1.20526e-08
-1.02393e-07
8.99053e-08
2.46836e-08
-8.195e-08
2.00742e-05
-9.60792e-05
2.20658e-05
5.41475e-05
-7.00401e-08
3.45728e-08
-5.93907e-08
3.88818e-08
-6.00676e-07
-1.57484e-05
2.29894e-06
1.41227e-05
9.46393e-08
-9.98941e-08
4.01455e-08
-1.28603e-07
3.34173e-07
-2.56106e-06
2.48733e-07
2.04307e-06
-8.09406e-08
3.72065e-08
-7.29351e-08
4.83647e-08
1.01094e-07
-1.08082e-07
4.99366e-08
-1.58985e-07
-1.095e-07
-2.06207e-07
4.813e-07
-9.13327e-08
-1.64521e-07
-6.15573e-07
2.49094e-08
8.86597e-07
-1.30328e-07
1.23281e-07
5.43037e-08
-1.73577e-07
1.09085e-08
-5.80156e-08
-7.82053e-08
5.25944e-08
-5.30128e-08
3.91514e-08
-1.15795e-07
5.3122e-08
-7.78586e-08
6.7129e-08
1.05462e-07
-3.02454e-08
3.70133e-07
-3.90753e-07
-7.87806e-08
2.48552e-07
2.45828e-08
-5.21763e-08
-7.27421e-08
4.56852e-08
1.63471e-07
-1.67973e-07
1.35207e-07
-4.63317e-08
1.20807e-07
-1.42095e-07
4.34171e-08
-1.4158e-07
-5.96249e-08
1.03595e-07
-3.96095e-08
6.01223e-08
-7.29234e-08
5.31932e-08
3.15794e-08
-6.28147e-08
1.02046e-07
-8.89185e-08
6.92247e-08
-3.21891e-08
2.94784e-08
-4.44752e-08
-7.57972e-08
3.19861e-08
-6.69473e-08
8.75844e-08
-3.12368e-08
6.94309e-08
1.44972e-08
-2.51998e-08
-2.82132e-08
1.77193e-08
-1.56841e-08
3.36663e-08
-1.60144e-08
1.98274e-08
6.43217e-08
-7.24987e-08
1.68397e-08
-5.5219e-08
5.94073e-08
-5.80251e-08
5.18591e-08
-1.71094e-08
-8.91585e-10
1.85148e-09
-7.33317e-11
1.86552e-09
-4.51579e-09
4.26871e-09
-4.0746e-09
-9.63854e-11
-8.29049e-12
1.21398e-13
4.95946e-13
7.73392e-12
1.61319e-08
-4.81575e-08
1.53425e-08
-1.31119e-08
-2.62836e-08
5.20613e-08
1.89971e-08
-1.56963e-08
5.51676e-08
-5.41378e-08
-6.30076e-08
2.06107e-08
-4.34477e-08
3.77752e-08
-1.79324e-08
5.14092e-08
-6.89848e-08
3.47848e-08
-5.63523e-08
3.87823e-08
-1.52501e-05
4.33951e-07
6.17101e-06
8.73863e-06
9.06765e-08
-9.59258e-08
4.00427e-08
-1.29688e-07
4.6002e-06
-3.63593e-05
2.69977e-05
4.95027e-06
2.21201e-08
-4.23649e-08
-5.33695e-08
3.35184e-08
1.07063e-07
-1.23179e-07
3.18543e-08
-1.05757e-07
1.69136e-07
-1.73063e-07
1.19647e-07
-3.42688e-08
-4.21481e-08
7.92244e-08
-3.19528e-08
4.10565e-08
2.48209e-08
-5.63151e-08
5.44262e-08
-8.66533e-08
-4.08977e-07
1.99623e-07
9.26485e-08
1.97315e-07
2.93782e-07
-7.26e-07
5.5859e-07
5.4821e-09
2.98297e-07
-3.61784e-07
-4.28235e-08
2.31242e-07
-1.16168e-07
1.18743e-07
1.07472e-07
-3.96287e-08
-9.56798e-08
3.44708e-08
5.0745e-08
-6.69946e-08
1.09728e-07
-1.05652e-07
-1.83829e-07
5.46027e-08
-8.06283e-08
3.76459e-08
-7.1133e-08
4.83057e-08
9.89006e-08
-1.05401e-07
4.98756e-08
-1.60319e-07
3.18832e-07
-2.44303e-06
1.6165e-06
5.92835e-07
-4.66094e-06
7.59198e-07
3.50164e-06
5.42656e-07
-9.22903e-08
1.53385e-07
5.30992e-08
-3.91868e-08
2.45834e-08
-7.0639e-08
-4.98153e-08
3.65356e-08
1.11031e-07
-1.29531e-07
5.76267e-08
-1.59378e-07
-1.35004e-07
1.17498e-07
-4.50172e-08
1.34252e-07
-3.29203e-07
3.62083e-07
2.29757e-07
-0.000175947
3.86968e-05
0.000142325
-0.000132539
2.4427e-05
0.000159579
-1.25729e-06
1.38832e-06
-6.62832e-07
4.3641e-07
-3.05447e-07
2.6858e-07
8.40055e-09
6.40128e-08
-9.33359e-09
6.35892e-07
-1.10785e-06
1.52592e-06
-1.54926e-05
9.20403e-07
1.97869e-05
5.46056e-07
-8.94109e-07
-1.27432e-06
-1.35007e-06
1.4209e-06
7.80519e-07
-2.07806e-06
2.09425e-06
-2.31717e-06
-5.12783e-07
8.11121e-07
-2.9752e-06
2.55033e-06
-1.60316e-06
-2.58396e-07
3.23747e-07
1.48965e-06
3.17674e-11
-1.85217e-08
2.51357e-08
1.90765e-09
-7.01046e-09
6.60069e-07
-1.41226e-07
-5.16659e-07
2.17224e-07
1.09544e-06
-1.16954e-06
-1.48782e-07
-3.13183e-06
4.55009e-05
-3.80844e-05
-4.14671e-06
3.00951e-09
8.09203e-07
-1.87676e-07
-5.97441e-07
-2.68503e-07
-1.10364e-06
1.49362e-06
-1.91525e-07
-1.16132e-06
-2.97458e-06
2.40175e-06
3.23505e-08
1.07545e-07
-1.9652e-07
-1.7618e-09
6.21654e-09
-6.54085e-08
-5.43384e-08
1.37265e-07
-2.29645e-06
-2.81114e-05
1.4718e-05
1.56661e-05
-1.11116e-07
1.04067e-07
3.90186e-08
-2.53218e-08
1.39174e-07
-1.67021e-07
3.67787e-08
-3.80931e-05
7.20541e-06
2.85808e-05
-4.01247e-08
-2.34728e-07
2.50532e-07
8.80898e-07
-6.48996e-07
-2.03073e-07
1.92959e-06
-2.95987e-07
-1.42385e-06
2.52742e-08
-6.6798e-09
-1.01735e-08
2.88793e-05
-1.92585e-05
-1.26288e-05
-1.95407e-06
-1.04546e-08
1.63182e-06
4.26444e-07
-3.43239e-07
-9.47714e-08
2.36224e-07
5.38411e-07
7.53796e-07
-1.6892e-06
1.04366e-06
8.05459e-07
-1.77367e-06
1.15485e-09
6.73503e-07
-6.44923e-09
-5.98807e-07
-5.22437e-07
-5.81075e-09
5.98803e-07
4.44351e-06
-7.60785e-05
-4.39833e-05
0.000115554
-5.91934e-05
-4.58349e-05
0.000109391
-5.83661e-08
-3.04874e-07
4.68181e-07
-1.75877e-07
-4.7066e-07
-3.07717e-07
6.49075e-07
-9.08927e-07
-1.79711e-06
-2.98928e-06
5.49538e-06
-4.08342e-06
-2.79569e-06
5.77025e-06
-6.7887e-07
4.90812e-06
3.65908e-06
-7.86716e-06
2.54996e-06
3.61005e-06
-6.81771e-06
1.32259e-07
8.2576e-07
1.37889e-06
-2.32377e-06
2.00677e-06
1.36102e-06
-3.22239e-06
-1.17605e-07
1.32096e-06
1.43121e-06
-2.5489e-06
1.49136e-06
1.41765e-06
-2.94095e-06
-6.99684e-11
-9.30665e-08
-5.32998e-10
1.09274e-07
1.25539e-07
-5.07365e-10
-1.09497e-07
-1.47542e-06
6.61475e-07
-1.27973e-07
-2.38434e-07
5.09568e-07
1.0206e-07
1.00682e-07
-2.786e-07
5.90339e-07
-7.8586e-08
-0.000232635
-0.000253842
0.000147239
0.000338434
1.33088e-07
-1.96088e-07
4.27254e-07
-1.03714e-07
2.10374e-05
-0.000231062
8.56069e-05
0.000123254
-1.35692e-07
-1.63566e-07
3.44064e-07
1.14488e-07
1.33294e-07
-1.05797e-07
2.50822e-07
-9.92737e-08
-7.58312e-08
-8.44882e-08
1.57658e-07
7.21745e-08
-0.000130902
-0.000244722
9.11775e-05
0.000284133
-9.69984e-06
-0.00023082
5.24017e-05
0.00018739
-0.000363166
-0.000220516
0.000161156
0.000421151
0.000137168
-0.000293028
9.43431e-05
5.98574e-05
-0.000230229
0.000118259
-0.000132639
0.00024405
5.13603e-05
6.12546e-05
-0.000201518
8.80316e-05
4.86479e-07
1.37621e-06
-1.17202e-06
-3.66838e-07
-4.34062e-07
1.13923e-06
-8.57272e-07
3.62989e-07
-0.000178037
-0.00012628
0.000104309
0.000199544
-4.33574e-07
1.90239e-06
-1.48049e-06
3.50483e-07
3.26426e-07
1.6521e-06
-1.40742e-06
-2.48076e-07
4.36165e-07
-5.6218e-07
6.06727e-07
-2.88809e-07
-0.000112759
-0.000125285
7.19579e-05
0.000165884
1.1222e-05
1.08318e-05
-5.15142e-05
2.94845e-05
-1.05532e-05
2.58733e-06
-6.00115e-06
1.40166e-05
2.73118e-06
3.54659e-06
-4.04326e-06
-2.10246e-06
-3.84415e-06
-6.6441e-08
-2.07689e-06
5.91444e-06
-8.74496e-05
-3.65289e-05
4.07501e-05
8.31103e-05
-1.71988e-06
-1.04994e-06
2.22048e-06
7.48423e-07
8.50051e-07
1.48763e-06
-1.63745e-06
-4.8047e-07
1.2456e-06
1.56984e-06
-1.79073e-06
-8.49629e-07
1.98853e-06
-2.63874e-06
1.88238e-06
-1.10947e-06
-9.80979e-06
1.3744e-05
-4.57801e-05
4.21707e-05
1.48472e-06
1.63215e-06
-1.93162e-06
-1.025e-06
-2.04139e-06
3.46104e-06
-2.93069e-06
1.63152e-06
-7.6476e-06
1.3618e-06
-4.6344e-06
1.09095e-05
-1.60454e-06
-1.8437e-06
2.69991e-06
9.08003e-07
-6.18221e-07
1.47332e-06
-1.28717e-06
6.22325e-07
-8.39937e-07
-1.02192e-06
-1.44031e-07
1.85729e-06
-1.97516e-06
1.52687e-06
-4.81476e-07
9.62362e-07
-2.48322e-06
-1.22042e-06
1.01842e-06
2.63356e-06
2.38315e-06
6.71066e-07
-1.9896e-06
-1.06965e-06
2.3021e-06
2.27614e-06
-2.78787e-06
-1.73006e-06
-9.39642e-07
3.71091e-07
-9.31817e-08
6.22479e-07
1.37382e-06
1.37182e-06
-1.67549e-06
-9.61885e-07
-2.44578e-05
1.3398e-05
-4.09328e-05
5.22435e-05
-3.66129e-06
-1.79952e-06
-2.57325e-07
5.7636e-06
-1.43587e-05
-1.30078e-05
4.92828e-06
2.23383e-05
1.89331e-06
-1.43962e-06
-1.27188e-06
9.67071e-07
-4.1488e-07
7.70656e-07
-5.10907e-07
2.8674e-07
-2.88368e-07
-2.73419e-07
4.71721e-07
2.06445e-07
1.55087e-07
-2.36048e-07
2.32355e-07
-1.49723e-07
-1.70561e-06
2.62213e-06
-2.32145e-06
1.50177e-06
8.97509e-07
-1.1632e-06
4.72991e-07
-2.90287e-07
-6.29183e-07
1.31652e-06
-1.16675e-06
6.3213e-07
-1.97716e-07
-2.08067e-07
4.6424e-07
5.22465e-08
2.26975e-07
-3.13272e-07
2.04102e-07
-5.94307e-08
5.25829e-08
1.04049e-07
-6.014e-08
-7.65411e-11
-1.60459e-08
-4.61664e-09
8.40157e-11
6.03015e-09
1.46124e-08
-4.68785e-11
5.98616e-11
-7.92642e-08
1.45226e-07
-8.5914e-08
-4.9851e-07
7.75528e-07
-2.36932e-07
1.70286e-07
3.02471e-07
-5.11156e-07
5.81498e-07
-2.19405e-07
-8.18783e-11
-5.13217e-08
-7.66307e-08
1.4201e-10
-6.13108e-11
-3.04421e-08
-2.31558e-08
1.54659e-10
7.03771e-08
1.15885e-09
-6.0501e-08
-3.88055e-08
1.54627e-07
8.05263e-08
-7.35062e-08
-7.38435e-08
5.73812e-08
1.52404e-09
5.13911e-08
-3.21119e-08
-0.000106425
-0.000229544
5.9877e-05
0.000275791
-7.68523e-05
-0.000258773
8.10196e-05
0.000254756
2.39127e-10
6.94847e-08
5.95234e-08
8.05791e-11
1.68523e-11
-9.9342e-08
-7.7206e-08
8.60756e-11
-1.36118e-10
-1.0303e-07
-1.4192e-07
1.89297e-10
1.15276e-07
1.26404e-07
1.36897e-11
2.04421e-10
1.86719e-06
5.73504e-07
-1.35729e-06
-1.36632e-06
-1.68861e-07
-5.30857e-07
8.12841e-07
1.00804e-07
9.96858e-07
-8.38332e-07
-1.63787e-06
1.21381e-06
3.49306e-06
-3.08577e-06
1.98605e-06
-2.49067e-06
-9.66249e-07
1.41708e-06
-6.66859e-07
2.82167e-07
2.24125e-07
2.80763e-07
-2.55343e-07
-1.2451e-07
-1.34659e-06
1.47032e-06
-1.22951e-06
1.14293e-06
-2.78846e-07
4.42454e-07
-2.37409e-07
1.89812e-07
-6.71032e-07
4.47626e-07
-1.09751e-07
3.19908e-07
1.32464e-06
-1.46715e-06
1.11016e-06
-9.27084e-07
1.5918e-10
1.5288e-07
1.48386e-07
1.90427e-11
-4.57766e-11
1.78652e-07
1.85e-07
1.5643e-10
2.20699e-08
-1.58746e-07
-8.1044e-08
2.35198e-08
-1.46769e-06
-7.66911e-07
8.05498e-07
1.10276e-06
9.69952e-07
-6.51984e-07
-3.04868e-07
2.33373e-07
2.30324e-07
9.23822e-07
-7.02629e-07
-1.68527e-07
1.27227e-06
-1.12627e-06
6.0765e-07
-1.05839e-06
9.01215e-07
4.78115e-07
-1.17745e-06
-1.76258e-07
-2.17855e-06
2.81072e-06
-2.66668e-06
1.97682e-06
-3.35041e-07
-1.23318e-07
-2.22221e-08
3.42473e-07
8.95465e-07
8.8503e-07
-1.13411e-06
-6.68886e-07
-0.000312591
-0.000111423
0.000183665
0.000239217
7.66859e-08
-2.91279e-07
5.81722e-07
-5.94486e-08
-7.60529e-08
-3.16378e-07
6.86105e-07
6.07676e-08
3.65608e-07
5.79234e-08
-3.19686e-07
-1.50006e-07
-5.64294e-07
-9.88147e-07
1.09643e-06
5.68206e-07
-1.967e-06
9.84326e-07
2.91381e-06
-2.08456e-06
-2.15442e-07
1.11811e-06
-7.80006e-07
1.73859e-07
1.88078e-07
1.22496e-06
-9.08401e-07
-1.51595e-07
-3.60064e-07
1.46306e-06
-1.11105e-06
2.68943e-07
-0.000171456
0.000125035
-0.000164252
0.000210201
1.3823e-06
-1.21882e-06
3.77491e-07
-2.8208e-07
0.000118153
-0.000257345
9.9263e-05
3.93586e-05
-7.0918e-07
1.16447e-06
5.51376e-07
2.01837e-06
-1.77816e-06
1.0573e-06
-1.41128e-06
1.93708e-06
-1.53479e-06
-6.1414e-07
4.57271e-07
-5.91988e-07
6.59142e-07
-4.73948e-07
4.41624e-07
-4.95148e-07
-1.95405e-07
1.68012e-07
3.63862e-07
-2.16765e-06
-1.05214e-06
1.53944e-06
1.57784e-06
5.95223e-07
7.42514e-07
-4.8367e-07
-1.29861e-06
-1.04502e-06
1.28125e-06
1.02232e-06
6.73972e-07
1.57295e-06
-1.55722e-06
-4.84064e-07
2.97378e-07
3.34003e-07
-3.92781e-07
-2.89772e-07
2.92928e-07
-1.93871e-07
-1.51056e-07
-1.33866e-06
5.89662e-07
-5.01289e-06
5.63959e-06
9.6229e-07
2.31305e-06
-2.32126e-06
-7.30848e-07
2.58857e-07
1.77385e-07
-1.51935e-07
-1.30492e-07
2.58999e-06
2.66929e-06
-3.24666e-06
-2.00391e-06
2.44895e-07
6.64997e-08
-1.46816e-07
-1.12787e-07
-9.51181e-07
2.4355e-06
-1.98023e-06
7.16224e-07
3.389e-07
-2.02266e-07
1.25167e-07
-1.72309e-07
4.65337e-05
-4.64134e-05
-1.175e-05
1.14855e-05
3.26404e-06
2.48722e-06
-3.32574e-06
-2.52807e-06
-3.00034e-06
3.75064e-06
-3.11107e-06
2.38257e-06
2.31237e-06
5.96859e-07
-1.65332e-06
-1.4166e-06
-1.36946e-05
-3.49954e-05
4.91493e-06
4.38197e-05
-8.403e-05
-1.26549e-05
1.46349e-05
8.2076e-05
-1.59241e-06
7.57508e-07
-2.50883e-07
9.86549e-07
-3.76695e-05
-7.69682e-05
5.13884e-06
0.000109548
8.30711e-07
5.16392e-07
-8.73545e-07
-3.92925e-07
5.12081e-08
-1.0568e-06
1.73043e-06
-8.38954e-07
-1.78332e-06
9.07484e-07
-9.63572e-08
8.64596e-07
-0.000126716
1.11586e-05
-7.78426e-06
0.000123428
-0.000141679
-0.000106294
3.25801e-05
0.000215473
1.54638e-07
1.60461e-07
2.18706e-13
2.65441e-11
-4.77277e-11
1.36457e-07
1.31292e-07
9.14117e-11
1.075e-06
6.01796e-08
-6.40799e-07
-5.44634e-07
-7.03116e-07
5.3181e-07
-2.16272e-07
3.57456e-07
-3.80576e-06
3.6952e-06
-3.01984e-06
3.02358e-06
1.36066e-06
-2.21935e-06
5.39012e-07
4.14882e-07
-8.43364e-07
3.11693e-07
-4.50358e-07
6.79578e-07
8.80335e-07
2.4537e-07
-7.11888e-07
-7.33306e-07
-1.69803e-07
9.36449e-07
-6.43034e-07
1.2876e-07
1.053e-06
-8.04544e-07
2.15147e-07
-1.70822e-07
-3.1776e-07
-3.99689e-07
7.53203e-07
8.35091e-08
-8.8573e-07
5.88815e-07
-6.20267e-08
2.21329e-07
-2.33719e-05
-0.000180928
3.7339e-05
0.000167155
-6.84779e-08
5.85952e-07
-1.21854e-06
5.90864e-07
2.11849e-07
7.73197e-08
-2.30887e-07
-1.35845e-07
-8.00059e-07
3.28934e-08
1.25621e-06
-6.08971e-07
1.07661e-06
-7.70109e-07
5.76068e-08
-4.74771e-07
9.13869e-07
1.83914e-07
-6.81516e-07
-6.87453e-07
4.98481e-07
6.63732e-08
-5.36431e-07
-1.24466e-07
3.10311e-07
-3.71643e-07
-8.04817e-07
6.10415e-07
2.22299e-05
-9.75408e-05
0.000118376
-4.24892e-05
-1.86485e-05
1.95002e-05
-5.48048e-05
5.40849e-05
3.78885e-07
-5.81199e-07
3.73611e-07
-9.99206e-08
-7.59702e-05
3.86677e-05
-4.33454e-05
8.06398e-05
1.00658e-07
-3.83205e-07
4.5427e-07
-2.84659e-07
1.67121e-06
1.51671e-07
-1.00559e-06
-1.0013e-06
3.91074e-07
-7.55206e-07
7.12925e-07
-2.25528e-07
-8.47868e-07
3.38292e-07
-2.02166e-07
4.7278e-07
-1.47305e-06
-4.61942e-08
7.42452e-07
6.49333e-07
-0.000242281
7.57812e-05
-0.000375252
0.000542674
-1.06857e-07
-1.92067e-07
4.5948e-07
8.18154e-08
3.60135e-05
-0.000248358
7.8386e-05
0.000132989
-0.000225209
0.000164472
-0.000389215
0.000448619
-9.41165e-05
-0.000312229
2.04927e-05
0.00038673
-0.000157343
4.09341e-05
-5.89904e-05
0.000175501
-0.000300353
-0.000310838
0.000128101
0.000484216
-1.518e-07
4.49447e-08
-3.81574e-08
6.46858e-08
-2.92876e-05
-0.000275342
6.0077e-05
0.000245572
1.52685e-07
-2.26736e-07
3.95136e-07
-1.30269e-07
-0.000157351
0.000121542
-0.000193805
0.000229421
-0.000113513
-0.000123987
0.000153621
8.30532e-05
-2.31312e-05
0.00011013
-0.000292991
0.000205949
-0.000176935
-0.000177284
0.000121226
0.000232745
-0.000167456
-0.00016953
9.98483e-05
0.000237417
-1.30318e-07
-1.14528e-07
3.24583e-07
8.22112e-08
-5.26893e-07
-1.82397e-07
2.28135e-07
3.37137e-07
2.27677e-06
-1.9073e-06
7.99796e-07
-1.2653e-06
-4.64549e-05
2.73733e-05
-9.02679e-05
0.00010945
-4.78703e-07
3.10922e-07
4.64905e-07
-4.3171e-07
-5.68741e-07
1.01518e-06
-7.37317e-07
3.99466e-07
-3.41702e-07
7.99124e-07
-6.45338e-07
3.45303e-07
3.36424e-07
-1.13391e-06
5.28405e-07
1.19897e-07
4.78966e-07
-3.67479e-07
3.39294e-07
-4.06707e-05
-0.000101518
0.000114071
8.44875e-07
3.65483e-07
-6.00326e-07
-9.54127e-05
-4.12825e-05
9.84733e-05
-2.08981e-06
-6.32566e-07
1.45289e-06
1.16302e-06
5.69977e-07
-6.51516e-07
4.47206e-07
-5.526e-07
-0.000317074
-0.000147663
0.000117388
0.0003479
2.63989e-06
-2.21859e-06
-1.50114e-06
1.2722e-06
3.41886e-06
-3.03971e-06
2.05792e-06
-2.64008e-06
-2.50327e-05
3.18062e-05
-0.000102479
9.61112e-05
2.02495e-06
2.9447e-06
-3.48821e-06
-1.32129e-06
-1.66385e-06
-8.7402e-07
9.03295e-07
1.50454e-06
2.09166e-06
1.25802e-06
-2.01778e-06
-1.26181e-06
-3.98031e-06
4.05272e-06
7.14039e-07
-8.82353e-07
-1.04622e-06
-3.6503e-07
5.04326e-07
7.31834e-07
5.33873e-07
9.03792e-07
-8.43501e-07
-3.73306e-07
1.30118e-06
-1.11806e-06
7.33786e-07
-1.14167e-06
2.87475e-07
8.33726e-08
-2.8482e-07
-2.08525e-07
-1.12221e-07
1.15514e-07
-1.4601e-07
1.1127e-07
-0.000113933
-0.000229836
4.4643e-05
0.000299242
-3.8966e-05
1.60947e-05
-4.83476e-05
7.14178e-05
-4.84076e-05
-0.000280358
9.53085e-05
0.000234051
-4.62502e-07
2.46966e-07
-1.09794e-07
2.92767e-07
-3.00037e-06
1.96787e-06
3.33121e-06
-2.41661e-06
7.81005e-07
2.18432e-07
-6.04182e-07
-4.5686e-07
1.62191e-06
-1.17598e-06
6.57917e-07
-1.28233e-06
8.02941e-07
9.62556e-07
-1.12938e-06
-4.76429e-07
-1.32873e-06
-5.77436e-07
7.60889e-07
9.21253e-07
-3.78668e-05
-3.18392e-05
1.02553e-05
5.96216e-05
1.03024e-06
5.04235e-07
-8.32231e-07
-8.2294e-07
9.7304e-07
1.39463e-06
-1.47961e-06
-8.21875e-07
-2.33043e-06
-2.23018e-06
-8.33365e-07
5.59183e-06
2.30784e-06
-2.05554e-06
1.01945e-06
-1.2945e-06
-3.18954e-06
-2.75286e-06
3.66179e-06
2.30307e-06
-1.07894e-05
3.05788e-06
-9.7357e-06
1.76532e-05
-3.99345e-06
-2.61046e-06
3.2159e-06
3.16429e-06
-5.27016e-05
4.1507e-05
-0.000103076
0.00011466
1.31268e-06
2.08165e-06
-2.44029e-06
-7.76162e-07
-1.47652e-05
7.68701e-06
3.63049e-05
6.70054e-08
-8.30231e-07
8.92178e-07
-2.27948e-07
-1.8967e-06
-8.47056e-07
1.05153e-06
1.42569e-06
-3.75871e-06
-2.08923e-06
2.98809e-06
2.75377e-06
-4.17039e-05
1.93685e-05
-5.8997e-05
8.15236e-05
-6.18331e-07
1.2181e-06
-7.9623e-07
3.54901e-07
-9.28681e-07
1.82557e-06
-1.0137e-06
2.43948e-07
2.28985e-06
1.92182e-06
-2.39252e-06
-1.86553e-06
1.26286e-06
-2.06133e-06
1.88423e-06
-8.62316e-07
-8.73291e-07
1.35566e-06
-2.47561e-06
1.76907e-06
9.65298e-08
-4.96361e-06
-5.58883e-07
5.67567e-06
1.18858e-06
-7.76321e-07
-1.79816e-06
1.26117e-06
-8.78984e-07
1.62045e-06
-1.27247e-06
6.48421e-07
2.21717e-06
-1.67161e-06
6.63814e-07
-1.3576e-06
-1.55054e-05
6.25835e-06
-4.1787e-05
5.14343e-05
6.95928e-07
-7.29155e-07
4.87691e-07
-3.22238e-07
-2.84465e-06
-1.14364e-06
1.99278e-06
1.81726e-06
-4.861e-07
3.99432e-07
-3.35873e-07
3.78682e-07
8.7392e-07
2.6334e-07
-6.55291e-07
-5.96078e-07
4.07862e-07
-3.23813e-07
8.99451e-08
-2.85167e-07
-9.62567e-12
-8.69822e-08
-1.17057e-07
3.89021e-11
-7.13944e-09
6.20475e-08
1.1687e-07
2.37378e-09
5.91566e-07
-1.43521e-07
-1.27833e-06
6.83135e-07
-5.74984e-09
-1.00606e-07
4.59453e-08
-4.04071e-12
-6.60719e-08
-5.2863e-08
3.50399e-11
1.52789e-06
-1.00444e-06
3.7342e-07
-1.12745e-06
5.01643e-09
7.87666e-08
5.02688e-08
5.98349e-09
-2.70161e-09
3.60082e-08
5.01963e-08
-1.33121e-09
5.54927e-11
-1.14421e-07
-1.60937e-07
3.71129e-11
-4.9811e-07
7.583e-07
-1.71931e-06
1.21148e-06
-9.78255e-07
-5.38104e-08
6.20186e-07
2.44915e-07
-2.61406e-07
-4.69695e-07
7.69237e-07
1.76099e-07
2.5305e-07
3.55451e-07
-3.74647e-07
-1.83773e-07
-8.29655e-07
6.68351e-07
-4.20417e-07
4.92289e-07
7.11577e-07
-7.21713e-07
5.4147e-08
-1.78144e-07
2.39272e-07
-4.61353e-07
5.14465e-07
-1.59496e-07
-1.91083e-07
5.41882e-07
-3.1307e-07
9.38976e-08
-3.38115e-11
-1.27287e-07
-9.72401e-08
1.07037e-10
-2.3225e-11
-3.34778e-08
-4.93779e-08
3.42033e-11
-2.10187e-07
2.16415e-07
-9.93878e-08
1.35377e-07
-2.6036e-07
1.37067e-07
-6.73133e-08
9.28194e-08
3.02751e-07
-2.55519e-07
8.54535e-08
-1.70286e-07
1.45151e-07
-9.20451e-08
9.57349e-08
-8.0586e-08
1.01988e-06
-1.03371e-06
7.09341e-07
-9.09909e-07
1.90143e-06
-3.15254e-06
-8.08836e-08
1.52622e-06
-3.23779e-06
-1.83312e-06
1.96464e-06
3.23333e-06
-1.41461e-06
1.06961e-06
-1.17266e-07
3.63609e-07
1.1645e-06
1.10329e-06
-2.04159e-06
-3.54427e-08
-2.1989e-05
1.15312e-05
5.64097e-05
7.71074e-07
-3.69819e-07
-3.99714e-07
1.00866e-07
5.05932e-07
4.00001e-07
-5.05409e-07
-2.80908e-07
-8.51843e-07
3.64707e-07
-2.19036e-07
5.48561e-07
-2.82372e-06
2.84254e-06
-2.30978e-06
2.25274e-06
9.33298e-07
1.09359e-06
-1.65757e-06
-2.44997e-07
-1.01269e-06
2.05014e-06
-1.16791e-06
2.58555e-07
1.9382e-06
-1.18895e-06
-1.54555e-06
8.48557e-07
-2.93294e-05
2.13295e-05
-4.87791e-05
5.73903e-05
-3.46674e-06
2.87668e-06
-1.58999e-06
2.06124e-06
1.31823e-06
-1.1961e-06
7.33679e-08
-3.34301e-07
-2.0116e-06
-9.45854e-07
1.23283e-06
1.44831e-06
-5.31795e-07
-9.59086e-07
1.08934e-06
5.22925e-07
5.50349e-07
-7.52406e-07
4.49558e-07
-1.10512e-07
-1.3727e-06
-3.66243e-07
7.34485e-07
8.61055e-07
3.29866e-07
7.09178e-07
-2.04455e-06
9.88595e-07
-1.60257e-06
2.77872e-06
-2.72258e-06
1.53892e-06
5.39806e-07
9.72321e-07
-1.02132e-06
-3.33472e-07
9.98341e-07
1.16057e-06
-1.79165e-06
-2.54919e-07
-1.78549e-06
-8.88064e-08
1.2608e-06
4.53536e-07
-2.96969e-06
1.73e-06
-2.7502e-06
3.92973e-06
1.53448e-06
-1.76207e-06
1.41849e-06
-1.10491e-06
-4.46142e-07
-7.2365e-07
8.02112e-07
4.43429e-07
-1.71326e-05
5.57752e-06
-2.54959e-05
3.69218e-05
2.60833e-06
-2.60694e-06
6.12788e-07
-6.67827e-07
-1.93264e-06
2.54332e-06
-1.66288e-06
1.10608e-06
1.76351e-06
-1.53568e-06
-1.30909e-06
1.09753e-06
-1.37043e-06
1.34646e-06
1.114e-06
3.32116e-06
8.5898e-07
-2.75014e-06
-1.5107e-06
-2.55751e-06
-8.65557e-07
2.72849e-06
6.71189e-07
1.33409e-06
-1.34782e-06
9.93281e-07
-9.74854e-07
-1.67218e-05
3.66097e-06
-1.97499e-05
3.27518e-05
-1.67236e-05
5.45127e-06
-2.22071e-05
3.34943e-05
1.28679e-06
2.4132e-06
-1.83526e-06
2.87096e-06
-2.5251e-06
1.27793e-06
-1.73293e-06
-2.10389e-06
6.92724e-06
-3.33969e-05
2.86062e-05
-3.37916e-06
2.5944e-06
2.05311e-06
-1.1533e-06
-2.81166e-06
2.26526e-06
-1.74847e-06
2.1395e-06
2.51462e-06
-1.95895e-06
-2.41934e-06
1.88239e-06
3.61587e-06
-3.05517e-06
1.99211e-06
-2.57325e-06
1.27687e-06
-2.92605e-06
2.16726e-06
-3.62824e-07
-2.05323e-06
1.78615e-06
-1.24934e-06
1.48858e-06
-1.9944e-05
5.36399e-06
-2.91879e-05
4.38224e-05
-2.52849e-06
-3.86165e-07
1.58624e-06
1.23024e-06
2.69379e-07
2.22268e-06
-3.25182e-06
8.2788e-07
-8.57199e-07
3.80531e-07
-2.29047e-07
5.75534e-07
-1.97149e-06
-2.67003e-06
2.85013e-06
1.90678e-06
1.89603e-06
1.33184e-06
-1.82255e-06
-1.54433e-06
1.93517e-06
1.47409e-06
-1.91302e-06
-1.49889e-06
-1.97241e-06
2.79069e-06
-3.04017e-06
2.22416e-06
-2.54852e-06
3.5453e-07
2.79717e-06
-7.1484e-07
-1.20754e-06
-2.7228e-06
2.40289e-06
1.69973e-06
7.18549e-07
-7.97972e-07
5.4691e-07
-3.87122e-07
1.15854e-06
-1.59501e-06
1.68618e-06
-1.30587e-06
-6.3073e-06
8.74248e-06
-3.46176e-05
3.22427e-05
9.00372e-07
4.55636e-07
-8.32246e-07
-6.05671e-07
-1.03001e-06
-8.20063e-07
1.27283e-06
6.5668e-07
-2.7245e-06
-5.74144e-07
2.51575e-06
6.99301e-07
-1.25768e-06
-3.34631e-06
2.40806e-06
-1.78625e-06
2.66102e-06
-3.63165e-06
2.56835e-06
-2.75949e-05
1.44986e-05
-3.85342e-05
5.17576e-05
2.99828e-06
-2.04335e-06
-2.27697e-06
-1.90791e-06
-8.62832e-07
1.1612e-06
1.31975e-06
-1.99542e-06
-2.26559e-06
2.68114e-06
1.67695e-06
3.24231e-06
-2.4726e-06
1.47367e-06
-2.4187e-06
-1.44511e-05
5.24508e-06
-4.57546e-05
5.50761e-05
-2.11879e-06
-9.53589e-07
1.35477e-06
1.46543e-06
-1.8951e-06
3.25711e-06
-7.67552e-06
6.50745e-06
2.53776e-06
4.92524e-07
-1.86537e-06
-1.2275e-06
-3.36064e-05
9.65529e-06
-1.71859e-05
4.12803e-05
9.33429e-07
-9.63426e-07
6.02363e-07
-7.76083e-07
-2.00555e-06
9.45676e-07
3.01412e-06
-2.12334e-06
-5.69383e-07
1.45975e-06
-1.13582e-06
4.25333e-07
-2.68765e-06
3.36045e-06
-1.14665e-05
1.09921e-05
1.0859e-06
-1.0701e-06
6.87851e-07
-9.03159e-07
1.33663e-06
4.11453e-07
-1.10646e-06
-6.43108e-07
1.07466e-06
5.9674e-07
-9.79982e-07
-6.80388e-07
-1.74756e-06
-1.26366e-06
1.9549e-06
1.05138e-06
-4.68589e-07
3.02233e-07
-1.13119e-07
2.39299e-07
-4.28035e-07
1.97058e-07
5.83803e-07
-3.21242e-07
-1.1715e-06
1.73745e-06
-2.69662e-06
1.9905e-06
1.47085e-06
-1.44005e-06
7.41987e-07
-5.96508e-07
-4.49363e-07
6.44165e-07
-2.59948e-07
1.12381e-07
1.47744e-06
-1.46606e-06
9.79635e-07
-1.06835e-06
6.39534e-07
7.19026e-07
-8.82148e-07
-4.17248e-07
-4.2423e-07
3.32428e-07
-1.89469e-07
2.71447e-07
3.98787e-07
1.79287e-07
-4.83309e-07
-9.96996e-08
-8.50598e-07
-1.06272e-06
1.14182e-06
7.75014e-07
4.97014e-06
-3.98279e-06
-1.31508e-08
-4.77671e-08
3.35494e-08
1.81534e-06
1.0199e-06
3.63571e-07
1.07538e-05
4.72691e-05
-9.57768e-05
1.00311e-07
1.08948e-06
-1.11847e-06
6.43807e-07
1.92537e-07
-4.64253e-08
2.26465e-06
-4.67848e-05
-6.72658e-08
7.31514e-07
-1.15997e-07
-2.26353e-07
1.33929e-07
-7.03221e-07
9.65319e-06
-7.85793e-05
-1.53648e-07
1.02215e-06
-5.2245e-07
5.11455e-06
5.66505e-07
3.66204e-07
-6.21577e-09
1.54155e-07
1.66582e-05
3.75878e-05
-7.32134e-05
1.72825e-07
3.2043e-07
6.79617e-07
-4.9386e-06
0.000185622
-0.000455747
-9.52818e-05
-2.45527e-07
4.85925e-07
-9.57708e-08
-2.57262e-07
5.77448e-07
1.15142e-07
0.000284886
-0.000475971
0.000210224
-0.000330949
0.000103468
-6.027e-06
-0.000286514
0.000140724
0.000135294
-1.62523e-07
3.09994e-07
-9.59179e-08
-1.64752e-07
3.83485e-07
1.22103e-07
1.02554e-06
-4.92233e-07
1.03038e-07
2.6313e-06
-2.13801e-06
-4.1529e-07
7.35377e-05
-0.000229784
-2.24333e-05
-0.00027969
0.000166835
-0.000118442
-1.85702e-06
2.27133e-06
5.22314e-07
-8.25413e-07
1.10689e-06
3.95747e-07
-8.25691e-07
9.18751e-07
-3.09404e-07
0.000120056
-0.000216312
0.000146827
-0.000298644
8.03054e-05
0.000111606
-5.53151e-08
1.35243e-07
6.82375e-08
-0.000356139
0.000161892
-0.00012023
1.09174e-06
-5.21442e-07
-7.45598e-08
-2.88378e-07
3.86175e-07
1.97368e-07
-1.40721e-06
1.65727e-06
-2.95181e-07
-0.00024442
9.84465e-05
-2.60577e-05
2.74932e-06
-2.43259e-06
8.64877e-07
-9.92002e-05
5.13034e-05
-3.99024e-05
-2.46013e-06
2.47154e-06
-7.10073e-07
-0.000292503
9.2287e-05
6.89694e-05
-5.67544e-08
1.04125e-07
-4.12913e-08
8.66714e-05
-0.000192377
-7.41857e-06
1.69652e-05
-6.11785e-05
1.99068e-05
-1.12129e-05
-1.19238e-06
8.88029e-06
5.06564e-07
-3.68775e-07
1.97708e-07
7.352e-07
-5.37886e-07
-3.27897e-07
-7.32883e-06
5.16286e-07
2.91603e-06
-4.12486e-06
4.38459e-06
-2.09518e-06
1.76565e-05
-4.10458e-05
1.29503e-05
1.76854e-07
-1.19733e-07
9.61686e-08
-1.81486e-05
5.71291e-06
4.71535e-06
5.45769e-06
-5.40235e-06
2.81892e-06
-3.17504e-06
3.04597e-06
1.60626e-06
-7.50505e-08
-9.59648e-08
9.97384e-11
9.75612e-08
8.27487e-08
2.83276e-09
-8.77306e-08
-6.6368e-08
4.2517e-11
-1.78869e-07
-1.95e-07
-1.74451e-09
5.32174e-06
-5.27999e-06
-2.96237e-06
7.00443e-07
-2.4286e-06
-7.82421e-07
-0.000415587
0.000250601
0.000300117
4.14118e-06
-4.49277e-06
2.71694e-06
-2.24338e-05
4.77279e-06
3.025e-06
1.93818e-07
1.62374e-07
2.28606e-09
-2.81365e-07
-1.77239e-07
2.08584e-09
1.85364e-06
-2.53877e-06
-1.1826e-06
5.12662e-06
-6.25284e-06
3.48694e-06
-6.70079e-07
5.2824e-07
-8.99891e-07
-2.24546e-06
1.89122e-06
-1.24427e-06
-1.74691e-06
1.9916e-06
1.22743e-06
-1.11044e-06
5.26279e-07
1.35084e-06
-1.22746e-06
1.57661e-06
2.64567e-07
6.13062e-07
-5.00449e-07
3.14493e-07
-1.1297e-06
8.15309e-07
1.17997e-06
-0.000282076
6.87319e-05
9.95765e-05
5.65999e-08
-1.41361e-07
-6.33295e-08
1.02737e-06
-7.76879e-07
-1.69235e-07
5.11051e-06
-5.28227e-06
-3.74025e-06
1.2418e-06
-3.768e-06
4.08343e-06
1.09332e-06
-1.21681e-06
-1.76754e-06
1.18569e-06
-8.22092e-07
1.94861e-07
1.58586e-07
1.63066e-07
4.327e-11
-1.53854e-05
3.28385e-06
1.04941e-05
1.08721e-06
-8.14067e-07
-1.3516e-07
1.42151e-06
-1.39182e-06
9.21225e-07
2.05203e-06
-2.11549e-06
-1.21123e-06
-4.52152e-06
4.18811e-06
3.6319e-06
-2.28261e-06
2.60686e-06
6.76763e-07
1.08671e-06
-1.17532e-06
9.30368e-07
1.79373e-06
-1.84296e-06
1.41057e-06
1.0158e-06
-9.09675e-07
-8.22149e-07
-1.88794e-06
2.14299e-06
-7.38997e-07
-4.58579e-06
4.25559e-06
-3.94298e-06
-2.9758e-06
3.06151e-06
1.45115e-06
7.08596e-07
-7.33402e-07
-5.24231e-07
7.72627e-07
-5.67249e-07
4.29567e-07
1.25495e-06
-1.55626e-06
-1.04606e-06
-9.94826e-07
1.00389e-06
-3.46657e-07
-1.3453e-06
1.63829e-07
8.34094e-08
-8.65768e-07
7.96331e-07
-3.73066e-07
2.3655e-06
-2.58029e-06
-2.9693e-06
-5.50235e-07
5.55282e-07
3.96104e-07
9.25519e-05
-0.00012265
4.14064e-05
5.86049e-07
-5.87972e-07
-2.34357e-07
-1.48575e-06
1.2092e-06
1.74697e-06
1.7214e-06
-1.23127e-06
-1.88845e-07
1.80711e-07
1.76547e-07
-7.50469e-12
2.5618e-07
-2.13841e-07
1.88743e-07
1.25314e-06
-8.7705e-07
1.55188e-07
-0.000268023
3.50276e-05
9.14629e-05
-8.36262e-05
3.285e-05
4.16112e-05
-0.000165572
7.23006e-05
9.35237e-06
9.2918e-07
-4.44227e-07
8.16896e-08
-0.000228362
3.47225e-05
0.000156076
3.92135e-07
-5.04179e-07
2.87562e-07
-7.57149e-07
6.56578e-07
-3.2599e-07
1.05724e-06
-1.00565e-06
-3.5739e-07
-0.000304754
8.36687e-05
0.000144405
6.05767e-08
-1.03184e-07
8.0643e-08
-0.000125862
4.35026e-05
6.8792e-05
-8.95027e-07
8.69079e-07
-7.55817e-07
-1.32546e-06
9.52423e-07
1.11649e-06
5.4197e-05
-0.000151666
5.67393e-05
-7.73566e-07
2.64061e-07
-6.71809e-07
0.000187018
-0.000559014
7.35271e-05
-8.72758e-07
2.78656e-07
-6.58389e-07
-0.000248129
0.000107113
6.50494e-05
-0.000253182
0.000140891
-4.53101e-05
-1.24354e-06
1.34364e-06
-1.41349e-06
9.56081e-07
-7.80286e-07
3.45661e-07
-0.000169033
0.000172339
2.01439e-05
-0.000532949
6.85972e-05
0.000371448
-0.000482145
0.000186457
0.000272498
-2.63436e-07
1.3437e-07
-1.98698e-07
-1.72282e-06
1.06947e-06
1.28162e-06
1.38088e-06
-2.10135e-06
1.93398e-06
1.65667e-06
-1.64943e-06
-1.92923e-06
-0.000294965
0.000111878
1.59054e-05
-0.00044692
0.000203017
0.000278408
-2.989e-07
1.4362e-07
1.73363e-07
-0.000261834
0.00011457
0.00012422
-2.16408e-07
4.87025e-07
1.16066e-07
8.15233e-07
-3.87058e-07
-1.22419e-07
4.72114e-07
-6.0583e-07
4.05709e-07
6.71219e-07
-7.83868e-07
-7.21282e-07