/*--------------------------------*- C++ -*----------------------------------*\
  =========                 |
  \\      /  F ield         | OpenFOAM: The Open Source CFD Toolbox
   \\    /   O peration     | Website:  https://openfoam.org
    \\  /    A nd           | Version:  6
     \\/     M anipulation  |
\*---------------------------------------------------------------------------*/
FoamFile
{
    version     2.0;
    format      ascii;
    class       surfaceVectorField;
    location    "2.38";
    object      Uf;
}
// * * * * * * * * * * * * * * * * * * * * * * * * * * * * * * * * * * * * * //

dimensions      [0 1 -1 0 0 0 0];

internalField   nonuniform List<vector> 
8193
(
(10.2707 -0.0612196 4.84949e-19)
(10.6171 -0.136358 6.69423e-19)
(9.31584 -0.27088 -4.43072e-18)
(10.6527 0.141607 -1.3234e-19)
(10.9593 0.146543 -1.67867e-19)
(10.7213 0.355525 2.05672e-19)
(10.9875 0.368976 6.63796e-19)
(10.7002 0.553963 8.98499e-21)
(10.9395 0.534332 -2.98339e-19)
(10.6546 0.742126 4.6617e-20)
(10.8911 0.713826 1.56988e-19)
(10.5967 0.926566 9.3522e-20)
(10.8382 0.903473 1.36256e-19)
(10.53 1.11118 -8.18197e-20)
(10.7791 1.0938 -1.42524e-19)
(10.4541 1.2983 2.26484e-20)
(10.7134 1.28894 2.26179e-20)
(10.365 1.48898 0)
(10.6369 1.49072 2.14893e-20)
(10.258 1.68354 8.88825e-21)
(10.5434 1.69961 -2.17151e-20)
(10.1291 1.88078 8.84131e-21)
(10.4275 1.91461 -9.30747e-20)
(9.97391 2.07861 1.23357e-20)
(10.2844 2.13377 -1.28486e-20)
(9.78836 2.27323 -4.74797e-20)
(10.1078 2.35256 -4.09047e-20)
(9.56954 2.46026 -3.23882e-20)
(9.89399 2.56598 1.29293e-19)
(9.31772 2.63498 0)
(9.64083 2.76988 1.36591e-20)
(9.03699 2.79361 0)
(9.35251 2.96081 -1.42977e-20)
(8.73276 2.92967 0)
(9.03296 3.13633 0)
(8.3986 3.0321 0)
(8.68545 3.29086 0)
(7.99658 3.087 0)
(8.29253 3.40753 2.26824e-21)
(7.41793 3.10866 0)
(7.81649 3.46302 -2.43023e-21)
(6.52358 3.17518 0)
(7.13219 3.47163 0)
(5.3906 3.27536 4.13529e-21)
(6.06241 3.58635 -3.96304e-21)
(4.54028 3.19153 -3.0542e-20)
(4.77989 3.74739 8.43368e-21)
(4.49793 2.8198 -2.08661e-20)
(4.13596 3.62457 2.1096e-19)
(5.40125 2.28739 -8.15904e-22)
(4.52943 3.14301 -2.34905e-21)
(7.14986 1.68459 9.4009e-20)
(5.90647 2.46875 8.43656e-20)
(9.38272 1.08993 -3.19239e-20)
(8.06331 1.7277 -6.73765e-21)
(11.5317 0.592572 -2.54873e-20)
(10.4456 1.06701 -1.37314e-20)
(13.029 0.270881 3.57979e-21)
(12.4448 0.578404 3.55002e-20)
(13.5727 0.145121 -8.23129e-22)
(13.5235 0.315057 1.18073e-21)
(13.4294 0.11728 -3.06551e-21)
(13.5914 0.232799 -4.11129e-22)
(13.06 0.105849 -1.67387e-20)
(13.2632 0.20392 -2.97265e-22)
(12.7146 0.0792379 1.89267e-20)
(12.8611 0.172175 -6.29927e-21)
(12.4596 0.045416 7.19946e-20)
(12.5745 0.123732 -2.74606e-21)
(12.2588 0.0197524 -4.63398e-21)
(12.3583 0.0836922 5.91288e-21)
(12.1006 0.00298422 -1.12949e-20)
(12.1841 0.0545832 -1.96248e-20)
(11.9854 -0.00818173 -1.63782e-20)
(12.0486 0.0344915 0)
(11.8987 -0.0191972 4.67172e-20)
(11.9523 0.019592 -6.25437e-20)
(11.7716 -0.0211028 4.63952e-19)
(11.8992 -0.0072407 -1.51757e-19)
(11.4379 -0.0177713 3.38056e-19)
(11.8308 -0.0301248 -1.88555e-19)
(11.5546 0.0213784 2.56319e-19)
(10.7041 0.00755909 9.41862e-20)
(11.1343 0.183812 1.17317e-20)
(11.1437 0.0471316 2.06096e-19)
(10.8829 -0.173807 -3.02628e-19)
(11.1378 0.370855 1.23764e-19)
(11.1785 0.30141 5.26415e-20)
(11.1006 0.536653 -1.10827e-19)
(11.1743 0.506209 1.50987e-19)
(11.0573 0.711441 -3.08274e-19)
(11.1438 0.654928 -1.26436e-19)
(11.0093 0.891952 2.48171e-19)
(11.1072 0.827497 1.58793e-19)
(10.9564 1.07933 9.79599e-20)
(11.0657 1.01764 1.21227e-19)
(10.8985 1.27548 -7.3762e-20)
(11.0189 1.21526 -6.98588e-20)
(10.8324 1.48199 2.13753e-20)
(10.9657 1.42287 0)
(10.7513 1.69866 -9.73379e-21)
(10.8996 1.64153 2.13389e-20)
(10.649 1.92453 -3.06812e-20)
(10.8142 1.87259 -4.43077e-20)
(10.5199 2.15762 -2.18332e-20)
(10.703 2.11482 1.33129e-19)
(10.3576 2.39511 -4.1355e-20)
(10.5606 2.36539 -1.27467e-19)
(10.1561 2.63187 -7.40229e-20)
(10.3785 2.61804 -3.87781e-19)
(9.9128 2.86393 1.99878e-20)
(10.1546 2.86708 3.43445e-20)
(9.62968 3.08743 -2.16316e-20)
(9.88706 3.10906 1.25996e-20)
(9.31055 3.29994 -1.41002e-20)
(9.582 3.34187 -7.09087e-20)
(8.95773 3.49649 0)
(9.24158 3.56276 -2.61945e-19)
(8.56225 3.66443 2.28672e-21)
(8.86408 3.76542 -2.52348e-19)
(8.09992 3.78024 -5.64033e-21)
(8.42601 3.93084 -8.69512e-21)
(7.51473 3.81969 -2.39672e-21)
(7.89256 4.03465 -2.42585e-21)
(6.66217 3.86716 -4.03444e-21)
(7.20425 4.04557 0)
(5.47372 4.05837 -1.56264e-21)
(6.19983 4.10542 -3.99194e-21)
(4.43308 4.20583 1.84266e-20)
(4.88431 4.33473 6.66445e-22)
(4.22724 3.94931 1.36729e-20)
(4.05802 4.38714 1.18214e-19)
(5.08783 3.35576 -3.69017e-20)
(4.33755 3.98888 -3.16821e-21)
(6.87618 2.52584 -3.56678e-20)
(5.65794 3.23609 -8.10552e-20)
(9.18023 1.71595 3.92359e-20)
(7.85078 2.3351 0)
(11.3968 1.05887 7.377e-20)
(10.2898 1.52497 3.08764e-20)
(12.9547 0.618371 3.64028e-20)
(12.3413 0.922528 -2.40018e-20)
(13.5424 0.407655 0)
(13.469 0.566791 0)
(13.422 0.321215 5.12728e-21)
(13.566 0.41685 0)
(13.0621 0.272284 5.12733e-21)
(13.2535 0.345924 5.14574e-21)
(12.7187 0.220254 0)
(12.8549 0.288539 6.28787e-20)
(12.4692 0.166449 0)
(12.569 0.223351 0)
(12.2768 0.124213 1.19304e-20)
(12.3576 0.168787 9.70648e-20)
(12.1228 0.0920957 1.2347e-20)
(12.1877 0.128177 1.79231e-19)
(12.0049 0.0648103 1.83147e-20)
(12.0528 0.0971732 -1.45509e-19)
(11.9262 0.0360315 2.45447e-20)
(11.9499 0.071178 1.78471e-20)
(11.8828 -0.00341658 -5.13243e-20)
(11.8811 0.036231 -9.73298e-20)
(11.843 -0.031084 1.2227e-19)
(11.8196 -0.00526136 3.46198e-19)
(11.7366 0.00448749 -3.92172e-20)
(11.6559 0.0850293 -2.04209e-18)
(11.2945 0.292031 2.73426e-18)
(11.405 0.192851 8.98812e-19)
(11.3499 0.0713924 2.18364e-18)
(11.265 0.452462 -4.16151e-19)
(11.3828 0.391478 5.20601e-19)
(11.2525 0.613688 1.09141e-20)
(11.3903 0.588454 -9.33384e-19)
(11.231 0.78747 4.6763e-20)
(11.3762 0.737549 6.24599e-19)
(11.1966 0.96959 -1.3892e-20)
(11.3485 0.910397 -2.14691e-19)
(11.1565 1.16021 -1.58895e-20)
(11.3169 1.10008 -2.35344e-19)
(11.1124 1.36276 -1.77969e-21)
(11.2831 1.30058 3.33105e-19)
(11.0582 1.5793 0)
(11.2436 1.51509 -1.15135e-19)
(10.9866 1.80908 -2.26005e-20)
(11.1884 1.7452 0)
(10.8912 2.05147 1.3222e-19)
(11.1119 1.99248 -5.75672e-20)
(10.7655 2.30393 2.72741e-20)
(11.0059 2.25483 1.58822e-20)
(10.602 2.56342 -3.36711e-19)
(10.8649 2.52966 5.22426e-20)
(10.3955 2.82413 -1.75069e-19)
(10.6777 2.8102 5.57026e-19)
(10.1442 3.08512 -2.27055e-20)
(10.448 3.09223 4.82066e-19)
(9.85075 3.34195 -9.98602e-20)
(10.1704 3.37212 -4.78942e-19)
(9.5199 3.59163 -2.9e-19)
(9.85249 3.64553 4.09331e-19)
(9.14905 3.8272 -5.11609e-19)
(9.49373 3.90956 9.66208e-20)
(8.72384 4.0301 -2.62322e-19)
(9.08393 4.15295 7.09538e-20)
(8.21389 4.17976 -1.07996e-20)
(8.59994 4.35075 -2.07453e-20)
(7.58113 4.24847 0)
(8.00531 4.48254 -5.54941e-19)
(6.74042 4.26249 0)
(7.27507 4.50955 0)
(5.59398 4.37779 -3.80427e-21)
(6.30875 4.4945 -4.34544e-20)
(4.48438 4.56445 1.39756e-19)
(5.01141 4.6454 -3.77271e-21)
(4.14213 4.40921 1.00154e-19)
(4.02245 4.75499 2.99517e-20)
(4.8968 3.90612 -1.23302e-19)
(4.17651 4.47089 9.44842e-20)
(6.64373 3.042 -4.41317e-20)
(5.37956 3.7484 5.29287e-20)
(8.98218 2.13888 -8.77977e-21)
(7.5834 2.79892 1.62219e-19)
(11.2529 1.38371 -4.65092e-20)
(10.0797 1.90529 -8.81332e-21)
(12.8638 0.85887 -4.13245e-20)
(12.1957 1.22138 -4.28065e-20)
(13.4931 0.580512 0)
(13.3873 0.789552 -1.74066e-20)
(13.3972 0.444848 0)
(13.5244 0.575681 -2.27565e-20)
(13.0476 0.365204 6.28537e-20)
(13.2339 0.462234 6.52157e-20)
(12.7075 0.29544 6.29149e-20)
(12.842 0.380108 3.2442e-20)
(12.4605 0.229486 9.42516e-20)
(12.5571 0.300287 3.46594e-20)
(12.2718 0.178225 2.56623e-19)
(12.3507 0.23407 -2.71189e-21)
(12.1206 0.139107 2.69841e-20)
(12.1851 0.185027 -7.46556e-21)
(12.002 0.107856 -1.42534e-19)
(12.0521 0.147143 -7.78904e-20)
(11.9094 0.0820923 -9.58795e-20)
(11.9498 0.115787 8.09761e-20)
(11.8325 0.0481288 -3.54843e-20)
(11.8733 0.0851974 9.24526e-20)
(11.7728 0.0105062 -1.32409e-19)
(11.8014 0.0534304 -6.4652e-20)
(11.7492 0.0276369 -1.84301e-19)
(11.7413 0.0177743 2.43349e-20)
(11.5196 0.397068 -9.84323e-19)
(11.6229 0.305377 -7.53728e-20)
(11.5742 0.231688 1.22591e-18)
(11.5088 0.553327 6.37444e-19)
(11.6092 0.490855 1.51537e-19)
(11.506 0.710876 -4.16649e-19)
(11.6231 0.672031 -3.22625e-19)
(11.4879 0.876143 5.87679e-19)
(11.6149 0.815493 5.36274e-19)
(11.462 1.05218 -4.36109e-19)
(11.5986 0.986032 -5.12631e-19)
(11.4364 1.24263 9.47787e-20)
(11.5833 1.17223 7.27696e-20)
(11.4073 1.45134 2.21132e-19)
(11.5683 1.37348 4.93349e-19)
(11.3662 1.67794 -1.1534e-19)
(11.5442 1.59438 -4.62491e-19)
(11.3057 1.92244 -3.4632e-20)
(11.5024 1.8357 -2.943e-19)
(11.2182 2.18414 -1.06628e-19)
(11.4375 2.09966 5.80121e-20)
(11.0965 2.45932 4.08909e-20)
(11.338 2.38263 -5.61276e-19)
(10.9318 2.74619 8.10737e-19)
(11.2016 2.68433 -3.90648e-19)
(10.7215 3.03799 1.13129e-18)
(11.0123 2.99741 2.74954e-19)
(10.4656 3.33715 -6.57527e-20)
(10.784 3.32004 -2.27593e-21)
(10.1629 3.63941 -8.18928e-21)
(10.5047 3.64936 1.27754e-18)
(9.81669 3.93805 7.52391e-19)
(10.1787 3.97279 -2.53778e-20)
(9.41943 4.22232 5.63413e-19)
(9.8026 4.2853 2.89431e-19)
(8.95022 4.46953 2.56499e-19)
(9.35778 4.57064 1.55702e-18)
(8.38062 4.64797 -5.69409e-19)
(8.81648 4.79819 -3.55134e-21)
(7.68831 4.73287 -5.47848e-19)
(8.15047 4.9435 7.84297e-20)
(6.83116 4.72179 -4.41505e-20)
(7.35203 4.97553 5.75315e-22)
(5.70911 4.74774 -4.29968e-20)
(6.38824 4.90264 -1.60701e-20)
(4.53504 4.89308 -1.00678e-19)
(5.12879 4.93979 -1.61785e-21)
(4.05428 4.78642 2.92704e-21)
(4.00878 5.02786 -2.46864e-19)
(4.67123 4.34761 1.16023e-19)
(4.0319 4.81697 2.44046e-20)
(6.34609 3.50795 2.13739e-19)
(5.08931 4.15375 4.6964e-20)
(8.71541 2.55926 1.62445e-19)
(7.27186 3.21572 -8.16734e-20)
(11.0509 1.73371 0)
(9.81842 2.28374 0)
(12.7329 1.13599 -1.80541e-20)
(12.006 1.53912 -4.87418e-20)
(13.4192 0.788911 -4.10467e-20)
(13.274 1.03767 -2.13615e-21)
(13.3584 0.597593 4.7325e-20)
(13.4623 0.756181 5.05499e-20)
(13.026 0.481133 2.54018e-20)
(13.2016 0.594306 7.84766e-21)
(12.6909 0.388189 1.5019e-20)
(12.82 0.481841 -2.17698e-19)
(12.4477 0.306224 -6.43103e-20)
(12.537 0.383483 3.48425e-20)
(12.2643 0.242991 -2.71642e-19)
(12.3358 0.303428 -9.91729e-20)
(12.1167 0.194699 -1.09068e-19)
(12.1749 0.244245 -1.0568e-19)
(11.9995 0.156019 1.68243e-19)
(12.044 0.198402 -1.13084e-19)
(11.9092 0.122705 3.17489e-19)
(11.9413 0.160246 8.18883e-20)
(11.8379 0.0883322 1.54766e-19)
(11.8609 0.125173 5.32293e-19)
(11.7749 0.0623757 -1.1561e-19)
(11.7919 0.0933069 8.35546e-20)
(11.739 0.0657709 4.39304e-19)
(11.7283 0.042668 -4.26118e-20)
(11.7385 0.492933 -9.34685e-19)
(11.843 0.403578 6.87105e-21)
(11.7805 0.347353 -1.3556e-18)
(11.7359 0.637813 -7.54293e-19)
(11.8439 0.580596 -1.3433e-18)
(11.7379 0.783335 5.21943e-19)
(11.8597 0.735758 4.91457e-19)
(11.7303 0.938688 -3.75083e-19)
(11.859 0.87252 1.06307e-20)
(11.723 1.10961 -3.12728e-20)
(11.8597 1.03669 -2.96295e-19)
(11.7175 1.30107 4.54146e-19)
(11.8663 1.21749 1.83329e-19)
(11.7062 1.51358 -1.8269e-19)
(11.8697 1.41844 1.59231e-19)
(11.6807 1.74855 -6.38731e-19)
(11.8628 1.64439 -1.66919e-19)
(11.6339 2.00633 -1.93191e-19)
(11.8368 1.89493 -2.94438e-20)
(11.5562 2.28619 -3.77464e-19)
(11.7855 2.1745 -2.30909e-19)
(11.4412 2.58368 -9.83237e-19)
(11.6938 2.47743 -5.91958e-19)
(11.2797 2.90074 -9.14371e-19)
(11.5686 2.80898 -6.4267e-19)
(11.0719 3.22809 -8.61166e-19)
(11.3816 3.16034 -3.98439e-19)
(10.82 3.57186 1.29884e-18)
(11.1636 3.52922 -4.88424e-19)
(10.5164 3.92266 1.26116e-18)
(10.8873 3.91547 2.11314e-18)
(10.1586 4.27177 -4.65616e-19)
(10.5559 4.29396 -2.26598e-18)
(9.73349 4.60107 1.28744e-18)
(10.1582 4.65356 1.8704e-18)
(9.21583 4.88321 1.27571e-18)
(9.66938 4.97205 -9.02967e-20)
(8.57639 5.08592 5.55943e-19)
(9.06156 5.21854 7.6593e-21)
(7.80315 5.17541 5.42329e-19)
(8.30878 5.36506 5.46284e-19)
(6.89727 5.13873 4.2535e-20)
(7.42111 5.38503 5.75679e-22)
(5.78959 5.07311 4.04388e-20)
(6.42435 5.26418 6.99719e-19)
(4.57987 5.12602 -1.37994e-19)
(5.20163 5.18333 -1.63697e-21)
(3.97933 5.03661 -2.43625e-19)
(3.9934 5.19411 -3.74259e-19)
(4.45637 4.64187 -9.49629e-20)
(3.88414 5.01975 -9.74856e-20)
(6.03568 3.87887 -1.49414e-19)
(4.79911 4.43464 2.67779e-21)
(8.40634 2.9385 -1.57965e-19)
(6.92539 3.55635 -1.66782e-19)
(10.8017 2.07624 -5.07675e-20)
(9.50768 2.63569 -1.40545e-20)
(12.5621 1.42155 -3.16011e-20)
(11.769 1.85804 -1.16905e-21)
(13.3171 1.00702 9.42115e-20)
(13.1233 1.29773 2.45366e-21)
(13.3014 0.758249 5.436e-21)
(13.376 0.94866 2.03739e-19)
(12.9921 0.600323 -2.48328e-19)
(13.1539 0.734954 -1.64453e-19)
(12.6647 0.480632 -1.8605e-19)
(12.7877 0.587664 1.35107e-19)
(12.4256 0.381283 0)
(12.5087 0.467586 4.25371e-20)
(12.2475 0.305455 6.42489e-20)
(12.3133 0.372542 -4.98096e-19)
(12.1039 0.248071 -1.0497e-19)
(12.1579 0.302369 6.44751e-20)
(11.9877 0.203047 -1.65684e-19)
(12.0303 0.248332 2.91977e-19)
(11.8951 0.164446 2.97323e-19)
(11.9277 0.204467 -2.68147e-21)
(11.82 0.128892 4.79585e-19)
(11.8455 0.165964 -5.39723e-20)
(11.7573 0.0996373 7.07729e-19)
(11.7771 0.131604 1.00714e-20)
(11.7229 0.0998324 1.57276e-20)
(11.7067 0.0727052 3.64248e-19)
(11.9644 0.571011 9.58133e-19)
(12.0617 0.482648 3.66985e-19)
(11.9914 0.444232 1.27364e-18)
(11.9714 0.698677 -6.80784e-19)
(12.0752 0.643372 4.63061e-19)
(11.9803 0.83044 -2.08193e-20)
(12.0933 0.774436 -8.88293e-19)
(11.9881 0.976112 8.50814e-20)
(12.1058 0.902642 8.51059e-20)
(12.0021 1.14262 -1.04732e-19)
(12.1299 1.05592 -5.3927e-19)
(12.0166 1.33173 -1.07874e-19)
(12.1571 1.23091 4.66349e-19)
(12.0239 1.54604 1.73932e-19)
(12.1804 1.43021 0)
(12.0161 1.78754 4.31246e-19)
(12.1929 1.65924 1.00557e-18)
(11.9851 2.05757 -4.39775e-20)
(12.1854 1.91713 -1.21457e-18)
(11.9193 2.35616 -4.48147e-19)
(12.1516 2.21233 5.66405e-19)
(11.8164 2.67893 -2.72932e-19)
(12.0718 2.53707 5.08147e-19)
(11.6652 3.03339 -1.44736e-19)
(11.9691 2.90442 -1.1523e-18)
(11.4672 3.40375 -4.42684e-20)
(11.79 3.30331 0)
(11.2242 3.80008 4.56919e-19)
(11.5913 3.72474 -4.38181e-20)
(10.9209 4.20048 -1.31102e-18)
(11.3155 4.17096 9.41174e-19)
(10.5493 4.59726 8.43133e-20)
(10.9766 4.60231 2.45642e-18)
(10.0863 4.96329 5.48199e-19)
(10.5476 5.00372 2.49065e-18)
(9.50764 5.26669 -1.27914e-18)
(9.99975 5.34003 -1.31731e-18)
(8.78677 5.47679 1.45002e-21)
(9.31209 5.58777 -2.33908e-18)
(7.91637 5.56218 0)
(8.46142 5.718 2.0816e-18)
(6.93485 5.49588 6.66009e-19)
(7.46531 5.70841 0)
(5.81843 5.34995 6.50779e-19)
(6.40937 5.54593 1.11071e-18)
(4.59254 5.28379 -1.33157e-19)
(5.20699 5.36239 -4.96991e-19)
(3.89195 5.17123 -1.2951e-19)
(3.9533 5.27366 5.23039e-19)
(4.23442 4.8132 2.98567e-21)
(3.72475 5.09654 1.73101e-20)
(5.71088 4.14186 -1.78975e-20)
(4.50862 4.58924 1.56078e-20)
(8.05834 3.2614 -1.76112e-20)
(6.5556 3.80398 -5.08653e-19)
(10.5041 2.40379 3.50201e-20)
(9.15351 2.94471 1.98541e-19)
(12.3466 1.7135 3.1643e-20)
(11.4834 2.16962 4.96189e-20)
(13.1822 1.23756 1.04508e-19)
(12.9299 1.56674 -1.57837e-19)
(13.223 0.933028 -1.04295e-20)
(13.2612 1.15408 3.74476e-20)
(12.9443 0.728963 2.55887e-19)
(13.0865 0.88648 -1.0851e-19)
(12.6288 0.578457 3.63389e-19)
(12.7424 0.700622 9.06238e-20)
(12.3956 0.459514 -4.61234e-19)
(12.4706 0.555166 -2.07827e-19)
(12.2239 0.369775 -5.02537e-19)
(12.2824 0.443472 -1.18364e-19)
(12.0852 0.302357 4.58588e-19)
(12.1338 0.36097 4.14679e-19)
(11.9712 0.249844 4.46982e-19)
(12.0106 0.297756 5.10277e-19)
(11.8791 0.205587 -3.34419e-19)
(11.9089 0.247337 -8.52564e-21)
(11.804 0.167063 -5.13936e-19)
(11.8265 0.204019 -3.23461e-19)
(11.7411 0.134225 -6.28568e-19)
(11.7585 0.166281 -1.78455e-19)
(11.7027 0.131536 -1.35052e-19)
(11.6862 0.102246 -1.94538e-20)
(12.1821 0.617624 1.25522e-18)
(12.2684 0.535952 1.08013e-18)
(12.2003 0.510438 -1.14094e-18)
(12.1982 0.725321 3.17372e-19)
(12.2922 0.667131 8.85566e-19)
(12.2205 0.843751 -7.93283e-19)
(12.3219 0.778416 -1.80467e-18)
(12.249 0.981921 -5.2329e-19)
(12.3563 0.896876 -7.05918e-20)
(12.2841 1.14132 1.63266e-20)
(12.4 1.03832 2.47274e-19)
(12.3192 1.32606 5.82064e-19)
(12.4477 1.20575 3.15543e-19)
(12.3471 1.54005 8.19158e-19)
(12.4924 1.40136 0)
(12.3595 1.7858 -6.08352e-19)
(12.5258 1.63071 2.24964e-19)
(12.3486 2.06734 -6.0162e-19)
(12.5415 1.89453 -2.77388e-20)
(12.3002 2.38693 1.50765e-18)
(12.5325 2.20661 4.54614e-19)
(12.2194 2.74108 -3.64502e-19)
(12.4739 2.55859 -8.58485e-19)
(12.0882 3.14283 -1.00499e-18)
(12.409 2.96852 -1.31478e-18)
(11.9069 3.5633 0)
(12.2403 3.42465 2.35026e-18)
(11.6747 4.01691 5.44548e-19)
(12.0667 3.90181 3.01804e-19)
(11.3632 4.46605 4.60486e-18)
(11.7816 4.40506 5.72524e-19)
(10.9681 4.8957 4.77393e-18)
(11.4185 4.87795 1.79009e-18)
(10.4545 5.28297 5.40099e-19)
(10.9456 5.30713 -5.18143e-18)
(9.79688 5.58832 -2.37788e-18)
(10.3195 5.64236 1.42013e-19)
(8.97793 5.78328 -2.04495e-19)
(9.53365 5.86552 3.20038e-18)
(7.99942 5.8408 2.05802e-18)
(8.56847 5.94627 -4.47551e-20)
(6.92817 5.74359 4.54004e-19)
(7.46261 5.90084 0)
(5.78269 5.53507 -6.09669e-20)
(6.33338 5.70362 -2.19193e-18)
(4.55485 5.35914 -4.02788e-20)
(5.1332 5.43943 8.22622e-19)
(3.78278 5.19908 4.62853e-19)
(3.86995 5.26522 -5.79149e-19)
(4.00241 4.86231 3.72362e-20)
(3.54218 5.05692 1.21245e-21)
(5.37261 4.2941 -6.03666e-19)
(4.21803 4.61517 4.4158e-20)
(7.67839 3.51129 -2.54639e-19)
(6.17152 3.94492 -1.71792e-19)
(10.16 2.70627 2.44961e-19)
(8.76658 3.19163 9.49636e-20)
(12.0835 2.00314 -1.48093e-19)
(11.1485 2.46062 -3.63335e-20)
(13.01 1.47569 -2.44483e-19)
(12.6884 1.8365 4.09896e-20)
(13.1178 1.11964 -9.8e-20)
(13.1135 1.36955 1.04471e-19)
(12.8781 0.866091 -2.6143e-19)
(12.9939 1.04747 -6.90926e-20)
(12.5804 0.681303 -5.16823e-19)
(12.6804 0.820662 -2.68395e-19)
(12.3558 0.540431 1.43243e-19)
(12.4206 0.646556 3.95513e-19)
(12.1918 0.43537 8.16977e-19)
(12.2417 0.516713 -1.00652e-19)
(12.0594 0.356756 4.69858e-19)
(12.1015 0.420551 -4.34426e-19)
(11.9487 0.296068 5.04937e-20)
(11.9843 0.347293 -1.27187e-19)
(11.8573 0.245786 0)
(11.8848 0.289635 -1.84385e-19)
(11.7821 0.203144 0)
(11.8034 0.240779 -1.51878e-19)
(11.7197 0.165747 2.0963e-19)
(11.7353 0.198698 8.67404e-19)
(11.6793 0.160272 -4.30268e-19)
(11.6646 0.130702 4.77536e-20)
(12.3879 0.627931 1.29053e-18)
(12.4634 0.557402 8.15818e-19)
(12.3948 0.537591 2.2913e-18)
(12.4164 0.719562 -1.11109e-18)
(12.4957 0.648364 -8.23086e-20)
(12.4562 0.824892 -1.11855e-18)
(12.5402 0.742672 -1.01496e-18)
(12.5055 0.950646 6.8326e-19)
(12.5954 0.849934 7.01006e-22)
(12.5612 1.10023 5.45354e-19)
(12.6595 0.979572 1.27705e-18)
(12.6179 1.27795 -2.53014e-19)
(12.728 1.13647 -1.20588e-18)
(12.6679 1.48918 -5.93493e-19)
(12.7963 1.32679 7.56825e-19)
(12.7043 1.73659 7.85825e-19)
(12.8517 1.55245 -5.93881e-19)
(12.7215 2.03004 1.02577e-18)
(12.8999 1.82237 6.13338e-19)
(12.7017 2.37525 -1.8637e-18)
(12.9278 2.15271 -1.9168e-18)
(12.6571 2.76884 -1.81041e-18)
(12.9049 2.54122 1.07409e-20)
(12.5542 3.2279 1.96609e-18)
(12.8931 2.99786 1.84378e-18)
(12.3911 3.70234 2.62528e-18)
(12.7302 3.51817 2.69543e-18)
(12.1641 4.21172 1.27794e-19)
(12.5792 4.04669 -8.24493e-20)
(11.8266 4.69871 -1.95638e-18)
(12.2641 4.59744 -2.8874e-18)
(11.3878 5.14644 -8.06436e-18)
(11.8536 5.09198 -1.80763e-18)
(10.8036 5.53002 -5.45505e-18)
(11.3134 5.52684 1.77885e-18)
(10.0461 5.80934 5.44124e-18)
(10.5859 5.83722 5.04044e-20)
(9.11384 5.95191 3.15603e-18)
(9.67907 6.01451 2.32096e-18)
(8.0264 5.95994 -2.0999e-18)
(8.59955 6.03137 5.1762e-18)
(6.86301 5.83891 -2.77236e-18)
(7.39986 5.93872 -1.7582e-20)
(5.67343 5.58803 -1.33794e-18)
(6.18803 5.70372 1.07681e-18)
(4.45176 5.32793 1.17401e-18)
(4.9755 5.38041 5.34904e-19)
(3.63651 5.11286 -2.13947e-19)
(3.72551 5.14131 -1.87141e-19)
(3.75701 4.79176 -7.71646e-21)
(3.32722 4.89612 -9.66747e-19)
(5.02906 4.33189 5.16791e-19)
(3.92663 4.51094 3.20873e-20)
(7.28015 3.67078 2.40076e-19)
(5.78025 3.97195 3.97725e-19)
(9.7776 2.95816 -2.62861e-19)
(8.35779 3.35929 -1.42302e-19)
(11.7695 2.2825 1.37899e-19)
(10.7725 2.71336 7.67582e-20)
(12.795 1.71636 3.93587e-19)
(12.3934 2.09582 6.57061e-20)
(12.9815 1.31487 7.19568e-20)
(12.9275 1.59064 -4.03252e-19)
(12.7886 1.01127 -7.41394e-20)
(12.8702 1.2159 8.42406e-20)
(12.5161 0.789661 6.96076e-19)
(12.597 0.94719 -3.68102e-21)
(12.304 0.62472 1.47542e-19)
(12.3555 0.741863 2.99467e-19)
(12.1501 0.502989 -1.40412e-18)
(12.1889 0.592752 3.615e-19)
(12.0258 0.411918 -1.05928e-18)
(12.0594 0.481511 -4.66271e-19)
(11.9199 0.34216 -3.78119e-19)
(11.9502 0.397479 -3.87425e-19)
(11.8309 0.284953 -3.37253e-19)
(11.8545 0.331484 1.94798e-19)
(11.7565 0.237292 7.17293e-19)
(11.7756 0.276266 -4.97493e-19)
(11.6948 0.195437 2.16645e-19)
(11.7081 0.229019 4.50134e-19)
(11.6534 0.186801 6.92507e-19)
(11.64 0.158066 -2.95037e-19)
(12.5738 0.596751 6.83421e-20)
(12.635 0.528553 -1.26863e-18)
(12.5653 0.526092 -1.57195e-18)
(12.6177 0.672627 7.21526e-20)
(12.6782 0.586134 -1.36256e-20)
(12.676 0.763935 7.04382e-20)
(12.7392 0.665 0)
(12.7457 0.876155 5.66867e-19)
(12.8138 0.75854 7.12125e-20)
(12.8225 1.01401 -4.16539e-19)
(12.8983 0.876197 4.97052e-19)
(12.9022 1.18243 -2.37636e-19)
(12.988 1.01967 -9.39537e-19)
(12.976 1.38852 7.58423e-19)
(13.0823 1.2041 -2.83371e-20)
(13.0428 1.63517 -7.72945e-19)
(13.1612 1.4206 -9.43344e-19)
(13.1014 1.94193 -2.27053e-18)
(13.2576 1.69893 1.68505e-19)
(13.1258 2.31818 -7.34455e-20)
(13.3382 2.04613 2.33959e-18)
(13.1331 2.75673 3.55208e-18)
(13.3659 2.48128 1.33918e-18)
(13.0613 3.27943 2.59026e-18)
(13.4186 2.98119 5.02382e-18)
(12.9073 3.80511 8.37098e-20)
(13.246 3.5682 -1.81047e-18)
(12.6689 4.36083 -3.04317e-18)
(13.1042 4.13262 -3.67791e-19)
(12.2803 4.86631 -2.0294e-18)
(12.7262 4.71355 -2.36029e-18)
(11.7697 5.31279 7.91872e-18)
(12.2426 5.2038 -1.06427e-19)
(11.0892 5.6591 6.96266e-18)
(11.5977 5.61524 3.08011e-18)
(10.2179 5.88717 -3.55382e-18)
(10.7483 5.86585 -4.90696e-18)
(9.16766 5.98142 4.0871e-18)
(9.72196 5.98622 -3.21969e-18)
(7.97342 5.94283 7.19243e-18)
(8.53301 5.94041 4.66186e-18)
(6.71934 5.77599 3.93879e-18)
(7.2378 5.78342 -1.75442e-20)
(5.47986 5.48048 2.9986e-18)
(5.94983 5.51438 1.80572e-18)
(4.27496 5.15543 -8.62203e-19)
(4.72435 5.15374 -8.75038e-19)
(3.4505 4.88379 -9.71616e-19)
(3.50211 4.87244 0)
(3.50051 4.58974 -9.48671e-19)
(3.07663 4.59856 1.19528e-18)
(4.68354 4.24535 -9.27937e-20)
(3.63601 4.27241 2.00583e-18)
(6.87293 3.72883 2.59795e-19)
(5.39244 3.8815 -2.49625e-18)
(9.37044 3.14091 2.11594e-19)
(7.93931 3.43606 9.51891e-20)
(11.4068 2.53508 -1.55403e-19)
(10.3686 2.90955 1.20995e-19)
(12.5286 1.95501 -7.65588e-19)
(12.0455 2.33073 -1.2604e-19)
(12.8073 1.51358 -3.12247e-19)
(12.6959 1.80841 -5.06506e-19)
(12.6697 1.16225 1.61656e-19)
(12.7088 1.38769 3.4975e-19)
(12.431 0.902718 -4.20216e-19)
(12.4861 1.07794 0)
(12.2369 0.712149 5.28818e-19)
(12.271 0.839917 -4.70923e-19)
(12.0959 0.572732 1.37836e-18)
(12.1211 0.67131 6.68131e-19)
(11.9823 0.468122 2.4261e-19)
(12.0048 0.543586 -3.58019e-20)
(11.8834 0.388481 1.96522e-19)
(11.9064 0.448526 -1.86906e-19)
(11.7985 0.323299 4.56666e-20)
(11.8164 0.37289 6.16339e-19)
(11.7261 0.26974 -7.50041e-19)
(11.7421 0.310743 -3.56811e-19)
(11.666 0.222647 8.65776e-19)
(11.6762 0.257185 -4.32955e-19)
(11.6235 0.210605 7.53251e-19)
(11.613 0.180737 8.80647e-19)
(12.7355 0.519639 -1.3726e-18)
(12.7742 0.442476 -2.83839e-18)
(12.7092 0.467862 -9.56919e-19)
(12.7967 0.580669 -8.44411e-20)
(12.8337 0.479178 2.82523e-18)
(12.8732 0.658092 0)
(12.9115 0.544803 -1.40328e-18)
(12.9622 0.75642 0)
(13.0034 0.623322 -1.572e-18)
(13.0598 0.88136 0)
(13.1083 0.729576 2.34018e-18)
(13.1635 1.0381 -7.56777e-19)
(13.2179 0.855703 8.93751e-19)
(13.2632 1.23679 -1.69782e-18)
(13.3423 1.03464 -1.63844e-18)
(13.3702 1.48024 9.43036e-21)
(13.4466 1.23506 1.57965e-19)
(13.4882 1.80104 4.65982e-18)
(13.6135 1.5252 -3.68453e-18)
(13.572 2.21084 3.7071e-18)
(13.761 1.88183 4.49722e-18)
(13.6422 2.69304 2.86189e-18)
(13.849 2.36951 -1.69277e-18)
(13.5959 3.27535 6.56936e-19)
(13.9667 2.89797 1.62273e-18)
(13.4303 3.8423 -2.17288e-18)
(13.7597 3.54747 -2.39011e-19)
(13.151 4.42738 4.99393e-19)
(13.6019 4.1225 -5.58994e-18)
(12.6774 4.92497 -4.81656e-19)
(13.1181 4.71203 -1.18287e-19)
(12.0613 5.33841 -4.88665e-18)
(12.5295 5.16681 -5.43496e-18)
(11.2545 5.6146 -8.68185e-18)
(11.7381 5.51553 1.56458e-18)
(10.2578 5.77407 -4.73127e-18)
(10.7541 5.66452 6.97544e-19)
(9.08907 5.8116 -2.84501e-18)
(9.60125 5.67922 -3.52889e-19)
(7.7937 5.70669 -2.81185e-18)
(8.29782 5.5597 -7.01176e-18)
(6.4636 5.49231 -2.28315e-18)
(6.92906 5.34786 -3.75328e-20)
(5.18922 5.17363 -2.24624e-18)
(5.59929 5.07915 -2.26787e-18)
(4.01926 4.80512 0)
(4.36788 4.72096 0)
(3.22358 4.4939 1.0539e-18)
(3.19126 4.43271 0)
(3.23677 4.24522 3.15031e-18)
(2.79075 4.14844 -2.1387e-19)
(4.34434 4.02358 -4.6514e-19)
(3.34865 3.89248 -2.11935e-18)
(6.46846 3.67803 -2.41591e-18)
(5.02433 3.66958 -2.6659e-19)
(8.95059 3.24258 0)
(7.52636 3.41498 -1.24729e-18)
(11.0114 2.73413 0)
(9.94779 3.03489 1.01787e-18)
(12.2114 2.1827 1.48846e-19)
(11.6578 2.52403 6.61749e-19)
(12.5859 1.70717 4.87722e-19)
(12.4105 2.00907 -5.60134e-20)
(12.5149 1.31397 1.84882e-19)
(12.5033 1.5549 8.58254e-20)
(12.3194 1.01809 -4.14896e-20)
(12.3415 1.20838 0)
(12.1504 0.801426 -3.58641e-19)
(12.1618 0.937847 -4.00461e-19)
(12.0265 0.643902 -8.34765e-19)
(12.0345 0.750935 -1.6697e-21)
(11.9266 0.525048 -4.99466e-19)
(11.9348 0.605545 -2.35252e-19)
(11.8373 0.434921 2.58036e-19)
(11.8504 0.499936 -2.13402e-19)
(11.7588 0.36084 2.19693e-19)
(11.7685 0.413072 6.17939e-19)
(11.6903 0.300861 0)
(11.7012 0.343932 -7.31622e-19)
(11.6329 0.247519 -5.35599e-19)
(11.6381 0.282546 3.40155e-19)
(11.5881 0.231022 -5.51174e-19)
(11.5827 0.199617 -7.61154e-19)
(12.87 0.397447 1.28947e-18)
(12.8859 0.312867 -1.21641e-18)
(12.8256 0.35798 1.06906e-18)
(12.9465 0.445703 1.64809e-18)
(12.9578 0.33277 9.12544e-19)
(13.0392 0.510174 -2.92432e-18)
(13.052 0.386987 -1.08975e-18)
(13.1462 0.594469 7.02819e-19)
(13.1581 0.449169 8.37529e-19)
(13.2636 0.70555 3.21272e-18)
(13.2833 0.544933 4.05626e-18)
(13.3924 0.847578 -5.72108e-21)
(13.409 0.648283 -2.8023e-18)
(13.5224 1.03668 1.55198e-19)
(13.5706 0.821896 1.05574e-19)
(13.683 1.27341 -3.46563e-18)
(13.7022 0.99812 -1.26891e-18)
(13.8792 1.60531 -3.8468e-18)
(13.9644 1.30158 -2.06135e-18)
(14.0311 2.04438 -8.65667e-19)
(14.1846 1.65311 -1.95448e-18)
(14.1637 2.55921 -2.92989e-18)
(14.3322 2.19199 -2.84763e-18)
(14.1264 3.1867 4.49299e-19)
(14.5017 2.72159 -3.89728e-18)
(13.9201 3.77633 -3.96779e-18)
(14.2263 3.41899 1.84106e-18)
(13.5618 4.36787 -6.13611e-18)
(14.0212 3.97632 -8.45083e-19)
(12.9607 4.82768 -4.99039e-18)
(13.3834 4.55375 1.29148e-19)
(12.1995 5.17459 9.68263e-19)
(12.6527 4.9346 -7.73191e-19)
(11.2309 5.34597 1.13193e-17)
(11.669 5.17507 1.55672e-18)
(10.0936 5.36731 4.67392e-18)
(10.5217 5.19644 4.60759e-18)
(8.81405 5.28616 -4.93641e-18)
(9.24738 5.06859 -3.48582e-19)
(7.44386 5.12493 -4.59592e-18)
(7.86797 4.84871 -4.54685e-18)
(6.07388 4.9016 -3.72153e-20)
(6.46759 4.59193 -3.73947e-20)
(4.80133 4.60558 0)
(5.13252 4.34742 0)
(3.69275 4.23124 0)
(3.90238 4.04207 0)
(2.95507 3.92253 -1.29173e-18)
(2.79765 3.79294 0)
(2.96535 3.74511 -5.77514e-18)
(2.47468 3.52937 5.05247e-18)
(4.02347 3.66009 -1.92894e-18)
(3.07257 3.36662 8.25057e-19)
(6.0856 3.51257 1.08727e-18)
(4.69715 3.33454 2.43908e-18)
(8.53214 3.25405 -2.04009e-19)
(7.13828 3.29178 -4.33777e-19)
(10.5944 2.86326 1.71924e-18)
(9.52228 3.07755 4.20648e-19)
(11.8494 2.37075 2.77189e-19)
(11.2424 2.65817 7.47829e-19)
(12.314 1.88054 -3.24327e-19)
(12.0713 2.1756 -2.6078e-19)
(12.319 1.45775 -1.10123e-19)
(12.2496 1.70432 -4.71576e-19)
(12.1761 1.13087 -3.72862e-19)
(12.1575 1.33061 0)
(12.0402 0.889662 -2.57165e-20)
(12.0225 1.0306 -3.62089e-20)
(11.9384 0.714555 6.53464e-19)
(11.9247 0.828504 6.77427e-19)
(11.8557 0.581389 5.51621e-20)
(11.8456 0.664912 -2.68384e-19)
(11.779 0.480427 1.55539e-19)
(11.7791 0.550267 -7.62289e-19)
(11.7098 0.396629 -3.24019e-19)
(11.708 0.450172 8.75336e-19)
(11.6475 0.330059 -3.35171e-19)
(11.6511 0.374781 -1.16754e-18)
(11.5952 0.269658 3.51322e-19)
(11.5923 0.303347 3.64818e-19)
(11.5467 0.247639 2.25075e-19)
(11.5482 0.216329 -2.61091e-19)
(12.9703 0.241666 -1.4469e-18)
(12.9676 0.153461 3.49489e-18)
(12.9122 0.211849 2.8788e-19)
(13.0587 0.277236 -1.69375e-18)
(13.0447 0.158559 -4.47992e-18)
(13.1653 0.328997 2.48172e-18)
(13.1572 0.201156 -3.63971e-19)
(13.288 0.398089 4.10907e-18)
(13.2723 0.244478 1.09051e-18)
(13.423 0.493952 -1.56624e-18)
(13.4191 0.330038 2.37156e-18)
(13.5784 0.616501 -2.64886e-18)
(13.5532 0.404734 -2.39021e-18)
(13.7455 0.793304 -1.26808e-18)
(13.7637 0.57006 9.20984e-19)
(13.9735 1.01641 3.98061e-20)
(13.9215 0.713736 3.48405e-19)
(14.2624 1.35078 -2.6896e-19)
(14.3005 1.02522 6.62651e-18)
(14.4801 1.80764 -3.93718e-18)
(14.5878 1.35143 -7.45038e-18)
(14.6596 2.33374 -3.71277e-18)
(14.78 1.93429 3.72176e-19)
(14.6024 2.98331 -2.69739e-18)
(14.9769 2.42868 -1.78451e-18)
(14.3209 3.57107 4.61884e-18)
(14.5916 3.14807 1.20515e-18)
(13.8434 4.14651 5.37338e-18)
(14.3106 3.66304 4.57819e-18)
(13.0681 4.5333 4.34009e-18)
(13.4594 4.20454 7.68331e-18)
(12.1183 4.7766 3.54668e-19)
(12.5482 4.47109 4.09354e-18)
(10.9579 4.80452 -6.14419e-18)
(11.3251 4.55462 -5.28478e-18)
(9.68075 4.69389 -8.22289e-19)
(10.0234 4.42848 1.58825e-17)
(8.31372 4.49827 0)
(8.65047 4.16261 -4.35165e-19)
(6.90543 4.25958 0)
(7.22828 3.8415 7.64397e-18)
(5.54518 4.00958 0)
(5.83827 3.53982 -1.01397e-19)
(4.32524 3.73437 0)
(4.53528 3.31729 9.4187e-18)
(3.30273 3.40372 0)
(3.34015 3.09797 0)
(2.6488 3.15093 9.42164e-19)
(2.3381 2.93423 0)
(2.69866 3.08196 6.14393e-18)
(2.14438 2.7332 9.41893e-19)
(3.74402 3.15409 5.22347e-18)
(2.82456 2.70102 1.81343e-18)
(5.74813 3.23019 9.42819e-19)
(4.43776 2.88095 -3.38038e-18)
(8.13251 3.16795 5.2183e-19)
(6.79808 3.06413 2.31491e-19)
(10.1674 2.91066 -6.59983e-19)
(9.10749 3.02842 -1.41707e-18)
(11.4532 2.49267 -3.38347e-19)
(10.8079 2.71774 -6.74172e-19)
(11.9943 2.01739 -5.78515e-19)
(11.6879 2.28915 -1.02366e-19)
(12.079 1.58236 -3.67977e-19)
(11.9479 1.81856 -7.67751e-19)
(11.9969 1.23295 3.52851e-19)