/*--------------------------------*- C++ -*----------------------------------*\
  =========                 |
  \\      /  F ield         | OpenFOAM: The Open Source CFD Toolbox
   \\    /   O peration     | Website:  https://openfoam.org
    \\  /    A nd           | Version:  6
     \\/     M anipulation  |
\*---------------------------------------------------------------------------*/
FoamFile
{
    version     2.0;
    format      ascii;
    class       volScalarField;
    location    "2.42";
    object      rho;
}
// * * * * * * * * * * * * * * * * * * * * * * * * * * * * * * * * * * * * * //

dimensions      [1 -3 0 0 0 0 0];

internalField   nonuniform List<scalar> 
5625
(
1.43982
1.42258
1.40157
1.37712
1.34949
1.31888
1.2856
1.2501
1.21315
1.17598
1.14017
1.10742
1.07933
1.05711
1.04136
1.03237
1.03065
1.03669
1.05048
1.07128
1.09799
1.12949
1.16467
1.20213
1.24016
1.27702
1.31144
1.34294
1.37159
1.39745
1.42017
1.4389
1.45264
1.4607
1.46307
1.46055
1.45449
1.44641
1.43772
1.42944
1.42219
1.41623
1.41157
1.40808
1.40554
1.40375
1.40251
1.40168
1.40113
1.40076
1.40052
1.40036
1.40025
1.40018
1.40013
1.40009
1.40007
1.40005
1.40003
1.40003
1.40002
1.40001
1.40001
1.40001
1.40001
1.40001
1.40001
1.40001
1.40001
1.40001
1.40001
1.40001
1.40001
1.40001
1.40001
1.44573
1.43064
1.412
1.39015
1.36542
1.33809
1.30851
1.27713
1.24468
1.2122
1.18096
1.15228
1.12753
1.10781
1.09373
1.0857
1.08425
1.08975
1.10201
1.12028
1.14363
1.17114
1.20187
1.23463
1.26795
1.30033
1.33077
1.35888
1.38469
1.40806
1.42844
1.44485
1.45631
1.46226
1.46289
1.45912
1.45232
1.44398
1.43536
1.42737
1.42049
1.41492
1.4106
1.40738
1.40506
1.40343
1.40231
1.40156
1.40105
1.40072
1.40049
1.40035
1.40024
1.40017
1.40013
1.40009
1.40007
1.40005
1.40003
1.40002
1.40002
1.40001
1.40001
1.40001
1.40001
1.40001
1.40001
1.40001
1.40001
1.40001
1.40001
1.40001
1.40001
1.40001
1.40001
1.4512
1.43832
1.42204
1.40277
1.3809
1.35676
1.33072
1.30324
1.27499
1.24683
1.21975
1.19483
1.17327
1.156
1.14361
1.13657
1.13539
1.14026
1.15089
1.16665
1.18676
1.21051
1.23711
1.26553
1.29449
1.32275
1.3495
1.37447
1.39755
1.41845
1.4364
1.45037
1.45945
1.46325
1.46216
1.45721
1.4498
1.4413
1.43285
1.42521
1.41875
1.41358
1.40962
1.40669
1.40458
1.40312
1.40211
1.40143
1.40097
1.40067
1.40047
1.40033
1.40024
1.40017
1.40012
1.40009
1.40006
1.40005
1.40003
1.40003
1.40002
1.40001
1.40001
1.40001
1.40001
1.40001
1.40001
1.40001
1.40001
1.40001
1.40001
1.40001
1.40001
1.40001
1.40001
1.45608
1.44543
1.43149
1.41475
1.39563
1.37453
1.35182
1.32797
1.30357
1.27932
1.256
1.23456
1.216
1.20106
1.19029
1.1842
1.18321
1.18737
1.19636
1.2097
1.22682
1.24715
1.27001
1.29449
1.31951
1.34403
1.36745
1.38949
1.40998
1.42839
1.44383
1.45526
1.46188
1.46355
1.46082
1.45482
1.44693
1.4384
1.43022
1.42299
1.41699
1.41225
1.40865
1.406
1.40412
1.40281
1.40191
1.4013
1.4009
1.40062
1.40044
1.40031
1.40023
1.40016
1.40012
1.40009
1.40006
1.40005
1.40003
1.40002
1.40002
1.40001
1.40001
1.40001
1.40001
1.40001
1.40001
1.40001
1.40001
1.40001
1.40001
1.40001
1.40001
1.40001
1.40001
1.46017
1.45179
1.44018
1.42588
1.40939
1.39112
1.37149
1.35096
1.33002
1.30926
1.28935
1.2711
1.25527
1.24244
1.23316
1.22794
1.22705
1.23045
1.23789
1.24904
1.2635
1.2808
1.30035
1.32134
1.34284
1.36404
1.38444
1.40379
1.42176
1.43765
1.45049
1.45929
1.46345
1.46304
1.45882
1.45195
1.44374
1.43532
1.42751
1.42075
1.41524
1.41094
1.4077
1.40534
1.40367
1.40251
1.40171
1.40118
1.40082
1.40057
1.40041
1.4003
1.40021
1.40016
1.40011
1.40008
1.40006
1.40004
1.40003
1.40002
1.40002
1.40001
1.40001
1.40001
1.40001
1.40001
1.40001
1.40001
1.40001
1.40001
1.40001
1.40001
1.40001
1.40001
1.40001
1.46326
1.45719
1.44794
1.43603
1.42202
1.40637
1.38955
1.37198
1.35412
1.33646
1.31959
1.30415
1.29071
1.27978
1.27187
1.26741
1.26653
1.2692
1.27529
1.28457
1.29674
1.31141
1.32806
1.34599
1.3644
1.38264
1.40033
1.41717
1.43265
1.44597
1.45612
1.46225
1.464
1.46167
1.45615
1.44863
1.4403
1.43213
1.42476
1.41853
1.41353
1.40966
1.40679
1.40471
1.40324
1.40222
1.40153
1.40106
1.40074
1.40053
1.40038
1.40028
1.4002
1.40015
1.40011
1.40008
1.40006
1.40004
1.40003
1.40002
1.40002
1.40001
1.40001
1.40001
1.40001
1.40001
1.40001
1.40001
1.40001
1.40001
1.40001
1.40001
1.40001
1.40001
1.40001
1.4652
1.46145
1.45455
1.44501
1.43338
1.42019
1.40591
1.39098
1.37582
1.36087
1.34665
1.33363
1.32226
1.31302
1.30633
1.30249
1.30159
1.30365
1.30863
1.31637
1.32661
1.33904
1.35319
1.36845
1.38415
1.39978
1.41499
1.42941
1.44241
1.45308
1.46049
1.46397
1.46344
1.45941
1.45285
1.44492
1.43666
1.42887
1.42203
1.41637
1.41188
1.40845
1.40593
1.40411
1.40284
1.40195
1.40135
1.40095
1.40067
1.40048
1.40035
1.40026
1.40019
1.40014
1.4001
1.40008
1.40006
1.40004
1.40003
1.40002
1.40002
1.40001
1.40001
1.40001
1.40001
1.40001
1.40001
1.40001
1.40001
1.40001
1.40001
1.40001
1.40001
1.40001
1.40001
1.46585
1.46437
1.45982
1.45263
1.44334
1.43247
1.42053
1.40796
1.39517
1.38258
1.37062
1.35965
1.35008
1.34231
1.33667
1.33335
1.33245
1.33406
1.33818
1.34466
1.3533
1.36383
1.37582
1.38874
1.40205
1.41534
1.42825
1.4403
1.45075
1.45871
1.46337
1.46432
1.46174
1.4563
1.44901
1.44091
1.43291
1.42562
1.41937
1.41429
1.41032
1.40732
1.40512
1.40356
1.40246
1.40171
1.40119
1.40084
1.4006
1.40044
1.40032
1.40024
1.40018
1.40013
1.4001
1.40007
1.40005
1.40004
1.40003
1.40002
1.40002
1.40001
1.40001
1.40001
1.40001
1.40001
1.40001
1.40001
1.40001
1.40001
1.40001
1.40001
1.40001
1.40001
1.40001
1.46512
1.4658
1.46356
1.45871
1.45171
1.44309
1.43335
1.42293
1.41225
1.40173
1.39169
1.38249
1.37447
1.36797
1.36321
1.36034
1.35951
1.36083
1.36428
1.36972
1.37701
1.3859
1.39602
1.40689
1.41807
1.4292
1.43988
1.44953
1.45738
1.4626
1.4646
1.46325
1.45893
1.45243
1.44472
1.43671
1.42914
1.42244
1.41682
1.41233
1.40886
1.40627
1.40439
1.40305
1.40212
1.40148
1.40104
1.40074
1.40054
1.40039
1.40029
1.40022
1.40016
1.40012
1.40009
1.40007
1.40005
1.40004
1.40003
1.40002
1.40002
1.40001
1.40001
1.40001
1.40001
1.40001
1.40001
1.40001
1.40001
1.40001
1.40001
1.40001
1.40001
1.40001
1.40001
1.46297
1.46564
1.46561
1.46305
1.45832
1.4519
1.44426
1.43587
1.42713
1.41843
1.41009
1.40244
1.39576
1.39032
1.38631
1.38388
1.38319
1.38431
1.38721
1.39179
1.39792
1.40539
1.41385
1.42287
1.4321
1.44117
1.44963
1.45684
1.46205
1.46459
1.46413
1.46079
1.45512
1.44794
1.44013
1.43245
1.42543
1.41939
1.41443
1.41051
1.40752
1.40531
1.40372
1.40259
1.40181
1.40127
1.4009
1.40065
1.40048
1.40035
1.40026
1.4002
1.40015
1.40011
1.40008
1.40006
1.40005
1.40003
1.40003
1.40002
1.40001
1.40001
1.40001
1.40001
1.40001
1.40001
1.40001
1.40001
1.40001
1.40001
1.40001
1.40001
1.40001
1.40001
1.40001
1.45948
1.46385
1.46586
1.46549
1.46298
1.45872
1.45314
1.4467
1.43978
1.43276
1.42596
1.41967
1.41417
1.40967
1.40634
1.40434
1.40381
1.40477
1.4072
1.41103
1.41616
1.42235
1.42928
1.4366
1.44396
1.45099
1.45719
1.46192
1.46453
1.46459
1.46199
1.45709
1.4505
1.44303
1.43541
1.42823
1.42188
1.41653
1.41221
1.40885
1.40632
1.40445
1.40312
1.40218
1.40153
1.40109
1.40078
1.40057
1.40042
1.40031
1.40024
1.40018
1.40014
1.4001
1.40008
1.40006
1.40004
1.40003
1.40002
1.40002
1.40001
1.40001
1.40001
1.40001
1.40001
1.40001
1.40001
1.40001
1.40001
1.40001
1.40001
1.40001
1.40001
1.40001
1.40001
1.45481
1.4605
1.46426
1.46591
1.46553
1.46338
1.45983
1.45528
1.45012
1.44469
1.43933
1.43431
1.42988
1.42623
1.42353
1.42194
1.42155
1.42237
1.42439
1.42755
1.43175
1.43673
1.44221
1.44788
1.4534
1.45837
1.46229
1.46457
1.46476
1.46265
1.45836
1.45236
1.44531
1.43789
1.43071
1.42418
1.41855
1.4139
1.4102
1.40736
1.40524
1.4037
1.40259
1.40182
1.40129
1.40092
1.40067
1.40049
1.40037
1.40028
1.40021
1.40016
1.40012
1.40009
1.40007
1.40005
1.40004
1.40003
1.40002
1.40002
1.40001
1.40001
1.40001
1.40001
1.40001
1.40001
1.40001
1.40001
1.40001
1.40001
1.40001
1.40001
1.40001
1.40001
1.40001
1.44924
1.45578
1.46091
1.46429
1.46584
1.4657
1.46412
1.46144
1.45799
1.45413
1.45015
1.44634
1.44291
1.44006
1.43796
1.43674
1.43646
1.43713
1.43876
1.44129
1.44458
1.44839
1.45245
1.45647
1.46014
1.46305
1.46474
1.46475
1.46282
1.45898
1.4535
1.44691
1.43981
1.43275
1.42618
1.42038
1.41549
1.41153
1.40841
1.40605
1.4043
1.40303
1.40214
1.40151
1.40108
1.40078
1.40057
1.40043
1.40032
1.40025
1.40019
1.40014
1.40011
1.40008
1.40006
1.40005
1.40003
1.40003
1.40002
1.40001
1.40001
1.40001
1.40001
1.40001
1.40001
1.40001
1.40001
1.40001
1.40001
1.40001
1.40001
1.40001
1.40001
1.40001
1.40001
1.44313
1.45003
1.45604
1.46075
1.46395
1.46561
1.46587
1.46497
1.46321
1.46087
1.45825
1.45561
1.45315
1.45107
1.44954
1.44865
1.44845
1.44898
1.45022
1.45209
1.45445
1.45707
1.45972
1.46212
1.46396
1.46488
1.4645
1.46256
1.45898
1.45393
1.4478
1.44107
1.43425
1.42777
1.42193
1.41691
1.41275
1.40942
1.40685
1.40491
1.40348
1.40246
1.40174
1.40124
1.40089
1.40065
1.40049
1.40037
1.40028
1.40021
1.40017
1.40013
1.4001
1.40007
1.40006
1.40004
1.40003
1.40002
1.40002
1.40001
1.40001
1.40001
1.40001
1.40001
1.40001
1.40001
1.40001
1.40001
1.40001
1.40001
1.40001
1.40001
1.40001
1.40001
1.40001
1.43688
1.44368
1.45006
1.45562
1.46003
1.46316
1.46504
1.46579
1.4656
1.46473
1.46343
1.46192
1.4604
1.45907
1.45806
1.45746
1.45733
1.45768
1.45851
1.45971
1.46112
1.46257
1.46383
1.46466
1.46479
1.46392
1.46181
1.45836
1.45366
1.44795
1.44165
1.43516
1.42889
1.42313
1.41807
1.4138
1.41033
1.40759
1.4055
1.40393
1.40279
1.40198
1.40141
1.40101
1.40073
1.40054
1.40041
1.40031
1.40024
1.40019
1.40014
1.40011
1.40009
1.40007
1.40005
1.40004
1.40003
1.40002
1.40002
1.40001
1.40001
1.40001
1.40001
1.40001
1.40001
1.40001
1.40001
1.40001
1.40001
1.40001
1.40001
1.40001
1.40001
1.40001
1.40001
1.43083
1.43717
1.44346
1.44934
1.45448
1.45867
1.46182
1.46394
1.46515
1.46561
1.46552
1.46508
1.46447
1.46384
1.46331
1.46297
1.46287
1.46304
1.46343
1.46394
1.46444
1.46476
1.46473
1.46414
1.46279
1.46047
1.45708
1.45265
1.44736
1.4415
1.43542
1.42945
1.42388
1.41891
1.41464
1.41109
1.40825
1.40603
1.40435
1.40311
1.40221
1.40157
1.40113
1.40082
1.4006
1.40045
1.40034
1.40027
1.40021
1.40016
1.40013
1.4001
1.40008
1.40006
1.40004
1.40003
1.40003
1.40002
1.40001
1.40001
1.40001
1.40001
1.40001
1.40001
1.40001
1.40001
1.40001
1.40001
1.40001
1.40001
1.40001
1.40001
1.40001
1.40001
1.40001
1.42525
1.43089
1.43674
1.44249
1.44787
1.45263
1.45661
1.45974
1.46205
1.46363
1.46459
1.46509
1.46527
1.46527
1.46517
1.46506
1.46498
1.46495
1.4649
1.46476
1.46442
1.46376
1.46263
1.46089
1.4584
1.45507
1.45091
1.44603
1.44064
1.43502
1.42944
1.42416
1.41937
1.41519
1.41166
1.40877
1.40649
1.40472
1.4034
1.40243
1.40173
1.40124
1.40089
1.40065
1.40049
1.40037
1.40029
1.40023
1.40018
1.40014
1.40011
1.40009
1.40007
1.40005
1.40004
1.40003
1.40002
1.40002
1.40001
1.40001
1.40001
1.40001
1.40001
1.40001
1.40001
1.40001
1.40001
1.40001
1.40001
1.40001
1.40001
1.40001
1.40001
1.40001
1.40001
1.42029
1.42512
1.43031
1.43562
1.44081
1.44568
1.45003
1.45374
1.45678
1.45916
1.46094
1.46219
1.46302
1.46353
1.46379
1.46387
1.46379
1.46355
1.46312
1.46244
1.46142
1.45999
1.45804
1.4555
1.45229
1.44842
1.44396
1.43907
1.43396
1.42884
1.42394
1.41943
1.41542
1.41198
1.40913
1.40682
1.40502
1.40364
1.40261
1.40187
1.40134
1.40096
1.4007
1.40052
1.4004
1.40031
1.40024
1.40019
1.40015
1.40012
1.40009
1.40007
1.40006
1.40004
1.40003
1.40003
1.40002
1.40002
1.40001
1.40001
1.40001
1.40001
1.40001
1.40001
1.40001
1.40001
1.40001
1.40001
1.40001
1.40001
1.40001
1.40001
1.40001
1.40001
1.40001
1.41603
1.42005
1.42446
1.42912
1.43385
1.43845
1.44277
1.44667
1.45006
1.45289
1.45516
1.45692
1.45822
1.4591
1.45962
1.45983
1.45974
1.45935
1.45863
1.45756
1.45607
1.45413
1.45169
1.44871
1.4452
1.44121
1.43685
1.43228
1.42768
1.42322
1.41906
1.41532
1.41205
1.40929
1.40703
1.40522
1.40382
1.40276
1.40198
1.40142
1.40102
1.40074
1.40055
1.40041
1.40032
1.40025
1.4002
1.40016
1.40013
1.4001
1.40008
1.40006
1.40005
1.40004
1.40003
1.40002
1.40002
1.40001
1.40001
1.40001
1.40001
1.40001
1.40001
1.40001
1.40001
1.40001
1.40001
1.40001
1.40001
1.40001
1.40001
1.40001
1.40001
1.40001
1.40001
1.41247
1.41573
1.41937
1.4233
1.42739
1.43151
1.4355
1.43925
1.44263
1.44558
1.44807
1.45008
1.45163
1.45273
1.45341
1.45369
1.4536
1.45311
1.45222
1.45092
1.44919
1.44701
1.44438
1.4413
1.43782
1.43403
1.43005
1.426
1.42204
1.4183
1.41488
1.41184
1.40924
1.40707
1.40531
1.40392
1.40286
1.40206
1.40148
1.40106
1.40077
1.40056
1.40042
1.40032
1.40025
1.4002
1.40016
1.40013
1.40011
1.40009
1.40007
1.40005
1.40004
1.40003
1.40003
1.40002
1.40002
1.40001
1.40001
1.40001
1.40001
1.40001
1.40001
1.40001
1.40001
1.40001
1.40001
1.40001
1.40001
1.40001
1.40001
1.40001
1.40001
1.40001
1.40001
1.40957
1.41215
1.41508
1.41828
1.42169
1.42521
1.4287
1.43207
1.4352
1.43802
1.44046
1.44249
1.4441
1.44528
1.44602
1.44633
1.44623
1.44571
1.44477
1.4434
1.44162
1.43943
1.43686
1.43394
1.43074
1.42735
1.42389
1.42046
1.41717
1.41412
1.41137
1.40898
1.40695
1.40528
1.40394
1.40289
1.4021
1.40151
1.40108
1.40078
1.40057
1.40042
1.40032
1.40025
1.4002
1.40016
1.40013
1.40011
1.40009
1.40007
1.40006
1.40005
1.40004
1.40003
1.40002
1.40002
1.40001
1.40001
1.40001
1.40001
1.40001
1.40001
1.40001
1.40001
1.40001
1.40001
1.40001
1.40001
1.40001
1.40001
1.40001
1.40001
1.40001
1.40001
1.40001
1.40725
1.40926
1.41155
1.4141
1.41686
1.41974
1.42267
1.42555
1.42828
1.4308
1.43303
1.43492
1.43644
1.43757
1.43829
1.4386
1.4385
1.43799
1.43708
1.43577
1.43409
1.43206
1.42971
1.42711
1.42433
1.42144
1.41855
1.41573
1.41309
1.41067
1.40852
1.40667
1.40512
1.40386
1.40286
1.40209
1.4015
1.40108
1.40078
1.40056
1.40042
1.40031
1.40024
1.40019
1.40016
1.40013
1.40011
1.40009
1.40007
1.40006
1.40005
1.40004
1.40003
1.40002
1.40002
1.40001
1.40001
1.40001
1.40001
1.40001
1.40001
1.40001
1.40001
1.40001
1.40001
1.40001
1.40001
1.40001
1.40001
1.40001
1.40001
1.40001
1.40001
1.40001
1.40001
1.40543
1.40696
1.40873
1.41071
1.41288
1.41518
1.41754
1.4199
1.42218
1.42432
1.42624
1.42789
1.42923
1.43024
1.43089
1.43117
1.43108
1.43061
1.42978
1.42861
1.42711
1.42534
1.42331
1.4211
1.41878
1.41641
1.41408
1.41184
1.40976
1.40789
1.40625
1.40485
1.40369
1.40276
1.40203
1.40147
1.40106
1.40076
1.40054
1.4004
1.4003
1.40023
1.40018
1.40015
1.40012
1.4001
1.40009
1.40007
1.40006
1.40005
1.40004
1.40003
1.40003
1.40002
1.40002
1.40001
1.40001
1.40001
1.40001
1.40001
1.40001
1.40001
1.40001
1.40001
1.40001
1.40001
1.40001
1.40001
1.40001
1.40001
1.40001
1.40001
1.40001
1.40001
1.40001
1.40403
1.40518
1.40652
1.40803
1.4097
1.41148
1.41334
1.41521
1.41704
1.41878
1.42036
1.42173
1.42286
1.42371
1.42425
1.42448
1.42439
1.42399
1.42327
1.42227
1.421
1.41951
1.41783
1.41603
1.41416
1.41228
1.41044
1.40871
1.40712
1.40571
1.40448
1.40344
1.4026
1.40192
1.4014
1.40101
1.40072
1.40051
1.40037
1.40027
1.40021
1.40016
1.40013
1.40011
1.4001
1.40008
1.40007
1.40006
1.40005
1.40004
1.40003
1.40003
1.40002
1.40002
1.40001
1.40001
1.40001
1.40001
1.40001
1.40001
1.40001
1.40001
1.40001
1.40001
1.40001
1.40001
1.40001
1.40001
1.40001
1.40001
1.40001
1.40001
1.40001
1.40001
1.40001
1.40297
1.40382
1.40482
1.40595
1.40721
1.40856
1.40998
1.41143
1.41286
1.41422
1.41547
1.41656
1.41746
1.41814
1.41858
1.41876
1.41868
1.41834
1.41774
1.41691
1.41588
1.41467
1.41333
1.4119
1.41044
1.40898
1.40758
1.40627
1.40508
1.40403
1.40313
1.40238
1.40177
1.4013
1.40093
1.40066
1.40047
1.40034
1.40024
1.40018
1.40014
1.40012
1.4001
1.40008
1.40007
1.40006
1.40006
1.40005
1.40004
1.40003
1.40003
1.40002
1.40002
1.40002
1.40001
1.40001
1.40001
1.40001
1.40001
1.40001
1.40001
1.40001
1.40001
1.40001
1.40001
1.40001
1.40001
1.40001
1.40001
1.40001
1.40001
1.40001
1.40001
1.40001
1.40001
1.40218
1.4028
1.40353
1.40437
1.4053
1.40631
1.40737
1.40846
1.40954
1.41058
1.41154
1.41238
1.41307
1.41359
1.41393
1.41406
1.41398
1.41369
1.41321
1.41255
1.41173
1.41078
1.40973
1.40863
1.40752
1.40642
1.40537
1.4044
1.40352
1.40277
1.40212
1.40159
1.40117
1.40084
1.4006
1.40042
1.40029
1.40021
1.40015
1.40012
1.40009
1.40008
1.40007
1.40006
1.40006
1.40005
1.40004
1.40004
1.40003
1.40003
1.40002
1.40002
1.40002
1.40001
1.40001
1.40001
1.40001
1.40001
1.40001
1.40001
1.40001
1.40001
1.40001
1.40001
1.40001
1.40001
1.40001
1.40001
1.40001
1.40001
1.40001
1.40001
1.40001
1.40001
1.40001
1.40159
1.40204
1.40258
1.40318
1.40386
1.4046
1.40538
1.40618
1.40698
1.40775
1.40846
1.40909
1.40961
1.41
1.41023
1.41032
1.41025
1.41002
1.40963
1.40911
1.40847
1.40774
1.40695
1.40612
1.40528
1.40447
1.4037
1.403
1.40238
1.40184
1.40139
1.40102
1.40073
1.40052
1.40036
1.40024
1.40017
1.40012
1.40009
1.40007
1.40006
1.40005
1.40005
1.40005
1.40004
1.40004
1.40003
1.40003
1.40003
1.40002
1.40002
1.40002
1.40001
1.40001
1.40001
1.40001
1.40001
1.40001
1.40001
1.40001
1.40001
1.40001
1.40001
1.40001
1.40001
1.40001
1.40001
1.40001
1.40001
1.40001
1.40001
1.40001
1.40001
1.40001
1.40001
1.40116
1.40149
1.40187
1.40231
1.4028
1.40333
1.40389
1.40446
1.40505
1.4056
1.40612
1.40657
1.40694
1.40722
1.40739
1.40743
1.40736
1.40717
1.40687
1.40647
1.40599
1.40543
1.40484
1.40423
1.40362
1.40303
1.40248
1.40198
1.40154
1.40117
1.40086
1.40062
1.40043
1.40029
1.40019
1.40012
1.40008
1.40006
1.40004
1.40004
1.40004
1.40004
1.40003
1.40003
1.40003
1.40003
1.40003
1.40002
1.40002
1.40002
1.40002
1.40001
1.40001
1.40001
1.40001
1.40001
1.40001
1.40001
1.40001
1.40001
1.40001
1.40001
1.40001
1.40001
1.40001
1.40001
1.40001
1.40001
1.40001
1.40001
1.40001
1.40001
1.40001
1.40001
1.40001
1.40085
1.40109
1.40136
1.40167
1.40201
1.40239
1.40279
1.4032
1.40361
1.404
1.40436
1.40468
1.40494
1.40513
1.40524
1.40526
1.40519
1.40503
1.4048
1.40449
1.40413
1.40372
1.40329
1.40284
1.4024
1.40199
1.4016
1.40125
1.40095
1.4007
1.4005
1.40034
1.40022
1.40014
1.40008
1.40005
1.40003
1.40002
1.40002
1.40002
1.40002
1.40002
1.40002
1.40002
1.40002
1.40002
1.40002
1.40002
1.40002
1.40002
1.40001
1.40001
1.40001
1.40001
1.40001
1.40001
1.40001
1.40001
1.40001
1.40001
1.40001
1.40001
1.40001
1.40001
1.40001
1.40001
1.40001
1.40001
1.40001
1.40001
1.40001
1.40001
1.40001
1.40001
1.40001
1.40063
1.4008
1.40099
1.40121
1.40145
1.40171
1.40199
1.40228
1.40256
1.40283
1.40308
1.4033
1.40347
1.40359
1.40365
1.40365
1.40359
1.40346
1.40328
1.40305
1.40278
1.40248
1.40217
1.40185
1.40154
1.40125
1.40098
1.40075
1.40055
1.40039
1.40026
1.40016
1.40009
1.40004
1.40001
1.4
1.39999
1.39999
1.4
1.4
1.40001
1.40001
1.40002
1.40002
1.40002
1.40002
1.40002
1.40002
1.40001
1.40001
1.40001
1.40001
1.40001
1.40001
1.40001
1.40001
1.40001
1.40001
1.40001
1.40001
1.40001
1.40001
1.40001
1.40001
1.40001
1.40001
1.40001
1.40001
1.40001
1.40001
1.40001
1.40001
1.40001
1.40001
1.40001
1.40047
1.40059
1.40073
1.40088
1.40105
1.40123
1.40142
1.40161
1.4018
1.40199
1.40215
1.40229
1.4024
1.40248
1.40251
1.40249
1.40243
1.40233
1.4022
1.40202
1.40182
1.40161
1.40138
1.40116
1.40094
1.40074
1.40056
1.40041
1.40028
1.40018
1.4001
1.40004
1.4
1.39998
1.39997
1.39997
1.39997
1.39998
1.39999
1.39999
1.4
1.40001
1.40001
1.40001
1.40001
1.40001
1.40001
1.40001
1.40001
1.40001
1.40001
1.40001
1.40001
1.40001
1.40001
1.40001
1.40001
1.40001
1.40001
1.40001
1.40001
1.40001
1.40001
1.40001
1.40001
1.40001
1.40001
1.40001
1.40001
1.40001
1.40001
1.40001
1.40001
1.40001
1.40001
1.40036
1.40044
1.40054
1.40065
1.40076
1.40088
1.40102
1.40115
1.40127
1.40139
1.4015
1.40159
1.40165
1.40168
1.40169
1.40167
1.40162
1.40154
1.40143
1.4013
1.40116
1.401
1.40085
1.40069
1.40054
1.40041
1.40029
1.40019
1.40011
1.40005
1.4
1.39997
1.39996
1.39995
1.39995
1.39996
1.39996
1.39997
1.39998
1.39999
1.4
1.4
1.40001
1.40001
1.40001
1.40001
1.40001
1.40001
1.40001
1.40001
1.40001
1.40001
1.40001
1.40001
1.40001
1.40001
1.40001
1.40001
1.40001
1.40001
1.40001
1.4
1.4
1.40001
1.40001
1.40001
1.40001
1.40001
1.40001
1.40001
1.40001
1.40001
1.40001
1.40001
1.40001
1.40028
1.40034
1.4004
1.40048
1.40056
1.40065
1.40073
1.40081
1.4009
1.40097
1.40103
1.40109
1.40112
1.40114
1.40113
1.40111
1.40106
1.40099
1.40091
1.40081
1.40071
1.4006
1.40049
1.40038
1.40028
1.40019
1.40011
1.40005
1.4
1.39997
1.39995
1.39993
1.39993
1.39993
1.39994
1.39995
1.39996
1.39997
1.39998
1.39999
1.4
1.4
1.4
1.40001
1.40001
1.40001
1.40001
1.40001
1.40001
1.40001
1.40001
1.40001
1.40001
1.40001
1.40001
1.40001
1.40001
1.40001
1.40001
1.40001
1.40001
1.40001
1.40001
1.40001
1.40001
1.40001
1.40001
1.40001
1.40001
1.40001
1.40001
1.40001
1.40001
1.40001
1.40001
1.40021
1.40026
1.40031
1.40036
1.40041
1.40047
1.40053
1.40058
1.40063
1.40068
1.40072
1.40074
1.40076
1.40076
1.40075
1.40072
1.40068
1.40063
1.40056
1.40049
1.40041
1.40033
1.40025
1.40018
1.40012
1.40006
1.40001
1.39997
1.39995
1.39993
1.39992
1.39992
1.39992
1.39993
1.39994
1.39995
1.39996
1.39997
1.39998
1.39999
1.39999
1.4
1.4
1.4
1.40001
1.40001
1.40001
1.40001
1.40001
1.40001
1.40001
1.40001
1.40001
1.40001
1.40001
1.40001
1.40001
1.40001
1.40001
1.40001
1.4
1.4
1.4
1.40001
1.40001
1.40001
1.40001
1.40001
1.40001
1.40001
1.40001
1.40001
1.40001
1.40001
1.40001
1.40017
1.4002
1.40023
1.40028
1.40031
1.40035
1.40038
1.40042
1.40045
1.40048
1.4005
1.40051
1.40051
1.40051
1.40049
1.40046
1.40043
1.40038
1.40033
1.40028
1.40022
1.40017
1.40011
1.40006
1.40002
1.39998
1.39995
1.39993
1.39992
1.39991
1.39991
1.39991
1.39992
1.39993
1.39994
1.39995
1.39996
1.39997
1.39998
1.39999
1.39999
1.4
1.4
1.4
1.40001
1.40001
1.40001
1.40001
1.40001
1.40001
1.40001
1.40001
1.40001
1.40001
1.40001
1.40001
1.40001
1.40001
1.40001
1.40001
1.40001
1.40001
1.40001
1.40001
1.40001
1.40001
1.40001
1.40001
1.40001
1.40001
1.40001
1.40001
1.40001
1.40001
1.40001
1.40013
1.40016
1.40018
1.4002
1.40024
1.40026
1.40029
1.40031
1.40033
1.40034
1.40035
1.40035
1.40035
1.40034
1.40032
1.40029
1.40026
1.40023
1.40019
1.40015
1.40011
1.40007
1.40003
1.39999
1.39997
1.39994
1.39992
1.39991
1.39991
1.39991
1.39991
1.39992
1.39993
1.39994
1.39995
1.39996
1.39997
1.39998
1.39998
1.39999
1.4
1.4
1.4
1.4
1.40001
1.40001
1.40001
1.40001
1.40001
1.40001
1.40001
1.40001
1.40001
1.40001
1.40001
1.40001
1.40001
1.40001
1.40001
1.40001
1.4
1.4
1.40001
1.40001
1.40001
1.40001
1.40001
1.40001
1.40001
1.40001
1.40001
1.40001
1.40001
1.40001
1.40001
1.40011
1.40012
1.40014
1.40016
1.40018
1.4002
1.40021
1.40023
1.40024
1.40025
1.40025
1.40024
1.40024
1.40023
1.40021
1.40019
1.40016
1.40013
1.4001
1.40007
1.40004
1.40001
1.39998
1.39996
1.39994
1.39993
1.39992
1.39991
1.39991
1.39991
1.39992
1.39993
1.39994
1.39995
1.39996
1.39997
1.39997
1.39998
1.39999
1.39999
1.4
1.4
1.4
1.4
1.4
1.40001
1.40001
1.40001
1.40001
1.40001
1.40001
1.40001
1.40001
1.40001
1.40001
1.4
1.4
1.4
1.40001
1.40001
1.40001
1.40001
1.40001
1.40001
1.40001
1.40001
1.40001
1.40001
1.40001
1.40001
1.40001
1.40001
1.40001
1.40001
1.40001
1.40008
1.4001
1.40011
1.40013
1.40014
1.40015
1.40016
1.40017
1.40018
1.40018
1.40018
1.40017
1.40017
1.40015
1.40013
1.40012
1.4001
1.40007
1.40005
1.40002
1.4
1.39998
1.39996
1.39994
1.39993
1.39992
1.39992
1.39992
1.39992
1.39993
1.39993
1.39994
1.39995
1.39996
1.39996
1.39997
1.39998
1.39999
1.39999
1.39999
1.4
1.4
1.4
1.4
1.4
1.4
1.40001
1.40001
1.40001
1.40001
1.40001
1.40001
1.40001
1.40001
1.40001
1.40001
1.40001
1.40001
1.40001
1.40001
1.40001
1.40001
1.40001
1.40001
1.40001
1.40001
1.40001
1.40001
1.40001
1.40001
1.40001
1.40001
1.40001
1.40001
1.40001
1.40007
1.40008
1.40009
1.4001
1.40011
1.40012
1.40012
1.40013
1.40013
1.40013
1.40013
1.40012
1.40012
1.40011
1.40009
1.40007
1.40006
1.40004
1.40002
1.4
1.39998
1.39997
1.39995
1.39994
1.39994
1.39993
1.39993
1.39993
1.39993
1.39994
1.39994
1.39995
1.39996
1.39996
1.39997
1.39998
1.39998
1.39999
1.39999
1.4
1.4
1.4
1.4
1.4
1.4
1.4
1.4
1.4
1.40001
1.40001
1.40001
1.40001
1.40001
1.40001
1.4
1.4
1.4
1.40001
1.40001
1.40001
1.40001
1.40001
1.40001
1.40001
1.40001
1.40001
1.40001
1.40001
1.40001
1.40001
1.40001
1.40001
1.40001
1.40001
1.40001
1.40005
1.40006
1.40007
1.40008
1.40009
1.40009
1.4001
1.4001
1.4001
1.4001
1.4001
1.40009
1.40008
1.40007
1.40006
1.40005
1.40003
1.40002
1.4
1.39999
1.39998
1.39996
1.39995
1.39995
1.39994
1.39994
1.39994
1.39994
1.39994
1.39995
1.39995
1.39996
1.39996
1.39997
1.39998
1.39998
1.39999
1.39999
1.39999
1.4
1.4
1.4
1.4
1.4
1.4
1.4
1.4
1.40001
1.40001
1.40001
1.40001
1.40001
1.40001
1.40001
1.40001
1.40001
1.40001
1.40001
1.40001
1.40001
1.40001
1.40001
1.40001
1.40001
1.40001
1.40001
1.40001
1.40001
1.40001
1.40001
1.40001
1.40001
1.40001
1.40001
1.40001
1.40004
1.40005
1.40005
1.40006
1.40007
1.40007
1.40008
1.40008
1.40008
1.40008
1.40007
1.40007
1.40006
1.40005
1.40004
1.40003
1.40002
1.40001
1.4
1.39999
1.39998
1.39997
1.39996
1.39995
1.39995
1.39995
1.39995
1.39995
1.39995
1.39996
1.39996
1.39997
1.39997
1.39998
1.39998
1.39999
1.39999
1.39999
1.4
1.4
1.4
1.4
1.4
1.4
1.4
1.4
1.40001
1.40001
1.40001
1.40001
1.40001
1.40001
1.40001
1.40001
1.40001
1.40001
1.40001
1.40001
1.40001
1.40001
1.40001
1.40001
1.40001
1.40001
1.40001
1.40001
1.40001
1.40001
1.40001
1.40001
1.40001
1.40001
1.40001
1.40001
1.40001
1.40003
1.40004
1.40004
1.40005
1.40005
1.40006
1.40006
1.40006
1.40006
1.40006
1.40006
1.40005
1.40004
1.40004
1.40003
1.40002
1.40001
1.4
1.39999
1.39999
1.39998
1.39997
1.39997
1.39996
1.39996
1.39996
1.39996
1.39996
1.39997
1.39997
1.39997
1.39998
1.39998
1.39998
1.39999
1.39999
1.39999
1.4
1.4
1.4
1.4
1.4
1.4
1.4
1.4
1.4
1.4
1.40001
1.40001
1.40001
1.4
1.4
1.4
1.4
1.4
1.40001
1.40001
1.40001
1.40001
1.40001
1.40001
1.40001
1.40001
1.40001
1.40001
1.40001
1.40001
1.40001
1.40001
1.40001
1.40001
1.40001
1.40001
1.40001
1.40001
1.40003
1.40003
1.40003
1.40004
1.40004
1.40004
1.40004
1.40005
1.40005
1.40004
1.40004
1.40004
1.40003
1.40003
1.40002
1.40001
1.40001
1.4
1.39999
1.39999
1.39998
1.39998
1.39997
1.39997
1.39997
1.39997
1.39997
1.39997
1.39997
1.39998
1.39998
1.39998
1.39999
1.39999
1.39999
1.39999
1.4
1.4
1.4
1.4
1.4
1.4
1.4
1.4
1.4
1.4
1.4
1.4
1.4
1.40001
1.40001
1.40001
1.40001
1.40001
1.40001
1.40001
1.40001
1.40001
1.40001
1.40001
1.40001
1.40001
1.40001
1.40001
1.40001
1.40001
1.40001
1.40001
1.40001
1.40001
1.40001
1.40001
1.40001
1.40001
1.40001
1.40002
1.40003
1.40003
1.40003
1.40003
1.40004
1.40004
1.40004
1.40004
1.40003
1.40003
1.40003
1.40003
1.40002
1.40002
1.40001
1.40001
1.4
1.4
1.39999
1.39999
1.39998
1.39998
1.39998
1.39998
1.39998
1.39998
1.39998
1.39998
1.39998
1.39999
1.39999
1.39999
1.39999
1.39999
1.4
1.4
1.4
1.4
1.4
1.4
1.4
1.4
1.4
1.4
1.4
1.40001
1.4
1.4
1.4
1.4
1.4
1.4
1.4
1.40001
1.40001
1.40001
1.40001
1.40001
1.40001
1.40001
1.40001
1.40001
1.40001
1.40001
1.40001
1.40001
1.40001
1.40001
1.40001
1.40001
1.40001
1.40001
1.40001
1.40001
1.40002
1.40002
1.40002
1.40002
1.40003
1.40003
1.40003
1.40003
1.40003
1.40003
1.40002
1.40002
1.40002
1.40002
1.40001
1.40001
1.4
1.4
1.4
1.39999
1.39999
1.39999
1.39999
1.39998
1.39998
1.39998
1.39998
1.39998
1.39999
1.39999
1.39999
1.39999
1.39999
1.4
1.4
1.4
1.4
1.4
1.4
1.4
1.4
1.4
1.4
1.4
1.4
1.4
1.4
1.40001
1.40001
1.40001
1.40001
1.40001
1.40001
1.40001
1.40001
1.40001
1.40001
1.4
1.4
1.4
1.40001
1.40001
1.40001
1.40001
1.40001
1.40001
1.40001
1.40001
1.40001
1.40001
1.40001
1.40001
1.40001
1.40001
1.40001
1.40002
1.40002
1.40002
1.40002
1.40002
1.40002
1.40002
1.40002
1.40002
1.40002
1.40002
1.40002
1.40002
1.40001
1.40001
1.40001
1.4
1.4
1.4
1.4
1.39999
1.39999
1.39999
1.39999
1.39999
1.39999
1.39999
1.39999
1.39999
1.39999
1.39999
1.4
1.4
1.4
1.4
1.4
1.4
1.4
1.4
1.4
1.4
1.4
1.4
1.4
1.40001
1.40001
1.4
1.4
1.4
1.40001
1.40001
1.40001
1.40001
1.40001
1.40001
1.40001
1.40001
1.40001
1.40001
1.40001
1.40001
1.40001
1.40001
1.4
1.40001
1.40001
1.40001
1.40001
1.40001
1.40001
1.40001
1.40001
1.40001
1.40001
1.40001
1.40001
1.40001
1.40001
1.40002
1.40002
1.40002
1.40002
1.40002
1.40002
1.40002
1.40002
1.40001
1.40001
1.40001
1.40001
1.40001
1.4
1.4
1.4
1.4
1.4
1.39999
1.39999
1.39999
1.39999
1.39999
1.39999
1.39999
1.39999
1.4
1.4
1.4
1.4
1.4
1.4
1.4
1.4
1.4
1.4
1.4
1.4
1.4
1.4
1.4
1.40001
1.40001
1.40001
1.40001
1.4
1.4
1.4
1.40001
1.40001
1.40001
1.40001
1.40001
1.4
1.4
1.4
1.40001
1.40001
1.40001
1.40001
1.40001
1.40001
1.40001
1.40001
1.40001
1.40001
1.40001
1.40001
1.40001
1.40001
1.40001
1.40001
1.40001
1.40001
1.40001
1.40001
1.40001
1.40001
1.40001
1.40001
1.40001
1.40001
1.40001
1.40001
1.40001
1.40001
1.40001
1.40001
1.4
1.4
1.4
1.4
1.4
1.4
1.4
1.4
1.4
1.4
1.4
1.4
1.4
1.4
1.4
1.4
1.4
1.4
1.4
1.4
1.4
1.4
1.4
1.4
1.4
1.4
1.4
1.40001
1.40001
1.4
1.4
1.4
1.40001
1.40001
1.40001
1.40001
1.4
1.4
1.40001
1.40001
1.40001
1.40001
1.40001
1.40001
1.40001
1.4
1.4
1.4
1.40001
1.40001
1.40001
1.40001
1.40001
1.40001
1.40001
1.40001
1.40001
1.40001
1.40001
1.40001
1.40001
1.40001
1.40001
1.40001
1.40001
1.40001
1.40001
1.40001
1.40001
1.40001
1.40001
1.40001
1.40001
1.40001
1.40001
1.4
1.4
1.4
1.4
1.4
1.4
1.4
1.4
1.4
1.4
1.4
1.4
1.4
1.4
1.4
1.4
1.4
1.4
1.4
1.4
1.4
1.4
1.4
1.4
1.4
1.4
1.4
1.4
1.4
1.40001
1.40001
1.4
1.4
1.4
1.40001
1.40001
1.40001
1.40001
1.40001
1.4
1.4
1.4
1.40001
1.40001
1.40001
1.40001
1.40001
1.40001
1.40001
1.40001
1.40001
1.40001
1.40001
1.40001
1.40001
1.40001
1.40001
1.40001
1.40001
1.40001
1.40001
1.40001
1.40001
1.40001
1.40001
1.40001
1.40001
1.40001
1.40001
1.40001
1.40001
1.40001
1.40001
1.40001
1.40001
1.4
1.4
1.4
1.4
1.4
1.4
1.4
1.4
1.4
1.4
1.4
1.4
1.4
1.4
1.4
1.4
1.4
1.4
1.4
1.4
1.4
1.4
1.4
1.4
1.4
1.4
1.40001
1.40001
1.4
1.4
1.4
1.4
1.40001
1.40001
1.40001
1.4
1.40001
1.40001
1.40001
1.40001
1.40001
1.40001
1.40001
1.40001
1.4
1.4
1.4
1.4
1.40001
1.40001
1.40001
1.40001
1.40001
1.40001
1.40001
1.40001
1.40001
1.40001
1.40001
1.40001
1.40001
1.40001
1.40001
1.40001
1.40001
1.40001
1.40001
1.40001
1.40001
1.40001
1.40001
1.40001
1.40001
1.40001
1.40001
1.4
1.4
1.4
1.4
1.4
1.4
1.4
1.4
1.4
1.4
1.4
1.4
1.4
1.4
1.4
1.4
1.4
1.4
1.4
1.4
1.4
1.4
1.4
1.4
1.4
1.4
1.4
1.4
1.4
1.40001
1.40001
1.40001
1.40001
1.40001
1.40001
1.40001
1.40001
1.4
1.4
1.4
1.4
1.40001
1.40001
1.40001
1.40001
1.40001
1.40001
1.40001
1.40001
1.40001
1.40001
1.40001
1.40001
1.40001
1.40001
1.40001
1.40001
1.40001
1.40001
1.40001
1.40001
1.40001
1.40001
1.40001
1.40001
1.40001
1.40001
1.40001
1.40001
1.40001
1.40001
1.40001
1.40001
1.40001
1.40001
1.4
1.4
1.4
1.4
1.4
1.4
1.4
1.4
1.4
1.4
1.4
1.4
1.4
1.4
1.4
1.4
1.4