/*--------------------------------*- C++ -*----------------------------------*\
  =========                 |
  \\      /  F ield         | OpenFOAM: The Open Source CFD Toolbox
   \\    /   O peration     | Website:  https://openfoam.org
    \\  /    A nd           | Version:  6
     \\/     M anipulation  |
\*---------------------------------------------------------------------------*/
FoamFile
{
    version     2.0;
    format      ascii;
    class       volVectorField;
    location    "2.98";
    object      U;
}
// * * * * * * * * * * * * * * * * * * * * * * * * * * * * * * * * * * * * * //

dimensions      [0 1 -1 0 0 0 0];

internalField   nonuniform List<vector> 
5625
(
(0.8944 0.4472 0)
(0.8944 0.4472 0)
(0.8944 0.4472 0)
(0.8944 0.4472 0)
(0.8944 0.4472 0)
(0.8944 0.4472 0)
(0.8944 0.4472 0)
(0.8944 0.4472 0)
(0.8944 0.4472 0)
(0.8944 0.4472 0)
(0.8944 0.4472 0)
(0.8944 0.4472 0)
(0.8944 0.4472 0)
(0.8944 0.4472 0)
(0.8944 0.4472 0)
(0.8944 0.4472 0)
(0.8944 0.4472 0)
(0.8944 0.4472 0)
(0.8944 0.4472 0)
(0.8944 0.4472 0)
(0.8944 0.4472 0)
(0.8944 0.4472 0)
(0.8944 0.4472 0)
(0.8944 0.4472 0)
(0.8944 0.4472 0)
(0.8944 0.4472 0)
(0.8944 0.4472 0)
(0.8944 0.4472 0)
(0.8944 0.4472 0)
(0.8944 0.4472 0)
(0.8944 0.4472 0)
(0.8944 0.447201 0)
(0.8944 0.447199 0)
(0.8944 0.4472 0)
(0.894399 0.4472 0)
(0.894401 0.4472 0)
(0.8944 0.4472 0)
(0.8944 0.4472 0)
(0.894399 0.4472 0)
(0.894401 0.447201 0)
(0.894399 0.4472 0)
(0.894401 0.4472 0)
(0.894399 0.4472 0)
(0.894403 0.4472 0)
(0.894401 0.447201 0)
(0.894404 0.447199 0)
(0.894405 0.447201 0)
(0.894407 0.447201 0)
(0.894411 0.447201 0)
(0.894416 0.4472 0)
(0.894423 0.447201 0)
(0.894433 0.447202 0)
(0.894446 0.447202 0)
(0.894458 0.447202 0)
(0.894474 0.447202 0)
(0.894488 0.447199 0)
(0.894492 0.447194 0)
(0.89448 0.44718 0)
(0.89443 0.447154 0)
(0.894318 0.447103 0)
(0.894096 0.44701 0)
(0.893704 0.446851 0)
(0.893053 0.446573 0)
(0.892027 0.446127 0)
(0.890495 0.445417 0)
(0.888291 0.444322 0)
(0.8853 0.44271 0)
(0.881459 0.440404 0)
(0.876942 0.437252 0)
(0.87219 0.433174 0)
(0.868024 0.428129 0)
(0.865541 0.422099 0)
(0.865724 0.415042 0)
(0.869247 0.406737 0)
(0.87654 0.396694 0)
(0.8944 0.4472 0)
(0.8944 0.4472 0)
(0.8944 0.4472 0)
(0.8944 0.4472 0)
(0.8944 0.4472 0)
(0.8944 0.4472 0)
(0.8944 0.4472 0)
(0.8944 0.4472 0)
(0.8944 0.4472 0)
(0.8944 0.4472 0)
(0.8944 0.4472 0)
(0.8944 0.4472 0)
(0.8944 0.4472 0)
(0.8944 0.4472 0)
(0.8944 0.4472 0)
(0.8944 0.4472 0)
(0.8944 0.4472 0)
(0.8944 0.4472 0)
(0.8944 0.4472 0)
(0.8944 0.4472 0)
(0.8944 0.4472 0)
(0.8944 0.4472 0)
(0.8944 0.4472 0)
(0.8944 0.4472 0)
(0.8944 0.4472 0)
(0.8944 0.4472 0)
(0.8944 0.4472 0)
(0.8944 0.4472 0)
(0.8944 0.4472 0)
(0.8944 0.4472 0)
(0.8944 0.4472 0)
(0.8944 0.4472 0)
(0.8944 0.4472 0)
(0.8944 0.4472 0)
(0.894399 0.4472 0)
(0.8944 0.4472 0)
(0.8944 0.4472 0)
(0.8944 0.4472 0)
(0.894399 0.4472 0)
(0.894401 0.4472 0)
(0.8944 0.4472 0)
(0.894401 0.4472 0)
(0.8944 0.447201 0)
(0.894402 0.4472 0)
(0.8944 0.4472 0)
(0.894404 0.447201 0)
(0.894404 0.447199 0)
(0.894408 0.447202 0)
(0.89441 0.447201 0)
(0.894415 0.447202 0)
(0.894423 0.447202 0)
(0.894431 0.447203 0)
(0.894445 0.447203 0)
(0.894459 0.447207 0)
(0.894473 0.447204 0)
(0.894491 0.447206 0)
(0.894496 0.447201 0)
(0.894491 0.447192 0)
(0.894454 0.447172 0)
(0.89436 0.447125 0)
(0.894173 0.447047 0)
(0.893831 0.446899 0)
(0.893266 0.44665 0)
(0.89236 0.446236 0)
(0.891001 0.445578 0)
(0.88903 0.444558 0)
(0.886323 0.443041 0)
(0.8828 0.440861 0)
(0.878559 0.437861 0)
(0.87396 0.433947 0)
(0.869694 0.429093 0)
(0.866769 0.423329 0)
(0.866209 0.416667 0)
(0.868776 0.408995 0)
(0.87493 0.399989 0)
(0.8944 0.4472 0)
(0.8944 0.4472 0)
(0.8944 0.4472 0)
(0.8944 0.4472 0)
(0.8944 0.4472 0)
(0.8944 0.4472 0)
(0.8944 0.4472 0)
(0.8944 0.4472 0)
(0.8944 0.4472 0)
(0.8944 0.4472 0)
(0.8944 0.4472 0)
(0.8944 0.4472 0)
(0.8944 0.4472 0)
(0.8944 0.4472 0)
(0.8944 0.4472 0)
(0.8944 0.4472 0)
(0.8944 0.4472 0)
(0.8944 0.4472 0)
(0.8944 0.4472 0)
(0.8944 0.4472 0)
(0.8944 0.4472 0)
(0.8944 0.4472 0)
(0.8944 0.4472 0)
(0.8944 0.4472 0)
(0.8944 0.4472 0)
(0.8944 0.4472 0)
(0.8944 0.4472 0)
(0.8944 0.4472 0)
(0.8944 0.4472 0)
(0.8944 0.4472 0)
(0.8944 0.4472 0)
(0.8944 0.4472 0)
(0.8944 0.4472 0)
(0.8944 0.4472 0)
(0.894399 0.4472 0)
(0.894401 0.4472 0)
(0.8944 0.4472 0)
(0.8944 0.4472 0)
(0.8944 0.4472 0)
(0.8944 0.4472 0)
(0.8944 0.4472 0)
(0.8944 0.4472 0)
(0.894402 0.447201 0)
(0.8944 0.4472 0)
(0.894401 0.4472 0)
(0.894404 0.447201 0)
(0.894403 0.4472 0)
(0.894408 0.447201 0)
(0.894409 0.447201 0)
(0.894416 0.447202 0)
(0.894423 0.447203 0)
(0.89443 0.447204 0)
(0.894445 0.447205 0)
(0.894457 0.447208 0)
(0.894472 0.447208 0)
(0.894491 0.447211 0)
(0.894499 0.447208 0)
(0.894499 0.447202 0)
(0.894474 0.447189 0)
(0.894395 0.447147 0)
(0.894241 0.44708 0)
(0.893948 0.446952 0)
(0.893461 0.446726 0)
(0.892674 0.44635 0)
(0.891475 0.445746 0)
(0.889735 0.444809 0)
(0.887308 0.443402 0)
(0.884115 0.44136 0)
(0.880184 0.438538 0)
(0.875784 0.434812 0)
(0.871497 0.430156 0)
(0.86821 0.424637 0)
(0.866937 0.418316 0)
(0.868521 0.411171 0)
(0.873489 0.403018 0)
(0.8944 0.4472 0)
(0.8944 0.4472 0)
(0.8944 0.4472 0)
(0.8944 0.4472 0)
(0.8944 0.4472 0)
(0.8944 0.4472 0)
(0.8944 0.4472 0)
(0.8944 0.4472 0)
(0.8944 0.4472 0)
(0.8944 0.4472 0)
(0.8944 0.4472 0)
(0.8944 0.4472 0)
(0.8944 0.4472 0)
(0.8944 0.4472 0)
(0.8944 0.4472 0)
(0.8944 0.4472 0)
(0.8944 0.4472 0)
(0.8944 0.4472 0)
(0.8944 0.4472 0)
(0.8944 0.4472 0)
(0.8944 0.4472 0)
(0.8944 0.4472 0)
(0.8944 0.4472 0)
(0.8944 0.4472 0)
(0.8944 0.4472 0)
(0.8944 0.4472 0)
(0.8944 0.4472 0)
(0.8944 0.4472 0)
(0.8944 0.4472 0)
(0.8944 0.4472 0)
(0.8944 0.4472 0)
(0.8944 0.4472 0)
(0.8944 0.4472 0)
(0.8944 0.4472 0)
(0.8944 0.4472 0)
(0.8944 0.4472 0)
(0.8944 0.447199 0)
(0.894399 0.447201 0)
(0.894401 0.4472 0)
(0.8944 0.447199 0)
(0.894401 0.4472 0)
(0.894398 0.447201 0)
(0.894403 0.4472 0)
(0.894399 0.4472 0)
(0.894403 0.4472 0)
(0.8944 0.4472 0)
(0.894406 0.447201 0)
(0.894406 0.447201 0)
(0.894409 0.447201 0)
(0.894414 0.447202 0)
(0.894422 0.447203 0)
(0.894429 0.447206 0)
(0.894443 0.447208 0)
(0.894456 0.447207 0)
(0.894471 0.447213 0)
(0.894491 0.447215 0)
(0.894499 0.447215 0)
(0.894508 0.447212 0)
(0.894486 0.447201 0)
(0.894429 0.447172 0)
(0.894296 0.44711 0)
(0.894056 0.447002 0)
(0.893635 0.446802 0)
(0.892959 0.446465 0)
(0.891917 0.445923 0)
(0.89039 0.445066 0)
(0.888244 0.443777 0)
(0.88538 0.441895 0)
(0.881785 0.439261 0)
(0.877639 0.435753 0)
(0.873407 0.43132 0)
(0.869856 0.42603 0)
(0.867944 0.420001 0)
(0.868556 0.413295 0)
(0.87231 0.40583 0)
(0.8944 0.4472 0)
(0.8944 0.4472 0)
(0.8944 0.4472 0)
(0.8944 0.4472 0)
(0.8944 0.4472 0)
(0.8944 0.4472 0)
(0.8944 0.4472 0)
(0.8944 0.4472 0)
(0.8944 0.4472 0)
(0.8944 0.4472 0)
(0.8944 0.4472 0)
(0.8944 0.4472 0)
(0.8944 0.4472 0)
(0.8944 0.4472 0)
(0.8944 0.4472 0)
(0.8944 0.4472 0)
(0.8944 0.4472 0)
(0.8944 0.4472 0)
(0.8944 0.4472 0)
(0.8944 0.4472 0)
(0.8944 0.4472 0)
(0.8944 0.447201 0)
(0.8944 0.4472 0)
(0.8944 0.4472 0)
(0.8944 0.4472 0)
(0.8944 0.4472 0)
(0.8944 0.4472 0)
(0.8944 0.4472 0)
(0.8944 0.4472 0)
(0.8944 0.4472 0)
(0.8944 0.4472 0)
(0.8944 0.4472 0)
(0.8944 0.4472 0)
(0.8944 0.4472 0)
(0.8944 0.4472 0)
(0.894401 0.4472 0)
(0.894399 0.447199 0)
(0.8944 0.4472 0)
(0.8944 0.4472 0)
(0.8944 0.4472 0)
(0.894401 0.4472 0)
(0.894399 0.447201 0)
(0.894402 0.4472 0)
(0.894399 0.447201 0)
(0.894404 0.447201 0)
(0.894401 0.447199 0)
(0.894406 0.447201 0)
(0.894404 0.447201 0)
(0.894411 0.447202 0)
(0.894412 0.447203 0)
(0.894421 0.447204 0)
(0.894427 0.447205 0)
(0.89444 0.44721 0)
(0.894454 0.44721 0)
(0.894468 0.447214 0)
(0.894489 0.447219 0)
(0.894499 0.447221 0)
(0.894511 0.44722 0)
(0.894495 0.447213 0)
(0.894455 0.447192 0)
(0.894346 0.447142 0)
(0.894148 0.447048 0)
(0.893791 0.446875 0)
(0.893215 0.446579 0)
(0.892321 0.446095 0)
(0.890995 0.445328 0)
(0.889117 0.444161 0)
(0.886579 0.442447 0)
(0.883338 0.440019 0)
(0.879494 0.436749 0)
(0.875392 0.432568 0)
(0.871687 0.427518 0)
(0.86924 0.421749 0)
(0.868943 0.415393 0)
(0.871487 0.408469 0)
(0.8944 0.4472 0)
(0.8944 0.4472 0)
(0.8944 0.4472 0)
(0.8944 0.4472 0)
(0.8944 0.4472 0)
(0.8944 0.4472 0)
(0.8944 0.4472 0)
(0.8944 0.4472 0)
(0.8944 0.4472 0)
(0.8944 0.4472 0)
(0.8944 0.4472 0)
(0.8944 0.4472 0)
(0.8944 0.4472 0)
(0.8944 0.4472 0)
(0.8944 0.4472 0)
(0.8944 0.4472 0)
(0.8944 0.4472 0)
(0.8944 0.4472 0)
(0.8944 0.4472 0)
(0.8944 0.4472 0)
(0.8944 0.4472 0)
(0.8944 0.4472 0)
(0.8944 0.4472 0)
(0.8944 0.4472 0)
(0.8944 0.4472 0)
(0.8944 0.4472 0)
(0.8944 0.4472 0)
(0.8944 0.4472 0)
(0.8944 0.4472 0)
(0.8944 0.4472 0)
(0.8944 0.4472 0)
(0.8944 0.4472 0)
(0.8944 0.4472 0)
(0.8944 0.4472 0)
(0.8944 0.447199 0)
(0.8944 0.447201 0)
(0.8944 0.4472 0)
(0.8944 0.4472 0)
(0.8944 0.4472 0)
(0.894401 0.4472 0)
(0.8944 0.4472 0)
(0.894401 0.4472 0)
(0.8944 0.4472 0)
(0.894401 0.4472 0)
(0.894401 0.447201 0)
(0.894402 0.4472 0)
(0.894404 0.4472 0)
(0.894404 0.447201 0)
(0.89441 0.447202 0)
(0.894412 0.447203 0)
(0.89442 0.447205 0)
(0.894427 0.447205 0)
(0.894437 0.44721 0)
(0.894452 0.447213 0)
(0.894465 0.447216 0)
(0.894484 0.447221 0)
(0.894499 0.447226 0)
(0.894509 0.447228 0)
(0.894504 0.447224 0)
(0.894473 0.447208 0)
(0.894389 0.447172 0)
(0.894223 0.447089 0)
(0.89393 0.446944 0)
(0.893443 0.446689 0)
(0.892682 0.446262 0)
(0.891544 0.445583 0)
(0.889921 0.444541 0)
(0.887697 0.442998 0)
(0.884815 0.440794 0)
(0.881311 0.437784 0)
(0.87742 0.43388 0)
(0.873668 0.429098 0)
(0.870812 0.423578 0)
(0.869708 0.417504 0)
(0.8711 0.410994 0)
(0.8944 0.4472 0)
(0.8944 0.4472 0)
(0.8944 0.4472 0)
(0.8944 0.4472 0)
(0.8944 0.4472 0)
(0.8944 0.4472 0)
(0.8944 0.4472 0)
(0.8944 0.4472 0)
(0.8944 0.4472 0)
(0.8944 0.4472 0)
(0.8944 0.4472 0)
(0.8944 0.4472 0)
(0.8944 0.4472 0)
(0.8944 0.4472 0)
(0.8944 0.4472 0)
(0.8944 0.4472 0)
(0.8944 0.4472 0)
(0.8944 0.4472 0)
(0.8944 0.4472 0)
(0.8944 0.4472 0)
(0.8944 0.4472 0)
(0.8944 0.4472 0)
(0.8944 0.4472 0)
(0.8944 0.4472 0)
(0.8944 0.4472 0)
(0.8944 0.4472 0)
(0.8944 0.4472 0)
(0.8944 0.4472 0)
(0.8944 0.4472 0)
(0.8944 0.4472 0)
(0.8944 0.4472 0)
(0.8944 0.4472 0)
(0.8944 0.4472 0)
(0.8944 0.4472 0)
(0.8944 0.4472 0)
(0.8944 0.4472 0)
(0.8944 0.4472 0)
(0.8944 0.4472 0)
(0.894399 0.4472 0)
(0.894401 0.4472 0)
(0.894399 0.447199 0)
(0.894401 0.4472 0)
(0.8944 0.4472 0)
(0.894402 0.4472 0)
(0.8944 0.4472 0)
(0.894404 0.447201 0)
(0.894402 0.447199 0)
(0.894407 0.447202 0)
(0.894406 0.447201 0)
(0.894414 0.447203 0)
(0.894416 0.447206 0)
(0.894425 0.447206 0)
(0.894436 0.44721 0)
(0.894446 0.447213 0)
(0.894465 0.447219 0)
(0.894478 0.447221 0)
(0.894496 0.447231 0)
(0.894506 0.447234 0)
(0.894511 0.447233 0)
(0.894482 0.447223 0)
(0.894425 0.447195 0)
(0.894286 0.447131 0)
(0.894048 0.447005 0)
(0.893641 0.44679 0)
(0.893 0.446422 0)
(0.892037 0.445825 0)
(0.890645 0.444911 0)
(0.888725 0.443539 0)
(0.886195 0.441563 0)
(0.883053 0.438833 0)
(0.879444 0.435233 0)
(0.875754 0.430748 0)
(0.872628 0.425493 0)
(0.870859 0.419672 0)
(0.871196 0.413474 0)
(0.8944 0.4472 0)
(0.8944 0.4472 0)
(0.8944 0.4472 0)
(0.8944 0.4472 0)
(0.8944 0.4472 0)
(0.8944 0.4472 0)
(0.8944 0.4472 0)
(0.8944 0.4472 0)
(0.8944 0.4472 0)
(0.8944 0.4472 0)
(0.8944 0.4472 0)
(0.8944 0.4472 0)
(0.8944 0.4472 0)
(0.8944 0.4472 0)
(0.8944 0.4472 0)
(0.8944 0.4472 0)
(0.8944 0.4472 0)
(0.8944 0.4472 0)
(0.8944 0.4472 0)
(0.8944 0.4472 0)
(0.8944 0.4472 0)
(0.8944 0.4472 0)
(0.8944 0.4472 0)
(0.8944 0.4472 0)
(0.8944 0.4472 0)
(0.8944 0.4472 0)
(0.8944 0.4472 0)
(0.8944 0.4472 0)
(0.8944 0.4472 0)
(0.8944 0.4472 0)
(0.8944 0.4472 0)
(0.8944 0.4472 0)
(0.8944 0.4472 0)
(0.8944 0.4472 0)
(0.8944 0.4472 0)
(0.8944 0.4472 0)
(0.8944 0.4472 0)
(0.8944 0.4472 0)
(0.894399 0.4472 0)
(0.8944 0.447199 0)
(0.894401 0.447201 0)
(0.894399 0.4472 0)
(0.894401 0.4472 0)
(0.8944 0.447201 0)
(0.894402 0.4472 0)
(0.894402 0.447201 0)
(0.894402 0.447201 0)
(0.894406 0.447201 0)
(0.894407 0.447202 0)
(0.894412 0.447204 0)
(0.894415 0.447204 0)
(0.894423 0.447208 0)
(0.894432 0.447209 0)
(0.894443 0.447214 0)
(0.894459 0.44722 0)
(0.894474 0.447224 0)
(0.894492 0.447231 0)
(0.894503 0.44724 0)
(0.894508 0.447239 0)
(0.894497 0.447237 0)
(0.894444 0.447215 0)
(0.894344 0.447165 0)
(0.894145 0.447066 0)
(0.893813 0.44688 0)
(0.893279 0.446569 0)
(0.892468 0.446055 0)
(0.891291 0.445258 0)
(0.889651 0.444058 0)
(0.887462 0.442311 0)
(0.884691 0.439867 0)
(0.881415 0.436598 0)
(0.877895 0.432449 0)
(0.874643 0.42749 0)
(0.872362 0.421916 0)
(0.871788 0.415967 0)
(0.8944 0.4472 0)
(0.8944 0.4472 0)
(0.8944 0.4472 0)
(0.8944 0.4472 0)
(0.8944 0.4472 0)
(0.8944 0.4472 0)
(0.8944 0.4472 0)
(0.8944 0.4472 0)
(0.8944 0.4472 0)
(0.8944 0.4472 0)
(0.8944 0.4472 0)
(0.8944 0.4472 0)
(0.8944 0.4472 0)
(0.8944 0.4472 0)
(0.8944 0.4472 0)
(0.8944 0.4472 0)
(0.8944 0.4472 0)
(0.8944 0.4472 0)
(0.8944 0.4472 0)
(0.8944 0.4472 0)
(0.8944 0.4472 0)
(0.8944 0.4472 0)
(0.8944 0.4472 0)
(0.8944 0.4472 0)
(0.8944 0.4472 0)
(0.8944 0.4472 0)
(0.894401 0.4472 0)
(0.8944 0.4472 0)
(0.8944 0.4472 0)
(0.8944 0.4472 0)
(0.8944 0.4472 0)
(0.8944 0.4472 0)
(0.8944 0.4472 0)
(0.8944 0.4472 0)
(0.894399 0.4472 0)
(0.8944 0.4472 0)
(0.8944 0.4472 0)
(0.8944 0.4472 0)
(0.8944 0.4472 0)
(0.8944 0.4472 0)
(0.8944 0.4472 0)
(0.8944 0.4472 0)
(0.894401 0.4472 0)
(0.894399 0.447201 0)
(0.894403 0.4472 0)
(0.8944 0.4472 0)
(0.894404 0.447201 0)
(0.894404 0.4472 0)
(0.894407 0.447203 0)
(0.894409 0.447202 0)
(0.894416 0.447205 0)
(0.89442 0.447207 0)
(0.894431 0.44721 0)
(0.894442 0.447213 0)
(0.894452 0.44722 0)
(0.894471 0.447227 0)
(0.894484 0.447232 0)
(0.8945 0.44724 0)
(0.894507 0.447247 0)
(0.894501 0.447244 0)
(0.894464 0.447233 0)
(0.894384 0.447194 0)
(0.894227 0.447113 0)
(0.893955 0.446966 0)
(0.893517 0.446699 0)
(0.892847 0.446268 0)
(0.891858 0.445584 0)
(0.890472 0.444543 0)
(0.888606 0.44302 0)
(0.8862 0.440867 0)
(0.883283 0.437944 0)
(0.880023 0.434164 0)
(0.876791 0.429548 0)
(0.874174 0.424251 0)
(0.872854 0.418523 0)
(0.8944 0.4472 0)
(0.8944 0.4472 0)
(0.8944 0.4472 0)
(0.8944 0.4472 0)
(0.8944 0.4472 0)
(0.8944 0.4472 0)
(0.8944 0.4472 0)
(0.8944 0.4472 0)
(0.8944 0.4472 0)
(0.8944 0.4472 0)
(0.8944 0.4472 0)
(0.8944 0.4472 0)
(0.8944 0.4472 0)
(0.8944 0.4472 0)
(0.8944 0.4472 0)
(0.8944 0.4472 0)
(0.8944 0.4472 0)
(0.8944 0.4472 0)
(0.8944 0.4472 0)
(0.8944 0.4472 0)
(0.8944 0.4472 0)
(0.8944 0.4472 0)
(0.8944 0.4472 0)
(0.8944 0.4472 0)
(0.8944 0.4472 0)
(0.8944 0.4472 0)
(0.8944 0.4472 0)
(0.8944 0.4472 0)
(0.8944 0.4472 0)
(0.8944 0.4472 0)
(0.8944 0.4472 0)
(0.8944 0.4472 0)
(0.8944 0.4472 0)
(0.8944 0.4472 0)
(0.8944 0.4472 0)
(0.8944 0.4472 0)
(0.8944 0.4472 0)
(0.8944 0.4472 0)
(0.8944 0.4472 0)
(0.8944 0.4472 0)
(0.8944 0.4472 0)
(0.8944 0.4472 0)
(0.894401 0.447199 0)
(0.8944 0.447201 0)
(0.894402 0.4472 0)
(0.894401 0.4472 0)
(0.894403 0.4472 0)
(0.894404 0.447202 0)
(0.894406 0.4472 0)
(0.894409 0.447204 0)
(0.894412 0.447204 0)
(0.89442 0.447206 0)
(0.894427 0.447212 0)
(0.894437 0.447213 0)
(0.89445 0.447218 0)
(0.894463 0.447228 0)
(0.89448 0.447235 0)
(0.894492 0.447241 0)
(0.894504 0.447251 0)
(0.8945 0.447252 0)
(0.894477 0.447244 0)
(0.894415 0.447221 0)
(0.894292 0.447155 0)
(0.894075 0.447033 0)
(0.893717 0.446821 0)
(0.893165 0.446455 0)
(0.89235 0.445876 0)
(0.891193 0.444992 0)
(0.889617 0.443677 0)
(0.887563 0.44181 0)
(0.885018 0.439238 0)
(0.882075 0.435851 0)
(0.878988 0.431628 0)
(0.876213 0.426661 0)
(0.87435 0.421176 0)
(0.8944 0.4472 0)
(0.8944 0.4472 0)
(0.8944 0.4472 0)
(0.8944 0.4472 0)
(0.8944 0.4472 0)
(0.8944 0.4472 0)
(0.8944 0.4472 0)
(0.8944 0.4472 0)
(0.8944 0.4472 0)
(0.8944 0.4472 0)
(0.8944 0.4472 0)
(0.8944 0.4472 0)
(0.8944 0.4472 0)
(0.8944 0.4472 0)
(0.8944 0.4472 0)
(0.8944 0.4472 0)
(0.8944 0.4472 0)
(0.8944 0.4472 0)
(0.8944 0.4472 0)
(0.8944 0.4472 0)
(0.8944 0.4472 0)
(0.8944 0.4472 0)
(0.8944 0.4472 0)
(0.8944 0.4472 0)
(0.8944 0.4472 0)
(0.8944 0.4472 0)
(0.8944 0.4472 0)
(0.8944 0.4472 0)
(0.8944 0.4472 0)
(0.8944 0.4472 0)
(0.8944 0.4472 0)
(0.8944 0.4472 0)
(0.8944 0.4472 0)
(0.894401 0.4472 0)
(0.8944 0.4472 0)
(0.8944 0.4472 0)
(0.8944 0.4472 0)
(0.8944 0.4472 0)
(0.8944 0.447199 0)
(0.8944 0.447201 0)
(0.8944 0.4472 0)
(0.894401 0.4472 0)
(0.894399 0.4472 0)
(0.894401 0.4472 0)
(0.894401 0.4472 0)
(0.894402 0.447201 0)
(0.894401 0.447201 0)
(0.894405 0.4472 0)
(0.894404 0.447203 0)
(0.894409 0.447202 0)
(0.894412 0.447205 0)
(0.894417 0.447207 0)
(0.894424 0.447209 0)
(0.894434 0.447215 0)
(0.894445 0.44722 0)
(0.894457 0.447224 0)
(0.894473 0.447236 0)
(0.894487 0.447243 0)
(0.894498 0.447251 0)
(0.894499 0.44726 0)
(0.894483 0.447255 0)
(0.894439 0.447236 0)
(0.894343 0.447192 0)
(0.894168 0.447096 0)
(0.893886 0.44692 0)
(0.893436 0.446623 0)
(0.892767 0.446139 0)
(0.891811 0.445393 0)
(0.890499 0.444281 0)
(0.888769 0.442675 0)
(0.886588 0.440448 0)
(0.883998 0.437475 0)
(0.881154 0.433678 0)
(0.878385 0.429105 0)
(0.876185 0.423921 0)
(0.8944 0.4472 0)
(0.8944 0.4472 0)
(0.8944 0.4472 0)
(0.8944 0.4472 0)
(0.8944 0.4472 0)
(0.8944 0.4472 0)
(0.8944 0.4472 0)
(0.8944 0.4472 0)
(0.8944 0.4472 0)
(0.8944 0.4472 0)
(0.8944 0.4472 0)
(0.8944 0.4472 0)
(0.8944 0.4472 0)
(0.8944 0.4472 0)
(0.8944 0.4472 0)
(0.8944 0.4472 0)
(0.8944 0.4472 0)
(0.8944 0.4472 0)
(0.8944 0.4472 0)
(0.8944 0.4472 0)
(0.8944 0.4472 0)
(0.8944 0.4472 0)
(0.8944 0.4472 0)
(0.8944 0.4472 0)
(0.8944 0.4472 0)
(0.8944 0.4472 0)
(0.8944 0.4472 0)
(0.8944 0.4472 0)
(0.8944 0.4472 0)
(0.8944 0.4472 0)
(0.8944 0.4472 0)
(0.8944 0.4472 0)
(0.8944 0.4472 0)
(0.894401 0.4472 0)
(0.8944 0.4472 0)
(0.8944 0.4472 0)
(0.8944 0.4472 0)
(0.894401 0.4472 0)
(0.894399 0.4472 0)
(0.8944 0.4472 0)
(0.8944 0.4472 0)
(0.8944 0.4472 0)
(0.8944 0.4472 0)
(0.8944 0.4472 0)
(0.8944 0.4472 0)
(0.894401 0.447201 0)
(0.894402 0.4472 0)
(0.894404 0.447201 0)
(0.894403 0.447202 0)
(0.894409 0.447202 0)
(0.89441 0.447205 0)
(0.894416 0.447206 0)
(0.894421 0.447208 0)
(0.89443 0.447214 0)
(0.894442 0.447219 0)
(0.89445 0.447225 0)
(0.894467 0.447233 0)
(0.894479 0.447243 0)
(0.894492 0.447251 0)
(0.894494 0.447261 0)
(0.894489 0.447262 0)
(0.894452 0.447252 0)
(0.894381 0.447219 0)
(0.894246 0.447146 0)
(0.894018 0.447005 0)
(0.893659 0.446765 0)
(0.893116 0.44637 0)
(0.892337 0.445748 0)
(0.891258 0.444815 0)
(0.889817 0.443464 0)
(0.887979 0.441561 0)
(0.885749 0.438986 0)
(0.883212 0.435649 0)
(0.880586 0.431525 0)
(0.878245 0.426715 0)
(0.8944 0.4472 0)
(0.8944 0.4472 0)
(0.8944 0.4472 0)
(0.8944 0.4472 0)
(0.8944 0.4472 0)
(0.8944 0.4472 0)
(0.8944 0.4472 0)
(0.8944 0.4472 0)
(0.8944 0.4472 0)
(0.8944 0.4472 0)
(0.8944 0.4472 0)
(0.8944 0.4472 0)
(0.8944 0.4472 0)
(0.8944 0.4472 0)
(0.8944 0.4472 0)
(0.8944 0.4472 0)
(0.8944 0.4472 0)
(0.8944 0.4472 0)
(0.8944 0.4472 0)
(0.8944 0.4472 0)
(0.8944 0.4472 0)
(0.8944 0.4472 0)
(0.8944 0.4472 0)
(0.8944 0.4472 0)
(0.8944 0.4472 0)
(0.8944 0.4472 0)
(0.8944 0.4472 0)
(0.8944 0.4472 0)
(0.8944 0.4472 0)
(0.8944 0.4472 0)
(0.8944 0.4472 0)
(0.8944 0.4472 0)
(0.8944 0.4472 0)
(0.8944 0.4472 0)
(0.8944 0.4472 0)
(0.8944 0.4472 0)
(0.8944 0.4472 0)
(0.8944 0.4472 0)
(0.8944 0.447201 0)
(0.8944 0.4472 0)
(0.8944 0.4472 0)
(0.894401 0.4472 0)
(0.8944 0.4472 0)
(0.8944 0.447201 0)
(0.894401 0.4472 0)
(0.894401 0.4472 0)
(0.8944 0.447201 0)
(0.894405 0.4472 0)
(0.894403 0.447203 0)
(0.894407 0.447202 0)
(0.89441 0.447203 0)
(0.894412 0.447207 0)
(0.89442 0.447208 0)
(0.894426 0.447213 0)
(0.894435 0.447217 0)
(0.894448 0.447224 0)
(0.894459 0.447233 0)
(0.894471 0.447242 0)
(0.894484 0.447251 0)
(0.89449 0.44726 0)
(0.894486 0.447266 0)
(0.894463 0.447264 0)
(0.89441 0.447238 0)
(0.894303 0.447185 0)
(0.894126 0.44708 0)
(0.89384 0.446885 0)
(0.893406 0.446562 0)
(0.892777 0.446059 0)
(0.891896 0.445286 0)
(0.890714 0.444157 0)
(0.88919 0.442558 0)
(0.887306 0.440369 0)
(0.885102 0.437486 0)
(0.882715 0.433851 0)
(0.880406 0.42949 0)
(0.8944 0.4472 0)
(0.8944 0.4472 0)
(0.8944 0.4472 0)
(0.8944 0.4472 0)
(0.8944 0.4472 0)
(0.8944 0.4472 0)
(0.8944 0.4472 0)
(0.8944 0.4472 0)
(0.8944 0.4472 0)
(0.8944 0.4472 0)
(0.8944 0.4472 0)
(0.8944 0.4472 0)
(0.8944 0.4472 0)
(0.8944 0.4472 0)
(0.8944 0.4472 0)
(0.8944 0.4472 0)
(0.8944 0.4472 0)
(0.8944 0.4472 0)
(0.8944 0.4472 0)
(0.8944 0.4472 0)
(0.8944 0.4472 0)
(0.8944 0.4472 0)
(0.8944 0.4472 0)
(0.8944 0.4472 0)
(0.8944 0.4472 0)
(0.8944 0.4472 0)
(0.8944 0.4472 0)
(0.8944 0.4472 0)
(0.8944 0.4472 0)
(0.8944 0.4472 0)
(0.8944 0.4472 0)
(0.8944 0.4472 0)
(0.8944 0.4472 0)
(0.8944 0.4472 0)
(0.8944 0.4472 0)
(0.8944 0.4472 0)
(0.8944 0.447201 0)
(0.8944 0.447199 0)
(0.8944 0.4472 0)
(0.8944 0.4472 0)
(0.8944 0.4472 0)
(0.8944 0.4472 0)
(0.8944 0.4472 0)
(0.8944 0.4472 0)
(0.894401 0.4472 0)
(0.8944 0.4472 0)
(0.894403 0.447201 0)
(0.894402 0.447201 0)
(0.894404 0.447201 0)
(0.894405 0.447203 0)
(0.894408 0.447202 0)
(0.894411 0.447206 0)
(0.894417 0.447208 0)
(0.894424 0.447211 0)
(0.89443 0.447217 0)
(0.894442 0.447223 0)
(0.894452 0.447231 0)
(0.894465 0.447239 0)
(0.894474 0.447251 0)
(0.894485 0.447259 0)
(0.894483 0.447266 0)
(0.894467 0.44727 0)
(0.894428 0.447255 0)
(0.894348 0.447215 0)
(0.894208 0.447136 0)
(0.893983 0.446983 0)
(0.893641 0.446729 0)
(0.893137 0.446319 0)
(0.892429 0.445691 0)
(0.891472 0.444763 0)
(0.890221 0.443436 0)
(0.888655 0.441601 0)
(0.886788 0.439157 0)
(0.884696 0.436018 0)
(0.882545 0.432165 0)
(0.8944 0.4472 0)
(0.8944 0.4472 0)
(0.8944 0.4472 0)
(0.8944 0.4472 0)
(0.8944 0.4472 0)
(0.8944 0.4472 0)
(0.8944 0.4472 0)
(0.8944 0.4472 0)
(0.8944 0.4472 0)
(0.8944 0.4472 0)
(0.8944 0.4472 0)
(0.8944 0.4472 0)
(0.8944 0.4472 0)
(0.8944 0.4472 0)
(0.8944 0.4472 0)
(0.8944 0.4472 0)
(0.8944 0.4472 0)
(0.8944 0.4472 0)
(0.8944 0.4472 0)
(0.8944 0.4472 0)
(0.8944 0.4472 0)
(0.8944 0.4472 0)
(0.8944 0.4472 0)
(0.8944 0.4472 0)
(0.8944 0.4472 0)
(0.8944 0.4472 0)
(0.8944 0.4472 0)
(0.8944 0.4472 0)
(0.8944 0.4472 0)
(0.8944 0.4472 0)
(0.8944 0.4472 0)
(0.8944 0.4472 0)
(0.8944 0.4472 0)
(0.8944 0.4472 0)
(0.8944 0.4472 0)
(0.8944 0.4472 0)
(0.8944 0.4472 0)
(0.8944 0.4472 0)
(0.8944 0.4472 0)
(0.894401 0.4472 0)
(0.894399 0.4472 0)
(0.894401 0.4472 0)
(0.8944 0.4472 0)
(0.894401 0.4472 0)
(0.8944 0.4472 0)
(0.894401 0.4472 0)
(0.894402 0.447201 0)
(0.894401 0.447201 0)
(0.894404 0.447201 0)
(0.894404 0.447202 0)
(0.894408 0.447204 0)
(0.89441 0.447203 0)
(0.894415 0.447209 0)
(0.894421 0.447211 0)
(0.894426 0.447216 0)
(0.894435 0.447221 0)
(0.894447 0.447228 0)
(0.894456 0.447237 0)
(0.894469 0.447248 0)
(0.894474 0.447259 0)
(0.894478 0.447265 0)
(0.89447 0.447272 0)
(0.894438 0.447265 0)
(0.89438 0.447237 0)
(0.894273 0.447179 0)
(0.894099 0.447065 0)
(0.89383 0.446862 0)
(0.893429 0.446536 0)
(0.892866 0.446033 0)
(0.892099 0.445278 0)
(0.891087 0.444194 0)
(0.889808 0.442682 0)
(0.888254 0.440639 0)
(0.886469 0.437982 0)
(0.884555 0.434659 0)
(0.8944 0.4472 0)
(0.8944 0.4472 0)
(0.8944 0.4472 0)
(0.8944 0.4472 0)
(0.8944 0.4472 0)
(0.8944 0.4472 0)
(0.8944 0.4472 0)
(0.8944 0.4472 0)
(0.8944 0.4472 0)
(0.8944 0.4472 0)
(0.8944 0.4472 0)
(0.8944 0.4472 0)
(0.8944 0.4472 0)
(0.8944 0.4472 0)
(0.8944 0.4472 0)
(0.8944 0.4472 0)
(0.8944 0.4472 0)
(0.8944 0.4472 0)
(0.8944 0.4472 0)
(0.8944 0.4472 0)
(0.8944 0.4472 0)
(0.8944 0.4472 0)
(0.8944 0.4472 0)
(0.8944 0.4472 0)
(0.8944 0.4472 0)
(0.8944 0.4472 0)
(0.8944 0.4472 0)
(0.8944 0.4472 0)
(0.8944 0.4472 0)
(0.8944 0.4472 0)
(0.8944 0.4472 0)
(0.8944 0.4472 0)
(0.8944 0.4472 0)
(0.8944 0.4472 0)
(0.8944 0.4472 0)
(0.8944 0.447201 0)
(0.8944 0.4472 0)
(0.8944 0.4472 0)
(0.8944 0.4472 0)
(0.8944 0.4472 0)
(0.8944 0.447201 0)
(0.8944 0.447199 0)
(0.8944 0.447201 0)
(0.8944 0.447199 0)
(0.894402 0.4472 0)
(0.894399 0.447202 0)
(0.894402 0.447199 0)
(0.894401 0.447202 0)
(0.894402 0.447201 0)
(0.894406 0.447201 0)
(0.894404 0.447204 0)
(0.89441 0.447204 0)
(0.894412 0.447206 0)
(0.894417 0.44721 0)
(0.894424 0.447214 0)
(0.894431 0.447219 0)
(0.89444 0.447226 0)
(0.894449 0.447235 0)
(0.89446 0.447244 0)
(0.894466 0.447255 0)
(0.89447 0.447265 0)
(0.894469 0.44727 0)
(0.894442 0.44727 0)
(0.894403 0.447252 0)
(0.89432 0.447211 0)
(0.894185 0.447126 0)
(0.893976 0.446969 0)
(0.893664 0.446715 0)
(0.89322 0.446316 0)
(0.892611 0.44571 0)
(0.891802 0.444834 0)
(0.890768 0.443606 0)
(0.889503 0.441927 0)
(0.888016 0.439717 0)
(0.886366 0.436911 0)
(0.8944 0.4472 0)
(0.8944 0.4472 0)
(0.8944 0.4472 0)
(0.8944 0.4472 0)
(0.8944 0.4472 0)
(0.8944 0.4472 0)
(0.8944 0.4472 0)
(0.8944 0.4472 0)
(0.8944 0.4472 0)
(0.8944 0.4472 0)
(0.8944 0.4472 0)
(0.8944 0.4472 0)
(0.8944 0.4472 0)
(0.8944 0.4472 0)
(0.8944 0.4472 0)
(0.8944 0.4472 0)
(0.8944 0.4472 0)
(0.8944 0.4472 0)
(0.8944 0.4472 0)
(0.8944 0.4472 0)
(0.8944 0.4472 0)
(0.8944 0.4472 0)
(0.8944 0.4472 0)
(0.8944 0.4472 0)
(0.8944 0.4472 0)
(0.8944 0.4472 0)
(0.8944 0.4472 0)
(0.8944 0.4472 0)
(0.8944 0.4472 0)
(0.8944 0.4472 0)
(0.8944 0.4472 0)
(0.8944 0.4472 0)
(0.8944 0.4472 0)
(0.8944 0.4472 0)
(0.8944 0.4472 0)
(0.8944 0.4472 0)
(0.8944 0.4472 0)
(0.8944 0.4472 0)
(0.8944 0.4472 0)
(0.8944 0.4472 0)
(0.8944 0.4472 0)
(0.894401 0.4472 0)
(0.894399 0.4472 0)
(0.894401 0.4472 0)
(0.8944 0.447201 0)
(0.894401 0.4472 0)
(0.8944 0.447201 0)
(0.894402 0.4472 0)
(0.894402 0.447202 0)
(0.894403 0.4472 0)
(0.894406 0.447203 0)
(0.894406 0.447204 0)
(0.894412 0.447205 0)
(0.894415 0.447209 0)
(0.894418 0.447214 0)
(0.894429 0.447215 0)
(0.894434 0.447225 0)
(0.894442 0.447231 0)
(0.894453 0.447241 0)
(0.89446 0.447251 0)
(0.894463 0.447261 0)
(0.894461 0.447268 0)
(0.89445 0.447273 0)
(0.894412 0.447262 0)
(0.894357 0.447233 0)
(0.894249 0.447169 0)
(0.89409 0.447055 0)
(0.893849 0.446858 0)
(0.8935 0.446542 0)
(0.893022 0.446068 0)
(0.892385 0.445369 0)
(0.891562 0.444379 0)
(0.890543 0.443023 0)
(0.889329 0.441217 0)
(0.88795 0.438892 0)
(0.8944 0.4472 0)
(0.8944 0.4472 0)
(0.8944 0.4472 0)
(0.8944 0.4472 0)
(0.8944 0.4472 0)
(0.8944 0.4472 0)
(0.8944 0.4472 0)
(0.8944 0.4472 0)
(0.8944 0.4472 0)
(0.8944 0.4472 0)
(0.8944 0.4472 0)
(0.8944 0.4472 0)
(0.8944 0.4472 0)
(0.8944 0.4472 0)
(0.8944 0.4472 0)
(0.8944 0.4472 0)
(0.8944 0.4472 0)
(0.8944 0.4472 0)
(0.8944 0.4472 0)
(0.8944 0.4472 0)
(0.8944 0.4472 0)
(0.8944 0.4472 0)
(0.8944 0.4472 0)
(0.8944 0.4472 0)
(0.8944 0.4472 0)
(0.8944 0.4472 0)
(0.8944 0.4472 0)
(0.8944 0.4472 0)
(0.8944 0.4472 0)
(0.8944 0.4472 0)
(0.8944 0.4472 0)
(0.8944 0.4472 0)
(0.8944 0.4472 0)
(0.8944 0.4472 0)
(0.8944 0.4472 0)
(0.8944 0.4472 0)
(0.8944 0.4472 0)
(0.8944 0.4472 0)
(0.8944 0.4472 0)
(0.8944 0.4472 0)
(0.8944 0.4472 0)
(0.894401 0.4472 0)
(0.894399 0.4472 0)
(0.894402 0.4472 0)
(0.894399 0.447201 0)
(0.894402 0.447199 0)
(0.894401 0.4472 0)
(0.8944 0.447201 0)
(0.894403 0.447199 0)
(0.894403 0.447203 0)
(0.894404 0.447202 0)
(0.894407 0.447202 0)
(0.894409 0.447207 0)
(0.894411 0.447206 0)
(0.894419 0.447212 0)
(0.894423 0.447215 0)
(0.894429 0.447221 0)
(0.894437 0.44723 0)
(0.894445 0.447236 0)
(0.894451 0.447248 0)
(0.894457 0.447258 0)
(0.894455 0.447264 0)
(0.894449 0.447269 0)
(0.894423 0.447269 0)
(0.894376 0.447248 0)
(0.8943 0.447201 0)
(0.894178 0.447118 0)
(0.893989 0.446967 0)
(0.893721 0.446726 0)
(0.893349 0.446354 0)
(0.89285 0.445805 0)
(0.892205 0.445022 0)
(0.891394 0.443937 0)
(0.890419 0.442484 0)
(0.889297 0.440591 0)
(0.8944 0.4472 0)
(0.8944 0.4472 0)
(0.8944 0.4472 0)
(0.8944 0.4472 0)
(0.8944 0.4472 0)
(0.8944 0.4472 0)
(0.8944 0.4472 0)
(0.8944 0.4472 0)
(0.8944 0.4472 0)
(0.8944 0.4472 0)
(0.8944 0.4472 0)
(0.8944 0.4472 0)
(0.8944 0.4472 0)
(0.8944 0.4472 0)
(0.8944 0.4472 0)
(0.8944 0.4472 0)
(0.8944 0.4472 0)
(0.8944 0.4472 0)
(0.8944 0.4472 0)
(0.8944 0.4472 0)
(0.8944 0.4472 0)
(0.8944 0.4472 0)
(0.8944 0.4472 0)
(0.8944 0.4472 0)
(0.8944 0.4472 0)
(0.8944 0.4472 0)
(0.8944 0.4472 0)
(0.8944 0.4472 0)
(0.8944 0.4472 0)
(0.8944 0.4472 0)
(0.8944 0.4472 0)
(0.8944 0.4472 0)
(0.8944 0.4472 0)
(0.8944 0.4472 0)
(0.8944 0.4472 0)
(0.8944 0.4472 0)
(0.8944 0.4472 0)
(0.8944 0.4472 0)
(0.8944 0.4472 0)
(0.894399 0.4472 0)
(0.894401 0.4472 0)
(0.8944 0.4472 0)
(0.8944 0.4472 0)
(0.8944 0.447199 0)
(0.894401 0.447201 0)
(0.8944 0.447199 0)
(0.8944 0.447201 0)
(0.894402 0.4472 0)
(0.8944 0.447202 0)
(0.894404 0.447201 0)
(0.894403 0.447202 0)
(0.894405 0.447203 0)
(0.894408 0.447204 0)
(0.89441 0.447207 0)
(0.894415 0.447209 0)
(0.894419 0.447214 0)
(0.894426 0.447219 0)
(0.894431 0.447226 0)
(0.894438 0.447233 0)
(0.894445 0.447241 0)
(0.894448 0.447252 0)
(0.89445 0.44726 0)
(0.894443 0.447267 0)
(0.894428 0.447267 0)
(0.894393 0.447257 0)
(0.894335 0.447225 0)
(0.894239 0.447163 0)
(0.894099 0.447051 0)
(0.893893 0.446866 0)
(0.893605 0.446584 0)
(0.89322 0.446157 0)
(0.892717 0.445542 0)
(0.892082 0.444689 0)
(0.891312 0.443533 0)
(0.890413 0.442017 0)
(0.8944 0.4472 0)
(0.8944 0.4472 0)
(0.8944 0.4472 0)
(0.8944 0.4472 0)
(0.8944 0.4472 0)
(0.8944 0.4472 0)
(0.8944 0.4472 0)
(0.8944 0.4472 0)
(0.8944 0.4472 0)
(0.8944 0.4472 0)
(0.8944 0.4472 0)
(0.8944 0.4472 0)
(0.8944 0.4472 0)
(0.8944 0.4472 0)
(0.8944 0.4472 0)
(0.8944 0.4472 0)
(0.8944 0.4472 0)
(0.8944 0.4472 0)
(0.8944 0.4472 0)
(0.8944 0.4472 0)
(0.8944 0.4472 0)
(0.8944 0.4472 0)
(0.8944 0.4472 0)
(0.8944 0.4472 0)
(0.8944 0.4472 0)
(0.8944 0.4472 0)
(0.8944 0.4472 0)
(0.8944 0.4472 0)
(0.8944 0.4472 0)
(0.8944 0.4472 0)
(0.8944 0.4472 0)
(0.8944 0.4472 0)
(0.8944 0.4472 0)
(0.8944 0.4472 0)
(0.8944 0.4472 0)
(0.8944 0.447201 0)
(0.8944 0.447199 0)
(0.894399 0.4472 0)
(0.8944 0.4472 0)
(0.8944 0.4472 0)
(0.8944 0.4472 0)
(0.8944 0.447199 0)
(0.8944 0.447201 0)
(0.8944 0.4472 0)
(0.8944 0.4472 0)
(0.8944 0.4472 0)
(0.894402 0.4472 0)
(0.894399 0.447201 0)
(0.894404 0.447201 0)
(0.8944 0.447202 0)
(0.894405 0.447201 0)
(0.894404 0.447203 0)
(0.894406 0.447203 0)
(0.894409 0.447207 0)
(0.894412 0.447207 0)
(0.894417 0.447212 0)
(0.894419 0.447218 0)
(0.894427 0.447221 0)
(0.89443 0.44723 0)
(0.89444 0.447238 0)
(0.89444 0.447244 0)
(0.894444 0.447255 0)
(0.89444 0.447264 0)
(0.894426 0.447263 0)
(0.894402 0.447261 0)
(0.894359 0.447239 0)
(0.894286 0.447194 0)
(0.894179 0.447115 0)