/*--------------------------------*- C++ -*----------------------------------*\
  =========                 |
  \\      /  F ield         | OpenFOAM: The Open Source CFD Toolbox
   \\    /   O peration     | Website:  https://openfoam.org
    \\  /    A nd           | Version:  6
     \\/     M anipulation  |
\*---------------------------------------------------------------------------*/
FoamFile
{
    version     2.0;
    format      ascii;
    class       volScalarField;
    location    "2.15";
    object      p;
}
// * * * * * * * * * * * * * * * * * * * * * * * * * * * * * * * * * * * * * //

dimensions      [0 2 -2 0 0 0 0];

internalField   nonuniform List<scalar> 
4214
(
-0.232994
-0.20833
-0.158023
-0.117017
-0.0969451
-0.0863629
-0.077749
-0.0697429
-0.061103
-0.0517967
-0.0413446
-0.0292449
-0.015652
-0.00165085
0.00861106
0.0162372
0.0226032
0.0332683
0.0567587
0.102936
0.131859
0.127381
0.0969329
0.0676854
0.0484718
0.0345679
0.022411
0.0113078
0.00170271
-0.00709193
-0.0148639
-0.0217921
-0.0283671
-0.0351422
-0.0428935
-0.0511877
-0.061856
-0.0832429
-0.131312
-0.190517
-0.223895
-0.215359
-0.220425
-0.21605
-0.183554
-0.158517
-0.143499
-0.130593
-0.115433
-0.0981196
-0.0787925
-0.0571477
-0.0332276
-0.00714718
0.0199954
0.0450166
0.0767323
0.109774
0.142827
0.176579
0.206404
0.202518
0.198114
0.170186
0.130998
0.0984786
0.0695117
0.0429819
0.0184326
-0.00361832
-0.0227197
-0.0397039
-0.0550671
-0.0693145
-0.083341
-0.0967611
-0.108506
-0.12472
-0.155276
-0.197544
-0.205827
-0.194225
-0.356069
-0.3418
-0.338096
-0.308657
-0.276194
-0.251275
-0.2279
-0.20193
-0.172903
-0.140566
-0.104428
-0.0642873
-0.0204027
0.0246777
0.0735942
0.121951
0.176391
0.231035
0.287717
0.343019
0.353647
0.352495
0.29765
0.226592
0.170796
0.120168
0.0735367
0.0307252
-0.00792811
-0.0405452
-0.0695469
-0.095526
-0.119542
-0.142862
-0.165522
-0.187561
-0.214971
-0.256419
-0.297278
-0.307729
-0.328363
-0.463028
-0.440595
-0.435082
-0.408241
-0.37331
-0.343548
-0.31439
-0.281318
-0.243567
-0.200747
-0.152209
-0.0975569
-0.0373517
0.0272392
0.0972972
0.165549
0.242265
0.318459
0.402792
0.466635
0.479905
0.482868
0.410735
0.314652
0.237337
0.165662
0.0993155
0.0389179
-0.0141256
-0.0605963
-0.10074
-0.13635
-0.168937
-0.19983
-0.229327
-0.258717
-0.294269
-0.341184
-0.384088
-0.399519
-0.437205
-0.566104
-0.545762
-0.541517
-0.514448
-0.477137
-0.44357
-0.409555
-0.370114
-0.324322
-0.271625
-0.211
-0.141751
-0.0644931
0.0204573
0.107936
0.202465
0.301884
0.398164
0.517423
0.591793
0.612289
0.615631
0.528034
0.408979
0.304796
0.210662
0.123568
0.0447508
-0.0241135
-0.0833198
-0.134622
-0.179884
-0.220918
-0.259095
-0.295206
-0.331678
-0.374404
-0.425708
-0.471181
-0.492736
-0.536892
-0.666062
-0.647843
-0.646077
-0.619431
-0.581175
-0.545684
-0.508698
-0.46472
-0.412553
-0.351446
-0.279925
-0.196907
-0.10247
0.00321819
0.113431
0.231439
0.357746
0.481027
0.628759
0.716206
0.748127
0.764277
0.646182
0.504799
0.371625
0.253751
0.145103
0.0477153
-0.0367667
-0.108853
-0.171152
-0.225804
-0.274838
-0.319696
-0.361803
-0.404494
-0.453056
-0.507977
-0.555341
-0.581054
-0.630443
-0.768901
-0.753084
-0.754813
-0.729262
-0.690839
-0.654413
-0.615627
-0.568433
-0.511205
-0.442904
-0.361568
-0.265567
-0.154403
-0.0287783
0.107875
0.253033
0.410184
0.578407
0.73706
0.840684
0.885892
0.922829
0.766528
0.598889
0.437762
0.294965
0.164031
0.0477924
-0.0523634
-0.137597
-0.210861
-0.274721
-0.331451
-0.38274
-0.430664
-0.479053
-0.532675
-0.590837
-0.639547
-0.668266
-0.721603
-0.877955
-0.862021
-0.868942
-0.845046
-0.80714
-0.77049
-0.730986
-0.681989
-0.621195
-0.547139
-0.457333
-0.349354
-0.222048
-0.0755161
0.0881359
0.264546
0.455465
0.675226
0.844365
0.967978
1.02483
1.05393
0.885589
0.692082
0.502748
0.333729
0.181025
0.0443305
-0.0716013
-0.170143
-0.254313
-0.327203
-0.391357
-0.448859
-0.502296
-0.555711
-0.61368
-0.674726
-0.724718
-0.756394
-0.813676
-0.99523
-0.978682
-0.987399
-0.967272
-0.931364
-0.895238
-0.855975
-0.80655
-0.743793
-0.665635
-0.569011
-0.450409
-0.307824
-0.139317
0.0539219
0.265543
0.49461
0.755559
0.960577
1.10136
1.17189
1.18839
1.00603
0.784155
0.566043
0.369973
0.194588
0.0370836
-0.0953043
-0.20731
-0.30245
-0.384288
-0.455729
-0.519332
-0.577968
-0.635748
-0.697343
-0.7611
-0.813009
-0.847473
-0.907955
-1.12067
-1.10329
-1.11181
-1.09557
-1.06304
-1.02877
-0.990913
-0.942482
-0.879643
-0.799579
-0.698615
-0.571559
-0.415613
-0.225482
-0.00403886
0.25226
0.526235
0.825098
1.08735
1.24267
1.33447
1.3472
1.1332
0.876452
0.627225
0.403628
0.200502
0.0241875
-0.124819
-0.250575
-0.356792
-0.447397
-0.525878
-0.595364
-0.658833
-0.720362
-0.78494
-0.851524
-0.906647
-0.943371
-1.00523
-1.25394
-1.23419
-1.24188
-1.23042
-1.2013
-1.17055
-1.13592
-1.09003
-1.02918
-0.9499
-0.848092
-0.716184
-0.551663
-0.342343
-0.0953918
0.209525
0.541244
0.887352
1.22303
1.39753
1.51803
1.50932
1.26576
0.969341
0.686007
0.430268
0.200357
0.00389865
-0.162355
-0.302036
-0.419124
-0.518169
-0.603455
-0.678574
-0.746553
-0.811453
-0.878605
-0.947908
-1.00665
-1.04595
-1.10812
-1.39216
-1.36766
-1.37479
-1.37209
-1.34624
-1.32029
-1.29157
-1.24979
-1.19288
-1.1168
-1.0175
-0.885249
-0.720349
-0.495638
-0.231249
0.119056
0.50094
0.928524
1.36389
1.56346
1.72405
1.6678
1.39446
1.05679
0.733127
0.447245
0.190737
-0.0272135
-0.210933
-0.363885
-0.491231
-0.598331
-0.690204
-0.770727
-0.843005
-0.911144
-0.980714
-1.05247
-1.11456
-1.15693
-1.21972
-1.53164
-1.50416
-1.51224
-1.51645
-1.49965
-1.47957
-1.45834
-1.42272
-1.37151
-1.30061
-1.20646
-1.07626
-0.91575
-0.67486
-0.399554
0.0108643
0.435207
0.943404
1.47837
1.71318
1.92822
1.81378
1.5128
1.13392
0.77205
0.44972
0.165582
-0.0728475
-0.273504
-0.438957
-0.576294
-0.691251
-0.789366
-0.87498
-0.951361
-1.02268
-1.09459
-1.16854
-1.23373
-1.27971
-1.3434
-1.67668
-1.65089
-1.65926
-1.66769
-1.66276
-1.64923
-1.6345
-1.60772
-1.56602
-1.50412
-1.42153
-1.29362
-1.13576
-0.869589
-0.595411
-0.103918
0.329449
0.924283
1.56969
1.83261
2.11053
1.95159
1.63278
1.21891
0.791974
0.434163
0.119217
-0.138416
-0.353932
-0.530935
-0.67748
-0.799783
-0.90384
-0.994198
-1.0744
-1.14878
-1.22286
-1.29876
-1.36718
-1.41803
-1.48217
-1.8294
-1.81347
-1.82107
-1.83065
-1.83518
-1.83078
-1.82304
-1.80464
-1.77431
-1.7305
-1.66952
-1.56025
-1.44147
-1.14253
-0.925155
-0.321612
0.0807314
0.929854
1.71076
2.00273
2.3274
2.09837
1.70847
1.2509
0.766301
0.387896
0.046115
-0.226889
-0.45879
-0.646654
-0.802532
-0.931226
-1.04085
-1.13535
-1.21946
-1.29675
-1.37296
-1.45023
-1.52212
-1.57904
-1.64325
-1.98708
-1.99
-2.00044
-2.01197
-2.02331
-2.02878
-2.0314
-2.01988
-1.98988
-1.97374
-1.92539
-1.8932
-1.94374
-1.61585
-1.58388
-0.719061
-0.53408
0.943864
2.04368
2.30128
2.62836
2.22012
1.64344
1.18014
0.644017
0.284778
-0.0828713
-0.352685
-0.600281
-0.788005
-0.955392
-1.08618
-1.20358
-1.29889
-1.38876
-1.4656
-1.54471
-1.62029
-1.69893
-1.75876
-1.82961
-2.14886
-2.17339
-2.19691
-2.21397
-2.23569
-2.24343
-2.25853
-2.25793
-2.21405
-2.22399
-2.16868
-2.24119
-2.46901
-2.18476
-2.2625
-1.17107
-1.24693
0.709078
2.19634
2.41489
2.71287
2.16421
1.45769
1.0141
0.429105
0.102155
-0.273684
-0.541755
-0.791907
-0.982815
-1.15884
-1.28637
-1.41823
-1.50388
-1.61173
-1.67334
-1.77413
-1.82926
-1.93942
-1.96976
-2.08069
-2.13088
-1.93464
-1.76658
-1.61421
-1.47928
-1.35679
-1.2448
-1.14096
-1.04343
-0.950361
-0.861454
-0.774477
-0.688137
-0.607152
-0.51387
-0.442522
-0.371852
-2.25204
-2.03602
-1.87069
-1.7227
-1.59312
-1.47467
-1.36591
-1.26449
-1.16828
-1.07695
-0.989719
-0.90333
-0.821994
-0.74498
-0.656014
-0.598964
-0.494502
-2.29561
-2.12674
-1.97779
-1.83893
-1.71527
-1.60128
-1.49629
-1.3976
-1.30369
-1.21498
-1.12874
-1.04404
-0.967384
-0.888261
-0.802162
-0.757491
-0.646596
-2.41107
-2.22576
-2.08155
-1.95006
-1.83384
-1.72615
-1.62637
-1.53178
-1.44192
-1.35678
-1.27244
-1.19118
-1.11813
-1.03784
-0.956416
-0.913502
-0.801
-2.42938
-2.2991
-2.17784
-2.0591
-1.95192
-1.85172
-1.75805
-1.66868
-1.58405
-1.5032
-1.42208
-1.34546
-1.27568
-1.19564
-1.11976
-1.07634
-0.965257
-2.52227
-2.38005
-2.2687
-2.1603
-2.06313
-1.97226
-1.88623
-1.80361
-1.72558
-1.65004
-1.57363
-1.50293
-1.43693
-1.35937
-1.28997
-1.2445
-1.13823
-2.51409
-2.42404
-2.33767
-2.24843
-2.16382
-2.08424
-2.00769
-1.93366
-1.86356
-1.79438
-1.72444
-1.66079
-1.59903
-1.52662
-1.46472
-1.41705
-1.31855
-2.56979
-2.47636
-2.40024
-2.32502
-2.25245
-2.18408
-2.11826
-2.0544
-1.99343
-1.93211
-1.87041
-1.81423
-1.75771
-1.69367
-1.64058
-1.59164
-1.50273
-2.56191
-2.50202
-2.44318
-2.38394
-2.32612
-2.26939
-2.21388
-2.16115
-2.11054
-2.05863
-2.00662
-1.95898
-1.90879
-1.85376
-1.81118
-1.7637
-1.68583
-2.5543
-2.50475
-2.46029
-2.41799
-2.37614
-2.33359
-2.29107
-2.24911
-2.20879
-2.16735
-2.12643
-2.08853
-2.04595
-2.00174
-1.9705
-1.92722
-1.86274
-2.5258
-2.48938
-2.45589
-2.4231
-2.39287
-2.36469
-2.33714
-2.30935
-2.28044
-2.25058
-2.22149
-2.19509
-2.16264
-2.1298
-2.10864
-2.07391
-2.02452
-2.47036
-2.44881
-2.42743
-2.4062
-2.38467
-2.36566
-2.34801
-2.3309
-2.31354
-2.29625
-2.2799
-2.26318
-2.24285
-2.22227
-2.21078
-2.18671
-2.15534
-2.42105
-2.4053
-2.38542
-2.36836
-2.35602
-2.34698
-2.33572
-2.3233
-2.31163
-2.30093
-2.29142
-2.28302
-2.27485
-2.26884
-2.26388
-2.25309
-2.23955
-2.32639
-2.32517
-2.31887
-2.31163
-2.3028
-2.29323
-2.28649
-2.28326
-2.28241
-2.28133
-2.27949
-2.27757
-2.27618
-2.27504
-2.27283
-2.2707
-2.26979
-2.21607
-2.22186
-2.22266
-2.22141
-2.21942
-2.2173
-2.21553
-2.21412
-2.21208
-2.21189
-2.21465
-2.21927
-2.22389
-2.22802
-2.23142
-2.23534
-2.24413
-2.09008
-2.08429
-2.08583
-2.08848
-2.09139
-2.09422
-2.09713
-2.09997
-2.10272
-2.10729
-2.11221
-2.1155
-2.12026
-2.12989
-2.13692
-2.14628
-2.15582
-1.88616
-1.89977
-1.90445
-1.90964
-1.91679
-1.92277
-1.92801
-1.93393
-1.94041
-1.94744
-1.95452
-1.96111
-1.96981
-1.97759
-1.98344
-2.00277
-2.01006
-1.74797
-1.73847
-1.7364
-1.73496
-1.73412
-1.73266
-1.73104
-1.73168
-1.73436
-1.73809
-1.74259
-1.74811
-1.7577
-1.76662
-1.76988
-1.78707
-1.78441
-1.47893
-1.4856
-1.48775
-1.48782
-1.4871
-1.48724
-1.48865
-1.48922
-1.48833
-1.48735
-1.4864
-1.48665
-1.49
-1.49058
-1.48916
-1.50438
-1.49535
-1.30855
-1.27631
-1.25598
-1.23986
-1.22682
-1.21588
-1.20648
-1.1983
-1.19084
-1.18523
-1.18134
-1.17772
-1.17445
-1.17035
-1.16465
-1.17692
-1.15918
-0.97386
-0.971774
-0.963997
-0.949807
-0.933954
-0.917847
-0.902031
-0.886808
-0.872812
-0.860514
-0.849042
-0.838123
-0.827127
-0.819088
-0.80659
-0.808889
-0.775652
-0.804228
-0.745336
-0.706878
-0.673631
-0.644153
-0.617264
-0.592185
-0.56846
-0.545931
-0.523474
-0.501517
-0.48031
-0.459716
-0.44197
-0.416481
-0.416368
-0.368562
-0.461682
-0.434136
-0.404559
-0.369912
-0.334355
-0.29915
-0.264797
-0.231331
-0.198753
-0.166965
-0.136536
-0.108182
-0.0805199
-0.0568635
-0.0198518
-0.0166609
0.046082
-0.265129
-0.18009
-0.120995
-0.0680964
-0.0188969
0.0284839
0.0733455
0.115797
0.155759
0.193226
0.228549
0.261649
0.294406
0.323405
0.363227
0.371349
0.447165
0.0926684
0.138726
0.187954
0.24694
0.304643
0.359019
0.40963
0.456568
0.499996
0.540513
0.579221
0.61637
0.653596
0.687711
0.731124
0.745868
0.832006
0.304522
0.413929
0.48996
0.558833
0.621959
0.680331
0.733402
0.781761
0.826754
0.869491
0.910793
0.950796
0.991259
1.02919
1.07684
1.09801
1.18992
0.661439
0.722598
0.790056
0.862825
0.928688
0.987602
1.04002
1.08798
1.13314
1.17627
1.21813
1.25888
1.30032
1.33959
1.38814
1.41263
1.50612
0.877463
1.00279
1.08309
1.15635
1.22008
1.2764
1.32637
1.37245
1.41608
1.45786
1.49854
1.53834
1.57905
1.61783
1.66553
1.69114
1.78349
1.2267
1.29315
1.36136
1.43259
1.49301
1.54495
1.59088
1.63347
1.67391
1.71283
1.75097
1.78864
1.82746
1.86483
1.91092
1.93772
2.02661
1.43335
1.55599
1.6283
1.69308
1.74634
1.7918
1.83218
1.86988
1.90586
1.9408
1.97543
2.01011
2.04621
2.08164
2.1253
2.15296
2.23643
1.75905
1.81687
1.87484
1.93252
1.9782
2.01607
2.04968
2.0814
2.11202
2.14224
2.17275
2.20391
2.23681
2.26996
2.31029
2.33823
2.41495
1.9521
2.05229
2.10659
2.15284
2.18832
2.21736
2.2433
2.26826
2.293
2.31813
2.34423
2.37163
2.40116
2.43172
2.46831
2.49623
2.56526
2.24032
2.27728
2.31625
2.35171
2.37676
2.3963
2.41402
2.43183
2.45037
2.4702
2.49172
2.51521
2.5413
2.56905
2.60206
2.62992
2.68942
2.41724
2.48215
2.5094
2.5302
2.54339
2.55329
2.56299
2.57386
2.58636
2.60084
2.61768
2.63709
2.65951
2.68405
2.71358
2.74043
2.78915
2.66011
2.66759
2.67804
2.68536
2.6871
2.68847
2.69087
2.69501
2.70198
2.71146
2.72378
2.73926
2.75808
2.77936
2.80532
2.82891
2.86719
2.81498
2.83147
2.82572
2.81853
2.81022
2.80287
2.79805
2.79664
2.79824
2.80256
2.81083
2.82279
2.83834
2.8568
2.87926
2.89846
2.92766
2.99928
2.97544
2.95407
2.93455
2.91621
2.90035
2.88824
2.88058
2.87738
2.87816
2.88215
2.89085
2.90307
2.91821
2.93616
2.95109
2.97429
3.12958
3.10133
3.06676
3.03645
3.0093
2.98617
2.96778
2.95468
2.94678
2.94378
2.94472
2.94912
2.95737
2.96811
2.98007
2.99036
3.00913
3.261
3.20985
3.16325
3.124
3.08972
3.06102
3.03775
3.02031
3.00836
3.00134
2.99852
2.99913
3.00218
3.00821
3.01538
3.02269
3.03575
3.36082
3.30213
3.24385
3.19558
3.15426
3.1199
3.0914
3.06911
3.05257
3.04115
3.03424
3.03128
3.03146
3.03348
3.03802
3.04542
3.05648
2.794
3.00466
3.23761
3.41308
3.58864
3.73206
3.84587
3.95087
4.00945
4.07117
4.09732
4.12918
4.1326
4.1427
4.13299
4.1333
4.1154
4.10972
4.08241
4.06776
4.03886
4.02035
3.99093
3.97219
3.94913
3.9311
3.9128
3.89588
3.88026
3.86342
3.84757
3.82973
3.80957
3.78867
3.75985
3.7321
3.68979
3.64932
3.58876
3.52801
3.44742
2.78782
2.97271
3.15787
3.32458
3.47812
3.61106
3.72141
3.81582
3.88401
3.94075
3.97606
4.00447
4.01829
4.02745
4.02802
4.02669
4.02096
4.01141
3.99502
3.97792
3.95819
3.93784
3.91568
3.89485
3.87524
3.85703
3.83985
3.82345
3.80734
3.79117
3.77437
3.75624
3.7359
3.71277
3.68543
3.65377
3.61526
3.57085
3.5163
3.45497
3.3788
2.77014
2.93205
3.08904
3.2375
3.37593
3.49754
3.60431
3.69233
3.76438
3.82066
3.86266
3.892
3.91202
3.92429
3.93046
3.93179
3.92967
3.92455
3.9137
3.89999
3.88401
3.86613
3.84692
3.82766
3.80984
3.79272
3.77624
3.76042
3.74485
3.72878
3.7115
3.69255
3.67112
3.64657
3.61797
3.58463
3.54537
3.49972
3.44579
3.38508
3.31144
2.73893
2.88051
3.01835
3.15322
3.27891
3.39305
3.49416
3.58066
3.65306
3.71146
3.75757
3.79201
3.81566
3.83191
3.84203
3.84706
3.84758
3.84519
3.84021
3.83067
3.81788
3.80248
3.78568
3.76851
3.75226
3.73628
3.72053
3.70498
3.68929
3.67303
3.65573
3.63659
3.61456
3.58904
3.55942
3.52508
3.48518
3.4393
3.38588
3.32689
3.25529
2.7147
2.83807
2.95706
3.07783
3.19337
3.30044
3.39677
3.48132
3.5536
3.61375
3.66245
3.70066
3.72944
3.74993
3.76292
3.77112
3.77467
3.77466
3.77245
3.76834
3.75913
3.74604
3.73143
3.71647
3.70181
3.68697
3.67196
3.65678
3.64109
3.62444
3.60635
3.58631
3.56387
3.53811
3.50797
3.47289
3.43245
3.38654
3.33365
3.27653
3.20682
2.69612
2.80457
2.90944
3.0154
3.11961
3.21955
3.31127
3.39337
3.46507
3.52622
3.57708
3.61829
3.65074
3.67537
3.69297
3.70436
3.71029
3.71289
3.7127
3.71099
3.70675
3.69634
3.68359
3.67072
3.65761
3.64382
3.62947
3.61457
3.5988
3.58175
3.56299
3.54205
3.51845
3.49158
3.4608
3.42559
3.38522
3.33965
3.28743
3.23204
3.16501
2.68259
2.77845
2.87151
2.96627
3.05909
3.14994
3.23669
3.31593
3.38657
3.44813
3.50061
3.54434
3.57988
3.60793
3.62922
3.64444
3.65423
3.6593
3.66087
3.66057
3.65909
3.65281
3.64182
3.63068
3.61899
3.60617
3.59238
3.57767
3.56174
3.54424
3.52478
3.50295
3.47834
3.45047
3.41883
3.38285
3.34199
3.29665
3.24566
3.19311
3.12903
2.67303
2.75884
2.8417
2.92698
3.01107
3.09318
3.17263
3.24845
3.31743
3.37886
3.43242
3.47813
3.51629
3.54734
3.57186
3.59047
3.60376
3.61228
3.61667
3.61739
3.61668
3.61472
3.60574
3.59585
3.58533
3.57333
3.55995
3.54528
3.5291
3.51107
3.49089
3.46818
3.44257
3.41365
3.38104
3.34449
3.3038
3.25942
3.21023
3.16062
3.10016
2.66777
2.74432
2.8182
2.89508
2.97164
3.04713
3.12017
3.19021
3.25692
3.31767
3.37179
3.41901
3.45939
3.49314
3.52065
3.54236
3.55879
3.57044
3.57777
3.58117
3.58135
3.58055
3.57459
3.56586
3.55624
3.54485
3.53164
3.51679
3.50015
3.48147
3.46044
3.43671
3.40996
3.38008
3.3469
3.3103
3.27016
3.22707
3.1802
3.13384
3.07784
2.66745
2.73486
2.80028
2.86934
2.93887
3.0083
3.07635
3.14195
3.20453
3.26384
3.31818
3.36652
3.40873
3.44489
3.47516
3.4998
3.51915
3.53364
3.54369
3.54965
3.55195
3.55124
3.54802
3.54036
3.53147
3.52049
3.50724
3.49197
3.47464
3.45501
3.43281
3.40792
3.38022
3.34962
3.31609
3.27966
3.24045
3.19907
3.15505
3.11225
3.06164
2.67025
2.72924
2.78713
2.84897
2.91202
2.97572
3.039
3.10092
3.16057
3.21735
3.27079
3.32009
3.36384
3.40209
3.43485
3.46222
3.48438
3.5016
3.51419
3.52252
3.52683
3.52707
3.52553
3.51874
3.51028
3.49943
3.48602
3.47021
3.45199
3.43119
3.4078
3.38179
3.35314
3.32191
3.28824
3.25229
3.21433
3.175
3.13428
3.09532
3.05106
2.6756
2.7264
2.77753
2.83276
2.88991
2.94835
3.00711
3.0654
3.12238
3.17729
3.22946
3.27828
3.32347
3.36389
3.39904
3.42907
3.45401
3.47396
3.48908
3.49962
3.50583
3.50768
3.5065
3.50057
3.49208
3.48083
3.46678
3.45004
3.43061
3.40858
3.384
3.3569
3.32742
3.29576
3.26223
3.22719
3.1911
3.15443
3.11765
3.08292
3.04561
2.68178
2.72534
2.77042
2.81953
2.87121
2.92475
2.97935
3.03428
3.0887
3.14186
3.19306
3.24175
3.28743
3.32945
3.36738
3.40034
3.42805
3.4506
3.46812
3.48075
3.4887
3.49205
3.49123
3.48614
3.47757
3.46561
3.45021
3.43176
3.41074
3.38712
3.36114
3.33298
3.30284
3.27104
3.238
3.20431
3.17059
3.13716
3.10478
3.07449
3.04404
2.68697
2.72456
2.76489
2.80911
2.85638
2.90589
2.95692
3.00873
3.06077
3.11237
3.16281
3.21148
3.25777
3.30109
3.34069
3.376
3.40647
3.43141
3.45106
3.46559
3.47504
3.47954
3.4794
3.47497
3.46653
3.45409
3.43776
3.41784
3.3951
3.36971
3.34205
3.31261
3.28173
3.2499
3.21772
3.18566
3.15398
3.1233
3.09462
3.06819
3.04427
2.69012
2.72195
2.75829
2.79846
2.84201
2.88813
2.93606
2.98527
3.03564
3.08618
3.13609
3.18485
3.23172
3.27605
3.31713
3.3543
3.38706
3.41501
3.43722
3.45379
3.46474
3.47024
3.47027
3.46529
3.45573
3.4418
3.42405
3.40293
3.37862
3.35196
3.32312
3.29274
3.2614
3.22964
3.19819
3.16794
3.13847
3.11082
3.08596
3.06358
3.04666
2.69489
2.71832
2.74821
2.7826
2.82118
2.86329
2.90852
2.95642
3.00553
3.05487
3.1043
3.15322
3.20095
3.247
3.29063
3.33123
3.36784
3.39964
3.42579
3.44533
3.45818
3.46459
3.46424
3.45748
3.44538
3.4284
3.40745
3.38361
3.35671
3.32804
3.29806
3.26713
3.23602
3.20504
3.17458
3.14572
3.11994
3.09735
3.07868
3.06372
3.05316
2.70451
2.71938
2.74282
2.77268
2.80772
2.84694
2.88942
2.93437
2.98134
3.03025
3.08011
3.13005
3.17952
3.22761
3.27357
3.31648
3.35547
3.38973
3.41845
3.44068
3.45561
3.46241
3.46196
3.45498
3.44217
3.42399
3.40107
3.37426
3.34516
3.31402
3.28201
3.24986
3.21817
3.18782
3.15966
3.13385
3.11091
3.09131
3.07592
3.06571
3.06464
-0.390514
-0.446618
-0.527152
-0.616458
-0.702739
-0.794718
-0.891065
-0.99472
-1.10514
-1.22032
-1.33751
-1.45491
-1.57778
-1.70768
-1.84703
-1.98721
-2.12107
-0.499319
-0.582739
-0.646483
-0.729311
-0.806386
-0.892514
-0.98455
-1.08229
-1.18618
-1.29398
-1.40426
-1.51697
-1.63324
-1.75038
-1.86923
-1.98772
-2.1005
-0.622285
-0.709334
-0.759704
-0.836711
-0.910762
-0.991233
-1.07887
-1.17057
-1.26734
-1.36738
-1.46916
-1.57326
-1.67741
-1.77936
-1.88121
-1.98647
-2.09133
-0.735666
-0.819631
-0.867358
-0.939391
-1.01171
-1.08692
-1.16962
-1.2557
-1.3454
-1.43769
-1.53087
-1.62558
-1.71729
-1.8055
-1.89244
-1.98403
-2.07244
-0.844245
-0.926827
-0.973981
-1.04096
-1.11114
-1.18172
-1.25923
-1.33982
-1.42201
-1.50561
-1.58927
-1.67323
-1.75171
-1.82701
-1.90071
-1.97788
-2.04985
-0.950165
-1.03085
-1.07861
-1.14048
-1.20802
-1.27443
-1.34649
-1.42098
-1.49459
-1.56868
-1.64274
-1.71456
-1.78121
-1.84491
-1.90627
-1.97108
-2.02745
-1.05532
-1.13434
-1.18193
-1.23852
-1.30289
-1.36511
-1.43063
-1.49713
-1.56106
-1.62566
-1.69022
-1.74997
-1.80578
-1.85821
-1.90807
-1.96413
-2.00997
-1.16077
-1.23668
-1.28342
-1.33407
-1.39442
-1.45166
-1.50852
-1.56468
-1.62031
-1.67658
-1.73023
-1.77946
-1.82446
-1.86492
-1.90613
-1.94997
-1.99046
-1.26615
-1.33741
-1.38193
-1.42576
-1.48049
-1.53008
-1.57634
-1.62478
-1.67378
-1.72055
-1.76321
-1.80157
-1.83399
-1.86575
-1.89745
-1.93192
-1.96404
-1.36874
-1.43236
-1.47366
-1.51046
-1.55749
-1.59787
-1.63622
-1.67971
-1.71971
-1.75488
-1.78458
-1.81014
-1.83445
-1.85804
-1.8841
-1.9131
-1.93878
-1.4671
-1.5202
-1.55539
-1.58507
-1.6231
-1.6581
-1.69117
-1.72272
-1.74978
-1.7715
-1.78976
-1.8071
-1.82598
-1.84633
-1.86771
-1.89085
-1.90874
-1.55822
-1.59985
-1.6278
-1.65253
-1.6795
-1.70432
-1.72507
-1.74213
-1.75617
-1.77008
-1.78379
-1.79813
-1.81432
-1.82955
-1.84431
-1.85945
-1.87256
-1.63356
-1.66022
-1.68001
-1.69519
-1.7083
-1.72018
-1.73067
-1.74211
-1.75273
-1.76231
-1.77313
-1.78426
-1.79383
-1.80239
-1.81077
-1.81909
-1.82616
-1.68231
-1.6927
-1.70136
-1.70582
-1.71223
-1.71992
-1.72721
-1.73272
-1.73851
-1.74537
-1.75095
-1.75632
-1.76099
-1.76516
-1.76921
-1.77314
-1.77332
-1.70187
-1.70325
-1.70575
-1.70567
-1.70543
-1.70553
-1.70572
-1.70772
-1.71007
-1.71115
-1.71158
-1.71234
-1.71329
-1.71432
-1.71571
-1.71753
-1.72135
-1.69093
-1.68564
-1.67831
-1.67564
-1.67103
-1.66804
-1.66643
-1.66144
-1.65752
-1.65414
-1.65139
-1.64925
-1.64727
-1.64547
-1.64425
-1.64352
-1.64549
-1.6419
-1.63378
-1.61835
-1.61121
-1.60463
-1.59714
-1.59005
-1.58312
-1.57708
-1.57221
-1.56891
-1.56632
-1.56392
-1.56213
-1.56137
-1.5613
-1.55985
-1.5309
-1.52448
-1.50927
-1.50213
-1.49236
-1.48289
-1.47548
-1.46923
-1.46463
-1.46194
-1.46053
-1.46029
-1.46257
-1.46762
-1.47327
-1.47879
-1.4891
-1.34968
-1.35244
-1.34069
-1.33577
-1.33068
-1.32568
-1.32319
-1.32237
-1.32222
-1.32351
-1.32734
-1.33295
-1.33768
-1.34186
-1.34773
-1.35491
-1.36684
-1.11605
-1.12408
-1.12026
-1.12307
-1.12567
-1.12894
-1.13368
-1.14027
-1.14787
-1.15566
-1.16311
-1.17082
-1.18042
-1.19109
-1.20167
-1.20908
-1.21209
-0.818357
-0.844492
-0.851958
-0.868384
-0.88256
-0.896477
-0.910741
-0.924574
-0.939384
-0.956287
-0.974143
-0.993143
-1.01367
-1.03596
-1.06033
-1.08605
-1.12026
-0.479563
-0.527067
-0.543215
-0.575336
-0.601925
-0.63172
-0.660692
-0.688864
-0.716663
-0.744431
-0.772567
-0.801212
-0.830559
-0.860929
-0.89283
-0.92749
-0.97302
-0.124164
-0.195378
-0.218778
-0.264432
-0.303026
-0.344444
-0.386586
-0.429935
-0.473485
-0.515729
-0.556954
-0.597486
-0.637908
-0.678281
-0.716981
-0.749801
-0.774414
0.227741
0.137599
0.104917
0.0487999
0.000902949
-0.050399
-0.102107
-0.15576
-0.211022
-0.267837
-0.325274
-0.380992
-0.43595
-0.491256
-0.547441
-0.605225
-0.67441
0.568188
0.46468
0.422398
0.358344
0.301201
0.241282
0.180631
0.118104
0.0536664
-0.0128951
-0.0815562
-0.1524
-0.221622
-0.288548
-0.355069
-0.428509
-0.523278
0.892874
0.779977
0.72789
0.658377
0.593138
0.525525
0.457199
0.386891
0.314377
0.23933
0.16161
0.0807784
-0.00269887
-0.0835237
-0.161407
-0.235226
-0.293106
1.18497
1.07176
1.01309
0.938271
0.86845
0.795855
0.722278
0.646343
0.567728
0.486006
0.401013
0.312266
0.218899
0.124129
0.0300108
-0.0653378
-0.170597
1.44049
1.32914
1.26993
1.19398
1.12274
1.04827
0.972327
0.893461
0.811213
0.725038
0.63471
0.539521
0.438965
0.335128
0.233856
0.127823
-0.0178283
1.66423
1.557
1.49908
1.42482
1.35461
1.28084
1.20508
1.1259
1.0427
0.95483
0.861822
0.762196
0.655346
0.542632
0.430135
0.318325
0.224825
1.85891
1.75803
1.70222
1.63147
1.56402
1.4929
1.41944
1.34222
1.26046
1.17353
1.08072
0.979963
0.870767
0.753371
0.626688
0.487953
0.358896
2.02667
1.93372
1.88094
1.81492
1.7515
1.68454
1.61509
1.54171
1.46354
1.37989
1.2897
1.19038
1.08197
0.966694
0.840268
0.699239
0.518058
2.16992
2.0862
2.03703
1.97655
1.91799
1.85624
1.79203
1.72401
1.65122
1.57294
1.48772
1.39267
1.28748
1.17307
1.04375
0.914615
0.81045
2.29098
2.21763
2.1724
2.11785
2.06461
2.00874
1.95066
1.88916
1.8232
1.75199
1.67398
1.58625
1.48786
1.37834
1.24572
1.09753
0.953592
2.39192
2.32959
2.28877
2.24037
2.19286
2.14332
2.09196
2.03778
1.97978
1.9171
1.84811
1.76964
1.68042
1.58236
1.46708
1.31487
1.10333
2.47469
2.42336
2.38795
2.34596
2.30434
2.26124
2.21681
2.17036
2.12097
2.06783
2.00931
1.94212
1.86432
1.77703
1.67498
1.55084
1.4616
2.54159
2.50096
2.47132
2.43568
2.39974
2.3629
2.32523
2.28636
2.24564
2.20243
2.15529
2.10117
2.03775
1.96494
1.87406
1.744
1.62528
2.59499
2.56323
2.53933
2.5106
2.48057
2.4497
2.41829
2.38649
2.35408
2.32083
2.28547
2.24493
2.1971
2.14546
2.08483
1.96497
1.77311
2.63631
2.61219
2.59478
2.57406
2.55085
2.52639
2.50153
2.47686
2.4527
2.42932
2.40571
2.37891
2.34744
2.31494
2.27367
2.19942
2.18453
2.66787
2.65296
2.641
2.62788
2.61271
2.59633
2.57964
2.56329
2.54776
2.53413
2.52174
2.50857
2.49438
2.47971
2.45087
2.40154
2.41146
2.69154
2.68171
2.67356
2.66647
2.6585
2.64974
2.64105
2.63295
2.62587
2.62183
2.6202
2.62037
2.62295
2.62765
2.62979
2.60754
2.53281
-2.30159
-2.37905
-2.43253
-2.4851
-2.45283
-2.42399
-2.35513
-1.52342
-0.262161
1.69611
1.97405
0.945934
-0.0507923
-0.775474
-1.23412
-1.53364
-1.74447
-1.90654
-2.05263
-2.19969
-2.43018
-2.53964
-2.62452
-2.70971
-2.69332
-2.76259
-2.6608
-2.14871
-0.767801
1.24167
1.32519
0.463952
-0.393206
-1.08189
-1.51548
-1.79818
-1.99474
-2.1413
-2.26357
-2.38872
-2.5724
-2.71402
-2.83431
-2.9503
-2.95531
-3.15962
-3.00362
-2.7741
-1.36107
0.43716
0.321858
-0.326145
-0.945489
-1.50726
-1.87598
-2.12152
-2.29143
-2.41607
-2.51054
-2.60368
-2.73794
-2.90971
-3.06782
-3.20742
-3.24758
-3.57374
-3.37497
-3.4771
-2.09379
-0.75996
-1.1553
-1.59398
-1.77753
-2.09631
-2.34403
-2.52147
-2.64384
-2.73124
-2.79223
-2.84576
-2.92551
-3.12778
-3.32557
-3.48116
-3.58464
-3.92981
-3.78822
-4.18734
-2.94717
-2.35834
-3.12438
-3.44192
-2.96168
-2.92781
-2.96505
-3.02487
-3.0726
-3.10695
-3.11889
-3.1319
-3.14004
-3.37419
-3.61012
-3.78001
-3.96573
-4.2287
-4.28365
-4.8659
-3.92881
-4.2499
-5.55246
-5.91416
-4.70766
-4.12791
-3.7878
-3.65988
-3.5984
-3.56214
-3.50387
-3.46533
-3.38673
-3.65219
-3.92455
-4.11566
-4.3713
-4.50489
-4.86175
-5.45474
-5.02536
-6.28772
-8.32862
-8.87141
-7.04739
-5.80159
-4.87707
-4.4643
-4.24891
-4.10725
-3.96135
-3.85467
-3.66819
-3.96761
-4.27477
-4.48397
-4.7691
-4.81126
-5.44257
-5.90681
-6.09854
-8.31186
-11.1053
-11.9448
-9.88509
-7.6743
-6.25785
-5.47585
-5.05511
-4.76566
-4.50067
-4.30439
-3.99161
-4.32866
-4.66616
-4.87913
-5.18468
-5.20092
-5.98701
-6.34323
-7.11238
-10.0996
-13.5482
-14.6812
-12.8462
-9.79799
-7.97506
-6.72455
-6.03114
-5.55318
-5.13136
-4.8361
-4.36684
-4.74576
-5.11278
-5.34819
-5.63353
-5.71245
-6.52911
-6.9125
-8.10682
-11.5003
-15.4203
-16.8302
-15.5388
-12.3188
-9.88061
-8.22284
-7.18153
-6.47152
-5.87704
-5.46226
-4.80362
-5.22766
-5.63391
-5.91489
-6.09503
-6.40329
-7.14251
-7.6678
-9.12177
-12.5016
-16.5778
-18.344
-17.6925
-14.8553
-11.9061
-9.95106
-8.50811
-7.52645
-6.74703
-6.19
-5.31716
-5.79274
-6.26408
-6.57351
-6.69586
-7.3212
-7.97068
-8.65265
-10.1677
-13.2565
-17.1851
-19.1743
-19.106
-16.9988
-14.067
-11.6852
-9.9827
-8.72479
-7.7387
-7.019
-5.93662
-6.48495
-7.05302
-7.33445
-7.65541
-8.43069
-9.11277
-9.86168
-11.2132
-13.8566
-17.3528
-19.4283
-19.6729
-18.435
-16.1266
-13.471
-11.5272
-10.0369
-8.83887
-7.94974
-6.69191
-7.34126
-8.01723
-8.40224
-9.0151
-9.83059
-10.5319
-11.182
-12.1746
-14.179
-16.9016
-18.9071
-19.4736
-18.7137
-17.2459
-15.146
-13.0379
-11.3915
-10.0201
-8.95898
-7.67317
-8.44973
-9.34331
-9.99948
-10.7359
-11.5089
-12.0175
-12.4087
-12.9404
-14.1903
-15.9768
-17.7823
-18.595
-18.1542
-17.1169
-15.7593
-14.2133
-12.656
-11.2413
-10.0425
-9.17265
-10.0054
-11.242
-12.0253
-12.6525
-13.1472
-13.3152
-13.3179
-13.3573
-13.8751
-14.9352
-16.2441
-17.1397
-16.9218
-16.2626
-15.2651
-14.1634
-13.1505
-12.2596
-11.2045
-11.4779
-12.2036
-13.3837
-13.9963
-14.3293
-14.3487
-14.174
-13.8064
-13.4122
-13.3398
-13.7812
-14.53
-15.223
-15.2226
-14.8459
-14.1793
-13.3333
-12.6192
-12.1845
-11.6681
-14.4049
-14.4374
-14.9898
-15.303
-15.1896
-14.888
-14.4103
-13.7622
-13.0852
-12.6383
-12.5593
-12.8085
-13.1909
-13.4062
-13.2885
-12.9016
-12.3669
-11.8033
-11.5595
-11.5039
-16.2551
-15.4314
-15.2239
-15.3988
-15.2604
-14.7479
-14.023
-13.2112
-12.4002
-11.7592
-11.441
-11.3823
-11.5557
-11.8399
-12.0016
-11.9507
-11.7511
-11.4239
-11.1458
-10.9445
-16.9641
-15.7547
-15.0491
-14.7551
-14.3659
-13.8347
-13.1287
-12.285
-11.435
-10.7079
-10.2175
-10.0193
-9.98314
-10.1445
-10.4308
-10.7106
-10.9071
-11.0213
-11.1126
-11.1879
-11.1716
-9.67691
-10.1958
-10.2004
-10.0839
-9.30783
-8.40702
-7.52668
-6.70667
-5.97302
-5.32412
-4.76183
-4.27994
-3.86734
-3.51785
-3.21438
-2.95399
-2.73086
-2.53032
-2.35237
-11.1591
-9.55433
-10.0714
-9.71617
-9.36912
-8.69117
-7.91464
-7.1517
-6.42364
-5.76476
-5.17811
-4.66598
-4.22481
-3.84698
-3.52556
-3.25548
-3.0253
-2.82772
-2.64709
-2.48582
-11.2023
-9.63829
-9.93235
-9.31614
-8.76344
-8.1315
-7.44817
-6.77705
-6.13247
-5.5456
-5.01997
-4.55743
-4.1559
-3.80989
-3.51333
-3.26204
-3.05974
-2.88874
-2.72398
-2.57206
-11.159
-9.92711
-10.0126
-9.01429
-8.27615
-7.62248
-6.98983
-6.38923
-5.81567
-5.29409
-4.82716
-4.41501
-4.055
-3.73979
-3.46412
-3.23845
-3.0563
-2.89417
-2.73835
-2.59797
-11.0257
-10.1594
-10.064
-8.71539
-7.85974
-7.15255
-6.53777
-5.98694
-5.46816
-5.00144
-4.58731
-4.22357
-3.90482
-3.62322
-3.37784
-3.17182
-3.0002
-2.84662
-2.70631
-2.60056
-10.7681
-10.1564
-9.98966
-8.39024
-7.43731
-6.69966
-6.08185
-5.56186
-5.08806
-4.66471
-4.29289
-3.96791
-3.68425
-3.44821
-3.23515
-3.04608
-2.89544
-2.76228
-2.64358
-2.55314
-10.3448
-10.0056
-9.74246
-8.0434
-6.9522
-6.22562
-5.60815
-5.10704
-4.66868
-4.28406
-3.94809
-3.65489
-3.40179
-3.1903
-3.01651
-2.86421
-2.7209
-2.59402
-2.48485
-2.39808
-9.75275
-9.56869
-9.32059
-7.64301
-6.42493
-5.70418
-5.09766
-4.61115
-4.19852
-3.84307
-3.53603
-3.26977
-3.03897
-2.84029
-2.67218
-2.5342
-2.42518
-2.33467
-2.23217
-2.13213
-9.05285
-8.86039
-8.6608
-7.07512
-5.83765
-5.11495
-4.52783
-4.05933
-3.67019
-3.34015
-3.05815
-2.81523
-2.6057
-2.42531
-2.26989
-2.13697
-2.02882
-1.94105
-1.84896
-1.76387
-8.31571
-7.97653
-7.76826
-6.31537
-5.14366
-4.44048
-3.87939
-3.43505
-3.07183
-2.76768
-2.51082
-2.29137
-2.10292
-1.94087
-1.80129
-1.68173
-1.58189
-1.49451
-1.41317
-1.36591
-7.62221