/*--------------------------------*- C++ -*----------------------------------*\
  =========                 |
  \\      /  F ield         | OpenFOAM: The Open Source CFD Toolbox
   \\    /   O peration     | Website:  https://openfoam.org
    \\  /    A nd           | Version:  6
     \\/     M anipulation  |
\*---------------------------------------------------------------------------*/
FoamFile
{
    version     2.0;
    format      ascii;
    class       surfaceScalarField;
    location    "1.16";
    object      phi;
}
// * * * * * * * * * * * * * * * * * * * * * * * * * * * * * * * * * * * * * //

dimensions      [0 3 -1 0 0 0 0];

internalField   nonuniform List<scalar> 
8193
(
0.075434
-0.164504
-0.0889897
0.0623382
-0.162496
0.0502183
-0.160525
0.0392704
-0.159146
0.0294987
-0.158514
0.020926
-0.15853
0.0135076
-0.159189
0.00722336
-0.160342
0.00206799
-0.161775
-0.00197278
-0.163302
-0.00495298
-0.164862
-0.00696766
-0.166528
-0.00812488
-0.168397
-0.00852824
-0.170505
-0.00827487
-0.1728
-0.00746427
-0.175189
-0.00620454
-0.1776
-0.00461407
-0.179998
-0.00281324
-0.182361
-0.000926486
-0.184596
0.000942467
-0.186804
0.00270413
-0.188844
0.0042434
-0.190705
0.0054606
-0.192378
0.00627276
-0.19387
0.00659255
-0.195129
0.0063238
-0.196077
0.00537379
-0.196668
0.00366201
-0.196889
0.0011186
-0.196733
-0.00231988
-0.196169
-0.00670753
-0.195136
-0.0120818
-0.19358
-0.0184614
-0.191495
-0.0258516
-0.188939
-0.0342465
-0.18603
-0.0436483
-0.182933
-0.0539971
-0.179757
-0.0652097
-0.176596
-0.0770601
-0.17328
-0.169378
-0.088861
0.0694538
-0.145101
-0.0811041
0.0584687
-0.141441
0.0485754
-0.138563
0.0398205
-0.13666
0.0321104
-0.135764
0.0253939
-0.135823
0.0195731
-0.136786
0.0145865
-0.138532
0.0104007
-0.140864
0.00699286
-0.143589
0.0043204
-0.146606
0.00230635
-0.149928
0.000860974
-0.153612
-0.000102338
-0.157671
-0.000659037
-0.16203
-0.000880341
-0.166571
-0.000842976
-0.171187
-0.000634227
-0.175796
-0.00034946
-0.180338
-8.28139e-05
-0.184689
0.000104808
-0.18895
0.000159303
-0.192956
-1.46223e-05
-0.19662
-0.000483859
-0.199929
-0.00130108
-0.202873
-0.00252669
-0.205359
-0.00422217
-0.207274
-0.00644219
-0.208547
-0.00923056
-0.209146
-0.0126188
-0.209048
-0.0166208
-0.208212
-0.0212382
-0.206567
-0.0264542
-0.20406
-0.0322438
-0.200678
-0.03858
-0.196476
-0.0454318
-0.191577
-0.0527757
-0.186148
-0.0605413
-0.180361
-0.0686535
-0.174345
-0.076914
-0.16809
-0.1616
-0.0847342
0.0648416
-0.124171
-0.074383
0.0562375
-0.119685
0.0486683
-0.116397
0.0420471
-0.114326
0.0362447
-0.113464
0.031157
-0.113781
0.026686
-0.115225
0.0227565
-0.117685
0.0193231
-0.120979
0.0163585
-0.124912
0.0138274
-0.129353
0.0116735
-0.134269
0.00983078
-0.139684
0.00823349
-0.145581
0.00682594
-0.151869
0.00555854
-0.158409
0.00437877
-0.165061
0.00322584
-0.171708
0.00202916
-0.178251
0.000725406
-0.184544
-0.000709899
-0.190699
-0.00230242
-0.19652
-0.00412567
-0.201846
-0.00624359
-0.206641
-0.00870082
-0.210886
-0.0115195
-0.21448
-0.0147077
-0.217296
-0.0182768
-0.219229
-0.0222363
-0.220222
-0.0265882
-0.220231
-0.0313061
-0.21922
-0.0363528
-0.21711
-0.0416675
-0.213853
-0.0471801
-0.209435
-0.0528218
-0.203906
-0.0585244
-0.197389
-0.0642088
-0.190074
-0.0697804
-0.182168
-0.0751379
-0.173835
-0.0801102
-0.165172
-0.156298
-0.0844604
0.0623889
-0.102544
-0.0695043
0.0561798
-0.0977682
0.0507622
-0.0943782
0.0460223
-0.0923952
0.0418416
-0.0918005
0.0381094
-0.0925637
0.0347253
-0.0946319
0.0316095
-0.0978992
0.0287119
-0.102196
0.0260053
-0.107328
0.0234653
-0.113147
0.0210559
-0.119587
0.0187337
-0.126636
0.0164509
-0.134253
0.014168
-0.142329
0.0118512
-0.150705
0.00946642
-0.159216
0.00697432
-0.167716
0.00432983
-0.176076
0.00150329
-0.18414
-0.00149528
-0.192034
-0.00465881
-0.199534
-0.00806073
-0.206372
-0.0118073
-0.212454
-0.0159349
-0.217803
-0.020401
-0.22237
-0.025147
-0.226018
-0.0301413
-0.228587
-0.0353675
-0.229979
-0.0407976
-0.230138
-0.0463798
-0.22903
-0.0520411
-0.226576
-0.0576828
-0.222741
-0.0631973
-0.217511
-0.0684812
-0.210926
-0.0734349
-0.203113
-0.0779472
-0.194281
-0.0818805
-0.184687
-0.0850689
-0.174551
-0.0873359
-0.164019
-0.153228
-0.0885356
0.062377
-0.0807372
-0.067149
0.0582782
-0.0759921
0.0547143
-0.0727682
0.0515653
-0.071099
0.0487179
-0.0709632
0.0460637
-0.0723232
0.0435057
-0.0751234
0.0409676
-0.0792619
0.0384015
-0.0845793
0.035784
-0.090887
0.0331025
-0.098027
0.0303408
-0.105908
0.0274729
-0.114489
0.024468
-0.123699
0.0212976
-0.133413
0.0179378
-0.143455
0.0143669
-0.153639
0.0105634
-0.1638
0.00651319
-0.173793
0.00222762
-0.183467
-0.00224677
-0.192961
-0.00687668
-0.202017
-0.0117804
-0.21019
-0.0171432
-0.217297
-0.0229718
-0.223515
-0.0291267
-0.228917
-0.035477
-0.23333
-0.0419545
-0.23651
-0.0485248
-0.2383
-0.0551323
-0.238642
-0.0617102
-0.237492
-0.0681545
-0.234793
-0.0743357
-0.230523
-0.0801146
-0.224666
-0.085357
-0.217258
-0.0899348
-0.208422
-0.0937117
-0.198391
-0.0965239
-0.187468
-0.0981739
-0.175937
-0.0984525
-0.163995
-0.151792
-0.0971807
0.0647214
-0.0591221
-0.0674394
0.0624126
-0.0546607
0.0603785
-0.0518215
0.0585035
-0.0506473
0.0566844
-0.0511178
0.0548247
-0.0531883
0.052837
-0.0567977
0.0506532
-0.0618471
0.0482314
-0.068186
0.045555
-0.0756331
0.0426221
-0.084027
0.0394319
-0.093259
0.035973
-0.103258
0.0322254
-0.113928
0.0281665
-0.125121
0.0237766
-0.136647
0.0190405
-0.148306
0.0139549
-0.159926
0.0085459
-0.171375
0.00287666
-0.182519
-0.00296924
-0.1935
-0.00895928
-0.203988
-0.0153128
-0.213266
-0.0222948
-0.221085
-0.0298416
-0.227928
-0.0376974
-0.234037
-0.0456687
-0.239156
-0.0536645
-0.242912
-0.0616315
-0.245091
-0.0694998
-0.24563
-0.077188
-0.244478
-0.0845689
-0.241607
-0.0914893
-0.237008
-0.0977838
-0.230672
-0.103291
-0.22263
-0.107858
-0.213002
-0.111324
-0.202039
-0.113506
-0.190091
-0.114187
-0.177503
-0.113136
-0.164526
-0.151338
-0.110138
0.069313
-0.0380243
-0.0703498
0.0684217
-0.0340428
0.0675583
-0.0317588
0.0666223
-0.0312211
0.0655251
-0.0324094
0.0641848
-0.0352721
0.062527
-0.0397413
0.060494
-0.0457194
0.0580517
-0.0530641
0.0551907
-0.0616034
0.051918
-0.0711756
0.0482431
-0.0816592
0.0441649
-0.0929569
0.039667
-0.104941
0.0347277
-0.117444
0.0293248
-0.130259
0.0234457
-0.143182
0.0171095
-0.156057
0.0103966
-0.168798
0.0034293
-0.181297
-0.0036834
-0.193666
-0.010964
-0.205427
-0.0187503
-0.215529
-0.0273468
-0.223738
-0.0365852
-0.23099
-0.0461104
-0.237692
-0.0556835
-0.243452
-0.0652013
-0.247739
-0.0745937
-0.250285
-0.0837869
-0.251012
-0.0926832
-0.249874
-0.10114
-0.246873
-0.108987
-0.24202
-0.116036
-0.235314
-0.122102
-0.226784
-0.127004
-0.216551
-0.130563
-0.20488
-0.132582
-0.192158
-0.132834
-0.178788
-0.131074
-0.165079
-0.151239
-0.127067
0.0759138
-0.017726
-0.0756972
0.0760404
-0.0143758
0.0759821
-0.0127783
0.0756585
-0.0129857
0.0749956
-0.0149724
0.0739243
-0.0186794
0.0723832
-0.0240331
0.070325
-0.0309367
0.0677239
-0.0392562
0.0645773
-0.0488287
0.0608981
-0.059495
0.0567012
-0.0711221
0.0519906
-0.0835892
0.0467465
-0.0967319
0.0409419
-0.110363
0.0345465
-0.124259
0.0275484
-0.138224
0.0199984
-0.152151
0.0120459
-0.16604
0.00387159
-0.1798
-0.00441123
-0.193464
-0.012946
-0.206279
-0.022185
-0.216872
-0.032383
-0.225187
-0.0432295
-0.232708
-0.0543463
-0.239891
-0.0654675
-0.246211
-0.0764807
-0.250966
-0.0873062
-0.253833
-0.0978661
-0.254716
-0.10805
-0.253583
-0.117704
-0.250468
-0.126646
-0.245398
-0.134671
-0.23839
-0.141568
-0.229481
-0.147129
-0.218793
-0.151155
-0.206597
-0.15344
-0.193307
-0.153759
-0.179374
-0.151869
-0.165162
-0.150918
-0.147529
0.0842081
0.00151663
-0.0831781
0.0849613
0.0041192
0.0853644
0.00493204
0.0853532
0.00390403
0.0848655
0.00106962
0.0838428
-0.00350494
0.0822345
-0.00974236
0.0800031
-0.0175476
0.0771307
-0.0267949
0.0736201
-0.0373309
0.0694874
-0.0489982
0.0647479
-0.0616526
0.0594033
-0.0751494
0.0534279
-0.0892864
0.0467791
-0.103849
0.0394163
-0.118608
0.03133
-0.133386
0.0226139
-0.148169
0.0134932
-0.16308
0.00419566
-0.178018
-0.00520355
-0.192851
-0.0149957
-0.206447
-0.0257235
-0.217167
-0.0374508
-0.225419
-0.0497667
-0.233143
-0.0623587
-0.240682
-0.074945
-0.247459
-0.087403
-0.252595
-0.0996492
-0.25571
-0.111597
-0.256693
-0.123124
-0.255535
-0.134071
-0.252291
-0.144249
-0.247009
-0.15344
-0.239731
-0.161408
-0.230512
-0.167919
-0.21948
-0.172752
-0.206905
-0.175696
-0.193211
-0.176536
-0.178883
-0.175042
-0.164334
-0.149853
-0.170987
0.0938239
0.0194621
-0.0923975
0.094844
0.0212327
0.0954002
0.0211952
0.0954373
0.0193052
0.0949012
0.0156052
0.0937418
0.0101672
0.091917
0.0030704
0.0893968
-0.00559305
0.0861692
-0.0157056
0.0822406
-0.0271232
0.0776268
-0.0396891
0.0723388
-0.0532457
0.06637
-0.0676223
0.059685
-0.08258
0.0522219
-0.0978701
0.0439274
-0.113264
0.0347996
-0.128627
0.0249833
-0.144086
0.0147744
-0.159903
0.00442603
-0.175927
-0.00614234
-0.191681
-0.0173514
-0.205681
-0.0295337
-0.216363
-0.0425401
-0.224603
-0.05614
-0.232407
-0.0700682
-0.240136
-0.0840219
-0.247234
-0.0978605
-0.252641
-0.111496
-0.255909
-0.124833
-0.256917
-0.137734
-0.255682
-0.150038
-0.252272
-0.161554
-0.246757
-0.172055
-0.23921
-0.181288
-0.229712
-0.188995
-0.218405
-0.194931
-0.205557
-0.198883
-0.191584
-0.200648
-0.176983
-0.200022
-0.162207
-0.147585
-0.196799
0.104368
0.0358747
-0.102909
0.105346
0.0367649
0.105794
0.0358474
0.105659
0.0330879
0.104892
0.0285358
0.103448
0.0222661
0.101291
0.0143576
0.0983964
0.00489806
0.0947562
-0.00600281
0.0903771
-0.0182083
0.0852713
-0.0315602
0.0794416
-0.0458849
0.0728687
-0.060983
0.0655044
-0.0765807
0.0572695
-0.0923919
0.0480981
-0.108195
0.0380038
-0.12393
0.027185
-0.1399
0.0159868
-0.156508
0.00464455
-0.173484
-0.00712787
-0.18982
-0.0198738
-0.203766
-0.0334119
-0.21447
-0.0475581
-0.222797
-0.0622611
-0.230607
-0.0773773
-0.238337
-0.0925974
-0.245581
-0.107744
-0.251131
-0.122721
-0.254441
-0.137424
-0.255383
-0.151704
-0.254003
-0.165395
-0.250377
-0.178306
-0.24459
-0.190212
-0.236748
-0.200849
-0.226969
-0.209941
-0.215416
-0.217226
-0.202356
-0.222482
-0.188185
-0.225521
-0.173393
-0.226166
-0.158454
-0.143733
-0.224243
0.115456
0.0505283
-0.11426
0.116145
0.0505277
0.116277
0.0487396
0.115798
0.0451401
0.114658
0.0397818
0.112817
0.0327393
0.110242
0.0240883
0.106914
0.0139119
0.102827
0.00231296
0.0979841
-0.0105758
0.0923896
-0.0245913
0.0860361
-0.0395424
0.078889
-0.0551978
0.0708873
-0.0712527
0.06194
-0.0873861
0.0519764
-0.103392
0.041032
-0.119312
0.0293574
-0.135658
0.0172789
-0.152902
0.00497747
-0.170624
-0.00805809
-0.187114
-0.0223942
-0.200558
-0.0372113
-0.211479
-0.052378
-0.220041
-0.0680427
-0.227813
-0.0842032
-0.235366
-0.100574
-0.242563
-0.116948
-0.248101
-0.133207
-0.25133
-0.14923
-0.252111
-0.164864
-0.250506
-0.179937
-0.246603
-0.194262
-0.240493
-0.207614
-0.232316
-0.219734
-0.222225
-0.230339
-0.210418
-0.239156
-0.19716
-0.245953
-0.182829
-0.250548
-0.167889
-0.252793
-0.152815
-0.137997
-0.25255
0.126734
0.0632154
-0.126022
0.126951
0.0623558
0.126613
0.0597477
0.125661
0.0553749
0.124045
0.0492881
0.121726
0.0415569
0.118678
0.0322519
0.114883
0.0214521
0.110335
0.00925698
0.105031
-0.00420052
0.0989635
-0.018749
0.092115
-0.03418
0.0844348
-0.0502273
0.0758521
-0.0665616
0.0662736
-0.0828356
0.0556366
-0.0988706
0.0440134
-0.114838
0.0316922
-0.131462
0.0188744
-0.149123
0.00561892
-0.167252
-0.00878892
-0.183358
-0.0246958
-0.195986
-0.0407624
-0.207336
-0.0568585
-0.216351
-0.0734076
-0.224034
-0.0904719
-0.231303
-0.107864
-0.238256
-0.125381
-0.243592
-0.142844
-0.24662
-0.160117
-0.247145
-0.177056
-0.245227
-0.193475
-0.240981
-0.209191
-0.234491
-0.223983
-0.225932
-0.237606
-0.215482
-0.249785
-0.203377
-0.260244
-0.189897
-0.268746
-0.175398
-0.275108
-0.160316
-0.279199
-0.145107
-0.130169
-0.280914
0.137923
0.0737651
-0.137848
0.137536
0.0721234
0.136619
0.0687866
0.135102
0.0637422
0.132938
0.0570318
0.13009
0.0487167
0.126537
0.0388607
0.122262
0.0275426
0.117256
0.0148622
0.111506
0.000957879
0.104993
-0.0139869
0.097684
-0.0297467
0.0895194
-0.0460246
0.0804276
-0.0624767
0.0703268
-0.0787425
0.0591698
-0.0946749
0.0471037
-0.110636
0.0343817
-0.127453
0.0209571
-0.145201
0.00670869
-0.16323
-0.00915408
-0.178375
-0.0266043
-0.18999
-0.0439133
-0.201967
-0.0609029
-0.211689
-0.0782778
-0.219263
-0.0961184
-0.226218
-0.114403
-0.232741
-0.132966
-0.237661
-0.151539
-0.240373
-0.16997
-0.240556
-0.188132
-0.238229
-0.205827
-0.233572
-0.222878
-0.22664
-0.239064
-0.21765
-0.254156
-0.206789
-0.267897
-0.194331
-0.280024
-0.180571
-0.290303
-0.165858
-0.298549
-0.150602
-0.304638
-0.135229
-0.120138
-0.308481
0.148795
0.0820776
-0.14947
0.147715
0.0797637
0.146141
0.0758224
0.144001
0.0702335
0.141243
0.0630271
0.13784
0.0542455
0.13377
0.0439545
0.12902
0.0322288
0.123569
0.0191843
0.117399
0.00495673
0.110471
-0.0102407
0.102749
-0.0261858
0.0941496
-0.0425305
0.0846377
-0.0589746
0.0741486
-0.0751271
0.0626696
-0.09089
0.0504517
-0.106886
0.0375517
-0.123744
0.0235818
-0.141092
0.00824551
-0.158366
-0.00907002
-0.172076
-0.0280007
-0.182548
-0.0465929
-0.195255
-0.0644739
-0.205988
-0.0826039
-0.213508
-0.101115
-0.220164
-0.120174
-0.226089
-0.139632
-0.23042
-0.15923
-0.232645
-0.178676
-0.232462
-0.197971
-0.22959
-0.216814
-0.224498
-0.23512
-0.217021
-0.252598
-0.207579
-0.269088
-0.196232
-0.284308
-0.183381
-0.298048
-0.169263
-0.310062
-0.154284
-0.320183
-0.138795
-0.328287
-0.12321
-0.107918
-0.334295
0.159244
0.0881717
-0.160785
0.15739
0.0852969
0.155091
0.0808998
0.152299
0.0748821
0.148918
0.0673343
0.144969
0.058187
0.140375
0.0476114
0.135182
0.0355664
0.129291
0.0223151
0.122756
0.00785075
0.115435
-0.00742028
0.107401
-0.0234803
0.0983985
-0.0396559
0.088596
-0.0560644
0.0777876
-0.0719395
0.0662165
-0.0876294
0.0541093
-0.103737
0.0412013
-0.120399
0.0266968
-0.136705
0.0101315
-0.152421
-0.00849441
-0.164515
-0.0289558
-0.173529
-0.0488446
-0.187111
-0.0675592
-0.199238
-0.0863849
-0.206771
-0.105463
-0.213191
-0.125212
-0.218343
-0.145335
-0.222064
-0.165906
-0.223458
-0.186136
-0.223074
-0.206495
-0.219363
-0.226254
-0.213983
-0.245743
-0.205705
-0.2643
-0.195937
-0.282112
-0.183897
-0.298614
-0.170741
-0.313862
-0.1561
-0.327439
-0.140872
-0.339332
-0.125026
-0.349294
-0.10924
-0.0936564
-0.357355
0.169163
-0.171722
0.166578
0.163368
0.159995
0.155875
0.151483
0.146304
0.140767
0.134413
0.127609
0.119903
0.111643
0.102319
0.092346
0.081415
0.0698761
0.0579359
0.0450698
0.0302449
0.0125072
-0.00788175
-0.0296942
-0.0506821
-0.0702442
-0.0895961
-0.109194
-0.129512
-0.150195
-0.171507
-0.192381
-0.213604
-0.234086
-0.254579
-0.273982
-0.292947
-0.31046
-0.327055
-0.341876
-0.355349
-0.366811
-0.376678
0.0438556
-0.348577
0.0261198
-0.331749
0.0113234
-0.311657
-0.000215596
-0.289158
-0.00836365
-0.265074
-0.0131633
-0.240196
-0.0148376
-0.215205
-0.013776
-0.190749
-0.0105247
-0.167444
-0.00576481
-0.145881
-0.000273151
-0.126607
0.00511946
-0.110102
0.00954666
-0.0967679
0.012141
-0.0869379
0.0120245
-0.080851
0.00850575
-0.078464
-0.0783761
0.0301416
-0.320885
0.0136134
-0.306193
-0.000211894
-0.288776
-0.0110383
-0.269269
-0.0187545
-0.248319
-0.0234106
-0.226563
-0.0251792
-0.204566
-0.0243594
-0.182855
-0.0213779
-0.161925
-0.0167832
-0.142246
-0.0112247
-0.124267
-0.00542357
-0.108396
-0.000141199
-0.0949939
0.00382958
-0.0843577
0.00567889
-0.0767048
0.00468111
-0.0720697
-0.0689331
0.01763
-0.29358
0.00223563
-0.280969
-0.0106556
-0.265971
-0.0208029
-0.249141
-0.0281039
-0.230995
-0.0325897
-0.212042
-0.0343962
-0.19275
-0.0337619
-0.173546
-0.0310222
-0.154834
-0.0266097
-0.13699
-0.0210491
-0.120371
-0.014941
-0.105313
-0.0089406
-0.0921201
-0.00374577
-0.081045
-5.0677e-05
-0.0723062
0.00137259
-0.0658557
-0.0604169
0.00637989
-0.267275
-0.00788975
-0.256398
-0.0198863
-0.243536
-0.0293813
-0.229085
-0.0362715
-0.21344
-0.0405671
-0.197003
-0.0423727
-0.18015
-0.0418744
-0.163233
-0.0393364
-0.14658
-0.0350991
-0.130496
-0.0295791
-0.115263
-0.0232617
-0.10115
-0.0166961
-0.0883964
-0.010478
-0.0772096
-0.00521374
-0.0677953
-0.00158439
-0.0600282
-0.0528993
-0.00345892
-0.241943
-0.0166691
-0.232711
-0.0278024
-0.221744
-0.0366611
-0.209395
-0.0431407
-0.195971
-0.0472309
-0.181783
-0.0490044
-0.167129
-0.0486021
-0.152295
-0.046231
-0.137549
-0.0421584
-0.123135
-0.0367109
-0.109282
-0.0302723
-0.0962002
-0.0232883
-0.0840702
-0.0162487
-0.0730547
-0.00967417
-0.063328
-0.00414132
-0.054708
-0.0464104
-0.0118953
-0.218033
-0.0240661
-0.21015
-0.0343632
-0.200836
-0.0425979
-0.190334
-0.0486654
-0.178872
-0.0525367
-0.166687
-0.054254
-0.154011
-0.053919
-0.141074
-0.0516895
-0.128088
-0.0477734
-0.115252
-0.042424
-0.10275
-0.0359413
-0.0907484
-0.0286763
-0.0793782
-0.0210169
-0.0687658
-0.0133939
-0.059043
-0.00628222
-0.0499829
-0.0409576
-0.0189074
-0.1955
-0.0300871
-0.188881
-0.0395676
-0.181014
-0.0471863
-0.172126
-0.0528369
-0.162389
-0.0564762
-0.151982
-0.0581177
-0.141081
-0.0578305
-0.129863
-0.0557272
-0.118499
-0.0519659
-0.107147
-0.0467406
-0.0959549
-0.040282
-0.0850554
-0.0328592
-0.0745417
-0.0247697
-0.0645133
-0.016357
-0.0550568
-0.00800802
-0.0459021
-0.0365309
-0.0245658
-0.174649
-0.0347782
-0.169054
-0.043462
-0.162442
-0.0504705
-0.154956
-0.0556982
-0.14673
-0.0590904
-0.137892
-0.0606392
-0.128575
-0.0603814
-0.118914
-0.0583946
-0.109041
-0.0547915
-0.0990788
-0.0497168
-0.0891473
-0.0433449
-0.0793506
-0.0358775
-0.069756
-0.0275353
-0.0604452
-0.0185822
-0.0514628
-0.00932413
-0.042497
-0.0330971
-0.0289387
-0.1554
-0.0382245
-0.150757
-0.0461318
-0.145236
-0.0525311
-0.138969
-0.057329
-0.132056
-0.0604593
-0.124599
-0.0618972
-0.116691
-0.0616527
-0.108434
-0.0597727
-0.0999255
-0.0563329
-0.0912607
-0.0514344
-0.0825355
-0.0452064
-0.0738273
-0.0377962
-0.0651868
-0.0293642
-0.0566842
-0.0201016
-0.0483338
-0.0102379
-0.0397868
-0.0305956
-0.0321543
-0.137952
-0.0405302
-0.134058
-0.0476835
-0.129468
-0.0534836
-0.124259
-0.0578393
-0.118493
-0.0606923
-0.112242
-0.0620013
-0.105583
-0.0617555
-0.0985866
-0.059974
-0.0913233
-0.0567009
-0.0838651
-0.0520047
-0.0762842
-0.0459725
-0.068641
-0.0387083
-0.0609703
-0.0303294
-0.0533303
-0.0209652
-0.045724
-0.0107677
-0.0377813
-0.0289441
-0.0343312
-0.122177
-0.0418274
-0.118978
-0.0482355
-0.115186
-0.0534457
-0.110881
-0.0573645
-0.106111
-0.0599218
-0.100924
-0.0610774
-0.0953684
-0.0608129
-0.089495
-0.0591234
-0.0833605
-0.056023
-0.0770197
-0.0515505
-0.070521
-0.0457631
-0.0639075
-0.0387311
-0.0572022
-0.0305356
-0.0504531
-0.0212544
-0.0436679
-0.0109776
-0.036465
-0.0280822
-0.0356506
-0.108182
-0.0422702
-0.105527
-0.0479364
-0.102409
-0.0525464
-0.0988769
-0.0560159
-0.0949609
-0.058276
-0.0906953
-0.0592723
-0.0861133
-0.0589684
-0.0812499
-0.0573504
-0.0761396
-0.0544221
-0.0708202
-0.0501977
-0.0653309
-0.0447052
-0.0597016
-0.0379857
-0.0539434
-0.0300854
-0.0480998
-0.0210465
-0.0421835
-0.0109278
-0.0357972
-0.0279674
-0.036225
-0.0957984
-0.0420112
-0.0936507
-0.0469475
-0.0911183
-0.0509523
-0.0882516
-0.0539522
-0.0850716
-0.0558829
-0.0816044
-0.0566916
-0.0778726
-0.0563382
-0.0738988
-0.0547939
-0.0697068
-0.0520397
-0.0653256
-0.0480695
-0.060782
-0.0428984
-0.0560854
-0.036553
-0.0512363
-0.02905
-0.0462888
-0.0204029
-0.0412596
-0.0106365
-0.0357406
-0.028535
-0.0362571
-0.0850731
-0.0412054
-0.0833194
-0.0454181
-0.0812806
-0.048817
-0.0789844
-0.0513348
-0.0764409
-0.0529129
-0.0736681
-0.0535015
-0.0706801
-0.0530596
-0.0674913
-0.0515548
-0.0641176
-0.048964
-0.0605788
-0.0452712
-0.0568956
-0.0404616
-0.0530765
-0.0345353
-0.049108
-0.0275071
-0.0450298
-0.0193924
-0.0408589
-0.010144
-0.0362506
-0.0297231
-0.0358097
-0.075816
-0.0399671
-0.0744372
-0.043474
-0.0728339
-0.04627
-0.0710337
-0.0482987
-0.0690435
-0.0495092
-0.0668758
-0.0498556
-0.0645401
-0.0492979
-0.0620455
-0.047802
-0.0594021
-0.0453428
-0.0566215
-0.0419026
-0.053717
-0.0374631
-0.0506988
-0.031999
-0.0475605
-0.0255317
-0.0442959
-0.0180627
-0.0409422
-0.00948717
-0.0372619
-0.0314737
-0.0350807
-0.0680504
-0.038432
-0.066961
-0.0412323
-0.0657248
-0.0434238
-0.0643524
-0.0449564
-0.0628429
-0.0457857
-0.0612036
-0.0458713
-0.0594406
-0.0451765
-0.0575592
-0.0436694
-0.0555652
-0.0413248
-0.0534641
-0.0381238
-0.0512632
-0.0340458
-0.0489746
-0.0290672
-0.0465957
-0.0231844
-0.0441004
-0.0164148
-0.0415058
-0.00866359
-0.0386867
-0.0336984
-0.0340663
-0.0615793
-0.0366603
-0.0607799
-0.0387728
-0.0598766
-0.0403637
-0.0588826
-0.0413947
-0.0577957
-0.0418307
-0.0566203
-0.0416389
-0.0553605
-0.0407888
-0.0540196
-0.0392532
-0.0526005
-0.0370083
-0.0511055
-0.0340347
-0.0495378
-0.0303158
-0.0479073
-0.0258286
-0.0462182
-0.0205598
-0.0444348
-0.0145225
-0.0425483
-0.00767141
-0.0404925
-0.0362841
-0.0329515
-0.0564267
-0.0347638
-0.0558573
-0.03618
-0.0552401
-0.0371639
-0.0545773
-0.0376842
-0.0538622
-0.0377132
-0.0530954
-0.0372264
-0.0522787
-0.0362006
-0.051414
-0.0346149
-0.0505025
-0.0324502
-0.0495447
-0.0296907
-0.0485411
-0.0263244
-0.0474977
-0.0223398
-0.0464189
-0.0177194
-0.0452751
-0.0124632
-0.0440402
-0.00656542
-0.0426542
-0.0391543
-0.0316396
-0.0523966
-0.0327262
-0.0520809
-0.0334705
-0.0517386
-0.0338564
-0.0513789
-0.0338657
-0.050998
-0.0334813
-0.0505954
-0.0326877
-0.0501718
-0.0314707
-0.0497278
-0.0298173
-0.0492639
-0.0277159
-0.0487794
-0.0251565
-0.0482732
-0.022136
-0.0477449
-0.0186572
-0.0471931
-0.0147032
-0.0466078
-0.0102694
-0.045951
-0.00538547
-0.0451286
-0.0422589
-0.0302882
-0.049537
-0.0306234
-0.0494283
-0.0306912
-0.049332
-0.0304793
-0.0492466
-0.0299777
-0.0491666
-0.0291785
-0.0490895
-0.0280757
-0.0490141
-0.0266645
-0.0489407
-0.0249404
-0.048869
-0.0228997
-0.0487978
-0.0205403
-0.0487246
-0.0178643
-0.0486449
-0.0148769
-0.0485539
-0.0115808
-0.0484445
-0.00797034
-0.0482867
-0.00413493
-0.0478914
-0.0455407
-0.0286862
-0.0476568
-0.0283274
-0.047804
-0.0277422
-0.0479627
-0.0269415
-0.0481414
-0.0259309
-0.0483401
-0.0247153
-0.0485574
-0.0233
-0.0487916
-0.0216915
-0.0490419
-0.019896
-0.0493085
-0.0179191
-0.0495906
-0.0157661
-0.0498859
-0.0134433
-0.0501887
-0.0109587
-0.0504924
-0.00833212
-0.0507777
-0.00555395
-0.0510436
-0.00278743
-0.0509279
-0.0489078
-0.0269711
-0.046876
-0.0258796
-0.0472199
-0.02464
-0.0476099
-0.0232594
-0.0480365
-0.0217503
-0.0484946
-0.0201277
-0.0489803
-0.0184085
-0.04949
-0.016611
-0.0500212
-0.0147535
-0.0505742
-0.0128519
-0.0511498
-0.0109195
-0.0517484
-0.00897067
-0.0523625
-0.00701532
-0.0529893
-0.00508217
-0.0535901
-0.00314605
-0.0542169
-0.00141367
-0.0542748
-0.0523319
-0.0248666
-0.0469591
-0.0231243
-0.047579
-0.0212711
-0.0482227
-0.0193402
-0.0488971
-0.0173593
-0.0496027
-0.0153552
-0.0503362
-0.0133561
-0.0510926
-0.0113912
-0.0518674
-0.00949114
-0.0526594
-0.00768698
-0.053468
-0.006006
-0.0542965
-0.00446919
-0.0551428
-0.00308428
-0.0560161
-0.00186801
-0.0568677
-0.000774837
-0.0578105
-4.20671e-05
-0.0579651
-0.0558051
-0.0224793
-0.0481413
-0.0200187
-0.048945
-0.017543
-0.0498118
-0.015073
-0.0507191
-0.01264
-0.0516568
-0.0102786
-0.0526176
-0.00802422
-0.0535946
-0.00591556
-0.0545796
-0.00399488
-0.0555665
-0.00230172
-0.0565561
-0.000874417
-0.0575515
0.000247941
-0.0585483
0.00103927
-0.0595669
0.00148051
-0.0605635
0.00163525
-0.0617317
0.00135323
-0.0619761
-0.0592837
-0.0194791
-0.0501212
-0.0163822
-0.0512425
-0.0133067
-0.0523675
-0.0103082
-0.0535109
-0.00743206
-0.0546719
-0.00472156
-0.0558444
-0.00221906
-0.0570208
3.18792e-05
-0.0581903
0.00199004
-0.059347
0.00360538
-0.0604812
0.00481553
-0.0615813
0.00554478
-0.062627
0.00572114
-0.0636398
0.00529479
-0.0645954
0.0043156
-0.065784
0.002904
-0.0661775
-0.0625794
-0.0159903
-0.053288
-0.0121581
-0.0545855
-0.00845496
-0.0559401
-0.00491311
-0.0573163
-0.00157834
-0.0586983
0.00150146
-0.0600759
0.00427956
-0.0614407
0.00671319
-0.0627832
0.00875436
-0.0640897
0.0103365
-0.0653287
0.0113692
-0.0664615
0.0117267
-0.0674291
0.0112722
-0.0682383
0.00990192
-0.0688935
0.00761883
-0.0697882
0.00470915
-0.070173
-0.065388
-0.0117073
-0.0572247
-0.00722224
-0.0589134
-0.00289249
-0.0605582
0.00120924
-0.0621886
0.00502797
-0.0638039
0.00850905
-0.0653915
0.0116012
-0.0669428
0.0142443
-0.0684359
0.0163704
-0.0698453
0.0178839
-0.0711079
0.0186519
-0.0721429
0.0185125
-0.0728576
0.0172954
-0.0732454
0.0149022
-0.0733777
0.0112945
-0.0737024
0.00651978
-0.0735509
-0.0676324
-0.00679697
-0.0624667
-0.00155906
-0.0643521
0.00341338
-0.0662732
0.0080795
-0.0681754
0.0123827
-0.0700386
0.0162544
-0.0718338
0.019619
-0.0735409
0.0223853
-0.0751172
0.0244252
-0.0764951
0.0255972
-0.0775917
0.0257471
-0.0783083
0.0247254
-0.0785504
0.0224263
-0.0783484
0.0188688
-0.0778926
0.0140693
-0.0776214
0.00779631
-0.0766119
-0.0697486
-0.0010291
-0.0684424
0.00484713
-0.0708151
0.0104224
-0.073083
0.0156062
-0.0752763
0.0203158
-0.0773769
0.0244484
-0.0793302
0.0278642
-0.0810722
0.0304126
-0.0825428
0.0319271
-0.0836512
0.0322293
-0.0842953
0.0311699
-0.0843973
0.0287447
-0.0840004
0.0250868
-0.0832643
0.0204399
-0.082482
0.0148995
-0.081936
0.0080709
-0.0802056
-0.0726086
0.00534878
-0.0757826
0.0119199
-0.0783862
0.0180364
-0.0809641
0.0236184
-0.0834189
0.028524
-0.0856626
0.0325865
-0.0876074
0.0356184
-0.0891601
0.0374094
-0.0902287
0.0377302
-0.0906939
0.0364549
-0.0905478
0.0336674
-0.0899125
0.0296614
-0.0890317
0.0248514
-0.0881761
0.0195884
-0.0875665
0.0139278
-0.0871805
0.00742935
-0.0850935
-0.0769631
0.0125326
-0.0837474
0.0196022
-0.0868926
0.0261055
-0.0897982
0.031851
-0.0924143
0.0366229
-0.0946185
0.0401728
-0.0962791
0.0422281
-0.0972677
0.0425698
-0.097534
0.0411213
-0.0970897
0.0380489
-0.0961575
0.0337822
-0.0951116
0.0288399
-0.094273
0.0236544
-0.0938156
0.018327
-0.0936187
0.0126786
-0.0933698
0.00662643
-0.0912325
-0.0827687
0.0201605
-0.093018
0.0277329
-0.096357
0.0344419
-0.0994356
0.0400503
-0.102004
0.0442544
-0.10386
0.0467342
-0.10484
0.0472911
-0.104924
0.0459312
-0.104251
0.0429162
-0.103074
0.0387935
-0.101886
0.0342419
-0.101181
0.0295343
-0.100859
0.0245529
-0.100692
0.0190464
-0.100415
0.0129311
-0.0998738
0.00647059
-0.0975705
-0.0891323
0.0284363
-0.102687
0.0362002
-0.106478
0.0428215
-0.109607
0.0479069
-0.111838
0.0510909
-0.112978
0.052169
-0.113006
0.0512305
-0.112176
0.0486683
-0.110915
0.0451348
-0.109715
0.041341
-0.109114
0.0373232
-0.108912
0.0328124
-0.108692
0.0276668
-0.10834
0.0216765
-0.107511
0.0146451
-0.106055
0.00703462
-0.103129
-0.0950468
0.0368427
-0.113456
0.0447379
-0.117196
0.0509873
-0.120046
0.0552001
-0.121596
0.0571384
-0.121783
0.0569351
-0.120935
0.0551049
-0.119663
0.0523549
-0.118564
0.0492578
-0.117976
0.0459704
-0.118001
0.0422141
-0.117985
0.0377504
-0.117537
0.0321625
-0.116352
0.0252282
-0.11427
0.0170243
-0.111434
0.00813616
-0.107504
-0.0996481
0.0455717
-0.12422
0.0531898
-0.128089
0.058756
-0.130445
0.061917
-0.131118
0.0627492
-0.130444
0.0618372
-0.12923
0.0599678
-0.128263
0.0576248
-0.127807
0.0551794
-0.128065
0.0523242
-0.128437
0.0484406
-0.127941
0.0431484
-0.126407
0.0363188
-0.123771
0.0281141
-0.120157
0.0188084
-0.115818
0.00900082
-0.110742
-0.102811
0.0539876
-0.135714
0.0612839
-0.139089
0.0660407
-0.140674
0.0682387
-0.140502
0.0684367
-0.139451
0.0675076
-0.138605
0.0660128
-0.138403
0.0644155
-0.138983
0.0623946
-0.139731
0.0589563
-0.139353
0.0537888
-0.137528
0.0469212
-0.134415
0.0386641
-0.130221
0.0294179
-0.125159
0.019503
-0.119405
0.00933446
-0.113053
-0.104674
0.0622728
-0.146694
0.068917
-0.149826
0.0728579
-0.150708
0.0744271
-0.150082
0.0745411
-0.149364
0.0739424
-0.149417
0.0731538
-0.150422
0.0718197
-0.151597
0.068786
-0.1515
0.063682
-0.149593
0.0567538
-0.146154
0.0484503
-0.141534
0.0391876
-0.135905
0.029329
-0.129431
0.0192005
-0.122265
0.00913137
-0.114526
-0.105362
0.0697936
-0.157943
0.0759023
-0.16036
0.0792592
-0.160747
0.080639
-0.160285
0.0809791
-0.160492
0.0809808
-0.16194
0.0803029
-0.163716
0.077722
-0.164114
0.0727951
-0.162436
0.0658901
-0.158929
0.0575552
-0.154034
0.0482146
-0.147973
0.038273
-0.140903
0.0280916
-0.132963
0.018009
-0.124307
0.00838816
-0.115115
-0.104992
0.0767215
-0.168275
0.0822495
-0.170577
0.0852735
-0.171
0.0867219
-0.171346
0.0876089
-0.173147
0.0876798
-0.175635
0.0857127
-0.176873
0.0811901
-0.175805
0.0744245
-0.172528
0.0660623
-0.167596
0.0566172
-0.161307
0.0465059
-0.153785
0.0361021
-0.145164
0.0257887
-0.135621
0.0159748
-0.125383
0.00711601
-0.114733
-0.103674
0.0826505
-0.178547
0.0878758
-0.180668
0.090857
-0.181698
0.09277
-0.183628
0.0937256
-0.186831
0.0926407
-0.189264
0.0888538
-0.189337
0.0824458
-0.186682
0.0741762
-0.182033
0.0646501
-0.175765
0.054303
-0.168003
0.0435419
-0.158858
0.0328026
-0.148525
0.0225423
-0.137254
0.0132395
-0.12536
0.00543569
-0.113271
-0.101411
-0.351158
-0.127471
0.362991
-0.337883
-0.130608
-0.322844
-0.133244
-0.306538
-0.135311
-0.288969
-0.136766
-0.270443
-0.137549
-0.251127
-0.137624
-0.231247
-0.136959
-0.211001
-0.135545
-0.190578
-0.133363
-0.170151
-0.130408
-0.149884
-0.126673
-0.129908
-0.122154
-0.110353
-0.116848
-0.0913176
-0.110759
-0.0728763
-0.103894
-0.0551169
-0.0962691
-0.0380437
-0.0879151
-0.0217504
-0.0788628
-0.00617266
-0.069166
0.00857958
-0.0588926
0.022629
-0.0481102
0.0358474
-0.0369488
0.048403
-0.0254768
0.0601421
-0.0138682
0.0712551
-0.00221406
0.0815792
0.00926542
0.0913009
0.0204795
0.100273
0.0311822
0.108657
0.0412437
0.116389
0.0504494
0.12359
0.058628
0.130316
0.0656458
0.136665
0.0713405
0.142777
0.0756307
0.148726
0.0784033
0.154669
0.0796878
0.160543
0.0794251
0.166577
0.0777426
0.172446
0.0746181
0.0703345
-0.3628
-0.145721
0.374849
-0.348971
-0.148446
-0.33352
-0.150571
-0.316634
-0.152031
-0.298516
-0.152798
-0.279382
-0.15282
-0.259452
-0.152078
-0.238934
-0.150561
-0.218038
-0.148269
-0.196956
-0.145201
-0.175868
-0.141363
-0.15494
-0.136759
-0.134315
-0.131394
-0.11412
-0.125276
-0.0944611
-0.118415
-0.0754231
-0.110826
-0.0570716
-0.102532
-0.0394584
-0.0935636
-0.0226153
-0.0839605
-0.00656249
-0.0737767
0.00868807
-0.0630787
0.0231498
-0.051951
0.036816
-0.0404966
0.0497228
-0.0288208
0.0618681
-0.0170546
0.0733026
-0.00533801
0.0840132
0.00617551
0.0940562
0.0173288
0.103408