/*--------------------------------*- C++ -*----------------------------------*\
  =========                 |
  \\      /  F ield         | OpenFOAM: The Open Source CFD Toolbox
   \\    /   O peration     | Website:  https://openfoam.org
    \\  /    A nd           | Version:  6
     \\/     M anipulation  |
\*---------------------------------------------------------------------------*/
FoamFile
{
    version     2.0;
    format      ascii;
    class       volVectorField;
    location    "1.16";
    object      U;
}
// * * * * * * * * * * * * * * * * * * * * * * * * * * * * * * * * * * * * * //

dimensions      [0 1 -1 0 0 0 0];

internalField   nonuniform List<vector> 
4214
(
(9.76967 -0.173283 0)
(9.8941 -0.0704311 -2.19254e-19)
(9.9143 0.019061 5.41152e-20)
(9.91131 0.0944453 1.70964e-19)
(9.92586 0.162306 9.92374e-20)
(9.96516 0.224235 -1.08294e-20)
(10.025 0.279138 -1.03609e-19)
(10.0804 0.326382 -3.85647e-20)
(10.1153 0.367476 3.94256e-20)
(10.126 0.403471 0)
(10.1167 0.434171 1.46628e-21)
(10.0949 0.458369 3.04102e-21)
(10.0656 0.471613 -4.0837e-21)
(10.0312 0.471594 0)
(9.9901 0.456395 1.51605e-20)
(9.96083 0.428534 -1.53566e-20)
(9.99748 0.395484 2.50343e-21)
(10.137 0.374206 3.14411e-21)
(10.2678 0.348761 0)
(10.1429 0.24949 -1.07774e-21)
(9.97787 0.0442849 0)
(10.0906 -0.15135 1.09552e-21)
(10.1577 -0.257522 0)
(9.98919 -0.309869 -3.02466e-21)
(9.86058 -0.35928 -2.57971e-21)
(9.84724 -0.409631 -1.61885e-20)
(9.89481 -0.452246 1.59775e-20)
(9.9465 -0.475201 0)
(9.98808 -0.480268 -3.9208e-21)
(10.0261 -0.469667 4.8095e-21)
(10.0612 -0.4462 -1.59038e-21)
(10.0885 -0.41498 0)
(10.0958 -0.378565 3.92715e-20)
(10.0728 -0.338287 -3.84097e-20)
(10.0212 -0.292396 -1.04357e-19)
(9.96067 -0.238137 -1.10889e-20)
(9.92086 -0.17534 1.20436e-19)
(9.90678 -0.10519 1.47998e-19)
(9.91098 -0.0267426 5.35697e-20)
(9.89203 0.0659116 -1.88471e-19)
(9.7686 0.171367 0)
(10.0494 -0.0442109 0)
(10.0417 0.0248225 1.56258e-20)
(10.0266 0.101937 -4.49288e-20)
(10.0151 0.16627 -2.36286e-19)
(10.0301 0.227316 2.76128e-19)
(10.0716 0.28609 0)
(10.1202 0.338792 0)
(10.1561 0.383551 6.63223e-20)
(10.1705 0.421278 -6.78312e-20)
(10.1634 0.453024 -3.75628e-20)
(10.1406 0.479003 3.68498e-20)
(10.105 0.497878 1.67402e-21)
(10.0615 0.50587 4.63875e-22)
(10.0103 0.501238 0)
(9.95547 0.482156 0)
(9.92717 0.452451 0)
(9.98015 0.424281 -3.7052e-20)
(10.1281 0.405612 -2.17195e-20)
(10.1997 0.374048 1.8214e-20)
(9.97218 0.258555 2.55654e-20)
(9.75566 0.0291895 1.2179e-20)
(9.92362 -0.178633 7.16725e-21)
(10.0759 -0.297469 1.67195e-20)
(9.94994 -0.352103 9.3704e-21)
(9.81856 -0.401409 -3.00484e-20)
(9.79013 -0.45152 0)
(9.84514 -0.494395 0)
(9.91654 -0.519791 0)
(9.97771 -0.526783 -2.71071e-22)
(10.0311 -0.518908 -2.59913e-21)
(10.0792 -0.498816 4.37197e-20)
(10.1194 -0.471721 -4.12317e-20)
(10.1436 -0.439105 -7.09199e-20)
(10.1431 -0.401734 6.93341e-20)
(10.1142 -0.357977 0)
(10.0678 -0.305499 0)
(10.0274 -0.245355 1.84417e-19)
(10.0141 -0.181404 -2.13012e-19)
(10.0275 -0.113458 4.49395e-20)
(10.0436 -0.0326001 -1.55669e-20)
(10.0521 0.0400103 8.28396e-19)
(10.0929 -0.0137188 -1.13881e-18)
(10.0683 0.0588048 -4.37369e-19)
(10.0614 0.137503 4.95019e-19)
(10.0621 0.205336 0)
(10.0823 0.266972 3.07837e-19)
(10.1196 0.324669 -4.39566e-20)
(10.1582 0.375947 -3.16525e-19)
(10.1833 0.419278 0)
(10.1888 0.455238 -5.91731e-20)
(10.1749 0.484964 9.11756e-20)
(10.1445 0.508958 -2.72233e-20)
(10.103 0.525172 2.66034e-20)
(10.0524 0.530045 0)
(9.99475 0.522779 0)
(9.93688 0.501861 5.35255e-20)
(9.91461 0.472524 -7.31801e-20)
(9.97488 0.44861 3.33402e-20)
(10.1191 0.423548 1.33867e-20)
(10.1476 0.385019 2.40968e-20)
(9.86693 0.256827 -8.35894e-21)
(9.63069 0.0156884 0)
(9.82798 -0.196426 8.40997e-21)
(10.0248 -0.323766 -2.2583e-20)
(9.92713 -0.384505 -1.25805e-20)
(9.79602 -0.435091 -3.11479e-20)
(9.76479 -0.48392 -6.76812e-20)
(9.81893 -0.525999 8.37418e-20)
(9.89772 -0.552217 0)
(9.96736 -0.560341 0)
(10.0281 -0.554177 3.72321e-20)
(10.0823 -0.535525 -4.93555e-20)
(10.1281 -0.509798 9.70036e-20)
(10.1589 -0.478711 -1.266e-19)
(10.1673 -0.442329 0)
(10.1503 -0.399321 -3.23251e-19)
(10.1155 -0.347745 -4.20367e-20)
(10.0807 -0.288301 3.85387e-19)
(10.0631 -0.223509 1.20105e-19)
(10.0644 -0.151843 4.0346e-19)
(10.0725 -0.0691669 -4.3735e-19)
(10.0979 0.00711555 1.13654e-18)
(10.1498 0.0523084 -1.29515e-18)
(10.1337 0.111658 1.65612e-19)
(10.1304 0.189926 0)
(10.1349 0.2579 5.21395e-19)
(10.1553 0.318224 -5.35067e-19)
(10.1862 0.374606 -4.22804e-19)
(10.2128 0.424889 4.33339e-19)
(10.2242 0.466928 -2.5218e-19)
(10.2166 0.501149 1.27614e-19)
(10.1911 0.529068 -7.68269e-20)
(10.1509 0.550583 7.84827e-20)
(10.1007 0.563674 2.397e-20)
(10.0405 0.565482 -2.44245e-20)
(9.9738 0.555183 0)
(9.91206 0.531959 1.26756e-19)
(9.89755 0.503447 -1.09064e-19)
(9.96639 0.482218 -3.41057e-20)
(10.1043 0.45196 -5.05113e-20)
(10.0777 0.401589 2.26257e-20)
(9.72016 0.252749 4.25845e-20)
(9.46222 -0.00354827 0)
(9.69872 -0.224639 7.56198e-20)
(9.95302 -0.362043 6.62593e-20)
(9.8951 -0.430047 -1.53487e-19)
(9.76723 -0.481945 3.18669e-20)
(9.73035 -0.528455 -9.97788e-20)
(9.78328 -0.570518 8.10694e-20)
(9.87221 -0.59819 0)
(9.95367 -0.607679 -1.03886e-20)
(10.025 -0.603356 1.01942e-20)
(10.0877 -0.586677 1.05009e-19)
(10.1422 -0.562225 -8.80398e-20)
(10.1832 -0.532285 1.98515e-19)
(10.2048 -0.496739 -6.0439e-20)
(10.203 -0.453859 4.43678e-19)
(10.182 -0.40226 -4.32875e-19)
(10.1551 -0.343446 -5.39846e-19)
(10.1385 -0.279603 4.03668e-19)
(10.1369 -0.207527 0)
(10.1417 -0.1251 -1.65344e-19)
(10.1585 -0.0618931 1.29175e-18)
(10.2146 0.0961734 -3.84969e-19)
(10.1969 0.164628 -9.1197e-19)
(10.1956 0.244321 9.69738e-19)
(10.2043 0.312289 -6.66914e-19)
(10.224 0.372389 6.84546e-19)
(10.2463 0.428415 7.06521e-19)
(10.2597 0.477729 -5.59258e-19)
(10.2574 0.51859 2.96276e-19)
(10.2375 0.551761 -2.01399e-19)
(10.2014 0.578352 0)
(10.1524 0.59775 0)
(10.0938 0.608304 0)
(10.0248 0.607463 -3.64062e-20)
(9.95096 0.594423 1.63283e-19)
(9.88876 0.569824 4.31389e-20)
(9.88545 0.542107 -1.48978e-19)
(9.95908 0.52023 -5.75118e-20)
(10.0673 0.487287 -7.9173e-20)
(10.0034 0.419349 1.85288e-19)
(9.56023 0.241261 3.93489e-20)
(9.2909 -0.0281345 -4.21781e-20)
(9.5652 -0.25926 2.81073e-21)
(9.87265 -0.407172 1.35946e-19)
(9.85952 -0.48297 3.31859e-20)
(9.73998 -0.538382 -1.69885e-19)
(9.70033 -0.582329 -1.36049e-19)
(9.74897 -0.62313 1.06166e-19)
(9.84521 -0.652083 1.40555e-19)
(9.93724 -0.66327 -6.66425e-20)
(10.0191 -0.660416 0)
(10.0899 -0.645318 0)
(10.152 -0.621751 0)
(10.2024 -0.591948 -2.13109e-19)
(10.2359 -0.556338 1.04138e-19)
(10.2488 -0.513246 -5.73842e-19)
(10.2424 -0.461171 3.94886e-19)
(10.2252 -0.401625 6.92107e-19)
(10.2103 -0.33734 -6.74271e-19)
(10.2053 -0.264901 5.57417e-19)
(10.2085 -0.181001 -5.75521e-19)
(10.2271 -0.108874 3.832e-19)
(10.2831 0.158774 2.16079e-19)
(10.2686 0.225519 -1.40803e-18)
(10.2717 0.305085 4.72962e-19)
(10.2822 0.372868 2.33794e-19)
(10.2965 0.432571 0)
(10.3071 0.488033 3.07632e-20)
(10.3061 0.536543 0)
(10.2897 0.57674 -9.22375e-20)
(10.2573 0.609315 4.20467e-19)
(10.2105 0.634957 -2.86565e-19)
(10.1522 0.652635 1.08257e-19)
(10.0845 0.661248 -6.2815e-20)
(10.0062 0.658264 3.99347e-20)
(9.92639 0.642991 0)
(9.86589 0.617671 0)
(9.87315 0.589826 0)
(9.9483 0.564784 -6.25434e-20)
(10.0286 0.526306 -9.22949e-20)
(9.89885 0.437942 -1.50301e-19)
(9.37656 0.229392 0)
(9.10313 -0.0560298 0)
(9.4157 -0.300319 0)
(9.77905 -0.462552 1.0581e-19)
(9.81275 -0.546634 8.89331e-20)
(9.71228 -0.606156 5.88079e-20)
(9.67113 -0.648818 0)
(9.71402 -0.687186 1.59091e-20)
(9.81569 -0.716664 0)
(9.9182 -0.729587 5.42486e-20)
(10.0114 -0.727833 -3.56578e-20)
(10.0916 -0.713669 1.30999e-19)
(10.1621 -0.690541 -3.28649e-19)
(10.222 -0.660234 4.5652e-19)
(10.2675 -0.623676 -4.08996e-19)
(10.2953 -0.579579 0)
(10.3045 -0.526684 -3.22611e-20)
(10.3 -0.466331 0)
(10.2908 -0.401375 -2.36364e-19)
(10.2845 -0.328367 1.39333e-18)
(10.2837 -0.244377 -4.0628e-19)
(10.2995 -0.174287 -7.24833e-19)
(10.3593 0.220128 0)
(10.3489 0.291306 2.38502e-20)
(10.3553 0.371998 1.36625e-18)
(10.3635 0.43926 -2.38497e-19)
(10.3683 0.498406 8.91114e-19)
(10.3648 0.553199 -5.45044e-19)
(10.3492 0.6011 -8.21284e-19)
(10.3192 0.641055 3.05204e-19)
(10.275 0.673546 -1.55099e-19)
(10.2179 0.698889 0)
(10.1501 0.715655 -2.25084e-20)
(10.0727 0.72305 -6.36702e-20)
(9.98527 0.71847 8.84043e-20)
(9.90108 0.701764 -7.51262e-20)
(9.84445 0.675924 3.49514e-19)
(9.85986 0.647455 -9.01791e-20)
(9.93157 0.617736 0)
(9.97273 0.566635 -2.4219e-19)
(9.75863 0.456503 3.33735e-19)
(9.17124 0.220846 0)
(8.89907 -0.0850603 0)
(9.24966 -0.344976 0)
(9.68183 -0.528711 1.11191e-19)
(9.75851 -0.624688 -3.09063e-19)
(9.68331 -0.687224 0)
(9.64451 -0.729396 -3.58357e-19)
(9.68093 -0.764694 3.31363e-20)
(9.78501 -0.793355 6.36322e-20)
(9.89706 -0.807241 5.18167e-20)
(10.002 -0.806073 5.77271e-21)
(10.093 -0.791965 -5.53668e-20)
(10.1726 -0.768295 0)
(10.2417 -0.736509 -4.59808e-19)
(10.2983 -0.69814 2.78198e-19)
(10.3401 -0.652528 -8.50367e-19)
(10.3653 -0.598503 3.35323e-19)
(10.3755 -0.537247 9.12378e-19)
(10.3759 -0.471667 2.41104e-19)
(10.3716 -0.398095 8.61967e-19)
(10.3675 -0.31223 -2.19358e-18)
(10.3792 -0.237852 5.19725e-19)
(10.4468 0.292044 -7.08221e-19)
(10.441 0.365249 -1.30368e-18)
(10.4468 0.445613 -6.85543e-19)
(10.4468 0.511419 0)
(10.4382 0.569538 0)
(10.4201 0.623619 2.36391e-19)
(10.3905 0.671403 0)
(10.3479 0.711872 1.54429e-19)
(10.2925 0.745193 -4.75707e-19)
(10.2253 0.77124 -3.30669e-20)
(10.1472 0.787927 1.39973e-19)
(10.0594 0.794947 -1.1172e-19)
(9.96298 0.789476 1.1401e-19)
(9.8761 0.772331 4.6645e-19)
(9.82426 0.746136 -3.46796e-20)
(9.84362 0.716774 -4.48966e-19)
(9.90438 0.68042 -1.99047e-21)
(9.89358 0.613205 7.91219e-20)
(9.60089 0.478376 2.76845e-19)
(8.94184 0.212752 4.63703e-20)
(8.67476 -0.116549 8.14525e-20)
(9.06187 -0.395667 -1.26458e-19)
(9.5628 -0.605401 2.65767e-19)
(9.69471 -0.717215 -4.16041e-20)
(9.65171 -0.783767 -4.34677e-19)
(9.62021 -0.825626 -1.25043e-19)
(9.65197 -0.858006 1.82474e-19)
(9.75495 -0.884394 -3.72413e-20)
(9.87485 -0.897449 6.67504e-20)
(9.99188 -0.896176 -6.53992e-20)
(10.0953 -0.881245 1.80399e-19)
(10.1853 -0.855674 -3.01532e-19)
(10.2635 -0.821123 -2.17604e-19)
(10.3304 -0.779809 5.47878e-19)
(10.3849 -0.731838 0)
(10.4251 -0.676386 -2.43831e-19)
(10.4511 -0.614453 6.10837e-19)
(10.465 -0.548646 0)
(10.4684 -0.475366 6.91382e-19)
(10.4643 -0.388674 6.07763e-19)
(10.4703 -0.311725 7.06848e-19)
(10.5475 0.369967 -9.87194e-20)
(10.5415 0.444465 -1.57862e-18)
(10.5407 0.523344 1.42912e-18)
(10.528 0.58735 0)
(10.5049 0.644558 0)
(10.4732 0.698677 0)
(10.4311 0.747484 0)
(10.377 0.789653 0)
(10.3111 0.825111 2.80579e-19)
(10.2338 0.85312 -5.15554e-19)
(10.1446 0.870754 0)
(10.0452 0.878261 0)
(9.9405 0.872722 1.54408e-19)
(9.85284 0.856588 -3.44342e-19)
(9.80548 0.83056 6.72038e-19)
(9.82543 0.800012 -8.09862e-19)
(9.86296 0.756263 -5.30257e-20)
(9.79538 0.669169 -3.34368e-19)
(9.40942 0.502965 0)
(8.68166 0.203125 -2.48908e-19)
(8.42672 -0.151814 -9.78659e-20)
(8.84892 -0.455963 3.42394e-19)
(9.40928 -0.692664 1.85231e-19)
(9.61805 -0.823063 0)
(9.61577 -0.897993 8.99149e-19)
(9.59758 -0.940074 -7.3547e-19)
(9.62744 -0.969147 3.13826e-20)
(9.72786 -0.991646 3.19163e-20)
(9.85314 -1.00162 1.21922e-19)
(9.98301 -0.999195 0)
(10.1 -0.982433 0)
(10.2015 -0.953357 -5.62344e-20)
(10.2891 -0.91453 1.18779e-19)
(10.3656 -0.869006 0)
(10.4309 -0.817466 0)
(10.4841 -0.75971 0)
(10.525 -0.696821 -6.23848e-19)
(10.5541 -0.631147 0)
(10.5701 -0.558948 1.63201e-18)
(10.5724 -0.472575 -6.8045e-19)
(10.5776 -0.392897 9.96975e-20)
(10.656 0.450553 -5.68603e-18)
(10.6437 0.523773 2.61559e-18)
(10.6318 0.600652 8.11036e-19)
(10.6058 0.664069 1.54639e-18)
(10.57 0.721884 -3.01248e-18)
(10.5267 0.77782 7.25865e-19)
(10.4736 0.829478 -6.53364e-19)
(10.4089 0.875101 0)
(10.3328 0.914189 -7.62269e-19)
(10.2451 0.945625 4.20454e-19)
(10.144 0.965834 1.93016e-19)
(10.0323 0.974721 -1.29133e-19)
(9.91954 0.969956 3.45541e-19)
(9.833 0.956717 -1.85002e-19)
(9.78843 0.931563 4.58721e-19)
(9.80337 0.899572 1.21365e-19)
(9.80462 0.846581 -2.6326e-19)
(9.66961 0.734075 7.38742e-19)
(9.18028 0.530937 -2.19377e-19)
(8.38738 0.19478 5.60468e-19)
(8.14961 -0.188882 0)
(8.60762 -0.523757 -1.16279e-19)
(9.23877 -0.792618 -4.04592e-19)
(9.52265 -0.945942 -3.71276e-19)
(9.57321 -1.03294 -7.60675e-19)
(9.57727 -1.07637 1.21488e-19)
(9.60871 -1.10073 3.30706e-19)
(9.70626 -1.11719 -1.42507e-19)
(9.8348 -1.12211 2.22585e-19)
(9.97762 -1.11676 -6.76496e-20)
(10.1085 -1.09608 2.6073e-19)
(10.2226 -1.06218 -1.00127e-20)
(10.3208 -1.0177 3.1703e-19)
(10.4064 -0.966531 0)
(10.481 -0.909868 0)
(10.5448 -0.84827 2.28905e-18)
(10.5981 -0.783206 -3.10829e-18)
(10.6412 -0.716903 1.58725e-18)
(10.6715 -0.645487 -8.20791e-19)
(10.6854 -0.560755 9.68335e-19)
(10.6974 -0.481116 -1.63426e-18)
(10.765 0.522751 -3.41756e-18)
(10.743 0.595809 0)
(10.719 0.672582 -1.05722e-18)
(10.6825 0.738335 0)
(10.6373 0.79989 0)
(10.5844 0.860492 7.53117e-19)
(10.5213 0.917483 6.68512e-19)
(10.4464 0.968767 -6.53441e-19)
(10.3597 1.01327 9.58652e-19)
(10.2604 1.04985 2.05714e-19)
(10.147 1.0744 0)
(10.0241 1.08654 -2.06884e-19)
(9.90332 1.08407 3.27229e-19)
(9.81891 1.07542 -6.22407e-19)
(9.77323 1.05186 4.38168e-19)
(9.77382 1.01828 -1.41992e-18)
(9.72389 0.950907 1.03584e-18)
(9.49309 0.808957 -8.05025e-19)
(8.9077 0.567774 7.39268e-19)
(8.054 0.191194 1.82327e-20)
(7.8374 -0.225814 0)
(8.32724 -0.597244 -1.74665e-20)
(9.03182 -0.906294 1.89828e-19)
(9.40499 -1.08864 -8.61241e-19)
(9.52118 -1.19136 9.42912e-19)
(9.56028 -1.23815 -7.35009e-19)
(9.59834 -1.25618 6.71913e-19)
(9.69419 -1.26419 -5.88012e-20)
(9.8253 -1.26149 -1.57578e-20)
(9.97828 -1.25081 -8.28763e-20)
(10.1223 -1.22332 0)
(10.2504 -1.18317 0)
(10.3608 -1.13184 -1.09939e-18)
(10.4562 -1.07345 7.20599e-19)
(10.5392 -1.00974 -8.24324e-19)
(10.6114 -0.942091 -7.89042e-19)
(10.6738 -0.872443 0)
(10.7275 -0.80304 0)
(10.7696 -0.730024 1.07707e-18)
(10.7964 -0.64607 0)
(10.8204 -0.56708 -9.7134e-19)
(10.8716 0.579133 -5.02762e-18)
(10.8406 0.655604 -2.28477e-18)
(10.8077 0.736172 4.65651e-18)
(10.7647 0.80849 -3.26057e-18)
(10.7125 0.877738 1.04966e-18)
(10.6511 0.946464 1.01402e-18)
(10.5782 1.01171 0)
(10.4929 1.07129 -1.11866e-19)
(10.3947 1.1235 -5.28997e-19)
(10.282 1.16693 -1.09828e-18)
(10.1555 1.19746 7.28547e-20)
(10.0235 1.21641 -1.72838e-19)
(9.89646 1.21884 9.78658e-20)
(9.81345 1.2166 3.75452e-19)
(9.75895 1.19576 6.3809e-20)
(9.73427 1.16033 -3.05422e-19)
(9.61294 1.07289 1.64708e-18)
(9.28333 0.898344 -1.48556e-18)
(8.59235 0.616108 -2.68355e-19)
(7.67652 0.194302 3.29118e-19)
(7.4854 -0.261695 0)
(8.0019 -0.676729 2.80126e-19)
(8.78398 -1.03351 -3.27762e-19)
(9.25672 -1.25194 5.18545e-19)
(9.45449 -1.37538 1.08215e-18)
(9.5454 -1.4288 -1.98957e-18)
(9.59855 -1.43957 8.44674e-19)
(9.69747 -1.43794 -6.15538e-19)
(9.82933 -1.4232 3.589e-19)
(9.98823 -1.40255 -9.96073e-20)
(10.144 -1.36587 7.64775e-19)
(10.2874 -1.31792 1.56601e-19)
(10.4117 -1.25808 1.33479e-18)
(10.5183 -1.19071 -7.37782e-19)
(10.6099 -1.11768 -1.38349e-19)
(10.6893 -1.04117 -1.07335e-18)
(10.7584 -0.963418 3.37097e-18)
(10.819 -0.886903 -2.16204e-18)
(10.8688 -0.807898 3.29696e-20)
(10.9051 -0.720819 -2.31898e-18)
(10.939 -0.639551 5.04028e-18)
(10.9803 0.619138 -1.46825e-18)
(10.9442 0.703689 0)
(10.9069 0.792591 -1.25319e-18)
(10.8599 0.875666 1.19858e-18)
(10.8011 0.956227 1.12515e-18)
(10.7311 1.03649 1.04602e-18)
(10.6481 1.1129 -1.05925e-18)
(10.5517 1.18357 1.57071e-18)
(10.4402 1.24594 -2.39081e-20)
(10.3129 1.29874 4.53117e-19)
(10.1731 1.33773 2.3307e-19)
(10.0333 1.36712 1.402e-19)
(9.90278 1.37805 1.48456e-19)
(9.81836 1.38619 -7.47793e-19)
(9.74257 1.36858 9.3386e-19)
(9.68155 1.33028 -7.0341e-19)
(9.46247 1.21702 5.31766e-20)
(9.02259 1.00715 1.1903e-18)
(8.22448 0.677247 -1.3199e-18)
(7.25119 0.205492 5.75388e-19)
(7.09087 -0.294824 0)
(7.62433 -0.760535 1.35857e-19)
(8.48532 -1.17355 -6.32453e-19)
(9.06939 -1.43683 7.64483e-20)
(9.36369 -1.58663 -4.48392e-19)
(9.52738 -1.652 6.05919e-19)
(9.60951 -1.65576 3.31563e-19)
(9.72115 -1.64313 -8.91417e-20)
(9.85051 -1.61143 -1.12042e-19)
(10.0131 -1.57607 1.52842e-19)
(10.1782 -1.52658 -3.64576e-19)
(10.3362 -1.46808 -5.6991e-19)
(10.4757 -1.39743 -2.53633e-18)
(10.5954 -1.31893 8.74393e-19)
(10.6969 -1.2339 -2.46595e-18)
(10.7838 -1.14536 3.33041e-18)
(10.8585 -1.05532 -1.17363e-18)
(10.9238 -0.96701 0)
(10.9776 -0.876365 1.28023e-18)
(11.019 -0.779906 0)
(11.0573 -0.689425 1.47938e-18)
(11.1024 0.651327 -5.13094e-18)
(11.0646 0.747782 -3.07996e-18)
(11.0252 0.847662 3.16959e-18)
(10.9742 0.944058 0)
(10.9075 1.0382 0)
(10.8287 1.13242 0)
(10.7344 1.22237 -2.41654e-18)
(10.6259 1.3066 1.14765e-18)
(10.4995 1.3818 -1.52591e-18)
(10.3576 1.44715 7.58629e-19)
(10.2062 1.49865 0)
(10.0603 1.5428 7.45349e-20)
(9.92577 1.56713 9.50977e-20)
(9.83549 1.59102 9.75569e-20)
(9.72062 1.57457 1.29684e-18)
(9.59869 1.5324 -1.68166e-18)
(9.25907 1.38638 1.64333e-18)
(8.705 1.13887 -6.21713e-19)
(7.79514 0.752528 0)
(6.76774 0.226552 -5.12165e-19)
(6.64428 -0.322758 2.13912e-19)
(7.1819 -0.845116 2.87825e-19)
(8.1218 -1.32248 0)
(8.83058 -1.64279 -5.54785e-19)
(9.23708 -1.8254 1.3496e-18)
(9.50038 -1.91172 -1.40662e-18)
(9.62934 -1.91037 1.28522e-19)
(9.76821 -1.8857 -3.43485e-19)
(9.89642 -1.83132 1.80851e-19)
(10.0617 -1.77679 -2.82616e-19)
(10.2318 -1.70879 0)
(10.4019 -1.63522 9.14339e-19)
(10.5558 -1.55035 2.64867e-20)
(10.6905 -1.45767 -1.28503e-18)
(10.8031 -1.35775 2.62725e-18)
(10.8996 -1.25391 0)
(10.9795 -1.14765 0)
(11.0493 -1.0434 0)
(11.1053 -0.936229 3.23582e-18)
(11.1497 -0.82497 -3.14438e-18)
(11.1892 -0.718708 5.16644e-18)
(11.2555 0.694841 -2.02405e-18)
(11.2162 0.800049 0)
(11.1715 0.90887 0)
(11.115 1.01753 0)
(11.0388 1.12652 0)
(10.9518 1.23506 2.98672e-18)
(10.844 1.34083 -1.73538e-18)
(10.7229 1.44009 -2.34409e-18)
(10.5807 1.53185 -3.35152e-20)
(10.4264 1.61343 -9.64722e-19)
(10.267 1.68341 -6.69915e-19)
(10.1175 1.74815 -7.78451e-20)
(9.97609 1.79093 1.6502e-20)
(9.87259 1.83518 -3.60478e-19)
(9.6954 1.81675 -6.07963e-19)
(9.49602 1.77202 -1.0729e-18)
(9.00408 1.58341 1.19059e-18)
(8.3249 1.3 -7.04211e-19)
(7.28633 0.844067 4.74456e-19)
(6.19851 0.262586 -1.23548e-19)
(6.11589 -0.343691 2.45975e-19)
(6.64973 -0.93112 -1.20742e-19)
(7.67601 -1.47665 0)
(8.53206 -1.8704 -6.16303e-19)
(9.0672 -2.08965 2.02858e-18)
(9.46403 -2.21022 -8.94051e-19)
(9.66003 -2.20474 4.54463e-19)
(9.84657 -2.17106 2.16478e-19)
(9.98096 -2.08891 -2.61005e-19)
(10.1487 -2.00898 -1.46692e-19)
(10.3185 -1.91586 9.31061e-19)
(10.4955 -1.8195 1.19425e-18)
(10.6604 -1.71615 2.8039e-18)
(10.8108 -1.60394 -1.51144e-20)
(10.9351 -1.48671 -4.77252e-18)
(11.0442 -1.36342 3.22138e-18)
(11.1295 -1.23886 0)
(11.2053 -1.11515 1.99088e-18)
(11.2627 -0.990676 0)
(11.3115 -0.862826 0)
(11.3527 -0.742013 2.04168e-18)
(11.4559 0.763092 4.51392e-18)
(11.413 0.862587 0)
(11.3556 0.981182 0)
(11.2947 1.09471 -6.45348e-18)
(11.206 1.22424 4.2474e-18)
(11.1135 1.34195 0)
(10.9869 1.47027 0)
(10.8561 1.58207 0)
(10.6965 1.6986 4.14569e-18)
(10.5358 1.79746 -3.01038e-19)
(10.3722 1.89554 7.89379e-20)
(10.2213 1.98375 1.39789e-18)
(10.0684 2.05101 -5.54745e-20)
(9.94022 2.1185 -5.78142e-19)
(9.6712 2.09492 9.51761e-19)
(9.38014 2.0549 1.12046e-18)
(8.6921 1.81241 2.53758e-19)
(7.88543 1.51012 -7.66403e-19)
(6.6826 0.965146 -1.02669e-18)
(5.51496 0.334057 5.45906e-19)
(5.47754 -0.358382 0)
(6.0039 -1.03841 5.06769e-19)
(7.13256 -1.64182 -4.97036e-19)
(8.17365 -2.12929 -6.49585e-19)
(8.84688 -2.37614 -7.89233e-19)
(9.42188 -2.54828 8.9235e-19)
(9.70365 -2.53514 -4.5123e-20)
(9.96872 -2.49791 -1.79549e-19)
(10.1197 -2.3869 -5.95645e-19)
(10.2941 -2.27223 1.13531e-18)
(10.4582 -2.15144 -1.87287e-18)
(10.6363 -2.01847 -2.76201e-18)
(10.8041 -1.89565 2.42587e-20)
(10.971 -1.75186 2.03821e-18)
(11.1032 -1.6196 0)
(11.231 -1.46653 0)
(11.3198 -1.32885 4.43905e-18)
(11.4067 -1.17695 -3.92726e-18)
(11.4641 -1.04488 0)
(11.5197 -0.896266 0)
(11.562 -0.774473 -4.5492e-18)
(11.6915 0.860966 -2.50079e-18)
(11.652 0.928955 0)
(11.5723 1.08411 0)
(11.5201 1.17377 -4.56779e-19)
(11.4027 1.34997 0)
(11.3217 1.4505 4.66061e-18)
(11.1566 1.62729 -4.80226e-18)
(11.0392 1.73104 0)
(10.8468 1.89674 -3.68632e-18)
(10.7036 1.99828 0)
(10.5223 2.1469 1.33211e-18)
(10.3824 2.24699 -1.07165e-18)
(10.1875 2.35554 -5.3673e-19)
(10.0321 2.44032 -7.38193e-21)
(9.60989 2.41267 1.6044e-19)
(9.24143 2.38992 -1.81567e-18)
(8.28769 2.08376 4.67905e-19)
(7.39541 1.79939 0)
(5.99329 1.13399 0)
(4.74273 0.4753 -6.16882e-19)
(4.79451 -0.367452 0)
(5.2633 -1.20315 5.77625e-19)
(6.4817 -1.82874 9.63194e-19)
(7.75244 -2.43705 0)
(8.53192 -2.68221 1.37065e-18)
(9.35865 -2.92823 -1.2355e-18)
(9.71937 -2.9011 6.8858e-19)
(10.129 -2.85986 2.39577e-19)
(10.2984 -2.73167 -1.22607e-18)
(10.5107 -2.56039 3.41015e-18)
(10.6557 -2.42767 -1.75653e-18)
(10.8456 -2.22744 0)
(10.9904 -2.10304 2.34221e-18)
(11.1869 -1.89544 -2.09061e-18)
(11.3032 -1.7726 -5.17269e-18)
(11.4685 -1.5568 5.02086e-18)
(11.5451 -1.43817 0)
(11.6593 -1.22471 4.65042e-19)
(11.7066 -1.12216 0)
(11.7761 -0.927423 0)
(11.8092 -0.840603 2.51838e-18)
(11.8628 -0.691801 -2.96302e-18)
(11.6193 -0.665246 0)
(11.4098 -0.650938 0)
(11.2442 -0.644478 -3.34838e-18)
(11.1114 -0.631524 -1.57307e-18)
(10.9922 -0.595524 -2.69708e-18)
(10.8699 -0.533388 -1.43092e-19)
(10.7431 -0.455311 -1.26286e-18)
(10.6239 -0.372809 -1.01217e-18)
(10.5213 -0.297778 1.01028e-18)
(10.4347 -0.226795 0)
(10.356 -0.171128 0)
(10.2837 -0.101017 1.4078e-18)
(10.2172 -0.0756338 -2.14979e-18)
(10.17 0.0294778 -2.07118e-18)
(10.0578 0.0108109 -1.40123e-18)
(9.56247 0.240454 8.45474e-20)
(11.8906 -0.6327 -6.09484e-18)
(11.675 -0.569957 0)
(11.4796 -0.546547 0)
(11.3181 -0.546415 -6.48143e-18)
(11.1858 -0.550793 -2.01449e-18)
(11.0713 -0.540965 -3.58321e-18)
(10.959 -0.50488 1.48553e-18)
(10.843 -0.446159 -1.48179e-18)
(10.7293 -0.373329 1.21334e-18)
(10.6254 -0.301847 -1.20994e-18)
(10.5342 -0.231056 -2.21845e-18)
(10.4534 -0.178568 0)
(10.3785 -0.105634 -1.48789e-18)
(10.3129 -0.086393 1.6008e-18)
(10.2539 0.0332819 1.07112e-18)
(10.1416 -0.0419028 -1.25555e-18)
(9.56074 0.21729 0)
(11.9258 -0.52315 1.30702e-17)
(11.723 -0.47501 2.87287e-18)
(11.5374 -0.448929 0)
(11.3796 -0.448737 4.68223e-18)
(11.2481 -0.462257 0)
(11.1364 -0.470742 3.82012e-18)
(11.0323 -0.456767 -1.74009e-18)
(10.9268 -0.418693 1.73371e-18)
(10.8203 -0.360583 0)
(10.7183 -0.297404 1.32138e-18)
(10.6256 -0.229709 -1.65404e-19)
(10.5436 -0.179865 1.11673e-19)
(10.4683 -0.107828 1.56849e-18)
(10.4035 -0.0931221 -2.61027e-18)
(10.3419 0.0305452 4.30762e-19)
(10.2137 -0.0616048 1.49093e-18)
(9.56175 0.233851 -1.66681e-19)
(11.9402 -0.489334 -3.38538e-18)
(11.7583 -0.410014 -6.42534e-18)
(11.5857 -0.365466 -6.01733e-18)
(11.4332 -0.354696 -5.52906e-18)
(11.3034 -0.368576 2.37929e-18)
(11.1946 -0.388786 -7.05505e-18)
(11.1004 -0.395906 -2.01886e-18)
(11.0088 -0.381052 2.00882e-18)
(10.9131 -0.342056 0)
(10.8156 -0.291231 0)
(10.7228 -0.229216 -4.64512e-18)
(10.6398 -0.18237 2.77037e-18)
(10.5642 -0.111222 -1.32035e-18)
(10.5 -0.0980103 0)
(10.4373 0.024875 0)
(10.2908 -0.0724215 0)
(9.57491 0.242562 -1.7831e-18)
(11.9615 -0.425431 1.52003e-17)
(11.7932 -0.353434 3.41813e-18)
(11.6298 -0.298094 3.06811e-18)
(11.48 -0.272332 5.93347e-18)
(11.3503 -0.276581 0)
(11.2427 -0.297694 1.03256e-17)
(11.1566 -0.318985 0)
(11.079 -0.325121 -4.63148e-18)
(10.997 -0.307947 2.0101e-18)
(10.9083 -0.274545 -7.90646e-18)
(10.8192 -0.223093 5.24737e-18)
(10.7374 -0.182169 3.51975e-18)
(10.6624 -0.112716 0)
(10.5996 -0.101577 6.77383e-19)
(10.5374 0.022729 -6.73349e-19)
(10.3717 -0.0786951 -1.40835e-19)
(9.5952 0.24811 -2.70017e-19)
(11.9705 -0.415471 -8.19869e-18)
(11.8199 -0.325929 0)
(11.6676 -0.253045 -3.49958e-18)
(11.5209 -0.20935 3.47301e-18)
(11.3902 -0.196028 0)
(11.2826 -0.208045 -5.69077e-18)
(11.2013 -0.23285 2.65349e-18)
(11.1358 -0.253364 4.80271e-18)
(11.0691 -0.256413 -2.46786e-18)
(10.9932 -0.243085 2.12186e-18)
(10.9129 -0.207487 2.16549e-18)
(10.8357 -0.176457 -2.78256e-18)
(10.7634 -0.112659 -9.45936e-19)
(10.703 -0.103796 0)
(10.642 0.0191939 0)
(10.4557 -0.0830265 1.76084e-19)
(9.62083 0.249397 2.23877e-18)
(11.9855 -0.387947 4.46718e-18)
(11.8462 -0.307361 4.14936e-18)
(11.7038 -0.227772 -3.84925e-18)
(11.5605 -0.168217 7.4315e-18)
(11.4277 -0.135047 -3.44459e-18)
(11.3177 -0.129987 3.21962e-18)
(11.2365 -0.145954 -3.0162e-18)
(11.1778 -0.170659 3.11676e-18)
(11.1243 -0.187319 5.48261e-18)
(11.0636 -0.192979 -2.65009e-18)
(10.9967 -0.175797 -2.38176e-18)
(10.9287 -0.159521 4.7616e-18)
(10.8639 -0.106085 2.26863e-18)
(10.8079 -0.103006 1.16582e-18)
(10.7496 0.0188941 3.45333e-18)
(10.5413 -0.0865858 1.25407e-18)
(9.64999 0.246715 1.97191e-18)
(11.9899 -0.395107 -9.42797e-18)
(11.8658 -0.311713 4.51701e-18)
(11.7354 -0.224552 -4.20708e-18)
(11.5987 -0.151707 4.15751e-18)
(11.4661 -0.100038 -7.70279e-18)
(11.353 -0.0735057 7.15393e-18)
(11.268 -0.0717392 -3.52581e-18)
(11.2082 -0.0889221 -3.18433e-18)
(11.1611 -0.108479 0)
(11.113 -0.126823 3.02484e-18)
(11.0611 -0.125379 0)
(11.0061 -0.128481 2.01121e-19)
(10.9542 -0.0875765 2.1152e-19)
(10.9066 -0.098611 2.25067e-19)
(10.8528 0.0215192 -1.56869e-18)
(10.6263 -0.0899692 -3.02339e-19)
(9.6815 0.238859 -1.84985e-18)
(11.9974 -0.385401 0)
(11.8846 -0.320934 -7.67064e-20)
(11.7637 -0.239276 4.59263e-18)
(11.6353 -0.159429 -8.78317e-18)
(11.5067 -0.0925953 1.27399e-17)
(11.3914 -0.0461678 -3.95981e-18)
(11.3001 -0.0233321 3.78433e-18)
(11.2326 -0.0227677 -3.57226e-18)
(11.1818 -0.0337947 3.53637e-18)
(11.1385 -0.054783 -3.22194e-18)
(11.097 -0.0616633 0)
(11.0546 -0.0831043 -6.02667e-18)
(11.0173 -0.0539453 -2.76974e-18)
(10.9828 -0.0884062 -2.64555e-18)
(10.9302 0.0257612 6.47061e-19)
(10.7039 -0.0936428 -2.73327e-18)
(9.71475 0.223137 -3.03902e-19)
(11.9941 -0.395428 1.07157e-17)
(11.8947 -0.342401 -1.54296e-17)
(11.7872 -0.268703 4.91222e-18)
(11.6689 -0.189113 4.77703e-18)
(11.5466 -0.113455 -9.10496e-18)
(11.4316 -0.0507625 4.45533e-18)
(11.3335 -0.00813664 4.16305e-18)
(11.2554 0.0119108 -3.96304e-18)
(11.1937 0.0179038 -3.77313e-18)
(11.1445 0.00552851 0)
(11.1027 0.00148546 1.73924e-18)
(11.0663 -0.0289148 1.58076e-18)
(11.0381 -0.00908525 -1.72395e-18)
(11.0182 -0.0660319 -8.09595e-19)
(10.9785 0.0334401 -7.56398e-19)
(10.7611 -0.0918313 -3.34628e-18)
(9.74547 0.202127 3.4963e-19)
(11.989 -0.376732 -5.56025e-18)
(11.9024 -0.355656 -5.40121e-18)
(11.8074 -0.30277 -1.84016e-20)
(11.7009 -0.233327 0)
(11.5856 -0.158909 0)
(11.4712 -0.0872673 -4.69535e-18)
(11.3669 -0.0277241 4.60415e-18)
(11.2774 0.0126564 0)
(11.2025 0.0341984 0)
(11.1403 0.0380918 0)
(11.0877 0.042361 0)
(11.0463 0.0168499 -3.81756e-18)
(11.0147 0.0337004 5.30049e-18)
(11.0099 -0.036249 -2.61676e-18)
(10.9944 0.0467896 8.458e-19)
(10.7867 -0.0856443 3.14219e-18)
(9.76688 0.182279 0)
(11.9772 -0.381607 3.13698e-18)
(11.9026 -0.368029 0)
(11.8234 -0.332607 -2.73858e-18)
(11.7306 -0.280009 2.6974e-18)
(11.6242 -0.216544 -5.22748e-18)
(11.5123 -0.148177 -2.48886e-18)
(11.4033 -0.0820231 -2.41171e-18)
(11.3026 -0.0255864 -2.33722e-18)
(11.2125 0.0168656 -6.19041e-21)
(11.1337 0.0396859 -2.22641e-18)
(11.0652 0.0506136 -4.26421e-18)
(11.0077 0.0407165 4.00219e-18)
(10.9593 0.0559458 -1.99161e-18)
(10.9393 -0.00848869 -1.94335e-18)
(10.9665 0.0579788 -1.87707e-18)
(10.7782 -0.0867342 -1.83259e-18)
(9.77646 0.158193 -1.77868e-18)
(11.9555 -0.33678 6.32353e-18)
(11.9 -0.355203 -5.96601e-18)
(11.8355 -0.344074 2.97861e-18)
(11.7563 -0.312861 2.87692e-18)
(11.6616 -0.269223 4.92184e-20)
(11.5572 -0.215383 3.45571e-20)
(11.4489 -0.15529 5.13994e-18)
(11.3406 -0.096027 3.93642e-20)
(11.236 -0.041461 2.40545e-18)
(11.1376 -0.00164595 4.64153e-18)
(11.0478 0.0335919 -1.52802e-20)
(10.9658 0.0363304 2.17223e-18)
(10.8919 0.05883 -2.11956e-18)
(10.8366 0.0025324 -1.05126e-18)
(10.8382 0.0686994 2.9681e-18)
(10.7473 -0.0914637 1.91379e-18)
(9.77569 0.131719 1.85356e-18)
(11.933 -0.32136 -6.47169e-18)
(11.8889 -0.345164 6.37296e-18)
(11.8405 -0.34213 0)
(11.7758 -0.327015 2.93044e-18)
(11.6956 -0.302589 -2.7462e-18)
(11.6044 -0.267182 0)
(11.5047 -0.222619 -2.60994e-18)
(11.3981 -0.172387 2.59874e-18)
(11.2869 -0.120053 -2.48986e-18)
(11.1741 -0.0738742 2.42451e-18)
(11.0621 -0.0250759 2.34535e-18)
(10.9524 -0.00807235 -2.28673e-18)
(10.8459 0.0400851 2.22055e-18)
(10.754 -0.00926847 3.23758e-18)
(10.7136 0.0760665 -1.05447e-18)
(10.7062 -0.0893862 0)
(9.7605 0.110172 0)
(11.8935 -0.233818 3.4598e-18)
(11.8712 -0.288802 0)
(11.8371 -0.309853 0)
(11.7872 -0.314868 0)
(11.7235 -0.307506 2.96422e-18)
(11.6487 -0.290053 2.80599e-18)
(11.5639 -0.264329 2.76031e-18)
(11.4693 -0.229284 -2.63312e-18)
(11.365 -0.18777 -2.55209e-18)
(11.2519 -0.145025 2.4787e-18)
(11.1305 -0.0935382 1.20413e-18)
(11.0019 -0.0691243 -1.17123e-18)
(10.8635 0.000605472 0)
(10.7356 -0.0408395 -1.11286e-18)
(10.6565 0.0780414 1.08537e-18)
(10.6416 -0.0886116 0)
(9.73114 0.0901095 0)
(11.8606 -0.190243 0)
(11.8418 -0.23168 3.30253e-18)
(11.8193 -0.256754 -1.63746e-18)
(11.785 -0.273879 0)
(11.7395 -0.283448 0)
(11.6834 -0.282366 0)
(11.6171 -0.271471 -2.7314e-18)
(11.5405 -0.252665 2.64151e-18)
(11.4535 -0.226601 1.24227e-18)
(11.355 -0.19334 -1.24252e-18)
(11.242 -0.14949 2.41312e-18)
(11.1139 -0.121817 -1.17257e-18)
(10.9601 -0.0453997 0)
(10.8064 -0.0731468 5.58648e-19)
(10.6673 0.0694993 5.13687e-19)
(10.5657 -0.096506 -2.673e-19)
(9.7046 0.0757519 2.61656e-19)
(11.8094 -0.080179 1.68319e-18)
(11.8054 -0.140455 4.66094e-20)
(11.7902 -0.174928 -1.67298e-18)
(11.7674 -0.201695 1.50915e-18)
(11.7375 -0.222266 -4.93234e-20)
(11.6996 -0.235572 -2.7388e-18)
(11.6531 -0.240268 2.63741e-18)
(11.5977 -0.23711 0)
(11.5331 -0.22564 -2.54575e-18)
(11.4578 -0.205364 -2.73486e-21)
(11.3678 -0.177143 1.17644e-18)
(11.2585 -0.14925 0)
(11.1146 -0.0885947 0)
(10.9496 -0.0939657 0)
(10.7476 0.0439069 -8.20378e-19)
(10.5023 -0.10508 -3.88613e-19)
(9.69235 0.0722551 1.27235e-19)
(11.7664 -0.0200931 -9.50097e-19)
(11.7579 -0.0588889 1.67921e-18)
(11.7474 -0.0871014 -1.59742e-18)