/*--------------------------------*- C++ -*----------------------------------*\
  =========                 |
  \\      /  F ield         | OpenFOAM: The Open Source CFD Toolbox
   \\    /   O peration     | Website:  https://openfoam.org
    \\  /    A nd           | Version:  6
     \\/     M anipulation  |
\*---------------------------------------------------------------------------*/
FoamFile
{
    version     2.0;
    format      ascii;
    class       volVectorField;
    location    "3.14";
    object      U;
}
// * * * * * * * * * * * * * * * * * * * * * * * * * * * * * * * * * * * * * //

dimensions      [0 1 -1 0 0 0 0];

internalField   nonuniform List<vector> 
10000
(
(0.8944 0.4472 0)
(0.8944 0.4472 0)
(0.8944 0.4472 0)
(0.8944 0.4472 0)
(0.8944 0.4472 0)
(0.8944 0.4472 0)
(0.8944 0.4472 0)
(0.8944 0.4472 0)
(0.8944 0.4472 0)
(0.8944 0.4472 0)
(0.8944 0.4472 0)
(0.8944 0.4472 0)
(0.8944 0.4472 0)
(0.8944 0.4472 0)
(0.8944 0.4472 0)
(0.8944 0.4472 0)
(0.8944 0.4472 0)
(0.8944 0.4472 0)
(0.8944 0.4472 0)
(0.8944 0.4472 0)
(0.8944 0.4472 0)
(0.8944 0.4472 0)
(0.8944 0.4472 0)
(0.8944 0.4472 0)
(0.8944 0.4472 0)
(0.8944 0.4472 0)
(0.8944 0.4472 0)
(0.8944 0.4472 0)
(0.8944 0.4472 0)
(0.8944 0.4472 0)
(0.8944 0.4472 0)
(0.8944 0.4472 0)
(0.8944 0.4472 0)
(0.8944 0.4472 0)
(0.8944 0.4472 0)
(0.8944 0.4472 0)
(0.8944 0.4472 0)
(0.8944 0.4472 0)
(0.8944 0.4472 0)
(0.8944 0.4472 0)
(0.8944 0.4472 0)
(0.8944 0.4472 0)
(0.8944 0.4472 0)
(0.8944 0.4472 0)
(0.8944 0.4472 0)
(0.894401 0.4472 0)
(0.894401 0.447199 0)
(0.894402 0.447199 0)
(0.894403 0.447198 0)
(0.894404 0.447196 0)
(0.894405 0.447194 0)
(0.894405 0.447191 0)
(0.894405 0.447188 0)
(0.894405 0.447185 0)
(0.894404 0.447182 0)
(0.894402 0.447181 0)
(0.894399 0.44718 0)
(0.894396 0.447182 0)
(0.894394 0.447185 0)
(0.894391 0.44719 0)
(0.894389 0.447196 0)
(0.894389 0.447203 0)
(0.894389 0.44721 0)
(0.894391 0.447216 0)
(0.894394 0.447221 0)
(0.894397 0.447225 0)
(0.8944 0.447226 0)
(0.894403 0.447225 0)
(0.894405 0.447223 0)
(0.894407 0.447219 0)
(0.894408 0.447214 0)
(0.894407 0.447209 0)
(0.894406 0.447205 0)
(0.894405 0.447201 0)
(0.894403 0.447198 0)
(0.894402 0.447196 0)
(0.8944 0.447195 0)
(0.894399 0.447194 0)
(0.894399 0.447195 0)
(0.894398 0.447195 0)
(0.894398 0.447196 0)
(0.894399 0.447197 0)
(0.894399 0.447198 0)
(0.894399 0.447198 0)
(0.894399 0.447199 0)
(0.894399 0.447199 0)
(0.8944 0.447199 0)
(0.8944 0.4472 0)
(0.8944 0.4472 0)
(0.8944 0.4472 0)
(0.8944 0.4472 0)
(0.8944 0.4472 0)
(0.8944 0.4472 0)
(0.8944 0.4472 0)
(0.8944 0.4472 0)
(0.8944 0.4472 0)
(0.8944 0.4472 0)
(0.8944 0.4472 0)
(0.8944 0.4472 0)
(0.8944 0.4472 0)
(0.8944 0.4472 0)
(0.8944 0.4472 0)
(0.8944 0.4472 0)
(0.8944 0.4472 0)
(0.8944 0.4472 0)
(0.8944 0.4472 0)
(0.8944 0.4472 0)
(0.8944 0.4472 0)
(0.8944 0.4472 0)
(0.8944 0.4472 0)
(0.8944 0.4472 0)
(0.8944 0.4472 0)
(0.8944 0.4472 0)
(0.8944 0.4472 0)
(0.8944 0.4472 0)
(0.8944 0.4472 0)
(0.8944 0.4472 0)
(0.8944 0.4472 0)
(0.8944 0.4472 0)
(0.8944 0.4472 0)
(0.8944 0.4472 0)
(0.8944 0.4472 0)
(0.8944 0.4472 0)
(0.8944 0.4472 0)
(0.8944 0.4472 0)
(0.8944 0.4472 0)
(0.8944 0.4472 0)
(0.8944 0.4472 0)
(0.8944 0.4472 0)
(0.8944 0.4472 0)
(0.8944 0.4472 0)
(0.8944 0.4472 0)
(0.8944 0.4472 0)
(0.8944 0.4472 0)
(0.8944 0.4472 0)
(0.8944 0.4472 0)
(0.8944 0.4472 0)
(0.8944 0.4472 0)
(0.8944 0.4472 0)
(0.8944 0.4472 0)
(0.8944 0.4472 0)
(0.8944 0.4472 0)
(0.8944 0.4472 0)
(0.8944 0.447201 0)
(0.8944 0.447201 0)
(0.894401 0.4472 0)
(0.894402 0.4472 0)
(0.894403 0.447198 0)
(0.894404 0.447197 0)
(0.894405 0.447194 0)
(0.894407 0.447191 0)
(0.894408 0.447187 0)
(0.894408 0.447183 0)
(0.894407 0.447179 0)
(0.894405 0.447176 0)
(0.894403 0.447174 0)
(0.894399 0.447174 0)
(0.894395 0.447175 0)
(0.894391 0.447179 0)
(0.894388 0.447186 0)
(0.894385 0.447194 0)
(0.894384 0.447203 0)
(0.894385 0.447212 0)
(0.894387 0.44722 0)
(0.89439 0.447227 0)
(0.894395 0.447232 0)
(0.894399 0.447234 0)
(0.894403 0.447233 0)
(0.894406 0.44723 0)
(0.894408 0.447226 0)
(0.894409 0.44722 0)
(0.894409 0.447214 0)
(0.894408 0.447208 0)
(0.894407 0.447203 0)
(0.894405 0.447199 0)
(0.894403 0.447196 0)
(0.894401 0.447194 0)
(0.8944 0.447194 0)
(0.894399 0.447194 0)
(0.894398 0.447194 0)
(0.894398 0.447195 0)
(0.894398 0.447196 0)
(0.894398 0.447197 0)
(0.894399 0.447198 0)
(0.894399 0.447198 0)
(0.894399 0.447199 0)
(0.894399 0.447199 0)
(0.8944 0.4472 0)
(0.8944 0.4472 0)
(0.8944 0.4472 0)
(0.8944 0.4472 0)
(0.8944 0.4472 0)
(0.8944 0.4472 0)
(0.8944 0.4472 0)
(0.8944 0.4472 0)
(0.8944 0.4472 0)
(0.8944 0.4472 0)
(0.8944 0.4472 0)
(0.8944 0.4472 0)
(0.8944 0.4472 0)
(0.8944 0.4472 0)
(0.8944 0.4472 0)
(0.8944 0.4472 0)
(0.8944 0.4472 0)
(0.8944 0.4472 0)
(0.8944 0.4472 0)
(0.8944 0.4472 0)
(0.8944 0.4472 0)
(0.8944 0.4472 0)
(0.8944 0.4472 0)
(0.8944 0.4472 0)
(0.8944 0.4472 0)
(0.8944 0.4472 0)
(0.8944 0.4472 0)
(0.8944 0.4472 0)
(0.8944 0.4472 0)
(0.8944 0.4472 0)
(0.8944 0.4472 0)
(0.8944 0.4472 0)
(0.8944 0.4472 0)
(0.8944 0.4472 0)
(0.8944 0.4472 0)
(0.8944 0.4472 0)
(0.8944 0.4472 0)
(0.8944 0.4472 0)
(0.8944 0.4472 0)
(0.8944 0.4472 0)
(0.8944 0.4472 0)
(0.8944 0.4472 0)
(0.8944 0.4472 0)
(0.8944 0.4472 0)
(0.8944 0.4472 0)
(0.8944 0.4472 0)
(0.8944 0.4472 0)
(0.8944 0.4472 0)
(0.8944 0.4472 0)
(0.8944 0.4472 0)
(0.8944 0.4472 0)
(0.8944 0.4472 0)
(0.8944 0.4472 0)
(0.8944 0.4472 0)
(0.8944 0.447201 0)
(0.8944 0.447201 0)
(0.8944 0.447201 0)
(0.894401 0.447201 0)
(0.894402 0.4472 0)
(0.894403 0.4472 0)
(0.894405 0.447198 0)
(0.894406 0.447195 0)
(0.894408 0.447192 0)
(0.89441 0.447188 0)
(0.894411 0.447183 0)
(0.894411 0.447178 0)
(0.89441 0.447173 0)
(0.894408 0.447169 0)
(0.894404 0.447166 0)
(0.894399 0.447165 0)
(0.894394 0.447168 0)
(0.894389 0.447173 0)
(0.894384 0.44718 0)
(0.894381 0.44719 0)
(0.894379 0.447202 0)
(0.89438 0.447213 0)
(0.894382 0.447224 0)
(0.894386 0.447233 0)
(0.894392 0.44724 0)
(0.894397 0.447243 0)
(0.894402 0.447243 0)
(0.894407 0.44724 0)
(0.89441 0.447235 0)
(0.894412 0.447228 0)
(0.894412 0.447221 0)
(0.894411 0.447213 0)
(0.894409 0.447207 0)
(0.894407 0.447201 0)
(0.894404 0.447197 0)
(0.894402 0.447195 0)
(0.8944 0.447193 0)
(0.894399 0.447193 0)
(0.894398 0.447193 0)
(0.894398 0.447194 0)
(0.894398 0.447195 0)
(0.894398 0.447196 0)
(0.894398 0.447197 0)
(0.894399 0.447198 0)
(0.894399 0.447199 0)
(0.894399 0.447199 0)
(0.894399 0.447199 0)
(0.8944 0.4472 0)
(0.8944 0.4472 0)
(0.8944 0.4472 0)
(0.8944 0.4472 0)
(0.8944 0.4472 0)
(0.8944 0.4472 0)
(0.8944 0.4472 0)
(0.8944 0.4472 0)
(0.8944 0.4472 0)
(0.8944 0.4472 0)
(0.8944 0.4472 0)
(0.8944 0.4472 0)
(0.8944 0.4472 0)
(0.8944 0.4472 0)
(0.8944 0.4472 0)
(0.8944 0.4472 0)
(0.8944 0.4472 0)
(0.8944 0.4472 0)
(0.8944 0.4472 0)
(0.8944 0.4472 0)
(0.8944 0.4472 0)
(0.8944 0.4472 0)
(0.8944 0.4472 0)
(0.8944 0.4472 0)
(0.8944 0.4472 0)
(0.8944 0.4472 0)
(0.8944 0.4472 0)
(0.8944 0.4472 0)
(0.8944 0.4472 0)
(0.8944 0.4472 0)
(0.8944 0.4472 0)
(0.8944 0.4472 0)
(0.8944 0.4472 0)
(0.8944 0.4472 0)
(0.8944 0.4472 0)
(0.8944 0.4472 0)
(0.8944 0.4472 0)
(0.8944 0.4472 0)
(0.8944 0.4472 0)
(0.8944 0.4472 0)
(0.8944 0.4472 0)
(0.8944 0.4472 0)
(0.8944 0.4472 0)
(0.8944 0.4472 0)
(0.8944 0.4472 0)
(0.8944 0.4472 0)
(0.8944 0.4472 0)
(0.8944 0.4472 0)
(0.8944 0.4472 0)
(0.8944 0.4472 0)
(0.8944 0.447201 0)
(0.8944 0.447201 0)
(0.8944 0.447201 0)
(0.8944 0.447201 0)
(0.8944 0.447202 0)
(0.8944 0.447202 0)
(0.894401 0.447202 0)
(0.894402 0.447202 0)
(0.894404 0.4472 0)
(0.894407 0.447198 0)
(0.894409 0.447195 0)
(0.894412 0.44719 0)
(0.894414 0.447184 0)
(0.894416 0.447178 0)
(0.894416 0.447171 0)
(0.894414 0.447165 0)
(0.894411 0.447159 0)
(0.894406 0.447156 0)
(0.8944 0.447155 0)
(0.894393 0.447158 0)
(0.894386 0.447164 0)
(0.894379 0.447175 0)
(0.894375 0.447187 0)
(0.894372 0.447201 0)
(0.894373 0.447216 0)
(0.894376 0.44723 0)
(0.89438 0.447242 0)
(0.894387 0.44725 0)
(0.894394 0.447255 0)
(0.894401 0.447256 0)
(0.894407 0.447253 0)
(0.894411 0.447247 0)
(0.894414 0.447239 0)
(0.894415 0.44723 0)
(0.894414 0.44722 0)
(0.894412 0.447212 0)
(0.89441 0.447204 0)
(0.894407 0.447199 0)
(0.894404 0.447195 0)
(0.894401 0.447193 0)
(0.894399 0.447192 0)
(0.894398 0.447192 0)
(0.894397 0.447192 0)
(0.894397 0.447193 0)
(0.894397 0.447195 0)
(0.894398 0.447196 0)
(0.894398 0.447197 0)
(0.894399 0.447198 0)
(0.894399 0.447198 0)
(0.894399 0.447199 0)
(0.894399 0.447199 0)
(0.8944 0.4472 0)
(0.8944 0.4472 0)
(0.8944 0.4472 0)
(0.8944 0.4472 0)
(0.8944 0.4472 0)
(0.8944 0.4472 0)
(0.8944 0.4472 0)
(0.8944 0.4472 0)
(0.8944 0.4472 0)
(0.8944 0.4472 0)
(0.8944 0.4472 0)
(0.8944 0.4472 0)
(0.8944 0.4472 0)
(0.8944 0.4472 0)
(0.8944 0.4472 0)
(0.8944 0.4472 0)
(0.8944 0.4472 0)
(0.8944 0.4472 0)
(0.8944 0.4472 0)
(0.8944 0.4472 0)
(0.8944 0.4472 0)
(0.8944 0.4472 0)
(0.8944 0.4472 0)
(0.8944 0.4472 0)
(0.8944 0.4472 0)
(0.8944 0.4472 0)
(0.8944 0.4472 0)
(0.8944 0.4472 0)
(0.8944 0.4472 0)
(0.8944 0.4472 0)
(0.8944 0.4472 0)
(0.8944 0.4472 0)
(0.8944 0.4472 0)
(0.8944 0.447201 0)
(0.8944 0.4472 0)
(0.8944 0.4472 0)
(0.8944 0.4472 0)
(0.8944 0.4472 0)
(0.8944 0.4472 0)
(0.8944 0.4472 0)
(0.8944 0.4472 0)
(0.8944 0.4472 0)
(0.8944 0.4472 0)
(0.8944 0.4472 0)
(0.8944 0.4472 0)
(0.8944 0.4472 0)
(0.8944 0.4472 0)
(0.8944 0.4472 0)
(0.894399 0.4472 0)
(0.894399 0.447201 0)
(0.894399 0.447202 0)
(0.894399 0.447202 0)
(0.894399 0.447203 0)
(0.894399 0.447204 0)
(0.8944 0.447204 0)
(0.894401 0.447204 0)
(0.894403 0.447204 0)
(0.894406 0.447202 0)
(0.89441 0.447199 0)
(0.894413 0.447194 0)
(0.894417 0.447188 0)
(0.89442 0.44718 0)
(0.894422 0.447172 0)
(0.894422 0.447163 0)
(0.89442 0.447155 0)
(0.894416 0.447149 0)
(0.894409 0.447145 0)
(0.894401 0.447144 0)
(0.894391 0.447147 0)
(0.894382 0.447155 0)
(0.894373 0.447167 0)
(0.894367 0.447183 0)
(0.894364 0.4472 0)
(0.894364 0.447219 0)
(0.894367 0.447237 0)
(0.894373 0.447252 0)
(0.894381 0.447263 0)
(0.89439 0.44727 0)
(0.894399 0.447272 0)
(0.894407 0.44727 0)
(0.894413 0.447263 0)
(0.894417 0.447253 0)
(0.894418 0.447242 0)
(0.894418 0.447231 0)
(0.894416 0.447219 0)
(0.894413 0.44721 0)
(0.89441 0.447202 0)
(0.894406 0.447196 0)
(0.894403 0.447193 0)
(0.8944 0.447191 0)
(0.894398 0.44719 0)
(0.894397 0.447191 0)
(0.894397 0.447192 0)
(0.894397 0.447193 0)
(0.894397 0.447194 0)
(0.894397 0.447196 0)
(0.894398 0.447197 0)
(0.894398 0.447198 0)
(0.894399 0.447199 0)
(0.894399 0.447199 0)
(0.8944 0.447199 0)
(0.8944 0.4472 0)
(0.8944 0.4472 0)
(0.8944 0.4472 0)
(0.8944 0.4472 0)
(0.8944 0.4472 0)
(0.8944 0.4472 0)
(0.8944 0.4472 0)
(0.8944 0.4472 0)
(0.8944 0.4472 0)
(0.8944 0.4472 0)
(0.8944 0.4472 0)
(0.8944 0.4472 0)
(0.8944 0.4472 0)
(0.8944 0.4472 0)
(0.8944 0.4472 0)
(0.8944 0.4472 0)
(0.8944 0.4472 0)
(0.8944 0.4472 0)
(0.8944 0.4472 0)
(0.8944 0.4472 0)
(0.8944 0.4472 0)
(0.8944 0.4472 0)
(0.8944 0.4472 0)
(0.8944 0.4472 0)
(0.8944 0.4472 0)
(0.8944 0.4472 0)
(0.8944 0.4472 0)
(0.8944 0.4472 0)
(0.8944 0.4472 0)
(0.8944 0.4472 0)
(0.8944 0.447201 0)
(0.8944 0.447199 0)
(0.8944 0.4472 0)
(0.8944 0.4472 0)
(0.8944 0.4472 0)
(0.8944 0.4472 0)
(0.8944 0.4472 0)
(0.8944 0.447199 0)
(0.8944 0.447201 0)
(0.8944 0.4472 0)
(0.8944 0.4472 0)
(0.8944 0.4472 0)
(0.8944 0.4472 0)
(0.8944 0.4472 0)
(0.8944 0.4472 0)
(0.8944 0.447201 0)
(0.894399 0.447201 0)
(0.894399 0.447201 0)
(0.894398 0.447203 0)
(0.894398 0.447203 0)
(0.894398 0.447204 0)
(0.894398 0.447206 0)
(0.894398 0.447207 0)
(0.894399 0.447208 0)
(0.894401 0.447208 0)
(0.894404 0.447208 0)
(0.894409 0.447205 0)
(0.894414 0.447201 0)
(0.894419 0.447194 0)
(0.894424 0.447186 0)
(0.894428 0.447176 0)
(0.89443 0.447165 0)
(0.894429 0.447155 0)
(0.894427 0.447146 0)
(0.894421 0.447138 0)
(0.894412 0.447133 0)
(0.894402 0.447133 0)
(0.894389 0.447137 0)
(0.894377 0.447146 0)
(0.894366 0.447161 0)
(0.894358 0.447179 0)
(0.894352 0.447201 0)
(0.894352 0.447224 0)
(0.894355 0.447246 0)
(0.894362 0.447265 0)
(0.894372 0.44728 0)
(0.894383 0.447289 0)
(0.894395 0.447293 0)
(0.894405 0.447291 0)
(0.894414 0.447283 0)
(0.894419 0.447272 0)
(0.894423 0.447259 0)
(0.894423 0.447244 0)
(0.894421 0.44723 0)
(0.894418 0.447217 0)
(0.894414 0.447206 0)
(0.894409 0.447198 0)
(0.894405 0.447193 0)
(0.894402 0.44719 0)
(0.894399 0.447189 0)
(0.894397 0.447189 0)
(0.894396 0.44719 0)
(0.894396 0.447192 0)
(0.894396 0.447193 0)
(0.894397 0.447195 0)
(0.894397 0.447196 0)
(0.894398 0.447197 0)
(0.894399 0.447198 0)
(0.894399 0.447199 0)
(0.894399 0.447199 0)
(0.8944 0.4472 0)
(0.8944 0.4472 0)
(0.8944 0.4472 0)
(0.8944 0.4472 0)
(0.8944 0.4472 0)
(0.8944 0.4472 0)
(0.8944 0.4472 0)
(0.8944 0.4472 0)
(0.8944 0.4472 0)
(0.8944 0.4472 0)
(0.8944 0.4472 0)
(0.8944 0.4472 0)
(0.8944 0.4472 0)
(0.8944 0.4472 0)
(0.8944 0.4472 0)
(0.8944 0.4472 0)
(0.8944 0.4472 0)
(0.8944 0.4472 0)
(0.8944 0.4472 0)
(0.8944 0.4472 0)
(0.8944 0.4472 0)
(0.8944 0.4472 0)
(0.8944 0.4472 0)
(0.8944 0.4472 0)
(0.8944 0.4472 0)
(0.8944 0.4472 0)
(0.8944 0.4472 0)
(0.8944 0.4472 0)
(0.8944 0.4472 0)
(0.8944 0.4472 0)
(0.8944 0.4472 0)
(0.8944 0.447201 0)
(0.8944 0.447199 0)
(0.8944 0.447201 0)
(0.8944 0.447199 0)
(0.894399 0.4472 0)
(0.894401 0.447201 0)
(0.8944 0.447199 0)
(0.8944 0.447201 0)
(0.894401 0.4472 0)
(0.894399 0.4472 0)
(0.8944 0.447201 0)
(0.8944 0.4472 0)
(0.8944 0.4472 0)
(0.894399 0.4472 0)
(0.894399 0.447202 0)
(0.894398 0.447202 0)
(0.894397 0.447203 0)
(0.894397 0.447205 0)
(0.894396 0.447206 0)
(0.894396 0.447208 0)
(0.894395 0.447211 0)
(0.894396 0.447213 0)
(0.894398 0.447215 0)
(0.894401 0.447216 0)
(0.894406 0.447215 0)
(0.894412 0.447211 0)
(0.894419 0.447205 0)
(0.894427 0.447196 0)
(0.894433 0.447185 0)
(0.894438 0.447172 0)
(0.894439 0.44716 0)
(0.894439 0.447147 0)
(0.894434 0.447136 0)
(0.894427 0.447128 0)
(0.894416 0.447123 0)
(0.894402 0.447123 0)
(0.894386 0.447128 0)
(0.89437 0.447139 0)
(0.894356 0.447156 0)
(0.894345 0.447179 0)
(0.894338 0.447205 0)
(0.894336 0.447233 0)
(0.89434 0.447259 0)
(0.894349 0.447283 0)
(0.89436 0.447302 0)
(0.894374 0.447314 0)
(0.894389 0.447319 0)
(0.894403 0.447318 0)
(0.894414 0.44731 0)
(0.894423 0.447297 0)
(0.894427 0.44728 0)
(0.894429 0.447263 0)
(0.894428 0.447245 0)
(0.894424 0.447229 0)
(0.894419 0.447214 0)
(0.894413 0.447203 0)
(0.894408 0.447195 0)
(0.894403 0.44719 0)
(0.8944 0.447188 0)
(0.894397 0.447188 0)
(0.894396 0.447189 0)
(0.894395 0.44719 0)
(0.894395 0.447192 0)
(0.894396 0.447193 0)
(0.894396 0.447195 0)
(0.894397 0.447196 0)
(0.894398 0.447197 0)
(0.894398 0.447198 0)
(0.894399 0.447199 0)
(0.894399 0.447199 0)
(0.8944 0.4472 0)
(0.8944 0.4472 0)
(0.8944 0.4472 0)
(0.8944 0.4472 0)
(0.8944 0.4472 0)
(0.8944 0.4472 0)
(0.8944 0.4472 0)
(0.8944 0.4472 0)
(0.8944 0.4472 0)
(0.8944 0.4472 0)
(0.8944 0.4472 0)
(0.8944 0.4472 0)
(0.8944 0.4472 0)
(0.8944 0.4472 0)
(0.8944 0.4472 0)
(0.8944 0.4472 0)
(0.8944 0.4472 0)
(0.8944 0.4472 0)
(0.8944 0.4472 0)
(0.8944 0.4472 0)
(0.8944 0.4472 0)
(0.8944 0.4472 0)
(0.8944 0.4472 0)
(0.8944 0.4472 0)
(0.8944 0.4472 0)
(0.8944 0.447199 0)
(0.8944 0.447201 0)
(0.8944 0.447199 0)
(0.8944 0.447201 0)
(0.8944 0.447199 0)
(0.8944 0.447201 0)
(0.8944 0.4472 0)
(0.8944 0.4472 0)
(0.8944 0.4472 0)
(0.8944 0.4472 0)
(0.894401 0.4472 0)
(0.8944 0.4472 0)
(0.8944 0.447199 0)
(0.894401 0.4472 0)
(0.894399 0.4472 0)
(0.894399 0.447201 0)
(0.894401 0.4472 0)
(0.894399 0.447201 0)
(0.894398 0.447201 0)
(0.894398 0.447203 0)
(0.894397 0.447204 0)
(0.894396 0.447206 0)
(0.894394 0.447208 0)
(0.894392 0.447211 0)
(0.894391 0.447215 0)
(0.894391 0.447219 0)
(0.894392 0.447223 0)
(0.894395 0.447226 0)
(0.8944 0.447227 0)
(0.894408 0.447225 0)
(0.894417 0.447221 0)
(0.894427 0.447213 0)
(0.894436 0.447201 0)
(0.894444 0.447187 0)
(0.894449 0.447171 0)
(0.89445 0.447157 0)
(0.894448 0.447143 0)
(0.894442 0.447131 0)
(0.894432 0.447122 0)
(0.894418 0.447119 0)
(0.894401 0.447119 0)
(0.894381 0.447125 0)
(0.894361 0.447138 0)
(0.894343 0.447158 0)
(0.894329 0.447184 0)
(0.894319 0.447214 0)
(0.894317 0.447247 0)
(0.89432 0.447278 0)
(0.89433 0.447307 0)
(0.894345 0.44733 0)
(0.894362 0.447346 0)
(0.89438 0.447353 0)
(0.894398 0.447353 0)
(0.894414 0.447345 0)
(0.894425 0.44733 0)
(0.894433 0.44731 0)
(0.894436 0.447288 0)
(0.894436 0.447266 0)
(0.894432 0.447245 0)
(0.894426 0.447227 0)
(0.894419 0.447211 0)
(0.894412 0.447198 0)
(0.894406 0.447191 0)
(0.894402 0.447187 0)
(0.894398 0.447186 0)
(0.894396 0.447187 0)
(0.894395 0.447188 0)
(0.894394 0.44719 0)
(0.894395 0.447192 0)
(0.894395 0.447194 0)
(0.894396 0.447195 0)
(0.894397 0.447197 0)
(0.894398 0.447198 0)
(0.894399 0.447199 0)
(0.894399 0.447199 0)
(0.894399 0.4472 0)
(0.8944 0.4472 0)
(0.8944 0.4472 0)
(0.8944 0.4472 0)
(0.8944 0.4472 0)
(0.8944 0.4472 0)
(0.8944 0.4472 0)
(0.8944 0.4472 0)
(0.8944 0.4472 0)
(0.8944 0.4472 0)
(0.8944 0.4472 0)
(0.8944 0.4472 0)
(0.8944 0.4472 0)
(0.8944 0.4472 0)
(0.8944 0.4472 0)
(0.8944 0.4472 0)
(0.8944 0.4472 0)
(0.8944 0.4472 0)
(0.8944 0.4472 0)
(0.8944 0.4472 0)
(0.8944 0.4472 0)
(0.8944 0.4472 0)
(0.8944 0.4472 0)
(0.8944 0.4472 0)
(0.8944 0.4472 0)
(0.8944 0.4472 0)
(0.8944 0.447201 0)
(0.8944 0.447199 0)
(0.8944 0.447201 0)
(0.8944 0.447199 0)
(0.894399 0.447201 0)
(0.894401 0.4472 0)
(0.8944 0.447199 0)
(0.894399 0.447201 0)
(0.894401 0.4472 0)
(0.894399 0.447199 0)
(0.894401 0.447202 0)
(0.8944 0.447198 0)
(0.8944 0.447201 0)
(0.8944 0.447201 0)
(0.894399 0.447199 0)
(0.8944 0.447201 0)
(0.894398 0.447202 0)
(0.894396 0.447203 0)
(0.894395 0.447204 0)
(0.894394 0.447208 0)
(0.894392 0.447211 0)
(0.894388 0.447214 0)
(0.894386 0.44722 0)
(0.894384 0.447227 0)
(0.894384 0.447233 0)
(0.894386 0.447239 0)
(0.894391 0.447243 0)
(0.894398 0.447245 0)
(0.894409 0.447242 0)
(0.894422 0.447236 0)
(0.894435 0.447225 0)
(0.894446 0.447211 0)
(0.894456 0.447194 0)
(0.89446 0.447177 0)
(0.894461 0.447161 0)
(0.894457 0.447147 0)
(0.894448 0.447135 0)
(0.894435 0.447128 0)
(0.894417 0.447125 0)
(0.894396 0.447127 0)
(0.894373 0.447134 0)
(0.894348 0.447149 0)
(0.894325 0.447172 0)
(0.894307 0.447201 0)
(0.894295 0.447235 0)
(0.894291 0.447272 0)
(0.894295 0.447309 0)
(0.894306 0.447342 0)
(0.894323 0.447369 0)
(0.894345 0.447389 0)
(0.894368 0.447399 0)
(0.894391 0.447398 0)
(0.894411 0.447389 0)
(0.894428 0.447374 0)
(0.894439 0.44735 0)
(0.894444 0.447322 0)
(0.894445 0.447293 0)
(0.894442 0.447267 0)
(0.894436 0.447244 0)
(0.894428 0.447224 0)
(0.894418 0.447206 0)
(0.89441 0.447194 0)
(0.894403 0.447186 0)
(0.894399 0.447183 0)
(0.894396 0.447184 0)
(0.894394 0.447186 0)
(0.894394 0.447188 0)
(0.894394 0.44719 0)
(0.894394 0.447192 0)
(0.894395 0.447194 0)
(0.894396 0.447196 0)
(0.894397 0.447197 0)
(0.894398 0.447198 0)
(0.894399 0.447199 0)
(0.894399 0.447199 0)
(0.894399 0.4472 0)
(0.8944 0.4472 0)
(0.8944 0.4472 0)
(0.8944 0.4472 0)
(0.8944 0.4472 0)
(0.8944 0.4472 0)
(0.8944 0.4472 0)
(0.8944 0.4472 0)
(0.8944 0.4472 0)
(0.8944 0.4472 0)
(0.8944 0.4472 0)
(0.8944 0.4472 0)
(0.8944 0.4472 0)
(0.8944 0.4472 0)
(0.8944 0.4472 0)
(0.8944 0.4472 0)
(0.8944 0.4472 0)
(0.8944 0.4472 0)
(0.8944 0.4472 0)
(0.8944 0.4472 0)
(0.8944 0.4472 0)
(0.8944 0.4472 0)
(0.8944 0.4472 0)
(0.8944 0.447199 0)
(0.8944 0.447201 0)
(0.8944 0.4472 0)
(0.8944 0.4472 0)
(0.894401 0.447199 0)
(0.894399 0.447202 0)
(0.894401 0.447199 0)
(0.894401 0.4472 0)
(0.894398 0.447201 0)
(0.8944 0.447199 0)
(0.894401 0.447199 0)
(0.894399 0.447201 0)
(0.8944 0.447199 0)
(0.894399 0.447201 0)
(0.894399 0.4472 0)
(0.894401 0.447201 0)
(0.894398 0.447199 0)
(0.894397 0.447203 0)
(0.894396 0.447204 0)
(0.894394 0.447206 0)
(0.894391 0.447207 0)
(0.894388 0.447213 0)
(0.894384 0.447218 0)
(0.894379 0.447225 0)
(0.894375 0.447234 0)
(0.894373 0.447244 0)
(0.894373 0.447253 0)
(0.894376 0.447261 0)
(0.894384 0.447268 0)
(0.894395 0.44727 0)
(0.89441 0.447268 0)
(0.894427 0.44726 0)
(0.894443 0.447246 0)
(0.894456 0.44723 0)
(0.894466 0.447211 0)
(0.894469 0.447194 0)
(0.894468 0.447178 0)
(0.89446 0.447165 0)
(0.894447 0.447157 0)
(0.894431 0.447153 0)
(0.894409 0.447152 0)
(0.894384 0.447156 0)
(0.894356 0.447165 0)
(0.894327 0.447181 0)
(0.8943 0.447206 0)
(0.894278 0.447238 0)
(0.894262 0.447276 0)
(0.894257 0.447316 0)
(0.894261 0.447356 0)
(0.894275 0.447394 0)
(0.894296 0.447424 0)
(0.894322 0.447447 0)
(0.894351 0.447459 0)
(0.89438 0.447459 0)
(0.894406 0.447448 0)
(0.894429 0.447428 0)
(0.894446 0.447402 0)
(0.894455 0.44737 0)
(0.894457 0.447333 0)
(0.894455 0.447296 0)
(0.894448 0.447265 0)
(0.894439 0.447241 0)
(0.894429 0.44722 0)
(0.894417 0.447203 0)
(0.894407 0.44719 0)
(0.8944 0.447182 0)
(0.894395 0.447179 0)
(0.894393 0.44718 0)
(0.894393 0.447184 0)
(0.894393 0.447187 0)
(0.894393 0.447191 0)
(0.894394 0.447193 0)
(0.894395 0.447195 0)
(0.894396 0.447197 0)
(0.894397 0.447198 0)
(0.894398 0.447199 0)
(0.894399 0.447199 0)
(0.894399 0.4472 0)
(0.8944 0.4472 0)
(0.8944 0.4472 0)
(0.8944 0.4472 0)
(0.8944 0.4472 0)
(0.8944 0.4472 0)
(0.8944 0.4472 0)
(0.8944 0.4472 0)
(0.8944 0.4472 0)
(0.8944 0.4472 0)
(0.8944 0.4472 0)
(0.8944 0.4472 0)
(0.8944 0.4472 0)
(0.8944 0.4472 0)
(0.8944 0.4472 0)
(0.8944 0.4472 0)
(0.8944 0.4472 0)
(0.8944 0.4472 0)
(0.8944 0.4472 0)
(0.8944 0.4472 0)
(0.8944 0.447199 0)
(0.8944 0.447201 0)
(0.8944 0.447199 0)
(0.8944 0.4472 0)
(0.894399 0.447201 0)
(0.894401 0.447198 0)
(0.8944 0.447202 0)
(0.8944 0.447199 0)
(0.894399 0.447202 0)
(0.894402 0.447196 0)
(0.894399 0.447203 0)
(0.894397 0.4472 0)
(0.894403 0.447198 0)
(0.8944 0.4472 0)
(0.894399 0.447202 0)
(0.894399 0.447196 0)
(0.8944 0.447205 0)
(0.8944 0.447198 0)
(0.894399 0.4472 0)
(0.894397 0.447202 0)
(0.894393 0.447204 0)
(0.894394 0.447206 0)
(0.89439 0.447208 0)
(0.894384 0.447213 0)
(0.894379 0.44722 0)
(0.894371 0.447229 0)
(0.894365 0.447242 0)
(0.894359 0.447253 0)
(0.894356 0.447268 0)
(0.894357 0.447282 0)
(0.894361 0.447295 0)
(0.894373 0.447303 0)
(0.894388 0.447307 0)
(0.894409 0.447304 0)
(0.89443 0.447294 0)
(0.894449 0.44728 0)
(0.894463 0.447263 0)
(0.89447 0.447245 0)
(0.894471 0.447231 0)
(0.894464 0.447219 0)
(0.894451 0.447212 0)
(0.894434 0.44721 0)
(0.894413 0.447212 0)
(0.894387 0.447215 0)
(0.894359 0.447223 0)
(0.894327 0.447235 0)
(0.894293 0.447252 0)
(0.894263 0.447277 0)
(0.894236 0.44731 0)
(0.894219 0.447348 0)
(0.894213 0.447389 0)
(0.894217 0.447432 0)
(0.894234 0.447473 0)
(0.894259 0.447505 0)
(0.894291 0.447527 0)
(0.894328 0.447541 0)
(0.894366 0.447542 0)
(0.8944 0.447527 0)
(0.894428 0.447501 0)
(0.89445 0.447469 0)
(0.894467 0.447432 0)
(0.894473 0.447388 0)
(0.894471 0.447342 0)
(0.894463 0.447299 0)
(0.894454 0.447262 0)
(0.894442 0.447235 0)
(0.894429 0.447216 0)
(0.894416 0.4472 0)
(0.894404 0.447187 0)
(0.894396 0.44718 0)
(0.894391 0.447177 0)
(0.89439 0.447178 0)
(0.89439 0.447182 0)
(0.894391 0.447186 0)
(0.894393 0.44719 0)
(0.894394 0.447193 0)
(0.894396 0.447196 0)
(0.894397 0.447197 0)
(0.894398 0.447198 0)
(0.894399 0.447199 0)
(0.894399 0.447199 0)
(0.894399 0.4472 0)
(0.8944 0.4472 0)
(0.8944 0.4472 0)
(0.8944 0.4472 0)
(0.8944 0.4472 0)
(0.8944 0.4472 0)
(0.8944 0.4472 0)
(0.8944 0.4472 0)
(0.8944 0.4472 0)
(0.8944 0.4472 0)
(0.8944 0.4472 0)
(0.8944 0.4472 0)
(0.8944 0.4472 0)
(0.8944 0.4472 0)
(0.8944 0.4472 0)
(0.8944 0.4472 0)
(0.8944 0.4472 0)
(0.8944 0.4472 0)
(0.8944 0.4472 0)
(0.8944 0.447199 0)
(0.8944 0.447201 0)
(0.894401 0.447198 0)
(0.8944 0.447202 0)
(0.8944 0.447199 0)
(0.894401 0.447199 0)
(0.8944 0.447202 0)
(0.894398 0.447201 0)
(0.894403 0.447196 0)
(0.8944 0.447203 0)
(0.894396 0.447201 0)
(0.894402 0.447197 0)
(0.894402 0.4472 0)
(0.894399 0.447202 0)
(0.894397 0.447197 0)
(0.894401 0.447204 0)
(0.894401 0.447199 0)
(0.894399 0.4472 0)
(0.894394 0.447199 0)
(0.894398 0.447207 0)
(0.89439 0.447204 0)
(0.89439 0.447208 0)
(0.894382 0.447213 0)
(0.894374 0.447221 0)
(0.894364 0.447231 0)
(0.894353 0.447246 0)
(0.894344 0.447264 0)
(0.894336 0.447281 0)
(0.894331 0.447302 0)
(0.894332 0.447321 0)
(0.89434 0.44734 0)
(0.894356 0.447351 0)
(0.894377 0.447356 0)
(0.894402 0.447355 0)
(0.894427 0.447346 0)
(0.894447 0.447334 0)
(0.894458 0.447319 0)
(0.89446 0.447308 0)
(0.894455 0.4473 0)
(0.894439 0.447299 0)
(0.894419 0.447304 0)
(0.894396 0.447313 0)
(0.89437 0.447324 0)
(0.894341 0.447337 0)
(0.894309 0.447349 0)
(0.894275 0.447365 0)
(0.894238 0.447382 0)
(0.894206 0.447405 0)
(0.894177 0.447436 0)
(0.894159 0.447471 0)
(0.894152 0.447512 0)
(0.894158 0.447553 0)
(0.894179 0.447591 0)
(0.894212 0.447626 0)
(0.894252 0.447647 0)
(0.894297 0.447653 0)
(0.894345 0.447651 0)
(0.894389 0.447638 0)
(0.894427 0.447606 0)
(0.894457 0.447558 0)
(0.894478 0.447509 0)
(0.894489 0.447462 0)
(0.894491 0.44741 0)
(0.894486 0.447351 0)
(0.894473 0.447297 0)
(0.894457 0.447255 0)
(0.894442 0.447226 0)
(0.894427 0.447206 0)
(0.894413 0.447194 0)
(0.894401 0.447184 0)
(0.894393 0.447177 0)
(0.894388 0.447176 0)
(0.894386 0.447177 0)
(0.894387 0.44718 0)
(0.894389 0.447185 0)
(0.894392 0.44719 0)
(0.894394 0.447193 0)
(0.894396 0.447196 0)
(0.894397 0.447197 0)
(0.894398 0.447198 0)
(0.894399 0.447199 0)
(0.894399 0.4472 0)
(0.8944 0.4472 0)
(0.8944 0.4472 0)
(0.8944 0.4472 0)
(0.8944 0.4472 0)
(0.8944 0.4472 0)
(0.8944 0.4472 0)
(0.8944 0.4472 0)
(0.8944 0.4472 0)
(0.8944 0.4472 0)
(0.8944 0.4472 0)
(0.8944 0.4472 0)
(0.8944 0.4472 0)
(0.8944 0.4472 0)
(0.8944 0.4472 0)
(0.8944 0.4472 0)
(0.8944 0.4472 0)
(0.8944 0.4472 0)
(0.894399 0.447199 0)
(0.8944 0.447201 0)
(0.8944 0.447198 0)
(0.8944 0.447202 0)
(0.894399 0.4472 0)
(0.8944 0.447198 0)
(0.894401 0.447202 0)
(0.894397 0.447201 0)
(0.894401 0.447198 0)
(0.894404 0.447197 0)
(0.894394 0.447209 0)
(0.894399 0.447192 0)
(0.894407 0.447203 0)
(0.894398 0.447201 0)
(0.894396 0.4472 0)
(0.8944 0.447198 0)
(0.894405 0.447207 0)
(0.894398 0.447191 0)
(0.894394 0.447206 0)
(0.894394 0.447203 0)
(0.894394 0.447206 0)
(0.894389 0.447207 0)
(0.894379 0.447211 0)
(0.89437 0.44722 0)
(0.894358 0.447234 0)
(0.894341 0.447248 0)
(0.894327 0.44727 0)
(0.894314 0.447292 0)
(0.894302 0.447319 0)
(0.894296 0.447347 0)
(0.894297 0.447372 0)
(0.894309 0.447397 0)
(0.89433 0.447414 0)
(0.894357 0.447423 0)
(0.894385 0.447425 0)
(0.894409 0.447423 0)
(0.894426 0.447416 0)
(0.89443 0.447412 0)
(0.894422 0.447414 0)
(0.894404 0.447423 0)
(0.894376 0.447443 0)
(0.894346 0.447468 0)
(0.894314 0.447496 0)
(0.894282 0.447524 0)
(0.894252 0.447551 0)
(0.894218 0.44757 0)
(0.894186 0.447587 0)
(0.894151 0.447606 0)
(0.894116 0.447621 0)
(0.894091 0.447647 0)
(0.894072 0.447676 0)
(0.894068 0.447709 0)
(0.894083 0.447744 0)
(0.894107 0.447777 0)
(0.894147 0.447804 0)
(0.894202 0.44782 0)
(0.89426 0.447819 0)
(0.894312 0.447806 0)
(0.89437 0.447781 0)
(0.894428 0.447741 0)
(0.894468 0.447688 0)
(0.894492 0.447627 0)
(0.89451 0.447556 0)
(0.894518 0.447484 0)
(0.894512 0.44742 0)
(0.894498 0.44736 0)
(0.89448 0.4473 0)
(0.894459 0.447248 0)
(0.894441 0.447216 0)
(0.894425 0.447196 0)
(0.89441 0.447185 0)
(0.894398 0.447182 0)
(0.89439 0.447179 0)
(0.894386 0.447176 0)
(0.894385 0.447179 0)
(0.894386 0.447183 0)
(0.894388 0.447186 0)
(0.894391 0.44719 0)
(0.894394 0.447193 0)
(0.894396 0.447196 0)
(0.894397 0.447198 0)
(0.894398 0.447199 0)
(0.894399 0.447199 0)
(0.894399 0.4472 0)
(0.8944 0.4472 0)
(0.8944 0.4472 0)
(0.8944 0.4472 0)
(0.8944 0.4472 0)
(0.8944 0.4472 0)
(0.8944 0.4472 0)
(0.8944 0.4472 0)
(0.8944 0.4472 0)
(0.8944 0.4472 0)
(0.8944 0.4472 0)
(0.8944 0.4472 0)
(0.8944 0.4472 0)
(0.8944 0.4472 0)
(0.8944 0.4472 0)
(0.894399 0.4472 0)
(0.8944 0.447201 0)
(0.8944 0.447199 0)
(0.8944 0.447202 0)
(0.894401 0.447197 0)
(0.894399 0.447204 0)
(0.8944 0.447197 0)
(0.894402 0.447199 0)
(0.894398 0.447205 0)
(0.894397 0.447196 0)
(0.894408 0.447196 0)
(0.894395 0.447211 0)
(0.894394 0.447191 0)
(0.89441 0.447201 0)
(0.894401 0.447202 0)
(0.894391 0.447201 0)
(0.8944 0.447194 0)
(0.894407 0.44721 0)
(0.894399 0.44719 0)
(0.894393 0.447206 0)
(0.894393 0.4472 0)
(0.894398 0.44721 0)
(0.894385 0.4472 0)
(0.894385 0.447214 0)
(0.894362 0.447216 0)
(0.894354 0.447231 0)
(0.894333 0.447248 0)
(0.894314 0.447271 0)
(0.894293 0.447297 0)
(0.894271 0.447327 0)
(0.894256 0.447365 0)
(0.894249 0.447401 0)
(0.894252 0.447436 0)
(0.894267 0.447468 0)
(0.894291 0.447493 0)
(0.89432 0.447511 0)
(0.894347 0.447522 0)
(0.894366 0.447532 0)
(0.894371 0.447542 0)
(0.894359 0.447559 0)
(0.894333 0.447588 0)
(0.894294 0.447628 0)
(0.894248 0.447681 0)
(0.894203 0.447739 0)
(0.894159 0.447799 0)
(0.894123 0.447854 0)
(0.894092 0.447897 0)
(0.894065 0.44793 0)
(0.894035 0.447949 0)
(0.894009 0.447965 0)
(0.893979 0.447973 0)
(0.893959 0.447985 0)
(0.893948 0.448003 0)
(0.893951 0.44802 0)
(0.893972 0.448045 0)
(0.894009 0.448065 0)
(0.894065 0.448067 0)
(0.894129 0.448068 0)
(0.8942 0.448063 0)
(0.894281 0.448031 0)
(0.894357 0.447979 0)
(0.894412 0.44793 0)
(0.894466 0.447869 0)
(0.894519 0.447778 0)
(0.894545 0.447679 0)
(0.894549 0.447595 0)
(0.894548 0.447517 0)
(0.894534 0.447436 0)
(0.89451 0.447359 0)
(0.894486 0.4473 0)
(0.894462 0.447246 0)
(0.894437 0.447207 0)
(0.894417 0.447191 0)
(0.894403 0.447177 0)
(0.894395 0.447172 0)
(0.894388 0.447179 0)
(0.894384 0.447181 0)
(0.894385 0.44718 0)
(0.894386 0.447184 0)
(0.894388 0.447188 0)
(0.894391 0.447191 0)
(0.894394 0.447194 0)
(0.894396 0.447196 0)
(0.894397 0.447198 0)
(0.894398 0.447199 0)
(0.894399 0.447199 0)
(0.8944 0.4472 0)
(0.8944 0.4472 0)
(0.8944 0.4472 0)
(0.8944 0.4472 0)
(0.8944 0.4472 0)
(0.8944 0.4472 0)
(0.8944 0.4472 0)
(0.8944 0.4472 0)
(0.8944 0.4472 0)
(0.8944 0.4472 0)
(0.8944 0.4472 0)
(0.8944 0.4472 0)
(0.8944 0.4472 0)
(0.8944 0.4472 0)
(0.8944 0.4472 0)
(0.894399 0.4472 0)
(0.894401 0.447201 0)
(0.894399 0.447198 0)
(0.8944 0.447203 0)
(0.894399 0.447199 0)
(0.894401 0.447198 0)
(0.894401 0.447204 0)
(0.894394 0.447199 0)
(0.894407 0.447193 0)
(0.894402 0.447209 0)
(0.894386 0.4472 0)
(0.89441 0.447187 0)
(0.894409 0.447214 0)
(0.894386 0.447194 0)
(0.894396 0.4472 0)
(0.894414 0.447201 0)
(0.894399 0.447203 0)
(0.89439 0.447189 0)
(0.894395 0.447217 0)
(0.894396 0.447194 0)
(0.894393 0.44721 0)
(0.894378 0.447203 0)
(0.89437 0.447217 0)
(0.894349 0.447227 0)
(0.89433 0.447244 0)
(0.894303 0.447262 0)
(0.894277 0.447296 0)
(0.894245 0.447327 0)