/*--------------------------------*- C++ -*----------------------------------*\
  =========                 |
  \\      /  F ield         | OpenFOAM: The Open Source CFD Toolbox
   \\    /   O peration     | Website:  https://openfoam.org
    \\  /    A nd           | Version:  6
     \\/     M anipulation  |
\*---------------------------------------------------------------------------*/
FoamFile
{
    version     2.0;
    format      ascii;
    class       volScalarField;
    location    "2.38";
    object      p;
}
// * * * * * * * * * * * * * * * * * * * * * * * * * * * * * * * * * * * * * //

dimensions      [0 2 -2 0 0 0 0];

internalField   nonuniform List<scalar> 
4214
(
-2.08316
-1.98864
-1.43971
-0.99775
-0.844118
-0.799827
-0.775452
-0.76737
-0.776782
-0.795693
-0.805008
-0.805893
-0.788325
-0.75069
-0.695213
-0.614466
-0.507745
-0.362146
-0.162762
0.05878
0.268317
0.524291
0.675614
0.381169
0.0875471
-0.575356
-0.687556
-0.580934
-0.348045
0.0779974
0.19986
0.207359
0.195517
0.166459
0.146696
0.12176
0.111534
0.109578
-0.167021
-0.554314
-0.262401
-0.921649
-1.50398
-1.5584
-1.31328
-1.23509
-1.23858
-1.25238
-1.2997
-1.37981
-1.46417
-1.53606
-1.59789
-1.63955
-1.64565
-1.60455
-1.50359
-1.32364
-1.04528
-0.672597
-0.163963
0.460419
1.05855
1.25076
0.459689
0.0249962
-1.33106
-1.84898
-1.74024
-1.09776
0.0370459
0.520396
0.649287
0.652901
0.572771
0.538369
0.494421
0.470882
0.47492
0.342911
0.462917
1.24468
-2.0646
-2.38451
-2.54029
-2.39922
-2.34086
-2.34213
-2.39627
-2.52209
-2.67497
-2.83717
-2.98442
-3.12211
-3.23162
-3.28041
-3.24014
-3.08458
-2.7951
-2.32484
-1.68704
-0.889808
0.0247622
0.88625
1.37144
0.658857
0.325459
-1.03361
-2.00177
-2.10315
-1.32084
0.107707
0.803714
1.06012
1.08445
0.954944
0.883787
0.81035
0.765753
0.724695
0.618919
0.710937
0.985249
-3.08594
-3.17767
-3.32499
-3.27421
-3.27456
-3.34562
-3.50697
-3.71507
-3.96236
-4.22846
-4.48701
-4.73269
-4.9541
-5.09318
-5.13472
-4.98021
-4.63265
-4.03859
-3.16995
-2.09122
-0.8694
0.302263
1.16058
0.899622
0.573274
-0.248603
-1.56694
-2.0236
-1.27587
0.275003
1.15517
1.48561
1.51635
1.34542
1.23443
1.13383
1.0636
0.997514
0.94808
1.00434
1.03787
-4.00442
-4.08441
-4.20401
-4.20409
-4.29616
-4.48645
-4.73545
-5.04011
-5.39734
-5.78889
-6.19136
-6.57657
-6.95149
-7.23187
-7.40214
-7.34581
-6.97567
-6.28452
-5.23398
-3.85762
-2.27113
-0.710218
0.633013
1.16218
0.862318
0.804692
-0.589966
-1.49092
-0.93614
0.556783
1.60877
1.92994
1.94725
1.73855
1.57865
1.44534
1.34297
1.249
1.19135
1.18583
1.15029
-4.80284
-4.92883
-5.045
-5.13404
-5.3582
-5.64532
-5.99676
-6.41528
-6.90228
-7.44332
-8.02476
-8.5892
-9.17531
-9.65043
-10.0209
-10.1514
-9.86301
-9.10547
-7.8969
-6.2403
-4.20811
-2.15107
-0.227989
1.22991
1.42703
1.92998
0.793958
-0.559351
-0.302713
0.959966
2.12425
2.40808
2.38819
2.14231
1.92826
1.75513
1.61635
1.49586
1.41737
1.36028
1.29667
-5.53997
-5.70066
-5.89169
-6.11239
-6.41854
-6.80491
-7.2701
-7.82215
-8.45964
-9.17679
-9.97232
-10.7587
-11.6303
-12.3665
-13.0171
-13.3772
-13.3154
-12.5337
-11.1249
-9.19268
-6.75266
-4.05146
-1.44149
1.02808
2.19881
3.18639
2.53573
0.783531
0.639513
1.49145
2.70267
2.93378
2.84742
2.55956
2.28821
2.06717
1.88777
1.73325
1.62153
1.52019
1.42888
-6.20199
-6.40716
-6.67917
-7.00236
-7.40621
-7.90506
-8.4996
-9.21022
-10.021
-10.9515
-12.0048
-13.0627
-14.3014
-15.3749
-16.3958
-17.0499
-17.263
-16.5628
-14.9509
-12.804
-9.8808
-6.39112
-2.97109
0.437736
2.92637
4.62777
4.47985
2.51219
1.86315
2.26165
3.3267
3.51705
3.3391
2.99863
2.66622
2.38945
2.16397
1.96859
1.8183
1.67108
1.532
-6.76246
-7.00488
-7.35339
-7.77406
-8.28543
-8.91066
-9.64393
-10.536
-11.537
-12.7272
-14.0944
-15.4957
-17.1844
-18.6559
-20.1438
-21.1454
-21.631
-21.2015
-19.446
-16.8796
-13.3294
-9.08385
-4.76106
-0.367722
3.54056
6.14888
6.45763
4.48911
3.36756
3.37692
4.03686
4.16599
3.88202
3.4708
3.07078
2.72916
2.44966
2.20488
2.01033
1.81327
1.62461
-7.11716
-7.4494
-7.89315
-8.41735
-9.04016
-9.80314
-10.6763
-11.7688
-12.967
-14.4662
-16.2226
-18.0399
-20.3049
-22.2027
-24.2244
-25.5767
-26.3184
-26.0686
-24.1454
-21.2278
-17.1227
-12.0943
-6.80903
-1.20857
4.07042
7.60601
8.40522
6.6119
5.09758
4.7266
4.92412
4.89551
4.48818
3.98572
3.50672
3.09014
2.74657
2.44163
2.19455
1.93939
1.70169
-7.34313
-7.74476
-8.27089
-8.89167
-9.61614
-10.5235
-11.5335
-12.8584
-14.2706
-16.1434
-18.3715
-20.662
-23.6468
-26.004
-28.5824
-30.1903
-31.1249
-30.9081
-28.8702
-25.6666
-20.9974
-15.2301
-8.89056
-2.01628
4.53464
8.89163
10.2276
8.77006
6.95737
6.21042
5.98865
5.70064
5.1447
4.53528
3.96487
3.46609
3.05181
2.67801
2.36792
2.03866
1.74465
-7.38532
-7.82802
-8.40362
-9.10225
-9.90613
-10.9586
-12.0952
-13.7071
-15.3666
-17.6963
-20.4821
-23.2563
-27.0946
-29.8966
-33.0698
-34.7643
-35.8087
-35.4956
-33.3012
-29.7524
-24.5527
-18.2303
-10.7608
-2.71804
4.95729
10.0307
11.8443
10.8344
8.86474
7.78312
7.16549
6.55796
5.82805
5.09785
4.42994
3.84912
3.36564
2.92132
2.53942
2.12183
1.76721
-7.26438
-7.75391
-8.37039
-9.14717
-10.0214
-11.2165
-12.4618
-14.3632
-16.2344
-19.002
-22.4089
-25.7825
-30.4818
-33.6214
-37.4394
-39.0265
-40.0401
-39.4668
-37.0422
-33.1046
-27.5372
-20.4017
-12.1478
-3.19658
5.37714
11.0311
13.206
12.6783
10.7195
9.3644
8.41147
7.48506
6.56238
5.70093
4.93199
4.26427
3.70522
3.18171
2.71641
2.22114
1.80335
-7.06684
-7.63402
-8.29438
-9.14956
-10.0728
-11.3874
-12.6995
-14.8452
-16.8549
-20.014
-24.067
-28.0661
-33.7202
-36.8152
-41.3917
-42.6607
-43.4472
-42.5418
-39.8784
-35.7767
-29.551
-21.8843
-12.9954
-3.36687
5.81358
11.8231
14.2066
14.1452
12.3802
10.8792
9.70957
8.58501
7.4709
6.45668
5.55908
4.76194
4.07776
3.43012
2.85806
2.30324
1.83412
-6.75943
-7.36524
-8.04328
-8.97395
-9.96548
-11.3942
-12.7271
-15.0295
-17.1944
-20.8288
-25.6027
-29.7975
-36.7574
-39.3488
-44.43
-45.3658
-45.6479
-44.4954
-41.798
-37.4853
-30.8358
-22.4495
-13.0023
-3.14707
6.19747
12.3528
14.8558
15.1044
13.6969
12.2241
10.9256
9.74013
8.46077
7.28225
6.20528
5.23608
4.36915
3.56225
2.88967
2.20159
1.58127
-6.1586
-6.76763
-7.3967
-8.30377
-9.22792
-10.6556
-11.8905
-14.6889
-17.341
-21.5541
-27.1191
-31.0932
-39.1305
-41.7499
-46.129
-46.946
-46.3727
-45.0334
-41.9664
-37.5424
-30.6781
-21.7892
-12.1936
-2.32034
6.82157
12.8673
15.3932
15.772
14.5371
12.9976
11.31
10.0546
8.63142
7.44371
6.22448
5.27429
4.34799
3.49528
2.67124
1.89526
1.0947
-5.55588
-6.20159
-6.87503
-7.69119
-8.61688
-9.99858
-11.4211
-14.3811
-17.7406
-21.9516
-27.9812
-31.6088
-40.2062
-43.3887
-46.5013
-47.1505
-45.8844
-44.5148
-41.2569
-36.9815
-29.5263
-20.3729
-10.5446
-0.770976
7.89681
13.688
15.9691
16.3391
14.7191
12.938
11.0792
9.78365
8.38902
7.25518
6.02482
5.10022
4.22152
3.46009
2.70209
1.92986
1.12034
0.307764
0.306548
0.840641
1.25348
1.3326
1.38923
1.46269
1.47529
1.46524
1.43974
1.41186
1.37252
1.30812
1.20587
1.0692
0.916429
0.318579
-0.604343
-0.578749
0.0935116
0.630457
0.797227
0.929742
1.08168
1.17226
1.21472
1.23978
1.25579
1.25856
1.25153
1.23494
1.19872
1.09135
0.966987
-1.54022
-1.43714
-0.801938
-0.184666
0.102506
0.337578
0.576765
0.746447
0.859986
0.95332
1.03034
1.08868
1.13709
1.16649
1.19475
1.17605
1.21364
-2.55038
-2.37438
-1.60637
-0.988533
-0.65725
-0.354383
-0.0552553
0.173819
0.350537
0.504725
0.637666
0.750815
0.854969
0.945144
1.04444
1.0846
1.23692
-3.5134
-3.24785
-2.58284
-1.97679
-1.56818
-1.20253
-0.854271
-0.570098
-0.332958
-0.1233
0.0605161
0.223037
0.375628
0.518878
0.6695
0.775119
1.04383
-4.54075
-4.24292
-3.45037
-2.88449
-2.5049
-2.10856
-1.73831
-1.43188
-1.1608
-0.91356
-0.691566
-0.489227
-0.296649
-0.115837
0.0796078
0.239684
0.569563
-5.44079
-5.06676
-4.45299
-3.92071
-3.4991
-3.08986
-2.71673
-2.39152
-2.09689
-1.82762
-1.58206
-1.35527
-1.13842
-0.933942
-0.713871
-0.527381
-0.189022
-6.37934
-6.01314
-5.32176
-4.84475
-4.46901
-4.07632
-3.71251
-3.39149
-3.09581
-2.82206
-2.56963
-2.33511
-2.11152
-1.90047
-1.68103
-1.49081
-1.16849
-7.1719
-6.71912
-6.23634
-5.81398
-5.42422
-5.05548
-4.72073
-4.41314
-4.12661
-3.86136
-3.61529
-3.38525
-3.16738
-2.96145
-2.75367
-2.57179
-2.27951
-7.98525
-7.56868
-7.04306
-6.66211
-6.3301
-5.99805
-5.69001
-5.409
-5.14671
-4.90134
-4.67249
-4.45813
-4.25627
-4.06563
-3.87795
-3.71296
-3.46208
-8.58942
-8.15696
-7.79495
-7.47402
-7.15888
-6.86565
-6.60013
-6.35276
-6.1205
-5.90356
-5.70036
-5.50932
-5.32962
-5.15947
-4.99662
-4.8485
-4.64539
-9.24329
-8.85579
-8.45674
-8.15858
-7.89395
-7.64008
-7.4061
-7.19296
-6.99649
-6.81391
-6.64337
-6.48451
-6.33527
-6.19443
-6.06098
-5.93664
-5.78589
-9.52132
-9.24077
-8.98234
-8.72696
-8.48976
-8.27682
-8.08292
-7.90651
-7.74635
-7.59996
-7.46567
-7.34337
-7.22862
-7.12375
-7.02463
-6.93247
-6.83378
-9.7466
-9.54772
-9.35003
-9.15986
-8.97937
-8.8082
-8.64664
-8.49544
-8.35853
-8.23604
-8.12663
-8.02885
-7.94253
-7.87511
-7.80664
-7.75408
-7.70607
-9.57989
-9.46077
-9.34618
-9.22861
-9.11571
-9.00929
-8.90866
-8.81382
-8.72511
-8.6423
-8.56447
-8.49211
-8.42931
-8.37714
-8.32148
-8.30001
-8.28306
-9.45895
-9.32061
-9.20717
-9.10342
-9.00953
-8.92444
-8.84751
-8.77869
-8.71822
-8.66633
-8.62302
-8.58854
-8.56396
-8.54705
-8.52607
-8.53069
-8.52137
-9.07246
-8.98943
-8.9068
-8.82829
-8.75678
-8.6929
-8.63688
-8.58869
-8.54827
-8.5154
-8.48968
-8.47111
-8.46026
-8.45415
-8.44408
-8.46346
-8.45266
-8.76728
-8.64009
-8.54382
-8.46079
-8.38883
-8.32603
-8.27153
-8.2246
-8.18482
-8.15173
-8.12478
-8.10404
-8.09012
-8.07903
-8.06511
-8.08877
-8.07014
-8.06685
-8.0119
-7.94603
-7.87687
-7.81006
-7.74749
-7.69034
-7.63894
-7.59346
-7.5538
-7.51956
-7.49115
-7.46926
-7.44951
-7.43187
-7.45722
-7.42831
-7.56239
-7.3932
-7.26357
-7.15424
-7.06011
-6.97649
-6.90191
-6.83526
-6.77624
-6.7243
-6.67859
-6.64012
-6.61039
-6.58317
-6.56177
-6.58303
-6.53277
-6.49836
-6.41987
-6.32537
-6.22086
-6.11812
-6.01955
-5.92738
-5.84232
-5.76502
-5.69532
-5.63259
-5.57855
-5.53514
-5.4945
-5.45905
-5.46382
-5.38163
-5.85998
-5.60508
-5.40803
-5.23556
-5.08343
-4.94572
-4.82071
-4.70691
-4.60382
-4.51068
-4.42633
-4.35226
-4.29052
-4.23043
-4.17458
-4.17042
-4.05336
-4.56113
-4.40659
-4.23842
-4.06257
-3.89429
-3.73513
-3.58686
-3.44954
-3.3236
-3.2088
-3.10316
-3.00728
-2.92381
-2.83947
-2.76183
-2.75419
-2.60373
-3.76779
-3.39796
-3.12048
-2.87802
-2.66245
-2.46521
-2.28413
-2.11711
-1.96411
-1.82656
-1.69837
-1.58238
-1.48599
-1.37822
-1.28779
-1.2741
-1.09427
-2.26294
-2.05161
-1.81991
-1.57178
-1.3367
-1.11736
-0.916367
-0.731711
-0.563779
-0.411409
-0.26842
-0.140378
-0.0324041
0.0916333
0.192243
0.216031
0.419994
-1.3856
-0.913879
-0.561718
-0.258164
0.00463726
0.241693
0.455899
0.651189
0.827707
0.987877
1.13838
1.27254
1.3875
1.52115
1.6284
1.65944
1.88325
0.241293
0.513847
0.789643
1.07799
1.34246
1.58402
1.80151
1.99851
2.17549
2.33589
2.48678
2.62094
2.73733
2.87501
2.98454
3.01928
3.2583
1.13706
1.67595
2.0538
2.372
2.64111
2.87962
3.09146
3.28176
3.45168
3.6056
3.7509
3.88014
3.99391
4.13145
4.24073
4.27992
4.52846
2.7447
3.06202
3.34429
3.63032
3.88303
4.10754
4.30516
4.48104
4.6371
4.77868
4.91321
5.0333
5.1412
5.27549
5.3832
5.42675
5.67999
3.65677
4.17565
4.53198
4.81683
5.05087
5.25257
5.42765
5.58221
5.71887
5.84348
5.96304
6.07071
6.1703
6.29802
6.40118
6.44762
6.70326
5.12855
5.44515
5.68965
5.92949
6.13023
6.30219
6.44906
6.57733
6.6904
6.79445
6.89606
6.9894
7.07909
7.19837
7.29734
7.34636
7.59981
6.01407
6.45916
6.74441
6.95368
7.11712
7.25221
7.3653
7.46293
7.54902
7.62997
7.71193
7.79029
7.87004
7.98027
8.0742
8.12687
8.37555
7.29097
7.56175
7.72501
7.88361
8.00196
8.09638
8.17184
8.2363
8.2947
8.35292
8.41559
8.47956
8.55028
8.65098
8.73885
8.79719
9.0388
8.10228
8.4376
8.61408
8.71842
8.785
8.83209
8.86739
8.89898
8.93194
8.97057
9.01691
9.06809
9.13013
9.22035
9.30212
9.36809
9.59577
9.16639
9.35198
9.39677
9.44176
9.45414
9.4597
9.46291
9.46755
9.47571
9.49374
9.5252
9.56617
9.61977
9.69862
9.77492
9.84888
10.0542
9.8839
10.0504
10.0706
10.0564
10.0311
10.003
9.97614
9.95413
9.94084
9.94037
9.95048
9.98004
10.0264
10.0946
10.166
10.2458
10.4202
10.7099
10.7133
10.6471
10.5919
10.5306
10.4713
10.4162
10.3691
10.3334
10.3133
10.3099
10.3214
10.3591
10.4176
10.4815
10.5589
10.6964
11.264
11.2303
11.1497
11.0554
10.9627
10.8744
10.7933
10.7233
10.6681
10.6307
10.613
10.6131
10.6358
10.6811
10.731
10.792
10.8889
11.8336
11.7288
11.5791
11.4556
11.3342
11.2207
11.1161
11.0256
10.9532
10.9015
10.8711
10.8608
10.8655
10.8904
10.9209
10.9615
11.0203
12.2335
12.1075
11.9547
11.8042
11.6595
11.5207
11.3911
11.2781
11.1856
11.1154
11.0676
11.0405
11.0292
11.0292
11.0392
11.0701
11.113
14.6431
15.7032
16.8831
17.8922
18.9821
19.7828
20.5048
20.9851
21.2292
21.3648
21.1829
21.1593
20.6674
20.4456
19.9005
19.6028
19.0638
18.7479
18.2766
17.9667
17.5695
17.2906
16.948
16.6966
16.4046
16.1716
15.9231
15.711
15.5043
15.317
15.1328
14.9494
14.7659
14.5616
14.3605
14.1301
13.9
13.6229
13.3424
12.9912
12.6575
14.7918
15.7466
16.6554
17.5553
18.3986
19.1322
19.7179
20.1369
20.4063
20.5099
20.4535
20.3298
20.0401
19.7531
19.3719
19.0216
18.6282
18.2682
17.9044
17.5735
17.2502
16.9563
16.6697
16.4002
16.1505
15.9169
15.6988
15.4928
15.3
15.1145
14.9326
14.7509
14.5639
14.3697
14.1594
13.9374
13.6963
13.4368
13.1496
12.8349
12.4887
14.9202
15.6906
16.4332
17.172
17.8645
18.4825
18.9855
19.3649
19.6198
19.7472
19.748
19.6265
19.427
19.1717
18.8645
18.5421
18.2113
17.8774
17.5601
17.2504
16.9611
16.6764
16.4094
16.1556
15.9215
15.7002
15.4937
15.297
15.1104
14.929
14.7499
14.5692
14.3831
14.1898
13.9827
13.7589
13.5146
13.2549
12.9649
12.6605
12.3015
14.9794
15.5992
16.2023
16.8068
17.384
17.9058
18.3451
18.6848
18.9166
19.0623
19.1001
19.0115
18.8609
18.6561
18.4031
18.1242
17.8376
17.5458
17.2621
16.9802
16.7078
16.4433
16.1927
15.9554
15.7327
15.5229
15.3246
15.1361
14.9544
14.7753
14.5953
14.4112
14.2208
14.0222
13.8135
13.5909
13.3471
13.0843
12.7964
12.4919
12.1356
14.9807
15.4802
15.9694
16.4719
16.9529
17.3949
17.7785
18.0835
18.3018
18.4435
18.5076
18.4741
18.3535
18.195
17.9904
17.7554
17.5074
17.2503
16.9963
16.738
16.4844
16.2399
16.0056
15.7829
15.5721
15.3726
15.183
15.0002
14.8204
14.64
14.456
14.2663
14.0692
13.8636
13.6477
13.4196
13.1768
12.9155
12.6275
12.3249
11.9696
14.9438
15.3479
15.7484
16.168
16.5772
16.9547
17.2895
17.5652
17.7709
17.9041
17.9798
17.9895
17.9075
17.7826
17.6219
17.4277
17.2159
16.9918
16.7589
16.5242
16.2923
16.0661
15.8476
15.6381
15.438
15.2464
15.0612
14.8792
14.6971
14.5123
14.3227
14.1266
13.9226
13.7094
13.4857
13.2502
13.0005
12.7354
12.4484
12.1489
11.8015
14.9102
15.2334
15.5582
15.9086
16.2579
16.5828
16.8745
17.1227
17.3158
17.4484
17.5213
17.5495
17.517
17.4204
17.2941
17.1365
16.9576
16.7635
16.5511
16.337
16.1247
15.9155
15.711
15.5126
15.3199
15.1321
14.9475
14.7635
14.5775
14.3875
14.1916
13.9884
13.7769
13.556
13.3249
13.0826
12.8276
12.5599
12.2735
11.9809
11.645
14.8911
15.1501
15.4132
15.6998
15.9905
16.274
16.5295
16.7511
16.9303
17.0602
17.1386
17.1708
17.1672
17.105
17.0057
16.8792
16.7274
16.5546
16.3693
16.1744
15.9787
15.7835
15.5898
15.3986
15.21
15.0233
14.8374
14.6502
14.4592
14.2628
14.0596
13.8486
13.6291
13.4006
13.1629
12.9156
12.6577
12.3901
12.108
11.8254
11.5052
14.8858
15.0956
15.3102
15.5438
15.7846
16.0257
16.2488
16.4451
16.6091
16.7343
16.8169
16.857
16.8602
16.8311
16.7562
16.6534
16.5236
16.3727
16.2101
16.0345
15.8527
15.6687
15.4827
15.2957
15.1082
14.92
14.7303
14.5376
14.3399
14.1359
13.9247
13.7056
13.4782
13.2425
12.999
12.7485
12.491
12.2273
11.9535
11.6846
11.3846
14.8917
15.0619
15.2373
15.4291
15.6276
15.8283
16.0231
16.1972
16.3458
16.4641
16.5478
16.5953
16.6066
16.5932
16.5414
16.4579
16.347
16.2165
16.0712
15.9147
15.7457
15.5707
15.3907
15.2061
15.0177
14.8259
14.6302
14.4293
14.2228
14.0097
13.789
13.561
13.3258
13.0838
12.8363
12.5844
12.3291
12.0729
11.8118
11.5603
11.2851
14.9056
15.0438
15.1874
15.3458
15.511
15.6793
15.8454
15.9994
16.1331
16.2429
16.3251
16.3774
16.3991
16.3917
16.3582
16.2912
16.1986
16.0851
15.955
15.8118
15.6534
15.4846
15.3078
15.1235
14.9322
14.7346
14.5313
14.322
14.1057
13.8822
13.6516
13.4144
13.1719
12.9252
12.6756
12.4249
12.1752
11.929
11.6843
11.454
11.2081
14.9231
15.0367
15.1548
15.2862
15.4245
15.5664
15.7077
15.8435
15.9638
16.0648
16.1439
16.1986
16.2273
16.2294
16.2053
16.1535
16.0765
15.9772
15.8589
15.724
15.5736
15.4074
15.2296
15.0413
14.8434
14.6371
14.424
14.2052
13.9781
13.7433
13.5028
13.2578
13.0099
12.7611
12.5127
12.2673
12.0281
11.7966
11.5731
11.3676
11.1538
14.9416
15.0367
15.1354
15.245
15.3615
15.4819
15.6031
15.7213
15.8316
15.926
16.002
16.0575
16.0906
16.0999
16.0846
16.0441
15.9792
15.891
15.7821
15.6544
15.51
15.3463
15.1667
14.9729
14.7662
14.5493
14.324
14.0903
13.8489
13.601
13.3498
13.0977
12.8464
12.5974
12.3529
12.1163
11.8909
11.6783
11.4793
11.2997
11.1182
14.9583
15.0378
15.1233
15.2174
15.3181
15.4226
15.5285
15.633
15.7329
15.8228
15.8965
15.9521
15.9879
16.0024
15.9946
15.9613
15.9056
15.8258
15.7236
15.6012
15.461
15.3007
15.1212
14.9238
14.7097
14.483
14.2443
13.9931
13.736
13.4754
13.2135
12.9542
12.6998
12.452
12.2132
11.9873
11.7745
11.5787
11.4019
11.2441
11.0946
14.9733
15.0358
15.1116
15.1948
15.2845
15.3781
15.4738
15.5687
15.6597
15.7435
15.8156
15.8724
15.9118
15.9316
15.9302
15.9059
15.856
15.7828
15.6852
15.5644
15.4212
15.2558
15.0683
14.8609
14.6359
14.3944
14.1397
13.8751
13.6057
13.3355
13.0666
12.8026
12.5474
12.3043
12.074
11.8615
11.6644
11.487
11.3328
11.1991
11.0886
14.9955
15.0399
15.1001
15.1683
15.2453
15.3295
15.416
15.5025
15.5871
15.6679
15.7422
15.8048
15.8511
15.879
15.8864
15.8713
15.8289
15.7622
15.668
15.5462
15.396
15.2178
15.013
14.7849
14.5392
14.2747
13.9978
13.7154
13.4323
13.1516
12.8777
12.6131
12.3615
12.1266
11.9087
11.7081
11.5347
11.3873
11.2674
11.1735
11.1068
15.0446
15.0573
15.0961
15.1511
15.217
15.2902
15.3689
15.4508
15.533
15.6127
15.6869
15.7525
15.8062
15.8435
15.8601
15.8525
15.8185
15.757
15.6655
15.543
15.3907
15.2112
15.0026
14.766
14.5033
14.2222
13.9276
13.6283
13.3289
13.0346
12.7512
12.4842
12.2359
12.007
11.8016
11.6203
11.4649
11.3377
11.2392
11.1711
11.1471
-2.85064
-2.95693
-3.51714
-4.23038
-4.86385
-5.44127
-5.96818
-6.40478
-6.66622
-6.83673
-6.93481
-6.90498
-6.71771
-6.47154
-6.17988
-5.65635
-5.04332
-3.2937
-3.91878
-4.37648
-4.98739
-5.47733
-5.92111
-6.27736
-6.51483
-6.61254
-6.68915
-6.68147
-6.52809
-6.26168
-5.9628
-5.63849
-5.10097
-4.5101
-4.05771
-4.79853
-5.1387
-5.57347
-5.90601
-6.17819
-6.35741
-6.43542
-6.47375
-6.46609
-6.35494
-6.12536
-5.81952
-5.50937
-5.17796
-4.65068
-4.13451
-4.78082
-5.38727
-5.66277
-5.95011
-6.14872
-6.28389
-6.32694
-6.33931
-6.29373
-6.18664
-5.99297
-5.71466
-5.39185
-5.0776
-4.73504
-4.25844
-3.80554
-5.40456
-5.82027
-6.00104
-6.1573
-6.24075
-6.26387
-6.24539
-6.17248
-6.04614
-5.8652
-5.61845
-5.31429
-4.9874
-4.67188
-4.31164
-3.82061
-3.38207
-5.86909
-6.08938
-6.17547
-6.22476
-6.2269
-6.17224
-6.07391
-5.93067
-5.74202
-5.51071
-5.23385
-4.91913
-4.59265
-4.27851
-3.91873
-3.43955
-3.0606
-6.1466
-6.20834
-6.21111
-6.18081
-6.10054
-5.98126
-5.82495
-5.63193
-5.40119
-5.1392
-4.84619
-4.52207
-4.19847
-3.88429
-3.52449
-3.08474
-2.77011
-6.23834
-6.18727
-6.13081
-6.02223
-5.88378
-5.71194
-5.51258
-5.28264
-5.02453
-4.74466
-4.44732
-4.12528
-3.80355
-3.4952
-3.13939
-2.70965
-2.42099
-6.20993
-6.03605
-5.9332
-5.76166
-5.57956
-5.37053
-5.1404
-4.88676
-4.61425
-4.32639
-4.02842
-3.71602
-3.40093
-3.10295
-2.76273
-2.36077
-2.15002
-6.02259
-5.76972
-5.62783
-5.40972
-5.19984
-4.96495
-4.71509
-4.44942
-4.17198
-3.88452
-3.59073
-3.2889
-2.98519
-2.70057
-2.37896
-2.01775
-1.86819
-5.70209
-5.39385
-5.2205
-4.97773
-4.75089
-4.49977
-4.24246
-3.9741
-3.69866
-3.41755
-3.13411
-2.84722
-2.56092
-2.29306
-1.99724
-1.6599
-1.50706
-5.26096
-4.92156
-4.72682
-4.47273
-4.23641
-3.98211
-3.72564
-3.46191
-3.19543
-2.92682
-2.65884
-2.39172
-2.12709
-1.87862
-1.61361
-1.30932
-1.21267
-4.70129
-4.35445
-4.15406
-3.90201
-3.66692
-3.41722
-3.16846
-2.91568
-2.66326
-2.41297
-2.16561
-1.92148
-1.67966
-1.44871
-1.20816
-0.944682
-0.88682
-4.04816
-3.7113
-3.51698
-3.27274
-3.04808
-2.8101
-2.57463
-2.34134
-2.10804
-1.87872
-1.65387
-1.43267
-1.21141
-1.00103
-0.79046
-0.551241
-0.437037
-3.34095
-3.01946
-2.83891
-2.60142
-2.3839
-2.16716
-1.94626
-1.73535
-1.52694
-1.3208
-1.11644
-0.912683
-0.714359
-0.530123
-0.352118
-0.149302
-0.0763493
-2.5771
-2.26016
-2.08901
-1.88709
-1.67214
-1.48355
-1.28398
-1.08825
-0.897177
-0.70974
-0.529306
-0.357132
-0.192853
-0.0369322
0.113448
0.269219
0.299674
-1.62767
-1.36966
-1.17663
-1.0303
-0.831958
-0.66864
-0.505216
-0.345608
-0.194493
-0.0490538
0.0899671
0.221502
0.346223
0.464108
0.573893
0.693127
0.783107
-0.433397
-0.31358
-0.130428
-0.0421481
0.094637
0.211978
0.324214
0.43705
0.543895
0.645461
0.742174
0.832631
0.916182
0.992122
1.06126
1.13214
1.14557
0.854785
0.829911
0.971635
1.00811
1.08609
1.15807
1.21798
1.27871
1.33597
1.38746
1.43468
1.47829
1.51858
1.55565
1.58877
1.61188
1.595
2.16609
2.09352
2.16326
2.15256
2.15837
2.16895
2.16942
2.17022
2.17073
2.16926
2.16553
2.15987
2.15297
2.1458
2.13908
2.13526
2.14687
3.5624
3.37494
3.38235
3.30623
3.24798
3.19621
3.14162
3.0915
3.04329
2.99325
2.94168
2.88893
2.83473
2.77712
2.715
2.64793
2.57417
5.00339
4.69275
4.656
4.5043
4.37567
4.26554
4.14319
4.0279
3.9177
3.81309
3.71335
3.61673
3.52021
3.42254
3.32343
3.21655
3.08786
6.41822
6.00729
5.92354
5.70992
5.50597
5.33781
5.15547
4.97729
4.80997
4.6458
4.48578
4.33442
4.19135
4.05227
3.91929
3.80362
3.73674
7.76736
7.2709
7.14315
6.88668
6.6129
6.38914
6.1538
5.91775
5.69474
5.47623
5.26142
5.05352
4.85306
4.66067
4.46673
4.27069
4.07239
9.0224
8.47309
8.29867
8.01197
7.6817
7.40748
7.12634
6.8384
6.56256
6.29285
6.02694
5.76844
5.51821
5.27954
5.04682
4.79881
4.50557
10.1456
9.59087
9.37567
9.0727
8.70876
8.38615
8.06409
7.73214
7.40862
7.09094
6.77636
6.46801
6.16767
5.87971
5.61098
5.35568
5.17146
11.0919
10.5599
10.3306
10.0258
9.65389
9.31006
8.95776
8.59078
8.22792
7.86789
7.50912
7.15467
6.80618
6.46593
6.13744
5.80442
5.48293
11.8894
11.4001
11.1667
10.8677
10.5038
10.1548
9.79125
9.40629
9.01475
8.62069
8.22351
7.82725
7.436
7.0532
6.68673
6.30118
5.83973
12.5434
12.1045
11.8807
11.599
11.2552
10.915
10.5536
10.1658
9.76272
9.34686
8.92001
8.48707
8.05383
7.62801
7.2282
6.83081
6.51753
13.0758
12.6921
12.4865
12.2276
11.9119
11.5915
11.2445
10.8672
10.4681
10.0446
9.59952
9.1382
8.66774
8.1998
7.75231
7.28667
6.83623
13.5074
13.177
12.994
12.7626
12.48
12.187
11.865
11.5125
11.1285
10.7114
10.2616
9.78268
9.28263
8.77679
8.29652
7.78847
7.16235
13.8572
13.5772
13.4166
13.2142
12.9671
12.7065
12.4187
12.0973
11.7402
11.3434
10.9038
10.4214
9.90257
9.35947
8.85041
8.32925
7.87372
14.1394
13.9075
13.7685
13.5936
13.3816
13.157
12.906
12.6208
12.2996
11.9353
11.5212
11.0523
10.5301
9.962
9.41652
8.84387
8.26736
14.3656
14.1765
14.0588
13.9103
13.7323
13.5438
13.3289
13.0836
12.8041
12.4821
12.1077
11.6703
11.1635
10.5887
10.0113
9.42113
8.68522
14.5448
14.3931
14.2969
14.1744
14.0286
13.8711
13.6921
13.4872
13.2523
12.9791
12.656
12.2674
11.7984
11.2386
10.6364
10.0485
9.49542
14.686
14.5691
14.4918
14.3922
14.275
14.146
14.0004
13.8343
13.6441
13.4227
13.1584
12.8331
12.4242
11.9108
11.3101
10.6919
10.052
14.7989
14.7076
14.6457
14.5692
14.4772
14.3748
14.2597
14.1294
13.9816
13.8115
13.6094
13.3576
13.0269
12.5859
12.0288
11.4175
10.7
14.8846
14.8126
14.7692
14.7146
14.6458
14.5676
14.4798
14.3816
14.2722
14.1498
14.0085
13.8346
13.5955
13.2498
12.7675
12.2175
11.7219
14.9544
14.9058
14.872
14.8346
14.7871
14.7317
14.6695
14.6006
14.526
14.4464
14.3606
14.2626
14.1209
13.8865
13.5301
13.0518
12.4868
15.0162
14.9726
14.9429
14.9185
14.8898
14.8557
14.8177
14.7775
14.7373
14.6993
14.665
14.6366
14.5913
14.4773
14.275
13.9282
13.4081
-6.11134
-7.70242
-10.0574
-13.7024
-20.3157
-28.4519
-41.583
-46.0995
-44.1498
-38.5172
-23.4194
-3.56163
11.1418
16.0941
13.8507
10.8617
8.01241
5.37008
3.15358
1.19513
-6.03376
-7.66144
-9.99404
-13.543
-20.8152
-29.3319
-39.9512
-43.6316
-42.8014
-38.3414
-23.0372
-2.75632
10.5851
15.0515
13.291
10.7131
8.03042
5.3819
3.07489
1.03029
-6.00628
-7.64058
-9.86755
-13.1655
-20.187
-28.7936
-37.0457
-40.4758
-41.6696
-39.6286
-24.8395
-4.31075
9.20897
13.8123
12.4292
10.1886
7.71188
5.12517
2.7761
0.666119
-5.99463
-7.62089
-9.71582
-12.6413
-18.3282
-26.6118
-33.1672
-36.9901
-40.862
-41.3968
-27.8794
-7.52345
6.95316
12.0289
11.0163
9.16019
6.95579
4.53427
2.20378
0.0940004
-6.06468
-7.70733
-9.69678
-12.6682
-16.33
-24.0517
-28.9932
-33.8007
-40.3418
-43.5505
-32.3366
-12.3089
3.49627
9.34519
8.93836
7.4989
5.72835
3.5444
1.28469
-0.774635
-6.21585
-7.83109
-9.68299
-13.1838
-15.7833
-21.4801
-25.1568
-31.1802
-40.3924
-46.1619
-38.8103
-19.4335
-2.44317
5.12072
5.90599
5.03811
3.72098
2.02185
-0.0452607
-2.00902
-6.40272
-7.88507
-9.64802
-12.7322
-15.2991
-18.8769
-21.982
-29.2049
-40.9403
-49.5124
-46.3413
-29.721
-11.8311
-1.51657
1.54968
1.56428
0.831912
-0.343211
-1.92167
-3.66429
-6.63789
-7.95471
-9.67891
-11.5569
-13.8076
-16.2503
-19.6452
-28.1682
-42.1011
-53.6911
-54.893
-42.8624
-24.9332
-11.493
-5.13463
-3.1779
-3.15539
-3.71697
-4.63255
-5.86767
-6.96893
-8.23245
-9.91063
-10.3293
-12.4242
-14.1876
-18.3005
-28.2467
-43.6839
-58.5635
-64.2023
-58.0647
-41.5617
-25.6403
-15.2467
-10.2964
-8.5023
-8.22086
-8.43422
-8.90695
-7.3928
-8.66718
-9.95886
-10.0038
-11.7826
-13.1178
-17.9983
-28.761
-45.3934
-62.8667
-72.6906
-73.0876
-60.2078
-43.2419
-29.3032
-20.4997
-16.0972
-14.2284
-13.2712
-12.9541
-7.93087
-9.07965
-9.64926
-10.0026
-11.3774
-12.9659
-18.7289
-29.694
-46.7813
-65.7298
-79.0745
-83.9304
-76.8013
-61.6541
-46.0436
-33.6032
-26.1256
-22.1197
-19.4293
-17.9029
-8.66016
-9.49046
-9.27583
-10.0611
-11.2038
-13.989
-20.37
-30.9418
-47.513
-66.79
-82.015
-89.1864
-87.8119
-77.1416
-62.8239
-48.5685
-38.163
-31.5694
-26.8102
-24.0903
-9.46542
-9.81147
-9.65133
-10.9279
-12.1399
-16.0163
-22.6553
-32.3605
-47.4706
-65.4904
-81.7985
-90.2006
-91.5197
-86.5379
-76.533
-63.9309
-51.6334
-42.3086
-35.4668
-31.5445
-10.2655
-10.3169
-11.068
-12.4279
-14.2384
-18.8811
-25.277
-33.7273
-46.1146
-61.0278
-76.0844
-86.2176
-89.2668
-87.2735
-82.6334
-74.976
-64.7901
-54.1213
-45.026
-39.3802
-11.5
-12.0257
-13.8879
-15.0979
-17.4562
-22.2787
-27.966
-34.9283
-44.4568
-55.7692
-67.9441
-78.195
-82.8368
-82.3817
-80.134
-76.3006
-70.905
-63.3686
-54.737
-47.3615
-13.5676
-14.973
-17.7535
-19.1588
-21.5038
-25.8359
-30.4768
-35.9105
-42.9414
-51.085
-59.8979
-68.323
-73.1266
-73.8099
-73.0016
-71.0469
-68.1909
-64.3725
-59.6608
-54.1835
-18.3748
-19.8483
-22.7522
-23.949
-25.8342
-29.1384
-32.595
-36.5986
-41.5321
-47.1101
-52.9493
-58.729
-62.652
-63.8756
-63.7109
-62.6738
-60.8404
-58.9429
-57.3851
-55.1175
-26.6672
-26.9658
-28.1686
-28.3976
-29.6444
-31.7838
-34.1649
-36.9478
-40.2155
-43.8063
-47.5969
-51.2582
-53.9697
-55.0974
-55.0403
-54.4553
-53.216
-51.6566
-50.6886
-49.7403
-33.3054
-32.5836
-32.1061
-31.7421
-32.2397
-33.5216
-35.0653
-36.8286
-38.8692
-41.1803
-43.6859
-46.1657
-48.1069
-49.1723
-49.376
-49.0324
-48.1786
-46.8298
-45.4573
-44.3878
-35.7481
-34.3643
-33.7393
-33.5144
-33.7565
-34.3936
-35.1444
-36.012
-36.9946
-38.1594
-39.5171
-40.9859
-42.3873
-43.4838
-43.8404
-43.7126
-43.3349
-42.7649
-42.2197
-42.1186
-42.4898
-41.5661
-44.0243
-49.1571
-47.8232
-43.3493
-37.8765
-31.4145
-25.0085
-19.3195
-14.6285
-10.8694
-7.97683
-5.82995
-4.2103
-2.98674
-2.08305
-1.44279
-1.01329
-0.740533
-43.8798
-41.1953
-41.216
-45.4913
-44.089
-40.728
-36.341
-31.0955
-25.7992
-20.7584
-16.4438
-12.9471
-10.1702
-8.00415
-6.39515
-5.18142
-4.24972
-3.55059
-3.03198
-2.68806
-45.5832
-41.1058
-39.6139
-41.8688
-40.8688
-38.1738
-34.6877
-30.5217
-26.2387
-21.9823
-18.0972
-14.8347
-12.2019
-10.1095
-8.46792
-7.23312
-6.29281
-5.57084
-5.00397
-4.60373
-47.5151
-42.1594
-39.4296
-39.4302
-38.3722
-36.0213
-33.1194
-29.742
-26.2259
-22.8193
-19.4982
-16.5256
-14.0306
-12.0021
-10.3834
-9.11237
-8.14695
-7.41103
-6.82578
-6.40275
-49.5
-44.2578
-39.8278
-38.1412
-36.7534
-34.2948
-31.6862
-28.8234
-25.8939
-23.1061
-20.4598
-17.9282
-15.6577
-13.7231
-12.1291
-10.846
-9.83365
-9.05986
-8.45359
-8.00899
-51.3693
-47.2177
-41.0194
-37.6183
-35.6688
-32.9141
-30.3779
-27.7845
-25.233
-22.8311
-20.6151
-18.606
-16.7682
-15.0964
-13.626
-12.3718
-11.3254
-10.4777
-9.81928
-9.31159
-52.9744
-50.1689
-42.5656
-37.4364
-34.786
-31.6663
-29.0632
-26.5705
-24.2392
-22.0871
-20.1206
-18.3432
-16.7456
-15.3334
-14.0857
-12.9913
-12.0437
-11.2348
-10.5648
-9.9916
-54.181
-51.6938
-43.4736
-37.0385
-33.7257
-30.272
-27.554
-25.0748
-22.8609
-20.8664
-19.0728
-17.4656
-16.0292
-14.7524
-13.6218
-12.6272
-11.7604
-11.0179
-10.3893
-9.82143
-54.7623
-50.9564
-42.9915
-35.9894
-32.2424
-28.5606
-25.7549
-23.2749
-21.1326
-19.243
-17.5738
-16.0976
-14.7918
-13.6391
-12.6253
-11.7366
-10.9579
-10.2743
-9.67731
-9.15602
-54.3519
-48.836
-41.4945
-34.3097
-30.3614
-26.55
-23.676
-21.1819
-19.0782
-17.2611
-15.6845
-14.308
-13.1015
-12.0439
-11.1193
-10.31
-9.59556
-8.96578
-8.43266
-8.00893
-53.4902
-46.0511
-39.397
-32.0631
-27.8848
-23.9225
-20.9724
-18.4743
-16.4124
-14.6679
-13.1839
-11.91
-10.8102
-9.85985
-9.03845
-8.31884
-7.67786
-7.13434
-6.74415
-6.45823
-52.8497
-42.9981
-36.5216
-28.9244
-24.5869
-20.5277
-17.537
-15.0606
-13.0629
-11.412
-10.0423
-8.89491
-7.92741
-7.1095
-6.41416
-5.80859
-5.28611
-4.91048
-4.71538
-4.55014
-52.174
-39.5042
-32.994
-25.0052
-20.481
-16.3691
-13.371
-10.9397
-9.03108
-7.50576
-6.28932
-5.31109
-4.51807
-3.87186
-3.34524
-2.91529
-2.58724
-2.39017
-2.35575
-2.28749
-51.1343
-35.0885
-28.7747
-20.4894
-15.6465
-11.4445
-8.45594
-6.11863
-4.37371
-3.05373
-2.064
-1.31614
-0.750065
-0.327807
-0.0295078
0.171785
0.317331
0.393857
0.205817
0.193178
-49.9532
-29.444
-23.6451
-15.1598
-9.95513
-5.61189
-2.77842
-0.728951
0.639799
1.59331
2.24315
2.69297
2.98584
3.14225
3.18805
3.20799
3.23007
3.22693
2.86904
2.66818
-50.2182
-25.306
-17.6893
-8.18957
-3.17884
0.918145
3.07067
4.50998
5.34955
5.85649
6.13885
6.27612
6.26918
6.19074