/*--------------------------------*- C++ -*----------------------------------*\
  =========                 |
  \\      /  F ield         | OpenFOAM: The Open Source CFD Toolbox
   \\    /   O peration     | Website:  https://openfoam.org
    \\  /    A nd           | Version:  6
     \\/     M anipulation  |
\*---------------------------------------------------------------------------*/
FoamFile
{
    version     2.0;
    format      ascii;
    class       surfaceScalarField;
    location    "3";
    object      phi;
}
// * * * * * * * * * * * * * * * * * * * * * * * * * * * * * * * * * * * * * //

dimensions      [0 3 -1 0 0 0 0];

internalField   nonuniform List<scalar> 
11520
(
-0.000152306
0.000576447
-0.000296638
-4.31373e-05
0.000533687
-0.000347363
8.39374e-05
0.0004288
-0.000350889
0.00021193
0.000276081
-0.000307946
0.00032218
9.83559e-05
-0.000223841
0.00039702
-7.59909e-05
-0.000108697
0.000423012
-0.000217965
2.3039e-05
0.000393885
-0.000303948
0.000153795
0.000312564
-0.000320807
0.000264194
0.000191759
-0.000268062
0.00033488
5.22176e-05
-0.000156385
0.00035024
-8.17141e-05
-4.02525e-06
0.000303957
-0.000187906
0.000166536
0.00020329
-0.000251122
0.000331087
6.81812e-05
-0.000264726
0.000466238
-7.5224e-05
0.00055239
-0.000202637
-0.000131905
0.00059781
-0.00027581
2.07661e-05
0.00052564
-0.000321033
0.000186544
0.000403642
-0.000310237
0.000342338
0.000248336
-0.000247999
0.000465855
8.29925e-05
-0.000144005
0.000538501
-6.54407e-05
-1.16739e-05
0.000548068
-0.000171199
0.000133221
0.000490865
-0.000215502
0.000273292
0.000373297
-0.000191392
0.000389364
0.000212463
-0.000105208
0.000461072
3.44791e-05
2.62434e-05
0.000470825
-0.00013036
0.000180936
0.000411022
-0.000254459
0.000336108
0.000289954
-0.000318937
0.00047074
0.000131188
-0.000316376
0.000567003
-3.40519e-05
0.000611708
-0.000176606
-9.75886e-05
0.000554654
-0.000197908
8.69025e-05
0.000453539
-0.000235369
0.000276855
0.000320082
-0.000218268
0.00044507
0.000171981
-0.00015349
0.000567779
3.12147e-05
-5.19727e-05
0.000627491
-7.86887e-05
7.35554e-05
0.000614874
-0.000137026
0.00020988
0.000529898
-0.000131328
0.000342748
0.000382739
-6.18488e-05
0.000454889
0.000194125
5.76554e-05
0.000525635
-6.3839e-06
0.000204141
0.000535611
-0.000185351
0.00035229
0.000475675
-0.000312694
0.000480243
0.000354019
-0.000368266
0.000571965
0.000195335
-0.000345171
0.000617258
3.21673e-05
0.000611304
-0.000105673
-5.52843e-05
0.000446664
-7.32518e-05
0.000144466
0.000322008
-0.000102781
0.00034001
0.000185948
-8.88621e-05
0.000502683
5.58913e-05
-3.85789e-05
0.000609736
-4.93755e-05
3.93499e-05
0.00064682
-0.000111612
0.000136714
0.000608896
-0.000116634
0.000246027
0.000500308
-5.91076e-05
0.00035814
0.000334822
5.33946e-05
0.000458628
0.000135411
0.000200261
0.000527079
-6.75775e-05
0.000353246
0.000542863
-0.00024107
0.000485002
0.000495497
-0.000355962
0.000575885
0.000392145
-0.000393364
0.000616102
0.000256075
-0.000348066
0.000604234
0.000117294
0.000544816
2.04757e-06
-1.13458e-05
0.000286125
7.15835e-05
0.00018299
0.000147822
4.84249e-05
0.000362968
1.98786e-05
5.06315e-05
0.000501592
-8.23533e-05
7.30224e-05
0.000579712
-0.000145055
0.000112003
0.000587851
-0.000156605
0.00016661
0.000526098
-0.000109958
0.000236863
0.000403149
-6.70832e-06
0.000319437
0.000235377
0.000139312
0.00040305
4.58909e-05
0.000302412
0.000468152
-0.000137384
0.000451197
0.000493832
-0.000285489
0.000558042
0.000468794
-0.000373702
0.000606546
0.000398368
-0.000386667
0.000593468
0.000302076
-0.000321663
0.000526069
0.000204134
0.000418038
0.000123949
2.85418e-05
9.92253e-05
0.000202347
0.000195017
-3.99686e-05
0.00018365
0.000338664
-0.000149908
0.000168916
0.000437318
-0.000218869
0.000156342
0.000477577
-0.000238983
0.000149147
0.000455812
-0.000205436
0.00015479
0.000377195
-0.000117703
0.000181053
0.000253849
1.70957e-05
0.000230101
0.000102985
0.000181045
0.000293745
-5.47814e-05
0.000346104
0.00035411
-0.000197214
0.000480408
0.000391288
-0.000302851
0.000557867
0.000393835
-0.000354176
0.000565736
0.000364568
-0.000341089
0.00050647
0.000317483
-0.000263698
0.000394506
0.000268914
0.000251065
0.000229666
5.99201e-05
-7.8677e-05
0.000290873
0.000178773
-0.000205908
0.000275821
0.000270069
-0.000291831
0.00024314
0.000318898
-0.00032908
0.000195043
0.000318776
-0.000315381
0.000142
0.000271932
-0.000251502
9.96751e-05
0.000187716
-0.000141555
8.26936e-05
8.00522e-05
4.27244e-06
9.77447e-05
-3.52416e-05
0.000166991
0.000139602
-0.00014266
0.000319445
0.000193042
-0.000228328
0.00043207
0.000240493
-0.000280645
0.000481749
0.000271021
-0.000291054
0.000459018
0.00028455
-0.000255606
0.000370046
0.000288628
-0.000177001
0.000233554
0.000290935
7.5166e-05
0.000293312
7.93327e-05
-0.000213086
0.000324904
0.000138716
-0.000318332
0.000313761
0.000170528
-0.000379807
0.000265316
0.000168156
-0.000394107
0.000185834
0.000132004
-0.000362943
9.25495e-05
6.92897e-05
-0.000290331
8.10881e-06
-7.94344e-06
-0.000182246
-4.76414e-05
-8.5905e-05
-4.87638e-05
-6.46822e-05
-0.000152311
9.34567e-05
-4.53684e-05
-0.000198702
0.000221351
-1.40139e-06
-0.000220941
0.000309962
5.30475e-05
-0.000218048
0.000339885
0.000108137
-0.000190709
0.000303772
0.00016097
-0.000140957
0.000208643
0.000212652
-7.32639e-05
7.35695e-05
0.00026248
-7.56669e-05
0.000303848
8.37514e-05
-0.000280563
0.000308261
8.31992e-05
-0.000358412
0.000300761
5.9292e-05
-0.000400057
0.000239997
1.32333e-05
-0.00040483
0.000135978
-4.88095e-05
-0.000376184
1.14767e-05
-0.000116182
-0.000318593
-0.000105823
-0.000175961
-0.000236748
-0.000192822
-0.000216343
-0.000137266
-0.000237363
-0.000230035
-3.12559e-05
-0.000239112
-0.000216203
6.48738e-05
-0.00020586
-0.000179983
0.000132187
-0.000147942
-0.000129821
0.000154901
-7.37566e-05
-7.42816e-05
0.000126057
1.14338e-05
-2.01801e-05
5.03244e-05
0.00010303
2.73281e-05
-5.70778e-05
0.000192954
-0.00017464
0.000267279
7.07969e-05
-0.000273849
0.00025388
2.12823e-05
-0.000323607
0.000247588
-4.45708e-05
-0.000352928
0.000177953
-0.000119465
-0.000362395
5.80705e-05
-0.000193441
-0.000354974
-8.56807e-05
-0.000254507
-0.000332917
-0.000223083
-0.000290854
-0.000296713
-0.000329896
-0.000294115
-0.000246681
-0.00039305
-0.000262323
-0.000186089
-0.000410134
-0.000201121
-0.000123325
-0.000385538
-0.000122464
-7.10117e-05
-0.000326273
-4.11883e-05
-4.20733e-05
-0.000239403
2.89987e-05
-4.48538e-05
-0.000131905
7.83638e-05
-7.97778e-05
-1.27158e-05
0.000101962
-0.000138918
0.000104528
-0.00020856
0.000200605
4.02892e-05
-0.000200603
0.000175912
-3.88514e-05
-0.000225324
0.000166201
-0.00012608
-0.000250346
9.1204e-05
-0.000210518
-0.000276181
-3.39972e-05
-0.000280951
-0.000303426
-0.000181917
-0.000326503
-0.000329921
-0.000322619
-0.000338457
-0.000349793
-0.000432935
-0.000312723
-0.000355429
-0.000500406
-0.00025178
-0.000341521
-0.000521941
-0.000165076
-0.0003086
-0.000500159
-6.74469e-05
-0.000263743
-0.000440218
2.40839e-05
-0.000218055
-0.000348393
9.41345e-05
-0.000182491
-0.000232518
0.000132103
-0.000164082
-0.000103744
0.000133727
-0.000164046
2.16462e-05
-0.000178375
0.000122351
-4.05957e-06
-7.80815e-05
8.50577e-05
-8.98132e-05
-8.35022e-05
6.69133e-05
-0.000175356
-0.000111303
-9.05105e-06
-0.000249114
-0.000160868
-0.000127227
-0.000301363
-0.00022901
-0.000261712
-0.000324776
-0.00030768
-0.000385686
-0.00031533
-0.000383645
-0.000479389
-0.000273324
-0.000441337
-0.000532999
-0.00020394
-0.000467862
-0.000544944
-0.000117025
-0.000457471
-0.000518454
-2.59592e-05
-0.000413198
-0.000458754
5.44007e-05
-0.00034528
-0.000371905
0.000110456
-0.000267615
-0.000265349
0.0001327
-0.000193851
-0.000149564
0.000117801
-0.000134392
-3.96245e-05
-9.51156e-05
4.51566e-05
-5.46114e-05
7.27786e-05
-1.18151e-05
-0.000124866
7.88873e-05
-4.14471e-05
-0.000187344
4.2551e-05
-0.000112601
-0.000232693
-3.36515e-05
-0.000210719
-0.000255193
-0.000141849
-0.000313951
-0.00025293
-0.000267545
-0.000401161
-0.000227371
-0.000390469
-0.000458339
-0.000182587
-0.000488557
-0.000480575
-0.000124453
-0.000543638
-0.00047018
-6.01656e-05
-0.000546137
-0.00043324
1.9355e-06
-0.000496887
-0.000376588
5.26882e-05
-0.000406005
-0.000306253
8.32118e-05
-0.000289946
-0.000227728
8.69226e-05
-0.000167839
-0.000147708
6.17825e-05
-5.78641e-05
-7.60753e-05
2.55228e-05
-2.61738e-05
-0.000101821
0.000231403
-0.000108897
-0.000138685
0.000239685
-0.000149792
-0.000161584
0.000190176
-0.000209584
-0.00016597
8.80779e-05
-0.000276239
-0.000151972
-5.37919e-05
-0.000333904
-0.000123915
-0.000214945
-0.000369123
-8.84709e-05
-0.00036955
-0.000375521
-5.23101e-05
-0.000491443
-0.000354843
-2.0315e-05
-0.000560029
-0.000314825
4.90399e-06
-0.000564579
-0.000265629
2.21411e-05
-0.000505635
-0.000216393
3.0168e-05
-0.000393914
-0.000172953
2.69879e-05
-0.000247859
-0.000137524
1.05834e-05
-9.04203e-05
-0.000110551
-1.92056e-05
5.47348e-05
-9.3616e-05
0.000166988
-9.11341e-05
-0.000137029
0.000379137
-0.000197845
-0.000128584
0.000379415
-0.00024682
-0.000102041
0.000313108
-0.000289562
-5.95277e-05
0.000188474
-0.000317762
-7.87327e-06
2.28397e-05
-0.000322767
4.27177e-05
-0.000158688
-0.000299824
8.15867e-05
-0.0003269
-0.000250935
0.000100875
-0.000454181
-0.000184879
9.7777e-05
-0.000520223
-0.000114883
7.49634e-05
-0.000515628
-5.51477e-05
3.90192e-05
-0.000442542
-1.71326e-05
-2.38262e-06
-0.000313192
-6.40832e-06
-4.30687e-05
-0.000147621
-2.13903e-05
-7.92967e-05
2.90983e-05
-5.50918e-05
-0.000108818
0.000190531
-9.92097e-05
0.00031303
-0.000147792
-0.000154521
-0.000265807
-9.53239e-05
-0.000318097
-1.65791e-05
-0.000340798
7.20369e-05
-0.000330074
0.000157225
-0.000284713
0.000224172
-0.000208329
0.000259938
-0.000110408
0.000256838
-5.45653e-06
0.000214732
8.91511e-05
0.000141486
0.000156065
5.11813e-05
0.000181693
-3.96811e-05
0.000160407
-0.000116498
9.71657e-05
-0.000169414
6.13872e-06
-0.000193695
-9.4597e-05
-0.000188967
-0.000210025
0.000626552
-0.00044495
-0.000106186
0.000580165
-0.000494034
1.08772e-05
0.00045054
-0.000490595
0.000126576
0.000254209
-0.000435717
0.000223899
2.04259e-05
-0.000334649
0.000285925
-0.000212721
-0.000198157
0.000299653
-0.000405401
-4.29372e-05
0.000259744
-0.000524681
0.000109497
0.000170983
-0.000551935
0.000234903
4.85021e-05
-0.000486178
0.000309549
-8.50839e-05
-0.000342116
0.000315713
-0.000205412
-0.000144738
0.000248664
-0.000292787
7.62254e-05
0.000120836
-0.000336209
0.000290194
-4.11378e-05
-0.000333548
0.000468437
-0.00020569
0.000586477
-0.000346034
-0.000194123
0.000657078
-0.000425887
-4.61096e-05
0.00058093
-0.000469811
0.00011107
0.000434059
-0.000450936
0.000255988
0.000235617
-0.000374325
0.000367168
1.54869e-05
-0.000250246
0.000426306
-0.000189878
-9.36561e-05
0.000421794
-0.000344371
7.67027e-05
0.000351604
-0.000420472
0.000239273
0.000224956
-0.000406166
0.000370243
6.20633e-05
-0.000307461
0.000445248
-0.000109045
-0.000145026
0.000444843
-0.000258694
5.28719e-05
0.000363062
-0.000362655
0.000256841
0.000213299
-0.000406938
0.000439891
2.57741e-05
-0.00038862
0.00057882
-0.000162753
0.000655222
-0.000320297
-0.000150808
0.000641388
-0.000334113
2.8655e-05
0.000536764
-0.000370666
0.000210446
0.000378308
-0.000344308
0.000368511
0.000186832
-0.000262769
0.000479299
-8.75317e-06
-0.000138521
0.000525285
-0.000175438
1.31293e-05
0.000497891
-0.000282519
0.000175422
0.00039934
-0.000309228
0.000330055
0.000243298
-0.000251006
0.00045577
5.38812e-05
-0.000121095
0.000528686
-0.000137837
5.42368e-05
0.000528066
-0.000299917
0.000244272
0.000446355
-0.000406461
0.000421122
0.000296282
-0.000442499
0.000562773
0.000108491
-0.000405276
0.000653007
-7.92434e-05
0.000680903
-0.000233927
-8.8384e-05
0.000576059
-0.000179927
0.000105979
0.000448506
-0.000208885
0.000293862
0.000286553
-0.000184991
0.000447263
0.00011147
-0.000116618
0.000543154
-5.03642e-05
-1.49306e-05
0.000566924
-0.000170981
0.000108488
0.000514475
-0.000226425
0.000242381
0.000392886
-0.000203488
0.00037399
0.000219796
-0.000105086
0.000485799
2.14501e-05
4.91653e-05
0.000555165
-0.000170988
0.000228816
0.000560721
-0.000326804
0.000402177
0.000493409
-0.000421552
0.000544042
0.000363972
-0.000441329
0.000638195
0.00020043
-0.000384384
0.000676016
3.73401e-05
0.000654568
-9.56135e-05
-1.62533e-05
0.000465376
5.98475e-06
0.000173586
0.000324034
-1.69423e-05
0.000347397
0.000168231
-4.85733e-06
0.000478236
1.82217e-05
3.54323e-05
0.000546268
-0.0001037
9.73059e-05
0.000541746
-0.000175901
0.000176053
0.000466053
-0.000181889
0.000268022
0.000331027
-0.000115896
0.00036687
0.000156998
1.28304e-05
0.000459163
-3.01095e-05
0.000180301
0.000524124
-0.000202327
0.000354155
0.000540711
-0.000333636
0.000503477
0.000498803
-0.00040391
0.00060651
0.000406174
-0.000402095
0.000652773
0.000285683
-0.000328005
0.000640833
0.000165228
0.000575337
6.7709e-05
5.67072e-05
0.000324523
0.000181168
0.000221236
0.000180984
0.000162172
0.000361178
4.07263e-05
0.000156478
0.000453743
-7.85422e-05
0.000160541
0.000484703
-0.000159821
0.000174308
0.000450535
-0.00018834
0.000201397
0.00035827
-0.00015471
0.000246138
0.00022348
-5.92395e-05
0.000308235
6.70733e-05
8.48093e-05
0.000378173
-8.82025e-05
0.000251952
0.000437736
-0.000220715
0.000410571
0.000467385
-0.000312043
0.000532091
0.000456548
-0.000348653
0.000598288
0.0004094
-0.000323695
0.000603337
0.000341962
-0.000238835
0.000551504
0.000273384
0.000453648
0.000217844
0.000122637
0.000178817
0.000307491
0.000242782
4.52818e-05
0.000291378
0.000332623
-7.27081e-05
0.000266734
0.000376192
-0.000161104
0.000234036
0.000366503
-0.000208477
0.000200345
0.000306681
-0.000206242
0.000177398
0.000208616
-0.000150452
0.000176501
8.97501e-05
-4.4914e-05
0.000202285
-3.0982e-05
9.631e-05
0.000248834
-0.000136733
0.000249502
0.000301243
-0.000214605
0.000386294
0.000342641
-0.000255666
0.000481497
0.000362677
-0.000254369
0.000519759
0.000361781
-0.000208896
0.000497958
0.000348535
-0.000122765
0.000423546
0.000332761
0.00031111
0.000319537
0.00017402
5.73923e-05
0.000364772
0.000236818
-5.56461e-05
0.000351891
0.000267624
-0.000149225
0.000311027
0.000258901
-0.000213206
0.00024666
0.00021142
-0.000240835
0.000172388
0.000134356
-0.000227803
0.000106734
4.28768e-05
-0.000172821
6.62065e-05
-4.59585e-05
-7.97417e-05
5.89807e-05
-0.000117597
4.01893e-05
8.23905e-05
-0.000163015
0.000168108
0.000125411
-0.000179179
0.000280808
0.000174698
-0.000167148
0.000356828
0.000220775
-0.000129614
0.000382421
0.000260774
-6.99047e-05
0.000354592
0.000296309
6.96023e-06
0.000280662
0.000328499
0.000175461
0.000353994
0.00020294
-1.59827e-05
0.000353725
0.000205406
-0.000101711
0.00034436
0.000178242
-0.000173624
0.00029156
0.000122521
-0.000224897
0.00020339
4.60793e-05
-0.000251649
9.87323e-05
-3.73478e-05
-0.000251132
9.32605e-07
-0.000111373
-0.000221285
-7.03323e-05
-0.000161496
-0.000162275
-0.000104707
-0.000179174
-7.91486e-05
-0.000102096
-0.000163769
1.64455e-05
-6.96036e-05
-0.000121556
0.000107467
-1.68145e-05
-6.24392e-05
0.000175807
4.81481e-05
3.74718e-06
0.000207658
0.00012001
6.92921e-05
0.000197376
0.000194701
0.000128291
0.000148551
0.000266066
7.23727e-05
0.00032363
0.000201994
-2.98514e-05
0.000288964
0.000152492
-8.60261e-05
0.000281406
7.88214e-05
-0.0001426
0.0002206
-1.05611e-05
-0.000194992
0.000117548
-0.000102525
-0.000240039
-5.32696e-06
-0.000180997
-0.00027358
-0.000122162
-0.000230666
-0.000289355
-0.000212157
-0.000241287
-0.000280576
-0.000264129
-0.000210751
-0.000243697
-0.000276123
-0.00014566
-0.000182025
-0.000252158
-5.92408e-05
-0.000106503
-0.000198722
3.25593e-05
-3.28486e-05
-0.000122547
0.000115169
2.33974e-05
-3.02529e-05
0.000178018
5.15529e-05
7.02585e-05
0.000214971
4.84354e-05
0.00016769
1.82826e-05
0.000246456
0.000167404
1.34508e-05
0.000188973
8.38366e-05
-1.52987e-05
0.000179041
-1.66077e-05
-6.44672e-05
0.000113515
-0.000120426
-0.000130561
5.38976e-06
-0.000211833
-0.000209036
-0.000121513
-0.00027518
-0.000291579
-0.000241272
-0.000298516
-0.000364963
-0.00033399
-0.000276819
-0.000413442
-0.000389237
-0.000213489
-0.000424145
-0.000404823
-0.000119649
-0.000392477
-0.000383548
-1.16198e-05
-0.000324377
-0.000330372
9.26151e-05
-0.000234411
-0.000251065
0.000177003
-0.000141047
-0.000152461
0.000230045
-6.13388e-05
-4.38948e-05
0.00024585
-6.9092e-06
6.11865e-05
1.76135e-05
0.000145102
0.000102383
0.000101257
6.91508e-05
8.04527e-06
9.41583e-05
5.17938e-05
-9.51208e-05
4.44548e-05
-1.48071e-05
-0.000191638
-4.4351e-05
-0.00011692
-0.000266247
-0.000164499
-0.00023164
-0.000306656
-0.000301418
-0.000335439
-0.000306168
-0.000433408
-0.000411432
-0.000265059
-0.000535583
-0.000451968
-0.000190224
-0.000586942
-0.000456981
-9.36181e-05
-0.000576922
-0.000430616
9.82868e-06
-0.00050828
-0.000378297
0.000104433
-0.00039556
-0.00030536
0.000176049
-0.000260516
-0.000217496
0.000214179
-0.000126498
-0.000122534
0.000213469
-1.35205e-05
-3.2303e-05
6.47206e-05
3.72368e-05
1.79385e-05
0.000216071
-5.97822e-05
-6.33638e-05
0.000221982
-8.79682e-05
-0.000145505
0.000164613
-0.000150618
-0.000214441
4.85621e-05
-0.000234696
-0.000258675
-0.000113787
-0.000320428
-0.000271746
-0.000300536
-0.000388972
-0.000253213
-0.000481635
-0.000428644
-0.000207778
-0.000624729
-0.000436864
-0.000143281
-0.00070342
-0.000418198
-6.88864e-05
-0.000704033
-0.000380523
5.82962e-06
-0.000628228
-0.000331356
7.1151e-05
-0.000491345
-0.000275789
0.000117707
-0.000318002
-0.000216798
0.000137697
-0.000136591
-0.000157605
0.000126619
2.59951e-05
-0.000104513
0.000148299
-6.79193e-05
-6.98552e-05
0.000340203
-0.000189034
-0.000117977
0.000348487
-0.000228175
-0.000159826
0.000277489
-0.000280611
-0.00018605
0.000133971
-0.000335424
-0.000191554
-6.43374e-05
-0.00037785
-0.000177047
-0.000288475
-0.000395691
-0.000148071
-0.000501752
-0.000384381
-0.000112127
-0.000667266
-0.00034825
-7.56335e-05
-0.000756596
-0.000298142
-4.23863e-05
-0.000755933
-0.000246977
-1.40793e-05
-0.000667813
-0.000205115
7.88902e-06
-0.000508999
-0.000177267
2.09241e-05
-0.000306218
-0.000162343
2.13021e-05
-9.10798e-05
-0.00015644
5.83825e-06
0.000105035
-0.000157192
0.000255307
-0.000166443
-0.000144535
0.000458175
-0.000307546
-0.000145711
0.000457508
-0.000354665
-0.000135351
0.000368461
-0.000390895
-0.000111316
0.00020084
-0.000408665
-7.63387e-05
-2.24911e-05
-0.00039959
-3.81505e-05
-0.000267082
-0.000359406
-6.83008e-06
-0.000492345
-0.000291662
9.23679e-06
-0.000660089
-0.000208123
6.68983e-06
-0.00074296
-0.000125972
-1.1761e-05
-0.000729571
-6.3058e-05
-3.90513e-05
-0.000625089
-3.25666e-05
-6.73381e-05
-0.000448357
-3.8764e-05
-9.14077e-05
-0.000227576
-7.59634e-05
-0.000109982
4.29802e-06
-0.000131895
-0.000124463
0.000214125
-0.000193819
0.000372754
-0.000253437
-0.000193444
-0.000399424
-0.000141478
-0.000449887
-7.54865e-05
-0.000466225
-1.79493e-06
-0.000445063
6.90822e-05
-0.000385022
0.000123793
-0.000289965
0.000149768
-0.000171079
0.000139467
-4.63568e-05
9.34222e-05
6.22224e-05
2.08446e-05
0.000133061
-6.2833e-05
0.000150511
-0.000140834
0.00011041
-0.000200146
2.25056e-05
-0.00023428
-9.2882e-05
-0.000242696
-0.000212687
-0.000318517
-0.000264334
0.000620973
-0.000561932
-0.000174067
0.000582197
-0.000601721
-7.40065e-05
0.000444124
-0.000587403
2.40468e-05
0.000223141
-0.000520902
0.000105281
-4.77576e-05
-0.000407004
0.000154217
-0.000323473
-0.00025603
0.00015891
-0.000555781
-8.57097e-05
0.000115182
-0.000704295
7.93809e-05
2.91382e-05
-0.000745766
0.000210756
-8.32669e-05
-0.000678253
0.000281193
-0.000200076
-0.00051873
0.000272325
-0.000299574
-0.000296182
0.000182644
-0.000366155
-4.43987e-05
3.0644e-05
-0.000393029
0.000202756
-0.000150792
-0.000381119
0.000413663
-0.000326221
0.000560437
-0.000468317
-0.000256713
0.000643173
-0.000559975
-0.000121727
0.000574028
-0.000596629
1.96655e-05
0.000419164
-0.000567368
0.000148202
0.000197937
-0.000477657
0.000243845
-5.6128e-05
-0.000337519
0.000289258
-0.000300219
-0.000162324
0.000273963
-0.000490826
2.70422e-05
0.000197747
-0.000593893
0.000205088
7.20874e-05
-0.000593272
0.000343407
-8.12446e-05
-0.000493945
0.000414272
-0.000234771
-0.000318318
0.000397957
-0.000362034
-9.79362e-05
0.000292079
-0.000443785
0.00013434
0.000116311
-0.000470909
0.000348493
-9.28383e-05
-0.000443603
0.000518378
-0.000294775
0.000622048
-0.000456909
-0.000208025
0.000638963
-0.000472738
-4.23073e-05
0.000541661
-0.000504016
0.000123764
0.000375951
-0.000467166
0.000266018
0.000163165
-0.000370252
0.00036186
-6.42257e-05
-0.000226265
0.000394333
-0.000267398
-5.21639e-05
0.000355937
-0.000409047
0.000132038
0.000251058
-0.000462572
0.000303614
9.6135e-05
-0.000419513
0.000436934
-8.28729e-05
-0.000291646
0.000505395
-0.000255635
-0.000106038
0.000488548
-0.000394004
0.000104284
0.000382504
-0.000477678
0.00030847
0.000205826
-0.000496884
0.000481331
-5.14058e-06
-0.000451879
0.00060314
-0.00020901
0.000658876
-0.000371773
-0.00012861
0.000605258
-0.000307366
5.09815e-05
0.000485725
-0.000332541
0.000223074
0.000316563
-0.000297695
0.000361403
0.000120041
-0.000211823
0.000443514
-7.36327e-05
-8.76344e-05
0.000454985
-0.000230814
6.04326e-05
0.000392658
-0.000321439
0.000217101
0.000265873
-0.000327
0.000365202
9.51676e-05
-0.000246591
0.000483583
-9.14697e-05
-9.77237e-05
0.00054788
-0.000263971
8.95266e-05
0.000537658
-0.000395811
0.000282224
0.000447308
-0.00046833
0.000452559
0.000292402
-0.000472747
0.000580625
0.000105553
-0.000410041
0.00065326
-7.54863e-05
0.000662424
-0.000219449
-3.05589e-05
0.00054139
-9.47142e-05
0.000144566
0.000408334
-0.000114676
0.000303497
0.000244031
-9.12571e-05
0.000420756
7.05458e-05
-3.23307e-05
0.000476723
-8.52953e-05
5.30013e-05
0.000461594
-0.000195948
0.000156315
0.000377629
-0.000239109
0.000269657
0.000238919
-0.000204165
0.000382745
6.8521e-05
-9.65821e-05
0.000479552
-0.000106261
6.24594e-05
0.000538722
-0.000258898
0.000242157
0.000540718
-0.000367611
0.00041133
0.00047841
-0.000417763
0.000545791
0.000363094
-0.000402944
0.000630617
0.000220872
-0.000325256
0.000658523
8.22768e-05
0.000627732
-2.77292e-05
7.42801e-05
0.000452859
0.000118172
0.000226099
0.000316891
0.000101796
0.000353433
0.000165744
0.000107432
0.00043448
1.99717e-05
0.000130068
0.000454993
-9.80184e-05
0.000166518
0.000411471
-0.000167271
0.000216242
0.000312012
-0.00017289
0.000279378
0.000174416
-0.000110764
0.00035243
2.19416e-05
9.63646e-06
0.000424429
-0.000121784
0.00016629
0.00047763
-0.000236757
0.000330134
0.000494381
-0.000308445
0.000473054
0.000466512
-0.000328052
0.000574382
0.000400417
-0.000292578
0.00062304
0.000314064
-0.000205439
0.000616134
0.000228634
0.000556766
0.000160618
0.000174778
0.000353525
0.000284935
0.000285737
0.000226051
0.00027126
0.000365807
9.47646e-05
0.000257643
0.000399522
-2.2513e-05
0.000242806
0.000379983
-0.000108385
0.00023025
0.00031086
-0.000148116
0.000227366
0.000205567
-0.000132673
0.000241577
8.37416e-05
-6.1774e-05
0.000275121
-3.38602e-05
5.44201e-05
0.000321652
-0.000130038
0.000196198
0.000367513
-0.000193517
0.000338404
0.00039785
-0.000218575
0.000456691
0.000404098
-0.000203361
0.000533105
0.000387843
-0.000148984
0.000558582
0.000358617
-6.02471e-05
0.000532404
0.000327753
0.000460446
0.000302722
0.000259568
0.000263403
0.000376389
0.000316614
0.000155018
0.000365878
0.000339474
4.70091e-05
0.000335922
0.000320955
-4.62864e-05
0.000288953
0.000262519
-0.000112207
0.000234646
0.000174814
-0.000140754
0.000187079
7.5129e-05
-0.000126018
0.000159236
-1.74098e-05
-6.78793e-05
0.000157625
-8.70716e-05
2.65807e-05
0.000179892
-0.000125008
0.000142903
0.000216643
-0.000129687
0.00026137
0.000256411
-0.000104576
0.000361397
0.000290958
-5.50021e-05
0.000426416
0.000317889
1.35934e-05
0.000447079
0.000339216
9.5114e-05
0.000422057
0.000357326
0.000357134
0.000371357
0.000316066
0.000202252
0.000386869
0.000314327
0.000120882
0.000380234
0.000278667
3.53578e-05
0.000338872
0.000210905
-4.35389e-05
0.000268404
0.000120678
-0.000106694
0.000183446
2.43571e-05
-0.000146378
0.000102877
-5.90019e-05
-0.000156211
4.32198e-05
-0.00011313
-0.000132161
1.37028e-05
-0.000129075
-7.46623e-05
1.50919e-05
-0.000106956
9.30651e-06
4.18745e-05
-5.45071e-05
0.000106126
8.59816e-05
1.66058e-05
0.000198314
0.000140118
9.47568e-05
0.000269031
0.000199244
0.000170659
0.000306201
0.000259677
0.000237244
0.000304857
0.000316681
0.000267431
0.000362518
0.000331729
0.000182585
0.00032892
0.000276799
0.000132003
0.000325215
0.00019142
6.42823e-05
0.000277055
8.57587e-05
-1.28702e-05
0.000192541
-2.3818e-05
-9.20754e-05
8.96309e-05
-0.000117426
-0.000164828
-1.01052e-05
-0.000176734
-0.000220446
-8.86134e-05
-0.000190235
-0.000247278
-0.000135511
-0.00015631
-0.000236512
-0.000148198
-8.30525e-05
-0.000186625
-0.000129484
1.46454e-05
-0.000105487
-8.48076e-05
0.000119378
-8.68409e-06
-2.02812e-05
0.000215286
8.49634e-05
5.79066e-05
0.000290516
0.00015851
0.00014272
0.000337538
0.000200739
0.000224785
0.000207822
0.000291585
0.000298395
0.00020606
0.000222533
0.000205887
0.000185229
0.000218324
8.8853e-05
0.000127966
0.000166866
-3.62148e-05
3.97059e-05
7.78815e-05
-0.000148835
-7.18156e-05
-2.91528e-05
-0.000228606
-0.0001942
-0.000132129
-0.000260502
-0.000309135
-0.000213405
-0.000238922
-0.000394898
-0.000263197
-0.000168735
-0.000432547
-0.000278975
-6.33901e-05
-0.000412624
-0.000262894
5.86649e-05
-0.000338615
-0.000219299
0.000177955
-0.000225716
-0.000153323
0.000277363
-9.60532e-05
-7.08526e-05
0.000344269
2.72994e-05
2.0409e-05
0.000371204
0.000125421
0.00010957
0.000186485
0.000182213
0.00021744
0.000264521
8.6277e-05
0.000109859
0.000267764
7.68393e-05
-1.4675e-05
0.00021239
2.53032e-05
-0.000136459
0.00010259
-5.80193e-05
-0.000234442
-5.14154e-05
-0.000154058
-0.000291122
-0.000230675
-0.000242283
-0.000297016
-0.000407209
-0.000307464
-0.000252556
-0.000548779
-0.000342545
-0.000166941
-0.000627561
-0.000347582
-5.51466e-05
-0.000628337
-0.000326696
6.53111e-05
-0.000552331
-0.000285039
0.000177072
-0.000415728
-0.00022711
0.000264964
-0.000244467
-0.000156974
0.000317441
-6.76971e-05
-8.00148e-05
0.000327474
8.80767e-05
-4.99098e-06
0.000202868
5.53003e-05
0.00010196
0.00034416
-6.59061e-05
4.02808e-06
0.00036195
-8.4222e-05
-0.000102448
0.000299899
-0.000131651
-0.000198375
0.000162271
-0.000198451
-0.000266075
-3.6327e-05
-0.000267816
-0.00029408
-0.000268804
-0.000322838
-0.000279726
-0.00049739
-0.000352816
-0.000228439
-0.000681137
-0.000355794
-0.000150715
-0.000786437
-0.000337046
-5.89295e-05
-0.000795541
-0.000305105
3.46195e-05
-0.000709728
-0.000267508
0.000118395
-0.000547093
-0.000228199
0.000181862
-0.000336967
-0.000187765
0.000216049
-0.000113282
-0.000146207
0.000214647
9.14184e-05
-0.000106452
0.000250264
-7.61442e-05
-2.60185e-05
0.000430194
-0.000222597
-9.21256e-05
0.000450488
-0.000250607
-0.000158599
0.000374279
-0.000288517
-0.000210892
0.000207444
-0.000328305
-0.00023818
-2.97949e-05
-0.000357094
-0.000236958
-0.00030224
-0.000363477
-0.00021119
-0.00056427
-0.000343269
-0.000169231
-0.000769724
-0.000301622
-0.000119801
-0.00088316
-0.000250848
-6.93864e-05
-0.000887611
-0.000205321
-2.20809e-05
-0.000786426
-0.000175722
1.8828e-05
-0.000600067
-0.000165202
4.92021e-05
-0.000360283
-0.000169401
6.36978e-05
-0.000103809
-0.000180408
5.70518e-05
0.000133183
-0.000192311
0.000319239
-0.000204819
-0.000141914
0.000510199
-0.000370502
-0.000160329
0.000520391
-0.000406153
-0.000172564
0.000424714
-0.000429096
-0.000171817
0.00023206
-0.000434028
-0.000156191
-3.16497e-05
-0.000413361
-0.000130283
-0.000324894
-0.00036266
-0.000103045
-0.000597613
-0.000285557
-8.33229e-05
-0.000802453
-0.000195115
-7.57659e-05
-0.000905748
-0.000110941
-7.92591e-05
-0.000893964
-5.32125e-05
-8.85033e-05
-0.000774035
-3.57138e-05
-9.76373e-05
-0.000569067
-6.06299e-05
-0.000103658
-0.00031224
-0.000117986
-0.000107675
-4.10359e-05
-0.000190651
-0.000113548
0.000207443
-0.000262207
0.000400032
-0.000322913
-0.000225308
-0.000491274
-0.000188658
-0.000530923
-0.000142222
-0.000535324
-8.86058e-05
-0.000502629
-3.5008e-05
-0.000431391
7.37018e-06
-0.000324827
2.69436e-05
-0.000194406
1.64827e-05
-6.02107e-05
-2.34288e-05
5.23425e-05
-8.38811e-05
0.000118564
-0.000150543
0.000122064
-0.000208857
6.13569e-05
-0.000248916
-4.85031e-05
-0.000267555
-0.000181507
-0.00026705
-0.000310791
-0.000417107
-0.000306124
0.000561806
-0.000630093
-0.000234107
0.000541888
-0.000655183
-0.000154037
0.000413833
-0.000628095
-7.52088e-05
0.000191343
-0.000552021
-1.00696e-05
-9.2349e-05
-0.000431227
2.79463e-05
-0.00038907
-0.000274842
2.85403e-05
-0.00064586
-0.00010035
-1.12873e-05
-0.000817536
6.60937e-05
-8.5086e-05
-0.000877264
0.000193329
-0.000178066
-0.000821291
0.000252359
-0.000271394
-0.000666346
0.00022585
-0.000347929
-0.000441944
0.000116414
-0.000396637
-0.000182331
-5.19485e-05
-0.000413786
7.84912e-05
-0.000242005
-0.000401233
0.000308483
-0.000416735
0.000478092
-0.000550088
-0.000308386
0.000561003
-0.0006565
-0.000191721
0.000510151
-0.000681557
-6.99303e-05
0.000366159
-0.000641485
3.98696e-05
0.000145995
-0.000542109
0.000119477
-0.0001168
-0.000392676
0.000153211
-0.000377175
-0.000207951
0.000132261
-0.000588091
-9.77654e-06
5.8102e-05
-0.000711787
0.000173497
-5.66391e-05
-0.000729067
0.000309952
-0.000190707
-0.000642899
0.000369946
-0.000319643
-0.000474688
0.000335236
-0.000422092
-0.000255648
0.000208232
-0.000484213
-1.85025e-05
1.46034e-05
-0.000500619
0.00020678
-0.000204721
-0.000472597
0.000393558
-0.000407872
0.000518155
-0.000563855
-0.000257712
0.000551701
-0.00058994
-0.000111861
0.000472791
-0.000612506
3.36885e-05
0.000319168
-0.000565724
0.000156977
0.000109999
-0.000457544
0.000236996
-0.000122538
-0.000300545
0.000258069
-0.000338222
-0.000112191
0.000214149
-0.000497323
8.51906e-05
0.000111403
-0.00057045
0.000265023
-3.22669e-05
-0.000546375
0.000397912
-0.000191143
-0.000434353
0.000455725
-0.000337927
-0.000259422
0.000420066
-0.000449913
-5.32866e-05
0.000292129
-0.000512735
0.00015381
9.63346e-05
-0.000520813
0.000336605
-0.000126887
-0.000475691
0.000474478
-0.000335052
0.000550416
-0.000495508
-0.000165915
0.000534059
-0.000432118
-8.3493e-06
0.000433273
-0.000450589
0.000141943
0.000276785
-0.000405604
0.000261196