/*--------------------------------*- C++ -*----------------------------------*\
  =========                 |
  \\      /  F ield         | OpenFOAM: The Open Source CFD Toolbox
   \\    /   O peration     | Website:  https://openfoam.org
    \\  /    A nd           | Version:  6
     \\/     M anipulation  |
\*---------------------------------------------------------------------------*/
FoamFile
{
    version     2.0;
    format      ascii;
    class       volScalarField;
    location    "3";
    object      p;
}
// * * * * * * * * * * * * * * * * * * * * * * * * * * * * * * * * * * * * * //

dimensions      [1 -1 -2 0 0 0 0];

internalField   nonuniform List<scalar> 
10000
(
1
1
1
1
1
1
1
1
1
1
1
1
1
1
1
1
1
1
1
1
1
1
1
1
1
1
1
1
1
1
1
1
1
1
1
1
1
1
1
1
1
1
1
1
1
0.999999
0.999999
0.999998
0.999997
0.999995
0.999994
0.999991
0.999989
0.999988
0.999986
0.999986
0.999986
0.999989
0.999991
0.999995
1
1.00001
1.00001
1.00001
1.00002
1.00002
1.00002
1.00002
1.00001
1.00001
1.00001
1
1
0.999999
0.999997
0.999996
0.999996
0.999996
0.999996
0.999997
0.999997
0.999998
0.999998
0.999999
0.999999
1
1
1
1
1
1
1
1
1
1
1
1
1
1
1
1
1
1
1
1
1
1
1
1
1
1
1
1
1
1
1
1
1
1
1
1
1
1
1
1
1
1
1
1
1
1
1
1
1
1
1
1
1
1
1
1
1
1
1
1
0.999999
0.999999
0.999997
0.999996
0.999993
0.999991
0.999987
0.999985
0.999982
0.99998
0.999979
0.99998
0.999983
0.999988
0.999994
1
1.00001
1.00002
1.00002
1.00003
1.00003
1.00003
1.00003
1.00002
1.00002
1.00001
1.00001
1
0.999999
0.999997
0.999995
0.999994
0.999994
0.999994
0.999995
0.999996
0.999997
0.999998
0.999998
0.999999
0.999999
0.999999
1
1
1
1
1
1
1
1
1
1
1
1
1
1
1
1
1
1
1
1
1
1
1
1
1
1
1
1
1
1
1
1
1
1
1
1
1
1
1
1
1
1
1
1
1
1
1
1
1
1
1
1
1
1
1
1
1
1
0.999999
0.999998
0.999996
0.999994
0.99999
0.999987
0.999982
0.999978
0.999974
0.999972
0.99997
0.999972
0.999976
0.999982
0.999991
1
1.00001
1.00002
1.00003
1.00004
1.00005
1.00005
1.00004
1.00004
1.00003
1.00002
1.00002
1.00001
1
0.999997
0.999994
0.999992
0.999992
0.999992
0.999993
0.999994
0.999995
0.999996
0.999997
0.999998
0.999999
0.999999
1
1
1
1
1
1
1
1
1
1
1
1
1
1
1
1
1
1
1
1
1
1
1
1
1
1
1
1
1
1
1
1
1
1
1
1
1
1
1
1
1
1
1
1
1
1
1
1
1
1
1
1
1
1
1
1
1
1
0.999999
0.999998
0.999995
0.999992
0.999987
0.999981
0.999975
0.99997
0.999964
0.999961
0.999959
0.999961
0.999967
0.999977
0.99999
1.00001
1.00002
1.00004
1.00005
1.00006
1.00007
1.00007
1.00007
1.00006
1.00005
1.00004
1.00003
1.00002
1.00001
0.999999
0.999994
0.999991
0.99999
0.99999
0.99999
0.999992
0.999993
0.999995
0.999996
0.999997
0.999998
0.999999
0.999999
1
1
1
1
1
1
1
1
1
1
1
1
1
1
1
1
1
1
1
1
1
1
1
1
1
1
1
1
1
1
1
1
0.999999
1
0.999999
1
1
1
1
1
1
1
1
1
1
1
1
1
1
1
1
1
1
1
1
1
1
0.999999
0.999997
0.999994
0.999989
0.999983
0.999975
0.999967
0.999959
0.999952
0.999947
0.999946
0.99995
0.999958
0.999973
0.999992
1.00001
1.00004
1.00006
1.00008
1.0001
1.00011
1.00011
1.00011
1.0001
1.00008
1.00007
1.00005
1.00003
1.00002
1
0.999995
0.99999
0.999987
0.999987
0.999988
0.999989
0.999991
0.999993
0.999995
0.999996
0.999997
0.999998
0.999999
0.999999
1
1
1
1
1
1
1
1
1
1
1
1
1
1
1
1
1
1
1
1
1
1
1
1
1
1
1
1
1
1
1
0.999999
1
1
1
1
1
0.999999
1
1
1
1
1
1
1
1
1
1
1
1
1
1
1
1
1
1
1
0.999997
0.999993
0.999986
0.999977
0.999967
0.999956
0.999946
0.999938
0.999933
0.999934
0.99994
0.999954
0.999975
1
1.00003
1.00007
1.0001
1.00013
1.00016
1.00017
1.00018
1.00017
1.00016
1.00014
1.00011
1.00008
1.00006
1.00003
1.00001
1
0.99999
0.999985
0.999984
0.999984
0.999986
0.999988
0.99999
0.999993
0.999995
0.999996
0.999998
0.999998
0.999999
0.999999
1
1
1
1
1
1
1
1
1
1
1
1
1
1
1
1
1
1
1
1
1
1
1
1
1
1
1
1
1
1
1
0.999999
1
0.999999
1
1
0.999999
1
1
1
1
1
1
1
1
1
1
1
1
1
1
1
1
1
1
1
0.999998
0.999992
0.999983
0.999971
0.999958
0.999945
0.999933
0.999925
0.999922
0.999926
0.999939
0.999961
0.999992
1.00003
1.00008
1.00013
1.00017
1.00022
1.00025
1.00027
1.00027
1.00027
1.00025
1.00022
1.00018
1.00014
1.0001
1.00006
1.00003
1.00001
0.999994
0.999984
0.99998
0.99998
0.999982
0.999985
0.999987
0.99999
0.999993
0.999995
0.999997
0.999998
0.999999
0.999999
1
1
1
1
1
1
1
1
1
1
1
1
1
1
1
1
1
1
1
1
1
1
1
1
1
1
1
1
1
1
1
0.999999
1
0.999999
1
1
0.999999
1
1
0.999999
1
1
1
1
1
1
1
1
1
1
1
1
1.00001
1.00001
1.00001
1.00001
1
0.999992
0.99998
0.999965
0.999949
0.999935
0.999923
0.999918
0.999922
0.999935
0.999959
0.999996
1.00004
1.0001
1.00017
1.00024
1.0003
1.00036
1.0004
1.00042
1.00042
1.00041
1.00038
1.00034
1.00028
1.00022
1.00016
1.00011
1.00007
1.00003
1.00001
0.999987
0.999977
0.999974
0.999976
0.999979
0.999984
0.999987
0.999991
0.999993
0.999996
0.999997
0.999998
0.999999
0.999999
1
1
1
1
1
1
1
1
1
1
1
1
1
1
1
1
1
1
1
1
1
1
1
1
1
1
0.999999
1
0.999999
1
1
0.999998
1
0.999999
0.999999
1
0.999998
1
1
1
1
1
1
1
1
1
1
1
1
1.00001
1.00001
1.00001
1.00001
1.00001
1.00001
1
0.999993
0.999978
0.999961
0.999943
0.99993
0.999924
0.999929
0.999947
0.999979
1.00003
1.00009
1.00016
1.00025
1.00034
1.00044
1.00052
1.00059
1.00064
1.00066
1.00066
1.00063
1.00058
1.00052
1.00044
1.00035
1.00027
1.00019
1.00012
1.00007
1.00003
0.999999
0.999981
0.999971
0.999969
0.999972
0.999977
0.999983
0.999987
0.999991
0.999994
0.999996
0.999998
0.999999
0.999999
0.999999
1
1
1
1
1
1
1
1
1
1
1
1
1
1
1
1
1
1
1
1
1
1
0.999999
1
1
0.999999
1
0.999999
1
1
0.999999
1
1
0.999998
1
0.999997
1
1
0.999998
1
1
1
0.999999
1
1
1
1
1.00001
1.00001
1.00001
1.00002
1.00002
1.00002
1.00002
1.00001
0.999997
0.99998
0.999961
0.999945
0.999939
0.999948
0.999975
1.00002
1.00009
1.00018
1.00028
1.0004
1.00053
1.00066
1.00079
1.0009
1.00098
1.00103
1.00105
1.00102
1.00097
1.00089
1.00079
1.00067
1.00055
1.00042
1.00031
1.00021
1.00012
1.00006
1.00002
0.999991
0.999974
0.999967
0.999966
0.999969
0.999976
0.999982
0.999988
0.999992
0.999995
0.999997
0.999998
0.999999
0.999999
1
1
1
1
1
1
1
1
1
1
1
1
1
1
1
1
1
1
1
1
1
1
0.999999
1
0.999999
1
0.999998
1
1
0.999997
1
0.999998
1
1
1
0.999999
1
1
0.999998
1
1
1
1
1
1
1
1.00001
1.00001
1.00001
1.00002
1.00003
1.00003
1.00003
1.00003
1.00002
1.00001
0.999989
0.999972
0.999966
0.999978
1.00002
1.00009
1.00019
1.00032
1.00048
1.00065
1.00084
1.00103
1.00122
1.00139
1.00153
1.00162
1.00167
1.00166
1.0016
1.00149
1.00136
1.00119
1.00101
1.00083
1.00065
1.00049
1.00034
1.00021
1.00012
1.00005
1
0.99998
0.999968
0.999964
0.999965
0.999969
0.999975
0.999982
0.999988
0.999992
0.999995
0.999997
0.999998
0.999999
1
1
1
1
1
1
1
1
1
1
1
1
1
1
1
1
1
1
1
0.999999
1
0.999999
1
1
0.999998
1
0.999995
1.00001
0.999995
1
1
1
0.999997
1
0.999994
1.00001
0.999997
1
1
1
1
1
1
1
1
1.00001
1.00001
1.00002
1.00002
1.00003
1.00004
1.00005
1.00005
1.00005
1.00004
1.00002
1.00001
1
1.00002
1.00007
1.00017
1.00031
1.00051
1.00075
1.00101
1.0013
1.00159
1.00188
1.00215
1.00238
1.00256
1.00266
1.00268
1.00262
1.00249
1.00229
1.00206
1.0018
1.00152
1.00124
1.00098
1.00074
1.00053
1.00036
1.00021
1.0001
1.00003
0.999987
0.999968
0.999961
0.999962
0.999966
0.999971
0.999977
0.999983
0.999989
0.999993
0.999996
0.999998
0.999999
0.999999
1
1
1
1
1
1
1
1
1
1
1
1
1
1
1
1
1
1
1
1
0.999998
1
0.999999
1
0.999998
1
1
0.999994
1.00001
0.999997
1
0.999997
1.00001
0.999994
1.00001
0.999997
0.999998
1
0.999999
1
1
1
1
1.00001
1.00001
1.00001
1.00002
1.00003
1.00005
1.00006
1.00007
1.00008
1.00008
1.00007
1.00005
1.00005
1.00007
1.00013
1.00026
1.00045
1.00073
1.00107
1.00148
1.00191
1.00237
1.00282
1.00324
1.00363
1.00395
1.00417
1.00428
1.00426
1.00411
1.00386
1.00352
1.00312
1.00269
1.00227
1.00186
1.00147
1.00111
1.00081
1.00055
1.00035
1.0002
1.00009
1.00001
0.999971
0.999955
0.999954
0.99996
0.999967
0.999974
0.99998
0.999986
0.99999
0.999994
0.999996
0.999998
0.999999
0.999999
1
1
1
1
1
1
1
1
1
1
1
1
1
1
1
1
0.999999
1
0.999999
1
1
0.999999
1
0.999996
1.00001
0.999988
1.00001
0.999999
1
0.999993
1.00001
0.999994
1.00001
0.999996
1
0.999997
1
0.999999
0.999998
1
1
1
1.00001
1.00001
1.00002
1.00003
1.00005
1.00007
1.00009
1.0001
1.00011
1.00011
1.00011
1.00011
1.00013
1.0002
1.00034
1.00059
1.00095
1.00143
1.002
1.00265
1.00334
1.00403
1.0047
1.00533
1.00587
1.0063
1.0066
1.00672
1.00665
1.00638
1.00593
1.00536
1.00471
1.00403
1.00335
1.00273
1.00216
1.00165
1.0012
1.00084
1.00054
1.00033
1.00017
1.00006
0.999992
0.999957
0.999945
0.999948
0.999958
0.999968
0.999977
0.999983
0.999988
0.999992
0.999995
0.999997
0.999998
0.999999
1
1
1
1
1
1
1
1
1
1
1
0.999999
1
0.999999
1
1
0.999999
1
0.999996
1
0.999998
1
0.999996
1.00001
0.999998
0.999991
1.00001
0.999993
1
0.999991
1.00001
0.999988
1.00001
0.999987
1.00001
0.999998
1
0.999999
0.999999
1
1.00001
1.00001
1.00001
1.00002
1.00003
1.00005
1.00007
1.0001
1.00012
1.00014
1.00016
1.00016
1.00017
1.00019
1.00026
1.00042
1.0007
1.00115
1.00176
1.00254
1.00345
1.00445
1.00548
1.0065
1.00746
1.00835
1.0091
1.00969
1.01009
1.01023
1.0101
1.00969
1.00899
1.00808
1.00707
1.00601
1.00497
1.00401
1.00315
1.00241
1.00177
1.00125
1.00083
1.00051
1.00028
1.00012
1.00003
0.999973
0.999947
0.999941
0.999947
0.999959
0.99997
0.999979
0.999986
0.99999
0.999994
0.999996
0.999998
0.999999
0.999999
1
1
1
1
1
1
1
1
0.999999
1
0.999999
1
1
1
1
1
1
0.999999
1
1
0.999995
1
1.00001
0.999982
1.00001
0.999996
1
0.999986
1.00002
0.999991
1.00001
0.999993
1
1
1.00001
0.999993
1
1
1
1.00001
1.00001
1.00002
1.00003
1.00005
1.00007
1.0001
1.00013
1.00017
1.0002
1.00022
1.00023
1.00026
1.00032
1.00048
1.00079
1.0013
1.00204
1.00302
1.00423
1.0056
1.00706
1.00853
1.00996
1.01129
1.01249
1.01352
1.01431
1.01484
1.01505
1.01488
1.01432
1.01335
1.01202
1.01049
1.00889
1.00733
1.00587
1.00459
1.00348
1.00257
1.00183
1.00124
1.00078
1.00045
1.00022
1.00007
0.999994
0.999954
0.999939
0.99994
0.99995
0.999962
0.999973
0.999982
0.999988
0.999992
0.999995
0.999997
0.999998
0.999999
1
1
1
1
1
1
0.999999
1
1
0.999999
1
0.999998
1
0.999999
0.999999
1
0.999994
1.00001
0.999997
1
0.999993
1.00002
0.999985
0.999998
1.00002
0.999986
1
0.999989
1.00002
0.999977
1.00002
0.999976
1.00002
0.999987
1.00001
0.999988
1.00001
1
1
1.00001
1.00002
1.00002
1.00004
1.00006
1.00009
1.00014
1.00018
1.00022
1.00026
1.00029
1.00032
1.00039
1.00054
1.00084
1.00137
1.00221
1.00339
1.0049
1.00667
1.00863
1.01065
1.01265
1.01456
1.01631
1.01786
1.01918
1.0202
1.02089
1.02121
1.02108
1.02042
1.01922
1.01748
1.01533
1.013
1.0107
1.00855
1.00666
1.00505
1.00371
1.00262
1.00178
1.00115
1.00069
1.00037
1.00015
1.00002
0.999956
0.999932
0.999932
0.99994
0.999952
0.999966
0.999977
0.999985
0.99999
0.999994
0.999996
0.999998
0.999999
0.999999
1
1
1
0.999999
0.999999
1
0.999998
1
0.999998
1
0.999999
0.999999
1
0.999997
1
0.999995
1.00001
0.999999
0.999991
1.00002
0.999995
0.999985
1.00002
0.99999
1
0.999986
1.00002
0.999987
1
0.999992
1
1.00001
0.999995
0.999996
1
1
1.00001
1.00001
1.00001
1.00002
1.00003
1.00006
1.00009
1.00013
1.00018
1.00023
1.00029
1.00034
1.00038
1.00045
1.00058
1.00086
1.00138
1.00226
1.00357
1.00534
1.00754
1.01003
1.01268
1.01533
1.0179
1.02028
1.02245
1.02433
1.0259
1.02714
1.02799
1.02845
1.02845
1.02787
1.0266
1.02458
1.02185
1.0187
1.01545
1.01235
1.00961
1.00727
1.00533
1.00378
1.00257
1.00166
1.00102
1.00057
1.00027
1.00007
0.999974
0.999934
0.99992
0.999923
0.999939
0.999957
0.99997
0.99998
0.999987
0.999992
0.999995
0.999997
0.999999
0.999999
1
0.999999
1
1
0.999998
1
0.999999
1
1
0.999998
1
0.999997
1
1
0.999995
1.00001
0.999997
0.999999
0.999997
1.00002
0.99997
1.00002
1.00001
0.999985
1.00001
0.999987
1.00003
0.999968
1.00002
0.999973
1.00004
0.999971
1.00002
0.999981
1.00002
0.999986
1.00001
1.00001
1.00001
1.00002
1.00005
1.00008
1.00011
1.00017
1.00023
1.0003
1.00036
1.00043
1.0005
1.00062
1.00086
1.00134
1.00219
1.00355
1.00551
1.00807
1.01111
1.01443
1.01779
1.02106
1.02412
1.02689
1.02933
1.03143
1.03312
1.03444
1.03538
1.03596
1.03617
1.03591
1.03493
1.03301
1.03
1.02618
1.02191
1.01765
1.01375
1.01038
1.00763
1.00544
1.00371
1.0024
1.00148
1.00084
1.00041
1.00016
1.00002
0.999933
0.999902
0.999912
0.999929
0.999942
0.999958
0.999973
0.999983
0.999989
0.999994
0.999996
0.999998
0.999999
0.999999
1
0.999998
1
1
0.999997
1
0.999996
1
0.999998
1
1
0.999997
1
0.999993
1.00001
0.999992
0.999996
1.00002
0.999981
0.999999
1.00002
0.999986
1
0.999995
1.00001
0.999995
0.999996
1
1
1.00001
0.99998
1.00002
0.999993
1.00001
0.999997
1.00001
1.00001
1.00002
1.00003
1.00006
1.00009
1.00014
1.00021
1.00029
1.00037
1.00045
1.00053
1.00065
1.00085
1.00126
1.00203
1.00334
1.00535
1.00816
1.01169
1.0157
1.01984
1.02383
1.02754
1.03087
1.03379
1.03625
1.03824
1.03977
1.04089
1.04171
1.04232
1.04279
1.04303
1.04281
1.04164
1.03912
1.03514
1.03009
1.02468
1.01943
1.01474
1.01083
1.00772
1.0053
1.00349
1.00217
1.00123
1.00064
1.00028
1.00005
0.999932
0.999914
0.99991
0.999908
0.999928
0.999952
0.999966
0.999977
0.999985
0.999991
0.999996
0.999996
1
0.999998
1
0.999999
1
1
0.999997
1
1
0.999997
1
0.999995
1.00001
0.999997
1
1
0.999998
0.999995
1.00001
1.00001
0.999969
1.00003
0.999988
0.999996
1.00001
0.99999
1.00002
0.999973
1.00002
0.999979
1.00002
0.999973
1.00002
0.999986
1.00001
0.999977
1.00003
0.999997
1.00001
1.00002
1.00005
1.00007
1.00011
1.00018
1.00026
1.00035
1.00044
1.00055
1.00066
1.00084
1.00117
1.00182
1.003
1.00493
1.0078
1.01165
1.01629
1.02124
1.02603
1.03036
1.03415
1.03737
1.04
1.04206
1.04348
1.04436
1.04485
1.04519
1.04562
1.04626
1.04716
1.04808
1.04845
1.04748
1.04441
1.03947
1.03332
1.02676
1.02059
1.01525
1.01088
1.00753
1.00502
1.00313
1.00184
1.001
1.00043
1.00011
0.999991
0.999913
0.999869
0.999893
0.999928
0.999942
0.999956
0.999971
0.999983
0.999988
0.999994
0.999996
0.999998
1
0.999998
1
0.999997
0.999998
1
0.999995
1.00001
0.999995
1
0.999999
0.999998
1
0.999995
1.00001
0.99999
1
1.00001
0.999974
1.00001
1.00001
0.999985
1
1
0.999997
1.00001
0.999979
1.00002
0.999975
1.00002
0.999985
1.00002
0.999968
1.00002
0.999988
1.00003
0.999989
1.00002
1.00003
1.00006
1.00008
1.00014
1.00022
1.00031
1.00042
1.00053
1.00066
1.00082
1.00109
1.0016
1.00259
1.00432
1.00706
1.01098
1.01605
1.02179
1.02747
1.0325
1.03665
1.03998
1.04255
1.04436
1.04541
1.04566
1.04525
1.04455
1.04395
1.04384
1.04451
1.04608
1.04837
1.0509
1.05247
1.05192
1.04861
1.04269
1.03543
1.02799
1.02106
1.01521
1.01062
1.00705
1.00448
1.00274
1.00149
1.0007
1.00029
1.00002
0.999863
0.999864
0.999891
0.999894
0.999915
0.999949
0.999967
0.999977
0.999986
0.99999
0.999997
0.999995
1
0.999997
1
1
0.999997
1
1
0.999997
1.00001
0.999992
1.00001
0.999991
1.00001
0.999994
1.00001
0.999992
1.00001
0.999989
0.999988
1.00003
0.999972
1.00001
0.999994
1.00001
1.00001
0.999997
0.999991
0.999998
1.00001
1.00001
0.999995
0.999985
1
1.00001
1.00001
0.999979
1.00002
1.00002
1.00004
1.00006
1.00011
1.00018
1.00026
1.00037
1.00049
1.00063
1.00078
1.001
1.00141
1.00219
1.00364
1.00607
1.0098
1.01497
1.0213
1.02792
1.03383
1.03844
1.04173
1.04397
1.04528
1.04567
1.04507
1.04345
1.04109
1.03859
1.03659
1.03562
1.0361
1.03817
1.04186
1.04673
1.05163
1.05501
1.05497
1.05118
1.04461
1.03642
1.02815
1.02081
1.01462
1.00984
1.00643
1.0039
1.00217
1.00116
1.00048
1.00006
0.999938
0.999884
0.999831
0.999856
0.999911
0.999936
0.999952
0.999969
0.999984
0.999988
0.999994
0.999997
0.999997
1
0.999996
1
1
0.999994
1.00001
0.999994
1
0.999998
0.999999
1
0.999996
1.00001
0.999992
1.00001
1
0.999983
1.00002
0.999998
0.999984
1
1
1.00001
1.00001
0.999959
1.00002
0.999994
1.00004
0.999959
0.999999
0.999992
1.00004
0.999982
1.00001
0.999972
1.00004
1.00001
1.00005
1.00008
1.00013
1.00021
1.00031
1.00043
1.00057
1.00072
1.00092
1.00124
1.00183
1.00297
1.005
1.00831
1.01322
1.01974
1.02716
1.03415
1.03953
1.04291
1.04463
1.04518
1.04468
1.04309
1.04025
1.0361
1.03122
1.02646
1.02274
1.02072
1.02079
1.02318
1.028
1.03498
1.04341
1.05122
1.05613
1.05671
1.05242
1.04486
1.03612
1.02736
1.01966
1.0136
1.00888
1.00546
1.00325
1.00173
1.00074
1.00028
1.00002
0.999839
0.999829
0.999873
0.999886
0.999904
0.999941
0.999965
0.999976
0.999987
0.99999
0.999998
0.999995
1
0.999999
0.999998
1
1
0.999997
1.00001
0.999992
1.00001
0.99999
1.00001
0.99999
1.00001
0.999987
1.00002
0.999976
1.00001
1.00001
0.999972
1.00001
0.999995
1.00004
0.999969
0.999994
0.999977
1.00007
0.999967
1.00001
0.999937
1.00005
1
1.00001
0.99997
1.00001
1.00001
1.00001
1.00004
1.00005
1.0001
1.00015
1.00023
1.00035
1.00048
1.00064
1.00082
1.00108
1.00153
1.00238
1.00397
1.00673
1.01109
1.01732
1.02513
1.0332
1.03976
1.04368
1.04505
1.04463
1.04307
1.04038
1.03638
1.03083
1.02365
1.01588
1.00881
1.0034
1.00037
1.00008
1.00267
1.00818
1.01673
1.02792
1.04002
1.05068
1.05673
1.05688
1.0521
1.04388
1.03444
1.02564
1.01801
1.01196
1.0077
1.00462
1.00246
1.00123
1.0005
1.00005
0.999897
0.999867
0.999833
0.999847
0.999902
0.999934
0.999954
0.999968
0.999984
0.999989
0.999994
0.999999
0.999995
1
0.999996
0.999995
1.00001
0.999994
1
0.999998
0.999999
1
0.999996
1
0.999995
1.00001
0.999995
0.999993
1.00003
0.99998
0.999983
1.00003
1.00001
0.999983
0.999966
1.00002
1.00004
0.999989
0.999956
0.999993
1.00003
1.00004
0.999967
0.999983
1
1
1.00004
0.999987
1.00005
1.00005
1.0001
1.00017
1.00027
1.00039
1.00054
1.00071
1.00094
1.00128
1.0019
1.00308
1.00524
1.00887
1.01441
1.022
1.0308
1.03879
1.04394
1.04555
1.04434
1.04148
1.03765
1.03254
1.02591
1.01732
1.00687
0.996315
0.987369
0.980852
0.977265
0.976896
0.979724
0.985685
0.99503
1.00775
1.02315
1.03857
1.05058
1.0569
1.05631
1.05024
1.04147
1.03186
1.02298
1.01586
1.0103
1.00618
1.00354
1.00187
1.00078
1.00022
0.999972
0.999827
0.999808
0.999857
0.999891
0.999912
0.999941
0.999966
0.999977
0.999989
0.99999
0.999998
0.999997
0.999998
1
0.999999
0.999998
1
0.999993
1.00001
0.999992
1.00001
0.999992
1.00001
0.999991
1.00001
0.999978
1.00003
0.999978
0.999982
1.00004
1.00001
0.999973
0.999962
1.00007
0.999991
1.00002
0.999903
1.00007
0.999983
1.00008
0.999913
1.00002
0.999989
1.00003
0.999973
1.00003
1.00002
1.00001
1.00007
1.00011
1.0002
1.00029
1.00042
1.00058
1.00079
1.00107
1.00153
1.00237
1.00396
1.0068
1.01142
1.01824
1.02706
1.0363
1.04325
1.04605
1.04476
1.04075
1.03548
1.02939
1.02182
1.01249
1.00072
0.987093
0.974432
0.964562
0.957821
0.954324
0.954257
0.957559
0.964025
0.973622
0.986828
1.00367
1.02229
1.03969
1.05186
1.05657
1.05447
1.04738
1.03789
1.02843
1.02
1.01315
1.00828
1.00495
1.00263
1.00122
1.00046
1.00003
0.999857
0.999834
0.999838
0.999856
0.9999
0.999935
0.999959
0.999972
0.999984
0.999992
0.999993
1
0.999996
1
1
0.999995
1
0.999999
0.999999
1
0.999995
1
0.999997
1
0.999999
1
1.00001
0.999965
1.00004
1.00001
0.999942
1.00001
1.00004
1.00002
0.999935
1
1.00001
1.00007
0.999945
1.00001
0.999937
1.00008
0.999983
1.00002
0.999979
0.999997
1.00005
1.00002
1.00008
1.00013
1.0002
1.0003
1.00045
1.00063
1.00087
1.00122
1.00183
1.00296
1.00504
1.00866
1.01438
1.02246
1.03219
1.04105
1.04601
1.04581
1.04139
1.0347
1.02725
1.01906
1.00908
0.997101
0.982152
0.965788
0.952025
0.942188
0.935789
0.932714
0.933167
0.937176
0.944377
0.95443
0.967758
0.984794
1.0051
1.02586
1.04295
1.05342
1.05592
1.0516
1.04333
1.03359
1.02424
1.0166
1.01077
1.00641
1.00351
1.0018
1.00076
1.00017
0.999927
0.99983
0.99981
0.999847
0.999891
0.999923
0.999947
0.999969
0.99998
0.99999
0.999993
0.999996
1
0.999996
0.999998
1
0.999995
1.00001
0.999995
1
0.999997
1
0.999999
1
0.999996
1.00001
0.99997
1.00004
0.999999
0.999954
1.00002
1.00005
0.999977
0.999937
1.00004
1.00001
1.00005
0.999921
1.00003
0.999964
1.00007
0.999955
1.00001
0.999975
1.00005
0.99997
1.00003
1.00006
1.00006
1.00013
1.0002
1.00032
1.00048
1.00068
1.00095
1.00141
1.00221
1.00368
1.00633
1.01082
1.01767
1.02689
1.03699
1.04459
1.0468
1.04331
1.03587
1.02685
1.01758
1.00744
0.995172
0.980616
0.962443
0.943827
0.92963
0.920077
0.913906
0.911043
0.911959
0.916826
0.925194
0.936436
0.950352
0.967567
0.988406
1.01108
1.03215
1.04752
1.05468
1.05399
1.04761
1.03831
1.02872
1.02019
1.01317
1.00805
1.00469
1.00247
1.00107
1.00035
0.999998
0.99984
0.999813
0.99984
0.999874
0.99991
0.999941
0.999963
0.999979
0.999986
0.999995
0.999994
1
0.999998
0.999996
1
0.999999
0.999999
1
0.999995
1.00001
0.999996
1
1
0.999997
1
0.999999
1.00002
0.999946
1.00004
1.00004
0.999945
0.999979
1.00003
1.00005
0.999946
1
0.999957
1.00009
0.999952
1.00006
0.999906
1.00005
0.999965
1.00004
1.00001
0.999981
1.00006
1.00007
1.00012
1.00022
1.00033
1.00049
1.00072
1.00106
1.00164
1.00266
1.00453
1.00782
1.01323
1.02119
1.03129
1.04107
1.0466
1.04568
1.03895
1.02886
1.01795
1.00718
0.995201
0.98078
0.963465
0.941607
0.92083
0.906183
0.896351
0.889737
0.886715
0.888117
0.894213
0.904431
0.917586
0.932909
0.95088
0.972209
0.996311
1.0202
1.03957
1.0513
1.05454
1.05068
1.04256
1.03289
1.02352
1.01579
1.01007
1.00593
1.00313
1.00149
1.00058
1.00009
0.999875
0.999823
0.99983
0.999862
0.9999
0.999935
0.999957
0.999975
0.999985
0.999991
0.999997
0.999995
1
1
0.999997
1
0.999996
1
0.999999
0.999999
1
0.999995
1.00001
0.999994
1
1.00001
0.999972
1.00003
1.00002
0.999958
0.999981
1.00006
0.999996
0.999958
0.999995
1.00001
1.00004
0.999962
0.999998
0.999975
1.00005
0.999989
1.00003
0.999944
1.00006
0.999994
1.00002
1.00009
1.00012
1.00021
1.00033
1.00051
1.00078
1.00119
1.00191
1.0032
1.00551
1.00949
1.01583
1.02481
1.03538
1.04412
1.04705
1.04296
1.03331
1.02101
1.00864
0.996626
0.982841
0.96624
0.945218
0.9188
0.895657
0.879746
0.868445
0.860484
0.857148
0.859659
0.868028
0.881121
0.897119
0.914731
0.93408
0.956184
0.981266
1.00721
1.03012
1.04616
1.05337
1.05244
1.04587
1.0365
1.02691
1.01863
1.01199
1.00713
1.00397
1.00201
1.00082
1.0002
0.999933
0.999835
0.999824
0.999853
0.999893
0.999926
0.999954
0.99997
0.999985
0.999989
0.999996
0.999997
0.999998
1
0.999998
1
1
0.999997
1
0.999995
1
0.999997
1
1
0.999999
0.999997
0.999998
1.00003
0.999953
1.00001
1.00004
0.999981
0.999963
1.00001
1.00005
0.999976
1.00001
0.99994
1.00006
0.999946
1.00007
0.999932
1.00005
0.999966
1.00001
1.00006
1
1.00006
1.00012
1.0002
1.00034
1.00053
1.00084
1.00134
1.00223
1.00382
1.00661
1.01129
1.01854
1.02836
1.03892
1.046
1.04614
1.03912
1.02698
1.01289
0.999403
0.986261
0.970635
0.951286
0.924792
0.893214
0.866953
0.847728
0.833134
0.822986
0.819486
0.824235
0.836606
0.854424
0.874994
0.896189
0.917622
0.940567
0.966205
0.993633
1.01944
1.03933
1.05047
1.05276
1.04816
1.0397
1.03015
1.0212
1.01387
1.00855
1.00489
1.0025
1.0011
1.00036
0.999999
0.999851
0.999824
0.999848
0.999886
0.99992
0.999949
0.999968
0.999981
0.99999
0.999993
0.999999
0.999996
0.999997
1
0.999997
1
0.999998
1
1
0.999997
1
0.999994
1.00001
0.999993
1.00001
1.00001
0.999983
1
1.00003
0.999981
0.999963
1.00004
1.00001
0.999986
0.999974
1.00001
1.00003
1.00001
0.999999
0.999968
1.00001
0.999958
1.00007
0.999949
1.00003
1.00004
1.00003
1.00011
1.00019
1.00033
1.00054
1.00091
1.00153
1.00259
1.00451
1.0078
1.01316
1.02122
1.03166
1.04174
1.04677
1.04418
1.03465
1.02048
1.00495
0.990542
0.976271
0.958589
0.93509
0.901521
0.864519
0.832698
0.806708
0.786717
0.773698
0.770278
0.778472
0.797073
0.822268
0.849862
0.876684
0.901594
0.92596
0.951997
0.980159
1.00792
1.03105
1.04604
1.0517
1.04948
1.04226
1.03287
1.02362
1.01587
1.00996
1.00575
1.00303
1.00142
1.00052
1.00007
0.999877
0.999832
0.999846
0.99988
0.999916
0.999944
0.999966
0.999979
0.999989
0.999993
0.999996
0.999999
0.999998
1
1
0.999999
1
0.999997
1
0.999996
1
0.999996
1
0.999997
1
0.999997
0.999996
1.00002
0.999976
0.999995
1.00002
1.00001
0.999963
0.999998
1.00003
0.999993
1.00001
0.999955
1.00005
0.999952
1.00006
0.999947
1.00002
1.00002
0.999957
1.00003
1.00005
1.00009
1.00018
1.00031
1.00055
1.001
1.00174
1.00299
1.00522
1.00903
1.01504
1.02378
1.03455
1.04378
1.04661
1.04152
1.02996
1.01421
0.997481
0.982204
0.966704
0.946449
0.917011
0.875799
0.832033
0.790269
0.753806
0.726663
0.710189
0.706952
0.719646
0.746605
0.781952
0.81936
0.854348
0.884941
0.91217
0.938978
0.967386
0.996288
1.02195
1.04032
1.04937
1.04977
1.04399
1.03516
1.0259
1.01771
1.01125
1.00664
1.00361
1.00175
1.00069
1.00015
0.999917
0.999846
0.999849
0.999878
0.999913
0.999942
0.999964
0.999979
0.999987
0.999994
0.999995
0.999999
1
0.999998
1
0.999998
1
0.999998
1
1
0.999999
1
0.999998
1
0.999998
1
1
0.999996
0.999992
1.00002
1
0.999972
1.00001
1.00001
1
0.999976
1
0.999998
1
1
0.999988
1.00005
0.999928
1.00004
0.999997
1
1.00004
1.00007
1.00016
1.00032
1.00057
1.00108
1.00196
1.00339
1.00594
1.01025
1.01685
1.02608
1.03693
1.04509
1.04577
1.03848
1.02537
1.00846
0.99067
0.974435
0.957527
0.93393
0.897363
0.848374
0.794531
0.738561
0.689225
0.653616
0.633161
0.630055
0.647582
0.684055
0.731884
0.781946
0.827712
0.866273
0.898211
0.926867
0.955644
0.985154
1.01257
1.03377
1.04597
1.04898
1.04495
1.03698
1.02782
1.01934
1.0125
1.00753
1.00418
1.00208
1.00087
1.00025
0.999966
0.999866
0.999854
0.999878
0.999911
0.999941
0.999963
0.999978
0.999987
0.999993
0.999997
0.999997
0.999999
0.999999
0.999999
1
0.999998
1
0.999997
1
0.999996
1
0.999996
1
0.999997
1
1
0.999994
1.00001
0.999995
0.999994
0.999999
1.00002
0.999979
0.999994
1.00001
1.00001
1.00002
0.999967
1.00003
0.999943
1.00004
0.999995
0.999968
1.00002
0.999997
1.00002
1.00004
1.00014
1.00032
1.00059
1.00116
1.00219
1.00381
1.00662
1.01141
1.01853
1.02806
1.03873
1.04578
1.04451
1.03532
1.02105
1.00341
0.984655
0.967253
0.948669
0.921083
0.877266
0.819618
0.752047
0.680137
0.61742
0.572579
0.547835
0.544578
0.566048
0.611547
0.672769
0.737633
0.796539
0.845074
0.883463
0.915271
0.944999
0.974893
1.00345
1.02686
1.04178
1.04737
1.04524
1.03826
1.02939
1.0208
1.01368
1.00837
1.00471
1.0024
1.00106
1.00035
1.00002
0.999888
0.999862
0.999882
0.999913
0.999941
0.999963
0.999978
0.999988
0.999993
0.999997
0.999998
0.999999
1
0.999999
1
0.999999
1
0.999999
1
1
1
1
1
0.999999
1
0.999998
1
1
0.999993
1.00001
1.00001
0.999992
0.999994
1.00001
1.00001
0.999985
1
0.999999
1.00001
1.00001
0.999951
1.00003
0.999982
0.999984
0.999982
1.00001
1.00004
1.00011
1.00032
1.00059
1.0012
1.00241
1.00423
1.00723
1.01242
1.02002
1.02967
1.03995
1.046
1.04311
1.03225
1.0171
0.999151
0.979563
0.960724
0.940092
0.908407
0.857906
0.790223
0.707505
0.620853
0.546238
0.492987
0.464291
0.460374
0.483925
0.535928
0.608855
0.688549
0.761859
0.821885
0.868053
0.904107
0.935459
0.965786
0.995014
1.02
1.03724
1.0452
1.04491
1.03904
1.03062
1.02205
1.01471
1.0091
1.0052
1.00272
1.00126
1.00046
1.00007
0.999914
0.999877
0.99989
0.999917
0.999943
0.999964
0.999978
0.999987
0.999993
0.999996
0.999998
0.999999
0.999999
1
0.999999
1
0.999998
1
0.999998
1
0.999997
1
0.999997
1
0.999999
0.999999
1
0.999997
1
1
0.999998
0.999994
1.00001
0.999993
1
0.999992
1
1.00001
0.999975
1.00003
0.999989
0.999977
1
0.999982
0.999975
1
1.00002
1.00008
1.00032
1.00061
1.00121
1.00258
1.00463
1.00777
1.01325
1.02126
1.03092
1.04064
1.04583
1.04177
1.02948
1.01354
0.995639
0.975534
0.955
0.931902
0.89654
0.840219
0.762169
0.66612
0.56819
0.485325
0.426433
0.394594
0.38942
0.412953
0.467695
0.548198
0.639837
0.726528
0.79821
0.852744
0.893723
0.927164
0.958037
0.987623
1.01367
1.03271
1.0427
1.04411
1.03937
1.0315
1.02304
1.01555
1.00974
1.00566
1.00302
1.00143
1.00056
1.00013
0.999948
0.999897
0.999901
0.999923
0.999946
0.999965
0.999979
0.999988
0.999994
0.999996
0.999998
0.999999
0.999999
1
1
1
1
1
1
1
1
1
1
1
1
1
1
0.999999
1
0.999997
1
0.999999
1
0.999992
1
1.00001
0.999993
1
0.999991
0.999983
1.00002
0.999988
0.999986
0.999987
0.999962
0.999992
1.00002
1.00004
1.00029
1.00065
1.00121
1.00267
1.00499
1.00826
1.01385
1.02218
1.03186
1.04093
1.04537
1.04064
1.02724
1.0104
0.992735
0.972641
0.950373
0.924452
0.885939
0.824931
0.738426
0.633635
0.529389
0.442594
0.380846
0.346423
0.339482
0.361552
0.415937
0.499463
0.598475
0.695166
0.776689
0.838911
0.884718
0.92041
0.951867
0.981605
1.00823
1.02852
1.04012
1.04303
1.03936
1.03206
1.02377
1.01624
1.01029
1.00605
1.00327
1.00159
1.00066
1.00019
0.999987
0.99992
0.999914
0.99993
0.999951
0.999968
0.999981
0.999989
0.999994
0.999997
0.999998
0.999999
1
1
1
0.999999
1
0.999999
1
0.999998
1
0.999998
1
0.999999
1
1
0.999999
1
1
0.999998
1
0.999999
0.999996
1.00001
0.999994
1.00001
0.999994
0.999998
1.00001
0.999988
0.999994
0.999991
0.999979
0.99999
0.999957
0.999967
1.00002
1.00001
1.00024
1.00067
1.0012
1.00265
1.00525
1.00871
1.01426
1.02273
1.03248
1.04096
1.04471
1.03973
1.02572
1.00786
0.990249
0.97077
0.94725
0.918372
0.876912
0.812642
0.721713
0.613953
0.507978
0.419716
0.356269
0.319652
0.310928
0.331296
0.38404
0.467663
0.569889
0.67236
0.760427
0.828278
0.877928
0.915547
0.947492
0.977151
1.00395
1.02498
1.03774
1.04186
1.03912
1.03235
1.02427
1.01675
1.01072
1.00636
1.00348
1.00173
1.00075
1.00025
1.00003
0.999943
0.999928
0.999939
0.999957
0.999972
0.999983
0.99999
0.999995
0.999997
0.999998
0.999999
1
1
1
1
1
1
1
1
0.999999
1
0.999999
1
0.999999
1
1
0.999999
1
1
1
1
0.999998
1
1
0.999995
1
0.999998
1
0.999999
0.999995
0.999992
0.999972
0.999982
0.999963
0.999947
1.00002
1.00001
1.00016
1.00065
1.00122
1.00256
1.00533
1.00908
1.01455
1.02289
1.03274
1.04087
1.04398
1.03898
1.025
1.00623
0.988111
0.96956
0.945897
0.914485
0.870035
0.803926
0.712976
0.606851
0.501834
0.41277
0.348102
0.310362
0.300709
0.320055
0.371157
0.453514
0.556113
0.6607
0.751711
0.822399
0.874179
0.912918
0.945041
0.974392
1.001
1.02232
1.03579
1.04076
1.03873
1.03243
1.02457
1.01709
1.01102
1.00659
1.00365
1.00185
1.00084
1.00031
1.00006
0.999969
0.999945
0.999951
0.999964
0.999976
0.999986
0.999992
0.999996
0.999998
0.999999
1
1
1
1
1
1
1
0.999999
1
0.999999
1
0.999999
1
0.999999
1
1
0.999999
1
0.999999
1
0.999999
1
0.999997
1
1
1
0.999995
0.999999
0.999998
0.999989
0.999997
0.99998
0.999977
0.99997
0.999932
0.999992
1.00002
1.0001
1.00057
1.00123
1.00246
1.00521
1.00929
1.0148
1.0228
1.03257
1.04068
1.04338
1.03837
1.02494
1.0058
0.986603
0.968579
0.946054
0.913503
0.86648
0.7995
0.711064
0.608812
0.506287
0.417647
0.353212
0.31632
0.307144
0.326219
0.375736
0.455815
0.556709
0.66053
0.751352
0.822081
0.873983
0.912732
0.944555
0.973365
0.999493
1.02068
1.03441
1.03984
1.03829
1.03233
1.02466
1.01726
1.01118
1.00674
1.00377
1.00195
1.00091
1.00036
1.0001
0.999996
0.999965
0.999964
0.999972
0.999982
0.999989
0.999994
0.999997
0.999998
0.999999
1
1
1
1
1
1
1
1
1
1
0.999999
1
1
1
1
0.999999
1
0.999999
1
1
1
1
1
1
0.999999
1
1
0.999994
1
0.999996
0.99999
0.999981
0.999975
0.999973
0.999937
0.999961
1.00002
1.00007
1.00044
1.00118