/*--------------------------------*- C++ -*----------------------------------*\
  =========                 |
  \\      /  F ield         | OpenFOAM: The Open Source CFD Toolbox
   \\    /   O peration     | Website:  https://openfoam.org
    \\  /    A nd           | Version:  6
     \\/     M anipulation  |
\*---------------------------------------------------------------------------*/
FoamFile
{
    version     2.0;
    format      ascii;
    class       volScalarField;
    location    "4.88";
    object      p;
}
// * * * * * * * * * * * * * * * * * * * * * * * * * * * * * * * * * * * * * //

dimensions      [1 -1 -2 0 0 0 0];

internalField   nonuniform List<scalar> 
10000
(
0.999982
0.999985
0.999988
0.999992
0.999994
0.999996
0.999997
0.999998
0.999999
1
0.999999
1
1
1
1
1
1
1
1
1
1
1
1
1
1
1
1
1
1
1
1
1
1
1
1
1
1
1
1
1.00001
1.00001
1.00002
1.00002
1.00003
1.00004
1.00005
1.00005
1.00006
1.00007
1.00009
1.00013
1.00021
1.00038
1.00065
1.00108
1.0017
1.00254
1.00361
1.00492
1.00643
1.00809
1.00985
1.01163
1.01338
1.01501
1.01649
1.01777
1.01884
1.01966
1.02025
1.0206
1.02072
1.0206
1.02026
1.01969
1.01889
1.01786
1.01662
1.01517
1.01358
1.01189
1.01017
1.00849
1.00691
1.00549
1.00426
1.00321
1.00236
1.00169
1.00117
1.00079
1.00051
1.00031
1.00018
1.00009
1.00003
1
0.999988
0.999981
0.99998
0.999976
0.99998
0.999984
0.999988
0.999992
0.999994
0.999996
0.999998
0.999998
0.999999
1
1
1
1
1
1
1
1
1
1
1
1
1
1
1
1
1
1
1
1
1
1
1
1
1
1
1
1
1.00001
1.00001
1.00002
1.00002
1.00003
1.00004
1.00005
1.00006
1.00007
1.00009
1.00011
1.00015
1.00023
1.00039
1.00066
1.00111
1.00178
1.00272
1.00395
1.00548
1.00729
1.00931
1.01147
1.01368
1.01585
1.0179
1.01976
1.02137
1.02272
1.0238
1.02461
1.02516
1.02548
1.02557
1.02545
1.02511
1.02455
1.02375
1.0227
1.02139
1.01981
1.01798
1.01597
1.01385
1.01171
1.00965
1.00774
1.00605
1.0046
1.0034
1.00245
1.00171
1.00115
1.00075
1.00046
1.00027
1.00014
1.00006
1.00001
0.999987
0.999976
0.999974
0.999969
0.999973
0.999979
0.999984
0.999989
0.999992
0.999995
0.999997
0.999998
0.999999
0.999999
1
1
1
1
1
1
1
1
1
1
1
1
1
1
1
1
1
1
0.999999
1
1
1
1
1
1
1
1
1.00001
1.00001
1.00002
1.00003
1.00004
1.00006
1.00007
1.00009
1.0001
1.00013
1.00017
1.00024
1.00039
1.00066
1.00111
1.0018
1.00281
1.00418
1.00592
1.00802
1.01041
1.01299
1.01565
1.01826
1.02071
1.02292
1.02482
1.02638
1.02762
1.02854
1.02918
1.02959
1.02979
1.02982
1.0297
1.02942
1.02897
1.02832
1.02743
1.02624
1.02472
1.02286
1.02067
1.01825
1.01569
1.01312
1.01067
1.00843
1.00648
1.00484
1.00351
1.00247
1.00168
1.0011
1.00068
1.0004
1.00021
1.0001
1.00003
0.999989
0.999972
0.999967
0.999961
0.999966
0.999972
0.999979
0.999985
0.999989
0.999993
0.999995
0.999997
0.999998
0.999999
0.999999
1
1
1
1
1
1
1
1
1
1
1
1
1
1
1
1
1
1
1
1
1
1
1
1
1
1.00001
1.00001
1.00002
1.00003
1.00004
1.00006
1.00007
1.00009
1.00012
1.00014
1.00018
1.00025
1.00039
1.00063
1.00106
1.00176
1.00281
1.00428
1.0062
1.00857
1.01132
1.01432
1.01743
1.02048
1.02332
1.02582
1.02792
1.02959
1.03082
1.03168
1.03222
1.03252
1.03264
1.03264
1.03257
1.03245
1.03229
1.03206
1.03172
1.03121
1.03042
1.02927
1.02767
1.02561
1.02311
1.02029
1.0173
1.01431
1.01149
1.00895
1.00676
1.00495
1.00352
1.00242
1.0016
1.00101
1.0006
1.00033
1.00016
1.00006
0.999998
0.999971
0.999961
0.999953
0.999957
0.999965
0.999973
0.99998
0.999986
0.99999
0.999994
0.999996
0.999997
0.999998
0.999999
0.999999
1
1
1
1
1
1
1
1
1
1
1
1
1
1
1
1
1
1
1
1
1
1
1
1.00001
1.00001
1.00002
1.00002
1.00004
1.00005
1.00007
1.0001
1.00012
1.00015
1.00019
1.00026
1.00038
1.0006
1.001
1.00166
1.00271
1.00423
1.00629
1.00889
1.01198
1.0154
1.01895
1.02243
1.02562
1.02836
1.03055
1.03217
1.03324
1.03382
1.03402
1.03394
1.0337
1.03339
1.0331
1.03288
1.03277
1.03277
1.03287
1.033
1.03308
1.03299
1.03256
1.03165
1.03012
1.02795
1.02519
1.022
1.0186
1.01522
1.01205
1.00924
1.00686
1.00493
1.00343
1.0023
1.00147
1.0009
1.00051
1.00026
1.00011
1.00002
0.999974
0.999956
0.999945
0.999948
0.999956
0.999965
0.999974
0.999982
0.999987
0.999992
0.999994
0.999997
0.999998
0.999999
0.999999
1
1
1
1
1
1
1
1
1
1
1
1
1
1
1
1
1
1
1
1
1
1
1
1.00001
1.00001
1.00002
1.00003
1.00005
1.00007
1.0001
1.00012
1.00016
1.0002
1.00026
1.00037
1.00056
1.00091
1.00152
1.00252
1.00403
1.00617
1.00895
1.01233
1.01614
1.02014
1.02403
1.02754
1.03046
1.03265
1.03408
1.03479
1.03488
1.03449
1.03378
1.0329
1.03199
1.03117
1.03053
1.03013
1.03002
1.0302
1.03066
1.03134
1.03217
1.03301
1.03364
1.03383
1.03334
1.03201
1.0298
1.02682
1.0233
1.01952
1.01579
1.01233
1.0093
1.00678
1.00478
1.00325
1.00212
1.00131
1.00077
1.00041
1.00019
1.00005
0.999985
0.999954
0.99994
0.999939
0.999947
0.999957
0.999968
0.999977
0.999984
0.999989
0.999993
0.999995
0.999997
0.999998
0.999999
1
1
1
1
1
1
1
1
1
1
1
1
1
1
1
1
1
1
1
1
1
1
1.00001
1.00001
1.00002
1.00003
1.00004
1.00006
1.00009
1.00012
1.00016
1.0002
1.00026
1.00035
1.00052
1.00082
1.00135
1.00227
1.00371
1.00584
1.00873
1.01235
1.01651
1.02093
1.02523
1.02906
1.03211
1.03423
1.03535
1.03554
1.03495
1.03378
1.03222
1.03049
1.02874
1.02713
1.02578
1.02478
1.0242
1.02407
1.02441
1.02521
1.02643
1.02802
1.02986
1.03173
1.03333
1.03434
1.03441
1.03336
1.03116
1.02798
1.02414
1.02002
1.01598
1.01229
1.00912
1.00653
1.0045
1.00298
1.00189
1.00113
1.00063
1.00031
1.00012
1.00001
0.999959
0.99994
0.999932
0.999937
0.999948
0.99996
0.999971
0.999979
0.999986
0.999991
0.999994
0.999996
0.999998
0.999999
0.999999
0.999999
1
1
1
1
1
1
1
1
1
1
1
1
1
1
1
1
1
1
1
1
1.00001
1.00001
1.00002
1.00003
1.00005
1.00008
1.00011
1.00015
1.0002
1.00026
1.00034
1.00048
1.00072
1.00118
1.00198
1.0033
1.00534
1.00824
1.012
1.01646
1.02128
1.026
1.03015
1.03334
1.03533
1.03607
1.03566
1.03428
1.03218
1.02964
1.02691
1.02418
1.02164
1.01942
1.01762
1.01632
1.01557
1.01542
1.01586
1.01692
1.01856
1.02078
1.0235
1.02655
1.02966
1.0324
1.03433
1.03502
1.03424
1.03203
1.02864
1.02449
1.02008
1.0158
1.01196
1.00871
1.00611
1.00412
1.00266
1.00163
1.00093
1.00049
1.00021
1.00005
0.999974
0.999946
0.999927
0.999929
0.999939
0.999952
0.999964
0.999974
0.999983
0.999988
0.999992
0.999996
0.999997
0.999998
0.999999
0.999999
1
1
1
1
1
1
1
1
1
1
1
1
1
1
1
1
1
1
1
1
1.00001
1.00002
1.00003
1.00004
1.00007
1.0001
1.00014
1.00019
1.00025
1.00032
1.00044
1.00064
1.00101
1.00168
1.00284
1.00471
1.0075
1.0113
1.01597
1.02116
1.0263
1.03081
1.03417
1.03607
1.03642
1.03536
1.03314
1.03007
1.0265
1.02272
1.01899
1.01549
1.01238
1.00974
1.00765
1.00615
1.00529
1.00509
1.00558
1.00675
1.00863
1.01123
1.01454
1.0185
1.02289
1.02732
1.03125
1.03407
1.03531
1.03473
1.03243
1.02879
1.02435
1.01969
1.01525
1.01134
1.0081
1.00556
1.00366
1.00229
1.00135
1.00074
1.00035
1.00012
1
0.999964
0.999928
0.999922
0.99993
0.999943
0.999957
0.999969
0.999978
0.999986
0.999991
0.999994
0.999996
0.999998
0.999999
0.999999
1
1
1
1
1
1
1
1
1
1
1
1
1
1
1
1
1
1
1
1.00001
1.00001
1.00002
1.00003
1.00006
1.00008
1.00012
1.00017
1.00023
1.0003
1.0004
1.00057
1.00086
1.00141
1.00238
1.00401
1.00658
1.01026
1.01503
1.02052
1.0261
1.03103
1.03464
1.03652
1.03656
1.03489
1.03184
1.02783
1.02325
1.01847
1.01378
1.00939
1.00545
1.00206
0.999255
0.997068
0.995511
0.994601
0.994361
0.994811
0.995969
0.997862
1.00054
1.00408
1.0085
1.01373
1.01947
1.0252
1.03023
1.03381
1.03543
1.03488
1.03238
1.02844
1.02373
1.01888
1.01437
1.01048
1.00733
1.00491
1.00315
1.00191
1.00108
1.00055
1.00023
1.00005
0.999996
0.999937
0.999919
0.999922
0.999934
0.999949
0.999963
0.999974
0.999983
0.999988
0.999993
0.999995
0.999997
0.999998
0.999999
0.999999
1
1
1
1
1
1
1
1
1
1
1
1
1
1
1
1
1
1
1.00001
1.00002
1.00003
1.00004
1.00007
1.0001
1.00015
1.00021
1.00028
1.00037
1.0005
1.00074
1.00116
1.00194
1.0033
1.00556
1.00898
1.01367
1.01935
1.02536
1.03078
1.03477
1.03678
1.03661
1.03445
1.03067
1.02579
1.02028
1.01459
1.00904
1.00388
0.999249
0.995246
0.991897
0.989196
0.987115
0.985632
0.98474
0.984453
0.984796
0.985801
0.987512
0.990003
0.993391
0.997803
1.0033
1.00976
1.01679
1.0237
1.02962
1.03372
1.03546
1.03472
1.03188
1.02761
1.02266
1.0177
1.01321
1.00943
1.00645
1.00422
1.00262
1.00153
1.00082
1.00038
1.00013
1.00005
0.999956
0.999921
0.999916
0.999926
0.999941
0.999956
0.999969
0.999979
0.999986
0.999991
0.999994
0.999997
0.999998
0.999999
0.999999
1
1
1
1
1
1
1
1
1
1
1
1
1
1
1
1
1
1.00001
1.00001
1.00002
1.00003
1.00005
1.00008
1.00013
1.00018
1.00025
1.00033
1.00045
1.00063
1.00095
1.00156
1.00264
1.00453
1.00755
1.01197
1.01767
1.02403
1.03001
1.03454
1.03687
1.0367
1.03421
1.02985
1.02421
1.01789
1.01139
1.00509
0.99928
0.99411
0.989665
0.985959
0.982959
0.980599
0.978803
0.97751
0.976689
0.976344
0.97651
0.977236
0.978588
0.980658
0.983593
0.987585
0.99282
0.999358
1.007
1.01519
1.02306
1.02958
1.03385
1.03538
1.03424
1.03094
1.02631
1.02118
1.01621
1.01184
1.00827
1.00551
1.0035
1.0021
1.00117
1.00059
1.00024
1.00013
0.99999
0.999931
0.999915
0.99992
0.999934
0.99995
0.999964
0.999975
0.999983
0.999989
0.999993
0.999996
0.999998
0.999999
0.999999
1
1
1
1
1
1
1
1
1
1
1
1
1
1
1
1
1
1.00001
1.00001
1.00002
1.00004
1.00006
1.0001
1.00015
1.00021
1.00029
1.00039
1.00054
1.00079
1.00124
1.00207
1.00357
1.0061
1.01005
1.01554
1.0221
1.02865
1.03388
1.03677
1.03686
1.03427
1.02951
1.02329
1.01628
1.00907
1.00213
0.995755
0.990158
0.985415
0.981528
0.978438
0.976043
0.974221
0.972849
0.971832
0.971114
0.970692
0.970606
0.97093
0.971759
0.973214
0.975461
0.978729
0.983286
0.989344
0.996917
1.00567
1.01485
1.02337
1.0301
1.03414
1.03514
1.03337
1.02954
1.02459
1.01936
1.01449
1.01034
1.00704
1.00457
1.00281
1.00162
1.00086
1.00039
1.00023
1.00004
0.99995
0.999918
0.999916
0.999928
0.999943
0.999958
0.999971
0.99998
0.999987
0.999992
0.999995
0.999997
0.999999
0.999999
0.999999
1
1
1
1
1
1
1
1
1
1
1
1
1
1
1
1
1.00001
1.00002
1.00003
1.00005
1.00008
1.00012
1.00018
1.00025
1.00034
1.00046
1.00065
1.00099
1.00161
1.00275
1.00476
1.00809
1.01309
1.01959
1.02662
1.03267
1.03638
1.03704
1.03464
1.02975
1.02312
1.01556
1.00774
1.00022
0.993346
0.987376
0.982419
0.978476
0.975466
0.973251
0.971664
0.970526
0.969674
0.968981
0.968377
0.967849
0.967439
0.967242
0.967391
0.968047
0.96941
0.971731
0.975323
0.980501
0.987454
0.996078
1.00584
1.01574
1.02455
1.03104
1.03444
1.03462
1.03207
1.0277
1.02249
1.01728
1.01262
1.00878
1.00583
1.00367
1.00218
1.0012
1.00059
1.00037
1.00011
0.999982
0.999928
0.999915
0.999923
0.999937
0.999953
0.999967
0.999978
0.999985
0.999991
0.999994
0.999997
0.999998
0.999999
0.999999
1
1
1
1
1
1
1
1
1
1
1
1
1
1
1
1.00001
1.00001
1.00002
1.00003
1.00006
1.00009
1.00014
1.0002
1.00028
1.00039
1.00055
1.00079
1.00124
1.00207
1.0036
1.00626
1.01053
1.01662
1.02388
1.03078
1.03556
1.03712
1.03527
1.03053
1.02373
1.01577
1.00744
0.999376
0.992025
0.985685
0.980522
0.976568
0.973739
0.971865
0.970727
0.970089
0.969723
0.969433
0.969079
0.968584
0.967926
0.967142
0.966328
0.965649
0.965323
0.965603
0.966784
0.969205
0.973236
0.979188
0.987154
0.996836
1.00744
1.01774
1.02637
1.03215
1.03453
1.03366
1.03029
1.02544
1.02011
1.01505
1.01071
1.00725
1.00467
1.00285
1.00162
1.00084
1.00055
1.00021
1.00003
0.999947
0.999919
0.99992
0.999933
0.999948
0.999963
0.999974
0.999983
0.999989
0.999993
0.999996
0.999998
0.999998
0.999999
1
1
1
1
1
1
1
1
1
1
1
0.999999
1
1
1
1.00001
1.00001
1.00002
1.00004
1.00007
1.0001
1.00016
1.00023
1.00033
1.00045
1.00064
1.00096
1.00155
1.00267
1.00468
1.00811
1.01343
1.02051
1.02807
1.03409
1.03691
1.03601
1.03177
1.02507
1.0169
1.00817
0.999594
0.991739
0.984984
0.979558
0.975552
0.972911
0.971455
0.970912
0.970976
0.971349
0.971767
0.972023
0.971986
0.971588
0.970808
0.969658
0.968206
0.966612
0.965142
0.964131
0.963954
0.965004
0.967688
0.972385
0.979327
0.988423
0.999106
1.0103
1.02057
1.02851
1.03314
1.03421
1.03218
1.02803
1.02283
1.01754
1.01276
1.00883
1.00581
1.00362
1.00212
1.00115
1.00077
1.00033
1.00009
0.999975
0.999929
0.999921
0.999929
0.999944
0.999959
0.999971
0.999981
0.999988
0.999993
0.999995
0.999997
0.999999
0.999999
1
1
1
1
1
1
1
1
1
1
1
1
1
1
1
1.00001
1.00002
1.00003
1.00005
1.00008
1.00012
1.00018
1.00026
1.00037
1.00051
1.00075
1.00117
1.00194
1.0034
1.006
1.01032
1.01672
1.02451
1.03172
1.03614
1.03661
1.03328
1.02703
1.0189
1.00989
1.00085
0.992452
0.985189
0.979389
0.975217
0.972679
0.971614
0.971718
0.972606
0.973887
0.975217
0.976326
0.977031
0.97724
0.976926
0.97608
0.974678
0.972708
0.970259
0.96759
0.965119
0.963345
0.962776
0.963891
0.967121
0.97278
0.98093
0.991207
1.00272
1.01411
1.02384
1.03059
1.0337
1.03328
1.03012
1.02534
1.01999
1.01489
1.01053
1.00707
1.0045
1.00271
1.00152
1.00104
1.00048
1.00017
1.00002
0.999946
0.999925
0.999928
0.999941
0.999956
0.999968
0.999979
0.999986
0.999991
0.999995
0.999997
0.999998
0.999999
1
1
1
1
1
1
1
1
1
0.999999
1
1
1
1
1
1.00001
1.00002
1.00003
1.00005
1.00009
1.00014
1.0002
1.00029
1.00042
1.00058
1.00088
1.00142
1.00243
1.00429
1.00758
1.0129
1.02028
1.0283
1.03444
1.03675
1.03482
1.0294
1.02161
1.01253
1.00312
0.994156
0.986278
0.97994
0.975422
0.972812
0.972006
0.972701
0.974442
0.976715
0.979058
0.98112
0.982673
0.983608
0.983917
0.983654
0.98285
0.981441
0.979285
0.976299
0.972622
0.968687
0.96514
0.96268
0.961943
0.963451
0.967588
0.974512
0.984017
0.995393
1.00741
1.01849
1.0271
1.03221
1.03355
1.03164
1.02751
1.02232
1.01703
1.0123
1.00842
1.00548
1.00337
1.00195
1.00134
1.00066
1.00027
1.00007
0.99997
0.999934
0.99993
0.99994
0.999953
0.999966
0.999977
0.999985
0.99999
0.999994
0.999996
0.999998
0.999999
0.999999
1
1
1
0.999999
1
1
1
1
0.999998
1
1
0.999998
1.00001
1.00001
1.00001
1.00002
1.00004
1.00005
1.0001
1.00016
1.00022
1.00032
1.00047
1.00066
1.00103
1.00172
1.00301
1.00536
1.00944
1.0158
1.02389
1.03152
1.036
1.03602
1.03193
1.02484
1.01596
1.00633
0.996848
0.988277
0.981224
0.97612
0.973187
0.972407
0.973519
0.976031
0.979302
0.982693
0.985703
0.988034
0.989572
0.990344
0.990485
0.990176
0.989528
0.988463
0.986683
0.983823
0.979734
0.974705
0.969458
0.964938
0.96205
0.961519
0.963846
0.969271
0.977696
0.988561
1.00077
1.01278
1.02294
1.0299
1.03303
1.03253
1.02928
1.02444
1.01911
1.0141
1.00985
1.00653
1.00411
1.00243
1.00168
1.00087
1.0004
1.00013
1
0.999948
0.999935
0.999939
0.999952
0.999964
0.999975
0.999983
0.999989
0.999994
0.999996
0.999998
0.999999
0.999999
1
1
1
1
1
1
0.999999
1
0.999997
1
1
0.999997
1
1.00001
1.00001
1.00003
1.00004
1.00006
1.00011
1.00018
1.00024
1.00035
1.00052
1.00076
1.0012
1.00208
1.0037
1.00661
1.01156
1.01889
1.02728
1.0339
1.03637
1.03422
1.02834
1.01999
1.01038
1.0005
0.991236
0.983328
0.977385
0.973806
0.972724
0.973965
0.977044
0.981223
0.985654
0.989594
0.99257
0.994424
0.995238
0.995253
0.994805
0.994248
0.99382
0.993473
0.992775
0.991023
0.987599
0.982396
0.976017
0.969597
0.964411
0.961537
0.961717
0.965329
0.972372
0.982394
0.994418
1.00697
1.01834
1.02694
1.03181
1.03281
1.0306
1.0263
1.02107
1.01588
1.01131
1.00765
1.0049
1.00297
1.00206
1.00111
1.00054
1.00021
1.00004
0.999967
0.999942
0.999942
0.999951
0.999963
0.999974
0.999982
0.999989
0.999993
0.999996
0.999997
0.999999
0.999999
1
0.999999
1
0.999999
1
1
0.999998
1
0.999998
0.999999
1.00001
0.999996
1
1.00001
1
1.00002
1.00005
1.00006
1.00011
1.0002
1.00026
1.00037
1.00058
1.00087
1.0014
1.00249
1.00452
1.00805
1.0139
1.02202
1.03021
1.03533
1.03573
1.0317
1.0244
1.01512
1.00504
0.995171
0.986369
0.979382
0.974817
0.973019
0.973984
0.977302
0.982186
0.987594
0.992479
0.996056
0.997982
0.998346
0.997525
0.99604
0.994473
0.993385
0.993161
0.993829
0.994889
0.995339
0.993998
0.990103
0.983809
0.976224
0.968975
0.963641
0.961384
0.962848
0.968183
0.977041
0.988541
1.00128
1.01352
1.02351
1.03
1.03252
1.03147
1.02785
1.02287
1.0176
1.01278
1.00879
1.00574
1.00355
1.00247
1.00137
1.00069
1.0003
1.00009
0.999993
0.999954
0.999946
0.999952
0.999962
0.999973
0.999981
0.999988
0.999992
0.999996
0.999997
0.999999
0.999999
1
1
1
1
1
1
0.999997
1
0.999999
0.999996
1.00001
0.999997
1
1.00002
1.00001
1.00002
1.00007
1.00007
1.00011
1.00022
1.00028
1.00038
1.00064
1.001
1.00162
1.00296
1.00545
1.00967
1.01639
1.02499
1.0325
1.03588
1.03434
1.02875
1.02035
1.01038
1.00005
0.990414
0.982307
0.97648
0.973528
0.973708
0.976796
0.98205
0.988288
0.994147
0.998431
1.00043
1.00008
0.997816
0.994402
0.99068
0.987495
0.985609
0.985552
0.987423
0.990722
0.994266
0.996389
0.995542
0.991085
0.983719
0.975218
0.96769
0.962901
0.961953
0.965264
0.972636
0.983286
0.995881
1.00867
1.01979
1.02773
1.03172
1.03189
1.02907
1.02446
1.01922
1.01422
1.00995
1.00661
1.00416
1.0029
1.00165
1.00087
1.0004
1.00015
1.00002
0.999969
0.999953
0.999955
0.999963
0.999973
0.999981
0.999987
0.999992
0.999995
0.999997
0.999998
0.999999
0.999999
1
1
1
0.999999
1
0.999996
1
1
0.999992
1.00001
1
0.999992
1.00002
1.00001
1.00001
1.00008
1.00008
1.0001
1.00023
1.00032
1.00039
1.00069
1.00115
1.00189
1.00348
1.00649
1.01144
1.0189
1.02762
1.0341
1.03571
1.03244
1.02559
1.01634
1.00587
0.995482
0.986283
0.979086
0.974624
0.973467
0.97572
0.98084
0.987626
0.994445
0.99965
1.00204
1.00113
0.997264
0.991348
0.984543
0.978014
0.972855
0.970024
0.970167
0.973416
0.979247
0.986406
0.992941
0.996628
0.995859
0.990516
0.982125
0.973167
0.966087
0.962641
0.96369
0.969286
0.978782
0.990915
1.00394
1.01592
1.02513
1.03051
1.0319
1.02996
1.02583
1.02072
1.0156
1.0111
1.00749
1.00479
1.00335
1.00194
1.00105
1.00052
1.00022
1.00006
0.999988
0.999962
0.999959
0.999965
0.999973
0.999981
0.999987
0.999992
0.999995
0.999997
0.999998
0.999999
1
0.999999
1
1
0.999998
1
0.999997
0.999999
1.00001
0.999989
1.00001
1.00001
0.999984
1.00002
1.00003
0.999997
1.00008
1.00011
1.00009
1.00023
1.00036
1.00041
1.00072
1.00133
1.0022
1.00404
1.00761
1.01334
1.02134
1.02979
1.03509
1.03503
1.03024
1.02233
1.01246
1.00167
0.991384
0.982803
0.976706
0.973768
0.974504
0.978797
0.985644
0.993273
0.999607
1.00288
1.00206
0.997063
0.988698
0.978345
0.967552
0.957777
0.950362
0.946497
0.946982
0.951926
0.960653
0.971772
0.983198
0.992318
0.99668
0.995121
0.988483
0.979264
0.970506
0.964729
0.963423
0.967031
0.97511
0.986499
0.999483
1.01205
1.02232
1.02897
1.03156
1.03054
1.02696
1.02206
1.0169
1.01221
1.00836
1.00543
1.0038
1.00225
1.00125
1.00064
1.00029
1.0001
1.00001
0.999973
0.999964
0.999967
0.999974
0.999982
0.999987
0.999992
0.999995
0.999997
0.999998
0.999999
1
1
1
1
0.999997
1
0.999999
0.999995
1.00001
0.999988
1
1.00002
0.999979
1.00002
1.00005
0.999986
1.00007
1.00014
1.00008
1.00021
1.00041
1.00044
1.00074
1.00151
1.00257
1.00464
1.00879
1.0153
1.02359
1.03147
1.03556
1.03402
1.02786
1.01907
1.00879
0.997866
0.98779
0.979967
0.975127
0.973812
0.976434
0.982574
0.990618
0.998152
1.0028
1.00292
0.997866
0.98795
0.974375
0.958913
0.943462
0.9298
0.919607
0.914459
0.915456
0.922694
0.935123
0.950893
0.96768
0.982715
0.993064
0.996623
0.993277
0.985136
0.975583
0.967893
0.964315
0.965827
0.972295
0.982706
0.995392
1.00831
1.01942
1.0272
1.03092
1.03083
1.02786
1.02324
1.0181
1.01327
1.00922
1.00607
1.00425
1.00255
1.00145
1.00076
1.00036
1.00014
1.00004
0.999988
0.999972
0.999971
0.999976
0.999982
0.999988
0.999992
0.999995
0.999997
0.999998
0.999999
1
1
0.999999
1
0.999997
1
1
0.999991
1.00001
0.999993
0.99999
1.00003
0.999981
0.999999
1.00007
0.999987
1.00004
1.00017
1.00009
1.00016
1.00045
1.0005
1.00074
1.00169
1.003
1.00527
1.00996
1.01723
1.02563
1.03269
1.0356
1.03282
1.02544
1.01587
1.00538
0.994505
0.984707
0.977729
0.974271
0.97461
0.978988
0.986612
0.99513
1.00152
1.00339
0.999507
0.989611
0.974222
0.9547
0.933103
0.911762
0.892966
0.87896
0.871945
0.873565
0.884015
0.901634
0.923576
0.946802
0.968367
0.98524
0.994771
0.995923
0.990123
0.980769
0.971755
0.96614
0.965565
0.970307
0.979561
0.991739
1.00478
1.01654
1.02528
1.03006
1.03088
1.02854
1.02424
1.01918
1.01427
1.01003
1.0067
1.00468
1.00286
1.00165
1.00089
1.00044
1.00019
1.00006
1
0.99998
0.999976
0.999978
0.999983
0.999988
0.999992
0.999995
0.999997
0.999998
0.999999
1
1
0.999999
1
0.999998
0.999999
1.00001
0.999988
1.00001
1
0.999978
1.00004
0.999994
0.999973
1.00008
1.00001
0.999991
1.00019
1.00012
1.0001
1.00046
1.00059
1.00074
1.00182
1.00347
1.00597
1.0111
1.01906
1.02745
1.03353
1.03529
1.03153
1.02311
1.01278
1.00225
0.991622
0.982136
0.976012
0.974024
0.975983
0.981846
0.990443
0.998638
1.00293
1.00127
0.992994
0.977983
0.956501
0.929767
0.900194
0.870922
0.845157
0.82596
0.816314
0.818636
0.833423
0.858271
0.888744
0.920359
0.949623
0.973631
0.9897
0.996198
0.993796
0.985615
0.975954
0.968652
0.966095
0.96907
0.977047
0.988554
1.00153
1.01376
1.02331
1.02903
1.03071
1.02901
1.02508
1.02014
1.01517
1.0108
1.00729
1.0051
1.00315
1.00185
1.00102
1.00053
1.00024
1.00009
1.00002
0.999991
0.999982
0.999982
0.999985
0.999989
0.999993
0.999995
0.999997
0.999998
0.999999
0.999999
1
0.999999
1
0.999999
0.999997
1.00001
0.999988
1.00001
1.00001
0.999969
1.00003
1.00002
0.999948
1.00008
1.00005
0.999947
1.00018
1.00018
1.00004
1.00042
1.00071
1.00078
1.00189
1.00396
1.00673
1.01215
1.02068
1.02907
1.03409
1.03467
1.03019
1.02099
1.00989
0.999364
0.98922
0.980079
0.974716
0.974233
0.977729
0.984683
0.993656
1.00082
1.00238
0.99685
0.984131
0.963738
0.935082
0.899062
0.858905
0.819297
0.784825
0.759367
0.746563
0.749721
0.769908
0.804023
0.845638
0.888091
0.926728
0.958699
0.981736
0.994116
0.995905
0.989767
0.980164
0.971604
0.967252
0.968487
0.975125
0.985842
0.998608
1.01113
1.02135
1.0279
1.03038
1.02931
1.02576
1.02097
1.01599
1.01151
1.00785
1.00549
1.00343
1.00204
1.00115
1.00061
1.0003
1.00013
1.00004
1
0.999988
0.999986
0.999988
0.99999
0.999994
0.999995
0.999998
0.999998
0.999999
1
0.999999
0.999999
1
1
0.999995
1.00001
0.999993
0.999995
1.00002
0.999968
1.00001
1.00004
0.999938
1.00005
1.0001
0.999922
1.00013
1.00026
1.00002
1.00033
1.00083
1.00088
1.00192
1.00439
1.00757
1.01313
1.02204
1.03049
1.03451
1.03382
1.0288
1.01919
1.00728
0.996652
0.987248
0.978552
0.973739
0.97471
0.97966
0.987223
0.995966
1.00167
1.00023
0.990799
0.973654
0.94738
0.909945
0.862069
0.80871
0.756998
0.713067
0.681155
0.665191
0.669434
0.695731
0.740436
0.795126
0.850562
0.900286
0.941133
0.971453
0.989936
0.996383
0.992969
0.984087
0.974744
0.968855
0.968445
0.973733
0.983588
0.996029
1.00871
1.01946
1.02673
1.02994
1.02945
1.02628
1.02167
1.0167
1.01214
1.00837
1.00584
1.00369
1.00222
1.00127
1.00069
1.00035
1.00016
1.00006
1.00002
0.999996
0.99999
0.99999
0.999992
0.999994
0.999996
0.999998
0.999999
0.999999
1
0.999999
1
1
1
0.999995
1.00001
0.999999
0.999987
1.00003
0.99998
0.999988
1.00006
0.999948
1
1.00013
0.999934
1.00005
1.00031
1.00005
1.00021
1.00089
1.00106
1.00193
1.00471
1.00844
1.01409
1.02309
1.03166
1.0349
1.03287
1.02733
1.01772
1.00512
0.994079
0.985577
0.977575
0.973011
0.975236
0.981602
0.989301
0.997268
1.00141
0.997072
0.983761
0.96207
0.92924
0.881377
0.819474
0.751321
0.68712
0.634197
0.596457
0.577882
0.583692
0.616339
0.671761
0.740018
0.809469
0.871438
0.921895
0.959667
0.98419
0.995403
0.995111
0.987486
0.977832
0.970714
0.968812
0.972796
0.981762
0.993801
1.00654
1.0177
1.02557
1.02942
1.02947
1.02667
1.02224
1.01731
1.0127
1.00883
1.00616
1.00392
1.00239
1.00139
1.00077
1.0004
1.00019
1.00008
1.00003
1
0.999995
0.999994
0.999993
0.999996
0.999997
0.999998
0.999999
0.999999
1
1
1
1
1
0.999996
1
1.00001
0.999984
1.00002
0.999997
0.99997
1.00006
0.999979
0.999959
1.00014
0.999982
0.999962
1.0003
1.00013
1.00009
1.00086
1.00128
1.002
1.00489
1.00924
1.01507
1.02387
1.0325
1.03533
1.03202
1.02574
1.01648
1.00356
0.9917
0.983999
0.977128
0.972547
0.975576
0.983391
0.990913
0.997623
1.00036
0.993494
0.976249
0.949725
0.909855
0.850703
0.773963
0.691003
0.615172
0.554362
0.511829
0.491801
0.500037
0.538799
0.603777
0.684445
0.767432
0.84178
0.902078
0.947253
0.977543
0.993333
0.996263
0.990233
0.980666
0.97264
0.969448
0.972224
0.980319
0.991917
1.00463
1.01609
1.02446
1.02886
1.02939
1.02693
1.02269
1.01782
1.01317
1.00923
1.00642
1.00412
1.00253
1.00149
1.00084
1.00045
1.00022
1.0001
1.00004
1.00001
1
0.999997
0.999996
0.999996
0.999998
0.999998
0.999999
0.999999
1
1
1
1
1
0.999998
0.999999
1.00001
0.999987
1.00001
1.00001
0.999965
1.00004
1.00001
0.999936
1.00011
1.00005
0.999912
1.00023
1.00023
1.00004
1.00074
1.00147
1.00216
1.00495
1.00987
1.01606
1.0245
1.03295
1.03574
1.03149
1.02413
1.01525
1.00267
0.989734
0.982288
0.977055
0.972471
0.975554
0.984829
0.992214
0.997218
0.998777
0.989992
0.968762
0.937018
0.890183
0.820394
0.729924
0.633617
0.547579
0.480001
0.434072
0.414499
0.426167
0.470096
0.542296
0.632855
0.727542
0.813286
0.882928
0.93507
0.970627
0.990587
0.996598
0.992304
0.983113
0.974474
0.970216
0.971921
0.979207
0.99036
1.00299
1.01467
1.02344
1.0283
1.02925
1.02709
1.02302
1.01822
1.01356
1.00956
1.00664
1.00429
1.00266
1.00158
1.0009
1.00049
1.00025
1.00012
1.00005
1.00002
1.00001
1
0.999998
0.999998
0.999999
0.999998
1
0.999999
1
1
0.999999
1
1
1
0.999999
1
0.999995
1
1.00002
0.999976
1.00001
1.00003
0.999945
1.00005
1.00009
0.999918
1.00013
1.00028
1.00008
1.00058
1.00155
1.00242
1.005
1.01024
1.01698
1.02512
1.03309
1.03598
1.03137
1.02275
1.01383
1.00229
0.988524
0.980381
0.976998
0.972949
0.975179
0.985626
0.993413
0.996387
0.996709
0.986904
0.961972
0.924599
0.871403
0.793294
0.692212
0.585282
0.490706
0.41756
0.370257
0.353377
0.368852
0.416045
0.492223
0.589205
0.692758
0.788005
0.8658
0.92402
0.964059
0.987561
0.996315
0.993729
0.985094
0.976094
0.970999
0.9718
0.97837
0.989108
1.00163
1.01345
1.02254
1.02777
1.02907
1.02717
1.02326
1.01852
1.01386
1.00983
1.0068
1.00442
1.00276
1.00165
1.00095
1.00053
1.00028
1.00014
1.00007
1.00003
1.00001
1
1
0.999999
0.999999
0.999999
1
1
1
1
0.999999
1
0.999999
1
1
1
0.999999
0.999998
1.00001
0.999992
0.999998
1.00003
0.999976
1
1.00008
0.999967
1.00004
1.00025
1.00017
1.00047
1.0015
1.00268
1.00512
1.01036
1.01766
1.02579
1.03308
1.03592
1.03154
1.02195
1.01224
1.00198
0.988318
0.978564
0.976455
0.973974
0.974776
0.985455
0.994544
0.995655
0.994153
0.98427
0.956749
0.913557
0.85455
0.771331
0.664474
0.551031
0.450268
0.373263
0.326748
0.313813
0.332335
0.380387
0.457073
0.556623
0.66556
0.767705
0.851906
0.914953
0.958445
0.984661
0.995632
0.994567
0.986565
0.97741
0.971702
0.971782
0.97776
0.988138
1.00055
1.01246
1.02178
1.02729
1.02886
1.02717
1.02339
1.01871
1.01407
1.01002
1.00691
1.00451
1.00283
1.00171
1.001
1.00056
1.00031
1.00016
1.00008
1.00004
1.00002
1.00001
1
1
1
1
1
1
1
1
0.999999
1
1
0.999998
1
0.999999
0.999999
1
0.999998
1
1
1.00001
1
0.999994
1.00004
1.00001
1.00001
1.00016
1.00024
1.00045
1.00135
1.00282
1.00533
1.01036
1.01799
1.02642
1.03316
1.03559
1.03171
1.0219
1.01087
1.00128
0.98894
0.977471
0.975119
0.975102
0.974916
0.984241
0.995219
0.995645
0.991388
0.98171
0.953772
0.905566
0.840707
0.754779
0.647354
0.532752
0.429439
0.350912
0.306326
0.296732
0.316773
0.363706
0.438245
0.537033
0.647836
0.753827
0.842183
0.90849
0.954254
0.982247
0.994776
0.994911
0.987513
0.978355
0.972248
0.971805
0.977334
0.98743
0.999742
1.0117
1.02117
1.02689
1.02864
1.02711
1.02343
1.01881
1.01419
1.01014
1.00696
1.00456
1.00288
1.00175
1.00103
1.00059
1.00033
1.00018
1.00009
1.00005
1.00002
1.00001
1.00001
1
1
1
1
1
1
1
0.999999
1
1
0.999997
1
1
0.999995
1.00001
0.999994
0.999996
1.00001
0.999988
1
1.00001
0.999989
1.00001
1.00003
1.00006
1.00022
1.00051
1.00122
1.00279
1.00553
1.01037
1.01798
1.02682
1.03343
1.03525
1.03163
1.02238
1.01028
1.00015
0.989682
0.977662
0.973344
0.975464
0.97595
0.982556
0.994686
0.996566
0.989356
0.978753
0.952741
0.902397
0.831924
0.743416
0.638287
0.527344
0.426129
0.349184
0.30685
0.298933
0.318854
0.363573
0.434717
0.530686
0.640545
0.747411
0.837394
0.905087
0.951781
0.980556
0.993935
0.994865
0.987961
0.978897
0.972587
0.971824
0.977063
0.98697
0.999208
1.01119
1.02074
1.02657
1.02843
1.02699
1.02339
1.01882
1.01423
1.01019
1.00696
1.00458
1.0029
1.00178
1.00106
1.00061
1.00034
1.00019
1.0001
1.00005
1.00003
1.00001
1.00001
1
1
1
1
1
1
1
0.999999
1
1
0.999998
1
1
0.999992
1.00001
1
0.999985
1.00002
0.999989
0.99998
1.00003
0.999976
0.99997
1.00005
1.00002
1.00013
1.00054
1.00118
1.00264
1.00558
1.01041
1.01778
1.02683
1.03375
1.0352
1.03135
1.0229
1.0107
0.999191
0.989769
0.978946
0.972184
0.974433
0.977339
0.981574
0.99258
0.997558
0.989315
0.975907
0.952195
0.904227
0.831062
0.739286
0.635493
0.529705
0.434445
0.362776
0.323609
0.316214
0.33484
0.377001
0.444616
0.536818
0.643686
0.748816
0.837944
0.905043
0.951213
0.979723
0.993221
0.994511
0.987945
0.979033
0.972694
0.971813
0.976928
0.98675
0.998947
1.01092
1.02049
1.02634
1.02824
1.02684
1.02327
1.01874
1.01418
1.01017
1.00691
1.00455
1.00289
1.00178
1.00107
1.00063
1.00036
1.0002
1.00011
1.00006
1.00003
1.00002
1.00001
1.00001
1
1
1
1
1
1
1
1
1
0.999999
0.999999
1
0.999994
1
1.00001
0.999981
1.00001
1
0.999963
1.00002
0.999993
0.999928
1.00003
1.00004
1.00005
1.00048
1.00119
1.0025
1.00542
1.01039
1.01756
1.02652
1.03386
1.0355
1.03126
1.02311
1.01173
0.999227
0.989194
0.980243
0.972529
0.972561
0.977701
0.981982
0.989905
0.997044
0.991276
0.975199
0.951372
0.908496
0.838654
0.746272
0.642477
0.540515
0.452668
0.388701
0.353519
0.346075
0.362804
0.402496
0.466846
0.554736
0.656879
0.757831
0.843713
0.908311
0.952561
0.979794
0.992696
0.993905
0.9875
0.978779
0.972573
0.971769
0.976928
0.986771
0.998966
1.01091
1.02043
1.02622
1.02807
1.02664
1.02308
1.01857
1.01404
1.01007
1.0068
1.00448
1.00286
1.00177
1.00107
1.00063
1.00037
1.00021
1.00012
1.00007
1.00004
1.00002
1.00001
1.00001
1
1
1
1
1
1
1
1
1
1
0.999999
1
0.999997
0.999998
1.00001
0.999989
0.999998
1.00001
0.999967
0.99999
1.00001
0.999922
0.999968
1.00005
1.00002
1.00035
1.00115
1.00241
1.00513
1.01014
1.01732
1.02607
1.03363
1.03589
1.03168
1.02324
1.01264
1.00041
0.988947
0.980577
0.973949
0.971454
0.976251
0.982729
0.988527
0.994712
0.993025
0.978006
0.952377
0.912817
0.850601
0.764178
0.664027
0.567034
0.487007
0.429784
0.396766
0.387886
0.402192
0.439455
0.500518
0.583408
0.679245
0.773818
0.85422
0.914529
0.955603
0.980681
0.992356
0.99308
0.986665
0.978163
0.972245
0.971709
0.977077
0.987044
0.999269
1.01116
1.02055
1.0262
1.02792
1.02641
1.02281
1.01831
1.01383
1.00991
1.00664
1.00438
1.0028
1.00174
1.00106
1.00063
1.00037
1.00022
1.00013
1.00007
1.00004
1.00002