/*--------------------------------*- C++ -*----------------------------------*\
  =========                 |
  \\      /  F ield         | OpenFOAM: The Open Source CFD Toolbox
   \\    /   O peration     | Website:  https://openfoam.org
    \\  /    A nd           | Version:  6
     \\/     M anipulation  |
\*---------------------------------------------------------------------------*/
FoamFile
{
    version     2.0;
    format      ascii;
    class       volScalarField;
    location    "3.48";
    object      p;
}
// * * * * * * * * * * * * * * * * * * * * * * * * * * * * * * * * * * * * * //

dimensions      [1 -1 -2 0 0 0 0];

internalField   nonuniform List<scalar> 
5625
(
1.03536
1.02922
1.02181
1.0137
1.00536
0.997159
0.989386
0.98225
0.975853
0.970168
0.965079
0.960354
0.955647
0.950585
0.944872
0.938325
0.930937
0.922925
0.914718
0.906874
0.899974
0.894616
0.891335
0.890393
0.891802
0.895456
0.901038
0.907944
0.915526
0.923293
0.930836
0.937771
0.943921
0.949462
0.954774
0.960148
0.965692
0.971478
0.977699
0.984671
0.99266
1.00167
1.01129
1.02076
1.02907
1.03527
1.03875
1.03934
1.03737
1.03354
1.02864
1.02342
1.01845
1.01407
1.01043
1.00755
1.00536
1.00374
1.00258
1.00176
1.0012
1.00082
1.00056
1.00038
1.00027
1.00019
1.00013
1.00009
1.00007
1.00005
1.00003
1.00002
1.00002
1.00001
1.00001
1.03731
1.03194
1.02514
1.01746
1.00939
1.00133
0.993584
0.986383
0.979866
0.974065
0.968946
0.964369
0.960087
0.955824
0.951338
0.946443
0.941062
0.935302
0.929449
0.923847
0.918864
0.914946
0.912481
0.911634
0.912439
0.914871
0.918693
0.923445
0.928709
0.934207
0.939673
0.94484
0.949638
0.954278
0.959061
0.964155
0.969581
0.975373
0.981711
0.988863
0.997008
1.00603
1.01542
1.02435
1.03182
1.03701
1.03941
1.03905
1.03636
1.03209
1.02702
1.02184
1.01704
1.01289
1.0095
1.00685
1.00484
1.00337
1.00232
1.00159
1.00109
1.00074
1.00051
1.00035
1.00025
1.00018
1.00013
1.00009
1.00006
1.00005
1.00003
1.00002
1.00002
1.00001
1.00001
1.039
1.03451
1.02841
1.02126
1.01355
1.0057
0.998035
0.990816
0.984196
0.978264
0.973052
0.96848
0.964367
0.960528
0.956786
0.952965
0.948953
0.944796
0.940646
0.936663
0.93308
0.930237
0.928393
0.927633
0.92802
0.929576
0.932106
0.935289
0.938907
0.942824
0.946856
0.95083
0.954764
0.958881
0.963397
0.968371
0.973768
0.979618
0.986092
0.993413
1.00166
1.0106
1.01963
1.02786
1.03437
1.03843
1.03973
1.03843
1.03508
1.03045
1.02529
1.02021
1.01561
1.01172
1.00859
1.00616
1.00434
1.00302
1.00208
1.00143
1.00098
1.00067
1.00047
1.00033
1.00023
1.00016
1.00012
1.00009
1.00006
1.00004
1.00003
1.00002
1.00002
1.00001
1.00001
1.04035
1.03682
1.03153
1.02502
1.01777
1.01021
1.00271
0.995522
0.988842
0.982798
0.977456
0.972776
0.968656
0.964996
0.96166
0.95847
0.955307
0.952189
0.949161
0.946265
0.943667
0.94161
0.940222
0.939542
0.939665
0.940626
0.942263
0.944381
0.94691
0.949802
0.952916
0.956156
0.959609
0.963481
0.967906
0.972864
0.978293
0.984229
0.990842
0.998297
1.00657
1.0153
1.0238
1.03119
1.0366
1.03947
1.03965
1.03746
1.03353
1.02863
1.02345
1.01852
1.01418
1.01057
1.00769
1.0055
1.00386
1.00269
1.00185
1.00127
1.00088
1.00061
1.00042
1.0003
1.00021
1.00015
1.00011
1.00008
1.00006
1.00004
1.00003
1.00002
1.00001
1.00001
1.00001
1.04126
1.0388
1.03443
1.02866
1.02197
1.01481
1.00755
1.00046
0.993777
0.987655
0.982178
0.977345
0.973135
0.969498
0.966308
0.963394
0.960684
0.958181
0.955839
0.953638
0.951702
0.950174
0.949086
0.948483
0.948468
0.949051
0.950111
0.95157
0.95345
0.955734
0.958319
0.961172
0.964423
0.968243
0.972686
0.977684
0.983173
0.989209
0.995944
1.00347
1.01166
1.02003
1.02784
1.03422
1.03842
1.04004
1.03913
1.03612
1.03172
1.02664
1.02153
1.01682
1.01276
1.00944
1.00684
1.00486
1.00341
1.00237
1.00164
1.00113
1.00078
1.00054
1.00038
1.00027
1.0002
1.00014
1.0001
1.00008
1.00005
1.00004
1.00003
1.00002
1.00001
1.00001
1.00001
1.04165
1.04033
1.03699
1.03207
1.02607
1.01941
1.01248
1.00558
0.998963
0.992812
0.987228
0.982254
0.977917
0.974187
0.970946
0.968091
0.965597
0.963411
0.961423
0.95962
0.958095
0.956889
0.955987
0.955457
0.955389
0.955755
0.956482
0.957593
0.959147
0.96112
0.963448
0.966161
0.9694
0.973283
0.977799
0.982856
0.98841
0.994536
1.00135
1.00887
1.01683
1.02467
1.0316
1.03682
1.03971
1.04008
1.03814
1.03444
1.02967
1.02454
1.01957
1.01513
1.01138
1.00836
1.00602
1.00427
1.00299
1.00208
1.00144
1.001
1.00069
1.00049
1.00035
1.00025
1.00018
1.00013
1.0001
1.00007
1.00005
1.00004
1.00003
1.00002
1.00001
1.00001
1.00001
1.04144
1.04131
1.0391
1.03516
1.02994
1.0239
1.01742
1.01081
1.00435
0.998237
0.992594
0.987508
0.983034
0.979148
0.975781
0.972891
0.970444
0.968337
0.966473
0.964876
0.963581
0.96254
0.961745
0.961289
0.961217
0.961479
0.96206
0.963042
0.964485
0.966348
0.968603
0.971334
0.974671
0.978671
0.98327
0.988378
0.993984
1.00017
1.00701
1.01439
1.02196
1.02907
1.03494
1.03886
1.0404
1.03956
1.0367
1.03242
1.02743
1.02234
1.0176
1.01346
1.01004
1.00733
1.00526
1.00371
1.0026
1.00181
1.00125
1.00087
1.00061
1.00043
1.00031
1.00022
1.00016
1.00012
1.00009
1.00006
1.00005
1.00003
1.00002
1.00002
1.00001
1.00001
1.00001
1.04058
1.04165
1.04063
1.03778
1.03349
1.02819
1.02226
1.01606
1.00985
1.00386
0.998228
0.993088
0.988507
0.984469
0.980953
0.977963
0.975441
0.973276
0.971427
0.969912
0.968698
0.96772
0.967002
0.966617
0.966562
0.966796
0.967362
0.968358
0.969812
0.971685
0.973989
0.97683
0.98031
0.984426
0.989089
0.994226
0.999855
1.00605
1.0128
1.01991
1.02689
1.03306
1.03769
1.04022
1.04042
1.03845
1.0348
1.03012
1.02505
1.02011
1.01565
1.01186
1.00878
1.00637
1.00455
1.00321
1.00224
1.00156
1.00109
1.00076
1.00054
1.00038
1.00028
1.0002
1.00015
1.00011
1.00008
1.00006
1.00004
1.00003
1.00002
1.00002
1.00001
1.00001
1.00001
1.03903
1.04127
1.04149
1.03981
1.03656
1.03212
1.02689
1.02121
1.01536
1.00959
1.00407
0.998954
0.994306
0.990146
0.986505
0.983393
0.980736
0.978466
0.976578
0.97506
0.973836
0.97287
0.972209
0.97188
0.97185
0.972116
0.972754
0.973837
0.975362
0.977308
0.979725
0.982714
0.98633
0.990527
0.995216
1.00035
1.00596
1.01207
1.01861
1.02524
1.03142
1.03645
1.03971
1.04081
1.03972
1.03677
1.03252
1.02759
1.02257
1.01787
1.01376
1.01033
1.00759
1.00548
1.0039
1.00274
1.00192
1.00134
1.00094
1.00066
1.00047
1.00034
1.00025
1.00018
1.00013
1.0001
1.00007
1.00005
1.00004
1.00003
1.00002
1.00001
1.00001
1.00001
1
1.03682
1.04012
1.04156
1.04112
1.03902
1.03557
1.03115
1.02611
1.02075
1.01532
1.01002
1.00501
1.00036
0.996147
0.992435
0.989208
0.986415
0.984043
0.982096
0.980516
0.979238
0.97827
0.977651
0.977361
0.977366
0.977704
0.978454
0.979648
0.981262
0.983304
0.985852
0.988984
0.9927
0.996926
1.00159
1.00667
1.01218
1.01811
1.02426
1.0302
1.03535
1.03907
1.04087
1.04057
1.03832
1.03457
1.02991
1.02492
1.02007
1.01569
1.01195
1.0089
1.0065
1.00467
1.00331
1.00233
1.00163
1.00114
1.0008
1.00057
1.00041
1.0003
1.00022
1.00016
1.00012
1.00009
1.00007
1.00005
1.00004
1.00003
1.00002
1.00001
1.00001
1.00001
1
1.03399
1.03819
1.04079
1.0416
1.04071
1.03837
1.0349
1.03064
1.02589
1.02092
1.01595
1.01113
1.00658
1.00242
0.998684
0.995376
0.992488
0.990042
0.988023
0.986366
0.985044
0.984084
0.983486
0.983214
0.983263
0.983692
0.984557
0.985849
0.98755
0.989696
0.992364
0.995592
0.999342
1.00353
1.00811
1.01307
1.0184
1.02398
1.02953
1.03455
1.03847
1.04074
1.04107
1.03948
1.03626
1.03194
1.02707
1.02216
1.0176
1.0136
1.01026
1.00758
1.0055
1.00394
1.00279
1.00196
1.00137
1.00096
1.00068
1.00049
1.00035
1.00026
1.00019
1.00014
1.00011
1.00008
1.00006
1.00004
1.00003
1.00002
1.00002
1.00001
1.00001
1.00001
1
1.03068
1.03552
1.03913
1.04115
1.04151
1.04036
1.03795
1.0346
1.03059
1.02621
1.02168
1.01718
1.01286
1.00882
1.00513
1.00181
0.998906
0.996427
0.994345
0.992628
0.991286
0.990335
0.989746
0.989491
0.989597
0.990116
0.991065
0.992427
0.9942
0.996433
0.999181
1.00244
1.00615
1.01024
1.01466
1.0194
1.0244
1.02945
1.03417
1.03805
1.04056
1.04135
1.0403
1.03759
1.03364
1.02897
1.02409
1.01942
1.01522
1.01163
1.0087
1.00639
1.00461
1.00329
1.00232
1.00164
1.00115
1.00081
1.00058
1.00042
1.0003
1.00023
1.00017
1.00013
1.0001
1.00007
1.00005
1.00004
1.00003
1.00002
1.00002
1.00001
1.00001
1.00001
1
1.02706
1.03223
1.03661
1.03971
1.04131
1.0414
1.04015
1.03782
1.03469
1.03103
1.02706
1.02301
1.01901
1.0152
1.01164
1.00841
1.00555
1.00308
1.00097
0.999244
0.997913
0.996969
0.996382
0.996151
0.996318
0.996909
0.99791
0.999309
1.00113
1.00341
1.00618
1.0094
1.01299
1.01689
1.02107
1.02548
1.02997
1.03426
1.03791
1.04045
1.04149
1.04084
1.03857
1.035
1.03058
1.0258
1.02109
1.01676
1.01298
1.00983
1.00729
1.00532
1.00383
1.00272
1.00192
1.00135
1.00096
1.00068
1.00049
1.00036
1.00026
1.0002
1.00015
1.00011
1.00008
1.00006
1.00005
1.00004
1.00003
1.00002
1.00001
1.00001
1.00001
1
1
1.02333
1.02852
1.03336
1.03732
1.04003
1.04135
1.04132
1.04012
1.03798
1.03517
1.0319
1.0284
1.02485
1.02136
1.01805
1.015
1.01226
1.00985
1.00778
1.0061
1.00479
1.00386
1.00329
1.0031
1.00332
1.00395
1.00497
1.00638
1.00821
1.0105
1.01321
1.0163
1.01968
1.02331
1.02713
1.03103
1.0348
1.03809
1.04048
1.04159
1.04118
1.03925
1.03601
1.03186
1.02724
1.02256
1.01816
1.01424
1.01091
1.00819
1.00604
1.00438
1.00314
1.00223
1.00158
1.00111
1.00079
1.00056
1.00041
1.0003
1.00022
1.00017
1.00013
1.0001
1.00007
1.00006
1.00004
1.00003
1.00002
1.00002
1.00001
1.00001
1.00001
1
1
1.01968
1.02462
1.02958
1.03409
1.0377
1.04014
1.04132
1.04131
1.04026
1.03841
1.03598
1.03317
1.03017
1.02713
1.02417
1.02138
1.01883
1.01655
1.0146
1.013
1.01176
1.01086
1.01033
1.01018
1.01043
1.01107
1.01209
1.01349
1.01529
1.0175
1.02007
1.02292
1.026
1.02924
1.03255
1.03575
1.03857
1.04066
1.04168
1.04136
1.03965
1.0367
1.0328
1.02836
1.02378
1.01937
1.01538
1.01192
1.00905
1.00674
1.00494
1.00357
1.00255
1.00181
1.00128
1.00091
1.00065
1.00047
1.00034
1.00025
1.00019
1.00015
1.00011
1.00008
1.00006
1.00005
1.00004
1.00003
1.00002
1.00001
1.00001
1.00001
1
1
1
1.01629
1.02077
1.02555
1.03024
1.03444
1.03778
1.04007
1.04123
1.04133
1.04054
1.03905
1.03706
1.03474
1.03226
1.02975
1.02733
1.02505
1.023
1.02122
1.01975
1.0186
1.01777
1.01729
1.01719
1.01746
1.01809
1.01906
1.02041
1.02213
1.02418
1.0265
1.02903
1.03169
1.03439
1.037
1.03929
1.04097
1.04176
1.0414
1.0398
1.03705
1.03339
1.02916
1.0247
1.02035
1.01634
1.01282
1.00984
1.0074
1.00548
1.00399
1.00287
1.00205
1.00145
1.00103
1.00074
1.00053
1.00039
1.00028
1.00021
1.00016
1.00012
1.0001
1.00007
1.00006
1.00004
1.00003
1.00002
1.00002
1.00001
1.00001
1.00001
1
1
1
1.01325
1.01716
1.02152
1.02609
1.03051
1.03444
1.03759
1.0398
1.04103
1.04135
1.04088
1.03981
1.03829
1.03649
1.03455
1.03258
1.03069
1.02894
1.0274
1.0261
1.02508
1.02436
1.02396
1.0239
1.02416
1.02475
1.02566
1.0269
1.02844
1.03024
1.03222
1.0343
1.0364
1.0384
1.04012
1.04134
1.04179
1.04128
1.0397
1.03708
1.03362
1.02959
1.02531
1.02106
1.01709
1.01355
1.01051
1.008
1.00597
1.00439
1.00319
1.00229
1.00163
1.00116
1.00082
1.00059
1.00043
1.00032
1.00024
1.00018
1.00014
1.00011
1.00008
1.00006
1.00005
1.00004
1.00003
1.00002
1.00002
1.00001
1.00001
1.00001
1
1
1
1.01061
1.01392
1.01773
1.02192
1.02624
1.0304
1.03409
1.03711
1.03931
1.04068
1.04126
1.04117
1.04054
1.03952
1.03825
1.03684
1.03542
1.03406
1.03282
1.03176
1.03092
1.03033
1.03002
1.02999
1.03023
1.03076
1.03156
1.03262
1.0339
1.03534
1.03686
1.03837
1.03977
1.04091
1.04163
1.0417
1.04096
1.03931
1.03677
1.03348
1.02965
1.02556
1.02147
1.0176
1.0141
1.01105
1.00849
1.00641
1.00475
1.00348
1.00251
1.0018
1.00128
1.00091
1.00065
1.00047
1.00035
1.00026
1.00019
1.00015
1.00012
1.00009
1.00007
1.00005
1.00004
1.00003
1.00002
1.00002
1.00001
1.00001
1.00001
1
1
1
1
1.00838
1.0111
1.01434
1.018
1.02197
1.02602
1.02991
1.03341
1.03632
1.03856
1.04009
1.04095
1.04124
1.04106
1.04054
1.03979
1.03892
1.03801
1.03715
1.03639
1.03577
1.03535
1.03512
1.03511
1.03532
1.03575
1.03639
1.0372
1.03813
1.0391
1.04005
1.04088
1.04147
1.04168
1.04136
1.04036
1.03861
1.03611
1.03296
1.02933
1.02546
1.02156
1.01783
1.01442
1.01142
1.00887
1.00675
1.00506
1.00373
1.00272
1.00196
1.0014
1.001
1.00071
1.00051
1.00038
1.00028
1.00021
1.00016
1.00012
1.0001
1.00008
1.00006
1.00005
1.00004
1.00003
1.00002
1.00001
1.00001
1.00001
1.00001
1
1
1
1
1.00653
1.00873
1.01139
1.01449
1.01796
1.02166
1.02543
1.02906
1.03236
1.03519
1.03746
1.03915
1.04028
1.04093
1.04118
1.04112
1.04086
1.04047
1.04003
1.03961
1.03925
1.039
1.03888
1.03889
1.03904
1.03934
1.03975
1.04023
1.04073
1.04117
1.04149
1.04157
1.04133
1.04064
1.0394
1.03754
1.03506
1.03204
1.02863
1.02499
1.02131
1.01778
1.01451
1.0116
1.0091
1.007
1.00529
1.00394
1.00289
1.00209
1.0015
1.00107
1.00077
1.00055
1.0004
1.0003
1.00022
1.00017
1.00013
1.0001
1.00008
1.00006
1.00005
1.00004
1.00003
1.00002
1.00002
1.00001
1.00001
1.00001
1
1
1
1
1
1.00502
1.00677
1.00891
1.01146
1.01438
1.01761
1.02103
1.0245
1.02786
1.03095
1.03368
1.03595
1.03776
1.03912
1.04007
1.04067
1.04101
1.04115
1.04116
1.0411
1.04102
1.04095
1.04092
1.04095
1.04103
1.04116
1.0413
1.04142
1.04145
1.04134
1.04102
1.0404
1.03941
1.03797
1.03603
1.0336
1.03073
1.02754
1.02416
1.02074
1.01743
1.01435
1.01158
1.00917
1.00712
1.00544
1.00408
1.00302
1.0022
1.00159
1.00114
1.00082
1.00059
1.00042
1.00031
1.00023
1.00018
1.00014
1.00011
1.00008
1.00007
1.00005
1.00004
1.00003
1.00003
1.00002
1.00001
1.00001
1.00001
1.00001
1
1
1
1
1
1.00382
1.00519
1.00688
1.00892
1.01131
1.01402
1.01697
1.02009
1.02324
1.02632
1.02919
1.03177
1.034
1.03586
1.03735
1.03851
1.03937
1.03999
1.04041
1.04069
1.04087
1.04099
1.04105
1.04108
1.04107
1.04102
1.04089
1.04065
1.04025
1.03964
1.03876
1.03757
1.03601
1.03406
1.03172
1.02903
1.02608
1.02298
1.01985
1.01681
1.01395
1.01136
1.00908
1.00712
1.00549
1.00416
1.0031
1.00228
1.00166
1.00119
1.00085
1.00061
1.00044
1.00032
1.00024
1.00018
1.00014
1.00011
1.00009
1.00007
1.00006
1.00004
1.00003
1.00003
1.00002
1.00002
1.00001
1.00001
1.00001
1
1
1
1
1
1
1.00287
1.00393
1.00524
1.00685
1.00875
1.01095
1.01341
1.01608
1.01887
1.0217
1.02446
1.02708
1.02946
1.03158
1.03341
1.03494
1.03618
1.03716
1.03792
1.03848
1.03888
1.03915
1.03928
1.03931
1.03922
1.039
1.03864
1.03809
1.03734
1.03635
1.03508
1.0335
1.03162
1.02942
1.02696
1.02428
1.02149
1.01867
1.01592
1.01332
1.01094
1.00882
1.00699
1.00544
1.00416
1.00313
1.00232
1.00169
1.00123
1.00088
1.00063
1.00045
1.00033
1.00024
1.00018
1.00014
1.00011
1.00009
1.00007
1.00006
1.00005
1.00004
1.00003
1.00002
1.00002
1.00001
1.00001
1.00001
1.00001
1
1
1
1
1
1
1.00214
1.00294
1.00395
1.00519
1.00668
1.00842
1.01041
1.01261
1.01497
1.01743
1.01991
1.02235
1.02467
1.02681
1.02875
1.03044
1.03189
1.03309
1.03407
1.03482
1.03537
1.03574
1.03592
1.03594
1.03579
1.03545
1.03491
1.03416
1.03319
1.03197
1.03049
1.02875
1.02676
1.02456
1.0222
1.01974
1.01725
1.01481
1.01249
1.01035
1.00842
1.00673
1.00528
1.00408
1.00309
1.00231
1.0017
1.00124
1.00089
1.00064
1.00046
1.00033
1.00024
1.00018
1.00014
1.00011
1.00009
1.00007
1.00006
1.00005
1.00004
1.00003
1.00002
1.00002
1.00001
1.00001
1.00001
1.00001
1
1
1
1
1
1
1
1.00158
1.00218
1.00294
1.00389
1.00504
1.00639
1.00795
1.00971
1.01163
1.01368
1.0158
1.01794
1.02003
1.02203
1.02389
1.02558
1.02706
1.02833
1.02939
1.03023
1.03085
1.03127
1.03149
1.03149
1.03129
1.03089
1.03027
1.02943
1.02836
1.02706
1.02555
1.02383
1.02193
1.0199
1.01777
1.01563
1.01351
1.01149
1.00959
1.00788
1.00635
1.00503
1.00392
1.003
1.00226
1.00167
1.00122
1.00089
1.00063
1.00045
1.00033
1.00024
1.00018
1.00013
1.0001
1.00008
1.00007
1.00005
1.00004
1.00004
1.00003
1.00002
1.00002
1.00001
1.00001
1.00001
1.00001
1
1
1
1
1
1
1
1
1.00115
1.0016
1.00217
1.00289
1.00376
1.00479
1.00599
1.00736
1.00889
1.01053
1.01227
1.01406
1.01585
1.0176
1.01926
1.0208
1.0222
1.02342
1.02445
1.02528
1.02591
1.02633
1.02655
1.02655
1.02634
1.02591
1.02528
1.02443
1.02339
1.02215
1.02072
1.01915
1.01746
1.01568
1.01388
1.01209
1.01035
1.00872
1.00722
1.00588
1.0047
1.00369
1.00285
1.00217
1.00162
1.00119
1.00086
1.00062
1.00044
1.00032
1.00023
1.00017
1.00012
1.0001
1.00008
1.00006
1.00005
1.00004
1.00004
1.00003
1.00002
1.00002
1.00002
1.00001
1.00001
1.00001
1.00001
1
1
1
1
1
1
1
1
1.00084
1.00117
1.00159
1.00212
1.00277
1.00355
1.00446
1.00551
1.00669
1.00797
1.00935
1.01079
1.01226
1.01372
1.01513
1.01646
1.01768
1.01877
1.0197
1.02047
1.02105
1.02143
1.02162
1.02162
1.02142
1.02102
1.02042
1.01965
1.01869
1.01758
1.01633
1.01497
1.01354
1.01206
1.01059
1.00914
1.00777
1.00649
1.00533
1.0043
1.00341
1.00266
1.00203
1.00153
1.00113
1.00082
1.00059
1.00042
1.0003
1.00021
1.00015
1.00011
1.00009
1.00007
1.00006
1.00005
1.00004
1.00003
1.00003
1.00002
1.00002
1.00002
1.00001
1.00001
1.00001
1.00001
1
1
1
1
1
1
1
1
1
1.00061
1.00085
1.00116
1.00155
1.00203
1.00261
1.00329
1.00408
1.00497
1.00595
1.00702
1.00814
1.0093
1.01047
1.01162
1.01271
1.01373
1.01465
1.01544
1.0161
1.0166
1.01693
1.0171
1.01709
1.01691
1.01655
1.01603
1.01536
1.01454
1.01359
1.01255
1.01143
1.01026
1.00907
1.0079
1.00677
1.00571
1.00473
1.00385
1.00308
1.00242
1.00187
1.00141
1.00105
1.00077
1.00055
1.00039
1.00028
1.0002
1.00014
1.0001
1.00008
1.00006
1.00005
1.00004
1.00003
1.00003
1.00003
1.00002
1.00002
1.00001
1.00001
1.00001
1.00001
1.00001
1
1
1
1
1
1
1
1
1
1
1.00044
1.00062
1.00084
1.00113
1.00148
1.0019
1.0024
1.00299
1.00365
1.00439
1.00519
1.00605
1.00695
1.00785
1.00875
1.00962
1.01044
1.01118
1.01182
1.01236
1.01276
1.01304
1.01317
1.01316
1.013
1.0127
1.01226
1.0117
1.01103
1.01026
1.00942
1.00852
1.0076
1.00668
1.00577
1.00491
1.0041
1.00337
1.00272
1.00216
1.00168
1.00128
1.00096
1.0007
1.0005
1.00036
1.00025
1.00017
1.00012
1.00009
1.00006
1.00005
1.00004
1.00003
1.00003
1.00003
1.00002
1.00002
1.00002
1.00001
1.00001
1.00001
1.00001
1.00001
1
1
1
1
1
1
1
1
1
1
1
1.00032
1.00045
1.00061
1.00081
1.00107
1.00138
1.00174
1.00217
1.00266
1.0032
1.0038
1.00444
1.00511
1.0058
1.00648
1.00715
1.00778
1.00836
1.00886
1.00928
1.0096
1.00981
1.00992
1.0099
1.00977
1.00952
1.00917
1.00872
1.00818
1.00758
1.00692
1.00622
1.00551
1.00481
1.00413
1.00348
1.00289
1.00235
1.00188
1.00147
1.00113
1.00085
1.00062
1.00045
1.00032
1.00022
1.00015
1.0001
1.00007
1.00005
1.00004
1.00003
1.00002
1.00002
1.00002
1.00002
1.00002
1.00001
1.00001
1.00001
1.00001
1.00001
1.00001
1
1
1
1
1
1
1
1
1
1
1
1
1.00024
1.00033
1.00045
1.00059
1.00077
1.001
1.00126
1.00157
1.00192
1.00231
1.00275
1.00322
1.00371
1.00422
1.00473
1.00523
1.00571
1.00614
1.00652
1.00684
1.00708
1.00724
1.00731
1.00729
1.00719
1.00699
1.00671
1.00636
1.00594
1.00547
1.00497
1.00444
1.00391
1.00339
1.00288
1.00241
1.00198
1.00159
1.00126
1.00097
1.00073
1.00054
1.00039
1.00027
1.00018
1.00012
1.00008
1.00005
1.00004
1.00002
1.00002
1.00002
1.00001
1.00001
1.00001
1.00001
1.00001
1.00001
1.00001
1.00001
1.00001
1.00001
1
1
1
1
1
1
1
1
1
1
1
1
1
1.00018
1.00024
1.00033
1.00043
1.00056
1.00072
1.00091
1.00113
1.00138
1.00166
1.00197
1.00231
1.00267
1.00304
1.00341
1.00378
1.00412
1.00444
1.00472
1.00495
1.00513
1.00524
1.00529
1.00527
1.00518
1.00503
1.00481
1.00454
1.00423
1.00387
1.0035
1.00311
1.00271
1.00233
1.00197
1.00163
1.00132
1.00105
1.00081
1.00061
1.00045
1.00032
1.00022
1.00015
1.0001
1.00006
1.00003
1.00002
1.00001
1.00001
1.00001
1.00001
1.00001
1.00001
1.00001
1.00001
1.00001
1.00001
1.00001
1.00001
1.00001
1
1
1
1
1
1
1
1
1
1
1
1
1
1
1.00013
1.00018
1.00024
1.00032
1.00041
1.00052
1.00065
1.00081
1.00099
1.00119
1.00141
1.00165
1.0019
1.00217
1.00243
1.00269
1.00294
1.00317
1.00337
1.00353
1.00365
1.00373
1.00376
1.00374
1.00367
1.00355
1.00338
1.00318
1.00294
1.00268
1.0024
1.00212
1.00183
1.00156
1.0013
1.00106
1.00085
1.00066
1.0005
1.00037
1.00026
1.00018
1.00011
1.00007
1.00004
1.00002
1
0.999999
0.999997
0.999998
0.999999
1
1
1
1.00001
1.00001
1.00001
1.00001
1.00001
1
1
1
1
1
1
1
1
1
1
1
1
1
1
1
1
1.0001
1.00014
1.00018
1.00024
1.0003
1.00038
1.00048
1.00058
1.00071
1.00085
1.00101
1.00117
1.00135
1.00153
1.00172
1.0019
1.00207
1.00223
1.00237
1.00248
1.00257
1.00261
1.00263
1.00261
1.00255
1.00246
1.00233
1.00218
1.002
1.00181
1.00161
1.00141
1.00121
1.00101
1.00083
1.00066
1.00052
1.00039
1.00029
1.0002
1.00013
1.00008
1.00004
1.00002
1
0.999992
0.999988
0.999988
0.999989
0.999991
0.999994
0.999997
1
1
1
1
1
1
1
1
1
1
1
1
1
1
1
1
1
1
1
1
1
1
1
1.00008
1.00011
1.00014
1.00018
1.00022
1.00028
1.00035
1.00043
1.00051
1.00061
1.00071
1.00083
1.00096
1.00108
1.0012
1.00133
1.00145
1.00155
1.00165
1.00172
1.00177
1.0018
1.00181
1.00178
1.00174
1.00166
1.00157
1.00146
1.00133
1.00119
1.00105
1.00091
1.00076
1.00063
1.0005
1.00039
1.00029
1.00021
1.00014
1.00009
1.00005
1.00002
0.999998
0.999985
0.999979
0.999977
0.999978
0.999981
0.999985
0.999988
0.999992
0.999995
0.999998
1
1
1
1
1
1
1
1
1
1
1
1
1
1
1
1
1
1
1
1
1
1
1.00006
1.00008
1.00011
1.00014
1.00017
1.00021
1.00026
1.00031
1.00037
1.00044
1.00051
1.00059
1.00067
1.00076
1.00084
1.00093
1.001
1.00107
1.00113
1.00118
1.00121
1.00122
1.00122
1.0012
1.00116
1.00111
1.00103
1.00095
1.00086
1.00076
1.00066
1.00056
1.00046
1.00037
1.00029
1.00021
1.00015
1.0001
1.00005
1.00002
0.999997
0.999982
0.999973
0.999969
0.999969
0.999971
0.999974
0.999978
0.999983
0.999987
0.999991
0.999994
0.999996
0.999998
1
1
1
1
1
1
1
1
1
1
1
1
1
1
1
1
1
1
1
1
1
1.00005
1.00007
1.00008
1.00011
1.00013
1.00016
1.00019
1.00023
1.00027
1.00032
1.00037
1.00042
1.00048
1.00053
1.00059
1.00064
1.00069
1.00073
1.00077
1.0008
1.00082
1.00082
1.00081
1.00079
1.00076
1.00072
1.00067
1.0006
1.00054
1.00047
1.0004
1.00033
1.00026
1.0002
1.00014
1.0001
1.00006
1.00003
1
0.999983
0.99997
0.999963
0.99996
0.999961
0.999964
0.999968
0.999973
0.999978
0.999983
0.999987
0.999991
0.999994
0.999997
0.999999
1
1
1
1
1
1
1
1
1
1
1
1
1
1
1
1
1
1
1
1
1
1.00004
1.00005
1.00006
1.00008
1.0001
1.00012
1.00015
1.00017
1.00021
1.00023
1.00027
1.0003
1.00034
1.00038
1.00041
1.00045
1.00048
1.0005
1.00052
1.00054
1.00054
1.00054
1.00053
1.00052
1.00049
1.00045
1.00041
1.00037
1.00032
1.00027
1.00022
1.00018
1.00013
1.00009
1.00006
1.00003
1
0.999982
0.999968
0.99996
0.999956
0.999955
0.999957
0.99996
0.999964
0.999969
0.999974
0.999979
0.999984
0.999988
0.999991
0.999994
0.999996
0.999998
0.999999
1
1
1
1
1
1
1
1
1
1
1
1
1
1
1
1
1
1
1
1
1.00003
1.00004
1.00006
1.00007
1.00008
1.0001
1.00011
1.00013
1.00015
1.00018
1.0002
1.00022
1.00024
1.00027
1.00029
1.00031
1.00033
1.00034
1.00035
1.00036
1.00036
1.00036
1.00034
1.00033
1.00031
1.00028
1.00025
1.00022
1.00018
1.00015
1.00011
1.00008
1.00005
1.00003
1
0.999985
0.999971
0.999961
0.999954
0.999951
0.999951
0.999953
0.999956
0.999961
0.999966
0.999971
0.999977
0.999981
0.999985
0.999989
0.999993
0.999995
0.999997
0.999998
0.999999
1
1
1
1
1
1
1
1
1
1
1
1
1
1
1
1
1
1
1
1
1.00003
1.00003
1.00004
1.00005
1.00007
1.00007
1.00009
1.0001
1.00012
1.00013
1.00015
1.00016
1.00018
1.00019
1.00021
1.00022
1.00023
1.00024
1.00024
1.00024
1.00024
1.00023
1.00022
1.0002
1.00019
1.00017
1.00014
1.00012
1.00009
1.00007
1.00005
1.00003
1.00001
0.999988
0.999974
0.999964
0.999956
0.999952
0.99995
0.99995
0.999952
0.999956
0.99996
0.999965
0.99997
0.999975
0.99998
0.999984
0.999988
0.999991
0.999993
0.999995
0.999997
0.999998
0.999999
0.999999
1
1
1
1
1
1
1
1
1
1
1
1
1
1
1
1
1
1
1
1.00002
1.00003
1.00003
1.00004
1.00005
1.00006
1.00007
1.00008
1.00009
1.0001
1.00011
1.00012
1.00013
1.00014
1.00015
1.00015
1.00016
1.00016
1.00016
1.00016
1.00015
1.00015
1.00014
1.00013
1.00011
1.00009
1.00008
1.00006
1.00004
1.00002
1.00001
0.999992
0.99998
0.99997
0.999961
0.999955
0.999951
0.99995
0.999951
0.999953
0.999957
0.99996
0.999964
0.999969
0.999974
0.999979
0.999982
0.999986
0.999989
0.999992
0.999994
0.999996
0.999997
0.999998
0.999999
0.999999
1
1
1
1
1
1
1
1
1
1
1
1
1
1
1
1
1
1
1
1.00001
1.00002
1.00003
1.00003
1.00004
1.00004
1.00005
1.00006
1.00007
1.00008
1.00009
1.00009
1.0001
1.0001
1.00011
1.00011
1.00011
1.00011
1.00011
1.00011
1.0001
1.0001
1.00009
1.00007
1.00006
1.00005
1.00004
1.00002
1.00001
0.999998
0.999987
0.999976
0.999968
0.999962
0.999958
0.999955
0.999954
0.999954
0.999956
0.999958
0.999961
0.999965
0.999969
0.999974
0.999978
0.999982
0.999986
0.999989
0.999991
0.999993
0.999995
0.999996
0.999997
0.999998
0.999999
0.999999
1
1
1
1
1
1
1
1
1
1
1
1
1
1
1
1
1
1
1
1.00002
1.00002
1.00002
1.00003
1.00003
1.00004
1.00004
1.00005
1.00006
1.00006
1.00006
1.00007
1.00007
1.00008
1.00008
1.00008
1.00008
1.00008
1.00008
1.00007
1.00007
1.00006
1.00005
1.00004
1.00003
1.00002
1.00001
1
0.999994
0.999985
0.999977
0.999971
0.999965
0.999961
0.999958
0.999957
0.999957
0.999959
0.999961
0.999964
0.999968
0.999971
0.999975
0.999978
0.999982
0.999985
0.999988
0.99999
0.999993
0.999995
0.999996
0.999997
0.999998
0.999999
0.999999
0.999999
1
1
1
1
1
1
1
1
1
1
1
1
1
1
1
1
1
1
1
1.00001
1.00001
1.00002
1.00002
1.00002
1.00003
1.00003
1.00004
1.00004
1.00005
1.00005
1.00005
1.00006
1.00006
1.00006
1.00006
1.00006
1.00006
1.00006
1.00005
1.00005
1.00004
1.00003
1.00003
1.00002
1.00001
1
0.999993
0.999986
0.99998
0.999974
0.99997
0.999967
0.999964
0.999963
0.999963
0.999964
0.999965
0.999967
0.999969
0.999972
0.999976
0.99998
0.999983
0.999986
0.999988
0.999991
0.999992
0.999994
0.999995
0.999996
0.999997
0.999998
0.999999
1
1
1
1
1
1
1
1
1
1
1
1
1
1
1
1
1
1
1
1
1
1.00001
1.00001
1.00001
1.00002
1.00002
1.00002
1.00002
1.00003
1.00003
1.00004
1.00004
1.00004
1.00004
1.00004
1.00005
1.00005
1.00004
1.00004
1.00004
1.00003
1.00003
1.00003
1.00002
1.00001
1.00001
1
0.999996
0.999989
0.999983
0.999979
0.999975
0.999972
0.999969
0.999968
0.999968
0.999968
0.99997
0.999972
0.999974
0.999977
0.999979
0.999981
0.999983
0.999985
0.999988
0.99999
0.999993
0.999994
0.999996
0.999997
0.999998
0.999998
0.999999
0.999999
0.999999
1
1
1
1
1
1
1
1
1
1
1
1
1
1
1
1
1
1
1
1
1.00001
1.00001
1.00001
1.00001
1.00002
1.00002
1.00002
1.00002
1.00002
1.00003
1.00003
1.00003
1.00003
1.00003
1.00003
1.00003
1.00003
1.00003
1.00003
1.00002
1.00002
1.00002
1.00001
1.00001
1
0.999997
0.999992
0.999988
0.999985
0.999981
0.999978
0.999976
0.999975
0.999974
0.999974
0.999974
0.999975
0.999976
0.999977
0.99998
0.999983
0.999985
0.999988
0.99999
0.999991
0.999993
0.999994
0.999995
0.999996
0.999997
0.999998
0.999998
0.999999
0.999999
0.999999
1
1
1
1
1
1
1
1
1
1
1
1
1
1
1
1
1
1
1
1
1.00001
1.00001
1.00001
1.00001
1.00001
1.00001
1.00002
1.00002
1.00002
1.00002
1.00002
1.00002
1.00003
1.00003
1.00003
1.00003
1.00002
1.00002
1.00002
1.00002
1.00001
1.00001
1.00001
1
1
0.999996
0.999991
0.999988
0.999986
0.999983
0.99998
0.999979
0.999979
0.999978
0.999978
0.999979
0.999981
0.999983
0.999984
0.999985
0.999986
0.999988
0.999989
0.999991
0.999993
0.999994
0.999995
0.999996
0.999997
0.999998
0.999999
0.999999
0.999999
1
1
1
1
1
1
1
1
1
1
1
1
1
1
1
1
1
1
1
1
1
1
1
1
1.00001
1.00001
1.00001
1.00001
1.00001
1.00001
1.00002
1.00002
1.00002
1.00002
1.00002
1.00002
1.00002
1.00002
1.00002
1.00002
1.00001
1.00001
1.00001
1.00001
1
1
0.999998
0.999996
0.999994
0.999991
0.999988
0.999987
0.999985
0.999984
0.999983
0.999983
0.999983
0.999983
0.999984
0.999985
0.999986
0.999988
0.99999
0.999992
0.999993
0.999994
0.999994
0.999995
0.999996
0.999997
0.999998
0.999998
0.999998
0.999999
0.999999
1
1
1
1
1
1
1
1
1
1
1
1
1
1
1
1
1
1
1
1
1
1
1
1
1
1.00001
1.00001
1.00001
1.00001
1.00001
1.00001
1.00001
1.00001
1.00001
1.00001
1.00002
1.00001
1.00001
1.00001
1.00001
1.00001
1.00001
1.00001
1.00001
1
1
0.999998
0.999996
0.999994
0.999992
0.99999
0.999989
0.999988
0.999988
0.999987
0.999986
0.999987
0.999988
0.999989
0.999989
0.99999
0.999991
0.999992
0.999993
0.999994
0.999995
0.999996
0.999997
0.999997
0.999998
0.999999
0.999999
0.999999
1
1
1
1
1
1
1
1
1
1
1
1
1
1
1
1
1
1
1
1
1
1
1
1
1
1
1
1
1
1.00001
1.00001
1.00001
1.00001
1.00001
1.00001
1.00001
1.00001
1.00001
1.00001
1.00001
1.00001
1.00001
1.00001
1.00001
1.00001
1
1
1
0.999999
0.999997
0.999995
0.999994
0.999993
0.999991
0.99999
0.99999
0.99999
0.99999
0.99999
0.99999
0.99999
0.999991
0.999992
0.999993
0.999994
0.999995
0.999996
0.999996
0.999997
0.999997
0.999998
0.999998
0.999999
0.999999
0.999999
1
1
1
1
1
1
1
1
1
1
1
1
1
1
1
1
1
1
1
1
1
1
1
1
1
1
1
1
1
1
1
1.00001
1.00001
1.00001
1.00001
1.00001
1.00001
1.00001
1.00001
1.00001
1.00001
1.00001
1.00001
1
1
1
1
1
0.999999
0.999997
0.999996
0.999994
0.999994
0.999994
0.999993
0.999993
0.999992
0.999993
0.999993
0.999993
0.999994
0.999994
0.999995
0.999995
0.999995
0.999996
0.999997
0.999997
0.999998
0.999998
0.999999
0.999999
0.999999
0.999999
0.999999
1
1
1
1
1
1
1
1
1
1
1
1
1
1
1
1
1
1
1
1
1
1
1
1
1
1
1
1
1
1
1
1
1
1.00001
1.00001
1.00001
1.00001
1.00001
1.00001
1.00001
1.00001
1
1
1
1
1
1
1
0.999999
0.999999
0.999998
0.999997
0.999996
0.999995
0.999995
0.999995
0.999994
0.999994
0.999994
0.999994
0.999995
0.999995
0.999996
0.999996
0.999997
0.999997
0.999998
0.999998
0.999999
0.999999
0.999999
0.999999
0.999999
1
1
1
1
1
1
1
1
1
1
1
1
1
1
1
1
1
1
1
1
1
1
1
1
1
1
1
1
1
1
1
1
1
1
1
1
1
1
1
1
1
1
1
1
1
1
1
1
1
1
0.999999
0.999998
0.999997
0.999997
0.999997
0.999997
0.999996
0.999996
0.999996
0.999996
0.999996
0.999996
0.999997
0.999997
0.999997
0.999997
0.999997
0.999998
0.999998
0.999999
0.999999
0.999999
0.999999
0.999999
1
1
1
1
1
1
1
1
1
1
1
1
1
1
1
1
1
1
1
1
1
1
1
1
1
1
1
1
1
1
1
1
1
1
1
1
1
1
1
1
1
1
1
1
1
1
1
1
1
1
1
1
0.999999
0.999999
0.999998
0.999998
0.999997
0.999997
0.999997
0.999997
0.999997
0.999997
0.999997
0.999997
0.999998
0.999998
0.999999
0.999999
0.999999
0.999999
0.999999
0.999999
0.999999
0.999999
1
1
1
1
1
1
1
1
1
1
1
1
1
1
1
1
1
1
1
1
1
1
1
1
1
1
1
1
1
1
1
1
1
1
1
1
1
1
1
1
1
1
1
1
1
1
1
1
1
1
1
1
0.999999
0.999999
0.999999
0.999998
0.999998
0.999998
0.999998
0.999998
0.999998
0.999998
0.999998
0.999998
0.999998
0.999998
0.999998
0.999998
0.999999
0.999999
0.999999
0.999999
0.999999
1
1
1
1
1
1
1
1
1
1
1
1
1
1
1
1
1
1
1
1
1
1
1
1
1
1
1
1
1
1
1
1
1
1
1
1
1
1
1
1
1
1
1
1
1
1
1
1
1
1
1
1
1
1
1
1
0.999999
0.999999
0.999999
0.999999
0.999999
0.999999
0.999998
0.999998
0.999998
0.999999
0.999999
0.999999
0.999999
0.999999
0.999999
0.999999
0.999999
0.999999
1
1
1
1
1
1
1
1
1
1
1
1
1
1
1
1
1
1
1
1
1
1
1
1
1
1
1
1
1
1
1
1
1
1
1
1
1
1
1
1
1
1
1
1
1
1
1
1
1
1
1
1
1
1
1
1
1
1
0.999999
0.999999
0.999999
0.999999
0.999999
0.999999
0.999999
0.999999
0.999999