/*--------------------------------*- C++ -*----------------------------------*\
  =========                 |
  \\      /  F ield         | OpenFOAM: The Open Source CFD Toolbox
   \\    /   O peration     | Website:  https://openfoam.org
    \\  /    A nd           | Version:  6
     \\/     M anipulation  |
\*---------------------------------------------------------------------------*/
FoamFile
{
    version     2.0;
    format      ascii;
    class       volVectorField;
    location    "2.56";
    object      U;
}
// * * * * * * * * * * * * * * * * * * * * * * * * * * * * * * * * * * * * * //

dimensions      [0 1 -1 0 0 0 0];

internalField   nonuniform List<vector> 
10000
(
(0.8944 0.4472 0)
(0.8944 0.4472 0)
(0.8944 0.4472 0)
(0.8944 0.4472 0)
(0.8944 0.4472 0)
(0.8944 0.4472 0)
(0.8944 0.4472 0)
(0.8944 0.4472 0)
(0.8944 0.4472 0)
(0.8944 0.4472 0)
(0.8944 0.4472 0)
(0.8944 0.4472 0)
(0.8944 0.4472 0)
(0.8944 0.4472 0)
(0.8944 0.4472 0)
(0.8944 0.4472 0)
(0.8944 0.4472 0)
(0.8944 0.4472 0)
(0.8944 0.4472 0)
(0.8944 0.4472 0)
(0.8944 0.4472 0)
(0.8944 0.4472 0)
(0.8944 0.4472 0)
(0.8944 0.4472 0)
(0.8944 0.4472 0)
(0.8944 0.4472 0)
(0.8944 0.4472 0)
(0.8944 0.4472 0)
(0.8944 0.4472 0)
(0.8944 0.4472 0)
(0.8944 0.4472 0)
(0.8944 0.4472 0)
(0.8944 0.4472 0)
(0.8944 0.4472 0)
(0.8944 0.4472 0)
(0.8944 0.4472 0)
(0.8944 0.4472 0)
(0.8944 0.4472 0)
(0.8944 0.4472 0)
(0.8944 0.4472 0)
(0.8944 0.4472 0)
(0.8944 0.4472 0)
(0.8944 0.4472 0)
(0.8944 0.4472 0)
(0.8944 0.4472 0)
(0.8944 0.4472 0)
(0.8944 0.447199 0)
(0.894401 0.447199 0)
(0.894401 0.447199 0)
(0.894401 0.447198 0)
(0.894401 0.447197 0)
(0.894401 0.447197 0)
(0.894401 0.447196 0)
(0.894401 0.447195 0)
(0.894401 0.447195 0)
(0.8944 0.447194 0)
(0.894399 0.447195 0)
(0.894399 0.447195 0)
(0.894399 0.447196 0)
(0.894398 0.447197 0)
(0.894398 0.447199 0)
(0.894398 0.447201 0)
(0.894398 0.447202 0)
(0.894398 0.447204 0)
(0.894399 0.447205 0)
(0.894399 0.447205 0)
(0.8944 0.447205 0)
(0.8944 0.447205 0)
(0.894401 0.447205 0)
(0.894401 0.447204 0)
(0.894401 0.447204 0)
(0.894401 0.447203 0)
(0.894401 0.447202 0)
(0.894401 0.447202 0)
(0.894401 0.447201 0)
(0.8944 0.447201 0)
(0.8944 0.447201 0)
(0.8944 0.4472 0)
(0.8944 0.4472 0)
(0.8944 0.4472 0)
(0.8944 0.4472 0)
(0.8944 0.4472 0)
(0.8944 0.4472 0)
(0.8944 0.4472 0)
(0.8944 0.4472 0)
(0.8944 0.4472 0)
(0.8944 0.4472 0)
(0.8944 0.4472 0)
(0.8944 0.4472 0)
(0.8944 0.4472 0)
(0.8944 0.4472 0)
(0.8944 0.4472 0)
(0.8944 0.4472 0)
(0.8944 0.4472 0)
(0.8944 0.4472 0)
(0.8944 0.4472 0)
(0.8944 0.4472 0)
(0.8944 0.4472 0)
(0.8944 0.4472 0)
(0.8944 0.4472 0)
(0.8944 0.4472 0)
(0.8944 0.4472 0)
(0.8944 0.4472 0)
(0.8944 0.4472 0)
(0.8944 0.4472 0)
(0.8944 0.4472 0)
(0.8944 0.4472 0)
(0.8944 0.4472 0)
(0.8944 0.4472 0)
(0.8944 0.4472 0)
(0.8944 0.4472 0)
(0.8944 0.4472 0)
(0.8944 0.4472 0)
(0.8944 0.4472 0)
(0.8944 0.4472 0)
(0.8944 0.4472 0)
(0.8944 0.4472 0)
(0.8944 0.4472 0)
(0.8944 0.4472 0)
(0.8944 0.4472 0)
(0.8944 0.4472 0)
(0.8944 0.4472 0)
(0.8944 0.4472 0)
(0.8944 0.4472 0)
(0.8944 0.4472 0)
(0.8944 0.4472 0)
(0.8944 0.4472 0)
(0.8944 0.4472 0)
(0.8944 0.4472 0)
(0.8944 0.4472 0)
(0.8944 0.4472 0)
(0.8944 0.4472 0)
(0.8944 0.4472 0)
(0.8944 0.4472 0)
(0.8944 0.4472 0)
(0.8944 0.4472 0)
(0.8944 0.4472 0)
(0.8944 0.4472 0)
(0.8944 0.4472 0)
(0.8944 0.4472 0)
(0.8944 0.4472 0)
(0.8944 0.4472 0)
(0.8944 0.4472 0)
(0.8944 0.4472 0)
(0.8944 0.4472 0)
(0.894401 0.447199 0)
(0.894401 0.447199 0)
(0.894401 0.447199 0)
(0.894401 0.447198 0)
(0.894401 0.447197 0)
(0.894402 0.447196 0)
(0.894402 0.447195 0)
(0.894402 0.447193 0)
(0.894401 0.447192 0)
(0.894401 0.447191 0)
(0.8944 0.447191 0)
(0.894399 0.447191 0)
(0.894398 0.447192 0)
(0.894397 0.447194 0)
(0.894397 0.447196 0)
(0.894396 0.447199 0)
(0.894396 0.447201 0)
(0.894397 0.447204 0)
(0.894397 0.447206 0)
(0.894398 0.447207 0)
(0.894399 0.447208 0)
(0.8944 0.447209 0)
(0.894401 0.447209 0)
(0.894401 0.447208 0)
(0.894401 0.447207 0)
(0.894402 0.447206 0)
(0.894402 0.447205 0)
(0.894401 0.447204 0)
(0.894401 0.447203 0)
(0.894401 0.447202 0)
(0.894401 0.447201 0)
(0.894401 0.447201 0)
(0.8944 0.447201 0)
(0.8944 0.4472 0)
(0.8944 0.4472 0)
(0.8944 0.4472 0)
(0.8944 0.4472 0)
(0.8944 0.4472 0)
(0.8944 0.4472 0)
(0.8944 0.4472 0)
(0.8944 0.4472 0)
(0.8944 0.4472 0)
(0.8944 0.4472 0)
(0.8944 0.4472 0)
(0.8944 0.4472 0)
(0.8944 0.4472 0)
(0.8944 0.4472 0)
(0.8944 0.4472 0)
(0.8944 0.4472 0)
(0.8944 0.4472 0)
(0.8944 0.4472 0)
(0.8944 0.4472 0)
(0.8944 0.4472 0)
(0.8944 0.4472 0)
(0.8944 0.4472 0)
(0.8944 0.4472 0)
(0.8944 0.4472 0)
(0.8944 0.4472 0)
(0.8944 0.4472 0)
(0.8944 0.4472 0)
(0.8944 0.4472 0)
(0.8944 0.4472 0)
(0.8944 0.4472 0)
(0.8944 0.4472 0)
(0.8944 0.4472 0)
(0.8944 0.4472 0)
(0.8944 0.4472 0)
(0.8944 0.4472 0)
(0.8944 0.4472 0)
(0.8944 0.4472 0)
(0.8944 0.4472 0)
(0.8944 0.4472 0)
(0.8944 0.4472 0)
(0.8944 0.4472 0)
(0.8944 0.4472 0)
(0.8944 0.4472 0)
(0.8944 0.4472 0)
(0.8944 0.4472 0)
(0.8944 0.4472 0)
(0.8944 0.4472 0)
(0.8944 0.4472 0)
(0.8944 0.4472 0)
(0.8944 0.4472 0)
(0.8944 0.4472 0)
(0.8944 0.4472 0)
(0.8944 0.4472 0)
(0.8944 0.4472 0)
(0.8944 0.4472 0)
(0.8944 0.4472 0)
(0.8944 0.4472 0)
(0.8944 0.4472 0)
(0.8944 0.4472 0)
(0.8944 0.4472 0)
(0.8944 0.4472 0)
(0.8944 0.4472 0)
(0.8944 0.4472 0)
(0.8944 0.4472 0)
(0.8944 0.4472 0)
(0.8944 0.4472 0)
(0.8944 0.4472 0)
(0.894401 0.447199 0)
(0.894401 0.447199 0)
(0.894401 0.447198 0)
(0.894402 0.447197 0)
(0.894402 0.447195 0)
(0.894403 0.447193 0)
(0.894403 0.447191 0)
(0.894403 0.447189 0)
(0.894402 0.447188 0)
(0.894401 0.447186 0)
(0.8944 0.447186 0)
(0.894398 0.447186 0)
(0.894397 0.447188 0)
(0.894396 0.44719 0)
(0.894395 0.447194 0)
(0.894394 0.447198 0)
(0.894394 0.447202 0)
(0.894394 0.447206 0)
(0.894395 0.447209 0)
(0.894397 0.447212 0)
(0.894398 0.447213 0)
(0.8944 0.447214 0)
(0.894401 0.447214 0)
(0.894402 0.447213 0)
(0.894402 0.447211 0)
(0.894403 0.447209 0)
(0.894403 0.447208 0)
(0.894402 0.447206 0)
(0.894402 0.447204 0)
(0.894402 0.447203 0)
(0.894401 0.447202 0)
(0.894401 0.447201 0)
(0.894401 0.447201 0)
(0.8944 0.447201 0)
(0.8944 0.4472 0)
(0.8944 0.4472 0)
(0.8944 0.4472 0)
(0.8944 0.4472 0)
(0.8944 0.4472 0)
(0.8944 0.4472 0)
(0.8944 0.4472 0)
(0.8944 0.4472 0)
(0.8944 0.4472 0)
(0.8944 0.4472 0)
(0.8944 0.4472 0)
(0.8944 0.4472 0)
(0.8944 0.4472 0)
(0.8944 0.4472 0)
(0.8944 0.4472 0)
(0.8944 0.4472 0)
(0.8944 0.4472 0)
(0.8944 0.4472 0)
(0.8944 0.4472 0)
(0.8944 0.4472 0)
(0.8944 0.4472 0)
(0.8944 0.4472 0)
(0.8944 0.4472 0)
(0.8944 0.4472 0)
(0.8944 0.4472 0)
(0.8944 0.4472 0)
(0.8944 0.4472 0)
(0.8944 0.4472 0)
(0.8944 0.4472 0)
(0.8944 0.4472 0)
(0.8944 0.4472 0)
(0.8944 0.4472 0)
(0.8944 0.4472 0)
(0.8944 0.4472 0)
(0.8944 0.4472 0)
(0.8944 0.4472 0)
(0.8944 0.4472 0)
(0.8944 0.4472 0)
(0.8944 0.4472 0)
(0.8944 0.4472 0)
(0.8944 0.4472 0)
(0.8944 0.4472 0)
(0.8944 0.4472 0)
(0.8944 0.4472 0)
(0.8944 0.4472 0)
(0.8944 0.4472 0)
(0.8944 0.4472 0)
(0.8944 0.4472 0)
(0.8944 0.4472 0)
(0.8944 0.4472 0)
(0.8944 0.4472 0)
(0.8944 0.4472 0)
(0.8944 0.4472 0)
(0.8944 0.4472 0)
(0.8944 0.4472 0)
(0.8944 0.4472 0)
(0.8944 0.4472 0)
(0.8944 0.4472 0)
(0.8944 0.4472 0)
(0.8944 0.4472 0)
(0.8944 0.4472 0)
(0.8944 0.4472 0)
(0.8944 0.4472 0)
(0.8944 0.4472 0)
(0.8944 0.4472 0)
(0.894401 0.447199 0)
(0.894401 0.447199 0)
(0.894402 0.447198 0)
(0.894402 0.447197 0)
(0.894403 0.447195 0)
(0.894404 0.447192 0)
(0.894404 0.447189 0)
(0.894405 0.447187 0)
(0.894404 0.447184 0)
(0.894403 0.447181 0)
(0.894402 0.447179 0)
(0.8944 0.447179 0)
(0.894397 0.447179 0)
(0.894395 0.447182 0)
(0.894393 0.447186 0)
(0.894391 0.447191 0)
(0.89439 0.447197 0)
(0.89439 0.447203 0)
(0.894391 0.44721 0)
(0.894393 0.447215 0)
(0.894395 0.447219 0)
(0.894397 0.447221 0)
(0.894399 0.447222 0)
(0.894401 0.447222 0)
(0.894403 0.44722 0)
(0.894404 0.447218 0)
(0.894404 0.447215 0)
(0.894404 0.447212 0)
(0.894404 0.447209 0)
(0.894403 0.447207 0)
(0.894403 0.447205 0)
(0.894402 0.447203 0)
(0.894402 0.447202 0)
(0.894401 0.447201 0)
(0.894401 0.447201 0)
(0.8944 0.4472 0)
(0.8944 0.4472 0)
(0.8944 0.4472 0)
(0.8944 0.4472 0)
(0.8944 0.4472 0)
(0.8944 0.4472 0)
(0.8944 0.4472 0)
(0.8944 0.4472 0)
(0.8944 0.4472 0)
(0.8944 0.4472 0)
(0.8944 0.4472 0)
(0.8944 0.4472 0)
(0.8944 0.4472 0)
(0.8944 0.4472 0)
(0.8944 0.4472 0)
(0.8944 0.4472 0)
(0.8944 0.4472 0)
(0.8944 0.4472 0)
(0.8944 0.4472 0)
(0.8944 0.4472 0)
(0.8944 0.4472 0)
(0.8944 0.4472 0)
(0.8944 0.4472 0)
(0.8944 0.4472 0)
(0.8944 0.4472 0)
(0.8944 0.4472 0)
(0.8944 0.4472 0)
(0.8944 0.4472 0)
(0.8944 0.4472 0)
(0.8944 0.4472 0)
(0.8944 0.4472 0)
(0.8944 0.4472 0)
(0.8944 0.4472 0)
(0.8944 0.4472 0)
(0.8944 0.4472 0)
(0.8944 0.4472 0)
(0.8944 0.4472 0)
(0.8944 0.4472 0)
(0.8944 0.4472 0)
(0.8944 0.4472 0)
(0.8944 0.4472 0)
(0.8944 0.4472 0)
(0.8944 0.4472 0)
(0.8944 0.4472 0)
(0.8944 0.4472 0)
(0.8944 0.4472 0)
(0.8944 0.4472 0)
(0.8944 0.4472 0)
(0.8944 0.4472 0)
(0.8944 0.4472 0)
(0.8944 0.4472 0)
(0.8944 0.4472 0)
(0.8944 0.4472 0)
(0.8944 0.4472 0)
(0.8944 0.4472 0)
(0.8944 0.4472 0)
(0.8944 0.4472 0)
(0.8944 0.4472 0)
(0.8944 0.4472 0)
(0.8944 0.4472 0)
(0.8944 0.4472 0)
(0.8944 0.4472 0)
(0.8944 0.4472 0)
(0.8944 0.4472 0)
(0.894401 0.4472 0)
(0.894401 0.447199 0)
(0.894402 0.447198 0)
(0.894403 0.447197 0)
(0.894404 0.447195 0)
(0.894405 0.447192 0)
(0.894406 0.447188 0)
(0.894407 0.447184 0)
(0.894407 0.44718 0)
(0.894407 0.447175 0)
(0.894405 0.447172 0)
(0.894403 0.447169 0)
(0.894399 0.447168 0)
(0.894396 0.44717 0)
(0.894391 0.447173 0)
(0.894388 0.447179 0)
(0.894385 0.447188 0)
(0.894384 0.447197 0)
(0.894384 0.447206 0)
(0.894385 0.447215 0)
(0.894388 0.447223 0)
(0.894391 0.447229 0)
(0.894395 0.447232 0)
(0.894399 0.447234 0)
(0.894402 0.447233 0)
(0.894404 0.44723 0)
(0.894406 0.447227 0)
(0.894407 0.447223 0)
(0.894407 0.447218 0)
(0.894406 0.447214 0)
(0.894405 0.44721 0)
(0.894404 0.447207 0)
(0.894403 0.447205 0)
(0.894402 0.447203 0)
(0.894402 0.447202 0)
(0.894401 0.447201 0)
(0.894401 0.447201 0)
(0.8944 0.4472 0)
(0.8944 0.4472 0)
(0.8944 0.4472 0)
(0.8944 0.4472 0)
(0.8944 0.4472 0)
(0.8944 0.4472 0)
(0.8944 0.4472 0)
(0.8944 0.4472 0)
(0.8944 0.4472 0)
(0.8944 0.4472 0)
(0.8944 0.4472 0)
(0.8944 0.4472 0)
(0.8944 0.4472 0)
(0.8944 0.4472 0)
(0.8944 0.4472 0)
(0.8944 0.4472 0)
(0.8944 0.4472 0)
(0.8944 0.4472 0)
(0.8944 0.4472 0)
(0.8944 0.4472 0)
(0.8944 0.4472 0)
(0.8944 0.4472 0)
(0.8944 0.4472 0)
(0.8944 0.4472 0)
(0.8944 0.4472 0)
(0.8944 0.4472 0)
(0.8944 0.4472 0)
(0.8944 0.4472 0)
(0.8944 0.4472 0)
(0.8944 0.4472 0)
(0.8944 0.4472 0)
(0.8944 0.4472 0)
(0.8944 0.4472 0)
(0.8944 0.4472 0)
(0.8944 0.4472 0)
(0.8944 0.4472 0)
(0.8944 0.4472 0)
(0.8944 0.4472 0)
(0.8944 0.4472 0)
(0.8944 0.4472 0)
(0.8944 0.4472 0)
(0.8944 0.4472 0)
(0.8944 0.4472 0)
(0.8944 0.4472 0)
(0.8944 0.4472 0)
(0.8944 0.4472 0)
(0.8944 0.4472 0)
(0.8944 0.4472 0)
(0.8944 0.4472 0)
(0.8944 0.4472 0)
(0.8944 0.4472 0)
(0.8944 0.4472 0)
(0.8944 0.4472 0)
(0.8944 0.4472 0)
(0.8944 0.4472 0)
(0.8944 0.4472 0)
(0.8944 0.4472 0)
(0.8944 0.4472 0)
(0.8944 0.4472 0)
(0.8944 0.4472 0)
(0.8944 0.4472 0)
(0.8944 0.4472 0)
(0.894401 0.4472 0)
(0.894401 0.4472 0)
(0.894402 0.447199 0)
(0.894403 0.447198 0)
(0.894404 0.447195 0)
(0.894406 0.447192 0)
(0.894408 0.447188 0)
(0.89441 0.447183 0)
(0.894411 0.447177 0)
(0.894411 0.44717 0)
(0.89441 0.447164 0)
(0.894407 0.447159 0)
(0.894403 0.447155 0)
(0.894398 0.447154 0)
(0.894392 0.447157 0)
(0.894386 0.447163 0)
(0.89438 0.447172 0)
(0.894376 0.447184 0)
(0.894374 0.447197 0)
(0.894374 0.447211 0)
(0.894376 0.447225 0)
(0.89438 0.447236 0)
(0.894386 0.447244 0)
(0.894392 0.447249 0)
(0.894398 0.447251 0)
(0.894403 0.44725 0)
(0.894407 0.447246 0)
(0.894409 0.44724 0)
(0.89441 0.447234 0)
(0.89441 0.447227 0)
(0.89441 0.447221 0)
(0.894408 0.447215 0)
(0.894407 0.447211 0)
(0.894405 0.447207 0)
(0.894404 0.447205 0)
(0.894403 0.447203 0)
(0.894402 0.447202 0)
(0.894401 0.447201 0)
(0.894401 0.4472 0)
(0.8944 0.4472 0)
(0.8944 0.4472 0)
(0.8944 0.4472 0)
(0.8944 0.4472 0)
(0.8944 0.4472 0)
(0.8944 0.4472 0)
(0.8944 0.4472 0)
(0.8944 0.4472 0)
(0.8944 0.4472 0)
(0.8944 0.4472 0)
(0.8944 0.4472 0)
(0.8944 0.4472 0)
(0.8944 0.4472 0)
(0.8944 0.4472 0)
(0.8944 0.4472 0)
(0.8944 0.4472 0)
(0.8944 0.4472 0)
(0.8944 0.4472 0)
(0.8944 0.4472 0)
(0.8944 0.4472 0)
(0.8944 0.4472 0)
(0.8944 0.4472 0)
(0.8944 0.4472 0)
(0.8944 0.4472 0)
(0.8944 0.4472 0)
(0.8944 0.4472 0)
(0.8944 0.4472 0)
(0.8944 0.4472 0)
(0.8944 0.4472 0)
(0.8944 0.4472 0)
(0.8944 0.4472 0)
(0.8944 0.4472 0)
(0.8944 0.4472 0)
(0.8944 0.4472 0)
(0.8944 0.4472 0)
(0.8944 0.4472 0)
(0.8944 0.4472 0)
(0.8944 0.4472 0)
(0.8944 0.4472 0)
(0.8944 0.4472 0)
(0.8944 0.4472 0)
(0.8944 0.4472 0)
(0.8944 0.4472 0)
(0.8944 0.4472 0)
(0.8944 0.4472 0)
(0.8944 0.4472 0)
(0.8944 0.4472 0)
(0.8944 0.4472 0)
(0.8944 0.4472 0)
(0.8944 0.4472 0)
(0.8944 0.4472 0)
(0.8944 0.4472 0)
(0.8944 0.4472 0)
(0.8944 0.4472 0)
(0.8944 0.4472 0)
(0.8944 0.4472 0)
(0.8944 0.4472 0)
(0.8944 0.4472 0)
(0.8944 0.4472 0)
(0.8944 0.4472 0)
(0.8944 0.4472 0)
(0.894401 0.4472 0)
(0.894401 0.447199 0)
(0.894403 0.447198 0)
(0.894404 0.447197 0)
(0.894407 0.447194 0)
(0.894409 0.447189 0)
(0.894412 0.447183 0)
(0.894414 0.447176 0)
(0.894416 0.447167 0)
(0.894416 0.447158 0)
(0.894414 0.447149 0)
(0.89441 0.447141 0)
(0.894404 0.447136 0)
(0.894396 0.447136 0)
(0.894386 0.44714 0)
(0.894377 0.447149 0)
(0.894368 0.447163 0)
(0.894362 0.447181 0)
(0.894358 0.447201 0)
(0.894358 0.447221 0)
(0.894362 0.44724 0)
(0.894369 0.447256 0)
(0.894377 0.447268 0)
(0.894387 0.447275 0)
(0.894396 0.447277 0)
(0.894404 0.447274 0)
(0.89441 0.447268 0)
(0.894414 0.447259 0)
(0.894416 0.44725 0)
(0.894416 0.44724 0)
(0.894415 0.447231 0)
(0.894413 0.447222 0)
(0.89441 0.447216 0)
(0.894408 0.447211 0)
(0.894406 0.447207 0)
(0.894404 0.447204 0)
(0.894403 0.447202 0)
(0.894402 0.447201 0)
(0.894401 0.4472 0)
(0.8944 0.4472 0)
(0.8944 0.4472 0)
(0.8944 0.4472 0)
(0.8944 0.4472 0)
(0.8944 0.4472 0)
(0.8944 0.4472 0)
(0.8944 0.4472 0)
(0.8944 0.4472 0)
(0.8944 0.4472 0)
(0.8944 0.4472 0)
(0.8944 0.4472 0)
(0.8944 0.4472 0)
(0.8944 0.4472 0)
(0.8944 0.4472 0)
(0.8944 0.4472 0)
(0.8944 0.4472 0)
(0.8944 0.4472 0)
(0.8944 0.4472 0)
(0.8944 0.4472 0)
(0.8944 0.4472 0)
(0.8944 0.4472 0)
(0.8944 0.4472 0)
(0.8944 0.4472 0)
(0.8944 0.4472 0)
(0.8944 0.4472 0)
(0.8944 0.4472 0)
(0.8944 0.4472 0)
(0.8944 0.4472 0)
(0.8944 0.4472 0)
(0.8944 0.4472 0)
(0.8944 0.4472 0)
(0.8944 0.4472 0)
(0.8944 0.4472 0)
(0.8944 0.4472 0)
(0.8944 0.4472 0)
(0.8944 0.4472 0)
(0.8944 0.4472 0)
(0.8944 0.4472 0)
(0.8944 0.4472 0)
(0.8944 0.4472 0)
(0.8944 0.4472 0)
(0.8944 0.4472 0)
(0.8944 0.4472 0)
(0.8944 0.4472 0)
(0.8944 0.4472 0)
(0.8944 0.4472 0)
(0.8944 0.4472 0)
(0.8944 0.4472 0)
(0.8944 0.4472 0)
(0.8944 0.4472 0)
(0.8944 0.4472 0)
(0.8944 0.4472 0)
(0.8944 0.4472 0)
(0.8944 0.4472 0)
(0.8944 0.4472 0)
(0.8944 0.4472 0)
(0.8944 0.4472 0)
(0.8944 0.4472 0)
(0.8944 0.4472 0)
(0.8944 0.4472 0)
(0.8944 0.447201 0)
(0.894401 0.4472 0)
(0.894402 0.4472 0)
(0.894404 0.447198 0)
(0.894407 0.447195 0)
(0.89441 0.447191 0)
(0.894414 0.447185 0)
(0.894418 0.447176 0)
(0.894421 0.447166 0)
(0.894423 0.447154 0)
(0.894423 0.447141 0)
(0.89442 0.447129 0)
(0.894414 0.447119 0)
(0.894404 0.447113 0)
(0.894391 0.447113 0)
(0.894376 0.447121 0)
(0.894361 0.447135 0)
(0.894348 0.447156 0)
(0.894339 0.447182 0)
(0.894334 0.44721 0)
(0.894335 0.44724 0)
(0.894341 0.447266 0)
(0.894351 0.447288 0)
(0.894364 0.447304 0)
(0.894379 0.447313 0)
(0.894393 0.447314 0)
(0.894405 0.44731 0)
(0.894414 0.4473 0)
(0.89442 0.447287 0)
(0.894423 0.447272 0)
(0.894423 0.447257 0)
(0.894422 0.447244 0)
(0.894419 0.447232 0)
(0.894415 0.447222 0)
(0.894412 0.447215 0)
(0.894409 0.447209 0)
(0.894406 0.447205 0)
(0.894404 0.447203 0)
(0.894402 0.447201 0)
(0.894401 0.4472 0)
(0.894401 0.4472 0)
(0.8944 0.4472 0)
(0.8944 0.4472 0)
(0.8944 0.4472 0)
(0.8944 0.4472 0)
(0.8944 0.4472 0)
(0.8944 0.4472 0)
(0.8944 0.4472 0)
(0.8944 0.4472 0)
(0.8944 0.4472 0)
(0.8944 0.4472 0)
(0.8944 0.4472 0)
(0.8944 0.4472 0)
(0.8944 0.4472 0)
(0.8944 0.4472 0)
(0.8944 0.4472 0)
(0.8944 0.4472 0)
(0.8944 0.4472 0)
(0.8944 0.4472 0)
(0.8944 0.4472 0)
(0.8944 0.4472 0)
(0.8944 0.4472 0)
(0.8944 0.4472 0)
(0.8944 0.4472 0)
(0.8944 0.4472 0)
(0.8944 0.4472 0)
(0.8944 0.4472 0)
(0.8944 0.4472 0)
(0.8944 0.4472 0)
(0.8944 0.4472 0)
(0.8944 0.4472 0)
(0.8944 0.4472 0)
(0.8944 0.4472 0)
(0.8944 0.4472 0)
(0.8944 0.4472 0)
(0.8944 0.4472 0)
(0.8944 0.4472 0)
(0.8944 0.4472 0)
(0.8944 0.4472 0)
(0.8944 0.4472 0)
(0.8944 0.4472 0)
(0.8944 0.4472 0)
(0.8944 0.4472 0)
(0.8944 0.4472 0)
(0.8944 0.4472 0)
(0.8944 0.4472 0)
(0.8944 0.4472 0)
(0.8944 0.4472 0)
(0.8944 0.4472 0)
(0.8944 0.4472 0)
(0.8944 0.4472 0)
(0.8944 0.4472 0)
(0.8944 0.4472 0)
(0.8944 0.4472 0)
(0.8944 0.4472 0)
(0.8944 0.4472 0)
(0.8944 0.4472 0)
(0.8944 0.447201 0)
(0.8944 0.447201 0)
(0.8944 0.447201 0)
(0.8944 0.447201 0)
(0.894402 0.447201 0)
(0.894403 0.4472 0)
(0.894406 0.447198 0)
(0.89441 0.447194 0)
(0.894414 0.447189 0)
(0.89442 0.44718 0)
(0.894426 0.447168 0)
(0.89443 0.447154 0)
(0.894433 0.447138 0)
(0.894432 0.447121 0)
(0.894427 0.447104 0)
(0.894416 0.447092 0)
(0.8944 0.447087 0)
(0.89438 0.447089 0)
(0.894358 0.447101 0)
(0.894336 0.447124 0)
(0.894317 0.447155 0)
(0.894303 0.447192 0)
(0.894297 0.447233 0)
(0.894298 0.447274 0)
(0.894308 0.447311 0)
(0.894324 0.44734 0)
(0.894344 0.44736 0)
(0.894366 0.44737 0)
(0.894387 0.44737 0)
(0.894406 0.447361 0)
(0.89442 0.447345 0)
(0.894429 0.447325 0)
(0.894433 0.447303 0)
(0.894434 0.447282 0)
(0.894432 0.447262 0)
(0.894428 0.447245 0)
(0.894422 0.447231 0)
(0.894417 0.44722 0)
(0.894413 0.447212 0)
(0.894409 0.447207 0)
(0.894406 0.447204 0)
(0.894403 0.447201 0)
(0.894402 0.4472 0)
(0.894401 0.4472 0)
(0.8944 0.4472 0)
(0.8944 0.4472 0)
(0.8944 0.4472 0)
(0.8944 0.4472 0)
(0.8944 0.4472 0)
(0.8944 0.4472 0)
(0.8944 0.4472 0)
(0.8944 0.4472 0)
(0.8944 0.4472 0)
(0.8944 0.4472 0)
(0.8944 0.4472 0)
(0.8944 0.4472 0)
(0.8944 0.4472 0)
(0.8944 0.4472 0)
(0.8944 0.4472 0)
(0.8944 0.4472 0)
(0.8944 0.4472 0)
(0.8944 0.4472 0)
(0.8944 0.4472 0)
(0.8944 0.4472 0)
(0.8944 0.4472 0)
(0.8944 0.4472 0)
(0.8944 0.4472 0)
(0.8944 0.4472 0)
(0.8944 0.4472 0)
(0.8944 0.4472 0)
(0.8944 0.4472 0)
(0.8944 0.4472 0)
(0.8944 0.4472 0)
(0.8944 0.4472 0)
(0.8944 0.4472 0)
(0.8944 0.4472 0)
(0.8944 0.4472 0)
(0.8944 0.4472 0)
(0.8944 0.4472 0)
(0.8944 0.4472 0)
(0.8944 0.4472 0)
(0.8944 0.4472 0)
(0.8944 0.4472 0)
(0.8944 0.4472 0)
(0.8944 0.4472 0)
(0.8944 0.4472 0)
(0.8944 0.4472 0)
(0.8944 0.4472 0)
(0.8944 0.4472 0)
(0.8944 0.4472 0)
(0.8944 0.4472 0)
(0.8944 0.4472 0)
(0.8944 0.4472 0)
(0.8944 0.4472 0)
(0.8944 0.4472 0)
(0.8944 0.4472 0)
(0.8944 0.4472 0)
(0.8944 0.4472 0)
(0.8944 0.4472 0)
(0.8944 0.447201 0)
(0.894399 0.447201 0)
(0.8944 0.447201 0)
(0.8944 0.447201 0)
(0.8944 0.447202 0)
(0.894402 0.447202 0)
(0.894404 0.447201 0)
(0.894408 0.447198 0)
(0.894413 0.447194 0)
(0.89442 0.447186 0)
(0.894428 0.447174 0)
(0.894436 0.447159 0)
(0.894442 0.44714 0)
(0.894445 0.447118 0)
(0.894442 0.447097 0)
(0.894433 0.447077 0)
(0.894416 0.447064 0)
(0.894391 0.447059 0)
(0.894361 0.447067 0)
(0.894327 0.447089 0)
(0.894295 0.447123 0)
(0.894266 0.44717 0)
(0.894247 0.447224 0)
(0.894238 0.447282 0)
(0.894242 0.447338 0)
(0.894257 0.447387 0)
(0.894282 0.447424 0)
(0.894313 0.447448 0)
(0.894347 0.447457 0)
(0.894379 0.447452 0)
(0.894406 0.447435 0)
(0.894427 0.44741 0)
(0.894441 0.447379 0)
(0.894448 0.447347 0)
(0.894449 0.447315 0)
(0.894446 0.447286 0)
(0.89444 0.447262 0)
(0.894432 0.447242 0)
(0.894425 0.447227 0)
(0.894418 0.447216 0)
(0.894412 0.447209 0)
(0.894408 0.447204 0)
(0.894405 0.447201 0)
(0.894403 0.4472 0)
(0.894401 0.447199 0)
(0.8944 0.447199 0)
(0.8944 0.447199 0)
(0.8944 0.447199 0)
(0.8944 0.4472 0)
(0.8944 0.4472 0)
(0.8944 0.4472 0)
(0.8944 0.4472 0)
(0.8944 0.4472 0)
(0.8944 0.4472 0)
(0.8944 0.4472 0)
(0.8944 0.4472 0)
(0.8944 0.4472 0)
(0.8944 0.4472 0)
(0.8944 0.4472 0)
(0.8944 0.4472 0)
(0.8944 0.4472 0)
(0.8944 0.4472 0)
(0.8944 0.4472 0)
(0.8944 0.4472 0)
(0.8944 0.4472 0)
(0.8944 0.4472 0)
(0.8944 0.4472 0)
(0.8944 0.4472 0)
(0.8944 0.4472 0)
(0.8944 0.4472 0)
(0.8944 0.4472 0)
(0.8944 0.4472 0)
(0.8944 0.4472 0)
(0.8944 0.4472 0)
(0.8944 0.4472 0)
(0.8944 0.4472 0)
(0.8944 0.4472 0)
(0.8944 0.4472 0)
(0.8944 0.4472 0)
(0.8944 0.4472 0)
(0.8944 0.4472 0)
(0.8944 0.4472 0)
(0.8944 0.4472 0)
(0.8944 0.4472 0)
(0.8944 0.4472 0)
(0.8944 0.4472 0)
(0.8944 0.4472 0)
(0.8944 0.4472 0)
(0.8944 0.4472 0)
(0.8944 0.4472 0)
(0.8944 0.4472 0)
(0.8944 0.4472 0)
(0.8944 0.4472 0)
(0.8944 0.4472 0)
(0.8944 0.4472 0)
(0.8944 0.4472 0)
(0.8944 0.4472 0)
(0.8944 0.4472 0)
(0.8944 0.4472 0)
(0.8944 0.4472 0)
(0.8944 0.447201 0)
(0.894399 0.447201 0)
(0.894399 0.447202 0)
(0.8944 0.447203 0)
(0.8944 0.447204 0)
(0.894402 0.447203 0)
(0.894406 0.447202 0)
(0.894411 0.4472 0)
(0.894419 0.447194 0)
(0.894428 0.447183 0)
(0.894438 0.447169 0)
(0.894449 0.447149 0)
(0.894456 0.447124 0)
(0.894458 0.447097 0)
(0.894452 0.447071 0)
(0.894436 0.44705 0)
(0.894408 0.447037 0)
(0.894369 0.447039 0)
(0.894323 0.447057 0)
(0.894273 0.447094 0)
(0.894224 0.447148 0)
(0.894184 0.447217 0)
(0.894156 0.447296 0)
(0.894146 0.447377 0)
(0.894154 0.447452 0)
(0.894179 0.447515 0)
(0.894218 0.447561 0)
(0.894265 0.447586 0)
(0.894316 0.447591 0)
(0.894364 0.447576 0)
(0.894405 0.447545 0)
(0.894436 0.447504 0)
(0.894457 0.447456 0)
(0.894467 0.447407 0)
(0.894469 0.447361 0)
(0.894465 0.447319 0)
(0.894456 0.447284 0)
(0.894445 0.447256 0)
(0.894435 0.447235 0)
(0.894425 0.44722 0)
(0.894417 0.44721 0)
(0.894411 0.447204 0)
(0.894406 0.447201 0)
(0.894403 0.447199 0)
(0.894401 0.447198 0)
(0.8944 0.447198 0)
(0.8944 0.447199 0)
(0.8944 0.447199 0)
(0.8944 0.447199 0)
(0.8944 0.447199 0)
(0.8944 0.4472 0)
(0.8944 0.4472 0)
(0.8944 0.4472 0)
(0.8944 0.4472 0)
(0.8944 0.4472 0)
(0.8944 0.4472 0)
(0.8944 0.4472 0)
(0.8944 0.4472 0)
(0.8944 0.4472 0)
(0.8944 0.4472 0)
(0.8944 0.4472 0)
(0.8944 0.4472 0)
(0.8944 0.4472 0)
(0.8944 0.4472 0)
(0.8944 0.4472 0)
(0.8944 0.4472 0)
(0.8944 0.4472 0)
(0.8944 0.4472 0)
(0.8944 0.4472 0)
(0.8944 0.4472 0)
(0.8944 0.4472 0)
(0.8944 0.4472 0)
(0.8944 0.4472 0)
(0.8944 0.4472 0)
(0.8944 0.4472 0)
(0.8944 0.4472 0)
(0.8944 0.4472 0)
(0.8944 0.4472 0)
(0.8944 0.4472 0)
(0.8944 0.4472 0)
(0.8944 0.4472 0)
(0.8944 0.4472 0)
(0.8944 0.4472 0)
(0.8944 0.4472 0)
(0.8944 0.4472 0)
(0.8944 0.4472 0)
(0.8944 0.4472 0)
(0.8944 0.4472 0)
(0.8944 0.4472 0)
(0.8944 0.4472 0)
(0.8944 0.4472 0)
(0.8944 0.4472 0)
(0.8944 0.4472 0)
(0.8944 0.4472 0)
(0.8944 0.4472 0)
(0.8944 0.4472 0)
(0.8944 0.4472 0)
(0.8944 0.4472 0)
(0.894399 0.4472 0)
(0.894399 0.447201 0)
(0.894399 0.447202 0)
(0.894399 0.447202 0)
(0.894398 0.447203 0)
(0.894399 0.447205 0)
(0.8944 0.447206 0)
(0.894402 0.447206 0)
(0.894407 0.447205 0)
(0.894415 0.447202 0)
(0.894425 0.447195 0)
(0.894437 0.447182 0)
(0.894451 0.447163 0)
(0.894463 0.447139 0)
(0.894472 0.44711 0)
(0.894471 0.447078 0)
(0.894458 0.447049 0)
(0.894429 0.447029 0)
(0.894384 0.447023 0)
(0.894323 0.447037 0)
(0.894252 0.447074 0)
(0.894177 0.447137 0)
(0.894106 0.447223 0)
(0.894048 0.447327 0)
(0.89401 0.44744 0)
(0.893999 0.447552 0)
(0.894015 0.447653 0)
(0.894056 0.447733 0)
(0.894116 0.447786 0)
(0.894189 0.447808 0)
(0.894266 0.447799 0)
(0.894337 0.447765 0)
(0.894399 0.44771 0)
(0.894446 0.447641 0)
(0.894476 0.447567 0)
(0.894492 0.447493 0)
(0.894496 0.447424 0)
(0.89449 0.447364 0)
(0.894478 0.447314 0)
(0.894463 0.447275 0)
(0.894448 0.447245 0)
(0.894434 0.447225 0)
(0.894423 0.447212 0)
(0.894414 0.447204 0)
(0.894408 0.447199 0)
(0.894404 0.447197 0)
(0.894402 0.447197 0)
(0.8944 0.447197 0)
(0.8944 0.447198 0)
(0.894399 0.447198 0)
(0.894399 0.447199 0)
(0.8944 0.447199 0)
(0.8944 0.447199 0)
(0.8944 0.4472 0)
(0.8944 0.4472 0)
(0.8944 0.4472 0)
(0.8944 0.4472 0)
(0.8944 0.4472 0)
(0.8944 0.4472 0)
(0.8944 0.4472 0)
(0.8944 0.4472 0)
(0.8944 0.4472 0)
(0.8944 0.4472 0)
(0.8944 0.4472 0)
(0.8944 0.4472 0)
(0.8944 0.4472 0)
(0.8944 0.4472 0)
(0.8944 0.4472 0)
(0.8944 0.4472 0)
(0.8944 0.4472 0)
(0.8944 0.4472 0)
(0.8944 0.4472 0)
(0.8944 0.4472 0)
(0.8944 0.4472 0)
(0.8944 0.4472 0)
(0.8944 0.4472 0)
(0.8944 0.4472 0)
(0.8944 0.4472 0)
(0.8944 0.4472 0)
(0.8944 0.4472 0)
(0.8944 0.4472 0)
(0.8944 0.4472 0)
(0.8944 0.4472 0)
(0.8944 0.4472 0)
(0.8944 0.4472 0)
(0.8944 0.4472 0)
(0.8944 0.4472 0)
(0.8944 0.4472 0)
(0.8944 0.4472 0)
(0.8944 0.4472 0)
(0.8944 0.4472 0)
(0.8944 0.4472 0)
(0.8944 0.4472 0)
(0.8944 0.4472 0)
(0.8944 0.4472 0)
(0.8944 0.4472 0)
(0.8944 0.4472 0)
(0.8944 0.4472 0)
(0.8944 0.4472 0)
(0.8944 0.447201 0)
(0.894399 0.447201 0)
(0.894399 0.447201 0)
(0.894398 0.447202 0)
(0.894398 0.447203 0)
(0.894397 0.447205 0)
(0.894398 0.447208 0)
(0.894399 0.447209 0)
(0.894402 0.447211 0)
(0.894409 0.44721 0)
(0.894418 0.447206 0)
(0.894432 0.447198 0)
(0.894448 0.447183 0)
(0.894466 0.447161 0)
(0.894479 0.447132 0)
(0.894486 0.447099 0)
(0.894478 0.447065 0)
(0.894452 0.447038 0)
(0.894402 0.447025 0)
(0.894329 0.447034 0)
(0.894234 0.447074 0)
(0.894124 0.447146 0)
(0.894011 0.447252 0)
(0.893907 0.447388 0)
(0.893825 0.447543 0)
(0.893775 0.447706 0)
(0.893764 0.447862 0)
(0.893794 0.447995 0)
(0.893861 0.448095 0)
(0.893957 0.44815 0)
(0.894069 0.44816 0)
(0.894185 0.448127 0)
(0.894293 0.448056 0)
(0.894385 0.447959 0)
(0.894454 0.447847 0)
(0.8945 0.447729 0)
(0.894524 0.447616 0)
(0.89453 0.447513 0)
(0.894522 0.447425 0)
(0.894506 0.447354 0)
(0.894486 0.447298 0)
(0.894465 0.447258 0)
(0.894446 0.44723 0)
(0.894431 0.447212 0)
(0.894419 0.447202 0)
(0.89441 0.447197 0)
(0.894405 0.447194 0)
(0.894401 0.447194 0)
(0.8944 0.447195 0)
(0.894399 0.447196 0)
(0.894399 0.447197 0)
(0.894399 0.447198 0)
(0.894399 0.447199 0)
(0.894399 0.447199 0)
(0.8944 0.4472 0)
(0.8944 0.4472 0)
(0.8944 0.4472 0)
(0.8944 0.4472 0)
(0.8944 0.4472 0)
(0.8944 0.4472 0)
(0.8944 0.4472 0)
(0.8944 0.4472 0)
(0.8944 0.4472 0)
(0.8944 0.4472 0)
(0.8944 0.4472 0)
(0.8944 0.4472 0)
(0.8944 0.4472 0)
(0.8944 0.4472 0)
(0.8944 0.4472 0)
(0.8944 0.4472 0)
(0.8944 0.4472 0)
(0.8944 0.4472 0)
(0.8944 0.4472 0)
(0.8944 0.4472 0)
(0.8944 0.4472 0)
(0.8944 0.4472 0)
(0.8944 0.4472 0)
(0.8944 0.4472 0)
(0.8944 0.4472 0)
(0.8944 0.4472 0)
(0.8944 0.4472 0)
(0.8944 0.4472 0)
(0.8944 0.4472 0)
(0.8944 0.4472 0)
(0.8944 0.4472 0)
(0.8944 0.4472 0)
(0.8944 0.4472 0)
(0.8944 0.4472 0)
(0.8944 0.4472 0)
(0.8944 0.4472 0)
(0.8944 0.4472 0)
(0.8944 0.4472 0)
(0.8944 0.4472 0)
(0.8944 0.4472 0)
(0.8944 0.4472 0)
(0.8944 0.4472 0)
(0.8944 0.4472 0)
(0.8944 0.4472 0)
(0.8944 0.4472 0)
(0.894399 0.4472 0)
(0.894399 0.447201 0)
(0.894399 0.447201 0)
(0.894398 0.447202 0)
(0.894397 0.447203 0)
(0.894396 0.447205 0)
(0.894396 0.447208 0)
(0.894396 0.447212 0)
(0.894398 0.447214 0)
(0.894401 0.447217 0)
(0.89441 0.447217 0)
(0.894422 0.447214 0)
(0.894439 0.447205 0)
(0.894459 0.447189 0)
(0.89448 0.447164 0)
(0.894493 0.447132 0)
(0.894494 0.447098 0)
(0.894471 0.447067 0)
(0.894421 0.44705 0)
(0.894335 0.447057 0)
(0.894216 0.447098 0)
(0.894066 0.447182 0)
(0.893899 0.447313 0)
(0.893729 0.447488 0)
(0.893577 0.4477 0)
(0.89346 0.447934 0)
(0.893392 0.44817 0)
(0.893386 0.448387 0)
(0.893441 0.448564 0)
(0.893551 0.448685 0)
(0.893702 0.448737 0)
(0.893876 0.44872 0)
(0.894054 0.44864 0)
(0.894217 0.448508 0)
(0.894354 0.448341 0)
(0.894458 0.448157 0)
(0.894527 0.447971 0)
(0.894564 0.447797 0)
(0.894574 0.447642 0)
(0.894564 0.447512 0)
(0.894542 0.447409 0)
(0.894515 0.447331 0)
(0.894486 0.447275 0)
(0.894461 0.447237 0)
(0.89444 0.447213 0)
(0.894424 0.447199 0)
(0.894412 0.447192 0)
(0.894405 0.44719 0)
(0.894401 0.44719 0)
(0.894399 0.447192 0)
(0.894398 0.447194 0)
(0.894398 0.447195 0)
(0.894398 0.447197 0)
(0.894399 0.447198 0)
(0.894399 0.447199 0)
(0.894399 0.447199 0)
(0.8944 0.4472 0)
(0.8944 0.4472 0)
(0.8944 0.4472 0)
(0.8944 0.4472 0)
(0.8944 0.4472 0)
(0.8944 0.4472 0)
(0.8944 0.4472 0)
(0.8944 0.4472 0)
(0.8944 0.4472 0)
(0.8944 0.4472 0)
(0.8944 0.4472 0)
(0.8944 0.4472 0)
(0.8944 0.4472 0)
(0.8944 0.4472 0)
(0.8944 0.4472 0)
(0.8944 0.4472 0)
(0.8944 0.4472 0)
(0.8944 0.4472 0)
(0.8944 0.4472 0)
(0.8944 0.4472 0)
(0.8944 0.4472 0)
(0.8944 0.4472 0)
(0.8944 0.4472 0)
(0.8944 0.4472 0)
(0.8944 0.4472 0)
(0.8944 0.4472 0)
(0.8944 0.4472 0)
(0.8944 0.4472 0)
(0.8944 0.4472 0)
(0.8944 0.4472 0)
(0.8944 0.4472 0)
(0.8944 0.4472 0)
(0.8944 0.4472 0)
(0.8944 0.4472 0)
(0.8944 0.4472 0)
(0.8944 0.4472 0)
(0.8944 0.4472 0)
(0.8944 0.4472 0)
(0.8944 0.4472 0)
(0.8944 0.4472 0)
(0.8944 0.4472 0)
(0.8944 0.4472 0)
(0.8944 0.4472 0)
(0.8944 0.4472 0)
(0.894399 0.447201 0)
(0.894399 0.447201 0)
(0.894398 0.447202 0)
(0.894397 0.447203 0)
(0.894396 0.447205 0)
(0.894394 0.447208 0)
(0.894393 0.447212 0)
(0.894393 0.447217 0)
(0.894394 0.447222 0)
(0.8944 0.447226 0)
(0.894409 0.447229 0)
(0.894425 0.447226 0)
(0.894446 0.447218 0)
(0.894469 0.447201 0)
(0.894489 0.447176 0)
(0.894498 0.447145 0)
(0.894484 0.447115 0)
(0.894435 0.447098 0)
(0.894341 0.447104 0)
(0.894197 0.44715 0)
(0.894003 0.447249 0)
(0.893769 0.447408 0)
(0.893512 0.447633 0)
(0.893257 0.447916 0)
(0.893032 0.448243 0)
(0.892865 0.448592 0)
(0.892775 0.448935 0)
(0.892779 0.449239 0)
(0.892876 0.449477 0)
(0.893055 0.449622 0)
(0.893294 0.449663 0)
(0.893565 0.449598 0)
(0.893838 0.449439 0)
(0.894088 0.449206 0)
(0.894296 0.448927 0)
(0.894452 0.448629 0)
(0.894556 0.448336 0)
(0.894612 0.448067 0)
(0.894629 0.447833 0)
(0.894618 0.44764 0)
(0.894589 0.447489 0)
(0.894552 0.447377 0)
(0.894513 0.447297 0)
(0.894479 0.447245 0)
(0.894451 0.447212 0)
(0.894429 0.447194 0)
(0.894414 0.447186 0)
(0.894405 0.447184 0)
(0.8944 0.447185 0)
(0.894397 0.447188 0)
(0.894396 0.44719 0)
(0.894396 0.447193 0)
(0.894397 0.447195 0)
(0.894398 0.447197 0)
(0.894398 0.447198 0)
(0.894399 0.447199 0)
(0.894399 0.447199 0)
(0.8944 0.4472 0)
(0.8944 0.4472 0)
(0.8944 0.4472 0)
(0.8944 0.4472 0)