/*--------------------------------*- C++ -*----------------------------------*\
  =========                 |
  \\      /  F ield         | OpenFOAM: The Open Source CFD Toolbox
   \\    /   O peration     | Website:  https://openfoam.org
    \\  /    A nd           | Version:  6
     \\/     M anipulation  |
\*---------------------------------------------------------------------------*/
FoamFile
{
    version     2.0;
    format      ascii;
    class       volScalarField;
    location    "3.73";
    object      p;
}
// * * * * * * * * * * * * * * * * * * * * * * * * * * * * * * * * * * * * * //

dimensions      [1 -1 -2 0 0 0 0];

internalField   nonuniform List<scalar> 
5625
(
1.03566
1.03014
1.02333
1.01574
1.00786
1.00006
0.992686
0.985961
0.980065
0.97513
0.971166
0.968087
0.965739
0.963858
0.96207
0.959965
0.957203
0.95365
0.949328
0.944338
0.939007
0.933866
0.929375
0.925945
0.924004
0.923772
0.92516
0.927986
0.931988
0.936665
0.941433
0.945914
0.949936
0.953356
0.956116
0.958417
0.960689
0.963332
0.966532
0.970299
0.974666
0.979804
0.985975
0.99336
1.00188
1.01107
1.02015
1.02815
1.03416
1.03756
1.0382
1.03639
1.03275
1.02806
1.02303
1.01822
1.01395
1.01039
1.00755
1.00538
1.00377
1.00261
1.00179
1.00122
1.00084
1.00057
1.00039
1.00027
1.00019
1.00014
1.0001
1.00007
1.00005
1.00004
1.00003
1.03734
1.03259
1.02637
1.01921
1.0116
1.00393
0.99654
0.989678
0.983548
0.978297
0.973964
0.970525
0.967903
0.965917
0.964276
0.962666
0.960846
0.958681
0.956051
0.952933
0.949564
0.946262
0.943266
0.940895
0.939497
0.939176
0.939855
0.941478
0.943875
0.946665
0.949485
0.95218
0.954689
0.956916
0.958854
0.96073
0.962918
0.965689
0.969107
0.973129
0.977786
0.983252
0.989756
0.997403
1.00601
1.01502
1.02361
1.03083
1.03586
1.03823
1.03795
1.03542
1.03135
1.02648
1.02148
1.01682
1.01278
1.00945
1.00684
1.00486
1.0034
1.00235
1.00161
1.00111
1.00076
1.00052
1.00036
1.00025
1.00018
1.00013
1.00009
1.00007
1.00005
1.00003
1.00002
1.03876
1.03487
1.02934
1.0227
1.01543
1.00797
1.00064
0.993701
0.987391
0.981859
0.977177
0.973361
0.970389
0.968137
0.966391
0.96494
0.963616
0.962231
0.960587
0.958667
0.95663
0.95459
0.95265
0.951066
0.950073
0.94969
0.949887
0.95069
0.951984
0.953493
0.955036
0.956611
0.958208
0.959759
0.961302
0.963077
0.965389
0.9684
0.972086
0.976382
0.981332
0.987114
0.993914
1.00175
1.01034
1.01904
1.027
1.03331
1.03727
1.03857
1.03737
1.0342
1.02976
1.02479
1.01987
1.01541
1.01161
1.00854
1.00615
1.00435
1.00304
1.0021
1.00145
1.00099
1.00068
1.00047
1.00033
1.00024
1.00017
1.00012
1.00009
1.00006
1.00005
1.00003
1.00002
1.03981
1.03688
1.03214
1.02612
1.01931
1.01213
1.00493
0.997999
0.991572
0.98581
0.980807
0.97663
0.973287
0.970692
0.968696
0.967165
0.965958
0.964865
0.963715
0.962515
0.961303
0.960037
0.958782
0.957739
0.957019
0.956597
0.956512
0.956817
0.957411
0.95813
0.958939
0.95991
0.961044
0.962299
0.96376
0.965663
0.968233
0.971538
0.975504
0.980071
0.985306
0.991379
0.998425
1.00637
1.01481
1.02305
1.03021
1.03548
1.03829
1.03852
1.03646
1.03271
1.02799
1.02299
1.01822
1.01399
1.01046
1.00765
1.00548
1.00387
1.0027
1.00187
1.00129
1.00089
1.00061
1.00043
1.0003
1.00022
1.00016
1.00011
1.00008
1.00006
1.00004
1.00003
1.00002
1.04043
1.03854
1.03471
1.02942
1.02316
1.01635
1.00937
1.00253
0.996057
0.990127
0.984861
0.980364
0.976659
0.973676
0.971334
0.969566
0.968239
0.96715
0.966187
0.965335
0.964519
0.963651
0.962805
0.962105
0.961543
0.961111
0.960899
0.960942
0.961146
0.961451
0.961931
0.96267
0.963656
0.96488
0.966468
0.968639
0.971536
0.975148
0.979382
0.984202
0.989698
0.996025
1.00324
1.01117
1.01932
1.02692
1.03314
1.03725
1.03887
1.03805
1.03519
1.03096
1.02607
1.02113
1.01655
1.0126
1.00935
1.00679
1.00485
1.00341
1.00238
1.00165
1.00114
1.00079
1.00055
1.00039
1.00028
1.0002
1.00014
1.0001
1.00008
1.00006
1.00004
1.00003
1.00002
1.04054
1.03976
1.03693
1.03248
1.02688
1.02056
1.01391
1.00723
1.00079
0.994773
0.989325
0.98456
0.980504
0.977133
0.974435
0.972367
0.970776
0.969507
0.968512
0.967727
0.96701
0.966302
0.965679
0.96516
0.96468
0.964266
0.964026
0.963962
0.963997
0.964167
0.964595
0.965342
0.966386
0.967756
0.969603
0.97211
0.975347
0.979247
0.983719
0.988763
0.994487
1.00101
1.0083
1.01608
1.02375
1.03054
1.03566
1.03853
1.03895
1.03713
1.03358
1.029
1.02403
1.01922
1.01489
1.01123
1.00828
1.00598
1.00425
1.00299
1.00208
1.00144
1.001
1.0007
1.00049
1.00035
1.00025
1.00018
1.00013
1.0001
1.00007
1.00005
1.00004
1.00003
1.00002
1.04007
1.04044
1.03871
1.03521
1.03039
1.02467
1.01844
1.01204
1.00572
0.999701
0.99415
0.989177
0.984821
0.981118
0.978092
0.975674
0.973731
0.972197
0.97104
0.970139
0.969354
0.968676
0.968133
0.967661
0.967207
0.966841
0.966638
0.966564
0.966594
0.96682
0.967365
0.968258
0.969479
0.971096
0.973269
0.976129
0.979678
0.983823
0.988495
0.993728
0.999631
1.00627
1.01351
1.02096
1.02797
1.03376
1.03765
1.03923
1.03849
1.03576
1.03166
1.02684
1.02191
1.0173
1.01326
1.00992
1.00726
1.00522
1.0037
1.00259
1.00181
1.00126
1.00087
1.00061
1.00043
1.00031
1.00022
1.00016
1.00012
1.00009
1.00006
1.00005
1.00003
1.00002
1.00002
1.03898
1.04051
1.03994
1.0375
1.03357
1.02857
1.02289
1.01686
1.01077
1.00484
0.999274
0.994167
0.989595
0.98563
0.982293
0.979513
0.977225
0.975417
0.974022
0.972899
0.971969
0.971236
0.970659
0.97015
0.969711
0.969416
0.969278
0.969257
0.969386
0.969784
0.970532
0.97163
0.973089
0.975005
0.97752
0.980702
0.984507
0.988843
0.993672
0.999051
1.00507
1.01171
1.01875
1.02568
1.03182
1.03645
1.03902
1.0393
1.03746
1.03397
1.02945
1.02454
1.01974
1.0154
1.01169
1.00868
1.00631
1.00452
1.00319
1.00224
1.00156
1.00109
1.00076
1.00054
1.00038
1.00028
1.0002
1.00015
1.00011
1.00008
1.00006
1.00004
1.00003
1.00002
1.00002
1.03725
1.03988
1.04051
1.03921
1.0363
1.03214
1.02712
1.02159
1.01584
1.01012
1.00462
0.999465
0.994771
0.990617
0.987009
0.983918
0.981342
0.979267
0.977591
0.976207
0.975101
0.974257
0.973584
0.973019
0.972601
0.97237
0.972297
0.972367
0.972659
0.973278
0.974257
0.975586
0.977302
0.979523
0.982351
0.985798
0.989792
0.994259
0.999195
1.00467
1.01071
1.01722
1.02386
1.03006
1.03514
1.03846
1.03965
1.03869
1.03589
1.0318
1.02703
1.02215
1.01758
1.01355
1.0102
1.00751
1.00543
1.00387
1.00273
1.00191
1.00134
1.00094
1.00066
1.00047
1.00034
1.00024
1.00018
1.00013
1.0001
1.00007
1.00005
1.00004
1.00003
1.00002
1.00001
1.0349
1.03853
1.04033
1.04024
1.03844
1.03525
1.03102
1.02611
1.02082
1.01542
1.01009
1.00499
1.00027
0.996007
0.9922
0.988878
0.98607
0.983733
0.981777
0.980164
0.978895
0.977907
0.977112
0.976495
0.976098
0.975918
0.975911
0.976098
0.976577
0.977416
0.978613
0.980163
0.982133
0.984631
0.987718
0.991358
0.995469
1
1.00499
1.01047
1.01643
1.02264
1.02867
1.03391
1.03774
1.03966
1.0395
1.03741
1.03383
1.02932
1.02446
1.01974
1.01546
1.01179
1.0088
1.00644
1.00463
1.00329
1.00232
1.00163
1.00114
1.0008
1.00057
1.00041
1.00029
1.00022
1.00016
1.00012
1.00009
1.00007
1.00005
1.00004
1.00003
1.00002
1.00001
1.03202
1.03645
1.03936
1.04048
1.03987
1.03775
1.03444
1.03028
1.02558
1.0206
1.01556
1.01065
1.006
1.0017
0.997784
0.994324
0.991335
0.988774
0.986598
0.98481
0.983384
0.982241
0.981333
0.980684
0.980303
0.980153
0.980212
0.980534
0.981196
0.982222
0.983599
0.985349
0.98755
0.990278
0.993544
0.997292
1.00145
1.006
1.01096
1.01636
1.02206
1.02776
1.03295
1.03703
1.03947
1.03998
1.03855
1.0355
1.03133
1.0266
1.02181
1.01735
1.01343
1.01015
1.00751
1.00546
1.00391
1.00278
1.00195
1.00137
1.00096
1.00068
1.00049
1.00035
1.00026
1.00019
1.00014
1.00011
1.00008
1.00006
1.00004
1.00003
1.00002
1.00002
1.00001
1.02871
1.0337
1.03756
1.03985
1.04045
1.0395
1.03722
1.03394
1.02995
1.02553
1.02092
1.0163
1.01182
1.00757
1.00366
1.00016
0.997052
0.994332
0.992011
0.990093
0.988524
0.987248
0.986264
0.985592
0.985209
0.985076
0.985208
0.985662
0.986479
0.987651
0.989173
0.991088
0.993471
0.99636
0.999725
1.0035
1.00763
1.01213
1.01698
1.02215
1.02741
1.03236
1.03647
1.03922
1.04022
1.03936
1.03684
1.03304
1.02851
1.02375
1.01917
1.01504
1.01151
1.00862
1.00634
1.00459
1.00327
1.00232
1.00163
1.00115
1.00081
1.00058
1.00042
1.0003
1.00022
1.00017
1.00012
1.00009
1.00007
1.00005
1.00004
1.00003
1.00002
1.00002
1.00001
1.02516
1.03041
1.03497
1.0383
1.0401
1.04035
1.03921
1.03693
1.03379
1.03005
1.02598
1.02176
1.01756
1.01351
1.00972
1.00624
1.00309
1.0003
0.997906
0.995891
0.994213
0.992857
0.991838
0.991152
0.990757
0.99064
0.990842
0.991407
0.992336
0.99361
0.995241
0.997284
0.99979
1.00276
1.00613
1.00986
1.01389
1.01824
1.02287
1.02763
1.03221
1.03617
1.03901
1.04033
1.03991
1.03785
1.03444
1.03015
1.02549
1.02086
1.01659
1.01286
1.00975
1.00724
1.00529
1.00381
1.00271
1.00192
1.00135
1.00096
1.00068
1.00049
1.00035
1.00026
1.00019
1.00015
1.00011
1.00008
1.00006
1.00005
1.00003
1.00003
1.00002
1.00001
1.00001
1.02157
1.02677
1.03171
1.03584
1.03874
1.0402
1.04026
1.03908
1.0369
1.03398
1.03057
1.02689
1.0231
1.01935
1.01575
1.01238
1.0093
1.00654
1.00414
1.00207
1.00034
0.998956
0.997924
0.997218
0.996818
0.996736
0.997007
0.997645
0.998636
0.999973
1.00168
1.00381
1.00636
1.00932
1.01262
1.01621
1.02007
1.02416
1.02839
1.03252
1.03618
1.03894
1.04039
1.04027
1.03857
1.03552
1.0315
1.02698
1.02237
1.01803
1.01415
1.01085
1.00815
1.00601
1.00437
1.00313
1.00223
1.00158
1.00111
1.00079
1.00056
1.00041
1.0003
1.00022
1.00017
1.00013
1.0001
1.00007
1.00006
1.00004
1.00003
1.00002
1.00002
1.00001
1.00001
1.01811
1.02299
1.02799
1.03262
1.03639
1.03896
1.04021
1.0402
1.0391
1.03713
1.03452
1.03148
1.02822
1.02488
1.02159
1.01844
1.01552
1.01287
1.01052
1.00847
1.00675
1.00538
1.00435
1.00365
1.00326
1.00322
1.00354
1.00421
1.00523
1.0066
1.00834
1.01049
1.01302
1.01588
1.01902
1.0224
1.02596
1.02964
1.03326
1.03652
1.03905
1.04046
1.04048
1.03905
1.03629
1.03253
1.02819
1.02366
1.0193
1.01533
1.01189
1.00903
1.00673
1.00494
1.00357
1.00255
1.00181
1.00128
1.00091
1.00065
1.00047
1.00034
1.00025
1.00019
1.00014
1.00011
1.00008
1.00006
1.00005
1.00004
1.00003
1.00002
1.00001
1.00001
1.00001
1.01494
1.01931
1.02408
1.02885
1.03317
1.03663
1.03899
1.04016
1.0402
1.03927
1.03759
1.03534
1.03272
1.02992
1.02705
1.02423
1.02156
1.01909
1.01686
1.01491
1.01327
1.01195
1.01094
1.01026
1.0099
1.0099
1.01025
1.01093
1.01195
1.01332
1.01505
1.01714
1.01955
1.02223
1.02512
1.02817
1.0313
1.03437
1.03716
1.03933
1.04057
1.04059
1.0393
1.03677
1.03325
1.0291
1.02469
1.02036
1.01635
1.01283
1.00985
1.00742
1.00549
1.004
1.00288
1.00206
1.00146
1.00104
1.00074
1.00053
1.00039
1.00028
1.00021
1.00016
1.00012
1.00009
1.00007
1.00006
1.00004
1.00003
1.00002
1.00002
1.00001
1.00001
1.00001
1.01212
1.0159
1.02022
1.02481
1.02933
1.03337
1.03661
1.03885
1.04004
1.04022
1.03955
1.03821
1.03638
1.03422
1.03189
1.02952
1.02719
1.02498
1.02296
1.02118
1.01967
1.01843
1.01749
1.01685
1.01655
1.01657
1.01693
1.0176
1.0186
1.01992
1.02157
1.02353
1.02574
1.02813
1.03065
1.03323
1.03574
1.038
1.03975
1.04069
1.0406
1.03934
1.03696
1.03363
1.02968
1.02542
1.02117
1.01719
1.01363
1.01057
1.00804
1.00601
1.00442
1.00321
1.0023
1.00164
1.00117
1.00083
1.00059
1.00043
1.00032
1.00024
1.00018
1.00014
1.0001
1.00008
1.00006
1.00005
1.00004
1.00003
1.00002
1.00001
1.00001
1.00001
1.00001
1.00969
1.01287
1.01661
1.0208
1.02519
1.02945
1.03325
1.03634
1.03853
1.0398
1.04021
1.03986
1.03892
1.03754
1.03586
1.03403
1.03216
1.03032
1.02859
1.02704
1.0257
1.02461
1.02377
1.02321
1.02296
1.02301
1.02335
1.02399
1.02492
1.02615
1.02765
1.02938
1.03127
1.03327
1.03529
1.03723
1.03894
1.0402
1.04078
1.04047
1.03916
1.03685
1.03369
1.02992
1.02583
1.02171
1.0178
1.01425
1.01117
1.00858
1.00647
1.0048
1.00351
1.00254
1.00182
1.0013
1.00092
1.00066
1.00048
1.00035
1.00026
1.00019
1.00015
1.00011
1.00009
1.00007
1.00005
1.00004
1.00003
1.00002
1.00002
1.00001
1.00001
1.00001
1
1.00764
1.01025
1.01341
1.01705
1.02106
1.02521
1.02922
1.03281
1.03578
1.03799
1.03941
1.04007
1.04008
1.03957
1.03866
1.03749
1.03616
1.03479
1.03345
1.0322
1.0311
1.03019
1.02949
1.02904
1.02885
1.02891
1.02923
1.0298
1.03062
1.03168
1.03294
1.03434
1.03581
1.03728
1.03865
1.0398
1.04056
1.04073
1.04016
1.03873
1.03644
1.0334
1.02981
1.02591
1.02195
1.01815
1.01468
1.01161
1.00901
1.00686
1.00514
1.00379
1.00276
1.00199
1.00142
1.00101
1.00072
1.00052
1.00038
1.00028
1.00021
1.00016
1.00012
1.0001
1.00008
1.00006
1.00005
1.00003
1.00003
1.00002
1.00001
1.00001
1.00001
1.00001
1
1.00595
1.00805
1.01064
1.01371
1.0172
1.02099
1.02488
1.02864
1.03205
1.03493
1.03718
1.03876
1.0397
1.04008
1.04
1.03956
1.03888
1.03806
1.03718
1.03632
1.03552
1.03485
1.03433
1.034
1.03386
1.03393
1.0342
1.03468
1.03533
1.03615
1.03707
1.03804
1.03898
1.0398
1.04041
1.04067
1.04043
1.03957
1.03799
1.03569
1.03276
1.02934
1.02564
1.02188
1.01824
1.01488
1.01188
1.00931
1.00716
1.00541
1.00402
1.00295
1.00214
1.00154
1.0011
1.00079
1.00056
1.00041
1.0003
1.00022
1.00017
1.00013
1.0001
1.00008
1.00006
1.00005
1.00004
1.00003
1.00002
1.00002
1.00001
1.00001
1.00001
1
1
1.00458
1.00624
1.00832
1.01084
1.01377
1.01706
1.0206
1.02422
1.02773
1.03095
1.03375
1.03603
1.03776
1.03896
1.03969
1.04002
1.04003
1.03981
1.03946
1.03903
1.0386
1.03821
1.0379
1.0377
1.03763
1.03769
1.03789
1.03821
1.03865
1.03915
1.03966
1.04011
1.04044
1.04056
1.04036
1.03975
1.03861
1.03689
1.03458
1.03174
1.0285
1.02502
1.02148
1.01804
1.01484
1.01196
1.00945
1.00734
1.00559
1.0042
1.0031
1.00227
1.00164
1.00117
1.00084
1.0006
1.00043
1.00032
1.00024
1.00018
1.00014
1.00011
1.00008
1.00007
1.00005
1.00004
1.00003
1.00002
1.00002
1.00001
1.00001
1.00001
1.00001
1
1
1.00348
1.00478
1.00643
1.00844
1.01083
1.01359
1.01665
1.01991
1.02324
1.02649
1.02952
1.03221
1.03449
1.03634
1.03775
1.03876
1.03943
1.03982
1.04001
1.04004
1.03999
1.03991
1.03982
1.03977
1.03976
1.03981
1.03992
1.04007
1.04023
1.04036
1.04041
1.04033
1.04004
1.03947
1.03854
1.03719
1.03536
1.03307
1.03035
1.02731
1.02407
1.02078
1.01757
1.01456
1.01184
1.00944
1.0074
1.00569
1.00431
1.00321
1.00236
1.00171
1.00124
1.00089
1.00063
1.00046
1.00033
1.00025
1.00018
1.00014
1.00011
1.00009
1.00007
1.00006
1.00004
1.00003
1.00003
1.00002
1.00002
1.00001
1.00001
1.00001
1
1
1
1.00261
1.00362
1.0049
1.00648
1.00839
1.01064
1.01318
1.01598
1.01895
1.02198
1.02495
1.02775
1.0303
1.03254
1.03443
1.03596
1.03717
1.03809
1.03876
1.03923
1.03955
1.03976
1.0399
1.03998
1.04003
1.04005
1.04005
1.04001
1.03989
1.03966
1.03928
1.0387
1.03786
1.03673
1.03524
1.03338
1.03115
1.02858
1.02576
1.02279
1.01978
1.01683
1.01406
1.01152
1.00927
1.00732
1.00569
1.00434
1.00326
1.00242
1.00177
1.00128
1.00092
1.00066
1.00047
1.00034
1.00025
1.00019
1.00014
1.00011
1.00009
1.00007
1.00006
1.00005
1.00004
1.00003
1.00002
1.00002
1.00001
1.00001
1.00001
1.00001
1
1
1
1.00194
1.00271
1.0037
1.00492
1.00641
1.00819
1.01025
1.01257
1.01508
1.01774
1.02045
1.02313
1.02568
1.02804
1.03016
1.032
1.03357
1.03486
1.0359
1.03672
1.03734
1.0378
1.03812
1.03833
1.03843
1.03843
1.03832
1.03809
1.03773
1.03719
1.03646
1.0355
1.03427
1.03276
1.03094
1.02883
1.02647
1.02391
1.02122
1.01851
1.01586
1.01334
1.01102
1.00894
1.00713
1.00558
1.0043
1.00326
1.00243
1.00179
1.0013
1.00094
1.00067
1.00048
1.00035
1.00025
1.00019
1.00014
1.00011
1.00009
1.00007
1.00006
1.00005
1.00004
1.00003
1.00002
1.00002
1.00001
1.00001
1.00001
1.00001
1
1
1
1
1.00143
1.00201
1.00275
1.00369
1.00484
1.00623
1.00785
1.00971
1.01177
1.014
1.01634
1.01872
1.02108
1.02335
1.02547
1.0274
1.02912
1.03061
1.03187
1.0329
1.03373
1.03436
1.03481
1.0351
1.03523
1.0352
1.03501
1.03465
1.03411
1.03336
1.0324
1.03121
1.02977
1.02809
1.02617
1.02406
1.02178
1.01942
1.01702
1.01467
1.01243
1.01035
1.00847
1.00681
1.00538
1.00418
1.0032
1.0024
1.00178
1.0013
1.00094
1.00068
1.00048
1.00035
1.00025
1.00019
1.00014
1.00011
1.00009
1.00007
1.00006
1.00005
1.00004
1.00003
1.00002
1.00002
1.00002
1.00001
1.00001
1.00001
1
1
1
1
1
1.00104
1.00148
1.00204
1.00274
1.00362
1.00468
1.00593
1.00738
1.00902
1.01083
1.01276
1.01478
1.01683
1.01886
1.02082
1.02267
1.02435
1.02587
1.02719
1.02831
1.02922
1.02994
1.03046
1.03079
1.03093
1.03088
1.03064
1.03021
1.02957
1.02872
1.02767
1.0264
1.02493
1.02326
1.02143
1.01946
1.01742
1.01536
1.01332
1.01137
1.00954
1.00787
1.00638
1.00509
1.00399
1.00307
1.00233
1.00174
1.00128
1.00093
1.00067
1.00048
1.00034
1.00025
1.00018
1.00013
1.0001
1.00008
1.00006
1.00005
1.00004
1.00004
1.00003
1.00002
1.00002
1.00002
1.00001
1.00001
1.00001
1.00001
1
1
1
1
1
1.00076
1.00108
1.00149
1.00202
1.00268
1.00348
1.00443
1.00554
1.00682
1.00824
1.00978
1.01143
1.01313
1.01485
1.01655
1.01819
1.01973
1.02114
1.0224
1.02348
1.02439
1.02511
1.02564
1.02597
1.02611
1.02604
1.02579
1.02534
1.02469
1.02384
1.0228
1.02158
1.0202
1.01867
1.01704
1.01533
1.01359
1.01186
1.0102
1.00862
1.00717
1.00587
1.00472
1.00373
1.0029
1.00222
1.00167
1.00123
1.0009
1.00065
1.00046
1.00033
1.00024
1.00017
1.00013
1.0001
1.00007
1.00006
1.00005
1.00004
1.00003
1.00003
1.00002
1.00002
1.00002
1.00001
1.00001
1.00001
1.00001
1
1
1
1
1
1
1.00055
1.00078
1.00109
1.00147
1.00196
1.00256
1.00327
1.00411
1.00508
1.00618
1.00738
1.00868
1.01004
1.01144
1.01285
1.01423
1.01555
1.01678
1.01789
1.01887
1.0197
1.02036
1.02085
1.02115
1.02128
1.02122
1.02097
1.02054
1.01993
1.01915
1.01821
1.01712
1.0159
1.01458
1.0132
1.01178
1.01036
1.00897
1.00764
1.00641
1.00529
1.00429
1.00342
1.00268
1.00207
1.00156
1.00116
1.00085
1.00062
1.00044
1.00031
1.00022
1.00016
1.00011
1.00009
1.00007
1.00005
1.00004
1.00004
1.00003
1.00003
1.00002
1.00002
1.00002
1.00001
1.00001
1.00001
1.00001
1
1
1
1
1
1
1
1.0004
1.00057
1.00079
1.00107
1.00143
1.00187
1.0024
1.00302
1.00375
1.00457
1.00549
1.00649
1.00755
1.00865
1.00978
1.01089
1.01197
1.01299
1.01392
1.01476
1.01546
1.01604
1.01646
1.01672
1.01683
1.01677
1.01655
1.01617
1.01563
1.01495
1.01414
1.01322
1.0122
1.01111
1.00999
1.00885
1.00772
1.00664
1.00561
1.00467
1.00382
1.00307
1.00243
1.00188
1.00144
1.00108
1.00079
1.00057
1.00041
1.00029
1.0002
1.00014
1.0001
1.00008
1.00006
1.00005
1.00004
1.00003
1.00003
1.00002
1.00002
1.00002
1.00001
1.00001
1.00001
1.00001
1.00001
1
1
1
1
1
1
1
1
1.00029
1.00041
1.00057
1.00078
1.00104
1.00135
1.00174
1.0022
1.00274
1.00335
1.00403
1.00478
1.00559
1.00644
1.00731
1.00818
1.00903
1.00984
1.0106
1.01127
1.01185
1.01232
1.01266
1.01288
1.01296
1.01291
1.01272
1.0124
1.01195
1.01139
1.01072
1.00997
1.00915
1.00828
1.0074
1.00651
1.00564
1.00481
1.00404
1.00333
1.0027
1.00215
1.00168
1.00129
1.00097
1.00072
1.00052
1.00037
1.00026
1.00018
1.00013
1.00009
1.00006
1.00005
1.00004
1.00003
1.00003
1.00002
1.00002
1.00002
1.00002
1.00001
1.00001
1.00001
1.00001
1.00001
1
1
1
1
1
1
1
1
1
1.00021
1.0003
1.00041
1.00056
1.00075
1.00098
1.00126
1.00159
1.00198
1.00243
1.00294
1.00349
1.00409
1.00473
1.00538
1.00604
1.0067
1.00732
1.00791
1.00843
1.00889
1.00925
1.00953
1.00969
1.00976
1.00971
1.00955
1.00929
1.00892
1.00847
1.00795
1.00735
1.00671
1.00604
1.00536
1.00469
1.00403
1.00341
1.00284
1.00232
1.00186
1.00147
1.00113
1.00086
1.00064
1.00046
1.00033
1.00023
1.00015
1.0001
1.00007
1.00005
1.00003
1.00003
1.00002
1.00002
1.00002
1.00002
1.00001
1.00001
1.00001
1.00001
1.00001
1.00001
1.00001
1
1
1
1
1
1
1
1
1
1
1.00015
1.00022
1.0003
1.00041
1.00054
1.00071
1.00091
1.00115
1.00143
1.00175
1.00212
1.00252
1.00296
1.00343
1.00391
1.0044
1.00489
1.00536
1.0058
1.0062
1.00654
1.00682
1.00703
1.00715
1.00719
1.00715
1.00702
1.00681
1.00653
1.00617
1.00576
1.00531
1.00482
1.00432
1.0038
1.0033
1.00282
1.00236
1.00195
1.00158
1.00125
1.00097
1.00074
1.00055
1.00039
1.00028
1.00019
1.00013
1.00008
1.00005
1.00003
1.00002
1.00002
1.00001
1.00001
1.00001
1.00001
1.00001
1.00001
1.00001
1.00001
1.00001
1.00001
1.00001
1
1
1
1
1
1
1
1
1
1
1
1.00012
1.00016
1.00022
1.0003
1.0004
1.00051
1.00065
1.00083
1.00103
1.00126
1.00152
1.00181
1.00212
1.00246
1.00281
1.00317
1.00353
1.00387
1.00419
1.00448
1.00473
1.00494
1.00509
1.00518
1.0052
1.00516
1.00506
1.0049
1.00468
1.00441
1.0041
1.00376
1.00339
1.00302
1.00264
1.00227
1.00192
1.00159
1.0013
1.00104
1.00081
1.00062
1.00046
1.00033
1.00023
1.00015
1.0001
1.00006
1.00004
1.00002
1.00001
1.00001
1
1
1.00001
1.00001
1.00001
1.00001
1.00001
1.00001
1.00001
1.00001
1
1
1
1
1
1
1
1
1
1
1
1
1
1.00009
1.00012
1.00017
1.00022
1.00029
1.00037
1.00048
1.0006
1.00074
1.0009
1.00109
1.00129
1.00151
1.00175
1.002
1.00226
1.00251
1.00276
1.00299
1.0032
1.00338
1.00352
1.00362
1.00369
1.0037
1.00366
1.00358
1.00345
1.00329
1.00309
1.00286
1.0026
1.00233
1.00206
1.00179
1.00152
1.00127
1.00104
1.00084
1.00065
1.0005
1.00037
1.00026
1.00018
1.00012
1.00007
1.00004
1.00002
1.00001
0.999999
0.999996
0.999996
0.999997
0.999998
1
1
1
1
1
1
1
1
1
1
1
1
1
1
1
1
1
1
1
1
1
1.00007
1.00009
1.00013
1.00017
1.00022
1.00028
1.00035
1.00043
1.00053
1.00065
1.00078
1.00092
1.00107
1.00124
1.00141
1.00159
1.00177
1.00194
1.0021
1.00225
1.00237
1.00247
1.00254
1.00258
1.00258
1.00255
1.00249
1.00239
1.00226
1.00211
1.00194
1.00176
1.00157
1.00137
1.00117
1.00099
1.00081
1.00065
1.00051
1.00039
1.00029
1.0002
1.00014
1.00008
1.00005
1.00002
1
0.999992
0.999987
0.999986
0.999987
0.999989
0.999992
0.999995
0.999998
1
1
1
1
1
1
1
1
1
1
1
1
1
1
1
1
1
1
1
1
1.00005
1.00008
1.0001
1.00013
1.00016
1.00021
1.00026
1.00032
1.00039
1.00047
1.00055
1.00065
1.00076
1.00088
1.00099
1.00112
1.00124
1.00136
1.00147
1.00156
1.00165
1.00171
1.00176
1.00178
1.00177
1.00175
1.0017
1.00162
1.00153
1.00142
1.00129
1.00116
1.00102
1.00088
1.00075
1.00062
1.0005
1.00039
1.00029
1.00021
1.00015
1.00009
1.00005
1.00002
1
0.999987
0.99998
0.999978
0.999978
0.99998
0.999983
0.999987
0.99999
0.999993
0.999996
0.999998
1
1
1
1
1
1
1
1
1
1
1
1
1
1
1
1
1
1
1
1.00005
1.00006
1.00008
1.0001
1.00013
1.00016
1.00019
1.00023
1.00028
1.00034
1.0004
1.00047
1.00054
1.00062
1.0007
1.00078
1.00086
1.00094
1.00101
1.00108
1.00113
1.00117
1.0012
1.00121
1.0012
1.00117
1.00113
1.00108
1.00101
1.00093
1.00084
1.00074
1.00064
1.00055
1.00045
1.00036
1.00028
1.00021
1.00015
1.0001
1.00006
1.00003
1
0.999987
0.999976
0.999971
0.999969
0.99997
0.999973
0.999977
0.999982
0.999986
0.999989
0.999992
0.999995
0.999998
0.999999
1
1
1
1
1
1
1
1
1
1
1
1
1
1
1
1
1
1
1.00004
1.00005
1.00006
1.00008
1.0001
1.00012
1.00015
1.00018
1.00021
1.00025
1.00029
1.00034
1.00039
1.00044
1.00049
1.00055
1.0006
1.00065
1.00069
1.00074
1.00077
1.00079
1.00081
1.00081
1.0008
1.00077
1.00074
1.0007
1.00065
1.00059
1.00052
1.00046
1.00039
1.00032
1.00026
1.0002
1.00014
1.0001
1.00006
1.00003
1
0.999984
0.999972
0.999965
0.999963
0.999963
0.999965
0.999969
0.999973
0.999977
0.999982
0.999986
0.99999
0.999993
0.999995
0.999997
0.999998
0.999999
1
1
1
1
1
1
1
1
1
1
1
1
1
1
1
1
1
1.00003
1.00004
1.00005
1.00006
1.00008
1.00009
1.00011
1.00013
1.00016
1.00019
1.00021
1.00024
1.00028
1.00032
1.00035
1.00038
1.00042
1.00045
1.00048
1.0005
1.00052
1.00053
1.00054
1.00053
1.00052
1.0005
1.00047
1.00044
1.0004
1.00036
1.00031
1.00027
1.00022
1.00017
1.00013
1.00009
1.00006
1.00003
1
0.999987
0.999974
0.999965
0.99996
0.999958
0.999958
0.99996
0.999964
0.999969
0.999974
0.999979
0.999983
0.999986
0.99999
0.999993
0.999996
0.999998
0.999999
1
1
1
1
1
1
1
1
1
1
1
1
1
1
1
1
1
1
1.00002
1.00003
1.00004
1.00005
1.00006
1.00007
1.00009
1.0001
1.00012
1.00014
1.00016
1.00018
1.0002
1.00023
1.00025
1.00027
1.00029
1.00031
1.00033
1.00034
1.00035
1.00035
1.00035
1.00035
1.00033
1.00032
1.0003
1.00027
1.00024
1.00021
1.00018
1.00014
1.00011
1.00008
1.00005
1.00003
1.00001
0.999989
0.999975
0.999964
0.999957
0.999954
0.999954
0.999955
0.999958
0.999963
0.999967
0.999972
0.999977
0.999981
0.999985
0.999989
0.999992
0.999994
0.999995
0.999997
0.999998
0.999999
1
1
1
1
1
1
1
1
1
1
1
1
1
1
1
1
1
1.00002
1.00002
1.00003
1.00004
1.00005
1.00006
1.00007
1.00008
1.00009
1.00011
1.00012
1.00014
1.00015
1.00017
1.00018
1.00019
1.00021
1.00022
1.00022
1.00023
1.00024
1.00024
1.00023
1.00022
1.00021
1.0002
1.00018
1.00016
1.00014
1.00012
1.00009
1.00007
1.00005
1.00003
1.00001
0.999991
0.999978
0.999968
0.999961
0.999955
0.999953
0.999953
0.999955
0.999958
0.999961
0.999965
0.99997
0.999975
0.999979
0.999983
0.999987
0.99999
0.999993
0.999995
0.999997
0.999998
0.999999
0.999999
1
1
1
1
1
1
1
1
1
1
1
1
1
1
1
1
1
1.00001
1.00002
1.00003
1.00003
1.00004
1.00005
1.00006
1.00006
1.00007
1.00008
1.00009
1.0001
1.00011
1.00012
1.00013
1.00014
1.00015
1.00015
1.00016
1.00016
1.00016
1.00015
1.00015
1.00014
1.00013
1.00012
1.00011
1.00009
1.00007
1.00006
1.00004
1.00002
1.00001
0.999995
0.999983
0.999972
0.999964
0.999958
0.999955
0.999954
0.999954
0.999956
0.999958
0.999961
0.999966
0.99997
0.999974
0.999979
0.999982
0.999986
0.999989
0.999991
0.999993
0.999995
0.999997
0.999998
0.999999
0.999999
0.999999
1
1
1
1
1
1
1
1
1
1
1
1
1
1
1
1
1.00001
1.00001
1.00002
1.00003
1.00003
1.00003
1.00004
1.00005
1.00006
1.00006
1.00007
1.00008
1.00009
1.00009
1.0001
1.0001
1.00011
1.00011
1.00011
1.00011
1.00011
1.0001
1.0001
1.00009
1.00008
1.00007
1.00006
1.00005
1.00004
1.00002
1.00001
0.999999
0.999987
0.999978
0.999971
0.999965
0.999961
0.999958
0.999956
0.999956
0.999957
0.99996
0.999963
0.999967
0.999971
0.999975
0.999979
0.999982
0.999985
0.999988
0.999991
0.999993
0.999995
0.999996
0.999997
0.999998
0.999999
0.999999
1
1
1
1
1
1
1
1
1
1
1
1
1
1
1
1
1
1.00001
1.00001
1.00001
1.00002
1.00003
1.00003
1.00003
1.00004
1.00004
1.00005
1.00006
1.00006
1.00007
1.00007
1.00007
1.00008
1.00008
1.00008
1.00008
1.00008
1.00007
1.00007
1.00007
1.00006
1.00005
1.00004
1.00003
1.00002
1.00001
1
0.999994
0.999986
0.999979
0.999972
0.999967
0.999963
0.999961
0.99996
0.99996
0.999962
0.999963
0.999966
0.999969
0.999972
0.999975
0.999979
0.999982
0.999985
0.999988
0.999991
0.999993
0.999994
0.999996
0.999997
0.999998
0.999998
0.999999
0.999999
1
1
1
1
1
1
1
1
1
1
1
1
1
1
1
1
1
1.00001
1.00001
1.00001
1.00002
1.00002
1.00002
1.00003
1.00003
1.00003
1.00004
1.00004
1.00005
1.00005
1.00005
1.00006
1.00006
1.00006
1.00006
1.00006
1.00005
1.00005
1.00005
1.00004
1.00004
1.00003
1.00002
1.00002
1.00001
1
0.999994
0.999987
0.99998
0.999976
0.999972
0.999969
0.999966
0.999965
0.999964
0.999965
0.999966
0.999969
0.999971
0.999974
0.999977
0.99998
0.999983
0.999986
0.999988
0.99999
0.999992
0.999994
0.999996
0.999997
0.999998
0.999999
0.999999
0.999999
0.999999
1
1
1
1
1
1
1
1
1
1
1
1
1
1
1
1
1
1.00001
1.00001
1.00001
1.00001
1.00002
1.00002
1.00002
1.00002
1.00003
1.00003
1.00003
1.00004
1.00004
1.00004
1.00004
1.00004
1.00004
1.00004
1.00004
1.00004
1.00004
1.00003
1.00003
1.00002
1.00002
1.00001
1.00001
1
0.999994
0.999988
0.999984
0.999981
0.999977
0.999973
0.999971
0.99997
0.99997
0.999971
0.999972
0.999973
0.999974
0.999976
0.999978
0.999981
0.999984
0.999986
0.999989
0.999991
0.999993
0.999994
0.999995
0.999996
0.999997
0.999998
0.999998
0.999999
0.999999
1
1
1
1
1
1
1
1
1
1
1
1
1
1
1
1
1
1
1
1.00001
1.00001
1.00001
1.00001
1.00001
1.00002
1.00002
1.00002
1.00002
1.00003
1.00003
1.00003
1.00003
1.00003
1.00003
1.00003
1.00003
1.00003
1.00003
1.00002
1.00002
1.00002
1.00002
1.00001
1.00001
1
0.999997
0.999993
0.999988
0.999984
0.999981
0.999978
0.999976
0.999975
0.999975
0.999974
0.999975
0.999976
0.999978
0.99998
0.999982
0.999984
0.999986
0.999987
0.999989
0.999991
0.999992
0.999994
0.999996
0.999997
0.999997
0.999998
0.999999
0.999999
0.999999
0.999999
1
1
1
1
1
1
1
1
1
1
1
1
1
1
1
1
1
1
1
1
1.00001
1.00001
1.00001
1.00001
1.00001
1.00002
1.00002
1.00002
1.00002
1.00002
1.00002
1.00002
1.00002
1.00002
1.00002
1.00002
1.00002
1.00002
1.00002
1.00002
1.00001
1.00001
1.00001
1
0.999999
0.999994
0.999991
0.999989
0.999986
0.999984
0.999982
0.999981
0.999981
0.99998
0.99998
0.999981
0.999981
0.999982
0.999983
0.999984
0.999986
0.999988
0.999991
0.999992
0.999994
0.999994
0.999995
0.999996
0.999997
0.999998
0.999998
0.999999
0.999999
0.999999
0.999999
1
1
1
1
1
1
1
1
1
1
1
1
1
1
1
1
1
1
1
1
1
1.00001
1.00001
1.00001
1.00001
1.00001
1.00001
1.00001
1.00001
1.00002
1.00002
1.00002
1.00002
1.00002
1.00002
1.00002
1.00002
1.00001
1.00001
1.00001
1.00001
1.00001
1
1
0.999999
0.999996
0.999993
0.99999
0.999988
0.999986
0.999984
0.999984
0.999983
0.999983
0.999984
0.999984
0.999986
0.999987
0.999988
0.999989
0.99999
0.999991
0.999992
0.999993
0.999994
0.999995
0.999996
0.999997
0.999998
0.999998
0.999999
0.999999
1
1
1
1
1
1
1
1
1
1
1
1
1
1
1
1
1
1
1
1
1
1
1
1
1
1.00001
1.00001
1.00001
1.00001
1.00001
1.00001
1.00001
1.00001
1.00001
1.00001
1.00001
1.00001
1.00001
1.00001
1.00001
1.00001
1.00001
1.00001
1.00001
1.00001
1
0.999999
0.999997
0.999996
0.999994
0.999992
0.999991
0.99999
0.999989
0.999988
0.999987
0.999987
0.999988
0.999988
0.999988
0.999989
0.99999
0.999991
0.999993
0.999994
0.999995
0.999995
0.999996
0.999997
0.999997
0.999998
0.999998
0.999999
0.999999
0.999999
0.999999
1
1
1
1
1
1
1
1
1
1
1
1
1
1
1
1
1
1
1
1
1
1
1
1
1
1
1.00001
1.00001
1.00001
1.00001
1.00001
1.00001
1.00001
1.00001
1.00001
1.00001
1.00001
1.00001
1.00001
1.00001
1.00001
1.00001
1
1
1
1
0.999998
0.999996
0.999995
0.999994
0.999992
0.999991
0.99999
0.999991
0.99999
0.99999
0.99999
0.999991
0.999992
0.999993
0.999993
0.999994
0.999994
0.999995
0.999995
0.999996
0.999997
0.999998
0.999998
0.999998
0.999999
0.999999
1
1
1
1
1
1
1
1
1
1
1
1
1
1
1
1
1
1
1
1
1
1
1
1
1
1
1
1
1
1
1
1.00001
1.00001
1.00001
1.00001
1.00001
1.00001
1.00001
1.00001
1.00001
1.00001
1.00001
1.00001
1.00001
1.00001
1
1
1
1
0.999999
0.999997
0.999996
0.999995
0.999995
0.999994
0.999993
0.999993
0.999993
0.999993
0.999993
0.999993
0.999993
0.999994
0.999994
0.999995
0.999996
0.999996
0.999997
0.999997
0.999998
0.999998
0.999998
0.999999
0.999999
0.999999
0.999999
1
1
1
1
1
1
1
1
1
1
1
1
1
1
1
1
1
1
1
1
1
1
1
1
1
1
1
1
1
1
1
1
1
1
1
1.00001
1.00001
1.00001
1.00001
1.00001
1.00001
1
1
1
1
1
1
1
0.999999
0.999998
0.999997
0.999996
0.999995
0.999995
0.999995
0.999995
0.999995
0.999995
0.999995
0.999995
0.999996
0.999996
0.999996
0.999996
0.999997
0.999997
0.999998
0.999998
0.999999
0.999999
0.999999
0.999999
0.999999
1
1
1
1
1
1
1
1
1
1
1
1
1
1
1
1
1
1
1
1
1
1
1
1
1
1
1
1
1
1
1
1
1
1
1
1
1
1
1
1
1
1
1
1
1
1
1
1
1
0.999999
0.999999
0.999999
0.999998
0.999998
0.999997
0.999997
0.999996
0.999996
0.999996
0.999996
0.999996
0.999996