/*--------------------------------*- C++ -*----------------------------------*\
  =========                 |
  \\      /  F ield         | OpenFOAM: The Open Source CFD Toolbox
   \\    /   O peration     | Website:  https://openfoam.org
    \\  /    A nd           | Version:  6
     \\/     M anipulation  |
\*---------------------------------------------------------------------------*/
FoamFile
{
    version     2.0;
    format      ascii;
    class       volScalarField;
    location    "1.72";
    object      epsilon;
}
// * * * * * * * * * * * * * * * * * * * * * * * * * * * * * * * * * * * * * //

dimensions      [0 2 -3 0 0 0 0];

internalField   nonuniform List<scalar> 
4214
(
0.0207755
0.011698
0.00807345
0.0065463
0.00591686
0.0057085
0.0057222
0.00587582
0.00613646
0.00649401
0.00694959
0.00751241
0.00820179
0.00905376
0.0101332
0.0115548
0.0135247
0.0164106
0.0207974
0.0271877
0.0358017
0.0360856
0.0287234
0.0217335
0.0166381
0.013027
0.0105321
0.00879046
0.00757456
0.00673179
0.00615847
0.00577703
0.00553186
0.00538537
0.00532157
0.00535828
0.00558179
0.00621311
0.00773264
0.0112548
0.0199217
0.0087867
0.00696668
0.00611954
0.00575087
0.00564231
0.00569348
0.00586008
0.00612573
0.00648506
0.00693994
0.00749743
0.00817123
0.00898649
0.00998803
0.0112543
0.0129216
0.0152345
0.0186212
0.0237375
0.0311068
0.0412035
0.0423751
0.0342939
0.0261554
0.0200766
0.0156392
0.0125074
0.0102761
0.00867926
0.00753863
0.00673467
0.00617876
0.00580326
0.0055574
0.00540651
0.00533202
0.00534075
0.00548752
0.00588964
0.00673988
0.00843398
0.0065401
0.0059328
0.00567157
0.00560894
0.00567942
0.00585561
0.00612788
0.00649402
0.00695555
0.00751704
0.0081877
0.00898491
0.00994019
0.0111082
0.0125825
0.0145229
0.0172122
0.0211337
0.0270085
0.0353798
0.0470882
0.0495639
0.0409842
0.0316379
0.0244577
0.0190485
0.0151394
0.0122975
0.0102208
0.00869673
0.00758655
0.00678995
0.00622969
0.00584524
0.00558978
0.00542968
0.00534629
0.00534337
0.00545746
0.00574924
0.00630448
0.00577961
0.00560592
0.00558279
0.00567108
0.0058582
0.00614107
0.00652059
0.00699746
0.00757393
0.00825485
0.00905138
0.00998545
0.0110965
0.0124508
0.0141585
0.0164027
0.0194995
0.0239775
0.0306187
0.0400003
0.0534187
0.0576252
0.0489226
0.0383809
0.0299909
0.0234614
0.0186137
0.0150175
0.0123405
0.0103312
0.00882526
0.00770771
0.00689154
0.00630809
0.00590183
0.00562862
0.00545587
0.00536378
0.00535044
0.00542864
0.00560456
0.00553478
0.00555433
0.00566332
0.00586351
0.00616185
0.0065617
0.00706483
0.00766996
0.0083778
0.00919286
0.0101291
0.0112145
0.0124983
0.0140606
0.0160287
0.018607
0.0221375
0.027184
0.0345873
0.0449975
0.0602058
0.0665551
0.0582498
0.0466396
0.0369229
0.0291074
0.023138
0.0186188
0.0151985
0.0125863
0.010583
0.0090523
0.0078951
0.00703523
0.00641109
0.00597092
0.0056726
0.00548368
0.00538164
0.00535487
0.00538053
0.00551826
0.00565301
0.00587017
0.0061864
0.00661438
0.0071546
0.00780541
0.00856034
0.00941811
0.0103832
0.0114742
0.012727
0.0142032
0.0159984
0.0182574
0.0212021
0.025191
0.0308135
0.0389703
0.0504404
0.0674942
0.076304
0.0690262
0.0566467
0.0455183
0.0362235
0.028927
0.0232919
0.0189642
0.0156155
0.0130056
0.0109652
0.0093758
0.00815134
0.00722585
0.00654378
0.00605726
0.0057259
0.00551623
0.00540366
0.00535204
0.00563123
0.00587191
0.00621241
0.0066719
0.00726246
0.00797516
0.00880319
0.00973236
0.0107607
0.0118931
0.0131556
0.0145944
0.0162858
0.0183428
0.0209259
0.0242709
0.0287428
0.0349484
0.0438471
0.0564352
0.0753658
0.0868322
0.0812327
0.0685787
0.056043
0.0450503
0.0361848
0.0292151
0.0237973
0.0195677
0.0162395
0.0135971
0.0114903
0.00981338
0.00849511
0.00747914
0.00671808
0.00616902
0.0057932
0.00555945
0.00542994
0.00585942
0.00623
0.00673231
0.00737749
0.00817483
0.00909868
0.0101384
0.0112688
0.0124908
0.0138101
0.0152644
0.0169118
0.0188458
0.0211976
0.0241407
0.0279228
0.0329058
0.0397068
0.049335
0.0631173
0.0839756
0.0981364
0.0948324
0.0825199
0.0687327
0.0558246
0.0451024
0.0365466
0.0298389
0.0245787
0.020426
0.0171054
0.014416
0.0122156
0.0104195
0.00897013
0.00782719
0.00695498
0.00631847
0.00588514
0.00562555
0.00623335
0.0067782
0.00749996
0.00838578
0.00944478
0.0106237
0.0119152
0.0132769
0.0147208
0.0162505
0.0179224
0.0198071
0.0220162
0.0247005
0.0280415
0.0323016
0.0378297
0.04525
0.0555963
0.0706523
0.0934004
0.110446
0.109883
0.0984801
0.0837568
0.06876
0.0558584
0.0454235
0.0372095
0.0307722
0.0257087
0.0216661
0.0183671
0.0156084
0.013274
0.0112971
0.00965066
0.00831676
0.00728107
0.00652212
0.00602657
0.00681407
0.00759566
0.00861594
0.00980816
0.0111957
0.0126777
0.0142695
0.0158963
0.0175991
0.0193692
0.0212938
0.023452
0.025975
0.029035
0.0328119
0.0375975
0.0437103
0.0517918
0.0628477
0.0792383
0.103809
0.124046
0.126599
0.116473
0.101215
0.0840245
0.0686116
0.0559633
0.0460105
0.0382664
0.0322485
0.0275025
0.0236358
0.0203463
0.0174598
0.0148799
0.012598
0.0106265
0.00899567
0.00771796
0.00681001
0.00769076
0.00879218
0.0102179
0.01179
0.0135884
0.0154228
0.0173774
0.0193077
0.0213227
0.0233723
0.0255989
0.0280766
0.0309576
0.0344447
0.0386934
0.0440619
0.0507969
0.0596072
0.0713667
0.0891145
0.115445
0.139319
0.145281
0.136647
0.121174
0.101706
0.0834793
0.0682615
0.056331
0.0471877
0.0402484
0.0349277
0.0306558
0.0269696
0.0235958
0.0203644
0.017304
0.0144602
0.0119585
0.00987085
0.00827499
0.0089857
0.0105127
0.0124893
0.0145143
0.0168295
0.0190619
0.0214677
0.0237435
0.0261522
0.0285306
0.0311295
0.0339855
0.0372733
0.0412546
0.0460036
0.0520307
0.059408
0.0690467
0.0814909
0.100575
0.128617
0.156674
0.166384
0.159209
0.143744
0.121822
0.100533
0.0823831
0.0682644
0.0577023
0.0499983
0.0444179
0.0400997
0.0363332
0.0326643
0.0287593
0.0247486
0.0206806
0.0169038
0.0135607
0.0108652
0.0108645
0.0129389
0.015668
0.0182029
0.021182
0.0238434
0.0268356
0.0294961
0.0324278
0.0351927
0.0382657
0.0415759
0.0453233
0.0498977
0.0551591
0.0619547
0.0699548
0.0805526
0.0936329
0.114016
0.14371
0.176712
0.190481
0.184413
0.16912
0.144259
0.119794
0.0983733
0.0819356
0.0700814
0.0619455
0.056726
0.0530147
0.0497955
0.0462221
0.0416348
0.0364526
0.030527
0.0248635
0.0195313
0.0151415
0.0135525
0.0162814
0.020054
0.0231101
0.0269762
0.0300601
0.0338555
0.0369209
0.0405828
0.0437932
0.0474921
0.0513604
0.0556255
0.0609527
0.0667054
0.0744368
0.0829614
0.094634
0.108232
0.12993
0.161214
0.200327
0.21827
0.212544
0.197593
0.168776
0.141332
0.116237
0.0975806
0.0847771
0.076758
0.0730389
0.0709079
0.0694145
0.0665621
0.0613246
0.0547331
0.0456542
0.0372556
0.0285839
0.0217113
0.0173616
0.0207576
0.0260133
0.0295091
0.0346161
0.0380386
0.04299
0.0464277
0.0511489
0.0548527
0.0594118
0.0639902
0.0688432
0.0751905
0.081364
0.0903071
0.099163
0.112023
0.125833
0.148778
0.181385
0.22877
0.25068
0.243822
0.229615
0.194989
0.165546
0.136045
0.115791
0.10253
0.0953273
0.0951245
0.0955682
0.0980329
0.0963839
0.0908843
0.0826817
0.0678638
0.056037
0.041244
0.0311833
0.0227293
0.0265472
0.033992
0.0376662
0.0445792
0.0481095
0.0547789
0.0584454
0.0647482
0.0689492
0.0747398
0.0802489
0.085792
0.0935957
0.100021
0.110627
0.119447
0.133736
0.147309
0.171549
0.204343
0.263757
0.288288
0.277917
0.265368
0.221554
0.192952
0.157601
0.137666
0.124578
0.119212
0.12529
0.128783
0.138536
0.13784
0.132994
0.123102
0.0983419
0.0838209
0.0570859
0.0443794
0.0303434
0.0336856
0.0445933
0.0477557
0.0574221
0.0605102
0.0698038
0.0733021
0.0820642
0.086612
0.0942653
0.100972
0.107354
0.117334
0.123503
0.136711
0.144235
0.160669
0.172125
0.199474
0.229734
0.309404
0.329957
0.313102
0.30312
0.243807
0.222222
0.175961
0.163331
0.149764
0.152927
0.163877
0.173717
0.190222
0.191216
0.187207
0.175879
0.136714
0.123461
0.0744039
0.0627756
0.0326026
0.028248
0.0224507
0.016977
0.0126591
0.00962653
0.00767919
0.00651871
0.00587049
0.00553215
0.00537422
0.00533761
0.00545525
0.00593626
0.00738257
0.0120922
0.0439964
0.0262445
0.0212767
0.0170727
0.0135
0.0106511
0.00856547
0.00716198
0.00628469
0.00577289
0.00549582
0.00536549
0.00534659
0.0054851
0.00599589
0.00747277
0.0121734
0.0415451
0.0150506
0.0140446
0.0124332
0.010611
0.00894435
0.00762156
0.00667395
0.00604939
0.00566785
0.00545281
0.00535153
0.00535103
0.00551054
0.00605257
0.00757987
0.0123609
0.0396839
0.0126503
0.0111168
0.00985737
0.00871216
0.00770015
0.00687871
0.00626531
0.00584111
0.0055684
0.00540844
0.00533555
0.00535481
0.00553728
0.00611554
0.00770337
0.0125988
0.0386958
0.00888194
0.00843715
0.00793104
0.00736769
0.00681362
0.00633212
0.00595191
0.0056734
0.00548363
0.00536807
0.0053198
0.00535827
0.00556645
0.00618746
0.0078453
0.0128803
0.0385413
0.00818083
0.00753248
0.00704586
0.00663866
0.00628191
0.00597914
0.00573616
0.00555092
0.00541829
0.00533491
0.00530663
0.0053645
0.00560175
0.00627015
0.00800022
0.0131914
0.0392158
0.00695728
0.00667745
0.00642353
0.00618273
0.00595856
0.00576127
0.0055981
0.00546936
0.00537326
0.00531239
0.00530088
0.00537817
0.00564584
0.0063601
0.00815256
0.0135088
0.0407539
0.00678579
0.0064727
0.00621688
0.00600153
0.00581611
0.00565898
0.00553032
0.00542865
0.00535249
0.00530651
0.0053088
0.00540424
0.0056988
0.00644635
0.00827787
0.0138063
0.0432102
0.00641976
0.00623597
0.0060633
0.00590282
0.00575546
0.00562496
0.00551459
0.00542582
0.00536005
0.00532409
0.0053376
0.00544715
0.00575773
0.00651522
0.00835461
0.0140705
0.0466357
0.00639339
0.00622085
0.00606126
0.00591425
0.00577915
0.00565797
0.00555367
0.0054687
0.00540665
0.00537623
0.00539701
0.00551291
0.00582382
0.00656569
0.00838477
0.0143161
0.0510444
0.00632176
0.00620358
0.00608337
0.0059642
0.00584837
0.00573947
0.00564184
0.00556012
0.0055003
0.00547269
0.0054962
0.00561057
0.00590933
0.00661904
0.00840249
0.0145964
0.0564744
0.0063378
0.00623962
0.00614002
0.0060403
0.00594148
0.00584635
0.00575919
0.00568547
0.00563188
0.00560902
0.0056349
0.0057464
0.00603127
0.00670745
0.00845804
0.0149751
0.0629585
0.00635859
0.00628764
0.00621211
0.00613301
0.00605182
0.00597172
0.00589754
0.00583517
0.00579156
0.00577708
0.00580887
0.00592227
0.00620064
0.00685555
0.00859725
0.0155352
0.0704947
0.0063865
0.0063364
0.00628219
0.00622428
0.00616379
0.00610373
0.00604869
0.00600382
0.00597563
0.00597424
0.00601676
0.00613849
0.0064212
0.00707645
0.0088572
0.0163693
0.0790553
0.00643065
0.00639626
0.00636008
0.00632182
0.0062825
0.00624455
0.00621128
0.00618683
0.00617741
0.00619298
0.00625153
0.00638939
0.00669023
0.00737587
0.00926913
0.0175793
0.0886751
0.00645871
0.00644296
0.00642704
0.00641111
0.00639582
0.0063826
0.00637368
0.00637284
0.00638628
0.00642439
0.00650593
0.00666977
0.00700615
0.00776096
0.00986352
0.0192646
0.0992466
0.00650305
0.00649739
0.00649674
0.00649982
0.00650605
0.0065158
0.00653087
0.00655525
0.00659568
0.00666275
0.00677622
0.00697854
0.00737396
0.008247
0.010682
0.0215176
0.110576
0.00652997
0.00654082
0.00655815
0.00658055
0.00660709
0.00663853
0.00667771
0.00672969
0.0068018
0.00690533
0.00706164
0.0073204
0.0078086
0.00886649
0.0118037
0.024345
0.122309
0.00657234
0.00659204
0.00662239
0.00665922
0.00670195
0.00675267
0.00681563
0.00689696
0.0070049
0.00715234
0.0073652
0.00770727
0.00833791
0.00967487
0.0132873
0.0276829
0.134134
0.00660399
0.00663978
0.00668409
0.00673439
0.00679234
0.00686217
0.00694969
0.0070625
0.00721101
0.00741227
0.00770193
0.00816706
0.00901311
0.0107626
0.0152622
0.0319897
0.145663
0.00665188
0.00669649
0.00675079
0.00681256
0.00688592
0.00697667
0.00709207
0.00724206
0.00744141
0.00771575
0.00811849
0.00877021
0.00993811
0.0122898
0.0180662
0.0387633
0.157092
0.00669533
0.00675573
0.00682235
0.00689897
0.0069924
0.00711042
0.00726297
0.00746453
0.0077379
0.00812357
0.00870188
0.00963875
0.0112863
0.0145224
0.0222194
0.0481837
0.169136
0.00675524
0.006825
0.00690527
0.00700211
0.00712411
0.00728163
0.00748927
0.00776923
0.00815749
0.0087168
0.00956367
0.0109246
0.0132737
0.0177802
0.028144
0.0597607
0.181946
0.006814
0.00690172
0.00700303
0.00712964
0.00729295
0.00750802
0.00779694
0.00819352
0.00875239
0.00956562
0.0107961
0.0127533
0.0160803
0.0223232
0.0361478
0.0751697
0.196743
0.00688688
0.00699041
0.00711984
0.00728698
0.00750683
0.00780089
0.00820132
0.00875718
0.00954642
0.0106966
0.0124292
0.0151615
0.019754
0.028247
0.0466147
0.0960168
0.215487
0.00695953
0.00708955
0.00725592
0.00747429
0.00776521
0.00815818
0.00869739
0.00944951
0.0105185
0.0120727
0.014402
0.0180526
0.0241506
0.0353619
0.0592937
0.121067
0.240113
0.00703985
0.0071985
0.00740736
0.00768463
0.00805679
0.00856225
0.00925776
0.0102283
0.0116044
0.0135954
0.0165578
0.0211621
0.028783
0.0426588
0.0718575
0.144934
0.271454
0.00712122
0.00731257
0.00756606
0.00790492
0.00836186
0.00898375
0.00983867
0.0110267
0.0126997
0.0150975
0.0186269
0.0240357
0.0328418
0.048576
0.0809558
0.160051
0.307204
0.0072039
0.00742631
0.00772223
0.00811927
0.00865593
0.00938596
0.0103857
0.0117652
0.0136883
0.0164082
0.0203435
0.0262469
0.0356213
0.0519009
0.0843897
0.162441
0.341469
0.00728433
0.00753459
0.0078678
0.0083153
0.00891949
0.00973881
0.0108539
0.0123782
0.014475
0.017391
0.0215225
0.027566
0.0368924
0.0525863
0.0829358
0.155454
0.365435
0.00736253
0.00763728
0.00800152
0.00848855
0.00914272
0.0100243
0.0112139
0.0128216
0.015001
0.0179776
0.0221067
0.0280036
0.0368722
0.0514162
0.0788969
0.1445
0.370921
0.00744124
0.00773771
0.00812721
0.00864311
0.00932963
0.0102447
0.0114639
0.0130875
0.0152534
0.018162
0.022128
0.0276943
0.0359116
0.0491353
0.0736927
0.13206
0.355476
0.00752425
0.00784072
0.00825132
0.00878811
0.00949252
0.0104171
0.0116284
0.0132131
0.0152899
0.0180328
0.0217163
0.026812
0.0342278
0.0459841
0.0675092
0.118358
0.323381
0.00761518
0.00795253
0.00838359
0.00893791
0.00965242
0.0105721
0.0117525
0.0132642
0.0152044
0.0177163
0.0210296
0.0255441
0.0320308
0.0422
0.0606414
0.104034
0.282345
0.00771893
0.00808109
0.00853658
0.00911196
0.00983904
0.010755
0.0119037
0.0133403
0.0151403
0.0174176
0.0203595
0.024303
0.0299063
0.0386057
0.0541868
0.0904669
0.239669
0.00784008
0.00823459
0.0087241
0.00933265
0.0100878
0.0110203
0.0121655
0.0135668
0.0152841
0.0174109
0.0201094
0.0236819
0.0287099
0.0363761
0.0496237
0.0793255
0.200099
0.00798241
0.00842037
0.00895908
0.00962147
0.0104333
0.0114226
0.0126218
0.0140709
0.0158272
0.0179833
0.0207078
0.0243178
0.0293778
0.0368425
0.0487843
0.0729855
0.165704
0.00814636
0.00864383
0.00925267
0.00999736
0.0109055
0.0120082
0.0133429
0.0149582
0.0169271
0.019372
0.02252
0.0267881
0.0328196
0.0413972
0.0538233
0.0745316
0.136949
0.00832108
0.00889784
0.00960447
0.0104672
0.0115205
0.0128054
0.0143751
0.0163036
0.0187046
0.0217752
0.0258862
0.0316898
0.0400184
0.0515758
0.0674312
0.0888576
0.113544
0.00846368
0.00913191
0.00996947
0.0110066
0.0122793
0.0138403
0.0157722
0.018203
0.0213327
0.0255114
0.0314166
0.0401022
0.0525342
0.0696634
0.0937159
0.124882
0.0948291
0.0186557
0.020044
0.0215132
0.0229546
0.0242908
0.0254634
0.0264417
0.0272047
0.0277492
0.0280789
0.028209
0.0281609
0.0279603
0.0276323
0.0271947
0.0266531
0.0259964
0.0252058
0.0242701
0.0231997
0.0216096
0.0201072
0.0190997
0.0181308
0.0172027
0.0163161
0.0154715
0.0146701
0.0139126
0.0132011
0.0125348
0.011913
0.0113314
0.0107864
0.0102748
0.00980018
0.00937492
0.00902131
0.00875813
0.00859037
0.00850064
0.0211975
0.0229596
0.024782
0.0265254
0.0281036
0.0294662
0.0305834
0.031439
0.0320288
0.0323597
0.0324494
0.0323235
0.0320119
0.031542
0.030933
0.0301906
0.0293082
0.0282774
0.0271033
0.0258119
0.0240138
0.0223304
0.0211594
0.0200439
0.0189845
0.0179803
0.0170312
0.0161355
0.0152942
0.0145062
0.0137712
0.0130852
0.0124438
0.0118396
0.0112673
0.010726
0.0102281
0.00979971
0.00947155
0.00926014
0.009156
0.0241439
0.0263951
0.0286443
0.0307361
0.032597
0.0341874
0.035479
0.0364546
0.0371076
0.037445
0.037487
0.0372632
0.0368079
0.0361523
0.0353187
0.0343182
0.0331543
0.0318346
0.030382
0.0288359
0.0268037
0.024913
0.0235521
0.0222665
0.0210552
0.0199163
0.0188472
0.0178455
0.0169096
0.0160381
0.0152278
0.0144746
0.0137712
0.0131092
0.012478
0.0118718
0.0112981
0.0107846
0.0103727
0.0100974
0.0099664
0.0275686
0.0304293
0.033168
0.035657
0.0378539
0.0397286
0.041248
0.0423856
0.0431295
0.0434842
0.0434715
0.0431255
0.042486
0.0415907
0.0404698
0.0391462
0.0376402
0.035979
0.0342033
0.0323632
0.0300654
0.0279355
0.0263537
0.0248704
0.0234832
0.0221884
0.0209816
0.0198584
0.0188157
0.0178503
0.0169573
0.0161314
0.0153643
0.0146451
0.0139592
0.0132936
0.0126468
0.0120413
0.0115251
0.0111559
0.0109728
0.0315613
0.0351357
0.0384149
0.0413613
0.0439708
0.0462107
0.0480315
0.0493899
0.0502631
0.0506518
0.0505782
0.0500816
0.0492098
0.0480117
0.0465328
0.0448151
0.0429017
0.0408418
0.0386923
0.0365115
0.0339094
0.0315032
0.0296631
0.0279496
0.026358
0.0248825
0.0235165
0.0222535
0.0210885
0.0200164
0.0190307
0.0181251
0.0172904
0.0165145
0.0157795
0.0150649
0.0143559
0.0136611
0.0130242
0.0125216
0.0122384
0.0362346
0.0405881
0.0444549
0.0479436
0.0510709
0.0537816
0.0559978
0.0576521
0.0587056
0.0591516
0.0590127
0.0583342
0.0571766
0.055607
0.0536943
0.0515073
0.0491164
0.0465938
0.0440115
0.0414346
0.0384809
0.0357542
0.0336126
0.0316301
0.0298
0.0281139
0.0265627
0.0251378
0.0238319
0.0226375
0.0215467
0.0205519
0.0196439
0.0188102
0.0180318
0.0172824
0.0165329
0.0157684
0.0150101
0.0143336
0.0138703
0.0417345
0.0468742
0.0513906
0.0555386
0.0593162
0.0626249
0.0653488
0.0673899
0.0686878
0.0692235
0.0690191
0.0681287
0.066631
0.0646197
0.0621954
0.0594607
0.0565166
0.053459
0.0503747
0.0473358
0.0439734
0.0408732
0.0383788
0.0360816
0.0339725
0.0320403
0.0302731
0.02866
0.0271907
0.0258553
0.0246441
0.0235484
0.0225588
0.0216638
0.0208459
0.0200771
0.0193177
0.018526
0.01768
0.0168132
0.0160608
0.0482481
0.0541217
0.0593863
0.0643425
0.0689223
0.0729723
0.0763316
0.0788655
0.0804843
0.0811538
0.0808923
0.0797668
0.0778804
0.0753611
0.0723492
0.0689862
0.065407
0.0617326
0.0580658
0.0544874
0.0506483
0.0471112
0.0442031
0.0415366
0.0391001
0.0368792
0.0348591
0.0330263
0.0313671
0.0298689
0.0285198
0.0273097
0.0262289
0.0252673
0.0244108
0.0236355
0.0229002
0.0221445
0.0212944
0.0202908
0.019157
0.0559821
0.0625358
0.068701
0.0746362
0.0801799
0.0851231
0.0892563
0.0924005
0.0944305
0.0952903
0.0949951
0.0936252
0.0913146
0.0882315
0.0845616
0.0804901
0.076189
0.0718073
0.0674669
0.0632597
0.0588641
0.0548148
0.0514212
0.0483205
0.0454985
0.0429378
0.0406206
0.0385304
0.03665
0.0349636
0.033457
0.032118
0.0309365
0.0299029
0.0290073
0.0282334
0.0275496
0.0268972
0.0261719
0.0252062
0.0237525
0.0650349
0.0724536
0.079729
0.0868201
0.0934894
0.0994771
0.104525
0.108403
0.110944
0.112066
0.111779
0.110178
0.10743
0.103745
0.0993598
0.0945057
0.0893961
0.0842122
0.0790991
0.0741643
0.0691211
0.0644723
0.0605098
0.0568983
0.0536217
0.0506599
0.0479926
0.0455999
0.0434611
0.0415573
0.0398715
0.0383894
0.0370996
0.0359924
0.0350602
0.0342946
0.0336792
0.0331772
0.0327022
0.0320518
0.0306902
0.0758914
0.0843903
0.0930499
0.10147
0.109417
0.116585
0.122677
0.127406
0.130561
0.132031
0.131817
0.130028
0.126858
0.122565
0.117431
0.111739
0.105745
0.0996698
0.0936854
0.0879198
0.082131
0.0767858
0.0721602
0.0679499
0.0641385
0.0607038
0.0576238
0.0548753
0.0524345
0.0502796
0.048391
0.0467525
0.045351
0.0441759
0.0432203
0.0424804
0.0419523
0.0416252
0.041465
0.0413584
0.0407955
0.0900188
0.0994743
0.109478
0.119426
0.128783
0.137232
0.144461
0.150132
0.153992
0.1559
0.155845
0.153943
0.150414
0.14555
0.13968
0.133133
0.126214
0.119183
0.112246
0.105557
0.0989282
0.092789
0.0874017
0.0824978
0.0780626
0.0740746
0.070511
0.0673462
0.0645543
0.0621113
0.059996
0.0581901
0.0566797
0.0554537
0.0545045
0.0538312
0.0534364
0.0533246
0.0535061
0.0539954
0.0546045
0.108992
0.119595
0.13061
0.141923
0.152803
0.162567
0.170948
0.177589
0.1822
0.184621
0.184824
0.182925
0.179155
0.173828
0.16731
0.15997
0.152156
0.144168
0.13625
0.128587
0.121054
0.114045
0.107811
0.102126
0.0969818
0.0923608
0.0882418
0.0845989
0.0814065
0.0786399
0.0762775
0.0743008
0.0726955
0.0714511
0.0705609
0.0700257
0.0698547
0.0700605
0.0706881
0.0717811
0.0732596
0.135169
0.146952
0.159084
0.17125
0.183307
0.19432
0.203725
0.211227
0.216538
0.219489
0.22004
0.218294
0.214475
0.208901
0.201949
0.194017
0.185478
0.176668
0.167863
0.159281
0.150871
0.142992
0.135886
0.12938
0.123477
0.118173
0.113449
0.109286
0.10566
0.10255
0.0999372
0.0978046
0.0961395
0.0949339
0.0941842
0.0938937
0.0940842
0.094785
0.0960457
0.0978374
0.100071
0.172736
0.185399
0.198304
0.211137
0.223487
0.235141
0.245188
0.253193
0.258952
0.262321
0.263255
0.261832
0.258249
0.252799
0.245839
0.237754
0.228923
0.219692
0.210356
0.201157
0.192118
0.183569
0.175737
0.168518
0.161936
0.156003
0.150717
0.146067
0.142041
0.138626
0.135809
0.133581
0.131932
0.13086
0.130368
0.130463
0.131195
0.132575
0.134596
0.137218
0.14041
0.229184
0.241807
0.254433
0.26682
0.278607
0.289412
0.29905
0.306737
0.312319
0.315735
0.316947
0.316003
0.313052
0.308325
0.302112
0.294736
0.286525
0.277793
0.268817
0.259837
0.250938
0.242404
0.234443
0.227027
0.22021
0.214028
0.2085
0.20364
0.199453
0.195942
0.193108
0.190952
0.189476
0.188683
0.188587
0.189203
0.190582
0.192659
0.195445
0.198929
0.203011
0.318843
0.328875
0.33857
0.34788
0.35658
0.364443
0.37127
0.376917
0.381008
0.383609
0.384699
0.384304
0.382506
0.379433
0.375255
0.370162
0.36436
0.35805
0.351425
0.344661
0.337855
0.331202
0.324855
0.318851
0.313259
0.308134
0.303521
0.299455
0.295965
0.293072
0.290796
0.289151
0.28815
0.287803
0.288131
0.289141
0.290812
0.293132
0.29608
0.299621
0.303541
0.0459616
0.0128286
0.00782584
0.00620503
0.00562106
0.00544882
0.0054544
0.00556795
0.00579378
0.00617404
0.00677275
0.00766639
0.00893259
0.0106381
0.012837
0.0155827
0.0189119
0.0431751
0.0128528
0.00788731
0.00625063
0.00564812
0.00546203
0.00545345
0.00554564
0.00573363
0.00604918
0.00654732
0.00730269
0.00840754
0.00996891
0.0121063
0.0149451
0.0185506
0.0409543
0.0129508
0.00795506
0.00629514
0.00567369
0.00547156
0.00544716
0.00551659
0.00566436
0.00590872
0.00628887
0.00686374
0.00771573
0.00895761
0.0107451
0.0133124
0.017055
0.0396216
0.0130666
0.00801807
0.00633711
0.00569715
0.00547815
0.00543689
0.00548307
0.00558993
0.00575782
0.00599792
0.00632507
0.00675471
0.00730442
0.00800149
0.00888887
0.0100211
0.0391134
0.0131852
0.00807226
0.00637438
0.00571775
0.00548302
0.00542765
0.00545806
0.00554196
0.00567389
0.0058609
0.00611758
0.00646525
0.00693462
0.00757111
0.00843177
0.00955371
0.039408
0.0133071
0.008114
0.00640493
0.00573532
0.00548711
0.00542011
0.00543896
0.00550735
0.0056154
0.00576662
0.00597322
0.00625587
0.00664547
0.00718999
0.00798207
0.0091584
0.0405158
0.0134375
0.00814299
0.00642969
0.00575244
0.00549361
0.00541648
0.00542451
0.00547713
0.00555836
0.00566395
0.00579558
0.00595881
0.00616216
0.00641539
0.00673348
0.00713946
0.0424761
0.0135889
0.00816398
0.00645395
0.00577606
0.0055112
0.00542787
0.00543012
0.00547572
0.00554602
0.00563469
0.00574291
0.00587744
0.00604969
0.00627269
0.00655601
0.00690293
0.0453347
0.0137837
0.00818698
0.00648596
0.00581377
0.00554635
0.00545919
0.0054589
0.0055031
0.00557148
0.00565523
0.00575307
0.00586949
0.00601562
0.00620901
0.00647002
0.0068237
0.0491497
0.0140638
0.00822927
0.0065381
0.0058752
0.00560562
0.00551216
0.00550517
0.0055434
0.00560605
0.00568221
0.00576722
0.00586027
0.00596291
0.00607858
0.00621352
0.00637552
0.0539873
0.0144873
0.00831306
0.00662486
0.00597245
0.00570147
0.0056008
0.00558461
0.00561329
0.005667
0.0057345
0.00580984
0.00589098
0.00597872
0.00607488
0.00618141
0.00630118
0.0598989
0.0151154
0.00846089
0.00675696
0.00611172
0.00583949
0.00573238
0.00570798
0.00572843
0.00577542
0.00583728
0.00590673
0.00597988
0.0060565
0.00613866
0.00622823
0.00632667
0.0669392
0.0160158
0.00869984
0.00694455
0.00629577
0.00601822
0.00590169
0.00586558
0.00587351
0.00590932
0.00596258
0.00602499
0.00609009
0.006155
0.00622061
0.00629006
0.00636623
0.0751544
0.0172888
0.00905845
0.00719719
0.00652805
0.00623989
0.00611203
0.00606218
0.00605368
0.00607088
0.00610612
0.00615249
0.00620286
0.00625198
0.00629774
0.0063424
0.00639228
0.0845299
0.0190483
0.00956558
0.00751977
0.00680625
0.00649997
0.00635979
0.00629787
0.00627572
0.0062756
0.00629187
0.00631986
0.00635332
0.00638714
0.00641683
0.00643924
0.00645259
0.0950042
0.0213857
0.0102509
0.00792
0.00712757
0.00678923
0.00663079
0.00655373
0.00651705
0.00650178
0.00649977
0.00650772
0.00652279
0.00654156
0.006561
0.0065804
0.00660253
0.106388
0.0243433
0.0111628
0.00841682
0.0074959
0.00710333
0.0069164
0.00681802
0.00676147
0.00672687
0.00670491
0.00669138
0.00668416
0.00668089
0.00667843
0.00667602
0.0066808
0.11827
0.0276825
0.0123666
0.00904012
0.00792264
0.00744257
0.00721126
0.0070841
0.00700389
0.00694789
0.006906
0.00687332
0.00684755
0.00682682
0.00680733
0.00678329
0.00675059
0.130048
0.0309675
0.0138722
0.00984041
0.00843302
0.00781604
0.00751486
0.00734641
0.00723687
0.00715765
0.0070965
0.00704712
0.00700636
0.00697276
0.00694403
0.00691718
0.00689449
0.141376
0.0345691
0.0158112
0.0109023
0.00907774
0.0082525
0.00784136
0.00761058
0.00746116
0.00735368
0.00727136
0.00720548
0.00715076
0.00710392
0.00706208
0.00702258
0.00699136
0.152731
0.0408498
0.0185575
0.0123901
0.00996254
0.00882283
0.00823686
0.00790583
0.0076958
0.00754903
0.00743975
0.00735459
0.00728532
0.00722639
0.00717409
0.00712283
0.00706199
0.16465
0.0509863
0.0226881
0.0145846
0.0112752
0.00965978
0.0087948
0.00829616
0.00798414
0.00777336
0.00762227
0.00750884
0.00741966
0.00734626
0.00728536
0.00723331
0.00717772
0.176868
0.0615305
0.0284878
0.0178127
0.0132491
0.0109336
0.00964227
0.00887495
0.00839286
0.00807372
0.00785227
0.00769197
0.00757071
0.00747509
0.0073979
0.00733322
0.00727555
0.190691
0.0743312
0.0359577
0.0222488
0.01604
0.0127691
0.0108822
0.00972756
0.00898991
0.00850178
0.00816804
0.00793222
0.00775957
0.0076286
0.00752474
0.00743816
0.00736033
0.208246
0.0928974
0.0455376
0.0278417
0.019601
0.0151525
0.0125244
0.0108794
0.0098085
0.00909147
0.00859987
0.00825477
0.00800604
0.00782155
0.00767885
0.00756573
0.00746957
0.231682
0.117376
0.0573418
0.0344057
0.0237214
0.0179313
0.0144729
0.0122754
0.0108223
0.00983565
0.00915206
0.00866963
0.00832228
0.00806624
0.00787173
0.00772005
0.007596
0.262561
0.142366
0.0692298
0.0410235
0.0279434
0.0208447
0.016567
0.0138137
0.0119671
0.0106955
0.00980306
0.00916665
0.00870541
0.00836477
0.00810736
0.00790647
0.00774546
0.29965
0.157925
0.0775165
0.0462839
0.031646
0.0235767
0.0186276
0.0153863
0.0131764
0.0116309
0.0105305
0.00973548
0.00915293
0.00871921
0.00839012
0.00813355
0.00792889
0.336959
0.158893
0.0800308
0.0492698
0.0343659
0.0258611
0.0204908
0.0168893
0.0143843
0.0126009
0.0113106
0.0103647
0.00966254
0.00913387
0.00872915
0.00841281
0.00815904
0.364266
0.148961
0.0784903
0.0504477
0.0361561
0.0276444
0.0220946
0.0182767
0.0155626
0.013592
0.0121398
0.0110574
0.0102426
0.00962231
0.00914398
0.00876749
0.00846403
0.372596
0.138466
0.0764796
0.0509298
0.037354
0.0290194
0.0234548
0.0195454
0.0167094
0.0146089
0.0130317
0.0118371
0.0109275
0.0102283
0.00968101
0.00923921
0.00887285
0.359148
0.130614
0.0741657
0.0505957
0.037858
0.0299174
0.0245285
0.020672
0.0178171
0.0156598
0.014014
0.0127503
0.0117668
0.0109852
0.0103495
0.00981986
0.00936708
0.328418
0.120765
0.070332
0.0491591
0.0376299
0.0303635
0.0253534
0.0216945
0.0189278
0.0167989
0.0151393
0.0138229
0.0127579
0.0118804
0.0111438
0.0105128
0.00996296
0.288468
0.108589
0.0652356
0.046997
0.0369979
0.0306098
0.0261151
0.0227536
0.0201556
0.0181027
0.016443
0.0150718
0.01392
0.0129376
0.0120874
0.0113397
0.0106751
0.246708
0.0963568
0.0603947
0.0452019
0.0367439
0.0312119
0.0272048
0.0241309
0.0216935
0.0196984
0.0180168
0.0165697
0.0153071
0.0141935
0.0132015
0.0123106
0.0115024
0.207721
0.0865393
0.0577261
0.0452129
0.0379331
0.0329485
0.0291893
0.0262258
0.0238162
0.0217799
0.0200003
0.0184126
0.0169813
0.0156849
0.0145062
0.0134305
0.0124472
0.173513
0.0818117
0.0593815
0.0486134
0.0417239
0.0366783
0.0327088
0.0295118
0.0268725
0.0245977
0.022562
0.0207093
0.0190141
0.0174583
0.0160295
0.0147169
0.0135138
0.144563
0.0856894
0.0678345
0.0570558
0.0492786
0.043254
0.038386
0.0344294
0.0311745
0.0283739
0.0258638
0.0235802
0.0214873
0.0195648
0.0177997
0.0161825
0.0147058
0.120578
0.103399
0.0861146
0.0723952
0.0618326
0.053546
0.0468681
0.041449
0.0370587
0.0333489
0.0300793
0.0271408
0.0244748
0.0220477
0.0198381
0.0178311
0.0160134
0.100962
0.144355
0.11863
0.0971131
0.0809513
0.0686193
0.0589494
0.0511399
0.044905
0.0397897
0.0353907
0.0315141
0.0280549
0.0249518
0.0221653
0.0196675
0.0174359
0.0418559
0.0599094
0.0756802
0.0917336
0.10917
0.128319
0.14948
0.172216
0.196368
0.235645
0.37395
0.350047
0.261626
0.194923
0.183417
0.212689
0.249093
0.249503
0.184918
0.0926567
0.0525514
0.0737216
0.0919911
0.111751
0.134745
0.160774
0.188774
0.215816
0.240085
0.280181
0.430564
0.395523
0.293008
0.223208
0.21613
0.254199
0.300644
0.313068
0.236523
0.119641
0.0662917
0.090906
0.111925
0.136299
0.166879
0.202478
0.239403
0.270272
0.293292
0.341084
0.494825
0.446373
0.328856
0.256204
0.251955
0.30902
0.362793
0.389623
0.300507
0.155375
0.0841407
0.112608
0.136772
0.16697
0.20791
0.256585
0.304346
0.337005
0.356607
0.4135
0.565018
0.502212
0.364854
0.289545
0.292241
0.364071
0.43819
0.486346
0.384344
0.201668
0.107708
0.140632
0.168665
0.206306
0.261128
0.326934
0.386348
0.416824
0.431848
0.49917
0.648726
0.56428
0.40458
0.32639
0.341611
0.405473
0.51789
0.605385
0.493008
0.261871
0.139492
0.177863
0.211001
0.258192
0.331055
0.418002
0.48822
0.510965
0.521114
0.6082
0.738304
0.629885
0.445069
0.351055
0.377725
0.453523
0.581008
0.721063
0.630572
0.341002
0.183379
0.228888
0.268881
0.328234
0.42345
0.534276
0.61151
0.621318
0.628071
0.734719
0.828293
0.693336
0.487871
0.380219
0.403942
0.493733
0.621175
0.796111
0.800012
0.44344
0.245332
0.300825
0.349492
0.423839
0.544887
0.679555
0.755048
0.750014
0.76921
0.856097
0.909908
0.7467
0.524437
0.405483
0.426683
0.524904
0.64361
0.831777
0.96195
0.576607
0.334422
0.404096
0.46184
0.553667
0.701772
0.854043
0.913247