/*--------------------------------*- C++ -*----------------------------------*\
  =========                 |
  \\      /  F ield         | OpenFOAM: The Open Source CFD Toolbox
   \\    /   O peration     | Website:  https://openfoam.org
    \\  /    A nd           | Version:  6
     \\/     M anipulation  |
\*---------------------------------------------------------------------------*/
FoamFile
{
    version     2.0;
    format      ascii;
    class       surfaceScalarField;
    location    "1.72";
    object      phi;
}
// * * * * * * * * * * * * * * * * * * * * * * * * * * * * * * * * * * * * * //

dimensions      [0 3 -1 0 0 0 0];

internalField   nonuniform List<scalar> 
8193
(
0.10681
-0.191275
-0.0987229
0.112807
-0.193039
0.11731
-0.19375
0.120564
-0.194214
0.122612
-0.19465
0.123332
-0.194925
0.122476
-0.194703
0.120014
-0.19389
0.115978
-0.192568
0.110472
-0.190831
0.103634
-0.188789
0.0955905
-0.186501
0.0864482
-0.18397
0.0763216
-0.181214
0.0653577
-0.178345
0.0537538
-0.175641
0.0417204
-0.1736
0.0294285
-0.172719
0.0169652
-0.173284
0.00446204
-0.174618
-0.00797403
-0.175566
-0.0202783
-0.174347
-0.0319976
-0.17189
-0.0430196
-0.168458
-0.053758
-0.165326
-0.064237
-0.163634
-0.0742976
-0.163112
-0.0836095
-0.163448
-0.0918889
-0.164151
-0.099031
-0.16503
-0.104999
-0.16611
-0.109743
-0.167456
-0.113206
-0.169048
-0.115335
-0.170795
-0.11606
-0.172577
-0.115438
-0.174171
-0.113771
-0.17569
-0.111242
-0.177546
-0.107792
-0.17997
-0.103211
-0.182697
-0.184955
-0.096788
0.122091
-0.201402
-0.116163
0.126336
-0.203288
0.129698
-0.204707
0.132132
-0.205601
0.133341
-0.20592
0.132981
-0.205476
0.130886
-0.204108
0.127095
-0.20193
0.121692
-0.199076
0.114839
-0.195726
0.106698
-0.192005
0.0974078
-0.187967
0.0871171
-0.183641
0.0760184
-0.17911
0.0643643
-0.174568
0.0524322
-0.170342
0.0404291
-0.16688
0.0284298
-0.16457
0.0163529
-0.163568
0.00426867
-0.16337
-0.00773591
-0.162861
-0.019591
-0.160267
-0.0304431
-0.157324
-0.0399896
-0.153769
-0.0487936
-0.150035
-0.0573261
-0.147375
-0.0655921
-0.14601
-0.0734926
-0.145756
-0.0807885
-0.146284
-0.0873506
-0.147313
-0.0931543
-0.148783
-0.0982225
-0.150732
-0.102576
-0.153152
-0.106163
-0.156039
-0.108882
-0.159327
-0.110621
-0.162805
-0.111568
-0.166286
-0.112047
-0.170032
-0.112213
-0.174429
-0.11197
-0.179439
-0.185051
-0.110433
0.13562
-0.211628
-0.131375
0.139062
-0.214216
0.141768
-0.216189
0.143344
-0.217019
0.143396
-0.216646
0.141678
-0.215028
0.13818
-0.212237
0.132974
-0.208478
0.12622
-0.203977
0.118085
-0.198935
0.108727
-0.19348
0.0983174
-0.187697
0.0870701
-0.181675
0.0752548
-0.175572
0.0631811
-0.169642
0.0511336
-0.164205
0.0392764
-0.159611
0.0276054
-0.156101
0.0160132
-0.153746
0.00450976
-0.152184
-0.00683227
-0.15038
-0.0179228
-0.146601
-0.0279541
-0.14332
-0.0364261
-0.139988
-0.0437549
-0.136142
-0.0505507
-0.132864
-0.0570667
-0.130752
-0.0633892
-0.129811
-0.0694206
-0.129916
-0.0750711
-0.130796
-0.0803331
-0.132329
-0.085255
-0.13451
-0.0898861
-0.137347
-0.0942799
-0.140838
-0.0984127
-0.145004
-0.102194
-0.149699
-0.105519
-0.15475
-0.108573
-0.160117
-0.111697
-0.166015
-0.114995
-0.172626
-0.180462
-0.118017
0.149979
-0.222479
-0.14663
0.152688
-0.225619
0.15429
-0.227479
0.15448
-0.227682
0.152955
-0.226166
0.149605
-0.223082
0.1445
-0.218685
0.137774
-0.213248
0.129601
-0.207047
0.120151
-0.200293
0.109606
-0.193136
0.0981827
-0.185712
0.0861524
-0.178182
0.0738392
-0.170773
0.0615736
-0.163762
0.0496128
-0.157416
0.038057
-0.151945
0.0268349
-0.147437
0.0158163
-0.143923
0.00496369
-0.141151
-0.00561888
-0.138247
-0.0157847
-0.133539
-0.02499
-0.129916
-0.0326134
-0.126923
-0.0387701
-0.123383
-0.0440663
-0.119904
-0.0489839
-0.117228
-0.0537672
-0.115616
-0.0584971
-0.115125
-0.0631559
-0.115603
-0.0677436
-0.116923
-0.0722965
-0.11906
-0.0769175
-0.121967
-0.0817064
-0.125656
-0.0867352
-0.130177
-0.0919427
-0.135523
-0.0972305
-0.141552
-0.102593
-0.148123
-0.108236
-0.155226
-0.114394
-0.162993
-0.172191
-0.121024
0.164712
-0.233613
-0.162291
0.166173
-0.236682
0.166273
-0.237888
0.164704
-0.236944
0.161323
-0.233951
0.156165
-0.229237
0.149363
-0.223162
0.141089
-0.216041
0.131514
-0.208161
0.120824
-0.199755
0.109231
-0.191018
0.0969967
-0.182141
0.0844341
-0.173359
0.0718875
-0.16494
0.0596667
-0.157144
0.0479689
-0.150143
0.0368272
-0.143997
0.0261293
-0.138666
0.0157422
-0.134176
0.00561951
-0.130376
-0.00408335
-0.126612
-0.0132196
-0.121219
-0.0215053
-0.117239
-0.0283688
-0.114523
-0.0336151
-0.111532
-0.0377214
-0.108221
-0.041278
-0.105236
-0.0446484
-0.103081
-0.048066
-0.101962
-0.0516315
-0.101873
-0.0554004
-0.10275
-0.0594026
-0.104605
-0.0637321
-0.107338
-0.0685137
-0.110939
-0.0739022
-0.115433
-0.0799475
-0.120918
-0.0865963
-0.127351
-0.0937694
-0.134608
-0.101504
-0.14255
-0.109997
-0.151131
-0.161018
-0.119518
0.179286
-0.244266
-0.178216
0.179037
-0.246621
0.177149
-0.246634
0.173474
-0.244189
0.168042
-0.239564
0.16099
-0.233195
0.152482
-0.225474
0.142692
-0.216733
0.131802
-0.207274
0.120018
-0.197365
0.107583
-0.187249
0.0947911
-0.177179
0.0819698
-0.167437
0.0694435
-0.158302
0.057467
-0.149979
0.0461661
-0.142522
0.0355236
-0.135864
0.0254165
-0.129873
0.0157271
-0.124594
0.0064078
-0.11996
-0.00236092
-0.11556
-0.010406
-0.109734
-0.0176874
-0.105407
-0.0237619
-0.102848
-0.0282769
-0.100443
-0.0315092
-0.0975322
-0.0339808
-0.0945326
-0.0361561
-0.0920216
-0.0383724
-0.090347
-0.0408472
-0.0896378
-0.043704
-0.0899372
-0.0470211
-0.0913156
-0.0508612
-0.093697
-0.0553606
-0.0970053
-0.0606913
-0.101234
-0.0669966
-0.10651
-0.0743412
-0.112864
-0.0826871
-0.120269
-0.0919905
-0.128573
-0.102298
-0.137626
-0.147715
-0.114012
0.192867
-0.253467
-0.193759
0.190364
-0.254559
0.186119
-0.253048
0.18016
-0.248972
0.172631
-0.242725
0.16371
-0.234779
0.153567
-0.225524
0.142382
-0.215305
0.130352
-0.204448
0.117702
-0.193262
0.104699
-0.182037
0.0916427
-0.171071
0.0788412
-0.160666
0.0665645
-0.151075
0.0549936
-0.142424
0.0441921
-0.134663
0.0341172
-0.12763
0.0246604
-0.12114
0.0157247
-0.11526
0.00725542
-0.10998
-0.000563035
-0.105138
-0.00752546
-0.0991084
-0.0137485
-0.0945079
-0.018992
-0.0919748
-0.0228732
-0.0900509
-0.025448
-0.0876527
-0.0271259
-0.0848575
-0.0283652
-0.0822078
-0.0295722
-0.0801179
-0.0310504
-0.0788325
-0.0329988
-0.0785121
-0.035556
-0.0792982
-0.0387722
-0.0812118
-0.0427788
-0.0841022
-0.0477399
-0.0879335
-0.0538395
-0.092811
-0.0612413
-0.098783
-0.0700353
-0.105885
-0.0802152
-0.114052
-0.0917423
-0.123145
-0.133059
-0.104948
0.204354
-0.260264
-0.207794
0.199242
-0.259816
0.192493
-0.256693
0.184247
-0.251036
0.174701
-0.243296
0.164035
-0.233929
0.152423
-0.223325
0.140057
-0.211846
0.127146
-0.199848
0.11393
-0.187673
0.100672
-0.175644
0.0876515
-0.164085
0.0751264
-0.153287
0.0632916
-0.143446
0.0522531
-0.134614
0.0420299
-0.126661
0.0325813
-0.119376
0.0238277
-0.112546
0.015685
-0.106245
0.00808367
-0.100486
0.00120573
-0.0953699
-0.00473604
-0.0893138
-0.0099208
-0.0845534
-0.0143024
-0.0819641
-0.0175681
-0.0803668
-0.019635
-0.0784605
-0.0207713
-0.0759846
-0.0213405
-0.0733991
-0.0217772
-0.07106
-0.0224424
-0.0692979
-0.0235865
-0.0683952
-0.0254029
-0.0685598
-0.0279472
-0.0699589
-0.0313529
-0.0723691
-0.0357387
-0.0757713
-0.0412999
-0.0801938
-0.0482546
-0.0856569
-0.0567966
-0.0922119
-0.0670514
-0.0998477
-0.0790175
-0.108537
-0.11789
-0.0929546
0.21266
-0.264009
-0.218937
0.204874
-0.262009
0.195689
-0.257363
0.185314
-0.250305
0.173946
-0.241276
0.161766
-0.230714
0.148954
-0.219014
0.135709
-0.206558
0.122249
-0.193727
0.108804
-0.18088
0.0956161
-0.168361
0.0829139
-0.156486
0.0708856
-0.145514
0.0596482
-0.135579
0.0492475
-0.126669
0.0396768
-0.118612
0.0309087
-0.111185
0.0228991
-0.104164
0.0155679
-0.0975991
0.00882518
-0.0915016
0.00285567
-0.0862575
-0.00215547
-0.0802927
-0.00638546
-0.0754913
-0.0099253
-0.0728255
-0.0125921
-0.0714011
-0.0142623
-0.0698695
-0.0150208
-0.0677732
-0.0151485
-0.0653882
-0.0150656
-0.0629429
-0.0151564
-0.0608149
-0.015694
-0.0594081
-0.0168703
-0.0590207
-0.0188025
-0.0599011
-0.0215872
-0.0618512
-0.0253059
-0.0648692
-0.030137
-0.0688845
-0.0363104
-0.0738608
-0.0440769
-0.0798196
-0.0536651
-0.0867585
-0.0652225
-0.0947144
-0.103159
-0.0790145
0.216917
-0.264421
-0.225972
0.206641
-0.261031
0.195283
-0.255072
0.183069
-0.246861
0.170194
-0.236807
0.15684
-0.225337
0.14319
-0.212845
0.129444
-0.199737
0.115805
-0.186397
0.102479
-0.173194
0.0896613
-0.160467
0.0775179
-0.148508
0.0661616
-0.13753
0.0556423
-0.127611
0.0459647
-0.1187
0.0371139
-0.110613
0.0290811
-0.103142
0.0218519
-0.0960656
0.0153399
-0.0893665
0.00942787
-0.0830359
0.00431804
-0.0777862
0.000133374
-0.0719734
-0.00326415
-0.0672294
-0.00603935
-0.0645093
-0.00814076
-0.0631452
-0.00946832
-0.0618477
-0.00998694
-0.060105
-0.00988576
-0.0579801
-0.00955986
-0.0555058
-0.00936361
-0.053111
-0.00956076
-0.0512996
-0.0102965
-0.050496
-0.011738
-0.0509335
-0.0139346
-0.0525351
-0.016968
-0.055268
-0.0209873
-0.0589924
-0.0261992
-0.0636086
-0.0328647
-0.0690749
-0.0412992
-0.0753213
-0.0517633
-0.0824227
-0.0898197
-0.0645287
0.216539
-0.261532
-0.228033
0.204158
-0.257005
0.191032
-0.250008
0.177393
-0.240939
0.163436
-0.230171
0.149345
-0.218121
0.135296
-0.205174
0.121469
-0.191743
0.108039
-0.178208
0.0951621
-0.164926
0.0829782
-0.152221
0.0715873
-0.140353
0.0610357
-0.129484
0.0513245
-0.119655
0.0424319
-0.110798
0.0343456
-0.102744
0.0270787
-0.0953172
0.0206257
-0.0882835
0.0149343
-0.0815864
0.00984393
-0.0751157
0.00554327
-0.0699403
0.00206874
-0.0642716
-0.000643178
-0.05965
-0.00278456
-0.0569106
-0.00439619
-0.0555461
-0.00545012
-0.0543455
-0.00583547
-0.05289
-0.00572294
-0.0509709
-0.00549076
-0.0484237
-0.00536427
-0.0458396
-0.00557242
-0.0437274
-0.00617619
-0.0426869
-0.00725689
-0.0429365
-0.00894635
-0.0443522
-0.0112937
-0.0469844
-0.0144373
-0.0506018
-0.0185768
-0.0550374
-0.0239859
-0.0601665
-0.0309711
-0.0658732
-0.0398485
-0.0722067
-0.0786083
-0.0509134
0.211248
-0.255624
-0.22463
0.197297
-0.250246
0.182918
-0.242502
0.168374
-0.232914
0.153847
-0.221769
0.13952
-0.209486
0.125541
-0.196412
0.112061
-0.182968
0.0992064
-0.169509
0.0870825
-0.156376
0.0757669
-0.143868
0.0653005
-0.132212
0.055676
-0.121527
0.0468604
-0.111834
0.0388174
-0.103066
0.0315297
-0.095079
0.0250199
-0.0877414
0.0192915
-0.0808073
0.0143468
-0.0742242
0.0100286
-0.0677288
0.00648504
-0.062702
0.00360983
-0.0571077
0.001429
-0.0526261
-0.000251363
-0.0498805
-0.00151186
-0.0484853
-0.00241583
-0.0472558
-0.00280631
-0.0460028
-0.00299247
-0.0440609
-0.00321515
-0.0413431
-0.00356512
-0.0385996
-0.00421105
-0.0362692
-0.00502016
-0.03526
-0.00610328
-0.0355517
-0.0074592
-0.0371351
-0.00914057
-0.040007
-0.0113142
-0.0438193
-0.0142184
-0.0483279
-0.0181644
-0.0533254
-0.0234633
-0.0586836
-0.0304358
-0.0644261
-0.0700577
-0.0393199
0.201108
-0.247139
-0.215718
0.186213
-0.2412
0.171185
-0.23302
0.156327
-0.22327
0.141793
-0.212085
0.127748
-0.199894
0.114297
-0.186983
0.101548
-0.173781
0.0895714
-0.160604
0.0784366
-0.147794
0.0681618
-0.135603
0.0587413
-0.124239
0.0501356
-0.113789
0.0422842
-0.104258
0.0351649
-0.0956217
0.0287327
-0.0877185
0.0230316
-0.0805109
0.0180039
-0.0736558
0.0137439
-0.0672584
0.0100731
-0.0607882
0.00713032
-0.0559492
0.00471071
-0.0503684
0.00291791
-0.046041
0.00153189
-0.0432743
0.000455864
-0.041814
-0.000489146
-0.0404014
-0.00118212
-0.039156
-0.00202572
-0.0368976
-0.00306655
-0.0339041
-0.00435791
-0.0309272
-0.00594278
-0.0284234
-0.00748443
-0.0276867
-0.00905864
-0.0282888
-0.0103215
-0.0306427
-0.0114328
-0.0342415
-0.0124854
-0.0388011
-0.0138573
-0.0437861
-0.0160066
-0.0488999
-0.019333
-0.0540606
-0.0241821
-0.05933
-0.064375
-0.0307191
0.186564
-0.236582
-0.201733
0.171392
-0.230406
0.156377
-0.222127
0.141822
-0.212553
0.127843
-0.201634
0.114563
-0.189802
0.102045
-0.177287
0.0903538
-0.164517
0.0795034
-0.15176
0.0695127
-0.139365
0.0603469
-0.127533
0.0519931
-0.116496
0.0444005
-0.106309
0.0374989
-0.0969598
0.0313104
-0.0885207
0.0257014
-0.080679
0.0208467
-0.07371
0.0165248
-0.0668785
0.0129917
-0.0607727
0.00991433
-0.0542775
0.0074253
-0.0495686
0.0052615
-0.043883
0.00370851
-0.0397712
0.00244852
-0.036944
0.00143764
-0.0354284
0.00021007
-0.0335518
-0.00103133
-0.0321107
-0.00300897
-0.0290079
-0.00524972
-0.025725
-0.00796006
-0.0223419
-0.0109518
-0.0197169
-0.0136832
-0.0195034
-0.0162426
-0.0206468
-0.0176517
-0.0246292
-0.0184456
-0.0294296
-0.0181762
-0.0357447
-0.0177678
-0.0416602
-0.0177115
-0.0473041
-0.0187231
-0.0523573
-0.0211713
-0.057214
-0.0617329
-0.0252151
0.168506
-0.224538
-0.183542
0.15375
-0.21848
0.139382
-0.210402
0.125707
-0.201311
0.11276
-0.190882
0.100641
-0.179613
0.0893781
-0.167662
0.0789871
-0.155446
0.0694307
-0.143181
0.0607319
-0.131279
0.0527704
-0.119799
0.0455377
-0.10909
0.038966
-0.0991479
0.0329687
-0.0899479
0.0276534
-0.0817587
0.0227759
-0.0739203
0.0186297
-0.0672495
0.0147979
-0.0603055
0.0118158
-0.0546326
0.00915963
-0.048062
0.00705754
-0.0435261
0.00490749
-0.0374375
0.00346936
-0.0337147
0.00210987
-0.0306819
0.00100074
-0.0291782
-0.000644265
-0.0265807
-0.00235981
-0.0249452
-0.00583024
-0.0200328
-0.0094396
-0.0166334
-0.0141792
-0.0122268
-0.0186616
-0.0100568
-0.0228164
-0.010465
-0.0266913
-0.0122829
-0.028159
-0.0191691
-0.0292577
-0.024937
-0.0270953
-0.0352103
-0.0251613
-0.0416872
-0.022434
-0.0489982
-0.0209167
-0.0537876
-0.0207272
-0.0583203
-0.0621663
-0.0222554
0.148213
-0.211422
-0.162656
0.134632
-0.206155
0.121378
-0.198307
0.109054
-0.190021
0.0974643
-0.180174
0.086791
-0.169642
0.0769479
-0.158313
0.0679995
-0.146759
0.0597787
-0.134963
0.0523901
-0.123612
0.0456028
-0.112433
0.0394848
-0.102074
0.0339653
-0.0923978
0.0288322
-0.0832408
0.0245123
-0.0755143
0.0202084
-0.0673378
0.0169474
-0.0613564
0.0132948
-0.0536716
0.0109434
-0.0489596
0.00805129
-0.0415211
0.00607531
-0.0375926
0.00350767
-0.030627
0.0019347
-0.0276431
8.729e-05
-0.0241157
-0.00139106
-0.0228036
-0.00365487
-0.0192929
-0.00601354
-0.0174921
-0.0106414
-0.0103049
-0.0155829
-0.0066589
-0.0218505
-0.00107279
-0.0280484
0.00079538
-0.0329871
-0.00119549
-0.0381142
-0.00324288
-0.0386795
-0.0152051
-0.0399703
-0.0208574
-0.0358627
-0.0372317
-0.0325947
-0.0436586
-0.0273386
-0.0538254
-0.0236011
-0.058031
-0.0212996
-0.0621157
-0.0653404
-0.0206444
0.127551
-0.140732
0.115542
0.103868
0.093086
0.0830096
0.0737687
0.0653395
0.0577431
0.0507955
0.0446349
0.0389206
0.0338423
0.0292846
0.024998
0.0214767
0.0178137
0.0151429
0.0119286
0.00976363
0.0065785
0.0045593
0.00160112
-3.57e-05
-0.00253324
-0.00484011
-0.00888078
-0.0125312
-0.0191621
-0.0234576
-0.0314141
-0.0368857
-0.0427912
-0.0469567
-0.0466713
-0.0469394
-0.0408466
-0.0376415
-0.0301023
-0.0251751
-0.0206551
-0.0185959
0.0668055
-0.0156708
0.0615375
-0.018741
0.0576541
-0.0211991
0.0553298
-0.0252027
0.0537389
-0.0309589
0.0518226
-0.0387969
0.0487404
-0.0488399
0.0440813
-0.0605531
0.0378056
-0.0731613
0.0302537
-0.085631
0.0220531
-0.0968489
0.0139353
-0.105933
0.00665742
-0.112278
0.00108571
-0.115544
-0.002015
-0.115107
-0.00142063
-0.111355
-0.0986982
0.0699537
-0.0145041
0.0651078
-0.0179173
0.0616166
-0.021281
0.0589089
-0.0256357
0.0567027
-0.0314864
0.0543044
-0.0387595
0.0510362
-0.0476011
0.0465987
-0.0578606
0.0408381
-0.0689129
0.033914
-0.0800413
0.0262943
-0.0904417
0.0185818
-0.0993667
0.011388
-0.106217
0.00535755
-0.110682
0.00121003
-0.112209
-0.000397318
-0.111115
-0.100609
0.0727743
-0.0147762
0.0687182
-0.0183653
0.0653361
-0.022036
0.0623663
-0.0264476
0.0596988
-0.0322643
0.0569091
-0.0391044
0.0534861
-0.0470338
0.0491024
-0.0560908
0.0436298
-0.0658535
0.0371478
-0.0758161
0.0299692
-0.0854094
0.0225481
-0.0940284
0.0153927
-0.101127
0.00902489
-0.106406
0.00407331
-0.109415
0.00102616
-0.110329
-0.101978
0.0753889
-0.0159908
0.0716196
-0.0194163
0.0684876
-0.0234323
0.0655581
-0.0277619
0.0625878
-0.0332669
0.0594877
-0.0397253
0.0559236
-0.0469629
0.0515164
-0.0549774
0.0462055
-0.0636694
0.0400197
-0.0726253
0.0331607
-0.0814513
0.0259768
-0.0896897
0.0188742
-0.0968528
0.0122583
-0.10264
0.00661646
-0.106682
0.00241698
-0.109131
-0.102686
0.0774342
-0.0179586
0.0743444
-0.0213118
0.0713066
-0.0251552
0.0683954
-0.0293912
0.0652954
-0.0344962
0.0619702
-0.0405321
0.0582129
-0.0471579
0.0537957
-0.0543542
0.0485836
-0.062118
0.0425953
-0.0701921
0.0359629
-0.0782984
0.0289367
-0.0860992
0.0218412
-0.0931816
0.0150093
-0.0992539
0.00882664
-0.103999
0.00368447
-0.107573
-0.1027
0.0793518
-0.0202752
0.0764025
-0.0233801
0.0735603
-0.0271654
0.0707522
-0.0312722
0.0676835
-0.0359591
0.0642374
-0.0414694
0.0603621
-0.0475304
0.0559192
-0.0540394
0.0507535
-0.0609795
0.0448895
-0.0682759
0.0384062
-0.075707
0.0314765
-0.083031
0.0243589
-0.0899219
0.0173344
-0.096111
0.0107093
-0.101308
0.00478775
-0.105664
-0.102031
0.0806164
-0.0228456
0.0781319
-0.025833
0.0754288
-0.0292857
0.0726354
-0.0331887
0.0696099
-0.0375328
0.0661327
-0.0424867
0.0622035
-0.0479997
0.0577356
-0.0538853
0.0526284
-0.0601151
0.0468598
-0.0666953
0.0404841
-0.0734826
0.0336217
-0.0803034
0.0264721
-0.0869121
0.0192735
-0.0930798
0.0122858
-0.0985386
0.00570779
-0.10338
-0.100716
0.0815544
-0.0254394
0.0791292
-0.0281738
0.0765923
-0.0314445
0.073894
-0.0351147
0.070914
-0.0391066
0.067504
-0.0435633
0.0635837
-0.0485042
0.0591405
-0.0538127
0.0541137
-0.0594145
0.0484397
-0.0653148
0.0421671
-0.0714844
0.0353766
-0.0777837
0.0282138
-0.0840332
0.0208692
-0.0900506
0.0135862
-0.0956217
0.00645496
-0.100685
-0.0987891
0.0817375
-0.0279924
0.0796221
-0.0305836
0.0772237
-0.0335371
0.0745712
-0.0369167
0.071627
-0.0405798
0.0682914
-0.0446091
0.0644374
-0.0489985
0.0600553
-0.0537504
0.0551155
-0.0587724
0.0495677
-0.0640509
0.0434215
-0.0696178
0.0367323
-0.0753814
0.0296005
-0.0812085
0.0221645
-0.0869557
0.0146291
-0.0924769
0.00702142
-0.0975341
-0.096307
0.0813517
-0.0304157
0.0792989
-0.0327666
0.0770394
-0.035508
0.0744832
-0.0385822
0.0716142
-0.0419223
0.0683516
-0.0455469
0.0646285
-0.0494658
0.0603646
-0.0536691
0.0555603
-0.0581464
0.0501937
-0.0628636
0.0442121
-0.0678229
0.0376652
-0.0730365
0.030619
-0.0783886
0.023166
-0.0837639
0.0154635
-0.0890822
0.00752449
-0.0939621
-0.0932223
0.0802005
-0.0326894
0.0783782
-0.0348611
0.0762442
-0.0373076
0.0737791
-0.0400636
0.0709859
-0.0430858
0.0678065
-0.0463322
0.0641925
-0.0498237
0.0600882
-0.0535442
0.0554497
-0.0574962
0.0502652
-0.0616787
0.0445106
-0.0660828
0.038149
-0.0707092
0.0312379
-0.0755378
0.0238435
-0.0804626
0.0160761
-0.085449
0.00792405
-0.0899945
-0.0895432
0.0783498
-0.0348096
0.0766359
-0.0367323
0.0746475
-0.0389373
0.072323
-0.0413855
0.0696323
-0.0440662
0.0665653
-0.0469577
0.0630809
-0.050051
0.0591504
-0.0533429
0.0547262
-0.0568181
0.0497643
-0.0604801
0.0442399
-0.0643402
0.0381293
-0.0684009
0.0314202
-0.0726546
0.0241644
-0.0770604
0.0164317
-0.0816026
0.00819035
-0.0856779
-0.085323
0.0758327
-0.0367825
0.0743321
-0.038487
0.0724949
-0.040399
0.0703046
-0.0425323
0.0677426
-0.044875
0.0647995
-0.0474148
0.0614556
-0.0501331
0.0576782
-0.0530143
0.053436
-0.0560449
0.0486912
-0.0592228
0.0434047
-0.0625586
0.0375523
-0.0660706
0.0311173
-0.0697593
0.0240959
-0.0735974
0.0164979
-0.0775838
0.00830529
-0.0810882
-0.0806478
0.0726311
-0.0386681
0.0713144
-0.0401088
0.0696746
-0.0417469
0.0676782
-0.0435671
0.0653032
-0.045569
0.0625319
-0.0477449
0.0593478
-0.050078
0.0557306
-0.0525491
0.0516573
-0.0551424
0.0471054
-0.0578571
0.0420494
-0.0607011
0.0364605
-0.0636898
0.0303154
-0.06683
0.023606
-0.07011
0.0162732
-0.0734784
0.00832041
-0.0763681
-0.0755658
0.0689247
-0.0404776
0.0678449
-0.0416723
0.0664178
-0.0430139
0.0646315
-0.0445188
0.0624679
-0.0461809
0.0599018
-0.0479853
0.0569084
-0.0499161
0.05347
-0.0519609
0.0495762
-0.0541121
0.0452152
-0.0563674
0.0403705
-0.0587305
0.0350264
-0.0612179
0.0291628
-0.0638324
0.0227812
-0.0665844
0.0157931
-0.0693329
0.00818487
-0.071586
-0.0701882
0.0646467
-0.0422916
0.0638163
-0.0432178
0.0626562
-0.0442779
0.0611393
-0.0454666
0.0592373
-0.0467767
0.0569224
-0.0481938
0.0541725
-0.0497075
0.0509731
-0.0513134
0.047314
-0.0530084
0.0431844
-0.0547895
0.0385716
-0.0566588
0.0334637
-0.0586339
0.0278529
-0.0607217
0.0217596
-0.0629614
0.0151507
-0.0651585
0.00790682
-0.0667354
-0.0646282
0.0600058
-0.044118
0.0594427
-0.0447937
0.0585471
-0.0455637
0.0572993
-0.046434
0.0556691
-0.0473867
0.0536284
-0.0484095
0.051157
-0.0494999
0.0482387
-0.0506576
0.0448577
-0.0518795
0.0409979
-0.0531631
0.0366468
-0.0545135
0.0317968
-0.0559534
0.0264522
-0.0575021
0.0206321
-0.0592134
0.0143483
-0.0608858
0.00747596
-0.0618052
-0.0590177
0.0549553
-0.046009
0.0546451
-0.0464176
0.0540222
-0.0469083
0.0530518
-0.0474546
0.0517028
-0.0480423
0.0499525
-0.0486673
0.0477813
-0.0493301
0.0451685
-0.0500294
0.0420933
-0.0507616
0.038537
-0.0515265
0.0344872
-0.0523355
0.0299392
-0.053219
0.0249094
-0.0542175
0.0194049
-0.0553752
0.0134278
-0.0564864
0.00698377
-0.0568398
-0.0534039
0.0496056
-0.0479785
0.0495525
-0.0481249
0.0491664
-0.0483038
0.0484275
-0.0485076
0.0473177
-0.0487233
0.0458205
-0.0489487
0.0439188
-0.0491829
0.0415927
-0.0494222
0.0388225
-0.0496629
0.0355925
-0.0499086
0.0318939
-0.0501779
0.0277238
-0.0505069
0.0230881
-0.0509446
0.0179681
-0.0515114
0.0123532
-0.0520089
0.00637008
-0.0518639
-0.0478991
0.0440234
-0.0500006
0.044143
-0.0498597
0.0439459
-0.0497283
0.0434001
-0.0495774
0.0424883
-0.0494085
0.0411987
-0.0492246
0.039518
-0.0490234
0.0374333
-0.0488015
0.0349364
-0.0485594
0.0320254
-0.0483072
0.0287037
-0.0480689
0.0249773
-0.047883
0.0208411
-0.0477875
0.0162551
-0.0477679
0.0111854
-0.0476322
0.00563516
-0.0468441
-0.0426191
0.0381581
-0.0521264
0.0384662
-0.0516635
0.0384061
-0.0511523
0.0379839
-0.0506141
0.0372025
-0.0500467
0.0360568
-0.0494451
0.0345441
-0.0488093
0.0326673
-0.0481414
0.0304355
-0.047448
0.027863
-0.0467445
0.0249656
-0.0460565
0.0217496
-0.0454128
0.0181917
-0.0448222
0.0142358
-0.0442375
0.00981881
-0.0434597
0.00476516
-0.0418407
-0.0376966
0.0322653
-0.0542478
0.0326213
-0.0534171
0.0326253
-0.0525212
0.0322673
-0.0515733
0.031548
-0.0505816
0.0304767
-0.0495496
0.0290691
-0.0484839
0.0273469
-0.0473922
0.0253374
-0.0462872
0.0230705
-0.0451868
0.0205702
-0.0441109
0.0178386
-0.0430667
0.0148466
-0.0420321
0.0115459
-0.0409409
0.00787448
-0.0395809
0.0036757
-0.0372097
-0.0333513
0.0261629
-0.0564895
0.0266395
-0.0552101
0.0266919
-0.0538329
0.02636
-0.0524273
0.0256672
-0.0509848
0.0246383
-0.0495103
0.0233089
-0.0480213
0.0217205
-0.046532
0.0199161
-0.0450564
0.017935
-0.0436092
0.0158026
-0.0421966
0.0135197
-0.0408021
0.011069
-0.0393858
0.00843473
-0.0378836
0.00556895
-0.0360519
0.00258944
-0.0333147
-0.0295829
0.0202012
-0.0586794
0.0206585
-0.0569149
0.0207224
-0.0550592
0.020404
-0.0531684
0.0197347
-0.0512548
0.0187569
-0.0493341
0.0175208
-0.0474325
0.0160827
-0.0455702
0.0144936
-0.043757
0.0127985
-0.0420017
0.0110201
-0.0402895
0.00917321
-0.0385962
0.00729474
-0.0369053
0.00538044
-0.0351123
0.00337388
-0.0329227
0.001551
-0.0300939
-0.0263501
0.0141535
-0.0610114
0.0147225
-0.0586702
0.0148365
-0.056242
0.014561
-0.0538256
0.0139565
-0.0514286
0.0130821
-0.0490662
0.0119954
-0.0467632
0.010749
-0.0445363
0.00939778
-0.0423979
0.00798543
-0.0403469
0.00654386
-0.0383579
0.00511282
-0.0364156
0.00374085
-0.0345139
0.00244216
-0.0325152
0.00125259
-0.0301483
0.000420717
-0.0273848
-0.0237555
0.00835372
-0.0633548
0.00896432
-0.0604092
0.00917772
-0.0574293
0.00901274
-0.0544607
0.00852979
-0.0515536
0.00779299
-0.0487275
0.00686364
-0.0460058
0.00579924
-0.0434024
0.00465577
-0.04093
0.00348174
-0.0385811
0.00232382
-0.0363305
0.00124703
-0.0341829
0.000323286
-0.0321409
-0.000409211
-0.0300355
-0.000842334
-0.0276671
-0.000670396
-0.0252074
-0.021777
0.00259924
-0.0659205
0.00340764
-0.0622868
0.00376545
-0.0586597
0.00373849
-0.0550902
0.00339095
-0.0516281
0.00278618
-0.0482937
0.00198935
-0.0451139
0.00106487
-0.0421036
7.7774e-05
-0.0392781
-0.000909881
-0.0366294
-0.00182882
-0.0341415
-0.0025851
-0.0318466
-0.00307824
-0.0297562
-0.00323413
-0.0276775
-0.00288972
-0.0255027
-0.00173313
-0.023555
-0.0204104
-0.00301614
-0.0686583
-0.0020279
-0.0642801
-0.00150869
-0.0599394
-0.00140607
-0.0556896
-0.00165386
-0.0515961
-0.00217616
-0.0476912
-0.00289493
-0.0440062
-0.00373262
-0.0405585
-0.0046098
-0.0373678
-0.00544037
-0.0344359
-0.00612256
-0.0317655
-0.00653394
-0.0294126
-0.00654963
-0.0273947
-0.00605751
-0.0255093
-0.00489522
-0.0237025
-0.00281844
-0.0223826
-0.0197119
-0.00873636
-0.0716697
-0.00752866
-0.0664197
-0.0068792
-0.0612219
-0.00670037
-0.0561843
-0.00689746
-0.0513825
-0.00737966
-0.0468479
-0.0080601
-0.0426113
-0.00884335
-0.0387021
-0.00962332
-0.0351546
-0.0102808
-0.0319873
-0.0106777
-0.0292261
-0.0106677
-0.0269392
-0.0101188
-0.0251337
-0.00890402
-0.0236064
-0.0068861
-0.0223176
-0.00393278
-0.0216746
-0.0197553
-0.0147022
-0.0749029
-0.0133522
-0.0686161
-0.0126169
-0.0624431
-0.0123794
-0.0565311
-0.0125499
-0.0509325
-0.0130265
-0.045695
-0.0136988
-0.0408624
-0.0144408
-0.0364846
-0.0151088
-0.032618
-0.0155454
-0.0293003
-0.0155814
-0.0265738
-0.015054
-0.0245054
-0.0138409
-0.0230666
-0.0118171
-0.0220616
-0.00884168
-0.0214716
-0.00496636
-0.021515
-0.0205169
-0.0212248
-0.0783332
-0.0197198
-0.0708661
-0.0188836
-0.0635946
-0.0186056
-0.0566816
-0.018783
-0.050177
-0.0192853
-0.0441619
-0.0199654
-0.0387028
-0.0206539
-0.0338776
-0.0211629
-0.0297675
-0.0212955
-0.0264256
-0.0208632
-0.0238913
-0.019701
-0.0222144
-0.0176885
-0.0213271
-0.0147429
-0.0210016
-0.0108147
-0.0211905
-0.00599397
-0.0219774
-0.0220619
-0.0284175
-0.0819883
-0.0267471
-0.0731617
-0.025827
-0.0646322
-0.0255464
-0.0565633
-0.02576
-0.0490466
-0.0263042
-0.0421888
-0.0269833
-0.0360963
-0.0275762
-0.0308798
-0.0278515
-0.0266383
-0.0275821
-0.0234283
-0.0265722
-0.021265
-0.0246764
-0.0201543
-0.0218019
-0.0199824
-0.0179169
-0.0204659
-0.0130124
-0.0215397
-0.00707907
-0.0232919
-0.0245331
-0.0364498
-0.0858264
-0.034614
-0.0754815
-0.0336293
-0.0655057
-0.0333571
-0.0561266
-0.0336184
-0.0474853
-0.0342009
-0.0397315
-0.0348521
-0.0330212
-0.0352956
-0.0274986
-0.0352604
-0.0232664
-0.0345025
-0.0203629
-0.0328295
-0.0187599
-0.0301204
-0.0183994
-0.0263032
-0.0191251
-0.0213507
-0.0206144
-0.0152877
-0.0227548
-0.00813659
-0.0256402
-0.028003
-0.0454712
-0.0899594
-0.0434636
-0.0778083
-0.0424162
-0.0661796
-0.0421588
-0.055323
-0.0424713
-0.0454415
-0.0430792
-0.0367513
-0.0436638
-0.0294646
-0.0438942
-0.0237495
-0.0434654
-0.0196935
-0.042121
-0.0172965
-0.0396681
-0.016476
-0.0359996
-0.0170959
-0.0310756
-0.0189393
-0.0248953
-0.0216496
-0.0175422
-0.0250334
-0.00918327
-0.0291027
-0.032575
-0.0556158
-0.0942384
-0.053409
-0.0801445
-0.0522879
-0.0666286
-0.0520444
-0.054108
-0.0523965
-0.0428749
-0.0529962
-0.033227
-0.0534535
-0.025433
-0.0533821
-0.0196714
-0.0524416
-0.0159964
-0.0503638
-0.0143475
-0.0469652
-0.0145667
-0.0421686
-0.0164199
-0.0359929
-0.0195997
-0.0285104
-0.0236997
-0.0198684
-0.0284529
-0.0103062
-0.033778
-0.0384523
-0.0669278
-0.0989696
-0.0645037
-0.0824821
-0.0632977
-0.0668257
-0.0630493
-0.0524525
-0.0634076
-0.0397644
-0.0639381
-0.029162
-0.0641724
-0.0209659
-0.0636677
-0.0153454
-0.0620527
-0.012298
-0.059058
-0.0116737
-0.0545333
-0.0132056
-0.0484616
-0.0165333
-0.0409404
-0.0212392
-0.0321188
-0.0268667
-0.0221926
-0.0330996
-0.0114308
-0.0397785
-0.0457742
-0.0794761
-0.103794
-0.0767763
-0.0848536
-0.0754409
-0.0667764
-0.0751435
-0.050351
-0.0754415
-0.0361199
-0.0758047
-0.0245951
-0.0756809
-0.0161409
-0.0745708
-0.0108932
-0.072083
-0.00875818
-0.0679695
-0.00945585
-0.06214
-0.0125708
-0.0546603
-0.0175928
-0.0457152
-0.0239866
-0.0355275
-0.0312546
-0.0243469
-0.0390469
-0.0124623
-0.0471536
-0.0545931
-0.0931516
-0.109317
-0.0901554
-0.0872548
-0.0886494
-0.0664831
-0.08824
-0.0478161
-0.0883827
-0.0319787
-0.0884401
-0.0196045
-0.0877706
-0.0110881
-0.0858327
-0.00648814
-0.0822425
-0.0055712
-0.0768067
-0.00788092
-0.0695254
-0.0128163
-0.0605562
-0.019713
-0.0501559
-0.0279338
-0.0386071
-0.0369467
-0.0262176
-0.0463628
-0.0133097
-0.0559388
-0.0648748
-0.107936
-0.114869
-0.104505
-0.0898018
-0.102721
-0.0660152
-0.102074
-0.0449249
-0.101908
-0.0274365
-0.101464
-0.0143251
-0.100031
-0.00596849
-0.0970557
-0.00229247
-0.0921883
-0.00288058
-0.0853039
-0.00706494
-0.0764841
-0.014044
-0.06596
-0.0230026
-0.0540632
-0.0331941
-0.0411754
-0.0440206
-0.0276977
-0.0550499
-0.0139734
-0.0660679
-0.0765851
-0.123543
-0.121414
-0.119695
-0.0924595
-0.117565
-0.0654072
-0.116585
-0.0417238
-0.115952
-0.022595
-0.114812
-0.00889409
-0.11241
-0.000933028
-0.108179
0.00151916
-0.101801
-0.000893489
-0.093219
-0.00725361
-0.0826225
-0.0165163
-0.0703783
-0.0276806
-0.0569547
-0.0398811
-0.0428539
-0.0524597
-0.0285228
-0.065004
-0.0142898
-0.0773762
-0.0895214
0.0339871
-0.0489448
-0.0307035
0.0358682
-0.0471756
0.0368736
-0.0452966
0.0366647
-0.0434555
0.0357014
-0.0419755
0.0337907
-0.0410984
0.0313439
-0.0411328
0.0282505
-0.042294
0.0248822
-0.0448376
0.021185
-0.0489001
0.0174903
-0.0546081
0.0137641
-0.0619896
0.0102967
-0.0710275
0.00706216
-0.0816349
0.00429783
-0.0936591
0.00199027
-0.106908
0.000290417
-0.121121
-0.000760326
-0.136054
-0.00112593
-0.151444
-0.000691831
-0.166921
0.000437545
-0.182351
0.00245717
-0.197222
0.00513119
-0.211579
0.00867843
-0.224846
0.012842
-0.236985
0.0177479
-0.247572
0.0232411
-0.256374
0.0292196
-0.263189
0.0357866
-0.267668
0.0424725
-0.269877
0.0497911
-0.26933
0.0569007
-0.266238
0.0645996
-0.260401
0.071855
-0.252033
0.07959
-0.241379
0.0867464
-0.228686
0.0942596
-0.2144
0.101051
-0.198853
0.108191
-0.182622
0.114589
-0.16597
-0.149453
0.0322923
-0.0495255
-0.0291928
0.0343669
-0.0477562
0.0354113
-0.0458351
0.0355152
-0.0439883
0.0347478
-0.0425048
0.0332196
-0.0416565
0.0310349
-0.0417368
0.0283366
-0.0429944
0.0252457
-0.0456596
0.0219046
-0.0498898
0.0184428
-0.0558005
0.0149887
-0.063422
0.011664
-0.0727358
0.00857267
-0.0836436
0.00581846
-0.0959994