/*--------------------------------*- C++ -*----------------------------------*\
  =========                 |
  \\      /  F ield         | OpenFOAM: The Open Source CFD Toolbox
   \\    /   O peration     | Website:  https://openfoam.org
    \\  /    A nd           | Version:  6
     \\/     M anipulation  |
\*---------------------------------------------------------------------------*/
FoamFile
{
    version     2.0;
    format      ascii;
    class       volVectorField;
    location    "4.11";
    object      U;
}
// * * * * * * * * * * * * * * * * * * * * * * * * * * * * * * * * * * * * * //

dimensions      [0 1 -1 0 0 0 0];

internalField   nonuniform List<vector> 
5625
(
(0.894477 0.447184 0)
(0.894455 0.447189 0)
(0.894439 0.447192 0)
(0.894428 0.447195 0)
(0.89442 0.447197 0)
(0.894414 0.447197 0)
(0.89441 0.447199 0)
(0.894407 0.447199 0)
(0.894405 0.447199 0)
(0.894403 0.4472 0)
(0.894402 0.447199 0)
(0.894401 0.4472 0)
(0.894401 0.4472 0)
(0.8944 0.4472 0)
(0.894401 0.4472 0)
(0.8944 0.4472 0)
(0.8944 0.4472 0)
(0.8944 0.4472 0)
(0.8944 0.4472 0)
(0.8944 0.4472 0)
(0.8944 0.4472 0)
(0.8944 0.4472 0)
(0.8944 0.4472 0)
(0.8944 0.4472 0)
(0.8944 0.4472 0)
(0.8944 0.4472 0)
(0.8944 0.4472 0)
(0.894399 0.4472 0)
(0.894401 0.4472 0)
(0.894399 0.4472 0)
(0.894401 0.4472 0)
(0.8944 0.447201 0)
(0.8944 0.447199 0)
(0.8944 0.4472 0)
(0.894401 0.447201 0)
(0.894399 0.4472 0)
(0.894401 0.4472 0)
(0.894398 0.4472 0)
(0.894402 0.4472 0)
(0.894398 0.4472 0)
(0.894402 0.4472 0)
(0.894399 0.4472 0)
(0.894401 0.4472 0)
(0.894401 0.4472 0)
(0.894401 0.447199 0)
(0.894402 0.447201 0)
(0.894403 0.447201 0)
(0.894405 0.4472 0)
(0.894405 0.447201 0)
(0.894413 0.447203 0)
(0.894412 0.447201 0)
(0.894423 0.447203 0)
(0.894428 0.447206 0)
(0.894442 0.447205 0)
(0.894451 0.447209 0)
(0.894467 0.44721 0)
(0.894476 0.447212 0)
(0.894483 0.44721 0)
(0.894472 0.447205 0)
(0.894435 0.447188 0)
(0.894345 0.447154 0)
(0.894169 0.447093 0)
(0.893858 0.446975 0)
(0.893335 0.446783 0)
(0.892508 0.446466 0)
(0.891249 0.44597 0)
(0.889396 0.445224 0)
(0.886795 0.444132 0)
(0.88332 0.442617 0)
(0.878985 0.440647 0)
(0.874122 0.438306 0)
(0.869433 0.43587 0)
(0.865776 0.433733 0)
(0.863815 0.432219 0)
(0.863814 0.431459 0)
(0.894472 0.447183 0)
(0.894452 0.447188 0)
(0.894437 0.447192 0)
(0.894426 0.447194 0)
(0.894419 0.447196 0)
(0.894413 0.447197 0)
(0.894409 0.447198 0)
(0.894406 0.447199 0)
(0.894404 0.447199 0)
(0.894403 0.4472 0)
(0.894402 0.4472 0)
(0.894401 0.4472 0)
(0.894401 0.4472 0)
(0.8944 0.4472 0)
(0.8944 0.4472 0)
(0.8944 0.4472 0)
(0.8944 0.4472 0)
(0.8944 0.4472 0)
(0.8944 0.4472 0)
(0.8944 0.4472 0)
(0.8944 0.4472 0)
(0.8944 0.4472 0)
(0.8944 0.4472 0)
(0.8944 0.4472 0)
(0.8944 0.4472 0)
(0.8944 0.4472 0)
(0.8944 0.4472 0)
(0.8944 0.4472 0)
(0.894401 0.4472 0)
(0.8944 0.4472 0)
(0.8944 0.4472 0)
(0.8944 0.4472 0)
(0.8944 0.4472 0)
(0.8944 0.4472 0)
(0.8944 0.4472 0)
(0.8944 0.447201 0)
(0.8944 0.447199 0)
(0.8944 0.4472 0)
(0.894401 0.4472 0)
(0.894398 0.4472 0)
(0.894402 0.4472 0)
(0.894399 0.4472 0)
(0.8944 0.4472 0)
(0.894401 0.447201 0)
(0.894401 0.447201 0)
(0.894402 0.447199 0)
(0.894402 0.447202 0)
(0.894404 0.4472 0)
(0.894407 0.447202 0)
(0.89441 0.447201 0)
(0.894414 0.447204 0)
(0.894421 0.447202 0)
(0.894428 0.447207 0)
(0.89444 0.447207 0)
(0.894449 0.447209 0)
(0.894466 0.447214 0)
(0.894476 0.447214 0)
(0.894484 0.447216 0)
(0.894481 0.447211 0)
(0.894449 0.447198 0)
(0.894379 0.447172 0)
(0.894232 0.447117 0)
(0.893966 0.447014 0)
(0.893518 0.446841 0)
(0.892797 0.446556 0)
(0.891695 0.446099 0)
(0.890065 0.445407 0)
(0.887743 0.444389 0)
(0.884597 0.44295 0)
(0.880589 0.441035 0)
(0.875922 0.438691 0)
(0.871175 0.436137 0)
(0.867177 0.433752 0)
(0.864652 0.431918 0)
(0.863981 0.430846 0)
(0.894467 0.447182 0)
(0.894448 0.447188 0)
(0.894435 0.447192 0)
(0.894425 0.447194 0)
(0.894418 0.447196 0)
(0.894412 0.447197 0)
(0.894409 0.447198 0)
(0.894406 0.447199 0)
(0.894404 0.447199 0)
(0.894403 0.4472 0)
(0.894402 0.4472 0)
(0.894401 0.4472 0)
(0.894401 0.4472 0)
(0.8944 0.4472 0)
(0.8944 0.4472 0)
(0.8944 0.4472 0)
(0.8944 0.4472 0)
(0.8944 0.4472 0)
(0.8944 0.4472 0)
(0.8944 0.4472 0)
(0.8944 0.4472 0)
(0.8944 0.4472 0)
(0.8944 0.4472 0)
(0.8944 0.4472 0)
(0.8944 0.4472 0)
(0.8944 0.4472 0)
(0.8944 0.4472 0)
(0.8944 0.4472 0)
(0.8944 0.4472 0)
(0.8944 0.4472 0)
(0.8944 0.4472 0)
(0.8944 0.4472 0)
(0.894399 0.4472 0)
(0.894401 0.4472 0)
(0.894398 0.447199 0)
(0.894402 0.447201 0)
(0.894398 0.447199 0)
(0.894401 0.4472 0)
(0.894399 0.4472 0)
(0.8944 0.4472 0)
(0.894399 0.4472 0)
(0.894401 0.4472 0)
(0.8944 0.4472 0)
(0.894401 0.447198 0)
(0.8944 0.447203 0)
(0.894402 0.447199 0)
(0.894403 0.447202 0)
(0.894403 0.447199 0)
(0.894407 0.447202 0)
(0.894408 0.447202 0)
(0.894415 0.447204 0)
(0.894417 0.447204 0)
(0.894428 0.447203 0)
(0.894437 0.447211 0)
(0.894449 0.44721 0)
(0.894461 0.447214 0)
(0.894477 0.447218 0)
(0.894483 0.447219 0)
(0.894485 0.447218 0)
(0.894464 0.447209 0)
(0.894408 0.447188 0)
(0.894286 0.44714 0)
(0.894061 0.447052 0)
(0.893683 0.446898 0)
(0.893063 0.446643 0)
(0.892103 0.446231 0)
(0.890682 0.445596 0)
(0.888634 0.444657 0)
(0.885817 0.443312 0)
(0.882159 0.441482 0)
(0.877758 0.439175 0)
(0.873053 0.436551 0)
(0.868795 0.433955 0)
(0.865758 0.431799 0)
(0.864426 0.430375 0)
(0.894462 0.447182 0)
(0.894445 0.447187 0)
(0.894432 0.447191 0)
(0.894423 0.447194 0)
(0.894416 0.447196 0)
(0.894411 0.447197 0)
(0.894408 0.447198 0)
(0.894405 0.447199 0)
(0.894404 0.447199 0)
(0.894402 0.447199 0)
(0.894402 0.4472 0)
(0.894401 0.4472 0)
(0.894401 0.4472 0)
(0.894401 0.4472 0)
(0.8944 0.4472 0)
(0.8944 0.4472 0)
(0.8944 0.4472 0)
(0.8944 0.4472 0)
(0.8944 0.4472 0)
(0.8944 0.4472 0)
(0.8944 0.4472 0)
(0.8944 0.4472 0)
(0.8944 0.4472 0)
(0.8944 0.4472 0)
(0.8944 0.4472 0)
(0.8944 0.4472 0)
(0.8944 0.4472 0)
(0.8944 0.4472 0)
(0.8944 0.447201 0)
(0.8944 0.4472 0)
(0.8944 0.4472 0)
(0.8944 0.4472 0)
(0.894399 0.4472 0)
(0.894401 0.4472 0)
(0.894399 0.4472 0)
(0.8944 0.4472 0)
(0.8944 0.4472 0)
(0.894401 0.4472 0)
(0.894399 0.4472 0)
(0.894401 0.4472 0)
(0.894398 0.447199 0)
(0.894402 0.4472 0)
(0.894399 0.447201 0)
(0.894402 0.447199 0)
(0.8944 0.447201 0)
(0.8944 0.4472 0)
(0.894404 0.447201 0)
(0.894403 0.447201 0)
(0.894406 0.4472 0)
(0.894407 0.447202 0)
(0.894414 0.447203 0)
(0.894416 0.447205 0)
(0.894427 0.447204 0)
(0.894435 0.44721 0)
(0.894448 0.447213 0)
(0.894458 0.447214 0)
(0.894474 0.44722 0)
(0.894485 0.447224 0)
(0.894485 0.447223 0)
(0.894476 0.447218 0)
(0.89443 0.447201 0)
(0.894331 0.447163 0)
(0.894148 0.447088 0)
(0.893826 0.446953 0)
(0.8933 0.446727 0)
(0.892476 0.44636 0)
(0.891241 0.445789 0)
(0.889456 0.44493 0)
(0.886967 0.443689 0)
(0.88367 0.441973 0)
(0.879591 0.43974 0)
(0.875028 0.437101 0)
(0.870618 0.434346 0)
(0.867136 0.431888 0)
(0.86517 0.430087 0)
(0.894456 0.447182 0)
(0.894441 0.447187 0)
(0.89443 0.447191 0)
(0.894421 0.447194 0)
(0.894415 0.447196 0)
(0.894411 0.447197 0)
(0.894408 0.447198 0)
(0.894405 0.447199 0)
(0.894404 0.447199 0)
(0.894402 0.447199 0)
(0.894402 0.447199 0)
(0.894401 0.4472 0)
(0.8944 0.447199 0)
(0.894401 0.4472 0)
(0.8944 0.4472 0)
(0.8944 0.4472 0)
(0.8944 0.4472 0)
(0.8944 0.4472 0)
(0.8944 0.4472 0)
(0.8944 0.4472 0)
(0.8944 0.4472 0)
(0.8944 0.4472 0)
(0.8944 0.4472 0)
(0.8944 0.4472 0)
(0.8944 0.4472 0)
(0.8944 0.4472 0)
(0.8944 0.4472 0)
(0.8944 0.4472 0)
(0.8944 0.447199 0)
(0.8944 0.447201 0)
(0.8944 0.447199 0)
(0.894399 0.4472 0)
(0.894401 0.4472 0)
(0.894399 0.4472 0)
(0.8944 0.447201 0)
(0.894399 0.4472 0)
(0.894401 0.4472 0)
(0.894398 0.4472 0)
(0.894401 0.4472 0)
(0.8944 0.4472 0)
(0.8944 0.4472 0)
(0.8944 0.4472 0)
(0.894399 0.4472 0)
(0.894401 0.447201 0)
(0.8944 0.4472 0)
(0.894401 0.447201 0)
(0.894402 0.4472 0)
(0.894404 0.447201 0)
(0.894405 0.447202 0)
(0.894408 0.4472 0)
(0.894412 0.447203 0)
(0.894417 0.447205 0)
(0.894423 0.447207 0)
(0.894434 0.447207 0)
(0.894443 0.447214 0)
(0.894458 0.447216 0)
(0.894469 0.447221 0)
(0.894483 0.447225 0)
(0.894488 0.447229 0)
(0.894482 0.447225 0)
(0.894449 0.447213 0)
(0.894369 0.447182 0)
(0.894221 0.447119 0)
(0.89395 0.447007 0)
(0.893508 0.446807 0)
(0.892808 0.446483 0)
(0.891749 0.445977 0)
(0.890206 0.445204 0)
(0.888032 0.444073 0)
(0.885101 0.442488 0)
(0.881383 0.440372 0)
(0.877053 0.437773 0)
(0.87261 0.434919 0)
(0.868782 0.432201 0)
(0.866231 0.430022 0)
(0.894452 0.447182 0)
(0.894438 0.447187 0)
(0.894427 0.447191 0)
(0.89442 0.447194 0)
(0.894414 0.447196 0)
(0.89441 0.447197 0)
(0.894407 0.447198 0)
(0.894405 0.447199 0)
(0.894403 0.447199 0)
(0.894402 0.447199 0)
(0.894401 0.4472 0)
(0.894401 0.4472 0)
(0.894401 0.4472 0)
(0.8944 0.4472 0)
(0.8944 0.4472 0)
(0.8944 0.4472 0)
(0.8944 0.4472 0)
(0.8944 0.4472 0)
(0.8944 0.4472 0)
(0.8944 0.4472 0)
(0.8944 0.4472 0)
(0.8944 0.4472 0)
(0.8944 0.4472 0)
(0.8944 0.4472 0)
(0.8944 0.4472 0)
(0.8944 0.4472 0)
(0.8944 0.4472 0)
(0.8944 0.4472 0)
(0.8944 0.4472 0)
(0.8944 0.4472 0)
(0.894401 0.4472 0)
(0.894399 0.4472 0)
(0.8944 0.4472 0)
(0.8944 0.4472 0)
(0.8944 0.4472 0)
(0.894399 0.4472 0)
(0.894401 0.4472 0)
(0.894399 0.4472 0)
(0.894401 0.4472 0)
(0.894399 0.4472 0)
(0.894402 0.4472 0)
(0.894399 0.4472 0)
(0.894401 0.4472 0)
(0.8944 0.447201 0)
(0.8944 0.447199 0)
(0.894402 0.447201 0)
(0.894401 0.447201 0)
(0.894404 0.447199 0)
(0.894405 0.447203 0)
(0.894408 0.447201 0)
(0.894409 0.447203 0)
(0.894417 0.447205 0)
(0.894421 0.447208 0)
(0.894432 0.447209 0)
(0.894439 0.447211 0)
(0.894455 0.447219 0)
(0.894467 0.447222 0)
(0.894479 0.447227 0)
(0.894487 0.447233 0)
(0.894484 0.44723 0)
(0.894463 0.447224 0)
(0.894402 0.4472 0)
(0.894279 0.447148 0)
(0.894061 0.447053 0)
(0.89369 0.446885 0)
(0.8931 0.4466 0)
(0.892201 0.446154 0)
(0.890878 0.445469 0)
(0.889 0.444453 0)
(0.886435 0.443009 0)
(0.8831 0.441045 0)
(0.879077 0.438543 0)
(0.874725 0.43566 0)
(0.870675 0.432742 0)
(0.867614 0.43021 0)
(0.894447 0.447182 0)
(0.894434 0.447187 0)
(0.894425 0.447191 0)
(0.894418 0.447194 0)
(0.894413 0.447196 0)
(0.894409 0.447197 0)
(0.894406 0.447198 0)
(0.894404 0.447199 0)
(0.894403 0.447199 0)
(0.894402 0.447199 0)
(0.894402 0.4472 0)
(0.894401 0.4472 0)
(0.894401 0.4472 0)
(0.8944 0.4472 0)
(0.8944 0.4472 0)
(0.8944 0.4472 0)
(0.8944 0.4472 0)
(0.8944 0.4472 0)
(0.8944 0.4472 0)
(0.8944 0.4472 0)
(0.8944 0.4472 0)
(0.8944 0.4472 0)
(0.8944 0.4472 0)
(0.8944 0.4472 0)
(0.8944 0.4472 0)
(0.8944 0.4472 0)
(0.8944 0.4472 0)
(0.8944 0.4472 0)
(0.8944 0.4472 0)
(0.8944 0.447201 0)
(0.8944 0.447199 0)
(0.8944 0.4472 0)
(0.8944 0.4472 0)
(0.8944 0.4472 0)
(0.894399 0.447199 0)
(0.894401 0.447201 0)
(0.894399 0.4472 0)
(0.894401 0.4472 0)
(0.8944 0.4472 0)
(0.8944 0.447199 0)
(0.8944 0.447201 0)
(0.894399 0.4472 0)
(0.894401 0.447199 0)
(0.894401 0.4472 0)
(0.894399 0.447202 0)
(0.894402 0.447198 0)
(0.894402 0.447202 0)
(0.894402 0.4472 0)
(0.894405 0.4472 0)
(0.894406 0.447204 0)
(0.894409 0.447202 0)
(0.894413 0.447204 0)
(0.894422 0.447206 0)
(0.894427 0.447211 0)
(0.894439 0.447211 0)
(0.894448 0.447219 0)
(0.894463 0.447222 0)
(0.894474 0.447228 0)
(0.894486 0.447235 0)
(0.894487 0.447235 0)
(0.894471 0.447231 0)
(0.894427 0.447216 0)
(0.89433 0.447175 0)
(0.89415 0.447093 0)
(0.893845 0.446953 0)
(0.893356 0.446711 0)
(0.892598 0.44632 0)
(0.891475 0.445721 0)
(0.889871 0.444822 0)
(0.887652 0.443526 0)
(0.884713 0.441732 0)
(0.881056 0.439379 0)
(0.876904 0.436546 0)
(0.872767 0.433506 0)
(0.86931 0.430667 0)
(0.894442 0.447183 0)
(0.894431 0.447188 0)
(0.894423 0.447191 0)
(0.894416 0.447194 0)
(0.894411 0.447196 0)
(0.894408 0.447197 0)
(0.894406 0.447198 0)
(0.894404 0.447198 0)
(0.894403 0.447199 0)
(0.894402 0.447199 0)
(0.894401 0.4472 0)
(0.894401 0.4472 0)
(0.8944 0.4472 0)
(0.8944 0.4472 0)
(0.8944 0.4472 0)
(0.8944 0.4472 0)
(0.8944 0.4472 0)
(0.8944 0.4472 0)
(0.8944 0.4472 0)
(0.8944 0.4472 0)
(0.8944 0.4472 0)
(0.8944 0.4472 0)
(0.8944 0.4472 0)
(0.8944 0.4472 0)
(0.8944 0.4472 0)
(0.8944 0.4472 0)
(0.8944 0.4472 0)
(0.8944 0.4472 0)
(0.8944 0.447199 0)
(0.8944 0.447201 0)
(0.894401 0.4472 0)
(0.894399 0.447199 0)
(0.8944 0.4472 0)
(0.894401 0.4472 0)
(0.894399 0.447199 0)
(0.894401 0.4472 0)
(0.894399 0.4472 0)
(0.894401 0.4472 0)
(0.894399 0.4472 0)
(0.894402 0.4472 0)
(0.894398 0.4472 0)
(0.894403 0.4472 0)
(0.894398 0.447201 0)
(0.894401 0.447199 0)
(0.894401 0.4472 0)
(0.8944 0.447201 0)
(0.894403 0.4472 0)
(0.894402 0.447202 0)
(0.894404 0.447199 0)
(0.894405 0.447202 0)
(0.894411 0.447204 0)
(0.894411 0.447203 0)
(0.89442 0.447205 0)
(0.894423 0.44721 0)
(0.894437 0.447214 0)
(0.894444 0.447216 0)
(0.894459 0.447224 0)
(0.89447 0.447229 0)
(0.894482 0.447234 0)
(0.894489 0.447241 0)
(0.894477 0.447237 0)
(0.894444 0.447228 0)
(0.89437 0.447197 0)
(0.894227 0.447131 0)
(0.893978 0.447015 0)
(0.893573 0.446809 0)
(0.892943 0.446475 0)
(0.892 0.445954 0)
(0.890642 0.445171 0)
(0.888745 0.444024 0)
(0.886196 0.442413 0)
(0.88294 0.44025 0)
(0.879084 0.43754 0)
(0.875001 0.434469 0)
(0.871284 0.431403 0)
(0.894438 0.447184 0)
(0.894428 0.447188 0)
(0.89442 0.447192 0)
(0.894415 0.447194 0)
(0.89441 0.447196 0)
(0.894407 0.447197 0)
(0.894405 0.447198 0)
(0.894404 0.447199 0)
(0.894402 0.447199 0)
(0.894402 0.4472 0)
(0.894401 0.447199 0)
(0.894401 0.4472 0)
(0.8944 0.4472 0)
(0.8944 0.4472 0)
(0.8944 0.4472 0)
(0.8944 0.4472 0)
(0.8944 0.4472 0)
(0.8944 0.4472 0)
(0.8944 0.4472 0)
(0.8944 0.4472 0)
(0.8944 0.4472 0)
(0.8944 0.4472 0)
(0.8944 0.4472 0)
(0.8944 0.4472 0)
(0.8944 0.4472 0)
(0.8944 0.4472 0)
(0.8944 0.4472 0)
(0.8944 0.4472 0)
(0.8944 0.4472 0)
(0.8944 0.4472 0)
(0.8944 0.4472 0)
(0.8944 0.4472 0)
(0.8944 0.447199 0)
(0.894401 0.4472 0)
(0.8944 0.4472 0)
(0.8944 0.447199 0)
(0.8944 0.447201 0)
(0.8944 0.4472 0)
(0.8944 0.4472 0)
(0.8944 0.447201 0)
(0.894399 0.447199 0)
(0.894401 0.4472 0)
(0.894399 0.4472 0)
(0.894401 0.4472 0)
(0.8944 0.4472 0)
(0.894401 0.447201 0)
(0.894401 0.447199 0)
(0.894402 0.447201 0)
(0.894404 0.447203 0)
(0.894405 0.447199 0)
(0.894408 0.447205 0)
(0.894411 0.447204 0)
(0.894416 0.447205 0)
(0.894424 0.44721 0)
(0.89443 0.447212 0)
(0.894444 0.447217 0)
(0.894453 0.447223 0)
(0.894466 0.447228 0)
(0.894478 0.447236 0)
(0.894483 0.447242 0)
(0.894482 0.447244 0)
(0.894458 0.447237 0)
(0.894401 0.447214 0)
(0.894287 0.447165 0)
(0.894088 0.447068 0)
(0.893759 0.446897 0)
(0.893238 0.446617 0)
(0.892454 0.446171 0)
(0.891316 0.445491 0)
(0.889715 0.444492 0)
(0.887532 0.443068 0)
(0.884688 0.441122 0)
(0.881202 0.438598 0)
(0.877307 0.435595 0)
(0.873479 0.4324 0)
(0.894434 0.447184 0)
(0.894425 0.447189 0)
(0.894418 0.447192 0)
(0.894413 0.447194 0)
(0.894409 0.447196 0)
(0.894406 0.447197 0)
(0.894405 0.447198 0)
(0.894403 0.447199 0)
(0.894402 0.447199 0)
(0.894401 0.447199 0)
(0.894401 0.4472 0)
(0.894401 0.447199 0)
(0.8944 0.4472 0)
(0.8944 0.4472 0)
(0.8944 0.4472 0)
(0.8944 0.4472 0)
(0.8944 0.4472 0)
(0.8944 0.4472 0)
(0.8944 0.4472 0)
(0.8944 0.4472 0)
(0.8944 0.4472 0)
(0.8944 0.4472 0)
(0.8944 0.4472 0)
(0.8944 0.4472 0)
(0.8944 0.4472 0)
(0.8944 0.4472 0)
(0.8944 0.4472 0)
(0.8944 0.4472 0)
(0.8944 0.4472 0)
(0.8944 0.447201 0)
(0.8944 0.447199 0)
(0.8944 0.447201 0)
(0.894401 0.447199 0)
(0.894399 0.4472 0)
(0.8944 0.447201 0)
(0.8944 0.447199 0)
(0.8944 0.4472 0)
(0.894399 0.447201 0)
(0.894401 0.4472 0)
(0.894399 0.4472 0)
(0.894401 0.447201 0)
(0.894399 0.4472 0)
(0.894403 0.4472 0)
(0.894398 0.447201 0)
(0.894402 0.447199 0)
(0.894401 0.447201 0)
(0.8944 0.447201 0)
(0.894403 0.447199 0)
(0.894402 0.447203 0)
(0.894406 0.447201 0)
(0.894406 0.447202 0)
(0.894411 0.447205 0)
(0.894414 0.447206 0)
(0.894423 0.447208 0)
(0.894427 0.447213 0)
(0.894438 0.447216 0)
(0.89445 0.447223 0)
(0.89446 0.447227 0)
(0.894473 0.447238 0)
(0.894482 0.447242 0)
(0.894481 0.447246 0)
(0.894466 0.447246 0)
(0.894423 0.447229 0)
(0.894336 0.44719 0)
(0.894178 0.447114 0)
(0.893911 0.446976 0)
(0.893486 0.44674 0)
(0.892844 0.446365 0)
(0.891899 0.445784 0)
(0.890557 0.444924 0)
(0.888715 0.443686 0)
(0.886276 0.441963 0)
(0.883201 0.439673 0)
(0.879601 0.43683 0)
(0.875823 0.43362 0)
(0.89443 0.447185 0)
(0.894422 0.44719 0)
(0.894416 0.447193 0)
(0.894412 0.447195 0)
(0.894408 0.447196 0)
(0.894406 0.447198 0)
(0.894404 0.447198 0)
(0.894403 0.447199 0)
(0.894402 0.447199 0)
(0.894401 0.4472 0)
(0.894401 0.4472 0)
(0.8944 0.4472 0)
(0.894401 0.4472 0)
(0.8944 0.4472 0)
(0.8944 0.4472 0)
(0.8944 0.4472 0)
(0.8944 0.4472 0)
(0.8944 0.4472 0)
(0.8944 0.4472 0)
(0.8944 0.4472 0)
(0.8944 0.4472 0)
(0.8944 0.4472 0)
(0.8944 0.4472 0)
(0.8944 0.4472 0)
(0.8944 0.4472 0)
(0.8944 0.4472 0)
(0.8944 0.4472 0)
(0.8944 0.4472 0)
(0.8944 0.4472 0)
(0.894401 0.4472 0)
(0.894399 0.4472 0)
(0.8944 0.4472 0)
(0.894401 0.4472 0)
(0.8944 0.4472 0)
(0.8944 0.4472 0)
(0.894401 0.4472 0)
(0.894399 0.4472 0)
(0.8944 0.4472 0)
(0.894401 0.4472 0)
(0.894399 0.4472 0)
(0.894401 0.4472 0)
(0.8944 0.447199 0)
(0.8944 0.447201 0)
(0.894401 0.4472 0)
(0.894401 0.4472 0)
(0.8944 0.447199 0)
(0.894402 0.447202 0)
(0.894402 0.4472 0)
(0.894402 0.4472 0)
(0.894405 0.447204 0)
(0.894405 0.447201 0)
(0.894408 0.447204 0)
(0.894416 0.447207 0)
(0.894416 0.447208 0)
(0.894426 0.44721 0)
(0.894434 0.447216 0)
(0.894443 0.447222 0)
(0.894457 0.447228 0)
(0.894467 0.447235 0)
(0.894476 0.447243 0)
(0.894481 0.447248 0)
(0.894471 0.44725 0)
(0.894441 0.447241 0)
(0.894374 0.447212 0)
(0.894248 0.447154 0)
(0.894038 0.447041 0)
(0.893697 0.446848 0)
(0.89317 0.446535 0)
(0.892395 0.446048 0)
(0.891286 0.445315 0)
(0.889746 0.44425 0)
(0.887684 0.442753 0)
(0.88503 0.440723 0)
(0.881809 0.438113 0)
(0.878227 0.43501 0)
(0.894427 0.447186 0)
(0.89442 0.44719 0)
(0.894414 0.447193 0)
(0.89441 0.447195 0)
(0.894407 0.447197 0)
(0.894405 0.447198 0)
(0.894404 0.447198 0)
(0.894402 0.447199 0)
(0.894402 0.447199 0)
(0.894401 0.4472 0)
(0.894401 0.4472 0)
(0.8944 0.4472 0)
(0.8944 0.4472 0)
(0.8944 0.4472 0)
(0.8944 0.4472 0)
(0.8944 0.4472 0)
(0.8944 0.4472 0)
(0.8944 0.4472 0)
(0.8944 0.4472 0)
(0.8944 0.4472 0)
(0.8944 0.4472 0)
(0.8944 0.4472 0)
(0.8944 0.4472 0)
(0.8944 0.4472 0)
(0.8944 0.4472 0)
(0.8944 0.4472 0)
(0.894399 0.4472 0)
(0.8944 0.4472 0)
(0.8944 0.4472 0)
(0.8944 0.4472 0)
(0.8944 0.4472 0)
(0.8944 0.4472 0)
(0.8944 0.4472 0)
(0.8944 0.447201 0)
(0.8944 0.447199 0)
(0.8944 0.447201 0)
(0.8944 0.4472 0)
(0.894401 0.447199 0)
(0.894399 0.447201 0)
(0.8944 0.447199 0)
(0.894401 0.4472 0)
(0.894399 0.447201 0)
(0.8944 0.447199 0)
(0.894401 0.4472 0)
(0.894399 0.4472 0)
(0.894401 0.4472 0)
(0.8944 0.4472 0)
(0.894402 0.447202 0)
(0.894402 0.4472 0)
(0.894403 0.447201 0)
(0.894406 0.447203 0)
(0.894408 0.447202 0)
(0.894412 0.447206 0)
(0.894417 0.447208 0)
(0.894421 0.447211 0)
(0.894432 0.447214 0)
(0.894438 0.447221 0)
(0.894452 0.447225 0)
(0.894464 0.447235 0)
(0.894467 0.447244 0)
(0.894478 0.447248 0)
(0.894476 0.447252 0)
(0.894449 0.447249 0)
(0.894402 0.447229 0)
(0.894307 0.447183 0)
(0.894137 0.447096 0)
(0.893866 0.446941 0)
(0.893442 0.446684 0)
(0.892813 0.446279 0)
(0.891905 0.445663 0)
(0.890633 0.444761 0)
(0.888911 0.443478 0)
(0.886663 0.44171 0)
(0.883857 0.439379 0)
(0.880588 0.436493 0)
(0.894423 0.447187 0)
(0.894417 0.447191 0)
(0.894412 0.447194 0)
(0.894409 0.447196 0)
(0.894406 0.447197 0)
(0.894404 0.447198 0)
(0.894403 0.447199 0)
(0.894402 0.447199 0)
(0.894401 0.4472 0)
(0.894401 0.447199 0)
(0.894401 0.4472 0)
(0.8944 0.4472 0)
(0.8944 0.4472 0)
(0.8944 0.4472 0)
(0.8944 0.4472 0)
(0.8944 0.4472 0)
(0.8944 0.4472 0)
(0.8944 0.4472 0)
(0.8944 0.4472 0)
(0.8944 0.4472 0)
(0.8944 0.4472 0)
(0.8944 0.4472 0)
(0.8944 0.4472 0)
(0.8944 0.4472 0)
(0.8944 0.4472 0)
(0.894401 0.4472 0)
(0.8944 0.4472 0)
(0.8944 0.4472 0)
(0.8944 0.4472 0)
(0.8944 0.4472 0)
(0.894399 0.4472 0)
(0.8944 0.4472 0)
(0.8944 0.4472 0)
(0.8944 0.4472 0)
(0.8944 0.4472 0)
(0.8944 0.447199 0)
(0.8944 0.447201 0)
(0.8944 0.4472 0)
(0.894401 0.447199 0)
(0.894399 0.447201 0)
(0.8944 0.447199 0)
(0.894401 0.4472 0)
(0.894399 0.447201 0)
(0.894401 0.447199 0)
(0.894401 0.4472 0)
(0.8944 0.447201 0)
(0.894402 0.447199 0)
(0.894401 0.447201 0)
(0.894402 0.447202 0)
(0.894403 0.447199 0)
(0.894406 0.447204 0)
(0.894406 0.447203 0)
(0.89441 0.447203 0)
(0.894415 0.447208 0)
(0.89442 0.44721 0)
(0.894427 0.447213 0)
(0.894436 0.447219 0)
(0.894444 0.447226 0)
(0.894457 0.447232 0)
(0.894467 0.44724 0)
(0.89447 0.44725 0)
(0.894472 0.447253 0)
(0.89446 0.447254 0)
(0.894419 0.447241 0)
(0.89435 0.447208 0)
(0.894221 0.447144 0)
(0.894003 0.447018 0)
(0.893668 0.44681 0)
(0.89316 0.44648 0)
(0.89242 0.445969 0)
(0.891383 0.445211 0)
(0.889967 0.444127 0)
(0.88809 0.442616 0)
(0.885699 0.440584 0)
(0.882816 0.437981 0)
(0.89442 0.447189 0)
(0.894415 0.447192 0)
(0.894411 0.447194 0)
(0.894408 0.447196 0)
(0.894406 0.447197 0)
(0.894404 0.447198 0)
(0.894403 0.447199 0)
(0.894402 0.447199 0)
(0.894401 0.447199 0)
(0.894401 0.4472 0)
(0.8944 0.4472 0)
(0.894401 0.4472 0)
(0.8944 0.4472 0)
(0.8944 0.4472 0)
(0.8944 0.4472 0)
(0.8944 0.4472 0)
(0.8944 0.4472 0)
(0.8944 0.4472 0)
(0.8944 0.4472 0)
(0.8944 0.4472 0)
(0.8944 0.4472 0)
(0.8944 0.4472 0)
(0.8944 0.4472 0)
(0.8944 0.4472 0)
(0.8944 0.4472 0)
(0.8944 0.4472 0)
(0.894401 0.4472 0)
(0.8944 0.447201 0)
(0.8944 0.447199 0)
(0.8944 0.4472 0)
(0.8944 0.4472 0)
(0.8944 0.447201 0)
(0.8944 0.447199 0)
(0.894399 0.4472 0)
(0.894401 0.4472 0)
(0.8944 0.4472 0)
(0.894399 0.4472 0)
(0.894401 0.4472 0)
(0.894399 0.4472 0)
(0.894401 0.4472 0)
(0.894399 0.4472 0)
(0.894401 0.447201 0)
(0.894399 0.4472 0)
(0.894401 0.4472 0)
(0.8944 0.4472 0)
(0.894399 0.4472 0)
(0.894402 0.4472 0)
(0.8944 0.447201 0)
(0.894402 0.447201 0)
(0.894403 0.447202 0)
(0.894404 0.447199 0)
(0.894407 0.447205 0)
(0.894409 0.447204 0)
(0.894411 0.447205 0)
(0.894419 0.447211 0)
(0.894422 0.447211 0)
(0.894433 0.447218 0)
(0.89444 0.447225 0)
(0.894449 0.44723 0)
(0.894461 0.447238 0)
(0.894466 0.447247 0)
(0.894469 0.447255 0)
(0.894462 0.447256 0)
(0.894436 0.447251 0)
(0.89438 0.447227 0)
(0.894282 0.447176 0)
(0.894114 0.447084 0)
(0.893846 0.446916 0)
(0.893444 0.446647 0)
(0.892853 0.446233 0)
(0.892011 0.445607 0)
(0.890855 0.444697 0)
(0.889312 0.443426 0)
(0.887316 0.441689 0)
(0.884844 0.439406 0)
(0.894418 0.44719 0)
(0.894413 0.447193 0)
(0.894409 0.447195 0)
(0.894407 0.447196 0)
(0.894405 0.447197 0)
(0.894403 0.447199 0)
(0.894402 0.447199 0)
(0.894402 0.4472 0)
(0.894401 0.447199 0)
(0.894401 0.4472 0)
(0.8944 0.4472 0)
(0.8944 0.4472 0)
(0.8944 0.4472 0)
(0.8944 0.4472 0)
(0.8944 0.4472 0)
(0.8944 0.4472 0)
(0.8944 0.4472 0)
(0.8944 0.4472 0)
(0.8944 0.4472 0)
(0.8944 0.4472 0)
(0.8944 0.4472 0)
(0.8944 0.4472 0)
(0.8944 0.4472 0)
(0.8944 0.4472 0)
(0.8944 0.4472 0)
(0.8944 0.4472 0)
(0.8944 0.4472 0)
(0.8944 0.4472 0)
(0.8944 0.4472 0)
(0.8944 0.4472 0)
(0.8944 0.4472 0)
(0.8944 0.4472 0)
(0.8944 0.4472 0)
(0.8944 0.4472 0)
(0.8944 0.4472 0)
(0.8944 0.4472 0)
(0.8944 0.4472 0)
(0.8944 0.4472 0)
(0.8944 0.4472 0)
(0.8944 0.447199 0)
(0.894401 0.447201 0)
(0.894399 0.447199 0)
(0.894401 0.4472 0)
(0.894399 0.447201 0)
(0.894401 0.447199 0)
(0.8944 0.447201 0)
(0.894401 0.447199 0)
(0.894401 0.4472 0)
(0.8944 0.447201 0)
(0.894405 0.447202 0)
(0.894402 0.4472 0)
(0.894405 0.447202 0)
(0.894408 0.447206 0)
(0.894412 0.447204 0)
(0.894414 0.447209 0)
(0.894421 0.447213 0)
(0.894429 0.447213 0)
(0.894434 0.447224 0)
(0.894444 0.447228 0)
(0.894454 0.447234 0)
(0.894461 0.447246 0)
(0.894464 0.447253 0)
(0.894461 0.447256 0)
(0.894446 0.447257 0)
(0.894404 0.447241 0)
(0.894327 0.447204 0)
(0.8942 0.447132 0)
(0.893994 0.447004 0)
(0.893672 0.446788 0)
(0.8932 0.446453 0)
(0.892531 0.445943 0)
(0.8916 0.445196 0)
(0.89034 0.444134 0)
(0.8887 0.442674 0)
(0.886632 0.440722 0)
(0.894415 0.447191 0)
(0.894411 0.447193 0)
(0.894408 0.447195 0)
(0.894406 0.447197 0)
(0.894404 0.447198 0)
(0.894403 0.447199 0)
(0.894402 0.447199 0)
(0.894401 0.447199 0)
(0.894401 0.4472 0)
(0.894401 0.4472 0)
(0.8944 0.4472 0)
(0.8944 0.4472 0)
(0.8944 0.4472 0)
(0.8944 0.4472 0)
(0.8944 0.4472 0)
(0.8944 0.4472 0)
(0.8944 0.4472 0)
(0.8944 0.4472 0)
(0.8944 0.4472 0)
(0.8944 0.4472 0)
(0.8944 0.4472 0)
(0.8944 0.4472 0)
(0.8944 0.4472 0)
(0.8944 0.4472 0)
(0.8944 0.4472 0)
(0.8944 0.4472 0)
(0.8944 0.4472 0)
(0.8944 0.4472 0)
(0.8944 0.4472 0)
(0.8944 0.4472 0)
(0.8944 0.4472 0)
(0.8944 0.4472 0)
(0.8944 0.447199 0)
(0.894399 0.447201 0)
(0.894401 0.4472 0)
(0.8944 0.4472 0)
(0.894399 0.4472 0)
(0.894401 0.4472 0)
(0.8944 0.4472 0)
(0.894399 0.4472 0)
(0.894402 0.447199 0)
(0.894398 0.447201 0)
(0.894401 0.447199 0)
(0.8944 0.447201 0)
(0.894399 0.4472 0)
(0.894401 0.4472 0)
(0.894401 0.447201 0)
(0.8944 0.4472 0)
(0.894402 0.447201 0)
(0.894401 0.4472 0)
(0.894405 0.447202 0)
(0.894403 0.447202 0)
(0.894406 0.447203 0)
(0.89441 0.447207 0)
(0.894413 0.447205 0)
(0.894418 0.447211 0)
(0.894422 0.447216 0)
(0.894433 0.447216 0)
(0.894438 0.447228 0)
(0.894448 0.447236 0)
(0.894454 0.447239 0)
(0.894459 0.447252 0)
(0.894461 0.447257 0)
(0.894448 0.447257 0)
(0.894418 0.44725 0)
(0.894363 0.447224 0)
(0.894265 0.44717 0)
(0.894104 0.447073 0)
(0.893856 0.446906 0)
(0.893486 0.446635 0)
(0.892952 0.446226 0)
(0.892209 0.44562 0)
(0.891198 0.444747 0)
(0.889865 0.443533 0)
(0.888165 0.441897 0)
(0.894413 0.447192 0)
(0.894409 0.447194 0)
(0.894407 0.447196 0)
(0.894405 0.447197 0)
(0.894404 0.447198 0)
(0.894402 0.447199 0)
(0.894402 0.447199 0)
(0.894401 0.447199 0)
(0.894401 0.4472 0)
(0.8944 0.4472 0)
(0.8944 0.4472 0)
(0.8944 0.4472 0)
(0.8944 0.4472 0)
(0.8944 0.4472 0)
(0.8944 0.4472 0)
(0.8944 0.4472 0)
(0.8944 0.4472 0)
(0.8944 0.4472 0)
(0.8944 0.447199 0)
(0.8944 0.447201 0)
(0.8944 0.447199 0)
(0.8944 0.4472 0)
(0.8944 0.4472 0)
(0.8944 0.4472 0)
(0.8944 0.4472 0)
(0.8944 0.4472 0)
(0.8944 0.447201 0)
(0.8944 0.447199 0)
(0.8944 0.447201 0)
(0.8944 0.4472 0)
(0.8944 0.4472 0)
(0.8944 0.4472 0)
(0.8944 0.4472 0)
(0.8944 0.4472 0)
(0.894401 0.447199 0)
(0.894399 0.447201 0)
(0.894401 0.4472 0)
(0.894399 0.447199 0)
(0.894401 0.447201 0)
(0.8944 0.4472 0)
(0.8944 0.4472 0)
(0.894401 0.4472 0)
(0.894399 0.4472 0)
(0.894401 0.447199 0)
(0.8944 0.447201 0)
(0.894399 0.447199 0)
(0.894402 0.447199 0)
(0.894399 0.447202 0)
(0.894402 0.4472 0)
(0.894403 0.4472 0)
(0.894401 0.447202 0)
(0.894405 0.447202 0)
(0.894406 0.447202 0)
(0.894408 0.447205 0)
(0.894409 0.447208 0)
(0.894417 0.447208 0)
(0.89442 0.447214 0)
(0.894427 0.447218 0)
(0.894433 0.447222 0)
(0.894442 0.447233 0)
(0.894449 0.447237 0)
(0.894453 0.447246 0)
(0.894456 0.447256 0)
(0.894449 0.447256 0)
(0.894429 0.447255 0)
(0.894387 0.44724 0)
(0.894314 0.447198 0)
(0.894191 0.447126 0)
(0.893998 0.446999 0)
(0.893712 0.446786 0)
(0.893293 0.44646 0)
(0.892703 0.445975 0)
(0.891902 0.445267 0)
(0.890835 0.444273 0)
(0.889452 0.442919 0)
(0.894411 0.447193 0)
(0.894408 0.447195 0)
(0.894406 0.447196 0)
(0.894404 0.447197 0)
(0.894403 0.447198 0)
(0.894402 0.447199 0)
(0.894401 0.447199 0)
(0.894401 0.447199 0)
(0.894401 0.4472 0)
(0.8944 0.4472 0)
(0.8944 0.4472 0)
(0.8944 0.4472 0)
(0.8944 0.4472 0)
(0.8944 0.4472 0)
(0.8944 0.4472 0)
(0.8944 0.4472 0)
(0.8944 0.4472 0)
(0.8944 0.4472 0)
(0.8944 0.4472 0)
(0.8944 0.4472 0)
(0.8944 0.4472 0)
(0.8944 0.4472 0)
(0.8944 0.4472 0)
(0.8944 0.4472 0)
(0.8944 0.4472 0)
(0.8944 0.4472 0)
(0.8944 0.4472 0)
(0.8944 0.4472 0)
(0.8944 0.4472 0)
(0.8944 0.4472 0)
(0.894399 0.4472 0)
(0.8944 0.4472 0)
(0.8944 0.4472 0)
(0.894399 0.4472 0)
(0.894401 0.447199 0)
(0.8944 0.447201 0)
(0.8944 0.4472 0)
(0.8944 0.4472 0)
(0.894399 0.4472 0)
(0.894401 0.4472 0)
(0.894399 0.447201 0)
(0.8944 0.4472 0)
(0.894401 0.4472 0)
(0.894399 0.4472 0)
(0.894401 0.447201 0)
(0.894401 0.4472 0)
(0.894399 0.447199 0)
(0.894402 0.447201 0)
(0.8944 0.4472 0)
(0.894402 0.447202 0)
(0.894401 0.447201 0)
(0.894403 0.447201 0)
(0.894406 0.447203 0)
(0.894405 0.447203 0)
(0.89441 0.447206 0)
(0.894413 0.447209 0)
(0.894418 0.44721 0)
(0.894421 0.447217 0)
(0.894431 0.44722 0)
(0.894435 0.447227 0)
(0.894443 0.447236 0)
(0.89445 0.447243 0)
(0.894449 0.447249 0)
(0.894448 0.447258 0)
(0.894435 0.447258 0)
(0.894403 0.447244 0)
(0.894349 0.447221 0)
(0.894257 0.447167 0)
(0.89411 0.447068 0)
(0.893887 0.446907 0)
(0.893562 0.44665 0)
(0.893102 0.446263 0)
(0.892468 0.445699 0)
(0.891623 0.444899 0)
(0.890521 0.443792 0)
(0.894409 0.447194 0)
(0.894407 0.447195 0)
(0.894405 0.447197 0)
(0.894403 0.447198 0)
(0.894403 0.447198 0)
(0.894402 0.447199 0)
(0.894401 0.447199 0)
(0.894401 0.4472 0)
(0.894401 0.4472 0)
(0.8944 0.4472 0)
(0.8944 0.4472 0)
(0.8944 0.4472 0)
(0.8944 0.4472 0)
(0.8944 0.4472 0)
(0.8944 0.4472 0)
(0.8944 0.4472 0)
(0.8944 0.4472 0)
(0.8944 0.4472 0)
(0.8944 0.4472 0)
(0.8944 0.4472 0)
(0.8944 0.4472 0)
(0.8944 0.4472 0)
(0.8944 0.4472 0)
(0.8944 0.4472 0)
(0.8944 0.4472 0)
(0.8944 0.4472 0)
(0.8944 0.4472 0)
(0.8944 0.4472 0)
(0.8944 0.4472 0)
(0.8944 0.4472 0)
(0.8944 0.4472 0)
(0.8944 0.447199 0)
(0.894399 0.447201 0)
(0.894401 0.4472 0)
(0.894399 0.4472 0)
(0.8944 0.4472 0)
(0.8944 0.447199 0)
(0.894401 0.447202 0)
(0.894399 0.447199 0)
(0.894402 0.4472 0)
(0.894399 0.447201 0)
(0.8944 0.447199 0)
(0.8944 0.4472 0)
(0.8944 0.4472 0)
(0.894399 0.4472 0)
(0.894401 0.4472 0)
(0.894401 0.4472 0)
(0.8944 0.4472 0)
(0.894402 0.4472 0)
(0.8944 0.447201 0)
(0.894403 0.447201 0)
(0.894401 0.447202 0)
(0.894405 0.447201 0)
(0.894404 0.447204 0)
(0.894409 0.447205 0)
(0.89441 0.447207 0)
(0.894416 0.44721 0)
(0.894419 0.447215 0)
(0.894425 0.447217 0)
(0.894432 0.447225 0)
(0.894437 0.447232 0)
(0.894442 0.447238 0)
(0.894447 0.447247 0)
(0.894444 0.447254 0)
(0.894435 0.447256 0)
(0.894415 0.447251 0)
(0.894374 0.447234 0)
(0.894305 0.447196 0)
(0.894194 0.447122 0)
(0.894024 0.447 0)
(0.893773 0.446804 0)
(0.893418 0.4465 0)
(0.892924 0.446054 0)
(0.892259 0.445416 0)
(0.89139 0.444527 0)
(0.894407 0.447194 0)
(0.894406 0.447196 0)
(0.894404 0.447197 0)
(0.894403 0.447198 0)
(0.894402 0.447199 0)
(0.894401 0.447199 0)
(0.894401 0.447199 0)
(0.894401 0.4472 0)
(0.8944 0.4472 0)
(0.8944 0.4472 0)
(0.8944 0.4472 0)