/*--------------------------------*- C++ -*----------------------------------*\
  =========                 |
  \\      /  F ield         | OpenFOAM: The Open Source CFD Toolbox
   \\    /   O peration     | Website:  https://openfoam.org
    \\  /    A nd           | Version:  6
     \\/     M anipulation  |
\*---------------------------------------------------------------------------*/
FoamFile
{
    version     2.0;
    format      ascii;
    class       surfaceScalarField;
    location    "3.57";
    object      phi;
}
// * * * * * * * * * * * * * * * * * * * * * * * * * * * * * * * * * * * * * //

dimensions      [0 3 -1 0 0 0 0];

internalField   nonuniform List<scalar> 
8193
(
0.0904504
-0.180931
-0.0856786
0.0923125
-0.186755
0.0928511
-0.190117
0.0925613
-0.192572
0.091428
-0.194202
0.0894231
-0.195044
0.0865574
-0.19531
0.0828935
-0.195265
0.0784321
-0.194997
0.0732045
-0.19459
0.0672842
-0.194356
0.0607101
-0.195
0.0529559
-0.196421
0.0428924
-0.194345
0.0291275
-0.180436
0.0138305
-0.150175
0.000561339
-0.120901
-0.0102942
-0.109535
-0.0209338
-0.116854
-0.0330779
-0.130078
-0.0460481
-0.139028
-0.0582514
-0.144748
-0.068851
-0.149524
-0.0776607
-0.15457
-0.084656
-0.160613
-0.0900431
-0.167438
-0.094162
-0.174349
-0.0972725
-0.180793
-0.0996168
-0.186319
-0.10136
-0.190832
-0.102621
-0.194314
-0.103456
-0.196925
-0.103849
-0.198732
-0.103888
-0.199932
-0.103629
-0.200636
-0.103055
-0.200866
-0.102104
-0.200579
-0.100703
-0.199795
-0.0986092
-0.198649
-0.0951687
-0.196384
-0.190556
-0.0889501
0.095895
-0.187608
-0.0966389
0.0938497
-0.192189
0.0921839
-0.195854
0.0904257
-0.198016
0.0881645
-0.198834
0.0853089
-0.198677
0.0818006
-0.197804
0.0775838
-0.196495
0.0725892
-0.194838
0.0667959
-0.192976
0.0602809
-0.191329
0.053026
-0.190519
0.0443449
-0.189787
0.0332197
-0.184533
0.018698
-0.166498
0.0044425
-0.135786
-0.00677936
-0.108847
-0.0156668
-0.0991436
-0.0251676
-0.105211
-0.0366679
-0.11584
-0.049152
-0.123259
-0.0610535
-0.129072
-0.0712968
-0.135082
-0.0792915
-0.142026
-0.0847463
-0.150339
-0.0875779
-0.159609
-0.0881853
-0.168665
-0.0871802
-0.176749
-0.0852798
-0.183311
-0.0832031
-0.188261
-0.0816232
-0.191632
-0.0809203
-0.193879
-0.0811574
-0.195387
-0.0823377
-0.196409
-0.0844124
-0.197101
-0.087248
-0.197564
-0.0906449
-0.197803
-0.0943415
-0.197886
-0.0981674
-0.197833
-0.101684
-0.197127
-0.195884
-0.101867
0.0957488
-0.195005
-0.0999775
0.0924938
-0.200102
0.089775
-0.203692
0.0869926
-0.205051
0.0838916
-0.204707
0.0803545
-0.203189
0.076279
-0.200794
0.0715146
-0.197772
0.0659545
-0.194271
0.0596072
-0.190566
0.0525701
-0.18718
0.0447799
-0.184584
0.0355591
-0.181415
0.0238177
-0.172671
0.00962925
-0.151263
-0.00310848
-0.121125
-0.0124806
-0.096731
-0.0198676
-0.0882551
-0.0280511
-0.092837
-0.0378365
-0.101249
-0.0484055
-0.107351
-0.0585432
-0.113149
-0.0673479
-0.120141
-0.0741602
-0.128829
-0.0782791
-0.1397
-0.0794158
-0.151934
-0.077702
-0.16395
-0.0735767
-0.174691
-0.067888
-0.183204
-0.0616448
-0.189245
-0.0561452
-0.19256
-0.0524312
-0.193862
-0.050999
-0.19408
-0.0519187
-0.193888
-0.0550771
-0.193618
-0.0602957
-0.193419
-0.0672699
-0.193406
-0.0755878
-0.193728
-0.084821
-0.194392
-0.0946182
-0.194773
-0.19536
-0.104211
0.0960314
-0.204839
-0.101483
0.0915603
-0.209929
0.0874765
-0.212767
0.0834761
-0.212952
0.0793651
-0.211154
0.0749628
-0.207945
0.0700829
-0.203641
0.0645295
-0.198508
0.0582414
-0.192846
0.0512551
-0.187046
0.0436721
-0.18171
0.0353371
-0.177063
0.0255003
-0.171158
0.0133405
-0.158928
0.00014585
-0.1354
-0.0106389
-0.106671
-0.0179414
-0.0848457
-0.0237093
-0.0770834
-0.0302553
-0.080163
-0.0381483
-0.0866048
-0.0466288
-0.0916029
-0.0548289
-0.097278
-0.0619214
-0.105093
-0.0671124
-0.115525
-0.0700977
-0.128578
-0.0705713
-0.143443
-0.0678805
-0.158895
-0.061998
-0.173257
-0.0537034
-0.184779
-0.0439686
-0.193028
-0.0343529
-0.197169
-0.0265601
-0.197769
-0.0218348
-0.196216
-0.0207782
-0.19382
-0.0234072
-0.191486
-0.0294548
-0.18963
-0.0386018
-0.188397
-0.0505011
-0.187937
-0.0645376
-0.18849
-0.0799601
-0.189527
-0.191178
-0.096331
0.0954577
-0.216441
-0.102166
0.0896176
-0.220895
0.0842159
-0.222534
0.0790143
-0.221185
0.0738167
-0.217598
0.0683937
-0.212344
0.0625398
-0.20579
0.0561179
-0.198297
0.0490835
-0.190278
0.0415082
-0.182257
0.0334665
-0.174852
0.0246985
-0.167966
0.0145027
-0.159217
0.00255124
-0.14392
-0.00902321
-0.119564
-0.0175744
-0.0927638
-0.0227074
-0.0733771
-0.0266424
-0.0659495
-0.0311154
-0.0677469
-0.0365476
-0.0726081
-0.0422784
-0.0768128
-0.0477898
-0.0823444
-0.0525577
-0.0906781
-0.0559903
-0.102366
-0.0576483
-0.117265
-0.056733
-0.134938
-0.0530811
-0.15353
-0.0464445
-0.171459
-0.0370535
-0.186504
-0.0255749
-0.197801
-0.0133337
-0.203862
-0.00216289
-0.204747
0.00630604
-0.202043
0.0106042
-0.197216
0.0101103
-0.192006
0.00490508
-0.187515
-0.00466552
-0.184128
-0.018226
-0.181995
-0.0354361
-0.181283
-0.0554774
-0.181898
-0.183741
-0.0777131
0.0937487
-0.229063
-0.101759
0.0865023
-0.232303
0.0797023
-0.2323
0.0731809
-0.229076
0.0667418
-0.223389
0.0601601
-0.215815
0.0532646
-0.206806
0.0459589
-0.196821
0.0382406
-0.186388
0.0302027
-0.176143
0.0218526
-0.166631
0.0128466
-0.157413
0.00267016
-0.145942
-0.00834876
-0.12838
-0.0178654
-0.104236
-0.0239132
-0.0797489
-0.0267475
-0.0625534
-0.0284476
-0.0553732
-0.0303614
-0.0562066
-0.0326933
-0.0600381
-0.0349672
-0.0638311
-0.0367699
-0.06951
-0.0380798
-0.0781641
-0.0386214
-0.0906058
-0.0375171
-0.107304
-0.0340259
-0.12769
-0.0292298
-0.148098
-0.0225096
-0.168655
-0.013382
-0.187012
-0.00200458
-0.201673
0.0107303
-0.210418
0.0231567
-0.212538
0.033977
-0.209984
0.0413818
-0.203705
0.0437407
-0.195608
0.0405224
-0.187876
0.031966
-0.181642
0.0184195
-0.177132
0.000138812
-0.174384
-0.0223979
-0.173482
-0.174358
-0.0486294
0.0902272
-0.241853
-0.0996555
0.0815143
-0.243412
0.0732359
-0.241372
0.0652973
-0.235982
0.0575338
-0.227968
0.0497618
-0.217921
0.0418587
-0.206384
0.0337775
-0.193914
0.0255546
-0.181144
0.0172674
-0.168763
0.00884104
-0.157177
-9.07822e-05
-0.145662
-0.00974138
-0.131829
-0.0191697
-0.112995
-0.0261802
-0.0899267
-0.0294634
-0.0679747
-0.0297841
-0.0526995
-0.0287874
-0.0459436
-0.027595
-0.0462287
-0.0261529
-0.0497156
-0.0240735
-0.0537038
-0.0211261
-0.0599641
-0.0171383
-0.0695326
-0.0121568
-0.0830091
-0.00628752
-0.100811
-0.000217057
-0.121799
0.00569656
-0.142643
0.0121552
-0.164543
0.0201836
-0.185479
0.0300434
-0.203201
0.0417547
-0.215253
0.0538063
-0.219398
0.0646312
-0.21753
0.0734139
-0.211344
0.0778892
-0.201287
0.0768366
-0.19057
0.0699666
-0.181231
0.0575277
-0.174006
0.0397986
-0.168925
0.0169516
-0.16592
-0.165092
-0.0106231
0.0842531
-0.253952
-0.0952062
0.0739495
-0.253425
0.0641237
-0.249083
0.0547385
-0.241351
0.0456768
-0.230914
0.036814
-0.218388
0.028074
-0.20439
0.0194536
-0.189573
0.0110041
-0.174643
0.00275405
-0.16028
-0.00544041
-0.146724
-0.0138524
-0.133129
-0.0223243
-0.11754
-0.0296074
-0.0983656
-0.0338381
-0.0769841
-0.0341708
-0.0577274
-0.0316092
-0.0443043
-0.02743
-0.038282
-0.022571
-0.0385198
-0.0167808
-0.0423676
-0.00959266
-0.0473413
-0.000952318
-0.0548024
0.00902957
-0.0656267
0.020007
-0.080185
0.0307592
-0.0980277
0.040343
-0.118303
0.0489728
-0.138847
0.0563239
-0.160332
0.0635317
-0.182208
0.0712708
-0.201772
0.0803272
-0.216687
0.0910929
-0.224325
0.100947
-0.223568
0.108716
-0.217555
0.113465
-0.20696
0.113778
-0.194497
0.10867
-0.182615
0.0978712
-0.172732
0.0815108
-0.165243
0.0597249
-0.160044
-0.157111
0.0325761
0.0749619
-0.264507
-0.0875564
0.0630239
-0.261647
0.0516917
-0.254908
0.0409693
-0.24481
0.0307888
-0.232001
0.0210851
-0.217131
0.011823
-0.200872
0.00301651
-0.183949
-0.00529769
-0.167103
-0.0131569
-0.150953
-0.020724
-0.135622
-0.0280874
-0.120341
-0.034787
-0.103703
-0.0394762
-0.0850029
-0.0406553
-0.0657698
-0.0379232
-0.049233
-0.0321047
-0.0378713
-0.0242974
-0.0329762
-0.0152972
-0.0337059
-0.00487642
-0.0384333
0.00766526
-0.0451469
0.0222876
-0.0544705
0.0384348
-0.0667684
0.0550528
-0.0819197
0.0707951
-0.0991899
0.0846151
-0.118036
0.0962936
-0.137134
0.105612
-0.157165
0.112969
-0.178208
0.119231
-0.198038
0.125163
-0.214222
0.13214
-0.224749
0.139889
-0.226854
0.1463
-0.221833
0.150393
-0.211486
0.151017
-0.198337
0.147157
-0.184952
0.138155
-0.173078
0.12378
-0.163502
0.10398
-0.156257
-0.151336
0.0787677
0.0615166
-0.272832
-0.0757404
0.0480723
-0.267601
0.0354452
-0.258541
0.0236684
-0.246206
0.0127129
-0.231214
0.00255763
-0.214252
-0.0068002
-0.196036
-0.0153494
-0.17732
-0.0231003
-0.158842
-0.0301375
-0.141154
-0.0365824
-0.124347
-0.0423426
-0.107868
-0.046755
-0.0908824
-0.0485463
-0.0732901
-0.0465391
-0.0565207
-0.0406294
-0.0427254
-0.0313277
-0.0337632
-0.0196354
-0.0304309
-0.00631312
-0.0321237
0.00872205
-0.0380563
0.026356
-0.0470205
0.046259
-0.058426
0.0675081
-0.0720481
0.0889526
-0.0875443
0.109235
-0.103981
0.126883
-0.12071
0.141242
-0.137238
0.152563
-0.155157
0.160719
-0.174185
0.166482
-0.193002
0.170998
-0.209561
0.174981
-0.221421
0.17955
-0.226227
0.183854
-0.223301
0.186651
-0.214045
0.186873
-0.201145
0.183615
-0.187308
0.176172
-0.174455
0.164051
-0.163553
0.146924
-0.154759
-0.148247
0.124688
0.0433177
-0.278543
-0.0589158
0.0287196
-0.271096
0.0151956
-0.259924
0.00281464
-0.245612
-0.0084228
-0.228742
-0.018514
-0.210031
-0.0274566
-0.190215
-0.0352616
-0.170054
-0.0419792
-0.150258
-0.0477084
-0.131338
-0.0525005
-0.113438
-0.0561256
-0.096286
-0.0578551
-0.079544
-0.056584
-0.0634853
-0.0514549
-0.0492859
-0.0423192
-0.0383825
-0.0295873
-0.0320693
-0.0141315
-0.0306761
0.00326603
-0.0336842
0.0226587
-0.0411414
0.0446284
-0.0523674
0.0685154
-0.0655321
0.0933631
-0.0801176
0.117851
-0.0954235
0.140672
-0.110537
0.160037
-0.124339
0.17643
-0.138618
0.189285
-0.15393
0.198358
-0.170322
0.20424
-0.187326
0.208057
-0.203433
0.210992
-0.216267
0.213815
-0.223066
0.216421
-0.222271
0.218079
-0.214654
0.217914
-0.202744
0.215186
-0.189365
0.20923
-0.176487
0.199442
-0.165107
0.185333
-0.155459
-0.147841
0.166581
0.0202166
-0.281598
-0.0366742
0.00501922
-0.272218
-0.00882496
-0.259246
-0.0212283
-0.243299
-0.0321569
-0.224933
-0.0416011
-0.204868
-0.0495722
-0.183839
-0.0561118
-0.162592
-0.0612956
-0.141814
-0.0652123
-0.122011
-0.0678491
-0.103431
-0.0689094
-0.0860856
-0.0677019
-0.0700283
-0.0633471
-0.0557162
-0.0552087
-0.0440759
-0.0431359
-0.0360521
-0.0274424
-0.032468
-0.00879698
-0.0332925
0.0120784
-0.0379494
0.0350308
-0.0470524
0.0601101
-0.0601233
0.086549
-0.0745165
0.113163
-0.0892999
0.138727
-0.103739
0.161698
-0.116609
0.181624
-0.127895
0.198481
-0.139821
0.211801
-0.152511
0.22141
-0.16632
0.227617
-0.181272
0.231428
-0.196563
0.234024
-0.210001
0.236256
-0.218497
0.238258
-0.219772
0.239578
-0.214008
0.239614
-0.203572
0.237736
-0.191244
0.233427
-0.179079
0.226156
-0.168035
0.215386
-0.158298
-0.1501
0.200551
-0.00732129
-0.282215
-0.00931671
-0.0224208
-0.271283
-0.0359028
-0.256885
-0.0476527
-0.239703
-0.0576535
-0.220227
-0.0658652
-0.199223
-0.0723272
-0.177367
-0.0770983
-0.155401
-0.080265
-0.133995
-0.0818891
-0.113686
-0.0819168
-0.0948393
-0.0800676
-0.077694
-0.0758028
-0.0625575
-0.0684224
-0.0500428
-0.0575043
-0.0407925
-0.0429619
-0.0354084
-0.0250155
-0.0344002
-0.00412747
-0.0374885
0.0191402
-0.0439926
0.0443739
-0.0546716
0.0711443
-0.0690302
0.0984948
-0.0838968
0.12527
-0.0981442
0.150099
-0.110826
0.171871
-0.12099
0.191224
-0.130375
0.207498
-0.139919
0.220377
-0.150103
0.229738
-0.161485
0.236025
-0.174666
0.24004
-0.189213
0.242739
-0.203091
0.244852
-0.212989
0.246739
-0.216261
0.248397
-0.212717
0.249225
-0.204116
0.248724
-0.193322
0.246386
-0.182359
0.241692
-0.172144
0.234148
-0.162854
-0.154615
0.223193
-0.0381313
-0.280768
0.0220435
-0.0523761
-0.268767
-0.0648066
-0.25331
-0.0752345
-0.23533
-0.0837105
-0.215108
-0.0901505
-0.193565
-0.0946378
-0.171234
-0.0972009
-0.148924
-0.0979452
-0.127238
-0.0968911
-0.106806
-0.0939961
-0.0880576
-0.08902
-0.0714281
-0.0815334
-0.0574108
-0.0711815
-0.0465387
-0.0577136
-0.0393435
-0.0411059
-0.0361928
-0.0215521
-0.0373719
0.000665603
-0.0425066
0.025069
-0.0507149
0.0510569
-0.0626301
0.0780808
-0.0778079
0.104759
-0.0922447
0.130037
-0.105144
0.152679
-0.115383
0.173042
-0.123609
0.191028
-0.131119
0.205908
-0.138225
0.217806
-0.146277
0.22625
-0.155246
0.232063
-0.167041
0.235805
-0.180971
0.238488
-0.195465
0.240763
-0.206851
0.242902
-0.212105
0.244905
-0.210758
0.246603
-0.20439
0.247563
-0.195585
0.247182
-0.186173
0.244896
-0.177082
0.240173
-0.168489
-0.16053
0.232534
-0.0703281
-0.277709
0.0554808
-0.0830042
-0.265198
-0.0938438
-0.248927
-0.102368
-0.230674
-0.108875
-0.209969
-0.113105
-0.188321
-0.115289
-0.165785
-0.115317
-0.143531
-0.113375
-0.121875
-0.109397
-0.101704
-0.103406
-0.0833613
-0.0951774
-0.0675284
-0.0845374
-0.0546464
-0.0713017
-0.0452515
-0.0553927
-0.0397625
-0.036942
-0.0383305
-0.0161459
-0.0411692
0.0067304
-0.0478291
0.0314406
-0.0574423
0.057117
-0.0700169
0.0830224
-0.085238
0.107516
-0.0981991
0.130305
-0.109456
0.150405
-0.117197
0.168626
-0.123873
0.184159
-0.129172
0.19714
-0.13436
0.207352
-0.140445
0.21423
-0.147063
0.219235
-0.158156
0.222094
-0.171312
0.224796
-0.187225
0.226814
-0.199712
0.228869
-0.206995
0.231083
-0.208004
0.233553
-0.204279
0.235738
-0.197749
0.23696
-0.190089
0.236505
-0.182159
0.233998
-0.174442
-0.166945
0.228974
-0.101509
-0.273262
0.0882472
-0.111979
-0.261134
-0.120974
-0.243945
-0.127121
-0.226194
-0.131492
-0.204994
-0.133168
-0.183873
-0.132959
-0.161173
-0.130245
-0.13951
-0.125592
-0.118024
-0.118661
-0.098516
-0.109654
-0.0807887
-0.0984162
-0.0658808
-0.0849148
-0.0541078
-0.06917
-0.0459476
-0.0512387
-0.0417759
-0.0313093
-0.0416052
-0.00968409
-0.0455289
0.0137789
-0.0535351
0.0382988
-0.0638282
0.0633397
-0.0766581
0.0872773
-0.09062
0.108745
-0.101066
0.128988
-0.111167
0.145703
-0.115566
0.161566
-0.121705
0.173245
-0.123266
0.184312
-0.128435
0.19101
-0.130899
0.196182
-0.136907
0.199844
-0.147582
0.201082
-0.159591
0.204483
-0.179134
0.204861
-0.19026
0.207741
-0.2019
0.209641
-0.203969
0.213113
-0.204034
0.215782
-0.199077
0.218157
-0.193636
0.21869
-0.186483
0.217659
-0.179898
-0.172611
0.214107
-0.129006
0.117663
-0.137052
-0.143941
-0.147575
-0.149707
-0.148739
-0.146145
-0.140721
-0.133548
-0.123857
-0.112204
-0.0983975
-0.0825328
-0.0648707
-0.0453786
-0.0244239
-0.00214459
0.0209546
0.0447692
0.0680376
0.0896836
0.107793
0.125752
0.139305
0.153439
0.161557
0.169493
0.171925
0.174169
0.176182
0.175124
0.17894
0.178006
0.182249
0.183581
0.187969
0.190724
0.193647
0.194404
0.193998
0.190791
0.185708
0.170549
0.198893
0.189874
0.212304
0.202502
0.22369
0.206243
0.230665
0.199711
0.230857
0.182564
0.222984
0.155742
0.207045
0.121416
0.183804
0.0827532
0.155036
0.0425152
0.123145
0.00334408
0.090413
-0.0324521
0.0603308
-0.0623781
0.0358012
-0.0843454
0.0182135
-0.0966235
0.00840171
-0.0992405
-0.0847225
0.177747
0.149347
0.190096
0.165493
0.202524
0.176195
0.213295
0.179881
0.220499
0.175395
0.22228
0.162401
0.217252
0.141417
0.20494
0.113745
0.185907
0.081546
0.161352
0.0469674
0.132915
0.0122215
0.102558
-0.0207109
0.072754
-0.0498553
0.0462993
-0.0734746
0.0254513
-0.0893352
0.0107112
-0.0957561
-0.0827389
0.170032
0.128242
0.181361
0.141548
0.192777
0.150467
0.202837
0.15391
0.209989
0.150886
0.212701
0.14108
0.209755
0.124739
0.20048
0.102654
0.185043
0.0761767
0.164167
0.0469224
0.139004
0.0166868
0.111158
-0.012996
0.0825923
-0.0405159
0.0555404
-0.0644173
0.0323551
-0.0826092
0.0141542
-0.0922058
-0.0811913
0.162475
0.107388
0.172851
0.118342
0.183212
0.125712
0.192456
0.128781
0.199284
0.126793
0.202449
0.119419
0.200902
0.106741
0.193958
0.089221
0.181462
0.0677031
0.163773
0.0433123
0.141755
0.0173531
0.116527
-0.00888296
0.0895492
-0.0341289
0.0625677
-0.0572153
0.0377415
-0.0764772
0.0168198
-0.0886365
-0.0801496
0.155239
0.087349
0.16464
0.0962206
0.173923
0.102268
0.182251
0.104899
0.188574
0.103601
0.191862
0.0980578
0.191206
0.0882557
0.185956
0.0744282
0.175816
0.0570841
0.160892
0.0369717
0.14168
0.0150171
0.118964
-0.00776273
0.0938573
-0.0304215
0.0677083
-0.0520264
0.0421813
-0.0712296
0.0191803
-0.0850014
-0.0792028
0.148272
0.0683657
0.156687
0.0754749
0.164924
0.0803715
0.172305
0.0825591
0.178003
0.0816953
0.18116
0.0775217
0.181018
0.0699457
0.17697
0.0590739
0.168654
0.0451912
0.155999
0.0287701
0.139236
0.0104516
0.118897
-0.00903273
0.0957395
-0.0289572
0.0708114
-0.048671
0.0453719
-0.0670364
0.0210936
-0.0814388
-0.078096
0.141418
0.0507104
0.148877
0.0562989
0.156117
0.0601949
0.162559
0.0619706
0.167563
0.0613643
0.170436
0.0581912
0.170527
0.0523342
0.167298
0.0438064
0.160364
0.0327567
0.149546
0.0194679
0.134903
0.00435663
0.116727
-0.0120639
0.0955274
-0.0292769
0.0720508
-0.0468601
0.0472861
-0.0639124
0.0224745
-0.0780694
-0.0766918
0.134641
0.0345367
0.141136
0.0388767
0.14741
0.0418756
0.15295
0.0432648
0.157234
0.042806
0.159717
0.040353
0.159849
0.0358077
0.157153
0.0291264
0.151255
0.0203698
0.141917
0.0096977
0.129078
-0.00263546
0.112862
-0.0162925
0.0935647
-0.0309156
0.0716577
-0.0462493
0.0479174
-0.0616911
0.0231752
-0.074926
-0.0750491
0.127626
0.0199402
0.13327
0.023217
0.13864
0.0254729
0.143341
0.0264988
0.146937
0.0261118
0.148985
0.0241844
0.149042
0.020629
0.146685
0.0153938
0.141563
0.00848146
0.133418
-3.00812e-05
0.122108
-0.00999256
0.10764
-0.0212037
0.0901586
-0.0334376
0.0699199
-0.0465377
0.0474498
-0.0601651
0.0233831
-0.0721071
-0.0730984
0.120441
0.00695204
0.125249
0.00938306
0.129775
0.0109986
0.133686
0.0116983
0.136627
0.0113271
0.13823
0.00978031
0.138131
0.00697672
0.135978
0.00286067
0.131445
-0.00258129
0.124268
-0.00932232
0.114266
-0.0172891
0.10136
-0.0263705
0.0855852
-0.0364472
0.0670418
-0.047418
0.0460193
-0.0591261
0.0230222
-0.0695664
-0.0709129
0.112691
-0.00444132
0.116799
-0.00272943
0.120582
-0.0016157
0.1238
-0.00120203
0.126162
-0.00158825
0.127367
-0.00286159
0.127108
-0.00508967
0.12508
-0.00832405
0.121003
-0.0125934
0.114626
-0.0178939
0.105751
-0.0241952
0.0942504
-0.0314517
0.0800768
-0.0396139
0.063232
-0.0486232
0.0438233
-0.058421
0.0222129
-0.0672503
-0.0685155
0.104621
-0.0143039
0.108045
-0.0131386
0.111155
-0.0124436
0.113743
-0.0122692
0.115573
-0.0126816
0.1164
-0.0137552
0.115969
-0.0155425
0.114024
-0.018087
0.110314
-0.0214179
0.104612
-0.0255475
0.0967263
-0.030475
0.0865046
-0.0361893
0.0738442
-0.042682
0.0586752
-0.0499216
0.0409866
-0.0579019
0.0210118
-0.0651043
-0.0659426
0.0958483
-0.0227268
0.0987271
-0.022014
0.101275
-0.0216301
0.103335
-0.0216369
0.104726
-0.022077
0.105243
-0.0229935
0.104673
-0.0244299
0.1028
-0.0264219
0.0994135
-0.028998
0.0943134
-0.0321781
0.0873194
-0.0359754
0.0782747
-0.040397
0.0670486
-0.0454557
0.0535268
-0.0511307
0.0376222
-0.057438
0.0194542
-0.0630597
-0.0632624
0.0866902
-0.0297994
0.0890293
-0.0294138
0.0910694
-0.0292824
0.0926692
-0.0294281
0.0936749
-0.0298788
0.093921
-0.0306635
0.0932329
-0.0318139
0.0914338
-0.0333601
0.0883473
-0.035328
0.0838018
-0.0377386
0.0776337
-0.0406092
0.0696909
-0.0439547
0.0598303
-0.0477926
0.0479208
-0.0521096
0.0338317
-0.0569182
0.0176042
-0.0610676
-0.0605403
0.0769166
-0.0356596
0.0788387
-0.0355262
0.0804638
-0.0355614
0.0816828
-0.0357895
0.0823728
-0.0362235
0.0824026
-0.0368823
0.0816359
-0.0377906
0.0799322
-0.0389721
0.0771471
-0.0404465
0.0731355
-0.0422315
0.067753
-0.0443424
0.0608605
-0.0467961
0.0523143
-0.0496026
0.0419903
-0.0527649
0.0297271
-0.0562547
0.0155361
-0.0590903
-0.0578221
0.0667972
-0.0403967
0.0683024
-0.0404232
0.0695435
-0.0405712
0.0704236
-0.0408365
0.0708431
-0.0412287
0.0707017
-0.0417646
0.0698941
-0.0424629
0.0683088
-0.0433396
0.0658299
-0.0444082
0.0623384
-0.0456814
0.0577128
-0.0471701
0.051833
-0.0488906
0.0445717
-0.0508432
0.0358256
-0.0530524
0.0254034
-0.0553992
0.0133334
-0.0571192
-0.0551157
0.0562515
-0.0441286
0.0574173
-0.0442526
0.0583268
-0.044436
0.0589131
-0.0446867
0.0591085
-0.0450124
0.0588397
-0.0454241
0.0580263
-0.0459323
0.0565817
-0.0465458
0.054416
-0.0472737
0.0514365
-0.0481249
0.0475485
-0.0491067
0.0426534
-0.0502299
0.0366514
-0.0514921
0.0294511
-0.0529245
0.0208795
-0.0543245
0.0109657
-0.0551279
-0.0524972
0.0454812
-0.0469359
0.0463018
-0.0470719
0.0469002
-0.0472409
0.0472269
-0.0474389
0.0472335
-0.0476744
0.0468681
-0.0479542
0.0460733
-0.048283
0.044787
-0.0486644
0.0429437
-0.0491031
0.0404754
-0.0496049
0.0373139
-0.0501759
0.0333867
-0.0508218
0.0286229
-0.0515404
0.0229282
-0.0523386
0.0162049
-0.0530092
0.00850169
-0.0531327
-0.0500035
0.0345043
-0.0488773
0.035018
-0.0489707
0.0353303
-0.0490628
0.0354197
-0.0491675
0.0352598
-0.0492883
0.0348177
-0.0494251
0.0340574
-0.0495792
0.0329413
-0.0497525
0.0314293
-0.0499466
0.0294788
-0.0501642
0.0270445
-0.0504087
0.0240795
-0.0506831
0.0205441
-0.0509921
0.0163721
-0.0513153
0.0115239
-0.0514714
0.00600978
-0.0510903
-0.0476252
0.0234738
-0.0500226
0.0236822
-0.0499863
0.0237257
-0.0499546
0.0235935
-0.0499235
0.0232728
-0.0498943
0.0227511
-0.0498673
0.0220157
-0.0498433
0.0210528
-0.0498231
0.0198484
-0.0498079
0.0183887
-0.0498002
0.0166594
-0.0498029
0.0146455
-0.0498182
0.0123262
-0.049845
0.0096682
-0.0498497
0.00667855
-0.0496916
0.00334866
-0.0489845
-0.0455116
0.0124435
-0.050358
0.012367
-0.0501564
0.0121551
-0.0499464
0.0118124
-0.0497339
0.011345
-0.0495218
0.0107599
-0.0493114
0.0100655
-0.0491045
0.00927098
-0.048903
0.00838609
-0.0487089
0.00742231
-0.0485264
0.00639481
-0.0483623
0.00531738
-0.0482177
0.00419645
-0.0480843
0.00304725
-0.0479375
0.00189072
-0.0476428
0.000754582
-0.0468209
-0.043589
0.00151485
-0.049941
0.00114308
-0.049469
0.000662154
-0.0490216
9.30735e-05
-0.0485786
-0.000539267
-0.0481471
-0.00120764
-0.0477307
-0.00188151
-0.0473348
-0.00252788
-0.0469642
-0.00311077
-0.0466241
-0.00358885
-0.0463246
-0.00391834
-0.0460756
-0.00406042
-0.0458737
-0.00397364
-0.045714
-0.00360169
-0.0455876
-0.00291384
-0.0453352
-0.00185494
-0.0446029
-0.0418786
-0.00926745
-0.0486654
-0.00994487
-0.0478939
-0.0107085
-0.0471443
-0.0115217
-0.0464159
-0.0123398
-0.0457239
-0.0131132
-0.0450771
-0.0137881
-0.0444859
-0.0143064
-0.0439597
-0.0146042
-0.0435108
-0.0146108
-0.0431566
-0.0142558
-0.0429078
-0.0134724
-0.0427586
-0.0121808
-0.0427183
-0.0102926
-0.0427881
-0.00776971
-0.0427599
-0.00446609
-0.0423892
-0.0404015
-0.0198129
-0.0465707
-0.020819
-0.0453713
-0.0218981
-0.0442424
-0.0229897
-0.0431697
-0.0240277
-0.0421744
-0.0249395
-0.0412727
-0.0256464
-0.0404822
-0.0260634
-0.0398197
-0.026096
-0.0393078
-0.0256431
-0.0389727
-0.0246134
-0.0388164
-0.0229044
-0.0388465
-0.0203766
-0.039111
-0.0169593
-0.0395445
-0.0126148
-0.0399084
-0.00702694
-0.0402388
-0.0391434
-0.0300995
-0.0434996
-0.031464
-0.0418216
-0.0328896
-0.0402312
-0.0342973
-0.0387457
-0.0355954
-0.0374003
-0.0366837
-0.0362207
-0.0374549
-0.0352332
-0.0377923
-0.0344658
-0.0375697
-0.0339527
-0.0366625
-0.0337206
-0.0349465
-0.0337737
-0.0322845
-0.0341352
-0.0285348
-0.0348603
-0.0235856
-0.035857
-0.0173527
-0.0368624
-0.00957168
-0.0380957
-0.0381467
-0.0400827
-0.0394665
-0.0418428
-0.0371485
-0.0436592
-0.0350033
-0.045425
-0.0330359
-0.0470249
-0.0312918
-0.0483293
-0.0298128
-0.049198
-0.0286384
-0.0494815
-0.0278084
-0.0490228
-0.0273677
-0.0476658
-0.0273452
-0.0452541
-0.0277487
-0.0416217
-0.028615
-0.0366133
-0.0299924
-0.0301078
-0.0317588
-0.0219719
-0.0336679
-0.0120007
-0.0360147
-0.0373832
-0.0497715
-0.0342798
-0.0519655
-0.0312512
-0.0542196
-0.0284445
-0.0564007
-0.0259123
-0.0583588
-0.0237199
-0.0599287
-0.0219274
-0.0609331
-0.0205895
-0.0611859
-0.0197592
-0.0604961
-0.0194899
-0.0586757
-0.0198123
-0.055539
-0.0207366
-0.0508974
-0.0223075
-0.0445879
-0.0245529
-0.0364924
-0.0273113
-0.0264597
-0.0303747
-0.0143376
-0.0340449
-0.0368856
-0.0591738
-0.0279621
-0.0618564
-0.0240149
-0.0646135
-0.0204242
-0.0672743
-0.017242
-0.0696508
-0.0145542
-0.0715376
-0.0124433
-0.072715
-0.0109831
-0.0729559
-0.0102392
-0.0720328
-0.0102712
-0.0697244
-0.0111096
-0.0658191
-0.012761
-0.0601152
-0.0152669
-0.0524518
-0.0186209
-0.0427245
-0.0226119
-0.0307945
-0.0270729
-0.016567
-0.0322688
-0.0367169
-0.0683638
-0.0203008
-0.0715915
-0.0153321
-0.0749132
-0.0108245
-0.0781206
-0.00689761
-0.0809782
-0.00367065
-0.0832316
-0.00125135
-0.0846124
0.000266285
-0.084849
0.000805753
-0.0836758
0.000306145
-0.080837
-0.00126099
-0.0760964
-0.00389077
-0.069251
-0.0075998
-0.0601612
-0.0123264
-0.0487467
-0.0178083
-0.0349157
-0.023898
-0.0186432
-0.0308018
-0.0369485
-0.0774151
-0.0113665
-0.0812494
-0.00510628
-0.0852087
0.000468752
-0.0890297
0.00523215
-0.0924232
0.00903084
-0.0950785
0.0117271
-0.0966738
0.0132065
-0.0968882
0.0133844
-0.0954173
0.0122065
-0.0919794
0.00965693
-0.086322
0.00576004
-0.0782454
0.00054173
-0.0676367
-0.00585894
-0.0544751
-0.0130975
-0.0387527
-0.0210227
-0.0205245
-0.0297864
-0.0376712
-0.0864732
-0.000945775
-0.0909733
0.0067336
-0.0956312
0.0135349
-0.100126
0.0192299
-0.104103
0.0236206
-0.107183
0.0265348
-0.108984
0.0278399
-0.109128
0.0274486
-0.107273
0.0253244
-0.103117
0.0214841
-0.0964143
0.0159924
-0.086993
0.00893986
-0.0747725
0.000544036
-0.0598059
-0.00872712
-0.0422088
-0.0186697
-0.0221569
-0.0293848
-0.0389882
-0.095674
0.0107964
-0.100902
0.0202319
-0.106325
0.0284309
-0.111552
0.0351481
-0.11615
0.0401308
-0.119663
0.0431686
-0.121634
0.0441132
-0.12163
0.0428855
-0.119268
0.039483
-0.114233
0.0339778
-0.106301
0.0265093
-0.0953635
0.0172698
-0.081421
0.00657482
-0.0646009
-0.00499318
-0.0451693
-0.0171013
-0.0234796
-0.0297717
-0.0410122
-0.105216
0.0240439
-0.111208
0.0353732
-0.117444
0.04516
-0.123441
0.0529846
-0.128674
0.0585352
-0.132593
0.0615591
-0.134663
0.061899
-0.134387
0.0595006
-0.13135
0.0544191
-0.125237
0.046814
-0.115867
0.036938
-0.103212
0.0251251
-0.0874063
0.0118369
-0.0687001
-0.00223771
-0.0475161
-0.0166031
-0.024418
-0.0311471
-0.0438509
-0.115243
0.0384771
-0.122045
0.0521118
-0.129126
0.06367
-0.135906
0.0726754
-0.141752
0.0787364
-0.146011
0.0815573
-0.148057
0.0809823
-0.147334
0.0770046
-0.1434
0.0697721
-0.135963
0.0595734
-0.12491
0.0468203
-0.11033
0.0320368
-0.0925211
0.0158756
-0.0719134
-0.000848729
-0.0491085
-0.0174773
-0.024891
-0.0337181
-0.0475974
-0.125959
0.0542119
-0.133559
0.0703
-0.141481
0.0838344
-0.149019
0.0940792
-0.155416
0.100555
-0.159898
0.102925
-0.161742
0.10105
-0.160335
0.0950061
-0.155225
0.0850782
-0.146168
0.0717386
-0.133155
0.0556143
-0.116435
0.037472
-0.0965032
0.0181988
-0.0740166
-0.00123738
-0.0497878
-0.0200232
-0.0248232
-0.0376711
-0.0523289
-0.137457
0.0707246
-0.145851
0.0897545
-0.154575
0.105448
-0.162806
0.116971
-0.169637
0.123721
-0.174165
0.125324
-0.175566
0.121687
-0.173174
0.113009
-0.16655
0.0997723
-0.155531
0.0827006
-0.140257
0.0627031
-0.121182
0.0408466
-0.0990444
0.0182935
-0.0747646
-0.00380894
-0.0493983
-0.0245074
-0.0241534
-0.0431514
-0.0581097
-0.149858
0.0880422
-0.158956
0.110161
-0.168396
0.128218
-0.177198
0.141033
-0.184292
0.147869
-0.188629
0.148321
-0.18928
0.142375
-0.18554
0.130415
-0.17701
0.113194
-0.163647
0.091767
-0.145794
0.0674079
-0.124167
0.0415467
-0.0997978
0.0156557
-0.0739014
-0.00892686
-0.0477874
-0.0311398
-0.0228203
-0.0502554
-0.0649761
-0.16313
0.105404
-0.172851
0.131173
-0.182881
0.151769
-0.192083
0.165861
-0.199207
0.172538
-0.203045
0.171377
-0.202565
0.16249
-0.19704
0.14652
-0.186148
0.124586
-0.170026
0.0981761
-0.149287
0.0690228
-0.124975
0.03898
-0.0984487
0.0098418
-0.0712252
-0.0168805
-0.0448433
-0.040075
-0.0207712
-0.0590463
-0.0729263
-0.177221
0.122781
-0.18737
0.152292
-0.197797
0.175626
-0.207154
0.190945
-0.214001
0.197166
-0.216961
0.193857
-0.214908
0.181321
-0.207123
0.160556
-0.193409
0.133159
-0.174145
0.101171
-0.15028
0.0668788
-0.123236
0.0326135
-0.0947223
0.000473548
-0.0665506
-0.0278949
-0.0404801
-0.0513862
-0.0179948
-0.0695212
-0.0819398
-0.19193
0.139131
-0.202366
0.17304
-0.212978
0.199269
-0.222231
0.215736
-0.228469
0.221144
-0.230141
0.215079
-0.226033
0.198103
-0.215458
0.171685
-0.198397
0.138044
-0.175543
0.0999104
-0.148266
0.0602437
-0.118431
0.0218822
-0.0881443
-0.0127968
-0.0595262
-0.0420824
-0.0344486
-0.0650455
-0.0143797
-0.0815255
-0.0918528
0.204785
-0.219672
-0.199037
0.207953
-0.209538
0.208716
-0.196923
0.206993
-0.182336
0.203035
-0.16642
0.196874
-0.149866
0.188812
-0.133405
0.178968
-0.117737
0.167665
-0.103532
0.155067
-0.0913625
0.14149
-0.0817233
0.12711
-0.0749623
0.1122
-0.0713246
0.0969248
-0.0709129
0.0814896
-0.073716
0.0660558
-0.0796153
0.0507334
-0.0883763
0.0356725
-0.0996972
0.0208953
-0.113234
0.00659079
-0.12851
-0.00734397
-0.14517
-0.0206626
-0.162594
-0.0335458
-0.180454
-0.0457084
-0.198025
-0.0574194
-0.215056
-0.0683645
-0.23089
-0.0788139
-0.245202
-0.0885268
-0.257493
-0.0976434
-0.267479
-0.106162
-0.274903
-0.113849
-0.279476
-0.121112
-0.281187
-0.127262
-0.279828
-0.133108
-0.275533
-0.137522
-0.268527
-0.14149
-0.259035
-0.143751
-0.247548
-0.145225
-0.234463
-0.144724
-0.220347
-0.143032
-0.205616
-0.190849
0.1813
-0.217665
-0.174089
0.186142
-0.207893
0.188584
-0.195574
0.188669
-0.181249
0.186489
-0.165581
0.182178
-0.149272
0.1759
-0.133061
0.16785
-0.117662
0.158239
-0.103751
0.147297
-0.0919115
0.13524
-0.0826261
0.122291
-0.0762489
0.10865
-0.0730113
0.0945039
-0.0730102
0.0800189
-0.0762227
0.0653366
-0.0825175
0.0505795
-0.0916517
0.0358547
-0.103318
0.0212295
-0.117142
0.00680312
-0.132685
-0.00741215
-0.14951
-0.0213115
-0.167095
-0.0349226
-0.184977
-0.0481316
-0.202573
-0.0609737
-0.219479
-0.07337
-0.235149
-0.0853356
-0.249154
-0.096819
-0.261058
-0.107808
-0.27053
-0.118282
-0.277314
-0.128153
-0.281184
-0.137441
-0.282018
-0.146004
-0.279769
-0.153776
-0.274496
-0.160632
-0.266493
-0.166406
-0.256034
-0.170943
-0.243615
-0.174055
-0.229684
-0.175578
-0.214812
-0.175287
-0.199502
-0.184281
0.154837
-0.214991
-0.146071
0.161345
-0.205941
0.165552
-0.194249
0.167485
-0.180488
0.167209
-0.165326
0.164835
-0.149479
0.160501
-0.133696
0.154383
-0.118708
0.146667
-0.105193
0.137553
-0.0937396
0.127236
-0.0848286
0.115912