/*--------------------------------*- C++ -*----------------------------------*\
  =========                 |
  \\      /  F ield         | OpenFOAM: The Open Source CFD Toolbox
   \\    /   O peration     | Website:  https://openfoam.org
    \\  /    A nd           | Version:  6
     \\/     M anipulation  |
\*---------------------------------------------------------------------------*/
FoamFile
{
    version     2.0;
    format      ascii;
    class       volVectorField;
    location    "2.38";
    object      U;
}
// * * * * * * * * * * * * * * * * * * * * * * * * * * * * * * * * * * * * * //

dimensions      [0 1 -1 0 0 0 0];

internalField   nonuniform List<vector> 
5625
(
(0.8944 0.4472 0)
(0.8944 0.4472 0)
(0.8944 0.4472 0)
(0.8944 0.4472 0)
(0.8944 0.4472 0)
(0.8944 0.4472 0)
(0.8944 0.4472 0)
(0.8944 0.4472 0)
(0.8944 0.4472 0)
(0.8944 0.4472 0)
(0.8944 0.4472 0)
(0.8944 0.4472 0)
(0.8944 0.4472 0)
(0.8944 0.4472 0)
(0.8944 0.4472 0)
(0.8944 0.4472 0)
(0.8944 0.4472 0)
(0.8944 0.4472 0)
(0.8944 0.4472 0)
(0.8944 0.4472 0)
(0.8944 0.4472 0)
(0.8944 0.4472 0)
(0.8944 0.4472 0)
(0.8944 0.4472 0)
(0.8944 0.4472 0)
(0.8944 0.4472 0)
(0.8944 0.4472 0)
(0.8944 0.4472 0)
(0.8944 0.4472 0)
(0.8944 0.4472 0)
(0.8944 0.4472 0)
(0.8944 0.4472 0)
(0.8944 0.4472 0)
(0.8944 0.4472 0)
(0.8944 0.4472 0)
(0.8944 0.4472 0)
(0.8944 0.4472 0)
(0.8944 0.4472 0)
(0.894401 0.4472 0)
(0.8944 0.4472 0)
(0.894401 0.4472 0)
(0.8944 0.4472 0)
(0.8944 0.4472 0)
(0.894402 0.447201 0)
(0.894402 0.4472 0)
(0.894403 0.447201 0)
(0.894406 0.447199 0)
(0.894408 0.4472 0)
(0.894414 0.447201 0)
(0.894419 0.447198 0)
(0.894428 0.447199 0)
(0.89444 0.447197 0)
(0.894454 0.447194 0)
(0.894471 0.447189 0)
(0.894487 0.447179 0)
(0.894501 0.447159 0)
(0.894502 0.447126 0)
(0.894479 0.447061 0)
(0.894409 0.446946 0)
(0.894255 0.446745 0)
(0.89397 0.446401 0)
(0.893476 0.445825 0)
(0.892693 0.444893 0)
(0.89151 0.443413 0)
(0.889824 0.441133 0)
(0.88757 0.437714 0)
(0.884768 0.432743 0)
(0.881648 0.425721 0)
(0.878755 0.416112 0)
(0.877012 0.403407 0)
(0.877716 0.387125 0)
(0.88241 0.366773 0)
(0.89247 0.341995 0)
(0.908845 0.312639 0)
(0.932172 0.278632 0)
(0.8944 0.4472 0)
(0.8944 0.4472 0)
(0.8944 0.4472 0)
(0.8944 0.4472 0)
(0.8944 0.4472 0)
(0.8944 0.4472 0)
(0.8944 0.4472 0)
(0.8944 0.4472 0)
(0.8944 0.4472 0)
(0.8944 0.4472 0)
(0.8944 0.4472 0)
(0.8944 0.4472 0)
(0.8944 0.4472 0)
(0.8944 0.4472 0)
(0.8944 0.4472 0)
(0.8944 0.4472 0)
(0.8944 0.4472 0)
(0.8944 0.4472 0)
(0.8944 0.4472 0)
(0.8944 0.4472 0)
(0.8944 0.4472 0)
(0.8944 0.4472 0)
(0.8944 0.4472 0)
(0.8944 0.4472 0)
(0.8944 0.4472 0)
(0.8944 0.4472 0)
(0.8944 0.4472 0)
(0.8944 0.4472 0)
(0.8944 0.4472 0)
(0.8944 0.4472 0)
(0.8944 0.4472 0)
(0.8944 0.4472 0)
(0.8944 0.4472 0)
(0.8944 0.4472 0)
(0.894399 0.4472 0)
(0.894401 0.4472 0)
(0.8944 0.4472 0)
(0.8944 0.4472 0)
(0.8944 0.4472 0)
(0.8944 0.4472 0)
(0.894401 0.4472 0)
(0.8944 0.4472 0)
(0.8944 0.4472 0)
(0.894402 0.447201 0)
(0.894402 0.4472 0)
(0.894405 0.447201 0)
(0.894405 0.4472 0)
(0.894408 0.447199 0)
(0.894414 0.447201 0)
(0.894419 0.447199 0)
(0.89443 0.4472 0)
(0.894439 0.447198 0)
(0.894456 0.447198 0)
(0.894472 0.447195 0)
(0.89449 0.447186 0)
(0.894507 0.447172 0)
(0.894514 0.447142 0)
(0.894499 0.447089 0)
(0.894445 0.446986 0)
(0.894318 0.446809 0)
(0.894076 0.4465 0)
(0.893653 0.445981 0)
(0.89297 0.445132 0)
(0.891939 0.443784 0)
(0.890449 0.441698 0)
(0.888448 0.438563 0)
(0.885931 0.433996 0)
(0.883083 0.427531 0)
(0.880369 0.418687 0)
(0.8786 0.406982 0)
(0.878983 0.39202 0)
(0.882962 0.373432 0)
(0.891973 0.350897 0)
(0.907087 0.324308 0)
(0.928973 0.293708 0)
(0.8944 0.4472 0)
(0.8944 0.4472 0)
(0.8944 0.4472 0)
(0.8944 0.4472 0)
(0.8944 0.4472 0)
(0.8944 0.4472 0)
(0.8944 0.4472 0)
(0.8944 0.4472 0)
(0.8944 0.4472 0)
(0.8944 0.4472 0)
(0.8944 0.4472 0)
(0.8944 0.4472 0)
(0.8944 0.4472 0)
(0.8944 0.4472 0)
(0.8944 0.4472 0)
(0.8944 0.4472 0)
(0.8944 0.4472 0)
(0.8944 0.4472 0)
(0.8944 0.4472 0)
(0.8944 0.4472 0)
(0.8944 0.4472 0)
(0.8944 0.4472 0)
(0.8944 0.4472 0)
(0.8944 0.4472 0)
(0.8944 0.4472 0)
(0.8944 0.4472 0)
(0.8944 0.4472 0)
(0.8944 0.4472 0)
(0.8944 0.4472 0)
(0.8944 0.4472 0)
(0.8944 0.4472 0)
(0.8944 0.4472 0)
(0.8944 0.4472 0)
(0.8944 0.4472 0)
(0.8944 0.4472 0)
(0.8944 0.4472 0)
(0.8944 0.4472 0)
(0.8944 0.4472 0)
(0.8944 0.4472 0)
(0.8944 0.4472 0)
(0.8944 0.4472 0)
(0.894401 0.4472 0)
(0.8944 0.4472 0)
(0.894402 0.4472 0)
(0.8944 0.4472 0)
(0.894406 0.4472 0)
(0.894404 0.4472 0)
(0.89441 0.447201 0)
(0.894412 0.447201 0)
(0.89442 0.447201 0)
(0.894428 0.447202 0)
(0.894439 0.447201 0)
(0.894456 0.447201 0)
(0.894472 0.447198 0)
(0.894491 0.447194 0)
(0.894511 0.447182 0)
(0.894521 0.447158 0)
(0.894516 0.447115 0)
(0.894476 0.447026 0)
(0.894373 0.44687 0)
(0.894172 0.446598 0)
(0.893812 0.446136 0)
(0.893228 0.445376 0)
(0.892333 0.444158 0)
(0.891037 0.442274 0)
(0.889276 0.43943 0)
(0.887042 0.435272 0)
(0.884467 0.429379 0)
(0.881935 0.421299 0)
(0.880147 0.410595 0)
(0.880201 0.396917 0)
(0.883426 0.379994 0)
(0.891254 0.359594 0)
(0.904855 0.335635 0)
(0.924983 0.308209 0)
(0.8944 0.4472 0)
(0.8944 0.4472 0)
(0.8944 0.4472 0)
(0.8944 0.4472 0)
(0.8944 0.4472 0)
(0.8944 0.4472 0)
(0.8944 0.4472 0)
(0.8944 0.4472 0)
(0.8944 0.4472 0)
(0.8944 0.4472 0)
(0.8944 0.4472 0)
(0.8944 0.4472 0)
(0.8944 0.4472 0)
(0.8944 0.4472 0)
(0.8944 0.4472 0)
(0.8944 0.4472 0)
(0.8944 0.4472 0)
(0.8944 0.4472 0)
(0.8944 0.4472 0)
(0.8944 0.4472 0)
(0.8944 0.4472 0)
(0.8944 0.4472 0)
(0.8944 0.4472 0)
(0.8944 0.4472 0)
(0.8944 0.4472 0)
(0.8944 0.4472 0)
(0.8944 0.4472 0)
(0.8944 0.4472 0)
(0.8944 0.4472 0)
(0.8944 0.4472 0)
(0.8944 0.4472 0)
(0.8944 0.4472 0)
(0.8944 0.4472 0)
(0.8944 0.4472 0)
(0.8944 0.4472 0)
(0.8944 0.4472 0)
(0.8944 0.4472 0)
(0.8944 0.4472 0)
(0.8944 0.447201 0)
(0.8944 0.447199 0)
(0.8944 0.4472 0)
(0.8944 0.4472 0)
(0.894401 0.447199 0)
(0.894402 0.447201 0)
(0.894401 0.4472 0)
(0.894405 0.4472 0)
(0.894404 0.447201 0)
(0.89441 0.447201 0)
(0.894411 0.447201 0)
(0.894421 0.447203 0)
(0.894427 0.447202 0)
(0.894439 0.447204 0)
(0.894454 0.447203 0)
(0.89447 0.447202 0)
(0.894492 0.4472 0)
(0.894511 0.447193 0)
(0.894526 0.447173 0)
(0.894528 0.447139 0)
(0.894499 0.447063 0)
(0.894421 0.446932 0)
(0.894256 0.446694 0)
(0.893955 0.446284 0)
(0.893461 0.445615 0)
(0.892694 0.444529 0)
(0.891581 0.442846 0)
(0.890045 0.440294 0)
(0.888085 0.436549 0)
(0.885783 0.431229 0)
(0.883444 0.423908 0)
(0.881662 0.414189 0)
(0.881398 0.401762 0)
(0.883877 0.386406 0)
(0.890465 0.367992 0)
(0.902382 0.346489 0)
(0.920492 0.322001 0)
(0.8944 0.4472 0)
(0.8944 0.4472 0)
(0.8944 0.4472 0)
(0.8944 0.4472 0)
(0.8944 0.4472 0)
(0.8944 0.4472 0)
(0.8944 0.4472 0)
(0.8944 0.4472 0)
(0.8944 0.4472 0)
(0.8944 0.4472 0)
(0.8944 0.4472 0)
(0.8944 0.4472 0)
(0.8944 0.4472 0)
(0.8944 0.4472 0)
(0.8944 0.4472 0)
(0.8944 0.4472 0)
(0.8944 0.4472 0)
(0.8944 0.4472 0)
(0.8944 0.4472 0)
(0.8944 0.4472 0)
(0.8944 0.4472 0)
(0.8944 0.4472 0)
(0.8944 0.4472 0)
(0.8944 0.4472 0)
(0.8944 0.4472 0)
(0.8944 0.4472 0)
(0.8944 0.4472 0)
(0.8944 0.4472 0)
(0.894401 0.4472 0)
(0.8944 0.4472 0)
(0.8944 0.4472 0)
(0.8944 0.4472 0)
(0.8944 0.4472 0)
(0.8944 0.4472 0)
(0.8944 0.4472 0)
(0.8944 0.4472 0)
(0.8944 0.4472 0)
(0.8944 0.4472 0)
(0.8944 0.4472 0)
(0.8944 0.4472 0)
(0.8944 0.4472 0)
(0.894401 0.4472 0)
(0.8944 0.4472 0)
(0.894402 0.4472 0)
(0.894402 0.447201 0)
(0.894403 0.4472 0)
(0.894405 0.447201 0)
(0.894408 0.447201 0)
(0.894412 0.447201 0)
(0.89442 0.447203 0)
(0.894425 0.447203 0)
(0.894439 0.447204 0)
(0.894451 0.447206 0)
(0.89447 0.447207 0)
(0.89449 0.447206 0)
(0.894511 0.447202 0)
(0.894529 0.447188 0)
(0.894534 0.447159 0)
(0.894518 0.4471 0)
(0.894458 0.446988 0)
(0.894327 0.446784 0)
(0.894079 0.446429 0)
(0.893666 0.445843 0)
(0.893018 0.444892 0)
(0.892072 0.4434 0)
(0.890752 0.441139 0)
(0.88905 0.437804 0)
(0.887018 0.433044 0)
(0.884886 0.426476 0)
(0.883144 0.41772 0)
(0.882599 0.406498 0)
(0.884372 0.392625 0)
(0.889729 0.376044 0)
(0.899888 0.356782 0)
(0.915803 0.334985 0)
(0.8944 0.4472 0)
(0.8944 0.4472 0)
(0.8944 0.4472 0)
(0.8944 0.4472 0)
(0.8944 0.4472 0)
(0.8944 0.4472 0)
(0.8944 0.4472 0)
(0.8944 0.4472 0)
(0.8944 0.4472 0)
(0.8944 0.4472 0)
(0.8944 0.4472 0)
(0.8944 0.4472 0)
(0.8944 0.4472 0)
(0.8944 0.4472 0)
(0.8944 0.4472 0)
(0.8944 0.4472 0)
(0.8944 0.4472 0)
(0.8944 0.4472 0)
(0.8944 0.4472 0)
(0.8944 0.4472 0)
(0.8944 0.4472 0)
(0.8944 0.4472 0)
(0.8944 0.4472 0)
(0.8944 0.4472 0)
(0.8944 0.4472 0)
(0.8944 0.4472 0)
(0.8944 0.4472 0)
(0.8944 0.4472 0)
(0.8944 0.4472 0)
(0.8944 0.4472 0)
(0.8944 0.4472 0)
(0.8944 0.4472 0)
(0.8944 0.4472 0)
(0.8944 0.4472 0)
(0.8944 0.4472 0)
(0.8944 0.4472 0)
(0.8944 0.4472 0)
(0.8944 0.447199 0)
(0.8944 0.4472 0)
(0.8944 0.447201 0)
(0.8944 0.447199 0)
(0.8944 0.4472 0)
(0.894402 0.4472 0)
(0.8944 0.4472 0)
(0.894403 0.4472 0)
(0.894402 0.4472 0)
(0.894407 0.447201 0)
(0.894406 0.447201 0)
(0.894414 0.447203 0)
(0.894415 0.447202 0)
(0.894427 0.447205 0)
(0.894435 0.447206 0)
(0.894451 0.447207 0)
(0.894466 0.447211 0)
(0.894488 0.447209 0)
(0.894508 0.447209 0)
(0.894527 0.447201 0)
(0.894539 0.447178 0)
(0.89453 0.44713 0)
(0.89449 0.44704 0)
(0.894381 0.446867 0)
(0.894188 0.446567 0)
(0.893842 0.446058 0)
(0.893308 0.445235 0)
(0.892503 0.443933 0)
(0.891391 0.441946 0)
(0.889926 0.439013 0)
(0.88816 0.434801 0)
(0.886246 0.428964 0)
(0.884579 0.421148 0)
(0.883824 0.411082 0)
(0.88495 0.398612 0)
(0.889136 0.383715 0)
(0.89756 0.366486 0)
(0.911202 0.347107 0)
(0.8944 0.4472 0)
(0.8944 0.4472 0)
(0.8944 0.4472 0)
(0.8944 0.4472 0)
(0.8944 0.4472 0)
(0.8944 0.4472 0)
(0.8944 0.4472 0)
(0.8944 0.4472 0)
(0.8944 0.4472 0)
(0.8944 0.4472 0)
(0.8944 0.4472 0)
(0.8944 0.4472 0)
(0.8944 0.4472 0)
(0.8944 0.4472 0)
(0.8944 0.4472 0)
(0.8944 0.4472 0)
(0.8944 0.4472 0)
(0.8944 0.4472 0)
(0.8944 0.4472 0)
(0.8944 0.4472 0)
(0.8944 0.4472 0)
(0.8944 0.4472 0)
(0.8944 0.4472 0)
(0.8944 0.4472 0)
(0.8944 0.4472 0)
(0.8944 0.4472 0)
(0.8944 0.4472 0)
(0.8944 0.4472 0)
(0.8944 0.4472 0)
(0.8944 0.4472 0)
(0.8944 0.4472 0)
(0.8944 0.4472 0)
(0.8944 0.4472 0)
(0.8944 0.4472 0)
(0.8944 0.4472 0)
(0.8944 0.4472 0)
(0.8944 0.4472 0)
(0.8944 0.4472 0)
(0.8944 0.447199 0)
(0.8944 0.4472 0)
(0.8944 0.4472 0)
(0.8944 0.4472 0)
(0.894401 0.4472 0)
(0.894401 0.4472 0)
(0.894402 0.4472 0)
(0.894403 0.447201 0)
(0.894405 0.447201 0)
(0.894406 0.447201 0)
(0.894413 0.447202 0)
(0.894414 0.447202 0)
(0.894426 0.447205 0)
(0.894431 0.447207 0)
(0.894451 0.447209 0)
(0.894461 0.447213 0)
(0.894485 0.447214 0)
(0.894505 0.447214 0)
(0.894523 0.447212 0)
(0.894541 0.447196 0)
(0.894538 0.447159 0)
(0.89451 0.447085 0)
(0.894429 0.446943 0)
(0.894275 0.44669 0)
(0.893993 0.446261 0)
(0.893555 0.44555 0)
(0.892888 0.444431 0)
(0.891955 0.442712 0)
(0.890714 0.440151 0)
(0.889195 0.436473 0)
(0.88751 0.431339 0)
(0.88595 0.424428 0)
(0.885057 0.415475 0)
(0.885643 0.404332 0)
(0.88876 0.390995 0)
(0.895525 0.375597 0)
(0.906922 0.358365 0)
(0.8944 0.4472 0)
(0.8944 0.4472 0)
(0.8944 0.4472 0)
(0.8944 0.4472 0)
(0.8944 0.4472 0)
(0.8944 0.4472 0)
(0.8944 0.4472 0)
(0.8944 0.4472 0)
(0.8944 0.4472 0)
(0.8944 0.4472 0)
(0.8944 0.4472 0)
(0.8944 0.4472 0)
(0.8944 0.4472 0)
(0.8944 0.4472 0)
(0.8944 0.4472 0)
(0.8944 0.4472 0)
(0.8944 0.4472 0)
(0.8944 0.4472 0)
(0.8944 0.4472 0)
(0.8944 0.4472 0)
(0.8944 0.4472 0)
(0.8944 0.4472 0)
(0.8944 0.4472 0)
(0.8944 0.4472 0)
(0.8944 0.4472 0)
(0.8944 0.4472 0)
(0.8944 0.4472 0)
(0.8944 0.4472 0)
(0.8944 0.4472 0)
(0.8944 0.4472 0)
(0.8944 0.4472 0)
(0.8944 0.4472 0)
(0.8944 0.4472 0)
(0.8944 0.4472 0)
(0.8944 0.4472 0)
(0.8944 0.4472 0)
(0.8944 0.4472 0)
(0.8944 0.4472 0)
(0.894401 0.4472 0)
(0.8944 0.447201 0)
(0.8944 0.4472 0)
(0.8944 0.4472 0)
(0.894401 0.4472 0)
(0.894402 0.4472 0)
(0.8944 0.4472 0)
(0.894404 0.4472 0)
(0.894404 0.447202 0)
(0.894407 0.447201 0)
(0.89441 0.447202 0)
(0.894415 0.447204 0)
(0.894423 0.447204 0)
(0.894432 0.447209 0)
(0.894444 0.447209 0)
(0.89446 0.447215 0)
(0.894478 0.447219 0)
(0.8945 0.44722 0)
(0.89452 0.44722 0)
(0.894535 0.447209 0)
(0.894543 0.447185 0)
(0.894524 0.447125 0)
(0.894465 0.44701 0)
(0.894343 0.446803 0)
(0.894124 0.44644 0)
(0.893759 0.445844 0)
(0.893219 0.444886 0)
(0.892442 0.443416 0)
(0.891409 0.441216 0)
(0.890121 0.438029 0)
(0.888659 0.433571 0)
(0.887243 0.427523 0)
(0.886284 0.419636 0)
(0.886448 0.409756 0)
(0.888639 0.39787 0)
(0.893883 0.38413 0)
(0.903141 0.368793 0)
(0.8944 0.4472 0)
(0.8944 0.4472 0)
(0.8944 0.4472 0)
(0.8944 0.4472 0)
(0.8944 0.4472 0)
(0.8944 0.4472 0)
(0.8944 0.4472 0)
(0.8944 0.4472 0)
(0.8944 0.4472 0)
(0.8944 0.4472 0)
(0.8944 0.4472 0)
(0.8944 0.4472 0)
(0.8944 0.4472 0)
(0.8944 0.4472 0)
(0.8944 0.4472 0)
(0.8944 0.4472 0)
(0.8944 0.4472 0)
(0.8944 0.4472 0)
(0.8944 0.4472 0)
(0.8944 0.4472 0)
(0.8944 0.4472 0)
(0.8944 0.4472 0)
(0.8944 0.4472 0)
(0.8944 0.4472 0)
(0.8944 0.4472 0)
(0.8944 0.4472 0)
(0.8944 0.4472 0)
(0.8944 0.4472 0)
(0.8944 0.4472 0)
(0.8944 0.4472 0)
(0.8944 0.4472 0)
(0.8944 0.4472 0)
(0.8944 0.4472 0)
(0.8944 0.4472 0)
(0.8944 0.4472 0)
(0.8944 0.4472 0)
(0.8944 0.4472 0)
(0.8944 0.4472 0)
(0.8944 0.4472 0)
(0.8944 0.4472 0)
(0.8944 0.4472 0)
(0.894401 0.4472 0)
(0.894401 0.4472 0)
(0.894401 0.447201 0)
(0.894401 0.4472 0)
(0.894403 0.4472 0)
(0.894403 0.447202 0)
(0.894408 0.447202 0)
(0.894408 0.447202 0)
(0.894415 0.447204 0)
(0.89442 0.447205 0)
(0.89443 0.447209 0)
(0.894441 0.447212 0)
(0.894458 0.447215 0)
(0.894471 0.44722 0)
(0.894494 0.447226 0)
(0.894514 0.447226 0)
(0.89453 0.44722 0)
(0.894543 0.447205 0)
(0.894531 0.447159 0)
(0.894491 0.447068 0)
(0.894397 0.446902 0)
(0.894223 0.446602 0)
(0.893935 0.446103 0)
(0.893496 0.445301 0)
(0.892862 0.444057 0)
(0.892006 0.442184 0)
(0.890932 0.439464 0)
(0.889691 0.435628 0)
(0.888431 0.430404 0)
(0.887475 0.423532 0)
(0.887342 0.414848 0)
(0.888775 0.40433 0)
(0.892684 0.392109 0)
(0.899982 0.378454 0)
(0.8944 0.4472 0)
(0.8944 0.4472 0)
(0.8944 0.4472 0)
(0.8944 0.4472 0)
(0.8944 0.4472 0)
(0.8944 0.4472 0)
(0.8944 0.4472 0)
(0.8944 0.4472 0)
(0.8944 0.4472 0)
(0.8944 0.4472 0)
(0.8944 0.4472 0)
(0.8944 0.4472 0)
(0.8944 0.4472 0)
(0.8944 0.4472 0)
(0.8944 0.4472 0)
(0.8944 0.4472 0)
(0.8944 0.4472 0)
(0.8944 0.4472 0)
(0.8944 0.4472 0)
(0.8944 0.4472 0)
(0.8944 0.4472 0)
(0.8944 0.4472 0)
(0.8944 0.4472 0)
(0.8944 0.4472 0)
(0.8944 0.4472 0)
(0.8944 0.4472 0)
(0.8944 0.4472 0)
(0.8944 0.4472 0)
(0.8944 0.4472 0)
(0.8944 0.4472 0)
(0.8944 0.4472 0)
(0.8944 0.4472 0)
(0.8944 0.4472 0)
(0.8944 0.4472 0)
(0.8944 0.4472 0)
(0.8944 0.4472 0)
(0.8944 0.4472 0)
(0.8944 0.4472 0)
(0.8944 0.4472 0)
(0.8944 0.4472 0)
(0.8944 0.4472 0)
(0.8944 0.4472 0)
(0.8944 0.4472 0)
(0.894401 0.4472 0)
(0.894401 0.447201 0)
(0.894403 0.4472 0)
(0.894403 0.447201 0)
(0.894405 0.447201 0)
(0.89441 0.447203 0)
(0.894412 0.447204 0)
(0.894419 0.447206 0)
(0.894427 0.447208 0)
(0.894438 0.447212 0)
(0.89445 0.447217 0)
(0.894469 0.44722 0)
(0.894486 0.447228 0)
(0.894506 0.447232 0)
(0.894525 0.44723 0)
(0.894537 0.44722 0)
(0.894535 0.447188 0)
(0.894508 0.447118 0)
(0.894437 0.446984 0)
(0.894303 0.446742 0)
(0.894077 0.446333 0)
(0.893722 0.445667 0)
(0.893212 0.444629 0)
(0.892517 0.443055 0)
(0.891632 0.440759 0)
(0.89059 0.437503 0)
(0.889506 0.433037 0)
(0.888601 0.427122 0)
(0.88828 0.41958 0)
(0.889135 0.41035 0)
(0.89193 0.399545 0)
(0.897501 0.387412 0)
(0.8944 0.4472 0)
(0.8944 0.4472 0)
(0.8944 0.4472 0)
(0.8944 0.4472 0)
(0.8944 0.4472 0)
(0.8944 0.4472 0)
(0.8944 0.4472 0)
(0.8944 0.4472 0)
(0.8944 0.4472 0)
(0.8944 0.4472 0)
(0.8944 0.4472 0)
(0.8944 0.4472 0)
(0.8944 0.4472 0)
(0.8944 0.4472 0)
(0.8944 0.4472 0)
(0.8944 0.4472 0)
(0.8944 0.4472 0)
(0.8944 0.4472 0)
(0.8944 0.4472 0)
(0.8944 0.4472 0)
(0.8944 0.4472 0)
(0.8944 0.4472 0)
(0.8944 0.4472 0)
(0.8944 0.4472 0)
(0.8944 0.4472 0)
(0.8944 0.4472 0)
(0.8944 0.4472 0)
(0.8944 0.4472 0)
(0.8944 0.4472 0)
(0.8944 0.4472 0)
(0.8944 0.4472 0)
(0.8944 0.4472 0)
(0.8944 0.4472 0)
(0.8944 0.4472 0)
(0.8944 0.4472 0)
(0.894399 0.4472 0)
(0.8944 0.4472 0)
(0.8944 0.4472 0)
(0.8944 0.4472 0)
(0.8944 0.4472 0)
(0.8944 0.4472 0)
(0.8944 0.4472 0)
(0.894401 0.4472 0)
(0.8944 0.4472 0)
(0.894402 0.4472 0)
(0.894402 0.447202 0)
(0.894403 0.447201 0)
(0.894405 0.447201 0)
(0.894408 0.447203 0)
(0.894411 0.447204 0)
(0.894418 0.447206 0)
(0.894423 0.447208 0)
(0.894433 0.447212 0)
(0.894448 0.447217 0)
(0.89446 0.447224 0)
(0.894479 0.447227 0)
(0.894498 0.447235 0)
(0.894516 0.447237 0)
(0.894531 0.447232 0)
(0.894532 0.447211 0)
(0.894517 0.447159 0)
(0.894466 0.447053 0)
(0.894362 0.446864 0)
(0.894187 0.446531 0)
(0.89391 0.445985 0)
(0.893502 0.44513 0)
(0.892939 0.443827 0)
(0.892223 0.441908 0)
(0.891365 0.439179 0)
(0.890447 0.435409 0)
(0.889634 0.430379 0)
(0.889218 0.42391 0)
(0.889661 0.415908 0)
(0.89158 0.406437 0)
(0.895695 0.395707 0)
(0.8944 0.4472 0)
(0.8944 0.4472 0)
(0.8944 0.4472 0)
(0.8944 0.4472 0)
(0.8944 0.4472 0)
(0.8944 0.4472 0)
(0.8944 0.4472 0)
(0.8944 0.4472 0)
(0.8944 0.4472 0)
(0.8944 0.4472 0)
(0.8944 0.4472 0)
(0.8944 0.4472 0)
(0.8944 0.4472 0)
(0.8944 0.4472 0)
(0.8944 0.4472 0)
(0.8944 0.4472 0)
(0.8944 0.4472 0)
(0.8944 0.4472 0)
(0.8944 0.4472 0)
(0.8944 0.4472 0)
(0.8944 0.4472 0)
(0.8944 0.4472 0)
(0.8944 0.4472 0)
(0.8944 0.4472 0)
(0.8944 0.4472 0)
(0.8944 0.4472 0)
(0.8944 0.4472 0)
(0.8944 0.4472 0)
(0.8944 0.4472 0)
(0.8944 0.4472 0)
(0.8944 0.4472 0)
(0.8944 0.4472 0)
(0.8944 0.4472 0)
(0.8944 0.4472 0)
(0.8944 0.4472 0)
(0.8944 0.4472 0)
(0.8944 0.4472 0)
(0.8944 0.4472 0)
(0.8944 0.4472 0)
(0.8944 0.4472 0)
(0.8944 0.4472 0)
(0.8944 0.4472 0)
(0.8944 0.447201 0)
(0.894401 0.4472 0)
(0.894401 0.447201 0)
(0.894402 0.4472 0)
(0.894403 0.447201 0)
(0.894404 0.447201 0)
(0.894408 0.447203 0)
(0.89441 0.447204 0)
(0.894416 0.447205 0)
(0.89442 0.447209 0)
(0.894432 0.447211 0)
(0.894441 0.447218 0)
(0.894455 0.447223 0)
(0.894472 0.447228 0)
(0.894488 0.447238 0)
(0.894507 0.44724 0)
(0.894521 0.447242 0)
(0.894528 0.447228 0)
(0.894519 0.447191 0)
(0.894484 0.447113 0)
(0.894404 0.44696 0)
(0.894274 0.446699 0)
(0.894054 0.446258 0)
(0.893733 0.445564 0)
(0.893289 0.444494 0)
(0.892713 0.442914 0)
(0.89202 0.440652 0)
(0.891257 0.437511 0)
(0.890551 0.43329 0)
(0.890114 0.427811 0)
(0.890284 0.420967 0)
(0.891545 0.412763 0)
(0.894498 0.403355 0)
(0.8944 0.4472 0)
(0.8944 0.4472 0)
(0.8944 0.4472 0)
(0.8944 0.4472 0)
(0.8944 0.4472 0)
(0.8944 0.4472 0)
(0.8944 0.4472 0)
(0.8944 0.4472 0)
(0.8944 0.4472 0)
(0.8944 0.4472 0)
(0.8944 0.4472 0)
(0.8944 0.4472 0)
(0.8944 0.4472 0)
(0.8944 0.4472 0)
(0.8944 0.4472 0)
(0.8944 0.4472 0)
(0.8944 0.4472 0)
(0.8944 0.4472 0)
(0.8944 0.4472 0)
(0.8944 0.4472 0)
(0.8944 0.4472 0)
(0.8944 0.4472 0)
(0.8944 0.4472 0)
(0.8944 0.4472 0)
(0.8944 0.4472 0)
(0.8944 0.4472 0)
(0.8944 0.4472 0)
(0.8944 0.4472 0)
(0.8944 0.4472 0)
(0.8944 0.4472 0)
(0.8944 0.4472 0)
(0.894399 0.4472 0)
(0.894401 0.4472 0)
(0.894399 0.4472 0)
(0.8944 0.4472 0)
(0.8944 0.4472 0)
(0.8944 0.4472 0)
(0.8944 0.4472 0)
(0.8944 0.4472 0)
(0.8944 0.447201 0)
(0.8944 0.447199 0)
(0.8944 0.447201 0)
(0.894401 0.4472 0)
(0.8944 0.447201 0)
(0.894401 0.4472 0)
(0.894402 0.4472 0)
(0.894401 0.447201 0)
(0.894406 0.447202 0)
(0.894405 0.447202 0)
(0.894409 0.447204 0)
(0.894414 0.447205 0)
(0.894419 0.447208 0)
(0.894427 0.447213 0)
(0.894438 0.447214 0)
(0.894447 0.447223 0)
(0.894466 0.447229 0)
(0.894479 0.447237 0)
(0.894495 0.447244 0)
(0.894514 0.447247 0)
(0.894519 0.44724 0)
(0.894516 0.447216 0)
(0.894493 0.447158 0)
(0.894439 0.447041 0)
(0.894332 0.446837 0)
(0.89417 0.446489 0)
(0.893917 0.445927 0)
(0.89357 0.445064 0)
(0.893113 0.44378 0)
(0.892555 0.441927 0)
(0.891939 0.439341 0)
(0.891347 0.435844 0)
(0.890926 0.43127 0)
(0.890937 0.425496 0)
(0.891742 0.418491 0)
(0.893803 0.410346 0)
(0.8944 0.4472 0)
(0.8944 0.4472 0)
(0.8944 0.4472 0)
(0.8944 0.4472 0)
(0.8944 0.4472 0)
(0.8944 0.4472 0)
(0.8944 0.4472 0)
(0.8944 0.4472 0)
(0.8944 0.4472 0)
(0.8944 0.4472 0)
(0.8944 0.4472 0)
(0.8944 0.4472 0)
(0.8944 0.4472 0)
(0.8944 0.4472 0)
(0.8944 0.4472 0)
(0.8944 0.4472 0)
(0.8944 0.4472 0)
(0.8944 0.4472 0)
(0.8944 0.4472 0)
(0.8944 0.4472 0)
(0.8944 0.4472 0)
(0.8944 0.4472 0)
(0.8944 0.4472 0)
(0.8944 0.4472 0)
(0.8944 0.4472 0)
(0.8944 0.4472 0)
(0.8944 0.4472 0)
(0.8944 0.4472 0)
(0.8944 0.4472 0)
(0.8944 0.4472 0)
(0.8944 0.4472 0)
(0.8944 0.4472 0)
(0.8944 0.4472 0)
(0.8944 0.4472 0)
(0.8944 0.4472 0)
(0.8944 0.4472 0)
(0.8944 0.4472 0)
(0.8944 0.4472 0)
(0.8944 0.447199 0)
(0.8944 0.4472 0)
(0.8944 0.4472 0)
(0.894401 0.4472 0)
(0.8944 0.447201 0)
(0.8944 0.4472 0)
(0.894401 0.447201 0)
(0.894401 0.4472 0)
(0.894403 0.447202 0)
(0.894404 0.447201 0)
(0.894405 0.447202 0)
(0.894408 0.447204 0)
(0.894411 0.447204 0)
(0.894418 0.447208 0)
(0.894423 0.447211 0)
(0.894435 0.447215 0)
(0.894441 0.447222 0)
(0.894457 0.447229 0)
(0.894471 0.447236 0)
(0.894485 0.447245 0)
(0.894501 0.447251 0)
(0.894509 0.447248 0)
(0.894512 0.447233 0)
(0.894494 0.447193 0)
(0.894456 0.447107 0)
(0.894379 0.446946 0)
(0.894252 0.446675 0)
(0.89406 0.446233 0)
(0.893789 0.445544 0)
(0.893432 0.444508 0)
(0.892995 0.443013 0)
(0.892501 0.44091 0)
(0.89201 0.438051 0)
(0.89164 0.434282 0)
(0.89157 0.429482 0)
(0.892065 0.423591 0)
(0.893484 0.416649 0)
(0.8944 0.4472 0)
(0.8944 0.4472 0)
(0.8944 0.4472 0)
(0.8944 0.4472 0)
(0.8944 0.4472 0)
(0.8944 0.4472 0)
(0.8944 0.4472 0)
(0.8944 0.4472 0)
(0.8944 0.4472 0)
(0.8944 0.4472 0)
(0.8944 0.4472 0)
(0.8944 0.4472 0)
(0.8944 0.4472 0)
(0.8944 0.4472 0)
(0.8944 0.4472 0)
(0.8944 0.4472 0)
(0.8944 0.4472 0)
(0.8944 0.4472 0)
(0.8944 0.4472 0)
(0.8944 0.4472 0)
(0.8944 0.4472 0)
(0.8944 0.4472 0)
(0.8944 0.4472 0)
(0.8944 0.4472 0)
(0.8944 0.4472 0)
(0.8944 0.4472 0)
(0.8944 0.4472 0)
(0.8944 0.4472 0)
(0.8944 0.4472 0)
(0.8944 0.4472 0)
(0.8944 0.4472 0)
(0.8944 0.4472 0)
(0.8944 0.4472 0)
(0.8944 0.4472 0)
(0.8944 0.4472 0)
(0.8944 0.4472 0)
(0.8944 0.4472 0)
(0.8944 0.447201 0)
(0.8944 0.4472 0)
(0.8944 0.4472 0)
(0.894401 0.4472 0)
(0.8944 0.4472 0)
(0.8944 0.4472 0)
(0.894401 0.4472 0)
(0.894401 0.4472 0)
(0.894401 0.447201 0)
(0.894402 0.4472 0)
(0.894403 0.447202 0)
(0.894404 0.447202 0)
(0.894408 0.447202 0)
(0.894409 0.447207 0)
(0.894416 0.447205 0)
(0.894421 0.447211 0)
(0.894428 0.447214 0)
(0.894439 0.44722 0)
(0.894449 0.447228 0)
(0.894463 0.447235 0)
(0.894476 0.447243 0)
(0.894489 0.447253 0)
(0.894499 0.447252 0)
(0.894501 0.447248 0)
(0.894496 0.447217 0)
(0.894463 0.447154 0)
(0.894408 0.447036 0)
(0.894315 0.446826 0)
(0.894165 0.446482 0)
(0.893961 0.445937 0)
(0.893679 0.445117 0)
(0.893341 0.443923 0)
(0.892953 0.442234 0)
(0.892562 0.439924 0)
(0.892246 0.436863 0)
(0.892141 0.432927 0)
(0.892442 0.428052 0)
(0.893406 0.422234 0)
(0.8944 0.4472 0)
(0.8944 0.4472 0)
(0.8944 0.4472 0)
(0.8944 0.4472 0)
(0.8944 0.4472 0)
(0.8944 0.4472 0)
(0.8944 0.4472 0)
(0.8944 0.4472 0)
(0.8944 0.4472 0)
(0.8944 0.4472 0)
(0.8944 0.4472 0)
(0.8944 0.4472 0)
(0.8944 0.4472 0)
(0.8944 0.4472 0)
(0.8944 0.4472 0)
(0.8944 0.4472 0)
(0.8944 0.4472 0)
(0.8944 0.4472 0)
(0.8944 0.4472 0)
(0.8944 0.4472 0)
(0.8944 0.4472 0)
(0.8944 0.4472 0)
(0.8944 0.4472 0)
(0.8944 0.4472 0)
(0.8944 0.4472 0)
(0.8944 0.4472 0)
(0.8944 0.4472 0)
(0.8944 0.4472 0)
(0.8944 0.4472 0)
(0.8944 0.4472 0)
(0.8944 0.4472 0)
(0.8944 0.4472 0)
(0.8944 0.4472 0)
(0.8944 0.4472 0)
(0.8944 0.4472 0)
(0.8944 0.4472 0)
(0.8944 0.4472 0)
(0.8944 0.4472 0)
(0.8944 0.4472 0)
(0.8944 0.4472 0)
(0.894401 0.4472 0)
(0.8944 0.4472 0)
(0.8944 0.4472 0)
(0.894401 0.4472 0)
(0.894401 0.4472 0)
(0.894402 0.447201 0)
(0.8944 0.447201 0)
(0.894404 0.4472 0)
(0.894402 0.447204 0)
(0.894407 0.447202 0)
(0.894409 0.447205 0)
(0.894411 0.447208 0)
(0.894421 0.447207 0)
(0.894423 0.447214 0)
(0.894434 0.44722 0)
(0.894442 0.447224 0)
(0.894454 0.447234 0)
(0.894466 0.447242 0)
(0.894478 0.447249 0)
(0.894488 0.447256 0)
(0.894492 0.447252 0)
(0.894489 0.447236 0)
(0.894468 0.447192 0)
(0.894426 0.447104 0)
(0.894357 0.446943 0)
(0.894244 0.44668 0)
(0.894084 0.446259 0)
(0.893876 0.445613 0)
(0.893611 0.444673 0)
(0.893308 0.443332 0)
(0.893002 0.44149 0)
(0.892744 0.439035 0)
(0.892634 0.435856 0)
(0.892813 0.43188 0)
(0.893468 0.427082 0)
(0.8944 0.4472 0)
(0.8944 0.4472 0)
(0.8944 0.4472 0)
(0.8944 0.4472 0)
(0.8944 0.4472 0)
(0.8944 0.4472 0)
(0.8944 0.4472 0)
(0.8944 0.4472 0)
(0.8944 0.4472 0)
(0.8944 0.4472 0)
(0.8944 0.4472 0)
(0.8944 0.4472 0)
(0.8944 0.4472 0)
(0.8944 0.4472 0)
(0.8944 0.4472 0)
(0.8944 0.4472 0)
(0.8944 0.4472 0)
(0.8944 0.4472 0)
(0.8944 0.4472 0)
(0.8944 0.4472 0)
(0.8944 0.4472 0)
(0.8944 0.4472 0)
(0.8944 0.4472 0)
(0.8944 0.4472 0)
(0.8944 0.4472 0)
(0.8944 0.4472 0)
(0.8944 0.4472 0)
(0.8944 0.4472 0)
(0.8944 0.4472 0)
(0.8944 0.4472 0)
(0.8944 0.4472 0)
(0.8944 0.4472 0)
(0.8944 0.4472 0)
(0.8944 0.4472 0)
(0.8944 0.4472 0)
(0.894399 0.4472 0)
(0.8944 0.4472 0)
(0.8944 0.4472 0)
(0.8944 0.4472 0)
(0.8944 0.4472 0)
(0.8944 0.4472 0)
(0.8944 0.4472 0)
(0.8944 0.4472 0)
(0.8944 0.4472 0)
(0.894401 0.4472 0)
(0.8944 0.4472 0)
(0.894403 0.447201 0)
(0.894401 0.447201 0)
(0.894404 0.447202 0)
(0.894405 0.447202 0)
(0.894407 0.447205 0)
(0.894411 0.447205 0)
(0.894414 0.447209 0)
(0.894422 0.447212 0)
(0.894427 0.447218 0)
(0.894438 0.447223 0)
(0.894445 0.44723 0)
(0.894456 0.44724 0)
(0.894469 0.447247 0)
(0.894476 0.447254 0)
(0.894482 0.447258 0)
(0.894479 0.447244 0)
(0.894469 0.447218 0)
(0.894434 0.447154 0)
(0.894382 0.447034 0)
(0.894303 0.446833 0)
(0.894179 0.446514 0)
(0.89402 0.446013 0)
(0.893815 0.445279 0)
(0.893588 0.44423 0)
(0.893346 0.442778 0)
(0.893144 0.44083 0)
(0.893044 0.438299 0)
(0.893149 0.435107 0)
(0.893601 0.431216 0)
(0.8944 0.4472 0)
(0.8944 0.4472 0)
(0.8944 0.4472 0)
(0.8944 0.4472 0)
(0.8944 0.4472 0)
(0.8944 0.4472 0)
(0.8944 0.4472 0)
(0.8944 0.4472 0)
(0.8944 0.4472 0)
(0.8944 0.4472 0)
(0.8944 0.4472 0)
(0.8944 0.4472 0)
(0.8944 0.4472 0)
(0.8944 0.4472 0)
(0.8944 0.4472 0)
(0.8944 0.4472 0)
(0.8944 0.4472 0)
(0.8944 0.4472 0)
(0.8944 0.4472 0)
(0.8944 0.4472 0)
(0.8944 0.4472 0)
(0.8944 0.4472 0)
(0.8944 0.4472 0)
(0.8944 0.4472 0)
(0.8944 0.4472 0)
(0.8944 0.4472 0)
(0.8944 0.4472 0)
(0.8944 0.4472 0)
(0.8944 0.4472 0)
(0.8944 0.4472 0)
(0.8944 0.4472 0)
(0.8944 0.4472 0)
(0.8944 0.4472 0)
(0.8944 0.4472 0)
(0.8944 0.4472 0)
(0.8944 0.4472 0)
(0.8944 0.4472 0)
(0.8944 0.4472 0)
(0.8944 0.4472 0)
(0.8944 0.4472 0)
(0.8944 0.4472 0)
(0.8944 0.4472 0)
(0.8944 0.4472 0)
(0.8944 0.4472 0)
(0.8944 0.4472 0)
(0.894401 0.4472 0)
(0.894401 0.4472 0)
(0.894402 0.447201 0)
(0.894403 0.447201 0)
(0.894404 0.447202 0)
(0.894407 0.447205 0)
(0.894408 0.447204 0)
(0.894414 0.447209 0)
(0.894415 0.447211 0)
(0.894426 0.447215 0)
(0.89443 0.447222 0)
(0.894439 0.447228 0)
(0.89445 0.447236 0)
(0.894457 0.447244 0)
(0.894465 0.447253 0)
(0.89447 0.447256 0)
(0.894472 0.447253 0)
(0.89446 0.447232 0)
(0.894441 0.44719 0)
(0.894398 0.447102 0)
(0.894339 0.446951 0)
(0.894249 0.446709 0)
(0.894124 0.446327 0)
(0.893974 0.445762 0)
(0.893795 0.444952 0)
(0.893616 0.443819 0)
(0.893456 0.442297 0)
(0.89337 0.440305 0)
(0.893437 0.437776 0)
(0.89375 0.43467 0)
(0.8944 0.4472 0)
(0.8944 0.4472 0)
(0.8944 0.4472 0)
(0.8944 0.4472 0)
(0.8944 0.4472 0)
(0.8944 0.4472 0)
(0.8944 0.4472 0)
(0.8944 0.4472 0)
(0.8944 0.4472 0)
(0.8944 0.4472 0)
(0.8944 0.4472 0)
(0.8944 0.4472 0)
(0.8944 0.4472 0)
(0.8944 0.4472 0)
(0.8944 0.4472 0)
(0.8944 0.4472 0)
(0.8944 0.4472 0)
(0.8944 0.4472 0)
(0.8944 0.4472 0)
(0.8944 0.4472 0)
(0.8944 0.4472 0)
(0.8944 0.4472 0)
(0.8944 0.4472 0)
(0.8944 0.4472 0)
(0.8944 0.4472 0)
(0.8944 0.4472 0)
(0.8944 0.4472 0)
(0.8944 0.4472 0)
(0.8944 0.4472 0)
(0.8944 0.4472 0)
(0.8944 0.4472 0)
(0.8944 0.4472 0)
(0.8944 0.4472 0)
(0.8944 0.4472 0)
(0.8944 0.4472 0)
(0.8944 0.4472 0)
(0.8944 0.4472 0)
(0.8944 0.4472 0)
(0.894401 0.4472 0)
(0.8944 0.4472 0)
(0.8944 0.4472 0)
(0.8944 0.4472 0)
(0.8944 0.4472 0)
(0.8944 0.4472 0)
(0.8944 0.4472 0)
(0.894401 0.447201 0)
(0.894401 0.4472 0)
(0.894402 0.447201 0)
(0.894402 0.447201 0)
(0.894404 0.447202 0)
(0.894404 0.447203 0)
(0.894408 0.447204 0)
(0.89441 0.447207 0)
(0.894416 0.447209 0)
(0.894419 0.447214 0)
(0.894425 0.447218 0)
(0.894435 0.447226 0)
(0.89444 0.447234 0)
(0.894447 0.447239 0)
(0.894458 0.44725 0)
(0.894459 0.447253 0)
(0.89446 0.447254 0)
(0.894457 0.447244 0)
(0.894436 0.447212 0)
(0.894412 0.447151 0)
(0.894361 0.447041 0)
(0.894292 0.446856 0)
(0.894203 0.446573 0)
(0.894089 0.446142 0)
(0.893954 0.44552 0)
(0.893814 0.444652 0)
(0.893695 0.443474 0)
(0.893628 0.441924 0)
(0.893666 0.439949 0)
(0.893889 0.437504 0)
(0.8944 0.4472 0)
(0.8944 0.4472 0)
(0.8944 0.4472 0)
(0.8944 0.4472 0)
(0.8944 0.4472 0)
(0.8944 0.4472 0)
(0.8944 0.4472 0)
(0.8944 0.4472 0)
(0.8944 0.4472 0)
(0.8944 0.4472 0)
(0.8944 0.4472 0)
(0.8944 0.4472 0)
(0.8944 0.4472 0)
(0.8944 0.4472 0)
(0.8944 0.4472 0)
(0.8944 0.4472 0)
(0.8944 0.4472 0)
(0.8944 0.4472 0)
(0.8944 0.4472 0)
(0.8944 0.4472 0)
(0.8944 0.4472 0)
(0.8944 0.4472 0)
(0.8944 0.4472 0)
(0.8944 0.4472 0)
(0.8944 0.4472 0)
(0.8944 0.4472 0)
(0.8944 0.4472 0)
(0.8944 0.4472 0)
(0.8944 0.4472 0)
(0.8944 0.4472 0)
(0.8944 0.4472 0)
(0.8944 0.4472 0)
(0.8944 0.4472 0)
(0.8944 0.4472 0)
(0.894399 0.4472 0)
(0.894401 0.4472 0)
(0.8944 0.4472 0)
(0.8944 0.4472 0)
(0.8944 0.4472 0)
(0.8944 0.4472 0)
(0.8944 0.4472 0)
(0.8944 0.4472 0)
(0.8944 0.4472 0)
(0.8944 0.447201 0)
(0.8944 0.447199 0)
(0.894401 0.447201 0)
(0.8944 0.4472 0)
(0.894402 0.4472 0)
(0.894401 0.447203 0)
(0.894403 0.447201 0)
(0.894403 0.447203 0)
(0.894408 0.447204 0)
(0.894407 0.447205 0)
(0.894413 0.44721 0)
(0.894417 0.44721 0)
(0.894423 0.447218 0)
(0.894425 0.447222 0)
(0.894436 0.447228 0)
(0.894442 0.447239 0)
(0.894443 0.447243 0)
(0.894455 0.44725 0)
(0.894449 0.447254 0)
(0.894447 0.447248 0)
(0.894436 0.447226 0)
(0.894413 0.447185 0)
(0.894377 0.447104 0)
(0.894328 0.44697 0)
(0.894253 0.446756 0)
(0.89417 0.446432 0)
(0.89407 0.445961 0)
(0.893966 0.445302 0)