/*--------------------------------*- C++ -*----------------------------------*\
  =========                 |
  \\      /  F ield         | OpenFOAM: The Open Source CFD Toolbox
   \\    /   O peration     | Website:  https://openfoam.org
    \\  /    A nd           | Version:  6
     \\/     M anipulation  |
\*---------------------------------------------------------------------------*/
FoamFile
{
    version     2.0;
    format      ascii;
    class       volVectorField;
    location    "1.41";
    object      U;
}
// * * * * * * * * * * * * * * * * * * * * * * * * * * * * * * * * * * * * * //

dimensions      [0 1 -1 0 0 0 0];

internalField   nonuniform List<vector> 
4214
(
(4.95374 -0.0352242 -3.33734e-20)
(4.98751 -0.00860969 3.06834e-20)
(4.98395 0.0166761 6.24082e-21)
(4.97551 0.0375853 1.10328e-20)
(4.97808 0.058161 1.63654e-22)
(4.98816 0.0792734 -3.40805e-21)
(5.0023 0.100046 -1.91039e-21)
(5.01503 0.11829 -1.12055e-21)
(5.02321 0.131939 1.94046e-21)
(5.02535 0.14011 5.67635e-22)
(5.02238 0.143278 -2.85522e-22)
(5.01703 0.142231 0)
(5.01219 0.137354 0)
(5.00965 0.128568 -2.38564e-22)
(5.00965 0.115524 9.44892e-22)
(5.01159 0.0981872 1.29469e-23)
(5.01459 0.0771468 -1.96351e-21)
(5.01806 0.0539158 0)
(5.02128 0.0310372 2.91981e-21)
(5.02274 0.0105937 -3.17584e-21)
(5.02972 -0.00376602 0)
(5.03531 -0.0105982 -6.70884e-21)
(5.03135 -0.015743 -6.45212e-21)
(5.02106 -0.0287998 0)
(5.01369 -0.0511327 -2.85188e-21)
(5.01146 -0.075696 4.6295e-23)
(5.01236 -0.0967993 1.8944e-21)
(5.01351 -0.112048 0)
(5.014 -0.121631 -9.51034e-22)
(5.0143 -0.126401 4.77974e-22)
(5.01466 -0.126883 4.67378e-22)
(5.01441 -0.123148 -6.58995e-22)
(5.01182 -0.115059 3.44796e-21)
(5.00492 -0.102533 9.44662e-22)
(4.99297 -0.0862135 -4.13502e-21)
(4.97793 -0.0675538 1.09024e-20)
(4.9658 -0.0481112 1.70336e-21)
(4.96079 -0.029023 3.44371e-21)
(4.96288 -0.00961094 -2.01218e-20)
(4.95702 0.0159079 3.41098e-21)
(4.91169 0.0418358 0)
(5.02903 -0.00835203 -3.71756e-20)
(5.02121 0.0160565 0)
(5.00302 0.0342324 -1.37917e-20)
(4.99351 0.0495741 -2.11484e-20)
(4.99704 0.0679284 3.09157e-21)
(5.00711 0.0878658 -1.20062e-20)
(5.01791 0.107354 7.41738e-21)
(5.02598 0.124166 0)
(5.02953 0.136545 -1.62865e-21)
(5.02792 0.143914 -4.44618e-22)
(5.02247 0.146718 2.18898e-22)
(5.01523 0.145618 -2.13091e-22)
(5.00848 0.140757 0)
(5.0035 0.131715 -5.47675e-22)
(5.00038 0.117668 -4.32896e-21)
(4.99869 0.0979369 4.58613e-23)
(4.99822 0.0726688 1.92241e-21)
(4.99948 0.0440236 9.08214e-21)
(5.00263 0.0170299 -2.88501e-21)
(5.00726 -0.00408091 3.15323e-21)
(5.0202 -0.011617 0)
(5.02915 -0.00617632 -6.07006e-21)
(5.02055 -0.00460384 6.4808e-21)
(4.9964 -0.0126197 -1.16915e-20)
(4.97796 -0.0408636 2.88033e-21)
(4.97461 -0.0734526 0)
(4.98157 -0.101535 -1.96538e-21)
(4.99147 -0.121519 -5.4286e-21)
(5.0008 -0.133825 -2.68702e-21)
(5.00933 -0.139832 -6.95061e-23)
(5.01772 -0.140521 -4.07054e-22)
(5.02614 -0.136439 7.95761e-22)
(5.03324 -0.127641 -1.97783e-22)
(5.03615 -0.114009 -6.98082e-23)
(5.03196 -0.096239 0)
(5.02051 -0.0762898 1.83804e-20)
(5.00651 -0.0565539 -1.73262e-20)
(4.9986 -0.0392492 -2.48374e-20)
(5.0009 -0.0248688 3.74804e-20)
(5.00493 -0.00311765 2.3683e-20)
(5.00276 0.0250553 -2.84503e-20)
(5.03666 0.00467822 -4.35545e-20)
(5.01873 0.0247722 -5.425e-20)
(5.00625 0.0413044 2.30791e-20)
(5.00119 0.0565237 -2.73142e-20)
(5.00613 0.0745098 -1.82271e-20)
(5.01533 0.0935807 1.84505e-20)
(5.02429 0.112004 -4.06411e-21)
(5.03028 0.127802 1.36418e-20)
(5.03186 0.139405 0)
(5.0289 0.146359 -5.96719e-23)
(5.02229 0.149058 5.66776e-22)
(5.01414 0.148012 9.77578e-22)
(5.00635 0.143199 2.44764e-22)
(4.99992 0.133936 -1.84364e-21)
(4.99476 0.119024 3.25312e-21)
(4.99051 0.0972537 -8.02585e-21)
(4.9876 0.068355 0)
(4.98799 0.0350228 -9.04475e-21)
(4.99307 0.00427306 9.40787e-23)
(5.00309 -0.0178128 3.48263e-20)
(5.02397 -0.0196824 0)
(5.03528 -0.0077055 5.00259e-20)
(5.02011 -0.00343037 3.87485e-20)
(4.98354 -0.0150516 1.16833e-20)
(4.9548 -0.0472129 8.03973e-22)
(4.9495 -0.0834857 -2.09926e-21)
(4.96077 -0.114233 3.35506e-21)
(4.97725 -0.135915 3.52818e-21)
(4.99305 -0.149111 1.92013e-21)
(5.00708 -0.155187 -9.84163e-22)
(5.02015 -0.155265 2.63668e-22)
(5.03307 -0.150261 1.34805e-21)
(5.045 -0.140608 0)
(5.05308 -0.126459 -1.06424e-20)
(5.05344 -0.108451 -2.33797e-21)
(5.0443 -0.0882103 -1.86868e-20)
(5.02922 -0.0679629 2.61755e-20)
(5.01673 -0.0495327 0)
(5.01393 -0.0339551 -9.03123e-21)
(5.01612 -0.0125142 0)
(5.0194 0.0143723 -1.2527e-19)
(5.04335 0.0173088 8.50941e-20)
(5.02696 0.0361121 3.92469e-20)
(5.01607 0.0508555 0)
(5.01278 0.0651985 2.9737e-20)
(5.01814 0.0821123 0)
(5.02613 0.100092 -6.33785e-21)
(5.03273 0.117407 2.08815e-20)
(5.036 0.132183 -2.17518e-20)
(5.03505 0.143037 2.00195e-21)
(5.0301 0.149625 -2.00274e-21)
(5.02206 0.152314 1.88605e-21)
(5.01262 0.151437 -1.06113e-21)
(5.00329 0.146755 -1.82557e-22)
(4.99469 0.137265 -9.73048e-22)
(4.9865 0.121278 0)
(4.97852 0.0969043 7.82651e-21)
(4.97216 0.0633752 -4.68225e-22)
(4.97145 0.0241705 -3.71644e-20)
(4.97969 -0.0113303 5.27789e-22)
(4.99874 -0.0345428 -1.27372e-19)
(5.03128 -0.0310869 0)
(5.04447 -0.0165037 -8.8513e-20)
(5.01758 -0.0111131 -3.8216e-20)
(4.96561 -0.0326925 4.87206e-20)
(4.92736 -0.0673674 2.26426e-21)
(4.92047 -0.105221 3.56241e-20)
(4.93685 -0.137133 -2.93564e-21)
(4.96136 -0.159517 2.81948e-21)
(4.98502 -0.172867 0)
(5.00586 -0.178455 2.79186e-21)
(5.0249 -0.177544 -3.47854e-22)
(5.04345 -0.171367 -2.56174e-21)
(5.06116 -0.160655 3.53228e-21)
(5.07534 -0.145854 -3.94741e-21)
(5.0815 -0.127584 0)
(5.07623 -0.107083 7.29403e-22)
(5.06144 -0.0862291 4.98951e-21)
(5.04562 -0.0667447 6.18149e-20)
(5.03844 -0.0496711 -5.6182e-20)
(5.04 -0.0298684 -6.62444e-20)
(5.04339 0.00155886 6.89665e-20)
(5.04959 0.0288222 0)
(5.03373 0.0476946 0)
(5.02452 0.0600446 1.03882e-19)
(5.02367 0.0739911 2.00633e-20)
(5.02917 0.0899193 -2.18665e-20)
(5.03567 0.106836 0)
(5.04003 0.123058 -1.42471e-20)
(5.04088 0.136878 1.22561e-20)
(5.03777 0.147078 0)
(5.03103 0.153413 1.83374e-21)
(5.02167 0.156207 -4.22278e-21)
(5.01094 0.155609 1.0737e-21)
(4.99995 0.151124 1.75923e-22)
(4.98889 0.141402 2.50529e-21)
(4.97717 0.124221 1.98359e-21)
(4.96473 0.0969793 -3.03818e-21)
(4.95434 0.0584733 4.97887e-22)
(4.9528 0.0132456 3.9125e-20)
(4.96588 -0.0270332 1.08974e-19)
(4.99663 -0.0514191 2.08717e-19)
(5.04116 -0.0456281 4.05013e-22)
(5.05126 -0.0350249 1.8994e-19)
(5.01646 -0.0431527 1.88354e-21)
(4.9513 -0.067884 -5.18017e-20)
(4.9044 -0.101877 -5.99045e-21)
(4.89629 -0.137526 -3.27475e-20)
(4.9169 -0.168109 -3.80114e-21)
(4.949 -0.19005 3.65623e-21)
(4.98015 -0.202785 0)
(5.00743 -0.207369 1.62692e-21)
(5.03218 -0.205252 5.10571e-22)
(5.05585 -0.197825 -1.4232e-20)
(5.07836 -0.185998 0)
(5.09748 -0.170585 4.04329e-21)
(5.10878 -0.152287 0)
(5.1079 -0.131907 1.17498e-21)
(5.09492 -0.110621 6.40389e-20)
(5.077 -0.089854 -7.31493e-20)
(5.06503 -0.0704713 0)
(5.06426 -0.0519169 -2.3068e-20)
(5.06851 -0.0167273 0)
(5.05592 0.0409308 -2.06769e-19)
(5.04193 0.0590691 0)
(5.03449 0.0697463 -1.37656e-19)
(5.03536 0.0832291 2.93529e-20)
(5.04038 0.0981376 0)
(5.04518 0.114017 0)
(5.04724 0.129207 8.77154e-21)
(5.04569 0.142166 -2.67442e-20)
(5.04043 0.151842 -7.29237e-21)
(5.03187 0.158036 0)
(5.02105 0.161036 0)
(5.0089 0.160837 3.4162e-21)
(4.99594 0.156643 6.38833e-22)
(4.98189 0.146735 0)
(4.96581 0.128346 2.28681e-20)
(4.94787 0.0982147 -1.47272e-21)
(4.93271 0.0549721 -4.44182e-20)
(4.93067 0.00467307 1.10757e-19)
(4.95048 -0.0391705 -2.40682e-19)
(4.99344 -0.0637804 2.42264e-20)
(5.04575 -0.0598248 0)
(5.05273 -0.0609636 -1.39559e-19)
(5.01368 -0.0866306 -4.77767e-21)
(4.94214 -0.113693 -1.53825e-19)
(4.88841 -0.145063 1.40295e-19)
(4.87827 -0.176559 -6.18824e-21)
(4.90125 -0.2043 1.06813e-19)
(4.93992 -0.225214 -1.4915e-20)
(4.97804 -0.237165 -2.44123e-20)
(5.0117 -0.240828 -6.09057e-21)
(5.04227 -0.237738 -4.50461e-21)
(5.07103 -0.229193 1.69204e-20)
(5.09793 -0.216251 -7.43837e-21)
(5.12123 -0.200064 0)
(5.13711 -0.181544 -1.72785e-20)
(5.14107 -0.161267 -3.89449e-20)
(5.13171 -0.139787 3.61874e-20)
(5.11414 -0.11802 0)
(5.09871 -0.0964871 -9.65125e-20)
(5.09378 -0.0770804 9.52655e-20)
(5.09609 -0.040696 2.97559e-20)
(5.06294 0.0535529 1.44568e-19)
(5.05098 0.070366 -3.47787e-20)
(5.04546 0.0800898 -1.08236e-19)
(5.04738 0.0929 0)
(5.05156 0.106889 -3.40608e-20)
(5.05445 0.121778 2.65278e-20)
(5.05418 0.136011 0)
(5.0503 0.148221 -2.88786e-21)
(5.04295 0.15752 2.88346e-22)
(5.03262 0.163723 6.1832e-21)
(5.02019 0.167028 -3.93381e-21)
(5.00636 0.167318 -6.77201e-21)
(4.9911 0.163536 1.58625e-21)
(4.97349 0.153574 0)
(4.9522 0.134187 -2.06671e-20)
(4.92778 0.101597 0)
(4.90727 0.0547634 4.36833e-20)
(4.90519 0.00184023 -1.11386e-19)
(4.93283 -0.0428112 1.34495e-19)
(4.98776 -0.0675343 -1.4311e-19)
(5.04449 -0.0673999 0)
(5.04862 -0.0868635 0)
(5.00645 -0.132231 0)
(4.93695 -0.161586 1.60951e-19)
(4.87887 -0.19007 -1.42994e-19)
(4.86732 -0.217919 1.47577e-20)
(4.89043 -0.242916 -1.08007e-19)
(4.93383 -0.262618 0)
(4.97819 -0.274267 3.74878e-20)
(5.01838 -0.277585 7.91363e-21)
(5.05492 -0.273948 4.63258e-21)
(5.08888 -0.26455 -2.05064e-20)
(5.12002 -0.250523 -3.00876e-20)
(5.14691 -0.233296 -3.64817e-20)
(5.16661 -0.214053 5.43486e-20)
(5.17523 -0.19342 0)
(5.17064 -0.171618 9.70555e-20)
(5.15583 -0.149075 -2.13906e-19)
(5.13917 -0.125671 9.72394e-20)
(5.13011 -0.104809 -1.14061e-19)
(5.12783 -0.0674823 1.00236e-19)
(5.07095 0.0666541 0)
(5.06141 0.0818588 -1.79611e-19)
(5.05767 0.0910579 1.469e-19)
(5.05995 0.103209 0)
(5.06288 0.116355 5.90074e-20)
(5.06368 0.130323 7.32881e-21)
(5.06101 0.1437 -2.23885e-20)
(5.05478 0.155299 5.09974e-20)
(5.04535 0.164375 -9.29814e-21)
(5.03325 0.170753 -4.84773e-21)
(5.01908 0.174516 8.79152e-21)
(5.00321 0.175381 3.34782e-21)
(4.98513 0.172116 -8.35462e-22)
(4.96328 0.162347 2.03241e-21)
(4.93599 0.142491 -4.38682e-21)
(4.90431 0.108519 9.29479e-20)
(4.87817 0.0604746 0)
(4.87582 0.00918736 0)
(4.9095 -0.0329844 1.87295e-19)
(4.97659 -0.0662732 -2.00956e-19)
(5.03692 -0.0621493 3.33562e-21)
(5.02191 -0.104778 -2.66003e-19)
(4.99059 -0.170704 -2.58467e-19)
(4.93237 -0.204899 0)
(4.87303 -0.231792 0)
(4.86102 -0.258167 -1.47875e-19)
(4.8833 -0.282039 -1.65155e-20)
(4.9297 -0.300987 7.6465e-20)
(4.97954 -0.313413 0)
(5.02676 -0.317239 -8.14953e-21)
(5.06963 -0.313472 0)
(5.10925 -0.303464 -9.16396e-21)
(5.14493 -0.288336 2.11618e-20)
(5.17541 -0.269805 -8.04105e-21)
(5.19853 -0.249254 1.31255e-19)
(5.21136 -0.227567 -2.26196e-20)
(5.21192 -0.204953 -1.21164e-19)
(5.20162 -0.181577 1.29825e-19)
(5.18641 -0.156636 1.6282e-20)
(5.1751 -0.134353 -1.1413e-19)
(5.16753 -0.0960228 1.57661e-19)
(5.08044 0.0799069 -3.167e-19)
(5.07357 0.0940359 3.75887e-19)
(5.07114 0.102835 1.38031e-19)
(5.07311 0.114394 7.68112e-20)
(5.0744 0.126783 -1.09129e-19)
(5.0729 0.139914 -2.86215e-20)
(5.06775 0.152553 -4.1006e-21)
(5.05916 0.163693 -2.42582e-20)
(5.04765 0.17271 0)
(5.03371 0.179438 3.60619e-21)
(5.01767 0.183823 -6.07479e-21)
(4.99942 0.185415 -2.9558e-21)
(4.97788 0.182842 -8.10717e-21)
(4.951 0.1736 1.84594e-20)
(4.91691 0.154113 5.0238e-21)
(4.87766 0.120652 9.78716e-21)
(4.84609 0.075351 0)
(4.84293 0.0317585 0)
(4.87922 -0.00373145 -1.84296e-19)
(4.95462 -0.0376309 -3.25161e-20)
(5.00908 -0.0405888 -4.03883e-21)
(4.97626 -0.108674 2.69906e-19)
(4.96196 -0.195949 2.45373e-19)
(4.92429 -0.240118 1.66873e-20)
(4.86821 -0.268188 0)
(4.85543 -0.296199 1.69232e-19)
(4.87805 -0.32135 1.31969e-20)
(4.92653 -0.340771 -7.70896e-20)
(4.98116 -0.355263 1.17435e-20)
(5.03637 -0.360239 2.38901e-20)
(5.08611 -0.356564 2.26752e-20)
(5.13213 -0.345941 -2.82965e-20)
(5.17286 -0.329447 0)
(5.20733 -0.309266 -6.63819e-20)
(5.23384 -0.28682 3.96489e-20)
(5.25051 -0.263425 -1.0338e-19)
(5.25595 -0.239379 0)
(5.25089 -0.214903 -1.91003e-19)
(5.23922 -0.188732 1.60168e-19)
(5.22833 -0.165478 -2.12548e-20)
(5.21681 -0.126746 0)
(5.09215 0.0934912 4.26501e-19)
(5.08776 0.107049 -2.8527e-19)
(5.08597 0.115663 1.14181e-19)
(5.08694 0.126736 0)
(5.08618 0.138461 6.87691e-20)
(5.08215 0.150855 6.80776e-20)
(5.07444 0.162888 2.964e-20)
(5.06347 0.173736 -4.67974e-20)
(5.04985 0.182877 3.8499e-20)
(5.03398 0.190127 -8.20083e-21)
(5.01589 0.195324 -6.20346e-21)
(4.99486 0.19786 3.25507e-21)
(4.96922 0.196278 4.48944e-21)
(4.93651 0.188122 -3.9945e-20)
(4.8948 0.170119 0)
(4.84797 0.139713 -9.17873e-20)
(4.81204 0.102239 2.98858e-21)
(4.80807 0.072742 -2.26849e-19)
(4.84284 0.0469313 -2.29207e-19)
(4.91851 0.0134522 2.33459e-19)
(4.96283 -0.00297926 5.41919e-21)
(4.90863 -0.0979821 -1.63938e-20)
(4.91583 -0.20716 -3.62574e-19)
(4.9095 -0.267056 0)
(4.86083 -0.299701 0)
(4.84892 -0.333413 -2.1863e-20)
(4.87332 -0.36243 -6.96574e-21)
(4.92384 -0.383799 1.05905e-19)
(4.98274 -0.401569 -3.0345e-20)
(5.04746 -0.407765 -1.47089e-20)
(5.10471 -0.404103 8.26204e-20)
(5.15814 -0.392321 1.19777e-19)
(5.2043 -0.373761 -1.5023e-19)
(5.24327 -0.351254 1.50138e-19)
(5.27329 -0.326162 -1.77599e-19)
(5.29354 -0.300446 -1.90266e-19)
(5.30335 -0.274281 1.92633e-19)
(5.30343 -0.248307 2.36673e-20)
(5.29632 -0.221013 4.16266e-20)
(5.288 -0.197078 0)
(5.2749 -0.158936 2.37722e-19)
(5.10689 0.107758 -2.14109e-19)
(5.10431 0.121131 2.19214e-19)
(5.10229 0.129801 -1.79492e-19)
(5.10153 0.14053 0)
(5.09825 0.151706 8.0672e-20)
(5.09147 0.163484 -6.39663e-20)
(5.08112 0.17506 -8.64077e-20)
(5.06777 0.185802 5.09836e-20)
(5.05202 0.195259 0)
(5.03413 0.203222 -4.05731e-21)
(5.01375 0.209467 1.68503e-20)
(4.98948 0.213272 -1.35767e-20)
(4.95907 0.213131 1.12624e-22)
(4.91978 0.206886 4.0818e-21)
(4.87009 0.191945 -8.18168e-21)
(4.81645 0.16754 0)
(4.77821 0.142833 1.22829e-20)
(4.7732 0.132658 4.36576e-19)
(4.79974 0.116141 2.28183e-19)
(4.86633 0.0799638 0)
(4.89437 0.0487851 0)
(4.81777 -0.0762802 0)
(4.84914 -0.206237 3.811e-19)
(4.88381 -0.287974 3.97376e-19)
(4.8475 -0.32858 -2.86448e-19)
(4.84047 -0.372782 -3.26935e-20)
(4.86806 -0.407824 2.87251e-20)
(4.92207 -0.432523 -1.09213e-19)
(4.98499 -0.45432 2.90344e-22)
(5.06126 -0.461034 5.20617e-21)
(5.12636 -0.457135 3.77818e-20)
(5.18849 -0.442862 -1.24407e-19)
(5.24018 -0.421231 -4.4485e-20)
(5.28414 -0.395182 1.13233e-19)
(5.3176 -0.366446 2.22995e-19)
(5.34122 -0.337585 0)
(5.35478 -0.30845 0)
(5.35938 -0.280367 7.03282e-20)
(5.35675 -0.25166 -3.04169e-20)
(5.35182 -0.22645 -2.70617e-19)
(5.33963 -0.189877 5.66835e-19)
(5.12543 0.123093 -2.42276e-19)
(5.1235 0.136547 -2.06587e-19)
(5.12022 0.145522 -1.02833e-19)
(5.11692 0.156083 0)
(5.11067 0.166862 -1.50535e-19)
(5.10096 0.178178 8.94808e-22)
(5.08793 0.18947 8.67987e-20)
(5.07222 0.200305 -8.17407e-20)
(5.05432 0.210279 2.40358e-20)
(5.03426 0.219198 2.14817e-20)
(5.01121 0.226797 -2.29422e-20)
(4.98323 0.232294 6.25002e-21)
(4.9476 0.234209 9.59418e-21)
(4.90164 0.231055 -3.55917e-21)
(4.84493 0.221262 -9.33939e-21)
(4.78728 0.206114 -1.23184e-19)
(4.74941 0.197904 -1.98306e-20)
(4.74053 0.209215 -2.13184e-19)
(4.74972 0.199781 -1.65817e-20)
(4.7971 0.161629 -7.69483e-19)
(4.80421 0.111326 7.86858e-21)
(4.70469 -0.0490803 -1.12235e-18)
(4.76034 -0.197526 -5.25973e-19)
(4.84451 -0.307563 -4.07758e-19)
(4.82734 -0.358852 6.91786e-19)
(4.82929 -0.41794 -5.15197e-20)
(4.86187 -0.459711 5.00088e-20)
(4.92196 -0.489384 -5.8655e-21)
(4.989 -0.515364 -8.58221e-23)
(5.07915 -0.520984 0)
(5.15202 -0.516552 -2.15721e-19)
(5.22468 -0.497459 8.62676e-20)
(5.28169 -0.471892 2.09062e-19)
(5.33123 -0.440396 -1.18067e-19)
(5.36775 -0.40707 -1.28339e-19)
(5.39455 -0.373727 1.63845e-19)
(5.41112 -0.340646 0)
(5.41919 -0.309343 -7.33535e-20)
(5.42008 -0.278481 0)
(5.41803 -0.251187 2.39577e-19)
(5.40851 -0.21672 3.47424e-19)
(5.1483 0.140348 3.6196e-19)
(5.14532 0.153814 3.48823e-19)
(5.13965 0.163213 2.01948e-19)
(5.133 0.173769 8.69564e-20)
(5.12341 0.184328 7.71837e-20)
(5.11061 0.195377 -9.09153e-21)
(5.09494 0.206576 0)
(5.07691 0.21772 0)
(5.0568 0.228442 -4.00547e-20)
(5.0343 0.238624 3.58965e-20)
(5.00805 0.247878 0)
(4.97586 0.255346 0)
(4.93486 0.259755 -1.30236e-20)
(4.88284 0.260917 5.00212e-20)
(4.82134 0.258516 -2.07582e-20)
(4.76311 0.25556 1.20319e-19)
(4.72732 0.266178 2.14769e-20)
(4.71045 0.297789 2.99887e-19)
(4.69425 0.292624 0)
(4.71257 0.255643 3.37148e-19)
(4.69304 0.1799 0)
(4.57163 -0.0216636 1.13896e-18)
(4.64967 -0.186615 5.39255e-19)
(4.79056 -0.331884 0)
(4.79844 -0.395515 -3.73493e-19)
(4.81494 -0.47247 0)
(4.85491 -0.519283 0)
(4.92412 -0.556087 -1.68411e-21)
(4.99563 -0.585845 1.35263e-19)
(5.10225 -0.588228 -1.36333e-19)
(5.18235 -0.583198 8.66811e-20)
(5.26811 -0.55579 1.43217e-19)
(5.32976 -0.525998 -1.42423e-19)
(5.38581 -0.4862 0)
(5.42475 -0.447737 -3.96858e-19)
(5.45452 -0.40785 -3.75412e-19)
(5.47312 -0.370212 2.08961e-19)
(5.48328 -0.33379 0)
(5.48628 -0.299858 0)
(5.48618 -0.269662 -4.1288e-19)
(5.47952 -0.236834 4.09767e-19)
(5.17561 0.160767 5.61375e-22)
(5.16946 0.173788 -6.68649e-19)
(5.1602 0.183455 1.18255e-20)
(5.14948 0.194049 -8.96538e-20)
(5.1363 0.20454 9.06676e-20)
(5.12037 0.215505 -8.24731e-20)
(5.10215 0.226821 6.30385e-20)
(5.08184 0.238487 -3.30145e-20)
(5.05941 0.250213 0)
(5.03416 0.261917 -4.64477e-21)
(5.00428 0.272958 0)
(4.96743 0.282499 0)
(4.92083 0.289721 1.26994e-20)
(4.86332 0.296264 -4.0959e-20)
(4.79832 0.30328 -1.35707e-19)
(4.74012 0.313831 0)
(4.70557 0.342133 -2.95582e-19)
(4.67921 0.389002 8.80813e-20)
(4.63279 0.386332 3.92348e-19)
(4.61035 0.356333 4.76422e-19)
(4.55521 0.248034 0)
(4.41986 0.00158892 0)
(4.51928 -0.178872 7.21998e-19)
(4.72582 -0.366096 5.68642e-19)
(4.76158 -0.442308 6.35164e-20)
(4.79856 -0.538444 0)
(4.84766 -0.587173 0)
(4.92905 -0.633439 0)
(5.00589 -0.665606 -8.78695e-20)
(5.13193 -0.662803 0)
(5.2184 -0.657187 -1.60136e-19)
(5.32035 -0.617257 1.58726e-19)
(5.38524 -0.583522 -2.0657e-19)
(5.44878 -0.531727 6.75378e-19)
(5.48905 -0.48806 4.16543e-19)
(5.52162 -0.438412 2.1417e-19)
(5.54083 -0.396663 -2.19631e-19)
(5.55204 -0.352516 0)
(5.55595 -0.315952 -2.19129e-19)
(5.55697 -0.281481 6.01383e-19)
(5.55196 -0.248944 1.28204e-19)
(5.20709 0.185275 0)
(5.19609 0.197387 -1.2402e-19)
(5.18199 0.206924 1.01784e-19)
(5.16682 0.217326 1.85763e-19)
(5.14978 0.227843 -1.90136e-19)
(5.13085 0.238758 0)
(5.11013 0.250434 0)
(5.08762 0.262696 -8.489e-20)
(5.06279 0.27561 4.95045e-20)
(5.03476 0.288805 -6.139e-22)
(5.00127 0.301741 1.2678e-20)
(4.96011 0.313931 3.05642e-21)
(4.90901 0.325362 -7.07043e-22)
(4.84784 0.338924 5.4388e-20)
(4.78084 0.35818 1.05536e-19)
(4.72365 0.382625 1.98157e-19)
(4.69 0.423932 2.60368e-19)
(4.65242 0.477118 -7.35102e-19)
(4.56459 0.474743 -4.58755e-19)
(4.47504 0.45525 3.26e-20)
(4.3777 0.304355 0)
(4.24448 0.0121777 5.13609e-20)
(4.36977 -0.181705 -1.64904e-18)
(4.65983 -0.414777 -6.03978e-21)
(4.71871 -0.500019 -2.3159e-20)
(4.78167 -0.615428 3.69139e-19)
(4.84099 -0.66382 0)
(4.93719 -0.722765 0)
(5.0215 -0.753154 0)
(5.17075 -0.744158 0)
(5.2631 -0.73644 4.81003e-19)
(5.38364 -0.680486 0)
(5.44984 -0.642601 5.97377e-19)
(5.52156 -0.574489 -4.49993e-19)
(5.5611 -0.527236 5.54632e-19)
(5.59641 -0.463101 0)
(5.61436 -0.41945 0)
(5.62612 -0.364498 0)
(5.62988 -0.327259 -5.81176e-19)
(5.63108 -0.285877 0)
(5.62632 -0.254081 1.59208e-20)
(5.24172 0.21462 2.54538e-19)
(5.22642 0.225392 9.10696e-20)
(5.20569 0.234535 -2.45425e-20)
(5.18721 0.244108 -1.38618e-19)
(5.16523 0.254915 -3.92046e-19)
(5.14422 0.265395 9.37234e-20)
(5.1203 0.277865 0)
(5.0961 0.290261 3.70548e-20)
(5.06852 0.304521 6.59818e-21)
(5.03811 0.318654 1.91672e-21)
(5.00137 0.334014 -4.08222e-21)
(4.95727 0.349302 3.43256e-23)
(4.90392 0.367424 2.02668e-21)
(4.84392 0.389452 2.78821e-20)
(4.78062 0.422657 -9.35697e-20)
(4.73035 0.461267 -1.87917e-20)
(4.70085 0.51569 0)
(4.65146 0.573581 3.28149e-19)
(4.50409 0.574072 5.27919e-19)
(4.30668 0.557865 -1.51756e-18)
(4.16117 0.341459 0)
(4.03623 -0.00222927 -2.15378e-18)
(4.19895 -0.205742 7.73812e-19)
(4.5724 -0.487301 -7.18628e-19)
(4.66828 -0.570166 7.68787e-20)
(4.76425 -0.704489 -5.6386e-19)
(4.83464 -0.750059 -4.71106e-20)
(4.94935 -0.827106 -1.67074e-19)
(5.04443 -0.847411 0)
(5.22249 -0.83328 2.37948e-19)
(5.31904 -0.817645 7.07342e-19)
(5.4603 -0.743413 -9.65013e-19)
(5.52484 -0.700833 -6.29251e-19)
(5.60665 -0.610188 1.31659e-19)
(5.64181 -0.564284 7.98234e-19)
(5.68017 -0.478906 -7.07911e-19)
(5.69456 -0.438167 7.18912e-19)
(5.70631 -0.367868 3.78788e-19)
(5.70855 -0.33429 3.28708e-19)
(5.70846 -0.281306 0)
(5.70337 -0.253581 1.17812e-18)
(5.27531 0.250968 0)
(5.26201 0.258636 1.16369e-19)
(5.22869 0.269233 -5.16465e-19)
(5.21316 0.276145 3.62184e-19)
(5.18085 0.288891 0)
(5.16224 0.297121 1.96064e-19)
(5.13089 0.311823 -4.52805e-20)
(5.10796 0.322359 6.79029e-20)
(5.07457 0.338982 -1.47784e-19)
(5.04428 0.352431 2.90762e-21)
(5.00239 0.37197 -1.6146e-20)
(4.95898 0.389533 0)
(4.90363 0.415434 1.05957e-20)
(4.84958 0.44259 -2.33994e-20)
(4.79563 0.485371 8.91569e-20)
(4.75239 0.533327 -1.8026e-19)
(4.72074 0.60379 0)
(4.66133 0.675162 5.21352e-20)
(4.44197 0.689614 -5.35848e-19)
(4.12841 0.68467 1.58623e-18)
(3.94527 0.383214 -7.00413e-20)
(3.80081 -0.0379134 2.26048e-18)
(4.01696 -0.249771 1.08693e-18)
(4.47464 -0.590467 0)
(4.59522 -0.660607 5.46534e-19)
(4.74658 -0.809902 2.86272e-19)
(4.82686 -0.85089 1.94438e-20)
(4.97251 -0.949144 1.95547e-19)
(5.07352 -0.951833 0)
(5.29075 -0.933275 -1.21259e-18)
(5.37938 -0.903798 -7.04012e-19)
(5.55083 -0.80534 7.07637e-19)
(5.60442 -0.761977 0)
(5.70311 -0.637723 -8.02589e-19)
(5.72805 -0.601056 -1.80373e-18)
(5.7721 -0.484703 0)
(5.7804 -0.455188 0)
(5.79108 -0.360995 -1.24955e-18)
(5.79092 -0.338279 3.708e-20)
(5.78697 -0.265658 4.19154e-20)
(5.78272 -0.248619 2.43597e-18)
(5.77565 -0.192741 -1.698e-18)
(5.70509 -0.213844 -2.14561e-18)
(5.63489 -0.224521 0)
(5.56661 -0.226444 -2.53838e-19)
(5.49956 -0.219987 2.58879e-20)
(5.43285 -0.204771 -9.74953e-19)
(5.36698 -0.182486 -6.81146e-19)
(5.30421 -0.155405 -2.83014e-19)
(5.24741 -0.127282 0)
(5.19844 -0.100897 0)
(5.1573 -0.0763112 0)
(5.12199 -0.0529744 0)
(5.09062 -0.031258 0)
(5.06351 -0.0131517 5.59977e-20)
(5.03957 0.0037963 -1.05746e-21)
(4.9985 0.018521 0)
(4.83481 0.0469272 -7.46913e-20)
(5.77351 -0.178957 2.16523e-19)
(5.70778 -0.191082 5.9198e-19)
(5.64413 -0.200706 0)
(5.58279 -0.205365 0)
(5.52226 -0.202998 0)
(5.46154 -0.193659 6.76334e-19)
(5.40053 -0.177226 3.7088e-19)
(5.34083 -0.154378 1.81632e-19)
(5.28524 -0.12893 1.45284e-19)
(5.23597 -0.103489 -4.34783e-19)
(5.19367 -0.0788597 -1.14037e-19)
(5.15792 -0.0550886 1.14428e-19)
(5.1278 -0.032633 0)
(5.10055 -0.0142035 1.89049e-19)
(5.07278 0.00391588 1.3016e-19)
(5.02493 0.00909398 -1.43025e-19)
(4.82916 0.0434651 -2.86076e-20)
(5.76598 -0.132765 0)
(5.70971 -0.155406 0)
(5.65339 -0.171376 3.73296e-19)
(5.59893 -0.180186 -3.56864e-19)
(5.54495 -0.181649 -2.99144e-19)
(5.49008 -0.176571 2.89315e-19)
(5.43429 -0.164574 0)
(5.37869 -0.146331 -6.58832e-19)
(5.32556 -0.124519 -3.88076e-19)
(5.27729 -0.10168 3.10104e-19)
(5.23521 -0.0793959 -1.6657e-20)
(5.19929 -0.0576574 1.50658e-19)
(5.16824 -0.0363095 2.72311e-19)
(5.13965 -0.0176475 -3.2001e-19)
(5.10822 0.000553987 1.558e-19)
(5.05022 0.00703496 -8.60656e-20)
(4.82447 0.0487744 1.2467e-19)
(5.76373 -0.122623 -1.33273e-18)
(5.71118 -0.137164 -9.45238e-19)
(5.66047 -0.149166 0)
(5.61268 -0.15739 0)
(5.56607 -0.161307 0)
(5.51791 -0.159689 6.61613e-19)
(5.46774 -0.151901 -5.98327e-19)
(5.41682 -0.138357 5.10083e-19)
(5.36699 -0.120526 0)
(5.32049 -0.100633 2.05763e-19)
(5.27891 -0.080089 3.89912e-19)
(5.2427 -0.0592811 -8.96372e-19)
(5.21135 -0.0383653 -3.04956e-19)
(5.18249 -0.0196163 1.42694e-19)
(5.14824 -0.00162768 -4.35506e-19)
(5.08084 0.00639967 4.85989e-19)
(4.82409 0.0522347 -2.27439e-19)
(5.755 -0.0847795 1.77156e-18)
(5.71105 -0.106675 2.39731e-18)
(5.66676 -0.123489 -2.37214e-19)
(5.62456 -0.134972 -8.74885e-19)
(5.58423 -0.142066 2.09571e-19)
(5.54284 -0.144103 -1.51698e-18)
(5.49862 -0.139894 6.80185e-19)
(5.45261 -0.130008 -3.0345e-19)
(5.40659 -0.115546 5.74151e-19)
(5.36252 -0.0983162 -1.96931e-20)
(5.3221 -0.0796288 -4.82853e-19)
(5.28634 -0.06027 6.53232e-19)
(5.25529 -0.0402321 -4.35265e-19)
(5.22652 -0.0214651 0)
(5.1906 -0.00334843 4.11286e-19)
(5.11561 0.00654249 -3.33649e-20)
(4.82772 0.0551354 2.5307e-19)
(5.75261 -0.0790848 -1.65058e-18)
(5.71102 -0.093346 -1.48086e-18)
(5.67134 -0.105719 2.74396e-19)
(5.63395 -0.115735 1.50704e-20)
(5.59866 -0.12335 0)
(5.5634 -0.127559 8.6824e-19)
(5.52546 -0.126747 8.17679e-19)
(5.48475 -0.120455 0)
(5.44311 -0.109597 -7.05448e-19)
(5.40232 -0.0953584 6.55651e-19)
(5.36402 -0.0789558 -7.53602e-19)
(5.32942 -0.0611787 5.80743e-19)
(5.29883 -0.0420282 6.18465e-19)
(5.27015 -0.0234467 5.0737e-19)
(5.23372 -0.00521503 -1.07352e-19)
(5.15332 0.00631662 1.15105e-19)
(4.8359 0.0567391 4.49853e-19)
(5.74486 -0.0478307 -8.60373e-19)
(5.71015 -0.0676851 -3.05247e-19)
(5.67576 -0.0839203 8.84364e-19)
(5.6428 -0.0960444 8.44605e-19)
(5.61125 -0.104814 2.61816e-19)
(5.5803 -0.110524 5.50478e-21)
(5.54809 -0.112609 -6.8952e-19)
(5.5132 -0.110036 2.13355e-19)
(5.47652 -0.102909 1.72088e-19)
(5.43977 -0.0918855 -3.47725e-19)
(5.40437 -0.0779404 5.12038e-19)
(5.37145 -0.0618501 -4.67742e-19)
(5.34144 -0.0438878 0)
(5.31278 -0.0258605 -5.62474e-19)
(5.27666 -0.00750963 6.70593e-20)
(5.19265 0.00551096 -3.40529e-19)
(4.84926 0.056746 -1.24927e-19)
(5.74253 -0.0436987 -1.67345e-19)
(5.70948 -0.0572666 7.17074e-19)
(5.67857 -0.0689804 -6.66297e-19)
(5.64987 -0.0789973 0)
(5.62241 -0.0874396 -5.88779e-19)
(5.59505 -0.0938843 5.50296e-19)
(5.56701 -0.0975688 -2.63367e-19)
(5.53753 -0.0978118 -2.51724e-19)
(5.50628 -0.0941794 -1.20912e-20)
(5.4742 -0.0868352 -4.3405e-19)
(5.44252 -0.0760394 -2.04771e-19)
(5.41208 -0.0622981 2.02005e-19)
(5.38325 -0.0460682 0)
(5.35492 -0.0290228 3.70266e-19)
(5.31959 -0.0105961 3.50857e-19)
(5.23311 0.00360037 -2.99975e-19)
(4.86843 0.0549072 -2.77384e-19)
(5.73631 -0.0185139 2.36233e-19)
(5.70862 -0.0361173 -9.45109e-19)
(5.68175 -0.0505506 0)
(5.65661 -0.0616779 0)
(5.6327 -0.0706364 0)
(5.60876 -0.0776205 -4.63996e-19)
(5.58389 -0.0823079 1.01898e-18)
(5.55815 -0.0841847 2.76705e-19)
(5.53167 -0.0830022 -3.08304e-21)
(5.50451 -0.0790217 5.08613e-19)
(5.47716 -0.0717622 3.65122e-19)
(5.45018 -0.0611465 -3.76502e-21)
(5.42378 -0.0476507 -4.55928e-19)
(5.39687 -0.0324848 -7.72866e-20)
(5.36287 -0.0146772 3.14096e-20)
(5.27466 -0.00021604 -3.48386e-19)
(4.89387 0.050508 -4.57716e-20)
(5.7339 -0.0133628 8.90714e-19)
(5.70798 -0.026437 8.30987e-19)
(5.68409 -0.0374061 0)
(5.66226 -0.0465093 -1.84141e-19)
(5.64169 -0.0547177 8.69367e-19)
(5.62113 -0.0618487 -1.67191e-19)
(5.59959 -0.0670049 -9.58431e-19)
(5.57691 -0.0699248 -7.63788e-19)
(5.55369 -0.0707722 -5.86738e-19)
(5.53036 -0.0687698 -1.40674e-19)
(5.50711 -0.0639495 -4.00963e-19)
(5.48403 -0.05673 0)
(5.46105 -0.0466143 6.12531e-19)
(5.43687 -0.0342661 -5.85917e-19)
(5.40514 -0.0186709 -3.85352e-19)
(5.31628 -0.005283 3.65793e-19)
(4.9256 0.0422571 0)
(5.72901 0.00661793 -2.26255e-19)
(5.70724 -0.00953738 2.83724e-21)
(5.68675 -0.0220836 2.04018e-19)
(5.66783 -0.0313547 0)
(5.64998 -0.0395449 -5.72051e-19)
(5.63225 -0.0467336 -8.8637e-19)
(5.6138 -0.0522037 1.37441e-18)
(5.59438 -0.0558169 8.30864e-19)
(5.57413 -0.0574158 3.20014e-19)
(5.55356 -0.0572586 -4.56906e-19)
(5.53319 -0.0548171 1.47255e-19)
(5.51326 -0.0496007 3.57312e-19)
(5.49366 -0.0423054 6.91429e-20)
(5.47277 -0.0331662 0)
(5.4438 -0.0205172 -6.31438e-20)
(5.35566 -0.009466 6.19457e-20)
(4.96203 0.0325545 0)
(5.72643 0.0133303 0)
(5.70656 0.000619837 -6.53494e-19)
(5.68868 -0.00937016 2.11028e-19)
(5.67235 -0.0171865 0)
(5.65695 -0.0249596 -9.76447e-20)
(5.64173 -0.032029 4.85841e-19)
(5.62614 -0.0376508 -7.29703e-19)
(5.60988 -0.0418125 0)
(5.59288 -0.0444523 -8.38456e-20)
(5.57529 -0.0453413 7.29893e-19)
(5.5574 -0.0443508 0)
(5.53977 -0.0418808 -6.02201e-19)
(5.52255 -0.0371857 -2.91175e-19)
(5.50424 -0.0295157 -3.17987e-19)
(5.47757 -0.0197819 3.4295e-20)
(5.39129 -0.0118222 -1.64457e-20)
(4.99998 0.0246025 1.61288e-20)
(5.72208 0.0304609 3.50452e-19)
(5.70573 0.015123 4.63078e-19)
(5.69027 0.00464079 0)
(5.67594 -0.00299378 -5.06142e-19)
(5.66239 -0.0105985 -7.84944e-22)
(5.64919 -0.0175265 4.83755e-19)
(5.63605 -0.0233314 -3.12823e-19)
(5.62265 -0.0280299 -3.4667e-19)
(5.60875 -0.0314257 3.3397e-22)
(5.59425 -0.033386 -4.13027e-20)
(5.5793 -0.0338699 0)
(5.56417 -0.0328006 0)
(5.54906 -0.030162 2.8281e-19)
(5.53273 -0.0258144 6.00742e-19)
(5.50742 -0.019573 -2.91714e-19)
(5.42357 -0.0130263 -2.67131e-19)
(5.03746 0.0165887 2.69699e-19)
(5.71943 0.0382041 -1.09875e-18)
(5.70477 0.0260795 1.06766e-21)
(5.69097 0.0175631 -3.09914e-19)
(5.67814 0.0105659 4.24396e-19)
(5.66601 0.00333132 0)
(5.6544 -0.00331381 0)
(5.64317 -0.00913841 3.86404e-19)
(5.63206 -0.0141717 3.50283e-19)
(5.62077 -0.0182434 0)
(5.60907 -0.021241 -3.21976e-19)
(5.59692 -0.0230864 -3.0272e-19)
(5.58446 -0.0237649 -9.67944e-21)
(5.57179 -0.0230769 -3.05846e-19)
(5.55756 -0.0211994 -2.86781e-19)
(5.53369 -0.016675 2.8682e-19)
(5.45243 -0.0144177 5.49409e-19)
(5.07386 0.00489667 -5.36979e-19)
(5.71522 0.0542175 5.01793e-19)
(5.70326 0.0400175 0)
(5.69079 0.0311036 4.38105e-19)
(5.67894 0.0239277 -6.34689e-21)
(5.66774 0.0168861 1.20651e-20)
(5.65719 0.0104397 3.4929e-19)
(5.64727 0.00461251 -3.18742e-19)
(5.63778 -0.000625941 -2.12418e-20)
(5.62843 -0.00514926 -3.1778e-19)
(5.6189 -0.00886307 6.77227e-19)
(5.60901 -0.0117448 2.79878e-19)
(5.59874 -0.0138594 0)
(5.58807 -0.0148817 2.99275e-19)
(5.5758 -0.0158372 0)
(5.55353 -0.0130022 -2.52794e-19)
(5.47521 -0.0152888 -2.68095e-20)
(5.10587 -0.00374632 7.65563e-21)
(5.71222 0.0633161 3.76493e-20)
(5.70099 0.05209 2.04377e-19)
(5.68942 0.0441177 0)
(5.67824 0.0369038 4.8598e-20)
(5.66755 0.0299906 3.40266e-22)
(5.6575 0.0236086 -2.41162e-19)
(5.64818 0.0177315 2.64363e-19)
(5.63955 0.012316 7.96991e-20)
(5.63136 0.00742922 2.53538e-19)
(5.62325 0.00313334 -4.60605e-19)
(5.6149 -0.000541221 7.17549e-20)
(5.60613 -0.00358516 -1.33433e-19)
(5.59671 -0.00580693 0)
(5.58555 -0.00919288 1.94194e-19)
(5.56433 -0.00693586 1.70362e-19)
(5.48878 -0.0153401 -2.13323e-19)
(5.1296 -0.00860928 4.79474e-19)