/*--------------------------------*- C++ -*----------------------------------*\
  =========                 |
  \\      /  F ield         | OpenFOAM: The Open Source CFD Toolbox
   \\    /   O peration     | Website:  https://openfoam.org
    \\  /    A nd           | Version:  6
     \\/     M anipulation  |
\*---------------------------------------------------------------------------*/
FoamFile
{
    version     2.0;
    format      ascii;
    class       volScalarField;
    location    "3.29";
    object      p;
}
// * * * * * * * * * * * * * * * * * * * * * * * * * * * * * * * * * * * * * //

dimensions      [1 -1 -2 0 0 0 0];

internalField   nonuniform List<scalar> 
22500
(
1
1
1
1
1
1
1
1
1
1
1
1
1
1
1
1
1
1
1
1
1
1
1
1
1
1
1
1
1
1
1
1
1
1
1
1
1
1
1
1
1
1
1
1
1
1
1
1
1
1
1
1
1
1
1
1
1
1
1
1
1
1
1
1
1
1
0.999999
0.999999
0.999999
0.999999
0.999998
0.999997
0.999996
0.999995
0.999994
0.999992
0.99999
0.999989
0.999986
0.999984
0.999982
0.99998
0.999978
0.999977
0.999976
0.999976
0.999976
0.999976
0.999978
0.99998
0.999983
0.999987
0.999991
0.999995
1
1
1.00001
1.00001
1.00002
1.00002
1.00003
1.00003
1.00003
1.00003
1.00003
1.00003
1.00003
1.00003
1.00003
1.00003
1.00003
1.00002
1.00002
1.00002
1.00002
1.00001
1.00001
1.00001
1.00001
1.00001
1
1
1
1
1
1
1
1
1
1
1
1
1
1
1
1
1
1
1
1
1
1
1
1
1
1
1
1
1
1
1
1
1
1
1
1
1
1
1
1
1
1
1
1
1
1
1
1
1
1
1
1
1
1
1
1
1
1
1
1
1
1
1
1
1
1
1
1
1
1
1
1
1
1
1
1
1
1
1
1
1
1
1
1
1
1
1
1
1
1
1
1
1
1
1
1
1
0.999999
0.999999
0.999998
0.999998
0.999997
0.999995
0.999994
0.999992
0.99999
0.999988
0.999985
0.999983
0.99998
0.999978
0.999976
0.999974
0.999972
0.999971
0.999971
0.999971
0.999973
0.999975
0.999978
0.999982
0.999987
0.999992
0.999998
1
1.00001
1.00002
1.00002
1.00003
1.00003
1.00004
1.00004
1.00004
1.00004
1.00005
1.00004
1.00004
1.00004
1.00004
1.00004
1.00003
1.00003
1.00003
1.00002
1.00002
1.00002
1.00002
1.00001
1.00001
1.00001
1.00001
1
1
1
1
1
1
1
1
1
1
1
1
1
1
1
1
1
1
1
1
1
1
1
1
1
1
1
1
1
1
1
1
1
1
1
1
1
1
1
1
1
1
1
1
1
1
1
1
1
1
1
1
1
1
1
1
1
1
1
1
1
1
1
1
1
1
1
1
1
1
1
1
1
1
1
1
1
1
1
1
1
1
1
1
1
1
1
1
1
1
1
1
1
1
1
0.999999
0.999999
0.999999
0.999998
0.999997
0.999996
0.999994
0.999992
0.99999
0.999988
0.999985
0.999982
0.999979
0.999976
0.999973
0.99997
0.999968
0.999967
0.999966
0.999966
0.999968
0.99997
0.999974
0.999978
0.999984
0.999991
0.999998
1.00001
1.00001
1.00002
1.00003
1.00004
1.00004
1.00005
1.00005
1.00006
1.00006
1.00006
1.00006
1.00006
1.00006
1.00006
1.00005
1.00005
1.00004
1.00004
1.00004
1.00003
1.00003
1.00002
1.00002
1.00002
1.00001
1.00001
1.00001
1.00001
1
1
1
1
1
1
1
1
1
1
1
1
1
1
1
1
1
1
1
1
1
1
1
1
1
1
1
1
1
1
1
1
1
1
1
1
1
1
1
1
1
1
1
1
1
1
1
1
1
1
1
1
1
1
1
1
1
1
1
1
1
1
1
1
1
1
1
1
1
1
1
1
1
1
1
1
1
1
1
1
1
1
1
1
1
1
1
1
1
1
1
1
1
1
0.999999
0.999999
0.999999
0.999997
0.999996
0.999995
0.999993
0.99999
0.999988
0.999985
0.999981
0.999978
0.999974
0.999971
0.999968
0.999965
0.999963
0.999962
0.999962
0.999963
0.999966
0.99997
0.999976
0.999983
0.999991
1
1.00001
1.00002
1.00003
1.00004
1.00005
1.00006
1.00006
1.00007
1.00008
1.00008
1.00008
1.00008
1.00008
1.00008
1.00008
1.00007
1.00007
1.00006
1.00006
1.00005
1.00005
1.00004
1.00003
1.00003
1.00002
1.00002
1.00002
1.00001
1.00001
1.00001
1.00001
1
1
1
1
1
1
1
1
1
1
1
1
1
1
1
1
1
1
1
1
1
1
1
1
1
1
1
1
1
1
1
1
1
1
1
1
1
1
1
1
1
1
1
1
1
1
1
1
1
1
1
1
1
1
1
1
1
1
1
1
1
1
1
1
1
1
1
1
1
1
1
1
1
1
1
1
1
1
1
1
1
1
1
1
1
1
1
1
1
1
1
1
1
0.999999
0.999999
0.999998
0.999997
0.999995
0.999994
0.999991
0.999988
0.999985
0.999982
0.999978
0.999973
0.999969
0.999966
0.999962
0.99996
0.999959
0.999958
0.99996
0.999962
0.999968
0.999975
0.999983
0.999993
1
1.00002
1.00003
1.00004
1.00006
1.00007
1.00008
1.00009
1.0001
1.00011
1.00011
1.00011
1.00011
1.00011
1.00011
1.00011
1.0001
1.0001
1.00009
1.00008
1.00007
1.00007
1.00006
1.00005
1.00004
1.00004
1.00003
1.00003
1.00002
1.00002
1.00001
1.00001
1.00001
1
1
1
1
1
1
1
1
1
1
1
1
1
1
1
1
1
1
1
1
1
1
1
1
1
1
1
1
1
1
1
1
1
1
1
1
1
1
1
1
1
1
1
1
1
1
1
1
1
1
1
1
1
1
1
1
1
1
1
1
1
1
1
1
1
1
1
1
1
1
1
1
1
1
1
1
1
1
1
1
1
1
1
1
1
1
1
1
1
1
1
1
1
0.999999
0.999999
0.999998
0.999996
0.999994
0.999992
0.99999
0.999986
0.999982
0.999978
0.999974
0.999969
0.999964
0.999961
0.999958
0.999956
0.999956
0.999958
0.999962
0.999968
0.999976
0.999987
1
1.00001
1.00003
1.00005
1.00007
1.00008
1.0001
1.00012
1.00013
1.00014
1.00015
1.00016
1.00016
1.00016
1.00016
1.00016
1.00015
1.00015
1.00014
1.00013
1.00012
1.00011
1.0001
1.00009
1.00008
1.00007
1.00006
1.00005
1.00004
1.00003
1.00003
1.00002
1.00002
1.00001
1.00001
1.00001
1
1
1
1
1
1
1
1
1
1
1
1
1
1
1
1
1
1
1
1
1
1
1
1
1
1
1
1
1
1
1
1
1
1
1
1
1
1
1
1
1
1
1
1
1
1
1
1
1
1
1
1
1
1
1
1
1
1
1
1
1
1
1
1
1
1
1
1
1
1
1
1
1
1
1
1
1
1
1
1
1
1
1
1
1
1
1
1
1
1
1
1
0.999999
0.999999
0.999997
0.999996
0.999994
0.999991
0.999988
0.999984
0.999979
0.999974
0.99997
0.999965
0.99996
0.999957
0.999956
0.999956
0.999957
0.999962
0.999971
0.999981
0.999995
1.00001
1.00003
1.00005
1.00008
1.0001
1.00012
1.00015
1.00017
1.00019
1.00021
1.00022
1.00023
1.00024
1.00024
1.00024
1.00023
1.00022
1.00021
1.0002
1.00019
1.00017
1.00016
1.00014
1.00013
1.00011
1.0001
1.00008
1.00007
1.00006
1.00005
1.00004
1.00003
1.00003
1.00002
1.00001
1.00001
1.00001
1
1
1
1
1
1
1
1
1
1
1
1
1
1
1
1
1
1
1
1
1
1
1
1
1
1
1
1
1
1
1
1
1
1
1
1
1
1
1
1
1
1
1
1
1
1
1
1
1
1
1
1
1
1
1
1
1
1
1
1
1
1
1
1
1
1
1
1
1
1
1
1
1
1
1
1
1
1
1
1
1
1
1
1
1
1
1
1
1
1
1
1
1
0.999999
0.999997
0.999996
0.999993
0.999989
0.999986
0.999982
0.999977
0.999971
0.999966
0.999962
0.999958
0.999956
0.999957
0.99996
0.999966
0.999976
0.999991
1.00001
1.00003
1.00006
1.00009
1.00012
1.00015
1.00018
1.00022
1.00025
1.00028
1.0003
1.00032
1.00034
1.00035
1.00035
1.00035
1.00034
1.00033
1.00032
1.0003
1.00028
1.00026
1.00024
1.00021
1.00019
1.00017
1.00015
1.00013
1.00011
1.00009
1.00008
1.00006
1.00005
1.00004
1.00003
1.00002
1.00002
1.00001
1.00001
1.00001
1
1
1
1
1
1
0.999999
0.999999
0.999999
1
1
1
1
1
1
1
1
1
1
1
1
1
1
1
1
1
1
1
1
1
1
1
1
1
1
1
1
1
1
1
1
1
1
1
1
1
1
1
1
1
1
1
1
1
1
1
1
1
1
1
1
1
1
1
1
1
1
1
1
1
1
1
1
1
1
1
1
1
1
1
1
1
1
1
1
1
1
1
1
1
1
1
0.999999
0.999997
0.999996
0.999992
0.999988
0.999984
0.999979
0.999974
0.999969
0.999964
0.999961
0.999959
0.99996
0.999965
0.999973
0.999986
1
1.00003
1.00006
1.00009
1.00013
1.00018
1.00022
1.00027
1.00032
1.00036
1.0004
1.00044
1.00047
1.0005
1.00051
1.00052
1.00052
1.00051
1.0005
1.00048
1.00045
1.00043
1.00039
1.00036
1.00033
1.00029
1.00026
1.00023
1.0002
1.00017
1.00014
1.00012
1.0001
1.00008
1.00006
1.00005
1.00004
1.00003
1.00002
1.00002
1.00001
1.00001
1
1
1
1
1
0.999999
0.999999
0.999999
0.999999
0.999999
0.999999
1
1
1
1
1
1
1
1
1
1
1
1
1
1
1
1
1
1
1
1
1
1
1
1
1
1
1
1
1
1
1
1
1
1
1
1
1
1
1
1
1
1
1
1
1
1
1
1
1
1
1
1
1
1
1
1
1
1
1
1
1
1
1
1
1
1
1
1
1
1
1
1
1
1
1
1
1
1
1
1
1
0.999999
0.999998
0.999995
0.999992
0.999987
0.999983
0.999978
0.999973
0.999969
0.999965
0.999964
0.999966
0.999972
0.999983
1
1.00002
1.00005
1.00009
1.00014
1.00019
1.00025
1.00032
1.00038
1.00045
1.00051
1.00058
1.00063
1.00068
1.00072
1.00075
1.00077
1.00077
1.00077
1.00075
1.00072
1.00069
1.00065
1.0006
1.00055
1.0005
1.00045
1.0004
1.00035
1.0003
1.00026
1.00022
1.00018
1.00015
1.00013
1.0001
1.00008
1.00006
1.00005
1.00004
1.00003
1.00002
1.00001
1.00001
1
1
1
1
0.999999
0.999999
0.999999
0.999999
0.999999
0.999999
0.999999
0.999999
1
1
1
1
1
1
1
1
1
1
1
1
1
1
1
1
1
1
1
1
1
1
1
1
1
1
1
1
1
1
1
1
1
1
1
1
1
1
1
1
1
1
1
1
1
1
1
1
1
1
1
1
1
1
1
1
1
1
1
1
1
1
1
1
1
1
1
1
1
1
1
1
1
1
1
1
1
1
1
1
1
0.999998
0.999995
0.999992
0.999987
0.999983
0.999978
0.999974
0.999971
0.999971
0.999974
0.999981
0.999995
1.00002
1.00005
1.00009
1.00014
1.0002
1.00027
1.00035
1.00043
1.00053
1.00062
1.00071
1.00081
1.00089
1.00097
1.00103
1.00108
1.00111
1.00113
1.00113
1.00112
1.00109
1.00105
1.00099
1.00093
1.00085
1.00078
1.0007
1.00062
1.00055
1.00048
1.00041
1.00035
1.00029
1.00024
1.0002
1.00016
1.00013
1.0001
1.00008
1.00006
1.00004
1.00003
1.00002
1.00002
1.00001
1.00001
1
1
0.999999
0.999999
0.999998
0.999998
0.999998
0.999998
0.999999
0.999999
0.999999
0.999999
1
1
1
1
1
1
1
1
1
1
1
1
1
1
1
1
1
1
1
1
1
1
1
1
1
1
1
1
1
1
1
1
1
1
1
1
1
1
1
1
1
1
1
1
1
1
1
1
1
1
1
1
1
1
1
1
1
1
1
1
1
1
1
1
1
1
1
1
1
1
1
1
1
1
1
1
1
1
1
1
0.999999
0.999996
0.999993
0.999988
0.999984
0.999981
0.999978
0.999979
0.999983
0.999993
1.00001
1.00004
1.00007
1.00012
1.00019
1.00027
1.00036
1.00046
1.00058
1.0007
1.00083
1.00097
1.0011
1.00123
1.00134
1.00144
1.00153
1.00159
1.00163
1.00165
1.00164
1.00162
1.00157
1.0015
1.00141
1.00132
1.00121
1.0011
1.00098
1.00087
1.00076
1.00066
1.00056
1.00047
1.0004
1.00033
1.00027
1.00021
1.00017
1.00013
1.0001
1.00008
1.00006
1.00004
1.00003
1.00002
1.00001
1.00001
1
1
0.999999
0.999998
0.999997
0.999997
0.999998
0.999998
0.999998
0.999999
0.999999
0.999999
0.999999
1
1
1
1
1
1
1
1
1
1
1
1
1
1
1
1
1
1
1
1
1
1
1
1
1
1
1
1
1
1
1
1
1
1
1
1
1
1
1
1
1
1
1
1
1
1
1
1
1
1
1
1
1
1
1
1
1
1
1
1
1
1
1
1
1
1
1
1
1
1
1
1
1
1
1.00001
1.00001
1
1
1
1
0.999998
0.999995
0.999991
0.999988
0.999987
0.999988
0.999994
1.00001
1.00003
1.00006
1.0001
1.00017
1.00024
1.00034
1.00046
1.0006
1.00075
1.00091
1.00109
1.00128
1.00146
1.00165
1.00182
1.00197
1.00211
1.00222
1.0023
1.00235
1.00237
1.00235
1.00231
1.00223
1.00213
1.002
1.00186
1.0017
1.00154
1.00138
1.00121
1.00106
1.00091
1.00077
1.00065
1.00054
1.00044
1.00036
1.00028
1.00022
1.00017
1.00013
1.0001
1.00007
1.00005
1.00003
1.00002
1.00001
1.00001
1
0.999999
0.999998
0.999997
0.999996
0.999996
0.999997
0.999997
0.999998
0.999998
0.999998
0.999999
0.999999
0.999999
1
1
1
1
1
1
1
1
1
1
1
1
1
1
1
1
1
1
1
1
1
1
1
1
1
1
1
1
1
1
1
1
1
1
1
1
1
1
1
1
1
1
1
1
1
1
1
1
1
1
1
1
1
1
1
1
1
1
1
1
1
1
1
1
1
1
1
1
1
1
1
1.00001
1.00001
1.00001
1.00001
1.00001
1.00001
1.00001
1
1
0.999999
0.999997
0.999996
0.999999
1.00001
1.00002
1.00004
1.00008
1.00014
1.00021
1.00031
1.00043
1.00057
1.00074
1.00094
1.00116
1.00139
1.00164
1.0019
1.00216
1.0024
1.00264
1.00285
1.00303
1.00317
1.00328
1.00334
1.00335
1.00332
1.00325
1.00314
1.00299
1.00281
1.0026
1.00238
1.00215
1.00192
1.00169
1.00146
1.00126
1.00106
1.00089
1.00073
1.0006
1.00048
1.00038
1.0003
1.00023
1.00017
1.00013
1.00009
1.00006
1.00004
1.00003
1.00002
1.00001
1
0.999998
0.999996
0.999995
0.999995
0.999995
0.999996
0.999996
0.999997
0.999997
0.999998
0.999998
0.999999
0.999999
0.999999
1
1
1
1
1
1
1
1
1
1
1
1
1
1
1
1
1
1
1
1
1
1
1
1
1
1
1
1
1
1
1
1
1
1
1
1
1
1
1
1
1
1
1
1
1
1
1
1
1
1
1
1
1
1
1
1
1
1
1
1
1
1
1
1
1
1
1
1
1
1.00001
1.00001
1.00001
1.00001
1.00001
1.00001
1.00001
1.00001
1.00001
1.00001
1.00001
1.00001
1.00001
1.00002
1.00004
1.00006
1.00011
1.00017
1.00025
1.00037
1.00051
1.00069
1.0009
1.00115
1.00142
1.00173
1.00206
1.0024
1.00275
1.0031
1.00343
1.00375
1.00402
1.00426
1.00445
1.00458
1.00466
1.00467
1.00462
1.00452
1.00435
1.00415
1.00389
1.00361
1.0033
1.00298
1.00266
1.00233
1.00202
1.00173
1.00146
1.00122
1.001
1.00081
1.00065
1.00051
1.0004
1.0003
1.00023
1.00017
1.00012
1.00008
1.00005
1.00003
1.00002
1.00001
1
0.999997
0.999995
0.999993
0.999993
0.999994
0.999994
0.999995
0.999996
0.999997
0.999997
0.999998
0.999998
0.999999
0.999999
0.999999
1
1
1
1
1
1
1
1
1
1
1
1
1
1
1
1
1
1
1
1
1
1
1
1
1
1
1
1
1
1
1
1
1
1
1
1
1
1
1
1
1
1
1
1
1
1
1
1
1
1
1
1
1
1
1
1
1
1
1
1
1
1
1
1
1
1
1
1.00001
1.00001
1.00001
1.00001
1.00001
1.00001
1.00001
1.00001
1.00001
1.00001
1.00001
1.00002
1.00002
1.00003
1.00005
1.00008
1.00013
1.0002
1.0003
1.00043
1.0006
1.00081
1.00106
1.00136
1.00171
1.0021
1.00252
1.00297
1.00343
1.0039
1.00437
1.00481
1.00522
1.00558
1.00589
1.00613
1.00629
1.00639
1.0064
1.00633
1.00618
1.00596
1.00568
1.00533
1.00495
1.00453
1.00409
1.00365
1.00321
1.00278
1.00238
1.00201
1.00167
1.00137
1.00111
1.00088
1.00069
1.00053
1.00041
1.0003
1.00022
1.00016
1.00011
1.00007
1.00004
1.00002
1.00001
1
0.999996
0.999993
0.999991
0.999991
0.999992
0.999992
0.999993
0.999995
0.999996
0.999996
0.999997
0.999998
0.999998
0.999999
0.999999
0.999999
1
1
1
1
1
1
1
1
1
1
1
1
1
1
1
1
1
1
1
1
1
1
1
1
1
1
1
1
1
1
1
1
1
1
1
1
1
1
1
1
1
1
1
1
1
1
1
1
1
1
1
1
1
1
1
1
1
1
1
1
1
1
1
1
1
1.00001
1.00001
1.00001
1.00001
1.00001
1.00002
1.00002
1.00002
1.00002
1.00002
1.00002
1.00003
1.00003
1.00004
1.00006
1.0001
1.00015
1.00023
1.00033
1.00048
1.00067
1.00092
1.00122
1.00158
1.002
1.00248
1.003
1.00358
1.00418
1.00479
1.00541
1.00602
1.0066
1.00712
1.00759
1.00798
1.00828
1.0085
1.00861
1.00861
1.00852
1.00832
1.00803
1.00766
1.00721
1.0067
1.00614
1.00556
1.00496
1.00437
1.00379
1.00324
1.00274
1.00228
1.00187
1.00151
1.0012
1.00094
1.00072
1.00055
1.00041
1.0003
1.00021
1.00014
1.00009
1.00006
1.00003
1.00001
1
0.999995
0.999991
0.999989
0.999988
0.999989
0.99999
0.999992
0.999993
0.999994
0.999995
0.999996
0.999997
0.999998
0.999999
0.999999
0.999999
1
1
1
1
1
1
1
1
1
1
1
1
1
1
1
1
1
1
1
1
1
1
1
1
1
1
1
1
1
1
1
1
1
1
1
1
1
1
1
1
1
1
1
1
1
1
1
1
1
1
1
1
1
1
1
1
1
1
1
1
1
1
1
1.00001
1.00001
1.00001
1.00001
1.00001
1.00002
1.00002
1.00002
1.00002
1.00003
1.00003
1.00003
1.00004
1.00004
1.00006
1.00008
1.00011
1.00017
1.00025
1.00037
1.00053
1.00074
1.00102
1.00137
1.00179
1.00228
1.00286
1.0035
1.00421
1.00497
1.00576
1.00656
1.00736
1.00814
1.00887
1.00954
1.01012
1.01061
1.01099
1.01125
1.01138
1.01139
1.01126
1.01101
1.01064
1.01016
1.00959
1.00893
1.00821
1.00745
1.00667
1.00588
1.00512
1.00439
1.00371
1.00309
1.00253
1.00205
1.00163
1.00127
1.00098
1.00074
1.00055
1.0004
1.00028
1.00019
1.00013
1.00008
1.00004
1.00002
1
0.999994
0.999988
0.999986
0.999985
0.999986
0.999987
0.999989
0.999991
0.999993
0.999994
0.999996
0.999997
0.999997
0.999998
0.999999
0.999999
0.999999
1
1
1
1
1
1
1
1
1
1
1
1
1
1
1
1
1
1
1
1
1
1
1
1
1
1
1
1
1
1
1
1
1
1
1
1
1
1
1
1
1
1
1
1
1
1
1
1
1
1
1
1
1
1
1
1
1
1
1
1
1
1
1.00001
1.00001
1.00001
1.00001
1.00002
1.00002
1.00002
1.00003
1.00003
1.00003
1.00004
1.00004
1.00005
1.00007
1.00009
1.00013
1.00018
1.00027
1.00039
1.00057
1.0008
1.0011
1.00149
1.00197
1.00255
1.00322
1.00399
1.00485
1.00578
1.00676
1.00778
1.0088
1.00982
1.01079
1.0117
1.01252
1.01324
1.01383
1.01429
1.0146
1.01476
1.01476
1.01461
1.0143
1.01385
1.01325
1.01254
1.01172
1.01081
1.00984
1.00884
1.00783
1.00683
1.00588
1.00498
1.00416
1.00342
1.00276
1.0022
1.00172
1.00133
1.001
1.00074
1.00054
1.00038
1.00026
1.00017
1.00011
1.00006
1.00003
1.00001
0.999993
0.999986
0.999983
0.999982
0.999982
0.999984
0.999986
0.999989
0.999991
0.999993
0.999994
0.999996
0.999997
0.999998
0.999998
0.999999
0.999999
0.999999
1
1
1
1
1
1
1
1
1
1
1
1
1
1
1
1
1
1
1
1
1
1
1
1
1
1
1
1
1
1
1
1
1
1
1
1
1
1
1
1
1
1
1
1
1
1
1
1
1
1
1
1
1
1
1
1
1
1
1
1
1.00001
1.00001
1.00001
1.00001
1.00002
1.00002
1.00002
1.00003
1.00003
1.00004
1.00005
1.00005
1.00006
1.00008
1.0001
1.00014
1.00019
1.00028
1.00041
1.00059
1.00084
1.00117
1.00159
1.00213
1.00278
1.00356
1.00445
1.00546
1.00657
1.00777
1.00902
1.0103
1.01157
1.01282
1.01401
1.0151
1.01609
1.01694
1.01763
1.01817
1.01854
1.01872
1.01872
1.01855
1.01818
1.01765
1.01694
1.01609
1.01509
1.01399
1.01279
1.01154
1.01027
1.009
1.00777
1.00661
1.00554
1.00457
1.0037
1.00296
1.00232
1.00179
1.00136
1.00101
1.00073
1.00052
1.00036
1.00023
1.00015
1.00008
1.00004
1.00001
0.999994
0.999984
0.999979
0.999978
0.999978
0.99998
0.999983
0.999986
0.999988
0.999991
0.999993
0.999995
0.999996
0.999997
0.999998
0.999998
0.999999
0.999999
1
1
1
1
1
1
1
1
1
1
1
1
1
1
1
1
1
1
1
1
1
1
1
1
1
1
1
1
1
1
1
1
1
1
1
1
1
1
1
1
1
1
1
1
1
1
1
1
1
1
1
1
1
1
1
1
1
1
1
1
1.00001
1.00001
1.00001
1.00002
1.00002
1.00002
1.00003
1.00004
1.00004
1.00005
1.00006
1.00007
1.00009
1.00011
1.00015
1.0002
1.00029
1.00042
1.0006
1.00086
1.00121
1.00166
1.00225
1.00297
1.00384
1.00486
1.00603
1.00733
1.00874
1.01024
1.01179
1.01336
1.01491
1.01639
1.01779
1.01907
1.0202
1.02117
1.02196
1.02256
1.02297
1.02318
1.02318
1.02299
1.02259
1.02198
1.02119
1.02021
1.01905
1.01775
1.01633
1.01482
1.01326
1.01169
1.01015
1.00867
1.0073
1.00604
1.00492
1.00394
1.0031
1.0024
1.00182
1.00136
1.00099
1.0007
1.00048
1.00032
1.0002
1.00012
1.00006
1.00002
0.999998
0.999983
0.999976
0.999973
0.999974
0.999976
0.999979
0.999982
0.999986
0.999989
0.999991
0.999993
0.999995
0.999996
0.999997
0.999998
0.999999
0.999999
0.999999
1
1
1
1
1
1
1
1
1
1
1
1
1
1
1
1
1
1
1
1
1
1
1
1
1
1
1
1
1
1
1
1
1
1
1
1
1
1
1
1
1
1
1
0.999999
1
1
1
1
1
1
1
1
1
1
1
1
1
1
1.00001
1.00001
1.00001
1.00001
1.00002
1.00002
1.00003
1.00004
1.00005
1.00005
1.00006
1.00008
1.00009
1.00012
1.00015
1.00021
1.00029
1.00042
1.0006
1.00086
1.00122
1.0017
1.00232
1.0031
1.00405
1.00519
1.00652
1.00801
1.00965
1.0114
1.01324
1.01511
1.01697
1.01878
1.02049
1.02208
1.0235
1.02474
1.0258
1.02664
1.02728
1.02772
1.02794
1.02794
1.02774
1.02732
1.02669
1.02584
1.02477
1.02351
1.02205
1.02042
1.01866
1.01681
1.01492
1.01304
1.01122
1.00949
1.0079
1.00646
1.0052
1.00411
1.00319
1.00243
1.00182
1.00133
1.00095
1.00066
1.00044
1.00028
1.00017
1.00009
1.00004
1
0.999984
0.999974
0.999969
0.999969
0.999971
0.999975
0.999979
0.999982
0.999986
0.999989
0.999992
0.999994
0.999995
0.999997
0.999998
0.999998
0.999999
0.999999
0.999999
1
1
1
1
1
1
1
1
1
1
1
1
1
1
1
1
1
1
1
1
1
1
1
1
1
1
1
1
1
1
1
1
1
1
1
1
1
1
1
1
1
1
1
1
1
1
1
1
1
1
1
1
1
1
1
1
1
1.00001
1.00001
1.00001
1.00002
1.00002
1.00003
1.00004
1.00005
1.00006
1.00007
1.00008
1.0001
1.00012
1.00016
1.00021
1.00029
1.00041
1.00059
1.00085
1.00121
1.0017
1.00234
1.00317
1.0042
1.00544
1.0069
1.00858
1.01044
1.01246
1.01459
1.01677
1.01896
1.02109
1.02311
1.025
1.0267
1.0282
1.02949
1.03056
1.0314
1.03203
1.03245
1.03267
1.03268
1.03249
1.03209
1.03148
1.03064
1.02956
1.02825
1.02671
1.02495
1.023
1.0209
1.01871
1.01648
1.01428
1.01217
1.01019
1.00839
1.00679
1.00539
1.00421
1.00322
1.00242
1.00178
1.00127
1.00089
1.0006
1.00039
1.00024
1.00013
1.00006
1.00002
0.999988
0.999973
0.999966
0.999964
0.999966
0.99997
0.999974
0.999979
0.999983
0.999987
0.99999
0.999992
0.999994
0.999996
0.999997
0.999998
0.999999
0.999999
0.999999
1
1
1
1
1
1
1
1
1
1
1
1
1
1
1
1
1
1
1
1
1
1
1
1
1
1
1
1
1
1
1
1
1
1
1
1
1
1
1
1
1
1
1
1
1
1
1
1
1
1
1
1
1
1
1
1
1.00001
1.00001
1.00001
1.00002
1.00002
1.00003
1.00004
1.00005
1.00006
1.00007
1.00008
1.0001
1.00012
1.00016
1.00021
1.00028
1.0004
1.00057
1.00082
1.00117
1.00166
1.00232
1.00317
1.00425
1.00558
1.00717
1.00901
1.01109
1.01336
1.01578
1.01827
1.02078
1.02324
1.02557
1.02773
1.02968
1.0314
1.03287
1.03409
1.03507
1.03584
1.03639
1.03675
1.03694
1.03695
1.0368
1.03646
1.03593
1.03519
1.03421
1.03298
1.03148
1.0297
1.02766
1.0254
1.02297
1.02043
1.01787
1.01535
1.01296
1.01074
1.00875
1.00699
1.00549
1.00422
1.00319
1.00235
1.0017
1.00119
1.00081
1.00053
1.00033
1.00019
1.0001
1.00003
0.999995
0.999973
0.999963
0.99996
0.999961
0.999965
0.99997
0.999975
0.99998
0.999984
0.999988
0.999991
0.999993
0.999995
0.999997
0.999998
0.999998
0.999999
0.999999
0.999999
1
1
1
1
1
1
1
1
1
1
1
1
1
1
1
1
1
1
1
1
1
1
1
1
1
1
1
1
1
1
1
1
1
1
1
1
1
1
1
1
1
1
1
1
1
1
1
1
1
1
1
1
1
1
1.00001
1.00001
1.00001
1.00001
1.00002
1.00003
1.00003
1.00004
1.00005
1.00007
1.00008
1.0001
1.00012
1.00016
1.0002
1.00027
1.00038
1.00054
1.00077
1.00111
1.00159
1.00224
1.00311
1.00422
1.00561
1.0073
1.00929
1.01156
1.01408
1.01677
1.01958
1.0224
1.02516
1.02778
1.03019
1.03235
1.03422
1.0358
1.03709
1.03811
1.03889
1.03946
1.03986
1.04011
1.04023
1.04024
1.04013
1.03991
1.03954
1.039
1.03825
1.03724
1.03594
1.03432
1.03237
1.0301
1.02755
1.02479
1.02192
1.01903
1.01622
1.01356
1.01112
1.00895
1.00707
1.00547
1.00415
1.00309
1.00224
1.00159
1.00109
1.00073
1.00046
1.00027
1.00014
1.00006
1.00001
0.999977
0.999961
0.999955
0.999955
0.999959
0.999964
0.99997
0.999976
0.999981
0.999985
0.999989
0.999992
0.999994
0.999996
0.999997
0.999998
0.999999
0.999999
0.999999
1
1
1
1
1
1
1
1
1
1
1
1
1
1
1
1
1
1
1
1
1
1
1
1
1
1
1
1
1
1
1
1
1
1
1
1
1
1
1
1
0.999999
1
1
1
1
1
1
1
1
1
1
1
1
1
1.00001
1.00001
1.00001
1.00002
1.00002
1.00003
1.00004
1.00005
1.00006
1.00008
1.0001
1.00012
1.00015
1.0002
1.00026
1.00036
1.0005
1.00072
1.00104
1.0015
1.00213
1.00298
1.00411
1.00553
1.00729
1.0094
1.01184
1.01457
1.01753
1.02063
1.02376
1.02682
1.0297
1.03233
1.03464
1.0366
1.0382
1.03945
1.04039
1.04105
1.0415
1.04177
1.04193
1.042
1.04203
1.04202
1.04199
1.04192
1.04179
1.04155
1.04115
1.04053
1.03963
1.03837
1.03672
1.03465
1.03218
1.02937
1.02632
1.02313
1.01993
1.01683
1.01393
1.0113
1.00899
1.00701
1.00536
1.00401
1.00293
1.00209
1.00145
1.00098
1.00063
1.00038
1.00021
1.0001
1.00003
0.999985
0.999962
0.999952
0.99995
0.999953
0.999959
0.999965
0.999971
0.999977
0.999982
0.999987
0.99999
0.999993
0.999995
0.999996
0.999998
0.999998
0.999999
0.999999
1
1
1
1
1
1
1
1
1
1
1
1
1
1
1
1
1
1
1
1
1
1
1
1
1
1
1
1
1
1
1
1
1
1
1
1
1
1
1
1
1
1
1
1
1
1
1
1
1
1
1
1
1
1.00001
1.00001
1.00001
1.00002
1.00002
1.00003
1.00004
1.00005
1.00006
1.00008
1.00009
1.00012
1.00015
1.00019
1.00025
1.00033
1.00047
1.00066
1.00096
1.00138
1.00198
1.00281
1.00391
1.00534
1.00714
1.00933
1.0119
1.01483
1.01802
1.0214
1.02482
1.02816
1.03129
1.0341
1.03652
1.0385
1.04004
1.04115
1.04189
1.0423
1.04247
1.04246
1.04234
1.04218
1.04203
1.04193
1.0419
1.04195
1.04206
1.04221
1.04236
1.04243
1.04235
1.04202
1.04135
1.04024
1.03863
1.03651
1.03388
1.03084
1.0275
1.02401
1.02052
1.01717
1.01407
1.01129
1.00887
1.00683
1.00514
1.00379
1.00273
1.00191
1.0013
1.00085
1.00053
1.0003
1.00015
1.00006
0.999999
0.999966
0.99995
0.999946
0.999947
0.999953
0.99996
0.999967
0.999973
0.999979
0.999984
0.999988
0.999992
0.999994
0.999996
0.999997
0.999998
0.999999
0.999999
0.999999
1
1
1
1
1
1
1
1
1
1
1
1
1
1
1
1
1
1
1
1
1
1
1
1
1
1
1
1
1
1
1
1
1
1
1
1
1
1
1
1
1
1
1
1
1
1
1
1
1
1
1
1
1.00001
1.00001
1.00001
1.00002
1.00003
1.00003
1.00004
1.00006
1.00007
1.00009
1.00011
1.00014
1.00018
1.00023
1.00031
1.00043
1.0006
1.00086
1.00125
1.00181
1.00259
1.00365
1.00506
1.00685
1.00908
1.01174
1.01482
1.01823
1.02186
1.02556
1.02917
1.03253
1.03551
1.038
1.03996
1.04137
1.04225
1.04267
1.04271
1.04246
1.04202
1.04147
1.0409
1.04039
1.03998
1.03973
1.03966
1.03979
1.04009
1.04055
1.04112
1.04173
1.04229
1.04268
1.04278
1.04246
1.04159
1.04009
1.03794
1.03518
1.03192
1.02831
1.02454
1.02079
1.01722
1.01396
1.01107
1.00859
1.00652
1.00484
1.00351
1.00248
1.0017
1.00113
1.00072
1.00043
1.00023
1.0001
1.00002
0.999975
0.999951
0.999942
0.999942
0.999947
0.999954
0.999962
0.999969
0.999976
0.999982
0.999986
0.99999
0.999993
0.999995
0.999996
0.999998
0.999998
0.999999
0.999999
1
1
1
1
1
1
1
1
1
1
1
1
1
1
1
1
1
1
1
1
1
1
1
1
1
1
1
1
1
1
1
1
1
1
1
1
1
1
1
1
1
1
1
1
1
1
1
1
1
1
1
1.00001
1.00001
1.00001
1.00002
1.00002
1.00003
1.00004
1.00005
1.00007
1.00008
1.0001
1.00013
1.00017
1.00021
1.00028
1.00039
1.00054
1.00077
1.00112
1.00162
1.00234
1.00334
1.00469
1.00644
1.00867
1.01137
1.01455
1.01814
1.02199
1.02596
1.02983
1.03343
1.03656
1.03911
1.04101
1.04224
1.04284
1.04287
1.04245
1.04168
1.04068
1.03957
1.03845
1.03742
1.03654
1.03587
1.03547
1.03536
1.03555
1.03603
1.03679
1.03779
1.03894
1.04017
1.04135
1.04234
1.04298
1.04308
1.04249
1.04113
1.03897
1.03608
1.03259
1.02873
1.0247
1.02073
1.01699
1.01361
1.01066
1.00816
1.00611
1.00447
1.00318
1.00221
1.00148
1.00095
1.00058
1.00033
1.00016
1.00005
0.99999
0.999956
0.999941
0.999938
0.999941
0.999948
0.999956
0.999965
0.999972
0.999979
0.999984
0.999988
0.999992
0.999994
0.999996
0.999997
0.999998
0.999999
0.999999
0.999999
1
1
1
1
1
1
1
1
1
1
1
1
1
1
1
1
1
1
1
1
1
1
1
1
1
1
1
1
1
1
1
1
1
1
1
1
1
1
1
1
1
1
1
1
1
1
1
1
1
1
1.00001
1.00001
1.00001
1.00002
1.00002
1.00003
1.00005
1.00006
1.00008
1.0001
1.00012
1.00015
1.0002
1.00026
1.00035
1.00048
1.00068
1.00098
1.00143
1.00208
1.003
1.00426
1.00594
1.00811
1.01081
1.01404
1.01774
1.02179
1.026
1.03014
1.03396
1.03727
1.03988
1.04172
1.04276
1.04304
1.04265
1.04171
1.04036
1.03874
1.03699
1.03522
1.03356
1.03209
1.03087
1.02997
1.02943
1.02927
1.02951
1.03015
1.03117
1.03253
1.03419
1.03605
1.03801
1.03991
1.04158
1.0428
1.04335
1.04307
1.04183
1.03963
1.03658
1.03287
1.02875
1.0245
1.02035
1.01649
1.01304
1.01008
1.00761
1.00561
1.00404
1.00282
1.00192
1.00125
1.00078
1.00046
1.00024
1.0001
1.00001
0.999965
0.999942
0.999935
0.999936
0.999943
0.999951
0.99996
0.999968
0.999975
0.999981
0.999986
0.99999
0.999993
0.999995
0.999997
0.999998
0.999998
0.999999
0.999999
1
1
1
1
1
1
1
1
1
1
1
1
1
1
1
1
1
1
1
1
1
1
1
1
1
1
1
1
1
1
1
1
1
1
1
1
1
1
1
1
1
1
1
1
1
1
1
1
1
1
1.00001
1.00001
1.00001
1.00002
1.00003
1.00004
1.00005
1.00007
1.00009
1.00011
1.00014
1.00018
1.00023
1.00031
1.00042
1.00059
1.00085
1.00124
1.00181
1.00264
1.00379
1.00536
1.00743
1.01006
1.01328
1.01705
1.02124
1.02567
1.03007
1.03415
1.03765
1.04036
1.04217
1.04304
1.04301
1.04218
1.04071
1.03876
1.03648
1.03405
1.03161
1.02926
1.02713
1.02528
1.02378
1.02269
1.02203
1.02183
1.0221
1.02286
1.02408
1.02575
1.02781
1.03022
1.03286
1.03561
1.03828
1.04064
1.04245
1.04344
1.0434
1.04223
1.03994
1.0367
1.03274
1.02838
1.02393
1.01965
1.01573
1.01228
1.00936
1.00696
1.00505
1.00357
1.00245
1.00162
1.00103
1.00062
1.00034
1.00016
1.00005
0.99998
0.999947
0.999933
0.999932
0.999937
0.999946
0.999955
0.999964
0.999972
0.999979
0.999984
0.999989
0.999992
0.999994
0.999996
0.999997
0.999998
0.999999
0.999999
0.999999
1
1
1
1
1
1
1
1
1
1
1
1
1
1
1
1
1
1
1
1
1
1
1
1
1
1
1
1
1
1
1
1
1
1
1
1
1
1
1
1
1
1
1
1
1
1
1
1
1.00001
1.00001
1.00001
1.00002
1.00002
1.00003
1.00004
1.00006
1.00008
1.0001
1.00013
1.00016
1.00021
1.00027
1.00037
1.00051
1.00073
1.00106
1.00156
1.00228
1.00331
1.00475
1.00667
1.00918
1.01232
1.01608
1.02037
1.02498
1.02962
1.03397
1.03771
1.04057
1.04241
1.04315
1.04286
1.04164
1.03966
1.03711
1.0342
1.03109
1.02795
1.02492
1.0221
1.01959
1.01746
1.01575
1.01451
1.01376
1.01353
1.01382
1.01465
1.01602
1.0179
1.02027
1.02309
1.02628
1.02974
1.03329
1.03672
1.03977
1.04211
1.04345
1.04357
1.04238
1.03992
1.03643
1.03221
1.02764
1.02303
1.01867
1.01475
1.01135
1.00853
1.00624
1.00445
1.00309
1.00207
1.00134
1.00082
1.00047
1.00024
1.00009
1
0.999956
0.999934
0.999929
0.999932
0.99994
0.99995
0.99996
0.999969
0.999976
0.999982
0.999987
0.999991
0.999993
0.999995
0.999997
0.999998
0.999999
0.999999
0.999999
1
1
1
1
1
1
1
1
1
1
1
1
1
1
1
1
1
1
1
1
1
1
1
1
1
1
1
1
1
1
1
1
1
1
1
1
1
1
1
1
1
1
1
1
1
1
1
1
1.00001
1.00001
1.00001
1.00002
1.00003
1.00004
1.00005
1.00007
1.00009
1.00011
1.00014
1.00019
1.00024
1.00032
1.00044
1.00062
1.0009
1.00132
1.00194
1.00284
1.00412
1.00587
1.00821
1.0112
1.01488
1.01918
1.02391
1.02879
1.03343
1.03745
1.04054
1.04248
1.04318
1.0427
1.04114
1.03871
1.03562
1.03209
1.02833
1.02452
1.02082
1.01734
1.01417
1.0114
1.00907
1.00722
1.00588
1.00507
1.00481
1.00511
1.00598
1.00743
1.00945
1.01203
1.01514
1.01873
1.02272
1.02698
1.03132
1.03548
1.03913
1.04191
1.04348
1.04363
1.04228
1.03957
1.03578
1.0313
1.02653
1.02182
1.01745
1.01359
1.0103
1.00762
1.00548
1.00384
1.00261
1.00171
1.00107
1.00063
1.00034
1.00015
1.00003
0.99997
0.999939
0.999928
0.999929
0.999936
0.999945
0.999955
0.999965
0.999973
0.99998
0.999985
0.999989
0.999993
0.999995
0.999996
0.999998
0.999998
0.999999
0.999999
1
1
1
1
1
1
1
1
1
1
1
1
1
1
1
1
1
1
1
1
1
1
1
1
1
1
1
1
1
1
1
1
1
1
1
1
1
1
1
1
1
1
1
1
1
1
1
1
1.00001
1.00001
1.00001
1.00002
1.00003
1.00004
1.00006
1.00007
1.0001
1.00013
1.00016
1.00021
1.00028
1.00038
1.00053
1.00075
1.0011
1.00162
1.00239
1.0035
1.00506
1.00719
1.00998
1.0135
1.01772
1.0225
1.02756
1.0325
1.03686
1.04025
1.0424
1.04317
1.0426
1.04081
1.038
1.03444
1.03035
1.02599
1.02154
1.01719
1.01307
1.00928
1.00588
1.00295
1.0005
0.998564
0.997166
0.996316
0.99603
0.996322
0.997203
0.998685
1.00077
1.00347
1.00676
1.01062
1.01498
1.01977
1.02482
1.0299
1.03471
1.03885
1.04192
1.04356
1.04356
1.04193
1.03887
1.03474
1.03
1.02508
1.02034
1.01603
1.01229
1.00917
1.00667
1.00472
1.00324
1.00215
1.00137
1.00082
1.00046
1.00022
1.00008
0.999992
0.999948
0.999929
0.999926
0.999932
0.999941
0.999951
0.999961
0.99997
0.999978
0.999984
0.999988
0.999992
0.999994
0.999996
0.999997
0.999998
0.999999
0.999999
0.999999
1
1
1
1
1
1
1
1
1
1
1
1
1
1
1
1
1
1
1
1
1
1
1
1
1
1
1
1
1
1
1
1
1
1
1
1
1
1
1
1
1
1
1
1
1
1
1
1.00001
1.00001
1.00002
1.00002
1.00003
1.00005
1.00006
1.00008
1.00011
1.00014
1.00018
1.00024
1.00032
1.00044
1.00063
1.00091
1.00133
1.00197
1.00292
1.00428
1.00616
1.0087
1.01198
1.01604
1.02078
1.02596
1.03116
1.03589
1.03967
1.04215
1.04313
1.04259
1.04068
1.03762
1.03366
1.02909
1.02418
1.01915
1.01419
1.00946
1.00506
1.00107
0.997545
0.994517
0.992006
0.990027
0.988593
0.987713
0.9874
0.987668
0.988535
0.990014
0.992121
0.994867
0.998254
1.00227
1.00688
1.01202
1.01758
1.02338
1.02915
1.03449
1.03897
1.04214
1.04365
1.04333
1.04128
1.03779
1.03332
1.02836
1.02335
1.01864
1.01446
1.01091
1.00801
1.00572
1.00397
1.00266
1.00172
1.00106
1.00061
1.00032
1.00013
1.00002
0.999961
0.999934
0.999925
0.999928
0.999937
0.999947
0.999958
0.999967
0.999975
0.999982
0.999987
0.999991
0.999993
0.999996
0.999997
0.999998
0.999999
0.999999
0.999999
1
1
1
1
1
1
1
1
1
1
1
1
1
1
1
1
1
1
1
1
1
1
1
1
1
1
1
1
1
1
1
1
1
1
1
1
1
1
1
1
1
1
1
1
1
1
1.00001
1.00001
1.00001
1.00002
1.00003
1.00004
1.00005
1.00007
1.00009
1.00012
1.00016
1.00021
1.00027
1.00037
1.00052
1.00074
1.00108
1.00161
1.00239
1.00354
1.00517
1.00742
1.01041
1.01421
1.01881
1.024
1.02941
1.03452
1.03877
1.04169
1.04301
1.04268
1.0408
1.03759
1.03335
1.02839
1.02299
1.01743
1.0119
1.00659
1.00161
0.997051
0.992958
0.989367
0.986297
0.983754
0.981747
0.980283
0.979373
0.979029
0.979264
0.980098
0.98155
0.98364
0.986386
0.989805
0.993898
0.998651
1.00403
1.00994
1.01627
1.02277
1.02912
1.03485
1.03948
1.04253
1.04369
1.04287
1.04028
1.03633
1.03152
1.02639
1.02138
1.01679
1.01281
1.0095
1.00685
1.0048
1.00326
1.00213
1.00134
1.00079
1.00043
1.0002
1.00006
0.99998
0.999941
0.999927
0.999926
0.999933
0.999943
0.999954
0.999964
0.999973
0.99998
0.999985
0.99999
0.999993
0.999995
0.999997
0.999998
0.999999
0.999999
0.999999
1
1
1
1
1
1
1
1
1
1
1
1
1
1
1
1
1
1
1
1
1
1
1
1
1
1
1
1
1
1
1
1
1
1
1
1
1
1
1
1
1
1
1
1
1
1
1.00001
1.00001
1.00001
1.00002
1.00003
1.00004
1.00006
1.00008
1.0001
1.00013
1.00017
1.00023
1.00031
1.00043
1.0006
1.00087
1.00129
1.00193
1.00288
1.00425
1.00619
1.00884
1.01231