/*--------------------------------*- C++ -*----------------------------------*\
  =========                 |
  \\      /  F ield         | OpenFOAM: The Open Source CFD Toolbox
   \\    /   O peration     | Website:  https://openfoam.org
    \\  /    A nd           | Version:  6
     \\/     M anipulation  |
\*---------------------------------------------------------------------------*/
FoamFile
{
    version     2.0;
    format      ascii;
    class       surfaceScalarField;
    location    "2.88";
    object      meshPhi;
}
// * * * * * * * * * * * * * * * * * * * * * * * * * * * * * * * * * * * * * //

dimensions      [0 3 -1 0 0 0 0];

internalField   nonuniform List<scalar> 
8193
(
-0.00137723
-0.00342153
0.000505238
-0.00216232
-0.00646848
-0.00285416
-0.00920751
-0.00344928
-0.0115976
-0.00394635
-0.0136082
-0.00434555
-0.0152192
-0.00464804
-0.0164205
-0.00485545
-0.0172107
-0.00496955
-0.017597
-0.00499198
-0.0175933
-0.00492416
-0.01722
-0.00476722
-0.0165021
-0.00452208
-0.0154688
-0.00418952
-0.0141521
-0.00377038
-0.0125863
-0.00326574
-0.0108072
-0.00267718
-0.0088512
-0.00200701
-0.00675543
-0.0012586
-0.00455697
-0.000436644
-0.00229288
0.000452499
0
0.00140049
0.00228509
0.00239671
0.00452607
0.00342791
0.00668691
0.004478
0.00873191
0.00552786
0.0106258
0.00655514
0.012334
0.00753435
0.0138228
0.00843694
0.0150597
0.00923163
0.016014
0.00988484
0.0166577
0.0103614
0.0169658
0.0106254
0.0169173
0.0106411
0.0164962
0.0103744
0.0156924
0.00979386
0.0145026
0.0088724
0.0129309
0.00758853
0.0109902
0.00592799
0.008702
0.0038851
0.00609749
0.00321718
0.00146408
-0.00493551
-0.0102463
0.00247426
-0.00714567
-0.0158955
-0.00908879
-0.0209056
-0.0107558
-0.0252099
-0.012143
-0.0287614
-0.0132503
-0.0315325
-0.0140801
-0.0335138
-0.0146362
-0.034712
-0.0149226
-0.0351485
-0.0149435
-0.0348571
-0.0147025
-0.0338819
-0.0142027
-0.0322753
-0.0134467
-0.0300959
-0.012437
-0.0274068
-0.0111762
-0.0242745
-0.00966786
-0.020767
-0.00791666
-0.0169529
-0.00592938
-0.0129013
-0.00371555
-0.00868039
-0.00128833
-0.00435777
0.00133467
1.76465e-20
0.00413041
0.00432736
0.00706954
0.00855976
0.0101155
0.0126337
0.0132237
0.0164865
0.016341
0.0200568
0.019405
0.0232847
0.0223441
0.0261118
0.0250779
0.0284824
0.0275174
0.0303436
0.0295667
0.0316471
0.0311243
0.0323498
0.0320856
0.0324152
0.0323456
0.0318153
0.0318022
0.0305315
0.0303598
0.0285567
0.0279336
0.0258965
0.0244536
0.0225706
0.0198689
0.018614
0.0141519
0.0140771
0.00902673
0.00730259
-0.0100359
-0.0202671
0.00627324
-0.0133993
-0.0280062
-0.0163423
-0.0347751
-0.0188526
-0.0404939
-0.0209247
-0.0451106
-0.0225583
-0.0485998
-0.0237563
-0.0509604
-0.0245236
-0.0522134
-0.0248658
-0.052399
-0.0247886
-0.0515734
-0.0242972
-0.0498061
-0.0233963
-0.0471766
-0.0220903
-0.0437722
-0.0203833
-0.0396852
-0.0182796
-0.0350107
-0.015785
-0.0298455
-0.0129068
-0.0242863
-0.00965526
-0.0184289
-0.0060447
-0.0123675
-0.00209457
-0.00619449
0.00216912
-1.76465e-20
0.00671239
0.00612792
0.0114918
0.0121033
0.0164532
0.0178423
0.0215302
0.0232629
0.0266428
0.0282854
0.0316974
0.0328322
0.0365854
0.0368287
0.0411839
0.0402037
0.0453563
0.0428902
0.048954
0.0448271
0.0518181
0.0459599
0.0537833
0.0462428
0.0546813
0.0456403
0.0543459
0.0441292
0.0526182
0.0417001
0.049353
0.0383597
0.0444246
0.0341323
0.0377341
0.029061
0.0292154
0.0232085
0.0166577
0.018842
-0.0164867
-0.0331433
0.0117078
-0.0207407
-0.0424216
-0.0244445
-0.0504188
-0.0275829
-0.0570521
-0.0301484
-0.0622724
-0.0321395
-0.0660628
-0.0335586
-0.0684354
-0.0344108
-0.0694286
-0.0347024
-0.0691033
-0.0344401
-0.0675387
-0.0336303
-0.0648293
-0.0322794
-0.0610805
-0.0303931
-0.0564056
-0.0279772
-0.0509232
-0.0250378
-0.0447542
-0.0215824
-0.0380201
-0.0176207
-0.0308413
-0.0131654
-0.0233361
-0.00823438
-0.0156201
-0.00285139
-0.00780515
0.00295172
0
0.00913332
0.00769029
0.0156401
0.0151641
0.0224052
0.0223229
0.0293462
0.0290719
0.0363638
0.035319
0.0433403
0.0409762
0.0501388
0.0459592
0.0566035
0.0501883
0.0625599
0.0535895
0.0678163
0.0560955
0.0721667
0.0576471
0.0753944
0.058195
0.0772762
0.0577018
0.0775886
0.0561435
0.076114
0.0535119
0.0726488
0.0498164
0.0670105
0.0450857
0.0590467
0.0393691
0.0486435
0.0327377
0.0252844
0.0357333
-0.0240755
-0.0484153
0.0185502
-0.0289743
-0.0586736
-0.0332171
-0.0673774
-0.036785
-0.0744472
-0.0396676
-0.0798418
-0.0418613
-0.0835559
-0.0433672
-0.0856172
-0.0441898
-0.0860822
-0.0443354
-0.085032
-0.0438114
-0.082568
-0.0426254
-0.0788076
-0.0407849
-0.0738796
-0.0382973
-0.0679207
-0.0351699
-0.0610724
-0.0314104
-0.0534775
-0.0270279
-0.0452788
-0.0220337
-0.0366165
-0.0164426
-0.0276274
-0.0102742
-0.018444
-0.00355527
-0.00919395
0.00367883
-8.1493e-15
0.0113817
0.00902019
0.0194938
0.0177539
0.0279399
0.026093
0.0366269
0.0339344
0.0454419
0.0411796
0.0542504
0.047735
0.0628952
0.0535124
0.0711961
0.0584297
0.0789498
0.0624114
0.0859322
0.0653902
0.0919
0.0673079
0.0965953
0.0681175
0.0997499
0.0677844
0.101092
0.0662888
0.100354
0.0636272
0.0972781
0.0598144
0.0916303
0.0548853
0.0832049
0.0488958
0.0718373
0.0419238
0.0340693
0.0574121
-0.0325772
-0.065525
0.0265527
-0.0378967
-0.0762263
-0.0424766
-0.0851486
-0.0462934
-0.092219
-0.0493332
-0.0974063
-0.0515894
-0.100718
-0.0530612
-0.102197
-0.053752
-0.101916
-0.053668
-0.0999757
-0.0528169
-0.0964971
-0.0512073
-0.0916174
-0.048848
-0.085486
-0.0457478
-0.0782595
-0.0419154
-0.0700988
-0.0373601
-0.0611655
-0.0320922
-0.0516198
-0.026124
-0.0416182
-0.0194713
-0.0313125
-0.0121551
-0.0208489
-0.00420319
-0.0103669
0.00434737
0
0.0134479
0.0101253
0.0230355
0.0198887
0.0330304
0.0291765
0.0433332
0.0378813
0.0538229
0.0459018
0.0643542
0.0531437
0.0747566
0.0595193
0.0848332
0.0649484
0.0943614
0.0693592
0.103093
0.072689
0.110759
0.0748857
0.117069
0.0759091
0.121722
0.0757324
0.124408
0.074344
0.124818
0.071749
0.122653
0.067971
0.11763
0.0630533
0.1095
0.0570598
0.0980487
0.0500758
0.0422076
0.0831143
-0.0417596
-0.0838425
0.0354565
-0.0472994
-0.0944991
-0.0520356
-0.103207
-0.0559399
-0.109901
-0.0589938
-0.11456
-0.0611878
-0.117202
-0.0625187
-0.117884
-0.0629888
-0.116694
-0.062604
-0.113749
-0.0613722
-0.109185
-0.0593031
-0.103157
-0.0564064
-0.0958308
-0.0526924
-0.0873806
-0.0481711
-0.077983
-0.0428528
-0.0678147
-0.0367488
-0.0570504
-0.0298719
-0.0458598
-0.0222385
-0.0344067
-0.0138694
-0.0228477
-0.00479263
-0.0113318
0.00495478
-7.22279e-15
0.0153238
0.011015
0.0262508
0.0215883
0.0376543
0.0316034
0.0494327
0.0409516
0.0614609
0.0495323
0.0735884
0.0572534
0.0856372
0.0640311
0.097401
0.0697909
0.108645
0.0744682
0.119107
0.0780088
0.128499
0.0803703
0.136513
0.0815235
0.142822
0.0814529
0.14709
0.0801589
0.148978
0.0776585
0.148156
0.0739871
0.144306
0.0691989
0.13714
0.0633679
0.126406
0.0565878
0.0489719
0.111901
-0.0513861
-0.102697
0.0449975
-0.0569702
-0.112892
-0.0617036
-0.121025
-0.0655529
-0.127036
-0.0684956
-0.130913
-0.0705187
-0.132684
-0.0716171
-0.132416
-0.0717919
-0.130208
-0.0710485
-0.126191
-0.0693954
-0.120514
-0.0668426
-0.113345
-0.0634014
-0.104865
-0.0590827
-0.0952593
-0.0538979
-0.0847189
-0.0478579
-0.0734327
-0.0409746
-0.0615867
-0.033261
-0.0493612
-0.024733
-0.0369295
-0.0154109
-0.0244564
-0.00532156
-0.0120978
0.00549903
-3.5293e-20
0.0170032
0.0117001
0.0291284
0.0228754
0.0417942
0.0334085
0.0548994
0.0431919
0.0683187
0.0521279
0.0819004
0.0601288
0.0954644
0.0671173
0.108801
0.0730271
0.121669
0.0778033
0.133801
0.0814031
0.144899
0.0837967
0.154644
0.0849683
0.162696
0.0849168
0.168703
0.0836572
0.17231
0.0812211
0.173163
0.0776578
0.170924
0.0730347
0.165278
0.0674375
0.155945
0.0609698
0.0537525
0.142694
-0.0612164
-0.121406
0.0549081
-0.066693
-0.130812
-0.0712863
-0.138092
-0.0749582
-0.143193
-0.0776825
-0.146108
-0.0794434
-0.146872
-0.080234
-0.145559
-0.0800541
-0.14228
-0.0789089
-0.13717
-0.076807
-0.130393
-0.0737594
-0.122124
-0.0697778
-0.112557
-0.0648743
-0.101886
-0.0590608
-0.0903131
-0.0523488
-0.0780368
-0.0447501
-0.0652522
-0.0362775
-0.052148
-0.026946
-0.0389046
-0.0167746
-0.0256933
-0.00578847
-0.0126751
0.00597867
6.77626e-17
0.0184815
0.0121927
0.0316603
0.0237753
0.0454373
0.0346311
0.0597139
0.0446552
0.0743676
0.0537542
0.0892488
0.0618467
0.104179
0.0688635
0.11895
0.0747479
0.133321
0.0794567
0.147024
0.08296
0.159759
0.0852424
0.171205
0.0863033
0.181018
0.0861578
0.18884
0.0848371
0.194308
0.0823891
0.19706
0.0788785
0.196747
0.0743871
0.193042
0.0690135
0.185651
0.0628718
0.0560909
0.174323
-0.0710053
-0.139307
0.0649162
-0.076247
-0.147691
-0.0805854
-0.153931
-0.0839785
-0.157976
-0.0863971
-0.159823
-0.087823
-0.15951
-0.0882477
-0.157118
-0.0876703
-0.152761
-0.0860954
-0.146583
-0.083532
-0.138754
-0.0799913
-0.129457
-0.0754856
-0.118893
-0.0700276
-0.107266
-0.0636295
-0.0947839
-0.056303
-0.0816537
-0.0480594
-0.0680775
-0.0389109
-0.0542505
-0.0288711
-0.0403591
-0.0179573
-0.026579
-0.00619238
-0.0130751
0.00639277
-3.02186e-15
0.0197561
0.0125061
0.0338415
0.0243155
0.0485754
0.0353138
0.0638634
0.0453993
0.0795875
0.0544842
0.0956029
0.0624942
0.111736
0.0693689
0.127783
0.0750626
0.143509
0.0795443
0.158649
0.082798
0.172909
0.0848235
0.18597
0.0856366
0.197493
0.085269
0.207124
0.083769
0.2145
0.0812012
0.219263
0.0776466
0.221063
0.0732015
0.219572
0.0679775
0.214493
0.0620995
0.0557042
0.205574
-0.0805015
-0.15578
0.0747434
-0.0854064
-0.163011
-0.089399
-0.168113
-0.0924346
-0.171037
-0.0944815
-0.17178
-0.0955198
-0.170384
-0.0955397
-0.16693
-0.0945394
-0.161537
-0.0925233
-0.154354
-0.0895003
-0.145554
-0.0854816
-0.135327
-0.0804801
-0.123878
-0.0745084
-0.111417
-0.0675787
-0.0981596
-0.0597024
-0.0843176
-0.0508904
-0.0700988
-0.0411536
-0.0557036
-0.0305041
-0.0413228
-0.0189571
-0.0271358
-0.00653281
-0.0133101
0.00674096
0
0.0208259
0.012654
0.0356702
0.0245253
0.051205
0.0355018
0.0673413
0.0454864
0.0839669
0.0543968
0.100943
0.0621664
0.118104
0.0687443
0.135253
0.0740957
0.152162
0.0782022
0.168575
0.0810622
0.184207
0.0826907
0.198748
0.0831197
0.211869
0.0823979
0.223224
0.0805904
0.232463
0.0777784
0.239235
0.0740584
0.243201
0.0695414
0.244043
0.0643509
0.241473
0.0586219
0.0524979
0.235245
-0.0894472
-0.170273
0.0841029
-0.093941
-0.176316
-0.0975231
-0.180268
-0.100147
-0.182081
-0.10178
-0.181751
-0.102399
-0.179321
-0.101996
-0.174873
-0.100566
-0.168528
-0.0981138
-0.160436
-0.0946483
-0.150773
-0.0901805
-0.139735
-0.084723
-0.127529
-0.0782883
-0.11437
-0.0708884
-0.100478
-0.062534
-0.0860701
-0.0532351
-0.0713577
-0.0430014
-0.0565455
-0.0318432
-0.0418279
-0.0197735
-0.0273872
-0.00680978
-0.0133928
0.00702338
-2.66335e-15
0.0216916
0.0126509
0.0371474
0.0244348
0.0533271
0.0352426
0.0701475
0.0449814
0.0875028
0.0535751
0.105262
0.0609648
0.123266
0.0671089
0.141328
0.0719837
0.15923
0.0755833
0.176727
0.0779199
0.193544
0.0790236
0.209386
0.078942
0.223934
0.07774
0.236861
0.075499
0.247828
0.072316
0.256503
0.0683021
0.262563
0.0635814
0.265705
0.0582887
0.265659
0.0525672
0.0465662
0.262196
-0.0975799
-0.182312
0.0927003
-0.101618
-0.187222
-0.104754
-0.190091
-0.106939
-0.190871
-0.10814
-0.189558
-0.108333
-0.186193
-0.107508
-0.180861
-0.105661
-0.173681
-0.102796
-0.164806
-0.0989204
-0.154414
-0.0940454
-0.142701
-0.0881831
-0.129879
-0.0813457
-0.116166
-0.0735445
-0.101786
-0.0647896
-0.0869584
-0.0550897
-0.0718996
-0.0444533
-0.0568173
-0.032889
-0.0419085
-0.0204075
-0.0273579
-0.00702384
-0.0133365
0.00724072
-2.51004e-15
0.0223554
0.0125117
0.0382771
0.0240752
0.054947
0.0345844
0.0722878
0.043951
0.0902002
0.052105
0.108561
0.0589949
0.127219
0.0645884
0.145996
0.0688723
0.164687
0.0718529
0.183056
0.0735556
0.200844
0.0740247
0.217768
0.073323
0.233528
0.0715305
0.247809
0.0687437
0.260295
0.0650741
0.270671
0.0606464
0.278634
0.0555962
0.283903
0.0500679
0.286228
0.0442118
0.038181
0.285402
-0.104636
-0.191517
0.100237
-0.108209
-0.195425
-0.110894
-0.197346
-0.112642
-0.19723
-0.113419
-0.195073
-0.113203
-0.190917
-0.11198
-0.184845
-0.109748
-0.176978
-0.106509
-0.167469
-0.10227
-0.156496
-0.0970427
-0.14426
-0.0908374
-0.130972
-0.083666
-0.116856
-0.0755392
-0.102135
-0.0664661
-0.0870349
-0.0564547
-0.0717737
-0.0455118
-0.0565621
-0.0336445
-0.0415998
-0.0208617
-0.0270732
-0.00717598
-0.0131546
0.00739413
2.35013e-15
0.0228212
0.0122513
0.0390659
0.0234777
0.0560742
0.0335764
0.0737739
0.0424633
0.0920718
0.0500742
0.110851
0.0563651
0.129971
0.0613124
0.14926
0.0649131
0.168525
0.067185
0.187542
0.0681661
0.206064
0.0679141
0.223824
0.0665058
0.240536
0.0640356
0.255906
0.0606138
0.269635
0.0563652
0.281427
0.0514264
0.291002
0.0459435
0.2981
0.0400692
0.302493
0.0339591
0.0277691
0.303994
-0.110361
-0.197602
0.106418
-0.113493
-0.200706
-0.115754
-0.201869
-0.117097
-0.201041
-0.117487
-0.198221
-0.116902
-0.19345
-0.115328
-0.186811
-0.112761
-0.178427
-0.109204
-0.168451
-0.104663
-0.157062
-0.0991485
-0.144462
-0.0926712
-0.130865
-0.0852421
-0.116497
-0.0768709
-0.101585
-0.0675661
-0.0863562
-0.0573347
-0.0710318
-0.0461824
-0.0558251
-0.034115
-0.040938
-0.0211399
-0.0265588
-0.00726771
-0.0128607
0.00748527
-3.5293e-20
0.0230943
0.0118848
0.0395233
0.0226739
0.0567221
0.0322674
0.0746228
0.0405857
0.0931377
0.0475703
0.112157
0.053184
0.131544
0.0574117
0.151141
0.0602603
0.170759
0.0617582
0.190188
0.0619555
0.209193
0.0609226
0.22752
0.0587494
0.244899
0.0555434
0.261051
0.051428
0.275695
0.0465402
0.288554
0.0410275
0.299367
0.0350455
0.307893
0.0287538
0.313923
0.0223132
0.0158814
0.317291
-0.114514
-0.20038
0.110963
-0.117268
-0.202925
-0.119167
-0.203562
-0.120167
-0.202244
-0.120232
-0.198972
-0.119342
-0.193788
-0.117482
-0.186778
-0.114649
-0.178063
-0.110844
-0.167799
-0.106075
-0.156166
-0.10035
-0.143369
-0.0936795
-0.129623
-0.0860748
-0.115157
-0.0775448
-0.1002
-0.0680974
-0.0849818
-0.0577388
-0.0697274
-0.046474
-0.0546521
-0.0343082
-0.0399598
-0.0212474
-0.0258405
-0.00730096
-0.0124684
0.00751626
-3.5293e-20
0.0231815
0.011427
0.0396611
0.0216946
0.0569075
0.0307059
0.0748566
0.0383854
0.0934249
0.04468
0.112507
0.0495595
0.131974
0.0530168
0.151672
0.0550681
0.171423
0.0557523
0.191024
0.0551307
0.210252
0.053286
0.228864
0.0503204
0.246603
0.046354
0.263204
0.0415225
0.278399
0.0359744
0.291929
0.0298676
0.303544
0.0233666
0.313021
0.0166381
0.320166
0.00984754
0.00315517
0.324821
-0.116888
0.113627
-0.119361
-0.120993
-0.121738
-0.121566
-0.120455
-0.118394
-0.115378
-0.11141
-0.106495
-0.100644
-0.0938668
-0.0861733
-0.0775729
-0.0680733
-0.0576803
-0.0463989
-0.0342338
-0.0211906
-0.00727809
0.00748961
0.0230908
0.0394932
0.056651
0.0745024
0.0929666
0.111942
0.131303
0.150903
0.170568
0.190104
0.209293
0.227903
0.245687
0.262388
0.27775
0.291523
0.303469
0.313372
0.321044
0.326333
0.0344568
0.298921
0.0513913
0.297769
0.0666557
0.291544
0.0794195
0.280442
0.0889855
0.264826
0.0948372
0.24522
0.0966795
0.222292
0.0944663
0.196833
0.0884154
0.169731
0.0790065
0.141934
0.0669637
0.114412
0.053222
0.0881224
0.0388815
0.0639686
0.0251506
0.0427672
0.0132834
0.025218
0.00451524
0.0118811
0.00316097
0.0397888
0.271189
0.0556971
0.270382
0.0700531
0.265318
0.0821353
0.256147
0.0913309
0.243143
0.0971727
0.226703
0.0993718
0.207334
0.0978408
0.185641
0.092708
0.162305
0.0843198
0.138063
0.0732309
0.113683
0.0601831
0.0899339
0.0460737
0.0675583
0.0319152
0.0472497
0.0187887
0.029627
0.0077941
0.0152155
0.00443242
0.0443985
0.243639
0.0592332
0.243143
0.0726357
0.239093
0.0839803
0.231599
0.0927284
0.220865
0.0984576
0.207186
0.100888
0.190942
0.0998996
0.172588
0.0955496
0.152641
0.0880727
0.131667
0.0778792
0.110263
0.0655423
0.0890357
0.051777
0.0685863
0.0374123
0.0494893
0.0233582
0.0322754
0.010568
0.0174161
0.00531086
0.0482004
0.216718
0.0619325
0.216488
0.074352
0.213306
0.0849167
0.207249
0.0931536
0.198468
0.0986813
0.187176
0.10123
0.173654
0.100659
0.158239
0.0969673
0.141317
0.090298
0.123317
0.080941
0.104694
0.0693245
0.0859213
0.0560024
0.0674742
0.0416366
0.0498183
0.0269734
0.0333961
0.0128168
0.0186151
0.00583761
0.0511323
0.190807
0.0637502
0.190794
0.0751718
0.18834
0.0849282
0.183501
0.0926044
0.176382
0.0978565
0.167136
0.100428
0.155965
0.100163
0.143116
0.0970166
0.128873
0.0910594
0.113553
0.0824814
0.0974993
0.0715887
0.0810729
0.0587963
0.0646427
0.0446164
0.0485773
0.0296439
0.0332356
0.0145378
0.0189584
0.00605995
0.0531564
0.166221
0.0646636
0.166372
0.0750863
0.164519
0.0840195
0.160697
0.0910995
0.154979
0.0960173
0.147471
0.0985313
0.138316
0.0984771
0.12769
0.0957772
0.115798
0.0904459
0.102872
0.082593
0.0891653
0.0724236
0.0749467
0.0602346
0.0604969
0.0464086
0.046101
0.031404
0.0320426
0.0157436
0.0185975
0.00602823
0.0542586
0.143203
0.0646723
0.14347
0.0741075
0.142101
0.0822151
0.139119
0.0886771
0.134569
0.0932169
0.128524
0.0956086
0.121084
0.0956858
0.112369
0.0933481
0.102526
0.0885674
0.0917192
0.0813904
0.0801316
0.0719408
0.0679605
0.0604179
0.055414
0.0470938
0.0427071
0.032308
0.0300578
0.01646
0.0176827
0.00579332
0.0544474
0.121927
0.0637962
0.122266
0.0722661
0.121281
0.079557
0.118981
0.0853919
0.115396
0.0895239
0.110574
0.0917444
0.104579
0.0918889
0.0974957
0.0898435
0.0894227
0.0855488
0.0804754
0.0790041
0.0707826
0.0702691
0.0604852
0.0594644
0.0497337
0.0467707
0.0386863
0.0324264
0.0275057
0.0167229
0.0163569
0.00540437
0.0537515
0.102503
0.0620729
0.102878
0.0696088
0.102188
0.076102
0.100437
0.0813117
0.0976414
0.0850192
0.0938306
0.0870336
0.0890467
0.0871964
0.0833439
0.0853867
0.0767888
0.0815245
0.0694591
0.0755746
0.0614433
0.067548
0.0528391
0.0575039
0.0437525
0.0455498
0.0342963
0.0318405
0.0245886
0.0165762
0.0147511
0.00490705
0.0522161
0.0849831
0.0595549
0.0853629
0.0661952
0.084895
0.0719176
0.0835787
0.0765139
0.0814222
0.0797916
0.0784422
0.0815778
0.074664
0.0817232
0.0701217
0.0801056
0.0648582
0.0766328
0.058924
0.0712461
0.052378
0.0639215
0.0452857
0.054672
0.0377196
0.0435481
0.0297576
0.0306384
0.0214824
0.0160684
0.0129808
0.00434222
0.0498991
0.0693652
0.0563048
0.0697266
0.0620933
0.0694209
0.0670782
0.0684449
0.0710809
0.066801
0.0739332
0.0644975
0.0754805
0.0615487
0.0755847
0.0579749
0.0741271
0.0538019
0.0710104
0.0490617
0.0661613
0.0437916
0.0595324
0.0380341
0.0511038
0.0318367
0.0408838
0.0252514
0.0289102
0.0183343
0.0152502
0.0111447
0.0037451
0.046866
0.0556051
0.0523911
0.0559317
0.057375
0.0557406
0.0616606
0.0550271
0.0650956
0.0537906
0.0675348
0.052034
0.0688419
0.0497645
0.0688918
0.0469929
0.0675725
0.0437341
0.0647872
0.0400069
0.060456
0.0358339
0.0545172
0.0312414
0.0469293
0.0262594
0.0376713
0.0209211
0.0267444
0.0152627
0.0141719
0.00932342
0.00314485
0.0431852
0.0436245
0.0478834
0.043906
0.0521117
0.0437925
0.055739
0.0432792
0.0586371
0.0423637
0.060682
0.041046
0.0617554
0.0393288
0.0617464
0.0372172
0.0605527
0.0347187
0.0580823
0.0318438
0.0542544
0.0286053
0.0490012
0.0250186
0.0422686
0.0211014
0.0340175
0.0168739
0.0242242
0.0123586
0.0128818
0.00758001
0.00256466
0.0389227
0.0333207
0.0428474
0.0335518
0.0463695
0.0334883
0.0493812
0.0331258
0.0517761
0.0324613
0.0534502
0.0314935
0.0543029
0.0302223
0.0542381
0.0286496
0.0531651
0.0267788
0.051
0.0246147
0.0476661
0.0221642
0.0430954
0.0194356
0.0372289
0.0164387
0.0300181
0.013185
0.0214252
0.00968777
0.0114239
0.00596144
0.00202203
0.0341384
0.0245755
0.0373411
0.0247551
0.0402054
0.0247217
0.0426445
0.0244717
0.0445718
0.0240022
0.0459021
0.0233113
0.0465519
0.0223979
0.0464405
0.021262
0.0454901
0.0199047
0.0436272
0.0183279
0.0407829
0.0165348
0.0368935
0.0145292
0.0319016
0.0123164
0.0257561
0.00990244
0.0184133
0.00729439
0.00983718
0.00450038
0.00152944
0.0288813
0.0172636
0.0314109
0.0173942
0.033664
0.0173776
0.0355727
0.0172109
0.0370689
0.0168918
0.0380848
0.0164186
0.0385536
0.0157898
0.0384098
0.0150049
0.0375896
0.0140637
0.0360318
0.0129667
0.0336775
0.011715
0.0304712
0.0103104
0.0263612
0.00875502
0.0212998
0.00705197
0.0152437
0.00520474
0.00815472
0.00321752
0.00109507
0.0231877
0.0112608
0.0250893
0.0113473
0.0267752
0.011339
0.0281944
0.0112339
0.0292958
0.0110302
0.0300283
0.0107268
0.0303409
0.0103223
0.0301836
0.00981621
0.0295068
0.00920795
0.0282624
0.00849744
0.0264036
0.00768491
0.0238857
0.00677093
0.0206657
0.00575642
0.0167033
0.00464265
0.0119609
0.00343123
0.00640356
0.00212413
0.000723671
0.017079
0.00644997
0.0183939
0.00649923
0.0195532
0.00649463
0.0205219
0.00643502
0.0212645
0.00631941
0.0217457
0.00614695
0.0219298
0.00591694
0.0217817
0.00562886
0.0212663
0.00528233
0.0203492
0.00487714
0.0189969
0.00441326
0.0171767
0.00389083
0.0148569
0.00331015
0.0120073
0.00267171
0.00859905
0.00197618
0.00460505
0.00122439
0.000417373
0.0105616
0.00272604
0.0113266
0.0027462
0.0119969
0.0027437
0.012552
0.00271806
0.0129714
0.00266887
0.0132343
0.00259579
0.0133199
0.00249851
0.0132076
0.00237681
0.0128765
0.00223052
0.0123064
0.00205954
0.0114772
0.00186383
0.0103691
0.00164341
0.00896309
0.00139838
0.00724056
0.00112891
0.00518371
0.00083522
0.00277555
0.000517616
0.000176463
0.00362829
3.66153e-18
0.00387597
2.90369e-18
0.00409141
3.11207e-18
0.004268
3.02836e-18
0.00439907
2.35716e-18
0.00447787
2.24345e-18
0.00449766
2.13497e-18
0.00445167
1.60018e-18
0.00433317
1.11329e-18
0.00413548
7.94213e-19
0.00385202
4.48898e-19
0.00347632
4.51204e-19
0.00300207
5.60789e-19
0.00242312
3.93077e-19
0.00173354
2.00713e-19
0.000927637
8.04558e-20
1.61e-20
-0.0037402
-0.00179915
-0.00398117
-0.00180991
-0.00418904
-0.00180567
-0.00435737
-0.00178619
-0.00447965
-0.00175127
-0.00454931
-0.00170076
-0.00455978
-0.00163455
-0.00450448
-0.00155257
-0.00437686
-0.00145479
-0.00417043
-0.00134121
-0.0038788
-0.00121191
-0.00349567
-0.00106696
-0.00301493
-0.000906508
-0.00243062
-0.000730726
-0.00173699
-0.000539827
-0.000928529
-0.000334063
-0.000113725
-0.0115712
-0.00272358
-0.0122755
-0.00273554
-0.0128773
-0.0027246
-0.0133578
-0.00269056
-0.0136978
-0.00263324
-0.0138782
-0.00255257
-0.0138797
-0.00244854
-0.0136833
-0.0023212
-0.01327
-0.00217068
-0.0126211
-0.00199716
-0.0117182
-0.0018009
-0.0105432
-0.0015822
-0.00907877
-0.00134143
-0.00730801
-0.00107902
-0.00521473
-0.000795441
-0.00278356
-0.000491212
-0.000166905
-0.0198959
-0.00280719
-0.021041
-0.00281085
-0.0220087
-0.00279063
-0.0227684
-0.00274655
-0.0232889
-0.00267874
-0.0235392
-0.00258741
-0.0234883
-0.00247287
-0.0231055
-0.00233548
-0.0223605
-0.00217568
-0.0212237
-0.00199399
-0.0196661
-0.00179096
-0.0176597
-0.00156722
-0.0151777
-0.00132343
-0.0121941
-0.00106028
-0.00868491
-0.000778502
-0.0046272
-0.00047886
-0.000162127
-0.028745
-0.00206734
-0.0303096
-0.00205355
-0.0316156
-0.00202181
-0.0326205
-0.00197265
-0.0332817
-0.00190672
-0.0335572
-0.00182471
-0.033405
-0.0017274
-0.0327841
-0.0016156
-0.0316543
-0.00149019
-0.0299769
-0.00135205
-0.0277142
-0.00120208
-0.0248307
-0.00104117
-0.0212924
-0.000870212
-0.0170679
-0.000690061
-0.0121282
-0.000501541
-0.00644667
-0.000305429
-0.000102446
-0.0381427
-0.000507662
-0.0401064
-0.00046779
-0.041722
-0.000423196
-0.0429357
-0.000375152
-0.0436942
-0.000324973
-0.0439449
-0.000273997
-0.0436364
-0.000223561
-0.0427187
-0.000174968
-0.0411436
-0.000129471
-0.0388653
-8.8243e-05
-0.0358403
-5.23551e-05
-0.0320282
-2.27573e-05
-0.0273921
-2.57482e-07
-0.0218985
1.44941e-05
-0.0155179
2.10197e-05
-0.00822523
1.90245e-05
8.40511e-06
-0.0481022
0.00187841
-0.050444
0.00195218
-0.0523384
0.00200953
-0.0537211
0.00204826
-0.0545284
0.00206624
-0.0546984
0.00206146
-0.0541714
0.00203205
-0.0528904
0.00197637
-0.0508014
0.00189299
-0.0478544
0.00178079
-0.0440034
0.00163895
-0.0392074
0.00146699
-0.0334303
0.00126483
-0.0266419
0.00103273
-0.018818
0.000771385
-0.00994099
0.000481879
0.000165694
-0.0586207
0.00510345
-0.0613176
0.00521785
-0.0634571
0.00528586
-0.0649641
0.00530422
-0.0657656
0.00526994
-0.0657916
0.00518041
-0.0649759
0.00503348
-0.0632566
0.0048275
-0.0605771
0.0045614
-0.0568865
0.00423474
-0.0521405
0.00384776
-0.046302
0.00340142
-0.0393418
0.00289739
-0.031239
0.00233808
-0.0219813
0.00172662
-0.0115661
0.00106686
0.000363326
-0.0696747
0.00918146
-0.0727014
0.00934182
-0.0750478
0.00941584
-0.0766286
0.00939907
-0.0773625
0.00928777
-0.0771731
0.009079
-0.0759896
0.00877077
-0.0737483
0.00836212
-0.0703933
0.00785321
-0.0658774
0.0072454
-0.060163
0.00654128
-0.053223
0.00574467
-0.0450415
0.00486066
-0.0356141
0.00389555
-0.0249488
0.00285679
-0.0130663
0.00175293
0.000593475
-0.0812175
0.0141232
-0.0845448
0.0143331
-0.0870545
0.0144053
-0.088652
0.0143342
-0.0892486
0.0141153
-0.0887632
0.013746
-0.0871235
0.0132252
-0.0842674
0.0125539
-0.080144
0.0117347
-0.0747151
0.0107724
-0.0679562
0.00967396
-0.059857
0.00844814
-0.0504227
0.00710574
-0.0396745
0.00565937
-0.0276494
0.00412331
-0.0144013
0.00251329
0.000846275
-0.0931761
0.0199314
-0.0967705
0.0201926
-0.0993941
0.0202515
-0.100943
0.0201012
-0.101324
0.0197373
-0.100453
0.0191582
-0.0982587
0.0183649
-0.0946857
0.0173619
-0.0896935
0.0161565
-0.0832592
0.0147592
-0.0753784
0.0131839
-0.0660664
0.0114473
-0.0553587
0.00956896
-0.0433114
0.00757097
-0.0300011
0.00547755
-0.0155251
0.00331468
0.00110961
-0.10545
0.0265965
-0.109274
0.0269086
-0.111955
0.0269384
-0.113384
0.026678
-0.113461
0.0261238
-0.112103
0.0252763
-0.109247
0.0241407
-0.104846
0.022727
-0.098878
0.02105
-0.0913421
0.0191295
-0.0822633
0.0169897
-0.071692
0.0146591
-0.0597042
0.0121699
-0.046402
0.00955759
-0.0319125
0.00686009
-0.0163872
0.00411706
0.00136908
-0.117913
0.0340928
-0.121922
0.0344531
-0.124599
0.0344332
-0.125826
0.0340249
-0.125502
0.0332261
-0.123549
0.0320414
-0.119913
0.0304824
-0.114565
0.0285681
-0.107508
0.0263246
-0.0987722
0.0237849
-0.0884227
0.0209885
-0.0765555
0.0179803
-0.0632989
0.0148103
-0.0488126
0.0115317
-0.0332858
0.00820058
-0.0169348
0.00487378
0.00160809
-0.13041
0.042375
-0.134558
0.0427783
-0.137162
0.0426834
-0.138098
0.0420818
-0.137268
0.0409744
-0.1346
0.0393723
-0.130056
0.0372969
-0.123635
0.0347803
-0.115371
0.031865
-0.105338
0.0286029
-0.0936509
0.0250543
-0.0804645
0.021287
-0.065972
0.0173738
-0.0504029
0.0133916
-0.0340198
0.00941849
-0.0171141
0.0055323
0.00180826
-0.142768
0.0513753
-0.147003
0.0518149
-0.149459
0.0516146
-0.150008
0.0507663
-0.148556
0.0492758
-0.145044
0.0471638
-0.139459
0.0444662
-0.131831
0.0412336
-0.12224
0.0375311
-0.110813
0.0334366
-0.0977309
0.0290387
-0.0832186
0.0244347
-0.0675479
0.0197275
-0.0510311
0.0150225
-0.0340148
0.0104247
-0.0168733
0.00603554
0.00194989
-0.15479
0.0610026
-0.159057
0.0614701
-0.161287
0.061129
-0.161346
0.0599724
-0.15915
0.0580135
-0.154658
0.0552866
-0.147889
0.0518474
-0.138916
0.0477725
-0.127876
0.0431578
-0.114966
0.0381156
-0.100441
0.0327717
-0.0846158
0.0272611
-0.0678532
0.0217236
-0.0505602
0.0162994
-0.0331767
0.0111239
-0.0161656
0.00632371
0.00201272
-0.166267
0.071141
-0.170512
0.0716273
-0.172431
0.0711057
-0.171894
0.0695712
-0.168824
0.0670473
-0.16321
0.0635871
-0.155108
0.0592736
-0.14465
0.0542181
-0.132042
0.0485572
-0.117563
0.0424484
-0.101564
0.0360648
-0.0844614
0.0295884
-0.0667241
0.0232037
-0.0488643
0.0170907
-0.0314225
0.0114178
-0.0149515
0.00633668
0.0019768
-0.176982
0.0816505
-0.181148
0.0821472
-0.182674
0.0814017
-0.181428
0.079412
-0.177352
0.0762153
-0.170468
0.0718903
-0.160883
0.0665563
-0.148797
0.0603701
-0.134503
0.0535215
-0.118382
0.0462256
-0.100895
0.0387148
-0.0825758
0.0312284
-0.0640139
0.024003
-0.0458357
0.0172625
-0.0286853
0.0112093
-0.0132022
0.00601666
0.00182347
-0.186717
0.0923684
-0.190751
0.0928688
-0.191799
0.0918537
-0.189733
0.0893245
-0.184515
0.0853368
-0.176209
0.0800026
-0.164987
0.0734885
-0.151134
0.0660108
-0.135044
0.0578271
-0.117219
0.0492251
-0.0982493
0.0405095
-0.0788037
0.0319879
-0.0596022
0.0239559
-0.041392
0.016684
-0.0249197
0.0104062
-0.0109023
0.0053111
0.00153631
-0.195257
0.103111
-0.199112
0.103613
-0.199602
0.102282
-0.196605
0.099123
-0.190109
0.0942161
-0.180231
0.0877159
-0.16722
0.0798501
-0.151461
0.0709106
-0.133475
0.0612406
-0.113899
0.0512175
-0.0934762
0.0412336
-0.0730233
0.0316752
-0.0534019
0.0229027
-0.0354823
0.0152332
-0.0201066
0.00892658
-0.00805252
0.00417566
0.00110222
-0.202401
0.11368
-0.206036
0.114186
-0.205895
0.112493
-0.20186
0.108611
-0.193954
0.102648
-0.182355
0.0948134
-0.167406
0.085413
-0.149612
0.0748335
-0.129638
0.0635249
-0.108285
0.0519738
-0.0864634
0.040676
-0.0651542
0.0301071
-0.0453675
0.020696
-0.0280941
0.0128028
-0.0142577
0.00670265
-0.00467161
0.00257698
0.000512218
0.321205
-0.00113492
-0.32628
0.313735
0.0068242
0.304012
0.0150433
0.292215
0.0233097
0.278555
0.0313976
0.263267
0.0390752
0.246602
0.0461128
0.228818
0.0522898
0.210175
0.0574018
0.190923
0.0612665
0.171304
0.0637287
0.15154
0.0646632
0.131833
0.063978
0.112362
0.0616147
0.0932815
0.0575486
0.074721
0.0517886
0.056787
0.0443749
0.039564
0.0353779
0.0231166
0.0248961
0.0074925
0.013054
-0.0072752
-1.05879e-19
-0.0211647
-0.0140955
-0.0341629
-0.029042
-0.0462629
-0.0446318
-0.0574617
-0.0606416
-0.0677583
-0.076836
-0.0771525
-0.092971
-0.0856434
-0.108797
-0.0932296
-0.124067
-0.0999082
-0.138534
-0.105676
-0.151966
-0.110528
-0.164147
-0.114463
-0.17488
-0.117478
-0.183999
-0.119576
-0.191368
-0.120761
-0.196889
-0.121046
-0.200502
-0.12045
-0.202187
-0.118998
-0.201967
-0.116726
-0.199902
-0.19609
0.317314
0.0112207
-0.321598
0.310544
0.0189157
0.301432
0.0267937
0.290163
0.0346425
0.276952
0.0422387
0.262042
0.0493551
0.245692
0.0557684
0.228165
0.0612663
0.20973
0.0656541
0.190645
0.0687604
0.171155
0.0704413
0.15149
0.0705837
0.131855
0.0691072
0.112433
0.0659648
0.0933812
0.0611427
0.0748326
0.0546592
0.0568955
0.0465632
0.0396559
0.0369326
0.0231799
0.0258719
0.00751609
0.0135103
-0.00730113
-3.5293e-20
-0.021249
-0.0144863
-0.0343133
-0.0297568
-0.046486
-0.0456031
-0.0577628
-0.0618025
-0.0681411
-0.0781207
-0.0776189
-0.0943149
-0.0861936
-0.110138
-0.0938613
-0.125344
-0.100617
-0.139691
-0.106454
-0.152947
-0.111366
-0.1649
-0.115347
-0.175355
-0.118393
-0.18415
-0.120503
-0.191152
-0.12168
-0.196265
-0.121933
-0.199432
-0.12128
-0.200638
-0.119745
-0.199908
-0.117365
-0.197308
-0.192941
0.308311
0.022646
-0.311216
0.30277
0.0300719