/*--------------------------------*- C++ -*----------------------------------*\
  =========                 |
  \\      /  F ield         | OpenFOAM: The Open Source CFD Toolbox
   \\    /   O peration     | Website:  https://openfoam.org
    \\  /    A nd           | Version:  6
     \\/     M anipulation  |
\*---------------------------------------------------------------------------*/
FoamFile
{
    version     2.0;
    format      ascii;
    class       volScalarField;
    location    "2.88";
    object      p;
}
// * * * * * * * * * * * * * * * * * * * * * * * * * * * * * * * * * * * * * //

dimensions      [0 2 -2 0 0 0 0];

internalField   nonuniform List<scalar> 
4214
(
-1.99028
-1.74875
-1.27799
-0.870977
-0.687665
-0.619023
-0.576836
-0.540929
-0.511657
-0.510916
-0.539132
-0.650289
-0.630654
-0.436112
-0.405121
-0.0778157
0.353483
0.875031
1.29299
1.2901
0.929714
0.378338
-0.238512
-0.727065
-1.02044
-1.13299
-1.13317
-1.08326
-1.02789
-0.98283
-0.945516
-0.912366
-0.889653
-0.864347
-0.859553
-0.865347
-0.903571
-1.09505
-1.55963
-2.08176
-2.36619
-1.22444
-1.53415
-1.59433
-1.32864
-1.13488
-1.03957
-0.967709
-0.896174
-0.828799
-0.779438
-0.740608
-0.893628
-0.982737
-1.39757
-2.11385
-1.92995
-1.11804
-0.045055
0.623974
0.572638
-0.129258
-1.07745
-1.97894
-2.54809
-2.80853
-2.83641
-2.70898
-2.55
-2.3813
-2.21524
-2.05753
-1.91576
-1.79742
-1.694
-1.63214
-1.55988
-1.53679
-1.69499
-1.99743
-1.82329
-1.44283
-2.43002
-2.35784
-2.40338
-2.19826
-1.97428
-1.82139
-1.70011
-1.5809
-1.46543
-1.36902
-1.30455
-1.33082
-1.36745
-2.08002
-2.41165
-1.84033
-0.746388
0.128786
0.209661
-0.402831
-1.48995
-2.80491
-4.10103
-4.95654
-5.33558
-5.36502
-5.12835
-4.81553
-4.48471
-4.16596
-3.87088
-3.60465
-3.37358
-3.18637
-3.05731
-2.92977
-2.89103
-3.04023
-3.26091
-2.9821
-2.98153
-3.29565
-3.08907
-3.09235
-2.91665
-2.6796
-2.48411
-2.3179
-2.15217
-1.98427
-1.82747
-1.70681
-1.68463
-1.75253
-2.40213
-2.37499
-1.49523
-0.354052
0.054941
-0.648226
-2.02382
-3.66684
-5.40168
-7.00365
-7.97401
-8.33787
-8.27054
-7.82814
-7.28353
-6.73351
-6.21663
-5.74944
-5.33108
-4.96506
-4.66363
-4.43834
-4.23672
-4.11432
-4.19759
-4.32324
-3.93999
-4.06324
-4.1641
-3.93332
-3.86427
-3.66721
-3.41339
-3.18084
-2.9663
-2.74615
-2.51534
-2.27918
-2.06482
-1.9991
-2.10298
-2.39281
-1.95931
-0.881622
0.0696618
-0.215472
-1.86658
-4.13329
-6.4709
-8.73569
-10.7094
-11.7599
-12.0444
-11.8088
-11.0869
-10.2152
-9.36756
-8.59104
-7.9073
-7.30518
-6.78045
-6.34005
-5.99985
-5.7134
-5.48331
-5.49623
-5.56117
-5.15772
-5.26591
-4.95526
-4.72098
-4.61975
-4.4017
-4.12788
-3.86031
-3.59717
-3.31927
-3.02439
-2.70888
-2.41381
-2.1542
-2.1651
-2.06147
-1.32359
-0.214993
0.354432
-0.736503
-3.43044
-6.68847
-9.86206
-12.7776
-15.1828
-16.3603
-16.5264
-15.9866
-14.9381
-13.6496
-12.4008
-11.2735
-10.3063
-9.4778
-8.76354
-8.15633
-7.67677
-7.27894
-6.92754
-6.82565
-6.8318
-6.34075
-6.4066
-5.76464
-5.52896
-5.39715
-5.15368
-4.85406
-4.54949
-4.23795
-3.89811
-3.51738
-3.10189
-2.69263
-2.21754
-1.99301
-1.52831
-0.616013
0.358759
0.432141
-1.51676
-5.27187
-9.59146
-13.7268
-17.4058
-20.2572
-21.6581
-21.8793
-21.0609
-19.5597
-17.7181
-15.9404
-14.3467
-13.003
-11.8887
-10.9448
-10.141
-9.49752
-8.95967
-8.47981
-8.26218
-8.16856
-7.59129
-7.59856
-6.57959
-6.34298
-6.19034
-5.92443
-5.59952
-5.25876
-4.8932
-4.47866
-4.00573
-3.47389
-2.88224
-2.25738
-1.75385
-0.978265
0.0100404
0.716411
0.233497
-2.54863
-7.29289
-12.7037
-17.8763
-22.414
-25.8361
-27.5569
-27.8058
-26.9128
-25.0362
-22.4622
-20.019
-17.8554
-16.0507
-14.57
-13.3389
-12.2978
-11.4557
-10.7424
-10.1257
-9.78962
-9.54127
-8.8981
-8.77245
-7.42561
-7.19306
-7.02275
-6.73871
-6.38108
-6.0008
-5.58001
-5.08823
-4.51756
-3.8536
-3.09878
-2.28971
-1.47612
-0.490562
0.444286
0.777295
-0.291727
-3.76432
-9.38189
-15.8407
-22.0404
-27.4542
-31.5236
-33.7439
-34.2753
-33.1555
-30.8045
-27.754
-24.6296
-21.8142
-19.4426
-17.5139
-15.94
-14.6402
-13.5623
-12.6474
-11.8884
-11.4038
-10.9685
-10.278
-9.98681
-8.30843
-8.08721
-7.91118
-7.60346
-7.21963
-6.80409
-6.33081
-5.76313
-5.09439
-4.29495
-3.37211
-2.3511
-1.23559
-0.152993
0.598817
0.503732
-1.14608
-5.13891
-11.4615
-18.8167
-25.9265
-32.1304
-36.8409
-39.6294
-40.4505
-39.4322
-36.9077
-33.4371
-29.6902
-26.1837
-23.1628
-20.7053
-18.7275
-17.1201
-15.7818
-14.656
-13.7466
-13.0735
-12.4552
-11.6941
-11.2989
-9.23951
-9.0415
-8.87818
-8.5537
-8.15063
-7.70629
-7.18785
-6.55259
-5.79601
-4.87015
-3.79384
-2.56502
-1.28883
-0.164729
0.396631
-0.124876
-2.28756
-6.67852
-13.4699
-21.482
-29.2977
-36.1441
-41.425
-44.7427
-45.9796
-45.2596
-42.8365
-39.1935
-34.9844
-30.8316
-27.1912
-24.1162
-21.6626
-19.7026
-18.0789
-16.7262
-15.6318
-14.7615
-13.9639
-13.1353
-12.7251
-10.2597
-10.0956
-9.95978
-9.63182
-9.21648
-8.7498
-8.19582
-7.50548
-6.67849
-5.64577
-4.44403
-3.03546
-1.61656
-0.502861
-0.198208
-1.12763
-3.71304
-8.36746
-15.3889
-23.7223
-31.9926
-39.2825
-44.9985
-48.7608
-50.4344
-50.1694
-48.08
-44.5577
-40.1594
-35.5515
-31.4279
-27.7132
-24.696
-22.33
-20.3933
-18.7867
-17.4845
-16.4055
-15.4479
-14.6018
-14.1904
-11.4302
-11.2901
-11.1775
-10.8638
-10.4513
-9.97235
-9.39429
-8.66086
-7.77832
-6.65349
-5.36086
-3.8184
-2.34718
-1.30028
-1.23868
-2.53278
-5.4524
-10.2306
-17.1798
-25.504
-33.9337
-41.4277
-47.3962
-51.4751
-53.5549
-53.725
-52.132
-48.9819
-44.7577
-39.9701
-35.4061
-31.3415
-27.7596
-24.911
-22.6537
-20.7744
-19.2594
-17.9759
-16.8789
-15.9762
-15.3738
-12.7888
-12.645
-12.5417
-12.2577
-11.8752
-11.4071
-10.8307
-10.0748
-9.15618
-7.94463
-6.59807
-4.94528
-3.52464
-2.57609
-2.80201
-4.38872
-7.54325
-12.3541
-18.9032
-26.9329
-35.1395
-42.5672
-48.5791
-52.8221
-55.1872
-55.7135
-54.6511
-51.9956
-48.2569
-43.5332
-38.8797
-34.5025
-30.6448
-27.3193
-24.7906
-22.6516
-20.9425
-19.4749
-18.2251
-17.206
-16.3925
-14.3939
-14.2157
-14.1295
-13.873
-13.5556
-13.1249
-12.6042
-11.8757
-10.997
-9.7474
-8.45955
-6.68261
-5.39689
-4.40416
-4.93874
-6.71982
-10.0234
-14.7494
-20.7824
-28.1755
-35.7239
-42.779
-48.6265
-52.876
-55.3911
-56.173
-55.6365
-53.4207
-50.3913
-45.9577
-41.7007
-36.8192
-33.1147
-29.4819
-26.6999
-24.2789
-22.326
-20.7131
-19.2891
-18.125
-17.1019
-16.2564
-16.1205
-16.0862
-15.8404
-15.6633
-15.2507
-14.8649
-14.2176
-13.5552
-12.4144
-11.439
-9.50441
-8.49519
-6.93464
-7.81286
-9.41929
-12.88
-17.3864
-22.8732
-29.4903
-35.8272
-42.2318
-47.6308
-51.7616
-54.4037
-55.3531
-55.413
-53.4458
-51.2622
-47.1521
-43.7473
-38.5473
-35.3353
-31.2583
-28.0975
-25.3565
-22.9484
-21.3191
-19.7054
-18.5378
-17.3963
-18.217
-18.2625
-18.3437
-18.1355
-18.1697
-17.7661
-17.5829
-17.0271
-16.6461
-15.7764
-15.1045
-13.1302
-12.6363
-10.4165
-11.7871
-12.5973
-16.3373
-20.1587
-25.0246
-30.7243
-35.4195
-40.9516
-45.6106
-49.6986
-52.3865
-53.4161
-53.9223
-52.1213
-50.6781
-46.9518
-44.5698
-39.378
-36.9328
-32.1194
-28.8697
-25.8324
-23.1872
-21.5926
-19.9286
-18.7893
-17.6566
-16.7506
-16.4632
-16.1727
-15.6748
-15.0169
-14.1814
-13.2027
-12.0452
-10.8605
-9.78479
-8.76581
-7.78905
-6.75106
-5.8502
-4.75362
-4.10506
-3.66672
-15.8305
-15.6253
-15.4631
-15.1289
-14.639
-14.0496
-13.3599
-12.4928
-11.5051
-10.5117
-9.58838
-8.74856
-7.80178
-7.03767
-5.96721
-5.51192
-4.47642
-15.0848
-14.9073
-14.7812
-14.5596
-14.2159
-13.7978
-13.3174
-12.7424
-12.0012
-11.171
-10.3471
-9.61833
-8.80624
-8.16644
-7.22543
-6.8458
-5.61396
-14.302
-14.1794
-14.1494
-14.0188
-13.7869
-13.4864
-13.1616
-12.7764
-12.2989
-11.6847
-10.9917
-10.3513
-9.68951
-9.1244
-8.31366
-7.94223
-6.82709
-13.6422
-13.5533
-13.5479
-13.4798
-13.3389
-13.1486
-12.9179
-12.6708
-12.3767
-12.0009
-11.5124
-10.9608
-10.4306
-9.9506
-9.32395
-8.97358
-8.03087
-12.9511
-12.8861
-12.9831
-12.9565
-12.879
-12.7748
-12.635
-12.4639
-12.2829
-12.0711
-11.8002
-11.4242
-11.0185
-10.6203
-10.1724
-9.85899
-9.14826
-12.3206
-12.2891
-12.4205
-12.4349
-12.4083
-12.3715
-12.3071
-12.2121
-12.0944
-11.9683
-11.8302
-11.6522
-11.4161
-11.1009
-10.8252
-10.5635
-10.1028
-11.6605
-11.6356
-11.8507
-11.9154
-11.9256
-11.9453
-11.9371
-11.9063
-11.8572
-11.7902
-11.7099
-11.6264
-11.5302
-11.379
-11.2351
-11.0257
-10.794
-11.0235
-11.0322
-11.2488
-11.3545
-11.4081
-11.4791
-11.528
-11.5525
-11.5595
-11.552
-11.5315
-11.4988
-11.4577
-11.4115
-11.3735
-11.2604
-11.2066
-10.3705
-10.3659
-10.6302
-10.7636
-10.8465
-10.9536
-11.0458
-11.1183
-11.1795
-11.2303
-11.2694
-11.2966
-11.3177
-11.3171
-11.3303
-11.3116
-11.3403
-9.69161
-9.73904
-9.9761
-10.127
-10.2371
-10.3694
-10.4911
-10.5984
-10.6984
-10.7936
-10.8787
-10.9582
-11.035
-11.0904
-11.1696
-11.1785
-11.3045
-9.03012
-9.03534
-9.29916
-9.45884
-9.57906
-9.72479
-9.86479
-9.995
-10.1203
-10.246
-10.3617
-10.48
-10.5931
-10.6938
-10.8241
-10.8749
-11.0827
-8.29266
-8.36397
-8.58287
-8.74155
-8.87146
-9.0216
-9.16869
-9.31006
-9.44889
-9.59179
-9.72458
-9.86904
-10.0003
-10.1346
-10.2907
-10.3766
-10.6221
-7.61831
-7.61685
-7.83975
-7.99325
-8.11611
-8.26
-8.40481
-8.54652
-8.68779
-8.83551
-8.9745
-9.13121
-9.26429
-9.42353
-9.57995
-9.68956
-9.96087
-6.82033
-6.89381
-7.05881
-7.19635
-7.31333
-7.44378
-7.5765
-7.70831
-7.84114
-7.98158
-8.11627
-8.27123
-8.4001
-8.56959
-8.71022
-8.85256
-9.10388
-6.12872
-6.11153
-6.25448
-6.37278
-6.46783
-6.57568
-6.68945
-6.80344
-6.91838
-7.04068
-7.15922
-7.2972
-7.41117
-7.58176
-7.6927
-7.83868
-8.05268
-5.29386
-5.33103
-5.41351
-5.50606
-5.58336
-5.66377
-5.75017
-5.83851
-5.92844
-6.02489
-6.11781
-6.22778
-6.31556
-6.46261
-6.52984
-6.68946
-6.85334
-4.58352
-4.54114
-4.57102
-4.61776
-4.65979
-4.70461
-4.75561
-4.80989
-4.86804
-4.93192
-4.99333
-5.07177
-5.12985
-5.24201
-5.26761
-5.41499
-5.46516
-3.68159
-3.67999
-3.67536
-3.67506
-3.67929
-3.68616
-3.69829
-3.71361
-3.73337
-3.75696
-3.78218
-3.82416
-3.84589
-3.9178
-3.90887
-4.00887
-3.98131
-2.84866
-2.75592
-2.71533
-2.67698
-2.64261
-2.61165
-2.58483
-2.56092
-2.54036
-2.52258
-2.50756
-2.49878
-2.48263
-2.48683
-2.45792
-2.50837
-2.44947
-1.83031
-1.77906
-1.71469
-1.63999
-1.5648
-1.48989
-1.41874
-1.34962
-1.28295
-1.21752
-1.15391
-1.09463
-1.02546
-0.992872
-0.906684
-0.914554
-0.779876
-1.0486
-0.846125
-0.702018
-0.573615
-0.456053
-0.335185
-0.216388
-0.0991206
0.0160415
0.131002
0.242599
0.352307
0.472829
0.54941
0.712131
0.732222
0.948912
0.0483041
0.163054
0.318262
0.49982
0.671435
0.841134
1.0072
1.17094
1.33294
1.4942
1.6517
1.81079
1.97314
2.10608
2.31709
2.36936
2.66024
0.806741
1.13935
1.3701
1.59388
1.80831
2.02168
2.23132
2.43809
2.64266
2.84501
3.04349
3.24449
3.44373
3.62403
3.86689
3.9553
4.31685
1.92874
2.14896
2.40176
2.67172
2.93169
3.18711
3.43669
3.68208
3.92408
4.16207
4.39578
4.6309
4.85906
5.07409
5.33692
5.46175
5.87051
2.69628
3.11449
3.43056
3.73693
4.03216
4.32236
4.60574
4.88358
5.15633
5.42321
5.68529
5.94669
6.19752
6.4413
6.72394
6.88861
7.3161
3.77903
4.08759
4.42289
4.76581
5.09496
5.41485
5.72545
6.0284
6.32372
6.61092
6.8923
7.17113
7.44054
7.70994
8.00138
8.18914
8.61514
4.5293
5.0129
5.39567
5.76256
6.11463
6.45611
6.78642
7.10644
7.4161
7.71664
8.01239
8.30398
8.58328
8.85692
9.14198
9.33723
9.74539
5.55364
5.9262
6.32146
6.71138
7.08215
7.43818
7.78006
8.10896
8.42641
8.73523
9.03443
9.32302
9.5961
9.86454
10.1357
10.3283
10.7081
6.27777
6.79609
7.2165
7.61454
7.99282
8.35431
8.69916
9.02926
9.34648
9.6493
9.93967
10.217
10.4782
10.7351
10.9853
11.1705
11.5174
7.22773
7.63458
8.05727
8.46202
8.84147
9.2
9.53934
9.86165
10.1676
10.4574
10.7324
10.9935
11.2389
11.479
11.7063
11.8813
12.193
7.91496
8.43573
8.86077
9.25665
9.62678
9.97388
10.2996
10.6059
10.894
11.1661
11.4224
11.6629
11.8886
12.1075
12.3115
12.4742
12.7497
8.78461
9.19473
9.60937
9.99461
10.349
10.6775
10.9828
11.2675
11.5334
11.7814
12.0164
12.2354
12.4394
12.6363
12.817
12.9632
13.2012
9.43357
9.92319
10.3197
10.6801
11.0103
11.3138
11.5937
11.8527
12.0932
12.317
12.5253
12.721
12.9022
13.0757
13.234
13.3643
13.5651
10.2289
10.6059
10.9771
11.3107
11.6115
11.8851
12.1359
12.3668
12.5802
12.7781
12.9621
13.1329
13.2918
13.4412
13.5755
13.688
13.8545
10.8356
11.2579
11.5914
11.8861
12.1514
12.3917
12.6113
12.813
12.9989
13.1709
13.3302
13.4769
13.6135
13.7421
13.8549
13.9485
14.0812
11.5544
11.8592
12.1521
12.4067
12.6336
12.8386
13.0261
13.1983
13.357
13.5036
13.6388
13.7626
13.8753
13.9802
14.073
14.1514
14.2559
12.124
12.4405
12.6806
12.8874
13.074
13.2433
13.3985
13.541
13.6724
13.7934
13.9043
14.0051
14.0966
14.1791
14.2469
14.3038
14.3863
12.7936
12.9919
13.1806
13.3415
13.4882
13.6221
13.7446
13.8571
13.9604
14.0547
14.1401
14.2163
14.2839
14.3419
14.3877
14.4293
14.4858
13.3303
13.5121
13.6344
13.7444
13.8499
13.9469
14.036
14.1187
14.1949
14.2642
14.3257
14.3789
14.4232
14.4581
14.4862
14.5198
14.5656
11.3095
11.893
12.5518
13.0837
13.6708
14.1596
14.7016
15.1618
15.6572
16.0785
16.5163
16.8898
17.264
17.5833
17.8891
18.1482
18.382
18.5755
18.735
18.8586
18.9428
18.9934
19.0035
18.9795
18.917
18.8195
18.6884
18.5186
18.3238
18.0852
17.8325
17.5293
17.2249
16.8625
16.5131
16.0983
15.7151
15.2624
14.8493
14.3466
13.8899
11.4796
12.0295
12.5502
13.0672
13.5662
14.0524
14.5251
14.9805
15.4174
15.8332
16.228
16.5973
16.9425
17.2583
17.5464
17.8021
18.0267
18.2168
18.3727
18.4934
18.5774
18.626
18.6382
18.6141
18.5549
18.4614
18.3344
18.1746
17.985
17.7651
17.5187
17.2456
16.9494
16.6305
16.2917
15.9347
15.56
15.171
14.7711
14.363
13.9313
11.6489
12.1273
12.5886
13.0531
13.5068
13.9551
14.3889
14.8123
15.2188
15.6111
15.9829
16.3358
16.6646
16.9697
17.2468
17.4959
17.7138
17.8999
18.0525
18.1709
18.254
18.3019
18.3152
18.2921
18.2355
18.146
18.0238
17.8716
17.69
17.4823
17.2486
16.9933
16.7157
16.4212
16.1081
15.7823
15.441
15.0905
14.7278
14.3652
13.9881
11.8048
12.2311
12.6451
13.0583
13.4712
13.8782
14.2774
14.6688
15.0497
15.4182
15.7713
16.1071
16.4227
16.716
16.9844
17.226
17.4385
17.6203
17.77
17.8864
17.9683
18.0163
18.0301
18.0084
17.9543
17.8686
17.7518
17.6059
17.4332
17.2356
17.0152
16.7746
16.5158
16.2416
15.9535
15.6544
15.3455
15.0298
14.7057
14.3831
14.0489
11.948
12.3273
12.6945
13.0656
13.4383
13.8131
14.1831
14.5469
14.9035
15.2512
15.5868
15.9075
16.2106
16.4935
16.7536
16.9885
17.1959
17.3739
17.5207
17.6354
17.7164
17.7645
17.779
17.7586
17.7069
17.625
17.5131
17.3735
17.2087
17.0208
16.8123
16.5856
16.3433
16.0878
15.8217
15.5475
15.2669
14.9819
14.6914
14.4069
14.1101
12.0779
12.4128
12.7375
13.0737
13.4126
13.7558
14.1004
14.4425
14.778
15.1065
15.4259
15.7331
16.0249
16.2983
16.5508
16.7796
16.9824
17.1569
17.3013
17.4145
17.4948
17.543
17.5582
17.5391
17.4898
17.4115
17.3042
17.1705
17.013
16.8341
16.6364
16.4225
16.195
15.9567
15.7104
15.4582
15.2005
14.9412
14.6815
14.4289
14.1665
12.1939
12.489
12.7791
13.0834
13.3928
13.709
14.0286
14.3498
14.6689
14.981
15.2856
15.5803
15.8619
16.127
16.3727
16.5962
16.7948
16.9663
17.1086
17.2205
17.3003
17.3488
17.3648
17.3468
17.2997
17.2247
17.1218
16.9935
16.8427
16.672
16.484
16.2816
16.0676
15.845
15.6161
15.3818
15.1456
14.9112
14.6779
14.4532
14.221
12.2968
12.5593
12.8187
13.0945
13.3775
13.6695
13.9672
14.2686
14.571
14.8707
15.1628
15.4463
15.7189
15.9768
16.2167
16.4356
16.6306
16.7995
16.9401
17.0509
17.1304
17.1792
17.1959
17.1793
17.1342
17.0622
16.9631
16.8398
16.695
16.5316
16.3522
16.16
15.9583
15.7495
15.5347
15.318
15.102
14.8893
14.6797
14.4798
14.2751
12.3902
12.6232
12.8552
13.1053
13.3648
13.635
13.9131
14.1971
14.4841
14.7715
15.0548
15.3292
15.5938
15.8455
16.0804
16.2953
16.4874
16.6542
16.7934
16.9034
16.9828
17.0319
17.0491
17.0342
16.9909
16.9215
16.8258
16.7068
16.5674
16.4103
16.2386
16.0557
15.8645
15.6664
15.4654
15.2649
15.0666
14.8733
14.6849
14.5074
14.3273
12.4725
12.6792
12.8867
13.1142
13.3536
13.6053
13.8666
14.1354
14.409
14.6846
14.959
15.2272
15.4849
15.7307
15.9612
16.173
16.3629
16.5282
16.6666
16.7762
16.8557
16.9051
16.9229
16.9095
16.8677
16.8004
16.7076
16.5922
16.4573
16.3058
16.1413
15.9666
15.7837
15.596
15.4077
15.2211
15.0382
14.8619
14.6918
14.5343
14.376
12.5429
12.7263
12.9118
13.1194
13.3419
13.5778
13.8247
14.0804
14.3424
14.6079
14.8736
15.1362
15.389
15.6298
15.8568
16.0666
16.2554
16.42
16.5582
16.6678
16.7476
16.7974
16.8158
16.8037
16.7631
16.6972
16.6064
16.4937
16.3624
16.2157
16.0574
15.8895
15.714
15.5362
15.3587
15.1842
15.0148
14.853
14.6988
14.559
14.4201
12.6006
12.7634
12.9294
13.1197
13.3252
13.5459
13.7793
14.0235
14.2759
14.5335
14.7926
15.0499
15.3016
15.541
15.7667
15.9757
16.1641
16.3287
16.467
16.577
16.6573
16.7075
16.7264
16.7154
16.6757
16.6107
16.5213
16.4105
16.2816
16.1382
15.9834
15.819
15.6506
15.4807
15.3125
15.1488
14.9918
14.8434
14.7041
14.5801
14.4582
12.6441
12.7892
12.9396
13.114
13.3053
13.513
13.7352
13.9696
14.214
14.4653
14.7196
14.9733
15.2232
15.4653
15.6921
15.9008
16.0887
16.2532
16.3919
16.5025
16.5833
16.634
16.6534
16.6432
16.6042
16.5398
16.4516
16.3425
16.2156
16.0734
15.9188
15.758
15.5948
15.4312
15.2709
15.1164
14.9699
14.833
14.707
14.5956
14.4887
12.6729
12.8023
12.9439
13.1082
13.2907
13.4898
13.704
13.931
14.1676
14.4132
14.6635
14.9146
15.1632
15.4037
15.63
15.8385
16.0266
16.1917
16.3313
16.4427
16.5243
16.5754
16.5954
16.5857
16.547
16.4828
16.3952
16.2873
16.1616
16.0207
15.8695
15.7117
15.5525
15.3942
15.2409
15.0934
14.9542
14.8249
14.7078
14.604
14.5103
12.6923
12.804
12.9361
13.0885
13.2608
13.4512
13.6585
13.881
14.113
14.3552
14.603
14.853
15.1005
15.3399
15.5682
15.7803
15.9727
16.1415
16.2837
16.397
16.48
16.5318
16.552
16.542
16.5027
16.4372
16.3477
16.2375
16.1102
15.9704
15.8204
15.6654
15.5087
15.3544
15.2057
15.0632
14.9307
14.8096
14.7018
14.6066
14.5278
12.7175
12.8002
12.9082
13.0405
13.1971
13.376
13.5755
13.7933
14.0287
14.2716
14.5203
14.7722
15.0218
15.2664
15.5036
15.7246
15.9259
16.1024
16.2496
16.3666
16.452
16.5048
16.5248
16.5132
16.4716
16.4024
16.3075
16.1907
16.0574
15.9131
15.7601
15.6058
15.4491
15.2968
15.1479
15.0107
14.8867
14.7779
14.6863
14.6108
14.5547
12.7595
12.807
12.8967
13.0176
13.1662
13.3397
13.5348
13.7476
13.9767
14.219
14.4706
14.7258
14.9809
15.2312
15.47
15.6951
15.8994
16.0795
16.232
16.3533
16.4411
16.4948
16.5143
16.5008
16.4558
16.3822
16.2843
16.1656
16.0302
15.8822
15.7286
15.5699
15.4134
15.2605
15.1172
14.9849
14.8657
14.7632
14.6805
14.6214
14.6
-2.87072
-3.15254
-3.64188
-4.48638
-5.17361
-5.93588
-6.66433
-7.44707
-8.25173
-9.10009
-9.98764
-10.9721
-12.1217
-13.424
-14.862
-16.3355
-17.8887
-3.45197
-4.31236
-4.69286
-5.54166
-6.15438
-6.90436
-7.59634
-8.34498
-9.1066
-9.9053
-10.7408
-11.6848
-12.7728
-13.9675
-15.2547
-16.5224
-17.7349
-4.40848
-5.43408
-5.77769
-6.56999
-7.14496
-7.84351
-8.4959
-9.19521
-9.9075
-10.647
-11.4284
-12.3292
-13.322
-14.3838
-15.4811
-16.595
-17.8291
-5.4865
-6.48987
-6.84015
-7.5712
-8.12197
-8.76508
-9.3763
-10.0184
-10.6711
-11.3452
-12.0739
-12.9086
-13.7921
-14.7103
-15.5963
-16.4479
-17.3701
-6.60449
-7.55683
-7.90415
-8.55335
-9.0684
-9.64689
-10.2058
-10.7821
-11.3676
-11.978
-12.6599
-13.4069
-14.1813
-14.9597
-15.6805
-16.3396
-16.9995
-7.75314
-8.58064
-8.92748
-9.49705
-9.96596
-10.472
-10.9691
-11.4742
-11.9923
-12.5475
-13.1738
-13.8175
-14.4572
-15.0538
-15.6054
-16.1748
-16.8385
-8.85155
-9.5792
-9.8998
-10.3785
-10.7937
-11.2225
-11.6511
-12.0863
-12.5467
-13.0591
-13.5944
-14.1151
-14.5957
-15.0188
-15.4217
-15.8228
-16.2865
-9.91778
-10.5
-10.7933
-11.1747
-11.5281
-11.8826
-12.2442
-12.6222
-13.0366
-13.4702
-13.8826
-14.2517
-14.5806
-14.9036
-15.2131
-15.4965
-15.7956
-10.9003
-11.3304
-11.5831
-11.873
-12.1573
-12.4401
-12.7401
-13.0705
-13.4034
-13.7089
-13.9691
-14.2101
-14.4505
-14.6858
-14.9286
-15.1955
-15.549
-11.7466
-12.0293
-12.2291
-12.4304
-12.6494
-12.873
-13.1194
-13.3484
-13.5455
-13.7193
-13.8877
-14.0512
-14.22
-14.3903
-14.5446
-14.7081
-14.9477
-12.3991
-12.5479
-12.6925
-12.8151
-12.9765
-13.1313
-13.2617
-13.3779
-13.4866
-13.5931
-13.7063
-13.8254
-13.9478
-14.063
-14.1551
-14.2257
-14.3377
-12.8118
-12.8496
-12.947
-13.0188
-13.0809
-13.141
-13.1957
-13.2595
-13.3255
-13.3951
-13.4661
-13.5373
-13.6097
-13.6808
-13.7448
-13.826
-14.0151
-12.9773
-12.9675
-12.9847
-12.9962
-13.0082
-13.0264
-13.0412
-13.0615
-13.0806
-13.1029
-13.1251
-13.1473
-13.1696
-13.1912
-13.2021
-13.2261
-13.3282
-12.9518
-12.8657
-12.842
-12.8137
-12.7767
-12.7626
-12.7311
-12.7178
-12.6985
-12.6882
-12.6778
-12.6679
-12.6614
-12.6595
-12.627
-12.5662
-12.5805
-12.6685
-12.5394
-12.478
-12.4261
-12.348
-12.3109
-12.2493
-12.2123
-12.1705
-12.1388
-12.1081
-12.081
-12.0619
-12.0469
-12.0164
-12.0206
-12.1218
-12.1137
-11.972
-11.8787
-11.8226
-11.7165
-11.6703
-11.597
-11.5492
-11.4974
-11.4543
-11.4131
-11.3763
-11.3461
-11.3176
-11.2823
-11.2886
-11.3481
-11.2822
-11.1526
-11.0269
-10.9951
-10.8886
-10.849
-10.7819
-10.7378
-10.6904
-10.65
-10.6153
-10.5893
-10.5728
-10.5605
-10.5431
-10.5263
-10.5265
-10.1356
-10.0936
-9.97288
-9.97539
-9.88648
-9.85834
-9.80373
-9.77351
-9.74837
-9.7343
-9.73188
-9.73529
-9.74444
-9.76005
-9.78385
-9.82403
-9.91826
-8.79613
-8.82324
-8.73524
-8.75154
-8.69614
-8.69902
-8.68664
-8.69009
-8.69737
-8.7096
-8.72701
-8.74778
-8.77187
-8.79914
-8.83154
-8.8729
-8.94068
-7.31712
-7.37834
-7.3355
-7.3726
-7.37802
-7.40735
-7.43163
-7.46394
-7.50066
-7.5418
-7.58781
-7.63767
-7.69446
-7.75637
-7.81961
-7.86296
-7.88615
-5.58738
-5.73544
-5.73001
-5.82984
-5.8766
-5.95768
-6.02954
-6.10752
-6.18906
-6.27344
-6.36185
-6.45438
-6.55555
-6.66531
-6.78559
-6.91267
-7.11127
-3.72215
-3.96297
-3.98916
-4.172
-4.26084
-4.39847
-4.5267
-4.65809
-4.79417
-4.93168
-5.07192
-5.21362
-5.35693
-5.49121
-5.62912
-5.78703
-6.00552
-1.81907
-2.15081
-2.21105
-2.45291
-2.60427
-2.79123
-2.97455
-3.15745
-3.34546
-3.53579
-3.73035
-3.93051
-4.13679
-4.343
-4.55914
-4.73775
-4.83994
0.0602585
-0.358094
-0.456987
-0.739576
-0.946739
-1.17796
-1.41057
-1.64138
-1.87702
-2.11538
-2.35682
-2.60224
-2.85451
-3.11777
-3.40948
-3.70576
-4.08162
1.86512
1.3795
1.23739
0.927065
0.677034
0.408885
0.134018
-0.140044
-0.41981
-0.704537
-0.993505
-1.28647
-1.58372
-1.87963
-2.17551
-2.47325
-2.89778
3.58057
3.06401
2.87026
2.5277
2.23707
1.93678
1.62662
1.31641
1.00059
0.677881
0.348526
0.01136
-0.336544
-0.692104
-1.05801
-1.40013
-1.66374
5.1504
4.62404
4.40017
4.04331
3.71551
3.38506
3.04661
2.70798
2.36369
2.01104
1.64994
1.28013
0.900078
0.507904
0.0842902
-0.362988
-0.880046
6.54018
6.02499
5.78849
5.43361
5.09817
4.75411
4.39424
4.02921
3.65989
3.28316
2.89624
2.4975
2.08673
1.66764
1.24161
0.815312
0.234747
7.74291
7.25574
7.01771
6.67319
6.33835
5.99653
5.63605
5.26443
4.88074
4.48492
4.07973
3.66121
3.22508
2.77119
2.29889
1.82955
1.44239
8.77186
8.31945
8.08415
7.75956
7.4329
7.10033
6.74837
6.38154
6.00012
5.60278
5.18828
4.75918
4.31226
3.84579
3.34519
2.80383
2.20899
9.63658
9.22476
8.99927
8.70063
8.38899
8.07172
7.7349
7.38083
7.01067
6.62132
6.21131
5.78124
5.33028
4.85849
4.3663
3.86462
3.19218
10.3575
9.99057
9.77787
9.50689
9.21725
8.92017
8.60364
8.26894
7.91534
7.53994
7.14459
6.72554
6.28103
5.80776
5.30341
4.77938
4.32569
10.9516
10.6313
10.4341
10.1921
9.92832
9.65422
9.36164
9.04994
8.71781
8.36658
7.9912
7.59135
7.16435
6.70764
6.20987
5.65258
5.04718
11.4318
11.1599
10.9823
10.7683
10.5317
10.2844
10.0192
9.73391
9.43046
9.10542
8.75647
8.38185
7.97843
7.54402
7.07589
6.5835
5.91017
11.8135
11.5898
11.4336
11.2496
11.0445
10.8262
10.5888
10.3326
10.0582
9.76257
9.44374
9.09936
8.72596
8.31871
7.87163
7.38776
6.94728
12.1122
11.9357
11.8044
11.6502
11.4737
11.2819
11.0733
10.8485
10.6042
10.3398
10.0531
9.74202
9.40347
9.03429
8.62389
8.14672
7.61704
12.3394
12.2058
12.0973
11.9692
11.8208
11.6607
11.4847
11.2899
11.0767
10.8444
10.5912
10.3152
10.0138
9.68427
9.32254
8.93868
8.3686
12.5064
12.406
12.3265
12.2323
12.118
11.9876
11.8422
11.6797
11.4996
11.3012
11.0833
10.8441
10.582
10.2921
9.97126
9.62145
9.30803
12.6279
12.5621
12.5099
12.4488
12.3699
12.2749
12.1644
12.0375
11.8936
11.7321
11.5517
11.351
11.1294
10.8831
10.6098
10.2736
9.93975
12.7182
12.674
12.6379
12.604
12.5586
12.4971
12.4196
12.3263
12.2171
12.0921
11.9506
11.7906
11.6117
11.4127
11.1946
10.9431
10.5831
-19.7783
-20.1114
-20.1509
-19.7049
-18.7201
-16.3504
-15.0602
-17.7534
-24.3732
-33.4773
-40.7308
-47.6114
-50.3441
-48.9885
-44.6514
-37.7903
-30.6557
-24.9081
-21.4065
-18.7465
-21.2029
-21.9161
-22.3562
-22.4336
-22.1977
-21.03
-20.8834
-23.8353
-29.1776
-35.5624
-40.335
-44.7618
-46.8917
-45.897
-42.6443
-37.1689
-30.1128
-24.9331
-21.5764
-19.0258
-22.7614
-23.8809
-24.7896
-25.5099
-26.1324
-26.3103
-27.3372
-30.4154
-34.3143
-37.8705
-40.2681
-42.1583
-43.2297
-42.2938
-39.7038
-35.6029
-29.304
-25.1032
-21.6072
-19.2029
-24.47
-26.0344
-27.4821
-28.9858
-30.5373
-32.3456
-34.4888
-37.3406
-39.6804
-40.5038
-40.5454
-40.0663
-39.7267
-38.5842
-36.4069
-33.5969
-28.7179
-24.7737
-21.3657
-19.2441
-26.3121
-28.3475
-30.4343
-32.939
-35.3792
-38.8745
-41.9156
-44.1828
-44.8496
-43.2038
-41.0557
-38.4679
-36.6634
-35.0659
-33.0135
-30.8659
-27.3632
-23.7791
-20.989
-19.1837
-28.2687
-30.7762
-33.6174
-37.2939
-40.6931
-45.5504
-49.0213
-50.372
-49.3825
-45.7076
-41.6607
-37.3505
-34.2316
-32.0341
-29.9072
-27.9699
-25.5715
-22.5972
-20.7439
-19.083
-30.2996
-33.2887
-36.9585
-41.3437
-46.2834
-51.7868
-55.0158
-55.272
-52.8638
-47.7311
-42.283
-36.7047
-32.533
-29.7139
-27.3939
-25.4394
-23.8637
-21.5579
-20.4972
-18.9369
-32.3467
-35.878
-40.4447
-44.9622
-51.4655
-56.8223
-59.194
-58.3991
-54.9955
-49.0725
-42.7725
-36.4808
-31.5906
-28.232
-25.6468
-23.4861
-22.2471
-20.6042
-19.8791
-18.8379
-34.3743
-38.458
-43.4271
-48.6539
-55.5488
-59.931
-61.1849
-59.6063
-55.6983
-49.6251
-43.0159
-36.5481
-31.3302
-27.6083
-24.7653
-22.2837
-20.8503
-19.797
-19.1213
-18.7888
-36.4006
-40.9411
-45.5807
-51.8815
-57.7698
-60.789
-61.1158
-59.1273
-55.158
-49.4088
-43.0113
-36.8088
-31.6105
-27.7243
-24.7136
-21.9934
-20.2003
-19.4741
-18.6881
-18.8128
-38.3579
-42.8707
-47.7543
-54.0011
-57.982
-59.7257
-59.505
-57.4342
-53.7233
-48.5702
-42.7849
-37.1762
-32.288
-28.4807
-25.4655
-22.6722
-20.5924
-19.7882
-18.956
-18.9487
-40.098
-44.1504
-49.5113
-54.0885
-56.6017
-57.492
-56.9846
-55.0217
-51.7452
-47.3296
-42.3601
-37.5032
-33.1649
-29.6474
-26.7888
-24.1162
-21.8583
-20.6829
-19.9666
-19.2922
-41.4704
-45.5287
-49.9179
-52.7684
-54.1937
-54.6837
-54.055
-52.3024
-49.5314
-45.8943
-41.8051
-37.7515
-34.0817
-31.0039
-28.4421
-26.048
-23.8152
-22.393
-21.7398
-20.7063
-43.0831
-46.4255
-49.0317
-50.617
-51.4917
-51.781
-51.0931
-49.5898
-47.3267
-44.4272
-41.1819
-37.9406
-34.9446
-32.3671
-30.1868
-28.1841
-26.2278
-24.7548
-23.9202
-23.1058
-45.159
-46.179
-47.1849
-48.1807
-48.8388
-48.9947
-48.3342
-47.0946
-45.3001
-43.0516
-40.5512
-38.035
-35.676
-33.5965
-31.8184
-30.2269
-28.6354
-27.2051
-26.3836
-26.1805
-45.3716
-44.9853
-45.2157
-45.9717
-46.4463
-46.5159
-45.9335
-44.941
-43.5524
-41.8454
-39.9585
-38.0431
-36.2388
-34.606
-33.1929
-31.9714
-30.7882
-29.6038
-29.0103
-29.1412
-43.8741
-43.1804
-43.4511
-44.0741
-44.4003
-44.4418
-43.9675
-43.1868
-42.125
-40.8417
-39.4327
-37.9964
-36.6359
-35.3582
-34.2226
-33.2524
-32.3843
-31.5024
-30.9556
-31.1561
-41.613
-41.7993
-42.2187
-42.6567
-42.8682
-42.8738
-42.4682
-41.8327
-40.9982
-40.0174
-38.9561
-37.8752
-36.8463
-35.8815
-34.9634
-34.1401
-33.4321
-32.7752
-32.2391
-32.2654
-40.7099
-41.2597
-41.73
-41.9602
-42.0316
-41.8189
-41.357
-40.743
-40.0053
-39.1888
-38.345
-37.5121
-36.7093
-35.9761
-35.3341
-34.748
-34.1859
-33.6547
-33.162
-32.9731
-41.1103
-41.1175
-41.1361
-41.0233
-40.763
-40.3763
-39.8657
-39.2492
-38.5713
-37.8838
-37.2232
-36.611
-36.0586
-35.5678
-35.1391
-34.7772
-34.4732
-34.196
-33.9139
-33.668
-33.5973
-32.7647
-31.721
-29.9794
-27.1489
-24.2339
-21.8698
-20.3709
-19.3234
-18.6405
-18.1773
-17.899
-17.7451
-17.6578
-17.5841
-17.4822
-17.3435
-17.1712
-16.956
-16.6855
-33.8095
-33.133
-32.1873
-30.2327
-27.5043
-24.6411
-21.8623
-20.1531
-19.0581
-18.2018
-17.5746
-17.1215
-16.7723
-16.4847
-16.2379
-16.0102
-15.7839
-15.5458
-15.2941
-15.0136
-34.0301
-33.5464
-32.5367
-29.9209
-27.1143
-23.9598
-21.4241
-19.7777
-18.5369
-17.5519
-16.7863
-16.1833
-15.6954
-15.2898
-14.9426
-14.632
-14.3453
-14.0681
-13.8053
-13.5328
-34.1834
-33.6393
-32.5152
-29.6619
-26.6024
-23.1106
-20.8562
-19.1688
-17.8049
-16.7191
-15.8502
-15.1427
-14.559
-14.0703
-13.6538
-13.2901
-12.9701
-12.6749
-12.416
-12.1556
-34.2712
-33.501
-32.0927
-29.2211
-25.7419
-22.2791
-20.0801
-18.313
-16.8642
-15.7018
-14.7554
-13.9754
-13.3285
-12.7868
-12.3277
-11.9341
-11.5971
-11.2944
-11.0491
-10.8026
-34.314
-33.3062
-31.2501
-28.4389
-24.3274
-21.2903
-19.0607
-17.2162
-15.7206
-14.5097
-13.5125
-12.6864
-12
-11.4254
-10.9415
-10.5334
-10.1878
-9.88705
-9.66211
-9.42289
-34.3128
-33.1971
-30.4012
-27.4562
-22.7794
-20.0286
-17.819
-15.9293
-14.3942
-13.1502
-12.1242
-11.273
-10.565
-9.97358
-9.47907
-9.06533
-8.71551
-8.42799
-8.21618
-7.97163
-34.2877
-33.3172
-29.8165
-26.3599
-21.445
-18.5945
-16.3433
-14.4506
-12.8951
-11.6335
-10.5965
-9.73749
-9.02324
-8.42829
-7.93325
-7.51799
-7.17124
-6.90249
-6.67585
-6.43294
-34.2691
-33.4678
-29.1217
-24.6282
-20.0733
-17.0361
-14.6668
-12.7819
-11.2272
-9.96685
-8.93482
-8.08359
-7.3772
-6.7907
-6.30227
-5.89104
-5.55813
-5.29645
-5.03569
-4.85334
-34.3052
-33.3793
-28.0706
-22.3742
-18.3398
-15.2637
-12.7969
-10.9262
-9.39255
-8.15584
-7.14594
-6.31778
-5.63295
-5.06542
-4.5906
-4.19397
-3.88029
-3.60607
-3.33284
-3.24752
-34.3597
-32.7368
-26.7132
-20.0696
-16.2244
-13.2244
-10.7323
-8.8906
-7.39686
-6.20673
-5.23801
-4.44909
-3.79943
-3.2609
-2.80932
-2.43811
-2.13895
-1.84974
-1.61366
-1.58989
-34.3611
-31.2062
-25.1681
-17.755
-13.8346
-10.9203
-8.46435
-6.68002
-5.24916
-4.12905
-3.22262
-2.49035
-1.88981
-1.39147
-0.974967
-0.635332
-0.344132
-0.0505511
0.124504
0.113165
-34.0647
-28.5862
-23.0959
-15.3603
-11.1914
-8.35149
-5.9903
-4.30429
-2.96491
-1.93803
-1.11579
-0.457868
0.0792303
0.524837
0.894854
1.19824
1.47774
1.75741
1.87302
1.8493
-33.3002
-25.0085
-19.8726
-12.5753
-8.29606
-5.55266
-3.32634
-1.78018
-0.564247
0.346895
1.06458
1.63173
2.09119
2.47071