/*--------------------------------*- C++ -*----------------------------------*\
  =========                 |
  \\      /  F ield         | OpenFOAM: The Open Source CFD Toolbox
   \\    /   O peration     | Website:  https://openfoam.org
    \\  /    A nd           | Version:  6
     \\/     M anipulation  |
\*---------------------------------------------------------------------------*/
FoamFile
{
    version     2.0;
    format      ascii;
    class       surfaceVectorField;
    location    "3.75";
    object      Uf;
}
// * * * * * * * * * * * * * * * * * * * * * * * * * * * * * * * * * * * * * //

dimensions      [0 1 -1 0 0 0 0];

internalField   nonuniform List<vector> 
8193
(
(4.8918 -0.0275875 1.08738e-20)
(4.99289 -0.0446314 0)
(4.54465 -0.0967925 0)
(5.08035 0.03353 1.04821e-20)
(5.16269 0.0411763 -4.06108e-19)
(5.18047 0.0938203 -7.47661e-21)
(5.23735 0.111269 -1.89262e-20)
(5.24349 0.142203 -7.19343e-21)
(5.28123 0.159851 1.89961e-19)
(5.27923 0.17724 2.23254e-21)
(5.30519 0.195567 1.83489e-20)
(5.29595 0.202165 2.15153e-21)
(5.312 0.219709 -5.00673e-20)
(5.30014 0.215929 0)
(5.3084 0.231658 0)
(5.29303 0.215616 -4.57402e-21)
(5.29265 0.231234 0)
(5.27416 0.198143 -1.32685e-20)
(5.2667 0.215403 -5.94303e-21)
(5.24498 0.15984 -9.17282e-20)
(5.23008 0.181073 -5.13191e-22)
(5.21062 0.0915946 2.39144e-20)
(5.18486 0.122578 2.18762e-20)
(5.18208 -0.0199561 4.09248e-19)
(5.13921 0.0272731 -1.2393e-20)
(5.14636 -0.175182 6.11015e-19)
(5.10009 -0.11278 -2.48415e-21)
(5.00288 -0.34323 -7.32014e-20)
(5.00294 -0.275937 6.07395e-21)
(4.56231 -0.488958 -1.24419e-18)
(4.66421 -0.411818 -4.78764e-20)
(3.85012 -0.613734 1.6644e-18)
(3.96201 -0.494032 9.72504e-20)
(3.28936 -0.781676 -9.10352e-20)
(3.22172 -0.587412 2.49086e-19)
(3.22564 -1.06002 -3.16419e-19)
(2.94774 -0.797932 2.08297e-19)
(3.46729 -1.43537 1.5491e-20)
(3.14001 -1.14419 1.30603e-20)
(3.68962 -1.81286 -7.68445e-21)
(3.37918 -1.55113 2.05694e-19)
(3.84873 -2.11783 2.551e-20)
(3.566 -1.92427 2.57463e-21)
(4.01818 -2.32126 1.10862e-20)
(3.76235 -2.22115 8.76861e-20)
(4.2478 -2.42512 4.44078e-20)
(4.00264 -2.42066 0)
(4.53696 -2.43039 -8.1733e-19)
(4.31427 -2.50101 -5.54709e-20)
(4.84329 -2.34299 -1.10799e-19)
(4.67931 -2.48661 1.49765e-19)
(5.12701 -2.17322 1.94544e-18)
(5.04732 -2.40996 -2.45387e-19)
(5.36451 -1.94908 1.71558e-19)
(5.36993 -2.24326 -2.39872e-19)
(5.54227 -1.7027 -1.17334e-18)
(5.62632 -2.01836 6.46061e-20)
(5.65882 -1.4548 -2.02836e-18)
(5.8029 -1.75444 3.05476e-19)
(5.72387 -1.22785 -1.00619e-19)
(5.89854 -1.48666 -3.54465e-19)
(5.75518 -1.03171 -4.14998e-20)
(5.93 -1.24021 -1.74557e-20)
(5.76991 -0.867826 8.50852e-19)
(5.92816 -1.02755 -2.91708e-20)
(5.77483 -0.732036 8.21389e-19)
(5.91366 -0.851543 6.0294e-21)
(5.77151 -0.617106 3.4714e-20)
(5.89731 -0.709204 3.15302e-20)
(5.7586 -0.515504 3.19623e-22)
(5.88153 -0.593912 -7.52739e-22)
(5.7337 -0.420083 9.15138e-22)
(5.8628 -0.494689 -1.36278e-20)
(5.69562 -0.324861 6.13419e-22)
(5.83706 -0.402796 1.6564e-21)
(5.64308 -0.22412 -1.10099e-19)
(5.8051 -0.31722 -7.3177e-20)
(5.55572 -0.115877 4.50982e-19)
(5.77088 -0.22885 3.50196e-20)
(5.35533 -0.0136688 1.12274e-19)
(5.70615 -0.114697 -3.51455e-20)
(5.51344 0.0158639 5.46147e-20)
(4.94738 0.0885923 5.91994e-21)
(5.21152 0.0646328 -1.06924e-20)
(5.18954 0.0425174 3.01393e-20)
(5.06051 -0.0580169 0)
(5.26658 0.132317 -2.92734e-20)
(5.2542 0.131744 5.92431e-20)
(5.29944 0.185362 -4.00912e-20)
(5.30015 0.190845 -1.50966e-19)
(5.3179 0.221046 -6.14017e-21)
(5.31966 0.225176 -5.50447e-21)
(5.32114 0.242118 1.13122e-20)
(5.32235 0.247834 1.79446e-20)
(5.31485 0.251662 -6.05747e-21)
(5.31486 0.259707 -1.52807e-20)
(5.29653 0.248763 0)
(5.29597 0.258949 0)
(5.26533 0.231774 -1.47399e-21)
(5.26488 0.245633 -3.16378e-22)
(5.22316 0.197074 -7.14251e-20)
(5.22457 0.216783 -1.50528e-20)
(5.17143 0.140208 1.37387e-20)
(5.17379 0.169292 1.5993e-20)
(5.11524 0.0516465 1.11651e-19)
(5.11426 0.0968565 1.39615e-20)
(5.05885 -0.0767254 -2.91784e-19)
(5.05334 -0.0116004 -2.89641e-20)
(4.96254 -0.230415 -3.43997e-19)
(4.98518 -0.155695 -7.5414e-20)
(4.69229 -0.364467 3.13305e-20)
(4.82263 -0.303463 9.57928e-20)
(4.1216 -0.448663 0)
(4.40011 -0.393152 0)
(3.40918 -0.509522 1.43502e-20)
(3.68572 -0.416016 1.12567e-19)
(2.95053 -0.637614 2.63129e-20)
(3.01074 -0.460384 -1.42056e-19)
(2.92796 -0.888644 9.4313e-21)
(2.78004 -0.64419 1.64252e-20)
(3.11723 -1.2616 -3.14559e-20)
(2.92152 -0.963323 1.25871e-20)
(3.31487 -1.65634 5.68257e-21)
(3.11707 -1.34678 2.12246e-20)
(3.5202 -2.01881 -9.7917e-21)
(3.29315 -1.72321 -2.95253e-21)
(3.77088 -2.31161 -1.29182e-20)
(3.50837 -2.06017 -1.02311e-19)
(4.08446 -2.50424 -9.73216e-20)
(3.79299 -2.33573 1.24392e-19)
(4.46436 -2.60393 8.73744e-20)
(4.14463 -2.51601 1.83121e-19)
(4.87217 -2.6167 -1.69909e-18)
(4.55398 -2.58502 -3.39659e-19)
(5.26233 -2.54394 -1.81201e-18)
(4.98654 -2.58758 -3.38754e-19)
(5.60228 -2.37207 -1.75699e-19)
(5.40824 -2.47803 6.47254e-19)
(5.8582 -2.11875 2.60587e-19)
(5.77517 -2.29523 0)
(6.01388 -1.82549 -1.7797e-18)
(6.03963 -2.04285 1.3117e-19)
(6.0784 -1.5304 -2.72259e-19)
(6.18633 -1.75025 2.52402e-19)
(6.08013 -1.26078 -5.2358e-21)
(6.22777 -1.45762 -4.39942e-19)
(6.05201 -1.03167 1.23838e-20)
(6.2009 -1.19058 -2.26906e-19)
(6.01681 -0.846181 -3.17424e-21)
(6.14318 -0.963467 2.3089e-19)
(5.98561 -0.700712 -3.22136e-21)
(6.07961 -0.780033 -3.33365e-20)
(5.96001 -0.58583 -3.15029e-22)
(6.02565 -0.639078 -1.91597e-23)
(5.9357 -0.490116 3.31047e-20)
(5.9841 -0.529491 1.9545e-22)
(5.90744 -0.405397 -2.79506e-19)
(5.94781 -0.437135 6.25024e-20)
(5.87528 -0.322699 -3.74904e-19)
(5.91442 -0.360895 -7.54146e-20)
(5.84513 -0.232869 3.87204e-20)
(5.88349 -0.291632 5.13589e-20)
(5.7982 -0.129197 5.07044e-20)
(5.84044 -0.194269 -4.33898e-20)
(5.77973 -0.0726986 -1.32209e-19)
(5.64481 0.0455908 4.39137e-18)
(5.27659 0.133791 -1.3058e-18)
(5.29515 0.120277 2.92295e-20)
(5.23867 0.0381521 1.8916e-18)
(5.30608 0.19025 5.09671e-20)
(5.32003 0.18895 5.19504e-20)
(5.32418 0.227665 8.53313e-20)
(5.34191 0.234885 -1.524e-20)
(5.32894 0.253313 4.7561e-20)
(5.34218 0.260185 3.11098e-20)
(5.31983 0.266204 4.11951e-21)
(5.32598 0.274675 -1.97879e-20)
(5.29804 0.267367 3.88183e-21)
(5.30221 0.278794 2.04513e-20)
(5.26463 0.255556 -3.24772e-22)
(5.26828 0.270463 1.17366e-20)
(5.22172 0.229224 -1.4286e-20)
(5.22392 0.248578 1.75508e-20)
(5.16824 0.185742 -1.86331e-19)
(5.16954 0.211617 -1.36291e-20)
(5.1048 0.120487 1.36779e-20)
(5.10402 0.156491 -4.19241e-20)
(5.03551 0.0252014 2.57094e-21)
(5.02922 0.0769196 6.36666e-20)
(4.95651 -0.103604 -6.24077e-20)
(4.94943 -0.0346098 -6.30425e-20)
(4.81609 -0.245521 -5.04364e-19)
(4.84577 -0.17205 1.05324e-20)
(4.49124 -0.35182 6.42478e-20)
(4.62001 -0.301216 6.46179e-20)
(3.90776 -0.391446 1.12152e-19)
(4.13743 -0.338586 -7.40632e-20)
(3.23363 -0.402039 9.14531e-19)
(3.43101 -0.31162 1.11923e-19)
(2.81172 -0.480214 -1.98575e-19)
(2.81936 -0.311111 -8.44673e-20)
(2.76465 -0.71445 1.95236e-20)
(2.59295 -0.460786 2.86649e-19)
(2.90841 -1.05486 3.46064e-20)
(2.68299 -0.739378 -2.81513e-19)
(3.07492 -1.41358 1.85052e-20)
(2.836 -1.07585 6.32941e-20)
(3.26449 -1.76127 -9.31777e-20)
(2.98538 -1.41828 -5.57157e-21)
(3.5159 -2.07622 3.1513e-20)
(3.1891 -1.74198 -3.8081e-20)
(3.84349 -2.33734 5.07556e-19)
(3.47759 -2.03604 -6.8114e-20)
(4.2437 -2.5182 -1.73795e-19)
(3.85834 -2.27621 4.45115e-19)
(4.70283 -2.60799 -1.27487e-19)
(4.31081 -2.42316 -4.39419e-19)
(5.18244 -2.58425 2.22571e-18)
(4.82051 -2.47137 -2.92698e-19)
(5.62668 -2.46185 6.17577e-19)
(5.33674 -2.41926 4.46617e-19)
(5.98974 -2.26903 -1.26035e-19)
(5.80541 -2.3147 0)
(6.24016 -2.00817 3.64607e-19)
(6.19637 -2.12434 -4.16887e-20)
(6.36075 -1.71028 -1.54084e-18)
(6.45579 -1.87052 3.19499e-19)
(6.37097 -1.41346 -6.57106e-19)
(6.56314 -1.58514 1.95628e-19)
(6.31366 -1.14401 9.77286e-19)
(6.54922 -1.30141 -1.04383e-18)
(6.22818 -0.915573 2.21606e-19)
(6.46391 -1.04365 2.88943e-19)
(6.1433 -0.733955 -1.0293e-20)
(6.34619 -0.825784 6.82124e-20)
(6.07491 -0.596143 4.9401e-22)
(6.23015 -0.656101 1.81957e-19)
(6.02389 -0.490222 3.62097e-22)
(6.13943 -0.529572 -1.7892e-19)
(5.98298 -0.404432 -1.3791e-22)
(6.07237 -0.430308 -7.4015e-21)
(5.94489 -0.329467 6.12167e-21)
(6.02367 -0.35377 3.99274e-21)
(5.91013 -0.258553 6.17074e-20)
(5.98401 -0.293201 -2.21654e-20)
(5.88483 -0.181949 -1.31132e-18)
(5.93774 -0.217102 5.66181e-20)
(5.90821 -0.137784 2.35341e-20)
(5.86604 -0.0666518 1.8443e-18)
(5.34885 0.194054 2.07212e-20)
(5.36189 0.185359 0)
(5.33587 0.128141 1.61386e-19)
(5.35598 0.239119 1.96135e-20)
(5.36293 0.237865 -1.50404e-20)
(5.35039 0.268019 -1.78184e-20)
(5.36212 0.273791 0)
(5.3339 0.284697 -3.70227e-20)
(5.34487 0.291956 8.22749e-20)
(5.30712 0.289811 -8.42762e-20)
(5.31296 0.299293 -3.18063e-20)
(5.2698 0.282465 2.38729e-20)
(5.27394 0.29631 -1.4807e-20)
(5.22287 0.262417 7.79922e-20)
(5.22633 0.280897 1.11314e-20)
(5.16555 0.228165 4.00679e-21)
(5.16798 0.251919 3.24306e-20)
(5.09656 0.177083 -5.84107e-20)
(5.09852 0.208129 -3.78022e-20)
(5.01689 0.104864 -3.4403e-19)
(5.01751 0.146948 -5.7465e-20)
(4.92843 0.00568063 -6.17601e-21)
(4.92629 0.0633871 6.4126e-20)
(4.8187 -0.11923 -3.62571e-19)
(4.82378 -0.0458205 -8.43981e-20)
(4.62817 -0.246342 7.44986e-20)
(4.67917 -0.170394 7.5903e-20)
(4.24571 -0.311165 -7.46632e-20)
(4.40094 -0.264187 -8.16648e-20)
(3.64295 -0.291692 -7.382e-20)
(3.88723 -0.252957 -2.33617e-19)
(3.01051 -0.249007 6.99484e-20)
(3.20977 -0.176709 3.49657e-19)
(2.62198 -0.291032 1.13617e-19)
(2.64446 -0.12955 -2.37511e-19)
(2.54823 -0.479024 2.77451e-20)
(2.40254 -0.224157 9.03281e-20)
(2.63395 -0.76415 -3.09143e-20)
(2.4331 -0.438216 -1.60269e-20)
(2.75478 -1.08012 -1.48937e-20)
(2.5323 -0.70818 -1.45597e-20)
(2.91725 -1.39233 9.46282e-20)
(2.64671 -0.99218 -3.29819e-20)
(3.15763 -1.69265 -8.67276e-20)
(2.81582 -1.26908 -2.22296e-19)
(3.49467 -1.96345 -1.15978e-19)
(3.07662 -1.53115 7.46864e-20)
(3.92787 -2.17902 1.75531e-19)
(3.44926 -1.75859 -6.9289e-20)
(4.43829 -2.31156 0)
(3.92727 -1.92661 -6.56555e-21)
(4.99575 -2.36532 -1.79244e-19)
(4.47257 -2.02044 -1.96761e-18)
(5.54632 -2.33785 -1.84018e-19)
(5.05918 -2.05027 3.69527e-19)
(6.03974 -2.22095 1.32283e-19)
(5.64182 -2.02912 5.05884e-19)
(6.42804 -2.02566 -3.35339e-20)
(6.17558 -1.93921 -1.59133e-18)
(6.66307 -1.77458 4.4457e-19)
(6.59105 -1.77605 1.47587e-18)
(6.73978 -1.49529 -6.73086e-19)
(6.83405 -1.55352 -2.12544e-18)
(6.69515 -1.21958 -7.59473e-19)
(6.8999 -1.30298 2.80762e-19)
(6.57687 -0.97012 5.6816e-20)
(6.8374 -1.05288 -6.03054e-19)
(6.4289 -0.762156 2.18313e-19)
(6.69387 -0.828674 6.23433e-19)
(6.29246 -0.602278 -3.24152e-19)
(6.51411 -0.64662 1.81243e-19)
(6.18919 -0.48396 -1.80885e-19)
(6.35106 -0.510075 -1.78008e-19)
(6.11612 -0.394131 2.40772e-21)
(6.22867 -0.407858 -1.59501e-21)
(6.0615 -0.322598 -9.52842e-21)
(6.14491 -0.33245 -1.47396e-21)
(6.01692 -0.261413 -1.36927e-20)
(6.08524 -0.276922 -4.87885e-21)
(5.98192 -0.20211 0)
(6.0281 -0.213456 0)
(5.99762 -0.159888 1.53186e-20)
(5.96082 -0.131686 -9.58224e-21)
(5.38697 0.240712 -8.09528e-20)
(5.40083 0.234056 -8.32739e-20)
(5.39498 0.189129 0)
(5.37313 0.276627 -7.62122e-20)
(5.38312 0.275971 6.07226e-20)
(5.35065 0.298435 1.77073e-20)
(5.36456 0.304374 0)
(5.31837 0.308531 3.89338e-21)
(5.33147 0.317782 8.26388e-20)
(5.27721 0.307605 -1.38989e-20)
(5.28553 0.320448 3.61986e-20)
(5.22623 0.294416 -2.63618e-21)
(5.23194 0.312511 -3.89076e-20)
(5.1649 0.268228 2.88873e-20)
(5.1698 0.291845 -2.28464e-20)
(5.09246 0.227835 1.43825e-19)
(5.09658 0.257436 -2.20606e-20)
(5.00824 0.171523 -4.06147e-20)
(5.01186 0.208984 -7.70099e-20)
(4.91277 0.0964051 -4.75753e-21)
(4.91536 0.145087 2.32478e-19)
(4.80434 -0.000208661 -2.40661e-20)
(4.80674 0.062943 -1.50575e-19)
(4.66386 -0.11238 -2.19365e-20)
(4.67914 -0.0369413 -1.68103e-19)
(4.42889 -0.204957 -8.34416e-20)
(4.49731 -0.139229 1.40854e-19)
(4.01369 -0.227506 -1.83521e-19)
(4.178 -0.188404 -2.47022e-20)
(3.42648 -0.165333 -3.47709e-19)
(3.65817 -0.138969 -4.16932e-19)
(2.83985 -0.0677949 1.83287e-19)
(3.02957 -0.0173782 6.59956e-19)
(2.45666 -0.0574056 -1.95849e-19)
(2.48957 0.0820814 -2.41102e-19)
(2.33853 -0.17417 4.71381e-20)
(2.22089 0.0644573 -6.00301e-19)
(2.36577 -0.38375 0)
(2.18298 -0.0644803 0)
(2.43501 -0.623464 -3.21897e-20)
(2.22354 -0.245143 -2.55969e-20)
(2.54608 -0.866509 -3.53293e-19)
(2.29183 -0.440542 3.60335e-20)
(2.73934 -1.1 -6.59155e-20)
(2.41787 -0.632217 -1.50229e-19)
(3.04409 -1.31675 1.47457e-19)
(2.62958 -0.816373 5.0706e-19)
(3.46824 -1.4986 -2.45696e-19)
(2.96071 -0.977011 -6.37234e-19)
(3.98825 -1.63698 -1.82007e-18)
(3.41194 -1.10988 1.17073e-18)
(4.5715 -1.7343 -1.19983e-18)
(3.94635 -1.21574 -1.05329e-18)
(5.19793 -1.79477 1.03831e-18)
(4.53672 -1.30511 6.08186e-19)
(5.81707 -1.7876 -1.92788e-18)
(5.18896 -1.35547 6.1505e-19)
(6.36768 -1.71333 2.27734e-20)
(5.8415 -1.37422 -1.61607e-18)
(6.78172 -1.57123 -1.30878e-18)
(6.42982 -1.33373 3.57619e-18)
(7.00642 -1.37247 -1.42355e-18)
(6.87657 -1.22963 -3.76957e-18)
(7.05078 -1.14309 4.97152e-19)
(7.11546 -1.07384 1.09342e-18)
(6.96223 -0.918344 -2.54822e-20)
(7.15234 -0.88691 -6.10562e-19)
(6.78266 -0.717173 5.75779e-19)
(7.05544 -0.702816 -9.8498e-20)
(6.57394 -0.557238 0)
(6.85417 -0.545656 6.35982e-19)
(6.39386 -0.441103 0)
(6.62146 -0.426077 -2.66191e-20)
(6.26306 -0.355882 -3.98937e-21)
(6.42741 -0.339311 -2.33849e-19)
(6.17174 -0.290983 3.45725e-21)
(6.29073 -0.277421 4.0823e-19)
(6.1061 -0.241034 7.59766e-21)
(6.19423 -0.233303 -1.7286e-19)
(6.06071 -0.193844 1.5515e-20)
(6.11746 -0.186497 -9.75449e-21)
(6.07624 -0.149542 1.65332e-23)
(6.0336 -0.142558 1.4114e-20)
(5.40359 0.277904 -3.81401e-19)
(5.41943 0.274582 -8.21092e-20)
(5.42586 0.238141 9.40487e-20)
(5.37497 0.307521 1.27503e-19)
(5.38727 0.309847 8.54532e-20)
(5.33774 0.325216 6.77556e-20)
(5.35307 0.333814 5.03349e-20)
(5.2909 0.331708 5.21424e-20)
(5.305 0.344793 -1.27051e-19)
(5.23487 0.326893 -5.11545e-20)
(5.24478 0.344704 -1.35722e-19)
(5.16889 0.30937 8.8364e-21)
(5.17604 0.333219 7.02773e-20)
(5.09226 0.278473 -5.23923e-20)
(5.0985 0.308604 5.92608e-22)
(5.00447 0.234036 -2.36371e-19)
(5.01012 0.270568 -6.86699e-20)
(4.90486 0.175663 -2.10203e-20)
(4.91038 0.220089 -1.27376e-20)
(4.79266 0.10235 4.0264e-19)
(4.79853 0.157335 2.51364e-19)
(4.66265 0.0144336 -2.8905e-19)
(4.67188 0.082187 -1.4415e-19)
(4.49197 -0.0772116 -2.40365e-19)
(4.51942 -0.00168029 -1.35088e-19)
(4.22365 -0.136797 2.26727e-19)
(4.30583 -0.0738972 9.37469e-20)
(3.79775 -0.117205 -2.36541e-19)
(3.96565 -0.0853036 3.10502e-19)
(3.24335 -0.00761921 -2.41015e-19)
(3.46632 0.00218428 -3.45186e-19)
(2.69387 0.13272 3.09437e-19)
(2.88671 0.161786 -1.32067e-19)
(2.3083 0.215606 -5.03041e-20)
(2.3741 0.317938 1.43486e-19)
(2.13959 0.19116 -5.05994e-20)
(2.07014 0.390544 -1.11704e-19)
(2.10845 0.0810547 -2.50947e-20)
(1.95699 0.364935 0)
(2.12938 -0.057203 4.67013e-20)
(1.93436 0.291383 -5.84953e-20)
(2.18875 -0.200762 4.13352e-19)
(1.94849 0.203349 4.35956e-20)
(2.31993 -0.342314 5.86896e-19)
(2.01855 0.120719 3.78232e-19)
(2.5572 -0.468748 -2.8411e-19)
(2.17424 0.0442202 8.7387e-19)
(2.91996 -0.581657 1.07361e-18)
(2.43628 -0.0221387 -3.63719e-19)
(3.39472 -0.690724 2.34626e-18)
(2.80905 -0.0893061 1.15755e-18)
(3.94974 -0.795863 1.58871e-18)
(3.27882 -0.161748 3.21663e-19)
(4.57586 -0.887793 1.47256e-18)
(3.82955 -0.257074 7.39872e-19)
(5.25983 -0.965922 1.36369e-18)
(4.45992 -0.351005 -1.9635e-19)
(5.94626 -1.01089 2.43389e-18)
(5.15435 -0.444266 6.33146e-19)
(6.56236 -1.00564 4.70914e-19)
(5.8646 -0.518135 2.81044e-19)
(7.01387 -0.943342 -9.38841e-19)
(6.51624 -0.553104 2.9572e-19)
(7.23198 -0.826411 1.6308e-19)
(7.01446 -0.538467 1.58509e-19)
(7.25399 -0.673963 -6.49315e-19)
(7.26506 -0.475915 0)
(7.13927 -0.531221 -7.75008e-20)
(7.27919 -0.384106 -1.71562e-18)
(6.91324 -0.410953 6.12862e-19)
(7.15098 -0.294271 1.50475e-18)
(6.66382 -0.323806 -2.57972e-19)
(6.90822 -0.228829 -1.2701e-19)
(6.45887 -0.26288 1.30073e-20)
(6.65628 -0.187246 -2.56687e-19)
(6.31388 -0.221128 2.72797e-19)
(6.45444 -0.162279 6.64322e-19)
(6.21336 -0.190675 -1.92503e-19)
(6.31179 -0.145872 -4.24374e-19)
(6.14495 -0.159555 -2.51353e-20)
(6.21082 -0.126324 -3.1354e-20)
(6.15417 -0.110295 3.08224e-19)
(6.10284 -0.123603 -1.39977e-20)
(5.40517 0.312823 -4.72758e-20)
(5.42423 0.315194 -1.82912e-19)
(5.43983 0.279784 -6.86565e-20)
(5.36339 0.339466 -4.94594e-20)
(5.38007 0.34659 -4.56835e-20)
(5.31185 0.35526 3.80546e-20)
(5.33044 0.368612 1.11978e-20)
(5.2502 0.35982 -2.7011e-20)
(5.26706 0.378698 3.30508e-20)
(5.17874 0.3525 -2.78244e-20)
(5.19156 0.377184 -1.38527e-19)
(5.09708 0.331947 2.46117e-21)
(5.10669 0.363397 -2.40251e-20)
(5.00507 0.298171 -1.84659e-20)
(5.01336 0.336346 8.7138e-20)
(4.90237 0.252283 -1.35498e-21)
(4.91015 0.29693 -2.16711e-19)
(4.78799 0.195493 2.57432e-20)
(4.79621 0.247483 -1.84592e-20)
(4.65934 0.129066 1.86584e-20)
(4.66974 0.190175 1.75689e-19)
(4.50852 0.0563715 2.53378e-20)
(4.52576 0.127725 8.32509e-21)
(4.31235 -0.00857001 -3.4589e-20)
(4.35151 0.0664908 -1.26265e-19)
(4.02553 -0.0326891 1.82867e-19)
(4.1163 0.0270925 1.77608e-19)
(3.61226 0.0230977 4.52074e-19)
(3.77506 0.0507223 4.67608e-19)
(3.1036 0.168446 -2.86474e-19)
(3.31606 0.167398 1.16322e-19)
(2.59444 0.352791 -1.91479e-19)
(2.79084 0.357032 -5.74671e-19)
(2.20424 0.51215 5.24437e-20)
(2.3139 0.56427 -5.21004e-19)
(1.9832 0.591384 -6.15247e-20)
(1.97796 0.72475 -6.0982e-20)
(1.89231 0.599772 -3.28424e-20)
(1.79245 0.81048 -1.36398e-19)
(1.86827 0.580266 -4.964e-20)
(1.70209 0.853619 -2.37737e-19)
(1.88552 0.559184 7.97501e-21)
(1.66073 0.880964 -2.21054e-20)
(1.95714 0.537796 -5.61712e-19)
(1.66943 0.913765 -3.3431e-19)
(2.10812 0.512998 1.12127e-19)
(1.75037 0.953537 -4.7362e-19)
(2.36106 0.481707 -7.16858e-20)
(1.92362 0.996839 2.01153e-18)
(2.72341 0.43621 -1.76187e-18)
(2.19367 1.02287 -1.67545e-18)
(3.18589 0.366783 -9.23905e-19)
(2.55591 1.01374 -7.95419e-19)
(3.74228 0.271198 -8.68495e-19)
(3.00517 0.952884 -1.84176e-18)
(4.39436 0.15314 -8.99034e-19)
(3.55031 0.849164 1.15211e-18)
(5.12098 0.0281061 -2.10056e-18)
(4.20016 0.711738 1.72953e-18)
(5.87151 -0.0832913 -4.72611e-19)
(4.93381 0.55714 -5.23695e-18)
(6.5726 -0.165173 1.35967e-18)
(5.68893 0.403167 2.08171e-18)
(7.09923 -0.201846 0)
(6.40667 0.277141 3.75117e-18)
(7.33664 -0.193508 -1.03813e-18)
(6.96839 0.19355 -3.68383e-19)
(7.3341 -0.149217 -5.7029e-21)
(7.24985 0.151295 -4.20026e-18)
(7.18131 -0.103784 9.08672e-19)
(7.2727 0.129776 2.48123e-18)
(6.93419 -0.0865344 3.87163e-21)
(7.09268 0.106712 -1.24605e-18)
(6.67865 -0.0813054 2.24498e-19)
(6.85079 0.0762732 2.72038e-19)
(6.47479 -0.0848292 1.69586e-19)
(6.60874 0.0405447 2.50113e-19)
(6.3304 -0.0890135 -2.38321e-19)
(6.4243 0.0088809 -6.97354e-19)
(6.23224 -0.0846131 3.30533e-19)
(6.29977 -0.0144858 3.06952e-20)
(6.22399 -0.0326245 7.02893e-19)
(6.17244 -0.071285 -8.60852e-19)
(5.39765 0.354565 -1.76066e-19)
(5.42045 0.363927 4.1215e-20)
(5.44372 0.325409 -3.03237e-19)
(5.34211 0.379249 -4.04192e-20)
(5.36388 0.393317 -7.8454e-21)
(5.27571 0.394535 1.46295e-20)
(5.29889 0.41513 -9.40121e-20)
(5.19815 0.398504 2.83605e-20)
(5.21906 0.425586 7.26385e-20)
(5.11021 0.389954 -3.12711e-22)
(5.12693 0.423771 1.08963e-19)
(5.01261 0.368054 9.12721e-20)
(5.0255 0.408954 -3.46071e-20)
(4.90555 0.333528 -5.74811e-20)
(4.91645 0.381289 1.05116e-19)
(4.78885 0.289013 -2.66243e-19)
(4.79939 0.343026 -3.1302e-19)
(4.66071 0.237645 8.78829e-21)
(4.67274 0.297938 8.30414e-20)
(4.51681 0.183127 1.36352e-19)
(4.53338 0.25046 -1.08495e-19)
(4.3479 0.131391 -1.58837e-19)
(4.37475 0.205885 1.09335e-19)
(4.13458 0.0962055 4.42973e-20)
(4.18436 0.171674 3.5324e-20)
(3.84611 0.105741 4.97485e-19)
(3.94017 0.165013 2.58103e-19)
(3.46362 0.192578 3.92819e-19)
(3.61645 0.219381 2.44643e-19)
(3.00802 0.360409 -6.71898e-20)
(3.20593 0.356999 1.11091e-19)
(2.54909 0.582033 -3.2024e-19)
(2.74904 0.566477 -3.2166e-19)
(2.16481 0.804392 -8.48473e-20)
(2.31752 0.807143 -9.12968e-20)
(1.8999 0.983053 -1.3494e-19)
(1.97068 1.03578 2.98071e-20)
(1.74534 1.11245 -3.39975e-19)
(1.72928 1.22232 -2.85157e-18)
(1.66363 1.2143 -2.04822e-19)
(1.57226 1.37743 -3.92158e-18)
(1.62894 1.31009 -3.72239e-19)
(1.47085 1.51756 -3.29897e-20)
(1.63921 1.40445 -2.03279e-19)
(1.4189 1.65888 -4.1594e-18)
(1.70285 1.496 1.23249e-18)
(1.43112 1.80961 2.29973e-18)
(1.8358 1.5641 6.38671e-19)
(1.50756 1.95383 1.22113e-18)
(2.05735 1.59648 -7.46055e-19)
(1.66036 2.06795 9.87889e-19)
(2.38262 1.57709 -1.69646e-18)
(1.88339 2.12193 1.48155e-18)
(2.81421 1.50404 -6.64768e-20)
(2.19023 2.10736 -1.05514e-18)
(3.36106 1.37624 3.50289e-18)
(2.59648 2.0161 1.38686e-19)
(4.02716 1.20758 -1.58681e-18)
(3.13214 1.85955 1.08667e-19)
(4.78719 1.0156 -1.96958e-18)
(3.79572 1.66047 -2.13064e-19)
(5.58747 0.824641 4.87905e-18)
(4.55405 1.43794 -1.55672e-18)
(6.3604 0.656933 2.27737e-18)
(5.36033 1.21387 3.01054e-18)
(6.98169 0.530143 -3.42611e-18)
(6.13162 1.00816 -6.90353e-19)
(7.29276 0.436955 -8.44969e-19)
(6.739 0.833996 -2.09392e-18)
(7.28311 0.350003 7.37105e-20)
(7.06432 0.696918 4.49011e-19)
(7.08914 0.279887 -9.87665e-19)
(7.09211 0.574361 -7.58424e-19)
(6.83872 0.208236 5.35414e-19)
(6.92512 0.45345 6.36586e-20)
(6.60009 0.139636 -4.48497e-19)
(6.69983 0.336435 0)
(6.42093 0.0831303 -6.3009e-19)
(6.49589 0.235627 -9.64644e-20)
(6.30009 0.0440969 -6.08131e-19)
(6.35304 0.154637 -3.42139e-19)
(6.26226 0.0889919 3.75936e-19)
(6.22637 0.0213751 3.97628e-19)
(5.38324 0.408863 4.56749e-20)
(5.41123 0.426878 -1.13565e-20)
(5.44178 0.381589 1.02836e-19)
(5.31325 0.433116 -3.60372e-20)
(5.34162 0.455809 2.77198e-19)
(5.23082 0.449226 -2.19187e-20)
(5.2607 0.479184 -1.07863e-19)
(5.13602 0.453759 4.1174e-20)
(5.1628 0.491411 -2.51146e-19)
(5.03083 0.445118 -3.00274e-20)
(5.05281 0.490458 -2.5882e-21)
(4.91738 0.423448 1.03e-20)
(4.93507 0.476123 -7.80691e-21)
(4.79648 0.390759 -1.51956e-19)
(4.81168 0.449997 1.65247e-19)
(4.66738 0.350913 2.17529e-20)
(4.68245 0.415747 -4.68456e-19)
(4.52736 0.308977 -1.18483e-19)
(4.54532 0.378478 3.13994e-19)
(4.37086 0.270748 -1.23396e-19)
(4.39599 0.344755 -2.49937e-19)
(4.18922 0.243332 2.34268e-19)
(4.2272 0.321271 1.30633e-19)
(3.96936 0.239018 1.33573e-19)
(4.02901 0.314822 1.40772e-19)
(3.69326 0.279104 0)
(3.78762 0.339616 -5.51534e-20)
(3.35175 0.388516 0)
(3.49293 0.421524 0)
(2.96003 0.57266 -8.63021e-20)
(3.13947 0.574359 0)
(2.56173 0.812353 -7.14911e-20)
(2.75503 0.790058 -1.08122e-20)
(2.20413 1.07371 5.59865e-20)
(2.38189 1.0438 7.99684e-19)
(1.91807 1.32579 2.7332e-19)
(2.05486 1.30874 -2.23914e-18)
(1.70916 1.55507 2.17646e-19)
(1.7909 1.56374 2.87916e-18)
(1.56181 1.76479 -6.0283e-20)
(1.58752 1.80462 -3.69565e-18)
(1.45994 1.96346 5.58785e-19)
(1.4327 2.03578 -3.20534e-20)
(1.39631 2.1564 -7.70327e-19)
(1.32731 2.26576 -1.88563e-20)
(1.371 2.3333 -1.43469e-18)
(1.27394 2.49538 -3.78659e-18)
(1.39634 2.47855 1.72197e-18)
(1.26589 2.70416 7.31577e-19)
(1.49459 2.57943 2.89424e-18)
(1.31198 2.87171 1.85087e-18)
(1.67841 2.61505 1.07083e-18)
(1.38909 2.97436 1.95063e-19)
(1.95546 2.56966 -8.03557e-19)
(1.5255 2.99367 9.15164e-19)
(2.35098 2.4487 -2.4181e-18)
(1.76328 2.91274 -1.65915e-18)
(2.88444 2.26978 1.38468e-18)
(2.1458 2.75194 -2.75426e-18)
(3.55421 2.04318 7.26414e-19)
(2.6706 2.53509 2.80324e-18)
(4.33385 1.79196 -2.46372e-18)
(3.33879 2.28292 -4.84013e-19)
(5.16714 1.53833 -8.73326e-19)
(4.12821 2.01232 -2.48231e-19)
(5.96444 1.30042 -9.27661e-20)
(4.97733 1.74542 1.71766e-18)
(6.6015 1.09404 2.99111e-19)
(5.78319 1.50093 -1.49342e-18)
(6.95824 0.920355 5.21659e-19)
(6.40923 1.28649 1.67759e-19)
(6.99355 0.757657 2.62993e-19)
(6.7485 1.08779 4.69507e-19)
(6.82866 0.591194 -4.59736e-19)
(6.77763 0.886491 -2.65163e-19)
(6.61957 0.439801 4.11652e-19)
(6.63992 0.685612 -3.49978e-19)
(6.44055 0.314316 9.71605e-19)
(6.4661 0.506728 5.63606e-19)
(6.31574 0.220561 -3.79825e-19)
(6.33155 0.364579 -3.83257e-19)
(6.25234 0.245946 2.35907e-19)
(6.23462 0.158244 -4.74243e-20)
(5.36471 0.481136 6.19488e-20)
(5.39962 0.508844 2.88261e-19)
(5.43665 0.454497 -1.13543e-19)
(5.27933 0.506619 6.27968e-20)
(5.3169 0.539459 -1.05862e-19)
(5.17906 0.525254 -6.74212e-20)
(5.21888 0.566665 2.34462e-19)
(5.06574 0.531801 -1.51146e-20)
(5.10125 0.58204 2.90015e-20)
(4.94323 0.524454 -1.43097e-20)
(4.97274 0.583119 1.52272e-19)
(4.81492 0.504813 8.37457e-20)
(4.83992 0.571073 5.805e-20)
(4.6818 0.476372 -1.95555e-19)
(4.70443 0.548955 1.40129e-19)
(4.54267 0.444218 -1.12625e-20)
(4.56569 0.521573 -1.90624e-19)
(4.39405 0.414875 1.43695e-19)
(4.42133 0.49518 -2.48477e-19)
(4.23029 0.395503 -4.40441e-21)
(4.26644 0.477552 2.11574e-19)
(4.04473 0.393267 9.98811e-21)
(4.09374 0.475227 -1.48704e-19)
(3.82884 0.417959 -5.81256e-20)
(3.89566 0.49458 1.43545e-19)
(3.5749 0.488301 -5.37929e-20)
(3.66997 0.549976 -1.30289e-20)
(3.27864 0.616405 0)
(3.40796 0.656691 -1.05193e-19)
(2.95278 0.806617 7.60851e-20)
(3.11114 0.820224 -2.43265e-20)
(2.62195 1.04803 1.31232e-19)
(2.79705 1.03355 -3.0918e-19)
(2.3122 1.32073 6.31554e-20)
(2.48905 1.28396 4.098e-20)
(2.04003 1.60577 -4.04673e-19)
(2.20652 1.55556 -1.97576e-20)
(1.81076 1.89078 -4.10165e-19)
(1.95914 1.83615 -3.05396e-18)
(1.62167 2.16896 2.97457e-20)
(1.7472 2.11751 -3.40268e-18)
(1.46716 2.43727 -5.98159e-19)
(1.56746 2.39548 0)
(1.34435 2.68995 -2.75636e-19)
(1.42442 2.66978 -3.98157e-18)
(1.25464 2.91632 9.57898e-19)
(1.3202 2.93291 -4.27242e-19)
(1.20632 3.10501 9.444e-19)
(1.24633 3.16255 9.19988e-19)
(1.19696 3.24406 -4.63271e-19)
(1.20622 3.34906 -8.65658e-19)
(1.22672 3.30412 -1.76588e-20)
(1.15716 3.45645 4.11173e-19)
(1.33069 3.2704 -7.06361e-19)
(1.13509 3.46418 7.87375e-19)
(1.54605 3.16353 -1.98349e-18)
(1.20714 3.39173 -1.38282e-18)
(1.90612 2.97888 -1.07823e-18)
(1.3982 3.22589 -1.21236e-18)
(2.42694 2.73809 1.52827e-18)
(1.74277 3.00427 -6.72903e-19)
(3.10619 2.46562 1.63497e-18)
(2.26084 2.74349 1.38917e-18)
(3.91402 2.1854 1.5992e-18)
(2.94997 2.4621 -9.80235e-19)
(4.78145 1.91715 -2.43124e-19)
(3.7738 2.18513 1.641e-18)
(5.59487 1.67004 -1.25822e-18)
(4.65433 1.9326 -5.86723e-19)
(6.21534 1.43996 9.98636e-20)
(5.46623 1.70637 7.41788e-19)
(6.54615 1.21294 1.75859e-19)
(6.06298 1.48575 -8.16776e-20)
(6.5944 0.990156 5.37033e-19)
(6.35746 1.25086 3.59556e-19)
(6.48312 0.774407 -1.74307e-18)
(6.39156 1.00357 -3.73672e-19)
(6.34367 0.584619 1.41883e-19)
(6.30015 0.769644 1.48944e-20)
(6.24003 0.430325 2.21343e-19)
(6.19705 0.579403 -3.86802e-21)
(6.14406 0.414762 3.50302e-19)
(6.17184 0.310836 -2.53344e-18)
(5.34725 0.575403 7.41144e-20)
(5.39069 0.613163 1.28427e-19)
(5.43238 0.547364 1.80148e-20)
(5.24572 0.604963 -4.93652e-20)
(5.29541 0.649026 -6.47856e-20)
(5.12504 0.628282 8.06449e-20)
(5.17736 0.683279 1.23375e-20)
(4.99168 0.638411 4.12864e-20)
(5.0386 0.70327 2.11158e-20)
(4.85257 0.634029 5.9299e-20)
(4.89243 0.707317 1.94881e-19)
(4.71169 0.618637 8.43658e-20)
(4.74721 0.699289 5.8931e-20)
(4.56935 0.596944 6.78106e-20)
(4.60256 0.683462 1.35919e-19)
(4.42404 0.575079 -4.47968e-19)
(4.45775 0.665251 1.89655e-19)
(4.27188 0.560158 -1.11822e-19)
(4.30988 0.651874 -8.36422e-19)
(4.10784 0.55957 4.99018e-20)
(4.15402 0.650676 4.70392e-19)
(3.92708 0.580545 2.48386e-20)
(3.98375 0.667602 -2.51469e-20)
(3.72515 0.635594 1.99477e-19)
(3.79853 0.711169 1.77553e-19)
(3.49594 0.732021 -5.47248e-20)
(3.59174 0.794241 -1.26334e-19)
(3.24304 0.875285 -1.91029e-21)
(3.36266 0.921376 -2.89281e-19)
(2.9771 1.06671 1.20754e-19)
(3.11602 1.09208 2.92172e-19)
(2.71109 1.30037 6.463e-20)
(2.86271 1.30093 8.24604e-20)
(2.4577 1.5652 -9.24489e-20)
(2.616 1.54071 -6.87553e-20)
(2.22516 1.84858 1.97318e-19)
(2.385 1.80193 -2.60734e-20)
(2.01549 2.14151 2.07306e-19)
(2.17576 2.07748 6.14442e-20)
(1.82669 2.43624 -4.46913e-20)
(1.98664 2.35917 -2.58844e-18)
(1.65766 2.72533 -4.9468e-21)
(1.81466 2.64058 -4.34794e-20)
(1.50792 2.99453 -7.44003e-19)
(1.65919 2.9132 -3.81095e-18)
(1.37582 3.22956 -1.59102e-18)
(1.5238 3.167 -2.29696e-18)
(1.26011 3.41752 -1.71311e-18)
(1.40182 3.37951 -8.22523e-19)
(1.15847 3.53667 -4.98529e-20)
(1.28426 3.53892 -8.50579e-19)
(1.06915 3.57541 8.7724e-19)
(1.148 3.60225 8.36366e-19)
(1.02453 3.53899 -6.22399e-19)
(1.01879 3.57834 0)
(1.06684 3.42705 -6.50372e-19)
(0.94668 3.48575 3.93541e-19)
(1.23334 3.23871 -7.54054e-19)
(0.959581 3.30273 0)
(1.56903 2.99333 -8.67282e-20)
(1.11527 3.06521 -7.49376e-19)
(2.09201 2.71828 -3.8954e-20)
(1.45793 2.79398 5.44749e-19)
(2.79225 2.44123 -2.11353e-19)
(2.00402 2.51186 -9.15412e-19)
(3.62677 2.18303 4.68774e-19)
(2.73354 2.24612 4.07065e-19)
(4.50796 1.95254 3.15683e-19)
(3.59139 2.01717 4.19583e-19)
(5.30051 1.74155 4.02213e-19)
(4.476 1.82436 1.67282e-19)
(5.86193 1.52924 -1.35792e-18)
(5.24337 1.63807 -4.97309e-19)
(6.12798 1.29649 -8.33441e-22)
(5.753 1.42963 6.11755e-20)
(6.1681 1.04302 2.45236e-18)
(5.95895 1.18916 3.11192e-19)
(6.11703 0.801396 2.27664e-21)
(5.97586 0.93967 -2.02156e-19)
(6.06756 0.605321 1.22338e-19)
(5.94453 0.725452 4.65594e-20)
(5.94884 0.544469 1.1557e-19)
(6.02685 0.450031 -2.05699e-18)
(5.33733 0.695041 1.25746e-19)
(5.39313 0.742232 2.55495e-19)
(5.43417 0.662218 5.60835e-19)
(5.21851 0.732313 0)
(5.28473 0.788032 1.23381e-19)
(5.07571 0.762592 -2.56826e-20)
(5.14195 0.832406 0)
(4.92286 0.777829 -3.41522e-20)
(4.98179 0.858725 6.61539e-20)
(4.76954 0.777881 1.77062e-20)
(4.82009 0.867275 5.77719e-20)
(4.61935 0.768849 -3.67186e-20)
(4.66634 0.865183 1.02927e-20)
(4.47106 0.756013 1.22553e-19)
(4.5154 0.857898 -9.42613e-20)
(4.32306 0.746302 -2.81885e-19)
(4.36805 0.850807 1.64451e-19)
(4.1714 0.746318 -4.11489e-20)
(4.21978 0.851905 -3.51194e-19)
(4.01267 0.763605 3.80529e-19)
(4.06749 0.866139 2.40778e-19)
(3.84383 0.807836 3.30316e-20)
(3.90879 0.900266 2.82763e-20)
(3.65898 0.885964 -3.70702e-19)
(3.7398 0.964833 5.61639e-20)
(3.45755 1.00302 -2.82942e-19)
(3.557 1.06829 5.38209e-20)
(3.24459 1.1583 -5.37382e-20)
(3.35862 1.2095 -1.91831e-19)
(3.02791 1.35091 3.9336e-20)
(3.15316 1.38476 4.14387e-19)
(2.81518 1.57626 -5.40238e-20)
(2.9472 1.58976 5.86028e-19)
(2.61215 1.82702 -5.21383e-20)
(2.74868 1.81905 -8.48912e-19)