/*--------------------------------*- C++ -*----------------------------------*\
  =========                 |
  \\      /  F ield         | OpenFOAM: The Open Source CFD Toolbox
   \\    /   O peration     | Website:  https://openfoam.org
    \\  /    A nd           | Version:  6
     \\/     M anipulation  |
\*---------------------------------------------------------------------------*/
FoamFile
{
    version     2.0;
    format      ascii;
    class       surfaceScalarField;
    location    "2.43";
    object      phi;
}
// * * * * * * * * * * * * * * * * * * * * * * * * * * * * * * * * * * * * * //

dimensions      [0 3 -1 0 0 0 0];

internalField   nonuniform List<scalar> 
8193
(
0.0770341
-0.175042
-0.0848173
0.0675398
-0.178262
0.0581954
-0.179996
0.0495173
-0.18143
0.0417603
-0.183124
0.0349833
-0.184964
0.0291809
-0.186716
0.0243504
-0.188194
0.0204667
-0.189271
0.0174564
-0.189856
0.0152135
-0.189897
0.0136296
-0.189405
0.012615
-0.188497
0.0121181
-0.187472
0.012101
-0.186869
0.0124474
-0.187305
0.0129119
-0.188722
0.0130936
-0.189855
0.0126877
-0.187771
0.0108021
-0.178279
0.00751118
-0.163575
0.00424391
-0.160135
0.00197803
-0.168801
0.000126106
-0.175232
-0.00165188
-0.175542
-0.00341076
-0.174115
-0.00526208
-0.173374
-0.00737176
-0.173505
-0.00987498
-0.173982
-0.0128692
-0.17444
-0.0164262
-0.174763
-0.0205913
-0.174925
-0.0253933
-0.174927
-0.0308492
-0.174779
-0.0369725
-0.174506
-0.0437902
-0.174176
-0.051359
-0.173912
-0.0596807
-0.173854
-0.0686043
-0.174078
-0.0775886
-0.174183
-0.172742
-0.0849944
0.0667316
-0.168366
-0.0808172
0.0519327
-0.170954
0.038221
-0.173718
0.0260912
-0.176553
0.0156844
-0.179678
0.00705978
-0.18291
0.000251529
-0.186003
-0.00474334
-0.188748
-0.00799894
-0.190959
-0.00965425
-0.192491
-0.00989892
-0.193254
-0.00894497
-0.193244
-0.00699132
-0.192604
-0.00423598
-0.191642
-0.000835608
-0.190947
0.00285458
-0.190946
0.00632159
-0.19143
0.00890626
-0.190997
0.0103035
-0.187074
0.00970705
-0.174978
0.00787344
-0.158476
0.00658888
-0.15508
0.00584153
-0.163844
0.00493711
-0.169752
0.00371172
-0.169458
0.00234432
-0.167697
0.000769316
-0.166655
-0.00111053
-0.166496
-0.00336197
-0.166731
-0.00602191
-0.167033
-0.00911215
-0.167303
-0.0126547
-0.167519
-0.0166861
-0.167669
-0.0212686
-0.167733
-0.0265013
-0.167694
-0.0325328
-0.167561
-0.0395857
-0.167369
-0.0479251
-0.167198
-0.0578765
-0.167043
-0.069636
-0.166603
-0.165896
-0.0819272
0.0472961
-0.160338
-0.0669266
0.0288535
-0.163678
0.0122497
-0.167691
-0.00210864
-0.172051
-0.0140575
-0.17676
-0.02349
-0.181599
-0.0303588
-0.186285
-0.0347136
-0.19053
-0.0366845
-0.194085
-0.0364787
-0.196744
-0.0343687
-0.198363
-0.0306636
-0.198916
-0.0256769
-0.19855
-0.0197198
-0.197584
-0.0131451
-0.196574
-0.00641079
-0.195848
-0.000268466
-0.19491
0.00446487
-0.192299
0.00728539
-0.185762
0.0080818
-0.171014
0.00793425
-0.153021
0.00867821
-0.150056
0.00941097
-0.158444
0.00950138
-0.163446
0.00901648
-0.162426
0.00818504
-0.160286
0.00700018
-0.158987
0.00541889
-0.158664
0.00343389
-0.158871
0.00106016
-0.159308
-0.00167658
-0.159892
-0.00476633
-0.160588
-0.00822856
-0.161351
-0.012129
-0.16211
-0.0165945
-0.162778
-0.021826
-0.163277
-0.0281058
-0.163541
-0.0358089
-0.163533
-0.0453959
-0.163133
-0.0572804
-0.162053
-0.160554
-0.0715941
0.0223747
-0.15235
-0.0456109
0.00137176
-0.15696
-0.0171742
-0.162313
-0.0328214
-0.168335
-0.0453485
-0.17484
-0.0546618
-0.181509
-0.0607782
-0.187975
-0.0638087
-0.193879
-0.063956
-0.1989
-0.0615059
-0.202766
-0.0568109
-0.20528
-0.0502632
-0.206388
-0.0422686
-0.206234
-0.0332266
-0.20515
-0.0237001
-0.203535
-0.0142545
-0.20172
-0.00592771
-0.198742
0.000389566
-0.193291
0.00421291
-0.183525
0.00615751
-0.166264
0.00771911
-0.147358
0.010409
-0.145104
0.0126844
-0.152779
0.0138635
-0.156514
0.0142316
-0.154644
0.014071
-0.152081
0.0134117
-0.15054
0.0122429
-0.150123
0.0105933
-0.150432
0.00851835
-0.1512
0.00607979
-0.152354
0.00331692
-0.153837
0.000233734
-0.155566
-0.00321982
-0.157411
-0.00716527
-0.159202
-0.0118095
-0.160759
-0.0174537
-0.1619
-0.0245062
-0.162453
-0.0334301
-0.162209
-0.0447048
-0.160824
-0.158447
-0.058875
-0.00757859
-0.145009
-0.0180244
-0.0302072
-0.151114
-0.0496012
-0.158087
-0.0654039
-0.165988
-0.0774618
-0.174464
-0.0857502
-0.1831
-0.0903601
-0.191442
-0.0914815
-0.199055
-0.0893947
-0.205549
-0.0844553
-0.210595
-0.0770744
-0.213955
-0.0677024
-0.215544
-0.0568173
-0.215488
-0.0449383
-0.214083
-0.0327468
-0.211572
-0.0210705
-0.208142
-0.0111815
-0.20239
-0.00381934
-0.19354
0.000796457
-0.180274
0.00378337
-0.160751
0.0071638
-0.141732
0.011717
-0.140276
0.0155924
-0.147035
0.0179324
-0.14914
0.0193043
-0.146361
0.0199866
-0.143328
0.0200223
-0.14153
0.0194201
-0.141044
0.0182252
-0.141514
0.0165252
-0.142725
0.014403
-0.1446
0.0119191
-0.147064
0.00909943
-0.149997
0.00591704
-0.153209
0.00227467
-0.156448
-0.00200991
-0.15943
-0.00721344
-0.161857
-0.0137127
-0.163427
-0.0219549
-0.163822
-0.032399
-0.162644
-0.159849
-0.0456486
-0.0415403
-0.138876
0.0148318
-0.0645663
-0.14671
-0.0836123
-0.155599
-0.0984776
-0.165549
-0.109106
-0.176099
-0.115575
-0.186736
-0.118069
-0.196927
-0.116861
-0.206174
-0.112298
-0.214033
-0.104777
-0.220142
-0.0947342
-0.224234
-0.0826591
-0.226183
-0.0691112
-0.22605
-0.0547549
-0.224031
-0.0404449
-0.220181
-0.0271066
-0.214619
-0.0162171
-0.20539
-0.00821568
-0.192758
-0.0030611
-0.175886
0.000909521
-0.154558
0.00621228
-0.13639
0.0126714
-0.135755
0.0180717
-0.14127
0.0216474
-0.141524
0.0241654
-0.137826
0.0258736
-0.134296
0.0267987
-0.132212
0.0269412
-0.131632
0.0263653
-0.132275
0.025173
-0.133969
0.0234551
-0.136632
0.0212814
-0.14017
0.0186912
-0.144429
0.0156781
-0.149169
0.0121734
-0.154064
0.00803272
-0.158737
0.00302977
-0.162783
-0.00314943
-0.165782
-0.0108963
-0.167301
-0.0206167
-0.166883
-0.164322
-0.0328273
-0.0782177
-0.134739
0.0519266
-0.100238
-0.144473
-0.117714
-0.155459
-0.130585
-0.16753
-0.138928
-0.180126
-0.142938
-0.192653
-0.14289
-0.20452
-0.139126
-0.215191
-0.132025
-0.224202
-0.121984
-0.23119
-0.109433
-0.235864
-0.094906
-0.238002
-0.0790643
-0.237543
-0.0627783
-0.234475
-0.0470765
-0.228697
-0.0327666
-0.220548
-0.0213493
-0.207379
-0.0129997
-0.19078
-0.0074489
-0.170357
-0.00242341
-0.147901
0.00488838
-0.131567
0.0131949
-0.131629
0.0199643
-0.13547
0.0248883
-0.133907
0.0287158
-0.129315
0.0316496
-0.125279
0.0336647
-0.122856
0.0347534
-0.122133
0.0349941
-0.122923
0.0344894
-0.125086
0.0333266
-0.128533
0.0315722
-0.133149
0.0292678
-0.138758
0.0264178
-0.145074
0.0229768
-0.151712
0.0188406
-0.158219
0.0138375
-0.1641
0.00772602
-0.168833
0.000199832
-0.171884
-0.00906588
-0.172734
-0.171051
-0.0204703
-0.115583
-0.133374
0.0912347
-0.135206
-0.145122
-0.149963
-0.158219
-0.159952
-0.172299
-0.165382
-0.186728
-0.166542
-0.200865
-0.163777
-0.214092
-0.157459
-0.225863
-0.147959
-0.235739
-0.135637
-0.243375
-0.120912
-0.248436
-0.104368
-0.250538
-0.0867711
-0.249437
-0.0691949
-0.244821
-0.0527374
-0.236558
-0.0379884
-0.225496
-0.0265243
-0.207995
-0.0182034
-0.187364
-0.0123097
-0.16378
-0.00609423
-0.141067
0.0031962
-0.127387
0.0130839
-0.127785
0.021152
-0.129709
0.0275321
-0.126533
0.0328458
-0.121129
0.0371941
-0.11657
0.0405051
-0.11375
0.0427536
-0.112815
0.044029
-0.113701
0.0444258
-0.116282
0.0440188
-0.120456
0.042861
-0.126091
0.0409841
-0.132989
0.0383909
-0.140831
0.0350491
-0.149189
0.0308838
-0.157549
0.0257713
-0.165346
0.019539
-0.17198
0.011971
-0.176837
0.00283484
-0.179338
-0.17905
-0.00815478
-0.150852
-0.135425
0.129825
-0.166928
-0.149158
-0.178131
-0.16415
-0.184696
-0.179914
-0.186927
-0.195786
-0.185171
-0.211109
-0.179797
-0.225267
-0.171172
-0.237743
-0.159629
-0.248142
-0.145485
-0.256147
-0.129151
-0.26134
-0.111238
-0.263136
-0.092563
-0.26109
-0.0742744
-0.254552
-0.0573915
-0.243523
-0.0426756
-0.2291
-0.0317781
-0.206754
-0.0237344
-0.182402
-0.0174678
-0.156334
-0.00999118
-0.134283
0.00105669
-0.123786
0.012179
-0.124031
0.0214874
-0.12408
0.0294879
-0.119707
0.0364251
-0.113532
0.0423689
-0.108461
0.0471687
-0.10518
0.0507901
-0.103959
0.0533253
-0.104874
0.0548566
-0.107797
0.0554398
-0.112608
0.0551076
-0.119157
0.0538719
-0.127225
0.051722
-0.13647
0.0486251
-0.14643
0.0445207
-0.156552
0.0393192
-0.166217
0.0329025
-0.174773
0.0251311
-0.181547
0.0158603
-0.185914
-0.187364
0.00491571
-0.180861
-0.141235
0.164197
-0.192737
-0.156631
-0.200057
-0.173066
-0.203121
-0.19002
-0.202268
-0.206825
-0.197862
-0.222829
-0.190263
-0.237443
-0.179808
-0.250189
-0.166795
-0.260728
-0.151511
-0.268764
-0.13435
-0.273774
-0.115888
-0.274995
-0.0968667
-0.271817
-0.0783816
-0.263233
-0.0614143
-0.249352
-0.0469749
-0.231239
-0.0370037
-0.20343
-0.0293627
-0.175916
-0.0226921
-0.148207
-0.0140223
-0.127641
-0.00164216
-0.120499
0.0103687
-0.120179
0.0209602
-0.118778
0.030649
-0.113642
0.0393375
-0.106785
0.0470162
-0.10121
0.05347
-0.0974096
0.0586664
-0.0958467
0.0626796
-0.0967146
0.0655803
-0.0998928
0.0674024
-0.105232
0.0681554
-0.112564
0.0678254
-0.121649
0.0663783
-0.132122
0.0637679
-0.143502
0.0599339
-0.155207
0.0548031
-0.166589
0.0482923
-0.176956
0.0403169
-0.185602
0.0308009
-0.191871
-0.195203
0.0196639
-0.202808
-0.150448
0.190786
-0.210474
-0.167008
-0.214123
-0.184296
-0.21405
-0.201875
-0.210586
-0.219071
-0.204075
-0.235246
-0.194849
-0.249845
-0.183214
-0.262431
-0.169458
-0.272699
-0.153841
-0.280388
-0.13673
-0.284869
-0.118562
-0.285316
-0.0998747
-0.281009
-0.0816427
-0.270506
-0.0649781
-0.253771
-0.0509556
-0.231902
-0.0419974
-0.198079
-0.0347694
-0.168048
-0.0276598
-0.139589
-0.0181312
-0.120966
-0.00501195
-0.117093
0.00768296
-0.116183
0.0195706
-0.113971
0.0309985
-0.108535
0.0414953
-0.101082
0.0509666
-0.0949996
0.0592118
-0.090685
0.0661503
-0.0887337
0.0718361
-0.0894844
0.0763249
-0.092829
0.0796275
-0.0985824
0.081732
-0.106559
0.082595
-0.116492
0.0821546
-0.127995
0.0803413
-0.140574
0.0770824
-0.153631
0.0723056
-0.1665
0.0659429
-0.178468
0.0579415
-0.188814
0.0482696
-0.196864
-0.20203
0.0369094
-0.214655
-0.162064
0.206832
-0.218786
-0.179147
-0.219469
-0.196754
-0.216985
-0.214444
-0.211636
-0.231556
-0.203742
-0.247455
-0.193609
-0.261625
-0.181523
-0.273662
-0.167785
-0.283259
-0.152622
-0.290232
-0.136362
-0.29386
-0.119206
-0.293439
-0.1014
-0.288205
-0.0838149
-0.276084
-0.0679086
-0.256447
-0.0546327
-0.230893
-0.0465626
-0.190972
-0.0396308
-0.159066
-0.0322042
-0.130517
-0.0223261
-0.11391
-0.00898879
-0.113209
0.00426664
-0.11208
0.0174051
-0.109766
0.0305631
-0.104525
0.0427986
-0.0964909
0.054082
-0.0899752
0.0641952
-0.0851966
0.0729914
-0.0828337
0.0805015
-0.0834141
0.0867586
-0.0868431
0.0917559
-0.0929051
0.0954581
-0.101392
0.0977939
-0.112005
0.0986728
-0.124338
0.0979975
-0.137883
0.0956744
-0.152036
0.0916201
-0.166122
0.0857658
-0.17942
0.0780707
-0.191206
0.0685245
-0.200801
-0.207607
0.0571503
-0.215804
-0.174574
0.211131
-0.217378
-0.19169
-0.216042
-0.209185
-0.212054
-0.226583
-0.205673
-0.243246
-0.19719
-0.258538
-0.186906
-0.27195
-0.175082
-0.283131
-0.162048
-0.291719
-0.147984
-0.297684
-0.133152
-0.300226
-0.117514
-0.298942
-0.101079
-0.293016
-0.0845964
-0.279627
-0.0699987
-0.256961
-0.0578682
-0.227956
-0.0504714
-0.182473
-0.0438287
-0.149133
-0.036336
-0.120899
-0.0265355
-0.106206
-0.0134779
-0.108509
0.000194423
-0.107882
0.0144593
-0.106193
0.029234
-0.101645
0.0431339
-0.0930784
0.0562309
-0.0862695
0.0682291
-0.0810805
0.078939
-0.0783079
0.0883677
-0.0786877
0.0965161
-0.0821296
0.10337
-0.0884126
0.108869
-0.0972887
0.112917
-0.108428
0.115398
-0.121401
0.116186
-0.13569
0.115165
-0.150683
0.112232
-0.165706
0.107306
-0.180035
0.10034
-0.192952
0.0913324
-0.203787
-0.211952
0.0803305
-0.206636
-0.186406
0.203894
-0.206755
-0.203253
-0.20442
-0.220352
-0.199858
-0.237196
-0.193315
-0.253162
-0.185026
-0.267643
-0.175312
-0.280067
-0.164391
-0.290202
-0.152638
-0.297536
-0.140136
-0.30234
-0.127024
-0.303759
-0.113261
-0.301567
-0.0987413
-0.295013
-0.0837781
-0.280848
-0.0710978
-0.254841
-0.0602001
-0.223148
-0.0535167
-0.172692
-0.0474838
-0.138083
-0.0401289
-0.110688
-0.0307469
-0.0976703
-0.0183532
-0.102764
-0.00446683
-0.103541
0.0106891
-0.103168
0.0268197
-0.0997818
0.0423551
-0.0909552
0.0572651
-0.0840137
0.0711278
-0.0784387
0.0837541
-0.0752707
0.0951134
-0.0754156
0.105215
-0.0788342
0.114018
-0.0852626
0.121442
-0.0944236
0.127371
-0.105952
0.13167
-0.119401
0.134186
-0.134228
0.134785
-0.149828
0.133331
-0.165512
0.129737
-0.180579
0.123927
-0.194296
0.115909
-0.206042
-0.215218
0.105719
-0.188175
-0.196086
0.18613
-0.187944
-0.212549
-0.185608
-0.229122
-0.181361
-0.245309
-0.175468
-0.260439
-0.16808
-0.274049
-0.159583
-0.285348
-0.150079
-0.294405
-0.140053
-0.300331
-0.129432
-0.303966
-0.118325
-0.304272
-0.106667
-0.301199
-0.0945169
-0.293866
-0.0814468
-0.279507
-0.0712574
-0.249655
-0.0613338
-0.216875
-0.0555582
-0.161585
-0.0506595
-0.125544
-0.0431952
-0.100284
-0.0347422
-0.0879459
-0.0232227
-0.095917
-0.00964678
-0.098683
0.00605592
-0.100494
0.0231953
-0.0987307
0.0402358
-0.0901289
0.0569886
-0.0833698
0.072662
-0.0773421
0.0871282
-0.0737617
0.100401
-0.0736871
0.112458
-0.0770533
0.12322
-0.0835479
0.132621
-0.0929147
0.1405
-0.104696
0.146745
-0.118494
0.151137
-0.13365
0.153578
-0.149676
0.153841
-0.165731
0.1519
-0.181296
0.147566
-0.195445
0.140955
-0.20783
-0.217598
0.131969
-0.162
-0.202423
0.159582
-0.16241
-0.218506
-0.160952
-0.234572
-0.157783
-0.250143
-0.153257
-0.264379
-0.147322
-0.277243
-0.140587
-0.28731
-0.132834
-0.295483
-0.124835
-0.2999
-0.116289
-0.302476
-0.107504
-0.30157
-0.098086
-0.297831
-0.0886481
-0.289369
-0.0775445
-0.275672
-0.0704264
-0.240967
-0.0614353
-0.209326
-0.05654
-0.14933
-0.0525182
-0.111924
-0.0451335
-0.0896482
-0.0386403
-0.0761513
-0.0278412
-0.0882698
-0.0151925
-0.0928371
0.000593301
-0.0978491
0.018342
-0.0982319
0.036532
-0.0903796
0.055039
-0.0843798
0.0723905
-0.0777837
0.0887005
-0.073904
0.103854
-0.0735808
0.117825
-0.0768494
0.13048
-0.0832955
0.141829
-0.0928171
0.151587
-0.104659
0.159808
-0.118766
0.166036
-0.13396
0.170435
-0.150364
0.172428
-0.166378
0.172365
-0.182389
0.169601
-0.196446
0.164771
-0.20945
-0.219248
0.15725
-0.130033
0.12631
-0.13182
-0.132016
-0.130505
-0.127905
-0.123831
-0.119187
-0.113392
-0.107476
-0.101158
-0.0947328
-0.0879486
-0.0812699
-0.072508
-0.0678963
-0.060298
-0.0557642
-0.0529527
-0.0474936
-0.0426894
-0.0320225
-0.0201335
-0.00476546
0.0129499
0.0319705
0.0517035
0.0704175
0.0883106
0.105179
0.120875
0.135267
0.148397
0.159841
0.169889
0.177759
0.184023
0.187608
0.1894
0.188163
0.185157
0.179038
0.24413
0.160519
0.248726
0.141659
0.247852
0.119859
0.241587
0.0971775
0.230493
0.0750359
0.215501
0.0544825
0.197651
0.0361951
0.177907
0.0203529
0.15705
0.00667647
0.135627
-0.00540106
0.113982
-0.0165973
0.0923362
-0.0275948
0.0709223
-0.0388559
0.0501639
-0.0505542
0.0308425
-0.06219
0.0145914
-0.0728034
-0.0745475
0.247398
0.141098
0.251865
0.125213
0.251135
0.106784
0.245373
0.0874423
0.235077
0.0683324
0.221
0.0503056
0.204011
0.0339715
0.184962
0.019568
0.164579
0.00697409
0.143407
-0.00417561
0.121804
-0.0144019
0.100001
-0.0242621
0.0782048
-0.0342069
0.056696
-0.0445103
0.0359918
-0.0549451
0.0167147
-0.0647027
-0.0665045
0.248746
0.122339
0.252405
0.108989
0.251603
0.0933442
0.246333
0.0768913
0.236892
0.0605219
0.223842
0.0448666
0.207884
0.0304381
0.18973
0.0174968
0.170025
0.00602172
0.149287
-0.00420786
0.127893
-0.0135551
0.106094
-0.0224476
0.0840739
-0.0312743
0.0620307
-0.0403336
0.0402887
-0.0495484
0.0192352
-0.0582026
-0.0597978
0.24572
0.103176
0.249479
0.0924488
0.248915
0.079581
0.244211
0.0657935
0.235677
0.0518889
0.223741
0.0384182
0.208943
0.0258157
0.19187
0.0143258
0.173072
0.00399009
0.153018
-0.00530783
0.132066
-0.0138078
0.110471
-0.0218226
0.0884125
-0.0296654
0.0660382
-0.037605
0.0435776
-0.0456583
0.0212304
-0.0530967
-0.0542495
0.240676
0.0847995
0.244032
0.0764191
0.243568
0.0659463
0.239383
0.0545005
0.231698
0.0427947
0.220846
0.0313003
0.20724
0.0203952
0.19134
0.0103071
0.173596
0.00110758
0.154414
-0.00725335
0.134123
-0.0149242
0.112967
-0.0221197
0.0911176
-0.0290751
0.0686972
-0.0360083
0.0458542
-0.0429646
0.0227024
-0.0491898
-0.0496707
0.231676
0.0664231
0.235445
0.0603612
0.235476
0.0523128
0.23195
0.0431369
0.225148
0.033471
0.215369
0.0237941
0.202949
0.0144683
0.188258
0.005711
0.171662
-0.00238403
0.1535
-0.00981882
0.134056
-0.0166735
0.113552
-0.0230879
0.0921515
-0.0292306
0.069969
-0.0352623
0.0470868
-0.0411959
0.0235743
-0.0462658
-0.0459635
0.220053
0.0488034
0.224038
0.0446987
0.22463
0.0388336
0.221929
0.0317542
0.21613
0.0240163
0.207483
0.0160679
0.196285
0.00824161
0.182844
0.000759303
0.167466
-0.00626134
0.15043
-0.0127831
0.131979
-0.0188347
0.112312
-0.0244988
0.091585
-0.0298902
0.0699075
-0.035117
0.0473226
-0.0401192
0.0238749
-0.0441304
-0.0430334
0.205638
0.0319804
0.21001
0.0294332
0.211339
0.0255041
0.20958
0.0204015
0.204882
0.0145052
0.197457
0.00821341
0.187543
0.00184586
0.175405
-0.00438419
0.161301
-0.0103393
0.14547
-0.015951
0.128128
-0.0212078
0.109451
-0.0261445
0.0895831
-0.0308324
0.0686359
-0.0353375
0.0466491
-0.0395217
0.0236607
-0.0426113
-0.0407774
0.188831
0.016443
0.193304
0.0149744
0.195284
0.0125289
0.194548
0.00911992
0.191072
0.00494038
0.184999
0.000231471
0.176518
-0.00472092
0.165829
-0.00970093
0.153138
-0.0145664
0.138656
-0.0192424
0.122579
-0.0236908
0.105073
-0.0279057
0.086269
-0.0319143
0.0662641
-0.0357382
0.0451457
-0.0392232
0.0229656
-0.0415527
-0.0391174
0.170655
0.00253554
0.174906
0.00172122
0.177272
0.000247173
0.177386
-0.00184315
0.175074
-0.00454309
0.170364
-0.00780194
0.163353
-0.011396
0.154188
-0.0151493
0.143035
-0.0189274
0.130056
-0.0226446
0.115416
-0.0262528
0.0992676
-0.0297284
0.0817467
-0.0330696
0.0629459
-0.0362479
0.0429569
-0.0391003
0.0218685
-0.0408003
-0.0379627
0.151687
-0.00936498
0.155342
-0.00991985
0.15758
-0.0107944
0.158134
-0.012047
0.15681
-0.0137311
0.153422
-0.015803
0.14794
-0.0181837
0.140408
-0.0207661
0.130938
-0.0234763
0.119652
-0.0262282
0.106668
-0.0289662
0.092113
-0.0316634
0.0761101
-0.0343093
0.0587683
-0.0368529
0.0401746
-0.0391018
0.0204689
-0.0402759
-0.0371927
0.132396
-0.0196003
0.135413
-0.0199069
0.137333
-0.0204115
0.13796
-0.0211263
0.13712
-0.0221213
0.134663
-0.0233732
0.130474
-0.0248319
0.124519
-0.0264655
0.116797
-0.0282284
0.107351
-0.0300705
0.0962468
-0.0319536
0.0835628
-0.033858
0.0693752
-0.0357634
0.0537666
-0.0376188
0.0368491
-0.0392555
0.0188034
-0.0399553
-0.0367201
0.114617
-0.0275771
0.116638
-0.0279146
0.117877
-0.0282724
0.118212
-0.0287496
0.117478
-0.0293645
0.115519
-0.0301041
0.112222
-0.0309543
0.1075
-0.031907
0.1013
-0.0329442
0.0935985
-0.0340432
0.0844038
-0.0351902
0.0737342
-0.0363714
0.0616077
-0.0375611
0.0480481
-0.0387085
0.0331277
-0.0396883
0.016966
-0.039824
-0.0364298
0.0960353
-0.0344513
0.0977253
-0.0346588
0.0986925
-0.0348413
0.0988477
-0.0350811
0.0981422
-0.0354355
0.0964894
-0.0358505
0.0938086
-0.0363157
0.0900317
-0.0368321
0.0850973
-0.0373853
0.0789561
-0.0379613
0.0715682
-0.0385518
0.0629023
-0.0391477
0.0529285
-0.0397205
0.0416103
-0.0402087
0.0289015
-0.040473
0.0148586
-0.039935
-0.0363665
0.0803353
-0.0394139
0.081085
-0.0395962
0.0813705
-0.0397745
0.0811268
-0.0399701
0.0802483
-0.0401981
0.078671
-0.0404443
0.076344
-0.0407098
0.0732066
-0.0409834
0.0692077
-0.0412582
0.0643031
-0.0415244
0.0584461
-0.0417684
0.0515856
-0.0419737
0.0436592
-0.0420977
0.0345876
-0.0420581
0.0242236
-0.0416448
0.0125329
-0.0403887
-0.0365768
0.0630082
-0.043867
0.063889
-0.0438695
0.0642068
-0.0438592
0.0639592
-0.0438846
0.0631558
-0.0439724
0.0617844
-0.0440853
0.0598194
-0.0442097
0.0572344
-0.0443322
0.0540044
-0.0444456
0.0501106
-0.0445446
0.0455255
-0.0446047
0.0402154
-0.0446013
0.0341294
-0.044472
0.0271726
-0.0440885
0.0191836
-0.0431711
0.0100455
-0.041293
-0.0370967
0.0477951
-0.0468529
0.0481162
-0.0468581
0.0481136
-0.0468141
0.0477618
-0.0467964
0.0470054
-0.0468017
0.0458232
-0.046826
0.0442009
-0.0468619
0.0421319
-0.0469025
0.0396049
-0.046935
0.0366053
-0.0469495
0.0331283
-0.0469299
0.0291641
-0.0468452
0.0247059
-0.0466345
0.0196977
-0.046118
0.0140226
-0.0449539
0.0075075
-0.0426569
-0.0378883
0.0309778
-0.0494051
0.0313907
-0.0492769
0.0315071
-0.0491429
0.0313242
-0.0490432
0.0308299
-0.0489652
0.0300151
-0.0489071
0.0288763
-0.0488668
0.0274146
-0.0488415
0.0256361
-0.0488223
0.0235433
-0.0487953
0.0211504
-0.048755
0.0184747
-0.0486725
0.0155366
-0.0484891
0.0123578
-0.0480251
0.00889302
-0.0468705
0.00492294
-0.0443645
-0.0389389
0.0151412
-0.0507111
0.0151406
-0.0506716
0.0150665
-0.0505879
0.0148826
-0.050507
0.0145639
-0.0504274
0.0140936
-0.0503557
0.0134589
-0.0502931
0.0126529
-0.0502424
0.011679
-0.0502047
0.010554
-0.0501789
0.00929541
-0.05016
0.00793305
-0.0501306
0.00650225
-0.0500369
0.00508801
-0.0497483
0.00372037
-0.0487992
0.00221337
-0.0463121
-0.0403368
-0.00196799
-0.051492
-0.0020523
-0.0514078
-0.002148
-0.0513535
-0.00224257
-0.0513133
-0.00232982
-0.0512791
-0.00240913
-0.0512518
-0.00248159
-0.0512307
-0.00254912
-0.0512179
-0.00261224
-0.0512155
-0.00266671
-0.0512271
-0.0026985
-0.0512573
-0.00267538
-0.0513068
-0.00253573
-0.0513509
-0.00219311
-0.0512838
-0.00149928
-0.0507012
-0.000614425
-0.0484172
-0.0421801
-0.0185849
-0.0510819
-0.0190801
-0.0511759
-0.0193798
-0.0512744
-0.019495
-0.0513682
-0.019421
-0.051465
-0.0191527
-0.051566
-0.018684
-0.0516716
-0.0180105
-0.0517822
-0.017129
-0.0518988
-0.0160367
-0.0520248
-0.0147281
-0.0521675
-0.0131887
-0.0523369
-0.0113849
-0.0525278
-0.00925592
-0.0526617
-0.00662306
-0.0524525
-0.0034408
-0.0505815
-0.0444609
-0.0362698
-0.0501297
-0.0368766
-0.0502737
-0.0372276
-0.0505006
-0.0372756
-0.0507555
-0.0369839
-0.0510365
-0.0363261
-0.0513341
-0.0352814
-0.0516435
-0.033834
-0.0519605
-0.0319728
-0.0522816
-0.0296906
-0.0526069
-0.0269829
-0.0529418
-0.0238466
-0.053295
-0.0202762
-0.0536647
-0.0162524
-0.053987
-0.0117366
-0.0539959
-0.00623155
-0.0528323
-0.0471494
-0.0537834
-0.0479298
-0.054829
-0.0483546
-0.0553847
-0.0488567
-0.0554351
-0.049382
-0.0549506
-0.0499434
-0.0539023
-0.0505307
-0.0522644
-0.051137
-0.0500162
-0.051753
-0.0471433
-0.0523705
-0.0436372
-0.0529837
-0.0394966
-0.0535925
-0.0347272
-0.0541995
-0.0293362
-0.0548028
-0.0233256
-0.0553449
-0.0166551
-0.0556036
-0.00886201
-0.0551439
-0.0501043
-0.0724525
-0.045112
-0.0736309
-0.0456884
-0.0742426
-0.0464523
-0.0742052
-0.0472965
-0.0734544
-0.048216
-0.0719436
-0.0491839
-0.0696374
-0.0501828
-0.0665106
-0.0511945
-0.062548
-0.0522022
-0.0577434
-0.0531924
-0.0521003
-0.0541568
-0.0456318
-0.0550906
-0.0383501
-0.0559943
-0.0302452
-0.0568353
-0.0212668
-0.0574336
-0.0112957
-0.0574256
-0.0531649
-0.0911635
-0.0408813
-0.0927849
-0.0419154
-0.0935509
-0.0431363
-0.0934284
-0.0444403
-0.092369
-0.0458391
-0.0903291
-0.0473017
-0.0872739
-0.0488038
-0.0831806
-0.050317
-0.0780383
-0.0518145
-0.0718479
-0.0532733
-0.0646213
-0.0546764
-0.0563782
-0.0560142
-0.0471368
-0.0572912
-0.0369082
-0.058485
-0.0257134
-0.059409
-0.013641
-0.0596354
-0.0563008
-0.111023
-0.0359903
-0.112732
-0.0373323
-0.113488
-0.0390101
-0.113176
-0.0408521
-0.111714
-0.0428394
-0.109046
-0.0449148
-0.105138
-0.0470367
-0.0999735
-0.0491615
-0.0935518
-0.0512489
-0.0858869
-0.0532646
-0.0770057
-0.0551823
-0.0669449
-0.0569863
-0.0557462
-0.05868
-0.0434538
-0.0602426
-0.0301219
-0.0614818
-0.0158536
-0.0619254
-0.0594664
-0.130866
-0.0294881
-0.13302
-0.0315201
-0.133855
-0.033918
-0.133328
-0.0364877
-0.131385
-0.039222
-0.127987
-0.0420535
-0.123113
-0.0449252
-0.116763
-0.047777
-0.108956
-0.0505538
-0.0997268
-0.0532083
-0.0891271
-0.0557043
-0.0772196
-0.0580189
-0.0640753
-0.0601523
-0.0497695
-0.0620853
-0.0343704
-0.0636377
-0.0178843
-0.0644052
-0.0626037
-0.151788
-0.0222245
-0.153953
-0.0248524
-0.15467
-0.0279925
-0.153794
-0.0314117
-0.151245
-0.0350431
-0.146985
-0.0387807
-0.141009
-0.0425392
-0.133342
-0.0462357
-0.124031
-0.0497969
-0.113144
-0.0531619
-0.100763
-0.0562844
-0.0869847
-0.0591369
-0.0719081
-0.0617206
-0.0556314
-0.0640256
-0.038234
-0.0658968
-0.0197684
-0.0669637
-0.0657357
-0.17235
-0.0132241
-0.17493
-0.0168759
-0.175589
-0.0211169
-0.174301
-0.0256288
-0.171026
-0.0303604
-0.165762
-0.0351785
-0.158537
-0.0399709
-0.149414
-0.0446298
-0.138481
-0.0490624
-0.125847
-0.0531943
-0.111638
-0.0569723
-0.0959875
-0.0603684
-0.0790301
-0.0633903
-0.0608918
-0.0660456
-0.0416714
-0.0682144
-0.0214231
-0.0695787
-0.0688563
-0.193549
-0.00339886
-0.196032
-0.00806688
-0.196419
-0.013465
-0.194554
-0.019257
-0.190397
-0.0252864
-0.183966
-0.0313664
-0.175334
-0.0373418
-0.164612
-0.0430743
-0.151945
-0.0484502
-0.137494
-0.0533839
-0.121436
-0.0578205
-0.103949
-0.0617389
-0.0852066
-0.0651619
-0.0653631
-0.0681253
-0.0445337
-0.0705575
-0.0227719
-0.0722112
-0.0719433
-0.213775
0.00815667
-0.216568
0.00199352
-0.216677
-0.00502345
-0.214126
-0.0123846
-0.208929
-0.0199549
-0.201165
-0.0274911
-0.190967
-0.0347976
-0.178515
-0.0417023
-0.164019
-0.0480721
-0.147707
-0.0538151
-0.129815
-0.0588833
-0.11057
-0.0632736
-0.0901856
-0.0670359
-0.068843
-0.0702463
-0.0466743
-0.0728944
-0.0237471
-0.0748054
-0.0749734
-0.233751
0.0205229
-0.236314
0.012748
-0.235957
0.00400917
-0.232549
-0.00518753
-0.226146
-0.0145369
-0.216882
-0.023728
-0.20497
-0.0325056
-0.190672
-0.0406621
-0.17428
-0.0480484
-0.156101
-0.0545755
-0.136433
-0.0602149
-0.115558
-0.0649964
-0.0937274
-0.0690117
-0.0711501
-0.0723903
-0.0479733
-0.075194
-0.0242658
-0.0773349
-0.0779097
-0.251919
0.0343869
-0.254613
0.0245061
-0.253714
0.0135146
-0.249319
0.00216421
-0.241545
-0.00923558
-0.230625
-0.0202777
-0.216867
-0.0306514
-0.200633
-0.0401131
-0.182314
-0.048505
-0.162302
-0.0557539
-0.140966
-0.0618691
-0.118639
-0.0669326
-0.0956099
-0.0710952
-0.0721095
-0.0745528
-0.0482998
-0.0774466
-0.0242623
-0.0797756
-0.080719
-0.268604
0.0489535
-0.270985
0.036734
-0.269421
0.0232871
-0.263886
0.00944312
-0.254597
-0.00427061
-0.241887
-0.017354
-0.226184
-0.0294259
-0.207969
-0.0402137
-0.187738
-0.0495637
-0.165977
-0.0574366
-0.14313
-0.0639008
-0.119579
-0.069114
-0.0956434
-0.073306
-0.0715735
-0.0767498
-0.0475482
-0.0796655
-0.0236771
-0.0821243
-0.083375
-0.28259
0.0646046
-0.28488
0.0495191
-0.282538
0.0330925
-0.27575
0.0164188
-0.264823
0.000120454
-0.250221
-0.0151779
-0.232511
-0.0290244
-0.212307
-0.0411225
-0.19023
-0.0513417
-0.166858
-0.0597056
-0.142705
-0.0663666
-0.118202
-0.0715833
-0.0936904
-0.0756844
-0.0694376
-0.0790259
-0.0456441
-0.0818965
-0.0224652
-0.0844104
-0.0858651
-0.293831
0.0807346
-0.295781
0.0624366
-0.292615
0.0427186
-0.284484
0.0228476
-0.271834
0.00369882
-0.255275
-0.0139739
-0.235536
-0.0296399
-0.213385
-0.0429934
-0.189571
-0.0539531
-0.164775
-0.0626381
-0.13957
-0.0693265
-0.11442
-0.0744009
-0.0896869
-0.0783024
-0.065652
-0.0814676
-0.0425504
-0.0842287
-0.0205989
-0.086707
-0.0881975
-0.301523
0.097425
-0.3033
0.0754298
-0.299262
0.0519133
-0.289743
0.0284886
-0.275322
0.00622607
-0.256791
-0.0139522
-0.235059
-0.031444
-0.211063
-0.0459553
-0.185686
-0.0574904
-0.159701
-0.0663064
-0.133736
-0.0728461
-0.10827
-0.0776506
-0.0836725
-0.0812773
-0.0602436
-0.0842233
-0.0382733
-0.0868187
-0.0180862
-0.0891275
-0.0904209
-0.305578
0.114285
-0.307087
0.0881413
-0.302204
0.0604579
-0.291293
0.0331064
-0.275114
0.00749121
-0.254658
-0.0152925
-0.231038
-0.0345735
-0.205367
-0.0501029
-0.178659
-0.0620195
-0.151769
-0.0707706
-0.125359
-0.0770062
-0.0999122
-0.0814516
-0.0757952
-0.0847787
-0.0533328
-0.0875075
-0.0328898
-0.0899009
-0.0149457
-0.0918697
-0.0926175
-0.305584
0.131148
-0.306987
0.100431
-0.301306
0.0681211
-0.289067
0.0365037
-0.271208
0.00731961
-0.248946
-0.0181298
-0.223609
-0.0391222
-0.196491
-0.0554972
-0.168731
-0.067588
-0.141243
-0.0760942
-0.114702
-0.0819172
-0.0895829
-0.0859796
-0.0662458
-0.0890511
-0.0450575
-0.0916126
-0.026501
-0.0937646
-0.0112258
-0.0951922
-0.0949105
-0.301536
0.147743
-0.302941
0.112074
-0.296614
0.0747473
-0.28318
0.0385283
-0.263793
0.0055897
-0.239908
-0.0225512
-0.213083
-0.0451425
-0.184792
-0.0621701
-0.156282
-0.0742357
-0.128502
-0.0823596
-0.102115
-0.0877378
-0.0775688
-0.0914904
-0.0552267
-0.0944384
-0.0355225
-0.0969387
-0.0190967
-0.0988149
-0.00690017
-0.0993567
-0.0973653
0.182072
-0.155956
-0.178474
0.182728
-0.162508
0.182336
-0.169313
0.17946
-0.175846
0.175713
-0.181964
0.169979
-0.187158
0.16334
-0.191267
0.155295
-0.193984
0.146251
-0.1951
0.136351
-0.194347
0.125425
-0.191643
0.114047
-0.186861
0.101749
-0.180178
0.0892521
-0.171604
0.0760234
-0.161533
0.0626954
-0.14999
0.0488594
-0.137629
0.0350171
-0.124598
0.0208294
-0.111554
0.00669889
-0.0988136
-0.00768237
-0.0869414
-0.0219507
-0.0763852
-0.0363216
-0.0675637
-0.0505117
-0.0608647
-0.0646008
-0.0566363
-0.0783675
-0.0551888
-0.0917881
-0.0567397
-0.104665
-0.0614427
-0.116884
-0.0693366
-0.12826
-0.0803572
-0.138605
-0.0943208
-0.147746
-0.110912
-0.155462
-0.129696
-0.161592
-0.15012
-0.165922
-0.171539
-0.168316
-0.193224
-0.168626
-0.214417
-0.166753
-0.234337
-0.162659
-0.252263
-0.156294
-0.267523
-0.279584
0.203631
-0.149388
-0.201028
0.203992
-0.15642
0.202183
-0.163739
0.198451
-0.170958
0.192938
-0.177797
0.185874
-0.183804
0.177442
-0.188753
0.167798
-0.192289
0.157087
-0.194184
0.145485
-0.194192
0.133107
-0.192172
0.120123
-0.188053
0.106609
-0.181923
0.0927437
-0.173907
0.0785476
-0.164246
0.0642342
-0.153173
0.0497775
-0.141112
0.0353497
-0.128418
0.0209353
-0.115569
0.00664067
-0.103014
-0.00752685
-0.0912201
-0.0214957
-0.0807041
-0.0352283
-0.0718513
-0.0486496
-0.0650856
-0.0616892
-0.0607473
-0.0742561
-0.0591623
-0.0862449
-0.0605566
-0.0975355
-0.0650915
-0.107993
-0.072814
-0.117465
-0.0836712
-0.125789
-0.0974846
-0.132788
-0.113949
-0.138284
-0.132631
-0.142106
-0.152972
-0.144098
-0.174322
-0.144116
-0.195946
-0.142052
-0.217068
-0.137826
-0.236897
-0.131409
-0.254688
-0.122804
-0.269761
-0.281558
0.218635
-0.141144
-0.215514
0.219087
-0.148472
0.217053