/*--------------------------------*- C++ -*----------------------------------*\
  =========                 |
  \\      /  F ield         | OpenFOAM: The Open Source CFD Toolbox
   \\    /   O peration     | Website:  https://openfoam.org
    \\  /    A nd           | Version:  6
     \\/     M anipulation  |
\*---------------------------------------------------------------------------*/
FoamFile
{
    version     2.0;
    format      ascii;
    class       surfaceScalarField;
    location    "4.74";
    object      phi;
}
// * * * * * * * * * * * * * * * * * * * * * * * * * * * * * * * * * * * * * //

dimensions      [0 3 -1 0 0 0 0];

internalField   nonuniform List<scalar> 
8193
(
0.129628
-0.223506
-0.113519
0.139892
-0.227648
0.146961
-0.22577
0.15217
-0.223065
0.156272
-0.220879
0.159542
-0.219213
0.162099
-0.21807
0.164167
-0.217507
0.16592
-0.217393
0.167309
-0.217241
0.168192
-0.216525
0.167568
-0.213757
0.164631
-0.207622
0.158659
-0.197464
0.149392
-0.183246
0.13733
-0.166003
0.123053
-0.147038
0.107202
-0.127612
0.0905953
-0.109247
0.0740682
-0.0936249
0.0585974
-0.0828216
0.0447917
-0.0769516
0.0337386
-0.0750935
0.0254931
-0.0756028
0.0184558
-0.078005
0.0113075
-0.0834578
0.00170445
-0.092642
-0.0119771
-0.106145
-0.0299209
-0.123125
-0.0510574
-0.142563
-0.0739187
-0.163915
-0.0963379
-0.187169
-0.114983
-0.210123
-0.127529
-0.227852
-0.134455
-0.23727
-0.137835
-0.240587
-0.138971
-0.241046
-0.138519
-0.240694
-0.136226
-0.239917
-0.131077
-0.237565
-0.2307
-0.121743
0.148324
-0.230879
-0.138413
0.152002
-0.226666
0.154644
-0.221841
0.156879
-0.217053
0.159062
-0.2134
0.161414
-0.210761
0.164425
-0.209418
0.16846
-0.209304
0.173448
-0.209848
0.178731
-0.209967
0.182687
-0.20816
0.183921
-0.203149
0.181353
-0.193914
0.174441
-0.180318
0.163442
-0.163097
0.149188
-0.143839
0.132827
-0.124138
0.115627
-0.105351
0.0991142
-0.0892304
0.0839215
-0.0765403
0.0690842
-0.0677344
0.0543453
-0.063609
0.040519
-0.0642888
0.028669
-0.0683537
0.0185963
-0.0740406
0.00944329
-0.0818238
-0.000149035
-0.0918575
-0.0116349
-0.104609
-0.0257474
-0.119934
-0.0428041
-0.137206
-0.0628241
-0.156157
-0.0849868
-0.177595
-0.106602
-0.201173
-0.124
-0.222927
-0.135207
-0.238072
-0.141374
-0.245681
-0.144346
-0.248308
-0.145269
-0.248702
-0.144778
-0.247772
-0.14268
-0.245216
-0.240125
-0.136777
0.156274
-0.228511
-0.155374
0.155776
-0.220967
0.155283
-0.214413
0.155609
-0.208938
0.156561
-0.204646
0.158779
-0.202264
0.162834
-0.202008
0.168783
-0.203303
0.175306
-0.204192
0.180789
-0.203293
0.183574
-0.199049
0.182484
-0.190644
0.177031
-0.177735
0.167593
-0.161024
0.155289
-0.141973
0.141487
-0.122396
0.12699
-0.103298
0.112251
-0.0856631
0.0978335
-0.0713346
0.0839197
-0.0606694
0.0704485
-0.053857
0.0572305
-0.0515421
0.0440973
-0.0538483
0.0313694
-0.0598217
0.0195907
-0.0679002
0.00846491
-0.0776955
-0.00259078
-0.0890526
-0.0146018
-0.101974
-0.0283501
-0.116537
-0.0440512
-0.13266
-0.0619661
-0.15001
-0.0822821
-0.169451
-0.103866
-0.191939
-0.123532
-0.215549
-0.13831
-0.235272
-0.147685
-0.247717
-0.152969
-0.253608
-0.155434
-0.255743
-0.155767
-0.255617
-0.154433
-0.253168
-0.248224
-0.151177
0.159511
-0.221094
-0.163062
0.156344
-0.212194
0.153695
-0.204606
0.152098
-0.198839
0.152551
-0.195475
0.15548
-0.194683
0.160762
-0.196135
0.166985
-0.197963
0.172125
-0.197599
0.174317
-0.19381
0.172902
-0.186232
0.167262
-0.174079
0.158225
-0.158435
0.147229
-0.140598
0.135419
-0.121712
0.12355
-0.103187
0.112464
-0.0860915
0.102505
-0.0708925
0.0922278
-0.0576232
0.0812939
-0.0477277
0.0701046
-0.0421147
0.0586299
-0.0409775
0.0466158
-0.0441964
0.0339726
-0.0509613
0.0214551
-0.0605351
0.0091572
-0.0718482
-0.00307076
-0.0844824
-0.0155966
-0.0982016
-0.028926
-0.112927
-0.0436082
-0.128512
-0.0599116
-0.144888
-0.0784636
-0.162543
-0.0992735
-0.183035
-0.120334
-0.206444
-0.138264
-0.229124
-0.15119
-0.246169
-0.159519
-0.256021
-0.164504
-0.260631
-0.166885
-0.262015
-0.166785
-0.260737
-0.256351
-0.164615
0.158065
-0.209732
-0.165119
0.151989
-0.20026
0.147216
-0.192598
0.144577
-0.187776
0.144753
-0.18624
0.147447
-0.187191
0.151303
-0.189249
0.153463
-0.189043
0.153077
-0.186007
0.149094
-0.178704
0.141281
-0.167574
0.130863
-0.153278
0.119723
-0.137544
0.10925
-0.121158
0.100321
-0.104736
0.0929048
-0.088761
0.0870418
-0.0743558
0.0821527
-0.0613493
0.0775057
-0.0496041
0.071922
-0.0400995
0.0648765
-0.0343797
0.0564036
-0.0331805
0.0463103
-0.0361365
0.0350601
-0.0430772
0.023023
-0.0531538
0.0104864
-0.0651971
-0.00249076
-0.078542
-0.0157344
-0.0930504
-0.0294559
-0.10824
-0.0438282
-0.123987
-0.0592399
-0.139989
-0.0762404
-0.156559
-0.0955405
-0.175079
-0.116548
-0.196921
-0.136571
-0.220529
-0.152787
-0.24112
-0.164418
-0.255091
-0.172284
-0.262792
-0.1772
-0.26625
-0.179364
-0.266653
-0.263375
-0.179167
0.150288
-0.194983
-0.160462
0.141788
-0.185818
0.135444
-0.179094
0.131816
-0.17594
0.130457
-0.175808
0.129667
-0.176653
0.127508
-0.176861
0.122796
-0.173819
0.11413
-0.166737
0.101735
-0.155803
0.0878309
-0.143436
0.0753719
-0.131025
0.0656823
-0.118653
0.0590813
-0.106087
0.0552469
-0.0932845
0.0538044
-0.0806625
0.0538348
-0.0687816
0.0546684
-0.0577041
0.0556775
-0.0473185
0.0558616
-0.0382154
0.0541063
-0.0318096
0.0495328
-0.0290564
0.0424943
-0.0308075
0.033691
-0.0372235
0.0232399
-0.0468572
0.0114776
-0.0587433
-0.00126671
-0.0721938
-0.0147758
-0.0869429
-0.0287689
-0.102557
-0.0432988
-0.118562
-0.0583884
-0.134673
-0.0745027
-0.150745
-0.0924705
-0.167787
-0.112607
-0.18767
-0.133471
-0.21059
-0.152251
-0.233127
-0.167146
-0.250662
-0.178195
-0.261708
-0.186046
-0.267685
-0.191009
-0.270126
-0.268496
-0.193316
0.135884
-0.177427
-0.14878
0.124884
-0.168958
0.116482
-0.16376
0.110355
-0.161959
0.104885
-0.161723
0.0982658
-0.160826
0.0875699
-0.15654
0.0724069
-0.148789
0.0539564
-0.138351
0.0360361
-0.128046
0.0216724
-0.119495
0.0116482
-0.111833
0.00606301
-0.104448
0.00448814
-0.0965642
0.00611141
-0.0877439
0.00999922
-0.0782673
0.0156328
-0.0690954
0.0219673
-0.0597501
0.0283098
-0.0504575
0.0336562
-0.0414829
0.0367325
-0.033957
0.0370482
-0.0296051
0.0343474
-0.0294998
0.0288506
-0.0342645
0.0209992
-0.0426593
0.0110376
-0.0535083
-0.000607956
-0.0662916
-0.0136178
-0.080623
-0.0275526
-0.0961749
-0.0421213
-0.112312
-0.0572263
-0.128543
-0.0729667
-0.144515
-0.0900054
-0.160661
-0.109075
-0.178775
-0.12975
-0.200201
-0.15004
-0.223081
-0.167656
-0.243092
-0.181823
-0.257234
-0.192794
-0.2659
-0.200874
-0.270579
-0.270929
-0.206185
0.114265
-0.157478
-0.12966
0.100749
-0.149831
0.0892843
-0.14574
0.0785077
-0.143811
0.0660802
-0.141249
0.0497596
-0.135933
0.0290351
-0.126874
0.00643627
-0.117035
-0.01418
-0.108521
-0.0303539
-0.102751
-0.0415978
-0.0993665
-0.0476772
-0.0972415
-0.049004
-0.0951055
-0.0463246
-0.0918379
-0.0405762
-0.0867975
-0.0327191
-0.0802285
-0.0237483
-0.0730445
-0.0132898
-0.066123
-0.00264676
-0.0580004
0.00683217
-0.0488839
0.0143746
-0.0404682
0.0194281
-0.0346862
0.0214126
-0.0325711
0.0198057
-0.0347918
0.0152915
-0.041303
0.00800117
-0.0503638
-0.00167023
-0.0617064
-0.0132841
-0.0749759
-0.0264806
-0.089754
-0.0407322
-0.105562
-0.0557186
-0.121689
-0.0713359
-0.137557
-0.0878995
-0.153169
-0.106077
-0.16996
-0.126062
-0.189742
-0.146763
-0.211936
-0.166232
-0.233078
-0.183085
-0.2496
-0.197047
-0.260792
-0.208276
-0.267718
-0.270155
-0.216817
0.0858895
-0.135235
-0.103865
0.0696111
-0.128351
0.0542766
-0.124364
0.0376118
-0.120375
0.0175685
-0.113828
-0.00598427
-0.104528
-0.0301737
-0.0944938
-0.052141
-0.0866784
-0.0696191
-0.0825952
-0.0819349
-0.082064
-0.0892671
-0.0838693
-0.0920961
-0.086576
-0.0909187
-0.088888
-0.0862527
-0.0896532
-0.0786412
-0.0881942
-0.0688666
-0.0845043
-0.0578057
-0.0793911
-0.046444
-0.0736118
-0.0339491
-0.067509
-0.0212744
-0.0594932
-0.0100127
-0.0506084
-0.00139961
-0.0431344
0.00437361
-0.0391375
0.00666336
-0.038824
0.00558363
-0.0428957
0.00145288
-0.0498055
-0.00554876
-0.0591368
-0.0150625
-0.0707026
-0.0266762
-0.0841279
-0.0399907
-0.0989101
-0.0544893
-0.114448
-0.0698607
-0.129947
-0.08611
-0.145087
-0.103641
-0.160898
-0.122766
-0.179277
-0.143098
-0.200344
-0.163407
-0.221476
-0.182182
-0.239386
-0.198692
-0.25259
-0.212838
-0.261527
-0.265959
-0.224543
0.0536557
-0.111355
-0.0737278
0.0346181
-0.104669
0.0155586
-0.0999027
-0.00537598
-0.0933749
-0.0286159
-0.083965
-0.0525405
-0.0735387
-0.0743296
-0.0653204
-0.0919833
-0.0614453
-0.104719
-0.0622099
-0.11274
-0.0664451
-0.116715
-0.0724663
-0.11747
-0.0786726
-0.115562
-0.0840315
-0.111137
-0.0877892
-0.104039
-0.0895635
-0.0945488
-0.0888979
-0.0836346
-0.0859045
-0.0721343
-0.0814589
-0.0604749
-0.0763047
-0.0476675
-0.0702582
-0.0348533
-0.0622233
-0.0235692
-0.0540744
-0.0151129
-0.048108
-0.00964711
-0.0456555
-0.00764547
-0.0470987
-0.0087521
-0.0517107
-0.0128797
-0.0587968
-0.019841
-0.0682608
-0.0293494
-0.0798179
-0.0410213
-0.0930536
-0.0544648
-0.107367
-0.0692537
-0.121989
-0.0850621
-0.136494
-0.101912
-0.151558
-0.120138
-0.168762
-0.139635
-0.188662
-0.159837
-0.209098
-0.179601
-0.227362
-0.197948
-0.241809
-0.21447
-0.252314
-0.258479
-0.22893
0.0227705
-0.0880279
-0.0429056
0.00294525
-0.0808876
-0.0176874
-0.0746153
-0.0393359
-0.0664535
-0.0611696
-0.0563329
-0.081488
-0.0469985
-0.0985994
-0.0416724
-0.111535
-0.0417705
-0.120247
-0.0466676
-0.125243
-0.0546396
-0.127212
-0.0638142
-0.126719
-0.0727107
-0.12431
-0.0803072
-0.120512
-0.0858605
-0.115367
-0.0894661
-0.108406
-0.091166
-0.0997076
-0.0905187
-0.0900068
-0.0877312
-0.0798086
-0.0837691
-0.0692134
-0.0788436
-0.0573696
-0.072802
-0.0456563
-0.0652794
-0.0355593
-0.0584567
-0.0279912
-0.0542306
-0.0234887
-0.0533501
-0.0220795
-0.0555891
-0.0236266
-0.0604091
-0.0280523
-0.0676468
-0.0352205
-0.0770674
-0.0448991
-0.0883448
-0.0567835
-0.100943
-0.0704464
-0.114209
-0.0853932
-0.12778
-0.101319
-0.142136
-0.118334
-0.158441
-0.136727
-0.177073
-0.156157
-0.196497
-0.175988
-0.214308
-0.195266
-0.229183
-0.213411
-0.240629
-0.248102
-0.229999
-0.00185129
-0.0671197
-0.0166139
-0.0200114
-0.0595689
-0.0386721
-0.0521352
-0.0576734
-0.0430413
-0.0757271
-0.0333584
-0.0917828
-0.0256027
-0.105051
-0.0227427
-0.115147
-0.0257918
-0.122063
-0.0337506
-0.126044
-0.044641
-0.127515
-0.056405
-0.126951
-0.0675099
-0.124884
-0.0768681
-0.12153
-0.0840459
-0.117269
-0.0889661
-0.112435
-0.0917091
-0.106594
-0.0925911
-0.099806
-0.0913183
-0.0921912
-0.0887856
-0.084069
-0.0849978
-0.0751815
-0.0803712
-0.0651795
-0.0746243
-0.0553184
-0.0683255
-0.0470368
-0.063181
-0.0410701
-0.0606351
-0.0378145
-0.0607938
-0.0373115
-0.0634658
-0.0395648
-0.0685179
-0.0445342
-0.0757523
-0.052134
-0.0848813
-0.0621665
-0.0954743
-0.0742209
-0.107087
-0.0877236
-0.119512
-0.102203
-0.133126
-0.117696
-0.148582
-0.134547
-0.165948
-0.152829
-0.183964
-0.17195
-0.200891
-0.191278
-0.215452
-0.210095
-0.227249
-0.235491
-0.227934
-0.0159129
-0.0497308
0.000110361
-0.0310568
-0.0421495
-0.0461166
-0.0341575
-0.0607379
-0.0249206
-0.0745706
-0.0155173
-0.0872786
-0.00845934
-0.0985777
-0.00666959
-0.10807
-0.0112796
-0.115321
-0.0213261
-0.120003
-0.0347266
-0.122249
-0.0489574
-0.122522
-0.0621516
-0.121261
-0.0732386
-0.118854
-0.0818322
-0.115679
-0.0878545
-0.111939
-0.0915532
-0.107746
-0.0933286
-0.103062
-0.0930286
-0.0980905
-0.0912985
-0.0926081
-0.0885622
-0.086671
-0.0849489
-0.0798729
-0.0806324
-0.0722444
-0.0757372
-0.064825
-0.0709536
-0.0588468
-0.0675265
-0.0548091
-0.0662876
-0.0530371
-0.0672132
-0.0536923
-0.0703269
-0.0568708
-0.0754901
-0.0625621
-0.0825152
-0.0706141
-0.0911074
-0.0806534
-0.101039
-0.0921422
-0.112262
-0.10467
-0.125023
-0.118316
-0.139485
-0.133315
-0.155557
-0.150056
-0.171831
-0.167951
-0.187544
-0.186668
-0.201169
-0.205289
-0.212903
-0.22141
-0.223447
-0.0186383
-0.0360601
0.00561911
-0.0304763
-0.0289784
-0.0414133
-0.0212467
-0.0516731
-0.0121012
-0.061689
-0.00242202
-0.0720004
0.00537629
-0.0826375
0.00785515
-0.0928968
0.00314553
-0.101856
-0.00800954
-0.108892
-0.0232298
-0.113569
-0.0397981
-0.115734
-0.0555629
-0.115935
-0.0687473
-0.114546
-0.0791335
-0.112294
-0.0862803
-0.109419
-0.0909186
-0.106314
-0.0932856
-0.102958
-0.0936368
-0.0995685
-0.092372
-0.0962017
-0.0900684
-0.0926438
-0.0871182
-0.0887913
-0.0835786
-0.0842758
-0.0798321
-0.0792921
-0.0759996
-0.074606
-0.0727483
-0.0710469
-0.0708403
-0.0690993
-0.0705903
-0.0689808
-0.0722828
-0.0709424
-0.0757397
-0.0750377
-0.080965
-0.0811359
-0.0878432
-0.088954
-0.0962939
-0.0980983
-0.106377
-0.10834
-0.118171
-0.119943
-0.131343
-0.132979
-0.145997
-0.148028
-0.160216
-0.164307
-0.174604
-0.181876
-0.186797
-0.199555
-0.198238
-0.206427
-0.217335
-0.0127943
-0.0273592
0.00376343
-0.0207238
-0.0206896
-0.0279006
-0.013059
-0.0344567
-0.00393293
-0.0412309
0.00650422
-0.0492966
0.0160643
-0.0595137
0.0210887
-0.0710449
0.0180074
-0.0827284
0.00723724
-0.09315
-0.00909359
-0.10141
-0.0277509
-0.106688
-0.0465
-0.109323
-0.062401
-0.110056
-0.0748254
-0.10889
-0.0840652
-0.107303
-0.0893689
-0.104996
-0.0927447
-0.102473
-0.0936351
-0.0997274
-0.0929453
-0.0972506
-0.0907485
-0.0950875
-0.0878753
-0.0930433
-0.0846169
-0.0910373
-0.0812354
-0.0887001
-0.0781342
-0.0863154
-0.0753215
-0.0841689
-0.0735515
-0.0828826
-0.0727968
-0.0827997
-0.0736145
-0.0841709
-0.0759142
-0.0870687
-0.0798717
-0.0914275
-0.0855055
-0.097148
-0.0927644
-0.104088
-0.101748
-0.112159
-0.112477
-0.121943
-0.123948
-0.133145
-0.137144
-0.14655
-0.149066
-0.161008
-0.162258
-0.177114
-0.172614
-0.193212
-0.183836
-0.191091
-0.209986
-0.00180507
-0.0226563
-0.00422409
-0.00606695
-0.0170461
-0.0107972
-0.00827503
-0.0134465
-0.000605637
-0.0182142
0.0125163
-0.0225675
0.0221624
-0.0322059
0.0329003
-0.0443525
0.0326799
-0.0581211
0.023807
-0.0723607
0.00814545
-0.0840754
-0.0129136
-0.0948544
-0.0325463
-0.100327
-0.0537687
-0.105263
-0.0668046
-0.105525
-0.0808473
-0.10589
-0.0862267
-0.104382
-0.0916931
-0.102771
-0.0929387
-0.100546
-0.0931428
-0.0983826
-0.0911851
-0.0966913
-0.0881545
-0.0950249
-0.0851945
-0.0943128
-0.0811846
-0.0932812
-0.0787255
-0.0928188
-0.075657
-0.092151
-0.0743915
-0.0920746
-0.0733238
-0.0924152
-0.0739775
-0.0936112
-0.0756434
-0.0957331
-0.0788605
-0.0988235
-0.0836704
-0.103051
-0.0898914
-0.108594
-0.0976105
-0.115201
-0.107277
-0.123811
-0.116693
-0.133451
-0.128754
-0.145424
-0.138189
-0.157831
-0.150745
-0.17238
-0.158712
-0.186239
-0.170341
-0.175645
-0.201731
0.0103868
-0.0140723
0.00933946
0.00645394
0.00758735
0.00342329
0.00390105
-0.0049466
-0.0142962
-0.0289568
-0.0486835
-0.061965
-0.0802475
-0.0879539
-0.0984653
-0.100832
-0.103904
-0.103376
-0.103266
-0.102136
-0.100515
-0.0991361
-0.0972136
-0.0965387
-0.0955082
-0.0956255
-0.0955584
-0.09626
-0.0972012
-0.0986418
-0.100828
-0.103708
-0.107245
-0.112396
-0.117917
-0.125946
-0.133966
-0.144894
-0.154987
-0.167975
-0.179026
-0.1928
0.166301
-0.180887
0.155705
-0.19078
0.144537
-0.199763
0.132299
-0.207259
0.118791
-0.213199
0.104017
-0.217363
0.0883045
-0.219247
0.072298
-0.218433
0.056735
-0.214815
0.0423778
-0.208384
0.0297436
-0.199328
0.0193034
-0.188277
0.0112529
-0.175924
0.00548504
-0.162866
0.00181481
-0.15057
0.000823015
-0.13776
-0.121713
0.167845
-0.170805
0.158357
-0.180481
0.147312
-0.189046
0.134803
-0.196157
0.121124
-0.201907
0.106469
-0.205957
0.0911523
-0.207891
0.0756936
-0.20748
0.0606766
-0.204664
0.0467001
-0.199439
0.0342629
-0.191889
0.0237116
-0.182491
0.0151907
-0.171746
0.008847
-0.160263
0.00417033
-0.148873
0.00194092
-0.137613
-0.120848
0.173452
-0.157539
0.161869
-0.167707
0.149711
-0.176693
0.136809
-0.184004
0.123021
-0.189745
0.108514
-0.193855
0.0935656
-0.196012
0.0785447
-0.196061
0.0638859
-0.193989
0.0500967
-0.189857
0.0377109
-0.183768
0.0270145
-0.175949
0.0181624
-0.16677
0.0112364
-0.156778
0.00604989
-0.146543
0.00270538
-0.136408
-0.11945
0.171773
-0.146256
0.16156
-0.156
0.150124
-0.164623
0.137491
-0.171564
0.123968
-0.177192
0.109768
-0.181328
0.095222
-0.183754
0.0806815
-0.184319
0.0664981
-0.182997
0.053051
-0.179866
0.0407499
-0.175051
0.02993
-0.168702
0.0207876
-0.161048
0.0133384
-0.152457
0.0075605
-0.143467
0.00337287
-0.13437
-0.117564
0.173415
-0.133384
0.16218
-0.143037
0.150143
-0.151599
0.137471
-0.158626
0.124132
-0.164269
0.110272
-0.168515
0.0961539
-0.171247
0.0820706
-0.172331
0.0683534
-0.171769
0.0553009
-0.169595
0.0431967
-0.165911
0.0323263
-0.160863
0.0229066
-0.154609
0.0150762
-0.147436
0.00879981
-0.139713
0.00397181
-0.131663
-0.115205
0.168386
-0.122576
0.158666
-0.131424
0.147755
-0.139429
0.13586
-0.146092
0.12318
-0.151548
0.109942
-0.155797
0.0963859
-0.158724
0.0828364
-0.16027
0.0695842
-0.16039
0.0569193
-0.159111
0.045097
-0.15649
0.0343226
-0.152619
0.0247797
-0.147629
0.0165805
-0.141732
0.00984678
-0.135305
0.00443564
-0.12831
-0.112461
0.16563
-0.111443
0.155915
-0.119709
0.145193
-0.127243
0.133681
-0.133649
0.121524
-0.13898
0.108877
-0.143235
0.0959532
-0.14635
0.0829878
-0.148275
0.0702483
-0.148992
0.0579859
-0.148502
0.0464298
-0.146834
0.0357924
-0.144057
0.0262487
-0.140256
0.0179055
-0.135575
0.0108261
-0.130343
0.00479987
-0.124247
-0.109385
0.157593
-0.102168
0.149386
-0.109446
0.139963
-0.116215
0.129604
-0.122139
0.118469
-0.127141
0.106767
-0.131264
0.0947045
-0.134434
0.0824989
-0.136603
0.0703805
-0.137759
0.0585908
-0.137908
0.0473673
-0.137067
0.0369036
-0.135255
0.0273612
-0.132522
0.0188665
-0.12897
0.0115305
-0.12491
0.00518217
-0.119743
-0.105918
0.151038
-0.0932343
0.143392
-0.0997287
0.134714
-0.105841
0.12513
-0.111243
0.114836
-0.115918
0.103982
-0.119861
0.0927496
-0.123021
0.0813369
-0.125362
0.0699386
-0.126861
0.0587504
-0.12752
0.0479642
-0.127348
0.0377633
-0.126347
0.0283109
-0.124544
0.0197492
-0.122014
0.0121802
-0.119025
0.00550191
-0.114771
-0.102084
0.140921
-0.0858518
0.13464
-0.0913947
0.127215
-0.0966733
0.118856
-0.101459
0.109736
-0.105701
0.100017
-0.109372
0.0898451
-0.112404
0.0793898
-0.114778
0.0688346
-0.116482
0.0583622
-0.117511
0.0481394
-0.117852
0.0383243
-0.117495
0.0290716
-0.116459
0.0205211
-0.114801
0.0127693
-0.11274
0.00578786
-0.109342
-0.0978874
0.131848
-0.0790507
0.126292
-0.0838282
0.119771
-0.0883933
0.112395
-0.0925887
0.104279
-0.0963661
0.0955455
-0.0996995
0.0863435
-0.102547
0.0768239
-0.104887
0.0671347
-0.106699
0.0574197
-0.107971
0.0478178
-0.108681
0.0384684
-0.108817
0.0295121
-0.108394
0.0210808
-0.107455
0.0132554
-0.106166
0.00605121
-0.103524
-0.093322
0.12075
-0.0734788
0.116315
-0.0774408
0.11091
-0.0812363
0.104657
-0.084802
0.0976697
-0.0880731
0.0900606
-0.091024
0.0819587
-0.093625
0.0734879
-0.095846
0.0647584
-0.0976514
0.0558837
-0.0990277
0.0469803
-0.0999543
0.0381782
-0.100428
0.0296096
-0.100463
0.0213977
-0.100091
0.0135943
-0.0994032
0.00626712
-0.0974085
-0.0884137
0.110574
-0.06848
0.106784
-0.0717636
0.10221
-0.0749344
0.0968908
-0.0779297
0.0908983
-0.0807166
0.0843126
-0.0832757
0.0772208
-0.0855822
0.069713
-0.0876071
0.0618839
-0.0893168
0.053825
-0.0906928
0.0456413
-0.0917252
0.0374427
-0.0924132
0.0293366
-0.0927658
0.0214302
-0.0928119
0.0137441
-0.0925528
0.00640554
-0.0911024
-0.0832224
0.0994845
-0.0644032
0.096575
-0.0670346
0.0929207
-0.0695836
0.0885639
-0.0720156
0.0835656
-0.0743151
0.0779863
-0.0764612
0.071893
-0.0784343
0.065347
-0.0801981
0.0584242
-0.0817319
0.0512085
-0.0830237
0.043787
-0.0840649
0.0362485
-0.0848543
0.0286788
-0.0853959
0.0211641
-0.085717
0.0136958
-0.0857219
0.00646162
-0.0847184
-0.077817
0.0894048
-0.0608108
0.0870132
-0.062887
0.084003
-0.0649098
0.0804062
-0.0668639
0.0762508
-0.0687288
0.0715631
-0.0704817
0.0663678
-0.0721
0.060709
-0.0735662
0.0546427
-0.0748704
0.0482358
-0.07601
0.0415596
-0.0769797
0.0346843
-0.0777756
0.0276768
-0.0783971
0.020603
-0.0788688
0.0134741
-0.0790386
0.00643554
-0.0783471
-0.0722698
0.0790382
-0.0579009
0.0773101
-0.0594575
0.0750269
-0.0609919
0.0721989
-0.0624841
0.0688367
-0.0639134
0.0649561
-0.0652617
0.0605834
-0.0665167
0.0557564
-0.0676716
0.0505197
-0.0687224
0.0449166
-0.0696649
0.0389922
-0.0704944
0.0327964
-0.0712105
0.0263803
-0.0718135
0.0198091
-0.0723404
0.0131186
-0.0726087
0.00633583
-0.072049
-0.0666476
0.0697799
-0.0553712
0.0684708
-0.0564881
0.0666929
-0.0575995
0.0644426
-0.0586809
0.061714
-0.0597089
0.0585118
-0.0606762
0.054854
-0.0615835
0.0507655
-0.0624304
0.0462726
-0.0632141
0.0414027
-0.0639309
0.0361857
-0.064578
0.0306552
-0.0651585
0.0248526
-0.0656793
0.0188063
-0.0661639
0.0125743
-0.0664585
0.00610961
-0.0658879
-0.0610721
0.0605785
-0.0533503
0.0597796
-0.0540532
0.058547
-0.0547597
0.0568641
-0.055435
0.0547293
-0.0560706
0.0521543
-0.0566726
0.0491544
-0.057245
0.0457435
-0.0577864
0.0419359
-0.0582938
0.0377483
-0.0587658
0.033202
-0.059204
0.0283209
-0.0596136
0.0231318
-0.060004
0.0176242
-0.0603611
0.0118211
-0.0605639
0.00576864
-0.05996
-0.0556556
0.0524896
-0.0515834
0.0520049
-0.0519368
0.0511328
-0.0522717
0.049862
-0.0525786
0.0481946
-0.052863
0.0461351
-0.0531335
0.0436866
-0.0533926
0.0408526
-0.0536393
0.0376387
-0.0538729
0.0340544
-0.0540956
0.0301134
-0.0543131
0.0258315
-0.0545328
0.0212184
-0.0547574
0.0162647
-0.0549538
0.0109462
-0.0549857
0.00538431
-0.054346
-0.0504401
0.0446817
-0.0501887
0.0445601
-0.0501653
0.0440654
-0.050133
0.043199
-0.0500886
0.0419681
-0.0500432
0.0403745
-0.0500005
0.0384174
-0.0499604
0.0360974
-0.0499234
0.0334179
-0.0498915
0.0303849
-0.04987
0.0270065
-0.0498663
0.023289
-0.049886
0.0192284
-0.0499213
0.0148104
-0.0499291
0.0100322
-0.0497839
0.0049737
-0.0490612
-0.0454515
0.0377683
-0.0489099
0.0378807
-0.0485852
0.0376534
-0.0482127
0.0370948
-0.0478505
0.0362088
-0.047505
0.0349919
-0.0471731
0.0334424
-0.0468563
0.0315604
-0.0465572
0.0293483
-0.0462803
0.0268099
-0.0460322
0.0239479
-0.0458189
0.0207582
-0.0456398
0.0172266
-0.0454764
0.0133338
-0.0452807
0.00907447
-0.044941
0.00451159
-0.0441007
-0.0407422
0.0312784
-0.0478757
0.0316075
-0.0471533
0.0316181
-0.0464586
0.0313316
-0.0458091
0.0307421
-0.0451839
0.0298477
-0.0445841
0.0286504
-0.0440152
0.0271525
-0.0434801
0.0253566
-0.0429838
0.0232642
-0.0425317
0.020872
-0.0421249
0.0181678
-0.0417539
0.0151329
-0.0413938
0.0117524
-0.0409998
0.00802146
-0.0404705
0.00397786
-0.0394914
-0.0363854
0.0253437
-0.0467405
0.0258437
-0.0457969
0.0260509
-0.0448059
0.0259707
-0.0438787
0.0256123
-0.0429977
0.024978
-0.0421577
0.0240722
-0.0413661
0.0229001
-0.0406265
0.0214643
-0.0399415
0.0197629
-0.0393118
0.0177872
-0.0387314
0.0155218
-0.0381841
0.0129514
-0.0376448
0.0100697
-0.0370773
0.00687675
-0.0363866
0.00338828
-0.0352733
-0.0324398
0.0199081
-0.045799
0.0205215
-0.0444319
0.020857
-0.0431633
0.0209303
-0.0419867
0.0207485
-0.0408759
0.0203226
-0.0398294
0.0196597
-0.038851
0.0187647
-0.0379416
0.0176387
-0.0370998
0.0162772
-0.0363206
0.0146703
-0.0355923
0.0128064
-0.0348964
0.0106791
-0.0342129
0.00829095
-0.0335138
0.00564582
-0.0327052
0.0027568
-0.031496
-0.0289515
0.0148233
-0.0444857
0.0155123
-0.0429951
0.0159576
-0.0414904
0.0161558
-0.0400865
0.0161207
-0.0387741
0.0158659
-0.0375513
0.0154029
-0.0364196
0.0147383
-0.0353745
0.0138732
-0.034409
0.0128045
-0.0335129
0.0115267
-0.032672
0.0100367
-0.0318692
0.00833788
-0.0310908
0.00643943
-0.0303135
0.00434993
-0.0294421
0.00209856
-0.0282055
-0.0259535
0.0101696
-0.0433809
0.0109295
-0.0414585
0.0114211
-0.0397047
0.0116815
-0.0381004
0.0117357
-0.0366239
0.0116013
-0.0352657
0.0112901
-0.0340205
0.0108088
-0.0328784
0.0101603
-0.0318277
0.00934573
-0.0308559
0.0083669
-0.0299484
0.00722959
-0.0290912
0.00594583
-0.028276
0.00453042
-0.0274812
0.00300041
-0.0266128
0.00141185
-0.0254375
-0.0234832
0.00583153
-0.0417233
0.00655316
-0.0396937
0.00707373
-0.0377741
0.00738671
-0.0360087
0.00751207
-0.0344017
0.00747109
-0.0329439
0.00727971
-0.0316242
0.00694836
-0.0304258
0.00648493
-0.0293337
0.00589728
-0.0283341
0.00519507
-0.027413
0.00439272
-0.0265601
0.00351074
-0.0257715
0.00257211
-0.025027
0.00160714
-0.0242384
0.000691541
-0.0232164
-0.0215864
0.00171003
-0.0401812
0.00248733
-0.0377809
0.00299826
-0.0356515
0.00330897
-0.0337531
0.00345883
-0.0320619
0.00347164
-0.0305523
0.00336463
-0.029205
0.00315107
-0.0279981
0.00284379
-0.0269146
0.00245691
-0.0259405
0.00200742
-0.0250631
0.00151842
-0.0242763
0.00102024
-0.023582
0.00054865
-0.0229634
0.000151754
-0.0223431
-7.0643e-05
-0.0215816
-0.0203212
-0.00205813
-0.0380108
-0.00141483
-0.0355242
-0.000945747
-0.0333044
-0.00064408
-0.0313319
-0.000482809
-0.0296021
-0.000434902
-0.0280873
-0.000479855
-0.0267603
-0.000599911
-0.0255945
-0.000776981
-0.024571
-0.000990116
-0.0236769
-0.00121337
-0.0229023
-0.0014127
-0.0222471
-0.00154298
-0.0217221
-0.00155416
-0.0213132
-0.00137423
-0.0209629
-0.000883161
-0.0205777
-0.0197588
-0.00579877
-0.0358527
-0.0051272
-0.0330893
-0.00470014
-0.0307422
-0.00443987
-0.0287288
-0.00429794
-0.0270129
-0.00424453
-0.0255462
-0.00425638
-0.0242924
-0.0043123
-0.0232203
-0.00438878
-0.022311
-0.00445783
-0.0215532
-0.00448396
-0.020942
-0.00441559
-0.0204909
-0.00419162
-0.0202175
-0.00374637
-0.0201098
-0.00297733
-0.0201447
-0.00174946
-0.0202589
-0.0199792
-0.00908975
-0.0330456
-0.00862209
-0.0302584
-0.00829471
-0.0279291
-0.0080961
-0.025952
-0.00799183
-0.0243109
-0.00795381
-0.0229481
-0.00795656
-0.0218218
-0.00797416
-0.0208979
-0.00797735
-0.0201578
-0.0079315
-0.0195922
-0.00778858
-0.0192065
-0.00748331
-0.0190283
-0.00693611
-0.0190865
-0.00604707
-0.0193867
-0.00468571
-0.0199336
-0.0026873
-0.020696
-0.0210856
-0.0124184
-0.0302002
-0.0119359
-0.0272784
-0.011686
-0.0249231
-0.0115608
-0.0230326
-0.0115157
-0.0215238
-0.0115169
-0.0203243
-0.0115377
-0.0193809
-0.0115506
-0.0186567
-0.0115217
-0.018135
-0.0114056
-0.0178149
-0.0111392
-0.0177149
-0.0106377
-0.0178814
-0.00979168
-0.0183642
-0.00846927
-0.0191887
-0.00650939
-0.020386
-0.00371092
-0.0219627
-0.0232015
-0.0151762
-0.0267854
-0.0149462
-0.0239241
-0.0148153
-0.0217335
-0.0147895
-0.0200036
-0.0148252
-0.0186958
-0.0148941
-0.0177174
-0.0149702
-0.0170081
-0.015024
-0.0165293
-0.0150151
-0.0162706
-0.0148856
-0.0162437
-0.0145509
-0.0164899
-0.0138971
-0.0170807
-0.0127808
-0.0180922
-0.0110318
-0.0195732
-0.00845456
-0.0215782
-0.00482011
-0.0241453
-0.0264555
-0.0178731
-0.0233261
-0.01764
-0.0205095
-0.0176349
-0.0184209
-0.0177263
-0.0169225
-0.0178739
-0.0158781
-0.0180491
-0.0151769
-0.0182293
-0.0147467
-0.0183837
-0.0145505
-0.018464
-0.0145899
-0.0183906
-0.0149028
-0.0180494
-0.0155599
-0.0172902
-0.016665
-0.0159278
-0.0183255
-0.0137493
-0.0206156
-0.010524
-0.0236054
-0.00600152
-0.0273522
-0.0309683
-0.0199693
-0.0194742
-0.0199713
-0.0168705
-0.0201027
-0.0150582
-0.0203334
-0.0138595
-0.0206262
-0.013137
-0.0209579
-0.0127578
-0.0213067
-0.0126405
-0.0216401
-0.0127517
-0.021892
-0.01312
-0.0219537
-0.0138197
-0.0216717
-0.0149613
-0.0208497
-0.0166872
-0.0192541
-0.0191393
-0.0166264
-0.0224147
-0.0127054
-0.0265854
-0.00723556
-0.0317038
-0.0368454
-0.021747
-0.0156777
-0.02185
-0.0132309
-0.0221576
-0.0117058
-0.0225692
-0.0108818
-0.0230612
-0.0105344
-0.0236174
-0.0105129
-0.0242204
-0.0107281
-0.0248262
-0.0111643
-0.0253433
-0.0118898
-0.0256241
-0.0130286
-0.0254642
-0.014743
-0.0246112
-0.0172195
-0.022778
-0.0206323
-0.0196628
-0.0250929
-0.0149839
-0.0306543
-0.00850233
-0.0373287
-0.0441753
-0.0230041
-0.0117039
-0.0233009
-0.00960246
-0.0237939
-0.00846932
-0.0244312
-0.00806826
-0.0251882
-0.00813511
-0.0260542
-0.00849238
-0.0270111
-0.00904699
-0.0279938
-0.00982019
-0.0288758
-0.0109329
-0.0294587
-0.0125743
-0.0294749
-0.0149704
-0.0286058
-0.0183561
-0.0265079
-0.0229298
-0.022844
-0.028798
-0.0173298
-0.0359646
-0.00977092
-0.0443578
-0.0530175
-0.0237998
-0.00795599
-0.0242796
-0.00611292
-0.0250171
-0.00541688
-0.0259431
-0.00549249
-0.0270459
-0.00600142
-0.0283229
-0.00674233
-0.0297463
-0.0076331
-0.0312235
-0.00874841
-0.0325795
-0.0102817
-0.0335495
-0.0125048
-0.0337881
-0.0157203
-0.0329002
-0.0202109
-0.0304857
-0.026182
-0.0261851
-0.0337036
-0.0197352
-0.0426906
-0.0110315
-0.0529226
-0.0634215
-0.02415
-0.0042843
-0.0248436
-0.00285799
-0.0258603
-0.00265099
-0.0271489
-0.00322627
-0.0287015
-0.00418176
-0.0305146
-0.00529317
-0.0325418
-0.00650482
-0.0346497
-0.00796472
-0.0365973
-0.00996368
-0.0380333
-0.0128768
-0.0385191
-0.0170909
-0.0375779
-0.0229279
-0.0347574
-0.0305731
-0.0296957
-0.0400148
-0.022191
-0.0510201
-0.0122704
-0.0631549
-0.0754206
-0.0241339
-0.00106867
-0.025074
6.27087e-05
-0.0264459
-0.000238381
-0.0281885
-0.00132951
-0.030303
-0.00272126
-0.0327794
-0.00417749
-0.0355418
-0.00568932
-0.0383996
-0.0075035
-0.0410269
-0.0100355
-0.0429692
-0.0137826
-0.0436827
-0.0192201
-0.0426051
-0.0266922
-0.0392371
-0.036331
-0.033241
-0.0479769
-0.0245278
-0.0611668
-0.0133345
-0.075163
-0.0888905
-0.155852
-0.13958
0.163394
-0.148235
-0.156228
-0.139938
-0.172986
-0.131622
-0.189401
-0.122605
-0.205129
-0.113693
-0.219678
-0.104146
-0.232692
-0.094884
-0.243794
-0.0851196
-0.252678
-0.0758173
-0.259178
-0.0661869
-0.263115
-0.0571394
-0.264506
-0.0481496
-0.263155
-0.0397938
-0.259545
-0.0318231
-0.253552
-0.0244748
-0.245628
-0.017821
-0.23585
-0.0118306
-0.224465
-0.00666108
-0.211749
-0.00217383
-0.197903
0.00143005
-0.183345
0.00431363
-0.168141
0.00638597
-0.152705
0.00774604
-0.13717
0.00841837
-0.121871
0.00844644
-0.107053
0.00793907
-0.092946
0.00690981
-0.0798328
0.00554944
-0.0678597
0.00384145
-0.057234
0.00203622
-0.048035
0.000103474
-0.0403432
-0.00167354
-0.0341517
-0.0033374
-0.0294108
-0.00457602
-0.0260178
-0.00546562
-0.0238122
-0.00567176
-0.0226136
-0.00531131
-0.0222143
-0.00402431
-0.0223861
-0.00202135
-0.0228971
-0.0235651
-0.130209
-0.145024
0.135699
-0.124272
-0.161802
-0.117921
-0.178689
-0.111146
-0.195282
-0.104005
-0.211174
-0.0965352
-0.225896
-0.0887991
-0.239073
-0.0808936
-0.250293
-0.0728561
-0.25931
-0.0648177
-0.265861
-0.0568039
-0.269873
-0.0490043
-0.271195
-0.0413932
-0.269841
-0.0341955
-0.26604
-0.0273774
-0.259919
-0.0210876
-0.251746
-0.0153547
-0.241709
-0.0102378
-0.230022
-0.00578068
-0.216969
-0.00198313
-0.20279
0.00108725
-0.187827
0.00349051