/*--------------------------------*- C++ -*----------------------------------*\
  =========                 |
  \\      /  F ield         | OpenFOAM: The Open Source CFD Toolbox
   \\    /   O peration     | Website:  https://openfoam.org
    \\  /    A nd           | Version:  6
     \\/     M anipulation  |
\*---------------------------------------------------------------------------*/
FoamFile
{
    version     2.0;
    format      ascii;
    class       volScalarField;
    location    "1.56";
    object      rho;
}
// * * * * * * * * * * * * * * * * * * * * * * * * * * * * * * * * * * * * * //

dimensions      [1 -3 0 0 0 0 0];

internalField   nonuniform List<scalar> 
5625
(
1.29999
1.23455
1.16269
1.08832
1.0155
0.948025
0.889192
0.841647
0.807358
0.787518
0.782472
0.791837
0.814846
0.850749
0.898897
0.958303
1.02701
1.10177
1.17821
1.25146
1.31683
1.37055
1.41047
1.43632
1.44962
1.45311
1.44997
1.44317
1.43499
1.42698
1.41997
1.41428
1.40993
1.40675
1.4045
1.40297
1.40194
1.40127
1.40084
1.40056
1.40038
1.40026
1.40018
1.40013
1.40009
1.40006
1.40004
1.40003
1.40002
1.40002
1.40001
1.40001
1.40001
1.40001
1.40001
1.40001
1.40001
1.40001
1.40001
1.40001
1.40001
1.40001
1.40001
1.40001
1.40001
1.40001
1.40001
1.40001
1.40001
1.40001
1.40001
1.40001
1.40001
1.40001
1.40001
1.32499
1.26642
1.20134
1.13333
1.06619
1.00355
0.948682
0.904231
0.872204
0.853786
0.849314
0.858448
0.880455
0.914557
0.959978
1.01554
1.07916
1.14765
1.21695
1.28261
1.34042
1.38714
1.42099
1.44201
1.4518
1.45303
1.44865
1.44135
1.43315
1.42537
1.41868
1.41332
1.40925
1.40629
1.40421
1.40279
1.40184
1.40122
1.40082
1.40055
1.40038
1.40026
1.40018
1.40013
1.40009
1.40007
1.40005
1.40003
1.40002
1.40002
1.40001
1.40001
1.40001
1.40001
1.40001
1.40001
1.40001
1.40001
1.40001
1.40001
1.40001
1.40001
1.40001
1.40001
1.40001
1.40001
1.40001
1.40001
1.40001
1.40001
1.40001
1.40001
1.40001
1.40001
1.40001
1.35003
1.29878
1.24103
1.18001
1.11921
1.06208
1.01176
0.970901
0.941454
0.924558
0.920576
0.929234
0.949867
0.98169
1.02382
1.07491
1.13283
1.19448
1.25611
1.31373
1.36365
1.40311
1.43078
1.44694
1.45329
1.45236
1.44688
1.4392
1.43108
1.42359
1.41728
1.41229
1.40853
1.40581
1.4039
1.4026
1.40173
1.40116
1.40079
1.40054
1.40037
1.40026
1.40019
1.40013
1.4001
1.40007
1.40005
1.40003
1.40003
1.40002
1.40001
1.40001
1.40001
1.40001
1.40001
1.40001
1.40001
1.40001
1.40001
1.40001
1.40001
1.40001
1.40001
1.40001
1.40001
1.40001
1.40001
1.40001
1.40001
1.40001
1.40001
1.40001
1.40001
1.40001
1.40001
1.37413
1.33048
1.28047
1.22692
1.17301
1.12194
1.07671
1.03983
1.01318
0.997858
0.994271
1.00223
1.02115
1.05026
1.08857
1.13466
1.18634
1.2407
1.29432
1.34367
1.38557
1.41776
1.43932
1.45079
1.4539
1.45104
1.44463
1.43673
1.4288
1.42169
1.41581
1.41121
1.40777
1.4053
1.40358
1.4024
1.40161
1.40109
1.40075
1.40052
1.40037
1.40026
1.40019
1.40013
1.4001
1.40007
1.40005
1.40004
1.40003
1.40002
1.40001
1.40001
1.40001
1.40001
1.40001
1.40001
1.40001
1.40001
1.40001
1.40001
1.40001
1.40001
1.40001
1.40001
1.40001
1.40001
1.40001
1.40001
1.40001
1.40001
1.40001
1.40001
1.40001
1.40001
1.40001
1.39635
1.36036
1.31826
1.27249
1.22583
1.18123
1.14144
1.10883
1.08512
1.07141
1.06815
1.07525
1.09217
1.11819
1.15228
1.19294
1.23802
1.28483
1.3303
1.37137
1.40534
1.43047
1.44621
1.45332
1.45353
1.44903
1.44194
1.43399
1.42636
1.41971
1.41429
1.4101
1.407
1.40478
1.40324
1.40219
1.40149
1.40102
1.40071
1.4005
1.40035
1.40025
1.40018
1.40013
1.4001
1.40007
1.40005
1.40004
1.40003
1.40002
1.40001
1.40001
1.40001
1.40001
1.40001
1.40001
1.40001
1.40001
1.40001
1.40001
1.40001
1.40001
1.40001
1.40001
1.40001
1.40001
1.40001
1.40001
1.40001
1.40001
1.40001
1.40001
1.40001
1.40001
1.40001
1.41583
1.38734
1.35309
1.31512
1.27587
1.23793
1.20378
1.17556
1.15488
1.14282
1.13987
1.14599
1.16074
1.18341
1.21299
1.24796
1.28628
1.32548
1.36289
1.39588
1.42227
1.44074
1.45114
1.45438
1.45213
1.44635
1.43885
1.43103
1.42382
1.41768
1.41276
1.409
1.40624
1.40427
1.40291
1.40198
1.40136
1.40094
1.40066
1.40047
1.40034
1.40025
1.40018
1.40013
1.40009
1.40007
1.40005
1.40003
1.40003
1.40002
1.40001
1.40001
1.40001
1.40001
1.40001
1.40001
1.40001
1.40001
1.40001
1.40001
1.40001
1.40001
1.40001
1.40001
1.40001
1.40001
1.40001
1.40001
1.40001
1.40001
1.40001
1.40001
1.40001
1.40001
1.40001
1.43195
1.41053
1.3838
1.35342
1.32145
1.29012
1.26161
1.2378
1.22019
1.20982
1.20718
1.21228
1.22476
1.24398
1.26893
1.29813
1.32972
1.3615
1.39115
1.41649
1.43582
1.44827
1.45397
1.45394
1.44974
1.44308
1.43544
1.42794
1.42124
1.41565
1.41125
1.40792
1.40549
1.40377
1.40258
1.40178
1.40123
1.40086
1.40061
1.40044
1.40032
1.40024
1.40017
1.40012
1.40009
1.40007
1.40005
1.40003
1.40002
1.40002
1.40001
1.40001
1.40001
1.40001
1.40001
1.40001
1.40001
1.40001
1.40001
1.40001
1.40001
1.40001
1.40001
1.40001
1.40001
1.40001
1.40001
1.40001
1.40001
1.40001
1.40001
1.40001
1.40001
1.40001
1.40001
1.44431
1.42931
1.40953
1.38628
1.36122
1.33624
1.31317
1.29367
1.27911
1.27042
1.26811
1.27222
1.28246
1.29824
1.31859
1.34216
1.36725
1.39198
1.41438
1.43271
1.44572
1.45292
1.45469
1.45208
1.44648
1.43934
1.43182
1.42478
1.41867
1.41368
1.40979
1.40688
1.40478
1.4033
1.40227
1.40157
1.4011
1.40078
1.40056
1.40041
1.4003
1.40022
1.40016
1.40012
1.40009
1.40006
1.40005
1.40003
1.40002
1.40002
1.40001
1.40001
1.40001
1.40001
1.40001
1.40001
1.40001
1.40001
1.40001
1.40001
1.40001
1.40001
1.40001
1.40001
1.40001
1.40001
1.40001
1.40001
1.40001
1.40001
1.40001
1.40001
1.40001
1.40001
1.40001
1.45275
1.44337
1.4298
1.41299
1.39427
1.37516
1.3572
1.34181
1.33017
1.32314
1.32116
1.32432
1.33242
1.3449
1.36087
1.37909
1.39812
1.41636
1.43222
1.44437
1.45194
1.45481
1.45348
1.44898
1.44252
1.43527
1.42811
1.42164
1.41617
1.41178
1.40841
1.40591
1.40411
1.40285
1.40198
1.40138
1.40098
1.40071
1.40051
1.40038
1.40028
1.40021
1.40015
1.40011
1.40008
1.40006
1.40004
1.40003
1.40002
1.40002
1.40001
1.40001
1.40001
1.40001
1.40001
1.40001
1.40001
1.40001
1.40001
1.40001
1.40001
1.40001
1.40001
1.40001
1.40001
1.40001
1.40001
1.40001
1.40001
1.40001
1.40001
1.40001
1.40001
1.40001
1.40001
1.45739
1.4527
1.44445
1.43328
1.42017
1.40633
1.39301
1.38139
1.37247
1.36698
1.36534
1.36767
1.37378
1.38319
1.39509
1.40842
1.42198
1.43447
1.44465
1.45155
1.4547
1.45418
1.45061
1.44491
1.43809
1.43103
1.42441
1.41861
1.41381
1.41001
1.40713
1.40501
1.40349
1.40244
1.40171
1.40121
1.40087
1.40063
1.40046
1.40035
1.40026
1.40019
1.40014
1.40011
1.40008
1.40006
1.40004
1.40003
1.40002
1.40002
1.40001
1.40001
1.40001
1.40001
1.40001
1.40001
1.40001
1.40001
1.40001
1.40001
1.40001
1.40001
1.40001
1.40001
1.40001
1.40001
1.40001
1.40001
1.40001
1.40001
1.40001
1.40001
1.40001
1.40001
1.40001
1.45854
1.45759
1.4537
1.44725
1.43894
1.42967
1.42041
1.41213
1.40563
1.40155
1.40025
1.40184
1.40616
1.4128
1.42106
1.43009
1.4389
1.44649
1.45195
1.45466
1.45441
1.45148
1.44647
1.44018
1.43341
1.4268
1.42083
1.41574
1.41161
1.40838
1.40596
1.40419
1.40294
1.40206
1.40146
1.40104
1.40076
1.40056
1.40042
1.40031
1.40024
1.40018
1.40013
1.4001
1.40007
1.40005
1.40004
1.40003
1.40002
1.40002
1.40001
1.40001
1.40001
1.40001
1.40001
1.40001
1.40001
1.40001
1.40001
1.40001
1.40001
1.40001
1.40001
1.40001
1.40001
1.40001
1.40001
1.40001
1.40001
1.40001
1.40001
1.40001
1.40001
1.40001
1.40001
1.45676
1.45857
1.45805
1.45537
1.45097
1.4455
1.43967
1.43423
1.42983
1.42697
1.42596
1.42692
1.42969
1.43392
1.43907
1.44446
1.44934
1.45297
1.45474
1.45431
1.45169
1.44722
1.44147
1.4351
1.42869
1.42272
1.41748
1.41311
1.40961
1.40692
1.40491
1.40346
1.40244
1.40172
1.40123
1.40089
1.40066
1.40049
1.40037
1.40028
1.40021
1.40016
1.40012
1.40009
1.40007
1.40005
1.40004
1.40003
1.40002
1.40001
1.40001
1.40001
1.40001
1.40001
1.40001
1.40001
1.40001
1.40001
1.40001
1.40001
1.40001
1.40001
1.40001
1.40001
1.40001
1.40001
1.40001
1.40001
1.40001
1.40001
1.40001
1.40001
1.40001
1.40001
1.40001
1.45273
1.45636
1.45825
1.45839
1.45701
1.45454
1.45147
1.44835
1.44568
1.44384
1.44309
1.4435
1.44497
1.44721
1.44982
1.4523
1.45412
1.45475
1.45385
1.45128
1.4472
1.44196
1.43604
1.42996
1.42414
1.4189
1.41441
1.41073
1.40783
1.40563
1.404
1.40282
1.402
1.40143
1.40103
1.40076
1.40057
1.40043
1.40033
1.40025
1.40019
1.40014
1.40011
1.40008
1.40006
1.40004
1.40003
1.40002
1.40002
1.40001
1.40001
1.40001
1.40001
1.40001
1.40001
1.40001
1.40001
1.40001
1.40001
1.40001
1.40001
1.40001
1.40001
1.40001
1.40001
1.40001
1.40001
1.40001
1.40001
1.40001
1.40001
1.40001
1.40001
1.40001
1.40001
1.4472
1.45183
1.45524
1.4573
1.45809
1.45783
1.45685
1.45552
1.4542
1.45316
1.45261
1.45259
1.45303
1.45373
1.45442
1.45473
1.45431
1.45287
1.45023
1.44642
1.44163
1.43621
1.43054
1.42501
1.4199
1.41542
1.41167
1.40864
1.40628
1.4045
1.4032
1.40227
1.40162
1.40117
1.40086
1.40064
1.40048
1.40037
1.40029
1.40022
1.40017
1.40013
1.4001
1.40007
1.40005
1.40004
1.40003
1.40002
1.40002
1.40001
1.40001
1.40001
1.40001
1.40001
1.40001
1.40001
1.40001
1.40001
1.40001
1.40001
1.40001
1.40001
1.40001
1.40001
1.40001
1.40001
1.40001
1.40001
1.40001
1.40001
1.40001
1.40001
1.40001
1.40001
1.40001
1.44089
1.44587
1.45003
1.45322
1.45539
1.45662
1.45711
1.45706
1.45671
1.45628
1.45587
1.45553
1.45523
1.45484
1.45417
1.45301
1.45115
1.44845
1.44486
1.4405
1.43559
1.43041
1.42526
1.42042
1.41608
1.41235
1.40928
1.40683
1.40495
1.40355
1.40253
1.40181
1.4013
1.40095
1.40071
1.40053
1.40041
1.40032
1.40025
1.40019
1.40015
1.40011
1.40009
1.40007
1.40005
1.40004
1.40003
1.40002
1.40002
1.40001
1.40001
1.40001
1.40001
1.40001
1.40001
1.40001
1.40001
1.40001
1.40001
1.40001
1.40001
1.40001
1.40001
1.40001
1.40001
1.40001
1.40001
1.40001
1.40001
1.40001
1.40001
1.40001
1.40001
1.40001
1.40001
1.43441
1.43925
1.4436
1.44726
1.45016
1.45226
1.45364
1.45442
1.45473
1.45469
1.45439
1.45386
1.45309
1.452
1.4505
1.44847
1.44582
1.44251
1.43859
1.4342
1.42956
1.42489
1.42042
1.41632
1.41273
1.4097
1.40724
1.40531
1.40384
1.40275
1.40197
1.40142
1.40103
1.40076
1.40058
1.40044
1.40034
1.40027
1.40021
1.40017
1.40013
1.4001
1.40008
1.40006
1.40004
1.40003
1.40002
1.40002
1.40001
1.40001
1.40001
1.40001
1.40001
1.40001
1.40001
1.40001
1.40001
1.40001
1.40001
1.40001
1.40001
1.40001
1.40001
1.40001
1.40001
1.40001
1.40001
1.40001
1.40001
1.40001
1.40001
1.40001
1.40001
1.40001
1.40001
1.42824
1.43262
1.43675
1.44043
1.44354
1.44602
1.44785
1.44908
1.44976
1.44996
1.44974
1.44911
1.44808
1.44664
1.44473
1.44231
1.43937
1.43594
1.43212
1.42805
1.42391
1.41988
1.41613
1.41277
1.40987
1.40747
1.40554
1.40405
1.40292
1.4021
1.40151
1.40109
1.40081
1.40061
1.40047
1.40036
1.40029
1.40023
1.40018
1.40014
1.40011
1.40009
1.40007
1.40005
1.40004
1.40003
1.40002
1.40002
1.40001
1.40001
1.40001
1.40001
1.40001
1.40001
1.40001
1.40001
1.40001
1.40001
1.40001
1.40001
1.40001
1.40001
1.40001
1.40001
1.40001
1.40001
1.40001
1.40001
1.40001
1.40001
1.40001
1.40001
1.40001
1.40001
1.40001
1.42265
1.42644
1.4301
1.4335
1.43649
1.43897
1.44092
1.44231
1.44315
1.44347
1.4433
1.44266
1.44156
1.44
1.43798
1.43552
1.43264
1.42941
1.42595
1.42238
1.41886
1.41551
1.41246
1.40977
1.4075
1.40563
1.40416
1.40302
1.40218
1.40157
1.40113
1.40083
1.40062
1.40048
1.40037
1.4003
1.40024
1.40019
1.40015
1.40012
1.4001
1.40007
1.40006
1.40004
1.40003
1.40003
1.40002
1.40001
1.40001
1.40001
1.40001
1.40001
1.40001
1.40001
1.40001
1.40001
1.40001
1.40001
1.40001
1.40001
1.40001
1.40001
1.40001
1.40001
1.40001
1.40001
1.40001
1.40001
1.40001
1.40001
1.40001
1.40001
1.40001
1.40001
1.40001
1.41781
1.42095
1.42405
1.427
1.42966
1.43195
1.43378
1.43514
1.43599
1.43634
1.43621
1.4356
1.43454
1.43303
1.43112
1.42883
1.42622
1.42337
1.42039
1.4174
1.41451
1.41182
1.4094
1.40731
1.40556
1.40415
1.40305
1.40221
1.40159
1.40115
1.40084
1.40062
1.40048
1.40037
1.4003
1.40024
1.40019
1.40016
1.40013
1.4001
1.40008
1.40006
1.40005
1.40004
1.40003
1.40002
1.40002
1.40001
1.40001
1.40001
1.40001
1.40001
1.40001
1.40001
1.40001
1.40001
1.40001
1.40001
1.40001
1.40001
1.40001
1.40001
1.40001
1.40001
1.40001
1.40001
1.40001
1.40001
1.40001
1.40001
1.40001
1.40001
1.40001
1.40001
1.40001
1.41375
1.41628
1.4188
1.42124
1.4235
1.42545
1.42707
1.42828
1.42905
1.42938
1.42927
1.42872
1.42776
1.42641
1.4247
1.4227
1.42046
1.41807
1.41561
1.41319
1.4109
1.40879
1.40693
1.40534
1.40403
1.40298
1.40217
1.40157
1.40113
1.40082
1.40061
1.40046
1.40036
1.40029
1.40023
1.40019
1.40016
1.40013
1.40011
1.40009
1.40007
1.40005
1.40004
1.40003
1.40002
1.40002
1.40001
1.40001
1.40001
1.40001
1.40001
1.40001
1.40001
1.40001
1.40001
1.40001
1.40001
1.40001
1.40001
1.40001
1.40001
1.40001
1.40001
1.40001
1.40001
1.40001
1.40001
1.40001
1.40001
1.40001
1.40001
1.40001
1.40001
1.40001
1.40001
1.41046
1.41242
1.41443
1.41637
1.41819
1.4198
1.42113
1.42214
1.42279
1.42306
1.42296
1.42249
1.42165
1.4205
1.41906
1.41738
1.41554
1.4136
1.41165
1.40976
1.40798
1.40637
1.40497
1.4038
1.40284
1.40209
1.40151
1.40109
1.40078
1.40057
1.40043
1.40033
1.40026
1.40022
1.40018
1.40015
1.40013
1.40011
1.40009
1.40007
1.40006
1.40005
1.40004
1.40003
1.40002
1.40002
1.40001
1.40001
1.40001
1.40001
1.40001
1.40001
1.40001
1.40001
1.40001
1.40001
1.40001
1.40001
1.40001
1.40001
1.40001
1.40001
1.40001
1.40001
1.40001
1.40001
1.40001
1.40001
1.40001
1.40001
1.40001
1.40001
1.40001
1.40001
1.40001
1.40784
1.40935
1.41088
1.41239
1.4138
1.41506
1.41612
1.41692
1.41743
1.41765
1.41755
1.41714
1.41644
1.41549
1.41431
1.41297
1.4115
1.40998
1.40847
1.40702
1.40569
1.4045
1.40347
1.40262
1.40193
1.4014
1.40101
1.40072
1.40052
1.40038
1.40029
1.40023
1.40019
1.40016
1.40014
1.40012
1.4001
1.40009
1.40007
1.40006
1.40005
1.40004
1.40003
1.40002
1.40002
1.40001
1.40001
1.40001
1.40001
1.40001
1.40001
1.40001
1.40001
1.40001
1.40001
1.40001
1.40001
1.40001
1.40001
1.40001
1.40001
1.40001
1.40001
1.40001
1.40001
1.40001
1.40001
1.40001
1.40001
1.40001
1.40001
1.40001
1.40001
1.40001
1.40001
1.40582
1.40693
1.40809
1.40922
1.41029
1.41125
1.41205
1.41266
1.41304
1.41318
1.41308
1.41274
1.41218
1.41141
1.41048
1.40942
1.40829
1.40713
1.406
1.40492
1.40393
1.40307
1.40234
1.40174
1.40127
1.40091
1.40064
1.40046
1.40033
1.40025
1.40019
1.40016
1.40014
1.40012
1.4001
1.40009
1.40008
1.40007
1.40006
1.40005
1.40004
1.40003
1.40003
1.40002
1.40002
1.40001
1.40001
1.40001
1.40001
1.40001
1.40001
1.40001
1.40001
1.40001
1.40001
1.40001
1.40001
1.40001
1.40001
1.40001
1.40001
1.40001
1.40001
1.40001
1.40001
1.40001
1.40001
1.40001
1.40001
1.40001
1.40001
1.40001
1.40001
1.40001
1.40001
1.40427
1.40509
1.40594
1.40676
1.40755
1.40826
1.40884
1.40928
1.40956
1.40964
1.40954
1.40926
1.4088
1.4082
1.40748
1.40668
1.40582
1.40496
1.40412
1.40333
1.40263
1.40202
1.40151
1.4011
1.40078
1.40055
1.40038
1.40027
1.40019
1.40015
1.40012
1.4001
1.40009
1.40009
1.40008
1.40007
1.40006
1.40005
1.40005
1.40004
1.40003
1.40003
1.40002
1.40002
1.40001
1.40001
1.40001
1.40001
1.40001
1.40001
1.40001
1.40001
1.40001
1.40001
1.40001
1.40001
1.40001
1.40001
1.40001
1.40001
1.40001
1.40001
1.40001
1.40001
1.40001
1.40001
1.40001
1.40001
1.40001
1.40001
1.40001
1.40001
1.40001
1.40001
1.40001
1.40312
1.4037
1.40431
1.40491
1.40547
1.40597
1.40639
1.40669
1.40686
1.40691
1.40681
1.40657
1.40622
1.40575
1.40521
1.4046
1.40397
1.40334
1.40273
1.40218
1.40168
1.40126
1.40092
1.40065
1.40044
1.4003
1.4002
1.40014
1.4001
1.40008
1.40007
1.40007
1.40006
1.40006
1.40006
1.40005
1.40005
1.40004
1.40004
1.40003
1.40003
1.40002
1.40002
1.40001
1.40001
1.40001
1.40001
1.40001
1.40001
1.40001
1.40001
1.40001
1.40001
1.40001
1.40001
1.40001
1.40001
1.40001
1.40001
1.40001
1.40001
1.40001
1.40001
1.40001
1.40001
1.40001
1.40001
1.40001
1.40001
1.40001
1.40001
1.40001
1.40001
1.40001
1.40001
1.40227
1.40269
1.40311
1.40352
1.40392
1.40426
1.40454
1.40475
1.40486
1.40486
1.40476
1.40457
1.40429
1.40393
1.40352
1.40308
1.40262
1.40216
1.40174
1.40135
1.40101
1.40073
1.40051
1.40034
1.40021
1.40013
1.40008
1.40005
1.40003
1.40003
1.40003
1.40004
1.40004
1.40004
1.40004
1.40004
1.40004
1.40003
1.40003
1.40003
1.40002
1.40002
1.40001
1.40001
1.40001
1.40001
1.40001
1.40001
1.40001
1.40001
1.40001
1.40001
1.40001
1.40001
1.40001
1.40001
1.40001
1.40001
1.40001
1.40001
1.40001
1.40001
1.40001
1.40001
1.40001
1.40001
1.40001
1.40001
1.40001
1.40001
1.40001
1.40001
1.40001
1.40001
1.40001
1.40164
1.40194
1.40223
1.40252
1.40278
1.40301
1.40319
1.40331
1.40337
1.40335
1.40326
1.4031
1.40289
1.40262
1.40231
1.40199
1.40166
1.40134
1.40105
1.40078
1.40056
1.40037
1.40023
1.40013
1.40006
1.40002
1.4
1.39999
1.4
1.4
1.40001
1.40002
1.40002
1.40003
1.40003
1.40003
1.40003
1.40003
1.40002
1.40002
1.40002
1.40002
1.40001
1.40001
1.40001
1.40001
1.40001
1.40001
1.40001
1.40001
1.40001
1.40001
1.40001
1.40001
1.40001
1.4
1.4
1.40001
1.40001
1.40001
1.40001
1.40001
1.40001
1.40001
1.40001
1.40001
1.40001
1.40001
1.40001
1.40001
1.40001
1.40001
1.40001
1.40001
1.40001
1.4012
1.4014
1.40159
1.40179
1.40197
1.40211
1.40222
1.40229
1.40231
1.40227
1.40219
1.40206
1.40189
1.40169
1.40146
1.40123
1.401
1.40078
1.40058
1.4004
1.40026
1.40015
1.40006
1.40001
1.39997
1.39996
1.39995
1.39996
1.39997
1.39998
1.39999
1.40001
1.40001
1.40002
1.40002
1.40002
1.40002
1.40002
1.40002
1.40002
1.40001
1.40001
1.40001
1.40001
1.40001
1.40001
1.40001
1.40001
1.40001
1.40001
1.40001
1.40001
1.40001
1.40001
1.40001
1.40001
1.40001
1.40001
1.40001
1.40001
1.40001
1.40001
1.40001
1.40001
1.40001
1.40001
1.40001
1.40001
1.40001
1.40001
1.40001
1.40001
1.40001
1.40001
1.40001
1.40087
1.40102
1.40114
1.40127
1.40138
1.40147
1.40153
1.40156
1.40156
1.40152
1.40144
1.40134
1.40121
1.40105
1.40089
1.40072
1.40056
1.40041
1.40027
1.40016
1.40007
1.4
1.39996
1.39993
1.39992
1.39992
1.39993
1.39994
1.39996
1.39997
1.39999
1.4
1.40001
1.40001
1.40001
1.40002
1.40002
1.40002
1.40001
1.40001
1.40001
1.40001
1.40001
1.40001
1.40001
1.40001
1.40001
1.40001
1.40001
1.40001
1.40001
1.40001
1.40001
1.40001
1.40001
1.40001
1.40001
1.40001
1.40001
1.40001
1.40001
1.40001
1.40001
1.40001
1.40001
1.40001
1.40001
1.40001
1.40001
1.40001
1.40001
1.40001
1.40001
1.40001
1.40001
1.40064
1.40073
1.40083
1.40091
1.40097
1.40102
1.40105
1.40106
1.40104
1.401
1.40093
1.40085
1.40074
1.40063
1.40051
1.40039
1.40028
1.40017
1.40008
1.40001
1.39996
1.39993
1.3999
1.3999
1.3999
1.39991
1.39992
1.39994
1.39995
1.39997
1.39998
1.39999
1.4
1.40001
1.40001
1.40001
1.40001
1.40001
1.40001
1.40001
1.40001
1.40001
1.40001
1.40001
1.40001
1.40001
1.40001
1.40001
1.40001
1.40001
1.40001
1.40001
1.40001
1.40001
1.40001
1.40001
1.40001
1.40001
1.40001
1.40001
1.40001
1.40001
1.40001
1.40001
1.40001
1.40001
1.40001
1.40001
1.40001
1.40001
1.40001
1.40001
1.40001
1.40001
1.40001
1.40048
1.40054
1.4006
1.40065
1.40069
1.40071
1.40072
1.40072
1.40069
1.40065
1.40059
1.40052
1.40044
1.40035
1.40027
1.40018
1.4001
1.40003
1.39998
1.39993
1.3999
1.39988
1.39988
1.39988
1.39989
1.3999
1.39992
1.39994
1.39995
1.39997
1.39998
1.39999
1.4
1.4
1.40001
1.40001
1.40001
1.40001
1.40001
1.40001
1.40001
1.40001
1.40001
1.40001
1.40001
1.40001
1.40001
1.40001
1.40001
1.40001
1.40001
1.40001
1.40001
1.40001
1.40001
1.40001
1.40001
1.40001
1.40001
1.40001
1.40001
1.40001
1.40001
1.40001
1.40001
1.40001
1.40001
1.40001
1.40001
1.40001
1.40001
1.40001
1.40001
1.40001
1.40001
1.40036
1.4004
1.40044
1.40047
1.40049
1.4005
1.4005
1.40048
1.40046
1.40042
1.40037
1.40031
1.40025
1.40018
1.40012
1.40005
1.4
1.39996
1.39992
1.39989
1.39988
1.39987
1.39987
1.39988
1.39989
1.39991
1.39993
1.39994
1.39996
1.39997
1.39998
1.39999
1.4
1.4
1.40001
1.40001
1.40001
1.40001
1.40001
1.40001
1.40001
1.40001
1.40001
1.40001
1.40001
1.40001
1.40001
1.40001
1.40001
1.4
1.4
1.4
1.40001
1.40001
1.40001
1.40001
1.40001
1.40001
1.40001
1.40001
1.40001
1.40001
1.40001
1.40001
1.40001
1.40001
1.40001
1.40001
1.40001
1.40001
1.40001
1.40001
1.40001
1.40001
1.40001
1.40028
1.4003
1.40032
1.40034
1.40035
1.40036
1.40035
1.40033
1.4003
1.40027
1.40023
1.40018
1.40013
1.40008
1.40003
1.39999
1.39995
1.39992
1.3999
1.39988
1.39987
1.39988
1.39988
1.39989
1.3999
1.39992
1.39993
1.39995
1.39996
1.39997
1.39998
1.39999
1.4
1.4
1.4
1.40001
1.40001
1.40001
1.40001
1.40001
1.40001
1.40001
1.40001
1.40001
1.40001
1.40001
1.40001
1.40001
1.40001
1.40001
1.40001
1.40001
1.40001
1.40001
1.40001
1.40001
1.40001
1.40001
1.40001
1.40001
1.40001
1.40001
1.40001
1.40001
1.40001
1.40001
1.40001
1.40001
1.40001
1.40001
1.40001
1.40001
1.40001
1.40001
1.40001
1.40021
1.40023
1.40024
1.40025
1.40026
1.40025
1.40024
1.40023
1.4002
1.40017
1.40014
1.4001
1.40006
1.40002
1.39998
1.39995
1.39993
1.39991
1.39989
1.39989
1.39988
1.39989
1.39989
1.3999
1.39992
1.39993
1.39995
1.39996
1.39997
1.39998
1.39999
1.39999
1.4
1.4
1.4
1.4
1.40001
1.40001
1.40001
1.40001
1.40001
1.40001
1.40001
1.40001
1.40001
1.40001
1.40001
1.40001
1.40001
1.40001
1.40001
1.40001
1.40001
1.40001
1.40001
1.40001
1.40001
1.40001
1.40001
1.40001
1.40001
1.40001
1.40001
1.40001
1.40001
1.40001
1.40001
1.40001
1.40001
1.40001
1.40001
1.40001
1.40001
1.40001
1.40001
1.40016
1.40018
1.40018
1.40019
1.40019
1.40018
1.40017
1.40016
1.40014
1.40011
1.40008
1.40005
1.40002
1.39999
1.39997
1.39994
1.39992
1.39991
1.3999
1.3999
1.3999
1.3999
1.39991
1.39992
1.39993
1.39994
1.39995
1.39996
1.39997
1.39998
1.39999
1.39999
1.4
1.4
1.4
1.40001
1.40001
1.40001
1.40001
1.40001
1.40001
1.40001
1.40001
1.40001
1.40001
1.40001
1.40001
1.40001
1.40001
1.40001
1.40001
1.40001
1.40001
1.40001
1.40001
1.40001
1.40001
1.40001
1.40001
1.40001
1.40001
1.40001
1.40001
1.40001
1.40001
1.40001
1.40001
1.40001
1.40001
1.40001
1.40001
1.40001
1.40001
1.40001
1.40001
1.40013
1.40013
1.40014
1.40014
1.40014
1.40013
1.40012
1.40011
1.40009
1.40007
1.40005
1.40003
1.4
1.39998
1.39996
1.39994
1.39993
1.39992
1.39991
1.39991
1.39991
1.39992
1.39993
1.39993
1.39994
1.39995
1.39996
1.39997
1.39998
1.39999
1.39999
1.4
1.4
1.4
1.4
1.4
1.4
1.40001
1.40001
1.40001
1.40001
1.40001
1.40001
1.40001
1.40001
1.40001
1.40001
1.40001
1.40001
1.40001
1.40001
1.40001
1.40001
1.40001
1.40001
1.40001
1.40001
1.40001
1.40001
1.40001
1.40001
1.40001
1.40001
1.40001
1.40001
1.40001
1.40001
1.40001
1.40001
1.40001
1.40001
1.40001
1.40001
1.40001
1.40001
1.4001
1.4001
1.40011
1.40011
1.40011
1.4001
1.40009
1.40008
1.40006
1.40005
1.40003
1.40001
1.39999
1.39997
1.39996
1.39995
1.39994
1.39993
1.39993
1.39993
1.39993
1.39993
1.39994
1.39995
1.39996
1.39996
1.39997
1.39998
1.39998
1.39999
1.39999
1.4
1.4
1.4
1.4
1.4
1.4
1.4
1.4
1.40001
1.40001
1.40001
1.40001
1.40001
1.40001
1.40001
1.40001
1.40001
1.40001
1.40001
1.40001
1.40001
1.40001
1.40001
1.40001
1.40001
1.40001
1.40001
1.40001
1.40001
1.40001
1.40001
1.40001
1.40001
1.40001
1.40001
1.40001
1.40001
1.40001
1.40001
1.40001
1.40001
1.40001
1.40001
1.40001
1.40008
1.40008
1.40008
1.40008
1.40008
1.40008
1.40007
1.40006
1.40005
1.40003
1.40002
1.4
1.39999
1.39998
1.39996
1.39995
1.39995
1.39994
1.39994
1.39994
1.39994
1.39995
1.39995
1.39996
1.39996
1.39997
1.39998
1.39998
1.39999
1.39999
1.4
1.4
1.4
1.4
1.4
1.4
1.4
1.40001
1.40001
1.40001
1.40001
1.40001
1.40001
1.40001
1.40001
1.40001
1.40001
1.40001
1.40001
1.40001
1.40001
1.40001
1.4
1.4
1.4
1.40001
1.40001
1.40001
1.40001
1.40001
1.40001
1.40001
1.40001
1.40001
1.40001
1.40001
1.40001
1.40001
1.40001
1.40001
1.40001
1.40001
1.40001
1.40001
1.40001
1.40006
1.40006
1.40006
1.40006
1.40006
1.40006
1.40005
1.40004
1.40003
1.40002
1.40001
1.4
1.39999
1.39998
1.39997
1.39996
1.39996
1.39996
1.39995
1.39995
1.39996
1.39996
1.39996
1.39997
1.39997
1.39998
1.39998
1.39999
1.39999
1.4
1.4
1.4
1.4
1.4
1.4
1.4
1.4
1.40001
1.40001
1.40001
1.40001
1.40001
1.40001
1.40001
1.40001
1.40001
1.40001
1.4
1.4
1.40001
1.40001
1.40001
1.40001
1.40001
1.40001
1.40001
1.40001
1.40001
1.40001
1.40001
1.40001
1.40001
1.40001
1.40001
1.40001
1.40001
1.40001
1.40001
1.40001
1.40001
1.40001
1.40001
1.40001
1.40001
1.40001
1.40005
1.40005
1.40005
1.40005
1.40005
1.40004
1.40004
1.40003
1.40002
1.40002
1.40001
1.4
1.39999
1.39998
1.39998
1.39997
1.39997
1.39997
1.39997
1.39997
1.39997
1.39997
1.39997
1.39998
1.39998
1.39999
1.39999
1.39999
1.39999
1.4
1.4
1.4
1.4
1.4
1.4
1.4
1.4
1.4
1.4
1.40001
1.40001
1.40001
1.4
1.4
1.4
1.40001
1.40001
1.40001
1.40001
1.40001
1.4
1.4
1.4
1.4
1.4
1.40001
1.40001
1.40001
1.40001
1.40001
1.40001
1.40001
1.40001
1.40001
1.40001
1.40001
1.40001
1.40001
1.40001
1.40001
1.40001
1.40001
1.40001
1.40001
1.40001
1.40004
1.40004
1.40004
1.40004
1.40004
1.40003
1.40003
1.40002
1.40002
1.40001
1.40001
1.4
1.39999
1.39999
1.39998
1.39998
1.39998
1.39997
1.39997
1.39998
1.39998
1.39998
1.39998
1.39998
1.39999
1.39999
1.39999
1.39999
1.4
1.4
1.4
1.4
1.4
1.4
1.4
1.4
1.4
1.40001
1.4
1.4
1.4
1.4
1.40001
1.40001
1.40001
1.40001
1.4
1.4
1.40001
1.40001
1.40001
1.40001
1.40001
1.40001
1.40001
1.40001
1.40001
1.40001
1.40001
1.40001
1.40001
1.40001
1.40001
1.40001
1.40001
1.40001
1.40001
1.40001
1.40001
1.40001
1.40001
1.40001
1.40001
1.40001
1.40001
1.40003
1.40003
1.40003
1.40003
1.40003
1.40003
1.40002
1.40002
1.40001
1.40001
1.40001
1.4
1.4
1.39999
1.39999
1.39999
1.39998
1.39998
1.39998
1.39998
1.39998
1.39999
1.39999
1.39999
1.39999
1.39999
1.4
1.4
1.4
1.4
1.4
1.4
1.4
1.4
1.4
1.4
1.4
1.4
1.4
1.40001
1.40001
1.4
1.4
1.4
1.40001
1.40001
1.40001
1.40001
1.40001
1.4
1.4
1.4
1.4
1.4
1.40001
1.40001
1.40001
1.40001
1.40001
1.40001
1.40001
1.40001
1.40001
1.40001
1.40001
1.40001
1.40001
1.40001
1.40001
1.40001
1.40001
1.40001
1.40001
1.40001
1.40001
1.40002
1.40002
1.40002
1.40002
1.40002
1.40002
1.40002
1.40002
1.40001
1.40001
1.40001
1.4
1.4
1.39999
1.39999
1.39999
1.39999
1.39999
1.39999
1.39999
1.39999
1.39999
1.39999
1.39999
1.39999
1.4
1.4
1.4
1.4
1.4
1.4
1.4
1.4
1.4
1.4
1.4
1.4
1.40001
1.40001
1.40001
1.40001
1.40001
1.40001
1.40001
1.4
1.4
1.4
1.40001
1.40001
1.40001
1.40001
1.40001
1.40001
1.40001
1.40001
1.40001
1.40001
1.40001
1.40001
1.40001
1.40001
1.40001
1.40001
1.40001
1.40001
1.40001
1.40001
1.40001
1.40001
1.40001
1.40001
1.40001
1.40001
1.40001
1.40001
1.40002
1.40002
1.40002
1.40002
1.40002
1.40002
1.40001
1.40001
1.40001
1.40001
1.40001
1.4
1.4
1.4
1.4
1.39999
1.39999
1.39999
1.39999
1.39999
1.39999
1.39999
1.39999
1.4
1.4
1.4
1.4
1.4
1.4
1.4
1.4
1.4
1.4
1.4
1.4
1.4
1.4
1.40001
1.40001
1.40001
1.40001
1.40001
1.40001
1.40001
1.40001
1.40001
1.40001
1.40001
1.4
1.4
1.4
1.4
1.4
1.40001
1.40001
1.40001
1.40001
1.40001
1.40001
1.40001
1.40001
1.40001
1.40001
1.40001
1.40001
1.40001
1.40001
1.40001
1.40001
1.40001
1.40001
1.40001
1.40001
1.40001
1.40001
1.40001
1.40002
1.40001
1.40001
1.40001
1.40001
1.40001
1.40001
1.40001
1.40001
1.40001
1.4
1.4
1.4
1.4
1.4
1.4
1.4
1.4
1.4
1.4
1.4
1.4
1.4
1.4
1.4
1.4
1.4
1.4
1.4
1.4
1.4
1.4
1.4
1.4
1.40001
1.40001
1.40001
1.40001
1.4
1.4
1.4
1.40001
1.40001
1.40001
1.40001
1.40001
1.40001
1.40001
1.40001
1.40001
1.40001
1.40001
1.40001
1.40001
1.40001
1.40001
1.40001
1.40001
1.40001
1.40001
1.40001
1.40001
1.40001
1.40001
1.40001
1.40001
1.40001
1.40001
1.40001
1.40001
1.40001
1.40001
1.40001
1.40001
1.40001
1.40001
1.40001
1.40001
1.40001
1.40001
1.40001
1.40001
1.40001
1.40001
1.4
1.4
1.4
1.4
1.4
1.4
1.4
1.4
1.4
1.4
1.4
1.4
1.4
1.4
1.4
1.4
1.4
1.4
1.4
1.4
1.4
1.4
1.4
1.4
1.4
1.4
1.4
1.4
1.40001
1.4
1.4
1.4
1.4
1.4
1.40001
1.40001
1.40001
1.4
1.4
1.4
1.4
1.40001
1.40001
1.40001
1.40001
1.40001
1.40001
1.40001
1.40001
1.40001
1.40001
1.40001
1.40001
1.40001
1.40001
1.40001
1.40001
1.40001
1.40001
1.40001
1.40001
1.40001
1.40001
1.40001
1.40001
1.40001
1.40001
1.40001
1.40001
1.40001
1.40001
1.40001
1.40001
1.40001
1.40001
1.40001
1.4
1.4
1.4
1.4
1.4
1.4
1.4
1.4
1.4
1.4
1.4
1.4
1.4
1.4
1.4
1.4
1.4
1.4
1.4
1.4
1.4
1.4
1.4
1.4
1.4
1.4
1.4
1.4
1.4
1.40001
1.40001
1.40001
1.40001
1.40001
1.40001
1.40001
1.40001
1.40001
1.40001
1.40001
1.40001
1.40001
1.40001
1.40001
1.40001
1.40001
1.40001
1.40001
1.40001
1.40001
1.40001
1.40001
1.40001
1.40001
1.40001
1.40001
1.40001
1.40001
1.40001
1.40001
1.40001
1.40001
1.40001
1.40001
1.40001
1.40001
1.40001
1.40001
1.40001
1.40001
1.40001
1.40001
1.40001
1.40001
1.4
1.4
1.4
1.4
1.4
1.4
1.4
1.4
1.4
1.4
1.4
1.4
1.4
1.4
1.4
1.4
1.4
1.4
1.4
1.4
1.4
1.4
1.4
1.40001
1.40001
1.40001
1.40001
1.40001
1.4
1.4
1.4
1.4
1.40001
1.40001
1.40001
1.40001
1.40001
1.40001
1.40001
1.40001
1.40001
1.40001
1.40001
1.40001
1.40001
1.40001
1.40001
1.40001
1.40001
1.40001
1.40001
1.40001
1.40001
1.40001
1.40001
1.40001
1.40001
1.40001
1.40001
1.40001
1.40001
1.40001
1.40001
1.40001
1.40001
1.40001
1.40001
1.40001
1.40001
1.40001
1.40001
1.40001
1.40001
1.40001
1.40001
1.4
1.4
1.4
1.4
1.4
1.4
1.4
1.4
1.4
1.4
1.4
1.4
1.4
1.4
1.4
1.4
1.4
1.4
1.4
1.4
1.4
1.4
1.4
1.4
1.4
1.4
1.4
1.4
1.4
1.40001
1.40001
1.40001
1.40001
1.40001
1.40001
1.40001
1.40001
1.40001
1.40001
1.40001
1.40001
1.40001
1.40001
1.40001
1.40001
1.40001
1.40001
1.40001
1.40001
1.40001
1.40001
1.40001
1.40001
1.40001
1.40001
1.40001
1.40001
1.40001
1.40001
1.40001
1.40001
1.40001
1.40001
1.40001
1.40001
1.40001
1.40001
1.40001
1.40001
1.40001
1.40001
1.40001
1.40001
1.40001
1.40001
1.40001
1.4
1.4
1.4
1.4
1.4
1.4
1.4
1.4
1.4
1.4
1.4
1.4
1.4
1.4
1.4
1.4
1.4
1.4
1.4
1.4
1.40001
1.40001
1.40001
1.4
1.4
1.40001
1.40001
1.40001
1.40001
1.40001
1.40001
1.40001
1.40001
1.40001
1.40001
1.40001
1.40001
1.40001
1.40001
1.40001
1.40001
1.40001
1.40001
1.40001
1.40001
1.40001
1.40001
1.40001
1.40001
1.40001
1.40001
1.40001
1.40001
1.40001
1.40001
1.40001
1.40001
1.40001
1.40001
1.40001
1.40001
1.40001
1.40001
1.40001
1.40001
1.40001
1.40001
1.40001
1.40001
1.40001
1.40001
1.40001
1.40001
1.40001
1.4
1.4
1.4
1.4
1.4
1.4
1.4
1.4
1.4
1.4
1.4
1.4
1.4
1.4
1.4
1.4
1.4
1.4
1.40001
1.40001
1.40001
1.4
1.4
1.4
1.4
1.4
1.4
1.40001
1.40001
1.40001
1.4
1.4
1.40001
1.40001
1.40001
1.40001
1.40001
1.40001
1.40001
1.40001
1.40001
1.40001
1.40001
1.40001
1.40001
1.40001
1.40001
1.40001
1.40001
1.40001
1.40001
1.40001
1.40001
1.40001
1.40001
1.40001
1.40001
1.40001
1.40001
1.40001
1.40001
1.40001
1.40001
1.40001
1.40001
1.40001
1.40001
1.40001
1.40001
1.40001
1.40001
1.40001
1.40001
1.40001
1.40001
1.40001
1.4
1.4
1.4
1.4
1.4
1.4
1.4
1.4
1.4
1.4
1.4
1.4
1.4
1.4
1.4
1.4
1.4
1.40001
1.40001
1.40001
1.4
1.4
1.4
1.40001
1.40001
1.40001
1.40001
1.40001
1.40001
1.40001