/*--------------------------------*- C++ -*----------------------------------*\
  =========                 |
  \\      /  F ield         | OpenFOAM: The Open Source CFD Toolbox
   \\    /   O peration     | Website:  https://openfoam.org
    \\  /    A nd           | Version:  6
     \\/     M anipulation  |
\*---------------------------------------------------------------------------*/
FoamFile
{
    version     2.0;
    format      ascii;
    class       surfaceScalarField;
    location    "238";
    object      phi;
}
// * * * * * * * * * * * * * * * * * * * * * * * * * * * * * * * * * * * * * //

dimensions      [0 3 -1 0 0 0 0];

internalField   nonuniform List<scalar> 
862
(
0.00149187
0.00222791
-1.77885e-06
0.00148859
0.00222981
-1.27748e-06
0.00148538
0.00222631
-5.44993e-07
0.00148225
0.00221738
-2.58038e-07
0.00147918
0.00220521
-5.34125e-07
0.00147628
0.00218888
-9.74488e-07
0.00147342
0.00217135
-1.56703e-06
0.00147072
0.00215039
-1.77437e-06
0.00146802
0.00213004
-1.81045e-06
0.00210732
-1.63731e-06
0.00149187
0.00222724
3.99928e-06
0.00148859
0.00222966
3.42581e-06
0.00148538
0.00222627
3.26488e-06
0.00148226
0.00221703
3.5075e-06
0.00147919
0.00220453
3.74108e-06
0.00147629
0.00218807
3.79321e-06
0.00147344
0.00217083
3.41453e-06
0.00147074
0.0021504
2.83643e-06
0.00146805
0.00213074
2.10016e-06
0.00210831
1.85703e-06
0.00149186
0.00222603
4.51408e-06
0.00148858
0.00222834
4.56292e-06
0.00148537
0.00222501
4.50985e-06
0.00148224
0.00221561
4.60065e-06
0.00147917
0.00220274
4.79737e-06
0.00147627
0.00218577
5.29549e-06
0.00147341
0.002168
5.61861e-06
0.00147071
0.00214723
5.98169e-06
0.00146802
0.00212748
5.91274e-06
0.0021052
5.83685e-06
0.00149187
0.00222709
2.26952e-06
0.0014886
0.00222971
1.91105e-06
0.00148539
0.00222655
1.6854e-06
0.00148226
0.0022172
1.5617e-06
0.00147919
0.00220445
1.38505e-06
0.00147628
0.00218724
1.50072e-06
0.00147343
0.0021694
1.52185e-06
0.00147073
0.00214821
1.8709e-06
0.00146805
0.00212821
2.11258e-06
0.0021056
2.45974e-06
0.00149186
7.54751e-06
0.00148859
7.66534e-06
0.00148537
7.2925e-06
0.00148225
6.4614e-06
0.00147918
5.78698e-06
0.00147627
5.39551e-06
0.00147341
5.23777e-06
0.00147071
5.33971e-06
0.00146801
5.39051e-06
5.54335e-06
0.00450034
0.00592682
-1.92357e-05
0.00449145
0.00586313
-1.79502e-05
0.00448388
0.00580149
-1.53734e-05
0.00447765
0.00574454
-1.54185e-05
0.00447219
0.00569068
-1.91822e-05
0.00446774
0.00563734
-2.43641e-05
0.00446369
0.00558321
-2.98093e-05
0.00446015
0.00552486
-3.19319e-05
0.00445682
0.00546495
-3.05518e-05
0.00540311
-2.88145e-05
0.00450141
0.0059421
-1.6071e-06
0.00449274
0.00587935
-4.15612e-06
0.00448511
0.00581441
-1.98935e-06
0.00447884
0.00575269
1.64744e-06
0.00447343
0.00569474
5.05386e-06
0.00446907
0.00564123
4.27306e-06
0.00446523
0.00558972
6.89528e-07
0.00446209
0.0055376
-6.78694e-06
0.00445904
0.00548281
-1.28053e-05
0.00542281
-1.52566e-05
0.00450065
0.00592604
3.02273e-05
0.00449195
0.00586833
2.42791e-05
0.00448411
0.00580747
1.93043e-05
0.00447751
0.00574552
1.84e-05
0.00447191
0.00568437
2.07427e-05
0.00446742
0.00562579
2.52477e-05
0.00446346
0.00557005
2.92102e-05
0.00446028
0.00551604
3.07218e-05
0.00445723
0.00546289
2.88362e-05
0.00540531
2.6141e-05
0.00450107
0.00596686
-2.925e-05
0.00449299
0.00590637
-2.81007e-05
0.00448562
0.00584656
-3.00065e-05
0.00447915
0.00578552
-3.19487e-05
0.00447346
0.0057244
-3.29973e-05
0.00446888
0.00566344
-3.15658e-05
0.00446489
0.00560414
-2.8647e-05
0.00446179
0.00554576
-2.47833e-05
0.00445899
0.00548988
-2.21901e-05
0.00543098
-2.0672e-05
0.0045003
8.51557e-05
0.00449184
8.48716e-05
0.00448459
8.20632e-05
0.00447837
7.5142e-05
0.00447276
6.91396e-05
0.00446811
6.40287e-05
0.00446385
6.25763e-05
0.00446042
6.33619e-05
0.00445746
6.51538e-05
6.56827e-05
0.00760851
0.00892603
6.40661e-05
5.87932e-05
-0.000114105
-0.000115228
0.00761291
0.00880749
6.27338e-05
5.81243e-05
-0.00011352
-0.000112983
0.00761903
0.00868656
6.30722e-05
5.91081e-05
-0.000110263
-0.000108175
0.00762747
0.00857536
6.31499e-05
5.86797e-05
-0.000106146
-0.000104396
0.00763682
0.00847001
6.11359e-05
5.62351e-05
-0.000104455
-0.000104118
0.00764637
0.00837146
5.73269e-05
5.19478e-05
-0.000105325
-0.000106404
0.00765511
0.00826925
5.2653e-05
4.71382e-05
-0.000107913
-0.000110051
0.0076628
0.00816426
4.89177e-05
4.35508e-05
-0.000110009
-0.00011197
0.00766947
0.00805165
4.68729e-05
4.2648e-05
-0.00011041
-0.000110745
0.00793987
4.59669e-05
4.15903e-05
-0.00010825
-0.000108159
0.00761
0.00884719
6.87295e-05
0.00761721
0.00874193
5.42086e-05
0.00762333
0.0086292
4.92303e-05
0.00763023
0.00851382
5.63358e-05
0.00763824
0.0083979
6.91307e-05
0.00764719
0.00829151
7.5295e-05
0.00765655
0.00818863
7.19236e-05
0.00766589
0.00809258
5.55777e-05
0.0076735
0.00799327
3.79246e-05
0.00788929
2.81534e-05
0.00760032
0.0088484
2.04623e-05
0.00760906
0.00873909
1.83639e-05
0.00761581
0.00863073
1.1047e-05
0.00762207
0.00851819
7.78434e-06
0.00762902
0.00839941
1.22819e-05
0.00763747
0.00828208
2.62197e-05
0.00764672
0.00816746
4.1114e-05
0.00765698
0.00806056
5.24554e-05
0.0076659
0.0079599
5.32565e-05
0.00786143
4.62903e-05
0.00760712
0.00883326
-2.198e-05
0.00761728
0.00871457
-1.36872e-05
0.00762605
0.00860661
-1.471e-05
0.00763288
0.00850174
-2.2254e-05
0.00763831
0.00839147
-3.05492e-05
0.00764468
0.00827648
-3.22623e-05
0.00765199
0.00815791
-2.64767e-05
0.00766122
0.00804133
-1.47259e-05
0.00767128
0.00793067
-3.09674e-06
0.00782662
4.2803e-06
0.00759333
7.19897e-05
0.0076011
6.74911e-05
0.00761153
6.64378e-05
0.00762216
5.58641e-05
0.00763077
4.45824e-05
0.007638
3.04244e-05
0.00764408
2.46736e-05
0.00765072
2.36984e-05
0.00765837
3.08135e-05
3.53789e-05
0.00260027
0.00278191
3.38801e-05
-0.00260289
0.00260171
0.00273905
3.46822e-05
-0.00260358
0.00260233
0.00269721
3.59177e-05
-0.00260424
0.00260364
0.00265715
3.59604e-05
-0.00260621
0.00260641
0.00261874
3.2239e-05
-0.00260949
0.00260987
0.00258116
2.71827e-05
-0.00261299
0.00261318
0.00254384
2.05219e-05
-0.00261602
0.00261566
0.0025061
1.64452e-05
-0.00261807
0.00261739
0.00246883
1.35977e-05
-0.00261926
0.00261845
0.0024327
1.24622e-05
0.0109382
0.0106586
8.1746e-05
-0.00269188
-0.00267817
-0.00266729
-0.00265443
0.0109524
0.0104752
8.19994e-05
-0.00264808
-0.00263426
-0.00262348
-0.00261136
0.0109562
0.0102961
0.000102589
-0.0026061
-0.00259267
-0.00258309
-0.00257145
0.0109555
0.010133
0.000123196
-0.00256643
-0.00255403
-0.0025449
-0.00253374
0.010957
0.00998152
0.000140076
-0.00252946
-0.00251795
-0.00250881
-0.00249778
0.0109641
0.00984801
0.000133671
-0.0024941
-0.00248333
-0.00247327
-0.00246276
0.0109753
0.00972263
0.000115604
-0.00246003
-0.00244907
-0.00243955
-0.0024289
0.0109908
0.00960387
7.4361e-05
-0.0024251
-0.00241369
-0.00240489
-0.0023944
0.0110035
0.00947914
5.12876e-05
-0.00239081
-0.00237936
-0.00237249
-0.00236263
0.00935547
4.25634e-05
-0.00235725
-0.00234624
-0.0023417
-0.00233205
0.0109283
0.0107294
-6.28305e-05
0.0109499
0.0105686
-9.6562e-05
0.010969
0.0103904
-0.000102392
0.0109777
0.0102059
-7.36688e-05
0.0109808
0.0100305
-3.98493e-05
0.0109815
0.00986547
8.107e-06
0.0109848
0.00971951
4.08546e-05
0.0109927
0.00958753
6.08999e-05
0.0110046
0.0094652
5.52545e-05
0.009346
4.67106e-05
0.0109201
0.0107165
-1.4361e-05
0.0109312
0.0105567
-1.29767e-05
0.0109491
0.010396
-3.81034e-05
0.0109672
0.0102304
-6.49049e-05
0.0109787
0.0100654
-7.69133e-05
0.010985
0.00990287
-7.59802e-05
0.0109875
0.00974811
-5.76292e-05
0.0109898
0.00960535
-3.48486e-05
0.0109961
0.00947261
-1.68343e-05
0.00934671
-6.25486e-06
0.0109403
0.000169696
0.0109408
0.000159634
0.0109473
0.000143518
0.0109619
0.000108563
0.0109786
8.07556e-05
0.010993
5.3965e-05
0.0110028
4.84605e-05
0.0110079
5.30265e-05
0.0110108
7.17593e-05
8.52069e-05
0.0141468
0.00874106
-0.00011194
-0.000114586
0.000207352
0.000209232
0.0141275
0.00862166
-0.000115924
-0.000118474
0.000195804
0.000195824
0.0141041
0.00849018
-0.000117436
-0.000119851
0.000186188
0.000184847
0.0140828
0.00835365
-0.000115881
-0.000117392
0.000179774
0.000179072
0.0140653
0.00821332
-0.000109397
-0.000110257
0.000179581
0.000180734
0.014056
0.00808642
-0.00010223
-0.00010259
0.00018167
0.000184529
0.0140485
0.00797097
-9.29962e-05
-9.31729e-05
0.000186851
0.000191206
0.0140499
0.00787809
-8.81803e-05
-8.88744e-05
0.000187964
0.000192251
0.0140545
0.00778981
-8.3903e-05
-8.56566e-05
0.00018887
0.000191236
0.0076985
-8.01479e-05
-8.15477e-05
0.000188017
0.000189784
0.0141316
0.00881076
0.0141308
0.00870449
0.0141232
0.00860031
0.0141113
0.00848878
0.0140977
0.00836694
0.0140845
0.00823334
0.0140737
0.00809731
0.0140586
0.00796756
0.0140469
0.00785281
0.00774842
0.0141125
0.00872716
0.0141233
0.00859715
0.0141221
0.00849914
0.014113
0.00842419
0.0140964
0.0083437
0.0140785
0.00825936
0.0140627
0.00815386
0.0140512
0.00803998
0.0140422
0.00791703
0.00779976
0.014071
0.00872511
0.0140798
0.00857534
0.0140959
0.00844496
0.0141081
0.00834707
0.0141122
0.00826268
0.0141043
0.00819132
0.0140879
0.00811265
0.0140659
0.00802708
0.0140454
0.00792071
0.00781218
0.0141117
0.0140871
0.014075
0.0140729
0.0140797
0.0140866
0.0140922
0.0140897
0.0140771
0.00276585
3.82119e-05
0.00259686
-2.5256e-05
-2.91445e-05
0.00259844
0.00286491
0.00248629
0.0024766
0.00286878
0.00287378
0.00287605
0.00272321
3.92834e-05
0.00259877
-2.28633e-05
-2.47618e-05
0.00259951
0.00286645
0.0024502
0.00244094
0.00286907
0.00287571
0.00287635
0.00268217
4.0426e-05
0.00259956
-1.92187e-05
-1.90958e-05
0.00259998
0.00286671
0.00241503
0.00240574
0.00286926
0.00287525
0.00287529
0.00264308
3.92977e-05
0.00260032
-1.57491e-05
-1.61812e-05
0.00260116
0.00286789
0.00238029
0.00237126
0.00287099
0.0028747
0.0028751
0.00260524
3.47831e-05
0.00260233
-1.63611e-05
-1.85073e-05
0.00260401
0.00287061
0.00234587
0.00233702
0.00287449
0.00287539
0.00287685
0.00256795
2.91137e-05
0.0026055
-1.97425e-05
-2.38595e-05
0.00260758
0.00287448
0.00231237
0.00230396
0.00287834
0.00287788
0.00287975
0.00253017
2.24143e-05
0.00260916
-2.5695e-05
-3.10595e-05
0.00261126
0.00287814
0.00227957
0.00227104
0.00288212
0.00288093
0.00288322
0.00249197
1.88422e-05
0.00261225
-2.99892e-05
-3.54011e-05
0.00261396
0.00288118
0.00224767
0.00223923
0.0028845
0.00288397
0.00288565
0.00245499
1.71874e-05
0.00261464
-3.30838e-05
-3.63468e-05
0.00261586
0.00288307
0.00221686
0.00220871
0.00288564
0.00288581
0.00288678
0.00241957
1.54173e-05
0.00261611
-3.30329e-05
-3.56407e-05
0.0028844
0.00218686
0.00217874
0.00288693
)
;

boundaryField
{
    inlet
    {
        type            calculated;
        value           nonuniform 0();
    }
    outlet
    {
        type            calculated;
        value           nonuniform 0();
    }
    side1
    {
        type            cyclicAMI;
        value           nonuniform List<scalar> 
80
(
-0.00222284
-0.00589935
-0.00884302
-0.0027515
-0.00892234
-0.00222528
-0.00583763
-0.00872416
-0.00270979
-0.0087596
-0.00222251
-0.00577904
-0.00861182
-0.00266882
-0.00860059
-0.00221392
-0.0057231
-0.00851042
-0.00262932
-0.0084578
-0.00220166
-0.00566663
-0.0084074
-0.00259006
-0.00833655
-0.00218485
-0.00560948
-0.00830286
-0.00255137
-0.00823844
-0.00216694
-0.00555101
-0.0081897
-0.00251192
-0.00815543
-0.00214568
-0.00549119
-0.00807434
-0.00247324
-0.00808265
-0.00212545
-0.00543302
-0.00795731
-0.0024349
-0.00800498
-0.00210277
-0.00537329
-0.00784732
-0.00239838
-0.00791514
-0.00274794
-0.00255686
-0.00256328
-0.00270622
-0.00252274
-0.0025291
-0.00266543
-0.00248772
-0.00249419
-0.00262624
-0.00245244
-0.00245882
-0.00258689
-0.00241637
-0.00242268
-0.00254821
-0.0023813
-0.00238739
-0.00250833
-0.0023458
-0.00235185
-0.00246965
-0.00231258
-0.00231845
-0.00243143
-0.00227976
-0.00228575
-0.00239531
-0.00224749
-0.0022533
)
;
    }
    side2
    {
        type            cyclicAMI;
        value           nonuniform List<scalar> 
50
(
0.00222284
0.00589935
0.00884302
0.0106159
0.00892234
0.00222528
0.00583763
0.00872416
0.0104642
0.0087596
0.00222251
0.00577904
0.00861182
0.0103124
0.00860059
0.00221392
0.0057231
0.00851042
0.0101632
0.0084578
0.00220166
0.00566663
0.0084074
0.0100125
0.00833655
0.00218485
0.00560948
0.00830286
0.00986494
0.00823844
0.00216694
0.00555101
0.0081897
0.00971451
0.00815543
0.00214568
0.00549119
0.00807434
0.00957085
0.00808265
0.00212545
0.00543302
0.00795731
0.00942869
0.00800498
0.00210277
0.00537329
0.00784732
0.00929126
0.00791514
)
;
    }
    walls
    {
        type            calculated;
        value           uniform 0;
    }
    procBoundary4to0
    {
        type            processor;
        value           nonuniform List<scalar> 
28
(
-0.00149521
-0.00149522
-0.00149521
-0.00149521
-0.00149521
-0.0045104
-0.00451112
-0.00451034
-0.00451041
-0.00451044
-0.00760436
-0.00760155
-0.00759178
-0.00759933
-0.00758995
-0.00260052
-0.0109182
-0.0109159
-0.0109148
-0.0109376
-0.0141556
-0.0141196
-0.0140917
-0.0140833
-0.0141393
-0.00259569
-0.002866
-0.00287269
)
;
    }
    procBoundary4to3
    {
        type            processor;
        value           nonuniform List<scalar> 
28
(
0.00146541
0.00146544
0.00146541
0.00146543
0.0014654
0.00445409
0.00445639
0.00445441
0.00445637
0.00445501
0.00767698
0.00768069
0.00767357
0.00768117
0.00766794
0.00262038
0.0110109
0.0110137
0.0110059
0.0110165
0.014055
0.0140395
0.0140376
0.0140267
0.0140594
0.00261692
0.00288702
0.00288776
)
;
    }
}


// ************************************************************************* //
