/*--------------------------------*- C++ -*----------------------------------*\
  =========                 |
  \\      /  F ield         | OpenFOAM: The Open Source CFD Toolbox
   \\    /   O peration     | Website:  https://openfoam.org
    \\  /    A nd           | Version:  6
     \\/     M anipulation  |
\*---------------------------------------------------------------------------*/
FoamFile
{
    version     2.0;
    format      ascii;
    class       volScalarField;
    location    "3.6";
    object      p;
}
// * * * * * * * * * * * * * * * * * * * * * * * * * * * * * * * * * * * * * //

dimensions      [1 -1 -2 0 0 0 0];

internalField   nonuniform List<scalar> 
5625
(
1.03552
1.02968
1.02257
1.01472
1.00661
0.998629
0.991086
0.984192
0.978119
0.972924
0.968542
0.964828
0.961538
0.958311
0.954762
0.950574
0.945573
0.93976
0.933304
0.9266
0.920194
0.914602
0.910327
0.907842
0.907374
0.90888
0.912215
0.917075
0.922891
0.929042
0.935109
0.940817
0.945906
0.950269
0.954114
0.957861
0.961853
0.966225
0.971009
0.976315
0.982401
0.989543
0.997834
1.00702
1.01646
1.02523
1.03234
1.037
1.03885
1.03799
1.03498
1.03055
1.02549
1.02043
1.01583
1.0119
1.00872
1.00625
1.0044
1.00306
1.0021
1.00143
1.00098
1.00067
1.00046
1.00032
1.00022
1.00016
1.00011
1.00008
1.00006
1.00004
1.00003
1.00002
1.00001
1.03734
1.03227
1.02575
1.01833
1.01049
1.00264
0.995086
0.988086
0.981821
0.976374
0.971744
0.967884
0.964628
0.961699
0.958796
0.955676
0.952179
0.948221
0.943851
0.939323
0.934958
0.931056
0.928006
0.926172
0.925673
0.926491
0.928584
0.931731
0.935506
0.939522
0.943571
0.947496
0.951121
0.954422
0.957636
0.961103
0.965037
0.969466
0.974384
0.9799
0.986249
0.993643
1.00208
1.01119
1.02025
1.02834
1.03451
1.03813
1.03897
1.03729
1.03371
1.029
1.02389
1.01895
1.01455
1.01086
1.00792
1.00565
1.00397
1.00275
1.00189
1.0013
1.00089
1.00061
1.00042
1.00029
1.00021
1.00015
1.00011
1.00008
1.00005
1.00004
1.00003
1.00002
1.00001
1.0389
1.03469
1.02887
1.02197
1.01449
1.00683
0.999341
0.992286
0.985869
0.980192
0.975311
0.97123
0.967837
0.964928
0.962308
0.959812
0.957256
0.954488
0.951517
0.948493
0.945547
0.942854
0.940719
0.939379
0.938875
0.939224
0.940449
0.942381
0.944719
0.947275
0.949988
0.952759
0.955467
0.95816
0.961084
0.9645
0.968507
0.973063
0.978149
0.983885
0.990484
0.998085
1.00657
1.01549
1.02403
1.03129
1.03642
1.03892
1.03875
1.03629
1.03222
1.0273
1.0222
1.01743
1.01327
1.00984
1.00713
1.00507
1.00356
1.00246
1.00169
1.00116
1.0008
1.00055
1.00039
1.00027
1.00019
1.00014
1.0001
1.00007
1.00005
1.00004
1.00003
1.00002
1.00001
1.0401
1.03686
1.03184
1.02557
1.01854
1.01117
1.00382
0.996771
0.990249
0.984381
0.979261
0.974918
0.971286
0.968247
0.965688
0.963464
0.961368
0.959257
0.957149
0.955084
0.953062
0.951198
0.949717
0.948724
0.948225
0.948284
0.948945
0.95007
0.951478
0.953131
0.95504
0.957136
0.959352
0.961785
0.964667
0.968178
0.972332
0.977049
0.982319
0.988272
0.995091
1.00283
1.01127
1.01983
1.0277
1.03399
1.03797
1.03932
1.03816
1.03498
1.03051
1.02546
1.02045
1.01589
1.012
1.00884
1.00637
1.00452
1.00316
1.00219
1.00151
1.00104
1.00072
1.0005
1.00035
1.00025
1.00018
1.00013
1.00009
1.00007
1.00005
1.00004
1.00002
1.00002
1.00001
1.04087
1.03868
1.03457
1.02903
1.02255
1.01557
1.00845
1.0015
0.994932
0.988922
0.983595
0.978998
0.9751
0.971847
0.969179
0.966951
0.964979
0.963179
0.961552
0.960028
0.958549
0.957211
0.956146
0.955365
0.954887
0.954807
0.955139
0.955776
0.956654
0.957826
0.959324
0.961092
0.963116
0.965532
0.968538
0.97223
0.976558
0.981442
0.986894
0.993047
1.00004
1.00782
1.01607
1.02412
1.03114
1.03632
1.03907
1.03927
1.03717
1.03337
1.0286
1.02352
1.01866
1.01436
1.01075
1.00787
1.00565
1.00399
1.00279
1.00193
1.00133
1.00092
1.00064
1.00045
1.00032
1.00023
1.00016
1.00012
1.00009
1.00006
1.00005
1.00003
1.00002
1.00002
1.00001
1.04112
1.04006
1.03697
1.03228
1.02647
1.01997
1.01318
1.0064
0.999874
0.993797
0.988314
0.98349
0.979325
0.975822
0.97294
0.970545
0.968516
0.966815
0.965374
0.964063
0.962849
0.961819
0.960994
0.960336
0.959895
0.95977
0.959937
0.960322
0.960964
0.961957
0.963314
0.964992
0.967031
0.969585
0.972802
0.976705
0.981208
0.986244
0.991859
0.998177
1.00526
1.01298
1.02087
1.02823
1.03423
1.03817
1.03966
1.03873
1.03579
1.03148
1.02652
1.0215
1.01686
1.01285
1.00955
1.00694
1.00496
1.0035
1.00244
1.00169
1.00117
1.00081
1.00057
1.0004
1.00029
1.00021
1.00015
1.00011
1.00008
1.00006
1.00004
1.00003
1.00002
1.00002
1.00001
1.04079
1.0409
1.03891
1.03519
1.03016
1.02427
1.01791
1.01141
1.00502
0.998964
0.993389
0.988372
0.983975
0.980231
0.977097
0.974466
0.972286
0.97052
0.969045
0.96775
0.966647
0.965767
0.965044
0.964447
0.964062
0.963946
0.964053
0.964364
0.964976
0.965979
0.967363
0.969103
0.971285
0.974061
0.977521
0.981624
0.986275
0.991438
0.997181
1.0036
1.01069
1.01818
1.02553
1.032
1.03682
1.03944
1.03966
1.03768
1.03402
1.02935
1.02432
1.01945
1.01508
1.01138
1.0084
1.00607
1.00432
1.00304
1.00212
1.00147
1.00102
1.00071
1.0005
1.00036
1.00026
1.00019
1.00014
1.0001
1.00007
1.00005
1.00004
1.00003
1.00002
1.00001
1.00001
1.03981
1.0411
1.0403
1.03764
1.03352
1.02837
1.02256
1.01644
1.01029
1.00434
0.998747
0.993619
0.98906
0.985108
0.98171
0.978823
0.976446
0.974512
0.972894
0.971534
0.970442
0.969575
0.968858
0.968305
0.967989
0.96791
0.968029
0.968388
0.969096
0.970209
0.971706
0.9736
0.975996
0.97902
0.982702
0.986966
0.991727
0.996983
1.00281
1.00925
1.0162
1.02329
1.02989
1.03527
1.03879
1.04005
1.03905
1.03614
1.0319
1.02701
1.02203
1.01739
1.01334
1.00998
1.00731
1.00526
1.00373
1.00262
1.00183
1.00127
1.00089
1.00062
1.00044
1.00032
1.00023
1.00017
1.00012
1.00009
1.00007
1.00005
1.00004
1.00003
1.00002
1.00001
1.00001
1.03818
1.04061
1.04102
1.03952
1.03643
1.03213
1.02699
1.02137
1.01558
1.00983
1.00432
0.999184
0.994535
0.9904
0.986774
0.98368
0.981103
0.978957
0.977154
0.975684
0.974528
0.973601
0.972857
0.97234
0.972082
0.972046
0.972229
0.972711
0.973579
0.974845
0.976495
0.978581
0.981213
0.984465
0.988319
0.99269
0.997517
1.00282
1.00866
1.01501
1.02166
1.02813
1.03377
1.0379
1.04002
1.03993
1.03781
1.03413
1.0295
1.02453
1.01971
1.01537
1.01167
1.00866
1.00631
1.00452
1.0032
1.00224
1.00157
1.00109
1.00077
1.00054
1.00039
1.00028
1.00021
1.00015
1.00011
1.00008
1.00006
1.00005
1.00003
1.00002
1.00002
1.00001
1.00001
1.0359
1.03936
1.04097
1.0407
1.03873
1.0354
1.03107
1.02609
1.02076
1.01534
1.01002
1.00497
1.0003
0.996057
0.992291
0.989042
0.986272
0.98391
0.981936
0.980348
0.979085
0.978068
0.977295
0.976809
0.976591
0.976605
0.976884
0.97752
0.978559
0.979982
0.981795
0.984075
0.98692
0.990355
0.994319
0.998732
1.00357
1.00886
1.01462
1.02073
1.02687
1.0325
1.03697
1.03972
1.04041
1.03905
1.03597
1.03172
1.02687
1.02197
1.01741
1.01342
1.0101
1.00744
1.00539
1.00384
1.00271
1.0019
1.00133
1.00093
1.00066
1.00047
1.00034
1.00025
1.00018
1.00014
1.0001
1.00008
1.00006
1.00004
1.00003
1.00002
1.00002
1.00001
1.00001
1.03304
1.03735
1.0401
1.04106
1.0403
1.03805
1.03466
1.03044
1.02571
1.02073
1.01572
1.01086
1.00626
1.00202
0.998196
0.994835
0.991903
0.98938
0.987278
0.98557
0.984187
0.983093
0.982307
0.981838
0.981643
0.981712
0.982107
0.982891
0.984072
0.985632
0.987603
0.990062
0.99307
0.996611
1.00061
1.005
1.00979
1.01498
1.02053
1.02621
1.03162
1.03618
1.03931
1.0406
1.03992
1.03745
1.03362
1.02899
1.02411
1.01941
1.01518
1.01158
1.00864
1.00632
1.00455
1.00324
1.00229
1.0016
1.00113
1.00079
1.00056
1.00041
1.0003
1.00022
1.00016
1.00012
1.00009
1.00007
1.00005
1.00004
1.00003
1.00002
1.00001
1.00001
1.00001
1.02974
1.03465
1.03837
1.04052
1.041
1.03993
1.03758
1.03426
1.03025
1.02585
1.02127
1.01671
1.01229
1.00815
1.00436
1.00095
0.997936
0.99533
0.993143
0.991328
0.989842
0.988695
0.987902
0.987434
0.987258
0.987396
0.987902
0.988806
0.990092
0.99176
0.99386
0.996455
0.999561
1.00313
1.00709
1.01139
1.01605
1.02102
1.02619
1.03122
1.03566
1.03895
1.04064
1.04049
1.03856
1.03518
1.03083
1.02605
1.02129
1.0169
1.01306
1.00987
1.0073
1.00531
1.00381
1.00271
1.00191
1.00134
1.00094
1.00067
1.00048
1.00035
1.00026
1.00019
1.00014
1.00011
1.00008
1.00006
1.00005
1.00003
1.00002
1.00002
1.00001
1.00001
1.00001
1.02615
1.03136
1.03582
1.03903
1.04072
1.04089
1.03968
1.03737
1.03422
1.03052
1.0265
1.02235
1.01824
1.01432
1.01064
1.00728
1.00426
1.00164
0.999402
0.997517
0.995984
0.994823
0.994023
0.993546
0.993389
0.993594
0.994194
0.995179
0.996534
0.99828
1.00047
1.00314
1.00626
1.00977
1.01361
1.01776
1.02218
1.02678
1.03135
1.03549
1.03873
1.04062
1.04084
1.03937
1.0364
1.03237
1.02775
1.02301
1.01851
1.0145
1.01109
1.0083
1.00611
1.00442
1.00316
1.00224
1.00158
1.00111
1.00079
1.00056
1.00041
1.0003
1.00022
1.00017
1.00012
1.00009
1.00007
1.00005
1.00004
1.00003
1.00002
1.00002
1.00001
1.00001
1.00001
1.02248
1.02768
1.03257
1.03661
1.03941
1.04079
1.0408
1.0396
1.03743
1.03456
1.03122
1.02762
1.02394
1.02032
1.01686
1.01364
1.01073
1.00815
1.00591
1.00402
1.00249
1.00134
1.00053
1.00006
0.999938
1.0002
1.00086
1.00188
1.00328
1.00507
1.0073
1.00997
1.01302
1.01639
1.02003
1.0239
1.02794
1.03198
1.03572
1.03874
1.04063
1.04106
1.03991
1.03731
1.03358
1.02916
1.0245
1.01997
1.01584
1.01227
1.00929
1.0069
1.00504
1.00364
1.00259
1.00184
1.0013
1.00092
1.00065
1.00047
1.00034
1.00025
1.00019
1.00014
1.00011
1.00008
1.00006
1.00005
1.00004
1.00003
1.00002
1.00001
1.00001
1.00001
1
1.01893
1.02384
1.02882
1.03339
1.03707
1.03957
1.04078
1.04076
1.03968
1.03776
1.03523
1.03231
1.02917
1.02598
1.02284
1.01987
1.01714
1.01468
1.01251
1.01068
1.0092
1.00807
1.00728
1.00683
1.00675
1.00705
1.00773
1.00877
1.01017
1.01197
1.01418
1.01675
1.01964
1.02278
1.02611
1.02959
1.03306
1.03631
1.03899
1.04072
1.04119
1.04023
1.03791
1.03446
1.03026
1.02573
1.02123
1.01705
1.01335
1.01023
1.00768
1.00567
1.00412
1.00296
1.00211
1.00149
1.00106
1.00075
1.00054
1.00039
1.00029
1.00022
1.00016
1.00012
1.00009
1.00007
1.00006
1.00004
1.00003
1.00002
1.00002
1.00001
1.00001
1.00001
1
1.01564
1.02007
1.02484
1.02958
1.03384
1.03724
1.03955
1.04071
1.04078
1.03991
1.03831
1.03619
1.03372
1.03107
1.02838
1.02576
1.02329
1.02102
1.01901
1.01729
1.0159
1.01483
1.01407
1.01367
1.01364
1.01396
1.01463
1.01565
1.01703
1.01877
1.02087
1.02327
1.0259
1.0287
1.0316
1.0345
1.0372
1.03944
1.04088
1.04125
1.04037
1.03822
1.03501
1.03103
1.02666
1.02224
1.01806
1.01431
1.01109
1.00841
1.00627
1.0046
1.00333
1.00238
1.00169
1.0012
1.00085
1.00061
1.00044
1.00032
1.00024
1.00018
1.00014
1.00011
1.00008
1.00006
1.00005
1.00004
1.00003
1.00002
1.00001
1.00001
1.00001
1.00001
1
1.0127
1.01656
1.0209
1.02548
1.02995
1.03394
1.03713
1.03935
1.04055
1.0408
1.04023
1.03901
1.03734
1.03536
1.03322
1.03104
1.02893
1.02695
1.02517
1.02364
1.02237
1.02139
1.02071
1.02037
1.02037
1.02069
1.02134
1.02231
1.02361
1.02523
1.02713
1.02925
1.03151
1.03385
1.03616
1.03829
1.04002
1.04109
1.04124
1.04031
1.03826
1.03523
1.03145
1.02726
1.02297
1.01885
1.01509
1.01182
1.00907
1.00683
1.00505
1.00369
1.00266
1.0019
1.00135
1.00096
1.00069
1.00049
1.00036
1.00027
1.0002
1.00015
1.00012
1.00009
1.00007
1.00005
1.00004
1.00003
1.00002
1.00002
1.00001
1.00001
1.00001
1
1
1.01016
1.01341
1.0172
1.02139
1.02574
1.02995
1.03371
1.03675
1.03895
1.04026
1.04075
1.04053
1.03975
1.03854
1.03707
1.03546
1.0338
1.0322
1.03073
1.02943
1.02835
1.0275
1.02693
1.02666
1.02668
1.02698
1.02758
1.02846
1.02963
1.03104
1.03264
1.03437
1.03613
1.03786
1.03941
1.04061
1.04124
1.0411
1.04004
1.03801
1.03511
1.03152
1.02752
1.02339
1.01938
1.01567
1.0124
1.00961
1.0073
1.00546
1.00402
1.00292
1.0021
1.0015
1.00107
1.00076
1.00055
1.0004
1.00029
1.00022
1.00017
1.00013
1.0001
1.00008
1.00006
1.00005
1.00004
1.00003
1.00002
1.00001
1.00001
1.00001
1.00001
1
1
1.00802
1.01069
1.01389
1.01756
1.02155
1.02564
1.02959
1.03314
1.03608
1.0383
1.03977
1.04054
1.04069
1.04035
1.03964
1.03868
1.03759
1.03646
1.03536
1.03436
1.03351
1.03286
1.03242
1.03221
1.03224
1.03251
1.03302
1.03377
1.03472
1.03583
1.03703
1.03825
1.0394
1.04038
1.04104
1.04122
1.04075
1.03951
1.03745
1.03463
1.03122
1.02742
1.02348
1.01962
1.01602
1.0128
1.01002
1.00769
1.0058
1.00431
1.00315
1.00228
1.00163
1.00117
1.00083
1.0006
1.00043
1.00032
1.00024
1.00018
1.00014
1.00011
1.00008
1.00007
1.00005
1.00004
1.00003
1.00002
1.00002
1.00001
1.00001
1.00001
1
1
1
1.00625
1.00841
1.01103
1.01412
1.01761
1.02136
1.02518
1.02888
1.03224
1.03509
1.03735
1.03899
1.04003
1.04055
1.04064
1.0404
1.03994
1.03935
1.0387
1.03807
1.03751
1.03707
1.03677
1.03664
1.03668
1.0369
1.03729
1.03783
1.03849
1.0392
1.03991
1.04053
1.04098
1.04113
1.04088
1.04008
1.03864
1.03653
1.03379
1.03054
1.02695
1.02322
1.01956
1.01611
1.01299
1.01027
1.00796
1.00606
1.00454
1.00335
1.00244
1.00176
1.00126
1.0009
1.00064
1.00046
1.00034
1.00025
1.00019
1.00015
1.00011
1.00009
1.00007
1.00006
1.00004
1.00003
1.00003
1.00002
1.00001
1.00001
1.00001
1.00001
1
1
1
1.00481
1.00652
1.00864
1.01117
1.0141
1.01736
1.02084
1.02439
1.02782
1.03098
1.03374
1.03602
1.0378
1.03909
1.03994
1.04042
1.0406
1.04058
1.04043
1.0402
1.03997
1.03977
1.03963
1.03958
1.03962
1.03976
1.03998
1.04027
1.04058
1.04084
1.041
1.04098
1.0407
1.04006
1.03898
1.03737
1.03522
1.03256
1.02948
1.02612
1.02264
1.0192
1.01594
1.01297
1.01034
1.0081
1.00622
1.00471
1.0035
1.00257
1.00186
1.00134
1.00096
1.00069
1.00049
1.00036
1.00027
1.0002
1.00015
1.00012
1.00009
1.00007
1.00006
1.00005
1.00004
1.00003
1.00002
1.00002
1.00001
1.00001
1.00001
1
1
1
1
1.00365
1.00499
1.00667
1.00869
1.01109
1.01382
1.01684
1.02003
1.02327
1.02643
1.02938
1.03202
1.03428
1.03614
1.03761
1.0387
1.03948
1.04001
1.04034
1.04052
1.04061
1.04065
1.04068
1.0407
1.04073
1.04078
1.04082
1.04082
1.04075
1.04056
1.04018
1.03956
1.03864
1.03734
1.03563
1.03348
1.03093
1.02804
1.02493
1.02172
1.01854
1.01551
1.01273
1.01025
1.00809
1.00628
1.00479
1.0036
1.00266
1.00194
1.0014
1.00101
1.00072
1.00052
1.00037
1.00028
1.00021
1.00016
1.00012
1.0001
1.00008
1.00006
1.00005
1.00004
1.00003
1.00002
1.00002
1.00001
1.00001
1.00001
1.00001
1
1
1
1
1.00275
1.00378
1.00508
1.00668
1.00859
1.01081
1.01332
1.01605
1.01893
1.02186
1.02473
1.02744
1.02991
1.03209
1.03396
1.0355
1.03675
1.03772
1.03845
1.03899
1.03938
1.03965
1.03981
1.0399
1.03992
1.03986
1.03971
1.03945
1.03904
1.03844
1.03762
1.03653
1.03513
1.03339
1.03131
1.02891
1.02625
1.02341
1.0205
1.01761
1.01484
1.01228
1.00997
1.00795
1.00622
1.00479
1.00363
1.0027
1.00199
1.00144
1.00104
1.00075
1.00053
1.00039
1.00028
1.00021
1.00016
1.00012
1.0001
1.00008
1.00006
1.00005
1.00004
1.00003
1.00003
1.00002
1.00001
1.00001
1.00001
1.00001
1
1
1
1
1
1.00204
1.00283
1.00383
1.00507
1.00656
1.00832
1.01035
1.0126
1.01504
1.01761
1.0202
1.02276
1.02519
1.02745
1.02948
1.03126
1.03278
1.03404
1.03507
1.03587
1.03648
1.03692
1.0372
1.03733
1.03733
1.03719
1.03689
1.03641
1.03574
1.03486
1.03373
1.03234
1.03067
1.02873
1.02654
1.02414
1.02161
1.01901
1.01643
1.01395
1.01163
1.00952
1.00766
1.00605
1.0047
1.00359
1.0027
1.002
1.00146
1.00106
1.00076
1.00054
1.00039
1.00028
1.00021
1.00016
1.00012
1.0001
1.00008
1.00006
1.00005
1.00004
1.00003
1.00003
1.00002
1.00002
1.00001
1.00001
1.00001
1
1
1
1
1
1
1.00151
1.0021
1.00285
1.0038
1.00495
1.00632
1.00791
1.00972
1.01172
1.01385
1.01608
1.01834
1.02057
1.0227
1.0247
1.02651
1.02812
1.02951
1.03067
1.03162
1.03236
1.0329
1.03325
1.03342
1.0334
1.03319
1.03278
1.03218
1.03136
1.03032
1.02905
1.02754
1.02581
1.02388
1.02178
1.01957
1.0173
1.01505
1.01286
1.01081
1.00893
1.00725
1.00578
1.00453
1.00349
1.00264
1.00197
1.00145
1.00105
1.00076
1.00054
1.00039
1.00028
1.00021
1.00015
1.00012
1.00009
1.00007
1.00006
1.00005
1.00004
1.00003
1.00003
1.00002
1.00002
1.00001
1.00001
1.00001
1.00001
1
1
1
1
1
1
1.0011
1.00154
1.00211
1.00282
1.00369
1.00474
1.00597
1.00739
1.00897
1.01069
1.01253
1.01443
1.01635
1.01824
1.02005
1.02174
1.02328
1.02465
1.02583
1.02681
1.02759
1.02816
1.02854
1.02871
1.02868
1.02844
1.02799
1.02734
1.02647
1.0254
1.02413
1.02266
1.02102
1.01924
1.01737
1.01544
1.01352
1.01164
1.00986
1.00821
1.00672
1.00541
1.00428
1.00332
1.00254
1.00191
1.00141
1.00103
1.00075
1.00053
1.00038
1.00027
1.0002
1.00015
1.00011
1.00009
1.00007
1.00006
1.00005
1.00004
1.00003
1.00003
1.00002
1.00002
1.00001
1.00001
1.00001
1.00001
1
1
1
1
1
1
1
1.0008
1.00113
1.00154
1.00208
1.00273
1.00352
1.00445
1.00554
1.00676
1.00812
1.00958
1.01112
1.0127
1.01429
1.01584
1.01732
1.0187
1.01995
1.02104
1.02196
1.0227
1.02326
1.02361
1.02377
1.02373
1.02349
1.02306
1.02242
1.0216
1.02059
1.01941
1.01808
1.01663
1.0151
1.0135
1.0119
1.01032
1.00881
1.0074
1.00611
1.00496
1.00396
1.00311
1.00239
1.00181
1.00135
1.00099
1.00072
1.00051
1.00037
1.00026
1.00019
1.00014
1.0001
1.00008
1.00006
1.00005
1.00004
1.00004
1.00003
1.00003
1.00002
1.00002
1.00001
1.00001
1.00001
1.00001
1
1
1
1
1
1
1
1
1.00058
1.00082
1.00113
1.00152
1.002
1.00259
1.00329
1.0041
1.00503
1.00607
1.00721
1.00841
1.00967
1.01096
1.01223
1.01346
1.01463
1.01569
1.01664
1.01745
1.01811
1.0186
1.01892
1.01906
1.01902
1.0188
1.0184
1.01783
1.01709
1.0162
1.01518
1.01405
1.01283
1.01155
1.01026
1.00897
1.00772
1.00654
1.00545
1.00446
1.00359
1.00284
1.00221
1.00168
1.00126
1.00093
1.00068
1.00048
1.00034
1.00024
1.00017
1.00012
1.00009
1.00007
1.00006
1.00005
1.00004
1.00003
1.00003
1.00002
1.00002
1.00002
1.00001
1.00001
1.00001
1.00001
1.00001
1
1
1
1
1
1
1
1
1.00042
1.00059
1.00082
1.0011
1.00146
1.00189
1.0024
1.00301
1.0037
1.00448
1.00535
1.00627
1.00725
1.00825
1.00926
1.01024
1.01118
1.01206
1.01284
1.01352
1.01407
1.01448
1.01475
1.01486
1.01482
1.01463
1.01428
1.01379
1.01317
1.01243
1.01158
1.01065
1.00967
1.00865
1.00762
1.00662
1.00565
1.00475
1.00392
1.00319
1.00254
1.00199
1.00153
1.00115
1.00085
1.00062
1.00044
1.00031
1.00022
1.00015
1.00011
1.00008
1.00006
1.00005
1.00004
1.00003
1.00003
1.00002
1.00002
1.00002
1.00002
1.00001
1.00001
1.00001
1.00001
1.00001
1
1
1
1
1
1
1
1
1
1.0003
1.00043
1.00059
1.0008
1.00105
1.00137
1.00175
1.00219
1.0027
1.00328
1.00392
1.00461
1.00535
1.00611
1.00689
1.00765
1.00839
1.00908
1.0097
1.01024
1.01068
1.01101
1.01122
1.01131
1.01127
1.01111
1.01082
1.01042
1.00991
1.00931
1.00863
1.0079
1.00712
1.00633
1.00554
1.00478
1.00405
1.00337
1.00276
1.00222
1.00175
1.00136
1.00103
1.00077
1.00056
1.0004
1.00028
1.00019
1.00013
1.00009
1.00006
1.00005
1.00004
1.00003
1.00003
1.00002
1.00002
1.00002
1.00002
1.00001
1.00001
1.00001
1.00001
1.00001
1.00001
1
1
1
1
1
1
1
1
1
1
1.00023
1.00031
1.00043
1.00058
1.00076
1.00099
1.00126
1.00158
1.00195
1.00237
1.00284
1.00336
1.0039
1.00447
1.00505
1.00563
1.00619
1.00671
1.00719
1.0076
1.00794
1.00819
1.00836
1.00842
1.00838
1.00825
1.00802
1.0077
1.0073
1.00683
1.0063
1.00573
1.00514
1.00454
1.00395
1.00337
1.00284
1.00234
1.0019
1.00151
1.00118
1.0009
1.00067
1.00049
1.00035
1.00024
1.00016
1.00011
1.00007
1.00005
1.00003
1.00003
1.00002
1.00002
1.00002
1.00002
1.00001
1.00001
1.00001
1.00001
1.00001
1.00001
1.00001
1.00001
1
1
1
1
1
1
1
1
1
1
1
1.00016
1.00023
1.00032
1.00042
1.00055
1.00072
1.00091
1.00114
1.00141
1.00171
1.00205
1.00242
1.00281
1.00323
1.00365
1.00408
1.00449
1.00488
1.00524
1.00555
1.0058
1.00598
1.0061
1.00615
1.00611
1.006
1.00582
1.00557
1.00526
1.0049
1.0045
1.00407
1.00363
1.00318
1.00275
1.00233
1.00194
1.00158
1.00127
1.00099
1.00076
1.00057
1.00041
1.00029
1.0002
1.00013
1.00009
1.00005
1.00003
1.00002
1.00001
1.00001
1.00001
1.00001
1.00001
1.00001
1.00001
1.00001
1.00001
1.00001
1.00001
1.00001
1
1
1
1
1
1
1
1
1
1
1
1
1
1.00013
1.00017
1.00023
1.00031
1.0004
1.00052
1.00066
1.00082
1.00101
1.00122
1.00146
1.00173
1.00201
1.00231
1.00262
1.00292
1.00322
1.0035
1.00376
1.00398
1.00416
1.0043
1.00438
1.0044
1.00437
1.00429
1.00414
1.00395
1.00372
1.00345
1.00315
1.00283
1.0025
1.00218
1.00186
1.00156
1.00129
1.00104
1.00082
1.00063
1.00047
1.00034
1.00024
1.00016
1.0001
1.00006
1.00003
1.00002
1.00001
1
1
1
1
1
1
1.00001
1.00001
1.00001
1.00001
1.00001
1
1
1
1
1
1
1
1
1
1
1
1
1
1
1
1.0001
1.00013
1.00017
1.00023
1.0003
1.00038
1.00048
1.00059
1.00072
1.00088
1.00104
1.00123
1.00143
1.00164
1.00185
1.00207
1.00228
1.00248
1.00266
1.00282
1.00294
1.00304
1.00309
1.0031
1.00307
1.003
1.0029
1.00275
1.00257
1.00237
1.00215
1.00192
1.00169
1.00145
1.00123
1.00102
1.00082
1.00065
1.0005
1.00037
1.00027
1.00019
1.00012
1.00007
1.00004
1.00002
1
0.999995
0.999992
0.999992
0.999993
0.999995
0.999997
1
1
1
1
1
1
1
1
1
1
1
1
1
1
1
1
1
1
1
1
1
1
1.00008
1.0001
1.00013
1.00018
1.00022
1.00028
1.00035
1.00043
1.00052
1.00063
1.00074
1.00087
1.00101
1.00116
1.00131
1.00146
1.0016
1.00174
1.00186
1.00197
1.00205
1.00211
1.00214
1.00215
1.00212
1.00206
1.00198
1.00187
1.00174
1.0016
1.00144
1.00127
1.0011
1.00094
1.00078
1.00064
1.0005
1.00039
1.00028
1.0002
1.00014
1.00008
1.00005
1.00002
0.999999
0.999988
0.999983
0.999981
0.999982
0.999985
0.999989
0.999992
0.999995
0.999998
1
1
1
1
1
1
1
1
1
1
1
1
1
1
1
1
1
1
1
1
1
1.00006
1.00008
1.0001
1.00013
1.00017
1.00021
1.00026
1.00031
1.00038
1.00045
1.00054
1.00062
1.00071
1.00081
1.00092
1.00102
1.00112
1.00121
1.00129
1.00136
1.00141
1.00145
1.00147
1.00146
1.00144
1.00139
1.00133
1.00125
1.00115
1.00104
1.00093
1.00081
1.0007
1.00058
1.00047
1.00037
1.00029
1.00021
1.00015
1.00009
1.00005
1.00002
0.999997
0.999984
0.999976
0.999973
0.999973
0.999976
0.999979
0.999983
0.999987
0.999991
0.999994
0.999996
0.999998
1
1
1
1
1
1
1
1
1
1
1
1
1
1
1
1
1
1
1
1
1.00005
1.00006
1.00008
1.0001
1.00013
1.00016
1.00019
1.00023
1.00028
1.00033
1.00038
1.00044
1.00051
1.00058
1.00064
1.00071
1.00077
1.00083
1.00089
1.00093
1.00096
1.00098
1.00099
1.00098
1.00096
1.00092
1.00087
1.00081
1.00074
1.00067
1.00058
1.0005
1.00042
1.00034
1.00027
1.0002
1.00014
1.00009
1.00005
1.00002
1
0.999984
0.999972
0.999966
0.999965
0.999966
0.999969
0.999973
0.999978
0.999982
0.999986
0.99999
0.999993
0.999996
0.999998
1
1
1
1
1
1
1
1
1
1
1
1
1
1
1
1
1
1
1
1
1.00004
1.00005
1.00006
1.00008
1.0001
1.00012
1.00015
1.00017
1.00021
1.00024
1.00028
1.00032
1.00036
1.00041
1.00045
1.00049
1.00053
1.00057
1.0006
1.00063
1.00065
1.00066
1.00066
1.00065
1.00063
1.0006
1.00056
1.00051
1.00046
1.00041
1.00035
1.00029
1.00024
1.00018
1.00014
1.00009
1.00006
1.00002
1
0.999982
0.999969
0.999962
0.999959
0.999959
0.999961
0.999965
0.999969
0.999974
0.999978
0.999983
0.999988
0.999991
0.999993
0.999995
0.999997
0.999999
1
1
1
1
1
1
1
1
1
1
1
1
1
1
1
1
1
1
1
1.00003
1.00004
1.00005
1.00007
1.00008
1.00009
1.00011
1.00014
1.00016
1.00018
1.00021
1.00024
1.00026
1.00029
1.00032
1.00035
1.00037
1.00039
1.00041
1.00042
1.00043
1.00044
1.00043
1.00042
1.0004
1.00038
1.00035
1.00032
1.00028
1.00024
1.0002
1.00016
1.00012
1.00008
1.00005
1.00002
1
0.999985
0.999972
0.999962
0.999956
0.999954
0.999954
0.999957
0.99996
0.999965
0.99997
0.999975
0.99998
0.999984
0.999988
0.999992
0.999995
0.999997
0.999998
0.999999
1
1
1
1
1
1
1
1
1
1
1
1
1
1
1
1
1
1
1
1.00003
1.00004
1.00004
1.00005
1.00006
1.00008
1.00009
1.0001
1.00012
1.00014
1.00015
1.00017
1.00019
1.00021
1.00023
1.00024
1.00026
1.00027
1.00028
1.00029
1.00029
1.00028
1.00028
1.00027
1.00025
1.00023
1.00021
1.00018
1.00016
1.00013
1.0001
1.00007
1.00005
1.00002
1
0.999987
0.999973
0.999963
0.999956
0.999953
0.999952
0.999953
0.999955
0.999959
0.999964
0.999969
0.999974
0.999978
0.999983
0.999987
0.99999
0.999992
0.999994
0.999996
0.999998
0.999999
0.999999
1
1
1
1
1
1
1
1
1
1
1
1
1
1
1
1
1
1
1.00002
1.00002
1.00004
1.00004
1.00005
1.00006
1.00007
1.00008
1.00009
1.0001
1.00012
1.00013
1.00014
1.00015
1.00017
1.00017
1.00018
1.00019
1.00019
1.00019
1.00019
1.00019
1.00018
1.00017
1.00016
1.00014
1.00012
1.0001
1.00008
1.00006
1.00004
1.00002
1
0.99999
0.999978
0.999968
0.99996
0.999955
0.999952
0.999951
0.999953
0.999955
0.999959
0.999963
0.999967
0.999972
0.999977
0.999981
0.999985
0.999988
0.999991
0.999994
0.999996
0.999997
0.999998
0.999999
0.999999
1
1
1
1
1
1
1
1
1
1
1
1
1
1
1
1
1
1
1.00002
1.00002
1.00002
1.00003
1.00004
1.00004
1.00005
1.00006
1.00007
1.00008
1.00009
1.0001
1.00011
1.00011
1.00012
1.00013
1.00013
1.00013
1.00013
1.00013
1.00013
1.00012
1.00012
1.00011
1.00009
1.00008
1.00007
1.00005
1.00004
1.00002
1.00001
0.999995
0.999983
0.999973
0.999965
0.99996
0.999956
0.999954
0.999954
0.999955
0.999957
0.99996
0.999963
0.999968
0.999972
0.999976
0.99998
0.999984
0.999988
0.99999
0.999992
0.999994
0.999996
0.999997
0.999998
0.999999
0.999999
1
1
1
1
1
1
1
1
1
1
1
1
1
1
1
1
1
1
1.00001
1.00002
1.00002
1.00002
1.00003
1.00004
1.00004
1.00005
1.00006
1.00006
1.00007
1.00007
1.00008
1.00009
1.00009
1.00009
1.00009
1.00009
1.00009
1.00009
1.00008
1.00008
1.00007
1.00007
1.00006
1.00004
1.00003
1.00002
1.00001
1
0.999989
0.99998
0.999973
0.999968
0.999962
0.999959
0.999957
0.999956
0.999957
0.999959
0.999962
0.999965
0.999969
0.999973
0.999977
0.999981
0.999984
0.999986
0.999989
0.999992
0.999994
0.999996
0.999997
0.999998
0.999999
0.999999
0.999999
1
1
1
1
1
1
1
1
1
1
1
1
1
1
1
1
1
1
1.00001
1.00001
1.00002
1.00002
1.00002
1.00003
1.00003
1.00004
1.00004
1.00005
1.00005
1.00006
1.00006
1.00006
1.00007
1.00007
1.00007
1.00007
1.00007
1.00006
1.00006
1.00005
1.00005
1.00004
1.00003
1.00002
1.00001
1
0.999996
0.999989
0.999982
0.999976
0.99997
0.999966
0.999963
0.999962
0.999962
0.999962
0.999964
0.999965
0.999968
0.999971
0.999974
0.999978
0.999981
0.999984
0.999987
0.99999
0.999992
0.999993
0.999995
0.999996
0.999997
0.999998
0.999999
0.999999
1
1
1
1
1
1
1
1
1
1
1
1
1
1
1
1
1
1
1
1.00001
1.00001
1.00001
1.00002
1.00002
1.00002
1.00003
1.00003
1.00003
1.00004
1.00004
1.00004
1.00005
1.00005
1.00005
1.00005
1.00005
1.00005
1.00005
1.00004
1.00004
1.00004
1.00003
1.00002
1.00002
1.00001
1
0.999998
0.999991
0.999984
0.999979
0.999975
0.999971
0.999969
0.999967
0.999966
0.999966
0.999967
0.999969
0.999972
0.999974
0.999977
0.99998
0.999982
0.999984
0.999987
0.999989
0.999991
0.999994
0.999995
0.999997
0.999998
0.999998
0.999999
0.999999
0.999999
0.999999
1
1
1
1
1
1
1
1
1
1
1
1
1
1
1
1
1
1
1.00001
1.00001
1.00001
1.00001
1.00001
1.00002
1.00002
1.00002
1.00003
1.00003
1.00003
1.00003
1.00004
1.00004
1.00004
1.00004
1.00004
1.00004
1.00004
1.00003
1.00003
1.00002
1.00002
1.00001
1.00001
1
0.999998
0.999992
0.999988
0.999984
0.999981
0.999977
0.999975
0.999973
0.999972
0.999972
0.999973
0.999973
0.999974
0.999976
0.999978
0.99998
0.999983
0.999986
0.999988
0.99999
0.999992
0.999993
0.999995
0.999996
0.999997
0.999998
0.999998
0.999999
0.999999
1
1
1
1
1
1
1
1
1
1
1
1
1
1
1
1
1
1
1
1
1.00001
1.00001
1.00001
1.00001
1.00001
1.00001
1.00002
1.00002
1.00002
1.00002
1.00002
1.00003
1.00003
1.00003
1.00003
1.00003
1.00003
1.00003
1.00002
1.00002
1.00002
1.00002
1.00001
1.00001
1
1
0.999997
0.999992
0.999988
0.999985
0.999982
0.999979
0.999977
0.999977
0.999976
0.999977
0.999977
0.999979
0.999981
0.999983
0.999984
0.999986
0.999987
0.999988
0.99999
0.999992
0.999993
0.999995
0.999996
0.999997
0.999998
0.999998
0.999999
0.999999
0.999999
1
1
1
1
1
1
1
1
1
1
1
1
1
1
1
1
1
1
1
1
1
1
1.00001
1.00001
1.00001
1.00001
1.00001
1.00001
1.00002
1.00002
1.00002
1.00002
1.00002
1.00002
1.00002
1.00002
1.00002
1.00002
1.00002
1.00002
1.00001
1.00001
1.00001
1.00001
1
0.999997
0.999995
0.999993
0.99999
0.999988
0.999985
0.999984
0.999983
0.999982
0.999982
0.999982
0.999982
0.999983
0.999983
0.999985
0.999987
0.999988
0.99999
0.999992
0.999993
0.999994
0.999995
0.999996
0.999997
0.999998
0.999998
0.999998
0.999999
0.999999
0.999999
1
1
1
1
1
1
1
1
1
1
1
1
1
1
1
1
1
1
1
1
1
1
1
1.00001
1.00001
1.00001
1.00001
1.00001
1.00001
1.00001
1.00001
1.00002
1.00002
1.00002
1.00002
1.00002
1.00002
1.00001
1.00001
1.00001
1.00001
1.00001
1
1
1
0.999998
0.999995
0.999993
0.999991
0.999989
0.999987
0.999986
0.999986
0.999985
0.999985
0.999985
0.999986
0.999988
0.999989
0.999989
0.99999
0.999991
0.999992
0.999993
0.999994
0.999995
0.999996
0.999997
0.999998
0.999998
0.999999
0.999999
1
1
1
1
1
1
1
1
1
1
1
1
1
1
1
1
1
1
1
1
1
1
1
1
1
1
1
1.00001
1.00001
1.00001
1.00001
1.00001
1.00001
1.00001
1.00001
1.00001
1.00001
1.00001
1.00001
1.00001
1.00001
1.00001
1.00001
1.00001
1.00001
1
1
1
0.999998
0.999996
0.999995
0.999993
0.999992
0.999991
0.99999
0.999988
0.999988
0.999989
0.999989
0.999989
0.999989
0.99999
0.999991
0.999992
0.999994
0.999995
0.999995
0.999996
0.999996
0.999997
0.999998
0.999998
0.999998
0.999998
0.999999
0.999999
1
1
1
1
1
1
1
1
1
1
1
1
1
1
1
1
1
1
1
1
1
1
1
1
1
1
1
1
1.00001
1.00001
1.00001
1.00001
1.00001
1.00001
1.00001
1.00001
1.00001
1.00001
1.00001
1.00001
1.00001
1.00001
1
1
1
1
0.999999
0.999998
0.999997
0.999995
0.999994
0.999993
0.999992
0.999992
0.999992
0.999992
0.999991
0.999992
0.999992
0.999993
0.999993
0.999994
0.999995
0.999995
0.999995
0.999996
0.999997
0.999998
0.999998
0.999998
0.999999
0.999999
1
1
1
1
1
1
1
1
1
1
1
1
1
1
1
1
1
1
1
1
1
1
1
1
1
1
1
1
1
1
1
1
1
1
1
1.00001
1.00001
1.00001
1.00001
1.00001
1.00001
1.00001
1.00001
1.00001
1.00001
1
1
1
1
0.999999
0.999999
0.999998
0.999997
0.999996
0.999995
0.999994
0.999994
0.999994
0.999994
0.999993
0.999993
0.999994
0.999994
0.999995
0.999995
0.999995
0.999996
0.999997
0.999997
0.999998
0.999998
0.999999
0.999999
0.999999
0.999999
0.999999
1
1
1
1
1
1
1
1
1
1
1
1
1
1
1
1
1
1
1
1
1
1
1
1
1
1
1
1
1
1
1
1
1
1
1
1
1
1
1.00001
1.00001
1.00001
1
1
1
1
1
1
1
1
0.999999
0.999998
0.999997
0.999996
0.999996
0.999996
0.999996
0.999995
0.999995
0.999996
0.999996
0.999996
0.999996
0.999996
0.999996
0.999997
0.999997
0.999998
0.999998
0.999999
0.999999
0.999999
0.999999
0.999999
0.999999
1
1
1
1
1
1
1
1
1
1
1
1
1
1
1
1
1
1
1
1
1
1
1
1
1
1
1
1
1
1
1
1
1
1
1
1
1
1
1
1
1
1
1
1
1
1
1
1
1
1
1
0.999999
0.999999
0.999998
0.999997
0.999997
0.999997
0.999997
0.999997
0.999996
0.999996
0.999996
0.999996
0.999997
0.999998
0.999998
0.999998
0.999999
0.999999
0.999999
0.999999
0.999999
0.999999
0.999999
1
1
1
1
1
1
1
1
1
1
1
1
1
1
1
1
1
1
1
1
1
1
1
1
1
1
1
1
1
1
1
1
1
1
1
1
1
1
1
1
1
1
1
1
1
1
1
1
1
1
1
0.999999
0.999999
0.999998
0.999998
0.999998
0.999998
0.999998
0.999998
0.999997
0.999998
0.999998
0.999998
0.999998
0.999998
0.999998
0.999998
0.999999
0.999999
0.999999
0.999999
0.999999
0.999999
1
1
1
1
1
1
1
1
1
1
1
1
1
1
1
1
1
1
1
1
1
1
1
1
1
1
1
1
1
1
1