/*--------------------------------*- C++ -*----------------------------------*\
  =========                 |
  \\      /  F ield         | OpenFOAM: The Open Source CFD Toolbox
   \\    /   O peration     | Website:  https://openfoam.org
    \\  /    A nd           | Version:  6
     \\/     M anipulation  |
\*---------------------------------------------------------------------------*/
FoamFile
{
    version     2.0;
    format      ascii;
    class       volVectorField;
    location    "3.92";
    object      U;
}
// * * * * * * * * * * * * * * * * * * * * * * * * * * * * * * * * * * * * * //

dimensions      [0 1 -1 0 0 0 0];

internalField   nonuniform List<vector> 
4214
(
(4.81022 -0.0699142 0)
(5.13079 0.0165586 0)
(5.23956 0.0998349 0)
(5.2799 0.166282 -4.19669e-20)
(5.29851 0.218589 7.68015e-20)
(5.30494 0.257197 -3.17739e-20)
(5.29749 0.282711 0)
(5.27589 0.296333 -2.57041e-21)
(5.23871 0.297745 2.65698e-21)
(5.18657 0.285066 0)
(5.11971 0.255641 0)
(5.03673 0.204895 0)
(4.93915 0.12512 -4.06757e-20)
(4.82864 0.00357538 9.10937e-20)
(4.65131 -0.154025 -5.17453e-20)
(4.24639 -0.265402 0)
(3.57024 -0.28112 0)
(3.00922 -0.393137 0)
(2.95798 -0.782341 0)
(3.0405 -1.30567 0)
(3.09713 -1.76848 0)
(3.21846 -2.14044 0)
(3.48236 -2.38886 -3.18557e-20)
(3.90323 -2.49111 4.10438e-20)
(4.43109 -2.49871 0)
(4.98065 -2.41093 1.24673e-19)
(5.4787 -2.25383 -1.64319e-19)
(5.8564 -1.99524 2.39086e-19)
(6.07732 -1.69382 -2.32937e-19)
(6.1594 -1.38674 0)
(6.15786 -1.10613 0)
(6.11018 -0.87422 -4.85966e-21)
(6.05066 -0.694217 0)
(5.99991 -0.558604 -2.70167e-20)
(5.96081 -0.453248 2.92452e-21)
(5.92733 -0.365261 2.44037e-20)
(5.89438 -0.285067 -2.96313e-22)
(5.86083 -0.206929 -5.98338e-22)
(5.82239 -0.128073 0)
(5.71884 -0.0446561 0)
(5.38433 0.0328903 1.71949e-19)
(5.3083 0.00235601 0)
(5.37958 0.121427 0)
(5.38075 0.199278 -1.65401e-20)
(5.36744 0.244117 -5.91893e-21)
(5.35503 0.278384 1.21616e-20)
(5.3357 0.305168 2.11722e-20)
(5.3024 0.323351 -2.20985e-20)
(5.25555 0.333078 -1.42709e-20)
(5.19495 0.333406 1.15092e-20)
(5.11872 0.321782 9.23238e-21)
(5.02429 0.29521 -9.49347e-21)
(4.90998 0.249854 0)
(4.77439 0.181522 -4.17752e-20)
(4.61397 0.0837261 4.13636e-20)
(4.39065 -0.0383915 9.71769e-22)
(3.98599 -0.110322 -5.85699e-20)
(3.33472 -0.0474763 4.8478e-20)
(2.72706 0.00258682 1.90611e-20)
(2.50206 -0.20833 -1.0539e-20)
(2.52344 -0.63632 -2.54124e-21)
(2.61685 -1.08372 -1.13945e-20)
(2.81066 -1.51742 -6.84073e-20)
(3.15048 -1.90371 3.34232e-20)
(3.64654 -2.19069 -4.29717e-20)
(4.26783 -2.35496 -7.43017e-19)
(4.94083 -2.41964 5.90563e-19)
(5.57691 -2.32381 0)
(6.09694 -2.16504 -6.35147e-19)
(6.43291 -1.89534 6.1635e-19)
(6.57578 -1.57826 -3.15898e-19)
(6.56819 -1.2608 2.43802e-19)
(6.47369 -0.980249 2.81343e-20)
(6.34578 -0.752412 -1.20648e-20)
(6.22854 -0.58299 1.18925e-20)
(6.14345 -0.461778 -9.60074e-21)
(6.08529 -0.370651 1.22431e-20)
(6.04253 -0.298371 -1.2401e-20)
(6.01027 -0.241877 5.9289e-22)
(5.99137 -0.193606 0)
(5.97246 -0.12381 6.14955e-20)
(5.9058 -0.0190384 -6.06837e-20)
(5.40895 0.0838004 -4.34889e-20)
(5.4059 0.167136 -1.24491e-19)
(5.39888 0.224547 8.06955e-20)
(5.38068 0.26309 0)
(5.35738 0.295503 3.26491e-20)
(5.32703 0.32294 -4.29999e-20)
(5.28575 0.343923 1.79105e-20)
(5.2313 0.357727 -2.59295e-20)
(5.16184 0.363168 8.99779e-22)
(5.07496 0.35807 2.8098e-20)
(4.96887 0.339519 -3.18535e-20)
(4.84254 0.303979 5.96654e-21)
(4.69451 0.248944 7.70155e-20)
(4.52072 0.172482 -7.68074e-20)
(4.29309 0.081469 -4.18729e-21)
(3.9208 0.0334382 -1.07204e-20)
(3.32589 0.12135 1.05363e-20)
(2.68711 0.266417 2.65709e-20)
(2.34441 0.20903 -7.94341e-20)
(2.29605 -0.101195 5.29564e-21)
(2.3589 -0.488452 -1.23109e-20)
(2.5274 -0.874409 -1.29338e-20)
(2.85657 -1.24611 0)
(3.35058 -1.55873 -2.32204e-19)
(3.98136 -1.78174 4.53167e-19)
(4.69906 -1.92468 0)
(5.41357 -2.00382 -8.16697e-19)
(6.04359 -1.96911 7.87251e-19)
(6.50751 -1.80379 -1.11664e-18)
(6.75233 -1.55248 9.81263e-19)
(6.8044 -1.268 -3.93909e-19)
(6.72338 -0.995019 3.59752e-19)
(6.56897 -0.758934 1.22796e-20)
(6.40166 -0.575052 -7.19035e-20)
(6.26633 -0.443065 5.81902e-20)
(6.16916 -0.346417 -3.44898e-20)
(6.10138 -0.272026 6.40442e-20)
(6.05523 -0.216739 -5.78437e-20)
(6.02306 -0.17394 7.02072e-21)
(5.99324 -0.127268 -1.27229e-21)
(5.97461 -0.0705449 2.29032e-20)
(5.46896 0.144654 1.32185e-19)
(5.4459 0.205291 -1.29025e-19)
(5.42811 0.256542 2.28683e-20)
(5.40118 0.294779 1.34562e-19)
(5.36765 0.32743 -1.29697e-19)
(5.32678 0.356648 5.32769e-20)
(5.27462 0.381242 -1.77277e-21)
(5.20805 0.400068 -1.92501e-20)
(5.12494 0.41206 2.58546e-20)
(5.02277 0.415156 3.5266e-20)
(4.90023 0.406349 -3.53826e-21)
(4.75707 0.382855 -5.89064e-20)
(4.59234 0.343858 0)
(4.40151 0.291325 -9.92843e-22)
(4.16397 0.233717 4.31873e-21)
(3.82032 0.211909 1.12753e-19)
(3.30076 0.309132 -1.02273e-19)
(2.67804 0.521113 2.38481e-20)
(2.21302 0.641114 1.26103e-20)
(2.03541 0.507071 -1.92421e-20)
(2.0484 0.214177 -2.5888e-20)
(2.18866 -0.107695 2.91422e-19)
(2.4991 -0.439871 2.20551e-19)
(2.98591 -0.760796 -3.53354e-19)
(3.61052 -1.04889 -1.67887e-18)
(4.34536 -1.27694 1.25342e-18)
(5.13842 -1.44987 1.20371e-18)
(5.89366 -1.54966 -1.15583e-18)
(6.51186 -1.52301 -1.34797e-18)
(6.90251 -1.37639 1.8549e-18)
(7.05114 -1.16065 -2.63275e-19)
(7.01749 -0.925723 0)
(6.86416 -0.707644 2.42742e-19)
(6.65159 -0.529036 -2.3608e-19)
(6.45922 -0.399773 9.05194e-21)
(6.31368 -0.307896 7.06814e-20)
(6.21147 -0.239569 -6.91899e-20)
(6.14278 -0.189725 0)
(6.09018 -0.150132 -1.00537e-20)
(6.04622 -0.113703 1.38197e-20)
(6.02492 -0.0864847 7.94794e-22)
(5.50005 0.189768 0)
(5.47096 0.241702 0)
(5.44636 0.290821 4.18489e-20)
(5.41366 0.331147 1.20797e-19)
(5.3726 0.367209 -6.33078e-20)
(5.32263 0.400724 5.30163e-20)
(5.26076 0.430836 -5.79162e-20)
(5.18357 0.456549 6.49177e-21)
(5.08837 0.477113 -4.08259e-22)
(4.97307 0.490753 0)
(4.83674 0.494597 0)
(4.68011 0.48629 8.13134e-21)
(4.50372 0.46607 0)
(4.30449 0.43822 1.59414e-19)
(4.06877 0.412415 -1.72456e-19)
(3.7599 0.41677 0)
(3.32063 0.516373 0)
(2.75188 0.750969 2.67362e-20)
(2.21786 1.00518 -5.19308e-20)
(1.90114 1.08235 -9.90081e-21)
(1.81012 0.950986 -3.13272e-20)
(1.89001 0.726595 -2.49871e-19)
(2.13732 0.46412 1.43784e-19)
(2.56899 0.18027 -5.57863e-19)
(3.15098 -0.113867 -8.80824e-19)
(3.85479 -0.391774 1.524e-18)
(4.66485 -0.638975 0)
(5.50437 -0.851734 1.35933e-18)
(6.27126 -0.977048 -1.30192e-18)
(6.85363 -0.981232 -3.95587e-19)
(7.15172 -0.882471 2.72323e-19)
(7.2172 -0.724115 0)
(7.123 -0.556288 -1.52532e-19)
(6.90384 -0.408578 0)
(6.66017 -0.300283 4.91978e-20)
(6.46357 -0.227347 0)
(6.31915 -0.175265 9.10007e-21)
(6.22191 -0.137706 0)
(6.14941 -0.10751 -5.62671e-21)
(6.09287 -0.0835128 -8.32543e-22)
(6.05984 -0.069951 1.86569e-22)
(5.529 0.233783 0)
(5.49852 0.284115 1.83166e-19)
(5.46856 0.335296 -1.92728e-19)
(5.42937 0.380258 8.91453e-21)
(5.38066 0.421713 -7.82123e-20)
(5.32191 0.460977 8.23792e-20)
(5.25056 0.497769 4.19972e-20)
(5.16303 0.531731 -4.74747e-20)
(5.0561 0.562456 3.74734e-22)
(4.92793 0.58837 0)
(4.77874 0.606727 7.41577e-20)
(4.61085 0.615416 -6.49802e-20)
(4.42661 0.615322 0)
(4.22469 0.611445 -2.18668e-21)
(3.99608 0.613776 -1.77571e-19)
(3.71814 0.644492 9.05354e-20)
(3.34988 0.749153 1.02655e-19)
(2.8681 0.972401 1.83578e-20)
(2.34204 1.28214 9.10911e-21)
(1.91656 1.53915 -4.99512e-20)
(1.69315 1.62114 0)
(1.67471 1.5422 3.50542e-19)
(1.82981 1.37898 6.2682e-19)
(2.16166 1.16664 -1.38433e-18)
(2.66141 0.91148 7.46522e-19)
(3.29966 0.629481 0)
(4.06233 0.342054 0)
(4.91506 0.0596573 0)
(5.77414 -0.185503 0)
(6.54108 -0.346833 1.48156e-18)
(7.08259 -0.406301 -1.5409e-18)
(7.2844 -0.37237 0)
(7.28699 -0.286794 9.49918e-19)
(7.13419 -0.196507 -8.96046e-19)
(6.8598 -0.129312 4.52162e-19)
(6.62146 -0.0906868 1.35687e-20)
(6.43584 -0.068624 -1.96128e-19)
(6.30659 -0.0536564 0)
(6.21312 -0.0415793 2.83679e-20)
(6.14188 -0.0344423 -2.03933e-20)
(6.09219 -0.0341496 1.76168e-20)
(5.56219 0.283788 4.76876e-20)
(5.52935 0.336773 -2.18718e-19)
(5.49413 0.392671 1.11306e-19)
(5.44844 0.443723 4.16843e-21)
(5.39243 0.491906 0)
(5.32557 0.5383 0)
(5.24553 0.582997 7.68436e-20)
(5.14858 0.626278 -6.33001e-20)
(5.03132 0.668251 0)
(4.89213 0.707541 -3.5796e-20)
(4.73257 0.74143 -3.83757e-20)
(4.5568 0.768036 6.06731e-20)
(4.36889 0.788728 0)
(4.16936 0.808884 5.99194e-21)
(3.95215 0.837832 1.57268e-19)
(3.70182 0.893954 -1.69176e-19)
(3.39217 1.00692 -6.91898e-20)
(3.00138 1.20751 6.57508e-20)
(2.54137 1.50612 -1.40026e-20)
(2.08726 1.84381 1.92988e-19)
(1.7424 2.10867 -3.82887e-20)
(1.58415 2.22404 1.81909e-19)
(1.61296 2.20817 -3.04688e-19)
(1.8101 2.10394 0)
(2.18004 1.91858 0)
(2.71419 1.6709 0)
(3.38858 1.38056 -8.82709e-19)
(4.18122 1.06669 0)
(5.04503 0.756807 0)
(5.91743 0.480817 6.54457e-19)
(6.6863 0.268548 3.43908e-20)
(7.1855 0.148345 8.87101e-19)
(7.33148 0.113144 -1.18091e-18)
(7.27427 0.117828 -4.53742e-19)
(7.02726 0.121125 6.88096e-19)
(6.7576 0.109536 -5.10402e-19)
(6.54268 0.0886292 2.58783e-19)
(6.38155 0.0697758 -8.72468e-21)
(6.26754 0.0543753 2.52786e-21)
(6.18399 0.0389642 2.81746e-20)
(6.11994 0.0238934 -2.98655e-20)
(5.60282 0.342983 -4.79468e-20)
(5.56682 0.400896 6.68751e-20)
(5.52679 0.463264 8.32143e-20)
(5.47493 0.521897 1.24804e-20)
(5.41172 0.578353 1.91059e-19)
(5.33683 0.633282 -1.2972e-19)
(5.24845 0.686967 0)
(5.143 0.740357 -3.04814e-20)
(5.01673 0.794214 5.72439e-20)
(4.86833 0.8476 5.56485e-21)
(4.70069 0.898012 0)
(4.51987 0.943751 -9.4965e-21)
(4.33152 0.986209 -7.46813e-21)
(4.13726 1.03036 1.07003e-19)
(3.9328 1.08501 -1.05055e-19)
(3.70667 1.16442 0)
(3.44392 1.28647 1.21701e-20)
(3.12829 1.46839 1.27085e-20)
(2.75242 1.72764 1.55879e-20)
(2.34021 2.05641 -8.12246e-20)
(1.95157 2.39615 0)
(1.65898 2.66847 -3.97181e-19)
(1.52681 2.82237 2.89451e-20)
(1.57237 2.85348 0)
(1.78121 2.7767 8.48073e-19)
(2.16748 2.59874 -8.18736e-19)
(2.71507 2.34116 9.36228e-19)
(3.40309 2.0247 0)
(4.20358 1.68454 0)
(5.07764 1.34269 3.14284e-18)
(5.94337 1.03461 -2.44822e-18)
(6.66401 0.797144 1.80983e-18)
(7.11076 0.639413 -6.88535e-19)
(7.23578 0.537246 -8.80032e-19)
(7.11784 0.453147 1.80778e-19)
(6.83574 0.373745 2.88234e-19)
(6.60341 0.301324 -2.7712e-19)
(6.41807 0.238715 1.12706e-20)
(6.29095 0.185813 -2.57911e-21)
(6.20336 0.139027 2.10732e-20)
(6.13207 0.104401 -2.03381e-20)
(5.65334 0.410845 2.68592e-19)
(5.61373 0.475575 -3.50297e-19)
(5.56929 0.546037 -2.62723e-19)
(5.51168 0.613904 1.0596e-19)
(5.44129 0.680338 2.37063e-19)
(5.35835 0.74536 -3.16068e-19)
(5.26186 0.809178 2.41429e-19)
(5.14873 0.873519 -2.42611e-20)
(5.01499 0.940074 0)
(4.85952 1.00846 -2.2497e-20)
(4.68652 1.07642 0)
(4.50385 1.14226 1.23272e-20)
(4.31837 1.20717 7.37056e-21)
(4.13185 1.27597 2.89212e-22)
(3.93982 1.35662 0)
(3.73445 1.45796 -1.9403e-21)
(3.50692 1.58918 5.69977e-21)
(3.24561 1.75925 4.98545e-20)
(2.94079 1.97999 6.53397e-20)
(2.59528 2.25895 -2.58035e-19)
(2.2326 2.57938 -7.31082e-20)
(1.8967 2.89855 -3.77916e-19)
(1.63837 3.15641 5.5727e-19)
(1.51333 3.3136 0)
(1.56201 3.35206 7.77576e-19)
(1.75067 3.27856 -2.36093e-18)
(2.12355 3.09825 2.26261e-18)
(2.6615 2.81862 6.64648e-19)
(3.35267 2.47789 5.9172e-19)
(4.16219 2.11469 -1.66604e-18)
(5.02685 1.75633 -5.36002e-19)
(5.8586 1.43639 0)
(6.52425 1.187 0)
(6.89844 1.00131 0)
(6.9579 0.84439 -4.42162e-19)
(6.80342 0.695438 9.37948e-20)
(6.57143 0.557078 2.22742e-19)
(6.39174 0.437534 -3.43293e-20)
(6.26832 0.338666 -2.7775e-20)
(6.18444 0.258249 4.96594e-20)
(6.11287 0.204254 6.67892e-22)
(5.7158 0.485449 4.00108e-19)
(5.67308 0.558781 -5.0989e-19)
(5.62525 0.639026 4.27442e-19)
(5.56242 0.717963 0)
(5.48474 0.796238 0)
(5.39379 0.873148 1.28939e-19)
(5.28987 0.948764 -1.55286e-19)
(5.17033 1.02547 1.44382e-19)
(5.03108 1.1059 -1.47589e-19)
(4.87132 1.19039 2.38082e-19)
(4.69641 1.27711 -6.25697e-20)
(4.51542 1.36453 -2.66631e-21)
(4.33535 1.4538 3.02633e-22)
(4.15703 1.54937 -5.88158e-21)
(3.97595 1.65641 0)
(3.78608 1.7789 5.20588e-20)
(3.58137 1.92065 -5.11021e-20)
(3.35425 2.08426 -3.6784e-20)
(3.09703 2.27475 -6.67733e-20)
(2.80741 2.49985 5.04843e-19)
(2.49315 2.75812 0)
(2.1758 3.03547 -3.07125e-20)
(1.88875 3.29789 0)
(1.66392 3.49678 -1.30579e-18)
(1.53112 3.61199 -7.22067e-19)
(1.57296 3.63434 6.86682e-19)
(1.73431 3.54522 -7.5203e-19)
(2.06732 3.32448 -6.97542e-19)
(2.59714 3.01195 -1.62297e-18)
(3.2968 2.65853 2.73451e-18)
(4.11489 2.30131 -5.50652e-19)
(4.97961 1.96699 0)
(5.77157 1.67694 2.67143e-19)
(6.34749 1.43477 2.0476e-19)
(6.6125 1.21981 -5.0181e-19)
(6.60149 1.01163 5.00252e-20)
(6.45245 0.813737 0)
(6.29598 0.640478 0)
(6.18592 0.498804 1.79642e-19)
(6.11306 0.385775 -4.6601e-21)
(6.05143 0.309607 -1.84135e-19)
(5.79352 0.563757 1.94765e-19)
(5.74898 0.647527 -3.48439e-19)
(5.69897 0.739668 1.65507e-19)
(5.63122 0.831831 0)
(5.54619 0.923994 1.76137e-19)
(5.44775 1.01493 -1.67356e-20)
(5.33795 1.10476 -4.40747e-19)
(5.21422 1.19633 6.15436e-20)
(5.07218 1.29294 0)
(4.91145 1.39563 3.90245e-20)
(4.73838 1.50328 -1.37721e-19)
(4.56219 1.61499 0)
(4.38892 1.73189 -1.40117e-19)
(4.2181 1.85629 -1.05841e-20)
(4.04478 1.98991 1.67762e-19)
(3.86283 2.13346 -1.30226e-19)
(3.66769 2.28672 3.5771e-19)
(3.45532 2.44709 -1.64137e-19)
(3.22149 2.61337 1.16663e-19)
(2.96483 2.78995 -6.93243e-19)
(2.68805 2.97973 0)
(2.40069 3.17912 -5.71187e-20)
(2.12123 3.37847 0)
(1.86883 3.54363 1.32289e-18)
(1.66981 3.64854 7.03177e-19)
(1.55257 3.68954 -6.37847e-19)
(1.52872 3.62462 1.73346e-18)
(1.68238 3.4683 -1.06922e-18)
(2.02186 3.21715 6.98538e-19)
(2.56668 2.90348 -1.85669e-18)
(3.28694 2.57476 5.74497e-19)
(4.11652 2.26198 -4.33542e-19)
(4.95513 1.98536 1.56914e-19)
(5.66705 1.74596 1.69315e-19)
(6.11934 1.51771 -2.69768e-20)
(6.27378 1.27745 1.20006e-19)
(6.22525 1.03508 1.34597e-19)
(6.11448 0.81962 0)
(6.02939 0.64362 -6.04004e-20)
(5.98308 0.50296 1.68677e-19)
(5.94464 0.404074 -1.73943e-19)
(5.89208 0.642036 3.03745e-19)
(5.84757 0.738651 1.10868e-18)
(5.79596 0.84502 -5.20692e-19)
(5.72309 0.952834 -2.31092e-19)
(5.63141 1.06131 -1.7952e-19)
(5.5276 1.16922 -6.92781e-20)
(5.41476 1.277 2.66386e-19)
(5.28978 1.38757 0)
(5.14813 1.50437 -2.2671e-19)
(4.99005 1.62895 5.66377e-19)
(4.82242 1.76133 -2.45509e-19)
(4.65341 1.9013 0)
(4.48711 2.04863 -2.9159e-19)
(4.32112 2.20294 3.03798e-19)
(4.14899 2.36295 0)
(3.96453 2.52593 0)
(3.76453 2.68803 -5.2337e-20)
(3.54758 2.84328 -1.32799e-19)
(3.31347 2.98564 -1.06511e-19)
(3.06544 3.11573 5.17482e-19)
(2.80725 3.23733 0)
(2.5413 3.35424 1.40587e-18)
(2.2702 3.46339 5.48596e-19)
(2.01057 3.54559 -1.41769e-18)
(1.78012 3.59595 0)
(1.59001 3.57708 -6.37107e-19)
(1.4644 3.50021 1.06774e-18)
(1.44976 3.35688 -6.80815e-20)
(1.61347 3.13653 -1.21373e-18)
(2.00099 2.86029 6.8713e-19)
(2.60663 2.57146 -2.13207e-19)
(3.37101 2.30261 0)
(4.2017 2.07198 -2.50112e-20)
(4.97303 1.8704 -4.14702e-19)
(5.54588 1.66216 3.43532e-19)
(5.83802 1.42468 0)
(5.89251 1.17235 2.17454e-19)
(5.84741 0.934946 -1.4487e-19)
(5.81141 0.73466 0)
(5.80318 0.579967 0)
(5.79924 0.468325 -6.10796e-20)
(6.01746 0.714781 0)
(5.97519 0.827142 -6.21987e-19)
(5.92236 0.95065 1.83512e-19)
(5.8452 1.07721 2.35997e-19)
(5.74974 1.20531 0)
(5.64506 1.33474 2.58391e-19)
(5.53364 1.46611 -2.72286e-19)
(5.41096 1.60171 0)
(5.27306 1.74466 0)
(5.12104 1.89693 -3.78559e-19)
(4.9616 2.05925 1.44662e-19)
(4.80037 2.23074 -4.4978e-19)
(4.63839 2.40945 -3.13152e-20)
(4.47017 2.59239 8.09677e-19)
(4.28832 2.7748 -2.9637e-19)
(4.08761 2.95042 0)
(3.86653 3.11236 0)
(3.62473 3.25228 0)
(3.36769 3.36177 1.47599e-19)
(3.10511 3.44026 -1.49033e-19)
(2.8454 3.49052 0)
(2.58987 3.52165 -7.00284e-20)
(2.33102 3.53149 -5.53536e-19)
(2.07246 3.52236 1.53765e-18)
(1.82594 3.47652 7.38385e-19)
(1.59959 3.39188 -6.98364e-19)
(1.40699 3.25834 -1.1215e-18)
(1.29013 3.07265 2.00537e-19)
(1.32843 2.8385 1.14769e-18)
(1.58947 2.57941 -9.10411e-20)
(2.08943 2.32959 0)
(2.78196 2.11406 0)
(3.58032 1.94302 0)
(4.36511 1.79922 0)
(4.99604 1.6398 0)
(5.37271 1.43161 6.32914e-19)
(5.51597 1.18507 -6.02003e-19)
(5.54421 0.94338 -2.03442e-19)
(5.55837 0.741908 0)
(5.58828 0.589411 1.48515e-19)
(5.62492 0.477349 0)
(6.17414 0.774173 2.60772e-18)
(6.13601 0.905458 -1.6488e-18)
(6.08293 1.04969 1.26871e-18)
(6.00638 1.1994 7.27116e-19)
(5.91443 1.35235 -1.55448e-18)
(5.81622 1.51004 -1.88301e-20)
(5.71181 1.6722 9.01859e-19)
(5.59555 1.84056 9.96617e-19)
(5.46481 2.01707 -1.59542e-18)
(5.3215 2.20364 -3.72348e-19)
(5.17057 2.40003 8.81972e-19)
(5.0135 2.60358 0)
(4.84719 2.81058 1.0484e-18)
(4.66353 3.01412 -8.41605e-19)
(4.45583 3.20671 0)
(4.22133 3.37922 -4.28043e-20)
(3.95954 3.52497 1.88844e-19)
(3.67181 3.63008 0)
(3.37301 3.69045 0)
(3.07917 3.70534 -9.66079e-19)
(2.80245 3.6812 -1.00535e-18)
(2.54594 3.624 -1.87916e-18)
(2.3002 3.53747 0)
(2.05337 3.42668 5.2449e-19)
(1.80245 3.29559 -1.1842e-18)
(1.55811 3.13842 7.31563e-19)
(1.32688 2.93262 -6.60977e-19)
(1.15395 2.67747 -2.97339e-19)
(1.12081 2.40072 5.62947e-19)
(1.30309 2.13576 9.51314e-20)
(1.7301 1.91449 0)
(2.36163 1.75097 -5.03204e-19)
(3.11843 1.64383 1.59159e-18)
(3.88544 1.56328 -1.05895e-18)
(4.52689 1.45799 4.37883e-19)
(4.94472 1.28895 -9.43055e-20)
(5.14953 1.06759 -8.06462e-19)
(5.23877 0.844325 -2.31647e-19)
(5.30204 0.658718 1.32679e-18)
(5.37291 0.51906 -1.50093e-18)
(5.44763 0.415744 1.02955e-18)
(6.36494 0.809447 1.61711e-19)
(6.33381 0.963768 0)
(6.28438 1.13138 -3.75869e-19)
(6.21909 1.31094 -5.40699e-19)
(6.14239 1.49546 4.59999e-19)
(6.06011 1.69042 4.75092e-20)
(5.96785 1.89026 -1.79604e-18)
(5.8622 2.09985 1.38268e-18)
(5.74071 2.31575 0)
(5.60518 2.54103 8.83744e-19)
(5.45612 2.77085 9.87226e-19)
(5.29018 3.00083 -1.03935e-18)
(5.10135 3.22415 -6.13926e-19)
(4.88109 3.42946 2.03115e-19)
(4.62675 3.61034 6.65611e-19)
(4.33758 3.7557 -7.33053e-19)
(4.01431 3.86157 -1.95215e-19)
(3.66505 3.90504 0)
(3.31957 3.89971 0)
(2.9919 3.8484 8.64594e-19)
(2.6939 3.75392 1.33975e-18)
(2.42584 3.62204 1.21165e-18)
(2.1776 3.44655 2.69751e-19)
(1.94085 3.24648 -1.57236e-18)
(1.69915 3.02257 9.08506e-19)
(1.4501 2.78764 -8.11157e-19)
(1.20376 2.51687 1.89093e-18)
(1.00968 2.19391 -1.58398e-18)
(0.954868 1.86945 -4.63835e-19)
(1.11604 1.59451 1.30956e-19)
(1.50936 1.39658 0)
(2.10575 1.28497 0)
(2.82748 1.23853 0)
(3.56385 1.21607 2.01953e-18)
(4.1867 1.15634 -6.78652e-19)
(4.61008 1.02245 -9.80881e-19)
(4.84806 0.833794 1.36047e-18)
(4.9831 0.643972 -3.24911e-19)
(5.09081 0.491021 0)
(5.19744 0.378721 0)
(5.30068 0.29541 -2.08804e-19)
(6.592 0.801776 -7.60779e-19)
(6.58041 0.983661 0)
(6.54781 1.17909 -6.52997e-19)
(6.51083 1.39494 -7.42086e-19)
(6.45814 1.61851 1.15292e-18)
(6.39999 1.85794 0)
(6.32028 2.10202 3.08062e-19)
(6.22783 2.35654 0)
(6.10775 2.6139 -1.15985e-18)
(5.97005 2.87448 1.99364e-18)
(5.79816 3.129 8.15385e-20)
(5.59767 3.3702 -3.1576e-18)
(5.35465 3.58614 2.61709e-18)
(5.07165 3.7655 8.25484e-20)
(4.7481 3.90831 1.17194e-19)
(4.38562 3.99389 -3.33255e-20)
(3.99949 4.02149 0)
(3.59523 4.00588 -3.97116e-19)
(3.21612 3.95084 3.62917e-19)
(2.85564 3.8394 4.55861e-19)
(2.53785 3.68316 -9.17134e-20)
(2.24869 3.4799 1.69312e-18)
(1.99155 3.22808 0)
(1.76357 2.94806 1.39565e-18)
(1.52449 2.63304 -1.04705e-18)
(1.27008 2.32359 9.96178e-19)
(1.02733 1.9938 -6.8973e-19)
(0.847637 1.61153 8.23525e-19)
(0.82731 1.26362 3.39553e-19)
(0.996532 0.985395 0)
(1.40556 0.821509 0)
(1.99309 0.761087 0)
(2.67479 0.760146 -7.324e-19)
(3.37907 0.784924 7.32938e-19)
(3.9518 0.752083 -2.03717e-18)
(4.36883 0.653948 1.206e-18)
(4.61768 0.503076 -4.5516e-20)
(4.79356 0.361112 2.97382e-19)
(4.93262 0.249383 -1.91417e-19)
(5.06923 0.175928 1.14818e-19)
(5.19127 0.121052 1.36508e-19)
(6.85633 0.747941 1.18448e-18)
(6.8913 0.926031 -1.94071e-18)
(6.90149 1.19131 1.24404e-18)
(6.90577 1.40902 -9.56669e-19)
(6.87498 1.71456 -3.09183e-19)
(6.84703 1.96042 2.33436e-18)
(6.76315 2.28553 -9.5185e-19)
(6.69131 2.54574 -2.94752e-18)
(6.52955 2.8655 -1.58776e-18)
(6.38744 3.12226 -1.06828e-18)
(6.12618 3.39826 -8.50167e-19)
(5.88557 3.61649 -1.47387e-18)
(5.53007 3.80302 3.22133e-18)
(5.18854 3.93656 -3.11976e-18)
(4.76857 4.01644 1.51367e-18)
(4.34369 4.05173 1.40915e-21)
(3.90877 4.02297 0)
(3.4588 3.95459 1.33266e-18)
(3.06582 3.82876 -9.44153e-19)
(2.65331 3.64057 1.23497e-18)
(2.33985 3.43347 0)
(2.01646 3.14058 2.84598e-19)
(1.77896 2.8497 8.27376e-19)
(1.57303 2.5062 -2.29413e-18)
(1.32533 2.14 -1.40659e-18)
(1.11719 1.82792 1.31912e-19)
(0.806652 1.36325 2.18059e-18)
(0.707967 0.958596 -5.65162e-19)
(0.671323 0.540698 3.53587e-19)
(0.966866 0.352453 -3.60878e-19)
(1.40036 0.211631 1.78934e-19)
(2.00194 0.236839 -6.5021e-19)
(2.71078 0.285455 7.67513e-19)
(3.35118 0.331935 -1.41836e-18)
(3.92822 0.327354 6.95026e-19)
(4.27655 0.238939 0)
(4.56046 0.146433 -5.30167e-20)
(4.72086 0.049162 -3.1315e-19)
(4.90896 -0.00456993 -3.70767e-20)
(5.03794 -0.0486928 3.71924e-20)
(5.19782 -0.0626343 2.85085e-20)
(5.29715 -0.0881392 -3.23049e-19)
(5.30211 0.0769986 0)
(5.38508 0.226225 1.34553e-19)
(5.50553 0.334264 -6.78726e-19)
(5.6484 0.391804 1.5744e-19)
(5.78518 0.391636 0)
(5.8995 0.347823 0)
(5.98543 0.274079 3.30953e-19)
(6.03915 0.185532 -1.38331e-19)
(6.06364 0.0997378 5.28896e-20)
(6.0666 0.029445 0)
(6.05881 -0.0225394 -2.12643e-20)
(6.04539 -0.0553943 0)
(6.03078 -0.0679164 -2.08923e-20)
(5.98256 -0.0310296 -1.28928e-21)
(5.77444 0.0189305 4.85621e-20)
(4.82594 0.0527262 -2.25979e-19)
(5.40564 -0.0958145 4.45861e-20)
(5.37805 0.023365 0)
(5.42743 0.14681 3.47579e-20)
(5.50717 0.243773 0)
(5.61242 0.307267 -1.27346e-19)
(5.72187 0.329444 0)
(5.82094 0.316465 -1.99822e-19)
(5.90358 0.274748 5.56601e-21)
(5.96532 0.214188 1.29239e-19)
(6.00634 0.146773 -1.68876e-20)
(6.02936 0.0828805 3.90958e-21)
(6.03931 0.0283424 -3.94543e-21)
(6.0421 -0.0157195 0)
(6.0405 -0.0484539 3.3655e-20)
(6.02002 -0.0530816 -7.53438e-22)
(5.8905 -0.0558415 -1.44817e-20)
(4.90595 -0.00963942 3.16501e-20)
(5.47293 -0.106244 0)
(5.45071 -0.0079487 0)
(5.476 0.0899953 -3.71107e-20)
(5.52829 0.171877 0)
(5.60448 0.231085 1.00849e-19)
(5.68976 0.260498 1.21184e-20)
(5.77243 0.262466 2.28272e-19)
(5.84553 0.240775 -6.04049e-20)
(5.9041 0.201894 -9.58151e-20)
(5.9478 0.153364 -5.04023e-20)
(5.97829 0.102999 -1.86386e-20)
(5.99775 0.0562818 5.60106e-21)
(6.01081 0.0141969 1.03099e-21)
(6.02103 -0.0180606 -1.46035e-20)
(6.02058 -0.0314405 0)
(5.91223 -0.0570344 -3.51014e-20)
(4.97521 -0.00258164 -3.20618e-20)
(5.54251 -0.100378 5.29711e-19)
(5.50838 -0.0319431 0)
(5.519 0.0463421 1.53533e-19)
(5.54962 0.114449 -6.80943e-20)
(5.60155 0.168792 -8.75146e-20)
(5.66474 0.202869 0)
(5.73053 0.215829 -1.02092e-20)
(5.79313 0.20911 -9.18602e-20)
(5.84778 0.186517 8.63967e-20)
(5.89254 0.153257 0)
(5.92759 0.115178 0)
(5.95401 0.075776 -1.39068e-21)
(5.97537 0.0367129 1.39614e-21)
(5.99753 0.00471709 2.88681e-21)
(6.01074 -0.0178619 -3.34832e-24)
(5.92167 -0.0435699 0)
(5.05252 -0.0112261 0)
(5.58732 -0.0996641 -5.71358e-19)
(5.55919 -0.0444089 -3.74486e-19)
(5.55825 0.0148393 3.60433e-19)
(5.57364 0.0695495 2.47025e-19)
(5.60692 0.116256 2.91771e-19)
(5.6519 0.150202 -7.66759e-20)
(5.70197 0.169153 -3.35594e-20)
(5.75233 0.172885 0)
(5.79959 0.16296 -3.26994e-20)
(5.84145 0.142645 0)
(5.87712 0.115786 0)
(5.90658 0.0851003 0)
(5.93266 0.0522451 6.88971e-21)
(5.95994 0.0229304 -1.10004e-22)
(5.97282 -0.00390703 2.65664e-23)
(5.91338 -0.0286948 -2.68457e-23)
(5.12025 -0.0100289 6.20724e-21)
(5.63138 -0.089591 3.2617e-19)
(5.59945 -0.0526464 -5.5966e-19)
(5.59262 -0.0066922 6.93414e-19)
(5.59743 0.0360624 -2.66968e-19)
(5.61641 0.0746182 -3.9777e-19)
(5.64633 0.105761 2.00092e-19)
(5.68253 0.126813 0)
(5.72112 0.136685 -1.20226e-19)
(5.75969 0.13566 -5.42024e-20)
(5.79643 0.125398 0)
(5.82996 0.108247 0)
(5.8595 0.0858552 0)
(5.88694 0.0596517 1.92451e-20)
(5.91655 0.0339684 0)
(5.93613 0.00719602 -9.51185e-21)
(5.89202 -0.0160041 -4.96254e-21)
(5.17154 -0.00630105 -6.08343e-21)
(5.65916 -0.0840446 3.80997e-19)
(5.63395 -0.0542094 -6.71776e-19)
(5.62215 -0.0208988 4.3306e-20)
(5.61965 0.01145 -2.35218e-19)
(5.62797 0.0420911 -5.26912e-19)
(5.64589 0.0687941 1.48225e-19)
(5.67037 0.0893374 -2.48837e-19)
(5.69849 0.102163 3.29615e-19)
(5.72841 0.106817 1.99196e-19)
(5.75878 0.10389 5.51426e-20)
(5.78816 0.0946642 0)
(5.8154 0.0799224 0)
(5.84198 0.0607606 -2.78169e-20)
(5.87212 0.0402968 3.78314e-20)
(5.89503 0.0165912 1.36957e-20)
(5.86187 -0.00493464 2.8136e-20)
(5.20703 0.000706341 0)
(5.68386 -0.0731612 4.48654e-19)
(5.65923 -0.0548858 -1.9273e-20)
(5.6466 -0.0299965 -6.52292e-19)
(5.63968 -0.00590261 3.32436e-19)
(5.64024 0.0175383 8.92017e-19)
(5.64868 0.0391752 0)
(5.66366 0.057572 2.69163e-19)
(5.68308 0.0710858 -3.3284e-19)
(5.70528 0.0788679 -5.82306e-20)
(5.72902 0.0808168 -2.7895e-19)
(5.75308 0.0774773 7.48553e-20)
(5.77643 0.0690715 0)
(5.80052 0.0562357 -1.86193e-20)
(5.8296 0.0412941 -2.72265e-20)
(5.85399 0.0219596 6.87226e-20)
(5.82398 0.00265146 -2.25317e-20)
(5.22811 0.0094168 0)
(5.69917 -0.0656167 0)
(5.67973 -0.0509454 -8.87415e-19)
(5.66601 -0.034305 7.97163e-19)
(5.65684 -0.0171936 -6.68851e-19)
(5.65266 -4.81457e-05 -2.64491e-19)
(5.65423 0.0165035 2.60638e-19)
(5.66177 0.0317345 -4.21155e-19)
(5.67413 0.0444744 1.89073e-19)
(5.68965 0.0535333 3.10218e-19)
(5.70703 0.0583597 8.08035e-20)
(5.72528 0.0590111 -2.23508e-19)
(5.74387 0.0554159 9.6582e-20)
(5.76447 0.0478058 0)
(5.79103 0.038137 0)
(5.81404 0.0231229 -8.3047e-20)
(5.7837 0.00675393 1.06027e-20)
(5.23641 0.0184278 -6.07766e-20)
(5.71113 -0.0545901 -5.87354e-19)
(5.69337 -0.0466329 5.59852e-19)
(5.68054 -0.0351317 4.77074e-19)
(5.67061 -0.0234404 3.85786e-19)
(5.6643 -0.0114559 3.33247e-19)
(5.662 0.000531032 -9.26477e-19)
(5.66436 0.0122224 -7.55256e-21)
(5.67103 0.0230172 4.95699e-19)
(5.68066 0.0318525 -3.76442e-19)
(5.69215 0.0379563 3.83847e-19)
(5.70473 0.0410013 2.78511e-19)
(5.71843 0.040679 -1.13481e-19)
(5.73511 0.037103 -1.08001e-20)
(5.75801 0.0319623 0)
(5.77732 0.0209213 1.86418e-20)
(5.74585 0.00868909 -1.83517e-20)
(5.23457 0.0250546 6.35613e-20)
(5.71845 -0.0453267 0)
(5.7041 -0.0390243 0)
(5.69162 -0.0323647 -1.04335e-18)
(5.68163 -0.0251284 4.94878e-19)
(5.67467 -0.0173315 4.3554e-19)
(5.67078 -0.00928779 3.51657e-19)
(5.67005 -0.00102541 0)
(5.67231 0.00713333 3.7713e-20)
(5.6769 0.0146226 -2.79449e-19)
(5.68317 0.0206759 -4.34711e-19)
(5.69083 0.0248463 4.12972e-19)
(5.70014 0.0265598 -5.56617e-19)
(5.71296 0.0258815 -3.99606e-20)
(5.73175 0.0242832 -1.60035e-19)
(5.74619 0.0172404 -2.89573e-20)
(5.71201 0.00910994 2.83829e-20)
(5.22689 0.0289492 0)
(5.72277 -0.0341192 3.4645e-19)
(5.71032 -0.0312883 -1.37947e-18)
(5.69946 -0.0272724 6.36409e-19)
(5.69032 -0.0232653 2.81693e-19)
(5.68372 -0.0187118 -4.77398e-19)
(5.67939 -0.0137334 -2.28914e-19)
(5.67676 -0.00846285 3.84143e-19)
(5.67575 -0.00309608 -3.60403e-19)
(5.67637 0.00240316 3.10176e-19)
(5.67853 0.00739691 2.82724e-19)
(5.68244 0.0116316 -2.7317e-19)
(5.68828 0.0143134 4.76037e-19)
(5.69779 0.015497 1.93588e-19)
(5.71266 0.0164453 -4.22479e-20)
(5.72245 0.0126045 1.52726e-19)
(5.68208 0.00827012 -1.36189e-19)
(5.21689 0.0294199 0)
(5.72501 -0.0233094 -4.25246e-19)
(5.71452 -0.0214358 0)
(5.70479 -0.0199936 3.30315e-19)
(5.69689 -0.0185229 -2.16247e-20)
(5.69118 -0.0165228 -1.1425e-18)
(5.68691 -0.013944 5.16162e-19)
(5.68316 -0.0109746 -4.56322e-19)
(5.6798 -0.00796455 2.23108e-20)
(5.67752 -0.0047824 2.3122e-19)
(5.67692 -0.00145832 3.46113e-19)
(5.67806 0.00200625 -8.21894e-19)
(5.68151 0.00472419 1.73765e-19)
(5.68852 0.00694231 1.38384e-19)
(5.70013 0.00907946 2.19829e-19)
(5.7055 0.00739209 -5.18661e-19)
(5.65562 0.00638404 1.08321e-19)
(5.20752 0.0268813 2.42518e-20)
(5.72381 -0.0119543 0)
(5.71491 -0.0115382 0)
(5.70712 -0.0112376 3.86481e-19)
(5.70097 -0.0115033 -6.90797e-19)
(5.69642 -0.0113905 2.58933e-20)
(5.69234 -0.0107388 5.9284e-19)
(5.68794 -0.00993728 0)
(5.68343 -0.00854255 4.86143e-19)
(5.67948 -0.00735728 -1.1306e-18)
(5.67701 -0.00563464 2.33952e-19)
(5.67637 -0.00368708 5.79628e-19)
(5.67817 -0.00182131 -1.76456e-19)
(5.68343 0.000712084 1.77043e-19)
(5.69232 0.00248425 -6.11737e-21)
(5.69377 0.00274167 -3.46135e-20)
(5.63409 0.00390708 0)
(5.2008 0.0222382 1.32779e-19)
(5.72184 0.00289649 2.77294e-19)
(5.71283 0.000399961 9.39343e-19)
(5.70605 -0.0012881 2.10786e-19)
(5.70163 -0.00287812 -7.77619e-19)
(5.69842 -0.00412534 3.58681e-19)
(5.69473 -0.00488883 9.79033e-19)
(5.69018 -0.00534606 -6.20453e-19)
(5.68547 -0.00569152 0)
(5.68131 -0.00585455 2.4878e-19)
(5.67808 -0.00597787 -4.9624e-19)
(5.67639 -0.00563813 -6.88787e-19)
(5.6769 -0.00494247 2.16661e-19)
(5.68075 -0.0028323 0)
(5.68735 -0.00274132 0)
(5.68717 0.000163994 2.49398e-19)
(5.61817 0.000582971 -2.54577e-19)
(5.19726 0.0172352 2.13151e-20)
(5.71562 0.0141191 -7.27521e-21)
(5.70767 0.0120727 -2.45053e-19)
(5.70198 0.00966137 8.97719e-19)
(5.69867 0.00680213 -2.20059e-19)
(5.69632 0.00449677 -3.89381e-19)
(5.69316 0.00286492 1.78886e-19)
(5.68904 0.00144526 0)
(5.68479 0.000106997 0)
(5.68107 -0.00115658 -2.8929e-19)
(5.67821 -0.00226554 5.46582e-19)
(5.67652 -0.00339859 3.8189e-19)
(5.67668 -0.00483825 -1.118e-19)
(5.67969 -0.00351195 2.23063e-19)
(5.68459 -0.00607996 -4.25272e-19)
(5.68204 -9.37936e-05 3.06014e-19)
(5.6071 -0.00402262 2.29671e-19)
(5.19554 0.0139604 -2.17267e-19)
(5.70847 0.0319733 -9.03729e-21)
(5.70085 0.0262861 2.6523e-19)
(5.69577 0.0218613 -4.81077e-19)
(5.69311 0.0178447 -2.24609e-19)
(5.69085 0.0144367 0)
(5.68763 0.0116385 -1.92619e-19)
(5.68381 0.00932605 -3.53973e-19)
(5.68022 0.00732236 1.71129e-19)
(5.67725 0.00541158 3.10759e-19)
(5.67509 0.00356717 -2.96293e-19)
(5.67414 0.0016591 -1.37368e-19)
(5.67507 -0.000177674 -1.31154e-19)
(5.67836 -0.000850056 2.49604e-19)
(5.68208 -0.00648686 0)
(5.67679 0.00239273 -1.09452e-19)
(5.59833 -0.0096609 0)
(5.19287 0.0130221 0)
(5.69831 0.0405361 -8.78e-19)
(5.69133 0.037472 5.45044e-19)
(5.68755 0.0336498 2.52484e-19)
(5.68551 0.0294197 0)
(5.68319 0.0254105 0)
(5.67968 0.0218102 4.93495e-19)
(5.67571 0.0185462 -5.12475e-21)
(5.67221 0.0155153 -1.74883e-19)
(5.66954 0.0126694 0)
(5.66789 0.010074 0)
(5.6677 0.00765324 -7.18008e-20)
(5.66948 0.00519267 2.75737e-19)