/*--------------------------------*- C++ -*----------------------------------*\
  =========                 |
  \\      /  F ield         | OpenFOAM: The Open Source CFD Toolbox
   \\    /   O peration     | Website:  https://openfoam.org
    \\  /    A nd           | Version:  6
     \\/     M anipulation  |
\*---------------------------------------------------------------------------*/
FoamFile
{
    version     2.0;
    format      ascii;
    class       volScalarField;
    location    "4.44";
    object      nut;
}
// * * * * * * * * * * * * * * * * * * * * * * * * * * * * * * * * * * * * * //

dimensions      [0 2 -1 0 0 0 0];

internalField   nonuniform List<scalar> 
4214
(
0.00247242
0.00150475
0.00111993
0.00105294
0.00109367
0.00111239
0.00109747
0.00107592
0.00108026
0.00114448
0.00130004
0.00157145
0.00198131
0.00253506
0.00323362
0.00422418
0.00594266
0.00924339
0.0151116
0.0237748
0.0338265
0.042326
0.0475502
0.0509429
0.0532166
0.0551822
0.057867
0.0620072
0.0663822
0.0671501
0.0593433
0.0438131
0.0269617
0.0140051
0.00644739
0.00294486
0.00160098
0.0011586
0.00106945
0.00136504
0.0022802
0.001456
0.00111974
0.00103342
0.00106711
0.00109511
0.00108742
0.00106452
0.00105844
0.00110893
0.00125571
0.00153573
0.00197047
0.00257764
0.00331639
0.00405882
0.00482732
0.00584513
0.0077286
0.0115436
0.018233
0.0274339
0.0369987
0.0447501
0.0504853
0.0534561
0.0548941
0.0570854
0.0612094
0.0661918
0.0680504
0.06207
0.0475686
0.0305539
0.016613
0.0079347
0.00362343
0.0018447
0.00124203
0.00105551
0.00103439
0.0011987
0.00114588
0.00105672
0.0010586
0.00108129
0.00107915
0.0010585
0.00104881
0.0010934
0.00124293
0.00154578
0.0020507
0.00277974
0.00374336
0.00484035
0.0057496
0.00640736
0.0069264
0.00771074
0.00960155
0.0137661
0.0207638
0.0294877
0.0378062
0.0442662
0.0486214
0.0515989
0.0550063
0.0600177
0.0657734
0.0686491
0.0641049
0.0511624
0.0342119
0.0194761
0.00969293
0.00449987
0.0021962
0.00134902
0.00110044
0.00102014
0.00102619
0.00106001
0.00105256
0.00107106
0.00107248
0.00105556
0.00104498
0.00108506
0.00123552
0.00156293
0.00213409
0.00301897
0.00421467
0.0057339
0.00738431
0.00857372
0.00915559
0.00923985
0.00917586
0.00961254
0.011595
0.0161897
0.0232931
0.031327
0.0384604
0.0439022
0.0481622
0.0526354
0.0584354
0.0649608
0.0688942
0.0657557
0.0541679
0.0379317
0.0225747
0.0117404
0.00560493
0.00268425
0.00151611
0.00114732
0.00104458
0.00100459
0.00105269
0.00106506
0.00106748
0.00105375
0.00104271
0.00107634
0.0012198
0.00155191
0.00216586
0.00315931
0.00462765
0.00652394
0.00882663
0.0111554
0.0127092
0.0131754
0.0127387
0.0118497
0.0110928
0.0113025
0.0135825
0.0185656
0.0255267
0.0328395
0.0391807
0.044521
0.049955
0.0564461
0.0637015
0.0686977
0.0669897
0.0567621
0.0412157
0.0257529
0.0140855
0.00694688
0.00332995
0.00176732
0.00121698
0.00107188
0.0010227
0.0010636
0.0010643
0.00105293
0.00104146
0.00106665
0.00119321
0.0015073
0.00211684
0.00315726
0.00476566
0.0070557
0.00989023
0.0132171
0.0162177
0.0181846
0.0184689
0.0173494
0.0155524
0.0136929
0.0124693
0.0127964
0.0155755
0.0208583
0.0276078
0.0344038
0.0406419
0.046947
0.0540926
0.0620233
0.0680644
0.0677846
0.0589836
0.0442747
0.0287989
0.0164684
0.0085055
0.00416405
0.00211927
0.00133067
0.00110034
0.00104258
0.00106339
0.00105266
0.001041
0.00105678
0.00115872
0.00143217
0.00199111
0.0029878
0.00461322
0.00704539
0.0103972
0.0143887
0.0189182
0.0225303
0.024847
0.0249132
0.0229133
0.0201182
0.0171622
0.0146907
0.0134453
0.0142579
0.0176383
0.0232012
0.0298185
0.0365781
0.0435068
0.0513262
0.0599595
0.066988
0.0680959
0.0607702
0.0470424
0.0317281
0.0188855
0.0101411
0.00510132
0.00258662
0.0015073
0.00114368
0.00105742
0.00105314
0.00104105
0.00104814
0.00112151
0.00133847
0.00180738
0.00268184
0.00417174
0.00653433
0.0099875
0.0146239
0.0199787
0.0258329
0.029996
0.0324006
0.0322964
0.0292539
0.0254482
0.0214419
0.0177595
0.0151604
0.014349
0.0159101
0.0199617
0.0258233
0.0326232
0.0400191
0.0483355
0.0575971
0.0655241
0.0679331
0.0620878
0.0494473
0.0344613
0.0212656
0.0118369
0.00612607
0.00311964
0.00174157
0.00121837
0.00107308
0.00104167
0.00104165
0.00108741
0.00124133
0.00159766
0.00229424
0.00353448
0.00559692
0.00881817
0.0134612
0.0195898
0.0265132
0.0337194
0.0382807
0.0406001
0.0401888
0.0361599
0.0314111
0.0261336
0.0213669
0.0176478
0.015516
0.0155246
0.0180047
0.0227244
0.0290667
0.036595
0.0453343
0.0550941
0.063784
0.0673689
0.0629255
0.0514209
0.0369058
0.023521
0.0135287
0.00720253
0.00371316
0.00202215
0.00132212
0.00109897
0.00103787
0.0010609
0.00115567
0.0013959
0.00189401
0.00282234
0.00444195
0.00711262
0.0112712
0.0172387
0.0250515
0.033672
0.0421183
0.0468941
0.048901
0.0477596
0.0432604
0.0378018
0.0313283
0.0254011
0.0206461
0.017464
0.0162833
0.0173522
0.0207318
0.0261659
0.0334691
0.042459
0.0526295
0.061955
0.0665255
0.0633209
0.0529109
0.0389633
0.0255491
0.0151361
0.00828095
0.00434245
0.00234206
0.00145554
0.00113763
0.00104421
0.00109226
0.00123098
0.00154297
0.00215914
0.00328797
0.00525504
0.0085162
0.0136379
0.0210105
0.0306331
0.0409181
0.0504562
0.0551147
0.0564079
0.0542557
0.0493744
0.0440133
0.036802
0.0298058
0.02411
0.0200285
0.0179221
0.0179284
0.0201382
0.0245745
0.0312906
0.0401676
0.0505991
0.0603731
0.0656309
0.0633657
0.0538902
0.0405373
0.0272372
0.0165649
0.00929964
0.00497493
0.00268773
0.00161556
0.00119273
0.00105484
0.00111944
0.00128329
0.00163497
0.00232136
0.00358505
0.00582143
0.00959558
0.0156378
0.0244049
0.0358617
0.0476974
0.0580907
0.062191
0.0622783
0.058962
0.0537626
0.0485316
0.0420416
0.0345319
0.0279096
0.023095
0.0202154
0.0194218
0.020736
0.0243597
0.0306068
0.0393879
0.0498643
0.0596651
0.0650476
0.063201
0.0543534
0.0415388
0.0284695
0.0177134
0.0101905
0.00557344
0.00304325
0.00179738
0.00126569
0.00106129
0.00112804
0.00129114
0.00164073
0.00233442
0.00364164
0.00602868
0.010172
0.017007
0.0270247
0.0402557
0.053339
0.0644213
0.0675772
0.0660751
0.0616077
0.0561076
0.0511589
0.0456166
0.0394356
0.0321347
0.0265286
0.0230233
0.0216669
0.0224145
0.0256109
0.0316902
0.0404332
0.05069
0.0600213
0.0649108
0.0628781
0.0542616
0.0418706
0.0291331
0.0184843
0.0108901
0.00610329
0.00339473
0.00199647
0.00135742
0.00106008
0.00111529
0.00125344
0.00156034
0.00219778
0.00344795
0.00584578
0.0101521
0.0175802
0.028531
0.0434662
0.0573836
0.069091
0.0710745
0.0678181
0.0623514
0.0566347
0.0522123
0.0478776
0.0431928
0.0373288
0.0305045
0.0264762
0.0246417
0.0253064
0.0285899
0.0348201
0.0435206
0.0532902
0.0615625
0.0652338
0.0623557
0.0535387
0.0414153
0.0291215
0.0187958
0.0113547
0.00653986
0.00373455
0.00220925
0.00146866
0.00105467
0.00109086
0.00118929
0.00142417
0.00195713
0.00305821
0.00534039
0.00955157
0.0173772
0.0286978
0.0453927
0.0595221
0.0720457
0.0729156
0.0678575
0.0617099
0.0558836
0.0522345
0.0493892
0.0463374
0.0421692
0.0364028
0.031174
0.0288124
0.0298978
0.033841
0.0404267
0.0488525
0.0575556
0.0640266
0.0656803
0.06125
0.0518757
0.0399674
0.0283401
0.0185834
0.011571
0.00686185
0.00405923
0.00242565
0.00159705
0.00105111
0.00106889
0.0011267
0.00127728
0.00168723
0.00256315
0.00467242
0.0084435
0.0166515
0.027352
0.0462505
0.0596612
0.0734062
0.0737044
0.0666689
0.0603545
0.0543261
0.0514343
0.0501534
0.0488794
0.0469551
0.0438726
0.0395264
0.0365622
0.0377167
0.042036
0.0484265
0.0557985
0.0625244
0.0662663
0.0651138
0.0586758
0.0487713
0.0371935
0.0267259
0.0177655
0.0115566
0.00700409
0.00435776
0.00260309
0.00173045
0.00105287
0.00105836
0.00108727
0.00115716
0.00146981
0.00203351
0.00409361
0.00683576
0.0159666
0.0242297
0.0465434
0.0578132
0.0731979
0.074329
0.0646392
0.0587705
0.0521299
0.0495799
0.0496325
0.0498805
0.0509515
0.0509683
0.0504366
0.0497507
0.0505769
0.0536129
0.0581559
0.0630075
0.0665121
0.0662654
0.0618034
0.0531696
0.0436443
0.0326122
0.0244407
0.0160888
0.0114161
0.00672029
0.00463216
0.00260564
0.00185292
0.0012899
0.00127431
0.00122351
0.00117072
0.00112736
0.00109534
0.00107327
0.00105891
0.0010496
0.00104283
0.00103404
0.00101934
0.00100159
0.00100867
0.00111962
0.00157537
0.00444974
0.00112822
0.00110788
0.0010869
0.00106917
0.00105648
0.00104835
0.00104348
0.00104041
0.00103758
0.00103314
0.00102443
0.00100955
0.00099397
0.00100624
0.00111479
0.00147188
0.00409146
0.00105949
0.00105395
0.00104728
0.00104199
0.00103859
0.00103671
0.0010357
0.00103475
0.0010327
0.00102787
0.00101812
0.00100266
0.000988708
0.00100388
0.00110596
0.00140707
0.00374403
0.00104912
0.00104336
0.00103919
0.00103652
0.00103511
0.00103458
0.00103441
0.00103379
0.00103148
0.00102573
0.00101454
0.000998039
0.000984826
0.00100091
0.00109298
0.00134018
0.00344239
0.00105023
0.00104403
0.00103996
0.0010377
0.00103682
0.0010368
0.00103699
0.00103639
0.00103351
0.0010264
0.00101318
0.00099496
0.000981376
0.000996355
0.00107651
0.00127925
0.00318576
0.00105176
0.00104647
0.00104311
0.00104152
0.00104133
0.00104197
0.00104261
0.00104202
0.00103841
0.00102956
0.00101385
0.000993366
0.000978367
0.00099062
0.00105882
0.00123245
0.00298018
0.00105937
0.00105326
0.00104976
0.0010485
0.0010489
0.00105021
0.00105138
0.00105081
0.00104646
0.00103569
0.00101729
0.000994121
0.000976662
0.000984887
0.00104277
0.00121202
0.00282471
0.00106249
0.00105808
0.00105592
0.0010559
0.00105756
0.00106011
0.0010623
0.0010624
0.00105789
0.00104599
0.00102542
0.000999206
0.000978088
0.00098133
0.00103201
0.00122025
0.00270987
0.00107124
0.00106671
0.00106492
0.0010657
0.00106852
0.00107247
0.00107641
0.0010782
0.00107467
0.0010626
0.00104034
0.00101086
0.000985142
0.000982643
0.001029
0.00124274
0.00261576
0.00107375
0.00107117
0.00107126
0.001074
0.00107907
0.00108566
0.0010922
0.00109641
0.00109515
0.00108476
0.00106274
0.00103121
0.00100075
0.000991668
0.00103512
0.00126548
0.00253254
0.00108224
0.00108026
0.00108105
0.00108475
0.00109087
0.00109878
0.00110739
0.00111475
0.00111766
0.00111182
0.00109332
0.00106227
0.0010277
0.00101084
0.00104997
0.00128857
0.00246857
0.00108382
0.00108346
0.00108586
0.00109104
0.00109876
0.00110868
0.00112017
0.00113176
0.00114056
0.00114205
0.00113088
0.00110416
0.00106757
0.00104195
0.00107266
0.00131635
0.00243179
0.00108989
0.00108982
0.00109241
0.00109777
0.00110598
0.00111709
0.00113092
0.0011466
0.00116183
0.0011724
0.00117204
0.00115454
0.00112013
0.00108621
0.00110415
0.00135218
0.00242129
0.00109121
0.00109259
0.00109619
0.00110218
0.00111095
0.00112304
0.00113885
0.00115815
0.0011795
0.00119954
0.00121214
0.00120863
0.00118251
0.00114348
0.00114541
0.00139483
0.00243213
0.00109513
0.0010967
0.00110004
0.00110561
0.00111418
0.00112666
0.00114383
0.00116595
0.00119241
0.00122102
0.0012467
0.00126003
0.00124871
0.00121092
0.00119645
0.00144166
0.00245907
0.00109635
0.00109861
0.00110182
0.00110698
0.00111527
0.00112787
0.00114585
0.0011699
0.00120017
0.00123563
0.00127268
0.00130277
0.00131049
0.00128198
0.00125495
0.00148973
0.00249681
0.00109835
0.00109998
0.00110225
0.00110666
0.00111443
0.00112681
0.00114502
0.00117008
0.00120281
0.00124314
0.00128888
0.00133311
0.00136008
0.00134724
0.00131575
0.00153663
0.00254037
0.00109857
0.00109937
0.00110088
0.00110467
0.00111187
0.00112374
0.00114158
0.00116677
0.00120064
0.00124392
0.00129551
0.00135008
0.00139299
0.00139794
0.00137177
0.00158047
0.00258505
0.00109767
0.00109735
0.00109821
0.00110142
0.00110792
0.00111896
0.00113592
0.00116044
0.00119425
0.00123863
0.00129341
0.00135444
0.00140848
0.00142917
0.00141645
0.00161984
0.00262624
0.00109528
0.00109421
0.00109461
0.00109724
0.00110297
0.00111293
0.00112861
0.00115177
0.0011844
0.00122825
0.00128379
0.00134778
0.00140831
0.00144126
0.00144892
0.00165362
0.00265953
0.00109187
0.00109043
0.00109034
0.0010923
0.00109709
0.00110582
0.00111991
0.00114119
0.00117178
0.00121377
0.00126821
0.00133286
0.00139768
0.00144306
0.00147821
0.00169962
0.00269107
0.00108801
0.00108612
0.00108545
0.00108661
0.0010903
0.00109755
0.00110972
0.00112863
0.00115649
0.00119568
0.00124799
0.00131267
0.00138283
0.00144512
0.00151511
0.00177244
0.00273839
0.00108414
0.00108177
0.00108043
0.0010807
0.00108319
0.00108881
0.00109885
0.00111505
0.00113965
0.0011753
0.00122462
0.00128877
0.00136505
0.00144768
0.0015585
0.00185979
0.00280439
0.00108044
0.00107759
0.00107566
0.00107507
0.00107637
0.00108037
0.00108821
0.00110154
0.00112255
0.00115415
0.00119972
0.00126258
0.00134475
0.00144892
0.00160394
0.00195801
0.00289149
0.00107733
0.00107412
0.00107164
0.00107029
0.00107051
0.00107299
0.00107873
0.0010892
0.00110654
0.00113376
0.00117494
0.00123544
0.00132212
0.00144662
0.00164655
0.00206108
0.00300119
0.0010749
0.00107146
0.00106867
0.00106678
0.00106616
0.00106735
0.00107121
0.00107905
0.00109283
0.00111555
0.00115182
0.00120867
0.00129748
0.00143885
0.00168116
0.0021594
0.00313415
0.00107353
0.00107009
0.00106715
0.00106497
0.00106378
0.00106402
0.00106636
0.00107191
0.00108243
0.00110077
0.00113176
0.00118367
0.00127156
0.00142458
0.00170447
0.00225183
0.0032903
0.00107318
0.00106994
0.0010672
0.00106506
0.00106369
0.00106339
0.00106467
0.00106841
0.00107612
0.00109042
0.00111602
0.00116185
0.00124559
0.00140391
0.00171395
0.00233294
0.00346882
0.00107412
0.00107139
0.00106906
0.00106727
0.00106609
0.00106568
0.00106641
0.00106891
0.00107441
0.00108517
0.00110556
0.00114452
0.00122114
0.0013778
0.0017079
0.00239808
0.00366807
0.00107625
0.00107424
0.00107271
0.00107164
0.00107103
0.00107097
0.00107166
0.00107354
0.00107749
0.00108538
0.00110102
0.00113279
0.00119989
0.0013481
0.00168598
0.00244224
0.00388561
0.0010798
0.00107879
0.00107825
0.0010782
0.00107853
0.00107924
0.00108038
0.00108221
0.00108533
0.00109112
0.00110272
0.00112749
0.00118353
0.00131735
0.00164928
0.00245977
0.00411806
0.00108468
0.00108494
0.00108571
0.00108693
0.00108853
0.00109038
0.00109241
0.00109473
0.00109768
0.00110219
0.00111065
0.00112912
0.00117358
0.00128848
0.0016004
0.00244546
0.004361
0.00109089
0.00109274
0.0010951
0.00109788
0.00110098
0.00110428
0.00110757
0.00111084
0.0011142
0.00111823
0.00112457
0.0011378
0.00117115
0.00126446
0.00154332
0.00239486
0.00460876
0.00109838
0.00110202
0.0011063
0.00111097
0.00111581
0.00112082
0.00112567
0.00113024
0.00113452
0.00113877
0.00114399
0.00115336
0.00117694
0.001248
0.00148324
0.00230527
0.00485449
0.00110717
0.00111288
0.00111925
0.00112603
0.00113295
0.00113983
0.00114647
0.00115263
0.00115822
0.00116328
0.00116834
0.00117534
0.0011912
0.00124144
0.00142649
0.00217755
0.00509057
0.00111717
0.00112515
0.00113386
0.00114297
0.00115217
0.00116115
0.00116975
0.00117771
0.00118489
0.00119124
0.00119696
0.00120307
0.00121376
0.00124654
0.00138018
0.0020191
0.00530948
0.0011283
0.00113878
0.00115003
0.00116167
0.0011733
0.00118457
0.00119527
0.00120518
0.00121416
0.00122215
0.00122921
0.00123578
0.00124401
0.00126429
0.00135131
0.00184642
0.00550487
0.00114044
0.00115363
0.00116765
0.00118201
0.00119625
0.00120996
0.00122286
0.00123483
0.00124577
0.00125567
0.00126459
0.00127274
0.00128107
0.00129466
0.00134558
0.00168506
0.0056725
0.00115346
0.0011696
0.0011866
0.00120389
0.00122091
0.00123719
0.00125242
0.00126656
0.00127962
0.00129168
0.00130292
0.00131359
0.00132419
0.00133684
0.00136625
0.00156424
0.00581029
0.00116716
0.00118649
0.00120672
0.00122713
0.00124711
0.00126608
0.00128374
0.00130022
0.00131563
0.00133021
0.00134434
0.00135847
0.00137329
0.00138999
0.00141365
0.00150838
0.00591766
0.00116643
0.0011734
0.00118132
0.00118986
0.00119886
0.00120817
0.00121769
0.00122723
0.00123653
0.00124525
0.00125298
0.00125937
0.0012641
0.00126702
0.00126818
0.00126776
0.00126616
0.00126389
0.00126152
0.00125935
0.00125586
0.00125354
0.0012534
0.00125446
0.00125636
0.00125868
0.00126108
0.00126318
0.00126468
0.00126528
0.00126475
0.00126289
0.00125958
0.00125471
0.00124826
0.00124029
0.00123089
0.00122021
0.00120843
0.00119556
0.00118154
0.00118239
0.00118954
0.00119779
0.00120662
0.00121576
0.00122501
0.00123431
0.00124339
0.00125199
0.00125972
0.0012662
0.00127112
0.00127429
0.00127572
0.00127558
0.00127416
0.00127195
0.00126955
0.00126752
0.0012662
0.00126463
0.00126469
0.00126636
0.00126921
0.00127282
0.00127681
0.00128078
0.00128437
0.00128722
0.00128904
0.00128956
0.00128857
0.00128592
0.00128149
0.00127526
0.00126723
0.00125752
0.00124629
0.00123375
0.00121994
0.00120437
0.00120063
0.00120843
0.00121716
0.00122619
0.0012352
0.00124407
0.00125268
0.00126082
0.00126817
0.0012744
0.00127917
0.0012823
0.00128376
0.00128369
0.00128234
0.00128011
0.00127756
0.00127535
0.00127401
0.00127382
0.00127441
0.00127691
0.00128047
0.00128513
0.00129049
0.00129615
0.00130168
0.00130671
0.00131088
0.00131387
0.0013154
0.00131524
0.00131321
0.00130919
0.0013031
0.00129497
0.00128488
0.00127303
0.00125966
0.00124496
0.00122834
0.00122084
0.00122967
0.00123892
0.00124792
0.00125643
0.00126443
0.00127184
0.00127848
0.00128407
0.00128834
0.00129111
0.00129233
0.00129212
0.00129069
0.00128837
0.00128564
0.00128315
0.00128152
0.0012812
0.0012824
0.00128529
0.0012902
0.00129566
0.00130213
0.0013092
0.00131646
0.00132349
0.00132989
0.0013353
0.00133938
0.00134184
0.00134242
0.00134094
0.00133723
0.00133121
0.00132287
0.00131231
0.00129971
0.00128538
0.00126966
0.00125232
0.00124161
0.00125168
0.00126129
0.00126992
0.00127754
0.00128424
0.00129003
0.00129478
0.0012983
0.00130046
0.00130123
0.00130069
0.00129905
0.00129657
0.00129366
0.0012909
0.00128893
0.00128829
0.00128931
0.00129214
0.00129737
0.00130457
0.00131189
0.00132009
0.00132879
0.00133755
0.00134596
0.00135362
0.00136015
0.0013652
0.00136847
0.00136969
0.00136863
0.00136513
0.00135906
0.0013504
0.00133924
0.00132578
0.00131034
0.00129338
0.00127524
0.00126036
0.00127141
0.0012811
0.00128911
0.00129565
0.00130094
0.00130502
0.00130787
0.00130943
0.00130973
0.00130886
0.00130698
0.00130435
0.00130131
0.00129838
0.00129616
0.00129523
0.00129597
0.0012986
0.00130321
0.00131071
0.00132005
0.00132912
0.00133893
0.00134911
0.00135923
0.00136887
0.00137764
0.00138514
0.00139102
0.00139496
0.00139667
0.0013959
0.00139247
0.00138622
0.00137712
0.00136522
0.00135077
0.00133413
0.00131576
0.00129627
0.00127385
0.00128524
0.00129475
0.00130219
0.00130789
0.00131207
0.00131486
0.00131631
0.00131649
0.00131554
0.00131364
0.00131104
0.00130805
0.00130515
0.00130291
0.00130187
0.00130243
0.00130488
0.00130932
0.00131579
0.00132541
0.00133666
0.00134733
0.00135859
0.00137007
0.00138138
0.00139207
0.00140176
0.00141005
0.0014166
0.00142104
0.00142308
0.00142246
0.00141895
0.00141238
0.00140269
0.00138997
0.00137442
0.00135645
0.00133692
0.00131632
0.00128004
0.00129133
0.00130055
0.00130765
0.00131295
0.00131664
0.00131882
0.00131963
0.00131921
0.0013178
0.00131565
0.00131311
0.00131063
0.00130873
0.00130792
0.00130859
0.00131102
0.00131538
0.00132173
0.00133004
0.00134155
0.00135444
0.00136652
0.00137903
0.00139163
0.00140391
0.00141546
0.00142587
0.00143476
0.00144177
0.00144654
0.00144873
0.00144809
0.00144435
0.00143733
0.00142695
0.00141328
0.0013968
0.00137788
0.00135715
0.00133528
0.00127993
0.00129092
0.00129965
0.00130651
0.00131173
0.00131538
0.00131757
0.00131843
0.0013182
0.00131716
0.0013157
0.00131423
0.00131321
0.00131311
0.00131427
0.00131701
0.00132151
0.00132788
0.00133611
0.00134615
0.00135926
0.00137348
0.00138675
0.0014003
0.00141378
0.00142682
0.00143899
0.00144991
0.00145918
0.00146645
0.00147134
0.00147351
0.00147268
0.00146856
0.00146099
0.00145
0.00143567
0.00141828
0.00139832
0.00137644
0.0013534
0.00127794
0.00128783
0.00129549
0.00130183
0.0013069
0.00131069
0.00131326
0.00131479
0.00131552
0.00131577
0.00131592
0.00131636
0.00131745
0.00131955
0.00132295
0.00132788
0.00133446
0.00134277
0.00135276
0.00136435
0.00137871
0.00139394
0.00140816
0.00142248
0.00143661
0.00145014
0.0014627
0.00147388
0.0014833
0.0014906
0.00149541
0.00149737
0.00149621
0.00149173
0.00148373
0.00147217
0.00145715
0.00143895
0.00141806
0.00139517
0.00137108
0.00128105
0.00128801
0.00129385
0.00129909
0.00130364
0.00130744
0.00131053
0.00131302
0.00131512
0.00131708
0.00131918
0.00132173
0.00132504
0.00132938
0.00133498
0.001342
0.00135053
0.00136057
0.00137207
0.00138491
0.00140016
0.00141607
0.00143094
0.00144576
0.00146024
0.001474
0.00148666
0.00149783
0.00150716
0.00151424
0.00151874
0.00152039
0.00151892
0.00151406
0.00150564
0.0014936
0.00147802
0.00145918
0.00143757
0.00141387
0.00138894
0.00129308
0.00129665
0.00130032
0.00130401
0.0013076
0.00131102
0.00131428
0.00131744
0.00132063
0.00132403
0.00132784
0.0013323
0.0013376
0.00134394
0.00135148
0.00136031
0.00137046
0.0013819
0.00139456
0.0014083
0.00142403
0.00144023
0.00145541
0.00147039
0.00148489
0.00149854
0.001511
0.00152183
0.00153071
0.00153737
0.0015415
0.00154277
0.00154094
0.00153574
0.00152699
0.00151463
0.00149873
0.00147953
0.0014575
0.00143329
0.00140782
0.00131596
0.00131643
0.00131765
0.00131945
0.00132172
0.00132437
0.00132737
0.00133077
0.00133462
0.00133903
0.00134413
0.00135004
0.00135689
0.00136479
0.0013738
0.00138396
0.00139527
0.00140764
0.00142099
0.00143517
0.0014509
0.00146694
0.00148201
0.00149674
0.00151086
0.00152395
0.00153574
0.00154591
0.00155418
0.00156026
0.00156385
0.00156468
0.00156248
0.00155704
0.00154816
0.00153576
0.00151988
0.00150074
0.00147874
0.0014545
0.00142895
0.00135204
0.00134956
0.00134834
0.0013481
0.00134878
0.00135033
0.0013527
0.00135589
0.0013599
0.00136478
0.00137057
0.00137733
0.00138509
0.00139388
0.00140372
0.00141457
0.00142638
0.00143905
0.00145246
0.00146647
0.00148163
0.00149697
0.00151135
0.00152524
0.00153837
0.00155046
0.00156124
0.00157044
0.00157779
0.00158305
0.00158597
0.00158631
0.00158384
0.00157835
0.00156966
0.00155765
0.00154233
0.00152386
0.00150258
0.00147901
0.00145413
0.00140352
0.00139846
0.00139513
0.00139305
0.00139216
0.00139244
0.00139385
0.00139639
0.00140003
0.00140474
0.00141051
0.00141733
0.00142518
0.00143402
0.0014438
0.00145446
0.00146589
0.00147799
0.00149061
0.00150363
0.00151745
0.00153127
0.00154417
0.0015565
0.00156805
0.00157856
0.00158781
0.00159558
0.00160168
0.0016059
0.00160806
0.00160795
0.0016054
0.0016002
0.00159218
0.0015812
0.00156724
0.00155037
0.00153083
0.00150906
0.00148611
0.00147304
0.0014663
0.00146169
0.00145833
0.00145625
0.00145542
0.00145581
0.00145738
0.00146012
0.00146396
0.00146887
0.00147479
0.00148166
0.0014894
0.00149793
0.00150717
0.001517
0.0015273
0.00153795
0.00154881
0.0015601
0.00157125
0.00158163
0.00159144
0.00160052
0.00160867
0.00161574
0.00162158
0.00162606
0.00162903
0.00163038
0.00162997
0.00162766
0.00162328
0.00161667
0.00160769
0.00159625
0.00158239
0.00156624
0.00154809
0.00152915
0.00156373
0.00155731
0.00155318
0.00154997
0.00154771
0.00154641
0.00154605
0.00154661
0.00154806
0.00155035
0.00155342
0.00155723
0.00156171
0.00156678
0.00157238
0.00157842
0.00158482
0.00159147
0.00159828
0.00160515
0.00161215
0.00161896
0.00162529
0.0016312
0.00163659
0.00164136
0.00164543
0.00164872
0.00165117
0.00165272
0.00165332
0.00165288
0.00165133
0.00164855
0.00164444
0.00163887
0.00163177
0.00162311
0.00161293
0.00160137
0.00158996
0.00463154
0.00220915
0.00133095
0.00110337
0.00105366
0.00105881
0.00106378
0.00105687
0.00104555
0.00103736
0.00103518
0.00103736
0.00104023
0.00104162
0.00104212
0.00104333
0.00104575
0.00441442
0.00215832
0.00130875
0.00109583
0.00104892
0.0010552
0.00106301
0.00105905
0.00104912
0.00104008
0.00103492
0.0010335
0.00103421
0.00103568
0.00103754
0.00104001
0.00104342
0.00415606
0.00208212
0.00127156
0.00108207
0.00104249
0.00105153
0.00106191
0.00106028
0.00105175
0.00104281
0.00103659
0.00103356
0.00103298
0.00103395
0.00103595
0.00103886
0.00104286
0.00390378
0.00195266
0.00122279
0.00106282
0.0010334
0.00104737
0.00106063
0.00106104
0.00105364
0.00104485
0.00103802
0.00103399
0.00103237
0.00103246
0.00103359
0.00103522
0.0010368
0.00365119
0.00179098
0.00116918
0.00104035
0.0010232
0.00104298
0.0010594
0.00106176
0.00105526
0.00104649
0.00103906
0.00103413
0.00103158
0.00103086
0.00103137
0.0010327
0.0010347
0.00340507
0.00162686
0.00111744
0.00101763
0.00101316
0.00103889
0.00105859
0.00106286
0.00105709
0.00104818
0.00104012
0.00103438
0.0010311
0.00102987
0.00103022
0.00103175
0.00103424
0.00317581
0.00148185
0.00107244
0.00099753
0.00100461
0.00103602
0.00105886
0.00106483
0.00105953
0.00105025
0.00104137
0.0010347
0.00103057
0.00102868
0.00102852
0.00102955
0.00103132
0.00297336
0.00136423
0.00103718
0.000983002
0.000999556
0.00103597
0.00106132
0.00106839
0.0010631
0.00105311
0.0010432
0.00103547
0.00103045
0.00102792
0.0010274
0.00102836
0.00103035
0.00280529
0.00127715
0.00101366
0.000977359
0.00100205
0.00104137
0.00106772
0.00107456
0.00106837
0.00105715
0.00104599
0.00103717
0.00103132
0.00102825
0.00102747
0.00102836
0.00103037
0.00267523
0.00122192
0.00100341
0.000983642
0.00101705
0.00105722
0.00108056
0.00108452
0.00107575
0.00106245
0.00104967
0.0010396
0.00103283
0.00102913
0.00102794
0.00102863
0.00103054
0.00258241
0.00119785
0.00100845
0.00100357
0.00104521
0.0010853
0.00110285
0.0010995
0.00108557
0.00106904
0.00105427
0.00104293
0.00103523
0.0010308
0.00102903
0.00102926
0.00103088
0.00252346
0.00120176
0.00102973
0.00103793
0.00108446
0.00111911
0.00112718
0.00111568
0.00109606
0.00107609
0.00105934
0.00104678
0.00103823
0.0010331
0.00103072
0.0010304
0.00103149
0.00249356
0.00122813
0.00106633
0.00108568
0.00113258
0.00115639
0.00115151
0.00113052
0.00110533
0.00108243
0.00106414
0.00105071
0.00104155
0.00103591
0.00103308
0.00103245
0.00103346
0.00248737
0.0012714
0.00111566
0.00114377
0.00118507
0.00119338
0.00117427
0.00114419
0.0011141
0.00108872
0.00106915
0.00105497
0.00104527
0.00103911
0.00103574
0.00103458
0.00103519
0.00249896
0.00132712
0.0011741
0.00120714
0.00123649
0.00122668
0.00119402
0.00115624
0.00112224
0.00109489
0.0010743
0.0010595
0.00104934
0.00104273
0.00103884
0.00103699
0.00103666
0.00252171
0.00138888
0.00123674
0.00126898
0.00128167
0.00125413
0.00121023
0.00116657
0.00112969
0.0011009
0.00107951
0.00106422
0.00105367
0.00104672
0.00104246
0.00104028
0.00103976
0.00255071
0.00144943
0.00129665
0.00132206
0.00131704
0.00127496
0.00122292
0.00117524
0.00113641
0.00110665
0.0010847
0.00106903
0.00105817
0.00105091
0.00104632
0.00104373
0.00104284
0.0025823
0.00150569
0.00134676
0.00136126
0.00134141
0.00128948
0.00123239
0.00118233
0.00114237
0.00111206
0.00108979
0.00107386
0.00106277
0.00105526
0.00105037
0.00104736
0.0010456
0.00261286
0.00155683
0.0013836
0.00138522
0.00135551
0.00129847
0.00123904
0.00118796
0.00114757
0.00111707
0.0010947
0.00107866
0.00106741
0.00105971
0.00105458
0.00105133
0.0010494
0.00263923
0.00160196
0.00140922
0.00139623
0.00136106
0.00130271
0.00124309
0.00119215
0.00115198
0.00112166
0.0010994
0.00108338
0.00107207
0.00106422
0.00105891
0.00105541
0.00105321
0.00266323
0.00165472
0.00143544
0.00140253
0.00136198
0.00130349
0.00124471
0.00119461
0.00115513
0.00112533
0.00110344
0.00108765
0.00107643
0.00106857
0.00106315
0.00105947
0.00105705
0.00270559
0.00172991
0.00147509
0.00141391
0.00136262
0.00130192
0.00124363
0.00119468
0.00115639
0.00112759
0.00110645
0.00109119
0.00108031
0.00107261
0.00106722
0.00106348
0.00106092
0.00276886
0.00181964
0.00152421
0.00142938
0.00136318
0.00129839
0.00124021
0.00119266
0.00115598
0.00112861
0.0011086
0.00109416
0.00108382
0.00107644
0.00107119
0.00106745
0.00106479
0.00285511
0.0019183
0.00157799
0.0014465
0.00136289
0.00129285
0.00123467
0.00118888
0.00115424
0.0011287
0.00111015
0.00109677
0.00108714
0.0010802
0.00107517
0.00107148
0.00106875
0.00296563
0.00202135
0.00163136
0.00146207
0.00136042
0.00128509
0.00122728
0.00118374
0.00115164
0.00112831
0.00111146
0.00109932
0.00109052
0.00108408
0.00107929
0.00107567
0.00107286
0.00310108
0.00212536
0.00168002
0.00147311
0.00135456
0.00127498
0.00121842
0.00117782
0.00114873
0.00112791
0.00111297
0.00110215
0.0010942
0.00108825
0.00108368
0.00108008
0.00107716
0.00326141
0.00222726
0.00172025
0.00147727
0.00134456
0.00126276
0.00120873
0.00117183
0.00114617
0.00112808
0.0011151
0.0011056
0.00109845
0.00109292
0.00108849
0.00108483
0.00108173
0.00344581
0.00232252
0.00174845
0.001473
0.00133036
0.00124909
0.00119906
0.00116657
0.00114465
0.00112934
0.00111827
0.00110996
0.00110348
0.00109822
0.0010938
0.00108999
0.00108662
0.00365258
0.00240572
0.00176136
0.00145969
0.00131265
0.001235
0.00119041
0.00116288
0.00114478
0.00113216
0.00112281
0.00111548
0.00110943
0.00110423
0.00109964
0.0010955
0.00109173
0.003879
0.00247007
0.00175644
0.00143783
0.00129276
0.00122178
0.00118379
0.00116148
0.00114713
0.00113704
0.00112927
0.00112278
0.00111701
0.00111168
0.00110667
0.00110189
0.00109739
0.00412126
0.00250824
0.0017324
0.00140895
0.0012725
0.0012108
0.0011801
0.00116304
0.00115233
0.00114447
0.00113783
0.00113169
0.00112577
0.00112001
0.00111442
0.00110908
0.00110402
0.00437428
0.00251271
0.00168976
0.00137566
0.0012539
0.0012033
0.00118009
0.00116801
0.00116027
0.00115397
0.00114791
0.00114166
0.0011352
0.00112866
0.00112219
0.00111595
0.00111006
0.00463164
0.00247664
0.00163119
0.00134129
0.00123897
0.00120026
0.00118418
0.00117618
0.00117067
0.00116536
0.00115941
0.00115267
0.00114535
0.00113777
0.00113021
0.00112287
0.00111595
0.00488561
0.0023949
0.00156155
0.00130951
0.00122939
0.00120223
0.00119215
0.00118724
0.00118322
0.00117839
0.00117217
0.00116464
0.00115619
0.00114733
0.00113848
0.00112998
0.00112205
0.00512753
0.00226591
0.0014878
0.00128383
0.00122623
0.00120911
0.00120353
0.00120069
0.00119752
0.00119277
0.00118602
0.00117747
0.00116768
0.00115734
0.00114704
0.0011372
0.00112817
0.00534868
0.00209491
0.00141851
0.00126723
0.00122974
0.00122022
0.00121758
0.00121592
0.00121311
0.00120818
0.00120075
0.00119105
0.00117978
0.00116781
0.00115591
0.00114459
0.00113418
0.00554161
0.0018982
0.00136289
0.00126163
0.00123934
0.00123447
0.00123331
0.00123218
0.00122946
0.00122425
0.00121612
0.00120526
0.00119244
0.00117873
0.00116511
0.00115226
0.00114057
0.00570152
0.00170475
0.00132942
0.00126751
0.00125357
0.00125028
0.00124933
0.00124845
0.00124584
0.00124046
0.00123178
0.00121987
0.00120553
0.00119004
0.00117463
0.00116018
0.00114727
0.00582702
0.00155038
0.00132354
0.00128396
0.00127053