/*--------------------------------*- C++ -*----------------------------------*\
  =========                 |
  \\      /  F ield         | OpenFOAM: The Open Source CFD Toolbox
   \\    /   O peration     | Website:  https://openfoam.org
    \\  /    A nd           | Version:  6
     \\/     M anipulation  |
\*---------------------------------------------------------------------------*/
FoamFile
{
    version     2.0;
    format      ascii;
    class       volScalarField;
    location    "2.6";
    object      rho;
}
// * * * * * * * * * * * * * * * * * * * * * * * * * * * * * * * * * * * * * //

dimensions      [1 -3 0 0 0 0 0];

internalField   nonuniform List<scalar> 
5625
(
1.4
1.4
1.4
1.4
1.4
1.4
1.4
1.4
1.4
1.4
1.4
1.4
1.4
1.4
1.4
1.4
1.4
1.40001
1.40001
1.40001
1.40001
1.40001
1.40001
1.40001
1.40001
1.40001
1.40001
1.40001
1.40001
1.40001
1.40001
1.40001
1.40001
1.40001
1.40001
1.40001
1.40001
1.40001
1.40001
1.40001
1.40001
1.40001
1.40001
1.40001
1.40001
1.40001
1.40001
1.40001
1.40001
1.40001
1.40001
1.40001
1.40001
1.40001
1.40001
1.40001
1.40001
1.40001
1.40001
1.40001
1.40001
1.40001
1.40001
1.40001
1.40001
1.40001
1.40001
1.40001
1.40001
1.40001
1.40001
1.40001
1.40001
1.40001
1.40001
1.4
1.4
1.4
1.4
1.4
1.4
1.4
1.4
1.4
1.4
1.4
1.4
1.4
1.4
1.4
1.4
1.4
1.40001
1.40001
1.40001
1.40001
1.40001
1.40001
1.40001
1.40001
1.40001
1.40001
1.40001
1.40001
1.40001
1.40001
1.40001
1.40001
1.40001
1.40001
1.40001
1.40001
1.40001
1.40001
1.40001
1.40001
1.40001
1.40001
1.40001
1.40001
1.40001
1.40001
1.40001
1.40001
1.40001
1.40001
1.40001
1.40001
1.40001
1.40001
1.40001
1.40001
1.40001
1.40001
1.40001
1.40001
1.40001
1.40001
1.40001
1.40001
1.40001
1.40001
1.40001
1.40001
1.40001
1.40001
1.40001
1.40001
1.40001
1.40001
1.4
1.4
1.4
1.4
1.4
1.4
1.4
1.4
1.4
1.4
1.4
1.4
1.4
1.4
1.4
1.4
1.4
1.40001
1.40001
1.40001
1.40001
1.40001
1.40001
1.40001
1.40001
1.40001
1.40001
1.40001
1.40001
1.40001
1.40001
1.40001
1.40001
1.40001
1.40001
1.40001
1.40001
1.40001
1.40001
1.40001
1.40001
1.40001
1.40001
1.40001
1.40001
1.40001
1.40001
1.40001
1.40001
1.40001
1.40001
1.40001
1.40001
1.40001
1.40001
1.40001
1.40001
1.40001
1.40001
1.40001
1.40001
1.40001
1.40001
1.40001
1.40001
1.40001
1.40001
1.40001
1.40001
1.40001
1.40001
1.40001
1.40001
1.40001
1.40001
1.4
1.4
1.4
1.4
1.4
1.4
1.4
1.4
1.4
1.4
1.4
1.4
1.4
1.4
1.4
1.4
1.4
1.40001
1.40001
1.40001
1.40001
1.40001
1.40001
1.40001
1.40001
1.40001
1.40001
1.40001
1.40001
1.40001
1.40001
1.40001
1.40001
1.40001
1.40001
1.40001
1.40001
1.40001
1.40001
1.40001
1.40001
1.40001
1.40001
1.40001
1.40001
1.40001
1.40001
1.40001
1.40001
1.40001
1.40001
1.40001
1.40001
1.40001
1.40001
1.40001
1.40001
1.40001
1.40001
1.40001
1.40001
1.40001
1.40001
1.40001
1.40001
1.40001
1.40001
1.40001
1.40001
1.40001
1.40001
1.40001
1.40001
1.40001
1.40001
1.4
1.4
1.4
1.4
1.39999
1.39999
1.39999
1.39999
1.39999
1.39999
1.39999
1.39999
1.4
1.4
1.4
1.4
1.4
1.40001
1.40001
1.40001
1.40001
1.40001
1.40002
1.40002
1.40002
1.40002
1.40002
1.40002
1.40002
1.40002
1.40002
1.40001
1.40001
1.40001
1.40001
1.40001
1.40001
1.40001
1.40001
1.40001
1.40001
1.40001
1.40001
1.40001
1.40001
1.40001
1.40001
1.40001
1.40001
1.40001
1.40001
1.40001
1.40001
1.40001
1.40001
1.40001
1.40001
1.40001
1.40001
1.40001
1.40001
1.40001
1.40001
1.40001
1.40001
1.40001
1.40001
1.40001
1.40001
1.40001
1.40001
1.40001
1.40001
1.40001
1.40001
1.4
1.4
1.39999
1.39999
1.39999
1.39999
1.39999
1.39999
1.39999
1.39999
1.39999
1.39999
1.39999
1.4
1.4
1.4
1.4
1.40001
1.40001
1.40001
1.40002
1.40002
1.40002
1.40002
1.40002
1.40002
1.40002
1.40002
1.40002
1.40002
1.40002
1.40002
1.40002
1.40001
1.40001
1.40001
1.40001
1.40001
1.40001
1.40001
1.40001
1.40001
1.40001
1.40001
1.40001
1.40001
1.40001
1.40001
1.40001
1.40001
1.40001
1.40001
1.40001
1.40001
1.40001
1.40001
1.40001
1.40001
1.40001
1.40001
1.40001
1.40001
1.40001
1.40001
1.40001
1.40001
1.40001
1.40001
1.40001
1.40001
1.40001
1.40001
1.40001
1.40001
1.40001
1.39999
1.39999
1.39999
1.39999
1.39999
1.39999
1.39998
1.39998
1.39998
1.39998
1.39999
1.39999
1.39999
1.39999
1.4
1.4
1.4
1.40001
1.40001
1.40002
1.40002
1.40002
1.40002
1.40003
1.40003
1.40003
1.40003
1.40003
1.40003
1.40002
1.40002
1.40002
1.40002
1.40002
1.40002
1.40001
1.40001
1.40001
1.40001
1.40001
1.40001
1.40001
1.40001
1.40001
1.40001
1.40001
1.40001
1.40001
1.40001
1.40001
1.40001
1.40001
1.40001
1.40001
1.40001
1.40001
1.40001
1.40001
1.40001
1.40001
1.40001
1.40001
1.40001
1.40001
1.40001
1.40001
1.40001
1.40001
1.40001
1.40001
1.40001
1.40001
1.40001
1.40001
1.40001
1.39999
1.39999
1.39999
1.39998
1.39998
1.39998
1.39998
1.39998
1.39998
1.39998
1.39998
1.39998
1.39999
1.39999
1.4
1.4
1.40001
1.40001
1.40002
1.40002
1.40003
1.40003
1.40003
1.40003
1.40003
1.40004
1.40004
1.40003
1.40003
1.40003
1.40003
1.40003
1.40002
1.40002
1.40002
1.40002
1.40001
1.40001
1.40001
1.40001
1.40001
1.40001
1.40001
1.40001
1.40001
1.40001
1.40001
1.40001
1.40001
1.40001
1.40001
1.40001
1.40001
1.40001
1.40001
1.40001
1.40001
1.40001
1.40001
1.40001
1.40001
1.40001
1.40001
1.40001
1.40001
1.40001
1.40001
1.40001
1.40001
1.40001
1.40001
1.40001
1.40001
1.40001
1.40001
1.39999
1.39998
1.39998
1.39998
1.39998
1.39997
1.39997
1.39997
1.39997
1.39997
1.39998
1.39998
1.39998
1.39999
1.4
1.4
1.40001
1.40001
1.40002
1.40003
1.40003
1.40004
1.40004
1.40004
1.40004
1.40005
1.40004
1.40004
1.40004
1.40004
1.40004
1.40003
1.40003
1.40003
1.40002
1.40002
1.40002
1.40001
1.40001
1.40001
1.40001
1.40001
1.40001
1.40001
1.40001
1.40001
1.40001
1.40001
1.40001
1.40001
1.40001
1.40001
1.40001
1.40001
1.40001
1.40001
1.40001
1.40001
1.40001
1.40001
1.40001
1.40001
1.40001
1.40001
1.40001
1.40001
1.40001
1.40001
1.40001
1.40001
1.40001
1.40001
1.40001
1.40001
1.40001
1.39998
1.39998
1.39997
1.39997
1.39997
1.39996
1.39996
1.39996
1.39996
1.39997
1.39997
1.39997
1.39998
1.39999
1.4
1.4
1.40001
1.40002
1.40003
1.40004
1.40004
1.40005
1.40005
1.40006
1.40006
1.40006
1.40006
1.40006
1.40005
1.40005
1.40005
1.40004
1.40004
1.40003
1.40003
1.40002
1.40002
1.40002
1.40001
1.40001
1.40001
1.40001
1.40001
1.40001
1.40001
1.40001
1.40001
1.40001
1.40001
1.4
1.4
1.40001
1.40001
1.40001
1.40001
1.40001
1.40001
1.40001
1.40001
1.40001
1.40001
1.40001
1.40001
1.40001
1.40001
1.40001
1.40001
1.40001
1.40001
1.40001
1.40001
1.40001
1.40001
1.40001
1.40001
1.39998
1.39997
1.39997
1.39996
1.39996
1.39996
1.39996
1.39996
1.39996
1.39996
1.39997
1.39997
1.39998
1.39999
1.4
1.40001
1.40002
1.40003
1.40004
1.40005
1.40006
1.40007
1.40007
1.40007
1.40008
1.40008
1.40007
1.40007
1.40007
1.40006
1.40006
1.40005
1.40005
1.40004
1.40003
1.40003
1.40003
1.40002
1.40002
1.40001
1.40001
1.40001
1.40001
1.40001
1.40001
1.40001
1.40001
1.40001
1.40001
1.4
1.4
1.4
1.4
1.4
1.4
1.4
1.40001
1.40001
1.40001
1.40001
1.40001
1.40001
1.40001
1.40001
1.40001
1.40001
1.40001
1.40001
1.40001
1.40001
1.40001
1.40001
1.40001
1.40001
1.40001
1.39997
1.39996
1.39996
1.39995
1.39995
1.39995
1.39995
1.39995
1.39995
1.39996
1.39996
1.39997
1.39998
1.4
1.40001
1.40002
1.40004
1.40005
1.40006
1.40007
1.40008
1.40009
1.4001
1.4001
1.4001
1.4001
1.4001
1.40009
1.40009
1.40008
1.40007
1.40007
1.40006
1.40005
1.40004
1.40004
1.40003
1.40003
1.40002
1.40002
1.40001
1.40001
1.40001
1.40001
1.40001
1.40001
1.40001
1.40001
1.40001
1.4
1.4
1.4
1.4
1.4
1.4
1.4
1.4
1.40001
1.40001
1.40001
1.40001
1.40001
1.40001
1.40001
1.40001
1.40001
1.40001
1.40001
1.40001
1.40001
1.40001
1.40001
1.40001
1.40001
1.40001
1.39996
1.39995
1.39995
1.39994
1.39994
1.39994
1.39994
1.39994
1.39995
1.39996
1.39997
1.39998
1.39999
1.40001
1.40003
1.40005
1.40006
1.40008
1.40009
1.40011
1.40012
1.40013
1.40013
1.40013
1.40013
1.40013
1.40013
1.40012
1.40011
1.4001
1.40009
1.40008
1.40007
1.40006
1.40005
1.40004
1.40004
1.40003
1.40003
1.40002
1.40002
1.40001
1.40001
1.40001
1.40001
1.40001
1.40001
1.40001
1.40001
1.4
1.4
1.4
1.4
1.4
1.4
1.4
1.4
1.4
1.4
1.40001
1.40001
1.40001
1.40001
1.40001
1.40001
1.40001
1.40001
1.40001
1.40001
1.40001
1.40001
1.40001
1.40001
1.40001
1.40001
1.39995
1.39994
1.39994
1.39993
1.39993
1.39993
1.39993
1.39994
1.39995
1.39996
1.39998
1.4
1.40002
1.40004
1.40006
1.40008
1.40011
1.40013
1.40014
1.40016
1.40017
1.40018
1.40018
1.40018
1.40018
1.40017
1.40017
1.40016
1.40014
1.40013
1.40012
1.40011
1.40009
1.40008
1.40007
1.40006
1.40005
1.40004
1.40003
1.40002
1.40002
1.40001
1.40001
1.40001
1.40001
1.40001
1.40001
1.40001
1.4
1.4
1.4
1.4
1.4
1.4
1.4
1.4
1.4
1.4
1.4
1.40001
1.40001
1.40001
1.40001
1.40001
1.40001
1.40001
1.40001
1.40001
1.40001
1.40001
1.40001
1.40001
1.40001
1.40001
1.40001
1.39994
1.39994
1.39993
1.39993
1.39993
1.39993
1.39994
1.39995
1.39996
1.39998
1.40001
1.40003
1.40006
1.40009
1.40012
1.40015
1.40017
1.4002
1.40022
1.40023
1.40024
1.40025
1.40025
1.40025
1.40024
1.40023
1.40022
1.40021
1.40019
1.40017
1.40015
1.40013
1.40012
1.4001
1.40008
1.40007
1.40006
1.40004
1.40004
1.40003
1.40002
1.40002
1.40001
1.40001
1.40001
1.40001
1.40001
1.4
1.4
1.4
1.4
1.4
1.4
1.4
1.4
1.4
1.4
1.4
1.4
1.4
1.40001
1.40001
1.40001
1.40001
1.40001
1.40001
1.40001
1.40001
1.40001
1.40001
1.40001
1.40001
1.40001
1.40001
1.40001
1.39994
1.39993
1.39993
1.39992
1.39993
1.39994
1.39995
1.39997
1.39999
1.40002
1.40006
1.40009
1.40013
1.40017
1.40021
1.40025
1.40028
1.40031
1.40033
1.40035
1.40036
1.40036
1.40036
1.40035
1.40034
1.40032
1.4003
1.40027
1.40025
1.40022
1.4002
1.40017
1.40015
1.40012
1.4001
1.40009
1.40007
1.40005
1.40004
1.40003
1.40003
1.40002
1.40001
1.40001
1.40001
1.40001
1.40001
1.4
1.4
1.4
1.4
1.4
1.4
1.4
1.4
1.4
1.4
1.4
1.4
1.4
1.4
1.40001
1.40001
1.40001
1.40001
1.40001
1.40001
1.40001
1.40001
1.40001
1.40001
1.40001
1.40001
1.40001
1.40001
1.39993
1.39993
1.39993
1.39993
1.39994
1.39996
1.39998
1.40001
1.40005
1.4001
1.40015
1.4002
1.40025
1.40031
1.40036
1.40041
1.40045
1.40048
1.40051
1.40052
1.40053
1.40052
1.40051
1.40049
1.40047
1.40044
1.4004
1.40037
1.40033
1.40029
1.40025
1.40022
1.40019
1.40016
1.40013
1.40011
1.40008
1.40007
1.40005
1.40004
1.40003
1.40002
1.40002
1.40001
1.40001
1.40001
1.4
1.4
1.4
1.4
1.4
1.4
1.4
1.4
1.4
1.4
1.4
1.4
1.4
1.4
1.4
1.4
1.40001
1.40001
1.40001
1.40001
1.40001
1.40001
1.40001
1.40001
1.40001
1.40001
1.40001
1.40001
1.40001
1.39993
1.39993
1.39994
1.39995
1.39997
1.40001
1.40005
1.4001
1.40016
1.40022
1.4003
1.40037
1.40045
1.40052
1.40059
1.40065
1.4007
1.40074
1.40076
1.40077
1.40077
1.40076
1.40073
1.4007
1.40065
1.4006
1.40055
1.4005
1.40044
1.40039
1.40033
1.40029
1.40024
1.4002
1.40016
1.40013
1.4001
1.40008
1.40006
1.40005
1.40003
1.40002
1.40002
1.40001
1.40001
1.40001
1.4
1.4
1.4
1.4
1.4
1.4
1.4
1.4
1.4
1.4
1.4
1.4
1.4
1.4
1.4
1.4
1.40001
1.40001
1.40001
1.40001
1.40001
1.40001
1.40001
1.40001
1.40001
1.40001
1.40001
1.40001
1.40001
1.39994
1.39995
1.39997
1.4
1.40004
1.40009
1.40016
1.40023
1.40032
1.40042
1.40053
1.40063
1.40074
1.40084
1.40093
1.40101
1.40107
1.40111
1.40114
1.40114
1.40113
1.4011
1.40105
1.40099
1.40092
1.40084
1.40076
1.40068
1.4006
1.40052
1.40044
1.40037
1.40031
1.40026
1.40021
1.40017
1.40013
1.4001
1.40008
1.40006
1.40004
1.40003
1.40002
1.40001
1.40001
1.4
1.4
1.4
1.4
1.4
1.4
1.4
1.4
1.4
1.4
1.4
1.4
1.4
1.4
1.4
1.4
1.4
1.4
1.40001
1.40001
1.40001
1.40001
1.40001
1.40001
1.40001
1.40001
1.40001
1.40001
1.40001
1.40001
1.39997
1.39999
1.40003
1.40008
1.40014
1.40023
1.40033
1.40045
1.40058
1.40073
1.40088
1.40103
1.40118
1.40131
1.40143
1.40153
1.40161
1.40166
1.40168
1.40168
1.40164
1.40158
1.4015
1.40141
1.4013
1.40118
1.40106
1.40093
1.40081
1.4007
1.40059
1.4005
1.40041
1.40033
1.40027
1.40021
1.40016
1.40012
1.40009
1.40007
1.40005
1.40003
1.40002
1.40001
1.40001
1.4
1.4
1.4
1.4
1.4
1.4
1.4
1.4
1.4
1.4
1.4
1.4
1.4
1.4
1.4
1.4
1.4
1.4
1.40001
1.40001
1.40001
1.40001
1.40001
1.40001
1.40001
1.40001
1.40001
1.40001
1.40001
1.40001
1.40002
1.40006
1.40012
1.40021
1.40032
1.40045
1.40061
1.40078
1.40098
1.40118
1.4014
1.40161
1.40181
1.402
1.40216
1.40229
1.40238
1.40244
1.40245
1.40243
1.40237
1.40227
1.40214
1.402
1.40183
1.40165
1.40147
1.40129
1.40112
1.40095
1.4008
1.40066
1.40054
1.40044
1.40035
1.40027
1.40021
1.40016
1.40011
1.40008
1.40006
1.40004
1.40002
1.40001
1.40001
1.4
1.4
1.4
1.4
1.4
1.4
1.4
1.4
1.4
1.4
1.4
1.4
1.4
1.4
1.4
1.4
1.4
1.4
1.4
1.40001
1.40001
1.40001
1.40001
1.40001
1.40001
1.40001
1.40001
1.40001
1.40001
1.40001
1.4001
1.40018
1.40028
1.40041
1.40058
1.40078
1.40101
1.40127
1.40155
1.40184
1.40214
1.40243
1.40271
1.40296
1.40317
1.40334
1.40346
1.40352
1.40353
1.40348
1.40338
1.40323
1.40304
1.40282
1.40257
1.40231
1.40205
1.40179
1.40154
1.4013
1.40109
1.4009
1.40073
1.40058
1.40046
1.40035
1.40027
1.4002
1.40014
1.4001
1.40007
1.40004
1.40002
1.40001
1.4
1.4
1.4
1.4
1.4
1.4
1.4
1.4
1.4
1.4
1.4
1.4
1.4
1.4
1.4
1.4
1.4
1.4
1.4
1.4
1.4
1.40001
1.40001
1.40001
1.40001
1.40001
1.40001
1.40001
1.40001
1.40001
1.40001
1.40023
1.40035
1.40052
1.40072
1.40097
1.40126
1.4016
1.40197
1.40236
1.40277
1.40318
1.40358
1.40396
1.40429
1.40457
1.40479
1.40494
1.40501
1.40501
1.40492
1.40476
1.40454
1.40426
1.40394
1.40359
1.40322
1.40284
1.40247
1.40212
1.40179
1.40149
1.40122
1.40098
1.40078
1.40061
1.40047
1.40035
1.40026
1.40018
1.40013
1.40008
1.40005
1.40003
1.40001
1.4
1.4
1.39999
1.39999
1.39999
1.39999
1.39999
1.4
1.4
1.4
1.4
1.4
1.4
1.4
1.4
1.4
1.4
1.4
1.4
1.4
1.4
1.40001
1.40001
1.40001
1.40001
1.40001
1.40001
1.40001
1.40001
1.40001
1.40001
1.40043
1.40062
1.40086
1.40117
1.40153
1.40195
1.40242
1.40294
1.40349
1.40405
1.40461
1.40515
1.40565
1.40609
1.40646
1.40675
1.40693
1.40701
1.40699
1.40686
1.40663
1.40631
1.40592
1.40547
1.40497
1.40446
1.40393
1.40341
1.40292
1.40246
1.40204
1.40166
1.40133
1.40105
1.40081
1.40062
1.40046
1.40033
1.40024
1.40016
1.4001
1.40006
1.40003
1.40001
1.4
1.39999
1.39999
1.39999
1.39999
1.39999
1.39999
1.39999
1.4
1.4
1.4
1.4
1.4
1.4
1.4
1.4
1.4
1.4
1.4
1.4
1.4
1.4
1.40001
1.40001
1.40001
1.40001
1.40001
1.40001
1.40001
1.40001
1.40001
1.40072
1.401
1.40136
1.4018
1.40232
1.40291
1.40357
1.40428
1.40502
1.40578
1.40653
1.40725
1.4079
1.40848
1.40896
1.40932
1.40955
1.40964
1.40959
1.4094
1.40909
1.40865
1.40811
1.4075
1.40682
1.40611
1.40539
1.40468
1.404
1.40336
1.40278
1.40226
1.40181
1.40142
1.4011
1.40083
1.40062
1.40044
1.40031
1.40021
1.40013
1.40008
1.40004
1.40002
1.4
1.39999
1.39998
1.39998
1.39998
1.39999
1.39999
1.39999
1.39999
1.4
1.4
1.4
1.4
1.4
1.4
1.4
1.4
1.4
1.4
1.4
1.4
1.4
1.40001
1.40001
1.40001
1.40001
1.40001
1.40001
1.40001
1.40001
1.40001
1.40113
1.40154
1.40205
1.40267
1.40339
1.40421
1.4051
1.40606
1.40705
1.40806
1.40904
1.40998
1.41083
1.41157
1.41218
1.41263
1.41291
1.41302
1.41294
1.41269
1.41226
1.41168
1.41097
1.41014
1.40924
1.40829
1.40732
1.40636
1.40543
1.40457
1.40378
1.40307
1.40245
1.40192
1.40148
1.40112
1.40083
1.40059
1.40041
1.40028
1.40018
1.4001
1.40005
1.40002
1.4
1.39998
1.39998
1.39998
1.39998
1.39998
1.39998
1.39999
1.39999
1.39999
1.4
1.4
1.4
1.4
1.4
1.4
1.4
1.4
1.4
1.4
1.4
1.4
1.4
1.40001
1.40001
1.40001
1.40001
1.40001
1.40001
1.40001
1.40001
1.4017
1.40228
1.403
1.40385
1.40483
1.40593
1.40713
1.40839
1.4097
1.411
1.41227
1.41346
1.41453
1.41546
1.41622
1.41678
1.41713
1.41725
1.41714
1.41681
1.41626
1.41551
1.41459
1.41352
1.41235
1.4111
1.40982
1.40855
1.40732
1.40616
1.4051
1.40415
1.40332
1.4026
1.402
1.40151
1.40111
1.4008
1.40056
1.40037
1.40024
1.40014
1.40007
1.40003
1.4
1.39998
1.39997
1.39997
1.39997
1.39997
1.39998
1.39998
1.39999
1.39999
1.39999
1.4
1.4
1.4
1.4
1.4
1.4
1.4
1.4
1.4
1.4
1.4
1.4
1.40001
1.40001
1.40001
1.40001
1.40001
1.40001
1.40001
1.40001
1.40247
1.40328
1.40426
1.40541
1.40672
1.40818
1.40974
1.41138
1.41304
1.4147
1.41629
1.41777
1.4191
1.42024
1.42116
1.42184
1.42225
1.4224
1.42226
1.42184
1.42116
1.42023
1.41908
1.41774
1.41625
1.41465
1.41301
1.41136
1.40975
1.40824
1.40683
1.40557
1.40446
1.4035
1.4027
1.40203
1.4015
1.40108
1.40075
1.40051
1.40032
1.40019
1.4001
1.40004
1.4
1.39998
1.39997
1.39996
1.39996
1.39997
1.39997
1.39998
1.39998
1.39999
1.39999
1.39999
1.4
1.4
1.4
1.4
1.4
1.4
1.4
1.4
1.4
1.4
1.4
1.4
1.40001
1.40001
1.40001
1.40001
1.40001
1.40001
1.40001
1.4035
1.4046
1.40591
1.40744
1.40915
1.41103
1.41303
1.4151
1.41718
1.41923
1.42117
1.42296
1.42455
1.42591
1.427
1.42779
1.42828
1.42844
1.42827
1.42778
1.42698
1.42587
1.42448
1.42285
1.42101
1.41904
1.41697
1.41489
1.41284
1.41088
1.40906
1.4074
1.40594
1.40468
1.40361
1.40273
1.40201
1.40145
1.40102
1.40069
1.40044
1.40027
1.40014
1.40006
1.40001
1.39998
1.39996
1.39995
1.39995
1.39996
1.39996
1.39997
1.39998
1.39998
1.39999
1.39999
1.4
1.4
1.4
1.4
1.4
1.4
1.4
1.4
1.4
1.4
1.4
1.4
1.40001
1.40001
1.40001
1.40001
1.40001
1.40001
1.40001
1.40484
1.40631
1.40804
1.41001
1.41221
1.41459
1.41708
1.41963
1.42216
1.42461
1.4269
1.429
1.43084
1.43239
1.43362
1.43451
1.43505
1.43524
1.43506
1.43451
1.4336
1.43233
1.43073
1.42883
1.42666
1.42429
1.42178
1.41921
1.41665
1.41418
1.41186
1.40973
1.40784
1.40619
1.4048
1.40364
1.40269
1.40195
1.40137
1.40093
1.4006
1.40037
1.40021
1.40009
1.40002
1.39998
1.39996
1.39995
1.39995
1.39995
1.39996
1.39996
1.39997
1.39998
1.39998
1.39999
1.39999
1.4
1.4
1.4
1.4
1.4
1.4
1.4
1.4
1.4
1.4
1.4
1.4
1.40001
1.40001
1.40001
1.40001
1.40001
1.40001
1.40657
1.40848
1.4107
1.41321
1.41596
1.41889
1.42192
1.42497
1.42795
1.43078
1.43339
1.43573
1.43776
1.43944
1.44077
1.44172
1.4423
1.4425
1.44231
1.44174
1.44077
1.43942
1.43767
1.43556
1.43311
1.43038
1.42743
1.42436
1.42125
1.41821
1.41532
1.41264
1.41023
1.40812
1.40631
1.40481
1.40358
1.4026
1.40183
1.40125
1.40082
1.40051
1.40029
1.40014
1.40005
1.39999
1.39995
1.39994
1.39994
1.39994
1.39995
1.39995
1.39996
1.39997
1.39998
1.39999
1.39999
1.39999
1.4
1.4
1.4
1.4
1.4
1.4
1.4
1.4
1.4
1.4
1.4
1.40001
1.40001
1.40001
1.40001
1.40001
1.40001
1.40874
1.41118
1.41398
1.4171
1.42046
1.42397
1.42754
1.43106
1.43442
1.43755
1.44038
1.44286
1.44497
1.44668
1.44801
1.44895
1.44952
1.44972
1.44955
1.449
1.44806
1.44672
1.44495
1.44275
1.44013
1.43714
1.43383
1.4303
1.42665
1.42301
1.41949
1.41619
1.41318
1.41052
1.40822
1.40629
1.4047
1.40343
1.40244
1.40168
1.40111
1.4007
1.40041
1.40021
1.40008
1.4
1.39996
1.39993
1.39993
1.39993
1.39994
1.39995
1.39996
1.39997
1.39997
1.39998
1.39999
1.39999
1.4
1.4
1.4
1.4
1.4
1.4
1.4
1.4
1.4
1.4
1.4
1.40001
1.40001
1.40001
1.40001
1.40001
1.40001
1.41142
1.41448
1.41793
1.4217
1.42569
1.42977
1.43382
1.43771
1.44134
1.44461
1.44749
1.44993
1.45194
1.45353
1.45472
1.45555
1.45605
1.45623
1.4561
1.45564
1.45483
1.45364
1.45202
1.44993
1.44734
1.44427
1.44075
1.43688
1.43276
1.42856
1.4244
1.42043
1.41675
1.41346
1.41058
1.40814
1.40612
1.4045
1.40322
1.40223
1.40149
1.40096
1.40057
1.40031
1.40014
1.40003
1.39996
1.39993
1.39992
1.39992
1.39993
1.39994
1.39995
1.39996
1.39997
1.39998
1.39998
1.39999
1.39999
1.4
1.4
1.4
1.4
1.4
1.4
1.4
1.4
1.4
1.4
1.4
1.40001
1.40001
1.40001
1.40001
1.40001
1.41467
1.41841
1.42256
1.427
1.43158
1.43614
1.44054
1.44462
1.4483
1.45148
1.45416
1.45632
1.458
1.45926
1.46016
1.46075
1.4611
1.46122
1.46115
1.46085
1.46031
1.45944
1.45818
1.45645
1.45416
1.45128
1.44782
1.44382
1.43941
1.43473
1.42999
1.42535
1.42097
1.41697
1.41344
1.41041
1.40788
1.40582
1.40419
1.40293
1.40198
1.40129
1.40079
1.40045
1.40022
1.40007
1.39998
1.39993
1.39991
1.39991
1.39991
1.39993
1.39994
1.39995
1.39996
1.39997
1.39998
1.39999
1.39999
1.4
1.4
1.4
1.4
1.4
1.4
1.4
1.4
1.4
1.4
1.4
1.40001
1.40001
1.40001
1.40001
1.40001
1.41851
1.42299
1.42784
1.43289
1.43795
1.44283
1.44734
1.45135
1.45477
1.45755
1.45971
1.4613
1.4624
1.46311
1.46352
1.46374
1.46385
1.46389
1.46388
1.46382
1.46365
1.46329
1.46263
1.46154
1.45989
1.45756
1.45449
1.45069
1.44625
1.44133
1.43613
1.43088
1.42581
1.42108
1.41684
1.41314
1.41002
1.40746
1.40541
1.40381
1.40261
1.40171
1.40107
1.40062
1.40032
1.40013
1.40001
1.39994
1.39991
1.3999
1.3999
1.39992
1.39993
1.39994
1.39996
1.39997
1.39998
1.39998
1.39999
1.39999
1.4
1.4
1.4
1.4
1.4
1.4
1.4
1.4
1.4
1.4
1.40001
1.40001
1.40001
1.40001
1.40001
1.42296
1.42816
1.43365
1.43919
1.44453
1.44945
1.45376
1.45733
1.46012
1.46214
1.46345
1.46416
1.46441
1.46434
1.46411
1.46384
1.46362
1.46354
1.46361
1.46383
1.46415
1.46445
1.46461
1.46445
1.46376
1.46237
1.46012
1.45694
1.45285
1.448
1.44259
1.4369
1.43121
1.42577
1.42077
1.41635
1.41257
1.40942
1.40689
1.4049
1.40338
1.40225
1.40143
1.40085
1.40046
1.40021
1.40005
1.39996
1.39991
1.39989
1.39989
1.3999
1.39992
1.39993
1.39995
1.39996
1.39997
1.39998
1.39999
1.39999
1.4
1.4
1.4
1.4
1.4
1.4
1.4
1.4
1.4
1.4
1.4
1.40001
1.40001
1.40001
1.40001
1.42796
1.43384
1.43982
1.44561
1.45093
1.45552
1.45923
1.46196
1.46373
1.4646
1.46473
1.46429
1.46346
1.46245
1.46144
1.46058
1.45999
1.45976
1.45991
1.46045
1.46131
1.46239
1.46353
1.46452
1.4651
1.46501
1.46401
1.46192
1.45865
1.45429
1.44903
1.44316
1.43702
1.43095
1.42522
1.42005
1.41555
1.41176
1.40866
1.40621
1.40433
1.40291
1.40188
1.40115
1.40065
1.40032
1.40011
1.39999
1.39992
1.39989
1.39989
1.39989
1.39991
1.39992
1.39994
1.39995
1.39997
1.39998
1.39998
1.39999
1.39999
1.4
1.4
1.4
1.4
1.4
1.4
1.4
1.4
1.4
1.4
1.40001
1.40001
1.40001
1.40001
1.43342
1.43982
1.44606
1.45179
1.45668
1.46052
1.46318
1.46465
1.46502
1.46443
1.46312
1.46131
1.45927
1.45721
1.45535
1.45385
1.45286
1.45246
1.45269
1.45356
1.455
1.4569
1.45911
1.46138
1.46344
1.46495
1.46558
1.46501
1.46307
1.45969
1.45502
1.44934
1.44302
1.43649
1.43012
1.42421
1.41896
1.41447
1.41075
1.40778
1.40547
1.40372
1.40243
1.40152
1.40088
1.40046
1.40019
1.40003
1.39994
1.39989
1.39988
1.39989
1.3999
1.39992
1.39993
1.39995
1.39996
1.39997
1.39998
1.39999
1.39999
1.4
1.4
1.4
1.4
1.4
1.4
1.4
1.4
1.4
1.4
1.40001
1.40001
1.40001
1.40001
1.43917
1.44585
1.45202
1.45727
1.4613
1.46393
1.46512
1.46496
1.46362
1.46134
1.45842
1.45515
1.45181
1.44867
1.44595
1.44382
1.44244
1.44188
1.44219
1.44338
1.44538
1.44811
1.45139
1.45499
1.45862
1.46189
1.46441
1.46574
1.46556
1.46368
1.46011
1.45506
1.44893
1.44219
1.43533
1.42876
1.42277
1.41755
1.41317
1.40961
1.40682
1.40468
1.4031
1.40197
1.40118
1.40064
1.4003
1.40008
1.39996
1.3999
1.39988
1.39988
1.39989
1.39991
1.39992
1.39994
1.39996
1.39997
1.39998
1.39999
1.39999
1.4
1.4
1.4
1.4
1.4
1.4
1.4
1.4
1.4
1.4
1.40001
1.40001
1.40001
1.40001
1.44497
1.45161
1.45729
1.46161
1.46432
1.46533
1.4647
1.46263
1.45939
1.4553
1.45071
1.44596
1.44135
1.43715
1.4336
1.43088
1.42912
1.42842
1.42881
1.43031
1.43286
1.43636
1.44067
1.44557
1.45075
1.45583
1.46036
1.46382
1.46576
1.46581
1.46383
1.45991
1.45441
1.44781
1.4407
1.4336
1.42694
1.42098
1.4159
1.41171
1.40839
1.40582
1.4039
1.40251
1.40153
1.40087
1.40043
1.40016
1.4
1.39992
1.39988
1.39987
1.39988
1.3999
1.39992
1.39993
1.39995
1.39996
1.39998
1.39998
1.39999
1.39999
1.4
1.4
1.4
1.4
1.4
1.4
1.4
1.4
1.4
1.4
1.40001
1.40001
1.40001
1.45054
1.45674
1.46148
1.46442
1.4654
1.46446
1.46178
1.45765
1.45244
1.44652
1.44028
1.43409
1.42826
1.42307
1.41874
1.41546
1.41337
1.41254
1.41302
1.41481
1.41788
1.42212
1.42741
1.43353
1.44019
1.44702
1.45355
1.45923
1.46348
1.46579
1.46582
1.46352
1.45911
1.45306
1.44601
1.43859
1.43136
1.42473
1.41893
1.41409
1.41018
1.40714
1.40484
1.40316
1.40196
1.40115
1.4006
1.40026
1.40005
1.39994
1.39989
1.39987
1.39988
1.39989
1.39991
1.39993
1.39995
1.39996
1.39997
1.39998
1.39999
1.39999
1.4
1.4
1.4
1.4
1.4
1.4
1.4
1.4
1.4
1.4
1.40001
1.40001
1.40001
1.45557
1.46088
1.46424
1.46541
1.46437
1.46127
1.45642
1.4502
1.44303
1.43533
1.42752
1.41996
1.41297
1.40682
1.40175
1.39794
1.39552
1.39457
1.39514
1.39724
1.40082
1.40579
1.41201
1.41928
1.42734
1.43583
1.44428
1.45214
1.45876
1.46351
1.46587
1.46559
1.46272
1.45766
1.45103
1.44356
1.43594
1.4287
1.42223
1.41671
1.4122
1.40863
1.40592
1.40391
1.40247
1.40148
1.40081
1.40038
1.40012
1.39998
1.3999
1.39987
1.39987
1.39988
1.3999
1.39992
1.39994
1.39996
1.39997
1.39998
1.39999
1.39999
1.4
1.4
1.4
1.4
1.4
1.4
1.4
1.4
1.4
1.4
1.40001
1.40001
1.40001
1.45974
1.46375
1.46536
1.46448
1.46122
1.45588
1.44884
1.44057
1.43152
1.42213
1.41281
1.40391
1.39578
1.38868
1.38286
1.3785
1.37574
1.37468
1.37536
1.37778
1.38189
1.3876
1.39476
1.40318
1.41258
1.42265
1.43292
1.44287
1.45181
1.45905
1.46391
1.46595
1.46501
1.46135
1.45553
1.44833
1.44053
1.43283
1.42574
1.41956
1.41442
1.41031
1.40714
1.40477
1.40306
1.40187
1.40106
1.40054
1.40021
1.40002
1.39992
1.39988
1.39987
1.39988
1.3999
1.39992
1.39994
1.39995
1.39997
1.39998
1.39998
1.39999
1.4
1.4
1.4
1.4
1.4
1.4
1.4
1.4
1.4
1.4
1.40001
1.40001
1.40001
1.46282
1.46516
1.46475
1.46164
1.4561
1.44853
1.43938
1.42914
1.41829
1.40725
1.39643
1.38619
1.37687
1.36875
1.3621
1.35713
1.35399
1.3528
1.35361
1.3564
1.36111
1.36763
1.3758
1.38541
1.39618
1.40778
1.41981
1.43174
1.44292
1.4526
1.46002
1.46455
1.46584
1.46394
1.45931
1.4527
1.44499
1.437
1.42939
1.42259
1.41683
1.41215
1.40849
1.40574
1.40373
1.40232
1.40135
1.40072
1.40032
1.40008
1.39995
1.39989
1.39987
1.39988
1.39989
1.39991
1.39993
1.39995
1.39996
1.39997
1.39998
1.39999
1.39999
1.4
1.4
1.4
1.4
1.4
1.4
1.4
1.4
1.4
1.4
1.40001
1.40001
1.46463
1.46503
1.46244
1.45705
1.44926
1.43953
1.42836
1.41624
1.40363
1.39094
1.37856
1.36687
1.35622
1.34694
1.33932
1.33362
1.33004
1.3287
1.32966
1.3329
1.33833
1.34581
1.35512
1.36603
1.37825
1.39145
1.40522
1.41907
1.43238
1.44442
1.45437
1.46146
1.46516
1.46531
1.46221
1.45653
1.44918
1.44111
1.43311
1.42575
1.41939
1.41413
1.40998
1.40682
1.40449
1.40283
1.40168
1.40093
1.40045
1.40016
1.39999
1.39991
1.39988
1.39988
1.39989
1.39991
1.39993
1.39994
1.39996
1.39997
1.39998
1.39999
1.39999
1.4
1.4
1.4
1.4
1.4
1.4
1.4
1.4
1.4
1.4
1.40001
1.40001
1.46512
1.46342
1.45859
1.45096
1.441
1.42922
1.41611
1.40215
1.38775
1.37332
1.35923
1.34589
1.33368
1.32301
1.31422
1.30765
1.30353
1.30201
1.30318
1.30699
1.31332
1.32195
1.33263
1.34505
1.35888
1.37378
1.38934
1.40509
1.42048
1.43478
1.44718
1.45683
1.46304
1.46544
1.46413
1.45968
1.45298
1.44504
1.4368
1.42899
1.42206
1.41625
1.41158
1.40799
1.40532
1.4034
1.40206
1.40117
1.4006
1.40024
1.40004
1.39994
1.39989
1.39988
1.39989
1.39991
1.39992
1.39994
1.39996
1.39997
1.39998
1.39999
1.39999
1.4
1.4
1.4
1.4
1.4
1.4
1.4
1.4
1.4
1.4
1.40001
1.40001
1.46433
1.46047
1.45343
1.44364
1.43162
1.41788
1.40289
1.38707
1.37079
1.35442
1.33837
1.32308
1.309
1.29662
1.28641
1.27877
1.27399
1.27229
1.27375
1.27829
1.28575
1.29583
1.30818
1.3224
1.33809
1.35486
1.37231
1.39001
1.40744
1.42394
1.4387
1.45085
1.45958
1.46435
1.46504
1.46207
1.45628
1.4487
1.4404
1.43223
1.42481
1.41845
1.41328
1.40925
1.40622
1.40402
1.40248
1.40144
1.40077
1.40035
1.4001
1.39997
1.39991
1.39989
1.39989
1.3999
1.39992
1.39994
1.39996
1.39997
1.39998
1.39999
1.39999
1.4
1.4
1.4
1.4
1.4
1.4
1.4
1.4
1.4
1.4
1.40001
1.40001
1.46237
1.45637
1.4472
1.43537
1.4214
1.40577
1.38889
1.37111
1.35276
1.33419
1.31583
1.29819
1.28185
1.26742
1.25546
1.24651
1.24095
1.23905
1.24088
1.24637
1.25526
1.26716
1.28158
1.29799
1.31587
1.33478
1.35429
1.37402
1.3935
1.41212
1.42916
1.44373
1.45495
1.46212
1.46495
1.46367
1.45901
1.45201
1.44381
1.43542
1.42758
1.42072
1.41506
1.41058
1.40718
1.4047
1.40294
1.40175
1.40096
1.40047
1.40017
1.40001
1.39993
1.3999
1.39989
1.3999
1.39992
1.39994
1.39995
1.39997
1.39998
1.39999
1.39999
1.4
1.4
1.4
1.4
1.4
1.4
1.4
1.4
1.4
1.4
1.40001
1.40001
1.4594
1.45134
1.44016
1.42641
1.41057
1.39308
1.37426
1.35436
1.33367
1.31254
1.29145
1.27101
1.25194
1.23501
1.22095
1.21042
1.20393
1.20178
1.2041
1.21077
1.22146
1.23563
1.25261
1.27169
1.29221
1.31359
1.33542
1.3573
1.37885
1.39957
1.41879
1.43568
1.44931
1.45888
1.46392
1.46447
1.46112
1.4549
1.44699
1.4385
1.43032
1.42302
1.41688
1.41196
1.4082
1.40542
1.40344
1.40208
1.40117
1.4006
1.40025
1.40006
1.39995
1.39991
1.3999
1.39991
1.39992
1.39994
1.39995
1.39997
1.39998
1.39998
1.39999
1.4
1.4
1.4
1.4
1.4
1.4
1.4
1.4
1.4
1.4
1.40001
1.40001
1.45562
1.44561
1.43255
1.41698
1.39934
1.37997
1.35909
1.33686
1.3135
1.28939
1.26507
1.24131
1.21901
1.19911
1.18255
1.17014
1.16252
1.16009
1.16299
1.17109
1.18396
1.2009
1.22103
1.24337
1.26705
1.29135
1.3158
1.34002
1.36372
1.38651
1.40783
1.42692
1.44287
1.45478
1.46204
1.46451
1.46263
1.45735
1.44987
1.44142
1.433
1.4253
1.41872
1.41339
1.40925
1.40617
1.40396
1.40243
1.4014
1.40075
1.40034
1.40011
1.39999
1.39993
1.39991
1.39991
1.39992
1.39994
1.39995
1.39997
1.39998
1.39998
1.39999
1.4
1.4
1.4
1.4
1.4
1.4
1.4
1.4
1.4
1.4
1.40001
1.40001
1.45123
1.4394
1.42459
1.40729
1.38788
1.36657
1.34348
1.31865
1.29226
1.26469
1.23663
1.209
1.1829
1.15954
1.14006
1.12547
1.11654
1.11377
1.11733
1.12709
1.14253
1.16278
1.18666
1.2129
1.24034
1.26809
1.29553
1.32234
1.34831
1.37317
1.39651
1.41769
1.43582
1.44998
1.45942
1.46385
1.46354
1.45933
1.45243
1.44414
1.43556
1.42754
1.42056
1.41482
1.41033
1.40695
1.4045
1.4028
1.40165
1.4009
1.40044
1.40017
1.40002
1.39995
1.39992
1.39992
1.39993
1.39994
1.39995
1.39997
1.39998
1.39998
1.39999
1.4
1.4
1.4
1.4
1.4
1.4
1.4
1.4
1.4
1.4
1.40001
1.40001
1.44642
1.4329
1.41645
1.3975
1.37631
1.353
1.32752
1.29981
1.27
1.23852
1.20618
1.17411
1.14369
1.11638
1.09359
1.07654
1.06613
1.06295
1.06722
1.07884
1.09721
1.12125
1.14948
1.18027
1.21212
1.24384
1.27473
1.30442
1.33279
1.35976
1.38506
1.40819
1.42837
1.44466
1.45621
1.46258
1.46388
1.46085
1.45465
1.44662
1.43799
1.4297
1.42236
1.41625
1.41141
1.40774
1.40506
1.40318
1.40191
1.40107
1.40055
1.40024
1.40006
1.39997
1.39993
1.39993
1.39993
1.39994
1.39995
1.39997
1.39998
1.39998
1.39999
1.4
1.4
1.4
1.4
1.4
1.4
1.4
1.4
1.4
1.4
1.40001
1.40001
1.44136
1.42629
1.4083
1.38775
1.36479
1.33938
1.31133
1.28047
1.24688
1.21104
1.17392
1.1369
1.10167
1.07001
1.04362
1.0239
1.01188
1.00821
1.01321
1.0268
1.04834
1.07658
1.1097
1.14564
1.18249
1.21875
1.25351
1.28639
1.31735
1.34646
1.37368
1.39865
1.42072
1.43899
1.45255
1.46081
1.46374
1.46193
1.45651
1.44884
1.44024
1.43176
1.42411
1.41765
1.41248
1.40853
1.40563
1.40357
1.40217
1.40125
1.40066
1.40031
1.40011
1.4
1.39995
1.39994
1.39994
1.39995
1.39996
1.39997
1.39998
1.39999
1.39999
1.4
1.4
1.4
1.4
1.4
1.4
1.4
1.4
1.4
1.4
1.40001
1.40001
1.43622
1.41972
1.4003
1.37819
1.35343
1.32584
1.29508
1.26085
1.22317
1.18259
1.14027
1.09789
1.05749
1.02123
0.991071
0.968578
0.954848
0.950606
0.956274
0.971857
0.996707
1.02939