/*--------------------------------*- C++ -*----------------------------------*\
  =========                 |
  \\      /  F ield         | OpenFOAM: The Open Source CFD Toolbox
   \\    /   O peration     | Website:  https://openfoam.org
    \\  /    A nd           | Version:  6
     \\/     M anipulation  |
\*---------------------------------------------------------------------------*/
FoamFile
{
    version     2.0;
    format      ascii;
    class       surfaceScalarField;
    location    "1.84";
    object      phi;
}
// * * * * * * * * * * * * * * * * * * * * * * * * * * * * * * * * * * * * * //

dimensions      [0 3 -1 0 0 0 0];

internalField   nonuniform List<scalar> 
8193
(
0.107012
-0.19037
-0.0983665
0.113135
-0.192862
0.117571
-0.194355
0.120607
-0.195587
0.122333
-0.196723
0.122686
-0.197618
0.121528
-0.198005
0.118815
-0.197717
0.114624
-0.196825
0.109041
-0.195366
0.102197
-0.19342
0.0942237
-0.191046
0.0852402
-0.18826
0.0753892
-0.185086
0.0648244
-0.181678
0.0537816
-0.178387
0.0424331
-0.175715
0.0307192
-0.174008
0.0184506
-0.173732
0.00559776
-0.174922
-0.00763774
-0.175841
-0.0207763
-0.173946
-0.0329295
-0.171872
-0.0439203
-0.168587
-0.0543646
-0.164748
-0.0645899
-0.162033
-0.0744422
-0.160619
-0.0836845
-0.160199
-0.0920015
-0.160378
-0.0992523
-0.160855
-0.105354
-0.161627
-0.110233
-0.162747
-0.113804
-0.164196
-0.116019
-0.165861
-0.116777
-0.167651
-0.116144
-0.16936
-0.114383
-0.171128
-0.111676
-0.173389
-0.107976
-0.176318
-0.10308
-0.179652
-0.182625
-0.0961335
0.127973
-0.199745
-0.118704
0.134661
-0.202666
0.139701
-0.205287
0.143148
-0.207419
0.14485
-0.208983
0.144632
-0.209785
0.142433
-0.209654
0.138361
-0.208582
0.132571
-0.206685
0.125232
-0.204023
0.11655
-0.200723
0.106714
-0.19685
0.0959114
-0.192437
0.0843682
-0.187575
0.0723465
-0.182482
0.0600891
-0.17752
0.0476795
-0.173065
0.0349697
-0.169262
0.0216297
-0.166429
0.00751943
-0.164824
-0.00705273
-0.163189
-0.0215652
-0.159229
-0.0350392
-0.156067
-0.0468827
-0.152319
-0.0577659
-0.147409
-0.0682009
-0.143206
-0.0782688
-0.140352
-0.0878676
-0.138752
-0.096732
-0.138207
-0.104618
-0.138424
-0.11143
-0.139281
-0.117125
-0.140805
-0.121617
-0.143045
-0.124812
-0.145915
-0.126608
-0.14935
-0.126934
-0.153129
-0.125941
-0.157169
-0.12395
-0.16174
-0.121162
-0.167129
-0.117608
-0.173228
-0.180036
-0.112532
0.149686
-0.208634
-0.139948
0.157212
-0.212329
0.162787
-0.21577
0.166218
-0.21827
0.16732
-0.219719
0.166047
-0.220031
0.162507
-0.219173
0.156892
-0.217209
0.149411
-0.21427
0.14033
-0.210478
0.129881
-0.205939
0.118298
-0.200732
0.105836
-0.194934
0.0927699
-0.188681
0.0793789
-0.18222
0.0658777
-0.175878
0.0523121
-0.169889
0.0385152
-0.164217
0.0241506
-0.159039
0.00907374
-0.154835
-0.00633499
-0.150901
-0.0216039
-0.145063
-0.0360627
-0.140671
-0.0489375
-0.136471
-0.0604058
-0.130967
-0.0711623
-0.125538
-0.0814672
-0.121288
-0.0912911
-0.118441
-0.100481
-0.116949
-0.108832
-0.116599
-0.116174
-0.117259
-0.122446
-0.118876
-0.127632
-0.121474
-0.131656
-0.125054
-0.134427
-0.12958
-0.135829
-0.134875
-0.135831
-0.140783
-0.134644
-0.147335
-0.132621
-0.154685
-0.12995
-0.162882
-0.172426
-0.126311
0.174455
-0.217128
-0.16423
0.182329
-0.221431
0.187589
-0.225023
0.190179
-0.227377
0.190051
-0.228351
0.187278
-0.227953
0.182063
-0.226259
0.17467
-0.223385
0.165382
-0.219472
0.154478
-0.214647
0.142238
-0.209023
0.128949
-0.202702
0.114918
-0.195801
0.100456
-0.188479
0.085838
-0.180973
0.0712286
-0.173525
0.0566275
-0.166233
0.0418641
-0.158915
0.0266247
-0.151633
0.0107354
-0.145032
-0.00540059
-0.139014
-0.0212906
-0.131518
-0.0365012
-0.125861
-0.0502954
-0.121118
-0.0624879
-0.115265
-0.0736707
-0.10893
-0.0842442
-0.103432
-0.094308
-0.0993209
-0.103813
-0.0967212
-0.112602
-0.0955532
-0.120509
-0.0957208
-0.127412
-0.0971442
-0.133282
-0.0997848
-0.138085
-0.103663
-0.141782
-0.108774
-0.144257
-0.11503
-0.145411
-0.122276
-0.145308
-0.130393
-0.144194
-0.139357
-0.142322
-0.149219
-0.160684
-0.139734
0.201461
-0.224715
-0.191336
0.208723
-0.229087
0.212943
-0.232391
0.2141
-0.23421
0.212277
-0.234469
0.207673
-0.233265
0.200572
-0.230735
0.191285
-0.227012
0.180124
-0.222234
0.167402
-0.216531
0.153443
-0.210031
0.138573
-0.202857
0.123126
-0.195149
0.10742
-0.187068
0.0916988
-0.178804
0.076073
-0.170486
0.0605062
-0.16209
0.0448549
-0.153353
0.0288644
-0.144249
0.0123418
-0.135511
-0.00435042
-0.127618
-0.0206847
-0.118697
-0.0364562
-0.111766
-0.0509954
-0.106385
-0.0639368
-0.100248
-0.0756197
-0.0932988
-0.0865107
-0.0867517
-0.096818
-0.0814357
-0.106586
-0.0776606
-0.11574
-0.0754855
-0.124135
-0.0749096
-0.131631
-0.0758653
-0.13815
-0.0782766
-0.143679
-0.0821162
-0.148206
-0.0873986
-0.151669
-0.0941038
-0.153977
-0.102122
-0.155091
-0.111295
-0.155127
-0.121459
-0.154279
-0.132591
-0.145411
-0.152735
0.229939
-0.230596
-0.220798
0.235779
-0.234566
0.23825
-0.237236
0.237439
-0.238298
0.233553
-0.237761
0.226883
-0.235775
0.217755
-0.232493
0.206505
-0.228044
0.193469
-0.222562
0.178994
-0.216188
0.163429
-0.20906
0.147125
-0.201316
0.130421
-0.193096
0.113612
-0.18454
0.0969007
-0.175764
0.0803519
-0.166783
0.0639054
-0.15747
0.047453
-0.147536
0.0308226
-0.136916
0.013812
-0.126331
-0.00329445
-0.116771
-0.01994
-0.106655
-0.0360663
-0.0985198
-0.0511572
-0.092405
-0.0647745
-0.0859437
-0.0770213
-0.0785571
-0.088292
-0.0711854
-0.0988783
-0.0647791
-0.108908
-0.0598297
-0.11838
-0.0565436
-0.127203
-0.0550279
-0.135238
-0.0552833
-0.142378
-0.0572178
-0.14859
-0.0607494
-0.153887
-0.0658643
-0.158246
-0.0725947
-0.161607
-0.0808853
-0.163923
-0.0905777
-0.165207
-0.101462
-0.165571
-0.113429
-0.127119
-0.165212
0.258827
-0.233964
-0.251564
0.2625
-0.237204
0.26266
-0.23907
0.259512
-0.239338
0.253345
-0.238063
0.24449
-0.235409
0.233287
-0.231516
0.220084
-0.226512
0.205244
-0.220535
0.189137
-0.213736
0.172127
-0.206255
0.154569
-0.198227
0.136778
-0.189774
0.119011
-0.180988
0.101422
-0.171907
0.0840438
-0.162441
0.0668077
-0.152386
0.0496412
-0.14147
0.0324621
-0.129637
0.0150846
-0.117527
-0.00230685
-0.106515
-0.0191631
-0.0954068
-0.0354927
-0.0861971
-0.0509599
-0.0792856
-0.0651095
-0.0724412
-0.0778991
-0.0646874
-0.0895872
-0.0566789
-0.100485
-0.0493284
-0.110789
-0.0432556
-0.120555
-0.0388264
-0.129759
-0.0362407
-0.138278
-0.0356132
-0.145992
-0.0368669
-0.152835
-0.0398792
-0.158829
-0.0445664
-0.163979
-0.0509919
-0.16827
-0.059135
-0.171671
-0.0688666
-0.174168
-0.0799745
-0.17581
-0.0922966
-0.106386
-0.176747
0.286949
-0.234148
-0.282325
0.287919
-0.236548
0.285428
-0.237626
0.279754
-0.237202
0.271217
-0.235339
0.260152
-0.232182
0.246903
-0.227865
0.231834
-0.222518
0.215328
-0.216298
0.197765
-0.209348
0.179511
-0.201799
0.160893
-0.19376
0.142193
-0.185318
0.123613
-0.176508
0.10526
-0.167285
0.0871463
-0.157486
0.069215
-0.146858
0.0514244
-0.135162
0.0337722
-0.122402
0.0161192
-0.109098
-0.00144778
-0.0968701
-0.0184367
-0.0849425
-0.0348568
-0.0748258
-0.0505345
-0.0671155
-0.0650724
-0.0598183
-0.0783232
-0.0517202
-0.0904242
-0.0432036
-0.101656
-0.0350504
-0.112255
-0.0279366
-0.122324
-0.0223756
-0.131871
-0.0186717
-0.140837
-0.0170232
-0.14907
-0.0174574
-0.156506
-0.0197755
-0.163146
-0.0238444
-0.168993
-0.02974
-0.174066
-0.0374347
-0.178378
-0.0468211
-0.181936
-0.0577051
-0.184772
-0.0699099
-0.0839207
-0.186997
0.313183
-0.230768
-0.311664
0.311183
-0.232409
0.305907
-0.232843
0.297664
-0.231911
0.286777
-0.229658
0.273569
-0.226203
0.258386
-0.22168
0.241614
-0.216247
0.223644
-0.210058
0.204852
-0.203243
0.185577
-0.195899
0.166109
-0.188096
0.146675
-0.17987
0.127424
-0.171194
0.108424
-0.161958
0.0896749
-0.151952
0.0711462
-0.140908
0.0528269
-0.128626
0.0347687
-0.115191
0.016901
-0.101016
-0.000761149
-0.0878225
-0.0178235
-0.0752289
-0.0342593
-0.0643908
-0.0500148
-0.0559432
-0.064793
-0.0481472
-0.0783977
-0.0396988
-0.090872
-0.0307512
-0.102444
-0.0219116
-0.113356
-0.0138508
-0.12374
-0.00720312
-0.133623
-0.00239005
-0.142992
0.000344411
-0.151698
0.000822647
-0.159703
-0.000656946
-0.166941
-0.0039972
-0.173409
-0.0092248
-0.179144
-0.0162839
-0.184187
-0.0250711
-0.188575
-0.035409
-0.192387
-0.0470904
-0.0605624
-0.195748
0.336604
-0.223751
-0.338349
0.331586
-0.224816
0.323552
-0.224812
0.312822
-0.223603
0.299703
-0.221187
0.284508
-0.217665
0.267595
-0.213192
0.249357
-0.20795
0.230182
-0.20208
0.210418
-0.195673
0.190353
-0.18877
0.170238
-0.18141
0.150235
-0.173555
0.130444
-0.165128
0.110906
-0.155979
0.0916248
-0.145875
0.0726039
-0.134567
0.05386
-0.121886
0.0354684
-0.107989
0.0174282
-0.0932308
-0.000285036
-0.0793228
-0.0173818
-0.0662096
-0.0337849
-0.0548465
-0.049524
-0.0457723
-0.0644172
-0.037469
-0.0782617
-0.0286625
-0.0910528
-0.0193162
-0.102965
-0.00986574
-0.114215
-0.000949129
-0.124941
0.00671554
-0.135181
0.0125962
-0.144907
0.0163764
-0.154046
0.0178239
-0.162563
0.0172663
-0.170333
0.0147022
-0.177345
0.0102093
-0.183631
0.00387744
-0.189226
-0.0041973
-0.194227
-0.0137831
-0.198756
-0.0246588
-0.0372302
-0.202984
0.356454
-0.213251
-0.361389
0.348537
-0.213961
0.337915
-0.213766
0.324896
-0.21253
0.309767
-0.210193
0.292838
-0.206855
0.274481
-0.202711
0.255082
-0.197947
0.235001
-0.192669
0.214523
-0.186892
0.19391
-0.180637
0.173333
-0.173861
0.152903
-0.166479
0.132681
-0.158374
0.112701
-0.149388
0.0929764
-0.139281
0.0735534
-0.127855
0.054481
-0.114957
0.0358394
-0.100795
0.0176679
-0.0856936
-7.00385e-05
-0.0713025
-0.017178
-0.0578107
-0.0335204
-0.0461233
-0.0491832
-0.0365666
-0.0640937
-0.0277895
-0.0780866
-0.0186177
-0.0911475
-0.00887065
-0.10342
0.00116746
-0.115064
0.0108698
-0.126196
0.0194677
-0.136838
0.0263281
-0.146923
0.0310406
-0.156464
0.0334445
-0.165356
0.0337433
-0.173522
0.0319562
-0.18093
0.0281989
-0.187593
0.0225967
-0.193579
0.0152944
-0.199014
0.00657315
-0.20401
-0.00336788
-0.0148736
-0.208748
0.372105
-0.1996
-0.379975
0.361573
-0.200191
0.348673
-0.200074
0.333687
-0.199062
0.316877
-0.197044
0.298564
-0.194154
0.27912
-0.190617
0.258906
-0.186596
0.238221
-0.182128
0.217306
-0.177168
0.196346
-0.171686
0.175449
-0.165567
0.154703
-0.158718
0.134149
-0.150989
0.11382
-0.142225
0.0937481
-0.132206
0.074002
-0.12078
0.0546572
-0.107821
0.0358019
-0.0935608
0.0175145
-0.0783297
-0.000216877
-0.0636982
-0.0172931
-0.0499773
-0.0335443
-0.0381518
-0.0491026
-0.0282544
-0.0639812
-0.0190598
-0.0780791
-0.00951424
-0.0914034
0.000665566
-0.104087
0.011316
-0.116233
0.0217756
-0.127914
0.0312414
-0.139076
0.038947
-0.149612
0.044425
-0.159404
0.0474987
-0.168485
0.0485173
-0.176806
0.0474105
-0.184366
0.0443359
-0.191195
0.0394453
-0.197372
0.0329224
-0.20299
0.0250576
-0.208147
0.0160473
0.00563147
-0.213034
0.383085
-0.183306
-0.393446
0.370407
-0.184035
0.355694
-0.18425
0.339176
-0.183677
0.321111
-0.182201
0.301838
-0.180012
0.281713
-0.177334
0.261037
-0.174261
0.240039
-0.170751
0.218897
-0.166707
0.197727
-0.162039
0.176616
-0.156611
0.15564
-0.150326
0.134826
-0.143001
0.114227
-0.134521
0.0938882
-0.124669
0.0739042
-0.113361
0.054351
-0.100465
0.0353343
-0.0862572
0.0169366
-0.0710565
-0.000818109
-0.0563863
-0.0178242
-0.0426493
-0.0339255
-0.0308893
-0.0493489
-0.0207629
-0.0641936
-0.0111788
-0.0784149
-0.00123263
-0.092068
0.0094544
-0.105303
0.0208098
-0.118155
0.0320515
-0.130512
0.042229
-0.142272
0.050579
-0.153218
0.0565169
-0.163319
0.0600462
-0.172513
0.0614815
-0.180789
0.0607984
-0.188186
0.0581978
-0.194798
0.0538829
-0.20077
0.048079
-0.206197
0.0410222
-0.211138
0.032865
0.0234846
-0.215796
0.389191
-0.165083
-0.401383
0.375015
-0.16619
0.359083
-0.166933
0.341553
-0.166933
0.32273
-0.166192
0.302957
-0.164915
0.282548
-0.163275
0.261713
-0.161254
0.240615
-0.158752
0.21937
-0.155626
0.198081
-0.151771
0.17681
-0.147022
0.155641
-0.14131
0.134597
-0.134402
0.113789
-0.126286
0.0932317
-0.116664
0.0730875
-0.105612
0.0533721
-0.0928646
0.0342636
-0.0788748
0.0157897
-0.0638224
-0.00192841
-0.0493348
-0.0188049
-0.0357888
-0.0347467
-0.0242432
-0.0500293
-0.0139927
-0.0648445
-0.00403531
-0.0792613
0.0064062
-0.093434
0.0177918
-0.107443
0.0299714
-0.121091
0.0418832
-0.134242
0.0526333
-0.146608
0.0613047
-0.158093
0.0674997
-0.168515
0.0711349
-0.177752
0.0725778
-0.185746
0.071864
-0.192624
0.0693757
-0.198572
0.0653684
-0.203847
0.0601322
-0.208622
0.0538131
-0.212939
0.046424
0.0380312
-0.217033
0.390594
-0.145852
-0.403746
0.375706
-0.147485
0.359184
-0.148788
0.341215
-0.149433
0.322163
-0.149571
0.30234
-0.14933
0.281973
-0.148781
0.261197
-0.147799
0.240117
-0.14625
0.218845
-0.143993
0.197457
-0.14089
0.176053
-0.136806
0.154706
-0.131654
0.133466
-0.125189
0.112487
-0.117516
0.0916984
-0.108126
0.0714058
-0.0974834
0.0514484
-0.0848717
0.0322856
-0.0713752
0.0137468
-0.0565555
-0.0037799
-0.0426087
-0.0204318
-0.0293947
-0.0361626
-0.0181638
-0.0513501
-0.00779224
-0.0662007
0.00254509
-0.0809681
0.0136688
-0.0958897
0.0260192
-0.110644
0.0388834
-0.125097
0.0513862
-0.138941
0.0624564
-0.152055
0.0713591
-0.164089
0.0774667
-0.174829
0.0808287
-0.183955
0.0817012
-0.191438
0.0804068
-0.19742
0.0774928
-0.202317
0.0734847
-0.206377
0.0684974
-0.209994
0.0628157
-0.213289
0.0561711
0.0486776
-0.216435
0.38778
-0.126413
-0.401128
0.373066
-0.128838
0.356423
-0.130314
0.338706
-0.131894
0.319855
-0.132788
0.300418
-0.133711
0.280257
-0.134025
0.259698
-0.134061
0.238628
-0.133235
0.217388
-0.131861
0.195855
-0.129336
0.174383
-0.126009
0.152831
-0.121305
0.131458
-0.115392
0.110348
-0.108208
0.0893116
-0.0989889
0.0690746
-0.0891234
0.0487236
-0.0762702
0.0298669
-0.0640468
0.0110179
-0.0489309
-0.0061751
-0.0362632
-0.0227207
-0.0232551
-0.0382625
-0.0125289
-0.0532215
-0.00218916
-0.0681114
0.00867703
-0.0833241
0.0207647
-0.0989303
0.0341894
-0.114456
0.0476916
-0.129969
0.0609336
-0.144594
0.0719017
-0.158557
0.0809558
-0.17075
0.0861347
-0.181684
0.0891016
-0.190114
0.0883516
-0.196968
0.0863791
-0.201647
0.0821957
-0.205173
0.0779431
-0.207682
0.0728431
-0.209627
0.0674918
-0.211523
0.0616715
0.0550267
-0.213422
0.381142
-0.394163
0.367525
0.351282
0.334566
0.316209
0.297416
0.277464
0.257164
0.236029
0.214833
0.193069
0.171572
0.149789
0.128421
0.107213
0.0861339
0.0660414
0.045555
0.0269443
0.00791566
-0.00912998
-0.0254375
-0.0411745
-0.0565935
-0.0722532
-0.0887014
-0.104148
-0.12071
-0.135653
-0.150544
-0.16438
-0.175929
-0.187456
-0.194145
-0.201581
-0.203198
-0.206196
-0.205745
-0.206859
-0.20652
-0.207615
-0.0683752
-0.189113
-0.0813794
-0.195672
-0.0906373
-0.199612
-0.0960147
-0.201469
-0.09786
-0.201431
-0.0966489
-0.199762
-0.0927041
-0.196689
-0.0864715
-0.192189
-0.0783816
-0.186324
-0.0688058
-0.179133
-0.0581224
-0.170631
-0.0468104
-0.160916
-0.035402
-0.150245
-0.0243945
-0.13902
-0.0143382
-0.127223
-0.00496682
-0.115657
-0.0979796
-0.0602003
-0.172369
-0.0727513
-0.17856
-0.0823252
-0.182966
-0.0886486
-0.185717
-0.0917981
-0.186723
-0.0920394
-0.186126
-0.0896821
-0.184169
-0.085002
-0.180913
-0.0783572
-0.176374
-0.070074
-0.17065
-0.0604608
-0.163784
-0.0498895
-0.155808
-0.0388114
-0.146885
-0.0277994
-0.137262
-0.0172502
-0.127056
-0.00749787
-0.117074
-0.0997851
-0.0519204
-0.155869
-0.0638651
-0.16232
-0.0734763
-0.166829
-0.0804154
-0.170137
-0.0845636
-0.171992
-0.0860174
-0.172377
-0.0850396
-0.171416
-0.081802
-0.169306
-0.0765519
-0.166023
-0.0695703
-0.161656
-0.0611143
-0.156288
-0.051471
-0.149928
-0.0410081
-0.142651
-0.0301883
-0.134596
-0.0193881
-0.125937
-0.00907399
-0.117357
-0.100991
-0.0433226
-0.140961
-0.0547658
-0.146915
-0.0641697
-0.151487
-0.0714286
-0.155045
-0.0763266
-0.157494
-0.0788239
-0.158686
-0.0790182
-0.15865
-0.0770943
-0.15753
-0.0731843
-0.155389
-0.0674927
-0.152267
-0.06023
-0.148262
-0.051613
-0.143384
-0.0419273
-0.137646
-0.0315366
-0.1311
-0.0207978
-0.123916
-0.010123
-0.1167
-0.101481
-0.0347783
-0.126771
-0.0455525
-0.132564
-0.0546593
-0.137058
-0.0620219
-0.140666
-0.0674082
-0.143489
-0.0707054
-0.145294
-0.0719073
-0.146037
-0.071134
-0.14577
-0.0684573
-0.144628
-0.0640052
-0.142623
-0.0579445
-0.13983
-0.0504323
-0.136285
-0.0416672
-0.131965
-0.0319131
-0.126861
-0.0214838
-0.121088
-0.0107364
-0.115199
-0.101235
-0.026232
-0.114059
-0.0364184
-0.119224
-0.045167
-0.123618
-0.0524448
-0.127189
-0.0581053
-0.13018
-0.0619878
-0.132401
-0.0640201
-0.133749
-0.0642089
-0.134222
-0.062635
-0.133907
-0.0593475
-0.132867
-0.0544545
-0.131139
-0.0480709
-0.128766
-0.0403198
-0.125728
-0.0313772
-0.121971
-0.0214864
-0.117543
-0.0109772
-0.112909
-0.100284
-0.0179736
-0.102182
-0.0274572
-0.107032
-0.0358252
-0.111192
-0.042927
-0.114691
-0.0487012
-0.117705
-0.0529713
-0.120182
-0.0556318
-0.12197
-0.0566334
-0.123034
-0.0560106
-0.123397
-0.0537753
-0.123165
-0.0499802
-0.12235
-0.044703
-0.120986
-0.0380144
-0.119072
-0.0300147
-0.116535
-0.0208579
-0.113374
-0.0108838
-0.109873
-0.0986776
-0.0100446
-0.0917023
-0.0188915
-0.0959327
-0.026815
-0.0998392
-0.0336671
-0.103227
-0.0394133
-0.106177
-0.0439088
-0.108767
-0.0470285
-0.110842
-0.0486879
-0.112345
-0.0488503
-0.113269
-0.047539
-0.113676
-0.0447501
-0.113621
-0.0405226
-0.11311
-0.0349027
-0.112146
-0.0279325
-0.11067
-0.0196809
-0.108666
-0.0104914
-0.106148
-0.0964721
-0.00259066
-0.0821148
-0.0107467
-0.0859794
-0.018205
-0.0895614
-0.0247931
-0.0927811
-0.030415
-0.0956564
-0.0350148
-0.098238
-0.0384405
-0.100483
-0.0405948
-0.102294
-0.0414116
-0.103646
-0.0408825
-0.104558
-0.0389896
-0.105109
-0.0357397
-0.105291
-0.0311559
-0.105105
-0.0252477
-0.104516
-0.0180319
-0.103509
-0.00979084
-0.10184
-0.0936797
0.00423995
-0.0738672
-0.00321975
-0.0771667
-0.0101485
-0.0803983
-0.016396
-0.083393
-0.0218419
-0.0861492
-0.0264309
-0.088663
-0.0300392
-0.0909717
-0.0325552
-0.0929757
-0.0338974
-0.0946337
-0.0340165
-0.0959432
-0.0329187
-0.0969383
-0.0305711
-0.0976631
-0.0269703
-0.0980984
-0.0221157
-0.0982166
-0.0159943
-0.0980255
-0.00880985
-0.097072
-0.0903012
0.0105006
-0.0665912
0.0037479
-0.0694869
-0.00264092
-0.0723287
-0.00850738
-0.0750614
-0.0137375
-0.0776464
-0.0182287
-0.0800766
-0.0219275
-0.0823484
-0.0247011
-0.0844509
-0.0264637
-0.0863046
-0.0271557
-0.0878904
-0.0267501
-0.0892196
-0.0252267
-0.0903384
-0.0225544
-0.0912481
-0.0187177
-0.0919146
-0.0136969
-0.0923585
-0.00763994
-0.0919675
-0.0863888
0.015949
-0.0606021
0.00996463
-0.0629777
0.0042096
-0.0654108
-0.00118783
-0.0678288
-0.0061189
-0.070179
-0.0104684
-0.0724665
-0.014153
-0.0746624
-0.0171019
-0.0767501
-0.0192076
-0.0786937
-0.0203981
-0.0804462
-0.0206209
-0.0820069
-0.0198574
-0.0833958
-0.0180616
-0.0846496
-0.0151979
-0.0857314
-0.0112664
-0.0866337
-0.00635493
-0.0866639
-0.082028
0.0207634
-0.055652
0.0155475
-0.0576125
0.0104446
-0.0596253
0.00556413
-0.0616964
0.00101526
-0.0637765
-0.00311051
-0.0658576
-0.00672101
-0.0679157
-0.00975168
-0.0699118
-0.0121298
-0.0718235
-0.0137597
-0.0736322
-0.0145731
-0.0753161
-0.0145158
-0.0768872
-0.0135594
-0.0783623
-0.0116425
-0.0797442
-0.00878299
-0.0809526
-0.00501994
-0.08128
-0.0773311
0.0246894
-0.0519003
0.0202918
-0.0534137
0.0159353
-0.0550292
0.0116757
-0.0567224
0.00761137
-0.0584895
0.00381487
-0.0602991
0.00036251
-0.0621345
-0.00266809
-0.0639616
-0.00520808
-0.0657531
-0.00719246
-0.0674906
-0.00853248
-0.0691806
-0.00916131
-0.0708178
-0.00902656
-0.0724097
-0.0080548
-0.0739849
-0.0062541
-0.0753868
-0.00362904
-0.0759169
-0.0723693
0.0278997
-0.0492118
0.0243269
-0.0503626
0.0207119
-0.0515833
0.0171186
-0.0529103
0.0136021
-0.0543328
0.0102291
-0.0558328
0.00704842
-0.0573778
0.00411839
-0.0589457
0.00150955
-0.0605241
-0.000706341
-0.0620988
-0.00247737
-0.0636599
-0.00373751
-0.0652194
-0.00440945
-0.0667997
-0.00439674
-0.0684526
-0.0036373
-0.0699911
-0.00220445
-0.0705854
-0.0672052
0.0302967
-0.0475602
0.0274902
-0.0483797
0.0246377
-0.0492794
0.0217488
-0.0502621
0.0188499
-0.0513342
0.0159693
-0.0524809
0.0131485
-0.0536844
0.0104345
-0.0549295
0.00787572
-0.0562071
0.00552183
-0.0575062
0.00342745
-0.0588241
0.00165187
-0.0601799
0.000257897
-0.0616021
-0.000666044
-0.063171
-0.00101907
-0.0647148
-0.000780986
-0.0653263
-0.06191
0.0319609
-0.0469403
0.029933
-0.0474627
0.0277828
-0.0480357
0.0255435
-0.0486946
0.0232341
-0.0494317
0.0208661
-0.0502256
0.0184539
-0.051062
0.0160214
-0.0519358
0.0135962
-0.0528432
0.0112117
-0.05378
0.00890681
-0.0547505
0.00672555
-0.0557804
0.00472756
-0.0569158
0.00296921
-0.0582354
0.00149984
-0.0595627
0.000549539
-0.0601732
-0.0566254
0.0330045
-0.0471906
0.0316073
-0.0474579
0.0301
-0.0477805
0.0284679
-0.0481474
0.0266995
-0.0485536
0.0247977
-0.0489927
0.0227726
-0.0494578
0.0206355
-0.0499453
0.0183975
-0.050452
0.0160724
-0.0509769
0.0136802
-0.0515315
0.0112477
-0.0521494
0.00880994
-0.0528856
0.00638239
-0.0538008
0.00397695
-0.0547162
0.00185966
-0.0551627
-0.0514041
0.0332837
-0.0484151
0.0325855
-0.0484377
0.0316795
-0.0484709
0.0305776
-0.0485366
0.0292814
-0.0486195
0.0277897
-0.0487102
0.0261052
-0.0488059
0.0242324
-0.0489047
0.022177
-0.0490049
0.0199483
-0.0491097
0.0175585
-0.0492337
0.0150185
-0.0494093
0.0123302
-0.0496839
0.00945935
-0.050082
0.00637813
-0.0504324
0.00305893
-0.050267
-0.0463763
0.0334791
-0.0503907
0.0332534
-0.0501909
0.0328322
-0.0500006
0.03218
-0.0497872
0.0312781
-0.0495522
0.0301233
-0.0493016
0.0287174
-0.0490372
0.0270624
-0.0487573
0.025162
-0.0484619
0.0230217
-0.0481563
0.0206471
-0.0478548
0.0180349
-0.0475815
0.01516
-0.0473619
0.0119487
-0.0471725
0.00832614
-0.0468412
0.00405674
-0.0457394
-0.0417534
0.0331711
-0.0533668
0.0336033
-0.0529299
0.0337092
-0.0524342
0.0334995
-0.0519101
0.0329796
-0.0513532
0.0321466
-0.0507613
0.0310001
-0.0501382
0.0295427
-0.0494852
0.0277778
-0.0488027
0.025708
-0.0480951
0.023329
-0.0473698
0.0206198
-0.0466342
0.0175289
-0.0458832
0.0139585
-0.0450472
0.00982038
-0.0439632
0.00491042
-0.0418875
-0.0376816
0.0331714
-0.057195
0.0340895
-0.0565203
0.0346866
-0.0557697
0.0349268
-0.0549423
0.0347947
-0.0540541
0.034285
-0.0531125
0.0333948
-0.0521234
0.0321214
-0.051088
0.0304627
-0.0500074
0.0284134
-0.0488822
0.0259583
-0.04771
0.0230651
-0.0464804
0.0196736
-0.0451608
0.0156937
-0.0436513
0.0110527
-0.041806
0.00561323
-0.0388168
-0.0343068
0.0330485
-0.0621819
0.0346937
-0.061251
0.0358876
-0.0601568
0.0366411
-0.0589875
0.0369515
-0.0577454
0.0368037
-0.0564255
0.036187
-0.0550373
0.0350929
-0.0535844
0.0335114
-0.0520657
0.0314288
-0.050478
0.0288238
-0.048811
0.0256622
-0.0470411
0.0218901
-0.0451157
0.0174522
-0.0429333
0.01227
-0.0403245
0.00637635
-0.0365922
-0.0315553
0.0333612
-0.0683094
0.0356404
-0.0670848
0.0374487
-0.0656649
0.0387569
-0.0641351
0.0395391
-0.0625006
0.0397696
-0.0607561
0.0394251
-0.0589134
0.0384859
-0.0569794
0.0369331
-0.0549534
0.0347482
-0.0528322
0.0319102
-0.050603
0.0283989
-0.0482423
0.0241897
-0.0456928
0.0192676
-0.0428624
0.0135668
-0.0395305
0.00714009
-0.035118
-0.0294033
0.0336567
-0.0757503
0.0367199
-0.0742318
0.0392184
-0.0724267
0.0411177
-0.0704742
0.0423867
-0.0683827
0.0429958
-0.066148
0.0429169
-0.0637832
0.0421204
-0.0612933
0.0405834
-0.058684
0.0382788
-0.0559475
0.0351837
-0.0530749
0.0312785
-0.0500453
0.0265585
-0.0468162
0.0210362
-0.0433123
0.0147133
-0.0393014
0.00769968
-0.0343125
-0.0280181
0.0339896
-0.0846228
0.0378092
-0.0827257
0.0409951
-0.0804966
0.043505
-0.0780772
0.0452961
-0.075475
0.0463191
-0.0726791
0.0465331
-0.0697108
0.0458948
-0.0665719
0.0443612
-0.0632684
0.0419046
-0.0598071
0.0385109
-0.0561925
0.0341799
-0.0524171
0.0289321
-0.0484583
0.0228064
-0.0442591
0.0158641
-0.0396088
0.00827157
-0.0341413
-0.0273332
0.0341595
-0.0949748
0.0388199
-0.0927083
0.0427536
-0.0899881
0.0459094
-0.0870274
0.0482332
-0.0838308
0.0496639
-0.08038
0.0501381
-0.0766932
0.0496115
-0.0727914
0.0480496
-0.0686895
0.0454315
-0.0644075
0.0417525
-0.0599657
0.0370271
-0.055375
0.0312916
-0.0506344
0.0246039
-0.0457075
0.0170703
-0.0404316
0.00886503
-0.0345078
-0.02725
0.0341053
-0.107017
0.0396162
-0.104238
0.0443151
-0.100962
0.0481173
-0.0973632
0.0509549
-0.0934629
0.0527544
-0.0892362
0.0534584
-0.0847174
0.0530253
-0.0799424
0.0514282
-0.0749402
0.0486573
-0.0697474
0.0447211
-0.0644018
0.0396481
-0.0589337
0.0334861
-0.0533608
0.0263048
-0.0476675
0.0182283
-0.0417455
0.00942141
-0.0353352
-0.0277013
0.0336249
-0.120612
0.0400004
-0.117361
0.0454597
-0.11344
0.0498943
-0.109092
0.0532219
-0.104361
0.0553675
-0.0992319
0.0562778
-0.093758
0.0559202
-0.0879959
0.054282
-0.0819935
0.0513696
-0.0758058
0.0472068
-0.0694873
0.041835
-0.0630848
0.0353129
-0.0566328
0.0277217
-0.0501371
0.0191863
-0.0435325
0.00986909
-0.0365959
-0.0286592
0.0325009
-0.136077
0.0397688
-0.132117
0.0459844
-0.127425
0.0510363
-0.122196
0.0548303
-0.116494
0.0572949
-0.110322
0.0583862
-0.103763
0.0580858
-0.0968961
0.0563987
-0.089793
0.0533498
-0.0825273
0.0489814
-0.0751695
0.0433517
-0.0677817
0.0365372
-0.0604153
0.0286367
-0.0530981
0.0197708
-0.045785
0.0101266
-0.0383193
-0.0301404
0.0305655
-0.153114
0.03872
-0.148487
0.0456888
-0.14289
0.0513427
-0.136631
0.0555807
-0.129798
0.0583389
-0.122433
0.059587
-0.114649
0.0593236
-0.106554
0.0575734
-0.0982434
0.0543831
-0.0898126
0.0498184
-0.0813496
0.0439631
-0.0729333
0.0369218
-0.0646349
0.0288189
-0.0565009
0.0197991
-0.0485054
0.0100921
-0.0405761
-0.0322239
0.0276194
-0.172054
0.0366847
-0.166445
0.0443978
-0.159772
0.0506384
-0.152316
0.0552999
-0.144182
0.0583287
-0.135458
0.05971
-0.126298
0.0594612
-0.11684
0.0576302
-0.107208
0.0542906
-0.0975214
0.04954
-0.0878909
0.0434999
-0.0784177
0.0363152
-0.0691956
0.0281514
-0.0602903
0.0192024
-0.0517031
0.00972745
-0.0434267
-0.0349853
0.0235289
-0.192467
0.0335019
-0.185902
0.0419638
-0.177979
0.0487827
-0.169141
0.0538517
-0.159514
0.0571304
-0.149254
0.0586216
-0.138553
0.058365
-0.127586
0.0564369
-0.116511
0.0529456
-0.105478
0.0480306
-0.0946263
0.0418606
-0.0840855
0.0346316
-0.073975
0.0265638
-0.064384
0.0179072
-0.0553423
0.00895768
-0.0468879
-0.0385338
0.0181464
-0.214653
0.0290429
-0.206748
0.0382582
-0.197382
0.0456541
-0.186959
0.0511219
-0.175634
0.0546357
-0.163641
0.0562173
-0.151219
0.0559341
-0.138585
0.0538977
-0.12594
0.0502603
-0.113471
0.0452111
-0.101355
0.0389733
-0.0897517
0.0318008
-0.0788105
0.0239768
-0.0686491
0.0158227
-0.0593344
0.00771413
-0.0509587
-0.0430082
0.0113682
-0.23802
0.0232012
-0.228826
0.033187
-0.217818
0.0411615
-0.205584
0.0470223
-0.192336
0.0507582
-0.178397
0.0524131
-0.164058
0.0520871
-0.149589
0.0499345
-0.135242
0.046158
-0.121251
0.0410042
-0.107834
0.0347592
-0.0951892
0.0277467
-0.0835021
0.0203304
-0.0729295
0.0129254
-0.0635897
0.0060055
-0.0556336
-0.0485041
0.00320159
-0.26288
0.0159907
-0.25194
0.026753
-0.239072
0.0353104
-0.22479
0.0415602
-0.209377
0.0455025
-0.193257
0.0472063
-0.176785
0.0468118
-0.1603
0.0445235
-0.144114
0.0406037
-0.128516
0.0353661
-0.113774
0.029174
-0.100134
0.0224382
-0.0878273
0.01562
-0.0770616
0.00923641
-0.0680115
0.00384897
-0.0608732
-0.0550724
-0.00642474
-0.288479
0.00737
-0.275885
0.0189462
-0.260917
0.028104
-0.244322
0.0347483
-0.226484
0.0388895
-0.207927
0.0406235
-0.189086
0.0401346
-0.170386
0.0376857
-0.152213
0.0336103
-0.134925
0.0283068
-0.118851
0.0222355
-0.104298
0.0159118
-0.0915534
0.00990087
-0.0808741
0.00481416
-0.0724823
0.00129082
-0.0666045
-0.0626993
-0.017432
-0.31508
-0.00265546
-0.300343
0.00972189
-0.28304
0.019473
-0.263868
0.0264964
-0.243328
0.0308123
-0.222061
0.0325498
-0.200605
0.0319434
-0.179486
0.0293224
-0.159181
0.0251031
-0.140132
0.019783
-0.122747
0.0139326
-0.107405
0.00817893
-0.094451
0.00319252
-0.0841863
-0.000324263
-0.076868
-0.00165725
-0.0727382
-0.0713531
-0.0297261
-0.341794
-0.01393
-0.325024
-0.000721379
-0.305142
0.00962692
-0.283096
0.0170139
-0.259554
0.0214691
-0.235279
0.0231608
-0.210943
0.0223857
-0.187192
0.0195574
-0.164619
0.0151938
-0.143765
0.0099052
-0.12513
0.00437682
-0.109168
-0.000656086
-0.0962746
-0.00442617
-0.0867869
-0.00614087
-0.0809917
-0.00498784
-0.0791571
-0.081001
-0.0430867
-0.368945
-0.0261894
-0.349662
-0.0120523
-0.326967
-0.00102055
-0.301739
0.00678186
-0.274857
0.0113946
-0.247241
0.0130308
-0.219726
0.0120607
-0.193112
0.00899229
-0.168123
0.0044579
-0.145422
-0.000806997
-0.125612
-0.00599172
-0.109222
-0.01024
-0.0966966
-0.0126714
-0.0884032
-0.0123925
-0.0846481
-0.0085375
-0.0856806
-0.0914692
-0.160374
0.0876385
0.163034
-0.157686
0.0850643
-0.154458
0.0810164
-0.151045
0.0753154
-0.147011
0.0680634
-0.142644
0.059164
-0.137584
0.0487364
-0.132094
0.0368132
-0.125855
0.0235096
-0.119088
0.0089518
-0.111514
-0.00669839
-0.103323
-0.0232288
-0.0942839
-0.0404246
-0.0845475
-0.058057
-0.0739387
-0.0758536
-0.0625483
-0.0936083
-0.0502674
-0.111027
-0.0371193
-0.127909
-0.0230939
-0.144018
-0.00813658
-0.159115
0.00766625
-0.173097
0.0244276
-0.185637
0.041952
-0.19679
0.0603323
-0.206256
0.0794016
-0.213951
0.09917
-0.219737
0.119508
-0.223528
0.140227
-0.225285
0.161346
-0.22489
0.182437
-0.222419
0.203691
-0.217771
0.224456
-0.211097
0.245057
-0.202449
0.264709
-0.19205
0.283812
-0.180076
0.301522
-0.166828
0.3183
-0.152555
0.333304
-0.137598
0.347047
-0.122266
0.358737
-0.106899
-0.0917919
-0.15191
0.0814634
0.153635
-0.149863
0.0794126
-0.147401
0.0758236
-0.144511
0.0705878
-0.141108
0.0637287
-0.137175
0.0552072
-0.132655
0.0450983
-0.127523
0.0334596
-0.121734
0.0203823
-0.115261
0.00600461
-0.108082
-0.00951225
-0.100171
-0.0259595
-0.0915003
-0.0431301
-0.0820612
-0.0607783
-0.0718109
-0.0786679
-0.0607486
-0.0965537
-0.0488362
-0.114181
-0.0360663
-0.131323
-0.0224319
-0.147745
-0.0079081
-0.163233
0.00746843
-0.177626
0.0237214
-0.190666
0.0407688
-0.202309
0.0585982
-0.212336
0.0771277
-0.220604
0.0962827
-0.226993
0.115966
-0.231409
0.13603
-0.233773
0.156362
-0.234019
0.176757
-0.232139
0.19709
-0.228125
0.217098
-0.221996
0.236613
-0.213908
0.255399
-0.204015
0.273265
-0.192536
0.28996
-0.179705
0.305304
-0.16583
0.319088
-0.151205
0.331164
-0.136173
0.341389
-0.121057
-0.106156
-0.142601
0.0730766
0.143488
-0.141314
0.0716729
-0.139544
0.0686682
-0.137269
0.0640079
-0.134424
0.0576642
-0.13099
0.0496377
-0.126928
0.0399768
-0.122217
0.0287512
-0.116833