/*--------------------------------*- C++ -*----------------------------------*\
  =========                 |
  \\      /  F ield         | OpenFOAM: The Open Source CFD Toolbox
   \\    /   O peration     | Website:  https://openfoam.org
    \\  /    A nd           | Version:  6
     \\/     M anipulation  |
\*---------------------------------------------------------------------------*/
FoamFile
{
    version     2.0;
    format      ascii;
    class       volVectorField;
    location    "4.8";
    object      U;
}
// * * * * * * * * * * * * * * * * * * * * * * * * * * * * * * * * * * * * * //

dimensions      [0 1 -1 0 0 0 0];

internalField   nonuniform List<vector> 
10000
(
(0.89439 0.447191 0)
(0.894393 0.447194 0)
(0.894395 0.447196 0)
(0.894396 0.447197 0)
(0.894398 0.447198 0)
(0.894399 0.447199 0)
(0.894399 0.447199 0)
(0.8944 0.4472 0)
(0.894399 0.447199 0)
(0.8944 0.4472 0)
(0.8944 0.4472 0)
(0.8944 0.4472 0)
(0.8944 0.4472 0)
(0.8944 0.4472 0)
(0.894401 0.4472 0)
(0.894399 0.4472 0)
(0.8944 0.4472 0)
(0.8944 0.4472 0)
(0.8944 0.4472 0)
(0.8944 0.447199 0)
(0.8944 0.447202 0)
(0.8944 0.447199 0)
(0.8944 0.4472 0)
(0.8944 0.447201 0)
(0.8944 0.4472 0)
(0.8944 0.447199 0)
(0.8944 0.447201 0)
(0.8944 0.4472 0)
(0.8944 0.4472 0)
(0.8944 0.447199 0)
(0.8944 0.4472 0)
(0.894399 0.4472 0)
(0.894399 0.447201 0)
(0.894401 0.447199 0)
(0.8944 0.4472 0)
(0.8944 0.447199 0)
(0.8944 0.4472 0)
(0.894399 0.447201 0)
(0.894398 0.447201 0)
(0.894397 0.447202 0)
(0.894395 0.447204 0)
(0.894391 0.447208 0)
(0.894386 0.447214 0)
(0.89438 0.447224 0)
(0.894373 0.447235 0)
(0.894367 0.44725 0)
(0.894365 0.447267 0)
(0.894367 0.447284 0)
(0.894372 0.447299 0)
(0.894376 0.447317 0)
(0.894374 0.447343 0)
(0.894353 0.447393 0)
(0.894305 0.447484 0)
(0.894217 0.44764 0)
(0.894083 0.447887 0)
(0.893903 0.448249 0)
(0.89368 0.448742 0)
(0.893425 0.449379 0)
(0.893154 0.450156 0)
(0.892886 0.45106 0)
(0.892641 0.452073 0)
(0.892438 0.453165 0)
(0.89229 0.454303 0)
(0.892215 0.455449 0)
(0.892224 0.456566 0)
(0.89232 0.457614 0)
(0.892504 0.458553 0)
(0.892774 0.45935 0)
(0.893115 0.459979 0)
(0.893518 0.460413 0)
(0.89397 0.460639 0)
(0.894446 0.460639 0)
(0.894926 0.460407 0)
(0.895386 0.45995 0)
(0.895802 0.459275 0)
(0.896148 0.458401 0)
(0.896405 0.457373 0)
(0.896566 0.456242 0)
(0.896629 0.45506 0)
(0.896601 0.453882 0)
(0.896495 0.452758 0)
(0.896331 0.451723 0)
(0.896127 0.450799 0)
(0.895898 0.449995 0)
(0.89566 0.449317 0)
(0.895427 0.44876 0)
(0.89521 0.448315 0)
(0.895016 0.447967 0)
(0.894849 0.447704 0)
(0.89471 0.447513 0)
(0.894602 0.447378 0)
(0.89452 0.447288 0)
(0.894462 0.447232 0)
(0.894424 0.447199 0)
(0.8944 0.447183 0)
(0.894388 0.447177 0)
(0.894383 0.447177 0)
(0.894383 0.44718 0)
(0.894384 0.447183 0)
(0.894387 0.447188 0)
(0.894388 0.447189 0)
(0.894391 0.447192 0)
(0.894394 0.447195 0)
(0.894396 0.447196 0)
(0.894397 0.447198 0)
(0.894398 0.447199 0)
(0.894399 0.447199 0)
(0.894399 0.4472 0)
(0.8944 0.4472 0)
(0.8944 0.447199 0)
(0.894399 0.4472 0)
(0.8944 0.4472 0)
(0.8944 0.4472 0)
(0.8944 0.4472 0)
(0.894401 0.4472 0)
(0.894399 0.4472 0)
(0.8944 0.4472 0)
(0.8944 0.447201 0)
(0.8944 0.447199 0)
(0.894399 0.4472 0)
(0.894401 0.447202 0)
(0.8944 0.447198 0)
(0.8944 0.4472 0)
(0.8944 0.447202 0)
(0.8944 0.447199 0)
(0.8944 0.4472 0)
(0.8944 0.4472 0)
(0.8944 0.447201 0)
(0.8944 0.4472 0)
(0.8944 0.447199 0)
(0.894401 0.4472 0)
(0.8944 0.447201 0)
(0.894399 0.4472 0)
(0.8944 0.4472 0)
(0.894401 0.4472 0)
(0.8944 0.4472 0)
(0.894399 0.4472 0)
(0.894399 0.447201 0)
(0.894398 0.447202 0)
(0.894397 0.447203 0)
(0.894394 0.447205 0)
(0.894389 0.44721 0)
(0.894382 0.447217 0)
(0.894375 0.447229 0)
(0.894365 0.447244 0)
(0.894357 0.447263 0)
(0.894353 0.447285 0)
(0.894355 0.447307 0)
(0.894358 0.447329 0)
(0.894356 0.447358 0)
(0.894337 0.447408 0)
(0.894282 0.447504 0)
(0.894172 0.447681 0)
(0.893992 0.447981 0)
(0.893734 0.448445 0)
(0.893396 0.449113 0)
(0.892995 0.450004 0)
(0.892553 0.451125 0)
(0.8921 0.452462 0)
(0.891673 0.453984 0)
(0.8913 0.455648 0)
(0.891013 0.457398 0)
(0.890835 0.459179 0)
(0.890785 0.460934 0)
(0.890878 0.462603 0)
(0.891115 0.464133 0)
(0.891491 0.46548 0)
(0.891996 0.466602 0)
(0.89261 0.467476 0)
(0.893309 0.468077 0)
(0.894069 0.46839 0)
(0.894868 0.468405 0)
(0.895673 0.468101 0)
(0.896443 0.467457 0)
(0.897135 0.466469 0)
(0.897703 0.465152 0)
(0.898114 0.463545 0)
(0.898341 0.461719 0)
(0.898381 0.459779 0)
(0.898256 0.457831 0)
(0.898 0.455967 0)
(0.897652 0.454259 0)
(0.897247 0.452751 0)
(0.89682 0.451464 0)
(0.896401 0.450397 0)
(0.896007 0.449535 0)
(0.895652 0.448857 0)
(0.895342 0.448337 0)
(0.895083 0.447949 0)
(0.894873 0.447669 0)
(0.89471 0.447473 0)
(0.894588 0.447343 0)
(0.894502 0.447261 0)
(0.894445 0.447212 0)
(0.89441 0.447187 0)
(0.894391 0.447176 0)
(0.894382 0.447174 0)
(0.89438 0.447176 0)
(0.894381 0.44718 0)
(0.894384 0.447185 0)
(0.894385 0.447186 0)
(0.894389 0.44719 0)
(0.894392 0.447193 0)
(0.894394 0.447196 0)
(0.894396 0.447197 0)
(0.894398 0.447199 0)
(0.894398 0.447199 0)
(0.894399 0.447199 0)
(0.894399 0.4472 0)
(0.8944 0.447199 0)
(0.8944 0.447201 0)
(0.8944 0.447198 0)
(0.894401 0.447202 0)
(0.894399 0.447198 0)
(0.894401 0.447201 0)
(0.8944 0.447201 0)
(0.894399 0.447198 0)
(0.894402 0.447201 0)
(0.8944 0.447202 0)
(0.894398 0.447196 0)
(0.894402 0.447203 0)
(0.8944 0.447201 0)
(0.894398 0.447198 0)
(0.894401 0.447201 0)
(0.894401 0.447201 0)
(0.894399 0.4472 0)
(0.8944 0.447198 0)
(0.894401 0.447202 0)
(0.8944 0.447201 0)
(0.894399 0.447199 0)
(0.8944 0.4472 0)
(0.8944 0.447201 0)
(0.8944 0.447201 0)
(0.8944 0.447199 0)
(0.894401 0.4472 0)
(0.8944 0.4472 0)
(0.894399 0.447201 0)
(0.894399 0.447201 0)
(0.894398 0.447202 0)
(0.894396 0.447203 0)
(0.894393 0.447206 0)
(0.894387 0.447211 0)
(0.894379 0.44722 0)
(0.894368 0.447234 0)
(0.894356 0.447255 0)
(0.894345 0.447279 0)
(0.89434 0.447306 0)
(0.89434 0.447334 0)
(0.894339 0.447365 0)
(0.894324 0.447411 0)
(0.894271 0.4475 0)
(0.894153 0.447675 0)
(0.893937 0.447996 0)
(0.8936 0.448533 0)
(0.893135 0.44935 0)
(0.892551 0.450493 0)
(0.891881 0.451981 0)
(0.891174 0.4538 0)
(0.890482 0.4559 0)
(0.889859 0.458216 0)
(0.889356 0.460662 0)
(0.889009 0.463149 0)
(0.888847 0.465588 0)
(0.888893 0.467902 0)
(0.889152 0.470021 0)
(0.889617 0.471895 0)
(0.890276 0.473488 0)
(0.891094 0.474786 0)
(0.892041 0.475789 0)
(0.89309 0.476502 0)
(0.894212 0.476935 0)
(0.895391 0.477076 0)
(0.896597 0.4769 0)
(0.897791 0.476351 0)
(0.898914 0.475353 0)
(0.899883 0.473844 0)
(0.900606 0.471812 0)
(0.901013 0.469317 0)
(0.901085 0.4665 0)
(0.900849 0.463548 0)
(0.900364 0.460654 0)
(0.899716 0.457975 0)
(0.898985 0.45561 0)
(0.898238 0.4536 0)
(0.897522 0.451952 0)
(0.89687 0.45064 0)
(0.896299 0.449625 0)
(0.895817 0.448857 0)
(0.895421 0.448293 0)
(0.895106 0.447888 0)
(0.894865 0.447608 0)
(0.894687 0.447421 0)
(0.894561 0.447303 0)
(0.894478 0.447233 0)
(0.894426 0.447195 0)
(0.894396 0.447177 0)
(0.894382 0.447172 0)
(0.894377 0.447173 0)
(0.894378 0.447177 0)
(0.894381 0.447182 0)
(0.894381 0.447183 0)
(0.894386 0.447188 0)
(0.89439 0.447191 0)
(0.894393 0.447194 0)
(0.894395 0.447196 0)
(0.894397 0.447197 0)
(0.894398 0.447199 0)
(0.894399 0.447198 0)
(0.894399 0.447201 0)
(0.894399 0.447197 0)
(0.8944 0.447203 0)
(0.894399 0.447197 0)
(0.894401 0.4472 0)
(0.894399 0.447203 0)
(0.894398 0.447195 0)
(0.894404 0.447201 0)
(0.894396 0.447205 0)
(0.894398 0.447193 0)
(0.894407 0.447201 0)
(0.894394 0.447205 0)
(0.894399 0.447194 0)
(0.894406 0.447201 0)
(0.894396 0.447204 0)
(0.894398 0.447197 0)
(0.894403 0.4472 0)
(0.8944 0.447202 0)
(0.894398 0.447198 0)
(0.8944 0.4472 0)
(0.894401 0.447202 0)
(0.8944 0.447199 0)
(0.8944 0.447199 0)
(0.8944 0.447201 0)
(0.8944 0.447201 0)
(0.8944 0.447199 0)
(0.8944 0.447199 0)
(0.894401 0.4472 0)
(0.894399 0.447201 0)
(0.894398 0.4472 0)
(0.894398 0.447201 0)
(0.894396 0.447203 0)
(0.894392 0.447206 0)
(0.894384 0.447212 0)
(0.894374 0.447223 0)
(0.89436 0.447241 0)
(0.894344 0.447266 0)
(0.894331 0.447297 0)
(0.894323 0.44733 0)
(0.894321 0.447365 0)
(0.894311 0.447407 0)
(0.894271 0.447481 0)
(0.894161 0.447632 0)
(0.893933 0.447936 0)
(0.893541 0.448489 0)
(0.892954 0.449394 0)
(0.892173 0.45074 0)
(0.891235 0.452569 0)
(0.890205 0.454865 0)
(0.889169 0.457561 0)
(0.888216 0.460542 0)
(0.88742 0.463676 0)
(0.886844 0.466821 0)
(0.886531 0.469844 0)
(0.886504 0.472628 0)
(0.886768 0.47509 0)
(0.887312 0.477175 0)
(0.888106 0.478876 0)
(0.889103 0.480209 0)
(0.890245 0.481234 0)
(0.891497 0.482014 0)
(0.892826 0.482622 0)
(0.894217 0.483118 0)
(0.895676 0.483537 0)
(0.897226 0.483855 0)
(0.898876 0.483966 0)
(0.900566 0.483688 0)
(0.902174 0.482799 0)
(0.903529 0.481113 0)
(0.904448 0.478546 0)
(0.904804 0.475178 0)
(0.904574 0.471272 0)
(0.90386 0.467182 0)
(0.902817 0.463242 0)
(0.901608 0.459691 0)
(0.900368 0.456657 0)
(0.899193 0.454171 0)
(0.898141 0.452207 0)
(0.897241 0.450703 0)
(0.896497 0.449582 0)
(0.8959 0.448769 0)
(0.895435 0.448192 0)
(0.895083 0.447796 0)
(0.894826 0.447532 0)
(0.894646 0.447364 0)
(0.894525 0.447263 0)
(0.89445 0.447206 0)
(0.894406 0.447179 0)
(0.894384 0.447169 0)
(0.894376 0.447169 0)
(0.894374 0.447172 0)
(0.894377 0.447178 0)
(0.894377 0.447179 0)
(0.894383 0.447185 0)
(0.894387 0.447189 0)
(0.894391 0.447193 0)
(0.894393 0.447195 0)
(0.894396 0.447197 0)
(0.894397 0.447198 0)
(0.894398 0.447198 0)
(0.8944 0.4472 0)
(0.894398 0.4472 0)
(0.894401 0.447198 0)
(0.8944 0.447203 0)
(0.894397 0.447197 0)
(0.894404 0.447197 0)
(0.894397 0.44721 0)
(0.894398 0.447188 0)
(0.894408 0.447203 0)
(0.89439 0.447211 0)
(0.894404 0.447183 0)
(0.894406 0.44721 0)
(0.89439 0.447205 0)
(0.894406 0.447188 0)
(0.894403 0.447206 0)
(0.894393 0.447204 0)
(0.894402 0.447193 0)
(0.894403 0.447203 0)
(0.894397 0.447201 0)
(0.894399 0.447198 0)
(0.894402 0.447201 0)
(0.894401 0.4472 0)
(0.894399 0.447199 0)
(0.8944 0.447201 0)
(0.894401 0.447201 0)
(0.8944 0.447199 0)
(0.894399 0.447199 0)
(0.8944 0.4472 0)
(0.8944 0.447202 0)
(0.894398 0.4472 0)
(0.894397 0.447201 0)
(0.894396 0.447204 0)
(0.89439 0.447208 0)
(0.894382 0.447215 0)
(0.894368 0.447228 0)
(0.894351 0.447249 0)
(0.894331 0.44728 0)
(0.894314 0.447317 0)
(0.894304 0.447357 0)
(0.894297 0.447399 0)
(0.894272 0.447458 0)
(0.894187 0.447574 0)
(0.89398 0.447824 0)
(0.893576 0.448327 0)
(0.892909 0.449231 0)
(0.89195 0.45068 0)
(0.890727 0.452765 0)
(0.889327 0.455483 0)
(0.887878 0.458732 0)
(0.88652 0.462335 0)
(0.885376 0.466071 0)
(0.884536 0.469725 0)
(0.88406 0.473094 0)
(0.883976 0.47601 0)
(0.884282 0.478358 0)
(0.884945 0.480087 0)
(0.885906 0.481214 0)
(0.887085 0.481823 0)
(0.888389 0.482051 0)
(0.889745 0.482073 0)
(0.89111 0.48205 0)
(0.892456 0.482153 0)
(0.893809 0.482507 0)
(0.895231 0.483229 0)
(0.896829 0.484355 0)
(0.898711 0.485776 0)
(0.900909 0.487217 0)
(0.90333 0.488251 0)
(0.905724 0.488391 0)
(0.90774 0.487228 0)
(0.909002 0.484554 0)
(0.909278 0.480505 0)
(0.908596 0.475544 0)
(0.907192 0.470296 0)
(0.905389 0.465311 0)
(0.903471 0.460931 0)
(0.901634 0.457301 0)
(0.899993 0.454423 0)
(0.898602 0.452226 0)
(0.897469 0.450601 0)
(0.896578 0.449433 0)
(0.895896 0.448616 0)
(0.895389 0.448059 0)
(0.895023 0.44769 0)
(0.894767 0.447454 0)
(0.894595 0.44731 0)
(0.894487 0.447228 0)
(0.894423 0.447186 0)
(0.894389 0.447168 0)
(0.894374 0.447164 0)
(0.894371 0.447168 0)
(0.894373 0.447173 0)
(0.894373 0.447175 0)
(0.894379 0.447181 0)
(0.894384 0.447187 0)
(0.894389 0.44719 0)
(0.894392 0.447194 0)
(0.894395 0.447195 0)
(0.894397 0.447197 0)
(0.894396 0.447199 0)
(0.8944 0.447198 0)
(0.894399 0.447199 0)
(0.894398 0.447204 0)
(0.894401 0.44719 0)
(0.894402 0.447213 0)
(0.894391 0.447191 0)
(0.894414 0.447198 0)
(0.89439 0.447213 0)
(0.894398 0.447183 0)
(0.894413 0.447211 0)
(0.894384 0.447201 0)
(0.894409 0.447188 0)
(0.894402 0.447214 0)
(0.894391 0.447194 0)
(0.894408 0.447193 0)
(0.894399 0.447211 0)
(0.894396 0.447196 0)
(0.894404 0.447196 0)
(0.894401 0.447205 0)
(0.894396 0.447199 0)
(0.894401 0.447199 0)
(0.894402 0.447201 0)
(0.894399 0.4472 0)
(0.894398 0.4472 0)
(0.8944 0.447201 0)
(0.894402 0.4472 0)
(0.894399 0.447199 0)
(0.894399 0.4472 0)
(0.8944 0.447202 0)
(0.894399 0.447201 0)
(0.894397 0.447201 0)
(0.894395 0.447203 0)
(0.894389 0.447209 0)
(0.894379 0.447216 0)
(0.894362 0.447232 0)
(0.89434 0.447258 0)
(0.894315 0.447295 0)
(0.894295 0.447339 0)
(0.894281 0.447386 0)
(0.894266 0.447437 0)
(0.894214 0.447519 0)
(0.894056 0.447699 0)
(0.893694 0.448098 0)
(0.893019 0.4489 0)
(0.891949 0.450316 0)
(0.890474 0.452514 0)
(0.888689 0.455537 0)
(0.886776 0.459257 0)
(0.88495 0.463403 0)
(0.88341 0.467633 0)
(0.882295 0.471608 0)
(0.881683 0.475037 0)
(0.881602 0.477696 0)
(0.882039 0.479422 0)
(0.882928 0.480158 0)
(0.884167 0.479951 0)
(0.885617 0.478971 0)
(0.887126 0.47745 0)
(0.888554 0.475681 0)
(0.889836 0.473964 0)
(0.890939 0.472583 0)
(0.891892 0.471754 0)
(0.892753 0.471637 0)
(0.893624 0.472429 0)
(0.894719 0.474292 0)
(0.896308 0.477278 0)
(0.898626 0.481129 0)
(0.901717 0.485255 0)
(0.905338 0.488865 0)
(0.909019 0.491125 0)
(0.912092 0.491324 0)
(0.913904 0.489111 0)
(0.914099 0.484692 0)
(0.912806 0.478842 0)
(0.91052 0.47255 0)
(0.907804 0.466641 0)
(0.905091 0.461575 0)
(0.902634 0.457496 0)
(0.900547 0.454358 0)
(0.898855 0.452033 0)
(0.897537 0.450367 0)
(0.896542 0.449208 0)
(0.895813 0.448424 0)
(0.895294 0.447909 0)
(0.894934 0.44758 0)
(0.894694 0.447379 0)
(0.894541 0.447262 0)
(0.894449 0.4472 0)
(0.894399 0.447171 0)
(0.894375 0.447161 0)
(0.894367 0.447162 0)
(0.894368 0.447168 0)
(0.894368 0.44717 0)
(0.894374 0.447176 0)
(0.89438 0.447184 0)
(0.894386 0.447187 0)
(0.894389 0.447193 0)
(0.894393 0.447193 0)
(0.894396 0.447199 0)
(0.894395 0.447195 0)
(0.894402 0.447203 0)
(0.894392 0.447195 0)
(0.89441 0.4472 0)
(0.894387 0.44721 0)
(0.89441 0.447176 0)
(0.8944 0.447228 0)
(0.894384 0.447184 0)
(0.894428 0.447193 0)
(0.894371 0.447225 0)
(0.894414 0.447174 0)
(0.894409 0.447214 0)
(0.894377 0.447199 0)
(0.894419 0.447192 0)
(0.894396 0.447212 0)
(0.894391 0.44719 0)
(0.89441 0.447202 0)
(0.894397 0.447207 0)
(0.894396 0.447191 0)
(0.894405 0.447202 0)
(0.894399 0.447203 0)
(0.894397 0.447197 0)
(0.894403 0.4472 0)
(0.894401 0.447201 0)
(0.894398 0.4472 0)
(0.894399 0.4472 0)
(0.894402 0.4472 0)
(0.8944 0.447199 0)
(0.894398 0.4472 0)
(0.8944 0.447201 0)
(0.8944 0.447201 0)
(0.894397 0.447201 0)
(0.894394 0.447204 0)
(0.894387 0.447209 0)
(0.894375 0.447219 0)
(0.894355 0.447238 0)
(0.894328 0.447269 0)
(0.894297 0.447311 0)
(0.894272 0.447362 0)
(0.894255 0.447415 0)
(0.894227 0.447477 0)
(0.89413 0.447593 0)
(0.893856 0.447868 0)
(0.893259 0.448489 0)
(0.892188 0.44972 0)
(0.890558 0.45184 0)
(0.88843 0.454988 0)
(0.886027 0.459054 0)
(0.883673 0.463664 0)
(0.881685 0.468305 0)
(0.880285 0.472464 0)
(0.879578 0.475735 0)
(0.879584 0.477827 0)
(0.880267 0.478555 0)
(0.881528 0.477838 0)
(0.883205 0.475765 0)
(0.885072 0.472569 0)
(0.886891 0.468637 0)
(0.888463 0.464391 0)
(0.889641 0.460247 0)
(0.89037 0.456559 0)
(0.890726 0.453696 0)
(0.890861 0.451824 0)
(0.89083 0.451022 0)
(0.890717 0.451436 0)
(0.890736 0.453371 0)
(0.891313 0.457232 0)
(0.893025 0.463122 0)
(0.89622 0.470534 0)
(0.900796 0.478441 0)
(0.906239 0.485569 0)
(0.911733 0.490759 0)
(0.916253 0.492979 0)
(0.918776 0.491698 0)
(0.918839 0.487245 0)
(0.916786 0.480763 0)
(0.913473 0.473677 0)
(0.909775 0.467096 0)
(0.906276 0.461582 0)
(0.903256 0.457256 0)
(0.9008 0.454017 0)
(0.898888 0.451681 0)
(0.897453 0.45005 0)
(0.89641 0.448947 0)
(0.895673 0.448223 0)
(0.895168 0.447762 0)
(0.894833 0.44748 0)
(0.894619 0.447315 0)
(0.89449 0.447224 0)
(0.894416 0.447179 0)
(0.89438 0.447161 0)
(0.894366 0.447158 0)
(0.894363 0.447162 0)
(0.894363 0.447164 0)
(0.894367 0.447172 0)
(0.894376 0.44718 0)
(0.894381 0.447185 0)
(0.894388 0.44719 0)
(0.89439 0.447195 0)
(0.894397 0.44719 0)
(0.894392 0.447209 0)
(0.894403 0.447177 0)
(0.894398 0.447231 0)
(0.894387 0.447163 0)
(0.894431 0.447227 0)
(0.894356 0.447198 0)
(0.894439 0.44717 0)
(0.894382 0.44725 0)
(0.894392 0.447151 0)
(0.894428 0.447226 0)
(0.894362 0.447205 0)
(0.894433 0.447172 0)
(0.894386 0.447232 0)
(0.894389 0.447181 0)
(0.894425 0.447201 0)
(0.894383 0.44721 0)
(0.8944 0.447188 0)
(0.894411 0.447209 0)
(0.894393 0.447198 0)
(0.894399 0.447195 0)
(0.894405 0.447206 0)
(0.894396 0.447198 0)
(0.894399 0.447197 0)
(0.894403 0.447202 0)
(0.894398 0.447201 0)
(0.894398 0.447199 0)
(0.894402 0.447199 0)
(0.894401 0.4472 0)
(0.894398 0.447201 0)
(0.894398 0.4472 0)
(0.8944 0.447201 0)
(0.894398 0.447202 0)
(0.894393 0.447204 0)
(0.894385 0.44721 0)
(0.894371 0.447222 0)
(0.894346 0.447244 0)
(0.894313 0.44728 0)
(0.894276 0.447329 0)
(0.894248 0.447386 0)
(0.894226 0.447445 0)
(0.894176 0.447522 0)
(0.894007 0.447687 0)
(0.893559 0.4481 0)
(0.892618 0.449036 0)
(0.890995 0.450864 0)
(0.888646 0.45389 0)
(0.885783 0.458115 0)
(0.882847 0.463106 0)
(0.880327 0.468136 0)
(0.878593 0.472458 0)
(0.877812 0.475496 0)
(0.877978 0.476901 0)
(0.879003 0.476495 0)
(0.880758 0.474209 0)
(0.883016 0.470133 0)
(0.885453 0.464593 0)
(0.887698 0.458119 0)
(0.889429 0.451325 0)
(0.890484 0.444814 0)
(0.890828 0.438995 0)
(0.890451 0.434115 0)
(0.889601 0.430437 0)
(0.888633 0.428046 0)
(0.887657 0.426832 0)
(0.886597 0.426572 0)
(0.885402 0.427531 0)
(0.884483 0.430486 0)
(0.884704 0.436375 0)
(0.886952 0.445446 0)
(0.891705 0.456831 0)
(0.89849 0.468793 0)
(0.906334 0.479651 0)
(0.914019 0.48789 0)
(0.920092 0.492268 0)
(0.92325 0.492105 0)
(0.923025 0.487865 0)
(0.92008 0.481074 0)
(0.915708 0.473553 0)
(0.911082 0.466649 0)
(0.906906 0.460981 0)
(0.903453 0.456635 0)
(0.90075 0.453456 0)
(0.898719 0.451214 0)
(0.897244 0.449685 0)
(0.896206 0.448674 0)
(0.895498 0.448028 0)
(0.895029 0.447629 0)
(0.894731 0.447395 0)
(0.894549 0.447263 0)
(0.894445 0.447195 0)
(0.89439 0.447165 0)
(0.894366 0.447156 0)
(0.894359 0.447157 0)
(0.894357 0.447159 0)
(0.894362 0.447167 0)
(0.894371 0.447174 0)
(0.894376 0.447183 0)
(0.894384 0.447184 0)
(0.894392 0.447197 0)
(0.894383 0.447185 0)
(0.894415 0.447206 0)
(0.894365 0.447195 0)
(0.894438 0.44718 0)
(0.894363 0.44725 0)
(0.894411 0.447125 0)
(0.894431 0.447268 0)
(0.894325 0.447172 0)
(0.894492 0.447179 0)
(0.894329 0.447251 0)
(0.894427 0.447144 0)
(0.894412 0.447247 0)
(0.894368 0.447169 0)
(0.894436 0.447208 0)
(0.894372 0.447218 0)
(0.894411 0.44717 0)
(0.894409 0.447221 0)
(0.894381 0.447195 0)
(0.894411 0.447195 0)
(0.894403 0.447207 0)
(0.89439 0.447194 0)
(0.894405 0.447203 0)
(0.894402 0.447202 0)
(0.894396 0.447196 0)
(0.894402 0.447201 0)
(0.894401 0.447202 0)
(0.894398 0.447199 0)
(0.894401 0.447199 0)
(0.894402 0.4472 0)
(0.894399 0.447201 0)
(0.894398 0.4472 0)
(0.894399 0.4472 0)
(0.894398 0.447203 0)
(0.894393 0.447205 0)
(0.894382 0.44721 0)
(0.894365 0.447224 0)
(0.894336 0.447251 0)
(0.894297 0.447292 0)
(0.894254 0.447347 0)
(0.89422 0.44741 0)
(0.89419 0.447476 0)
(0.894107 0.447572 0)
(0.89383 0.447808 0)
(0.893127 0.448416 0)
(0.891704 0.449791 0)
(0.889355 0.452406 0)
(0.886166 0.456503 0)
(0.882624 0.461741 0)
(0.879451 0.467195 0)
(0.877261 0.471784 0)
(0.876345 0.474697 0)
(0.876691 0.475512 0)
(0.87812 0.474097 0)
(0.880419 0.470447 0)
(0.883329 0.464658 0)
(0.886427 0.457097 0)
(0.889158 0.448448 0)
(0.891027 0.439616 0)
(0.891744 0.431392 0)
(0.891322 0.424424 0)
(0.890066 0.418936 0)
(0.888187 0.414787 0)
(0.885949 0.411792 0)
(0.883849 0.410009 0)
(0.882343 0.409213 0)
(0.881094 0.408691 0)
(0.879472 0.408232 0)
(0.877427 0.408368 0)
(0.875735 0.410853 0)
(0.875871 0.417618 0)
(0.879312 0.429087 0)
(0.886338 0.443788 0)
(0.895944 0.459138 0)
(0.906465 0.472963 0)
(0.916274 0.483651 0)
(0.923626 0.489735 0)
(0.927029 0.490495 0)
(0.926222 0.486561 0)
(0.922303 0.479775 0)
(0.916963 0.472233 0)
(0.911598 0.465396 0)
(0.906949 0.459879 0)
(0.90324 0.455727 0)
(0.900433 0.452747 0)
(0.898388 0.450685 0)
(0.896947 0.449305 0)
(0.895962 0.44841 0)
(0.895309 0.447851 0)
(0.894892 0.447516 0)
(0.894637 0.447325 0)
(0.894489 0.447224 0)
(0.894408 0.447175 0)
(0.894371 0.447157 0)
(0.894357 0.447154 0)
(0.894352 0.447154 0)
(0.894357 0.447163 0)
(0.894363 0.44717 0)
(0.894375 0.447174 0)
(0.894375 0.447195 0)
(0.894394 0.447168 0)
(0.894381 0.44723 0)
(0.894397 0.44714 0)
(0.894414 0.447263 0)
(0.894341 0.447139 0)
(0.894498 0.447228 0)
(0.894277 0.447226 0)
(0.894503 0.447109 0)
(0.89435 0.447334 0)
(0.89438 0.447073 0)
(0.894481 0.447267 0)
(0.894292 0.447205 0)
(0.89449 0.447151 0)
(0.894359 0.447258 0)
(0.894395 0.447149 0)
(0.894428 0.447242 0)
(0.894371 0.447176 0)
(0.894421 0.447196 0)
(0.894393 0.44722 0)
(0.894392 0.447184 0)
(0.894415 0.447205 0)
(0.894393 0.447201 0)
(0.894396 0.447198 0)
(0.894407 0.447204 0)
(0.894398 0.447197 0)
(0.894397 0.447199 0)
(0.894402 0.447203 0)
(0.894399 0.447199 0)
(0.894399 0.447198 0)
(0.894401 0.4472 0)
(0.8944 0.447202 0)
(0.894398 0.447199 0)
(0.894399 0.447199 0)
(0.894398 0.447203 0)
(0.894392 0.447207 0)
(0.89438 0.447211 0)
(0.894358 0.447227 0)
(0.894325 0.447258 0)
(0.894278 0.447305 0)
(0.89423 0.447366 0)
(0.894191 0.447433 0)
(0.894149 0.447505 0)
(0.894013 0.447629 0)
(0.893579 0.447966 0)
(0.892515 0.448846 0)
(0.890444 0.450811 0)
(0.887205 0.454404 0)
(0.883159 0.459608 0)
(0.879208 0.465487 0)
(0.876335 0.470563 0)
(0.875106 0.473626 0)
(0.87555 0.474123 0)
(0.877372 0.472008 0)
(0.88022 0.46742 0)
(0.883766 0.460486 0)
(0.887531 0.451516 0)
(0.890784 0.44131 0)
(0.892695 0.431044 0)
(0.892768 0.421986 0)
(0.891006 0.414962 0)
(0.887835 0.410351 0)
(0.88414 0.407987 0)
(0.880676 0.407089 0)
(0.877475 0.406652 0)
(0.874816 0.406604 0)
(0.873516 0.406911 0)
(0.873279 0.407021 0)
(0.8729 0.406086 0)
(0.871276 0.403755 0)
(0.868576 0.400967 0)
(0.866545 0.40078 0)
(0.867147 0.4062 0)
(0.872255 0.418324 0)
(0.881964 0.434673 0)
(0.894469 0.451865 0)
(0.907479 0.467311 0)
(0.918934 0.479234 0)
(0.92684 0.48615 0)
(0.929862 0.487353 0)
(0.928132 0.483665 0)
(0.923227 0.477141 0)
(0.917138 0.469957 0)
(0.91132 0.46354 0)
(0.906455 0.458436 0)
(0.902689 0.454647 0)
(0.899916 0.451965 0)
(0.897951 0.450139 0)
(0.896601 0.448935 0)
(0.895703 0.448168 0)
(0.895124 0.447697 0)
(0.894766 0.447422 0)
(0.894556 0.447271 0)
(0.894439 0.447195 0)
(0.894381 0.447162 0)
(0.894357 0.447153 0)
(0.894349 0.44715 0)
(0.89435 0.44716 0)
(0.894361 0.44716 0)
(0.894358 0.44718 0)
(0.894392 0.447172 0)
(0.894354 0.447199 0)
(0.894429 0.447169 0)
(0.894338 0.447237 0)
(0.894448 0.447115 0)
(0.894371 0.44733 0)
(0.89436 0.447034 0)
(0.894524 0.447342 0)
(0.894201 0.44713 0)
(0.894619 0.447177 0)
(0.894221 0.447302 0)
(0.894504 0.447047 0)
(0.894374 0.447364 0)
(0.894359 0.447076 0)
(0.894483 0.44726 0)
(0.894315 0.447193 0)
(0.894451 0.447176 0)
(0.894393 0.447235 0)
(0.89438 0.447168 0)
(0.894423 0.447226 0)
(0.894384 0.447187 0)
(0.894405 0.447193 0)
(0.894406 0.447213 0)
(0.894389 0.447196 0)
(0.894404 0.447198 0)
(0.894405 0.447201 0)
(0.894395 0.447199 0)
(0.8944 0.447202 0)
(0.894403 0.4472 0)
(0.894399 0.447197 0)
(0.8944 0.4472 0)
(0.8944 0.447203 0)
(0.894399 0.4472 0)
(0.894398 0.447199 0)
(0.894396 0.447203 0)
(0.894391 0.447207 0)
(0.894378 0.447213 0)
(0.894352 0.44723 0)
(0.894311 0.447264 0)
(0.894257 0.447318 0)
(0.894203 0.447385 0)
(0.894159 0.447456 0)
(0.894098 0.447534 0)
(0.893884 0.447699 0)
(0.893227 0.448174 0)
(0.891668 0.449422 0)
(0.888768 0.452155 0)
(0.884534 0.456862 0)
(0.879801 0.462967 0)
(0.875958 0.468752 0)
(0.874079 0.472389 0)
(0.874391 0.472987 0)
(0.876507 0.470568 0)
(0.879859 0.465509 0)
(0.88397 0.458086 0)
(0.888372 0.448451 0)
(0.89218 0.437273 0)
(0.894177 0.426021 0)
(0.893345 0.416471 0)
(0.889507 0.410027 0)
(0.88335 0.407212 0)
(0.876067 0.407694 0)
(0.869213 0.410801 0)
(0.864331 0.415067 0)
(0.861355 0.418533 0)
(0.859735 0.420563 0)
(0.859764 0.421498 0)
(0.861766 0.421892 0)
(0.864408 0.421049 0)
(0.865444 0.418814 0)
(0.863932 0.414142 0)
(0.861224 0.40759 0)
(0.859415 0.403026 0)
(0.861192 0.405169 0)
(0.868195 0.415541 0)
(0.880335 0.431414 0)
(0.895219 0.44838 0)
(0.909904 0.463712 0)
(0.922041 0.47549 0)
(0.92959 0.482203 0)
(0.931536 0.48328 0)
(0.928621 0.479722 0)
(0.922848 0.47363 0)
(0.916306 0.467085 0)
(0.910354 0.461339 0)
(0.905536 0.456824 0)
(0.901896 0.453506 0)
(0.899276 0.45118 0)
(0.89746 0.449614 0)
(0.896242 0.448595 0)
(0.89545 0.447955 0)
(0.894954 0.447569 0)
(0.894657 0.447348 0)
(0.894489 0.447231 0)
(0.894401 0.447175 0)
(0.894363 0.447156 0)
(0.894346 0.447152 0)
(0.894351 0.447155 0)
(0.894346 0.447153 0)
(0.894365 0.447185 0)
(0.894364 0.447146 0)
(0.894391 0.447234 0)
(0.894348 0.44712 0)
(0.894469 0.44726 0)
(0.894261 0.447162 0)
(0.894578 0.447168 0)
(0.894187 0.447304 0)
(0.894591 0.447003 0)
(0.894291 0.447468 0)
(0.894366 0.446927 0)
(0.894573 0.447395 0)
(0.89416 0.447114 0)
(0.894613 0.447193 0)
(0.894259 0.447272 0)
(0.894472 0.447078 0)
(0.894389 0.447332 0)
(0.894359 0.447112 0)
(0.894461 0.447242 0)
(0.894355 0.447175 0)
(0.894417 0.447203 0)
(0.894408 0.447223 0)
(0.89438 0.447179 0)
(0.894415 0.447207 0)
(0.894397 0.4472 0)
(0.894393 0.447197 0)
(0.894408 0.447203 0)
(0.894398 0.447199 0)
(0.894395 0.447199 0)
(0.894404 0.447201 0)
(0.894402 0.447199 0)
(0.894397 0.447199 0)
(0.894398 0.447202 0)
(0.894402 0.447201 0)
(0.8944 0.4472 0)
(0.894394 0.447203 0)
(0.894388 0.447207 0)
(0.894375 0.447215 0)
(0.894346 0.447235 0)
(0.894296 0.447271 0)
(0.894234 0.447331 0)
(0.894174 0.447404 0)
(0.894125 0.447477 0)
(0.894035 0.447563 0)
(0.893709 0.447785 0)
(0.892741 0.448447 0)
(0.89053 0.450184 0)
(0.886628 0.453867 0)
(0.881422 0.459679 0)
(0.876414 0.46615 0)
(0.87339 0.470848 0)
(0.873156 0.472113 0)
(0.875327 0.469842 0)
(0.87908 0.464725 0)
(0.883708 0.457317 0)
(0.888647 0.447767 0)
(0.893096 0.436241 0)
(0.89547 0.424147 0)
(0.89392 0.41388 0)
(0.887584 0.407648 0)
(0.87721 0.406439 0)
(0.864641 0.409883 0)
(0.852053 0.416717 0)
(0.841641 0.425882 0)
(0.835604 0.435504 0)
(0.834256 0.443087 0)
(0.835948 0.446902 0)
(0.839341 0.447349 0)
(0.845077 0.445631 0)
(0.851949 0.442492 0)
(0.857583 0.439263 0)
(0.859922 0.436586 0)
(0.8586 0.431582 0)
(0.856573 0.423532 0)
(0.85639 0.415389 0)
(0.860019 0.413567 0)
(0.868849 0.420722 0)
(0.882671 0.433897 0)
(0.898644 0.448804 0)
(0.913766 0.462395 0)
(0.925341 0.472718 0)
(0.931532 0.478332 0)
(0.931909 0.47882 0)
(0.92776 0.475289 0)
(0.92135 0.469744 0)
(0.914686 0.463991 0)
(0.908893 0.459042 0)
(0.904335 0.455195 0)
(0.900964 0.45239 0)
(0.898582 0.450439 0)
(0.896962 0.449135 0)
(0.895896 0.448295 0)
(0.89522 0.447774 0)
(0.894805 0.447464 0)
(0.894567 0.447291 0)
(0.894436 0.447203 0)
(0.894377 0.447163 0)
(0.894351 0.447167 0)
(0.894354 0.447135 0)
(0.894325 0.447185 0)
(0.894387 0.447117 0)
(0.894321 0.447247 0)
(0.894417 0.447072 0)
(0.894347 0.447328 0)
(0.894393 0.447012 0)
(0.894452 0.447425 0)
(0.894212 0.446919 0)
(0.894719 0.447445 0)
(0.893982 0.44707 0)
(0.894829 0.44717 0)
(0.894006 0.447384 0)
(0.894721 0.446882 0)
(0.894214 0.447573 0)
(0.894407 0.446865 0)
(0.894533 0.447456 0)
(0.894223 0.447038 0)
(0.894538 0.447278 0)
(0.894321 0.44718 0)
(0.894442 0.44716 0)
(0.894396 0.447275 0)
(0.894359 0.447158 0)
(0.894446 0.44721 0)
(0.894384 0.447181 0)
(0.894395 0.447212 0)
(0.894411 0.447214 0)
(0.894388 0.447184 0)
(0.894405 0.447198 0)
(0.894406 0.447206 0)
(0.894391 0.4472 0)
(0.894401 0.447197 0)
(0.894406 0.447201 0)
(0.894399 0.447201 0)
(0.894395 0.4472 0)
(0.8944 0.447199 0)
(0.894401 0.447201 0)
(0.894394 0.447202 0)
(0.894387 0.447206 0)
(0.894372 0.447219 0)
(0.894338 0.44724 0)
(0.894279 0.447279 0)
(0.894208 0.447344 0)
(0.894143 0.44742 0)
(0.894086 0.447493 0)
(0.893954 0.447594 0)
(0.893471 0.447894 0)
(0.892081 0.448804 0)
(0.889041 0.451178 0)
(0.884023 0.455947 0)
(0.87806 0.462614 0)
(0.873424 0.468611 0)
(0.871956 0.471256 0)
(0.873755 0.469711 0)
(0.877729 0.464868 0)
(0.882793 0.457792 0)
(0.888231 0.448812 0)
(0.893317 0.437718 0)
(0.896499 0.425031 0)
(0.895082 0.413475 0)
(0.886779 0.406351 0)
(0.871633 0.405467 0)
(0.852076 0.410609 0)
(0.831488 0.420064 0)
(0.812729 0.43215 0)
(0.798542 0.445959 0)
(0.791366 0.459863 0)
(0.792225 0.471312 0)
(0.798984 0.477447 0)
(0.808698 0.47802 0)
(0.820242 0.473157 0)
(0.832724 0.464903 0)
(0.844077 0.454627 0)
(0.852212 0.447721 0)
(0.855099 0.445897 0)
(0.854981 0.444569 0)
(0.854862 0.438827 0)
(0.857708 0.430799 0)
(0.863928 0.426582 0)
(0.874354 0.43063 0)
(0.888828 0.4404 0)
(0.904625 0.452089 0)
(0.91861 0.462825 0)
(0.928351 0.470805 0)
(0.932409 0.474707 0)
(0.930958 0.474347 0)
(0.925752 0.470829 0)
(0.919043 0.465894 0)
(0.912557 0.460988 0)
(0.907146 0.45685 0)
(0.902996 0.453668 0)
(0.899984 0.451364 0)
(0.897889 0.44977 0)
(0.896487 0.448714 0)
(0.895582 0.448039 0)
(0.895018 0.447625 0)
(0.894683 0.44738 0)
(0.894494 0.447251 0)
(0.894401 0.447178 0)
(0.89439 0.447168 0)
(0.894316 0.447159 0)
(0.894381 0.447146 0)
(0.894295 0.44717 0)
(0.894424 0.447161 0)
(0.894271 0.447175 0)
(0.89452 0.44717 0)
(0.8942 0.447277 0)
(0.894578 0.446988 0)
(0.894205 0.447484 0)
(0.89458 0.446859 0)
(0.894283 0.447592 0)
(0.89433 0.446767 0)
(0.894683 0.447598 0)
(0.894001 0.446888 0)
(0.894798 0.44739 0)
(0.894029 0.447183 0)
(0.894711 0.447061 0)
(0.89423 0.447375 0)
(0.894422 0.447031 0)
(0.894459 0.447386 0)
(0.894299 0.447061 0)
(0.894489 0.447255 0)
(0.894363 0.447165 0)
(0.894414 0.447214 0)
(0.8944 0.447234 0)
(0.894373 0.447168 0)
(0.894427 0.447203 0)
(0.894399 0.447196 0)
(0.894389 0.447206 0)
(0.894408 0.447206 0)
(0.894398 0.447193 0)
(0.894397 0.447198 0)
(0.894403 0.447202 0)
(0.894401 0.447201 0)
(0.894398 0.4472 0)
(0.894402 0.447201 0)
(0.894401 0.447203 0)
(0.894391 0.4472 0)
(0.894383 0.447202 0)
(0.894367 0.447219 0)
(0.89433 0.447245 0)
(0.894263 0.447289 0)
(0.894182 0.447356 0)
(0.894111 0.447432 0)
(0.894043 0.447502 0)
(0.893848 0.447629 0)
(0.893149 0.448034 0)
(0.891205 0.44927 0)
(0.887157 0.452446 0)
(0.881022 0.45832 0)
(0.874752 0.465284 0)
(0.871257 0.469853 0)
(0.871888 0.469855 0)
(0.875721 0.465716 0)
(0.881131 0.4591 0)
(0.88705 0.450865 0)
(0.892724 0.440809 0)
(0.896954 0.428396 0)