/*--------------------------------*- C++ -*----------------------------------*\
  =========                 |
  \\      /  F ield         | OpenFOAM: The Open Source CFD Toolbox
   \\    /   O peration     | Website:  https://openfoam.org
    \\  /    A nd           | Version:  6
     \\/     M anipulation  |
\*---------------------------------------------------------------------------*/
FoamFile
{
    version     2.0;
    format      ascii;
    class       volScalarField;
    location    "4.25";
    object      T;
}
// * * * * * * * * * * * * * * * * * * * * * * * * * * * * * * * * * * * * * //

dimensions      [0 0 0 1 0 0 0];

internalField   nonuniform List<scalar> 
5625
(
1
1
1
1
1
1
1
1
1
1
1
1
1
1
1
1
1
1
1
1
1
1
1
1
1
1
1
1
1
1
1
1
1
1
1
1
1
1
1
1
1
1
1
1
1
1
1
1
1
1
1
1
1
1
1
1
1
1
1
1
1
1
1
1
1
1
1
1
1
1
1
1
1
1
1
1
1
1
1
1
1
1
1
1
1
1
1
1
1
1
1
1
1
1
1
1
1
1
1
1
1
1
1
1
1
1
1
1
1
1
1
1
1
1
1
1
1
1
1
1
1
1
1
1
1
1
1
1
1
1
1
1
1
1
1
1
1
1
1
1
1
1
1
1
1
1
1
1
1
1
1
1
1
1
1
1
1
1
1
1
1
1
1
1
1
1
1
1
1
1
1
1
1
1
1
1
1
1
1
1
1
1
1
1
1
1
1
1
1
1
1
1
1
1
1
1
1
1
1
1
1
1
1
1
1
1
1
1
1
1
1
1
1
1
1
1
1
1
1
1
1
1
1
1
1
1
1
1
1
1
1
1
1
1
1
1
1
1
1
1
1
1
1
1
1
1
1
1
1
1
1
1
1
1
1
1
1
1
1
1
1
1
1
1
1
1
1
1
1
1
1
1
1
1
1
1
1
1
1
1
1
1
1
1
1
1
1
1
1
1
1
1
1
1
1
1
1
1
1
1
1
1
1
1
1
1
1
1
1
1
1
1
1
1
1
1
1
1
1
1
1
1.00001
1.00001
1.00001
1.00001
1.00001
1.00001
1.00001
1.00001
1.00001
1.00001
1.00001
1.00001
1.00001
1.00001
1
1
1
1
1
1
1
1
1
1
1
1
1
1
1
1
1
1
1
1
1
1
1
1
1
1
1
1
1
1
1
1
1
1
1
1
1
1
1
1
1
1
1
1
1
1
1
1
1
1
1
1
1
1
1
1
1
1
1.00001
1.00001
1.00001
1.00001
1.00001
1.00001
1.00001
1.00001
1.00001
1.00001
1.00001
1.00001
1.00001
1.00001
1.00001
1.00001
1.00001
1.00001
1.00001
1.00001
1.00001
1
1
1
1
1
1
1
1
1
1
1
1
1
1
1
1
1
1
1
1
1
1
1
1
1
1
1
1
1
1
1
1
1
1
1
1
1
1
1
1
1
1
1
1
1
1
1
1
1
1
1
1
1.00001
1.00001
1.00001
1.00001
1.00001
1.00001
1.00001
1.00001
1.00001
1.00001
1.00001
1.00001
1.00001
1.00001
1.00001
1.00001
1.00001
1.00001
1.00001
1.00001
1.00001
1.00001
1.00001
1.00001
1.00001
1
1
1
1
1
1
1
1
1
1
1
1
1
1
1
1
1
1
1
1
1
1
1
1
1
1
1
1
1
1
1
1
1
1
1
1
1
1
1
1
1
1
1
1
1
1
1
1
1.00001
1.00001
1.00001
1.00001
1.00001
1.00001
1.00001
1.00001
1.00001
1.00001
1.00001
1.00001
1.00001
1.00001
1.00001
1.00001
1.00001
1.00001
1.00001
1.00001
1.00001
1.00001
1.00001
1.00001
1.00001
1.00001
1.00001
1.00001
1.00001
1
1
1
1
1
1
1
1
1
1
1
1
1
1
1
1
1
1
1
1
1
1
1
1
1
1
1
1
1
1
1
1
1
1
1
1
1
1
1
1
1
1
1
1
1.00001
1.00001
1.00001
1.00001
1.00001
1.00001
1.00001
1.00001
1.00001
1.00001
1.00001
1.00001
1.00002
1.00002
1.00002
1.00002
1.00002
1.00002
1.00002
1.00002
1.00002
1.00001
1.00001
1.00001
1.00001
1.00001
1.00001
1.00001
1.00001
1.00001
1.00001
1.00001
1.00001
1
1
1
1
1
1
1
1
1
1
1
1
1
1
1
1
1
1
1
1
1
1
1
1
1
1
1
1
1
1
1
1
1
1
1
1
1
1
1
1
1.00001
1.00001
1.00001
1.00001
1.00001
1.00001
1.00001
1.00001
1.00001
1.00001
1.00002
1.00002
1.00002
1.00002
1.00002
1.00002
1.00002
1.00002
1.00002
1.00002
1.00002
1.00002
1.00002
1.00002
1.00002
1.00002
1.00002
1.00001
1.00001
1.00001
1.00001
1.00001
1.00001
1.00001
1.00001
1.00001
1
1
1
1
1
1
1
1
1
1
1
1
1
1
1
1
1
1
1
1
1
1
1
1
1
1
1
1
1
1
1
1
1
1
1
1
1
1
1.00001
1.00001
1.00001
1.00001
1.00001
1.00001
1.00001
1.00001
1.00002
1.00002
1.00002
1.00002
1.00002
1.00002
1.00002
1.00002
1.00002
1.00002
1.00002
1.00002
1.00002
1.00002
1.00002
1.00002
1.00002
1.00002
1.00002
1.00002
1.00002
1.00002
1.00002
1.00001
1.00001
1.00001
1.00001
1.00001
1.00001
1.00001
1.00001
1
1
1
1
1
1
1
1
1
1
1
1
1
1
1
1
1
1
1
1
1
1
1
1
1
1
1
1
1
1
1
1
1
1
1
1.00001
1.00001
1.00001
1.00001
1.00001
1.00001
1.00001
1.00002
1.00002
1.00002
1.00002
1.00002
1.00002
1.00002
1.00002
1.00002
1.00002
1.00002
1.00002
1.00002
1.00002
1.00002
1.00002
1.00002
1.00002
1.00002
1.00002
1.00002
1.00002
1.00002
1.00002
1.00002
1.00002
1.00002
1.00001
1.00001
1.00001
1.00001
1.00001
1.00001
1.00001
1
1
1
1
1
1
1
1
1
1
1
1
1
1
1
1
1
1
1
1
1
1
1
1
1
1
1
1
1
1
1
1
1
1.00001
1.00001
1.00001
1.00001
1.00001
1.00001
1.00002
1.00002
1.00002
1.00002
1.00002
1.00002
1.00002
1.00002
1.00002
1.00003
1.00003
1.00003
1.00003
1.00003
1.00003
1.00003
1.00003
1.00003
1.00003
1.00003
1.00003
1.00003
1.00002
1.00002
1.00002
1.00002
1.00002
1.00002
1.00002
1.00002
1.00002
1.00001
1.00001
1.00001
1.00001
1.00001
1.00001
1
1
1
1
1
1
1
1
1
1
1
1
1
1
1
1
1
1
1
1
1
1
1
1
1
1
1
1
1
1
1
1.00001
1.00001
1.00001
1.00001
1.00001
1.00001
1.00002
1.00002
1.00002
1.00002
1.00002
1.00002
1.00002
1.00003
1.00003
1.00003
1.00003
1.00003
1.00003
1.00003
1.00003
1.00003
1.00003
1.00003
1.00003
1.00003
1.00003
1.00003
1.00003
1.00003
1.00003
1.00003
1.00002
1.00002
1.00002
1.00002
1.00002
1.00002
1.00002
1.00001
1.00001
1.00001
1.00001
1.00001
1.00001
1
1
1
1
1
1
1
1
1
1
1
1
1
1
1
1
1
1
1
1
1
1
1
1
1
1
1
1
1
1.00001
1.00001
1.00001
1.00001
1.00001
1.00002
1.00002
1.00002
1.00002
1.00002
1.00002
1.00003
1.00003
1.00003
1.00003
1.00003
1.00003
1.00003
1.00003
1.00003
1.00003
1.00003
1.00003
1.00003
1.00003
1.00003
1.00003
1.00003
1.00003
1.00003
1.00003
1.00003
1.00003
1.00003
1.00003
1.00003
1.00002
1.00002
1.00002
1.00002
1.00002
1.00001
1.00001
1.00001
1.00001
1.00001
1.00001
1
1
1
1
1
1
1
1
1
1
1
1
1
1
1
1
1
1
1
1
1
1
1
1
1
1
1
1.00001
1.00001
1.00001
1.00001
1.00001
1.00002
1.00002
1.00002
1.00002
1.00002
1.00003
1.00003
1.00003
1.00003
1.00003
1.00003
1.00003
1.00003
1.00003
1.00003
1.00002
1.00002
1.00002
1.00002
1.00002
1.00002
1.00002
1.00002
1.00002
1.00003
1.00003
1.00003
1.00003
1.00003
1.00003
1.00003
1.00003
1.00003
1.00002
1.00002
1.00002
1.00002
1.00002
1.00002
1.00001
1.00001
1.00001
1.00001
1.00001
1
1
1
1
1
1
1
1
1
1
1
1
1
1
1
1
1
1
1
1
1
1
1
1
1
1.00001
1.00001
1.00001
1.00001
1.00001
1.00002
1.00002
1.00002
1.00002
1.00002
1.00003
1.00003
1.00003
1.00003
1.00003
1.00003
1.00003
1.00002
1.00002
1.00002
1.00002
1.00002
1.00002
1.00002
1.00002
1.00002
1.00002
1.00002
1.00002
1.00002
1.00002
1.00002
1.00002
1.00002
1.00003
1.00003
1.00003
1.00003
1.00003
1.00003
1.00003
1.00002
1.00002
1.00002
1.00002
1.00002
1.00001
1.00001
1.00001
1.00001
1.00001
1
1
1
1
1
1
1
1
1
1
1
1
1
1
1
1
1
1
1
1
1
1
1
1.00001
1.00001
1.00001
1.00001
1.00001
1.00002
1.00002
1.00002
1.00002
1.00003
1.00003
1.00003
1.00003
1.00003
1.00003
1.00003
1.00002
1.00002
1.00002
1.00002
1.00002
1.00002
1.00002
1.00002
1.00002
1.00002
1.00002
1.00002
1.00002
1.00002
1.00002
1.00002
1.00002
1.00002
1.00002
1.00002
1.00002
1.00003
1.00003
1.00003
1.00003
1.00003
1.00003
1.00002
1.00002
1.00002
1.00002
1.00002
1.00001
1.00001
1.00001
1.00001
1.00001
1
1
1
1
1
1
1
1
1
1
1
1
1
1
1
1
1
1
1
1
1
1.00001
1.00001
1.00001
1.00001
1.00001
1.00002
1.00002
1.00002
1.00002
1.00003
1.00003
1.00003
1.00003
1.00003
1.00003
1.00002
1.00002
1.00002
1.00002
1.00002
1.00002
1.00002
1.00001
1.00001
1.00001
1.00001
1.00001
1.00001
1.00001
1.00001
1.00001
1.00001
1.00001
1.00002
1.00002
1.00002
1.00002
1.00002
1.00002
1.00002
1.00003
1.00003
1.00003
1.00003
1.00003
1.00003
1.00002
1.00002
1.00002
1.00002
1.00001
1.00001
1.00001
1.00001
1.00001
1
1
1
1
1
1
1
1
1
1
1
1
1
1
1
1
1
1
1
1.00001
1.00001
1.00001
1.00001
1.00001
1.00002
1.00002
1.00002
1.00002
1.00003
1.00003
1.00003
1.00003
1.00003
1.00003
1.00002
1.00002
1.00002
1.00002
1.00002
1.00001
1.00001
1.00001
1.00001
1.00001
1.00001
1.00001
1.00001
1.00001
1.00001
1.00001
1.00001
1.00001
1.00001
1.00001
1.00001
1.00001
1.00002
1.00002
1.00002
1.00002
1.00002
1.00003
1.00003
1.00003
1.00003
1.00003
1.00003
1.00002
1.00002
1.00002
1.00002
1.00001
1.00001
1.00001
1.00001
1
1
1
1
1
1
1
1
1
1
1
1
1
1
1
1
1
1
1
1.00001
1.00001
1.00001
1.00001
1.00002
1.00002
1.00002
1.00002
1.00003
1.00003
1.00003
1.00003
1.00003
1.00002
1.00002
1.00002
1.00002
1.00002
1.00001
1.00001
1.00001
1.00001
1.00001
1
1
1
1
0.999999
0.999999
0.999999
0.999999
1
1
1
1
1.00001
1.00001
1.00001
1.00001
1.00002
1.00002
1.00002
1.00002
1.00003
1.00003
1.00003
1.00003
1.00003
1.00003
1.00002
1.00002
1.00002
1.00001
1.00001
1.00001
1.00001
1.00001
1
1
1
1
1
1
1
1
1
1
1
1
1
1
1
1
1
1
1.00001
1.00001
1.00001
1.00002
1.00002
1.00002
1.00002
1.00003
1.00003
1.00003
1.00003
1.00003
1.00002
1.00002
1.00002
1.00002
1.00001
1.00001
1.00001
1.00001
1
1
0.999999
0.999997
0.999995
0.999994
0.999992
0.999992
0.999992
0.999992
0.999992
0.999993
0.999995
0.999996
0.999998
1
1
1
1.00001
1.00001
1.00001
1.00002
1.00002
1.00002
1.00002
1.00003
1.00003
1.00003
1.00003
1.00003
1.00002
1.00002
1.00002
1.00001
1.00001
1.00001
1.00001
1.00001
1
1
1
1
1
1
1
1
1
1
1
1
1
1
1
1
1
1.00001
1.00001
1.00002
1.00002
1.00002
1.00002
1.00003
1.00003
1.00003
1.00003
1.00003
1.00002
1.00002
1.00002
1.00002
1.00001
1.00001
1.00001
1
1
0.999997
0.999994
0.999992
0.999989
0.999987
0.999985
0.999984
0.999983
0.999983
0.999983
0.999984
0.999985
0.999987
0.999989
0.999991
0.999994
0.999996
0.999999
1
1.00001
1.00001
1.00001
1.00002
1.00002
1.00002
1.00002
1.00003
1.00003
1.00003
1.00003
1.00002
1.00002
1.00002
1.00002
1.00001
1.00001
1.00001
1.00001
1
1
1
1
1
1
1
1
1
1
1
1
1
1
1
1
1
1.00001
1.00001
1.00002
1.00002
1.00002
1.00003
1.00003
1.00003
1.00003
1.00003
1.00002
1.00002
1.00002
1.00001
1.00001
1.00001
1
1
0.999997
0.999994
0.99999
0.999986
0.999983
0.999979
0.999976
0.999974
0.999972
0.999971
0.999971
0.999971
0.999973
0.999975
0.999977
0.99998
0.999983
0.999986
0.999989
0.999993
0.999996
1
1
1.00001
1.00001
1.00001
1.00002
1.00002
1.00002
1.00003
1.00003
1.00003
1.00003
1.00002
1.00002
1.00002
1.00002
1.00001
1.00001
1.00001
1.00001
1
1
1
1
1
1
1
1
1
1
1
1
1
1
1
1
1.00001
1.00002
1.00002
1.00002
1.00003
1.00003
1.00003
1.00003
1.00003
1.00002
1.00002
1.00002
1.00001
1.00001
1.00001
1
0.999999
0.999995
0.999991
0.999986
0.999981
0.999976
0.999971
0.999967
0.999962
0.999959
0.999956
0.999955
0.999954
0.999955
0.999957
0.99996
0.999964
0.999968
0.999972
0.999976
0.999981
0.999985
0.999989
0.999993
0.999997
1
1.00001
1.00001
1.00001
1.00002
1.00002
1.00002
1.00003
1.00003
1.00003
1.00003
1.00002
1.00002
1.00002
1.00001
1.00001
1.00001
1.00001
1.00001
1
1
1
1
1
1
1
1
1
1
1
1
1
1
1
1.00002
1.00002
1.00002
1.00002
1.00003
1.00003
1.00003
1.00003
1.00002
1.00002
1.00002
1.00001
1.00001
1.00001
1
0.999998
0.999993
0.999988
0.999983
0.999977
0.99997
0.999963
0.999955
0.999948
0.999942
0.999936
0.999932
0.99993
0.99993
0.999931
0.999934
0.999939
0.999945
0.999951
0.999957
0.999964
0.99997
0.999976
0.999981
0.999986
0.999991
0.999996
1
1.00001
1.00001
1.00001
1.00002
1.00002
1.00003
1.00003
1.00003
1.00003
1.00003
1.00002
1.00002
1.00002
1.00001
1.00001
1.00001
1.00001
1
1
1
1
1
1
1
1
1
1
1
1
1
1
1
1.00002
1.00002
1.00002
1.00003
1.00003
1.00003
1.00003
1.00002
1.00002
1.00002
1.00001
1.00001
1.00001
1
0.999997
0.999992
0.999987
0.99998
0.999973
0.999964
0.999954
0.999943
0.999932
0.999921
0.999911
0.999902
0.999895
0.999892
0.999891
0.999894
0.999899
0.999907
0.999916
0.999926
0.999936
0.999945
0.999955
0.999963
0.999971
0.999977
0.999983
0.999989
0.999995
1
1
1.00001
1.00001
1.00002
1.00002
1.00003
1.00003
1.00003
1.00003
1.00002
1.00002
1.00002
1.00002
1.00001
1.00001
1.00001
1.00001
1
1
1
1
1
1
1
1
1
1
1
1
1
1
1.00002
1.00002
1.00003
1.00003
1.00003
1.00003
1.00002
1.00002
1.00002
1.00001
1.00001
1.00001
1
0.999997
0.999992
0.999986
0.999979
0.99997
0.999959
0.999946
0.999931
0.999914
0.999896
0.999879
0.999862
0.999848
0.999838
0.999832
0.999831
0.999835
0.999844
0.999856
0.999871
0.999887
0.999903
0.999919
0.999933
0.999945
0.999956
0.999966
0.999974
0.999981
0.999988
0.999994
1
1.00001
1.00001
1.00002
1.00002
1.00002
1.00003
1.00003
1.00003
1.00003
1.00002
1.00002
1.00002
1.00001
1.00001
1.00001
1.00001
1
1
1
1
1
1
1
1
1
1
1
1
1
1
1.00002
1.00002
1.00003
1.00003
1.00003
1.00002
1.00002
1.00002
1.00001
1.00001
1.00001
1
0.999997
0.999992
0.999986
0.999979
0.999969
0.999956
0.999939
0.999919
0.999896
0.999869
0.999841
0.999813
0.999786
0.999764
0.999747
0.999737
0.999736
0.999743
0.999757
0.999777
0.999801
0.999827
0.999853
0.999877
0.9999
0.999919
0.999936
0.99995
0.999962
0.999972
0.99998
0.999987
0.999994
1
1.00001
1.00001
1.00002
1.00002
1.00002
1.00003
1.00003
1.00003
1.00002
1.00002
1.00002
1.00002
1.00001
1.00001
1.00001
1.00001
1
1
1
1
1
1
1
1
1
1
1
1
1
1.00002
1.00003
1.00003
1.00003
1.00003
1.00002
1.00002
1.00002
1.00001
1.00001
1
0.999998
0.999993
0.999987
0.999979
0.999969
0.999955
0.999935
0.99991
0.999879
0.999843
0.999801
0.999756
0.999711
0.999668
0.999632
0.999604
0.999589
0.999586
0.999597
0.99962
0.999652
0.999691
0.999732
0.999774
0.999814
0.99985
0.999881
0.999907
0.999928
0.999945
0.999959
0.99997
0.999979
0.999987
0.999995
1
1.00001
1.00001
1.00002
1.00002
1.00003
1.00003
1.00003
1.00003
1.00002
1.00002
1.00002
1.00001
1.00001
1.00001
1.00001
1
1
1
1
1
1
1
1
1
1
1
1
1
1.00002
1.00003
1.00003
1.00003
1.00002
1.00002
1.00002
1.00001
1.00001
1
0.999999
0.999994
0.999989
0.999981
0.999971
0.999956
0.999934
0.999905
0.999867
0.999819
0.999762
0.999696
0.999626
0.999554
0.999487
0.999428
0.999384
0.999359
0.999355
0.999372
0.999408
0.999459
0.99952
0.999587
0.999654
0.999717
0.999774
0.999823
0.999863
0.999896
0.999922
0.999942
0.999957
0.99997
0.99998
0.999988
0.999996
1
1.00001
1.00002
1.00002
1.00002
1.00003
1.00003
1.00003
1.00002
1.00002
1.00002
1.00002
1.00001
1.00001
1.00001
1.00001
1
1
1
1
1
1
1
1
1
1
1
1
1.00003
1.00003
1.00003
1.00002
1.00002
1.00002
1.00001
1.00001
1
1
0.999996
0.999991
0.999984
0.999974
0.99996
0.999937
0.999905
0.999861
0.999802
0.999728
0.99964
0.999538
0.999428
0.999316
0.999209
0.999117
0.999048
0.999007
0.999
0.999027
0.999083
0.999163
0.99926
0.999365
0.99947
0.99957
0.999659
0.999735
0.999798
0.999848
0.999887
0.999917
0.99994
0.999957
0.99997
0.999981
0.99999
0.999998
1.00001
1.00001
1.00002
1.00002
1.00003
1.00003
1.00003
1.00003
1.00002
1.00002
1.00002
1.00001
1.00001
1.00001
1.00001
1
1
1
1
1
1
1
1
1
1
1
1
1.00003
1.00003
1.00003
1.00002
1.00002
1.00002
1.00001
1.00001
1
0.999997
0.999993
0.999987
0.999979
0.999965
0.999944
0.999911
0.999862
0.999795
0.999706
0.999593
0.999457
0.999301
0.999132
0.998958
0.998792
0.998649
0.99854
0.998478
0.998466
0.998507
0.998594
0.998718
0.998869
0.999031
0.999195
0.999349
0.999487
0.999605
0.999702
0.999779
0.999838
0.999882
0.999916
0.99994
0.999958
0.999972
0.999983
0.999992
1
1.00001
1.00001
1.00002
1.00002
1.00003
1.00003
1.00003
1.00002
1.00002
1.00002
1.00001
1.00001
1.00001
1.00001
1
1
1
1
1
1
1
1
1
1
1
1
1.00003
1.00003
1.00002
1.00002
1.00002
1.00001
1.00001
1
0.999999
0.999995
0.99999
0.999983
0.999972
0.999953
0.999922
0.999872
0.999799
0.999698
0.999564
0.999394
0.999188
0.998952
0.998694
0.998428
0.998175
0.997955
0.997789
0.997693
0.997675
0.997737
0.99787
0.998061
0.998291
0.998539
0.998788
0.999023
0.999234
0.999413
0.999561
0.999677
0.999766
0.999833
0.999882
0.999917
0.999942
0.99996
0.999975
0.999986
0.999995
1
1.00001
1.00002
1.00002
1.00003
1.00003
1.00003
1.00003
1.00002
1.00002
1.00002
1.00001
1.00001
1.00001
1.00001
1
1
1
1
1
1
1
1
1
1
1
1.00003
1.00003
1.00002
1.00002
1.00001
1.00001
1
1
0.999996
0.999992
0.999987
0.999979
0.999964
0.999936
0.999889
0.999816
0.999708
0.999558
0.999358
0.999105
0.998798
0.998444
0.998056
0.997656
0.997276
0.996946
0.996696
0.996552
0.996527
0.99662
0.996821
0.997108
0.997452
0.997826
0.9982
0.998552
0.998867
0.999136
0.999357
0.999531
0.999664
0.999762
0.999834
0.999885
0.99992
0.999946
0.999964
0.999978
0.999989
0.999999
1.00001
1.00001
1.00002
1.00002
1.00003
1.00003
1.00003
1.00002
1.00002
1.00002
1.00001
1.00001
1.00001
1.00001
1
1
1
1
1
1
1
1
1
1
1
1.00003
1.00002
1.00002
1.00002
1.00001
1.00001
1
0.999998
0.999994
0.99999
0.999985
0.999974
0.999952
0.999912
0.999843
0.999736
0.999578
0.999358
0.999065
0.998693
0.99824
0.997716
0.997142
0.996552
0.995991
0.995504
0.995139
0.994929
0.994893
0.995032
0.995329
0.995752
0.99626
0.996811
0.997363
0.997883
0.998347
0.998744
0.999068
0.999324
0.999519
0.999664
0.999767
0.99984
0.999891
0.999927
0.999951
0.999969
0.999983
0.999993
1
1.00001
1.00002
1.00002
1.00003
1.00003
1.00003
1.00002
1.00002
1.00002
1.00002
1.00001
1.00001
1.00001
1
1
1
1
1
1
1
1
1
1
1
1.00003
1.00002
1.00002
1.00002
1.00001
1
1
0.999995
0.999992
0.999988
0.999982
0.999968
0.999937
0.999878
0.999778
0.999622
0.999394
0.999077
0.998654
0.998114
0.997456
0.996694
0.995859
0.995004
0.994191
0.993491
0.992966
0.992666
0.992617
0.992819
0.993248
0.99386
0.994597
0.995395
0.996195
0.996948
0.997622
0.998197
0.998667
0.999037
0.999319
0.999527
0.999676
0.99978
0.999852
0.999901
0.999935
0.999958
0.999975
0.999988
0.999998
1.00001
1.00001
1.00002
1.00002
1.00003
1.00003
1.00003
1.00002
1.00002
1.00002
1.00001
1.00001
1.00001
1.00001
1
1
1
1
1
1
1
1
1
1
1.00002
1.00002
1.00002
1.00001
1.00001
1
0.999997
0.999993
0.99999
0.999987
0.99998
0.99996
0.999915
0.99983
0.999687
0.999465
0.99914
0.998689
0.998086
0.997315
0.996374
0.995284
0.994094
0.992878
0.991727
0.990738
0.99
0.989578
0.989509
0.989795
0.990403
0.991271
0.992317
0.993452
0.994592
0.995667
0.996628
0.997447
0.998117
0.998645
0.999046
0.999341
0.999552
0.999699
0.9998
0.999868
0.999913
0.999944
0.999965
0.999981
0.999993
1
1.00001
1.00002
1.00002
1.00003
1.00003
1.00003
1.00002
1.00002
1.00002
1.00001
1.00001
1.00001
1.00001
1
1
1
1
1
1
1
1
1
1
1.00002
1.00002
1.00002
1.00001
1.00001
1
0.999995
0.999991
0.99999
0.999988
0.999978
0.999949
0.999884
0.999763
0.999561
0.99925
0.998796
0.998164
0.997317
0.996232
0.994909
0.99338
0.991716
0.990023
0.988427
0.987057
0.986033
0.985445
0.985346
0.985738
0.98658
0.987787
0.989246
0.990833
0.99243
0.993938
0.995287
0.996437
0.997378
0.998117
0.998679
0.999092
0.999387
0.999592
0.999731
0.999824
0.999886
0.999926
0.999954
0.999973
0.999988
0.999999
1.00001
1.00002
1.00002
1.00002
1.00003
1.00003
1.00002
1.00002
1.00002
1.00001
1.00001
1.00001
1.00001
1
1
1
1
1
1
1
1
1
1
1.00002
1.00002
1.00001
1.00001
1
0.999997
0.999992
0.99999
0.99999
0.999989
0.999976
0.999934
0.999842
0.999673
0.999394
0.998964
0.998339
0.997466
0.996296
0.994795
0.992968
0.990865
0.988588
0.986279
0.984104
0.982237
0.980834
0.980021
0.979872
0.980396
0.981538
0.983184
0.985183
0.987364
0.989564
0.991645
0.993509
0.9951
0.996399
0.997421
0.998196
0.998764
0.99917
0.999451
0.999641
0.999768
0.999851
0.999904
0.99994
0.999964
0.999981
0.999994
1
1.00001
1.00002
1.00002
1.00003
1.00003
1.00002
1.00002
1.00002
1.00002
1.00001
1.00001
1.00001
1.00001
1
1
1
1
1
1
1
1
1
1.00002
1.00002
1.00001
1.00001
1
0.999994
0.99999
0.999989
0.999991
0.999991
0.999972
0.999914
0.999786
0.999554
0.999173
0.998592
0.997745
0.996559
0.994966
0.992927
0.990455
0.987624
0.984571
0.98148
0.978564
0.976049
0.974149
0.973037
0.972817
0.973505
0.975027
0.977234
0.979922
0.982863
0.985839
0.988662
0.991195
0.993359
0.995127
0.996516
0.997569
0.998341
0.99889
0.99927
0.999526
0.999696
0.999806
0.999877
0.999923
0.999953
0.999974
0.999989
1
1.00001
1.00002
1.00002
1.00003
1.00003
1.00003
1.00002
1.00002
1.00002
1.00001
1.00001
1.00001
1.00001
1
1
1
1
1
1
1
1
1
1.00002
1.00002
1.00001
1.00001
0.999999
0.999992
0.999988
0.999989
0.999994
0.999994
0.999968
0.999886
0.999712
0.999399
0.998891
0.998117
0.996987
0.995401
0.993273
0.990557
0.987281
0.98355
0.979535
0.975463
0.971606
0.968263
0.965729
0.964241
0.963937
0.964837
0.96684
0.969746
0.97329
0.977177
0.98112
0.984871
0.988247
0.991138
0.993504
0.995363
0.996771
0.997802
0.998534
0.99904
0.999381
0.999605
0.99975
0.999843
0.999902
0.99994
0.999966
0.999984
0.999997
1.00001
1.00002
1.00002
1.00002
1.00003
1.00003
1.00002
1.00002
1.00002
1.00001
1.00001
1.00001
1.00001
1
1
1
1
1
1
1
1
1
1.00002
1.00001
1.00001
1
0.999996
0.999989
0.999986
0.999989
0.999998
0.999998
0.999962
0.999851
0.999617
0.999204
0.998538
0.997525
0.996042
0.993958
0.991167
0.987625
0.983379
0.978557
0.973363
0.968073
0.963042
0.958677
0.955378
0.953457
0.953084
0.954267
0.956868
0.960627
0.965203
0.970223
0.975325
0.980195
0.984594
0.988375
0.991479
0.993923
0.995774
0.99713
0.998092
0.998755
0.999201
0.999494
0.999682
0.999802
0.999877
0.999925
0.999956
0.999977
0.999993
1
1.00001
1.00002
1.00002
1.00003
1.00003
1.00002
1.00002
1.00002
1.00001
1.00001
1.00001
1.00001
1
1
1
1
1
1
1
1
1
1.00002
1.00001
1.00001
1
0.999994
0.999985
0.999983
0.999991
1
1
0.999954
0.999805
0.999499
0.998964
0.998108
0.996804
0.99489
0.992203
0.988617
0.984098
0.978705
0.972583
0.965962
0.959189
0.952744
0.947183
0.943028
0.940656
0.940253
0.941808
0.945135
0.949903
0.955687
0.962022
0.968463
0.974626
0.980216
0.985043
0.989024
0.992169
0.994559
0.99631
0.997552
0.998408
0.998983
0.999359
0.9996
0.999753
0.999848
0.999907
0.999945
0.99997
0.999988
1
1.00001
1.00002
1.00002
1.00003
1.00003
1.00002
1.00002
1.00002
1.00002
1.00001
1.00001
1.00001
1
1
1
1
1
1
1
1
1
1.00002
1.00001
1.00001
1
0.999992
0.999982
0.999981
0.999993
1.00001
1.00001
0.999943
0.999748
0.999356
0.998679
0.997598
0.995947
0.993521
0.990121
0.985614
0.97997
0.97325
0.9656
0.957284
0.948764
0.940702
0.933832
0.92878
0.925962
0.925565
0.927563
0.931731
0.937665
0.944838
0.952674
0.960628
0.968239
0.975161
0.981165
0.986144
0.990099
0.993116
0.995334
0.996909
0.997995
0.998723
0.999199
0.999503
0.999695
0.999814
0.999887
0.999933
0.999963
0.999983
0.999997
1.00001
1.00002
1.00002
1.00002
1.00003
1.00002
1.00002
1.00002
1.00002
1.00001
1.00001
1.00001
1.00001
1
1
1
1
1
1
1
1
1.00001
1.00001
1.00001
1
0.999989
0.999978
0.999979
0.999998
1.00002
1.00002
0.999931
0.999681
0.99919
0.99835
0.997009
0.994955
0.991936
0.987724
0.98218
0.975273
0.967045
0.95763
0.947358
0.936878
0.92708
0.918853
0.912876
0.909569
0.909137
0.91158
0.916667
0.923927
0.932704
0.942267
0.951936
0.961159
0.969537
0.97682
0.982888
0.987737
0.991458
0.994205
0.996163
0.997514
0.99842
0.999012
0.999391
0.999628
0.999774
0.999864
0.999919
0.999955
0.999978
0.999994
1.00001
1.00001
1.00002
1.00002
1.00003
1.00003
1.00002
1.00002
1.00002
1.00001
1.00001
1.00001
1.00001
1
1
1
1
1
1
1
1
1.00001
1.00001
1.00001
1
0.999986
0.999973
0.999977
1
1.00004
1.00003
0.999917
0.999606
0.999004
0.997981
0.996347
0.993838
0.990153
0.985044
0.978371
0.97008
0.960168
0.948765
0.936334
0.923777
0.912208
0.902592
0.89558
0.891597
0.890937
0.893718
0.899758
0.908517
0.919169
0.93077
0.94244
0.953493
0.963473
0.972127
0.979348
0.985144
0.989619
0.992943
0.995323
0.996971
0.998078
0.998801
0.999263
0.999552
0.99973
0.999838
0.999904
0.999945
0.999972
0.99999
1
1.00001
1.00002
1.00002
1.00003
1.00003
1.00002
1.00002
1.00002
1.00001
1.00001
1.00001
1.00001
1
1
1
1
1
1
1
1
1.00001
1.00001
1.00001
1
0.999983
0.999967
0.999974
1.00001
1.00005
1.00005
0.999902
0.999524
0.998802
0.997581
0.995627
0.992617
0.98821
0.982147
0.974277
0.964501
0.952752
0.939193
0.9245
0.909857
0.896522
0.885405
0.877076
0.872037
0.870811
0.873743
0.880739
0.89118
0.904024
0.918045
0.932091
0.94528
0.957069
0.967207
0.975635
0.982407
0.98766
0.991584
0.994411
0.996377
0.997702
0.998569
0.999123
0.999469
0.999681
0.99981
0.999888
0.999936
0.999966
0.999987
1
1.00001
1.00002
1.00002
1.00003
1.00003
1.00002
1.00002
1.00002
1.00001
1.00001
1.00001
1.00001
1
1
1
1
1
1
1
1
1.00001
1.00001
1.00001
0.999999
0.999979
0.999962
0.999971
1.00002
1.00007
1.00006
0.999888
0.99944
0.998593
0.997164
0.994867
0.991325
0.986166
0.97912
0.970018
0.958688
0.944999
0.929207
0.912265
0.895604
0.880475
0.867611
0.857529
0.850967
0.848831
0.851754
0.859715
0.871978
0.88727
0.904055
0.920858
0.93653
0.950385
0.962159
0.971859
0.979625
0.985654
0.990179
0.993457
0.995751
0.997303
0.998322
0.998973
0.99938
0.999629
0.99978
0.999871
0.999926
0.99996
0.999983
0.999998
1.00001
1.00002
1.00002
1.00002
1.00003
1.00002
1.00002
1.00002
1.00001
1.00001
1.00001
1.00001
1
1
1
1
1
1
1
1
1.00001
1.00001
1.00001
1
0.999976
0.999955
0.999966
1.00002
1.00009
1.00008
0.999878
0.99936
0.998388
0.996746
0.994097
0.990011
0.984092
0.976071
0.96574
0.952833
0.937177
0.919189
0.900118
0.881532
0.864519
0.849587
0.837347
0.828961
0.825794
0.828702
0.837642
0.851735
0.86951
0.889174
0.90894
0.927349
0.943504
0.957075
0.968123
0.976894
0.983683
0.988788
0.992504
0.995117
0.996895
0.998067
0.998818
0.999288
0.999575
0.999749
0.999853
0.999915
0.999954
0.999979
0.999996
1.00001
1.00002
1.00002
1.00002
1.00003
1.00002
1.00002
1.00002
1.00002
1.00001
1.00001
1.00001
1
1
1
1
1
1
1
1
1.00001
1.00001
1.00001
1
0.999973
0.999946
0.99996
1.00003
1.00011
1.0001
0.999875
0.99929
0.998198
0.99635
0.99335
0.988728
0.982077
0.973124
0.96161
0.947164
0.929611
0.909574
0.888565
0.868153
0.849156
0.831951
0.817447
0.807351
0.803392
0.806458
0.816355
0.832063
0.852018
0.874306
0.89691
0.918068
0.936614
0.952078
0.964527
0.974307
0.981827
0.987474
0.991594
0.994507
0.996498
0.997817
0.998665
0.999196
0.999522
0.999718
0.999835
0.999905
0.999948
0.999975
0.999994
1.00001
1.00002
1.00002
1.00002
1.00003
1.00002
1.00002
1.00002
1.00002
1.00001
1.00001
1.00001
1
1
1
1
1
1
1
1
1
1.00001
1.00002
1
0.99997
0.999938
0.999952
1.00003
1.00013
1.00013
0.999881
0.999239
0.998038
0.995995
0.992666
0.987541
0.980212
0.970407
0.957802
0.94193
0.922648
0.900804
0.878097
0.85598
0.835015
0.815632
0.799212
0.787955
0.783717
0.787185
0.797917
0.814804
0.836335
0.860643
0.885613
0.909233
0.930041
0.947359
0.961197
0.971957
0.980162
0.986297
0.990774
0.993949
0.996131
0.997583
0.99852
0.999109
0.999471
0.999689
0.999819
0.999896
0.999943
0.999972
0.999991
1
1.00001
1.00002
1.00002
1.00003
1.00002
1.00002
1.00002
1.00002
1.00001
1.00001
1.00001
1.00001
1
1
1
1
1
1
1
1
1.00001
1.00002
1.00001
0.999969
0.999928
0.999941
1.00003
1.00015
1.00016
0.999901
0.999212
0.997918
0.995707
0.992085
0.986512
0.97859
0.968048
0.954493
0.937382
0.916629
0.893293
0.869168
0.84554
0.822831
0.801715
0.784076
0.7724
0.76841
0.772436
0.783772
0.801294
0.823671
0.849227
0.875881
0.901448
0.924184
0.943166
0.95828
0.969943
0.978759
0.985311
0.990084
0.993475
0.995814
0.997378
0.998392
0.999032
0.999425
0.999662
0.999803
0.999887
0.999938
0.999969
0.99999
1
1.00001
1.00002
1.00002
1.00002
1.00002
1.00002
1.00002
1.00002
1.00001
1.00001
1.00001
1.00001
1
1
1
1
1
1
1
0.999997
1.00001
1.00002
1.00001
0.99997
0.99992
0.999927
1.00003
1.00017
1.0002
0.999934
0.999215
0.997853
0.995508
0.991644
0.985701
0.977294
0.966158
0.951843
0.933746
0.911856
0.887395
0.862176
0.837339
0.813322
0.791137
0.773042
0.761557
0.758114
0.762684
0.774353
0.792027
0.814605
0.840681
0.868306
0.895211
0.919417
0.939748
0.955935
0.96836
0.977682
0.984564
0.98956
0.993109
0.995565
0.997213
0.998287
0.998967
0.999387
0.99964
0.999791
0.99988
0.999934
0.999967
0.999988
1
1.00001
1.00002
1.00002
1.00002
1.00002
1.00002
1.00002
1.00002
1.00001
1.00001
1.00001
1.00001
1
1
1
1
1
1
1
0.999994
1
1.00002
1.00002
0.999974
0.999913
0.99991
1.00002
1.00018
1.00024
0.999984
0.999253
0.997852
0.995417
0.991379
0.98516
0.976395
0.964832
0.949983
0.931207
0.908567
0.883384
0.857438
0.831797
0.807029
0.784453
0.766477
0.75547
0.752571
0.757517
0.769284
0.78681
0.809174
0.835226
0.863207
0.890853
0.91602
0.937313
0.954298
0.967296
0.976986
0.984092
0.989228
0.992872
0.995398
0.9971
0.998213
0.99892
0.999358
0.999623
0.999781
0.999875
0.99993
0.999965
0.999987
1
1.00001
1.00002
1.00002
1.00002
1.00002
1.00002
1.00002
1.00002
1.00001
1.00001
1.00001
1.00001
1
1
1
1
1
1
1
0.999991
0.999998
1.00002
1.00003
0.999982
0.999909
0.999891
0.999998
1.00018
1.00028
1.00005
0.999328
0.997919
0.995448
0.991316
0.98493
0.975946
0.964139
0.949003
0.929889
0.906913
0.88143
0.855163
0.829178
0.804224
0.7818
0.764251
0.753706
0.751116
0.756167
0.767848
0.785111
0.807096
0.832816
0.860695
0.888553
0.914174
0.936007
0.953471
0.966811
0.976705
0.983917
0.989103
0.992776
0.995322
0.997043
0.998173
0.998894
0.999341
0.999613
0.999775
0.999871
0.999928
0.999964
0.999986
1
1.00001
1.00002
1.00002
1.00002
1.00002
1.00002
1.00002
1.00002
1.00001
1.00001
1.00001
1.00001
1
1
1
1
1
1
1
0.999988
0.999992
1.00002
1.00004
0.999994
0.999909
0.999871
0.999968
1.00018
1.00031
1.00013
0.999439
0.998058
0.995607
0.991469
0.985033
0.975978
0.964114
0.948949
0.929848
0.906952
0.88159
0.855418
0.829551
0.8049
0.783004
0.766005
0.755774
0.753173
0.758007
0.769423
0.786397
0.808003
0.833264
0.860735
0.888365
0.913966
0.93591
0.95351
0.966939
0.976858
0.984047
0.989191
0.992823
0.995342
0.997047
0.99817
0.998889
0.999337
0.99961
0.999773
0.99987
0.999928
0.999963
0.999986
1
1.00001
1.00002
1.00002
1.00002
1.00002
1.00002
1.00002
1.00002
1.00001
1.00001
1.00001
1.00001
1
1
1
1
1
1
1
0.999987
0.999986
1.00002
1.00004
1.00001
0.999917
0.999853
0.99993
1.00015
1.00033
1.00021
0.999582
0.998262
0.995891
0.99184
0.985481
0.976505
0.964765
0.949815
0.931062
0.908645
0.883809
0.858132
0.832795
0.808831
0.787721
0.771355
0.761344
0.758494
0.762826
0.773781
0.790415
0.811653
0.836385
0.863217
0.89025
0.915397
0.937035
0.954425
0.967682
0.97744
0.984475
0.989485
0.993011
0.995454
0.99711
0.998204
0.998907
0.999347
0.999615
0.999776
0.999871
0.999928
0.999964
0.999986
1
1.00001
1.00002
1.00002
1.00002
1.00002
1.00002
1.00002
1.00002
1.00001
1.00001
1.00001
1.00001
1
1
1
1
1
1
1
0.999988
0.999978
1.00001
1.00005
1.00003
0.999934
0.999842
0.999886
1.0001
1.00034
1.0003
0.999751
0.998524
0.996288
0.992418
0.986263
0.977515
0.96607
0.95156
0.933456
0.911877
0.887937
0.863119
0.838658
0.815661
0.795533
0.779931
0.770204
0.767066
0.77075
0.781062
0.797215
0.81798
0.842044
0.867999
0.894091
0.918387
0.939331
0.956178
0.969009
0.978422
0.985178
0.989967
0.993327
0.995652
0.997229
0.998273
0.998946
0.999368
0.999627
0.999782
0.999875
0.99993
0.999965
0.999987
1
1.00001
1.00002
1.00002
1.00002
1.00002
1.00002
1.00002
1.00002
1.00001
1.00001
1.00001
1.00001
1
1
1
1
1
1
1
0.999993
0.999972
0.999997
1.00005
1.00005
0.99996
0.999844
0.999841
1.00004
1.00031
1.00037
0.999932
0.99883
0.996778
0.993175
0.98735
0.978975
0.967982
0.954099
0.936893
0.916457
0.893742
0.870111
0.846811
0.824988
0.805996
0.791325
0.782079
0.778811
0.781875
0.791414
0.806863
0.826912
0.850062
0.87486
0.899685
0.922775
0.94268
0.958686
0.970856
0.979757
0.986119
0.990611
0.993752
0.995923
0.997396
0.998373
0.999004
0.999401
0.999645
0.999792
0.99988
0.999933
0.999966
0.999988
1
1.00001
1.00002
1.00002
1.00002
1.00002
1.00002
1.00002
1.00002
1.00001
1.00001
1.00001
1.00001
1
1
1
1
1
1
1
1
0.999968
0.999983
1.00004