/*--------------------------------*- C++ -*----------------------------------*\
  =========                 |
  \\      /  F ield         | OpenFOAM: The Open Source CFD Toolbox
   \\    /   O peration     | Website:  https://openfoam.org
    \\  /    A nd           | Version:  6
     \\/     M anipulation  |
\*---------------------------------------------------------------------------*/
FoamFile
{
    version     2.0;
    format      ascii;
    class       volScalarField;
    location    "3.63";
    object      p;
}
// * * * * * * * * * * * * * * * * * * * * * * * * * * * * * * * * * * * * * //

dimensions      [1 -1 -2 0 0 0 0];

internalField   nonuniform List<scalar> 
22500
(
1
1
1
1
1
1
1
1
1
1
1
1
1
1
1
1
1
1
1
1
1
1
1
1
1
1
1
1
1
1
1
1
1
1
1
1
1
1
1
1
1
1
1
1
1
1
1
1
1
1
1
1
1
1
1
1
1
1
1
1
1
1
1
1
1
1
0.999999
1
0.999999
0.999998
0.999997
0.999996
0.999994
0.999992
0.99999
0.999986
0.999983
0.99998
0.999976
0.999972
0.999969
0.999966
0.999963
0.999962
0.999962
0.999963
0.999966
0.99997
0.999977
0.999985
0.999995
1.00001
1.00002
1.00003
1.00005
1.00006
1.00007
1.00009
1.0001
1.00011
1.00012
1.00012
1.00013
1.00013
1.00013
1.00013
1.00013
1.00012
1.00011
1.00011
1.0001
1.00009
1.00009
1.00008
1.00007
1.00006
1.00005
1.00004
1.00004
1.00003
1.00003
1.00002
1.00002
1.00001
1.00001
1.00001
1.00001
1
1
1
1
1
1
1
1
1
1
1
1
1
1
1
1
1
1
1
1
1
1
1
1
1
1
1
1
1
1
1
1
1
1
1
1
1
1
1
1
1
1
1
1
1
1
1
1
1
1
1
1
1
1
1
1
1
1
1
1
1
1
1
1
1
1
1
1
1
1
1
1
1
1
1
1
1
1
1
1
1
1
1
1
1
1
1
1
1
1
1
0.999999
0.999998
0.999997
0.999995
0.999993
0.99999
0.999988
0.999984
0.99998
0.999976
0.999972
0.999968
0.999964
0.999962
0.999961
0.99996
0.999962
0.999966
0.999972
0.99998
0.999991
1
1.00002
1.00004
1.00005
1.00007
1.00009
1.00011
1.00013
1.00014
1.00016
1.00017
1.00018
1.00018
1.00019
1.00019
1.00018
1.00018
1.00017
1.00017
1.00016
1.00015
1.00014
1.00012
1.00011
1.0001
1.00009
1.00008
1.00007
1.00006
1.00005
1.00004
1.00003
1.00003
1.00002
1.00002
1.00001
1.00001
1.00001
1
1
1
1
1
1
1
1
1
1
1
1
1
1
1
1
1
1
1
1
1
1
1
1
1
1
1
1
1
1
1
1
1
1
1
1
1
1
1
1
1
1
1
1
1
1
1
1
1
1
1
1
1
1
1
1
1
1
1
1
1
1
1
1
1
1
1
1
1
1
1
1
1
1
1
1
1
1
1
1
1
1
1
1
1
1
1
1
1
1
1
0.999999
0.999998
0.999996
0.999995
0.999992
0.999989
0.999985
0.999982
0.999977
0.999973
0.999969
0.999965
0.999962
0.99996
0.999961
0.999963
0.999967
0.999975
0.999987
1
1.00002
1.00004
1.00006
1.00008
1.00011
1.00014
1.00016
1.00019
1.00021
1.00023
1.00025
1.00026
1.00027
1.00027
1.00028
1.00027
1.00027
1.00026
1.00025
1.00023
1.00022
1.0002
1.00018
1.00017
1.00015
1.00013
1.00012
1.0001
1.00009
1.00007
1.00006
1.00005
1.00004
1.00003
1.00003
1.00002
1.00002
1.00001
1.00001
1.00001
1
1
1
1
1
1
1
1
1
1
1
1
1
1
1
1
1
1
1
1
1
1
1
1
1
1
1
1
1
1
1
1
1
1
1
1
1
1
1
1
1
1
1
1
1
1
1
1
1
1
1
1
1
1
1
1
1
1
1
1
1
1
1
1
1
1
1
1
1
1
1
1
1
1
1
1
1
1
1
1
1
1
1
1
1
1
1
1
1
1
0.999999
0.999997
0.999996
0.999994
0.99999
0.999987
0.999984
0.999979
0.999974
0.99997
0.999966
0.999963
0.999961
0.999962
0.999965
0.999972
0.999982
0.999996
1.00002
1.00004
1.00006
1.00009
1.00013
1.00016
1.0002
1.00024
1.00027
1.00031
1.00033
1.00036
1.00038
1.0004
1.0004
1.00041
1.00041
1.0004
1.00039
1.00037
1.00035
1.00033
1.0003
1.00028
1.00025
1.00022
1.0002
1.00017
1.00015
1.00013
1.00011
1.00009
1.00008
1.00006
1.00005
1.00004
1.00003
1.00003
1.00002
1.00001
1.00001
1.00001
1
1
1
1
1
1
1
1
1
1
1
1
1
1
1
1
1
1
1
1
1
1
1
1
1
1
1
1
1
1
1
1
1
1
1
1
1
1
1
1
1
1
1
1
1
1
1
1
1
1
1
1
1
1
1
1
1
1
1
1
1
1
1
1
1
1
1
1
1
1
1
1
1
1
1
1
1
1
1
1
1
1
1
1
1
1
1
1
1
1
0.999999
0.999997
0.999996
0.999993
0.99999
0.999985
0.999981
0.999977
0.999973
0.999968
0.999966
0.999965
0.999966
0.99997
0.999979
0.999993
1.00001
1.00004
1.00007
1.0001
1.00014
1.00019
1.00024
1.00029
1.00034
1.00039
1.00044
1.00048
1.00052
1.00056
1.00058
1.0006
1.00061
1.0006
1.0006
1.00058
1.00056
1.00053
1.00049
1.00046
1.00042
1.00038
1.00034
1.0003
1.00027
1.00023
1.0002
1.00017
1.00015
1.00012
1.0001
1.00008
1.00007
1.00005
1.00004
1.00003
1.00002
1.00002
1.00001
1.00001
1.00001
1
1
1
1
1
0.999999
0.999999
0.999999
0.999999
0.999999
1
1
1
1
1
1
1
1
1
1
1
1
1
1
1
1
1
1
1
1
1
1
1
1
1
1
1
1
1
1
1
1
1
1
1
1
1
1
1
1
1
1
1
1
1
1
1
1
1
1
1
1
1
1
1
1
1
1
1
1
1
1
1
1
1
1
1
1
1
1
1
1
1
1
1
1
1
1
1
1
0.999998
0.999995
0.999993
0.999989
0.999985
0.99998
0.999976
0.999972
0.99997
0.999969
0.999972
0.999978
0.999989
1.00001
1.00003
1.00006
1.0001
1.00015
1.0002
1.00026
1.00033
1.0004
1.00047
1.00055
1.00062
1.00069
1.00075
1.0008
1.00084
1.00087
1.00089
1.00089
1.00089
1.00087
1.00084
1.0008
1.00076
1.0007
1.00065
1.00059
1.00053
1.00047
1.00042
1.00036
1.00032
1.00027
1.00023
1.00019
1.00016
1.00013
1.00011
1.00008
1.00007
1.00005
1.00004
1.00003
1.00002
1.00001
1.00001
1.00001
1
1
1
1
0.999999
0.999999
0.999999
0.999999
0.999999
0.999999
0.999999
1
1
1
1
1
1
1
1
1
1
1
1
1
1
1
1
1
1
1
1
1
1
1
1
1
1
1
1
1
1
1
1
1
1
1
1
1
1
1
1
1
1
1
1
1
1
1
1
1
1
1
1
1
1
1
1
1
1
1
1
1
1
1
1
1
1
1
1
1
1
1
1
1
1
1
1
1
1
1
0.999998
0.999996
0.999993
0.999989
0.999985
0.999981
0.999977
0.999975
0.999975
0.999979
0.999987
1
1.00002
1.00005
1.00009
1.00014
1.0002
1.00027
1.00036
1.00045
1.00054
1.00065
1.00075
1.00085
1.00095
1.00104
1.00112
1.00119
1.00125
1.00128
1.0013
1.0013
1.00129
1.00126
1.00121
1.00115
1.00108
1.001
1.00092
1.00083
1.00074
1.00066
1.00058
1.0005
1.00043
1.00036
1.00031
1.00025
1.00021
1.00017
1.00014
1.00011
1.00008
1.00006
1.00005
1.00004
1.00003
1.00002
1.00001
1.00001
1
1
1
0.999999
0.999999
0.999999
0.999998
0.999999
0.999999
0.999999
0.999999
0.999999
1
1
1
1
1
1
1
1
1
1
1
1
1
1
1
1
1
1
1
1
1
1
1
1
1
1
1
1
1
1
1
1
1
1
1
1
1
1
1
1
1
1
1
1
1
1
1
1
1
1
1
1
1
1
1
1
1
1
1
1
1
1
1
1
1
1
1
1
1
1
1
1
1
1
1
1
1
1
0.999999
0.999996
0.999993
0.99999
0.999987
0.999983
0.999982
0.999983
0.999987
0.999997
1.00001
1.00004
1.00008
1.00013
1.00019
1.00027
1.00036
1.00047
1.00059
1.00072
1.00086
1.001
1.00114
1.00129
1.00142
1.00155
1.00166
1.00175
1.00182
1.00186
1.00188
1.00188
1.00185
1.0018
1.00173
1.00164
1.00153
1.00142
1.00129
1.00117
1.00104
1.00092
1.0008
1.00069
1.00059
1.0005
1.00041
1.00034
1.00028
1.00022
1.00018
1.00014
1.00011
1.00008
1.00006
1.00004
1.00003
1.00002
1.00001
1.00001
1
1
1
0.999999
0.999998
0.999998
0.999998
0.999998
0.999998
0.999999
0.999999
0.999999
0.999999
0.999999
1
1
1
1
1
1
1
1
1
1
1
1
1
1
1
1
1
1
1
1
1
1
1
1
1
1
1
1
1
1
1
1
1
1
1
1
1
1
1
1
1
1
1
1
1
1
1
1
1
1
1
1
1
1
1
1
1
1
1
1
1
1
1
1
1
1
1
1
1
1
1
1
1.00001
1
1
1
1
0.999998
0.999995
0.999992
0.99999
0.999989
0.999991
0.999997
1.00001
1.00003
1.00006
1.00011
1.00017
1.00024
1.00034
1.00046
1.00059
1.00075
1.00092
1.0011
1.0013
1.0015
1.0017
1.0019
1.00208
1.00225
1.0024
1.00251
1.0026
1.00266
1.00268
1.00267
1.00262
1.00255
1.00244
1.00231
1.00216
1.00199
1.00182
1.00163
1.00145
1.00128
1.00111
1.00095
1.00081
1.00068
1.00056
1.00046
1.00037
1.0003
1.00024
1.00018
1.00014
1.00011
1.00008
1.00006
1.00004
1.00003
1.00002
1.00001
1
1
0.999999
0.999998
0.999997
0.999997
0.999997
0.999997
0.999998
0.999998
0.999998
0.999999
0.999999
0.999999
0.999999
1
1
1
1
1
1
1
1
1
1
1
1
1
1
1
1
1
1
1
1
1
1
1
1
1
1
1
1
1
1
1
1
1
1
1
1
1
1
1
1
1
1
1
1
1
1
1
1
1
1
1
1
1
1
1
1
1
1
1
1
1
1
1
1
1
1
1
1
1
1.00001
1.00001
1.00001
1.00001
1.00001
1
1
1
0.999999
0.999998
0.999997
1
1.00001
1.00002
1.00005
1.00008
1.00013
1.00021
1.0003
1.00042
1.00056
1.00073
1.00092
1.00115
1.00139
1.00165
1.00192
1.00219
1.00247
1.00273
1.00298
1.00321
1.0034
1.00355
1.00367
1.00374
1.00376
1.00374
1.00367
1.00356
1.00341
1.00322
1.00301
1.00278
1.00253
1.00228
1.00202
1.00177
1.00154
1.00132
1.00111
1.00093
1.00077
1.00063
1.0005
1.0004
1.00031
1.00024
1.00019
1.00014
1.0001
1.00007
1.00005
1.00003
1.00002
1.00001
1
1
0.999998
0.999997
0.999996
0.999996
0.999996
0.999996
0.999997
0.999997
0.999998
0.999998
0.999999
0.999999
0.999999
0.999999
1
1
1
1
1
1
1
1
1
1
1
1
1
1
1
1
1
1
1
1
1
1
1
1
1
1
1
1
1
1
1
1
1
1
1
1
1
1
1
1
1
1
1
1
1
1
1
1
1
1
1
1
1
1
1
1
1
1
1
1
1
1
1
1
1
1
1.00001
1.00001
1.00001
1.00001
1.00001
1.00001
1.00001
1.00001
1.00001
1.00001
1.00001
1.00001
1.00001
1.00002
1.00003
1.00006
1.0001
1.00016
1.00025
1.00035
1.00049
1.00067
1.00087
1.00112
1.00139
1.0017
1.00204
1.00239
1.00276
1.00314
1.00351
1.00386
1.00419
1.00448
1.00474
1.00494
1.00508
1.00517
1.0052
1.00516
1.00506
1.0049
1.0047
1.00444
1.00415
1.00383
1.00349
1.00314
1.00279
1.00245
1.00212
1.00181
1.00153
1.00128
1.00105
1.00085
1.00068
1.00054
1.00042
1.00033
1.00025
1.00018
1.00013
1.00009
1.00006
1.00004
1.00003
1.00001
1.00001
1
0.999997
0.999995
0.999994
0.999994
0.999995
0.999995
0.999996
0.999997
0.999997
0.999998
0.999998
0.999999
0.999999
0.999999
1
1
1
1
1
1
1
1
1
1
1
1
1
1
1
1
1
1
1
1
1
1
1
1
1
1
1
1
1
1
1
1
1
1
1
1
1
1
1
1
1
1
1
1
1
1
1
1
1
1
1
1
1
1
1
1
1
1
1
1
1
1
1
1
1
1.00001
1.00001
1.00001
1.00001
1.00001
1.00001
1.00001
1.00001
1.00001
1.00001
1.00001
1.00001
1.00002
1.00003
1.00005
1.00008
1.00012
1.00019
1.00028
1.00041
1.00057
1.00077
1.00102
1.00131
1.00165
1.00204
1.00246
1.00292
1.0034
1.0039
1.00439
1.00488
1.00535
1.00577
1.00616
1.00648
1.00674
1.00692
1.00703
1.00706
1.007
1.00687
1.00666
1.00638
1.00604
1.00565
1.00522
1.00477
1.0043
1.00382
1.00335
1.00291
1.00249
1.0021
1.00175
1.00144
1.00117
1.00093
1.00074
1.00057
1.00044
1.00033
1.00024
1.00018
1.00012
1.00008
1.00005
1.00003
1.00002
1.00001
1
0.999996
0.999993
0.999992
0.999992
0.999993
0.999994
0.999995
0.999995
0.999996
0.999997
0.999998
0.999998
0.999999
0.999999
0.999999
1
1
1
1
1
1
1
1
1
1
1
1
1
1
1
1
1
1
1
1
1
1
1
1
1
1
1
1
1
1
1
1
1
1
1
1
1
1
1
1
1
1
1
1
1
1
1
1
1
1
1
1
1
1
1
1
1
1
1
1
1
1
1
1.00001
1.00001
1.00001
1.00001
1.00001
1.00001
1.00002
1.00002
1.00002
1.00002
1.00002
1.00002
1.00003
1.00004
1.00006
1.00009
1.00014
1.00021
1.00032
1.00046
1.00064
1.00087
1.00116
1.00151
1.00192
1.00239
1.00291
1.00348
1.00409
1.00473
1.00538
1.00603
1.00666
1.00726
1.00781
1.00829
1.0087
1.00903
1.00926
1.00939
1.00942
1.00935
1.00917
1.0089
1.00854
1.0081
1.00759
1.00703
1.00643
1.00581
1.00518
1.00455
1.00395
1.00339
1.00286
1.00238
1.00196
1.00159
1.00127
1.001
1.00078
1.00059
1.00045
1.00033
1.00024
1.00017
1.00011
1.00007
1.00004
1.00002
1.00001
1
0.999994
0.999991
0.99999
0.99999
0.999991
0.999992
0.999993
0.999994
0.999995
0.999996
0.999997
0.999998
0.999998
0.999999
0.999999
0.999999
1
1
1
1
1
1
1
1
1
1
1
1
1
1
1
1
1
1
1
1
1
1
1
1
1
1
1
1
1
1
1
1
1
1
1
1
1
1
1
1
1
1
1
1
1
1
1
1
1
1
1
1
1
1
1
1
1
1
1
1
1
1.00001
1.00001
1.00001
1.00001
1.00001
1.00002
1.00002
1.00002
1.00002
1.00003
1.00003
1.00003
1.00004
1.00005
1.00007
1.00011
1.00016
1.00023
1.00035
1.0005
1.0007
1.00096
1.00129
1.0017
1.00217
1.00273
1.00336
1.00406
1.00482
1.00562
1.00645
1.00729
1.00812
1.00892
1.00967
1.01036
1.01096
1.01147
1.01187
1.01215
1.01231
1.01234
1.01225
1.01203
1.01169
1.01124
1.01068
1.01004
1.00933
1.00855
1.00775
1.00693
1.00611
1.00532
1.00457
1.00387
1.00323
1.00266
1.00216
1.00172
1.00136
1.00105
1.0008
1.0006
1.00044
1.00032
1.00022
1.00015
1.0001
1.00006
1.00003
1.00001
1
0.999993
0.999989
0.999988
0.999988
0.999988
0.99999
0.999991
0.999993
0.999994
0.999995
0.999996
0.999997
0.999998
0.999998
0.999999
0.999999
0.999999
1
1
1
1
1
1
1
1
1
1
1
1
1
1
1
1
1
1
1
1
1
1
1
1
1
1
1
1
1
1
1
1
1
1
1
1
1
1
1
1
1
1
1
1
1
1
1
1
1
1
1
1
1
1
1
1
1
1
1
1.00001
1.00001
1.00001
1.00001
1.00001
1.00002
1.00002
1.00002
1.00003
1.00003
1.00003
1.00004
1.00005
1.00006
1.00008
1.00012
1.00017
1.00025
1.00037
1.00053
1.00075
1.00104
1.0014
1.00186
1.00241
1.00306
1.0038
1.00464
1.00556
1.00654
1.00757
1.00862
1.00968
1.01072
1.01171
1.01263
1.01346
1.01419
1.0148
1.01528
1.01561
1.0158
1.01584
1.01573
1.01546
1.01506
1.01451
1.01384
1.01305
1.01216
1.0112
1.01019
1.00915
1.0081
1.00708
1.0061
1.00518
1.00434
1.00358
1.00291
1.00233
1.00184
1.00143
1.00109
1.00082
1.0006
1.00043
1.0003
1.0002
1.00013
1.00008
1.00004
1.00002
1
0.999993
0.999987
0.999985
0.999984
0.999985
0.999987
0.999989
0.999991
0.999992
0.999994
0.999995
0.999996
0.999997
0.999998
0.999999
0.999999
0.999999
1
1
1
1
1
1
1
1
1
1
1
1
1
1
1
1
1
1
1
1
1
1
1
1
1
1
1
1
1
1
1
1
1
1
1
1
1
1
1
1
1
1
1
1
1
1
1
1
1
1
1
1
1
1
1
1
1
1
1
1.00001
1.00001
1.00001
1.00001
1.00002
1.00002
1.00003
1.00003
1.00004
1.00004
1.00005
1.00006
1.00007
1.00009
1.00013
1.00018
1.00026
1.00038
1.00055
1.00078
1.00109
1.00149
1.002
1.00262
1.00336
1.00422
1.0052
1.00628
1.00746
1.00871
1.01
1.01131
1.0126
1.01386
1.01505
1.01614
1.01712
1.01797
1.01868
1.01923
1.01961
1.01983
1.01988
1.01975
1.01945
1.01898
1.01835
1.01756
1.01663
1.01557
1.01442
1.01318
1.01189
1.01059
1.00929
1.00804
1.00686
1.00577
1.00477
1.00389
1.00313
1.00247
1.00192
1.00147
1.0011
1.00081
1.00059
1.00041
1.00028
1.00018
1.00011
1.00006
1.00003
1.00001
0.999993
0.999985
0.999982
0.999981
0.999982
0.999984
0.999986
0.999988
0.99999
0.999992
0.999994
0.999996
0.999997
0.999998
0.999998
0.999999
0.999999
0.999999
1
1
1
1
1
1
1
1
1
1
1
1
1
1
1
1
1
1
1
1
1
1
1
1
1
1
1
1
1
1
1
1
1
1
1
1
1
1
1
1
1
1
1
1
1
1
1
1
1
1
1
1
1
1
1
1
1
1.00001
1.00001
1.00001
1.00001
1.00002
1.00002
1.00003
1.00003
1.00004
1.00004
1.00005
1.00006
1.00008
1.0001
1.00013
1.00019
1.00027
1.00039
1.00056
1.0008
1.00113
1.00156
1.0021
1.00278
1.00361
1.00458
1.0057
1.00696
1.00834
1.00982
1.01137
1.01295
1.01453
1.01607
1.01754
1.01892
1.02017
1.02128
1.02223
1.02301
1.02361
1.02403
1.02427
1.02432
1.02418
1.02386
1.02335
1.02266
1.02178
1.02074
1.01953
1.01819
1.01673
1.01519
1.01361
1.01202
1.01046
1.00897
1.00758
1.0063
1.00516
1.00416
1.0033
1.00258
1.00198
1.00149
1.0011
1.00079
1.00056
1.00038
1.00025
1.00016
1.00009
1.00004
1.00001
0.999995
0.999984
0.999979
0.999977
0.999978
0.99998
0.999983
0.999985
0.999988
0.999991
0.999993
0.999994
0.999996
0.999997
0.999998
0.999998
0.999999
0.999999
1
1
1
1
1
1
1
1
1
1
1
1
1
1
1
1
1
1
1
1
1
1
1
1
1
1
1
1
1
1
1
1
1
1
1
1
1
1
1
1
1
1
1
1
1
1
1
1
1
1
1
1
1
1
1
1
1.00001
1.00001
1.00001
1.00001
1.00002
1.00002
1.00003
1.00003
1.00004
1.00005
1.00006
1.00007
1.00008
1.00011
1.00014
1.00019
1.00027
1.00039
1.00056
1.0008
1.00114
1.00158
1.00217
1.0029
1.0038
1.00488
1.00614
1.00757
1.00916
1.01088
1.01269
1.01455
1.01642
1.01827
1.02003
1.02169
1.02322
1.02458
1.02576
1.02677
1.02758
1.0282
1.02863
1.02887
1.02893
1.0288
1.02847
1.02796
1.02724
1.02633
1.02522
1.02392
1.02244
1.0208
1.01903
1.01718
1.01529
1.0134
1.01157
1.00983
1.00822
1.00677
1.00548
1.00437
1.00342
1.00263
1.00199
1.00148
1.00107
1.00076
1.00052
1.00035
1.00022
1.00013
1.00007
1.00003
1
0.999984
0.999976
0.999974
0.999974
0.999976
0.999979
0.999982
0.999985
0.999988
0.999991
0.999993
0.999995
0.999996
0.999997
0.999998
0.999999
0.999999
0.999999
0.999999
1
1
1
1
1
1
1
1
1
1
1
1
1
1
1
1
1
1
1
1
1
1
1
1
1
1
1
1
1
1
1
1
1
1
1
1
1
1
1
1
1
1
1
1
1
1
1
1
1
1
1
1
1
1
1.00001
1.00001
1.00001
1.00002
1.00002
1.00003
1.00003
1.00004
1.00005
1.00006
1.00007
1.00009
1.00011
1.00014
1.00019
1.00027
1.00038
1.00055
1.00079
1.00113
1.00158
1.00219
1.00296
1.00393
1.0051
1.00649
1.00809
1.00988
1.01183
1.01391
1.01606
1.01824
1.02038
1.02244
1.02438
1.02615
1.02774
1.02913
1.03032
1.0313
1.03207
1.03266
1.03306
1.03329
1.03334
1.03322
1.03293
1.03246
1.03179
1.03092
1.02983
1.02852
1.02699
1.02525
1.02332
1.02124
1.01907
1.01686
1.01467
1.01256
1.01058
1.00876
1.00714
1.00572
1.0045
1.00348
1.00264
1.00197
1.00144
1.00102
1.00071
1.00048
1.00031
1.00018
1.0001
1.00004
1.00001
0.999987
0.999975
0.99997
0.99997
0.999972
0.999975
0.999979
0.999982
0.999986
0.999989
0.999992
0.999994
0.999995
0.999997
0.999998
0.999998
0.999999
0.999999
0.999999
1
1
1
1
1
1
1
1
1
1
1
1
1
1
1
1
1
1
1
1
1
1
1
1
1
1
1
1
1
1
1
1
1
1
0.999999
1
1
1
1
1
1
1
1
1
1
1
1
1
1
1
1
1
1
1.00001
1.00001
1.00001
1.00002
1.00002
1.00003
1.00003
1.00004
1.00005
1.00006
1.00007
1.00009
1.00011
1.00014
1.00019
1.00026
1.00037
1.00053
1.00076
1.00109
1.00155
1.00216
1.00296
1.00398
1.00523
1.00673
1.00848
1.01046
1.01265
1.01499
1.01743
1.01991
1.02235
1.02469
1.02688
1.02888
1.03065
1.03219
1.03349
1.03456
1.03542
1.03607
1.03655
1.03687
1.03705
1.03709
1.037
1.03678
1.03641
1.03587
1.03513
1.03419
1.03299
1.03154
1.02983
1.02786
1.02566
1.02329
1.02081
1.01828
1.01579
1.01341
1.01119
1.00918
1.0074
1.00586
1.00456
1.00348
1.00261
1.00191
1.00137
1.00096
1.00065
1.00042
1.00026
1.00015
1.00007
1.00002
0.999992
0.999975
0.999967
0.999965
0.999967
0.99997
0.999974
0.999979
0.999983
0.999987
0.99999
0.999992
0.999994
0.999996
0.999997
0.999998
0.999999
0.999999
0.999999
0.999999
1
1
1
1
1
1
1
1
1
1
1
1
1
1
1
1
1
1
1
1
1
1
1
1
1
1
1
1
1
1
1
1
1
1
1
1
1
1
1
1
1
1
1
1
1
1
1
1
1
1
1
1
1.00001
1.00001
1.00001
1.00002
1.00003
1.00003
1.00004
1.00005
1.00006
1.00007
1.00009
1.00011
1.00014
1.00019
1.00025
1.00035
1.0005
1.00072
1.00104
1.00149
1.0021
1.00291
1.00395
1.00526
1.00685
1.00873
1.01089
1.0133
1.0159
1.01862
1.02139
1.02411
1.02671
1.02913
1.03131
1.03322
1.03483
1.03616
1.03722
1.03804
1.03865
1.03909
1.03938
1.03956
1.03965
1.03967
1.03962
1.0395
1.03929
1.03896
1.03848
1.0378
1.03689
1.03569
1.03419
1.03235
1.0302
1.02776
1.02511
1.02233
1.0195
1.01672
1.01408
1.01164
1.00945
1.00754
1.0059
1.00453
1.00341
1.00252
1.00182
1.00128
1.00087
1.00058
1.00036
1.00021
1.00011
1.00004
1
0.999978
0.999966
0.999961
0.999962
0.999965
0.99997
0.999975
0.99998
0.999984
0.999988
0.999991
0.999993
0.999995
0.999996
0.999997
0.999998
0.999999
0.999999
0.999999
1
1
1
1
1
1
1
1
1
1
1
1
1
1
1
1
1
1
1
1
1
1
1
1
1
1
1
1
1
1
1
1
1
1
1
1
1
1
1
1
1
1
1
1
1
1
1
1
1
1
1
1.00001
1.00001
1.00001
1.00002
1.00002
1.00003
1.00004
1.00005
1.00006
1.00007
1.00009
1.00011
1.00014
1.00018
1.00024
1.00033
1.00047
1.00067
1.00097
1.0014
1.002
1.0028
1.00385
1.00519
1.00684
1.00883
1.01115
1.01375
1.01659
1.01959
1.02263
1.02563
1.02848
1.03109
1.03341
1.03538
1.03699
1.03826
1.0392
1.03987
1.04029
1.04054
1.04065
1.04068
1.04067
1.04064
1.04063
1.04062
1.04063
1.04063
1.04058
1.04045
1.04018
1.03971
1.03895
1.03786
1.03639
1.0345
1.03221
1.02957
1.02666
1.02358
1.02046
1.01742
1.01454
1.01191
1.00957
1.00754
1.00583
1.00442
1.00329
1.00239
1.00169
1.00117
1.00078
1.0005
1.0003
1.00016
1.00007
1.00002
0.999983
0.999966
0.999958
0.999957
0.99996
0.999965
0.999971
0.999976
0.999981
0.999985
0.999989
0.999992
0.999994
0.999996
0.999997
0.999998
0.999999
0.999999
0.999999
1
1
1
1
1
1
1
1
1
1
1
1
1
1
1
1
1
1
1
1
1
1
1
1
1
1
1
1
1
1
1
1
1
1
1
1
1
1
1
1
1
1
1
1
1
1
1
1
1
1
1.00001
1.00001
1.00001
1.00002
1.00002
1.00003
1.00004
1.00005
1.00006
1.00007
1.00009
1.00011
1.00014
1.00017
1.00023
1.00031
1.00043
1.00062
1.0009
1.0013
1.00186
1.00264
1.00368
1.00502
1.00671
1.00878
1.01121
1.01399
1.01705
1.0203
1.02361
1.02687
1.02995
1.03273
1.03514
1.03712
1.03866
1.03978
1.0405
1.04088
1.04099
1.04091
1.04069
1.04042
1.04013
1.03988
1.03971
1.03964
1.03968
1.03983
1.04006
1.04035
1.04064
1.04088
1.04098
1.04084
1.04038
1.0395
1.03813
1.03625
1.03386
1.03104
1.02788
1.02454
1.02115
1.01786
1.01478
1.01198
1.00952
1.00742
1.00567
1.00424
1.0031
1.00222
1.00155
1.00104
1.00068
1.00042
1.00024
1.00012
1.00004
0.999994
0.999968
0.999956
0.999953
0.999955
0.99996
0.999966
0.999972
0.999977
0.999982
0.999987
0.99999
0.999993
0.999995
0.999996
0.999997
0.999998
0.999999
0.999999
0.999999
1
1
1
1
1
1
1
1
1
1
1
1
1
1
1
1
1
1
1
1
1
1
1
1
1
1
1
1
1
1
1
1
1
1
1
1
1
1
1
1
1
1
1
1
1
1
1
1
1
1.00001
1.00001
1.00001
1.00002
1.00002
1.00003
1.00004
1.00005
1.00007
1.00008
1.0001
1.00013
1.00017
1.00021
1.00029
1.0004
1.00056
1.00081
1.00118
1.00171
1.00244
1.00344
1.00477
1.00646
1.00856
1.01108
1.014
1.01725
1.02074
1.02431
1.02782
1.0311
1.03404
1.03651
1.03846
1.03987
1.04076
1.04117
1.04117
1.04087
1.04033
1.03966
1.03893
1.03822
1.03759
1.03709
1.03676
1.03663
1.03671
1.03699
1.03746
1.03809
1.03884
1.03962
1.04037
1.04097
1.04129
1.04122
1.04063
1.03944
1.0376
1.03514
1.03215
1.02877
1.02518
1.02154
1.01803
1.01478
1.01185
1.00931
1.00717
1.00541
1.00399
1.00287
1.00202
1.00138
1.00091
1.00057
1.00034
1.00018
1.00008
1.00001
0.999975
0.999957
0.99995
0.99995
0.999955
0.999961
0.999967
0.999974
0.999979
0.999984
0.999988
0.999991
0.999994
0.999996
0.999997
0.999998
0.999998
0.999999
0.999999
1
1
1
1
1
1
1
1
1
1
1
1
1
1
1
1
1
1
1
1
1
1
1
1
1
1
1
1
1
1
1
1
1
1
1
1
1
1
1
1
1
1
1
1
1
1
1
1
1
1.00001
1.00001
1.00002
1.00002
1.00003
1.00004
1.00005
1.00006
1.00008
1.0001
1.00012
1.00016
1.0002
1.00026
1.00036
1.00051
1.00073
1.00106
1.00154
1.00222
1.00317
1.00444
1.0061
1.0082
1.01076
1.01378
1.01719
1.02088
1.02469
1.02845
1.03195
1.03502
1.03755
1.03944
1.04068
1.04129
1.04133
1.04089
1.04008
1.03901
1.03779
1.03651
1.03527
1.03414
1.03318
1.03244
1.03196
1.03176
1.03186
1.03226
1.03295
1.03389
1.03506
1.03638
1.03778
1.03915
1.04035
1.04123
1.04162
1.04137
1.04038
1.03859
1.03606
1.03291
1.02931
1.02547
1.02162
1.01793
1.01454
1.01154
1.00896
1.00681
1.00506
1.00368
1.00261
1.0018
1.0012
1.00077
1.00047
1.00026
1.00012
1.00004
0.999987
0.99996
0.999948
0.999946
0.999949
0.999956
0.999963
0.99997
0.999976
0.999982
0.999986
0.99999
0.999993
0.999995
0.999996
0.999997
0.999998
0.999999
0.999999
1
1
1
1
1
1
1
1
1
1
1
1
1
1
1
1
1
1
1
1
1
1
1
1
1
1
1
1
1
1
1
1
1
1
1
1
1
1
1
1
1
1
1
1
1
1
1
1
1.00001
1.00001
1.00001
1.00002
1.00002
1.00003
1.00004
1.00006
1.00007
1.00009
1.00012
1.00015
1.00018
1.00024
1.00033
1.00045
1.00065
1.00093
1.00136
1.00198
1.00286
1.00405
1.00565
1.0077
1.01026
1.01332
1.01685
1.02072
1.02476
1.02875
1.03247
1.0357
1.03829
1.04012
1.04118
1.04149
1.04113
1.04021
1.03885
1.0372
1.03538
1.03349
1.03166
1.02996
1.02845
1.02721
1.02627
1.02565
1.0254
1.02551
1.026
1.02685
1.02805
1.02957
1.03136
1.03334
1.03543
1.03749
1.03935
1.04082
1.0417
1.04181
1.041
1.03926
1.03664
1.0333
1.02948
1.02543
1.02139
1.01756
1.01408
1.01104
1.00847
1.00635
1.00465
1.00333
1.00232
1.00157
1.00102
1.00063
1.00037
1.00019
1.00007
1.00001
0.999967
0.999949
0.999943
0.999945
0.999951
0.999958
0.999965
0.999973
0.999979
0.999984
0.999988
0.999991
0.999994
0.999996
0.999997
0.999998
0.999998
0.999999
0.999999
1
1
1
1
1
1
1
1
1
1
1
1
1
1
1
1
1
1
1
1
1
1
1
1
1
1
1
1
1
1
1
1
1
1
1
1
1
1
1
1
1
1
1
1
1
1
1
1.00001
1.00001
1.00002
1.00002
1.00003
1.00004
1.00005
1.00007
1.00008
1.00011
1.00013
1.00017
1.00022
1.00029
1.0004
1.00057
1.00082
1.00119
1.00174
1.00253
1.00363
1.00513
1.0071
1.0096
1.01266
1.01625
1.02025
1.0245
1.02873
1.03267
1.03608
1.03875
1.04056
1.04145
1.04147
1.04071
1.0393
1.0374
1.03515
1.03271
1.03021
1.02777
1.02547
1.02339
1.0216
1.02013
1.01903
1.01832
1.01801
1.01813
1.01867
1.01964
1.02103
1.02281
1.02495
1.0274
1.03009
1.0329
1.03567
1.03821
1.04028
1.04163
1.04205
1.04139
1.03963
1.03688
1.03334
1.0293
1.02504
1.02085
1.01693
1.01342
1.01039
1.00786
1.00581
1.0042
1.00295
1.00202
1.00133
1.00084
1.0005
1.00027
1.00012
1.00003
0.999979
0.999952
0.999941
0.999941
0.999946
0.999953
0.999961
0.999969
0.999976
0.999982
0.999986
0.99999
0.999993
0.999995
0.999997
0.999997
0.999998
0.999999
0.999999
1
1
1
1
1
1
1
1
1
1
1
1
1
1
1
1
1
1
1
1
1
1
1
1
1
1
1
1
1
1
1
1
1
1
1
1
1
1
1
1
1
1
1
1
1
1
1.00001
1.00001
1.00001
1.00002
1.00002
1.00003
1.00004
1.00006
1.00007
1.0001
1.00012
1.00016
1.0002
1.00026
1.00035
1.00049
1.0007
1.00102
1.0015
1.0022
1.00319
1.00457
1.00641
1.00881
1.0118
1.01539
1.01949
1.0239
1.02836
1.03255
1.03618
1.03898
1.0408
1.04158
1.04135
1.04022
1.03835
1.03591
1.03309
1.03006
1.02695
1.0239
1.02102
1.01837
1.01603
1.01404
1.01243
1.01122
1.01044
1.0101
1.01021
1.01078
1.01181
1.01331
1.01525
1.01764
1.02042
1.02355
1.02694
1.03047
1.03395
1.03714
1.03977
1.04153
1.04218
1.04158
1.03973
1.03679
1.03302
1.02876
1.02433
1.02004
1.01607
1.01258
1.00961
1.00717
1.00522
1.00371
1.00256
1.00171
1.0011
1.00067
1.00038
1.00019
1.00007
0.999998
0.999959
0.999942
0.999938
0.999941
0.999948
0.999957
0.999965
0.999972
0.999979
0.999984
0.999989
0.999992
0.999994
0.999996
0.999997
0.999998
0.999999
0.999999
1
1
1
1
1
1
1
1
1
1
1
1
1
1
1
1
1
1
1
1
1
1
1
1
1
1
1
1
1
1
1
1
1
1
1
1
1
1
1
1
1
1
1
1
1
1
1.00001
1.00001
1.00001
1.00002
1.00003
1.00004
1.00005
1.00007
1.00008
1.00011
1.00014
1.00018
1.00023
1.00031
1.00043
1.0006
1.00087
1.00128
1.00188
1.00276
1.00399
1.00568
1.00793
1.0108
1.01432
1.01844
1.02297
1.02764
1.0321
1.03598
1.03898
1.04088
1.04161
1.0412
1.03977
1.03749
1.03457
1.03121
1.02761
1.02393
1.02031
1.01686
1.01368
1.01082
1.00832
1.00622
1.00453
1.00328
1.00246
1.0021
1.00219
1.00276
1.0038
1.00534
1.00736
1.00987
1.01285
1.01627
1.02006
1.02415
1.02837
1.03253
1.03632
1.03942
1.04148
1.04225
1.04159
1.03956
1.03637
1.03235
1.02787
1.02331
1.01896
1.01502
1.0116
1.00874
1.00642
1.00461
1.00321
1.00217
1.00142
1.00089
1.00052
1.00027
1.00012
1.00002
0.999971
0.999945
0.999936
0.999937
0.999944
0.999952
0.999961
0.999969
0.999976
0.999982
0.999987
0.999991
0.999993
0.999995
0.999996
0.999997
0.999998
0.999999
0.999999
0.999999
1
1
1
1
1
1
1
1
1
1
1
1
1
1
1
1
1
1
1
1
1
1
1
1
1
1
1
1
1
1
1
1
1
1
1
1
1
1
1
1
1
1
1
1
1.00001
1.00001
1.00002
1.00002
1.00003
1.00004
1.00006
1.00007
1.0001
1.00012
1.00016
1.00021
1.00027
1.00037
1.00051
1.00074
1.00107
1.00159
1.00234
1.00342
1.00494
1.00699
1.00969
1.01307
1.01713
1.02172
1.02657
1.0313
1.03548
1.03875
1.04083
1.04161
1.0411
1.03945
1.03683
1.03348
1.02964
1.02552
1.0213
1.01715
1.01319
1.0095
1.00615
1.00319
1.00063
0.998499
0.996797
0.99553
0.994702
0.994319
0.99439
0.994928
0.995948
0.997463
0.999489
1.00203
1.00509
1.00865
1.01269
1.01713
1.02189
1.02678
1.03155
1.03586
1.03931
1.04154
1.04228
1.04143
1.03912
1.03561
1.03132
1.02666
1.02202
1.01767
1.0138
1.01051
1.0078
1.00564
1.00398
1.00272
1.0018
1.00114
1.00069
1.00038
1.00018
1.00006
0.999989
0.999952
0.999937
0.999935
0.99994
0.999948
0.999957
0.999966
0.999973
0.99998
0.999985
0.999989
0.999992
0.999995
0.999996
0.999997
0.999998
0.999999
0.999999
1
1
1
1
1
1
1
1
1
1
1
1
1
1
1
1
1
1
1
1
1
1
1
1
1
1
1
1
1
1
1
1
1
1
1
1
1
1
1
1
1
1
1
1
1.00001
1.00001
1.00001
1.00002
1.00003
1.00004
1.00005
1.00006
1.00008
1.00011
1.00014
1.00018
1.00024
1.00032
1.00043
1.00062
1.00089
1.00132
1.00195
1.00288
1.00421
1.00605
1.00851
1.0117
1.01562
1.02018
1.02515
1.03013
1.03465
1.03826
1.04063
1.04157
1.04108
1.0393
1.03644
1.03274
1.02848
1.02389
1.01919
1.01454
1.01009
1.00594
1.00214
0.998747
0.995781
0.993248
0.991148
0.989475
0.988228
0.987402
0.987002
0.987038
0.987522
0.988475
0.989921
0.991883
0.99438
0.997425
1.00102
1.00516
1.0098
1.01489
1.02029
1.02581
1.03111
1.03581
1.03947
1.04169
1.04223
1.04106
1.03836
1.03451
1.02996
1.02516
1.02048
1.0162
1.01247
1.00935
1.00683
1.00486
1.00336
1.00225
1.00145
1.00089
1.00051
1.00026
1.00011
1.00001
0.999964
0.99994
0.999934
0.999936
0.999944
0.999953
0.999962
0.99997
0.999978
0.999983
0.999988
0.999991
0.999994
0.999995
0.999997
0.999998
0.999999
0.999999
1
1
1
1
1
1
1
1
1
1
1
1
1
1
1
1
1
1
1
1
1
1
1
1
1
1
1
1
1
1
1
1
1
1
1
1
1
1
1
1
1
1
1
1
1.00001
1.00001
1.00001
1.00002
1.00003
1.00004
1.00005
1.00007
1.00009
1.00012
1.00016
1.0002
1.00027
1.00037
1.00051
1.00074
1.00108
1.0016
1.00238
1.00352
1.00513
1.00733
1.01025
1.01395
1.0184
1.0234
1.02859
1.03346
1.03749
1.04024
1.04147
1.04114
1.03937
1.03636
1.03241
1.0278
1.0228
1.01765
1.01255
1.00764
1.00304
0.998829
0.995042
0.991702
0.988813
0.986365
0.984343
0.982734
0.981525
0.98071
0.980291
0.980278
0.980687
0.981541
0.982872
0.984714
0.987098
0.990051
0.993591
0.997723
1.00244
1.00769
1.01341
1.01943
1.0255
1.03124
1.03619
1.03987
1.0419
1.04206
1.04043
1.03728
1.03306
1.02828
1.02339
1.01876
1.01461
1.01108
1.00817
1.00587
1.0041
1.00278
1.00182
1.00114
1.00067
1.00037
1.00017
1.00005
0.999981
0.999947
0.999934
0.999934
0.99994
0.999949
0.999959
0.999967
0.999975
0.999982
0.999987
0.99999
0.999993
0.999995
0.999996
0.999998
0.999998
0.999999
0.999999
1
1
1
1
1
1
1
1
1
1
1
1
1
1
1
1
1
1
1
1
1
1
1
1
1
1
1
1
1
1
1
1
1
1
1
1
1
1
1
1
1
1
1
1.00001
1.00001
1.00002
1.00002
1.00003
1.00004
1.00006
1.00008
1.0001
1.00013
1.00017
1.00023
1.00031
1.00043
1.0006
1.00088
1.0013
1.00194
1.00289
1.00426
1.00619
1.0088
1.0122
1.01643
1.02136
1.02668
1.03188
1.03637
1.03961
1.04128
1.04125
1.03962
1.0366
1.0325
1.02762
1.02228
1.01673
1.0112
1.00586
1.00084
0.996227
0.99207
0.988388
0.985178
0.982427
0.98011
0.9782
0.976674
0.975517
0.974719
0.974279
0.974206
0.97452
0.97525
0.97643
0.978102
0.980311
0.983101
0.986503
0.990541
0.995218
1.00052
1.00639
1.01273
1.01934
1.02589
1.03193
1.03695
1.04044
1.04206
1.04168
1.03947
1.03583
1.03127
1.02631
1.02141
1.0169
1.01295
1.00966
1.00701
1.00495
1.00339
1.00225
1.00143
1.00087
1.00049
1.00024
1.00009
1
0.999957
0.999937
0.999933
0.999937
0.999946
0.999955
0.999964
0.999973
0.99998
0.999985
0.999989
0.999992
0.999994
0.999996
0.999997
0.999998
0.999999
0.999999
1
1
1
1
1
1
1
1
1
1
1
1
1
1
1
1
1
1
1
1
1
1
1
1
1
1
1
1
1
1
1
1
1
1
1
1
1
1
1
1
1
1
1.00001
1.00001
1.00001
1.00002
1.00003
1.00003
1.00005
1.00006
1.00009
1.00011
1.00015
1.00019
1.00026
1.00035
1.00049
1.00071
1.00104
1.00156
1.00233
1.00348
1.00511
1.00739
1.01045
1.01436
1.0191
1.02443
1.02989
1.03485
1.03867
1.04091
1.04134
1.04001
1.03712
1.03299
1.02795
1.02233
1.01643
1.01051
1.00476
0.999332
0.99433
0.989812
0.985802
0.982298
0.979278
0.976707
0.974551
0.972774
0.971347
0.970248
0.96947
0.969009
0.968875
0.969087
0.969675
0.970679
0.972145
0.974129
0.97669
0.979879
0.983737
0.988286
0.993528
0.999435
1.00594
1.01288
1.02001
1.02693
1.03311
1.03798
1.04105
1.04206
1.04099
1.03815
1.03401
1.02916
1.02411
1.01928
1.01496
1.01127
1.00826
1.00589
1.00408
1.00273
1.00177
1.00109
1.00063
1.00033
1.00014
1.00003
0.999972
0.999943
0.999934
0.999936
0.999943
0.999952
0.999962
0.99997
0.999978
0.999984
0.999988
0.999992
0.999994
0.999996
0.999997
0.999998
0.999999
0.999999
1
1
1
1
1
1
1
1
1
1
1
1
1
1
1
1
1
1
1
1
1
1
1
1
1
1
1
1
1
1
1
1
1
1
1
1
1
1
1
1
1
1
1.00001
1.00001
1.00001
1.00002
1.00003
1.00004
1.00005
1.00007
1.00009
1.00012
1.00016
1.00022
1.00029
1.0004
1.00057
1.00083
1.00123
1.00185
1.00278
1.00415
1.00608
1.00875
1.01227
1.0167
1.0219
1.0275
1.03288
1.03733
1.04026
1.04132
1.04047
1.03788
1.03386
1.02876
1.02296
1.01677
1.01049
1.00434
0.998512
0.993122
0.988244
0.98391
0.98012
0.97685
0.974055
0.971691
0.969709
0.968071
0.966744
0.965706
0.964949
0.964473
0.964285
0.964402
0.964853
0.965677
0.966921