/*--------------------------------*- C++ -*----------------------------------*\
  =========                 |
  \\      /  F ield         | OpenFOAM: The Open Source CFD Toolbox
   \\    /   O peration     | Website:  https://openfoam.org
    \\  /    A nd           | Version:  6
     \\/     M anipulation  |
\*---------------------------------------------------------------------------*/
FoamFile
{
    version     2.0;
    format      ascii;
    class       volScalarField;
    location    "1.12";
    object      p;
}
// * * * * * * * * * * * * * * * * * * * * * * * * * * * * * * * * * * * * * //

dimensions      [0 2 -2 0 0 0 0];

internalField   nonuniform List<scalar> 
800
(
-31.2543
-129.966
-153.437
-121.205
-123.702
-116.036
-77.8948
-77.4971
-115.119
-125.201
-134.728
-179.305
-191.254
-145.086
-113.603
-205.797
-308.232
-290.417
-276.196
21.6365
-50.4722
-131.225
-157.166
-118.073
-130.393
-115.368
-78.5649
-77.7808
-115.204
-125.641
-138.083
-179.489
-193.655
-145.171
-115.533
-196.192
-315.395
-292.958
-277.247
20.0297
-52.4088
-132.394
-156.53
-119.309
-131.668
-112.858
-78.2774
-78.2069
-114.833
-126.405
-139.26
-180.027
-190.522
-145.754
-120.037
-194.258
-313.778
-293.255
-280.046
18.7322
-45.4006
-134.633
-155.858
-120.114
-135.364
-109.547
-78.9777
-79.4132
-114.412
-126.851
-139.09
-181.453
-189.029
-145.687
-125.089
-184.94
-312.589
-296.096
-282.423
16.3235
-43.122
-133.904
-156.704
-121.277
-138.901
-106.079
-79.4409
-79.8948
-114.76
-127.633
-140.681
-185.272
-184.616
-143.765
-135.617
-174.5
-311.424
-299.05
-283.872
11.1546
-43.2919
-134.507
-157.14
-124.35
-142.413
-102.617
-78.4533
-79.5213
-115.572
-128.597
-140.991
-187.451
-177.708
-139.88
-155.269
-168.238
-306.534
-300.447
-287.096
3.10243
-45.6889
-135.505
-155.731
-126.142
-146.467
-102.711
-77.6953
-80.2711
-115.215
-128.227
-140.943
-187.691
-185.435
-133.657
-163.296
-164.897
-303.045
-307.398
-290.125
-8.34099
-45.0288
-135.748
-155.336
-128.111
-146.97
-103.997
-80.0645
-80.3618
-114.665
-126.274
-134.141
-185.084
-195.535
-132.807
-177.11
-166.357
-293.655
-311.746
-297.558
-22.0484
-48.1923
-136.228
-155.2
-130.285
-147.278
-105.399
-81.3713
-81.2889
-114.342
-126.387
-133.694
-185.567
-194.196
-137.706
-179.78
-171.221
-285.353
-323.05
-303.586
-38.2494
-50.7597
-132.08
-153.83
-134.399
-146.242
-103.93
-83.2569
-82.6914
-109.408
-125.259
-137.681
-188.004
-192.908
-143.753
-198.583
-164.811
-277.218
-332.06
-312.019
-54.8189
-53.4095
-129.711
-155.652
-138.813
-146.774
-96.8891
-86.3208
-83.4347
-106.66
-125.278
-137.102
-189.738
-195.835
-154.471
-197.187
-165.181
-270.221
-343.842
-320.081
-70.511
-54.2808
-125.95
-156.196
-143.994
-144.44
-95.1496
-89.4834
-83.5743
-104.234
-126.467
-140.864
-190.177
-197.448
-160.305
-202.09
-163.192
-264.493
-352.674
-329.474
-86.073
-56.2552
-124.473
-159.534
-144.979
-148.258
-96.85
-89.9533
-82.3304
-103.936
-126.401
-139.37
-187.896
-200.42
-172.412
-209.635
-162.318
-255.853
-365.59
-338.318
-98.8512
-57.3398
-123.478
-160.097
-143.37
-146.793
-100.592
-91.0829
-82.5636
-104.404
-127.648
-140.183
-185.53
-203.141
-174.208
-228.574
-162.818
-246.991
-383.032
-347.455
-112.831
-58.5073
-123.921
-164.018
-137.598
-150.387
-105.101
-90.4669
-82.0834
-102.826
-127.538
-139.189
-181.561
-202.123
-182.274
-232.678
-160.658
-240.778
-393.592
-355.754
-121.109
-58.8458
-124.597
-162.442
-133.528
-149.974
-113.455
-93.5409
-81.8772
-101.974
-125.594
-139.023
-178.916
-201.815
-181.072
-241.922
-159.763
-234.125
-414.687
-362.993
-132.226
-59.4027
-125.826
-164.815
-125.66
-150.741
-116.719
-93.0593
-83.1874
-102.069
-125.846
-139.72
-176.51
-199.217
-186.43
-238.745
-156.883
-227.26
-416.872
-370.423
-134.953
-58.9725
-125.577
-163.398
-123.885
-148.893
-124.001
-95.9674
-83.598
-102.68
-125.772
-140.073
-175.001
-196.683
-188.122
-247.208
-154.513
-220.779
-433.092
-374.125
-141.776
-58.7947
-125.454
-162.724
-120.294
-148.192
-123.779
-96.7276
-85.199
-102.484
-127.143
-139.331
-172.855
-194.733
-193.217
-243.955
-151.391
-214.336
-424.618
-380.084
-139.42
-58.1298
-125.758
-161.127
-119.42
-144.26
-129.272
-99.1666
-86.199
-103.783
-127.288
-138.073
-171.332
-193.062
-198.202
-249.18
-148.095
-210.231
-435.418
-378.467
-140.93
-57.7439
-123.353
-157.29
-118.319
-143.436
-129.077
-100.574
-87.2022
-103.275
-127.132
-139.432
-168.719
-191.694
-202.905
-242.823
-145.69
-205.42
-415.99
-380.968
-135.618
-57.6603
-122.697
-155.443
-117.93
-140.016
-133.222
-101.634
-88.7897
-104.714
-125.627
-138.137
-167.209
-190.516
-207.342
-245.405
-142.999
-204.032
-418.322
-372.848
-131.917
-57.5919
-118.733
-151.471
-118.435
-137.58
-134.75
-102.011
-90.0515
-104.44
-125.634
-137.92
-165.371
-190.333
-213.401
-245.064
-143.459
-204.449
-402.868
-371.918
-127.259
-57.9739
-118.449
-150.345
-119.556
-137.85
-135.398
-101.752
-90.6811
-104.571
-126.14
-137.753
-164.08
-190.67
-216.55
-248.194
-138.624
-205.064
-402.572
-357.243
-117.521
-59.0836
-116.715
-144.753
-122.165
-134.57
-137.929
-100.333
-90.8227
-104.006
-126.532
-138.172
-162.392
-190.839
-222.1
-247.914
-139.305
-206.488
-384.77
-352.43
-115.948
-60.2658
-114.724
-143.74
-123.676
-136.967
-136.099
-99.6228
-90.6409
-104.795
-126.869
-138.748
-160.438
-191.106
-225.689
-245.16
-134.173
-208.809
-382.96
-338.119
-99.8642
-61.5116
-113.505
-140.656
-126.885
-131.015
-140.162
-97.9114
-90.6339
-104.085
-127.745
-139.185
-159.396
-191.567
-231.375
-241.24
-135.745
-212.605
-367.461
-332.569
-99.7713
-62.4086
-111.978
-139.981
-128.955
-132.975
-137.024
-96.4574
-90.3042
-104.542
-128.845
-139.804
-156.894
-192.184
-236.843
-231.476
-131.78
-217.337
-368.32
-326.62
-80.8884
-62.5237
-111.217
-138.108
-132.527
-125.964
-142.639
-94.6454
-90.3906
-104.807
-130.17
-139.841
-155.735
-193.016
-242.116
-221.189
-132.974
-221.449
-362.701
-324.377
-79.5594
-62.7565
-110.859
-137.13
-134.001
-125.038
-139.378
-93.4012
-90.2178
-104.895
-131.473
-139.78
-153.219
-194.104
-248.664
-212.589
-133.202
-226.157
-362.739
-324.651
-62.6498
-62.2659
-111.07
-135.842
-137.216
-117.503
-145.781
-92.2129
-90.1124
-104.992
-132.985
-139.436
-151.689
-195.809
-253.317
-198.113
-134.3
-228.85
-362.145
-323.752
-60.8562
-62.4427
-110.972
-134.871
-135.939
-113.439
-143.661
-91.4367
-89.9033
-104.736
-133.949
-138.621
-150.137
-195.869
-264.769
-191.797
-135.845
-230.882
-362.457
-325.774
-49.7162
-62.887
-111.566
-132.834
-136.89
-105.701
-146.091
-90.4246
-89.5723
-104.063
-134.889
-138.209
-149.003
-198.859
-270.638
-175.416
-136.78
-232.346
-365.079
-323.836
-49.3439
-63.1171
-111.65
-131.678
-134.122
-99.7155
-143.328
-88.9918
-88.8133
-103.465
-135.483
-137.243
-148.891
-197.048
-280.722
-165.523
-138.097
-231.941
-367.97
-322.278
-44.1928
-63.9118
-111.951
-129.841
-134.593
-93.0281
-134.644
-87.1465
-87.842
-102.376
-135.58
-136.874
-148.64
-196.789
-281.797
-154.869
-139.381
-233.202
-370.21
-321.274
-44.0076
-64.8287
-111.84
-127.909
-133.982
-87.3938
-130.018
-85.7908
-86.4797
-101.785
-135.662
-136.045
-148.199
-197.812
-289.267
-142.282
-140.873
-232.956
-374.234
-323.741
-38.5086
-64.964
-111.297
-127.428
-135.87
-81.7435
-117.573
-84.4589
-85.9545
-100.642
-135
-134.948
-149.775
-194.24
-288.976
-125.505
-140.117
-234.074
-372.561
-329.401
-34.6496
-65.0461
-111.615
-127.351
-135.75
-77.4615
-115.95
-85.2865
-85.9314
-100.28
-134.396
-134.716
-150.257
-208.138
-280.675
-112.269
-141.159
-232.397
-371.218
-340.934
-32.5507
-65.0611
-112.199
-125.863
-134.664
-73.1733
-117.645
-84.568
-85.9302
-99.3302
-133.717
-133.641
-152.485
-216.662
-281.276
-102.218
-140.489
-227.914
-369.54
-342.818
-20.8595
-65.1559
-112.708
-125.292
-131.704
-66.2189
-117.806
-84.132
-85.758
-99.0875
-132.77
-134.136
-155.031
-211.473
-275.427
-100.586
-138.278
-226.735
-370.302
-338.941
-20.1218
)
;

boundaryField
{
    piston
    {
        type            zeroGradient;
    }
    outlet
    {
        type            zeroGradient;
    }
    walls
    {
        type            zeroGradient;
    }
    front
    {
        type            empty;
    }
    back
    {
        type            empty;
    }
}


// ************************************************************************* //
