/*--------------------------------*- C++ -*----------------------------------*\
  =========                 |
  \\      /  F ield         | OpenFOAM: The Open Source CFD Toolbox
   \\    /   O peration     | Website:  https://openfoam.org
    \\  /    A nd           | Version:  6
     \\/     M anipulation  |
\*---------------------------------------------------------------------------*/
FoamFile
{
    version     2.0;
    format      ascii;
    class       volScalarField;
    location    "3.06";
    object      epsilon;
}
// * * * * * * * * * * * * * * * * * * * * * * * * * * * * * * * * * * * * * //

dimensions      [0 2 -3 0 0 0 0];

internalField   nonuniform List<scalar> 
4214
(
0.0201528
0.00986436
0.00622313
0.00499614
0.00476163
0.00506188
0.00579605
0.00702064
0.00889355
0.0116738
0.0157348
0.0215511
0.02963
0.040439
0.054504
0.0727477
0.0965155
0.123663
0.136124
0.10885
0.0784777
0.0592658
0.0472178
0.0404545
0.0351493
0.0301053
0.025328
0.0209887
0.0172062
0.0140175
0.0114042
0.00931608
0.00768982
0.00646296
0.00558397
0.00502759
0.00482657
0.00513787
0.00645118
0.010205
0.0206893
0.00790273
0.00556929
0.00465842
0.00443323
0.00461292
0.00512697
0.00601606
0.00739873
0.00947566
0.0125535
0.017072
0.023598
0.0327601
0.0451977
0.0617015
0.083464
0.111999
0.141717
0.146972
0.110036
0.0813883
0.0633863
0.0528053
0.0459
0.0395922
0.0334368
0.0276991
0.0226154
0.0182849
0.0147081
0.0118286
0.00956221
0.00781735
0.00650725
0.00555809
0.00491496
0.00455028
0.00448347
0.00482716
0.00590485
0.00855551
0.00539914
0.00448366
0.00419294
0.00426311
0.00460925
0.00524538
0.00625287
0.007779
0.0100563
0.0134378
0.0184366
0.0257304
0.0361125
0.0504934
0.0700148
0.0963152
0.129882
0.159355
0.154454
0.110604
0.0846837
0.0689435
0.0595531
0.051942
0.0443073
0.0368581
0.0300672
0.0241924
0.0192935
0.0153215
0.0121757
0.00973584
0.00788062
0.00649989
0.00550067
0.00480981
0.00437661
0.00417933
0.00424183
0.0046753
0.00578362
0.00441799
0.0040279
0.00399353
0.00420583
0.00465097
0.00537688
0.00648608
0.00814697
0.0106224
0.0143157
0.0198245
0.0279635
0.0397376
0.0564284
0.0796604
0.111568
0.150698
0.178557
0.1623
0.113418
0.0902944
0.0768507
0.0676669
0.0586665
0.049343
0.0404259
0.0324976
0.0257858
0.0202902
0.0159052
0.0124835
0.00986653
0.00790231
0.0064569
0.00541893
0.00470014
0.00423481
0.00398082
0.00392506
0.00410041
0.00463324
0.00394309
0.00379768
0.00389285
0.00418813
0.00470194
0.00549982
0.00669863
0.00848532
0.0111535
0.0151611
0.0212028
0.0302604
0.0436212
0.0630735
0.0909025
0.129643
0.174132
0.197208
0.168235
0.117244
0.0978793
0.0866883
0.0768847
0.0659901
0.0547311
0.0442256
0.0350872
0.0274836
0.0213473
0.0165158
0.0127947
0.0099856
0.00790448
0.00639229
0.00531864
0.00458054
0.0040997
0.00382038
0.00370992
0.00376535
0.0040363
0.00367928
0.00366266
0.00383177
0.00418071
0.00474515
0.00560168
0.00687858
0.00878051
0.011633
0.0159535
0.0225483
0.0326035
0.0477803
0.0705147
0.104081
0.150911
0.200118
0.215516
0.173851
0.123176
0.108105
0.0984978
0.0872558
0.0740462
0.0606622
0.0484652
0.0380318
0.0294537
0.0226008
0.0172594
0.0131896
0.0101527
0.00793047
0.00633652
0.00521971
0.00446126
0.00397035
0.00367976
0.00354387
0.00354031
0.00368109
0.00351064
0.00356797
0.00378242
0.00416747
0.00476937
0.00567274
0.0070159
0.00902094
0.0120466
0.016675
0.0238385
0.0349718
0.0522303
0.0789222
0.119622
0.175741
0.228418
0.233252
0.179681
0.131269
0.121135
0.112246
0.0989145
0.0830893
0.067451
0.0534715
0.0416345
0.0319552
0.0242594
0.0182965
0.0137877
0.0104542
0.00804076
0.00633047
0.00514795
0.00435603
0.00384967
0.00355011
0.00340086
0.00336673
0.00343882
0.00338579
0.00348791
0.00373067
0.00413958
0.00476805
0.00570709
0.00710463
0.0092008
0.0123881
0.0173158
0.02506
0.0373614
0.0570345
0.0885765
0.138031
0.204546
0.259086
0.251058
0.186792
0.142017
0.137048
0.128069
0.112183
0.0935475
0.0755782
0.0597345
0.0463525
0.0353828
0.0266418
0.0198715
0.0147685
0.0110176
0.00832407
0.00643409
0.00514215
0.00428781
0.00374834
0.00343133
0.00326904
0.00321549
0.00324784
0.00327883
0.00340668
0.00366522
0.0040893
0.00473949
0.00571418
0.00717077
0.009362
0.0127
0.017916
0.0262601
0.0398528
0.0623931
0.0999588
0.15996
0.238009
0.292944
0.270027
0.196051
0.15578
0.15588
0.146282
0.127575
0.106046
0.0857214
0.0679443
0.0528427
0.0403138
0.03022
0.0223461
0.0163961
0.0120294
0.00890861
0.0067339
0.00525946
0.00429291
0.00368768
0.00333341
0.00314855
0.00307571
0.00308038
0.00317523
0.00331816
0.00358604
0.00401761
0.0046767
0.00566697
0.00715844
0.00943658
0.0129897
0.0186095
0.0276443
0.0427054
0.0687243
0.113696
0.186129
0.276931
0.331547
0.292167
0.208461
0.1727
0.177785
0.167406
0.14585
0.12146
0.0987901
0.079023
0.0620017
0.0475615
0.0356744
0.0262493
0.0190592
0.0137632
0.00998156
0.0073556
0.00558358
0.00442662
0.00370366
0.00327902
0.00305256
0.00295241
0.0029317
0.00308282
0.00323383
0.00350254
0.00393131
0.00458568
0.00557061
0.00705934
0.00934676
0.0129517
0.0188152
0.0286626
0.0456732
0.0760122
0.129531
0.21556
0.320099
0.375247
0.319505
0.224791
0.192846
0.203029
0.192182
0.168061
0.140973
0.115962
0.0941425
0.0749892
0.05822
0.0439603
0.0323491
0.0233346
0.0166293
0.0118236
0.00848627
0.00623803
0.00477026
0.00385011
0.00330389
0.00300498
0.00286175
0.00281203
0.00299478
0.00315053
0.00341714
0.00383884
0.00448136
0.00544829
0.00691079
0.00916364
0.0127378
0.0186372
0.0288649
0.047381
0.081543
0.142952
0.241833
0.36068
0.420064
0.352506
0.245849
0.21614
0.231972
0.221587
0.195608
0.166144
0.13873
0.114749
0.0932325
0.0736914
0.0563753
0.0417482
0.0300871
0.0212594
0.0148739
0.0104182
0.00741454
0.00544815
0.00420804
0.00346032
0.00303933
0.00282488
0.00273382
0.00291248
0.00307135
0.0033353
0.00374914
0.00437748
0.00532031
0.00674194
0.00892749
0.0124009
0.0181887
0.0284312
0.047672
0.0844785
0.152251
0.262881
0.39761
0.467916
0.395184
0.274657
0.241907
0.264913
0.256792
0.230242
0.198979
0.169069
0.142667
0.11845
0.095681
0.0745965
0.0559819
0.0406039
0.0286392
0.0198436
0.013631
0.00943022
0.00666356
0.00490941
0.00383195
0.00320737
0.00287137
0.00271258
0.00283864
0.00300012
0.00326239
0.0036701
0.00428607
0.0052051
0.00658107
0.00868103
0.0120031
0.0175512
0.0274906
0.0465776
0.0844094
0.156172
0.276432
0.428278
0.518161
0.450516
0.316052
0.270532
0.301988
0.298996
0.273786
0.2419
0.209892
0.180299
0.152764
0.126197
0.100669
0.0770643
0.0567382
0.0402779
0.0279003
0.0189319
0.0128387
0.00876875
0.00618763
0.00456808
0.00360632
0.00305861
0.00277766
0.0027769
0.00294127
0.00320368
0.0036085
0.00421675
0.00511775
0.00645309
0.00846625
0.0116148
0.0168398
0.0262285
0.0444884
0.08155
0.154285
0.280604
0.449107
0.567595
0.518168
0.373451
0.303915
0.343096
0.349038
0.327283
0.296727
0.262898
0.230213
0.198845
0.167686
0.13703
0.107413
0.0810066
0.0583398
0.0409396
0.0276647
0.0186474
0.0123917
0.00848122
0.0059434
0.00443168
0.00351264
0.00300582
0.00273169
0.00289962
0.0031643
0.00357001
0.00417649
0.00506864
0.00637564
0.00831592
0.0112953
0.0161626
0.0248205
0.0416864
0.0762779
0.146423
0.273063
0.453104
0.603242
0.591184
0.450364
0.350243
0.385792
0.405398
0.389402
0.363536
0.330531
0.295032
0.259844
0.223137
0.18689
0.14963
0.116704
0.0854868
0.0619723
0.0418806
0.0287721
0.0186324
0.0126859
0.00844844
0.00608368
0.00450057
0.0036266
0.00270994
0.0028821
0.00315128
0.00356164
0.0041728
0.00506701
0.00636431
0.0082587
0.0111053
0.0156365
0.0235383
0.0386871
0.0700362
0.13479
0.260237
0.448752
0.634365
0.676713
0.520236
0.408633
0.424275
0.459134
0.45453
0.439576
0.413745
0.377929
0.341434
0.295899
0.255464
0.205878
0.168762
0.123744
0.0959637
0.0637963
0.0471421
0.0290784
0.0209747
0.0128356
0.00946896
0.00635503
0.00508048
0.00400927
0.0030846
0.00274204
0.00265289
0.00265279
0.00271119
0.00281802
0.00296619
0.00315187
0.00337148
0.00364681
0.00403843
0.00467852
0.00585838
0.00833509
0.015079
0.0511055
0.00350409
0.00288831
0.00269668
0.00263346
0.00263368
0.00268383
0.0027816
0.00292626
0.00312213
0.00336998
0.00369532
0.00416539
0.00493947
0.0063853
0.00947529
0.0178418
0.0563165
0.00312975
0.00279794
0.00267756
0.00262831
0.00262632
0.00266854
0.00275858
0.00290223
0.0031064
0.00338488
0.0037691
0.00433769
0.00527694
0.00702751
0.0107715
0.0207818
0.0617701
0.00296629
0.00276503
0.00267745
0.00263493
0.00262939
0.00266382
0.00274593
0.00288643
0.00310025
0.00341128
0.00386506
0.00455786
0.00570782
0.00783159
0.0123311
0.0241485
0.0682562
0.0028851
0.00276204
0.00269168
0.00265177
0.00264231
0.00266962
0.00274418
0.00288104
0.00310284
0.00344658
0.00397733
0.00481985
0.00623656
0.00883355
0.0142563
0.0282169
0.0759511
0.00287133
0.00277881
0.00271725
0.00267793
0.00266476
0.00268568
0.00275292
0.0028852
0.00311275
0.00348675
0.00409711
0.00510899
0.0068494
0.0100434
0.0166133
0.0329646
0.0850763
0.00288658
0.00280946
0.00275238
0.00271292
0.00269661
0.00271203
0.00277235
0.00289903
0.00312899
0.00352768
0.00421288
0.00540048
0.00750575
0.0114128
0.0193561
0.0383704
0.0958652
0.00291968
0.00285054
0.00279606
0.00275647
0.00273781
0.00274868
0.00280251
0.00292249
0.00315064
0.00356493
0.00431075
0.00566075
0.00814013
0.0128443
0.0224309
0.0448659
0.108507
0.00296445
0.00290031
0.00284778
0.00280847
0.00278834
0.00279561
0.00284348
0.00295566
0.00317707
0.00359458
0.00437672
0.00585149
0.00866622
0.0141799
0.0256344
0.0523463
0.123037
0.00301837
0.00295782
0.00290731
0.00286888
0.00284817
0.00285283
0.00289535
0.00299884
0.00320844
0.00361466
0.00440084
0.00593834
0.00898866
0.0151974
0.0285326
0.0601137
0.139183
0.00307991
0.00302281
0.0029746
0.00293769
0.00291728
0.00292034
0.00295832
0.0030527
0.00324627
0.00362736
0.00438205
0.00590487
0.0090412
0.0156819
0.0305747
0.0670575
0.156218
0.00314872
0.00309512
0.0030497
0.00301496
0.00299567
0.00299815
0.00303265
0.00311841
0.0032939
0.00363989
0.00433261
0.00576348
0.00881468
0.0155491
0.0313122
0.0720745
0.172994
0.00322454
0.00317501
0.00313279
0.00310078
0.00308336
0.00308627
0.00311859
0.0031972
0.00335534
0.00366274
0.00427532
0.0055555
0.00836789
0.0148507
0.0307625
0.0744545
0.188189
0.00330754
0.00326253
0.00322408
0.00319532
0.00318045
0.00318474
0.0032163
0.00328993
0.00343384
0.00370582
0.00423546
0.00533466
0.00779241
0.0136972
0.0289739
0.0737513
0.200653
0.00339778
0.00335825
0.00332396
0.00329888
0.00328715
0.0032937
0.00332588
0.00339693
0.00353106
0.00377558
0.00423354
0.00515511
0.00720488
0.0122775
0.0261844
0.0694609
0.209576
0.00349549
0.00346222
0.00343286
0.00341193
0.00340388
0.00341345
0.00344751
0.00351822
0.00364711
0.00387394
0.0042801
0.0050563
0.00671801
0.0108373
0.0226764
0.0616284
0.214472
0.00360069
0.00357529
0.00355154
0.0035352
0.00353132
0.0035446
0.00358166
0.00365399
0.00378147
0.0039994
0.00437501
0.00505322
0.00640951
0.00963298
0.0191642
0.0544118
0.215054
0.00371358
0.00369725
0.00368062
0.00366971
0.00367058
0.00368828
0.00372939
0.00380506
0.00393422
0.00414997
0.00451233
0.00513929
0.00630615
0.00885673
0.0162763
0.0461991
0.211008
0.00383413
0.00382917
0.00382119
0.00381685
0.00382323
0.00384615
0.00389242
0.0039731
0.00410672
0.00432539
0.00468629
0.0052957
0.00637539
0.00851847
0.0142051
0.0385061
0.202188
0.00396261
0.00397044
0.00397375
0.003978
0.00399129
0.00402053
0.00407317
0.0041606
0.00430141
0.00452741
0.00489501
0.00550685
0.00656525
0.00853626
0.0131686
0.0324488
0.18875
0.00409913
0.00412291
0.00413942
0.00415481
0.00417715
0.00421423
0.00427458
0.00437039
0.00452075
0.00475775
0.0051379
0.00576327
0.00683127
0.00876344
0.0129408
0.0287983
0.171504
0.00424536
0.00428574
0.00431887
0.00434885
0.00438337
0.00443076
0.00450076
0.00460668
0.0047686
0.00501937
0.00541613
0.00606154
0.00715235
0.00910162
0.0131886
0.0277569
0.152268
0.00440531
0.00446195
0.00451355
0.00456115
0.00461106
0.00467146
0.00475281
0.00486941
0.00504229
0.00530505
0.00571518
0.00637541
0.00748121
0.00943844
0.0134427
0.0269262
0.135133
0.00456457
0.00464981
0.00472405
0.00479301
0.00486218
0.00493918
0.00503464
0.00516343
0.00534723
0.00562014
0.00603969
0.00670819
0.00781926
0.00977198
0.0136878
0.0261701
0.120324
0.00476326
0.00485808
0.00495444
0.0050471
0.00513914
0.0052369
0.00535037
0.0054943
0.00569042
0.00597277
0.00639841
0.00706862
0.00817484
0.0101102
0.0139353
0.025537
0.107882
0.00493808
0.00507692
0.00520373
0.00532486
0.00544416
0.00556738
0.00570376
0.0058674
0.00607936
0.00637277
0.00680337
0.00747052
0.00856291
0.0104687
0.0142022
0.0250684
0.0977833
0.00518441
0.0053284
0.00548032
0.00563099
0.00578082
0.00593407
0.00609889
0.00628829
0.00652207
0.00683153
0.00726988
0.00793327
0.00900652
0.010873
0.0145135
0.0247795
0.0899445
0.00538356
0.00558757
0.00577938
0.00596639
0.00615192
0.0063407
0.00654054
0.00676353
0.0070279
0.00736254
0.00781696
0.00848255
0.00953851
0.0113624
0.0149114
0.0246927
0.0841676
0.00568474
0.00589245
0.00611385
0.00633739
0.00656227
0.00679226
0.0070348
0.00730133
0.00760855
0.00798254
0.00846844
0.00915128
0.0102026
0.0119918
0.0154565
0.0248495
0.0802177
0.00591481
0.0061993
0.00647172
0.00674148
0.00701306
0.00729231
0.00758776
0.00791106
0.00827806
0.00871229
0.00925403
0.00998102
0.0110551
0.012834
0.0162338
0.0253133
0.077854
0.0062712
0.00655978
0.0068681
0.00718373
0.00750712
0.00784443
0.00820547
0.00860287
0.00905255
0.00957645
0.0102103
0.0110236
0.0121671
0.0139827
0.0173579
0.02618
0.0768227
0.00653011
0.00691103
0.00728216
0.00765617
0.00804168
0.00844949
0.00889284
0.009387
0.0099498
0.0106037
0.0113812
0.0123432
0.0136273
0.0155567
0.0189793
0.0275966
0.0768725
0.0069282
0.0073159
0.00773067
0.00816258
0.00861778
0.00910979
0.00965584
0.0102752
0.0109904
0.0118284
0.0128208
0.0140196
0.0155476
0.0177061
0.0212942
0.0297866
0.0777679
0.00720664
0.00769899
0.00818799
0.00869299
0.00923218
0.00982711
0.0105017
0.0112818
0.012199
0.0132927
0.0145971
0.0161545
0.0180708
0.0206239
0.0245606
0.0330837
0.0792924
0.00762695
0.00813199
0.00867428
0.00925333
0.00988849
0.0106075
0.0114416
0.0124252
0.0136068
0.0150514
0.0167993
0.0188804
0.0213837
0.0245676
0.0291299
0.0379782
0.0812245
0.00791908
0.00853704
0.00916438
0.00983577
0.0105872
0.0114578
0.0124893
0.0137281
0.0152526
0.0171779
0.0195481
0.0223758
0.0257394
0.0298939
0.0355088
0.045205
0.0832937
0.00835234
0.00898782
0.00967991
0.0104488
0.0113357
0.0123895
0.0136625
0.0152173
0.0171867
0.0197765
0.0230123
0.026887
0.0314943
0.0371264
0.0444793
0.0559314
0.0851408
0.00865704
0.00940853
0.010198
0.0110878
0.0121388
0.0134141
0.0149807
0.0169235
0.0194788
0.0230036
0.0274327
0.0327625
0.039172
0.0470768
0.0573174
0.072163
0.0863102
0.00910027
0.00986808
0.0107396
0.0117634
0.0130074
0.0145468
0.0164661
0.018883
0.0222364
0.0271023
0.0331516
0.0405051
0.0495738
0.0610646
0.0762142
0.0975657
0.0862583
0.00940694
0.0102945
0.0112876
0.0124766
0.0139507
0.0158032
0.018143
0.0211444
0.0256434
0.0324459
0.0406438
0.0508584
0.0639794
0.0813323
0.10512
0.139152
0.0845163
0.0143262
0.0150369
0.0157534
0.01647
0.0171797
0.0178745
0.0185458
0.0191844
0.0197807
0.0203252
0.0208086
0.0212225
0.0215592
0.0218125
0.0219779
0.0220528
0.0220369
0.0219328
0.0217473
0.0214958
0.021217
0.0208271
0.020311
0.0197235
0.0190837
0.0184026
0.0176787
0.0169323
0.0162454
0.015489
0.0148634
0.0141402
0.0135911
0.0129266
0.0124557
0.0118619
0.0114625
0.0109394
0.0105998
0.0101377
0.00984266
0.0161496
0.0169474
0.0177502
0.0185512
0.0193423
0.0201145
0.0208578
0.0215618
0.0222158
0.0228093
0.0233321
0.0237749
0.0241297
0.0243901
0.0245514
0.0246112
0.0245697
0.0244301
0.0241997
0.0238947
0.0235522
0.0230912
0.0225042
0.0218443
0.0211315
0.0203779
0.0195761
0.0187675
0.0179668
0.0171673
0.0164025
0.0156444
0.0149471
0.0142623
0.0136531
0.0130564
0.0125371
0.0120254
0.0115833
0.011141
0.0107554
0.0182579
0.0191596
0.0200652
0.0209665
0.0218542
0.0227178
0.0235461
0.0243272
0.0250492
0.0257002
0.0262691
0.0267459
0.027122
0.0273907
0.0275475
0.0275902
0.0275194
0.027339
0.0270572
0.026691
0.0262755
0.0257332
0.0250649
0.0243216
0.0235246
0.0226871
0.021813
0.0208968
0.0200021
0.0191229
0.0182641
0.0174269
0.0166275
0.0158643
0.0151543
0.0144883
0.01388
0.0133134
0.0127976
0.0123132
0.0118658
0.0207102
0.0217365
0.0227649
0.0237858
0.0247886
0.025761
0.0266902
0.0275628
0.0283652
0.0290844
0.0297081
0.0302254
0.0306271
0.0309064
0.0310587
0.0310824
0.0309786
0.0307521
0.030412
0.029976
0.0294774
0.0288431
0.028082
0.0272432
0.0263492
0.0254148
0.0244515
0.0234115
0.0224122
0.0214355
0.0204812
0.0195534
0.0186597
0.0178059
0.0170009
0.016247
0.0155491
0.0149036
0.0143092
0.0137572
0.0132417
0.0235842
0.0247601
0.0259355
0.0270995
0.0282396
0.0293418
0.0303914
0.0313729
0.0322713
0.0330719
0.0337612
0.0343273
0.0347606
0.0350539
0.0352028
0.0352062
0.0350661
0.034788
0.0343824
0.033868
0.0332756
0.0325378
0.0316715
0.030724
0.0297192
0.0286734
0.0275997
0.0264426
0.0253105
0.0242078
0.0231401
0.0221076
0.0211132
0.0201618
0.0192596
0.0184112
0.0176201
0.0168859
0.0162062
0.0155745
0.0149825
0.0269845
0.0283398
0.0296913
0.0310265
0.0323307
0.0335879
0.0347811
0.0358928
0.0369061
0.0378044
0.0385728
0.0391985
0.0396712
0.0399836
0.0401315
0.0401144
0.0399352
0.0396007
0.0391226
0.0385207
0.0378239
0.0369707
0.0359864
0.0349164
0.0337862
0.0326137
0.0314137
0.0301921
0.0288451
0.0275835
0.0263765
0.0252163
0.0241034
0.0230406
0.0220317
0.0210808
0.0201906
0.0193617
0.0185915
0.0178743
0.0172012
0.0310557
0.0326255
0.0341874
0.035727
0.037227
0.038669
0.0400336
0.0413009
0.0424516
0.0434674
0.0443317
0.0450306
0.0455532
0.0458919
0.046043
0.0460066
0.045787
0.0453922
0.0448353
0.0441375
0.0433259
0.042346
0.0412311
0.0400249
0.0387545
0.0374396
0.0360973
0.0347422
0.0333036
0.0318086
0.0304031
0.029074
0.0278111
0.0266116
0.0254763
0.0244072
0.0234059
0.0224723
0.0216042
0.020796
0.0200384
0.0360021
0.0378272
0.0396391
0.0414214
0.0431541
0.0448159
0.0463843
0.047837
0.049152
0.0503089
0.0512894
0.0520783
0.0526641
0.0530391
0.0532
0.053148
0.0528885
0.0524312
0.0517911
0.0509905
0.0500551
0.0489385
0.0476814
0.0463265
0.0449023
0.0434308
0.041931
0.0404203
0.0389139
0.0372877
0.0355857
0.0340113
0.0325389
0.0311555
0.0298562
0.028639
0.027503
0.0264468
0.0254675
0.0245598
0.0237936
0.0421183
0.0442448
0.0463517
0.0484203
0.0504275
0.0523487
0.0541581
0.0558304
0.0573407
0.0586663
0.0597871
0.0606865
0.0613522
0.0617768
0.0619574
0.0618964
0.0616006
0.0610817
0.0603566
0.0594492
0.058384
0.0571234
0.0557156
0.0542024
0.0526137
0.050974
0.0493052
0.0476271
0.0459577
0.0443136
0.0426298
0.0408048
0.0389482
0.0372521
0.0356979
0.0342655
0.032961
0.0318455
0.030965
0.0303716
0.0300254
0.0498382
0.0523169
0.054768
0.0571707
0.0594983
0.0617224
0.0638138
0.0657435
0.0674837
0.0690092
0.0702978
0.0713317
0.072098
0.0725892
0.0728033
0.072744
0.0724199
0.0718448
0.0710376
0.0700242
0.0688283
0.0674219
0.0658601
0.064184
0.0624256
0.060612
0.058768
0.0569165
0.055079
0.0532752
0.0515232
0.0498395
0.0482392
0.0466194
0.0450758
0.0436934
0.0425232
0.041551
0.0407624
0.040119
0.0395692
0.0598172
0.0627003
0.0655463
0.068332
0.0710272
0.0735992
0.0760148
0.0782414
0.080248
0.0820065
0.0834929
0.0846883
0.085579
0.086158
0.0864242
0.0863827
0.0860442
0.0854247
0.0845457
0.0834348
0.0821156
0.0805701
0.0788598
0.0770253
0.0751006
0.0731155
0.0710985
0.0690759
0.0670723
0.0651111
0.0632135
0.0613992
0.0596854
0.0580874
0.0566174
0.0552834
0.0540882
0.0530288
0.0520964
0.0512779
0.0505499
0.0730719
0.0764058
0.0796917
0.0829043
0.0860091
0.0889693
0.0917473
0.0943068
0.0966133
0.0986363
0.10035
0.101735
0.102776
0.103467
0.103809
0.103808
0.103477
0.102835
0.101904
0.100716
0.0992937
0.0976295
0.0957899
0.093815
0.0917405
0.0895994
0.087423
0.0852409
0.0830808
0.0809685
0.0789278
0.0769795
0.0751415
0.0734282
0.0718484
0.070405
0.0690953
0.0679116
0.0668425
0.0658726
0.0649756
0.0912275
0.0950372
0.0987876
0.102451
0.105989
0.10936
0.112522
0.115436
0.118063
0.120372
0.122336
0.123932
0.125148
0.125978
0.126423
0.126492
0.126201
0.125569
0.124623
0.123395
0.121908
0.120166
0.118237
0.116161
0.113973
0.11171
0.109405
0.107088
0.10479
0.102538
0.100356
0.0982639
0.0962788
0.0944128
0.0926713
0.0910541
0.0895566
0.0881702
0.0868829
0.0856784
0.0845281
0.116974
0.121231
0.125417
0.129505
0.133451
0.13721
0.140736
0.143988
0.146924
0.149512
0.151723
0.153537
0.154941
0.155929
0.156505
0.15668
0.156471
0.1559
0.154994
0.153787
0.152302
0.150553
0.148606
0.146497
0.144265
0.141944
0.139567
0.137166
0.13477
0.132405
0.130094
0.127856
0.125706
0.123654
0.121704
0.119855
0.118104
0.116444
0.114862
0.113344
0.111859
0.154941
0.159501
0.163973
0.168341
0.172559
0.176578
0.180352
0.183837
0.186992
0.189783
0.192184
0.194174
0.195742
0.196884
0.197606
0.197919
0.197842
0.197396
0.196611
0.195517
0.194139
0.192497
0.190648
0.188627
0.186469
0.184205
0.181866
0.179481
0.177075
0.174673
0.172294
0.169954
0.167668
0.165442
0.163283
0.161191
0.159164
0.157196
0.155279
0.153403
0.151523
0.213469
0.217933
0.222276
0.226527
0.230636
0.234558
0.238247
0.241662
0.244766
0.247527
0.249922
0.251931
0.253548
0.254768
0.255599
0.256052
0.256142
0.255893
0.255328
0.254475
0.253357
0.251993
0.25043
0.248695
0.246816
0.244818
0.242727
0.240564
0.23835
0.236103
0.233838
0.231569
0.229305
0.227055
0.224821
0.222607
0.220412
0.218233
0.216064
0.213903
0.211668
0.308354
0.311805
0.31505
0.318233
0.32132
0.324278
0.327071
0.329669
0.332044
0.334173
0.336039
0.337628
0.338936
0.33996
0.340705
0.34118
0.341396
0.341367
0.341112
0.340646
0.339987
0.33915
0.33816
0.337034
0.335788
0.334439
0.333
0.331484
0.329902
0.328265
0.326581
0.324856
0.323096
0.321304
0.319484
0.317635
0.315758
0.313851
0.311912
0.309936
0.307741
0.0499999
0.0135884
0.00756523
0.00544214
0.00446226
0.00394321
0.00363294
0.00342397
0.00326629
0.00313593
0.00302166
0.00291881
0.00282628
0.00274509
0.00267775
0.00262797
0.00260229
0.0550621
0.0162068
0.00871163
0.00600351
0.00475592
0.0040942
0.00369939
0.00343578
0.00324111
0.00308549
0.00295462
0.00284197
0.00274506
0.00266363
0.00259869
0.00255248
0.00252936
0.0599441
0.019005
0.00998215
0.00665635
0.00511113
0.00428683
0.0037952
0.00346985
0.00323449
0.00305224
0.00290495
0.0027837
0.00268414
0.00260442
0.00254416
0.00250423
0.00248696
0.0655638
0.021987
0.0114292
0.00742661
0.00554201
0.00452797
0.00392215
0.00352462
0.00324294
0.00303177
0.00286789
0.00273899
0.00263824
0.00256186
0.00250789
0.00247571
0.00246678
0.0720119
0.0254361
0.0131459
0.00836013
0.00607225
0.00482794
0.00408299
0.00359918
0.00326427
0.00302175
0.00284131
0.00270588
0.00260538
0.00253366
0.00248701
0.00246349
0.00246332
0.0794792
0.0298052
0.0152941
0.00952464
0.00672963
0.00519588
0.0042785
0.00369138
0.00329604
0.00302033
0.00282404
0.00268366
0.00258496
0.00251906
0.00248048
0.00246607
0.00247459
0.088248
0.0353513
0.0180093
0.0109726
0.00752707
0.00562879
0.00450148
0.00379481
0.00333413
0.00302559
0.00281564
0.00267265
0.0025775
0.00251841
0.00248817
0.00248254
0.0024997
0.0986115
0.0414104
0.0212142
0.0126771
0.00843385
0.0060984
0.00473143
0.00389718
0.00337253
0.00303547
0.00281616
0.00267374
0.00258398
0.00253239
0.00251035
0.00251289
0.00253801
0.110778
0.0485078
0.0248301
0.0145202
0.00935832
0.00654429
0.00493328
0.00398082
0.00340398
0.00304813
0.00282612
0.00268812
0.00260553
0.00256183
0.00254756
0.00255758
0.00258964
0.124763
0.0567596
0.0286754
0.0162938
0.0101547
0.00688239
0.00506496
0.00402785
0.00342285
0.00306325
0.00284686
0.00271728
0.00264326
0.00260741
0.00260021
0.00261671
0.00265492
0.140236
0.0654607
0.0321969
0.0176601
0.0106431
0.00702828
0.0050932
0.00402901
0.00342932
0.00308355
0.00288102
0.00276305
0.00269827
0.00266981
0.00266884
0.00269093
0.00273475
0.156427
0.0731521
0.0345885
0.0182441
0.010674
0.00693567
0.00501313
0.00399207
0.00343216
0.00311544
0.00293248
0.00282754
0.00277169
0.00274982
0.00275423
0.00278135
0.00283021
0.172238
0.0781659
0.0351424
0.0178315
0.010221
0.00663426
0.00486031
0.00394341
0.0034474
0.00316754
0.00300553
0.00291286
0.00286476
0.0028484
0.00285742
0.00288898
0.00294235
0.186491
0.0793653
0.0336427
0.0165338
0.00942554
0.00623123
0.00470069
0.00391838
0.00349216
0.00324753
0.00310356
0.00302076
0.00297879
0.00296698
0.00298005
0.00301557
0.00307278
0.198155
0.0766263
0.0305839
0.014713
0.00852369
0.00585856
0.00459835
0.00394455
0.00357716
0.00335945
0.00322846
0.00315278
0.00311554
0.00310763
0.00312434
0.0031633
0.00322292
0.206437
0.070662
0.0266013
0.0127943
0.00774101
0.00561489
0.0045891
0.00403253
0.00370507
0.00350443
0.0033817
0.00331099
0.00327754
0.0032729
0.00329248
0.00333343
0.00339329
0.210668
0.0623545
0.0224164
0.0111548
0.00722858
0.00554306
0.0046788
0.00418039
0.00387461
0.00368312
0.00356532
0.00349814
0.00346754
0.00346508
0.00348578
0.00352591
0.00358292
0.210179
0.0529398
0.0187445
0.0100525
0.00703223
0.00562989
0.00485134
0.00437955
0.00408321
0.0038962
0.00378138
0.00371646
0.00368727
0.00368487
0.00370378
0.00373971
0.0037894
0.204402
0.0437125
0.0161239
0.0095591
0.00709979
0.00583096
0.005085
0.00462196
0.00432904
0.0041442
0.0040309
0.00396643
0.0039361
0.00393054
0.00394394
0.00397182
0.00400975
0.193139
0.0363228
0.0147483
0.00953519
0.00732949
0.00610191
0.00536331
0.00490188
0.00461018
0.00442619
0.00431264
0.00424597
0.00421109
0.00419861
0.00420279
0.00421913
0.00424384
0.177066
0.0317574
0.0143106
0.00975724
0.00763224
0.00641137
0.00567375
0.00521352
0.0049232
0.00473922
0.00462331
0.00455142
0.00450848
0.00448557
0.00447767
0.00448108
0.0044938
0.157776
0.0302575
0.014483
0.0100884
0.007968
0.00674691
0.00601132
0.00555461
0.00526634
0.00508138
0.0049607
0.00488043
0.0048261
0.00478967
0.0047671
0.00475562
0.00475545
0.140007
0.0292031
0.0146443
0.0103751
0.00827677
0.00707557
0.00635751
0.00591424
0.00563316
0.00544872
0.0053225
0.00523185
0.00516373
0.00511143
0.00507193
0.0050427
0.00502383
0.124449
0.0281512
0.0147377
0.0106115
0.00856554
0.00740831
0.00672389
0.00630278
0.00603216
0.00584807
0.00571429
0.00561042
0.00552546
0.00545438
0.0053957
0.00534805
0.00530678
0.111293
0.0271315
0.0147847
0.0108255
0.00886443
0.00777297
0.00713395
0.00673907
0.00647827
0.00629147
0.0061461
0.00602477
0.00591872
0.0058247
0.00574303
0.00567506
0.00562321
0.10056
0.0262609
0.0148388
0.0110677
0.00921848
0.00820662
0.00761691
0.00724595
0.00698975
0.00679412
0.0066311
0.00648649
0.00635371
0.006231
0.00611966
0.00602236
0.00595063
0.0921925
0.0256094
0.0149685
0.0114013
0.00967896
0.00874924
0.00820366
0.0078479
0.00758678
0.00737324
0.00718423
0.0070087
0.00684195
0.00668322
0.00653465
0.00639988
0.00627901
0.0859529
0.0252138
0.0152477
0.0118921
0.0102973
0.00944049
0.00892543
0.00857038
0.00829068
0.00804682
0.00782068
0.00760408
0.00739379
0.00718989
0.00699555
0.00681703
0.00666309
0.081551
0.0251244
0.0157545
0.0126056
0.0111244
0.0103203
0.0098144
0.00943986
0.00912317
0.0088326
0.0085547
0.00828382
0.00801803
0.00775789
0.00750651
0.00727056
0.00707324
0.0786969
0.0254044
0.0165739
0.0136108
0.0122141
0.0114314
0.0109049
0.0104837
0.0101059
0.00974719
0.00939863
0.00905685
0.00872103
0.00839195
0.00807201
0.00776615
0.00748279
0.077119
0.0261446
0.0178054
0.0149861
0.0136275
0.012822
0.0122346
0.0117308
0.0112603
0.0108062
0.0103632
0.00993001
0.00950676
0.00909416
0.00869401
0.00831052
0.00795412
0.0765802
0.027482
0.0195742
0.0168277
0.0154389
0.0145489
0.0138461
0.0132125
0.012609
0.012025
0.0114584
0.0109093
0.0103782
0.0098654
0.00937138
0.00889728
0.0084578
0.0768767
0.0296266
0.0220461
0.0192601
0.0177424
0.0166821
0.0157904
0.0149654
0.0141776
0.0134211
0.0126956
0.0120016
0.0113388
0.0107066
0.0101036
0.00952645
0.00896684
0.0778362
0.0328945
0.0254513
0.022453
0.0206625
0.0193116
0.0181321
0.0170351
0.0159979
0.0150164
0.0140896
0.0132161
0.0123939
0.0116201
0.010891
0.0102001
0.0095233
0.0792866
0.0377579
0.0301222
0.0266463
0.0243705
0.0225589
0.0209567
0.0194818
0.0181121
0.0168403
0.0156604
0.0145664
0.0135518
0.0126101
0.0117345
0.0109142
0.0100991
0.0810186
0.0449419
0.0365635
0.0321927
0.0291119
0.026594
0.0243821
0.0223876
0.0205776
0.0189326
0.0174356
0.0160709
0.0148244
0.0136838
0.0126372
0.0116695
0.0106923
0.0827382
0.0556206
0.0455763
0.0396323
0.03525
0.0316622
0.028575
0.0258665
0.0234726
0.021347
0.0194514
0.0177538
0.0162276
0.0148507
0.0136043
0.0124675
0.0113203
0.0840511
0.0718321
0.0584855
0.0498222
0.0433401
0.0381259
0.0337747
0.0300779
0.0269035
0.0241543
0.0217548
0.0196457
0.0177805
0.0161225
0.0146422
0.0133079
0.0119901
0.0844681
0.0973186
0.0775819
0.0641715
0.0542546
0.0465319
0.0403283
0.0352441
0.0310133
0.0274464
0.0244043
0.0217834
0.0195059
0.0175127
0.0157581
0.0141883
0.0127183
0.0835512
0.139339
0.107036
0.0850966
0.0694122
0.0577272
0.0487492
0.0416797
0.0359961
0.0313433
0.0274738
0.0242117
0.0214303
0.0190365
0.0169605
0.0151258
0.0135013
0.00287949
0.00359164
0.00517053
0.00854085
0.0166737
0.0443211
0.14935
0.405768
0.604375
0.514049
0.504396
0.522619
0.476297
0.38524
0.274081
0.169758
0.0911642
0.0430464
0.0189539
0.00870832
0.00300508
0.00383798
0.00563497
0.00935965
0.0181812
0.0468681
0.145309
0.384062
0.622362
0.557542
0.544938
0.615132
0.599758
0.503082
0.362148
0.227266
0.123747
0.0590097
0.0255941
0.0111238
0.00318508
0.00415844
0.00621518
0.0103538
0.0197728
0.0480564
0.137451
0.357193
0.631736
0.614807
0.585718
0.702851
0.734188
0.645045
0.474659
0.300962
0.165718
0.0799428
0.0345043
0.0144085
0.00342547
0.00456933
0.00694545
0.0115956
0.0216079
0.0488259
0.128533
0.326885
0.622752
0.689585
0.627649
0.76691
0.873579
0.808878
0.614357
0.393624
0.219273
0.106792
0.0461523
0.0187657
0.00373737
0.0050979
0.00788523
0.0132154
0.0239969
0.0501684
0.120609
0.29475
0.589515
0.737164
0.669931
0.790737
1.00746
0.989126
0.781263
0.510205
0.286618
0.140628
0.0610359
0.0244257
0.00414445
0.0057981
0.00915515
0.0154814
0.0275462
0.0536567
0.116395
0.264054
0.531807
0.736413
0.69575
0.774251
1.11872
1.18058
0.974595
0.653154
0.370335
0.182685
0.0796132
0.0315898
0.00468775
0.00676826
0.0110019
0.0189718
0.0334922
0.0624229
0.119964
0.239773
0.449231
0.660364
0.683926
0.716718
1.17521
1.37084
1.19243
0.823788
0.472731
0.234284
0.102379
0.0404369
0.00542963
0.00817161