/*--------------------------------*- C++ -*----------------------------------*\
  =========                 |
  \\      /  F ield         | OpenFOAM: The Open Source CFD Toolbox
   \\    /   O peration     | Website:  https://openfoam.org
    \\  /    A nd           | Version:  6
     \\/     M anipulation  |
\*---------------------------------------------------------------------------*/
FoamFile
{
    version     2.0;
    format      ascii;
    class       volScalarField;
    location    "3.06";
    object      nut;
}
// * * * * * * * * * * * * * * * * * * * * * * * * * * * * * * * * * * * * * //

dimensions      [0 2 -1 0 0 0 0];

internalField   nonuniform List<scalar> 
4214
(
0.00333951
0.00356
0.00444164
0.00532537
0.00582997
0.00593917
0.00579801
0.00558459
0.00546271
0.00556536
0.00599892
0.00685408
0.00820622
0.0101051
0.0125795
0.0156729
0.0195104
0.0240763
0.0279906
0.0270658
0.0213101
0.0159154
0.012723
0.0109552
0.00967734
0.00859342
0.00767427
0.00693764
0.00639728
0.0060542
0.00589969
0.00591551
0.00606956
0.00630752
0.00654187
0.00664357
0.00644709
0.0057985
0.00473008
0.00369016
0.00338914
0.00330169
0.00416912
0.00499245
0.00551848
0.0057167
0.0056642
0.00547993
0.00529996
0.00525506
0.00545996
0.0060179
0.00702745
0.00857826
0.0107372
0.0135491
0.0170565
0.0213764
0.0262156
0.0295211
0.0268532
0.0206609
0.0157795
0.0130279
0.0112998
0.00987794
0.00862595
0.00756473
0.00671998
0.00609855
0.00569314
0.00548866
0.00546304
0.00558487
0.00580749
0.00606186
0.00625193
0.00625805
0.00595556
0.00526547
0.00426754
0.00330011
0.00383935
0.00463948
0.00518178
0.00543982
0.00546862
0.00534451
0.00516315
0.00503465
0.00507
0.00537476
0.00605465
0.00722085
0.0089827
0.0114325
0.0146338
0.0186346
0.0234426
0.0283195
0.0306708
0.0263624
0.0201485
0.0159058
0.0134678
0.0116628
0.0100496
0.00861692
0.00741581
0.00646945
0.00577415
0.00531285
0.00506288
0.00499795
0.00508628
0.00528555
0.00553746
0.00576559
0.00587955
0.00578541
0.00540292
0.00470097
0.0037748
0.00426828
0.0048258
0.00512349
0.00521407
0.00515666
0.00501249
0.00485925
0.00479032
0.00490498
0.00530562
0.00610495
0.00743087
0.00941702
0.0121883
0.0158318
0.0203974
0.0257109
0.0305023
0.0317122
0.0259042
0.0199767
0.0163373
0.0140181
0.0120297
0.0101906
0.00857447
0.00724082
0.00620136
0.00543937
0.00492743
0.00463552
0.00453326
0.00458786
0.00475931
0.00499579
0.00523278
0.00539858
0.00542363
0.00524816
0.00482886
0.004162
0.00443332
0.00477448
0.00491363
0.00491251
0.0048194
0.00468356
0.00457072
0.00456318
0.0047534
0.0052445
0.00615945
0.0076469
0.00987089
0.0129977
0.0171451
0.022349
0.0281274
0.0325791
0.0324326
0.0254623
0.0201276
0.0169878
0.0146211
0.0123831
0.0103077
0.00851558
0.00705892
0.00593351
0.00510933
0.00454922
0.00421654
0.00407706
0.00409672
0.00423686
0.00444969
0.00467805
0.004862
0.00494871
0.00489793
0.00467949
0.00427109
0.00438121
0.00457589
0.00462488
0.00457991
0.00447994
0.00436686
0.00429858
0.00434993
0.00460973
0.00518449
0.00620996
0.00785937
0.0103347
0.0138515
0.0185761
0.0244824
0.030652
0.0345326
0.0329303
0.0252345
0.0206376
0.0178101
0.0152584
0.0127355
0.0104284
0.008472
0.00690042
0.00569249
0.00480633
0.00419671
0.0038212
0.00364213
0.00362418
0.00372967
0.00391365
0.00412359
0.00430656
0.00442014
0.00443778
0.00434397
0.00412446
0.00419326
0.00430104
0.00430403
0.00424287
0.00415089
0.00406608
0.00404121
0.00414607
0.00446794
0.00511835
0.00624763
0.00805697
0.0107963
0.0147438
0.0201272
0.0267843
0.0332312
0.0363169
0.0332751
0.0253089
0.0214756
0.0187588
0.0159339
0.0131199
0.0105968
0.00848861
0.00680619
0.00551325
0.00455933
0.00389328
0.00346843
0.00324387
0.00318314
0.00324943
0.00340031
0.00358647
0.00375882
0.00388037
0.00393244
0.00390959
0.00380868
0.00393319
0.00399399
0.00397723
0.00391504
0.00383772
0.00378117
0.00379489
0.00394573
0.00432117
0.0050384
0.00626326
0.00822916
0.0112456
0.0156724
0.0217974
0.0292339
0.0358327
0.0379364
0.0336175
0.0257514
0.0225938
0.0198184
0.0166803
0.0135916
0.0108745
0.0086254
0.00683015
0.00544166
0.00440589
0.00366935
0.00318259
0.0029022
0.00279018
0.00281053
0.00292332
0.00308203
0.0032394
0.00335989
0.00342761
0.00344227
0.00340842
0.00363523
0.00366279
0.0036281
0.00356024
0.00349126
0.00345931
0.00351331
0.00371686
0.00415164
0.00493406
0.00624963
0.00837077
0.0116807
0.0166421
0.0235806
0.0318099
0.0384341
0.0394593
0.0340907
0.0265786
0.0239477
0.0210058
0.0175581
0.0142275
0.0113411
0.00895854
0.00704117
0.00553667
0.00439426
0.00356326
0.00299426
0.00264175
0.00246589
0.00243039
0.00249775
0.00262446
0.00276413
0.0028796
0.00295339
0.00298608
0.00298603
0.00330581
0.00331357
0.00328232
0.00323007
0.00318265
0.00317468
0.00325272
0.00348038
0.00395046
0.00479825
0.00620719
0.00848574
0.0121075
0.0176493
0.0254452
0.0344617
0.0410547
0.0409682
0.0348294
0.027783
0.0255146
0.0223703
0.0186524
0.015124
0.0120932
0.0095805
0.00752441
0.00587274
0.0045859
0.00362343
0.00294082
0.00249199
0.00223412
0.002129
0.00214015
0.00222721
0.00234505
0.00245317
0.00252864
0.00256893
0.00258294
0.00301158
0.00301739
0.00299147
0.00294998
0.00291703
0.00292534
0.0030191
0.00325973
0.00373776
0.00459563
0.00607094
0.00851083
0.0124609
0.0185836
0.0271972
0.0369552
0.0435544
0.0425204
0.0358674
0.029366
0.0273035
0.0239877
0.0200694
0.0163954
0.0132425
0.010599
0.00838201
0.0065425
0.0050595
0.00391231
0.00306951
0.00248791
0.00212162
0.00192759
0.00186751
0.00190285
0.00199074
0.00208781
0.00216309
0.00220682
0.00222533
0.00273261
0.00274478
0.0027286
0.00269813
0.00267638
0.00269483
0.00279537
0.00303624
0.00350509
0.00434489
0.00580278
0.00830397
0.0124542
0.0190021
0.0282799
0.0387289
0.0455769
0.0440913
0.0371716
0.031342
0.0293465
0.0259505
0.0219287
0.0181687
0.0149131
0.0121353
0.00973265
0.00765912
0.00591633
0.00451349
0.00344435
0.00267549
0.00216066
0.00184928
0.00169722
0.00166367
0.00170782
0.0017857
0.00185841
0.00190529
0.00192572
0.00246977
0.00249042
0.00248538
0.00246622
0.00245427
0.00247942
0.002581
0.00281323
0.00325857
0.00405528
0.00545015
0.00788958
0.0120724
0.0188358
0.0285901
0.0397309
0.0471948
0.0458766
0.0389292
0.0336078
0.0316832
0.0283539
0.0243517
0.0205775
0.0172406
0.0143233
0.0117103
0.00935646
0.00728461
0.00554026
0.00415739
0.00312242
0.0023981
0.00192463
0.0016501
0.00152395
0.00150429
0.0015476
0.00161073
0.00166104
0.00168587
0.00222522
0.00225366
0.00225918
0.00225094
0.00224805
0.00227826
0.00237785
0.00259618
0.00300856
0.00374386
0.00503868
0.00732927
0.0113685
0.0180883
0.0280723
0.0398726
0.0483422
0.0478964
0.0412638
0.0361855
0.0343355
0.0312752
0.027438
0.0237456
0.0203787
0.0173098
0.0144619
0.0117848
0.00931858
0.00714005
0.00534092
0.00393227
0.00291107
0.00220362
0.00175908
0.00150483
0.00139448
0.00137924
0.00141633
0.0014652
0.00149813
0.00200114
0.00203549
0.00204998
0.00205169
0.00205734
0.00209205
0.00218864
0.00239102
0.00276585
0.00342882
0.00459755
0.00668569
0.0104336
0.0168765
0.0267561
0.0390332
0.0488283
0.0499459
0.0440672
0.0390928
0.0373272
0.0347374
0.0312262
0.0277437
0.0244042
0.0212214
0.0181382
0.015101
0.012191
0.00948545
0.0071747
0.00525403
0.00382834
0.00277253
0.00208685
0.00164361
0.00140608
0.00129811
0.00128113
0.00130978
0.00134726
0.00179968
0.00183767
0.00185913
0.00186948
0.00188303
0.00192215
0.00201594
0.00220271
0.00253967
0.0031269
0.00415496
0.00599721
0.00933468
0.0152588
0.0247088
0.0370824
0.048192
0.0515887
0.0471665
0.0423464
0.0406458
0.0386254
0.0356263
0.0325381
0.0293858
0.0261414
0.0228638
0.0194355
0.0160902
0.0127393
0.00988894
0.00726513
0.00535744
0.00376447
0.00275932
0.00200784
0.00159677
0.00133907
0.00123419
0.00120436
0.00121958
0.00162316
0.00166238
0.00168868
0.00170611
0.00172686
0.00177033
0.00186229
0.00203543
0.00233824
0.00285351
0.00374455
0.00532725
0.00822736
0.0134516
0.0222863
0.0343361
0.0464007
0.0524243
0.0489626
0.0453891
0.0438141
0.0425236
0.0403503
0.0379064
0.0352614
0.0320555
0.028796
0.0248198
0.0212608
0.0169547
0.0138051
0.0100674
0.00784114
0.00530979
0.00404179
0.00269224
0.00211001
0.00155282
0.00134767
0.0011933
0.00115634
0.00114996
0.0012479
0.00137101
0.00150788
0.00168962
0.00192936
0.00222953
0.00258048
0.00295979
0.00332607
0.00362022
0.00376369
0.00367767
0.00334418
0.00290855
0.00284604
0.00456117
0.00115981
0.00124998
0.00133909
0.00144729
0.00159399
0.00178943
0.00203554
0.00232374
0.00263473
0.00293169
0.00316414
0.0032687
0.00319089
0.0029396
0.00267211
0.00280396
0.00419448
0.00117352
0.00124005
0.00130608
0.00139181
0.0015099
0.00166844
0.00186923
0.00210533
0.00235822
0.00259699
0.00277846
0.0028544
0.00279304
0.00262357
0.00249669
0.00274993
0.00384909
0.00117684
0.00122304
0.00127355
0.00134161
0.00143644
0.00156449
0.00172752
0.00191963
0.00212477
0.00231582
0.00245718
0.00251387
0.00247306
0.00237717
0.00236225
0.00269209
0.00354651
0.0011721
0.00120351
0.0012426
0.00129673
0.00137272
0.00147582
0.00160773
0.00176364
0.00192967
0.00208245
0.00219311
0.00223854
0.00222081
0.00218979
0.00226469
0.00264861
0.00328592
0.00116052
0.00118335
0.00121391
0.00125701
0.00131786
0.00140075
0.00150732
0.00163376
0.0017683
0.00189099
0.00197892
0.00201903
0.00202514
0.0020512
0.00219992
0.00261661
0.00306625
0.00114666
0.00116378
0.00118783
0.0012222
0.00127096
0.00133768
0.00142391
0.00152673
0.00163638
0.00173598
0.00180756
0.00184606
0.00187462
0.00194992
0.00215887
0.00259082
0.00288589
0.00113242
0.00114544
0.00116446
0.00119195
0.00123115
0.00128506
0.00135519
0.00143943
0.00152982
0.00161219
0.00167222
0.00171058
0.0017576
0.00187291
0.00213227
0.00258337
0.00274256
0.00111871
0.00112869
0.00114378
0.00116586
0.00119758
0.00124144
0.00129896
0.00136881
0.00144466
0.00151458
0.00156663
0.00160459
0.00166369
0.00180771
0.0021087
0.00258776
0.00263322
0.00110601
0.00111363
0.00112565
0.00114354
0.00116941
0.00120545
0.00125319
0.00131199
0.00137708
0.00143843
0.00148529
0.00152176
0.00158501
0.00174374
0.00207393
0.00258578
0.00255392
0.00109447
0.00110026
0.0011099
0.00112453
0.00114589
0.00117587
0.00121602
0.00126635
0.00132354
0.00137937
0.00142353
0.00145786
0.00151779
0.0016752
0.00201674
0.0025595
0.00249997
0.00108418
0.00108853
0.00109632
0.00110842
0.00112628
0.00115156
0.00118582
0.00122961
0.00128092
0.00133344
0.00137732
0.00141032
0.00146186
0.00160466
0.00193486
0.0025012
0.00246674
0.0010751
0.00107834
0.00108469
0.00109483
0.00110997
0.00113157
0.00116121
0.00119984
0.00124663
0.00129722
0.00134285
0.0013771
0.0014193
0.00153841
0.00184102
0.00241432
0.00245048
0.00106722
0.00106959
0.00107481
0.00108342
0.00109642
0.00111511
0.00114108
0.00117556
0.00121866
0.00126792
0.00131654
0.00135561
0.00139219
0.00148364
0.00174407
0.00230203
0.00244877
0.00106049
0.00106218
0.00106649
0.00107388
0.00108517
0.00110155
0.00112456
0.00115563
0.00119557
0.00124354
0.00129523
0.00134204
0.0013805
0.00144742
0.00165552
0.00215854
0.00246014
0.00105485
0.00105599
0.00105958
0.00106599
0.00107589
0.0010904
0.00111101
0.00113924
0.00117642
0.0012229
0.00127674
0.00133188
0.00138
0.00143399
0.00158464
0.0019911
0.00248338
0.00105024
0.00105099
0.00105396
0.00105954
0.00106831
0.00108131
0.00109995
0.00112583
0.0011606
0.00120547
0.00126028
0.00132194
0.00138301
0.00143888
0.00153868
0.00187497
0.00251687
0.00104664
0.00104705
0.00104954
0.00105443
0.00106227
0.00107405
0.00109108
0.00111503
0.00114778
0.00119112
0.00124609
0.00131188
0.00138429
0.00145462
0.00153387
0.00178096
0.00255763
0.00104399
0.00104422
0.00104628
0.00105058
0.00105767
0.00106847
0.00108421
0.00110661
0.00113773
0.00117979
0.00123468
0.00130299
0.0013829
0.00146794
0.00155044
0.00172479
0.00260187
0.00104229
0.00104235
0.00104413
0.00104795
0.00105446
0.00106447
0.00107921
0.00110043
0.00113031
0.00117141
0.00122626
0.00129641
0.00138102
0.00147449
0.00156638
0.00169621
0.0026453
0.0010415
0.00104158
0.00104309
0.00104655
0.00105257
0.00106197
0.00107594
0.00109625
0.00112521
0.00116563
0.00122052
0.00129212
0.00138004
0.00147735
0.00156874
0.00166697
0.00268474
0.00104163
0.00104172
0.00104317
0.00104639
0.00105204
0.00106095
0.00107433
0.00109395
0.0011222
0.00116208
0.00121696
0.00128955
0.00137964
0.00147858
0.00156192
0.00161996
0.00271946
0.00104259
0.0010429
0.00104432
0.00104735
0.00105263
0.00106103
0.00107374
0.00109257
0.00111997
0.00115913
0.00121377
0.00128717
0.0013795
0.00148115
0.00156073
0.00158776
0.00276808
0.00104431
0.00104489
0.00104642
0.00104936
0.00105434
0.00106219
0.00107414
0.00109198
0.00111824
0.00115628
0.00121019
0.00128392
0.00137841
0.00148401
0.00156463
0.00157049
0.00283277
0.00104714
0.00104789
0.00104959
0.00105251
0.00105722
0.00106453
0.0010756
0.00109222
0.00111693
0.00115325
0.00120565
0.00127886
0.00137511
0.00148586
0.00157272
0.00156903
0.00291512
0.00105008
0.00105158
0.00105367
0.00105673
0.00106129
0.00106808
0.00107822
0.00109339
0.00111612
0.00114999
0.00119986
0.00127135
0.00136844
0.00148509
0.0015834
0.0015835
0.00301737
0.00105491
0.00105647
0.00105886
0.00106211
0.0010666
0.00107293
0.00108211
0.00109569
0.00111606
0.00114678
0.00119296
0.00126115
0.00135749
0.00147984
0.00159411
0.00161236
0.00314219
0.00105896
0.0010618
0.00106489
0.00106855
0.00107314
0.00107916
0.00108744
0.00109939
0.00111717
0.00114417
0.00118557
0.00124866
0.00134191
0.00146834
0.00160157
0.00165271
0.00329141
0.00106587
0.00106864
0.00107215
0.00107623
0.00108101
0.00108685
0.00109441
0.00110482
0.00111999
0.00114298
0.00117875
0.00123499
0.00132225
0.00144946
0.00160204
0.00170047
0.00346597
0.00107101
0.00107559
0.00108015
0.00108494
0.00109015
0.00109606
0.00110315
0.00111233
0.00112511
0.00114412
0.00117383
0.00122183
0.00130009
0.00142328
0.00159201
0.00175009
0.00366572
0.00107988
0.0010843
0.0010894
0.00109486
0.00110062
0.00110681
0.00111377
0.00112212
0.001133
0.00114841
0.00117215
0.00121119
0.00127791
0.0013915
0.00156923
0.00179435
0.00388883
0.00108594
0.00109261
0.00109909
0.00110559
0.00111218
0.00111898
0.00112621
0.00113428
0.00114392
0.00115646
0.00117479
0.00120489
0.00125855
0.00135736
0.00153367
0.00182454
0.00413188
0.00109619
0.00110266
0.00110983
0.00111726
0.0011248
0.00113248
0.00114041
0.0011488
0.00115796
0.00116852
0.00118239
0.00120429
0.00124466
0.00132506
0.00148823
0.0018315
0.00439012
0.00110278
0.0011118
0.00112061
0.00112939
0.00113821
0.00114713
0.00115624
0.00116559
0.00117508
0.00118459
0.0011951
0.00121012
0.00123822
0.00129893
0.00143868
0.00180826
0.00465778
0.00111364
0.00112256
0.00113224
0.00114223
0.00115245
0.00116294
0.00117371
0.00118467
0.00119526
0.0012045
0.0012127
0.00122243
0.00124032
0.00128247
0.00139247
0.00175391
0.00492798
0.00112056
0.00113224
0.00114375
0.00115541
0.00116741
0.00117989
0.00119287
0.00120608
0.00121844
0.00122796
0.00123468
0.00124071
0.00125108
0.00127784
0.00135689
0.00167617
0.00519221
0.00113177
0.00114345
0.00115604
0.00116926
0.00118325
0.00119814
0.00121385
0.0012299
0.00124454
0.00125456
0.00126038
0.00126412
0.00126975
0.00128567
0.00133741
0.00159028
0.00543985
0.00113913
0.00115363
0.00116821
0.00118349
0.00119994
0.00121776
0.00123675
0.00125617
0.00127342
0.00128386
0.00128914
0.00129173
0.00129519
0.00130527
0.00133727
0.00151461
0.00565816
0.00115075
0.00116516
0.00118103
0.00119842
0.00121768
0.0012389
0.00126164
0.00128485
0.00130486
0.0013156
0.00132041
0.0013227
0.00132638
0.00133554
0.00135772
0.00146645
0.00583253
0.00115828
0.00117552
0.00119373
0.00121387
0.00123648
0.0012616
0.00128851
0.00131581
0.00133885
0.00134997
0.00135364
0.00135637
0.00136288
0.00137607
0.00139905
0.00146173
0.0059496
0.00114908
0.00115167
0.00115479
0.00115844
0.0011626
0.00116722
0.00117225
0.00117763
0.0011833
0.00118919
0.00119525
0.00120143
0.00120768
0.00121396
0.00122025
0.00122652
0.00123277
0.00123905
0.00124549
0.00125256
0.00126332
0.00127402
0.00127929
0.00128298
0.00128544
0.00128663
0.00128611
0.00128324
0.00127896
0.00127202
0.00126538
0.00125559
0.00124775
0.00123632
0.00122812
0.00121605
0.00120802
0.001196
0.00118841
0.00117683
0.00116975
0.00114607
0.00114971
0.00115383
0.00115844
0.0011635
0.00116896
0.00117477
0.00118085
0.00118717
0.00119365
0.00120024
0.0012069
0.00121359
0.00122027
0.00122694
0.00123356
0.00124017
0.00124678
0.00125355
0.00126092
0.00127199
0.00128311
0.00128904
0.00129357
0.00129705
0.00129945
0.00130043
0.00129936
0.0012964
0.0012914
0.00128502
0.0012768
0.0012681
0.00125795
0.00124818
0.00123727
0.00122729
0.00121639
0.0012067
0.00119619
0.00118694
0.00114548
0.00115006
0.00115508
0.00116054
0.00116639
0.00117258
0.00117905
0.00118574
0.00119259
0.00119955
0.00120658
0.00121363
0.00122067
0.00122767
0.00123462
0.00124153
0.00124839
0.00125527
0.00126227
0.00126986
0.00128105
0.00129238
0.00129883
0.00130408
0.00130847
0.00131196
0.00131438
0.00131477
0.00131339
0.00131009
0.00130501
0.00129818
0.00129006
0.00128069
0.00127075
0.00126013
0.0012495
0.0012386
0.00122801
0.00121734
0.00120706
0.00114767
0.00115305
0.00115884
0.001165
0.00117151
0.0011783
0.00118531
0.00119249
0.00119977
0.00120711
0.00121447
0.00122181
0.0012291
0.00123632
0.00124348
0.00125057
0.00125761
0.00126465
0.00127181
0.0012795
0.00129064
0.00130197
0.00130881
0.00131463
0.00131978
0.00132423
0.00132787
0.00132976
0.00132996
0.00132834
0.00132489
0.00131963
0.00131276
0.00130446
0.0012951
0.0012849
0.00127424
0.00126325
0.00125221
0.00124113
0.00123014
0.00115299
0.001159
0.00116538
0.0011721
0.00117912
0.00118637
0.0011938
0.00120133
0.00120893
0.00121654
0.00122412
0.00123165
0.00123909
0.00124645
0.00125371
0.00126089
0.00126801
0.00127512
0.00128233
0.00129002
0.00130093
0.00131207
0.00131914
0.00132538
0.00133112
0.00133634
0.00134096
0.00134437
0.00134606
0.00134607
0.00134434
0.00134082
0.00133556
0.00132871
0.0013205
0.00131117
0.00130102
0.0012903
0.00127922
0.00126792
0.0012565
0.00116176
0.00116819
0.00117499
0.0011821
0.00118947
0.00119704
0.00120475
0.00121252
0.00122031
0.00122808
0.00123578
0.00124339
0.00125089
0.00125827
0.00126554
0.00127272
0.00127982
0.00128689
0.00129405
0.00130162
0.00131214
0.00132289
0.00133003
0.00133653
0.00134266
0.00134844
0.0013538
0.00135859
0.00136159
0.00136316
0.00136312
0.00136139
0.00135793
0.00135279
0.00134612
0.00133811
0.00132899
0.00131902
0.00130842
0.00129735
0.00128591
0.00117426
0.00118092
0.00118793
0.00119525
0.00120282
0.00121057
0.00121841
0.0012263
0.00123418
0.00124199
0.0012497
0.00125729
0.00126475
0.00127206
0.00127924
0.0012863
0.00129328
0.00130021
0.0013072
0.00131454
0.0013245
0.00133469
0.00134173
0.00134829
0.0013546
0.0013607
0.00136652
0.001372
0.0013766
0.00137952
0.00138104
0.00138101
0.00137936
0.00137605
0.00137115
0.00136477
0.00135708
0.0013483
0.00133863
0.00132826
0.00131729
0.00119077
0.00119742
0.00120446
0.00121182
0.00121943
0.00122721
0.00123507
0.00124295
0.00125079
0.00125854
0.00126617
0.00127364
0.00128096
0.0012881
0.00129509
0.00130194
0.00130869
0.00131538
0.00132209
0.00132907
0.00133832
0.00134776
0.00135452
0.00136094
0.0013672
0.00137334
0.00137931
0.00138506
0.00139051
0.00139494
0.00139782
0.00139934
0.00139937
0.00139786
0.00139478
0.00139016
0.00138412
0.00137681
0.0013684
0.00135906
0.00134902
0.0012115
0.00121794
0.00122482
0.00123206
0.00123956
0.00124723
0.00125499
0.00126275
0.00127045
0.00127804
0.00128548
0.00129275
0.00129983
0.00130671
0.00131342
0.00131996
0.00132638
0.00133271
0.00133902
0.00134553
0.00135391
0.00136244
0.00136875
0.0013748
0.00138076
0.00138664
0.00139241
0.00139804
0.00140344
0.00140853
0.00141288
0.00141575
0.00141725
0.00141736
0.00141599
0.00141313
0.00140878
0.00140297
0.00139572
0.00138696
0.00137599
0.0012366
0.00124268
0.00124925
0.00125623
0.00126349
0.00127094
0.00127847
0.001286
0.00129347
0.00130081
0.00130798
0.00131495
0.0013217
0.00132824
0.00133457
0.00134071
0.00134669
0.00135256
0.00135837
0.00136428
0.00137168
0.00137913
0.0013848
0.00139027
0.00139566
0.00140099
0.00140621
0.00141129
0.00141615
0.00142071
0.00142483
0.00142836
0.0014311
0.00143236
0.0014321
0.00143026
0.00142671
0.00142107
0.00141296
0.00140191
0.00138747
0.00126619
0.00127182
0.00127799
0.0012846
0.00129152
0.00129864
0.00130585
0.00131307
0.00132021
0.00132721
0.00133402
0.00134061
0.00134696
0.00135306
0.00135893
0.00136459
0.00137004
0.00137535
0.00138054
0.00138576
0.00139205
0.00139831
0.00140318
0.00140786
0.00141245
0.00141693
0.00142128
0.00142545
0.00142935
0.00143289
0.00143594
0.00143834
0.00143987
0.00144031
0.00143936
0.00143671
0.00143203
0.00142499
0.0014153
0.00140283
0.00138757
0.00130042
0.00130558
0.00131132
0.00131751
0.00132402
0.00133074
0.00133755
0.00134437
0.0013511
0.00135767
0.00136404
0.00137017
0.00137604
0.00138163
0.00138696
0.00139204
0.00139689
0.00140154
0.00140603
0.00141044
0.00141556
0.00142055
0.00142447
0.0014282
0.00143179
0.00143522
0.00143846
0.00144145
0.00144412
0.00144636
0.00144805
0.00144904
0.00144915
0.00144817
0.00144586
0.00144197
0.00143625
0.00142847
0.00141853
0.00140641
0.00139225
0.00133959
0.00134433
0.00134968
0.00135544
0.00136151
0.00136777
0.00137412
0.00138045
0.00138668
0.00139274
0.00139858
0.00140417
0.00140946
0.00141447
0.00141918
0.0014236
0.00142776
0.00143168
0.00143538
0.00143893
0.00144284
0.00144654
0.00144944
0.00145211
0.00145459
0.00145686
0.00145888
0.0014606
0.00146194
0.00146283
0.00146315
0.0014628
0.00146162
0.00145946
0.00145615
0.00145151
0.00144538
0.00143767
0.00142833
0.00141741
0.00140506
0.00138448
0.00138884
0.00139384
0.00139918
0.00140478
0.00141051
0.0014163
0.00142205
0.00142769
0.00143313
0.00143834
0.00144327
0.00144791
0.00145223
0.00145624
0.00145994
0.00146334
0.00146647
0.00146933
0.00147198
0.00147471
0.00147717
0.00147903
0.00148065
0.00148203
0.00148315
0.00148399
0.00148451
0.00148464
0.00148434
0.00148353
0.00148211
0.00148001
0.00147711
0.0014733
0.00146847
0.00146255
0.00145549
0.00144727
0.0014379
0.00142766
0.00143667
0.00144058
0.0014452
0.00145006
0.00145508
0.00146017
0.00146527
0.00147029
0.00147517
0.00147984
0.00148427
0.00148842
0.00149227
0.00149581
0.00149902
0.00150192
0.00150451
0.00150681
0.00150882
0.00151058
0.00151223
0.00151359
0.00151452
0.00151519
0.00151561
0.00151576
0.00151563
0.00151519
0.00151442
0.00151327
0.00151171
0.00150967
0.00150711
0.00150397
0.00150018
0.00149569
0.00149045
0.00148444
0.00147762
0.00147001
0.00146208
0.00149916
0.00150224
0.00150624
0.00151035
0.00151452
0.0015187
0.00152282
0.00152683
0.00153069
0.00153435
0.00153777
0.00154094
0.00154383
0.00154643
0.00154874
0.00155077
0.00155251
0.00155397
0.00155518
0.00155613
0.0015569
0.0015574
0.00155761
0.00155758
0.00155732
0.00155684
0.00155612
0.00155516
0.00155394
0.00155245
0.00155066
0.00154855
0.0015461
0.00154327
0.00154003
0.00153636
0.00153222
0.0015276
0.00152247
0.00151682
0.0015115
0.00157718
0.00157853
0.00158122
0.00158393
0.00158663
0.00158929
0.00159188
0.00159437
0.00159673
0.00159894
0.00160098
0.00160284
0.0016045
0.00160597
0.00160723
0.00160829
0.00160916
0.00160985
0.00161035
0.00161068
0.00161085
0.00161086
0.0016107
0.00161038
0.00160993
0.00160933
0.00160859
0.0016077
0.00160667
0.00160549
0.00160416
0.00160265
0.00160098
0.00159911
0.00159705
0.00159477
0.00159227
0.00158952
0.00158652
0.00158324
0.00158111
0.00450945
0.00281913
0.00300023
0.00349005
0.0038487
0.00398481
0.00393437
0.00376213
0.00352155
0.00324868
0.00296613
0.00268767
0.00242185
0.00217414
0.00194825
0.00174696
0.00157281
0.00414702
0.00275192
0.00271865
0.00304734
0.00334857
0.0034958
0.00348731
0.00336495
0.0031726
0.00294344
0.00270012
0.0024574
0.00222482
0.00200858
0.00181271
0.00163991
0.00149217
0.00379658
0.00268432
0.00250977
0.00269439
0.00292075
0.00305495
0.0030693
0.00298452
0.00283318
0.00264392
0.00243811
0.00223059
0.00203132
0.00184674
0.00168093
0.00153631
0.00141431
0.0034868
0.00261305
0.00235233
0.00241862
0.00256745
0.00267399
0.00269599
0.00263714
0.00251898
0.00236461
0.00219313
0.00201873
0.0018512
0.00169694
0.00155977
0.0014417
0.00134373
0.0032173
0.00255362
0.0022386
0.00221019
0.00228646
0.00235809
0.00237685
0.00233407
0.00224133
0.00211603
0.00197454
0.00182987
0.00169127
0.00156473
0.00145365
0.00135954
0.00128284
0.00298836
0.00252522
0.00216729
0.0020613
0.00207251
0.00210698
0.00211544
0.00208081
0.00200638
0.00190419
0.00178774
0.00166863
0.0015553
0.00145309
0.00136479
0.00129139
0.00123276
0.00279997
0.00253357
0.00213716
0.00196429
0.0019171
0.00191489
0.00190914
0.001877
0.00181501
0.00173048
0.00163423
0.00153636
0.00144432
0.00136263
0.00129343
0.00123715
0.00119329
0.0026509
0.00254776
0.00213694
0.00190752
0.00180819
0.00177172
0.00175069
0.00171777
0.00166395
0.0015926
0.00151226
0.00143159
0.00135697
0.00129205
0.00123828
0.00119563
0.00116335
0.00253872
0.00257771
0.00215243
0.00187428
0.00173042
0.00166482
0.00163036
0.00159569
0.00154738
0.00148583
0.00141788
0.00135093
0.00129029
0.00123874
0.0011971
0.00116498
0.00114147
0.00246006
0.00262147
0.00216921
0.00184679
0.00166806
0.0015818
0.00153853
0.00150297
0.00145866
0.00140444
0.00134615
0.00129012
0.00124059
0.00119954
0.00116724
0.00114307
0.00112607
0.00241063
0.00265923
0.00216714
0.00180872
0.00160909
0.00151372
0.00146795
0.00143307
0.00139176
0.001343
0.00129227
0.00124495
0.00120427
0.00117141
0.00114625
0.00112799
0.00111577
0.00238565
0.00266373
0.00212713
0.00174974
0.00154824
0.00145701
0.00141464
0.00138126
0.00134178
0.00129697
0.00125223
0.00121195
0.0011783
0.00115183
0.00113205
0.00111817
0.0011094
0.00238072
0.00261528
0.00204208
0.00167132
0.00148902
0.00141298
0.0013767
0.0013438
0.00130477
0.00126282
0.00122297
0.00118839
0.00116035
0.00113878
0.00112302
0.00111231
0.00110598
0.0023924
0.0025126
0.00192367
0.00158808
0.00144109
0.00138432
0.00135192
0.00131712
0.00127754
0.00123788
0.00120213
0.00117219
0.00114852
0.00113065
0.00111781
0.00110938
0.00110478
0.00241827
0.00237099
0.00179725
0.00151836
0.00141298
0.00137062
0.00133658
0.00129796
0.00125767
0.00122014
0.00118784
0.00116158
0.00114123
0.00112608
0.00111538
0.0011086
0.0011052
0.00245648
0.00221263
0.00168481
0.00147651
0.00140618
0.00136706
0.00132673
0.00128416
0.00124366
0.00120811
0.00117859
0.0011551
0.00113716
0.001124
0.00111486
0.00110931
0.00110679
0.00250479
0.00205572
0.00160518
0.00146694
0.00141369
0.0013678
0.00132029
0.00127488
0.00123454
0.00120053
0.00117299
0.00115144
0.00113523
0.00112355
0.00111563
0.00111105
0.00110921
0.00255984
0.00191711
0.00157053
0.00148075
0.00142552
0.00136993
0.00131694
0.00126955
0.00122913
0.00119595
0.00116962
0.0011494
0.00113449
0.00112406
0.00111724
0.00111353
0.00111217
0.00261706
0.00180879
0.00157349
0.00150086
0.00143647
0.00137347
0.00131635
0.00126689
0.00122575
0.00119272
0.00116712
0.00114799
0.0011343
0.0011251
0.00111939
0.00111649
0.00111544
0.00267132
0.00174021
0.00158794
0.00151691
0.00144668
0.00137817
0.00131689
0.00126477
0.0012224
0.00118928
0.00116442
0.00114653
0.00113426
0.0011264
0.00112187
0.00111967
0.00111883
0.00271872
0.0016946
0.0015939
0.00152955
0.00145584
0.00138166
0.00131569
0.00126069
0.00121727
0.00118451
0.00116091
0.00114469
0.00113416
0.00112782
0.00112446
0.001123
0.00112232
0.00275717
0.00164425
0.00159415
0.00153928
0.00146113
0.00138078
0.00131018
0.00125304
0.00120958
0.00117817
0.00115657
0.00114249
0.00113391
0.00112917
0.00112697
0.00112619
0.00112568
0.00280595
0.0016149
0.00160126
0.00154706
0.00146038
0.00137263
0.00129808
0.00124035
0.0011985
0.00116977
0.00115106
0.00113963
0.00113323
0.00113016
0.0011291
0.00112889
0.00112855
0.00286941
0.00160398
0.00161241
0.00154945
0.00145071
0.00135573
0.00127924
0.00122322
0.00118484
0.00115996
0.00114477
0.00113624
0.00113209
0.00113068
0.00113078
0.00113126
0.001131
0.00294979
0.00161
0.00162376
0.00154315
0.0014307
0.00133055
0.00125513
0.00120328
0.00116987
0.00114957
0.00113813
0.00113248
0.00113048
0.00113067
0.00113195
0.0011333
0.00113356
0.00304955
0.00163161
0.00163128
0.00152606
0.00140088
0.00129914
0.00122804
0.00118234
0.00115478
0.00113927
0.00113146
0.00112849
0.00112846
0.00113011
0.00113249
0.00113466
0.00113566
0.00317154
0.00166468
0.00163098
0.00149763
0.0013633
0.00126433
0.00120032
0.00116196
0.00114046
0.00112951
0.00112503
0.00112444
0.00112615
0.00112911
0.00113255
0.00113561
0.00113705
0.00331724
0.00170364
0.00161957
0.00145883
0.00132099
0.001229
0.00117395
0.00114329
0.00112756
0.00112071
0.0011191
0.00112053
0.00112371
0.00112783
0.00113229
0.00113634
0.00113861
0.00348694
0.00174286
0.0015951
0.00141204
0.00127731
0.00119567
0.00115047
0.00112722
0.00111664
0.00111328
0.001114
0.00111706
0.00112142
0.00112648
0.00113178
0.0011367
0.00114005
0.00367972
0.00177657
0.00155734
0.00136082
0.00123559
0.00116647
0.00113108
0.0011145
0.00110823
0.00110761
0.00111011
0.00111434
0.00111956
0.0011253
0.00113124
0.00113687
0.00114094
0.00389342
0.00179872
0.00150811
0.00130946
0.0011989
0.00114309
0.00111671
0.00110571
0.00110274
0.00110405
0.0011077
0.00111264
0.00111834
0.00112449
0.00113085
0.00113709
0.00114207
0.00412483
0.00180317
0.0014513
0.00126247
0.00116976
0.00112673
0.00110801
0.00110121
0.00110043
0.00110282
0.00110695
0.00111211
0.0011179
0.00112413
0.00113065
0.00113724
0.00114317
0.00436987
0.00178461
0.00139252
0.00122389
0.00114996
0.00111812
0.0011052
0.00110109
0.00110134
0.00110394
0.00110791
0.00111276
0.00111827
0.00112429
0.00113071
0.0011374
0.00114389
0.00462385
0.00174079
0.00133825
0.00119681
0.00114045
0.00111739
0.00110817
0.0011052
0.00110536
0.00110733
0.0011105
0.00111458
0.00111943
0.00112495
0.00113107
0.00113768
0.0011447
0.00488119
0.00167478
0.00129469
0.00118308
0.0011414
0.00112418
0.00111655
0.00111324
0.00111227
0.00111285
0.00111464
0.00111751
0.00112136
0.00112612
0.0011317
0.00113801
0.00114529
0.00513495
0.00159586
0.00126678
0.00118338
0.00115231
0.00113789
0.00112986
0.00112489
0.00112186
0.00112037
0.00112029
0.00112155
0.00112408
0.00112783
0.00113267
0.00113849
0.00114563
0.00537614
0.00151778
0.00125772
0.00119744
0.00117237
0.00115792
0.00114772
0.00113992
0.00113401
0.00112987
0.00112746
0.00112675
0.00112768
0.00113015
0.00113405
0.00113923
0.00114593
0.00559361
0.00145554
0.00126924
0.00122455
0.00120092
0.00118388