/*--------------------------------*- C++ -*----------------------------------*\
  =========                 |
  \\      /  F ield         | OpenFOAM: The Open Source CFD Toolbox
   \\    /   O peration     | Website:  https://openfoam.org
    \\  /    A nd           | Version:  6
     \\/     M anipulation  |
\*---------------------------------------------------------------------------*/
FoamFile
{
    version     2.0;
    format      ascii;
    class       surfaceVectorField;
    location    "4.89";
    object      Uf;
}
// * * * * * * * * * * * * * * * * * * * * * * * * * * * * * * * * * * * * * //

dimensions      [0 1 -1 0 0 0 0];

internalField   nonuniform List<vector> 
8193
(
(6.08407 0.114778 3.78857e-22)
(6.16847 0.0702937 2.04376e-19)
(5.64525 0.110177 2.04458e-19)
(6.28264 0.130947 -4.13363e-23)
(6.35757 0.126181 1.00572e-19)
(6.35849 0.165326 0)
(6.41297 0.157355 -1.03346e-19)
(6.39935 0.206972 5.6582e-22)
(6.44669 0.184911 -2.32166e-21)
(6.43902 0.261704 1.61708e-20)
(6.49547 0.229134 8.01845e-21)
(6.49124 0.334671 8.73821e-19)
(6.56306 0.290196 1.56437e-20)
(6.5645 0.435655 -1.49173e-20)
(6.65873 0.375282 -1.57631e-20)
(6.66391 0.578454 2.90095e-20)
(6.79203 0.497877 3.13286e-20)
(6.78005 0.775116 6.50359e-20)
(6.95738 0.675476 -2.34683e-20)
(6.87929 1.03049 -2.34353e-20)
(7.11479 0.911439 3.23914e-20)
(6.91736 1.34089 5.2991e-21)
(7.2035 1.19541 -1.79462e-19)
(6.84073 1.68838 -1.50436e-20)
(7.17056 1.51112 2.79036e-19)
(6.60408 2.05624 -1.48934e-20)
(6.96979 1.83804 2.35498e-19)
(6.18179 2.41379 0)
(6.5672 2.15453 -4.4521e-19)
(5.58533 2.73497 3.26027e-20)
(5.97339 2.44271 3.67243e-19)
(4.86587 2.99977 3.22306e-20)
(5.24005 2.69263 -2.45147e-19)
(4.09426 3.1906 6.62819e-20)
(4.4398 2.89257 -1.42983e-19)
(3.34892 3.29161 1.03455e-18)
(3.64249 3.07448 2.08926e-19)
(2.70497 3.29675 -1.166e-19)
(2.91984 3.19124 -1.27612e-19)
(2.22167 3.22577 -3.04673e-20)
(2.33899 3.20233 -4.74072e-21)
(1.93907 3.1031 -1.17317e-20)
(1.94152 3.1396 -5.04209e-20)
(1.85405 2.9145 0)
(1.72958 2.99502 8.03276e-20)
(1.92121 2.70752 0)
(1.71605 2.79932 -2.80387e-20)
(2.09029 2.54592 -3.07491e-21)
(1.85745 2.59762 0)
(2.32781 2.4776 -7.57724e-21)
(2.10904 2.43864 2.61856e-20)
(2.62251 2.49347 -5.89227e-20)
(2.41516 2.35627 1.27401e-19)
(2.97503 2.53846 3.81306e-18)
(2.74615 2.33692 -1.63123e-19)
(3.36521 2.53956 5.37929e-20)
(3.09303 2.33146 5.43701e-20)
(3.76356 2.44428 2.6715e-21)
(3.42742 2.27727 6.29753e-21)
(4.18141 2.26276 3.53077e-21)
(3.75588 2.14332 -3.38486e-19)
(4.64668 2.04268 0)
(4.13767 1.96216 2.64574e-19)
(5.12586 1.81036 1.17745e-20)
(4.59783 1.78085 0)
(5.52988 1.56408 1.19447e-20)
(5.06624 1.59956 -1.71945e-19)
(5.80155 1.30236 -1.06261e-19)
(5.44438 1.39237 0)
(5.95377 1.04226 2.54005e-18)
(5.69007 1.15984 -1.06759e-19)
(6.03557 0.803722 2.34553e-18)
(5.83184 0.92666 -1.67381e-19)
(6.08333 0.591643 9.88543e-20)
(5.91629 0.712633 8.57676e-20)
(6.10828 0.399399 -4.0575e-20)
(5.96647 0.5214 -1.40545e-19)
(6.09331 0.219722 1.5603e-18)
(6.00205 0.342152 -1.90938e-20)
(5.97514 0.0521153 2.55382e-19)
(6.01401 0.174815 4.97014e-20)
(5.92065 0.0511219 4.76574e-19)
(5.68497 -0.0831625 -4.69107e-19)
(6.39515 0.0975337 3.00524e-19)
(6.33442 0.0638818 4.0675e-19)
(6.28525 -0.0075854 -1.15553e-18)
(6.42795 0.129952 1.45941e-18)
(6.40814 0.117266 1.06084e-19)
(6.46186 0.156387 -1.06578e-19)
(6.45833 0.136404 -2.76071e-19)
(6.51251 0.190543 -2.89594e-21)
(6.50896 0.154043 4.58181e-21)
(6.58736 0.239604 -5.57333e-22)
(6.58543 0.189482 1.7524e-19)
(6.69673 0.31583 0)
(6.69741 0.246917 0)
(6.84667 0.428893 -7.76393e-22)
(6.84827 0.335078 8.51808e-21)
(7.03465 0.592718 -9.24392e-21)
(7.04591 0.465195 -7.71546e-22)
(7.23107 0.81397 -1.5902e-21)
(7.26295 0.647861 -8.40414e-21)
(7.37436 1.08443 -9.30977e-20)
(7.43074 0.875495 8.38832e-20)
(7.39313 1.39383 1.98261e-19)
(7.48737 1.13156 -2.06759e-19)
(7.24962 1.71473 1.31413e-18)
(7.38708 1.39692 2.7528e-19)
(6.91275 2.02284 1.50674e-18)
(7.09563 1.64606 1.10473e-18)
(6.36896 2.30217 -7.20896e-20)
(6.59946 1.86946 -1.02137e-18)
(5.66624 2.54939 2.00494e-18)
(5.94453 2.07181 7.14039e-19)
(4.87331 2.75606 -4.20632e-19)
(5.17939 2.25713 -2.89692e-19)
(4.05317 2.93276 2.58461e-21)
(4.38294 2.42798 -4.84639e-19)
(3.2655 3.06613 1.75914e-19)
(3.59736 2.62448 3.99366e-20)
(2.5922 3.12594 1.00191e-19)
(2.87399 2.79008 -3.19184e-19)
(2.08988 3.11052 4.20527e-21)
(2.28612 2.86657 5.96025e-20)
(1.77084 3.01755 4.18847e-20)
(1.86465 2.85467 -3.80484e-20)
(1.64021 2.86893 3.1404e-20)
(1.62648 2.76345 -1.63967e-19)
(1.69559 2.68529 -2.77358e-20)
(1.5827 2.62157 -2.76219e-20)
(1.90249 2.50208 1.3477e-20)
(1.70252 2.46157 -2.64697e-20)
(2.19745 2.35797 1.36446e-19)
(1.95361 2.31432 -2.25627e-20)
(2.50937 2.29794 -1.32487e-18)
(2.29571 2.20868 1.22303e-19)
(2.8202 2.27215 -1.08763e-19)
(2.63533 2.14778 -8.72529e-20)
(3.12076 2.22614 -6.41479e-22)
(2.96262 2.09704 0)
(3.41029 2.12643 -2.98474e-19)
(3.25974 2.01579 2.42508e-19)
(3.72424 1.98124 4.03183e-18)
(3.54179 1.88767 -5.39071e-19)
(4.1145 1.82409 2.66115e-19)
(3.8716 1.74253 2.13569e-19)
(4.5722 1.67342 -1.18147e-20)
(4.29049 1.61826 4.32035e-19)
(5.01453 1.51147 -1.20661e-20)
(4.74572 1.50297 -4.24936e-19)
(5.35995 1.31901 0)
(5.14288 1.35798 0)
(5.5878 1.10421 -1.42168e-20)
(5.42736 1.17306 8.41833e-20)
(5.72723 0.889925 -1.45939e-20)
(5.60974 0.96982 -2.46285e-19)
(5.81452 0.690496 -1.15373e-20)
(5.72592 0.773258 2.19238e-19)
(5.87006 0.509989 2.10376e-20)
(5.80013 0.594542 -1.16309e-20)
(5.91081 0.344301 3.37764e-20)
(5.84775 0.428048 6.8628e-20)
(5.94787 0.202268 2.88351e-19)
(5.8734 0.271106 -2.91761e-19)
(5.86981 0.15536 9.08905e-19)
(5.8999 0.115409 2.21272e-18)
(6.39067 0.0946917 2.10485e-19)
(6.38785 0.0651193 2.2122e-19)
(6.35625 0.0624188 4.62088e-19)
(6.43705 0.0983763 -1.69402e-19)
(6.4405 0.0765747 7.61669e-21)
(6.50044 0.108736 -1.19128e-18)
(6.50737 0.0774986 -3.94699e-19)
(6.58411 0.138005 -3.67161e-19)
(6.58816 0.0876305 2.37542e-19)
(6.70081 0.184979 1.75619e-19)
(6.70037 0.112083 3.77011e-19)
(6.86341 0.257947 8.57301e-21)
(6.86233 0.15705 -2.21569e-19)
(7.07022 0.365031 8.46537e-21)
(7.0675 0.231411 -6.77896e-20)
(7.30089 0.516016 0)
(7.31446 0.341421 0)
(7.49869 0.7096 2.32526e-20)
(7.54582 0.486958 -1.8915e-19)
(7.58635 0.921124 4.62092e-20)
(7.66343 0.649852 5.23662e-19)
(7.52869 1.14241 2.29439e-20)
(7.64905 0.81061 -3.37931e-19)
(7.29092 1.35479 9.49685e-19)
(7.45229 0.955975 0)
(6.85416 1.5433 1.34769e-18)
(7.05614 1.07902 8.51608e-19)
(6.25308 1.72091 -2.20866e-19)
(6.49792 1.19546 -4.13183e-19)
(5.53448 1.89544 2.06279e-19)
(5.82099 1.32568 6.47891e-19)
(4.75508 2.07178 -4.07198e-19)
(5.06789 1.47052 -1.05712e-18)
(3.96657 2.23309 -4.15782e-19)
(4.29299 1.65209 7.27015e-20)
(3.22334 2.38217 -5.01503e-19)
(3.54499 1.86386 -1.48791e-19)
(2.5763 2.52619 -2.86723e-19)
(2.86804 2.05958 -1.9402e-19)
(2.06213 2.60376 -5.3588e-21)
(2.27523 2.21473 1.10079e-20)
(1.71744 2.59063 -2.23242e-19)
(1.8208 2.29822 9.12955e-20)
(1.56181 2.51097 -2.21276e-19)
(1.55092 2.29831 -2.6444e-19)
(1.59415 2.40105 -2.63653e-20)
(1.48199 2.2346 0)
(1.78544 2.28385 1.31662e-19)
(1.57628 2.1434 -5.93652e-20)
(2.07702 2.17719 4.26274e-20)
(1.80936 2.05787 -3.15336e-19)
(2.40609 2.10055 1.84268e-20)
(2.1527 1.98674 2.14328e-19)
(2.72475 2.05343 1.85425e-20)
(2.50257 1.92555 -2.33631e-20)
(3.01807 1.98543 2.43936e-19)
(2.81446 1.85577 2.92671e-20)
(3.28868 1.87555 -1.79873e-18)
(3.08526 1.75516 -5.80732e-20)
(3.5755 1.74129 -2.18216e-19)
(3.33739 1.62398 -2.39389e-19)
(3.92976 1.61992 4.50645e-19)
(3.63558 1.4994 2.41202e-20)
(4.35362 1.51771 -3.01608e-18)
(4.02178 1.41426 4.30565e-19)
(4.77958 1.40722 -4.17952e-19)
(4.45886 1.3492 -4.11465e-19)
(5.13264 1.26121 8.26412e-20)
(4.86134 1.25639 0)
(5.38492 1.08241 -1.42157e-19)
(5.17099 1.11698 -2.86867e-20)
(5.55352 0.892945 1.41717e-18)
(5.38598 0.947641 -5.45811e-19)
(5.66609 0.711857 2.21718e-19)
(5.53348 0.774091 6.75289e-19)
(5.73838 0.545899 -3.25811e-20)
(5.63562 0.612769 0)
(5.77816 0.390674 -3.18902e-19)
(5.70387 0.463593 -3.29301e-20)
(5.79496 0.248123 1.84091e-18)
(5.74663 0.319798 -2.87962e-19)
(5.7606 0.203355 6.10195e-19)
(5.79945 0.125491 1.89063e-18)
(6.42858 0.035921 1.53727e-20)
(6.41624 0.0152878 -3.22654e-21)
(6.3836 0.0368263 3.33719e-20)
(6.49524 0.0350432 -2.19922e-19)
(6.48241 0.00826789 -3.53219e-21)
(6.58048 0.0377293 -7.3067e-19)
(6.5635 -0.0077471 -5.30182e-19)
(6.69598 0.0518974 4.39831e-19)
(6.67311 -0.0157529 5.38888e-19)
(6.86032 0.0790998 2.06372e-19)
(6.82569 -0.0142845 2.19273e-19)
(7.07878 0.127867 -2.28656e-19)
(7.03723 0.00141088 -2.79098e-20)
(7.33244 0.202574 -8.55895e-21)
(7.28116 0.0366908 -2.08506e-19)
(7.57817 0.30953 -1.89864e-19)
(7.54488 0.0933751 0)
(7.72056 0.429666 3.27812e-19)
(7.71873 0.159471 -7.19431e-19)
(7.72439 0.542052 1.11276e-19)
(7.74125 0.211254 7.59627e-19)
(7.57544 0.634742 -3.54899e-19)
(7.61874 0.231949 -3.55104e-19)
(7.22964 0.699716 -1.15141e-19)
(7.29525 0.224948 0)
(6.71679 0.759664 -4.40336e-20)
(6.82436 0.218376 -1.12891e-19)
(6.09231 0.846013 4.29641e-19)
(6.26052 0.24815 -6.69279e-19)
(5.3922 0.980277 -6.14372e-20)
(5.62403 0.334857 2.8563e-19)
(4.64429 1.15403 -4.57091e-19)
(4.92236 0.473925 -8.98562e-19)
(3.89655 1.34047 4.36448e-19)
(4.19501 0.673431 4.15125e-19)
(3.20372 1.54602 2.07977e-19)
(3.51229 0.909088 -1.21777e-18)
(2.58039 1.74223 2.95374e-19)
(2.87494 1.14228 7.81442e-19)
(2.05299 1.90123 2.12631e-19)
(2.29698 1.36243 6.54674e-19)
(1.6732 1.99223 1.5328e-19)
(1.82756 1.54025 7.3703e-20)
(1.48271 2.01108 6.273e-20)
(1.52476 1.64737 1.47036e-19)
(1.49579 1.97668 -3.30876e-20)
(1.41532 1.67609 0)
(1.67828 1.92679 6.66757e-20)
(1.47898 1.66351 -4.09708e-19)
(1.95852 1.88103 2.11675e-19)
(1.69327 1.65677 -9.48308e-20)
(2.27706 1.82486 5.36406e-20)
(2.01417 1.64454 5.15634e-19)
(2.58345 1.76527 -3.52732e-19)
(2.35736 1.6064 8.28937e-20)
(2.8532 1.68605 -1.11034e-18)
(2.66114 1.53761 2.91154e-20)
(3.0962 1.57369 -3.06348e-19)
(2.91466 1.43423 -3.05841e-19)
(3.35444 1.45489 0)
(3.15088 1.31401 0)
(3.67969 1.36627 0)
(3.43088 1.21869 -7.60784e-19)
(4.07896 1.31113 0)
(3.79276 1.17478 1.52938e-18)
(4.49639 1.25426 0)
(4.20813 1.15781 -4.95095e-19)
(4.86085 1.16027 -8.27057e-20)
(4.60442 1.11549 0)
(5.13824 1.02489 -3.94506e-19)
(4.92658 1.0228 5.05063e-20)
(5.33632 0.867492 1.23205e-18)
(5.16505 0.891694 -3.13849e-19)
(5.47786 0.709067 4.64587e-19)
(5.33869 0.746564 -2.03783e-20)
(5.57938 0.560142 0)
(5.4655 0.60649 3.265e-19)
(5.64824 0.423407 0)
(5.55671 0.475062 -5.21073e-19)
(5.68762 0.301905 0)
(5.62394 0.346839 3.7369e-20)
(5.65471 0.243376 5.44805e-19)
(5.70121 0.188612 0)
(6.45813 -0.0358495 -1.52124e-20)
(6.43445 -0.0602604 3.23343e-19)
(6.40052 -0.01659 -3.23479e-20)
(6.54139 -0.0548201 -3.09531e-19)
(6.51708 -0.0879744 -3.2702e-19)
(6.65226 -0.0736267 -3.78178e-19)
(6.61397 -0.131584 2.27686e-21)
(6.80495 -0.0885434 2.94042e-19)
(6.75108 -0.171445 -4.02432e-19)
(7.01516 -0.0981567 1.91972e-19)
(6.94028 -0.206113 1.45615e-19)
(7.26753 -0.0935277 1.41724e-19)
(7.18419 -0.237235 4.60348e-19)
(7.52276 -0.0828469 -1.97331e-19)
(7.42313 -0.265051 -1.98243e-19)
(7.72098 -0.056358 -2.88881e-19)
(7.65361 -0.297356 0)
(7.77562 -0.0582512 -1.92998e-20)
(7.69675 -0.355982 -8.93876e-19)
(7.67244 -0.0915419 2.72542e-19)
(7.58199 -0.456276 3.95312e-19)
(7.37755 -0.166188 0)
(7.30522 -0.594621 9.39457e-19)
(6.93099 -0.242754 0)
(6.90254 -0.736393 -9.86887e-19)
(6.40421 -0.277217 -5.15396e-19)
(6.4441 -0.83371 0)
(5.81922 -0.241615 -6.82909e-19)
(5.9405 -0.854867 9.11285e-19)
(5.17966 -0.131514 -2.59629e-20)
(5.37874 -0.790308 1.11579e-18)
(4.50044 0.0452888 -1.99213e-20)
(4.75635 -0.650905 -1.18285e-18)
(3.82621 0.266742 -1.18442e-18)
(4.10317 -0.445518 5.93168e-19)
(3.1907 0.512208 -6.18834e-19)
(3.48433 -0.198927 -5.93702e-19)
(2.59827 0.763086 1.13122e-18)
(2.89552 0.071285 2.53332e-20)
(2.07644 0.99459 5.20997e-19)
(2.34558 0.3481 -4.39019e-19)
(1.68062 1.17808 2.96281e-20)
(1.87659 0.601966 -1.5622e-20)
(1.46846 1.30205 7.84924e-20)
(1.55083 0.797813 -5.7883e-19)
(1.46383 1.35176 7.08605e-21)
(1.38579 0.930756 0)
(1.61682 1.39821 -8.58726e-20)
(1.43549 1.02076 7.03361e-21)
(1.86488 1.43493 2.198e-19)
(1.62693 1.10501 -9.25634e-20)
(2.15794 1.43278 1.59286e-19)
(1.90691 1.16405 1.85076e-19)
(2.44752 1.39045 3.7622e-20)
(2.21887 1.17079 4.21084e-19)
(2.70557 1.3142 -3.10979e-21)
(2.50597 1.12568 -8.01203e-19)
(2.93741 1.21526 -3.18125e-21)
(2.75125 1.04108 4.13943e-19)
(3.18566 1.12458 -7.48953e-19)
(2.98323 0.950521 -5.07162e-19)
(3.49513 1.07664 2.3941e-18)
(3.25857 0.897777 -1.09163e-18)
(3.87162 1.06826 -5.61394e-19)
(3.6055 0.900087 2.37288e-18)
(4.26993 1.06009 -5.0421e-19)
(3.99949 0.928467 -4.65066e-19)
(4.63003 1.01391 1.31647e-19)
(4.3813 0.931715 -6.50456e-19)
(4.9187 0.921958 1.37134e-19)
(4.70457 0.883406 1.18279e-18)
(5.13676 0.800833 -4.95591e-19)
(4.95726 0.792018 -1.01318e-18)
(5.30024 0.670781 5.57713e-19)
(5.15115 0.67968 -2.83675e-19)
(5.42294 0.543387 -1.76774e-19)
(5.29889 0.566079 5.28642e-19)
(5.51204 0.423709 8.18492e-19)
(5.41112 0.456187 -3.3798e-19)
(5.57171 0.314556 1.96183e-18)
(5.50019 0.345072 3.70431e-20)
(5.55009 0.252871 -1.09231e-19)
(5.60376 0.212848 4.52642e-19)
(6.47858 -0.140219 1.31951e-18)
(6.43752 -0.165709 6.52196e-19)
(6.40565 -0.0980208 3.04163e-19)
(6.57796 -0.186022 -1.21879e-20)
(6.53254 -0.218571 -6.69263e-19)
(6.71323 -0.237146 -1.26175e-19)
(6.64361 -0.2988 1.19294e-18)
(6.8997 -0.293943 -7.93396e-19)
(6.80239 -0.383139 -1.14255e-18)
(7.14021 -0.353211 8.46936e-20)
(7.01474 -0.470858 -2.09515e-19)
(7.38685 -0.420144 2.64113e-19)
(7.24035 -0.565993 1.12017e-18)
(7.62175 -0.486269 0)
(7.45378 -0.682101 0)
(7.71304 -0.600267 -1.00253e-20)
(7.52273 -0.834343 -1.01593e-20)
(7.59323 -0.755358 1.12875e-19)
(7.37625 -1.03184 -7.28346e-19)
(7.3036 -0.953807 1.06094e-18)
(7.10545 -1.27379 1.26595e-18)
(6.90412 -1.15931 3.43629e-20)
(6.75644 -1.53059 -6.22899e-19)
(6.47143 -1.31707 -9.64901e-19)
(6.38823 -1.75097 -1.85461e-20)
(6.01586 -1.39274 1.41497e-18)
(6.01117 -1.89768 3.27143e-19)
(5.51483 -1.37755 2.81544e-18)
(5.5939 -1.95198 8.07215e-19)
(4.95611 -1.28271 1.28946e-19)
(5.10946 -1.90969 4.48157e-19)
(4.35754 -1.11811 -5.15091e-19)
(4.56708 -1.78429 -5.84222e-19)
(3.7624 -0.892407 1.27491e-18)
(3.99959 -1.5947 6.27288e-19)
(3.19233 -0.626283 2.07124e-20)
(3.45344 -1.35579 6.32017e-19)
(2.64966 -0.337739 -1.70402e-18)
(2.92338 -1.06997 3.23886e-19)
(2.15839 -0.0529293 -1.0856e-18)
(2.41122 -0.757709 -6.96902e-19)
(1.77129 0.202022 -6.54204e-19)
(1.95567 -0.447865 0)
(1.54361 0.402067 -6.49732e-19)
(1.61123 -0.175146 -2.67325e-18)
(1.50212 0.574763 0)
(1.43338 0.0609291 -1.39964e-19)
(1.61074 0.724418 0)
(1.46129 0.258449 -2.73014e-20)
(1.81069 0.842402 6.35326e-20)
(1.61889 0.427158 -9.57095e-21)
(2.06068 0.908542 4.44344e-19)
(1.85016 0.552754 -5.72483e-19)
(2.31896 0.909925 -4.77783e-19)
(2.11217 0.615502 -2.65791e-20)
(2.55907 0.861891 -3.50878e-19)
(2.36997 0.615629 3.269e-20)
(2.78664 0.794466 -7.74014e-20)
(2.607 0.576115 4.54995e-19)
(3.03473 0.75038 -5.18842e-19)
(2.84645 0.540073 -9.11979e-19)
(3.33852 0.753707 1.45736e-18)
(3.12545 0.546138 -3.20897e-19)
(3.69829 0.793899 8.82437e-19)
(3.46281 0.599854 7.38743e-19)
(4.07674 0.83063 -6.12841e-19)
(3.83526 0.670209 6.6874e-19)
(4.42561 0.82805 1.17315e-18)
(4.19688 0.713036 -2.17891e-18)
(4.71665 0.777907 -6.21579e-19)
(4.51208 0.705171 1.73551e-18)
(4.94751 0.694359 -1.72091e-19)
(4.76994 0.652822 -7.03396e-19)
(5.12896 0.595937 4.24924e-19)
(4.97699 0.575209 -4.69923e-20)
(5.27143 0.494914 3.82793e-19)
(5.14111 0.491068 8.92638e-19)
(5.38043 0.397617 1.82338e-19)
(5.27177 0.405905 -1.11215e-18)
(5.45929 0.304956 -6.35974e-19)
(5.37898 0.316076 -2.84426e-19)
(5.44605 0.238804 5.46835e-19)
(5.50871 0.214944 -1.0496e-18)
(6.47456 -0.276206 -1.6334e-20)
(6.41274 -0.297607 3.64128e-19)
(6.39275 -0.20664 8.15948e-19)
(6.58327 -0.356632 -6.83814e-19)
(6.51154 -0.379892 7.14743e-20)
(6.73273 -0.45194 7.58575e-19)
(6.62768 -0.505053 9.06986e-19)
(6.93412 -0.567046 -7.24806e-19)
(6.79051 -0.642734 -1.4866e-18)
(7.16537 -0.690278 1.59822e-19)
(6.99965 -0.79802 4.07537e-20)
(7.38297 -0.845449 3.84427e-19)
(7.16065 -0.973283 3.86026e-19)
(7.45557 -1.03388 -1.01984e-20)
(7.22159 -1.18361 -8.17975e-20)
(7.29372 -1.27489 5.71357e-20)
(7.06627 -1.44643 -4.34113e-19)
(6.99335 -1.5544 5.49745e-19)
(6.78102 -1.75171 1.98844e-19)
(6.63592 -1.85016 -1.0067e-18)
(6.45354 -2.07847 -1.28461e-20)
(6.28612 -2.11556 -7.37366e-19)
(6.14079 -2.39 -7.37258e-19)
(5.94844 -2.31491 1.25038e-18)
(5.85242 -2.64709 9.2285e-19)
(5.59026 -2.42833 -1.48992e-19)
(5.56242 -2.82855 -4.60777e-19)
(5.17841 -2.44924 -1.01446e-18)
(5.22824 -2.91974 -4.41308e-19)
(4.70401 -2.3816 2.43275e-20)
(4.82564 -2.91164 4.87907e-19)
(4.18892 -2.23979 5.56401e-19)
(4.36424 -2.81556 -1.42754e-18)
(3.6777 -2.03628 0)
(3.87916 -2.66053 0)
(3.18759 -1.77911 9.23055e-19)
(3.4133 -2.44831 -5.8502e-19)
(2.71624 -1.48332 1.74608e-18)
(2.95064 -2.17287 -5.4329e-19)
(2.28649 -1.1676 8.28474e-19)
(2.49094 -1.85469 1.67696e-18)
(1.93478 -0.85993 8.21369e-19)
(2.0632 -1.50855 0)
(1.69891 -0.568312 5.05846e-19)
(1.73489 -1.16728 1.01301e-18)
(1.60815 -0.288604 -1.6611e-19)
(1.56402 -0.849554 1.59254e-19)
(1.65737 -0.0508428 -3.69678e-20)
(1.55914 -0.57066 -1.04713e-18)
(1.80266 0.136654 -1.36674e-19)
(1.6704 -0.335648 -2.15607e-20)
(2.00225 0.263174 -5.32676e-19)
(1.84729 -0.153623 4.67292e-19)
(2.22238 0.324756 5.19262e-19)
(2.05782 -0.0336975 -4.06171e-19)
(2.44365 0.332624 8.46893e-19)
(2.27866 0.0289894 8.8483e-19)
(2.67054 0.325817 -3.67028e-19)
(2.50646 0.060253 4.70612e-20)
(2.92702 0.344729 -4.09769e-19)
(2.75364 0.100593 1.17785e-19)
(3.22944 0.408545 -1.01243e-19)
(3.04128 0.176686 -6.27483e-19)
(3.57303 0.496926 5.05016e-19)
(3.36911 0.282616 -9.74424e-19)
(3.92832 0.572792 -1.50836e-18)
(3.71783 0.38936 1.3271e-18)
(4.25937 0.607919 -3.5141e-19)
(4.05515 0.464753 -1.52896e-18)
(4.54444 0.596368 1.01314e-18)
(4.35559 0.492319 6.96489e-19)
(4.78002 0.550138 6.94158e-20)
(4.61096 0.476949 6.4033e-19)
(4.97266 0.484972 7.51056e-19)
(4.82406 0.434638 -8.38968e-19)
(5.12966 0.412623 -7.95529e-19)
(4.99905 0.381638 8.92938e-19)
(5.25502 0.339817 -8.55999e-19)
(5.14404 0.323105 -1.51988e-18)
(5.35019 0.266837 1.71079e-18)
(5.2658 0.257587 4.36184e-20)
(5.34756 0.198128 1.18542e-18)
(5.41535 0.192419 1.25074e-18)
(6.42918 -0.438701 4.22387e-19)
(6.34317 -0.446687 -1.37798e-20)
(6.34794 -0.337015 -8.06741e-21)
(6.5371 -0.559424 1.98698e-18)
(6.43515 -0.561104 4.25139e-19)
(6.68274 -0.704538 -5.90046e-19)
(6.54113 -0.733878 6.5709e-19)
(6.8673 -0.880492 -7.35083e-19)
(6.68387 -0.924529 -1.7022e-18)
(7.02451 -1.0859 4.62205e-19)
(6.82325 -1.14283 4.63924e-19)
(7.04964 -1.31652 -8.211e-20)
(6.84603 -1.39015 0)
(6.89058 -1.60283 -1.25686e-19)
(6.70656 -1.67523 -2.30326e-19)
(6.59728 -1.92578 8.58835e-20)
(6.41482 -2.0027 3.43929e-19)
(6.2581 -2.27035 -3.56268e-19)
(6.07353 -2.3585 -2.66901e-19)
(5.94903 -2.60692 1.737e-19)
(5.7741 -2.71431 -6.2269e-19)
(5.68673 -2.9021 7.49068e-19)
(5.53717 -3.04107 -1.1536e-19)
(5.44228 -3.13194 -4.93416e-19)
(5.33435 -3.31475 1.13526e-18)
(5.17244 -3.28243 -7.80507e-19)
(5.12381 -3.52164 -3.64161e-18)
(4.84394 -3.3433 1.04521e-18)
(4.86752 -3.64957 2.08517e-18)
(4.45115 -3.31367 -5.27949e-19)
(4.54631 -3.68424 1.74603e-18)
(4.01949 -3.20512 -1.64547e-18)
(4.16759 -3.6321 -1.64132e-18)
(3.58696 -3.03638 -5.83873e-19)
(3.75797 -3.52348 0)
(3.1685 -2.81367 -2.0994e-18)
(3.36717 -3.35335 -1.97873e-19)
(2.76095 -2.53666 -1.26076e-18)
(2.98183 -3.10963 -7.25367e-19)
(2.38455 -2.21743 2.47242e-19)
(2.58953 -2.81355 -6.1462e-19)
(2.07328 -1.86474 2.01015e-19)
(2.22139 -2.46939 0)
(1.85417 -1.50785 6.02336e-19)
(1.92298 -2.09528 1.53617e-18)
(1.74845 -1.17024 5.10983e-20)
(1.75196 -1.73056 2.92943e-19)
(1.75452 -0.873872 -1.25778e-19)
(1.71709 -1.40289 -1.50846e-19)
(1.84675 -0.632792 1.076e-19)
(1.78008 -1.1224 6.45827e-19)
(1.99538 -0.451973 1.21618e-19)
(1.90427 -0.892989 -4.19549e-19)
(2.1771 -0.327604 3.06001e-22)
(2.06824 -0.716175 0)
(2.37985 -0.241465 4.07353e-21)
(2.25925 -0.581085 5.59156e-20)
(2.6076 -0.165031 5.21391e-19)
(2.47527 -0.464131 -5.19999e-19)
(2.87002 -0.0680346 -6.29764e-20)
(2.72513 -0.338943 1.58137e-18)
(3.17073 0.0544213 -1.4852e-18)
(3.0112 -0.194408 -1.14592e-18)
(3.49609 0.184957 9.64989e-20)
(3.32643 -0.0426751 -9.97314e-19)
(3.82502 0.292827 7.12017e-19)
(3.64851 0.092822 1.1812e-18)
(4.13379 0.359217 0)
(3.95846 0.193507 -2.27622e-19)
(4.40699 0.382007 3.09648e-19)
(4.23976 0.250849 -4.1022e-19)
(4.64086 0.371316 -4.65781e-19)
(4.4868 0.269169 -4.57583e-20)
(4.83876 0.3397 -3.87913e-19)
(4.69959 0.261176 -5.87122e-19)
(5.00539 0.29775 -7.02722e-20)
(4.87999 0.23939 7.58582e-19)
(5.14253 0.252014 1.04367e-19)
(5.03522 0.208824 7.07614e-19)
(5.25081 0.20093 3.47665e-19)
(5.16609 0.16997 -5.13311e-19)
(5.26009 0.130985 0)
(5.32882 0.14517 6.21653e-19)
(6.32177 -0.613216 -1.04654e-20)
(6.21256 -0.595565 6.64506e-19)
(6.25324 -0.477337 -9.89996e-21)
(6.41496 -0.774423 6.40459e-19)
(6.2882 -0.741005 -1.37532e-18)
(6.53295 -0.968012 8.42764e-19)
(6.36402 -0.952925 2.14964e-18)
(6.63871 -1.19118 -6.54157e-19)
(6.45071 -1.18268 -1.47467e-18)
(6.64916 -1.45041 0)
(6.46611 -1.44058 0)
(6.505 -1.74281 5.87946e-20)
(6.33127 -1.72896 0)
(6.21501 -2.07336 5.3105e-20)
(6.04543 -2.04401 9.89109e-20)
(5.86976 -2.42935 9.85804e-20)
(5.69167 -2.38878 3.7282e-19)
(5.56498 -2.79058 -7.72837e-21)
(5.37607 -2.75183 -1.91184e-19)
(5.33512 -3.13233 -4.17745e-19)
(5.15074 -3.10739 1.30128e-19)
(5.15713 -3.43235 8.71078e-19)
(4.99795 -3.43086 -1.00262e-19)
(4.98789 -3.67615 -1.00554e-18)
(4.87071 -3.70604 -1.4332e-20)
(4.7888 -3.85494 -1.28259e-18)
(4.72675 -3.92221 -1.2854e-18)
(4.53586 -3.95842 2.09249e-18)
(4.53856 -4.07376 1.348e-18)
(4.22631 -3.97765 7.22965e-19)
(4.29459 -4.15071 1.63062e-19)
(3.87784 -3.91308 0)
(3.99901 -4.15549 -3.42324e-19)
(3.51626 -3.77691 1.05516e-19)
(3.66834 -4.10541 -8.38685e-19)
(3.15843 -3.59938 7.14049e-19)
(3.33163 -3.98825 3.6832e-19)
(2.80959 -3.36836 -4.5164e-19)
(3.01829 -3.7914 5.97725e-19)
(2.48137 -3.07797 -1.03806e-18)
(2.70585 -3.53644 -3.43428e-19)
(2.20909 -2.73608 -3.58966e-19)
(2.408 -3.23057 -4.492e-20)
(2.01908 -2.36459 -3.57315e-19)
(2.15444 -2.87571 -3.09072e-19)
(1.91804 -1.99934 -3.78421e-20)
(1.98935 -2.50577 0)
(1.90016 -1.67247 5.44496e-20)
(1.92535 -2.15819 5.99393e-21)
(1.95127 -1.39316 -5.8676e-20)
(1.94798 -1.84994 4.99352e-20)
(2.0571 -1.16193 -1.11178e-19)
(2.03017 -1.58197 3.32767e-19)
(2.2065 -0.971191 1.09215e-21)
(2.15832 -1.34999 -3.97131e-19)
(2.39387 -0.803675 -5.13835e-19)
(2.32608 -1.14366 -2.04082e-20)
(2.61766 -0.639147 5.21544e-19)
(2.53086 -0.947448 4.56773e-19)
(2.87715 -0.467984 5.70485e-19)
(2.77099 -0.750272 1.10325e-18)
(3.16557 -0.294324 -6.56467e-19)
(3.04142 -0.553196 -4.90784e-19)
(3.46844 -0.133645 3.44698e-19)
(3.3328 -0.36894 -6.52211e-19)
(3.76845 -0.00224479 2.78626e-19)
(3.62668 -0.21285 -7.76334e-19)
(4.05214 0.0888869 -6.33173e-19)
(3.90771 -0.0934553 2.08587e-20)
(4.30918 0.141434 -7.7487e-19)
(4.16803 -0.0121063 8.58819e-19)
(4.53605 0.163177 -3.72889e-19)
(4.40261 0.0357346 3.76341e-19)
(4.73394 0.163684 5.27352e-19)
(4.60982 0.0593736 3.3912e-19)
(4.90481 0.152484 1.45645e-18)
(4.79146 0.0676494 2.64457e-19)
(5.04939 0.13417 -2.04197e-19)
(4.95173 0.0653147 6.99406e-19)
(5.1673 0.106958 -8.70295e-19)
(5.08647 0.0541636 -1.31251e-18)
(5.19022 0.0379515 0)
(5.25549 0.0731161 1.07804e-18)
(6.14402 -0.770632 1.46457e-18)
(6.01876 -0.718102 -6.69583e-20)
(6.09965 -0.607733 1.48724e-18)
(6.20467 -0.964709 -2.03868e-18)
(6.06496 -0.887682 -5.46038e-19)
(6.2628 -1.19216 2.16498e-18)
(6.09093 -1.11781 1.73481e-18)
(6.26352 -1.4475 -8.00217e-19)
(6.09443 -1.36158 -1.06653e-18)
(6.13474 -1.72442 0)
(5.98566 -1.62724 1.03209e-18)
(5.85834 -2.02696 -2.56871e-19)
(5.71775 -1.91749 -1.09022e-18)
(5.50531 -2.35725 3.983e-19)
(5.35673 -2.2253 -2.85488e-19)
(5.18136 -2.70745 3.97535e-19)
(5.01259 -2.55746 7.88675e-19)
(4.94922 -3.06025 -2.85862e-19)
(4.76398 -2.90961 -6.52066e-19)
(4.80404 -3.39407 -1.34928e-19)
(4.62216 -3.25784 -5.0687e-20)
(4.70272 -3.68948 -6.34805e-19)
(4.54631 -3.57803 -1.89588e-19)
(4.5991 -3.93363 -1.5194e-19)
(4.48442 -3.8543 -2.17256e-19)
(4.46127 -4.12122 7.67478e-19)
(4.39748 -4.07482 7.66296e-19)
(4.27452 -4.25001 -5.83824e-20)
(4.26463 -4.23632 -3.37987e-19)
(4.03949 -4.31548 -4.27383e-19)
(4.08157 -4.33759 5.26244e-19)
(3.76693 -4.31166 -9.83397e-19)
(3.85631 -4.38311 -9.40103e-19)
(3.47277 -4.23703 -7.08775e-19)
(3.60118 -4.3855 -2.4545e-19)
(3.17816 -4.10135 1.0725e-19)
(3.33243 -4.33141 3.7874e-19)
(2.89363 -3.91946 5.10472e-19)
(3.07633 -4.1913 -3.64891e-19)
(2.62584 -3.68321 4.59062e-19)
(2.83359 -3.98443 5.01063e-19)
(2.3966 -3.38823 1.71734e-20)
(2.6082 -3.73057 -4.40596e-20)
(2.22921 -3.04602 4.52266e-20)
(2.41018 -3.42672 4.48792e-20)
(2.13156 -2.69283 4.33383e-20)
(2.26028 -3.08931 -1.66617e-19)
(2.09833 -2.35539 4.36612e-20)
(2.18412 -2.75144 5.4463e-19)
(2.1232 -2.05182 5.27071e-20)
(2.17611 -2.43231 -3.19179e-20)
(2.20042 -1.77741 -3.3801e-19)
(2.23113 -2.13781 5.29892e-20)
(2.32636 -1.52663 -4.80096e-19)
(2.33426 -1.86331 -3.95524e-19)
(2.49692 -1.29032 9.01272e-19)
(2.48126 -1.60372 -7.08853e-20)
(2.70704 -1.06107 1.05272e-18)
(2.66744 -1.35455 9.7339e-19)
(2.94917 -0.83888 8.27389e-20)
(2.88628 -1.11494 1.13148e-19)
(3.21292 -0.631482 -4.86743e-19)
(3.12968 -0.890246 2.87602e-20)
(3.48653 -0.451009 -1.76614e-18)
(3.38793 -0.689772 -5.24586e-19)
(3.7572 -0.305093 -1.03747e-18)
(3.64906 -0.521459 -1.26117e-18)
(4.01466 -0.194784 1.53998e-18)
(3.90293 -0.388154 1.19804e-18)
(4.25306 -0.11753 2.04648e-18)
(4.14195 -0.287994 3.97005e-19)
(4.46908 -0.0674165 1.1015e-18)
(4.36181 -0.215508 1.18048e-18)
(4.66221 -0.0370017 7.12714e-20)
(4.56048 -0.16426 -3.25455e-19)
(4.83281 -0.018978 -5.31969e-19)
(4.73958 -0.128436 -5.92942e-19)
(4.9815 -0.0112178 -7.03575e-19)
(4.89868 -0.104054 -2.46759e-19)
(5.10597 -0.0134419 -4.72003e-19)
(5.03371 -0.0877741 -1.13243e-21)
(5.14505 -0.0792835 0)
(5.20192 -0.022711 2.27197e-19)
(5.91008 -0.871859 -1.18724e-18)
(5.78324 -0.786886 1.35349e-19)
(5.89873 -0.701814 -4.97861e-19)
(5.91826 -1.08007 1.03069e-18)
(5.7786 -0.96051 -1.43764e-19)
(5.89631 -1.3188 -2.8155e-20)
(5.74345 -1.18385 3.38658e-20)
(5.78939 -1.57584 7.73521e-19)
(5.66293 -1.41917 -4.87272e-19)
(5.54964 -1.84094 1.40052e-18)
(5.45663 -1.66241 3.72007e-19)
(5.2069 -2.11941 -1.28698e-18)
(5.11572 -1.92438 -1.03667e-18)
(4.85801 -2.42562 -8.76062e-20)
(4.73734 -2.2047 8.13566e-19)
(4.59258 -2.75898 -4.09131e-19)
(4.43364 -2.5175 9.07714e-19)
(4.43847 -3.10324 -4.05601e-19)
(4.25345 -2.86269 -1.40545e-18)
(4.36744 -3.43543 -2.27584e-19)
(4.18127 -3.21394 4.4987e-19)
(4.32998 -3.73436 -8.51545e-20)
(4.16677 -3.5429 -8.00474e-20)
(4.28225 -3.9856 3.97468e-19)
(4.15908 -3.8301 3.67697e-19)
(4.19701 -4.18207 -3.37727e-19)
(4.12297 -4.06346 0)
(4.06488 -4.32147 2.54457e-19)
(4.04276 -4.23902 1.99015e-21)
(3.88962 -4.40331 -6.06046e-20)
(3.91687 -4.35822 5.64852e-19)
(3.68203 -4.43004 -1.65214e-19)
(3.75105 -4.42622 -3.12183e-19)
(3.45415 -4.40451 5.14531e-19)
(3.55607 -4.45529 3.98204e-19)
(3.22231 -4.32606 -2.67549e-19)
(3.34945 -4.43956 6.35085e-19)
(3.00201 -4.19612 -3.57794e-19)
(3.1552 -4.34588 -6.33817e-20)
(2.79951 -4.01255 0)
(2.97769 -4.18414 0)
(2.62157 -3.77529 0)
(2.81578 -3.97801 0)
(2.48215 -3.48624 -1.65499e-19)
(2.67482 -3.72952 0)
(2.39205 -3.16928 -1.35395e-19)
(2.55282 -3.44016 -3.65098e-19)
(2.35322 -2.84622 -5.13783e-20)
(2.48128 -3.13216 3.07867e-19)
(2.36432 -2.53203 -3.20733e-20)
(2.46214 -2.82244 -4.06307e-19)
(2.42438 -2.23308 0)
(2.49792 -2.52091 1.21508e-19)
(2.53099 -1.9467 0)
(2.58157 -2.2294 -5.13153e-19)
(2.67993 -1.67271 -1.45859e-20)
(2.70574 -1.94847 3.57647e-19)
(2.86461 -1.41267 4.79788e-20)
(2.86528 -1.68069 1.36888e-20)
(3.07695 -1.17063 6.59659e-20)
(3.05355 -1.42981 -5.72276e-19)
(3.30799 -0.952412 0)
(3.26334 -1.20087 1.05312e-18)
(3.54842 -0.763834 0)
(3.48684 -0.9988 5.58587e-19)
(3.78894 -0.607895 9.21862e-19)
(3.71547 -0.826319 -1.77666e-18)
(4.02174 -0.483773 9.79783e-20)
(3.94198 -0.68351 1.6675e-18)
(4.24148 -0.387755 -5.37389e-19)
(4.15989 -0.56837 -2.18756e-18)
(4.4444 -0.313938 -3.12237e-19)
(4.36571 -0.475786 4.07998e-19)
(4.62947 -0.257311 -1.03205e-18)
(4.5548 -0.401683 -2.5104e-19)
(4.79664 -0.213488 -3.16772e-19)
(4.72788 -0.342196 -9.11365e-20)
(4.94526 -0.18054 4.57567e-19)
(4.88248 -0.293447 1.09868e-18)
(5.07292 -0.157278 4.79393e-19)
(5.01501 -0.251612 -5.61799e-19)
(5.13156 -0.218134 -4.57391e-19)
(5.17497 -0.140347 -6.84787e-19)
(5.63986 -0.894107 3.37067e-19)
(5.53445 -0.775856 1.77735e-18)
(5.67067 -0.735765 1.0772e-18)
(5.59031 -1.08858 -1.16037e-18)
(5.47413 -0.93349 -9.01871e-19)
(5.49392 -1.30646 -2.7534e-19)
(5.3827 -1.12923 -2.47107e-19)
(5.30293 -1.54042 -6.56316e-19)
(5.22348 -1.33536 -1.09997e-18)
(5.00174 -1.77338 -1.19294e-18)
(4.95948 -1.54182 9.07085e-20)
(4.63962 -2.01795 9.34698e-19)
(4.58993 -1.75792 7.92761e-19)
(4.31523 -2.29881 1.81811e-18)
(4.21934 -2.00387 1.34466e-18)
(4.10165 -2.62359 -3.78603e-19)
(3.95143 -2.30325 6.04604e-21)
(4.00731 -2.97458 -3.05497e-19)
(3.81932 -2.65526 -1.30582e-18)
(3.99347 -3.32192 4.99647e-19)
(3.79645 -3.02792 5.59105e-19)
(4.00843 -3.63861 -1.54532e-19)
(3.82946 -3.38381 -2.6057e-19)
(4.01019 -3.9075 -1.0786e-19)
(3.86832 -3.6967 -2.16209e-19)
(3.97479 -4.12172 3.60383e-19)
(3.87878 -3.95278 0)
(3.89528 -4.27994 3.49642e-19)
(3.84768 -4.14932 5.97932e-19)
(3.77536 -4.38255 2.7702e-19)
(3.775 -4.29039 -5.3054e-19)
(3.62503 -4.4307 4.21469e-19)
(3.66654 -4.3819 8.71152e-19)
(3.45703 -4.42652 4.98741e-19)
(3.53389 -4.42914 -4.93586e-19)
(3.28658 -4.37245 4.02028e-19)
(3.39128 -4.43036 5.93423e-19)
(3.12766 -4.27209 2.45815e-19)
(3.25692 -4.35977 1.85027e-19)
(2.98559 -4.1256 0)
(3.13693 -4.22644 -3.26188e-20)
(2.86113 -3.93157 0)
(3.03103 -4.05445 -1.96221e-19)
(2.75909 -3.69336 1.72876e-19)
(2.93873 -3.84705 0)
(2.68765 -3.41902 1.33685e-19)
(2.85282 -3.60123 9.41897e-20)
(2.65328 -3.12505 -4.56336e-20)