/*--------------------------------*- C++ -*----------------------------------*\
  =========                 |
  \\      /  F ield         | OpenFOAM: The Open Source CFD Toolbox
   \\    /   O peration     | Website:  https://openfoam.org
    \\  /    A nd           | Version:  6
     \\/     M anipulation  |
\*---------------------------------------------------------------------------*/
FoamFile
{
    version     2.0;
    format      ascii;
    class       surfaceScalarField;
    location    "2.84";
    object      meshPhi;
}
// * * * * * * * * * * * * * * * * * * * * * * * * * * * * * * * * * * * * * //

dimensions      [0 3 -1 0 0 0 0];

internalField   nonuniform List<scalar> 
8193
(
-0.000712812
-0.00323161
0.000265344
-0.00110579
-0.00610624
-0.00144727
-0.00868629
-0.00174171
-0.010933
-0.001994
-0.012818
-0.00220847
-0.0143233
-0.00238824
-0.0154405
-0.00253474
-0.0161697
-0.00264747
-0.0165189
-0.00272406
-0.0165026
-0.00276045
-0.0161408
-0.00275125
-0.0154579
-0.00269012
-0.014482
-0.00257036
-0.0132432
-0.00238534
-0.0117738
-0.00212903
-0.010107
-0.00179646
-0.0082766
-0.00138417
-0.00631671
-0.00089059
-0.0042614
-0.000316407
-0.00214459
0.00033512
0
0.00105788
0.00213888
0.00184269
0.00423875
0.00267709
0.0062665
0.00354527
0.00818919
0.00442802
0.00997411
0.00530288
0.0115889
0.00614433
0.0130019
0.00692422
0.0141822
0.00761232
0.0151003
0.00817706
0.0157287
0.00858642
0.0160427
0.00880897
0.0160209
0.008815
0.0156462
0.00857769
0.014907
0.00807426
0.0137982
0.00728711
0.0123217
0.00620471
0.0104879
0.00482245
0.00831588
0.00314321
0.00583439
0.00308187
0.00117769
-0.0024522
-0.00968898
0.00124165
-0.00352661
-0.0150145
-0.00447328
-0.0197216
-0.00530269
-0.0237478
-0.00602507
-0.0270513
-0.00664837
-0.0296099
-0.00717686
-0.0314191
-0.00761035
-0.0324901
-0.00794384
-0.0328477
-0.00816785
-0.032528
-0.00826901
-0.0315759
-0.008231
-0.0300429
-0.00803574
-0.0279856
-0.00766456
-0.0254638
-0.00709952
-0.0225391
-0.00632455
-0.0192738
-0.00532668
-0.0157303
-0.00409708
-0.0119707
-0.00263204
-0.00805581
-0.000933894
-0.00404589
0.00098813
0
0.00311716
0.00402361
0.00542799
0.00796743
0.00788654
0.0117745
0.0104495
0.0153885
0.013064
0.0187534
0.0156679
0.0218138
0.0181903
0.0245149
0.0205522
0.0268033
0.022668
0.0286274
0.0244474
0.0299383
0.0257974
0.0306908
0.0266254
0.0308449
0.026842
0.0303675
0.0263642
0.0292337
0.0251192
0.0274293
0.0230473
0.0249521
0.0201052
0.0218139
0.0162685
0.0180424
0.0115343
0.0136821
0.00879532
0.00592242
-0.00479033
-0.0191603
0.00300563
-0.0063949
-0.0264333
-0.00782981
-0.03276
-0.00910619
-0.0380682
-0.0102332
-0.0423149
-0.0112158
-0.0454842
-0.0120535
-0.0475845
-0.0127397
-0.0486451
-0.0132616
-0.0487129
-0.0136006
-0.0478488
-0.0137337
-0.046124
-0.0136347
-0.0436176
-0.0132755
-0.0404136
-0.0126281
-0.0365983
-0.0116662
-0.0322595
-0.0103664
-0.0274843
-0.00871037
-0.0223586
-0.00668557
-0.0169665
-0.00428714
-0.0113899
-0.00151891
-0.00570848
0.00160535
9.82543e-15
0.00506072
0.00565971
0.00881015
0.0111963
0.0128034
0.0165367
0.0169766
0.0216088
0.0212511
0.0263412
0.0255344
0.0306632
0.0297196
0.0345052
0.0336871
0.0377986
0.0373055
0.0404767
0.0404349
0.0424756
0.0429292
0.0437354
0.0446403
0.0442019
0.0454223
0.0438286
0.0451364
0.0425788
0.0436561
0.0404283
0.040872
0.0373681
0.0366977
0.0334067
0.0310735
0.028573
0.0239714
0.0229177
0.0165155
0.0153978
-0.00757977
-0.0312796
0.00536185
-0.00960656
-0.0399501
-0.0114485
-0.0473665
-0.0131109
-0.0534577
-0.0145952
-0.0581884
-0.0158982
-0.0615559
-0.0170101
-0.0635866
-0.0179147
-0.0643315
-0.0185898
-0.063861
-0.0190074
-0.0622613
-0.0191358
-0.0596294
-0.0189404
-0.0560698
-0.0183857
-0.0516911
-0.0174371
-0.0466032
-0.0160626
-0.0409157
-0.0142343
-0.0347362
-0.0119305
-0.0281693
-0.00913678
-0.0213164
-0.00584776
-0.0142751
-0.00206858
-0.00713935
0.0021837
1.94112e-20
0.00687857
0.00705519
0.0119707
0.0139409
0.0173988
0.020574
0.0230841
0.0268728
0.02893
0.0327569
0.0348214
0.0381473
0.0406248
0.0429658
0.0461894
0.0471353
0.0513484
0.0505808
0.0559218
0.0532296
0.0597195
0.0550131
0.062546
0.0558679
0.0642051
0.0557385
0.064506
0.0545797
0.0632695
0.0523592
0.0603348
0.0490611
0.0555659
0.0446892
0.0488584
0.0392698
0.040145
0.0328541
0.0255209
0.029401
-0.0107102
-0.0455451
0.00814919
-0.0130917
-0.0550534
-0.0152892
-0.0630399
-0.017296
-0.0694416
-0.0191015
-0.0742357
-0.0206901
-0.0774364
-0.0220404
-0.0790896
-0.0231258
-0.079268
-0.0239141
-0.0780651
-0.0243693
-0.0755904
-0.0244523
-0.071964
-0.0241227
-0.0673128
-0.02334
-0.0617662
-0.0220659
-0.055454
-0.0202651
-0.0485036
-0.0179078
-0.041039
-0.0149707
-0.0331793
-0.0114387
-0.025039
-0.00730648
-0.016727
-0.00258034
-0.00834751
0.00272051
0
0.0085621
0.00822018
0.0148941
0.0162213
0.0216479
0.0239146
0.0287358
0.031214
0.0360491
0.0380352
0.0434576
0.0442957
0.0508097
0.0499144
0.0579324
0.0548115
0.064633
0.0589093
0.0707015
0.0621323
0.0759136
0.0644084
0.0800357
0.0656709
0.0828298
0.0658601
0.0840602
0.0649265
0.0835002
0.0628334
0.0809399
0.0595605
0.0761938
0.0551075
0.0691086
0.0494974
0.0595707
0.0427798
0.0350329
0.0475129
-0.0141157
-0.0613496
0.0112576
-0.0168154
-0.071163
-0.0193365
-0.0792407
-0.0216566
-0.0855308
-0.0237501
-0.0900251
-0.0255878
-0.0927543
-0.0271363
-0.0937832
-0.0283586
-0.093204
-0.0292144
-0.0911305
-0.0296612
-0.0876922
-0.0296551
-0.0830287
-0.029152
-0.0772853
-0.0281093
-0.0706087
-0.0264872
-0.0631442
-0.0242498
-0.0550337
-0.0213669
-0.0464134
-0.0178152
-0.0374137
-0.01358
-0.0281584
-0.00865665
-0.0187648
-0.00305199
-0.00934366
0.00321351
-7.979e-15
0.0101042
0.00916658
0.0175672
0.0180612
0.0255306
0.0265933
0.0339017
0.0346754
0.0425653
0.0422235
0.0513828
0.0491556
0.0601913
0.055392
0.0688041
0.0608549
0.0770116
0.0654683
0.0845832
0.0691587
0.0912706
0.0718562
0.0968121
0.0734955
0.100938
0.0740178
0.103376
0.073374
0.103861
0.0715271
0.10214
0.0684561
0.0979833
0.0641594
0.0911908
0.0586584
0.0816016
0.052001
0.0442636
0.0691019
-0.0177727
-0.0780189
0.0146335
-0.0207718
-0.0876642
-0.0235925
-0.09542
-0.0261955
-0.101246
-0.0285401
-0.105147
-0.0305837
-0.107169
-0.0322826
-0.107392
-0.0335911
-0.105925
-0.0344631
-0.102898
-0.0348516
-0.0984553
-0.0347105
-0.0927532
-0.0339949
-0.085951
-0.032662
-0.0782088
-0.0306727
-0.0696839
-0.0279924
-0.0605289
-0.0245919
-0.0508895
-0.0204493
-0.0409042
-0.0155508
-0.0307036
-0.00989244
-0.0204105
-0.00348165
-0.0101399
0.00366085
7.44411e-15
0.0114992
0.0099077
0.0199801
0.0194876
0.0290311
0.0286495
0.0385583
0.0373077
0.0484444
0.0453806
0.0585476
0.05279
0.0687002
0.0594606
0.0787089
0.0653198
0.0883549
0.0702973
0.0973962
0.0743259
0.10557
0.0773414
0.112595
0.0792844
0.118182
0.0801018
0.122033
0.0797492
0.123853
0.0781937
0.123357
0.0754175
0.120278
0.0714212
0.114378
0.0662276
0.105452
0.0598843
0.0524672
0.0933438
-0.021691
-0.0948554
0.0182742
-0.0249738
-0.103943
-0.0280668
-0.111048
-0.0309149
-0.116139
-0.0334642
-0.119232
-0.0356612
-0.120383
-0.037454
-0.119685
-0.0387912
-0.117258
-0.0396231
-0.113244
-0.0399013
-0.107801
-0.0395795
-0.101096
-0.0386141
-0.0932969
-0.0369642
-0.0845754
-0.0345931
-0.0750974
-0.0314687
-0.0650232
-0.0275641
-0.0545055
-0.0228593
-0.0436883
-0.017342
-0.0327071
-0.0110089
-0.0216882
-0.00386779
-0.0107493
0.00406109
0
0.0127428
0.0104579
0.0221254
0.0205297
0.0321381
0.0301271
0.0426884
0.0391677
0.0536608
0.0475745
0.0649142
0.0552747
0.0762815
0.0621997
0.0875685
0.0682846
0.0985542
0.0734674
0.108993
0.0776897
0.118614
0.0808967
0.127132
0.0830382
0.134241
0.0840701
0.139631
0.0839568
0.142988
0.0826733
0.144006
0.0802085
0.142393
0.0765689
0.13788
0.0717815
0.130233
0.0658966
0.0589909
0.119258
-0.0258973
-0.11118
0.0222113
-0.0294383
-0.119421
-0.0327638
-0.125639
-0.0358063
-0.129811
-0.0385018
-0.131959
-0.0407893
-0.132147
-0.0426117
-0.130475
-0.0439148
-0.127071
-0.044648
-0.122085
-0.0447637
-0.115684
-0.0442177
-0.10804
-0.042969
-0.0993308
-0.0409804
-0.089734
-0.0382187
-0.0794217
-0.0346551
-0.0685598
-0.0302657
-0.0573057
-0.0250328
-0.0458076
-0.0189457
-0.0342041
-0.012002
-0.0226237
-0.00420924
-0.0111857
0.00441323
-1.33588e-16
0.0138323
0.0108323
0.0239986
0.0212183
0.0348445
0.0310726
0.0462813
0.0403172
0.0581975
0.0488804
0.0704564
0.0566963
0.0828949
0.0637043
0.0953228
0.0698483
0.107523
0.0750766
0.11925
0.0793415
0.130238
0.0825995
0.140198
0.0848121
0.148823
0.0859471
0.155797
0.0859801
0.160801
0.0848968
0.163517
0.0826962
0.16364
0.0793932
0.160885
0.0750217
0.154997
0.0696373
0.0633193
0.14576
-0.0304153
-0.126368
0.0264875
-0.0341701
-0.133579
-0.0376709
-0.138772
-0.0408419
-0.141927
-0.043613
-0.143069
-0.0459192
-0.142267
-0.0477014
-0.139625
-0.0489053
-0.135275
-0.0494816
-0.129371
-0.0493854
-0.122085
-0.048576
-0.113593
-0.0470167
-0.104079
-0.0446745
-0.0937241
-0.0415203
-0.0827041
-0.037529
-0.0711891
-0.0326803
-0.0593397
-0.0269589
-0.0473071
-0.0203556
-0.0352318
-0.0128686
-0.023244
-0.00450522
-0.0114635
0.00471665
-1.19961e-17
0.0147663
0.0110465
0.0255977
0.0215854
0.0371474
0.0315348
0.0493321
0.0408213
0.0620459
0.0493791
0.0751587
0.0571498
0.0885145
0.0640811
0.10193
0.0701268
0.115196
0.0752461
0.128075
0.0794031
0.140306
0.0825668
0.151607
0.0847119
0.161678
0.0858194
0.170206
0.0858778
0.176872
0.0848857
0.181361
0.0828538
0.183364
0.0798073
0.182594
0.0757891
0.178786
0.0708613
0.0651075
0.171717
-0.0352449
-0.139882
0.0311287
-0.0391466
-0.145982
-0.0427473
-0.150101
-0.0459675
-0.152219
-0.0487343
-0.152364
-0.0509823
-0.150604
-0.0526528
-0.147045
-0.0536938
-0.141819
-0.0540589
-0.135085
-0.0537072
-0.127013
-0.0526026
-0.117785
-0.050713
-0.107585
-0.0480101
-0.0965967
-0.0444694
-0.0850001
-0.0400696
-0.072967
-0.0347936
-0.0606605
-0.0286285
-0.0482336
-0.0215666
-0.0358285
-0.0136066
-0.0235762
-0.0047553
-0.011597
0.00497117
-1.83707e-16
0.0155447
0.0111162
0.0269232
0.0216633
0.039048
0.0315631
0.0518417
0.0407468
0.0652053
0.0491547
0.0790167
0.0567355
0.0931284
0.0634458
0.107367
0.0692491
0.121533
0.0741157
0.1354
0.0780218
0.148718
0.0809496
0.161215
0.0828871
0.172604
0.0838292
0.18258
0.0837784
0.190837
0.0827468
0.197066
0.0807574
0.200968
0.077847
0.20226
0.074068
0.200685
0.06949
0.0642013
0.196018
-0.0403432
-0.151287
0.0361187
-0.0443051
-0.156287
-0.0479167
-0.159363
-0.051098
-0.160494
-0.053777
-0.159708
-0.0558898
-0.157071
-0.0573805
-0.152688
-0.0582005
-0.146692
-0.0583077
-0.139239
-0.0576658
-0.130501
-0.0562435
-0.12066
-0.0540135
-0.109902
-0.0509524
-0.0984123
-0.0470397
-0.0863715
-0.042258
-0.0739536
-0.0365931
-0.0613234
-0.0300344
-0.0486354
-0.0225753
-0.036033
-0.014215
-0.023648
-0.00495939
-0.0116008
0.00517698
-3.88223e-20
0.0161689
0.0110571
0.0279781
0.0214846
0.0405512
0.0312075
0.0538166
0.0401616
0.0676828
0.048293
0.082036
0.0555574
0.0967385
0.0619197
0.111627
0.0673532
0.126514
0.0718388
0.141187
0.0753646
0.155407
0.0779256
0.168919
0.0795233
0.181447
0.0801663
0.192706
0.079871
0.202401
0.0786627
0.210241
0.0765773
0.215939
0.0736629
0.219228
0.0699812
0.219864
0.0656093
0.0606399
0.217635
-0.0456115
-0.160258
0.0413776
-0.0495352
-0.164248
-0.0530629
-0.166379
-0.0561167
-0.16663
-0.0586275
-0.165025
-0.0605347
-0.161631
-0.0617862
-0.156548
-0.0623376
-0.14991
-0.0621514
-0.141869
-0.0611961
-0.132598
-0.0594449
-0.122279
-0.0568755
-0.111097
-0.0534685
-0.0992377
-0.0492074
-0.0868841
-0.0440781
-0.0742111
-0.0380691
-0.0613847
-0.0311714
-0.0485608
-0.0233798
-0.0358839
-0.0146936
-0.0234864
-0.00511781
-0.011489
0.00533467
4.60297e-15
0.0166413
0.0108846
0.0287677
0.0210809
0.041665
0.0305171
0.055268
0.039133
0.069492
0.0468801
0.0842317
0.0537206
0.0993588
0.0596274
0.114721
0.0645827
0.130143
0.0685778
0.145425
0.0716121
0.160344
0.0736927
0.174658
0.074834
0.188111
0.0750577
0.200432
0.0743936
0.211347
0.0728798
0.220581
0.0705644
0.227868
0.0675059
0.232959
0.0637753
0.235627
0.0594559
0.0546443
0.23568
-0.0508892
-0.166579
0.0467503
-0.0546768
-0.169709
-0.0580309
-0.171045
-0.0608775
-0.170565
-0.0631511
-0.168291
-0.0647954
-0.164287
-0.0657624
-0.158653
-0.0660121
-0.151517
-0.0655114
-0.143033
-0.0642332
-0.133371
-0.0621553
-0.122711
-0.059259
-0.11124
-0.0555291
-0.0991445
-0.0509521
-0.0866066
-0.045517
-0.073803
-0.0392144
-0.060901
-0.0320369
-0.0480579
-0.0239801
-0.035419
-0.0150434
-0.023118
-0.00523119
-0.0112756
0.00544519
0
0.0169656
0.0106137
0.0292991
0.0204834
0.0424011
0.0295398
0.0562118
0.0377268
0.070653
0.0450005
0.0856272
0.0513293
0.101015
0.0566933
0.116675
0.0610832
0.132442
0.0644997
0.148129
0.0669529
0.163529
0.0684613
0.178416
0.0690513
0.192547
0.0687572
0.205672
0.067621
0.217535
0.0656931
0.22788
0.0630326
0.236461
0.0597081
0.243049
0.0557985
0.247438
0.0513931
0.0465914
0.249454
-0.0559572
-0.170134
0.0520063
-0.0595256
-0.172598
-0.0626336
-0.173325
-0.0652115
-0.172294
-0.0671982
-0.169525
-0.0685415
-0.165079
-0.0691975
-0.159055
-0.0691303
-0.151579
-0.0683109
-0.142802
-0.0667159
-0.132894
-0.0643269
-0.122035
-0.0611288
-0.11041
-0.0571092
-0.0982069
-0.0522578
-0.0856085
-0.0465656
-0.0727926
-0.0400251
-0.0599281
-0.0326304
-0.0471734
-0.0243776
-0.0346753
-0.0152664
-0.0225683
-0.00530054
-0.0109738
0.00550984
2.10258e-15
0.0171466
0.0102587
0.0295815
0.0197216
0.0427737
0.0283219
0.0566679
0.0360067
0.0711915
0.0427365
0.0862537
0.0484854
0.101743
0.05324
0.117526
0.0569989
0.13345
0.0597716
0.149339
0.0615782
0.164997
0.0624476
0.180213
0.0624177
0.194761
0.0615344
0.208406
0.0598512
0.220909
0.0574299
0.232033
0.0543399
0.24155
0.0506593
0.249248
0.0464742
0.254941
0.0418793
0.0369767
0.25847
-0.0605502
-0.170891
0.056852
-0.0638444
-0.172912
-0.0666616
-0.173241
-0.0689365
-0.171857
-0.0706122
-0.168781
-0.0716405
-0.164073
-0.0719813
-0.157829
-0.0716024
-0.150175
-0.0704782
-0.14126
-0.0685888
-0.131253
-0.0659186
-0.120333
-0.0624555
-0.108686
-0.0581898
-0.0965002
-0.0531132
-0.0839593
-0.0472189
-0.0712426
-0.0405007
-0.0585205
-0.0329541
-0.0459529
-0.0245758
-0.0336882
-0.0153656
-0.021862
-0.00532719
-0.0105965
0.00553025
1.95808e-15
0.01719
0.00983334
0.0296258
0.018824
0.0427997
0.0269074
0.0566597
0.0340334
0.071138
0.0401668
0.0861488
0.0452866
0.101587
0.0493857
0.117328
0.0524699
0.133225
0.0545571
0.149113
0.0556764
0.164808
0.055867
0.18011
0.0551772
0.194805
0.0536641
0.208673
0.0513921
0.221489
0.0484337
0.23303
0.0448684
0.243084
0.0407829
0.251454
0.0362709
0.257965
0.0314323
0.0263724
0.262472
-0.0643764
0.0609539
-0.0673807
-0.0698985
-0.0718691
-0.0732397
-0.073966
-0.0740116
-0.0733474
-0.071951
-0.0698053
-0.0668974
-0.0632174
-0.0587579
-0.0535127
-0.0474763
-0.0406442
-0.0330128
-0.0245797
-0.0153451
-0.00531279
0.00550838
0.0171024
0.0294443
0.0424979
0.0562138
0.0705271
0.085356
0.1006
0.11614
0.131836
0.14753
0.163047
0.178195
0.192772
0.206566
0.219363
0.230952
0.241129
0.249708
0.256522
0.26143
0.00377055
0.239539
0.0179294
0.240567
0.0313544
0.23735
0.0432796
0.229909
0.0530133
0.218437
0.0599935
0.203296
0.0638377
0.185016
0.0643814
0.164273
0.0617012
0.141858
0.056119
0.118639
0.0481866
0.0955205
0.0386516
0.0733899
0.0284087
0.0530777
0.0184403
0.0353151
0.00975258
0.0207027
0.00331397
0.0096887
0.00255877
0.00834449
0.217383
0.0216122
0.218408
0.0341832
0.215878
0.0453959
0.209808
0.0546482
0.200336
0.0614413
0.18773
0.0654183
0.172383
0.0663965
0.154803
0.0643877
0.135589
0.059606
0.115413
0.0524609
0.0949832
0.0435361
0.0750136
0.0335562
0.0561919
0.0233444
0.0391481
0.0137734
0.0244281
0.00571637
0.0124739
0.00361036
0.0126361
0.195373
0.0249637
0.196392
0.0366359
0.194452
0.0470829
0.189558
0.0557825
0.181807
0.0622928
0.171392
0.0662835
0.158601
0.0675613
0.143808
0.0660883
0.127462
0.0619914
0.110073
0.0555606
0.0921869
0.0472374
0.0743685
0.0375934
0.0571746
0.0273005
0.0411328
0.0170962
0.0267212
0.00774488
0.0143507
0.00435205
0.0165563
0.173873
0.027915
0.174877
0.0386613
0.17343
0.0483063
0.16953
0.0563981
0.163244
0.0625466
0.154706
0.0664483
0.144122
0.0679059
0.131764
0.0668452
0.117964
0.0633236
0.103099
0.0575331
0.0875861
0.0497941
0.0718607
0.0405433
0.0563645
0.0303141
0.0415282
0.0197117
0.0277561
0.00938568
0.0154129
0.00481152
0.0200243
0.153191
0.0304039
0.154165
0.0402141
0.153121
0.0490371
0.150051
0.0564828
0.144997
0.0622083
0.138052
0.0659361
0.12936
0.0674711
0.119113
0.0667132
0.10755
0.0636668
0.0949493
0.0584448
0.0816191
0.051267
0.0678904
0.042454
0.0541052
0.032415
0.0406057
0.0216314
0.0277235
0.0106379
0.015769
0.00502249
0.0229706
0.133579
0.0323772
0.134507
0.0412568
0.133783
0.0492533
0.131396
0.056031
0.127369
0.0612893
0.121764
0.064777
0.114678
0.0663048
0.106245
0.0657564
0.0966333
0.0630967
0.0860416
0.0583766
0.0746949
0.0517345
0.0628385
0.043393
0.050731
0.0336534
0.0386371
0.0228849
0.0268205
0.0115121
0.0155359
0.00502252
0.025339
0.115229
0.033793
0.116097
0.041761
0.115621
0.0489404
0.113787
0.0550432
0.110607
0.0598072
0.106119
0.0630063
0.100386
0.0644605
0.0934993
0.0640449
0.0855736
0.0616964
0.0767483
0.0574192
0.0671832
0.0512869
0.0570556
0.0434422
0.046556
0.0340949
0.0358838
0.0235156
0.025242
0.0120282
0.0148325
0.00485093
0.027089
0.0982776
0.0346223
0.0990731
0.041709
0.0987817
0.0480927
0.0973898
0.0535273
0.0949008
0.0577849
0.0913357
0.0606636
0.0867344
0.0619952
0.0811554
0.0616521
0.0746756
0.0595533
0.0673892
0.0556685
0.059407
0.0500219
0.0508535
0.042693
0.0418653
0.0338161
0.0325879
0.023578
0.0231729
0.0122136
0.0137746
0.00454682
0.0281962
0.0828081
0.0348498
0.0835216
0.0410943
0.0833631
0.0467135
0.0823191
0.0514979
0.0803878
0.0552503
0.0775792
0.0577919
0.0739165
0.058968
0.0694356
0.058653
0.0641857
0.0567555
0.0582287
0.0532221
0.0516385
0.0480405
0.0445001
0.0412416
0.0369081
0.0329
0.0289655
0.0231333
0.0207816
0.0121008
0.0124702
0.00414737
0.0286525
0.0688553
0.0344735
0.0694808
0.0399217
0.0694129
0.0448152
0.0686388
0.0489765
0.0671535
0.052236
0.06496
0.0544369
0.0620703
0.0554386
0.058505
0.0551215
0.0542939
0.0533899
0.0494758
0.0501763
0.0440981
0.045443
0.0382167
0.0391854
0.0318948
0.0314321
0.0252027
0.0222466
0.0182162
0.0117259
0.0110162
0.00368653
0.0284647
0.0564124
0.0335045
0.0569478
0.0382062
0.0569372
0.0424181
0.0563692
0.0459903
0.0552373
0.0487782
0.0535405
0.0506453
0.0512833
0.0514661
0.0484765
0.0511292
0.0451366
0.0495399
0.0412867
0.0466234
0.0369557
0.0423262
0.0321785
0.0366189
0.0269957
0.0294973
0.0214532
0.0209834
0.0156017
0.0111259
0.00949587
0.00319403
0.0276523
0.0454385
0.031964
0.0458847
0.0359715
0.0459063
0.0395489
0.0454934
0.0425709
0.0446394
0.044915
0.0433408
0.0464639
0.0415982
0.0471072
0.0394159
0.0467436
0.036802
0.0452831
0.0337691
0.0426492
0.0303337
0.0387803
0.0265164
0.0336315
0.0223419
0.0271764
0.0178388
0.0194075
0.013039
0.0103376
0.00797823
0.00269482
0.0262445
0.0358656
0.0298812
0.0362263
0.0332472
0.0362619
0.0362387
0.0359643
0.0387522
0.0353272
0.040685
0.0343464
0.0419377
0.0330202
0.0424147
0.0313493
0.0420263
0.0293367
0.0406898
0.0269885
0.0383314
0.0243131
0.0348872
0.0213218
0.0303047
0.0180287
0.0245438
0.0144504
0.0175781
0.0106061
0.00939583
0.00651761
0.00220894
0.0242763
0.0276065
0.0272899
0.0278877
0.0300659
0.0279251
0.0325201
0.0277122
0.0345679
0.0272436
0.0361248
0.0265153
0.0371078
0.0255246
0.0374359
0.0242704
0.0370316
0.022753
0.0358215
0.0209746
0.0337378
0.0189388
0.0307187
0.0166513
0.0267101
0.0141193
0.0216658
0.0113517
0.015549
0.00835929
0.00833255
0.0051546
0.00175169
0.0217849
0.0205619
0.0242246
0.0207713
0.0264601
0.0208031
0.0284243
0.0206522
0.0300493
0.0203143
0.031267
0.0197861
0.0320098
0.0190647
0.0322108
0.0181485
0.031805
0.0170366
0.0307296
0.0157291
0.028925
0.0142272
0.0263353
0.0125331
0.0229089
0.0106502
0.0185995
0.00858276
0.0133665
0.00633633
0.00717577
0.00391751
0.00133399
0.0188059
0.0146271
0.0207177
0.0147738
0.0224591
0.0147963
0.0239783
0.014691
0.0252223
0.0144547
0.026138
0.0140848
0.0266719
0.0135792
0.0267707
0.012936
0.0263821
0.0121541
0.0254545
0.011233
0.0239382
0.0101726
0.0217854
0.00897348
0.0189506
0.00763689
0.0153917
0.0061647
0.0110696
0.00455943
0.00594931
0.00282427
0.000963082
0.0153698
0.00969773
0.0167959
0.00979173
0.0180864
0.00980432
0.0192028
0.00973326
0.0201061
0.00957649
0.0207565
0.00933222
0.0211137
0.0089989
0.0211377
0.00857527
0.0207882
0.00806034
0.0200256
0.00745344
0.0188109
0.00675421
0.0171059
0.00596263
0.0148738
0.00507901
0.0120795
0.00410403
0.00868951
0.00303873
0.0046726
0.00188451
0.000643141
0.0115
0.00567484
0.0124784
0.00572654
0.0133574
0.00573098
0.0141107
0.00568692
0.0147115
0.00559323
0.0151324
0.0054489
0.0153459
0.00525306
0.0153239
0.00500497
0.0150384
0.00470405
0.0144615
0.00434984
0.0135654
0.00394207
0.0123226
0.00348063
0.0107064
0.00296554
0.00869073
0.00239705
0.00625028
0.00177555
0.00336098
0.00110162
0.000376033
0.00721092
0.00246836
0.00777575
0.00248864
0.00827906
0.00248842
0.00870576
0.00246724
0.00904038
0.00242466
0.0092671
0.00236028
0.00936986
0.0022738
0.00933238
0.00216492
0.00913828
0.00203344
0.00877109
0.00187919
0.0082144
0.00170209
0.0074519
0.00150209
0.00646746
0.00127922
0.00524526
0.00103358
0.00376984
0.000765325
0.00202622
0.000474686
0.000161957
0.0025077
3.44984e-18
0.00268914
2.73581e-18
0.00284937
2.93215e-18
0.00298355
2.85327e-18
0.00308667
2.22088e-18
0.00315367
2.11375e-18
0.00317935
2.01154e-18
0.00315845
1.50767e-18
0.00308567
1.04892e-18
0.00295568
7.48296e-19
0.00276311
4.22945e-19
0.00250265
4.25118e-19
0.00216901
5.28367e-19
0.00175697
3.70352e-19
0.00126142
1.89109e-19
0.000677375
7.58042e-20
1.51691e-20
-0.00261314
-0.00179521
-0.00278826
-0.00180407
-0.00294136
-0.00179792
-0.00306774
-0.00177659
-0.00316259
-0.00173994
-0.00322098
-0.00168786
-0.00323788
-0.00162032
-0.00320821
-0.00153729
-0.00312684
-0.00143881
-0.00298861
-0.00132495
-0.00278834
-0.00119582
-0.00252088
-0.00105158
-0.00218113
-0.000892412
-0.00176404
-0.00071854
-0.00126467
-0.000530224
-0.000678215
-0.000327753
-0.000111454
-0.00816207
-0.00296834
-0.00866975
-0.00297432
-0.00910863
-0.00295524
-0.00946499
-0.00291106
-0.00972481
-0.00284182
-0.00987375
-0.00274766
-0.00989727
-0.00262877
-0.00978063
-0.00248545
-0.00950903
-0.00231806
-0.00906757
-0.00212702
-0.00844144
-0.00191281
-0.00761591
-0.00167598
-0.00657645
-0.00141711
-0.00530881
-0.00113683
-0.00379906
-0.000835829
-0.00203377
-0.000514795
-0.000174465
-0.0141541
-0.00355696
-0.0149725
-0.00354791
-0.015671
-0.0035084
-0.0162274
-0.00343887
-0.0166188
-0.0033399
-0.0168223
-0.00321219
-0.0168142
-0.00305655
-0.0165712
-0.00287387
-0.0160694
-0.00266514
-0.0152854
-0.00243142
-0.0141958
-0.00217381
-0.0127777
-0.00189345
-0.0110086
-0.00159151
-0.00886678
-0.00126918
-0.00633117
-0.000927614
-0.00338185
-0.000567992
-0.000191445
-0.0206058
-0.00358628
-0.0217144
-0.00354952
-0.0226469
-0.00348148
-0.023373
-0.00338348
-0.0238616
-0.00325701
-0.0240814
-0.00310369
-0.0240006
-0.00292528
-0.0235878
-0.00272358
-0.0228116
-0.00250049
-0.021641
-0.0022579
-0.0200457
-0.0019977
-0.0179962
-0.00172175
-0.0154643
-0.00143186
-0.012423
-0.00112972
-0.00884715
-0.000816946
-0.00471322
-0.000495
-0.000165203
-0.0275318
-0.00307108
-0.0289105
-0.00299326
-0.0300512
-0.00288808
-0.0309155
-0.0027582
-0.0314646
-0.0026064
-0.0316594
-0.00243561
-0.0314609
-0.00224885
-0.0308306
-0.00204909
-0.0297306
-0.00183931
-0.0281242
-0.00162236
-0.025976
-0.00140093
-0.0232523
-0.00117753
-0.0199219
-0.0009544
-0.0159558
-0.000733519
-0.011328
-0.000516535
-0.00601575
-0.00030475
-9.91064e-05
-0.0349415
-0.002018
-0.03657
-0.00188498
-0.0378916
-0.00173369
-0.0388605
-0.00156855
-0.0394302
-0.00139414
-0.0395547
-0.00121505
-0.0391887
-0.00103581
-0.0382878
-0.00086076
-0.0368092
-0.000693997
-0.0347124
-0.000539241
-0.0319594
-0.000399783
-0.0285153
-0.000278398
-0.0243492
-0.000177292
-0.0194341
-9.80481e-05
-0.0137478
-4.15908e-05
-0.00727359
-8.1654e-06
2.67073e-06
-0.0428354
-0.000428366
-0.0446922
-0.000225134
-0.0461656
-1.84502e-05
-0.0472021
0.000184865
-0.0477486
0.000378005
-0.0477527
0.000554359
-0.0471637
0.000707673
-0.0459331
0.000832221
-0.044015
0.000922948
-0.0413677
0.000975612
-0.0379535
0.000986893
-0.03374
0.000954493
-0.0287009
0.000877203
-0.0228161
0.000754951
-0.016073
0.000588814
-0.00846652
0.000381015
0.00013488
-0.0512026
0.0016989
-0.0532644
0.00198834
-0.0548572
0.00225978
-0.0559206
0.00250334
-0.056395
0.00270947
-0.0562227
0.00286923
-0.055349
0.00297457
-0.0537228
0.00301856
-0.0512979
0.00299564
-0.0480343
0.00290179
-0.0438984
0.00273468
-0.038865
0.00249376
-0.0329172
0.00218033
-0.026048
0.00179755
-0.0182609
0.00135037
-0.00956971
0.000845426
0.000290948
-0.0600178
0.00436424
-0.0622587
0.0047569
-0.0639351
0.00510236
-0.0649798
0.0053869
-0.0653274
0.00559768
-0.064916
0.00572318
-0.0636886
0.00575367
-0.0615939
0.0056815
-0.0585883
0.00550149
-0.0546371
0.00521108
-0.0497158
0.00481055
-0.0438113
0.00430304
-0.036923
0.00369457
-0.0290637
0.0029939
-0.0202602
0.00221232
-0.0105537
0.00136345
0.0004628
-0.0692396
0.00756445
-0.0716306
0.00807839
-0.0733505
0.00850681
-0.0743253
0.0088312
-0.074485
0.00903484
-0.0737646
0.00910355
-0.0721066
0.00902625
-0.0694628
0.00879551
-0.0657956
0.00840793
-0.0610806
0.00786436
-0.0553076
0.00717007
-0.0484824
0.00633461
-0.0406278
0.00537169
-0.0317845
0.0042988
-0.0220113
0.00313671
-0.0113849
0.00190889
0.000640815
-0.0788088
0.0112899
-0.0813177
0.0119442
-0.0830361
0.0124639
-0.0838839
0.0128246
-0.0837872
0.013005
-0.0826798
0.0129884
-0.0805064
0.012763
-0.0772248
0.0123232
-0.0728085
0.0116695
-0.0672488
0.0108089
-0.0605566
0.00975501
-0.0527643
0.00852743
-0.0439267
0.00715142
-0.034121
0.00565702
-0.0234471
0.00407806
-0.0120263
0.00245105
0.000813943
-0.0886478
0.0155219
-0.0912387
0.0163367
-0.0929054
0.0169551
-0.0935627
0.0173454
-0.0931335
0.0174813
-0.0915527
0.0173436
-0.0887702
0.0169214
-0.0847544
0.0162128
-0.079495
0.0152254
-0.0730059
0.0139763
-0.0653274
0.0124917
-0.0565273
0.0108061
-0.0467016
0.00896092
-0.0359741
0.00700327
-0.024495
0.0049839
-0.0124387
0.00295537
0.000970021
-0.0986602
0.0202304
-0.101293
0.0212269
-0.102853
0.0219503
-0.10325
0.0223599
-0.102404
0.0224238
-0.100255
0.0221212
-0.0967606
0.0214435
-0.091906
0.0203961
-0.0857036
0.0189979
-0.0781982
0.0172811
-0.0694685
0.0152902
-0.0596279
0.0130805
-0.0488244
0.0107152
-0.0372382
0.0082632
-0.0250793
0.00579599
-0.0125821
0.00338455
0.00109627
-0.108731
0.0253725
-0.111363
0.0265728
-0.112756
0.027406
-0.112814
0.0278203
-0.11146
0.0277778
-0.108638
0.0272568
-0.104321
0.0262544
-0.0985161
0.0247871
-0.091266
0.022891
-0.0826563
0.0206201
-0.072815
0.0180445
-0.0619126
0.0152469
-0.05016
0.0123186
-0.0378045
0.00935531
-0.0251237
0.00645237
-0.0124177
0.00370016
0.00117997
-0.118728
0.0308907
-0.121314
0.0323179
-0.122473
0.033264
-0.122109
0.0336638
-0.120147
0.0334725
-0.11654
0.0326696
-0.111281
0.0312614
-0.104406
0.0292816
-0.0959998
0.0267908
-0.086199
0.0238735
-0.075193
0.0206337
-0.0632218
0.0171897
-0.0505712
0.0136674
-0.037565
0.0101939
-0.0245551
0.00689007
-0.0119097
0.0038648
0.00120925
-0.128502
0.0367125
-0.130993
0.0383907
-0.13185
0.039451
-0.130975
0.0398118
-0.128296
0.0394211
-0.123783
0.0382616
-0.117455
0.0363542
-0.109386
0.0337577
-0.0997134
0.0305667
-0.0886379
0.0269062
-0.0764243
0.0229246
-0.0633954
0.0187847
-0.0499235
0.0146535
-0.0364173
0.0106926
-0.0233071
0.0070485
-0.0110277
0.00384432
0.00117393
-0.137893
0.0427502
-0.140239
0.0447044
-0.140721
0.0458784
-0.139238
0.0461704
-0.135729
0.0455206
-0.130183
0.0439185
-0.122652
0.0414062
-0.113261
0.0380775
-0.102211
0.0340729
-0.0897835
0.0295707
-0.0763331
0.0247754
-0.0622793
0.0199034
-0.0480916
0.0151688
-0.0342704
0.0107692
-0.0213246
0.00687301
-0.00974876
0.00361029
0.00106628
-0.146726
0.0489014
-0.148878
0.0511578
-0.14891
0.0524433
-0.146722
0.0526312
-0.142263
0.0516536
-0.135549
0.0495111
-0.126678
0.0462758
-0.115834
0.0420891
-0.1033
0.0371521
-0.0894524
0.0317112
-0.0747531
0.0260398
-0.0597321
0.0204178
-0.0449661
0.0151104
-0.0310501
0.0103496
-0.0185674
0.00631859
-0.00805986
0.00314211
0.000881687
-0.154824
0.0550507
-0.156735
0.0576365
-0.156242
0.0590299
-0.153247
0.0590733
-0.147716
0.0576904
-0.139698
0.0548982
-0.129344
0.0508102
-0.116917
0.0456308
-0.102797
0.0396394
-0.0874751
0.0331679
-0.0715357
0.026573
-0.0556339
0.0202063
-0.0404608
0.014386
-0.0267053
0.00937303
-0.0150151
0.00535316
-0.00595985
0.00242878
0.000619051
-0.162005
0.0610718
-0.163634
0.0640155
-0.162544
0.065512
-0.158641
0.0653659
-0.151913
0.0634916
-0.142452
0.0599295
-0.130475
0.0548485
-0.116339
0.0485348
-0.100541
0.0413674
-0.0837052
0.0337833
-0.066559
0.026237
-0.0498939
0.0191593
-0.0345197
0.0129195
-0.0212136
0.00779623
-0.0106706
0.00396026
-0.0034613
0.00147002
0.00028086
0.256881
0.0168351
-0.261312
0.250517
0.0247111
0.242336
0.0327255
0.232489
0.0406565
0.221152
0.0482696
0.208521
0.0553272
0.194807
0.0615968
0.180229
0.0668599
0.165006
0.07092
0.149352
0.0736085
0.133472
0.0747905
0.117556
0.0743671
0.101778
0.0722777
0.0862907
0.0684997
0.0712272
0.0630474
0.0566997
0.05597
0.0428003
0.0473487
0.0296018
0.0372938
0.0171599
0.0259413
0.0055148
0.0134504
-0.00530636
3.88223e-20
-0.0152877
-0.0142135
-0.0244223
-0.0289793
-0.0327105
-0.0440747
-0.0401583
-0.0592683
-0.0467762
-0.0743237
-0.0525779
-0.0890034
-0.0575799
-0.103073
-0.0618008
-0.116308
-0.0652611
-0.128497
-0.0679834
-0.139447
-0.069992
-0.148995
-0.0713134
-0.157003
-0.0719759
-0.163371
-0.0720104
-0.168034
-0.0714502
-0.170967
-0.0703311
-0.172182
-0.0686915
-0.171731
-0.0665722
-0.169696
-0.0640169
-0.166191
-0.161353
0.251625
0.0266154
-0.255309
0.245946
0.0343261
0.238389
0.0421166
0.229104
0.0497635
0.218271
0.0570326
0.206091
0.0636879
0.192779
0.0695005
0.178556
0.0742571
0.163647
0.0777677
0.14827
0.0798719
0.132631
0.080443
0.116924
0.0793918
0.101323
0.0766667
0.0859841
0.0722546
0.0710409
0.0661786
0.0566063
0.058496
0.042773
0.0492953
0.0296144
0.0386931
0.0171864
0.0268311
0.00552988
0.0138726
-0.00532756
0
-0.0153692
-0.0145877
-0.0245872
-0.0296778
-0.0329807
-0.0450466
-0.0405541
-0.060462
-0.047316
-0.0756876
-0.053278
-0.0904858