/*--------------------------------*- C++ -*----------------------------------*\
  =========                 |
  \\      /  F ield         | OpenFOAM: The Open Source CFD Toolbox
   \\    /   O peration     | Website:  https://openfoam.org
    \\  /    A nd           | Version:  6
     \\/     M anipulation  |
\*---------------------------------------------------------------------------*/
FoamFile
{
    version     2.0;
    format      ascii;
    class       volVectorField;
    location    "4.6";
    object      U;
}
// * * * * * * * * * * * * * * * * * * * * * * * * * * * * * * * * * * * * * //

dimensions      [0 1 -1 0 0 0 0];

internalField   nonuniform List<vector> 
5625
(
(0.895009 0.446989 0)
(0.894824 0.44706 0)
(0.894697 0.447107 0)
(0.894609 0.447138 0)
(0.894549 0.447159 0)
(0.894506 0.447172 0)
(0.894476 0.447181 0)
(0.894455 0.447187 0)
(0.894439 0.447191 0)
(0.894428 0.447194 0)
(0.89442 0.447196 0)
(0.894414 0.447197 0)
(0.89441 0.447198 0)
(0.894407 0.447198 0)
(0.894405 0.447199 0)
(0.894403 0.447199 0)
(0.894402 0.4472 0)
(0.894401 0.447199 0)
(0.894401 0.4472 0)
(0.894401 0.4472 0)
(0.8944 0.4472 0)
(0.8944 0.4472 0)
(0.894401 0.4472 0)
(0.8944 0.4472 0)
(0.8944 0.447199 0)
(0.8944 0.4472 0)
(0.8944 0.4472 0)
(0.8944 0.4472 0)
(0.894399 0.4472 0)
(0.894401 0.4472 0)
(0.894399 0.4472 0)
(0.894401 0.4472 0)
(0.8944 0.4472 0)
(0.894401 0.447201 0)
(0.894398 0.447199 0)
(0.894401 0.4472 0)
(0.8944 0.4472 0)
(0.8944 0.447199 0)
(0.8944 0.447201 0)
(0.8944 0.4472 0)
(0.8944 0.4472 0)
(0.894401 0.4472 0)
(0.8944 0.447201 0)
(0.894401 0.447199 0)
(0.894401 0.447201 0)
(0.8944 0.4472 0)
(0.894404 0.447201 0)
(0.894403 0.447201 0)
(0.894405 0.447201 0)
(0.894408 0.447201 0)
(0.894413 0.447203 0)
(0.894417 0.447204 0)
(0.894424 0.447204 0)
(0.894434 0.447207 0)
(0.894445 0.447209 0)
(0.894455 0.447212 0)
(0.89447 0.447213 0)
(0.894476 0.447214 0)
(0.894476 0.447212 0)
(0.894457 0.447204 0)
(0.894398 0.447181 0)
(0.894283 0.447137 0)
(0.894064 0.447056 0)
(0.893688 0.446914 0)
(0.89308 0.446675 0)
(0.892128 0.446295 0)
(0.890698 0.445711 0)
(0.888635 0.444833 0)
(0.885769 0.443577 0)
(0.882006 0.441872 0)
(0.877497 0.439728 0)
(0.872767 0.437348 0)
(0.868652 0.435131 0)
(0.865945 0.433461 0)
(0.865044 0.432572 0)
(0.894945 0.446999 0)
(0.894781 0.447065 0)
(0.894668 0.44711 0)
(0.89459 0.447139 0)
(0.894536 0.447159 0)
(0.894498 0.447172 0)
(0.894471 0.44718 0)
(0.894451 0.447187 0)
(0.894437 0.447191 0)
(0.894426 0.447193 0)
(0.894419 0.447196 0)
(0.894413 0.447197 0)
(0.894409 0.447198 0)
(0.894406 0.447199 0)
(0.894405 0.447199 0)
(0.894403 0.447199 0)
(0.894402 0.4472 0)
(0.894402 0.4472 0)
(0.894401 0.4472 0)
(0.894401 0.4472 0)
(0.894401 0.4472 0)
(0.8944 0.4472 0)
(0.8944 0.4472 0)
(0.8944 0.4472 0)
(0.8944 0.4472 0)
(0.8944 0.4472 0)
(0.8944 0.4472 0)
(0.8944 0.4472 0)
(0.8944 0.4472 0)
(0.8944 0.4472 0)
(0.8944 0.4472 0)
(0.894401 0.447201 0)
(0.894399 0.447199 0)
(0.894402 0.447201 0)
(0.894398 0.447199 0)
(0.894401 0.447201 0)
(0.894399 0.447199 0)
(0.894401 0.4472 0)
(0.894398 0.4472 0)
(0.894402 0.4472 0)
(0.894399 0.447199 0)
(0.8944 0.4472 0)
(0.894401 0.447201 0)
(0.894399 0.4472 0)
(0.894402 0.4472 0)
(0.8944 0.4472 0)
(0.894403 0.447202 0)
(0.894402 0.447199 0)
(0.894407 0.447202 0)
(0.894405 0.447201 0)
(0.894413 0.447202 0)
(0.894416 0.447205 0)
(0.894424 0.447204 0)
(0.89443 0.447207 0)
(0.894443 0.44721 0)
(0.894455 0.447212 0)
(0.894466 0.447217 0)
(0.894477 0.447217 0)
(0.894479 0.447217 0)
(0.894466 0.447211 0)
(0.894422 0.447193 0)
(0.894326 0.447157 0)
(0.894144 0.447086 0)
(0.893821 0.446961 0)
(0.893298 0.446747 0)
(0.892476 0.446403 0)
(0.891225 0.445871 0)
(0.889403 0.445064 0)
(0.886849 0.443892 0)
(0.883432 0.442273 0)
(0.879198 0.440178 0)
(0.874541 0.437743 0)
(0.870207 0.435328 0)
(0.867016 0.433352 0)
(0.86549 0.432119 0)
(0.894885 0.44701 0)
(0.894741 0.447072 0)
(0.894642 0.447113 0)
(0.894572 0.447141 0)
(0.894524 0.447159 0)
(0.89449 0.447172 0)
(0.894465 0.44718 0)
(0.894447 0.447186 0)
(0.894434 0.447191 0)
(0.894424 0.447193 0)
(0.894417 0.447195 0)
(0.894413 0.447197 0)
(0.894408 0.447198 0)
(0.894406 0.447199 0)
(0.894404 0.447199 0)
(0.894403 0.4472 0)
(0.894402 0.447199 0)
(0.894402 0.4472 0)
(0.8944 0.447199 0)
(0.894401 0.4472 0)
(0.8944 0.4472 0)
(0.8944 0.4472 0)
(0.894401 0.4472 0)
(0.8944 0.4472 0)
(0.8944 0.4472 0)
(0.8944 0.4472 0)
(0.8944 0.4472 0)
(0.8944 0.4472 0)
(0.8944 0.4472 0)
(0.8944 0.4472 0)
(0.8944 0.4472 0)
(0.8944 0.4472 0)
(0.894401 0.4472 0)
(0.894399 0.4472 0)
(0.8944 0.4472 0)
(0.8944 0.4472 0)
(0.894399 0.4472 0)
(0.894402 0.4472 0)
(0.894398 0.447199 0)
(0.894402 0.4472 0)
(0.8944 0.447201 0)
(0.894399 0.447199 0)
(0.894401 0.447201 0)
(0.8944 0.4472 0)
(0.894401 0.4472 0)
(0.894401 0.4472 0)
(0.894403 0.4472 0)
(0.894402 0.447201 0)
(0.894405 0.447202 0)
(0.894407 0.447202 0)
(0.89441 0.447201 0)
(0.894416 0.447205 0)
(0.894422 0.447205 0)
(0.894429 0.447207 0)
(0.89444 0.447211 0)
(0.894453 0.447212 0)
(0.894463 0.447217 0)
(0.894477 0.44722 0)
(0.894481 0.447221 0)
(0.894471 0.447217 0)
(0.894442 0.447204 0)
(0.894362 0.447175 0)
(0.89421 0.447115 0)
(0.893943 0.447004 0)
(0.893494 0.446817 0)
(0.892786 0.446511 0)
(0.891707 0.446028 0)
(0.890114 0.445297 0)
(0.887858 0.44422 0)
(0.884797 0.442702 0)
(0.880888 0.440693 0)
(0.876392 0.438259 0)
(0.87194 0.435691 0)
(0.868336 0.433424 0)
(0.866209 0.431832 0)
(0.894829 0.447022 0)
(0.894704 0.447079 0)
(0.894617 0.447117 0)
(0.894556 0.447143 0)
(0.894513 0.44716 0)
(0.894482 0.447172 0)
(0.89446 0.447181 0)
(0.894444 0.447186 0)
(0.894431 0.447191 0)
(0.894423 0.447193 0)
(0.894416 0.447195 0)
(0.894412 0.447197 0)
(0.894408 0.447198 0)
(0.894405 0.447198 0)
(0.894404 0.447199 0)
(0.894402 0.447199 0)
(0.894402 0.4472 0)
(0.894401 0.4472 0)
(0.894401 0.4472 0)
(0.8944 0.4472 0)
(0.894401 0.4472 0)
(0.8944 0.4472 0)
(0.8944 0.4472 0)
(0.8944 0.4472 0)
(0.8944 0.4472 0)
(0.8944 0.4472 0)
(0.894401 0.4472 0)
(0.894399 0.4472 0)
(0.8944 0.4472 0)
(0.8944 0.4472 0)
(0.894401 0.4472 0)
(0.894399 0.4472 0)
(0.894402 0.4472 0)
(0.894398 0.4472 0)
(0.894402 0.4472 0)
(0.894399 0.4472 0)
(0.894401 0.4472 0)
(0.8944 0.4472 0)
(0.8944 0.447201 0)
(0.8944 0.447199 0)
(0.894401 0.447201 0)
(0.8944 0.4472 0)
(0.8944 0.447199 0)
(0.894402 0.447201 0)
(0.8944 0.447201 0)
(0.894402 0.4472 0)
(0.894401 0.4472 0)
(0.894403 0.447201 0)
(0.894403 0.4472 0)
(0.894409 0.447203 0)
(0.894407 0.447202 0)
(0.894416 0.447202 0)
(0.894421 0.447207 0)
(0.894428 0.447207 0)
(0.894438 0.447211 0)
(0.894451 0.447215 0)
(0.894462 0.447216 0)
(0.894473 0.447224 0)
(0.894482 0.447224 0)
(0.894478 0.447224 0)
(0.894455 0.447214 0)
(0.894393 0.44719 0)
(0.894268 0.447141 0)
(0.894048 0.447045 0)
(0.893669 0.446885 0)
(0.893063 0.446614 0)
(0.892139 0.446181 0)
(0.890761 0.445525 0)
(0.888789 0.444548 0)
(0.886078 0.44315 0)
(0.882533 0.441254 0)
(0.878284 0.438872 0)
(0.873821 0.436215 0)
(0.869897 0.433697 0)
(0.867215 0.43174 0)
(0.894778 0.447033 0)
(0.894669 0.447086 0)
(0.894594 0.447121 0)
(0.89454 0.447145 0)
(0.894502 0.447162 0)
(0.894475 0.447173 0)
(0.894455 0.447181 0)
(0.89444 0.447187 0)
(0.894429 0.44719 0)
(0.894421 0.447193 0)
(0.894415 0.447196 0)
(0.894411 0.447197 0)
(0.894407 0.447198 0)
(0.894405 0.447198 0)
(0.894403 0.447199 0)
(0.894403 0.447199 0)
(0.894401 0.4472 0)
(0.894401 0.4472 0)
(0.894401 0.4472 0)
(0.8944 0.4472 0)
(0.8944 0.4472 0)
(0.8944 0.4472 0)
(0.8944 0.4472 0)
(0.8944 0.4472 0)
(0.8944 0.4472 0)
(0.8944 0.4472 0)
(0.8944 0.4472 0)
(0.8944 0.447201 0)
(0.894399 0.447199 0)
(0.894401 0.4472 0)
(0.8944 0.4472 0)
(0.894399 0.4472 0)
(0.894401 0.4472 0)
(0.8944 0.4472 0)
(0.8944 0.4472 0)
(0.8944 0.4472 0)
(0.894401 0.4472 0)
(0.894399 0.447199 0)
(0.894401 0.447201 0)
(0.894399 0.447199 0)
(0.8944 0.4472 0)
(0.894401 0.447201 0)
(0.894399 0.4472 0)
(0.894401 0.4472 0)
(0.8944 0.4472 0)
(0.894401 0.447199 0)
(0.894402 0.447202 0)
(0.894402 0.4472 0)
(0.894403 0.447201 0)
(0.894408 0.447201 0)
(0.894409 0.447204 0)
(0.894411 0.447203 0)
(0.89442 0.447205 0)
(0.894427 0.447209 0)
(0.894435 0.44721 0)
(0.894446 0.447215 0)
(0.894461 0.447219 0)
(0.894469 0.447224 0)
(0.894481 0.447227 0)
(0.894482 0.447229 0)
(0.894464 0.447222 0)
(0.894419 0.447204 0)
(0.894318 0.447164 0)
(0.894134 0.447084 0)
(0.893821 0.446945 0)
(0.893311 0.44671 0)
(0.892521 0.44633 0)
(0.891344 0.445746 0)
(0.889639 0.44487 0)
(0.887263 0.443601 0)
(0.884099 0.441843 0)
(0.88017 0.439562 0)
(0.875809 0.436888 0)
(0.871678 0.434173 0)
(0.868511 0.43187 0)
(0.894732 0.447045 0)
(0.894638 0.447093 0)
(0.894572 0.447125 0)
(0.894526 0.447148 0)
(0.894492 0.447163 0)
(0.894468 0.447174 0)
(0.89445 0.447181 0)
(0.894436 0.447187 0)
(0.894427 0.447191 0)
(0.894419 0.447193 0)
(0.894414 0.447196 0)
(0.89441 0.447197 0)
(0.894407 0.447198 0)
(0.894405 0.447199 0)
(0.894403 0.447199 0)
(0.894402 0.4472 0)
(0.894402 0.4472 0)
(0.894401 0.4472 0)
(0.894401 0.4472 0)
(0.8944 0.4472 0)
(0.8944 0.4472 0)
(0.8944 0.4472 0)
(0.8944 0.4472 0)
(0.8944 0.4472 0)
(0.894401 0.4472 0)
(0.8944 0.4472 0)
(0.8944 0.4472 0)
(0.8944 0.4472 0)
(0.8944 0.4472 0)
(0.894401 0.447199 0)
(0.894399 0.447201 0)
(0.894401 0.4472 0)
(0.894399 0.447199 0)
(0.894401 0.447201 0)
(0.894398 0.447199 0)
(0.894402 0.4472 0)
(0.894398 0.4472 0)
(0.894401 0.4472 0)
(0.894399 0.447201 0)
(0.8944 0.447199 0)
(0.8944 0.4472 0)
(0.894401 0.4472 0)
(0.8944 0.4472 0)
(0.8944 0.447199 0)
(0.894402 0.447201 0)
(0.894399 0.447199 0)
(0.894403 0.447201 0)
(0.894401 0.447201 0)
(0.894404 0.447202 0)
(0.894404 0.4472 0)
(0.894411 0.447203 0)
(0.89441 0.447205 0)
(0.894418 0.447204 0)
(0.894424 0.447208 0)
(0.894433 0.447213 0)
(0.894443 0.447213 0)
(0.894455 0.447221 0)
(0.894468 0.447224 0)
(0.894477 0.447229 0)
(0.894483 0.447232 0)
(0.894472 0.44723 0)
(0.894437 0.447216 0)
(0.89436 0.447184 0)
(0.894209 0.447121 0)
(0.893951 0.447001 0)
(0.893526 0.446799 0)
(0.892859 0.446471 0)
(0.891858 0.445956 0)
(0.8904 0.445179 0)
(0.888344 0.444042 0)
(0.88556 0.442442 0)
(0.882001 0.440304 0)
(0.877856 0.437681 0)
(0.873647 0.434849 0)
(0.870092 0.432241 0)
(0.89469 0.447057 0)
(0.894609 0.447101 0)
(0.894552 0.44713 0)
(0.894512 0.447151 0)
(0.894482 0.447165 0)
(0.894461 0.447175 0)
(0.894445 0.447182 0)
(0.894433 0.447187 0)
(0.894424 0.447191 0)
(0.894417 0.447194 0)
(0.894412 0.447196 0)
(0.894409 0.447197 0)
(0.894406 0.447198 0)
(0.894405 0.447198 0)
(0.894403 0.447199 0)
(0.894402 0.447199 0)
(0.894401 0.4472 0)
(0.894401 0.4472 0)
(0.8944 0.4472 0)
(0.8944 0.4472 0)
(0.8944 0.4472 0)
(0.8944 0.4472 0)
(0.8944 0.4472 0)
(0.8944 0.4472 0)
(0.8944 0.4472 0)
(0.8944 0.4472 0)
(0.8944 0.4472 0)
(0.8944 0.4472 0)
(0.8944 0.4472 0)
(0.8944 0.447199 0)
(0.894399 0.4472 0)
(0.894401 0.4472 0)
(0.894399 0.4472 0)
(0.894401 0.4472 0)
(0.894399 0.4472 0)
(0.894401 0.4472 0)
(0.894398 0.4472 0)
(0.894402 0.4472 0)
(0.894398 0.4472 0)
(0.894402 0.4472 0)
(0.894398 0.4472 0)
(0.8944 0.447199 0)
(0.894402 0.447201 0)
(0.894398 0.4472 0)
(0.894402 0.4472 0)
(0.8944 0.447201 0)
(0.894401 0.447199 0)
(0.894402 0.447202 0)
(0.894405 0.447201 0)
(0.894403 0.447202 0)
(0.894408 0.4472 0)
(0.89441 0.447205 0)
(0.894417 0.447206 0)
(0.894421 0.447205 0)
(0.894429 0.447212 0)
(0.894441 0.447214 0)
(0.894451 0.44722 0)
(0.894464 0.447226 0)
(0.894476 0.447229 0)
(0.89448 0.447234 0)
(0.894478 0.447236 0)
(0.894452 0.447225 0)
(0.894392 0.447201 0)
(0.894272 0.447152 0)
(0.89406 0.44705 0)
(0.893709 0.44688 0)
(0.893154 0.446599 0)
(0.892311 0.446152 0)
(0.891074 0.445471 0)
(0.889316 0.444466 0)
(0.886901 0.443031 0)
(0.883738 0.441067 0)
(0.879897 0.438565 0)
(0.875749 0.4357 0)
(0.871933 0.432859 0)
(0.894652 0.447069 0)
(0.894583 0.447108 0)
(0.894534 0.447135 0)
(0.894499 0.447153 0)
(0.894474 0.447167 0)
(0.894455 0.447176 0)
(0.89444 0.447183 0)
(0.89443 0.447188 0)
(0.894421 0.447191 0)
(0.894416 0.447194 0)
(0.894411 0.447196 0)
(0.894408 0.447197 0)
(0.894405 0.447198 0)
(0.894404 0.447199 0)
(0.894403 0.447199 0)
(0.894402 0.4472 0)
(0.894401 0.447199 0)
(0.894401 0.4472 0)
(0.8944 0.4472 0)
(0.8944 0.4472 0)
(0.8944 0.4472 0)
(0.8944 0.4472 0)
(0.8944 0.4472 0)
(0.8944 0.4472 0)
(0.8944 0.4472 0)
(0.8944 0.447201 0)
(0.8944 0.447199 0)
(0.8944 0.4472 0)
(0.8944 0.447201 0)
(0.8944 0.4472 0)
(0.8944 0.4472 0)
(0.8944 0.447201 0)
(0.894401 0.4472 0)
(0.894399 0.447199 0)
(0.894401 0.447201 0)
(0.894399 0.447199 0)
(0.8944 0.447201 0)
(0.8944 0.4472 0)
(0.8944 0.447199 0)
(0.8944 0.447201 0)
(0.894401 0.447199 0)
(0.894399 0.4472 0)
(0.8944 0.447199 0)
(0.894401 0.447201 0)
(0.894398 0.447198 0)
(0.894402 0.447202 0)
(0.8944 0.4472 0)
(0.894402 0.447199 0)
(0.894403 0.447202 0)
(0.894406 0.447202 0)
(0.894404 0.447202 0)
(0.894412 0.447203 0)
(0.894414 0.447207 0)
(0.89442 0.447207 0)
(0.894427 0.44721 0)
(0.894436 0.447215 0)
(0.894448 0.447219 0)
(0.894459 0.447226 0)
(0.894471 0.447229 0)
(0.894479 0.447236 0)
(0.894478 0.447239 0)
(0.894463 0.447234 0)
(0.894416 0.447216 0)
(0.894322 0.447175 0)
(0.894153 0.447097 0)
(0.893866 0.446953 0)
(0.893406 0.446713 0)
(0.892703 0.446331 0)
(0.891664 0.445742 0)
(0.890174 0.444863 0)
(0.88811 0.443594 0)
(0.88535 0.441828 0)
(0.881878 0.439502 0)
(0.877919 0.436694 0)
(0.873987 0.433712 0)
(0.894619 0.447081 0)
(0.89456 0.447115 0)
(0.894518 0.44714 0)
(0.894488 0.447156 0)
(0.894466 0.447169 0)
(0.894449 0.447178 0)
(0.894436 0.447183 0)
(0.894426 0.447189 0)
(0.89442 0.447191 0)
(0.894414 0.447194 0)
(0.89441 0.447196 0)
(0.894407 0.447197 0)
(0.894405 0.447198 0)
(0.894404 0.447199 0)
(0.894402 0.447199 0)
(0.894402 0.447199 0)
(0.894401 0.4472 0)
(0.894401 0.447199 0)
(0.894401 0.4472 0)
(0.8944 0.4472 0)
(0.8944 0.4472 0)
(0.8944 0.4472 0)
(0.8944 0.4472 0)
(0.8944 0.4472 0)
(0.8944 0.4472 0)
(0.8944 0.4472 0)
(0.894401 0.4472 0)
(0.894399 0.447199 0)
(0.8944 0.4472 0)
(0.894401 0.4472 0)
(0.894399 0.447199 0)
(0.8944 0.4472 0)
(0.894401 0.4472 0)
(0.894399 0.447199 0)
(0.894402 0.4472 0)
(0.894398 0.4472 0)
(0.894401 0.4472 0)
(0.894399 0.4472 0)
(0.894401 0.447201 0)
(0.894398 0.447199 0)
(0.894402 0.4472 0)
(0.894399 0.447201 0)
(0.894399 0.447199 0)
(0.894403 0.447201 0)
(0.894398 0.4472 0)
(0.894401 0.447199 0)
(0.894402 0.447202 0)
(0.894401 0.447199 0)
(0.894402 0.447201 0)
(0.894405 0.447202 0)
(0.894405 0.447202 0)
(0.89441 0.447203 0)
(0.894411 0.447204 0)
(0.894419 0.447208 0)
(0.894425 0.44721 0)
(0.894433 0.447213 0)
(0.894444 0.44722 0)
(0.894455 0.447225 0)
(0.894468 0.447231 0)
(0.894475 0.447237 0)
(0.894477 0.447241 0)
(0.89447 0.44724 0)
(0.894436 0.447229 0)
(0.894361 0.447198 0)
(0.894227 0.447133 0)
(0.893997 0.447016 0)
(0.89362 0.446817 0)
(0.893039 0.446493 0)
(0.892175 0.445987 0)
(0.890925 0.445229 0)
(0.889176 0.444124 0)
(0.886809 0.442563 0)
(0.883746 0.440448 0)
(0.880084 0.437784 0)
(0.876192 0.434773 0)
(0.894589 0.447092 0)
(0.894539 0.447122 0)
(0.894504 0.447144 0)
(0.894478 0.44716 0)
(0.894458 0.447171 0)
(0.894443 0.447179 0)
(0.894432 0.447185 0)
(0.894423 0.447189 0)
(0.894418 0.447193 0)
(0.894412 0.447194 0)
(0.894409 0.447196 0)
(0.894406 0.447197 0)
(0.894404 0.447198 0)
(0.894403 0.447199 0)
(0.894402 0.447199 0)
(0.894401 0.447199 0)
(0.894401 0.4472 0)
(0.894401 0.4472 0)
(0.8944 0.4472 0)
(0.8944 0.4472 0)
(0.8944 0.4472 0)
(0.8944 0.4472 0)
(0.8944 0.4472 0)
(0.8944 0.4472 0)
(0.894401 0.4472 0)
(0.894399 0.4472 0)
(0.8944 0.447199 0)
(0.8944 0.447201 0)
(0.894399 0.447199 0)
(0.894401 0.4472 0)
(0.8944 0.447201 0)
(0.8944 0.447199 0)
(0.8944 0.4472 0)
(0.894401 0.447201 0)
(0.8944 0.447199 0)
(0.8944 0.4472 0)
(0.8944 0.4472 0)
(0.894399 0.4472 0)
(0.894401 0.447199 0)
(0.894399 0.447201 0)
(0.894399 0.4472 0)
(0.894402 0.447199 0)
(0.894399 0.447201 0)
(0.894399 0.447198 0)
(0.894402 0.447202 0)
(0.894399 0.447199 0)
(0.894401 0.447199 0)
(0.894402 0.447203 0)
(0.894401 0.447199 0)
(0.894403 0.447202 0)
(0.894407 0.447202 0)
(0.894406 0.447203 0)
(0.894412 0.447204 0)
(0.894417 0.447206 0)
(0.894421 0.447211 0)
(0.894431 0.447212 0)
(0.894441 0.447218 0)
(0.894449 0.447224 0)
(0.894461 0.44723 0)
(0.894473 0.447237 0)
(0.894476 0.447243 0)
(0.894471 0.447244 0)
(0.894449 0.447237 0)
(0.894394 0.447216 0)
(0.894288 0.447164 0)
(0.894102 0.447072 0)
(0.893799 0.446908 0)
(0.893325 0.446634 0)
(0.892612 0.44621 0)
(0.891572 0.445562 0)
(0.890108 0.444608 0)
(0.888105 0.443249 0)
(0.885461 0.441374 0)
(0.882173 0.438921 0)
(0.878462 0.435988 0)
(0.894562 0.447102 0)
(0.894521 0.44713 0)
(0.89449 0.447148 0)
(0.894468 0.447163 0)
(0.894451 0.447173 0)
(0.894438 0.44718 0)
(0.894429 0.447186 0)
(0.894421 0.44719 0)
(0.894416 0.447193 0)
(0.894411 0.447195 0)
(0.894408 0.447196 0)
(0.894406 0.447198 0)
(0.894404 0.447198 0)
(0.894403 0.447199 0)
(0.894402 0.447199 0)
(0.894401 0.447199 0)
(0.894401 0.4472 0)
(0.894401 0.4472 0)
(0.8944 0.4472 0)
(0.8944 0.4472 0)
(0.8944 0.4472 0)
(0.8944 0.4472 0)
(0.894399 0.4472 0)
(0.894401 0.4472 0)
(0.894399 0.447199 0)
(0.8944 0.447201 0)
(0.8944 0.447199 0)
(0.8944 0.447201 0)
(0.8944 0.4472 0)
(0.8944 0.447199 0)
(0.8944 0.447201 0)
(0.894401 0.4472 0)
(0.894399 0.447199 0)
(0.8944 0.447201 0)
(0.8944 0.447199 0)
(0.8944 0.4472 0)
(0.894399 0.447201 0)
(0.894401 0.447199 0)
(0.894399 0.447201 0)
(0.894401 0.4472 0)
(0.8944 0.4472 0)
(0.8944 0.4472 0)
(0.894401 0.447201 0)
(0.8944 0.447199 0)
(0.894401 0.4472 0)
(0.8944 0.447202 0)
(0.894401 0.447198 0)
(0.894402 0.447202 0)
(0.894403 0.447201 0)
(0.894402 0.4472 0)
(0.894405 0.447203 0)
(0.894407 0.447201 0)
(0.894409 0.447205 0)
(0.894416 0.447206 0)
(0.89442 0.447208 0)
(0.894426 0.447214 0)
(0.894436 0.447217 0)
(0.894445 0.447223 0)
(0.894457 0.44723 0)
(0.894467 0.447236 0)
(0.894472 0.447243 0)
(0.894472 0.447247 0)
(0.894459 0.447243 0)
(0.894416 0.447228 0)
(0.894335 0.447192 0)
(0.894191 0.447116 0)
(0.893948 0.446984 0)
(0.893562 0.446761 0)
(0.892979 0.446405 0)
(0.892126 0.445858 0)
(0.89091 0.445046 0)
(0.889235 0.443878 0)
(0.886991 0.442244 0)
(0.884121 0.44005 0)
(0.880714 0.437296 0)
(0.894539 0.447112 0)
(0.894504 0.447136 0)
(0.894479 0.447153 0)
(0.894459 0.447166 0)
(0.894445 0.447175 0)
(0.894434 0.447182 0)
(0.894425 0.447187 0)
(0.894419 0.447191 0)
(0.894413 0.447193 0)
(0.89441 0.447195 0)
(0.894407 0.447197 0)
(0.894405 0.447198 0)
(0.894403 0.447199 0)
(0.894402 0.447199 0)
(0.894401 0.447199 0)
(0.894401 0.4472 0)
(0.894401 0.4472 0)
(0.8944 0.4472 0)
(0.8944 0.4472 0)
(0.8944 0.4472 0)
(0.8944 0.4472 0)
(0.8944 0.4472 0)
(0.8944 0.4472 0)
(0.8944 0.4472 0)
(0.8944 0.4472 0)
(0.894399 0.4472 0)
(0.894401 0.4472 0)
(0.894399 0.4472 0)
(0.894401 0.4472 0)
(0.8944 0.447201 0)
(0.8944 0.447199 0)
(0.894401 0.447201 0)
(0.894399 0.4472 0)
(0.8944 0.447199 0)
(0.894401 0.447201 0)
(0.894399 0.4472 0)
(0.8944 0.447199 0)
(0.8944 0.4472 0)
(0.8944 0.4472 0)
(0.894401 0.447199 0)
(0.8944 0.447201 0)
(0.894399 0.4472 0)
(0.894401 0.447199 0)
(0.894401 0.447202 0)
(0.894399 0.447198 0)
(0.894401 0.447201 0)
(0.894401 0.447201 0)
(0.8944 0.447198 0)
(0.894403 0.447203 0)
(0.894403 0.447199 0)
(0.894403 0.447203 0)
(0.894408 0.447202 0)
(0.894408 0.447204 0)
(0.894412 0.447206 0)
(0.894419 0.447206 0)
(0.894422 0.447214 0)
(0.894433 0.447216 0)
(0.894442 0.44722 0)
(0.89445 0.447229 0)
(0.89446 0.447236 0)
(0.894471 0.44724 0)
(0.894471 0.447248 0)
(0.894461 0.44725 0)
(0.894434 0.447238 0)
(0.894371 0.447211 0)
(0.894257 0.447154 0)
(0.894067 0.447051 0)
(0.893758 0.446869 0)
(0.893288 0.446573 0)
(0.892592 0.446119 0)
(0.891593 0.445438 0)
(0.890205 0.444443 0)
(0.88833 0.44304 0)
(0.885882 0.441124 0)
(0.882859 0.438628 0)
(0.894519 0.447121 0)
(0.89449 0.447142 0)
(0.894468 0.447158 0)
(0.894452 0.447169 0)
(0.894439 0.447177 0)
(0.894429 0.447183 0)
(0.894422 0.447188 0)
(0.894416 0.447191 0)
(0.894412 0.447194 0)
(0.894409 0.447196 0)
(0.894406 0.447197 0)
(0.894404 0.447198 0)
(0.894403 0.447199 0)
(0.894402 0.447199 0)
(0.894401 0.447199 0)
(0.894401 0.4472 0)
(0.894401 0.4472 0)
(0.8944 0.4472 0)
(0.8944 0.4472 0)
(0.8944 0.4472 0)
(0.8944 0.4472 0)
(0.8944 0.4472 0)
(0.8944 0.4472 0)
(0.8944 0.4472 0)
(0.8944 0.4472 0)
(0.8944 0.4472 0)
(0.8944 0.4472 0)
(0.8944 0.4472 0)
(0.8944 0.4472 0)
(0.894401 0.4472 0)
(0.894399 0.4472 0)
(0.8944 0.4472 0)
(0.8944 0.4472 0)
(0.894399 0.4472 0)
(0.8944 0.4472 0)
(0.8944 0.4472 0)
(0.894399 0.4472 0)
(0.894401 0.4472 0)
(0.894399 0.4472 0)
(0.8944 0.4472 0)
(0.894402 0.4472 0)
(0.894398 0.4472 0)
(0.894401 0.4472 0)
(0.894401 0.447199 0)
(0.8944 0.447201 0)
(0.8944 0.447198 0)
(0.894401 0.447202 0)
(0.8944 0.4472 0)
(0.894402 0.4472 0)
(0.894402 0.447202 0)
(0.894403 0.4472 0)
(0.894405 0.447203 0)
(0.89441 0.447204 0)
(0.894409 0.447205 0)
(0.894416 0.447208 0)
(0.894422 0.44721 0)
(0.894426 0.447216 0)
(0.894438 0.44722 0)
(0.894447 0.447227 0)
(0.894454 0.447234 0)
(0.894465 0.447241 0)
(0.894468 0.447247 0)
(0.894464 0.447251 0)
(0.894445 0.447246 0)
(0.894398 0.447226 0)
(0.894312 0.447185 0)
(0.894163 0.447102 0)
(0.89392 0.446958 0)
(0.893541 0.44672 0)
(0.892978 0.446345 0)
(0.892169 0.445777 0)
(0.89103 0.444943 0)
(0.889479 0.443754 0)
(0.887429 0.442112 0)
(0.884827 0.439918 0)
(0.894501 0.44713 0)
(0.894477 0.447148 0)
(0.894459 0.447162 0)
(0.894445 0.447172 0)
(0.894434 0.447179 0)
(0.894426 0.447185 0)
(0.894419 0.447189 0)
(0.894414 0.447192 0)
(0.89441 0.447194 0)
(0.894407 0.447196 0)
(0.894405 0.447197 0)
(0.894404 0.447198 0)
(0.894402 0.447199 0)
(0.894402 0.447199 0)
(0.894401 0.447199 0)
(0.894401 0.4472 0)
(0.8944 0.4472 0)
(0.894401 0.4472 0)
(0.8944 0.4472 0)
(0.8944 0.4472 0)
(0.8944 0.4472 0)
(0.8944 0.4472 0)
(0.894401 0.4472 0)
(0.8944 0.4472 0)
(0.8944 0.4472 0)
(0.8944 0.447201 0)
(0.8944 0.447199 0)
(0.894399 0.447201 0)
(0.894401 0.447199 0)
(0.894399 0.4472 0)
(0.8944 0.4472 0)
(0.894401 0.447199 0)
(0.894399 0.447201 0)
(0.8944 0.4472 0)
(0.8944 0.447199 0)
(0.8944 0.447201 0)
(0.894401 0.447199 0)
(0.894399 0.4472 0)
(0.894401 0.4472 0)
(0.894399 0.4472 0)
(0.8944 0.4472 0)
(0.8944 0.447201 0)
(0.8944 0.4472 0)
(0.8944 0.4472 0)
(0.8944 0.447201 0)
(0.8944 0.4472 0)
(0.8944 0.447199 0)
(0.894403 0.447202 0)
(0.894399 0.447198 0)
(0.894404 0.447202 0)
(0.894402 0.447202 0)
(0.894404 0.4472 0)
(0.894407 0.447205 0)
(0.89441 0.447203 0)
(0.894413 0.447208 0)
(0.894419 0.447209 0)
(0.894425 0.447213 0)
(0.894431 0.44722 0)
(0.894443 0.447224 0)
(0.894451 0.447231 0)
(0.894456 0.44724 0)
(0.894466 0.447246 0)
(0.894462 0.447251 0)
(0.894449 0.447251 0)
(0.89442 0.447239 0)
(0.894351 0.447208 0)
(0.894235 0.447145 0)
(0.894047 0.447031 0)
(0.893747 0.446842 0)
(0.893297 0.446538 0)
(0.892646 0.44607 0)
(0.891722 0.44538 0)
(0.890452 0.444385 0)
(0.888759 0.442993 0)
(0.886572 0.44111 0)
(0.894486 0.447137 0)
(0.894465 0.447154 0)
(0.89445 0.447165 0)
(0.894438 0.447175 0)
(0.894429 0.447181 0)
(0.894422 0.447187 0)
(0.894416 0.44719 0)
(0.894412 0.447193 0)
(0.894409 0.447195 0)
(0.894406 0.447197 0)
(0.894405 0.447197 0)
(0.894403 0.447199 0)
(0.894403 0.447199 0)
(0.894401 0.447199 0)
(0.894401 0.447199 0)
(0.8944 0.4472 0)
(0.894401 0.4472 0)
(0.8944 0.4472 0)
(0.8944 0.4472 0)
(0.8944 0.4472 0)
(0.8944 0.4472 0)
(0.8944 0.4472 0)
(0.8944 0.4472 0)
(0.894401 0.4472 0)
(0.894399 0.4472 0)
(0.894401 0.4472 0)
(0.8944 0.4472 0)
(0.8944 0.4472 0)
(0.8944 0.4472 0)
(0.8944 0.4472 0)
(0.8944 0.4472 0)
(0.8944 0.4472 0)
(0.8944 0.4472 0)
(0.8944 0.4472 0)
(0.8944 0.4472 0)
(0.8944 0.4472 0)
(0.894401 0.4472 0)
(0.894398 0.4472 0)
(0.894402 0.4472 0)
(0.894399 0.4472 0)
(0.8944 0.4472 0)
(0.8944 0.4472 0)
(0.8944 0.4472 0)
(0.894401 0.447201 0)
(0.894399 0.447199 0)
(0.894401 0.447201 0)
(0.894401 0.447199 0)
(0.8944 0.4472 0)
(0.894402 0.447202 0)
(0.894402 0.447199 0)
(0.894403 0.447202 0)
(0.894404 0.447203 0)
(0.894406 0.4472 0)
(0.894409 0.447207 0)
(0.89441 0.447205 0)
(0.894418 0.447208 0)
(0.894423 0.447214 0)
(0.894426 0.447217 0)
(0.894436 0.447222 0)
(0.894446 0.44723 0)
(0.894453 0.447237 0)
(0.894458 0.447244 0)
(0.894462 0.447251 0)
(0.894454 0.447252 0)
(0.894429 0.447246 0)
(0.894382 0.447227 0)
(0.894294 0.44718 0)
(0.894147 0.44709 0)
(0.893912 0.446942 0)
(0.893557 0.446699 0)
(0.893035 0.446318 0)
(0.892296 0.445752 0)
(0.891268 0.444934 0)
(0.889885 0.443771 0)
(0.888076 0.442173 0)
(0.894472 0.447145 0)
(0.894456 0.447159 0)
(0.894443 0.447169 0)
(0.894433 0.447178 0)
(0.894425 0.447183 0)
(0.894419 0.447188 0)
(0.894414 0.447191 0)
(0.89441 0.447193 0)
(0.894408 0.447196 0)
(0.894405 0.447196 0)
(0.894404 0.447198 0)
(0.894403 0.447198 0)
(0.894402 0.447199 0)
(0.894401 0.447199 0)
(0.894401 0.4472 0)
(0.894401 0.447199 0)
(0.8944 0.4472 0)
(0.8944 0.4472 0)
(0.8944 0.4472 0)
(0.8944 0.4472 0)
(0.8944 0.4472 0)
(0.8944 0.4472 0)
(0.8944 0.4472 0)
(0.8944 0.4472 0)
(0.8944 0.4472 0)
(0.8944 0.4472 0)
(0.8944 0.4472 0)
(0.8944 0.4472 0)
(0.8944 0.4472 0)
(0.8944 0.4472 0)
(0.8944 0.4472 0)
(0.8944 0.4472 0)
(0.8944 0.4472 0)
(0.8944 0.4472 0)
(0.894401 0.4472 0)
(0.894399 0.4472 0)
(0.8944 0.4472 0)
(0.894401 0.4472 0)
(0.894398 0.4472 0)
(0.894402 0.447201 0)
(0.894399 0.447199 0)
(0.8944 0.4472 0)
(0.894401 0.4472 0)
(0.894399 0.4472 0)
(0.894401 0.4472 0)
(0.8944 0.4472 0)
(0.894401 0.4472 0)
(0.8944 0.4472 0)
(0.894402 0.447202 0)
(0.894401 0.4472 0)
(0.894402 0.447201 0)
(0.894404 0.447202 0)
(0.894403 0.447203 0)
(0.894408 0.447202 0)
(0.894411 0.447206 0)
(0.894412 0.447208 0)
(0.89442 0.44721 0)
(0.894426 0.447217 0)
(0.89443 0.447218 0)
(0.89444 0.447228 0)
(0.894448 0.447235 0)
(0.894453 0.447241 0)
(0.894457 0.447248 0)
(0.894455 0.447255 0)
(0.894437 0.44725 0)
(0.894401 0.447236 0)
(0.894338 0.447205 0)
(0.894224 0.447139 0)
(0.894042 0.447021 0)
(0.893765 0.446831 0)
(0.893353 0.446528 0)
(0.892762 0.446068 0)
(0.891939 0.445398 0)
(0.890825 0.444442 0)
(0.889351 0.443114 0)
(0.894461 0.447152 0)
(0.894447 0.447164 0)
(0.894436 0.447173 0)
(0.894428 0.44718 0)
(0.894422 0.447185 0)
(0.894416 0.447189 0)
(0.894412 0.447192 0)
(0.894409 0.447194 0)
(0.894407 0.447196 0)
(0.894405 0.447197 0)
(0.894403 0.447198 0)
(0.894402 0.447199 0)
(0.894402 0.447199 0)
(0.894401 0.447199 0)
(0.894401 0.447199 0)
(0.894401 0.4472 0)
(0.8944 0.447199 0)
(0.8944 0.4472 0)
(0.8944 0.4472 0)
(0.8944 0.4472 0)
(0.8944 0.4472 0)
(0.894401 0.4472 0)
(0.8944 0.4472 0)
(0.8944 0.4472 0)
(0.8944 0.4472 0)
(0.8944 0.4472 0)
(0.8944 0.447199 0)
(0.8944 0.447201 0)
(0.8944 0.4472 0)
(0.8944 0.4472 0)
(0.8944 0.4472 0)
(0.8944 0.4472 0)
(0.8944 0.4472 0)
(0.8944 0.4472 0)
(0.894399 0.4472 0)
(0.894401 0.4472 0)
(0.894399 0.447199 0)
(0.894401 0.447201 0)
(0.894399 0.4472 0)
(0.8944 0.447199 0)
(0.894401 0.4472 0)
(0.894399 0.4472 0)
(0.894401 0.4472 0)
(0.8944 0.4472 0)
(0.894398 0.447201 0)
(0.894403 0.447199 0)
(0.894399 0.447201 0)
(0.8944 0.447201 0)
(0.894401 0.447198 0)
(0.894402 0.447202 0)
(0.894401 0.447202 0)
(0.894402 0.447199 0)
(0.894406 0.447203 0)
(0.894404 0.447204 0)
(0.894411 0.447203 0)
(0.89441 0.447209 0)
(0.894417 0.447209 0)
(0.894422 0.447213 0)
(0.894426 0.447221 0)
(0.894436 0.447223 0)
(0.894441 0.447231 0)
(0.894447 0.44724 0)
(0.894454 0.447245 0)
(0.894451 0.447251 0)
(0.894442 0.447254 0)
(0.894417 0.447244 0)
(0.894368 0.447222 0)
(0.894284 0.447176 0)
(0.894144 0.447085 0)
(0.893928 0.446935 0)
(0.893606 0.4467 0)
(0.893143 0.446334 0)
(0.892489 0.445787 0)
(0.891597 0.44501 0)
(0.89041 0.443925 0)
(0.894451 0.447158 0)
(0.89444 0.447168 0)
(0.894431 0.447176 0)
(0.894424 0.447182 0)
(0.894418 0.447187 0)
(0.894414 0.447191 0)
(0.89441 0.447193 0)
(0.894408 0.447195 0)
(0.894405 0.447196 0)
(0.894404 0.447198 0)
(0.894403 0.447198 0)
(0.894402 0.447199 0)
(0.894401 0.447199 0)
(0.894401 0.4472 0)
(0.894401 0.4472 0)
(0.8944 0.4472 0)
(0.8944 0.4472 0)
(0.8944 0.4472 0)
(0.8944 0.4472 0)
(0.8944 0.4472 0)
(0.8944 0.4472 0)
(0.8944 0.4472 0)
(0.8944 0.4472 0)
(0.8944 0.4472 0)
(0.8944 0.4472 0)
(0.8944 0.4472 0)
(0.8944 0.4472 0)
(0.8944 0.4472 0)
(0.8944 0.4472 0)
(0.894399 0.4472 0)
(0.8944 0.4472 0)
(0.894401 0.4472 0)
(0.894399 0.447201 0)
(0.894401 0.447199 0)
(0.894399 0.447201 0)
(0.8944 0.4472 0)
(0.8944 0.447199 0)
(0.8944 0.447201 0)
(0.894401 0.4472 0)
(0.8944 0.4472 0)
(0.8944 0.447201 0)
(0.8944 0.447199 0)
(0.8944 0.4472 0)
(0.8944 0.447201 0)
(0.8944 0.447199 0)
(0.8944 0.447201 0)
(0.894401 0.447199 0)
(0.8944 0.447202 0)
(0.894402 0.447199 0)
(0.894399 0.447201 0)
(0.894403 0.447202 0)
(0.894402 0.447201 0)
(0.894404 0.447201 0)
(0.894404 0.447204 0)
(0.894407 0.447204 0)
(0.894412 0.447205 0)
(0.894412 0.44721 0)
(0.894419 0.447212 0)
(0.894425 0.447216 0)
(0.894429 0.447223 0)
(0.894437 0.447228 0)
(0.894445 0.447236 0)
(0.894446 0.447243 0)
(0.894448 0.447247 0)
(0.894443 0.447254 0)
(0.894426 0.447251 0)
(0.89439 0.447233 0)
(0.894326 0.4472 0)
(0.894221 0.447137 0)
(0.894057 0.447021 0)
(0.893806 0.446833 0)
(0.893443 0.446547 0)
(0.892932 0.446116 0)
(0.892225 0.445485 0)
(0.891278 0.444603 0)
(0.894442 0.447163 0)
(0.894433 0.447172 0)
(0.894426 0.447179 0)
(0.89442 0.447185 0)
(0.894415 0.447188 0)
(0.894411 0.447192 0)
(0.894409 0.447194 0)
(0.894406 0.447196 0)
(0.894405 0.447197 0)
(0.894403 0.447198 0)
(0.894402 0.447198 0)
(0.894402 0.447199 0)
(0.894401 0.447199 0)
(0.894401 0.4472 0)
(0.894401 0.4472 0)
(0.8944 0.4472 0)
(0.8944 0.4472 0)
(0.8944 0.4472 0)
(0.8944 0.4472 0)
(0.8944 0.4472 0)
(0.8944 0.4472 0)
(0.8944 0.4472 0)
(0.8944 0.4472 0)
(0.8944 0.4472 0)
(0.8944 0.4472 0)
(0.8944 0.4472 0)
(0.8944 0.4472 0)
(0.8944 0.447199 0)
(0.8944 0.4472 0)
(0.8944 0.4472 0)
(0.894401 0.447199 0)
(0.894399 0.447201 0)
(0.894401 0.4472 0)
(0.894399 0.4472 0)
(0.8944 0.4472 0)
(0.894401 0.4472 0)
(0.8944 0.4472 0)
(0.894399 0.447199 0)
(0.894401 0.4472 0)
(0.8944 0.4472 0)
(0.894399 0.4472 0)
(0.894401 0.447201 0)
(0.8944 0.447198 0)
(0.894399 0.447202 0)
(0.894401 0.447199 0)
(0.894399 0.4472 0)
(0.894401 0.447201 0)
(0.8944 0.447199 0)
(0.8944 0.447201 0)
(0.894403 0.4472 0)
(0.894398 0.4472 0)
(0.894404 0.447202 0)
(0.894402 0.447202 0)
(0.894405 0.447202 0)
(0.894405 0.447204 0)
(0.894409 0.447206 0)
(0.894411 0.447206 0)
(0.894416 0.447212 0)