/*--------------------------------*- C++ -*----------------------------------*\
  =========                 |
  \\      /  F ield         | OpenFOAM: The Open Source CFD Toolbox
   \\    /   O peration     | Website:  https://openfoam.org
    \\  /    A nd           | Version:  6
     \\/     M anipulation  |
\*---------------------------------------------------------------------------*/
FoamFile
{
    version     2.0;
    format      ascii;
    class       volScalarField;
    location    "2.43";
    object      p;
}
// * * * * * * * * * * * * * * * * * * * * * * * * * * * * * * * * * * * * * //

dimensions      [1 -1 -2 0 0 0 0];

internalField   nonuniform List<scalar> 
10000
(
1
1
1
1
1
1
1
1
1
1
1
1
1
1
1
1
1
1
1
1
1
1
1
1
1
1
1
1
1
1
1
1
1
1
1
1
1
1
1
1
1
1
1
1
1
1
1
0.999999
0.999999
0.999998
0.999998
0.999997
0.999997
0.999997
0.999996
0.999996
0.999997
0.999997
0.999998
0.999999
1
1
1
1
1
1
1
1
1
1
1
1
1
1
1
1
1
1
1
1
1
1
1
1
1
1
1
1
1
1
1
1
1
1
1
1
1
1
1
1
1
1
1
1
1
1
1
1
1
1
1
1
1
1
1
1
1
1
1
1
1
1
1
1
1
1
1
1
1
1
1
1
1
1
1
1
1
1
1
1
1
1
1
1
1
0.999999
0.999999
0.999999
0.999998
0.999997
0.999997
0.999996
0.999995
0.999995
0.999994
0.999994
0.999995
0.999996
0.999997
0.999998
1
1
1
1
1.00001
1.00001
1.00001
1.00001
1
1
1
1
1
1
1
1
1
1
1
1
1
1
1
1
1
1
1
1
1
1
1
1
1
1
1
1
1
1
1
1
1
1
1
1
1
1
1
1
1
1
1
1
1
1
1
1
1
1
1
1
1
1
1
1
1
1
1
1
1
1
1
1
1
1
1
1
1
1
1
1
1
1
1
0.999999
0.999999
0.999999
0.999999
0.999998
0.999997
0.999996
0.999995
0.999993
0.999992
0.999991
0.99999
0.999991
0.999991
0.999993
0.999995
0.999997
1
1
1.00001
1.00001
1.00001
1.00001
1.00001
1.00001
1.00001
1.00001
1.00001
1
1
1
1
1
1
1
1
1
1
1
1
1
1
1
1
1
1
1
1
1
1
1
1
1
1
1
1
1
1
1
1
1
1
1
1
1
1
1
1
1
1
1
1
1
1
1
1
1
1
1
1
1
1
1
1
1
1
1
1
1
1
1
1
1
1
1
1
1
1
1
1
0.999999
0.999999
0.999998
0.999998
0.999997
0.999995
0.999993
0.999991
0.999989
0.999987
0.999986
0.999985
0.999985
0.999986
0.999989
0.999992
0.999996
1
1
1.00001
1.00001
1.00001
1.00001
1.00001
1.00001
1.00001
1.00001
1.00001
1.00001
1.00001
1
1
1
1
1
1
1
1
1
1
1
1
1
1
1
1
1
1
1
1
1
1
1
1
1
1
1
1
1
1
1
1
1
1
1
1
1
1
1
1
1
1
1
1
1
1
1
1
1
1
1
1
1
1
1
1
1
1
1
1
1
1
1
1
1
1
1
1
1
1
0.999999
0.999999
0.999998
0.999996
0.999995
0.999992
0.999989
0.999986
0.999983
0.99998
0.999979
0.999977
0.999978
0.99998
0.999983
0.999988
0.999994
1
1.00001
1.00001
1.00002
1.00002
1.00002
1.00002
1.00002
1.00002
1.00002
1.00001
1.00001
1.00001
1.00001
1
1
1
1
1
1
1
1
1
1
1
1
1
1
1
1
1
1
1
1
1
1
1
1
1
1
1
1
1
1
1
1
1
1
1
1
1
1
1
1
1
1
1
1
1
1
1
1
1
1
1
1
1
1
1
1
1
1
1
1
1
1
1
1
1
1
1
1
1
0.999999
0.999998
0.999997
0.999995
0.999992
0.999988
0.999984
0.999979
0.999975
0.999971
0.999968
0.999966
0.999967
0.99997
0.999975
0.999983
0.999992
1
1.00001
1.00002
1.00003
1.00003
1.00004
1.00004
1.00003
1.00003
1.00003
1.00002
1.00002
1.00001
1.00001
1.00001
1
1
1
1
1
1
1
1
1
1
1
1
1
1
1
1
1
1
1
1
1
1
1
1
1
1
1
1
1
1
1
1
1
1
1
1
1
1
1
1
1
1
1
1
1
1
1
1
1
1
1
1
1
1
1
1
1
1
1
1
1
1
1
1
1
1
1
1
0.999999
0.999997
0.999995
0.999992
0.999987
0.999982
0.999976
0.999969
0.999963
0.999957
0.999953
0.999951
0.999953
0.999958
0.999966
0.999977
0.999991
1.00001
1.00002
1.00003
1.00004
1.00005
1.00005
1.00005
1.00005
1.00005
1.00004
1.00003
1.00003
1.00002
1.00002
1.00001
1.00001
1
1
1
1
1
1
1
1
1
1
1
1
1
1
1
1
1
1
1
1
1
1
1
1
1
1
1
1
1
1
1
1
1
1
1
1
1
1
1
1
1
1
1
1
1
1
1
1
1
1
1
1
1
1
1
1
1
1
1
1
1
1
1
1
1
1
1
0.999998
0.999996
0.999993
0.999988
0.999982
0.999974
0.999966
0.999956
0.999947
0.999939
0.999933
0.999932
0.999935
0.999943
0.999956
0.999972
0.999992
1.00001
1.00003
1.00005
1.00006
1.00007
1.00008
1.00008
1.00008
1.00007
1.00006
1.00005
1.00004
1.00003
1.00002
1.00002
1.00001
1.00001
1
1
1
1
1
1
1
1
1
1
1
1
1
1
1
1
1
1
1
1
1
1
1
1
1
1
1
1
1
1
1
1
1
1
1
1
1
1
1
1
1
1
1
1
1
1
1
1
1
1
1
1
1
1
1
1
1
1
1
1
1
1
1
1
1
1
0.999998
0.999994
0.99999
0.999984
0.999975
0.999964
0.999952
0.999939
0.999926
0.999916
0.99991
0.999909
0.999915
0.999927
0.999946
0.999971
0.999998
1.00003
1.00006
1.00008
1.0001
1.00011
1.00012
1.00012
1.00011
1.0001
1.00009
1.00007
1.00006
1.00004
1.00003
1.00002
1.00001
1.00001
1.00001
1
1
1
1
1
1
1
1
1
1
1
1
1
1
1
1
1
1
1
1
1
1
1
1
1
1
1
1
1
1
1
1
1
1
1
1
1
1
1
1
1
1
1
1
1
1
1
1
1
1
1
1
1
1
1
1
1
1
1
1
1
1
1
1
1
0.999997
0.999993
0.999987
0.999978
0.999966
0.999951
0.999934
0.999917
0.999901
0.999889
0.999882
0.999884
0.999895
0.999915
0.999944
0.999979
1.00002
1.00006
1.0001
1.00013
1.00015
1.00017
1.00017
1.00017
1.00016
1.00014
1.00012
1.0001
1.00008
1.00006
1.00004
1.00003
1.00002
1.00001
1.00001
1
1
1
1
1
1
1
1
1
1
1
1
1
1
1
1
1
1
1
1
1
1
1
1
1
1
1
1
1
1
1
1
1
1
1
1
1
1
1
1
1
1
1
1
1
1
1
1
1
1
1
1
1
1
1
1
1
1
1
1
1
1
1
1
1
0.999997
0.999991
0.999983
0.99997
0.999954
0.999935
0.999913
0.999891
0.999873
0.99986
0.999856
0.999863
0.999883
0.999916
0.999959
1.00001
1.00006
1.00012
1.00017
1.00021
1.00024
1.00025
1.00026
1.00025
1.00023
1.00021
1.00018
1.00014
1.00011
1.00009
1.00006
1.00004
1.00003
1.00002
1.00001
1
1
1
1
0.999999
0.999999
0.999999
1
1
1
1
1
1
1
1
1
1
1
1
1
1
1
1
1
1
1
1
1
1
1
1
1
1
1
1
1
1
1
1
1
1
1
1
1
1
1
1
1
1
1
1
1
1
1
1
1
1
1
1
1
1
1
1
1
1
0.999997
0.99999
0.999978
0.999962
0.999941
0.999917
0.99989
0.999865
0.999845
0.999835
0.999838
0.999858
0.999894
0.999946
1.00001
1.00008
1.00016
1.00023
1.00029
1.00034
1.00037
1.00039
1.00038
1.00036
1.00033
1.00029
1.00025
1.0002
1.00016
1.00012
1.00008
1.00006
1.00004
1.00002
1.00001
1.00001
1
1
0.999999
0.999999
0.999999
0.999999
0.999999
1
1
1
1
1
1
1
1
1
1
1
1
1
1
1
1
1
1
1
1
1
1
1
1
1
1
1
1
1
1
1
1
1
1
1
1
1
1
1
1
1
1
1
1
1
1
1
1
1
1
1
1
1
1
1.00001
1
1
0.999998
0.999989
0.999975
0.999954
0.999928
0.999898
0.999868
0.999842
0.999826
0.999826
0.999845
0.999887
0.999951
1.00004
1.00013
1.00024
1.00034
1.00044
1.00051
1.00057
1.00059
1.0006
1.00058
1.00054
1.00048
1.00042
1.00035
1.00028
1.00022
1.00016
1.00011
1.00008
1.00005
1.00003
1.00001
1.00001
1
0.999998
0.999997
0.999997
0.999998
0.999998
0.999999
0.999999
1
1
1
1
1
1
1
1
1
1
1
1
1
1
1
1
1
1
1
1
1
1
1
1
1
1
1
1
1
1
1
1
1
1
1
1
1
1
1
1
1
1
1
1
1
1
1
1
1
1
1
1.00001
1.00001
1.00001
1.00001
1.00001
1
0.99999
0.999972
0.999947
0.999917
0.999884
0.999854
0.999833
0.99983
0.999851
0.999902
0.999985
1.0001
1.00023
1.00038
1.00053
1.00067
1.00079
1.00088
1.00093
1.00095
1.00093
1.00087
1.00079
1.0007
1.00059
1.00049
1.00039
1.0003
1.00022
1.00015
1.0001
1.00006
1.00003
1.00002
1
0.999998
0.999996
0.999995
0.999996
0.999996
0.999997
0.999998
0.999999
0.999999
1
1
1
1
1
1
1
1
1
1
1
1
1
1
1
1
1
1
1
1
1
1
1
1
1
1
1
1
1
1
1
1
1
1
1
1
1
1
1
1
1
1
1
1
1
1
1
1
1
1.00001
1.00001
1.00001
1.00001
1.00001
1.00001
1.00001
0.999994
0.999973
0.999945
0.999912
0.99988
0.999857
0.999853
0.999879
0.999944
1.00005
1.0002
1.00039
1.00061
1.00083
1.00105
1.00124
1.00139
1.00149
1.00153
1.00152
1.00145
1.00133
1.00119
1.00103
1.00086
1.00069
1.00054
1.00041
1.00029
1.0002
1.00013
1.00008
1.00004
1.00002
1
0.999995
0.999992
0.999992
0.999993
0.999994
0.999996
0.999997
0.999998
0.999999
0.999999
1
1
1
1
1
1
1
1
1
1
1
1
1
1
1
1
1
1
1
1
1
1
1
1
1
1
1
1
1
1
1
1
1
1
1
1
1
1
1
1
1
1
1
1
1
1
1
1.00001
1.00001
1.00001
1.00002
1.00002
1.00002
1.00002
1.00002
1
0.99998
0.999951
0.999921
0.999899
0.999896
0.99993
1.00001
1.00015
1.00036
1.00062
1.00093
1.00127
1.0016
1.00191
1.00217
1.00236
1.00247
1.00248
1.00241
1.00226
1.00205
1.00179
1.00152
1.00125
1.001
1.00076
1.00057
1.0004
1.00027
1.00017
1.0001
1.00005
1.00002
0.999998
0.999989
0.999986
0.999986
0.999988
0.999991
0.999993
0.999995
0.999997
0.999998
0.999999
0.999999
1
1
1
1
1
1
1
1
1
1
1
1
1
1
1
1
1
1
1
1
1
1
1
1
1
1
1
1
1
1
1
1
1
1
1
1
1
1
1
1
1
1
1
1
1
1
1.00001
1.00001
1.00002
1.00002
1.00003
1.00004
1.00004
1.00003
1.00002
0.999996
0.999972
0.999954
0.999956
0.999998
1.0001
1.00028
1.00055
1.00091
1.00135
1.00184
1.00235
1.00285
1.00329
1.00365
1.00388
1.00399
1.00395
1.00379
1.0035
1.00314
1.00272
1.00228
1.00184
1.00145
1.00109
1.0008
1.00055
1.00037
1.00023
1.00012
1.00006
1.00002
0.999992
0.999981
0.999978
0.999979
0.999983
0.999986
0.99999
0.999993
0.999995
0.999997
0.999998
0.999999
0.999999
1
1
1
1
1
1
1
1
1
1
1
1
1
1
1
1
1
1
1
1
1
1
1
1
1
1
1
1
1
1
1
1
1
1
1
1
1
1
1
1
1
1
1
1
1.00001
1.00001
1.00002
1.00003
1.00004
1.00004
1.00005
1.00006
1.00005
1.00004
1.00003
1.00002
1.00003
1.00008
1.0002
1.00043
1.00077
1.00124
1.00184
1.00254
1.00329
1.00405
1.00477
1.00539
1.00587
1.00616
1.00626
1.00615
1.00584
1.00537
1.00477
1.0041
1.0034
1.00273
1.00212
1.00158
1.00114
1.00078
1.00051
1.00031
1.00017
1.00007
1.00001
0.999983
0.999969
0.999966
0.999969
0.999974
0.99998
0.999986
0.99999
0.999993
0.999996
0.999997
0.999999
0.999999
1
1
1
1
1
1
1
1
1
1
1
1
1
1
1
1
1
1
1
1
1
1
1
1
1
1
1
1
1
1
1
1
1
1
1
1
1
1
1
1
1
1
1
1.00001
1.00001
1.00002
1.00002
1.00004
1.00005
1.00006
1.00008
1.00009
1.00009
1.00009
1.00009
1.0001
1.00017
1.00031
1.00057
1.00098
1.00158
1.00236
1.0033
1.00436
1.00548
1.00658
1.00758
1.00843
1.00906
1.00942
1.0095
1.00929
1.00879
1.00806
1.00714
1.00612
1.00506
1.00404
1.00312
1.00231
1.00165
1.00112
1.00072
1.00043
1.00023
1.0001
1.00002
0.999973
0.999954
0.999951
0.999955
0.999963
0.999972
0.99998
0.999986
0.999991
0.999994
0.999996
0.999998
0.999999
0.999999
1
1
1
1
1
1
1
1
1
1
1
1
1
1
1
1
1
1
1
1
1
1
1
1
1
1
1
1
1
1
1
1
1
1
1
1
1
1
1
1
1
1
1.00001
1.00001
1.00002
1.00003
1.00005
1.00007
1.00009
1.00011
1.00013
1.00014
1.00015
1.00018
1.00025
1.0004
1.00069
1.00117
1.00188
1.00284
1.00406
1.00548
1.00703
1.00861
1.01013
1.01149
1.01261
1.01341
1.01386
1.01391
1.01358
1.01286
1.0118
1.01048
1.00899
1.00744
1.00594
1.00457
1.00338
1.0024
1.00162
1.00104
1.00062
1.00033
1.00014
1.00002
0.999963
0.999936
0.999931
0.999937
0.999949
0.999961
0.999971
0.99998
0.999987
0.999992
0.999995
0.999997
0.999998
0.999999
1
1
1
1
1
1
1
1
1
1
1
1
1
1
1
1
1
1
1
1
1
1
1
1
1
1
1
1
1
1
1
1
1
1
1
1
1
1
1
1
1
1.00001
1.00001
1.00002
1.00003
1.00005
1.00007
1.00009
1.00012
1.00015
1.00018
1.00021
1.00025
1.00033
1.00049
1.00079
1.0013
1.0021
1.00324
1.00473
1.00653
1.00857
1.01073
1.01287
1.01487
1.01662
1.01802
1.019
1.01952
1.01956
1.0191
1.01815
1.01674
1.01496
1.0129
1.01073
1.0086
1.00663
1.00491
1.00349
1.00236
1.00151
1.0009
1.00048
1.00021
1.00004
0.999956
0.999917
0.999908
0.999916
0.99993
0.999947
0.999961
0.999973
0.999982
0.999988
0.999993
0.999996
0.999998
0.999999
0.999999
1
1
1
1
1
1
1
1
1
1
1
1
1
1
1
1
1
1
1
1
1
1
1
1
1
1
1
1
1
1
1
1
1
1
1
1
1
1
1
1
1.00001
1.00001
1.00003
1.00004
1.00006
1.00009
1.00013
1.00016
1.00021
1.00025
1.00031
1.00039
1.00055
1.00085
1.00137
1.00222
1.00349
1.00522
1.0074
1.00995
1.01274
1.01559
1.01832
1.0208
1.02289
1.02453
1.02564
1.02622
1.02624
1.0257
1.02457
1.02286
1.02062
1.01798
1.0151
1.0122
1.00947
1.00705
1.00503
1.00342
1.0022
1.00132
1.00071
1.00032
1.00009
0.999958
0.999899
0.999883
0.999891
0.999909
0.999929
0.999948
0.999964
0.999976
0.999985
0.99999
0.999994
0.999997
0.999998
0.999999
1
1
1
1
1
1
1
1
1
1
1
1
1
1
1
1
1
1
1
1
1
1
1
1
1
1
1
1
1
1
1
1
1
1
1
1
1
1
1
1.00001
1.00001
1.00002
1.00003
1.00005
1.00008
1.00012
1.00016
1.00022
1.00027
1.00034
1.00044
1.0006
1.00088
1.00138
1.00223
1.00356
1.00546
1.00797
1.01101
1.01445
1.01804
1.02157
1.02482
1.02764
1.02993
1.03163
1.03275
1.03332
1.03334
1.0328
1.03165
1.02982
1.02729
1.02414
1.02057
1.01684
1.01322
1.00994
1.00715
1.0049
1.00318
1.00193
1.00107
1.00051
1.00017
0.999976
0.999886
0.999858
0.999863
0.999884
0.999909
0.999933
0.999953
0.999969
0.99998
0.999987
0.999992
0.999996
0.999998
0.999999
0.999999
1
1
1
1
1
1
1
1
1
1
1
1
1
1
1
1
1
1
1
1
1
1
1
1
1
1
1
1
1
1
1
1
1
1
1
1
1
1
1.00001
1.00001
1.00003
1.00004
1.00007
1.0001
1.00015
1.00021
1.00028
1.00036
1.00046
1.00062
1.00088
1.00134
1.00215
1.00346
1.00543
1.00816
1.01162
1.01566
1.02001
1.02435
1.02839
1.0319
1.03474
1.03688
1.03836
1.03926
1.03969
1.03971
1.03932
1.03842
1.03682
1.03437
1.03104
1.02697
1.02248
1.01793
1.01367
1.00995
1.0069
1.00454
1.0028
1.00159
1.00079
1.0003
1.00002
0.999886
0.999836
0.999834
0.999856
0.999886
0.999916
0.999941
0.99996
0.999974
0.999984
0.99999
0.999994
0.999997
0.999998
0.999999
1
1
1
1
1
1
1
1
1
1
1
1
1
1
1
1
1
1
1
1
1
1
1
1
1
1
1
1
1
1
1
1
1
1
1
1
1
1.00001
1.00001
1.00002
1.00003
1.00005
1.00009
1.00013
1.00019
1.00026
1.00035
1.00046
1.00061
1.00085
1.00126
1.00199
1.00321
1.00514
1.00794
1.01169
1.01624
1.02131
1.02646
1.03127
1.03541
1.03867
1.041
1.04246
1.04326
1.0436
1.0437
1.04372
1.04366
1.04338
1.04254
1.04079
1.03787
1.0338
1.02885
1.02351
1.01826
1.01351
1.0095
1.00634
1.00398
1.00231
1.0012
1.00051
1.00011
0.999905
0.999822
0.999807
0.999827
0.999861
0.999896
0.999926
0.99995
0.999968
0.99998
0.999988
0.999993
0.999996
0.999998
0.999999
0.999999
1
1
1
1
1
1
1
1
1
1
1
1
1
1
1
1
1
1
1
1
1
1
1
1
1
1
1
1
1
1
1
1
1
1
1
1
1.00001
1.00001
1.00002
1.00004
1.00007
1.00011
1.00016
1.00023
1.00032
1.00044
1.00059
1.0008
1.00116
1.00178
1.00286
1.00464
1.00736
1.01119
1.0161
1.02177
1.0277
1.03329
1.03804
1.04161
1.04388
1.04492
1.04503
1.04458
1.04396
1.04352
1.04351
1.04399
1.04475
1.04533
1.04508
1.04345
1.04016
1.03539
1.02964
1.02357
1.01779
1.01275
1.00865
1.00553
1.0033
1.00178
1.00082
1.00025
0.999955
0.999822
0.999786
0.9998
0.999835
0.999874
0.99991
0.999939
0.99996
0.999975
0.999985
0.999991
0.999995
0.999997
0.999999
0.999999
1
1
1
1
1
1
1
1
1
1
1
1
1
1
1
1
1
1
1
1
1
1
1
1
1
1
1
1
1
1
1
1
1
1
1
1
1.00001
1.00002
1.00003
1.00005
1.00008
1.00013
1.00019
1.00028
1.00039
1.00054
1.00074
1.00104
1.00156
1.00246
1.00401
1.0065
1.0102
1.01521
1.02132
1.02795
1.03435
1.03975
1.04362
1.04571
1.04603
1.04492
1.04291
1.04063
1.03866
1.03747
1.03742
1.03861
1.04084
1.04348
1.04563
1.04631
1.04488
1.04122
1.03575
1.02928
1.02266
1.01659
1.01148
1.00749
1.00457
1.00256
1.00126
1.00047
1.00005
0.999843
0.999774
0.999776
0.99981
0.999853
0.999893
0.999927
0.999952
0.99997
0.999982
0.999989
0.999994
0.999997
0.999998
0.999999
1
1
1
1
1
1
1
1
1
1
1
1
1
1
1
1
1
1
1
1
1
1
1
1
1
1
1
1
1
1
1
1
1
1
1
1
1.00001
1.00002
1.00003
1.00006
1.0001
1.00015
1.00023
1.00033
1.00047
1.00065
1.00091
1.00134
1.00207
1.00334
1.00548
1.00884
1.01368
1.01994
1.02713
1.03432
1.04049
1.04481
1.04679
1.04634
1.04374
1.03961
1.03479
1.03017
1.02653
1.02445
1.02437
1.02644
1.03047
1.03573
1.04107
1.04512
1.0467
1.04529
1.04108
1.03489
1.02783
1.0209
1.01479
1.00986
1.00616
1.00355
1.00184
1.00078
1.00019
0.999894
0.999778
0.999759
0.999787
0.999831
0.999876
0.999914
0.999943
0.999964
0.999978
0.999987
0.999993
0.999996
0.999998
0.999999
0.999999
1
1
1
1
1
1
1
1
1
1
1
1
1
1
1
1
1
1
1
1
1
1
1
1
1
1
1
1
1
1
1
1
1
1
1.00001
1.00001
1.00002
1.00004
1.00007
1.00011
1.00018
1.00027
1.00039
1.00055
1.00078
1.00112
1.0017
1.0027
1.00444
1.0073
1.01169
1.01777
1.02522
1.03313
1.0402
1.04523
1.04741
1.04643
1.04243
1.03601
1.02812
1.01995
1.01263
1.00709
1.00405
1.00398
1.0071
1.01321
1.02154
1.03069
1.03894
1.04461
1.04661
1.04477
1.03979
1.0329
1.02545
1.01847
1.0126
1.00805
1.00478
1.00258
1.0012
1.0004
0.999982
0.999801
0.999752
0.999769
0.999813
0.99986
0.999902
0.999935
0.999958
0.999974
0.999985
0.999991
0.999995
0.999997
0.999999
0.999999
1
1
1
1
1
1
1
1
1
1
1
1
1
1
1
1
1
1
1
1
1
1
1
1
1
1
1
1
1
1
1
1
1
1
1.00001
1.00001
1.00003
1.00004
1.00008
1.00013
1.0002
1.0003
1.00044
1.00064
1.00092
1.00136
1.00213
1.00347
1.00577
1.00949
1.01502
1.02234
1.03072
1.03876
1.04483
1.0477
1.04672
1.04182
1.03341
1.02244
1.01023
0.998268
0.987949
0.980364
0.976304
0.976325
0.980694
0.989204
1.00098
1.01443
1.02751
1.03809
1.04452
1.04613
1.04334
1.0374
1.02993
1.02234
1.01562
1.01022
1.00623
1.00348
1.00172
1.00068
1.00011
0.99985
0.99976
0.99976
0.999798
0.999846
0.99989
0.999926
0.999953
0.999971
0.999983
0.99999
0.999994
0.999997
0.999998
0.999999
1
1
1
1
1
1
1
1
1
1
1
1
1
1
1
1
1
1
1
1
1
1
1
1
1
1
1
1
1
1
1
1
1
1
1.00001
1.00002
1.00003
1.00005
1.00009
1.00014
1.00023
1.00034
1.0005
1.00073
1.00107
1.00164
1.00264
1.00439
1.00735
1.01204
1.01875
1.02717
1.03602
1.04339
1.04751
1.04727
1.0423
1.03272
1.01926
1.00318
0.98615
0.969983
0.956331
0.946467
0.941306
0.9415
0.947373
0.958677
0.974375
0.992634
1.01107
1.02716
1.03879
1.04475
1.04507
1.0409
1.03401
1.02619
1.01879
1.0126
1.00787
1.00454
1.00236
1.00103
1.00029
0.999929
0.999785
0.99976
0.999788
0.999835
0.999881
0.999919
0.999947
0.999967
0.999981
0.999989
0.999994
0.999997
0.999998
0.999999
1
1
1
1
1
1
1
1
1
1
1
1
1
1
1
1
1
1
1
1
1
1
1
1
1
1
1
1
1
1
1
1
1
1
1.00001
1.00002
1.00003
1.00006
1.0001
1.00016
1.00025
1.00037
1.00055
1.00082
1.00124
1.00196
1.00323
1.00546
1.00917
1.01488
1.02273
1.03195
1.04064
1.04651
1.04781
1.04374
1.03418
1.01942
1.00041
0.978685
0.956268
0.935332
0.917855
0.905343
0.898884
0.899291
0.906974
0.921614
0.941906
0.965643
0.990039
1.01219
1.02958
1.04056
1.04476
1.0431
1.03741
1.02979
1.02197
1.0151
1.00967
1.00574
1.0031
1.00146
1.00052
1.00004
0.999831
0.999772
0.999786
0.999828
0.999873
0.999913
0.999943
0.999964
0.999979
0.999988
0.999993
0.999996
0.999998
0.999999
1
1
1
1
1
1
1
1
1
1
1
1
1
1
1
1
1
1
1
1
1
1
1
1
1
1
1
1
1
1
1
1
1
1
1.00001
1.00002
1.00003
1.00006
1.0001
1.00017
1.00026
1.0004
1.0006
1.00091
1.00142
1.00231
1.00389
1.00666
1.01118
1.01792
1.02676
1.03635
1.04419
1.04778
1.04564
1.03731
1.02282
1.00253
0.977485
0.949481
0.920914
0.894433
0.872434
0.856722
0.848634
0.849233
0.85908
0.87773
0.903485
0.933592
0.964737
0.993585
1.01726
1.03377
1.04241
1.04387
1.03995
1.03296
1.02502
1.01762
1.01155
1.00703
1.00393
1.00195
1.0008
1.00018
0.999897
0.999798
0.999793
0.999826
0.999869
0.999909
0.99994
0.999962
0.999977
0.999987
0.999993
0.999996
0.999998
0.999999
0.999999
1
1
1
1
1
1
1
1
1
1
1
1
1
1
1
1
1
1
1
1
1
1
1
1
1
1
1
1
1
1
1
1
1
1.00001
1.00002
1.00004
1.00006
1.00011
1.00018
1.00028
1.00043
1.00065
1.001
1.00161
1.00269
1.00461
1.00796
1.01333
1.02105
1.03061
1.04007
1.04642
1.04718
1.04125
1.02849
1.00893
0.982807
0.951174
0.916068
0.880384
0.847396
0.820026
0.800434
0.790293
0.79104
0.803456
0.826909
0.859117
0.896604
0.935405
0.97168
1.00219
1.02469
1.0382
1.04323
1.04154
1.03559
1.02781
1.02007
1.01345
1.00838
1.00482
1.0025
1.00112
1.00036
0.999985
0.999839
0.999809
0.999831
0.999869
0.999907
0.999938
0.999961
0.999976
0.999986
0.999992
0.999996
0.999998
0.999999
0.999999
1
1
1
1
1
1
1
1
1
1
1
1
1
1
1
1
1
1
1
1
1
1
1
1
1
1
1
1
1
1
1
1
1
1.00001
1.00002
1.00004
1.00006
1.00011
1.00018
1.00028
1.00044
1.00068
1.00108
1.0018
1.0031
1.00538
1.00933
1.01554
1.02412
1.03407
1.04291
1.04732
1.04495
1.03514
1.01796
0.993275
0.961037
0.922174
0.879023
0.835159
0.794649
0.761033
0.736889
0.72429
0.72518
0.740655
0.76978
0.809442
0.855255
0.902526
0.946899
0.984779
1.01366
1.03239
1.04133
1.04221
1.03762
1.03027
1.02236
1.01531
1.00974
1.00574
1.00309
1.00147
1.00056
1.00009
0.999895
0.999836
0.999843
0.999874
0.999909
0.999938
0.999961
0.999976
0.999986
0.999992
0.999996
0.999998
0.999999
0.999999
1
1
1
1
1
1
1
1
1
1
1
1
1
1
1
1
1
1
1
1
1
1
1
1
1
1
1
1
1
1
1
1
1.00001
1.00001
1.00002
1.00004
1.00006
1.00011
1.00018
1.00028
1.00045
1.00071
1.00115
1.00199
1.00351
1.00617
1.01071
1.01773
1.02698
1.03699
1.04482
1.04705
1.04151
1.02788
1.00641
0.976647
0.938034
0.89131
0.839217
0.7862
0.737285
0.696731
0.667548
0.652225
0.653345
0.672437
0.708109
0.756102
0.810926
0.867163
0.920013
0.96557
1.0011
1.02528
1.03836
1.04205
1.03906
1.03235
1.02445
1.01707
1.01107
1.00667
1.0037
1.00185
1.00078
1.00022
0.999964
0.999873
0.999862
0.999884
0.999913
0.999941
0.999962
0.999976
0.999986
0.999992
0.999996
0.999998
0.999999
0.999999
1
1
1
1
1
1
1
1
1
1
1
1
1
1
1
1
1
1
1
1
1
1
1
1
1
1
1
1
1
1
1
1
1.00001
1.00001
1.00002
1.00004
1.00006
1.00011
1.00017
1.00027
1.00044
1.00073
1.00121
1.00216
1.00393
1.00695
1.01205
1.0198
1.02955
1.03929
1.04589
1.04591
1.03732
1.02007
0.994509
0.95979
0.914689
0.85968
0.798012
0.735182
0.677338
0.629549
0.59519
0.577099
0.578629
0.601836
0.644721
0.70161
0.76574
0.83099
0.892248
0.945417
0.987577
1.01724
1.03455
1.04118
1.03994
1.03404
1.02629
1.01869
1.01234
1.00757
1.0043
1.00223
1.00102
1.00036
1.00005
0.999919
0.999888
0.999898
0.999921
0.999945
0.999964
0.999978
0.999987
0.999992
0.999996
0.999998
0.999999
0.999999
1
1
1
1
1
1
1
1
1
1
1
1
1
1
1
1
1
1
1
1
1
1
1
1
1
1
1
1
1
1
1
1
1
1.00001
1.00002
1.00003
1.00006
1.0001
1.00016
1.00026
1.00042
1.00073
1.00126
1.0023
1.00431
1.0077
1.01328
1.02166
1.03176
1.04101
1.04627
1.04424
1.03287
1.01223
0.98283
0.943431
0.892024
0.828733
0.757359
0.68458
0.617851
0.563093
0.523868
0.503254
0.505393
0.532849
0.583048
0.648861
0.722116
0.795972
0.865122
0.92542
0.973847
1.00877
1.0302
1.03977
1.04036
1.03535
1.02785
1.02013
1.01349
1.00842
1.00489
1.00261
1.00126
1.00051
1.00014
0.999973
0.99992
0.999917
0.999933
0.999952
0.999968
0.99998
0.999988
0.999993
0.999996
0.999998
0.999999
0.999999
1
1
1
1
1
1
1
1
1
1
1
1
1
1
1
1
1
1
1
1
1
1
1
1
1
1
0.999999
1
1
1
1
1
1
1.00001
1.00001
1.00003
1.00005
1.00008
1.00015
1.00024
1.00039
1.00072
1.00129
1.00241
1.00465
1.00838
1.01436
1.02324
1.03358
1.04223
1.04614
1.04234
1.02858
1.00485
0.971892
0.928257
0.871148
0.800204
0.719693
0.637549
0.56267
0.501804
0.458513
0.435955
0.43872
0.469783
0.526482
0.60056
0.682305
0.763981
0.840146
0.90674
0.96075
1.00044
1.02568
1.03803
1.04039
1.03632
1.02914
1.02137
1.01452
1.00919
1.00543
1.00298
1.00149
1.00066
1.00023
1.00003
0.999958
0.99994
0.999947
0.99996
0.999973
0.999983
0.999989
0.999994
0.999997
0.999998
0.999999
1
1
1
1
1
1
1
1
1
1
1
1
1
1
1
1
1
1
1
1
1
1
1
1
1
1
1
1
1
1
1
1
1
1
1.00001
1.00001
1.00002
1.00004
1.00007
1.00012
1.00021
1.00035
1.00069
1.00131
1.00248
1.00491
1.00897
1.01525
1.02448
1.03501
1.04308
1.04571
1.04044
1.0248
0.998379
0.962166
0.914887
0.853128
0.775885
0.687645
0.597527
0.515901
0.450259
0.404116
0.380382
0.383381
0.416499
0.477896
0.558899
0.648134
0.736606
0.818646
0.890433
0.949088
0.992823
1.02137
1.03619
1.04018
1.03699
1.03015
1.02239
1.01538
1.00985
1.00591
1.00331
1.00172
1.00081
1.00033
1.0001
0.999999
0.999967
0.999963
0.99997
0.999979
0.999986
0.999992
0.999995
0.999997
0.999998
0.999999
1
1
1
1
1
1
1
1
1
1
1
1
1
1
1
1
1
1
1
1
1
1
1
1
1
0.999999
1
1
1
1
1
1
1
1
1
1.00001
1.00002
1.00003
1.00005
1.00009
1.00017
1.0003
1.00063
1.0013
1.00252
1.00506
1.00943
1.01595
1.02536
1.03606
1.04368
1.04516
1.03873
1.0218
0.99323
0.954122
0.903827
0.838783
0.757251
0.663531
0.567619
0.481143
0.412287
0.364632
0.34041
0.342956
0.376067
0.439649
0.525607
0.621001
0.715086
0.801714
0.877394
0.939553
0.98643
1.01763
1.03448
1.03984
1.03742
1.0309
1.02318
1.01607
1.0104
1.00631
1.0036
1.00192
1.00095
1.00043
1.00016
1.00004
0.999996
0.999982
0.999982
0.999986
0.999991
0.999994
0.999996
0.999998
0.999999
0.999999
1
1
1
1
1
1
1
1
1
1
1
1
1
1
1
1
1
1
1
1
1
1
1
1
1
1
1
1
1
1
1
1
1
1
1
1
1.00001
1.00002
1.00003
1.00006
1.00013
1.00025
1.00055
1.00126
1.00252
1.00511
1.00971
1.01644
1.02589
1.0367
1.04413
1.04469
1.03731
1.01971
0.98977
0.948266
0.895513
0.828554
0.745082
0.648766
0.549861
0.460737
0.390209
0.342157
0.317961
0.319512
0.350766
0.413824
0.502215
0.601981
0.700301
0.790144
0.868313
0.9327
0.981679
1.01475
1.03309
1.03948
1.03766
1.03141
1.02374
1.01657
1.01081
1.00663
1.00384
1.0021
1.00108
1.00052
1.00023
1.00009
1.00003
1
0.999995
0.999994
0.999995
0.999997
0.999998
0.999999
0.999999
1
1
1
1
1
1
1
1
1
1
1
1
1
1
1
1
1
1
1
1
1
1
1
1
1
1
1
1
1
1
1
1
1
1
1
1
1
1
1.00001
1.00001
1.00003
1.00008
1.00019
1.00047
1.00117
1.00248
1.00506
1.00978
1.01672
1.0261
1.03693
1.04446
1.04447
1.03631
1.01853
0.988208
0.945123
0.890435
0.822592
0.739323
0.643429
0.54462
0.455188
0.384391
0.336703
0.312932
0.313434
0.341787
0.40206
0.49014
0.591981
0.692822
0.784393
0.863615
0.928902
0.978871
1.01296
1.03217
1.0392
1.03776
1.03168
1.02405
1.01687
1.01107
1.00685
1.00402
1.00224
1.00119
1.0006
1.00029
1.00013
1.00006
1.00002
1.00001
1
1
1
1
1
1
1
1
1
1
1
1
1
1
1
1
1
1
1
1
1
1
1
1
1
1
1
1
1
1
1
1
1
1
1
1
1
1
1
0.999999
0.999999
0.999999
0.999997
0.999994
0.999993
0.999991
0.999993
1.00003
1.00012
1.00037
1.00104
1.00239
1.00492
1.00963
1.01672
1.02605
1.03677
1.0446
1.0446
1.03591
1.01821
0.988493
0.945079
0.889223
0.821121
0.739441
0.646382
0.550455
0.462973
0.393255
0.346544
0.323561
0.323402
0.348801
0.405028
0.490409
0.591763
0.69302
0.784633
0.863436
0.928315
0.978161
1.01238
1.03182
1.03905
1.03774
1.03172
1.02413
1.01697
1.01117
1.00696
1.00412
1.00234
1.00128
1.00068
1.00035
1.00018
1.00009
1.00004
1.00002
1.00001
1.00001
1
1
1
1
1
1
1
1
1
1
1
1
1
1
1
1
1
1
1
1
1
1
1
1
1
1
1
1
1
1
1
1
1
1
1
1
1
0.999999
0.999998
0.999996
0.999994
0.999987
0.999981
0.999969
0.999961
0.999975
1.00005
1.00028
1.00089
1.00222
1.00471
1.00928
1.01641
1.02573
1.03629
1.04447
1.04503
1.03628
1.01877
0.99034
0.948122
0.892453
0.824727
0.745203
0.656228
0.565001
0.481286
0.414083
0.369246
0.347579
0.347366
0.370474
0.42249
0.503525
0.601865
0.701123
0.790847
0.8677
0.930896
0.979555
1.01304
1.03206
1.03904
1.0376
1.03155
1.02397
1.01686
1.01112
1.00696
1.00416
1.0024
1.00134
1.00074
1.0004
1.00021
1.00011
1.00006
1.00003
1.00002
1.00001
1.00001
1
1
1
1
1
1
1
1
1
1
1
1
1
1
1
1
1
1
1
1
1
1
1
1
1
1
1
1
1
1
1
1
1
1
1
0.999999
0.999999
0.999997
0.999995
0.99999
0.999981
0.999968
0.99995
0.999929
0.999928
0.999976
1.00018
1.00073
1.00199
1.00442
1.00879
1.01579
1.02511
1.03557
1.04404
1.04557
1.03747
1.02037
0.993463
0.953734
0.900144
0.834082
0.757176
0.672575
0.586664
0.507833
0.444654
0.40304
0.383513
0.383902
0.405585
0.453849
0.529544
0.622509
0.717144
0.802842
0.876157
0.93645
0.982932
1.01489
1.03286
1.03917
1.03735
1.03114
1.02357
1.01654
1.01092
1.00686
1.00413
1.00242
1.00138
1.00078
1.00044
1.00025
1.00014
1.00008
1.00005
1.00003
1.00001
1.00001
1
1
1
1
1
1
1
1
1
1
1
1
1
1
1
1
1
1
1
1
1
1
1
1
1
1
1
1
1
1
1
1
1
1
1
0.999999
0.999998
0.999997
0.999993
0.999987
0.999975
0.999958
0.999933
0.999901
0.999882
0.999906
1.00007
1.00056
1.00171
1.00402
1.00818
1.01489
1.02411
1.03459
1.04337
1.04599
1.03925
1.02313
0.997828
0.961226
0.911497
0.849113
0.776058
0.696174
0.615638
0.54235
0.484581
0.447445
0.430687
0.432053
0.452875
0.497844
0.567583
0.653145
0.740597
0.820116
0.88836
0.94464
0.988065
1.01776
1.03413
1.03937
1.03695
1.03049
1.02292
1.01602
1.01056
1.00665
1.00404
1.00239
1.00139
1.0008
1.00047
1.00027
1.00016
1.00009
1.00005
1.00003
1.00002
1.00001
1.00001
1
1
1
1
1
1
1
1
1
1
1
1
1
1
1
1
1
1
1
1
1
1
1
1
1
1
1
1
1
1
1
0.999999
1
0.999999
1
0.999998
0.999996
0.999992
0.999984
0.99997
0.999949
0.999919
0.999875
0.999844
0.999844
0.999966
1.0004
1.00142
1.00354
1.00746
1.01379
1.02274
1.03327
1.04248
1.04623
1.04125
1.02688
1.00352
0.970204
0.925349
0.868618
0.801405
0.727424
0.652858
0.586002
0.534698
0.502423
0.488174
0.490233
0.510192
0.551917
0.615212
0.691919
0.770181
0.84173
0.903627
0.95499
0.994632
1.02145
1.03571
1.03955
1.03634
1.02959
1.02203
1.01531
1.01007
1.00635
1.00388
1.00232
1.00138
1.00081
1.00048
1.00029
1.00017
1.00011
1.00006
1.00004
1.00002
1.00001
1.00001
1
1
1
1
1
1
1
1
1
1
1
1
1
1
1
1
1
1
1
1
1
1
1
1
1
1
1
1
1
1
1
1
1
1
0.999999
0.999998
0.999995
0.999991
0.999982
0.999967
0.999942
0.999908
0.999856
0.99981
0.99979
0.999869
1.00022
1.00112
1.00301
1.0066
1.01253
1.02106
1.03152
1.04128
1.04625
1.04319
1.03115
1.01037
0.980537
0.940881
0.890949
0.831354
0.764985
0.697967
0.638979
0.594574
0.566462
0.553768
0.555883
0.574603
0.612732
0.66904
0.73599
0.803884
0.866366
0.921097
0.966924
1.00224
1.02567
1.03742
1.03959
1.03547
1.0284
1.02091
1.01442
1.00945
1.00596
1.00367
1.00222
1.00134
1.00081
1.00049
1.0003
1.00019
1.00011
1.00007
1.00004
1.00002
1.00001
1.00001
1
1
1
1
1
1
1
1
1
1
1
1
1
1
1
1
1
1
1
1
1
1
1
1
1
1
1
1
1
1
1
0.999999
1
0.999999
0.999999
0.999998
0.999994
0.999991
0.999981
0.999964
0.999938
0.9999
0.999842
0.999783
0.999746
0.999786
1.00006
1.00083
1.00247
1.00566
1.01112
1.01915
1.02933
1.03957
1.04594
1.04494
1.03549
1.01779
0.991854
0.957585
0.914798
0.863644
0.806262
0.748668
0.698731
0.660748
0.635676
0.623838
0.625681
0.642801
0.676815
0.725587
0.78231
0.839451
0.89255
0.939836
0.979819
1.01043
1.0301
1.03903
1.03935
1.03427
1.02692
1.01956
1.01337
1.00873
1.00551
1.00341
1.00209
1.00128
1.00079
1.00049
1.00031
1.00019
1.00012
1.00007
1.00004
1.00003
1.00001
1.00001
1
1
1
1
1
1
1
1
1
1
1
1
1
1
1
1
1
1
1
1
1
1
1
1
1
1
1
1
1
1
1
1
1
0.999999
0.999999
0.999998
0.999995
0.99999
0.999981
0.999964
0.999936
0.999894
0.999836
0.999766
0.999712
0.999719
0.999921
1.00054
1.00194
1.00471
1.00959
1.01703
1.02679
1.0373
1.04503
1.0463
1.03963
1.02521
1.00342
0.974686
0.939009
0.896379
0.848734
0.801581
0.760499
0.727859
0.705289
0.694429
0.696078
0.711294
0.740682
0.781559
0.828075
0.874793
0.918883
0.958934
0.993036
1.01873
1.03437
1.04028
1.03869
1.03269
1.02515
1.018
1.01219
1.00793
1.00501
1.00312
1.00193
1.0012
1.00075
1.00048
1.0003
1.00019
1.00012
1.00007
1.00004
1.00003
1.00002
1.00001
1
1
1
1
1
1
1
1
1
1
1
1
1
1
1
1
1
1
1
1
1
1
1
1
1
1
1
1
1
1
1
0.999999
1
0.999999
0.999999
0.999999
0.999994
0.999991
0.999981
0.999963
0.999936
0.999894
0.999832
0.999758
0.99969
0.999668
0.999801
1.00029
1.00144
1.00378
1.00802
1.01474
1.02394
1.03448
1.04334
1.04692
1.04327
1.03224
1.01456
0.991144
0.962225
0.927891
0.890036
0.852774
0.819193
0.79122
0.771588
0.762275
0.763779
0.776734
0.801125
0.834116
0.871016
0.908267
0.944244
0.97759
1.00595
1.02662
1.03808
1.04092
1.03748
1.03069
1.0231
1.01628
1.01092
1.00707
1.00447
1.0028
1.00176
1.00111
1.00071
1.00046
1.00029
1.00019
1.00012
1.00007
1.00004
1.00003
1.00001
1.00001
1
1
1
1
1
1
1
1
1
1
1
1
1
1
1
1
1
1
1
1
1
1
1
1
1
1
1
1
1
1
1
1
1
0.999999
0.999999
0.999998
0.999995
0.99999
0.999981
0.999965
0.999938
0.999895
0.999834
0.999759
0.999679
0.999632
0.999711
1.00007
1.00099
1.00291
1.00649
1.01236
1.02083
1.03114
1.04081
1.04652
1.04597
1.03847
1.02478
1.00619
0.983354
0.956619
0.927526
0.898474
0.871237
0.848154
0.832152
0.824611
0.825768
0.836209
0.855581
0.881194
0.909614
0.938815
0.967852
0.995141
1.01795
1.03356
1.04084
1.04072
1.03562
1.02826
1.0208
1.01444
1.00959
1.00619
1.00392
1.00248
1.00158
1.00101
1.00066
1.00043
1.00028
1.00018
1.00011
1.00007
1.00004
1.00003
1.00001
1.00001
1
1
1
1
1
1
1
1
1
1
1
1
1
1
1
1
1
1
1
1
1
1
1
1
1
1
1
1
1
1
1
0.999999
1
1
0.999999
0.999998
0.999996
0.999992
0.999982
0.999967
0.999942
0.999901
0.999842
0.999765
0.999681
0.999617