/*--------------------------------*- C++ -*----------------------------------*\
  =========                 |
  \\      /  F ield         | OpenFOAM: The Open Source CFD Toolbox
   \\    /   O peration     | Website:  https://openfoam.org
    \\  /    A nd           | Version:  6
     \\/     M anipulation  |
\*---------------------------------------------------------------------------*/
FoamFile
{
    version     2.0;
    format      ascii;
    class       volScalarField;
    location    "4.86";
    object      p;
}
// * * * * * * * * * * * * * * * * * * * * * * * * * * * * * * * * * * * * * //

dimensions      [1 -1 -2 0 0 0 0];

internalField   nonuniform List<scalar> 
5625
(
1.03559
1.03264
1.02813
1.02255
1.01632
1.0098
1.00331
0.997096
0.991338
0.986226
0.981933
0.978583
0.976286
0.97509
0.974994
0.976004
0.978009
0.980688
0.983731
0.986952
0.990056
0.992648
0.994581
0.995963
0.996779
0.996935
0.996614
0.996103
0.995429
0.994612
0.993897
0.993437
0.99316
0.993098
0.99339
0.993952
0.994539
0.995055
0.995505
0.995715
0.995368
0.994294
0.992554
0.990266
0.987476
0.984269
0.980917
0.977864
0.975544
0.974198
0.973841
0.974365
0.975688
0.977848
0.980998
0.98533
0.990956
0.997799
1.00553
1.01356
1.02113
1.02742
1.03178
1.03386
1.03366
1.03156
1.02811
1.02394
1.01961
1.01553
1.01194
1.00895
1.00656
1.00472
1.00335
1.0362
1.03404
1.03015
1.02504
1.01913
1.01282
1.00642
1.00017
0.994292
0.988975
0.984353
0.980557
0.97772
0.9759
0.975119
0.975402
0.97665
0.97866
0.981273
0.984286
0.987313
0.990028
0.992403
0.994433
0.995928
0.99683
0.997354
0.997609
0.997531
0.997244
0.996993
0.996799
0.996591
0.996475
0.996533
0.99662
0.996575
0.996405
0.996097
0.995449
0.994227
0.992404
0.99012
0.987494
0.984573
0.981474
0.978491
0.976027
0.974412
0.973779
0.974073
0.975172
0.977019
0.979682
0.983328
0.988132
0.994157
1.00126
1.00904
1.01685
1.02391
1.02947
1.03297
1.03417
1.03321
1.03055
1.02677
1.02249
1.01821
1.01428
1.01088
1.0081
1.00591
1.00424
1.003
1.03649
1.03518
1.03201
1.02744
1.02194
1.01589
1.00964
1.00342
0.997459
0.991967
0.98708
0.982917
0.979585
0.977175
0.975768
0.975355
0.975823
0.977096
0.979128
0.981679
0.984384
0.987065
0.989687
0.992057
0.99394
0.995375
0.9965
0.997269
0.99766
0.997866
0.998004
0.997987
0.997822
0.997657
0.997494
0.997171
0.996632
0.995941
0.995045
0.993743
0.991918
0.989663
0.987149
0.984468
0.98167
0.978899
0.976453
0.974676
0.973802
0.973871
0.974783
0.976422
0.978764
0.981909
0.98603
0.991273
0.997645
1.00493
1.01265
1.02012
1.02656
1.03129
1.03386
1.03417
1.03249
1.02933
1.0253
1.02096
1.01678
1.01303
1.00985
1.00729
1.00529
1.00378
1.00266
1.03639
1.036
1.03363
1.02971
1.02468
1.01898
1.01293
1.00679
1.00082
0.995203
0.990093
0.985617
0.98187
0.978953
0.976944
0.975828
0.975558
0.976149
0.977525
0.979432
0.981653
0.984127
0.986699
0.98906
0.991078
0.992845
0.994341
0.995445
0.996211
0.996789
0.99715
0.997219
0.9971
0.996909
0.996562
0.995934
0.995062
0.994016
0.992711
0.990991
0.988854
0.986469
0.983996
0.981496
0.979023
0.976745
0.974948
0.973909
0.973771
0.974503
0.975985
0.978122
0.980928
0.98453
0.989098
0.99474
1.00139
1.00876
1.0163
1.0233
1.029
1.0328
1.0344
1.03385
1.0315
1.02791
1.0237
1.01938
1.01533
1.01179
1.00885
1.0065
1.0047
1.00334
1.00235
1.03585
1.03644
1.03496
1.03177
1.02732
1.02203
1.01625
1.01027
1.00434
0.998663
0.993385
0.988638
0.984541
0.981198
0.978641
0.97687
0.975942
0.975884
0.976541
0.977718
0.979367
0.98143
0.983651
0.985781
0.987807
0.989725
0.991361
0.99262
0.993609
0.994379
0.994833
0.994969
0.994917
0.994702
0.994205
0.993385
0.992333
0.991085
0.989545
0.987642
0.98547
0.983214
0.980996
0.978853
0.97685
0.975172
0.974082
0.973787
0.974348
0.975685
0.977679
0.98027
0.983509
0.987544
0.992526
0.998513
1.00537
1.0127
1.01993
1.0263
1.03114
1.03395
1.03457
1.03318
1.03023
1.02631
1.022
1.01775
1.01389
1.01059
1.00789
1.00576
1.00414
1.00294
1.00206
1.03485
1.03644
1.03592
1.03355
1.02977
1.02498
1.01956
1.0138
1.00799
1.00231
0.996919
0.991969
0.987595
0.983874
0.980825
0.978508
0.977002
0.976266
0.97616
0.976641
0.977728
0.979257
0.98096
0.982741
0.984599
0.986386
0.987916
0.989194
0.990288
0.991124
0.991606
0.991803
0.991799
0.991539
0.990933
0.990032
0.988936
0.987633
0.986039
0.98417
0.982183
0.980244
0.978425
0.976752
0.97531
0.974293
0.973923
0.974339
0.975536
0.97741
0.979859
0.982861
0.986504
0.99094
0.996294
1.00256
1.0095
1.01668
1.02343
1.02904
1.03291
1.03467
1.03432
1.03216
1.02871
1.02455
1.02022
1.01612
1.01248
1.00943
1.00697
1.00507
1.00363
1.00257
1.0018
1.03335
1.03594
1.03643
1.03498
1.03197
1.02778
1.02279
1.01734
1.01171
1.00609
1.00066
0.995587
0.990997
0.986943
0.983478
0.980708
0.978667
0.977278
0.976504
0.976392
0.976875
0.97774
0.978854
0.980214
0.981725
0.983181
0.984489
0.985695
0.986751
0.987514
0.98796
0.988183
0.988189
0.987884
0.987252
0.986392
0.985366
0.984127
0.982635
0.980984
0.979343
0.977837
0.976497
0.975352
0.974513
0.97417
0.974497
0.975566
0.977324
0.979664
0.98251
0.985883
0.989898
0.994702
1.00037
1.00682
1.01374
1.0206
1.02671
1.03142
1.03423
1.03493
1.03365
1.03081
1.02697
1.02267
1.01841
1.01449
1.01111
1.00832
1.00612
1.00442
1.00315
1.00223
1.00156
1.03137
1.03488
1.03642
1.03598
1.03383
1.03033
1.02589
1.02084
1.01546
1.00997
1.00458
0.999453
0.99469
0.990364
0.986586
0.98344
0.980905
0.978948
0.977622
0.976938
0.976756
0.976946
0.977504
0.978401
0.979459
0.980515
0.981555
0.982567
0.98342
0.984019
0.984405
0.984626
0.984614
0.98429
0.983703
0.982955
0.982062
0.980974
0.97971
0.978403
0.977204
0.976182
0.97535
0.974752
0.974522
0.974831
0.975802
0.977446
0.979683
0.982416
0.985607
0.989317
0.993676
0.998804
1.00472
1.01124
1.01798
1.02434
1.02966
1.03335
1.03503
1.03468
1.03256
1.02916
1.02503
1.02071
1.01658
1.0129
1.0098
1.00728
1.00532
1.00383
1.00272
1.00192
1.00135
1.02895
1.03326
1.03583
1.03644
1.03525
1.03257
1.02877
1.02421
1.01916
1.01389
1.00862
1.0035
0.998629
0.994128
0.990125
0.986648
0.983675
0.981251
0.97944
0.978194
0.977398
0.977024
0.977083
0.977463
0.977995
0.978618
0.979335
0.980054
0.980644
0.981075
0.98139
0.98156
0.981497
0.981182
0.980696
0.980101
0.979377
0.978502
0.977545
0.976645
0.975912
0.975379
0.975053
0.975001
0.97536
0.976273
0.977811
0.979941
0.982573
0.985635
0.989128
0.993142
0.997807
1.0032
1.00926
1.01573
1.02211
1.0278
1.03216
1.03472
1.03527
1.03393
1.03107
1.02724
1.02296
1.0187
1.01478
1.01138
1.00856
1.00632
1.00459
1.00329
1.00233
1.00164
1.00115
1.02618
1.03109
1.03461
1.03631
1.03615
1.03438
1.03134
1.02736
1.02276
1.0178
1.01272
1.00766
1.00278
0.998203
0.994016
0.990242
0.986927
0.984153
0.981927
0.980169
0.978848
0.977991
0.977547
0.977379
0.977404
0.977627
0.978002
0.97839
0.978703
0.978959
0.979162
0.979236
0.979119
0.978848
0.978495
0.978069
0.977535
0.976911
0.976303
0.975831
0.975555
0.975482
0.975633
0.976098
0.977004
0.978457
0.980477
0.983005
0.985955
0.989286
0.993041
0.997328
1.00225
1.00784
1.01392
1.02016
1.026
1.03083
1.0341
1.03547
1.03491
1.03268
1.02923
1.0251
1.02079
1.01669
1.01303
1.00993
1.00741
1.00543
1.00392
1.0028
1.00198
1.0014
1.00098
1.02316
1.02845
1.03276
1.03549
1.03643
1.03568
1.0335
1.03022
1.02616
1.02162
1.0168
1.0119
1.00709
1.00249
0.998179
0.994203
0.990662
0.987607
0.984997
0.982797
0.981046
0.979753
0.978827
0.978175
0.977788
0.977645
0.977646
0.977683
0.977738
0.977824
0.977891
0.977857
0.977706
0.977497
0.977271
0.977002
0.976667
0.976319
0.97607
0.976004
0.976142
0.976487
0.977078
0.978018
0.979415
0.981329
0.98374
0.986577
0.989775
0.993331
0.997316
1.00184
1.00696
1.01263
1.01858
1.0244
1.02949
1.03329
1.03537
1.03554
1.03395
1.03096
1.02708
1.02282
1.01859
1.01472
1.01136
1.00857
1.00635
1.00463
1.00333
1.00237
1.00167
1.00118
1.00083
1.02005
1.02542
1.03031
1.03398
1.03601
1.03634
1.03512
1.03266
1.02927
1.02523
1.02078
1.01614
1.01148
1.00693
1.00257
0.9985
0.994804
0.991493
0.988557
0.98603
0.98395
0.982275
0.980927
0.979872
0.979117
0.978609
0.978246
0.977976
0.97781
0.977725
0.977644
0.977514
0.977357
0.977216
0.977092
0.976958
0.976822
0.976755
0.976845
0.97714
0.977642
0.978359
0.979349
0.98071
0.982525
0.984813
0.987526
0.990596
0.993987
0.997729
1.00191
1.00661
1.01185
1.01746
1.0231
1.02828
1.03242
1.03505
1.03589
1.03492
1.03243
1.02886
1.02471
1.02045
1.01641
1.01283
1.00979
1.00733
1.00539
1.0039
1.0028
1.00199
1.0014
1.00099
1.0007
1.017
1.02218
1.02736
1.03177
1.03483
1.03626
1.03611
1.03458
1.03196
1.02854
1.02457
1.02028
1.01586
1.01144
1.00713
1.00304
0.99924
0.995743
0.992595
0.989845
0.987486
0.985462
0.983752
0.982374
0.981304
0.980462
0.979786
0.979269
0.978908
0.978646
0.978416
0.978208
0.978059
0.977983
0.977948
0.977938
0.977993
0.978189
0.978584
0.979188
0.979996
0.981036
0.982377
0.984103
0.986261
0.988833
0.991764
0.994998
0.998534
1.00243
1.00677
1.01158
1.0168
1.02218
1.02729
1.03161
1.03464
1.03601
1.03562
1.03363
1.03041
1.02645
1.0222
1.01806
1.0143
1.01104
1.00835
1.0062
1.00453
1.00327
1.00233
1.00166
1.00117
1.00083
1.00059
1.01416
1.01891
1.02406
1.02895
1.03287
1.03538
1.03634
1.03584
1.03412
1.03143
1.02805
1.02423
1.02014
1.01593
1.01176
1.00773
1.0039
1.00032
0.997047
0.994117
0.991513
0.98922
0.987253
0.985621
0.984272
0.983143
0.982217
0.981499
0.980956
0.980523
0.980172
0.97992
0.979783
0.979746
0.979781
0.979891
0.980131
0.980561
0.981207
0.982061
0.983126
0.984444
0.986086
0.988111
0.990529
0.993302
0.996375
0.999721
1.00337
1.00738
1.01181
1.01663
1.02168
1.02661
1.03095
1.03421
1.03599
1.03609
1.03457
1.03173
1.02799
1.02382
1.01964
1.01573
1.01229
1.00939
1.00704
1.00519
1.00377
1.00271
1.00193
1.00137
1.00097
1.00069
1.00049
1.01162
1.01579
1.02063
1.02565
1.03019
1.03366
1.03572
1.03633
1.0356
1.03377
1.03111
1.02784
1.02419
1.02031
1.01638
1.01248
1.0087
1.00512
1.00179
0.998739
0.995974
0.993509
0.99136
0.989511
0.987921
0.986566
0.985451
0.984563
0.983859
0.983291
0.982854
0.982567
0.982431
0.982418
0.982513
0.982742
0.983152
0.983775
0.984615
0.985665
0.986942
0.988495
0.990383
0.992635
0.995232
0.998129
1.00129
1.0047
1.00842
1.01249
1.01693
1.02161
1.02628
1.03052
1.03387
1.03592
1.03639
1.03529
1.0328
1.02931
1.02527
1.02109
1.0171
1.01351
1.01043
1.00789
1.00587
1.0043
1.00311
1.00223
1.00159
1.00112
1.0008
1.00057
1.00041
1.00941
1.01296
1.01728
1.0221
1.02692
1.03111
1.03419
1.03591
1.03626
1.03542
1.03358
1.031
1.0279
1.02446
1.02085
1.01717
1.01353
1.01003
1.00673
1.00363
1.00078
0.998215
0.995936
0.99392
0.992152
0.990641
0.989385
0.988356
0.987512
0.986837
0.986344
0.986037
0.985899
0.985903
0.986054
0.986386
0.986935
0.987707
0.988695
0.989898
0.991348
0.993091
0.995165
0.997569
1.00027
1.00322
1.00641
1.00986
1.01361
1.01767
1.02197
1.02632
1.03036
1.03367
1.03585
1.03659
1.03581
1.03365
1.03042
1.02653
1.02239
1.01836
1.01466
1.01143
1.00874
1.00655
1.00484
1.00352
1.00254
1.00181
1.00129
1.00092
1.00065
1.00047
1.00034
1.00753
1.01048
1.0142
1.01858
1.02331
1.02788
1.03175
1.03451
1.03598
1.03621
1.03533
1.03356
1.03113
1.02823
1.02504
1.02168
1.01829
1.01496
1.01173
1.00868
1.00582
1.00322
1.00085
0.998738
0.996871
0.99526
0.993895
0.992747
0.991801
0.991061
0.990535
0.990209
0.990059
0.990077
0.990283
0.990705
0.991359
0.992237
0.993331
0.994654
0.996239
0.998122
1.00032
1.0028
1.00554
1.0085
1.01168
1.01512
1.01882
1.02274
1.02673
1.03049
1.03366
1.03584
1.03672
1.03618
1.03428
1.03129
1.02757
1.02352
1.01948
1.01571
1.01238
1.00955
1.00723
1.00538
1.00395
1.00286
1.00206
1.00147
1.00104
1.00074
1.00053
1.00038
1.00028
1.00596
1.00837
1.01147
1.01527
1.01964
1.02422
1.02854
1.03214
1.03467
1.036
1.03617
1.03534
1.03371
1.03148
1.02882
1.0259
1.02284
1.01974
1.01669
1.01375
1.01098
1.00839
1.00601
1.00386
1.00194
1.00027
0.998838
0.997619
0.996616
0.995836
0.995281
0.994934
0.994779
0.99482
0.995077
0.995567
0.996288
0.997234
0.998403
0.999815
1.0015
1.00347
1.00572
1.00822
1.01093
1.01385
1.01699
1.02034
1.02388
1.02748
1.03091
1.03384
1.03592
1.03683
1.03643
1.03473
1.03194
1.02839
1.02444
1.02044
1.01664
1.01323
1.0103
1.00787
1.0059
1.00436
1.00319
1.0023
1.00165
1.00118
1.00084
1.0006
1.00043
1.00031
1.00023
1.00466
1.00661
1.00914
1.01233
1.01615
1.02044
1.02484
1.02893
1.0323
1.03467
1.03594
1.03616
1.03546
1.03402
1.03202
1.02964
1.02702
1.02426
1.02148
1.01873
1.0161
1.0136
1.01127
1.00915
1.00724
1.00555
1.00408
1.00283
1.00181
1.00102
1.00045
1.00009
0.99993
0.999994
1.00029
1.00083
1.00159
1.00258
1.0038
1.00527
1.007
1.009
1.01125
1.0137
1.01635
1.01918
1.02219
1.02535
1.02855
1.0316
1.03422
1.03609
1.03693
1.03657
1.03499
1.03236
1.02897
1.02514
1.0212
1.01742
1.01397
1.01097
1.00845
1.0064
1.00476
1.0035
1.00254
1.00183
1.00131
1.00094
1.00067
1.00048
1.00035
1.00026
1.00019
1.0036
1.00516
1.0072
1.00981
1.01303
1.01682
1.02098
1.02518
1.02905
1.03225
1.03454
1.03583
1.03615
1.03564
1.03445
1.03274
1.03067
1.02836
1.02594
1.02347
1.02105
1.01871
1.01651
1.01447
1.01261
1.01095
1.0095
1.00826
1.00725
1.00646
1.00588
1.00552
1.00538
1.00547
1.0058
1.00636
1.00714
1.00815
1.00939
1.01088
1.01262
1.01459
1.01677
1.01913
1.02165
1.02431
1.02708
1.02987
1.03251
1.03476
1.03635
1.03702
1.0366
1.03508
1.03257
1.0293
1.0256
1.02175
1.01801
1.01457
1.01154
1.00896
1.00684
1.00513
1.0038
1.00278
1.00201
1.00144
1.00103
1.00074
1.00053
1.00038
1.00028
1.00021
1.00016
1.00276
1.00398
1.0056
1.0077
1.01034
1.01355
1.01724
1.02124
1.02524
1.02893
1.032
1.03426
1.03561
1.03611
1.03584
1.03495
1.03356
1.03183
1.02987
1.0278
1.02568
1.02358
1.02157
1.01967
1.01792
1.01634
1.01495
1.01376
1.01278
1.01201
1.01145
1.01111
1.01099
1.0111
1.01144
1.012
1.01279
1.01379
1.01503
1.0165
1.01819
1.02007
1.02212
1.02432
1.02662
1.02899
1.03135
1.03355
1.03539
1.03663
1.03706
1.03652
1.03498
1.03253
1.02939
1.02581
1.02207
1.0184
1.015
1.01197
1.00937
1.00721
1.00546
1.00407
1.00299
1.00218
1.00157
1.00113
1.00081
1.00058
1.00042
1.0003
1.00022
1.00017
1.00013
1.00209
1.00304
1.00431
1.00598
1.0081
1.01073
1.01386
1.01743
1.02124
1.02504
1.02855
1.03153
1.0338
1.03528
1.03599
1.036
1.03544
1.03441
1.03305
1.03148
1.02977
1.02801
1.02626
1.02458
1.023
1.02156
1.02028
1.01917
1.01825
1.01753
1.01701
1.0167
1.0166
1.01673
1.01707
1.01763
1.01839
1.01936
1.02055
1.02195
1.02353
1.02526
1.0271
1.02903
1.03099
1.0329
1.03463
1.03603
1.03688
1.03701
1.03629
1.03468
1.03226
1.02921
1.02575
1.02214
1.01858
1.01526
1.01227
1.00968
1.0075
1.00572
1.0043
1.00318
1.00233
1.00169
1.00121
1.00087
1.00062
1.00045
1.00033
1.00024
1.00018
1.00014
1.0001
1.00156
1.00229
1.00328
1.00459
1.00627
1.00838
1.01095
1.01398
1.01738
1.02098
1.02457
1.02792
1.03083
1.03313
1.03476
1.0357
1.03603
1.03583
1.03519
1.03423
1.03305
1.03174
1.03036
1.02898
1.02764
1.0264
1.02528
1.0243
1.02348
1.02283
1.02237
1.0221
1.02203
1.02216
1.02249
1.02302
1.02374
1.02466
1.02575
1.027
1.02839
1.02987
1.0314
1.03293
1.03437
1.03563
1.03656
1.037
1.0368
1.03585
1.03414
1.03172
1.02876
1.02543
1.02196
1.01853
1.01531
1.0124
1.00986
1.0077
1.00591
1.00447
1.00334
1.00246
1.00179
1.00129
1.00093
1.00067
1.00048
1.00035
1.00025
1.00019
1.00014
1.00011
1.00008
1.00115
1.00171
1.00247
1.00348
1.00479
1.00646
1.00852
1.01101
1.01388
1.01709
1.02047
1.02386
1.02705
1.02988
1.03222
1.03399
1.03518
1.03582
1.03599
1.03575
1.03521
1.03445
1.03355
1.03256
1.03156
1.03059
1.02969
1.02889
1.02821
1.02767
1.02729
1.02708
1.02704
1.02717
1.02747
1.02794
1.02858
1.02938
1.03031
1.03134
1.03243
1.03355
1.03464
1.03562
1.03639
1.03685
1.03687
1.03633
1.03515
1.03333
1.03091
1.02802
1.02483
1.02152
1.01826
1.01517
1.01237
1.0099
1.00779
1.00603
1.0046
1.00345
1.00256
1.00188
1.00136
1.00098
1.0007
1.00051
1.00036
1.00027
1.0002
1.00015
1.00011
1.00009
1.00007
1.00084
1.00126
1.00184
1.00262
1.00362
1.00492
1.00654
1.00853
1.01089
1.01359
1.01658
1.01973
1.0229
1.02592
1.02867
1.03103
1.03292
1.03433
1.03528
1.0358
1.03596
1.03583
1.03548
1.03499
1.03441
1.03379
1.03317
1.03261
1.03212
1.03173
1.03145
1.0313
1.03129
1.03141
1.03167
1.03205
1.03256
1.03316
1.03384
1.03456
1.03527
1.03592
1.03644
1.03675
1.03676
1.03638
1.03552
1.03413
1.0322
1.02979
1.027
1.02396
1.02083
1.01775
1.01483
1.01217
1.00981
1.00777
1.00606
1.00465
1.00352
1.00263
1.00194
1.00141
1.00102
1.00073
1.00053
1.00038
1.00028
1.0002
1.00015
1.00011
1.00009
1.00007
1.00006
1.0006
1.00092
1.00135
1.00194
1.00271
1.00371
1.00497
1.00653
1.00841
1.01062
1.01312
1.01587
1.01878
1.02171
1.02456
1.0272
1.02953
1.03151
1.03309
1.03429
1.03513
1.03564
1.03589
1.03594
1.03583
1.03563
1.03536
1.03509
1.03483
1.03461
1.03446
1.03439
1.0344
1.0345
1.03468
1.03494
1.03527
1.03562
1.03598
1.0363
1.03654
1.03664
1.03654
1.03615
1.03543
1.0343
1.03274
1.03074
1.02837
1.02569
1.02283
1.0199
1.01703
1.0143
1.0118
1.00957
1.00764
1.006
1.00464
1.00354
1.00266
1.00197
1.00144
1.00105
1.00075
1.00054
1.00039
1.00028
1.00021
1.00015
1.00012
1.00009
1.00007
1.00006
1.00004
1.00043
1.00067
1.00099
1.00143
1.00201
1.00277
1.00373
1.00493
1.0064
1.00816
1.01019
1.01248
1.01499
1.01764
1.02033
1.02296
1.02546
1.02773
1.02973
1.03142
1.03279
1.03387
1.03468
1.03525
1.03562
1.03584
1.03595
1.03599
1.03599
1.03598
1.03596
1.03597
1.036
1.03606
1.03615
1.03625
1.03635
1.03642
1.03642
1.03631
1.03606
1.03561
1.03492
1.03393
1.03261
1.03094
1.02893
1.02663
1.02411
1.02144
1.01874
1.0161
1.01359
1.01128
1.00921
1.0074
1.00585
1.00456
1.0035
1.00265
1.00197
1.00145
1.00106
1.00077
1.00055
1.0004
1.00028
1.00021
1.00015
1.00012
1.00009
1.00007
1.00005
1.00004
1.00004
1.0003
1.00047
1.00071
1.00104
1.00148
1.00204
1.00277
1.00369
1.00482
1.00618
1.00779
1.00964
1.01171
1.01396
1.01634
1.01876
1.02117
1.02348
1.02564
1.02759
1.0293
1.03077
1.032
1.03299
1.03378
1.03439
1.03485
1.03519
1.03544
1.03561
1.03573
1.03581
1.03587
1.03589
1.03587
1.0358
1.03566
1.03543
1.03509
1.03459
1.03391
1.03301
1.03186
1.03044
1.02875
1.02679
1.02462
1.02228
1.01985
1.01739
1.015
1.01272
1.01062
1.00873
1.00706
1.00562
1.00441
1.00341
1.00259
1.00195
1.00144
1.00106
1.00077
1.00055
1.0004
1.00028
1.00021
1.00015
1.00011
1.00009
1.00007
1.00005
1.00004
1.00003
1.00003
1.00021
1.00034
1.00051
1.00075
1.00107
1.0015
1.00204
1.00273
1.00359
1.00463
1.00587
1.00733
1.00898
1.01082
1.01281
1.01491
1.01707
1.01922
1.02131
1.0233
1.02514
1.02679
1.02826
1.02952
1.0306
1.03149
1.03222
1.0328
1.03325
1.03359
1.03382
1.03396
1.03402
1.03399
1.03388
1.03366
1.03332
1.03285
1.03223
1.03143
1.03044
1.02924
1.02783
1.02619
1.02436
1.02237
1.02025
1.01807
1.01589
1.01376
1.01173
1.00984
1.00814
1.00663
1.00531
1.0042
1.00327
1.0025
1.00189
1.00141
1.00104
1.00075
1.00054
1.00039
1.00028
1.0002
1.00015
1.00011
1.00008
1.00006
1.00005
1.00004
1.00003
1.00003
1.00002
1.00015
1.00024
1.00037
1.00054
1.00078
1.00109
1.00149
1.002
1.00265
1.00343
1.00438
1.00549
1.00678
1.00824
1.00985
1.01158
1.01341
1.01529
1.01717
1.01902
1.02079
1.02244
1.02397
1.02534
1.02654
1.02759
1.02848
1.0292
1.02978
1.03022
1.03054
1.03072
1.03078
1.03072
1.03052
1.03019
1.02972
1.02909
1.0283
1.02734
1.02619
1.02487
1.02337
1.02173
1.01995
1.01809
1.01618
1.01427
1.01241
1.01063
1.00898
1.00747
1.00612
1.00494
1.00393
1.00308
1.00238
1.00181
1.00135
1.001
1.00073
1.00053
1.00038
1.00027
1.00019
1.00014
1.0001
1.00008
1.00006
1.00005
1.00004
1.00003
1.00002
1.00002
1.00002
1.0001
1.00017
1.00026
1.00039
1.00056
1.00079
1.00108
1.00146
1.00193
1.00252
1.00323
1.00407
1.00506
1.00618
1.00745
1.00883
1.01031
1.01187
1.01347
1.01508
1.01666
1.01818
1.01962
1.02095
1.02215
1.02322
1.02415
1.02493
1.02556
1.02605
1.02639
1.02659
1.02665
1.02656
1.02633
1.02594
1.0254
1.02471
1.02386
1.02285
1.02169
1.02039
1.01897
1.01745
1.01586
1.01423
1.0126
1.01101
1.00948
1.00805
1.00674
1.00556
1.00452
1.00362
1.00286
1.00222
1.0017
1.00128
1.00095
1.00069
1.0005
1.00036
1.00026
1.00018
1.00013
1.00009
1.00007
1.00005
1.00004
1.00003
1.00003
1.00002
1.00002
1.00002
1.00001
1.00007
1.00012
1.00019
1.00028
1.0004
1.00056
1.00078
1.00106
1.0014
1.00183
1.00236
1.00299
1.00373
1.00458
1.00555
1.00662
1.00779
1.00903
1.01033
1.01167
1.013
1.01431
1.01558
1.01677
1.01788
1.01887
1.01975
1.0205
1.02112
1.0216
1.02194
1.02213
1.02218
1.02208
1.02184
1.02145
1.02091
1.02022
1.0194
1.01845
1.01738
1.01621
1.01495
1.01363
1.01228
1.01092
1.00959
1.00831
1.0071
1.00598
1.00497
1.00407
1.00328
1.0026
1.00204
1.00157
1.00119
1.00089
1.00065
1.00047
1.00034
1.00024
1.00017
1.00012
1.00008
1.00006
1.00005
1.00004
1.00003
1.00002
1.00002
1.00002
1.00001
1.00001
1.00001
1.00005
1.00009
1.00014
1.0002
1.00029
1.00041
1.00056
1.00076
1.00101
1.00133
1.00171
1.00217
1.00272
1.00336
1.00408
1.0049
1.00579
1.00676
1.00778
1.00884
1.00992
1.011
1.01206
1.01307
1.01402
1.01489
1.01566
1.01633
1.01688
1.01732
1.01762
1.0178
1.01783
1.01774
1.01751
1.01714
1.01665
1.01604
1.0153
1.01446
1.01354
1.01254
1.01148
1.01039
1.00929
1.0082
1.00715
1.00615
1.00521
1.00436
1.00359
1.00292
1.00233
1.00183
1.00142
1.00108
1.00081
1.0006
1.00043
1.00031
1.00022
1.00015
1.0001
1.00007
1.00005
1.00004
1.00003
1.00002
1.00002
1.00002
1.00001
1.00001
1.00001
1.00001
1.00001
1.00004
1.00006
1.0001
1.00015
1.00021
1.00029
1.0004
1.00055
1.00073
1.00096
1.00123
1.00157
1.00197
1.00244
1.00298
1.00358
1.00426
1.00499
1.00577
1.00659
1.00744
1.00829
1.00913
1.00995
1.01073
1.01144
1.01209
1.01266
1.01313
1.01349
1.01375
1.0139
1.01393
1.01384
1.01363
1.01332
1.01289
1.01237
1.01175
1.01105
1.01028
1.00947
1.00861
1.00775
1.00688
1.00603
1.00522
1.00446
1.00375
1.00311
1.00254
1.00205
1.00162
1.00126
1.00097
1.00073
1.00053
1.00039
1.00027
1.00019
1.00013
1.00009
1.00006
1.00004
1.00003
1.00002
1.00002
1.00001
1.00001
1.00001
1.00001
1.00001
1.00001
1.00001
1.00001
1.00003
1.00005
1.00007
1.00011
1.00015
1.00022
1.00029
1.00039
1.00052
1.00069
1.00089
1.00113
1.00142
1.00176
1.00215
1.00259
1.00309
1.00364
1.00422
1.00484
1.00548
1.00614
1.00679
1.00743
1.00804
1.00861
1.00913
1.00958
1.00996
1.01026
1.01047
1.01058
1.0106
1.01053
1.01036
1.01009
1.00974
1.00931
1.00881
1.00825
1.00764
1.007
1.00633
1.00566
1.005
1.00435
1.00374
1.00317
1.00265
1.00218
1.00176
1.0014
1.0011
1.00084
1.00064
1.00047
1.00034
1.00024
1.00017
1.00011
1.00007
1.00005
1.00003
1.00002
1.00001
1.00001
1.00001
1.00001
1.00001
1.00001
1.00001
1.00001
1.00001
1.00001
1
1.00002
1.00004
1.00005
1.00008
1.00011
1.00016
1.00021
1.00029
1.00038
1.00049
1.00064
1.00081
1.00102
1.00126
1.00154
1.00187
1.00223
1.00262
1.00305
1.00351
1.00399
1.00448
1.00497
1.00546
1.00592
1.00636
1.00676
1.00711
1.0074
1.00763
1.0078
1.00788
1.0079
1.00783
1.00769
1.00748
1.0072
1.00687
1.00647
1.00603
1.00556
1.00507
1.00456
1.00405
1.00356
1.00308
1.00262
1.00221
1.00183
1.00149
1.00119
1.00094
1.00072
1.00054
1.0004
1.00029
1.0002
1.00014
1.00009
1.00006
1.00004
1.00002
1.00001
1.00001
1.00001
1
1
1
1
1
1
1
1
1
1
1.00002
1.00003
1.00004
1.00006
1.00009
1.00012
1.00016
1.00021
1.00028
1.00036
1.00046
1.00058
1.00073
1.0009
1.0011
1.00133
1.00159
1.00188
1.00219
1.00252
1.00287
1.00323
1.00359
1.00395
1.0043
1.00462
1.00492
1.00519
1.00541
1.00558
1.0057
1.00576
1.00577
1.00571
1.0056
1.00544
1.00522
1.00496
1.00466
1.00433
1.00397
1.0036
1.00322
1.00284
1.00248
1.00213
1.0018
1.0015
1.00123
1.00099
1.00078
1.0006
1.00046
1.00034
1.00024
1.00017
1.00011
1.00007
1.00004
1.00002
1.00001
1
1
0.999999
0.999999
1
1
1
1
1
1
1
1
1
1
1.00002
1.00002
1.00003
1.00005
1.00007
1.00009
1.00012
1.00016
1.0002
1.00026
1.00033
1.00042
1.00052
1.00065
1.00079
1.00095
1.00113
1.00133
1.00155
1.00179
1.00204
1.0023
1.00256
1.00282
1.00308
1.00331
1.00353
1.00372
1.00388
1.00401
1.00409
1.00414
1.00414
1.00409
1.00401
1.00388
1.00371
1.00352
1.00329
1.00304
1.00278
1.0025
1.00223
1.00195
1.00169
1.00144
1.0012
1.00099
1.0008
1.00063
1.00049
1.00037
1.00027
1.00019
1.00013
1.00008
1.00005
1.00003
1.00001
1
0.999996
0.999994
0.999993
0.999994
0.999996
0.999997
0.999998
1
1
1
1
1
1
1
1
1.00001
1.00002
1.00003
1.00004
1.00005
1.00007
1.00009
1.00012
1.00015
1.00019
1.00025
1.00031
1.00038
1.00046
1.00056
1.00068
1.0008
1.00094
1.0011
1.00127
1.00144
1.00163
1.00181
1.00199
1.00217
1.00234
1.0025
1.00263
1.00275
1.00284
1.00289
1.00292
1.00292
1.00288
1.00281
1.00272
1.0026
1.00245
1.00228
1.0021
1.0019
1.0017
1.00151
1.00131
1.00112
1.00094
1.00078
1.00063
1.0005
1.00039
1.00029
1.00021
1.00015
1.0001
1.00006
1.00003
1.00001
1
0.999992
0.999988
0.999987
0.999987
0.999989
0.999991
0.999993
0.999996
0.999997
0.999999
1
1
1
1
1
1
1
1.00001
1.00002
1.00002
1.00003
1.00004
1.00005
1.00007
1.00009
1.00012
1.00015
1.00018
1.00022
1.00028
1.00033
1.0004
1.00048
1.00057
1.00067
1.00078
1.00089
1.00101
1.00114
1.00127
1.0014
1.00152
1.00164
1.00175
1.00184
1.00192
1.00198
1.00201
1.00203
1.00203
1.002
1.00194
1.00187
1.00178
1.00167
1.00155
1.00141
1.00128
1.00113
1.00099
1.00085
1.00072
1.0006
1.00048
1.00038
1.0003
1.00022
1.00016
1.00011
1.00007
1.00004
1.00001
0.999998
0.999988
0.999983
0.999981
0.999981
0.999983
0.999985
0.999988
0.99999
0.999993
0.999995
0.999997
0.999998
0.999999
1
1
1
1
1
1
1.00001
1.00001
1.00002
1.00003
1.00003
1.00004
1.00006
1.00007
1.00009
1.00011
1.00014
1.00017
1.0002
1.00024
1.00029
1.00034
1.00041
1.00047
1.00055
1.00063
1.00071
1.0008
1.00088
1.00097
1.00106
1.00113
1.00121
1.00127
1.00132
1.00136
1.00138
1.00139
1.00138
1.00136
1.00132
1.00126
1.00119
1.00111
1.00102
1.00093
1.00083
1.00073
1.00063
1.00054
1.00044
1.00036
1.00029
1.00022
1.00016
1.00011
1.00007
1.00004
1.00002
0.999999
0.999988
0.999981
0.999977
0.999976
0.999976
0.999978
0.999981
0.999984
0.999987
0.99999
0.999993
0.999995
0.999997
0.999998
0.999999
1
1
1
1
1
1
1.00001
1.00001
1.00001
1.00002
1.00003
1.00003
1.00004
1.00006
1.00007
1.00009
1.00011
1.00013
1.00015
1.00018
1.00021
1.00025
1.00029
1.00034
1.00039
1.00044
1.0005
1.00055
1.00061
1.00067
1.00073
1.00078
1.00083
1.00087
1.0009
1.00092
1.00094
1.00094
1.00093
1.00091
1.00088
1.00084
1.00079
1.00073
1.00066
1.00059
1.00053
1.00046
1.00039
1.00032
1.00026
1.0002
1.00015
1.00011
1.00007
1.00004
1.00002
1
0.999988
0.999979
0.999973
0.999971
0.999971
0.999973
0.999975
0.999978
0.999981
0.999985
0.999988
0.999991
0.999994
0.999995
0.999997
0.999998
0.999999
1
1
1
1
1
1
1.00001
1.00001
1.00001
1.00002
1.00002
1.00003
1.00003
1.00004
1.00005
1.00007
1.00008
1.0001
1.00012
1.00014
1.00016
1.00018
1.00022
1.00025
1.00028
1.00031
1.00035
1.00039
1.00043
1.00046
1.0005
1.00053
1.00056
1.00059
1.00061
1.00062
1.00062
1.00062
1.00061
1.0006
1.00057
1.00054
1.0005
1.00046
1.00042
1.00037
1.00032
1.00027
1.00022
1.00018
1.00014
1.0001
1.00007
1.00004
1.00002
1
0.999988
0.999978
0.999972
0.999969
0.999968
0.999968
0.99997
0.999973
0.999977
0.99998
0.999983
0.999986
0.999989
0.999991
0.999994
0.999996
0.999997
0.999998
0.999999
0.999999
1
1
1
1
1
1
1
1.00001
1.00001
1.00002
1.00002
1.00003
1.00004
1.00004
1.00005
1.00006
1.00007
1.00009
1.0001
1.00012
1.00014
1.00015
1.00018
1.0002
1.00022
1.00025
1.00027
1.0003
1.00032
1.00034
1.00036
1.00038
1.00039
1.00041
1.00041
1.00041
1.00041
1.0004
1.00039
1.00037
1.00034
1.00031
1.00028
1.00025
1.00022
1.00018
1.00015
1.00012
1.00009
1.00006
1.00004
1.00002
1
0.999989
0.999979
0.999972
0.999967
0.999965
0.999965
0.999966
0.999969
0.999971
0.999975
0.999978
0.999982
0.999986
0.999989
0.999991
0.999993
0.999995
0.999996
0.999997
0.999998
0.999999
0.999999
0.999999
1
1
1
1
1.00001
1.00001
1.00001
1.00001
1.00001
1.00002
1.00002
1.00003
1.00003
1.00004
1.00005
1.00006
1.00007
1.00008
1.00009
1.0001
1.00012
1.00013
1.00014
1.00016
1.00018
1.00019
1.00021
1.00022
1.00024
1.00025
1.00026
1.00026
1.00027
1.00027
1.00027
1.00026
1.00025
1.00024
1.00023
1.00021
1.00019
1.00017
1.00014
1.00012
1.0001
1.00008
1.00005
1.00004
1.00002
1
0.99999
0.999981
0.999974
0.999969
0.999965
0.999964
0.999964
0.999965
0.999968
0.999971
0.999975
0.999978
0.999981
0.999984
0.999987
0.99999
0.999992
0.999994
0.999995
0.999997
0.999998
0.999998
0.999999
1
1
1
1
1
1
1
1.00001
1.00001
1.00001
1.00001
1.00001
1.00002
1.00002
1.00003
1.00003
1.00004
1.00005
1.00006
1.00006
1.00007
1.00008
1.00009
1.0001
1.00011
1.00012
1.00013
1.00014
1.00015
1.00016
1.00016
1.00017
1.00017
1.00018
1.00018
1.00018
1.00017
1.00017
1.00016
1.00015
1.00014
1.00012
1.00011
1.00009
1.00008
1.00006
1.00004
1.00003
1.00002
1
0.999993
0.999983
0.999975
0.99997
0.999967
0.999965
0.999965
0.999965
0.999967
0.999969
0.999972
0.999974
0.999977
0.999981
0.999984
0.999987
0.999989
0.999991
0.999993
0.999995
0.999996
0.999997
0.999998
0.999998
0.999999
0.999999
0.999999
1
1
1
1
1
1.00001
1.00001
1.00001
1.00001
1.00001
1.00002
1.00002
1.00002
1.00003
1.00003
1.00003
1.00004
1.00005
1.00006
1.00006
1.00006
1.00007
1.00008
1.00009
1.00009
1.0001
1.0001
1.00011
1.00011
1.00012
1.00012
1.00012
1.00012
1.00012
1.00011
1.00011
1.0001
1.00009
1.00008
1.00007
1.00006
1.00005
1.00004
1.00002
1.00001
1
0.999995
0.999986
0.999979
0.999975
0.999971
0.999968
0.999966
0.999966
0.999966
0.999967
0.99997
0.999973
0.999976
0.999979
0.999982
0.999984
0.999987
0.999989
0.999992
0.999993
0.999995
0.999995
0.999997
0.999998
0.999998
0.999999
0.999999
0.999999
1
1
1
1
1
1
0.999999
1
1.00001
1.00001
1.00001
1.00001
1.00002
1.00002
1.00002
1.00002
1.00003
1.00003
1.00003
1.00004
1.00005
1.00005
1.00006
1.00006
1.00006
1.00007
1.00007
1.00008
1.00008
1.00008
1.00008
1.00008
1.00008
1.00008
1.00007
1.00007
1.00007
1.00006
1.00005
1.00005
1.00004
1.00003
1.00002
1.00001
1.00001
0.999998
0.999991
0.999985
0.99998
0.999975
0.999972
0.99997
0.999969
0.999969
0.99997
0.999972
0.999974
0.999976
0.999977
0.999979
0.999982
0.999984
0.999987
0.999989
0.999991
0.999993
0.999995
0.999996
0.999997
0.999998
0.999998
0.999999
0.999999
0.999999
1
1
1
1
1
1
1
1.00001
1
1
1.00001
1.00001
1.00001
1.00001
1.00001
1.00002
1.00002
1.00002
1.00002
1.00003
1.00003
1.00003
1.00004
1.00004
1.00004
1.00005
1.00005
1.00005
1.00005
1.00006
1.00006
1.00005
1.00005
1.00005
1.00005
1.00005
1.00005
1.00004
1.00004
1.00003
1.00003
1.00002
1.00001
1.00001
1
0.999995
0.99999
0.999985
0.999982
0.999979
0.999977
0.999975
0.999973
0.999973
0.999973
0.999974
0.999976
0.999977
0.99998
0.999983
0.999985
0.999987
0.999989
0.99999
0.999992
0.999993
0.999995
0.999995
0.999996
0.999997
0.999998
0.999999
0.999999
0.999999
1
1
1
1
1
1
1
0.999997
1