/*--------------------------------*- C++ -*----------------------------------*\
  =========                 |
  \\      /  F ield         | OpenFOAM: The Open Source CFD Toolbox
   \\    /   O peration     | Website:  https://openfoam.org
    \\  /    A nd           | Version:  6
     \\/     M anipulation  |
\*---------------------------------------------------------------------------*/
FoamFile
{
    version     2.0;
    format      ascii;
    class       volVectorField;
    location    "1.06";
    object      U;
}
// * * * * * * * * * * * * * * * * * * * * * * * * * * * * * * * * * * * * * //

dimensions      [0 1 -1 0 0 0 0];

internalField   nonuniform List<vector> 
5625
(
(0.8944 0.4472 0)
(0.8944 0.4472 0)
(0.8944 0.4472 0)
(0.8944 0.4472 0)
(0.8944 0.4472 0)
(0.8944 0.4472 0)
(0.8944 0.4472 0)
(0.8944 0.4472 0)
(0.8944 0.4472 0)
(0.8944 0.4472 0)
(0.8944 0.4472 0)
(0.8944 0.4472 0)
(0.8944 0.4472 0)
(0.8944 0.4472 0)
(0.8944 0.4472 0)
(0.8944 0.4472 0)
(0.8944 0.4472 0)
(0.8944 0.4472 0)
(0.8944 0.4472 0)
(0.8944 0.4472 0)
(0.8944 0.4472 0)
(0.8944 0.4472 0)
(0.8944 0.4472 0)
(0.8944 0.4472 0)
(0.8944 0.4472 0)
(0.8944 0.4472 0)
(0.8944 0.4472 0)
(0.8944 0.4472 0)
(0.8944 0.4472 0)
(0.8944 0.4472 0)
(0.8944 0.4472 0)
(0.8944 0.4472 0)
(0.8944 0.4472 0)
(0.8944 0.4472 0)
(0.8944 0.4472 0)
(0.8944 0.4472 0)
(0.8944 0.4472 0)
(0.8944 0.4472 0)
(0.894401 0.4472 0)
(0.8944 0.447199 0)
(0.8944 0.447199 0)
(0.894401 0.447198 0)
(0.894402 0.447196 0)
(0.894402 0.447192 0)
(0.894404 0.447184 0)
(0.894407 0.447171 0)
(0.894412 0.447144 0)
(0.89442 0.447097 0)
(0.894435 0.447013 0)
(0.894458 0.446866 0)
(0.894498 0.446618 0)
(0.89456 0.446204 0)
(0.894659 0.445528 0)
(0.894816 0.44445 0)
(0.895056 0.442766 0)
(0.895421 0.440192 0)
(0.895959 0.436342 0)
(0.896742 0.430715 0)
(0.897854 0.42267 0)
(0.899404 0.411428 0)
(0.901524 0.396078 0)
(0.90437 0.375603 0)
(0.908146 0.348936 0)
(0.913102 0.315039 0)
(0.919589 0.27304 0)
(0.928069 0.222387 0)
(0.939179 0.163105 0)
(0.953723 0.0960875 0)
(0.972581 0.0234838 0)
(0.996481 -0.0509219 0)
(1.02568 -0.121694 0)
(1.05976 -0.182333 0)
(1.09767 -0.226462 0)
(1.13783 -0.249071 0)
(1.17851 -0.24727 0)
(0.8944 0.4472 0)
(0.8944 0.4472 0)
(0.8944 0.4472 0)
(0.8944 0.4472 0)
(0.8944 0.4472 0)
(0.8944 0.4472 0)
(0.8944 0.4472 0)
(0.8944 0.4472 0)
(0.8944 0.4472 0)
(0.8944 0.4472 0)
(0.8944 0.4472 0)
(0.8944 0.4472 0)
(0.8944 0.4472 0)
(0.8944 0.4472 0)
(0.8944 0.4472 0)
(0.8944 0.4472 0)
(0.8944 0.4472 0)
(0.8944 0.4472 0)
(0.8944 0.4472 0)
(0.8944 0.4472 0)
(0.8944 0.4472 0)
(0.8944 0.4472 0)
(0.8944 0.4472 0)
(0.8944 0.4472 0)
(0.8944 0.4472 0)
(0.8944 0.4472 0)
(0.8944 0.4472 0)
(0.8944 0.4472 0)
(0.8944 0.4472 0)
(0.8944 0.4472 0)
(0.8944 0.4472 0)
(0.8944 0.4472 0)
(0.8944 0.4472 0)
(0.8944 0.4472 0)
(0.8944 0.4472 0)
(0.8944 0.4472 0)
(0.8944 0.4472 0)
(0.8944 0.4472 0)
(0.8944 0.4472 0)
(0.894401 0.447199 0)
(0.894401 0.4472 0)
(0.894401 0.447198 0)
(0.894401 0.447197 0)
(0.894403 0.447193 0)
(0.894405 0.447185 0)
(0.894408 0.447172 0)
(0.894414 0.447148 0)
(0.894423 0.447103 0)
(0.894439 0.447024 0)
(0.894466 0.446886 0)
(0.89451 0.446653 0)
(0.894582 0.446262 0)
(0.894694 0.445626 0)
(0.894872 0.44461 0)
(0.895148 0.443021 0)
(0.895568 0.440594 0)
(0.896195 0.436962 0)
(0.897111 0.431651 0)
(0.898428 0.424055 0)
(0.900279 0.413438 0)
(0.902836 0.398934 0)
(0.906305 0.379581 0)
(0.910944 0.35436 0)
(0.917074 0.322288 0)
(0.925103 0.28252 0)
(0.935568 0.23452 0)
(0.949159 0.178275 0)
(0.966726 0.114566 0)
(0.989195 0.0453151 0)
(1.01734 -0.0260679 0)
(1.05147 -0.094575 0)
(1.0911 -0.154059 0)
(1.135 -0.198282 0)
(1.18137 -0.222171 0)
(1.22818 -0.222663 0)
(0.8944 0.4472 0)
(0.8944 0.4472 0)
(0.8944 0.4472 0)
(0.8944 0.4472 0)
(0.8944 0.4472 0)
(0.8944 0.4472 0)
(0.8944 0.4472 0)
(0.8944 0.4472 0)
(0.8944 0.4472 0)
(0.8944 0.4472 0)
(0.8944 0.4472 0)
(0.8944 0.4472 0)
(0.8944 0.4472 0)
(0.8944 0.4472 0)
(0.8944 0.4472 0)
(0.8944 0.4472 0)
(0.8944 0.4472 0)
(0.8944 0.4472 0)
(0.8944 0.4472 0)
(0.8944 0.4472 0)
(0.8944 0.4472 0)
(0.8944 0.4472 0)
(0.8944 0.4472 0)
(0.8944 0.4472 0)
(0.8944 0.4472 0)
(0.8944 0.4472 0)
(0.8944 0.4472 0)
(0.8944 0.4472 0)
(0.8944 0.4472 0)
(0.8944 0.4472 0)
(0.8944 0.4472 0)
(0.8944 0.4472 0)
(0.8944 0.4472 0)
(0.8944 0.4472 0)
(0.8944 0.4472 0)
(0.8944 0.4472 0)
(0.8944 0.4472 0)
(0.8944 0.4472 0)
(0.894399 0.4472 0)
(0.8944 0.4472 0)
(0.894401 0.447199 0)
(0.894401 0.447198 0)
(0.894401 0.447197 0)
(0.894403 0.447194 0)
(0.894405 0.447186 0)
(0.894408 0.447174 0)
(0.894415 0.447152 0)
(0.894425 0.44711 0)
(0.894443 0.447036 0)
(0.894472 0.446909 0)
(0.89452 0.446691 0)
(0.894597 0.446326 0)
(0.894721 0.445733 0)
(0.894916 0.444785 0)
(0.89522 0.443304 0)
(0.895685 0.441037 0)
(0.89638 0.437645 0)
(0.897405 0.432684 0)
(0.898882 0.425586 0)
(0.900977 0.415658 0)
(0.903891 0.402097 0)
(0.907866 0.383987 0)
(0.913215 0.36038 0)
(0.920304 0.330344 0)
(0.9296 0.293077 0)
(0.941687 0.24806 0)
(0.957286 0.195252 0)
(0.977275 0.135326 0)
(1.0026 0.0699852 0)
(1.03409 0.00226033 0)
(1.07208 -0.0633247 0)
(1.11616 -0.121083 0)
(1.165 -0.165029 0)
(1.21664 -0.190094 0)
(1.26882 -0.193026 0)
(0.8944 0.4472 0)
(0.8944 0.4472 0)
(0.8944 0.4472 0)
(0.8944 0.4472 0)
(0.8944 0.4472 0)
(0.8944 0.4472 0)
(0.8944 0.4472 0)
(0.8944 0.4472 0)
(0.8944 0.4472 0)
(0.8944 0.4472 0)
(0.8944 0.4472 0)
(0.8944 0.4472 0)
(0.8944 0.4472 0)
(0.8944 0.4472 0)
(0.8944 0.4472 0)
(0.8944 0.4472 0)
(0.8944 0.4472 0)
(0.8944 0.4472 0)
(0.8944 0.4472 0)
(0.8944 0.4472 0)
(0.8944 0.4472 0)
(0.8944 0.4472 0)
(0.8944 0.4472 0)
(0.8944 0.4472 0)
(0.8944 0.4472 0)
(0.8944 0.4472 0)
(0.8944 0.4472 0)
(0.8944 0.4472 0)
(0.8944 0.4472 0)
(0.8944 0.4472 0)
(0.8944 0.4472 0)
(0.8944 0.4472 0)
(0.8944 0.4472 0)
(0.8944 0.4472 0)
(0.8944 0.4472 0)
(0.8944 0.4472 0)
(0.8944 0.4472 0)
(0.894401 0.4472 0)
(0.8944 0.4472 0)
(0.8944 0.4472 0)
(0.8944 0.4472 0)
(0.894401 0.447198 0)
(0.894402 0.447197 0)
(0.894403 0.447194 0)
(0.894405 0.447188 0)
(0.894409 0.447177 0)
(0.894415 0.447156 0)
(0.894426 0.447117 0)
(0.894445 0.44705 0)
(0.894476 0.446932 0)
(0.894526 0.446731 0)
(0.894608 0.446395 0)
(0.89474 0.445848 0)
(0.894947 0.444973 0)
(0.895273 0.443605 0)
(0.895766 0.441509 0)
(0.896514 0.438376 0)
(0.897616 0.433788 0)
(0.899214 0.427221 0)
(0.901494 0.418037 0)
(0.904671 0.40548 0)
(0.909037 0.388711 0)
(0.914926 0.36684 0)
(0.922755 0.338996 0)
(0.933022 0.304434 0)
(0.946347 0.262654 0)
(0.963472 0.213588 0)
(0.985267 0.157817 0)
(1.01268 0.0968366 0)
(1.04655 0.0333102 0)
(1.08731 -0.0287453 0)
(1.1346 -0.0841619 0)
(1.18714 -0.127341 0)
(1.24292 -0.153303 0)
(1.29948 -0.158637 0)
(0.8944 0.4472 0)
(0.8944 0.4472 0)
(0.8944 0.4472 0)
(0.8944 0.4472 0)
(0.8944 0.4472 0)
(0.8944 0.4472 0)
(0.8944 0.4472 0)
(0.8944 0.4472 0)
(0.8944 0.4472 0)
(0.8944 0.4472 0)
(0.8944 0.4472 0)
(0.8944 0.4472 0)
(0.8944 0.4472 0)
(0.8944 0.4472 0)
(0.8944 0.4472 0)
(0.8944 0.4472 0)
(0.8944 0.4472 0)
(0.8944 0.4472 0)
(0.8944 0.4472 0)
(0.8944 0.4472 0)
(0.8944 0.4472 0)
(0.8944 0.4472 0)
(0.8944 0.4472 0)
(0.8944 0.4472 0)
(0.8944 0.4472 0)
(0.8944 0.4472 0)
(0.8944 0.4472 0)
(0.8944 0.4472 0)
(0.8944 0.4472 0)
(0.8944 0.4472 0)
(0.8944 0.4472 0)
(0.8944 0.4472 0)
(0.8944 0.4472 0)
(0.8944 0.4472 0)
(0.894399 0.4472 0)
(0.894401 0.4472 0)
(0.8944 0.4472 0)
(0.8944 0.4472 0)
(0.8944 0.4472 0)
(0.8944 0.4472 0)
(0.894401 0.4472 0)
(0.894401 0.447198 0)
(0.894402 0.447197 0)
(0.894403 0.447194 0)
(0.894405 0.447189 0)
(0.894409 0.447179 0)
(0.894416 0.44716 0)
(0.894427 0.447125 0)
(0.894446 0.447063 0)
(0.894478 0.446956 0)
(0.894531 0.446773 0)
(0.894614 0.446467 0)
(0.894752 0.445966 0)
(0.894965 0.445168 0)
(0.895302 0.443915 0)
(0.895814 0.442001 0)
(0.896596 0.439135 0)
(0.897745 0.434934 0)
(0.899424 0.428925 0)
(0.901822 0.42051 0)
(0.905181 0.409007 0)
(0.909811 0.393635 0)
(0.916071 0.373577 0)
(0.924413 0.348037 0)
(0.935357 0.31631 0)
(0.949538 0.277938 0)
(0.967699 0.232828 0)
(0.990694 0.18148 0)
(1.01945 0.125184 0)
(1.05478 0.066281 0)
(1.09718 0.0082813 0)
(1.14641 -0.0442139 0)
(1.20131 -0.0860536 0)
(1.2599 -0.112477 0)
(1.31966 -0.119988 0)
(0.8944 0.4472 0)
(0.8944 0.4472 0)
(0.8944 0.4472 0)
(0.8944 0.4472 0)
(0.8944 0.4472 0)
(0.8944 0.4472 0)
(0.8944 0.4472 0)
(0.8944 0.4472 0)
(0.8944 0.4472 0)
(0.8944 0.4472 0)
(0.8944 0.4472 0)
(0.8944 0.4472 0)
(0.8944 0.4472 0)
(0.8944 0.4472 0)
(0.8944 0.4472 0)
(0.8944 0.4472 0)
(0.8944 0.4472 0)
(0.8944 0.4472 0)
(0.8944 0.4472 0)
(0.8944 0.4472 0)
(0.8944 0.4472 0)
(0.8944 0.4472 0)
(0.8944 0.4472 0)
(0.8944 0.4472 0)
(0.8944 0.4472 0)
(0.8944 0.4472 0)
(0.8944 0.4472 0)
(0.8944 0.4472 0)
(0.8944 0.4472 0)
(0.8944 0.4472 0)
(0.8944 0.4472 0)
(0.8944 0.4472 0)
(0.8944 0.4472 0)
(0.8944 0.4472 0)
(0.8944 0.4472 0)
(0.8944 0.4472 0)
(0.8944 0.4472 0)
(0.8944 0.4472 0)
(0.8944 0.4472 0)
(0.8944 0.4472 0)
(0.8944 0.447199 0)
(0.894401 0.447199 0)
(0.894401 0.447198 0)
(0.894403 0.447196 0)
(0.894406 0.44719 0)
(0.894409 0.447181 0)
(0.894416 0.447164 0)
(0.894428 0.447133 0)
(0.894446 0.447077 0)
(0.894479 0.446981 0)
(0.894531 0.446815 0)
(0.894616 0.446539 0)
(0.894753 0.446086 0)
(0.894971 0.445364 0)
(0.895312 0.444232 0)
(0.89583 0.442499 0)
(0.896626 0.439904 0)
(0.897795 0.436097 0)
(0.899515 0.430653 0)
(0.901969 0.423027 0)
(0.905429 0.412591 0)
(0.910196 0.398647 0)
(0.916669 0.380441 0)
(0.925301 0.357252 0)
(0.93663 0.328434 0)
(0.951296 0.293558 0)
(0.970029 0.252524 0)
(0.993648 0.205752 0)
(1.02303 0.154359 0)
(1.05896 0.100364 0)
(1.10196 0.0468271 0)
(1.15189 -0.00222637 0)
(1.20778 -0.0421566 0)
(1.26775 -0.0685026 0)
(1.32934 -0.0778162 0)
(0.8944 0.4472 0)
(0.8944 0.4472 0)
(0.8944 0.4472 0)
(0.8944 0.4472 0)
(0.8944 0.4472 0)
(0.8944 0.4472 0)
(0.8944 0.4472 0)
(0.8944 0.4472 0)
(0.8944 0.4472 0)
(0.8944 0.4472 0)
(0.8944 0.4472 0)
(0.8944 0.4472 0)
(0.8944 0.4472 0)
(0.8944 0.4472 0)
(0.8944 0.4472 0)
(0.8944 0.4472 0)
(0.8944 0.4472 0)
(0.8944 0.4472 0)
(0.8944 0.4472 0)
(0.8944 0.4472 0)
(0.8944 0.4472 0)
(0.8944 0.4472 0)
(0.8944 0.4472 0)
(0.8944 0.4472 0)
(0.8944 0.4472 0)
(0.8944 0.4472 0)
(0.8944 0.4472 0)
(0.8944 0.4472 0)
(0.8944 0.4472 0)
(0.8944 0.4472 0)
(0.8944 0.4472 0)
(0.8944 0.4472 0)
(0.8944 0.4472 0)
(0.8944 0.4472 0)
(0.894399 0.4472 0)
(0.8944 0.4472 0)
(0.8944 0.4472 0)
(0.8944 0.4472 0)
(0.8944 0.4472 0)
(0.8944 0.4472 0)
(0.8944 0.4472 0)
(0.894402 0.447199 0)
(0.894401 0.447198 0)
(0.894403 0.447196 0)
(0.894406 0.447191 0)
(0.894409 0.447183 0)
(0.894416 0.447168 0)
(0.894427 0.44714 0)
(0.894447 0.447091 0)
(0.894477 0.447004 0)
(0.89453 0.446857 0)
(0.894614 0.446611 0)
(0.894749 0.446205 0)
(0.894966 0.44556 0)
(0.8953 0.444545 0)
(0.895822 0.442994 0)
(0.896606 0.440668 0)
(0.897778 0.437256 0)
(0.899491 0.43237 0)
(0.901952 0.425529 0)
(0.905423 0.416164 0)
(0.910224 0.403638 0)
(0.916751 0.387289 0)
(0.925466 0.366449 0)
(0.936912 0.340546 0)
(0.951714 0.30918 0)
(0.97058 0.272249 0)
(0.994286 0.230107 0)
(1.02365 0.183708 0)
(1.05941 0.134787 0)
(1.10206 0.085976 0)
(1.15157 0.0407795 0)
(1.20714 0.00327759 0)
(1.26708 -0.0224446 0)
(1.32906 -0.0330498 0)
(0.8944 0.4472 0)
(0.8944 0.4472 0)
(0.8944 0.4472 0)
(0.8944 0.4472 0)
(0.8944 0.4472 0)
(0.8944 0.4472 0)
(0.8944 0.4472 0)
(0.8944 0.4472 0)
(0.8944 0.4472 0)
(0.8944 0.4472 0)
(0.8944 0.4472 0)
(0.8944 0.4472 0)
(0.8944 0.4472 0)
(0.8944 0.4472 0)
(0.8944 0.4472 0)
(0.8944 0.4472 0)
(0.8944 0.4472 0)
(0.8944 0.4472 0)
(0.8944 0.4472 0)
(0.8944 0.4472 0)
(0.8944 0.4472 0)
(0.8944 0.4472 0)
(0.8944 0.4472 0)
(0.8944 0.4472 0)
(0.8944 0.4472 0)
(0.8944 0.4472 0)
(0.8944 0.4472 0)
(0.8944 0.4472 0)
(0.8944 0.4472 0)
(0.8944 0.4472 0)
(0.8944 0.4472 0)
(0.8944 0.4472 0)
(0.8944 0.4472 0)
(0.8944 0.4472 0)
(0.8944 0.4472 0)
(0.8944 0.4472 0)
(0.8944 0.4472 0)
(0.8944 0.4472 0)
(0.8944 0.4472 0)
(0.8944 0.4472 0)
(0.8944 0.4472 0)
(0.894401 0.447199 0)
(0.894402 0.447198 0)
(0.894403 0.447196 0)
(0.894405 0.447192 0)
(0.894409 0.447185 0)
(0.894416 0.447172 0)
(0.894426 0.447147 0)
(0.894444 0.447104 0)
(0.894476 0.447028 0)
(0.894525 0.446897 0)
(0.894608 0.446679 0)
(0.894738 0.446323 0)
(0.89495 0.445748 0)
(0.895274 0.444852 0)
(0.895783 0.443475 0)
(0.896547 0.441411 0)
(0.897694 0.438386 0)
(0.899369 0.434048 0)
(0.901789 0.427971 0)
(0.905196 0.419651 0)
(0.90993 0.408521 0)
(0.916366 0.393983 0)
(0.92498 0.375453 0)
(0.936291 0.35241 0)
(0.950915 0.324496 0)
(0.969524 0.291612 0)
(0.992842 0.254053 0)
(1.02162 0.212628 0)
(1.05653 0.168827 0)
(1.09803 0.124883 0)
(1.14616 0.0838105 0)
(1.20025 0.0491695 0)
(1.25885 0.0245913 0)
(1.31983 0.0132279 0)
(0.8944 0.4472 0)
(0.8944 0.4472 0)
(0.8944 0.4472 0)
(0.8944 0.4472 0)
(0.8944 0.4472 0)
(0.8944 0.4472 0)
(0.8944 0.4472 0)
(0.8944 0.4472 0)
(0.8944 0.4472 0)
(0.8944 0.4472 0)
(0.8944 0.4472 0)
(0.8944 0.4472 0)
(0.8944 0.4472 0)
(0.8944 0.4472 0)
(0.8944 0.4472 0)
(0.8944 0.4472 0)
(0.8944 0.4472 0)
(0.8944 0.4472 0)
(0.8944 0.4472 0)
(0.8944 0.4472 0)
(0.8944 0.4472 0)
(0.8944 0.4472 0)
(0.8944 0.4472 0)
(0.8944 0.4472 0)
(0.8944 0.4472 0)
(0.8944 0.4472 0)
(0.8944 0.4472 0)
(0.8944 0.4472 0)
(0.8944 0.4472 0)
(0.8944 0.4472 0)
(0.894399 0.4472 0)
(0.8944 0.4472 0)
(0.8944 0.4472 0)
(0.8944 0.4472 0)
(0.8944 0.447199 0)
(0.8944 0.4472 0)
(0.8944 0.4472 0)
(0.8944 0.4472 0)
(0.8944 0.4472 0)
(0.8944 0.4472 0)
(0.894401 0.4472 0)
(0.894401 0.4472 0)
(0.894402 0.447198 0)
(0.894403 0.447197 0)
(0.894404 0.447193 0)
(0.894409 0.447187 0)
(0.894415 0.447175 0)
(0.894426 0.447154 0)
(0.894443 0.447116 0)
(0.894472 0.447051 0)
(0.89452 0.446936 0)
(0.894598 0.446745 0)
(0.894723 0.446432 0)
(0.894923 0.44593 0)
(0.895235 0.445144 0)
(0.89572 0.443936 0)
(0.896453 0.442124 0)
(0.897554 0.439467 0)
(0.899164 0.435657 0)
(0.901493 0.430312 0)
(0.904781 0.422998 0)
(0.909354 0.413208 0)
(0.915586 0.400419 0)
(0.923926 0.384108 0)
(0.934892 0.363821 0)
(0.949064 0.339244 0)
(0.967074 0.310278 0)
(0.989596 0.277167 0)
(1.0173 0.240602 0)
(1.0508 0.201837 0)
(1.09049 0.162782 0)
(1.13643 0.125975 0)
(1.1881 0.0944849 0)
(1.24426 0.0715057 0)
(1.303 0.0599034 0)
(0.8944 0.4472 0)
(0.8944 0.4472 0)
(0.8944 0.4472 0)
(0.8944 0.4472 0)
(0.8944 0.4472 0)
(0.8944 0.4472 0)
(0.8944 0.4472 0)
(0.8944 0.4472 0)
(0.8944 0.4472 0)
(0.8944 0.4472 0)
(0.8944 0.4472 0)
(0.8944 0.4472 0)
(0.8944 0.4472 0)
(0.8944 0.4472 0)
(0.8944 0.4472 0)
(0.8944 0.4472 0)
(0.8944 0.4472 0)
(0.8944 0.4472 0)
(0.8944 0.4472 0)
(0.8944 0.4472 0)
(0.8944 0.4472 0)
(0.8944 0.4472 0)
(0.8944 0.4472 0)
(0.8944 0.4472 0)
(0.8944 0.4472 0)
(0.8944 0.4472 0)
(0.8944 0.4472 0)
(0.8944 0.4472 0)
(0.8944 0.4472 0)
(0.8944 0.4472 0)
(0.8944 0.4472 0)
(0.8944 0.4472 0)
(0.8944 0.4472 0)
(0.8944 0.4472 0)
(0.8944 0.4472 0)
(0.8944 0.4472 0)
(0.8944 0.4472 0)
(0.8944 0.4472 0)
(0.8944 0.4472 0)
(0.8944 0.4472 0)
(0.8944 0.4472 0)
(0.8944 0.447199 0)
(0.894401 0.447199 0)
(0.894402 0.447197 0)
(0.894404 0.447194 0)
(0.894408 0.447189 0)
(0.894414 0.447179 0)
(0.894424 0.447162 0)
(0.89444 0.447128 0)
(0.894468 0.447071 0)
(0.894513 0.446972 0)
(0.894586 0.446807 0)
(0.894704 0.446537 0)
(0.894892 0.4461 0)
(0.895186 0.445419 0)
(0.895639 0.444369 0)
(0.896334 0.442797 0)
(0.897368 0.440486 0)
(0.898892 0.437171 0)
(0.901093 0.432524 0)
(0.904212 0.426155 0)
(0.908548 0.417635 0)
(0.914474 0.406496 0)
(0.922409 0.392289 0)
(0.932848 0.374618 0)
(0.94634 0.353205 0)
(0.963467 0.327961 0)
(0.984852 0.299092 0)
(1.01109 0.267178 0)
(1.04272 0.233281 0)
(1.08008 0.198998 0)
(1.12325 0.166481 0)
(1.17176 0.138313 0)
(1.22459 0.117268 0)
(1.28007 0.105906 0)
(0.8944 0.4472 0)
(0.8944 0.4472 0)
(0.8944 0.4472 0)
(0.8944 0.4472 0)
(0.8944 0.4472 0)
(0.8944 0.4472 0)
(0.8944 0.4472 0)
(0.8944 0.4472 0)
(0.8944 0.4472 0)
(0.8944 0.4472 0)
(0.8944 0.4472 0)
(0.8944 0.4472 0)
(0.8944 0.4472 0)
(0.8944 0.4472 0)
(0.8944 0.4472 0)
(0.8944 0.4472 0)
(0.8944 0.4472 0)
(0.8944 0.4472 0)
(0.8944 0.4472 0)
(0.8944 0.4472 0)
(0.8944 0.4472 0)
(0.8944 0.4472 0)
(0.8944 0.4472 0)
(0.8944 0.4472 0)
(0.8944 0.4472 0)
(0.8944 0.4472 0)
(0.8944 0.4472 0)
(0.8944 0.4472 0)
(0.8944 0.4472 0)
(0.8944 0.4472 0)
(0.8944 0.4472 0)
(0.8944 0.4472 0)
(0.8944 0.4472 0)
(0.8944 0.4472 0)
(0.8944 0.4472 0)
(0.8944 0.4472 0)
(0.8944 0.4472 0)
(0.8944 0.4472 0)
(0.8944 0.4472 0)
(0.8944 0.4472 0)
(0.8944 0.447199 0)
(0.894401 0.4472 0)
(0.894402 0.447199 0)
(0.894402 0.447198 0)
(0.894404 0.447195 0)
(0.894408 0.447191 0)
(0.894413 0.447182 0)
(0.894422 0.447167 0)
(0.894438 0.447139 0)
(0.894462 0.44709 0)
(0.894504 0.447006 0)
(0.894571 0.446865 0)
(0.894682 0.446632 0)
(0.894853 0.446259 0)
(0.895128 0.445672 0)
(0.895546 0.444771 0)
(0.896192 0.443418 0)
(0.89715 0.44143 0)
(0.898569 0.438579 0)
(0.900615 0.434575 0)
(0.903523 0.429091 0)
(0.907571 0.421749 0)
(0.913109 0.412149 0)
(0.92053 0.399902 0)
(0.930304 0.384668 0)
(0.94293 0.366208 0)
(0.958956 0.344442 0)
(0.978942 0.319547 0)
(1.00341 0.292007 0)
(1.03283 0.262712 0)
(1.06748 0.233004 0)
(1.10742 0.204665 0)
(1.15226 0.179885 0)
(1.20114 0.161007 0)
(1.2526 0.15026 0)
(0.8944 0.4472 0)
(0.8944 0.4472 0)
(0.8944 0.4472 0)
(0.8944 0.4472 0)
(0.8944 0.4472 0)
(0.8944 0.4472 0)
(0.8944 0.4472 0)
(0.8944 0.4472 0)
(0.8944 0.4472 0)
(0.8944 0.4472 0)
(0.8944 0.4472 0)
(0.8944 0.4472 0)
(0.8944 0.4472 0)
(0.8944 0.4472 0)
(0.8944 0.4472 0)
(0.8944 0.4472 0)
(0.8944 0.4472 0)
(0.8944 0.4472 0)
(0.8944 0.4472 0)
(0.8944 0.4472 0)
(0.8944 0.4472 0)
(0.8944 0.4472 0)
(0.8944 0.4472 0)
(0.8944 0.4472 0)
(0.8944 0.4472 0)
(0.8944 0.4472 0)
(0.8944 0.4472 0)
(0.8944 0.4472 0)
(0.8944 0.4472 0)
(0.8944 0.4472 0)
(0.8944 0.4472 0)
(0.8944 0.4472 0)
(0.8944 0.4472 0)
(0.8944 0.4472 0)
(0.8944 0.4472 0)
(0.8944 0.4472 0)
(0.8944 0.4472 0)
(0.8944 0.4472 0)
(0.8944 0.4472 0)
(0.8944 0.4472 0)
(0.894401 0.4472 0)
(0.894401 0.4472 0)
(0.894402 0.447199 0)
(0.894402 0.447198 0)
(0.894403 0.447196 0)
(0.894407 0.447193 0)
(0.894412 0.447186 0)
(0.89442 0.447172 0)
(0.894434 0.447149 0)
(0.894457 0.447108 0)
(0.894495 0.447036 0)
(0.894557 0.446917 0)
(0.894655 0.446719 0)
(0.894814 0.446403 0)
(0.895062 0.445904 0)
(0.895448 0.445137 0)
(0.896032 0.443988 0)
(0.896912 0.442293 0)
(0.898209 0.439864 0)
(0.900083 0.436454 0)
(0.902753 0.431774 0)
(0.90647 0.425514 0)
(0.911563 0.417327 0)
(0.918396 0.406878 0)
(0.927399 0.393883 0)
(0.939036 0.378132 0)
(0.953795 0.35957 0)
(0.972183 0.338332 0)
(0.994666 0.314833 0)
(1.02163 0.289813 0)
(1.05332 0.264385 0)
(1.08976 0.240039 0)
(1.13061 0.218576 0)
(1.17512 0.201975 0)
(1.22207 0.192135 0)
(0.8944 0.4472 0)
(0.8944 0.4472 0)
(0.8944 0.4472 0)
(0.8944 0.4472 0)
(0.8944 0.4472 0)
(0.8944 0.4472 0)
(0.8944 0.4472 0)
(0.8944 0.4472 0)
(0.8944 0.4472 0)
(0.8944 0.4472 0)
(0.8944 0.4472 0)
(0.8944 0.4472 0)
(0.8944 0.4472 0)
(0.8944 0.4472 0)
(0.8944 0.4472 0)
(0.8944 0.4472 0)
(0.8944 0.4472 0)
(0.8944 0.4472 0)
(0.8944 0.4472 0)
(0.8944 0.4472 0)
(0.8944 0.4472 0)
(0.8944 0.4472 0)
(0.8944 0.4472 0)
(0.8944 0.4472 0)
(0.8944 0.4472 0)
(0.8944 0.4472 0)
(0.8944 0.4472 0)
(0.8944 0.4472 0)
(0.8944 0.4472 0)
(0.8944 0.4472 0)
(0.8944 0.4472 0)
(0.8944 0.4472 0)
(0.8944 0.4472 0)
(0.8944 0.4472 0)
(0.8944 0.4472 0)
(0.8944 0.4472 0)
(0.8944 0.4472 0)
(0.8944 0.4472 0)
(0.8944 0.4472 0)
(0.8944 0.4472 0)
(0.894401 0.4472 0)
(0.894401 0.4472 0)
(0.894401 0.447199 0)
(0.894402 0.447198 0)
(0.894404 0.447197 0)
(0.894406 0.447194 0)
(0.894411 0.447188 0)
(0.894418 0.447177 0)
(0.89443 0.447158 0)
(0.894451 0.447123 0)
(0.894486 0.447063 0)
(0.89454 0.446963 0)
(0.894631 0.446798 0)
(0.894771 0.446531 0)
(0.894996 0.446113 0)
(0.89534 0.445467 0)
(0.895869 0.444496 0)
(0.896659 0.443074 0)
(0.897829 0.441019 0)
(0.899524 0.438144 0)
(0.901932 0.4342 0)
(0.905302 0.42891 0)
(0.909907 0.421999 0)
(0.916106 0.413179 0)
(0.924275 0.402208 0)
(0.93483 0.388912 0)
(0.948228 0.373245 0)
(0.964903 0.355322 0)
(0.98526 0.335494 0)
(1.00963 0.314374 0)
(1.03822 0.292879 0)
(1.07101 0.27224 0)
(1.10772 0.253946 0)
(1.14768 0.239624 0)
(1.18984 0.230881 0)
(0.8944 0.4472 0)
(0.8944 0.4472 0)
(0.8944 0.4472 0)
(0.8944 0.4472 0)
(0.8944 0.4472 0)
(0.8944 0.4472 0)
(0.8944 0.4472 0)
(0.8944 0.4472 0)
(0.8944 0.4472 0)
(0.8944 0.4472 0)
(0.8944 0.4472 0)
(0.8944 0.4472 0)
(0.8944 0.4472 0)
(0.8944 0.4472 0)
(0.8944 0.4472 0)
(0.8944 0.4472 0)
(0.8944 0.4472 0)
(0.8944 0.4472 0)
(0.8944 0.4472 0)
(0.8944 0.4472 0)
(0.8944 0.4472 0)
(0.8944 0.4472 0)
(0.8944 0.4472 0)
(0.8944 0.4472 0)
(0.8944 0.4472 0)
(0.8944 0.4472 0)
(0.8944 0.4472 0)
(0.8944 0.4472 0)
(0.8944 0.4472 0)
(0.8944 0.4472 0)
(0.8944 0.4472 0)
(0.8944 0.4472 0)
(0.8944 0.4472 0)
(0.8944 0.4472 0)
(0.8944 0.4472 0)
(0.8944 0.4472 0)
(0.8944 0.4472 0)
(0.8944 0.4472 0)
(0.8944 0.4472 0)
(0.8944 0.4472 0)
(0.8944 0.4472 0)
(0.894401 0.4472 0)
(0.894401 0.4472 0)
(0.894402 0.447199 0)
(0.894403 0.447198 0)
(0.894406 0.447195 0)
(0.89441 0.44719 0)
(0.894416 0.447181 0)
(0.894427 0.447165 0)
(0.894445 0.447137 0)
(0.894475 0.447087 0)
(0.894525 0.447005 0)
(0.894603 0.446867 0)
(0.894729 0.446646 0)
(0.894928 0.446296 0)
(0.895234 0.445759 0)
(0.895702 0.444951 0)
(0.896405 0.443761 0)
(0.897444 0.442051 0)
(0.898952 0.439646 0)
(0.901098 0.436353 0)
(0.904099 0.431934 0)
(0.908214 0.426158 0)
(0.913751 0.418791 0)
(0.921051 0.409622 0)
(0.930496 0.398514 0)
(0.942474 0.385429 0)
(0.957375 0.370469 0)
(0.975558 0.353918 0)
(0.99729 0.336291 0)
(1.02273 0.318346 0)
(1.05187 0.301086 0)
(1.0844 0.285722 0)
(1.11979 0.273595 0)
(1.15711 0.266033 0)
(0.8944 0.4472 0)
(0.8944 0.4472 0)
(0.8944 0.4472 0)
(0.8944 0.4472 0)
(0.8944 0.4472 0)
(0.8944 0.4472 0)
(0.8944 0.4472 0)
(0.8944 0.4472 0)
(0.8944 0.4472 0)
(0.8944 0.4472 0)
(0.8944 0.4472 0)
(0.8944 0.4472 0)
(0.8944 0.4472 0)
(0.8944 0.4472 0)
(0.8944 0.4472 0)
(0.8944 0.4472 0)
(0.8944 0.4472 0)
(0.8944 0.4472 0)
(0.8944 0.4472 0)
(0.8944 0.4472 0)
(0.8944 0.4472 0)
(0.8944 0.4472 0)
(0.8944 0.4472 0)
(0.8944 0.4472 0)
(0.8944 0.4472 0)
(0.8944 0.4472 0)
(0.8944 0.4472 0)
(0.8944 0.4472 0)
(0.8944 0.4472 0)
(0.8944 0.4472 0)
(0.8944 0.4472 0)
(0.8944 0.4472 0)
(0.8944 0.4472 0)
(0.8944 0.4472 0)
(0.8944 0.4472 0)
(0.8944 0.4472 0)
(0.8944 0.4472 0)
(0.8944 0.4472 0)
(0.8944 0.4472 0)
(0.8944 0.4472 0)
(0.8944 0.4472 0)
(0.8944 0.4472 0)
(0.894401 0.447199 0)
(0.894402 0.447199 0)
(0.894403 0.447198 0)
(0.894405 0.447196 0)
(0.894408 0.447192 0)
(0.894414 0.447185 0)
(0.894424 0.447172 0)
(0.89444 0.447148 0)
(0.894466 0.447108 0)
(0.894509 0.44704 0)
(0.894579 0.446928 0)
(0.894688 0.446745 0)
(0.894861 0.446457 0)
(0.895129 0.446016 0)
(0.895539 0.445348 0)
(0.896154 0.444366 0)
(0.897066 0.442951 0)
(0.898387 0.440968 0)
(0.900275 0.438239 0)
(0.902911 0.434589 0)
(0.906534 0.429813 0)
(0.911409 0.423715 0)
(0.917844 0.416135 0)
(0.926167 0.406949 0)
(0.936733 0.396136 0)
(0.949873 0.383776 0)
(0.965883 0.370115 0)
(0.985012 0.355568 0)
(1.00736 0.340765 0)
(1.03289 0.326515 0)
(1.06138 0.313794 0)
(1.0923 0.30371 0)
(1.12488 0.297326 0)
(0.8944 0.4472 0)
(0.8944 0.4472 0)
(0.8944 0.4472 0)
(0.8944 0.4472 0)
(0.8944 0.4472 0)
(0.8944 0.4472 0)
(0.8944 0.4472 0)
(0.8944 0.4472 0)
(0.8944 0.4472 0)
(0.8944 0.4472 0)
(0.8944 0.4472 0)
(0.8944 0.4472 0)
(0.8944 0.4472 0)
(0.8944 0.4472 0)
(0.8944 0.4472 0)
(0.8944 0.4472 0)
(0.8944 0.4472 0)
(0.8944 0.4472 0)
(0.8944 0.4472 0)
(0.8944 0.4472 0)
(0.8944 0.4472 0)
(0.8944 0.4472 0)
(0.8944 0.4472 0)
(0.8944 0.4472 0)
(0.8944 0.4472 0)
(0.8944 0.4472 0)
(0.8944 0.4472 0)
(0.8944 0.4472 0)
(0.8944 0.4472 0)
(0.8944 0.4472 0)
(0.8944 0.4472 0)
(0.8944 0.4472 0)
(0.8944 0.4472 0)
(0.8944 0.4472 0)
(0.8944 0.4472 0)
(0.8944 0.4472 0)
(0.8944 0.4472 0)
(0.8944 0.4472 0)
(0.8944 0.447201 0)
(0.8944 0.4472 0)
(0.8944 0.4472 0)
(0.8944 0.4472 0)
(0.894401 0.4472 0)
(0.894401 0.4472 0)
(0.894402 0.447198 0)
(0.894404 0.447197 0)
(0.894408 0.447193 0)
(0.894412 0.447188 0)
(0.89442 0.447177 0)
(0.894434 0.447158 0)
(0.894457 0.447126 0)
(0.894494 0.447071 0)
(0.894554 0.446978 0)
(0.89465 0.446831 0)
(0.894798 0.446597 0)
(0.895029 0.446235 0)
(0.895383 0.445691 0)
(0.895915 0.444887 0)
(0.896704 0.443731 0)
(0.897846 0.442108 0)
(0.899481 0.439876 0)
(0.90177 0.436889 0)
(0.90491 0.432974 0)
(0.909148 0.427984 0)
(0.914739 0.421781 0)
(0.921981 0.414265 0)
(0.931169 0.405422 0)
(0.942591 0.395315 0)
(0.956515 0.38416 0)
(0.973117 0.37229 0)
(0.9925 0.360206 0)
(1.01461 0.348583 0)
(1.03922 0.338206 0)
(1.0659 0.329948 0)
(1.09398 0.324691 0)
(0.8944 0.4472 0)
(0.8944 0.4472 0)
(0.8944 0.4472 0)
(0.8944 0.4472 0)
(0.8944 0.4472 0)
(0.8944 0.4472 0)
(0.8944 0.4472 0)
(0.8944 0.4472 0)
(0.8944 0.4472 0)
(0.8944 0.4472 0)
(0.8944 0.4472 0)
(0.8944 0.4472 0)
(0.8944 0.4472 0)
(0.8944 0.4472 0)
(0.8944 0.4472 0)
(0.8944 0.4472 0)
(0.8944 0.4472 0)
(0.8944 0.4472 0)
(0.8944 0.4472 0)
(0.8944 0.4472 0)
(0.8944 0.4472 0)
(0.8944 0.4472 0)
(0.8944 0.4472 0)
(0.8944 0.4472 0)
(0.8944 0.4472 0)
(0.8944 0.4472 0)
(0.8944 0.4472 0)
(0.8944 0.4472 0)
(0.8944 0.4472 0)
(0.8944 0.4472 0)
(0.8944 0.4472 0)
(0.8944 0.4472 0)
(0.8944 0.4472 0)
(0.8944 0.4472 0)
(0.8944 0.4472 0)
(0.8944 0.4472 0)
(0.8944 0.4472 0)
(0.8944 0.4472 0)
(0.8944 0.4472 0)
(0.8944 0.4472 0)
(0.894401 0.4472 0)
(0.8944 0.4472 0)
(0.894401 0.4472 0)
(0.894401 0.447199 0)
(0.894402 0.447199 0)
(0.894403 0.447198 0)
(0.894406 0.447195 0)
(0.894411 0.447191 0)
(0.894417 0.447182 0)
(0.894429 0.447167 0)
(0.894449 0.447141 0)
(0.89448 0.447096 0)
(0.894532 0.447024 0)
(0.894611 0.446903 0)
(0.89474 0.446714 0)
(0.894935 0.446424 0)
(0.895238 0.445982 0)
(0.895692 0.445334 0)
(0.896364 0.444396 0)
(0.897341 0.443084 0)
(0.898739 0.441274 0)
(0.900695 0.438851 0)
(0.903384 0.435684 0)
(0.907017 0.431636 0)
(0.91181 0.426609 0)
(0.918021 0.420521 0)
(0.925908 0.413362 0)
(0.93571 0.405193 0)
(0.947649 0.396173 0)
(0.961883 0.386582 0)
(0.978473 0.376841 0)
(0.997377 0.36747 0)
(1.01839 0.35911 0)
(1.04113 0.352463 0)
(1.06502 0.348214 0)
(0.8944 0.4472 0)
(0.8944 0.4472 0)
(0.8944 0.4472 0)
(0.8944 0.4472 0)
(0.8944 0.4472 0)
(0.8944 0.4472 0)
(0.8944 0.4472 0)
(0.8944 0.4472 0)
(0.8944 0.4472 0)
(0.8944 0.4472 0)
(0.8944 0.4472 0)
(0.8944 0.4472 0)
(0.8944 0.4472 0)
(0.8944 0.4472 0)
(0.8944 0.4472 0)
(0.8944 0.4472 0)
(0.8944 0.4472 0)
(0.8944 0.4472 0)
(0.8944 0.4472 0)
(0.8944 0.4472 0)
(0.8944 0.4472 0)
(0.8944 0.4472 0)
(0.8944 0.4472 0)
(0.8944 0.4472 0)
(0.8944 0.4472 0)
(0.8944 0.4472 0)
(0.8944 0.4472 0)
(0.8944 0.4472 0)
(0.8944 0.4472 0)
(0.8944 0.4472 0)
(0.8944 0.4472 0)
(0.8944 0.4472 0)
(0.8944 0.4472 0)
(0.8944 0.4472 0)
(0.8944 0.4472 0)
(0.8944 0.4472 0)
(0.8944 0.4472 0)
(0.8944 0.4472 0)
(0.8944 0.4472 0)
(0.8944 0.447201 0)
(0.894401 0.4472 0)
(0.8944 0.4472 0)
(0.894401 0.4472 0)
(0.894401 0.4472 0)
(0.894402 0.447199 0)
(0.894403 0.447198 0)
(0.894405 0.447196 0)
(0.894409 0.447193 0)
(0.894415 0.447186 0)
(0.894424 0.447174 0)
(0.894442 0.447153 0)
(0.894468 0.447118 0)
(0.894509 0.447059 0)
(0.894579 0.446965 0)
(0.894684 0.446813 0)
(0.894851 0.446581 0)
(0.895106 0.446228 0)
(0.895486 0.445708 0)
(0.896054 0.44496 0)
(0.896877 0.443902 0)
(0.898055 0.442455 0)
(0.899709 0.440511 0)
(0.901983 0.437967 0)
(0.90505 0.434722 0)
(0.909109 0.430688 0)
(0.914369 0.425807 0)
(0.921047 0.42007 0)
(0.929348 0.413525 0)
(0.939456 0.406312 0)
(0.9515 0.398654 0)
(0.96553 0.390877 0)
(0.981496 0.38341 0)
(0.999214 0.376759 0)
(1.01836 0.371473 0)
(1.03845 0.368107 0)
(0.8944 0.4472 0)
(0.8944 0.4472 0)
(0.8944 0.4472 0)
(0.8944 0.4472 0)
(0.8944 0.4472 0)
(0.8944 0.4472 0)
(0.8944 0.4472 0)
(0.8944 0.4472 0)
(0.8944 0.4472 0)
(0.8944 0.4472 0)
(0.8944 0.4472 0)
(0.8944 0.4472 0)
(0.8944 0.4472 0)
(0.8944 0.4472 0)
(0.8944 0.4472 0)
(0.8944 0.4472 0)
(0.8944 0.4472 0)
(0.8944 0.4472 0)
(0.8944 0.4472 0)
(0.8944 0.4472 0)
(0.8944 0.4472 0)
(0.8944 0.4472 0)
(0.8944 0.4472 0)
(0.8944 0.4472 0)
(0.8944 0.4472 0)
(0.8944 0.4472 0)
(0.8944 0.4472 0)
(0.8944 0.4472 0)
(0.8944 0.4472 0)
(0.8944 0.4472 0)
(0.8944 0.4472 0)
(0.8944 0.4472 0)
(0.8944 0.4472 0)
(0.8944 0.4472 0)
(0.8944 0.4472 0)
(0.8944 0.4472 0)
(0.8944 0.4472 0)
(0.8944 0.4472 0)
(0.8944 0.4472 0)
(0.8944 0.4472 0)
(0.8944 0.4472 0)
(0.8944 0.4472 0)
(0.8944 0.4472 0)
(0.894401 0.4472 0)
(0.894401 0.447199 0)
(0.894403 0.447199 0)
(0.894405 0.447197 0)
(0.894407 0.447195 0)
(0.894412 0.447189 0)
(0.894421 0.447179 0)
(0.894434 0.447164 0)
(0.894456 0.447136 0)
(0.894492 0.44709 0)
(0.894548 0.447015 0)
(0.894638 0.446896 0)
(0.894775 0.446711 0)
(0.894983 0.446432 0)
(0.895306 0.446022 0)
(0.895772 0.445424 0)
(0.896461 0.444589 0)
(0.89744 0.443438 0)
(0.898819 0.441893 0)
(0.900715 0.439872 0)
(0.903279 0.437295 0)
(0.906666 0.434093 0)
(0.911063 0.430214 0)
(0.916647 0.425665 0)
(0.923586 0.420477 0)
(0.93204 0.414765 0)
(0.942103 0.408706 0)
(0.953815 0.402569 0)
(0.967131 0.396683 0)
(0.981899 0.391452 0)
(0.997828 0.387313 0)
(1.01452 0.384684 0)
(0.8944 0.4472 0)
(0.8944 0.4472 0)
(0.8944 0.4472 0)
(0.8944 0.4472 0)
(0.8944 0.4472 0)
(0.8944 0.4472 0)
(0.8944 0.4472 0)
(0.8944 0.4472 0)
(0.8944 0.4472 0)
(0.8944 0.4472 0)
(0.8944 0.4472 0)
(0.8944 0.4472 0)
(0.8944 0.4472 0)
(0.8944 0.4472 0)
(0.8944 0.4472 0)
(0.8944 0.4472 0)
(0.8944 0.4472 0)
(0.8944 0.4472 0)
(0.8944 0.4472 0)
(0.8944 0.4472 0)
(0.8944 0.4472 0)
(0.8944 0.4472 0)
(0.8944 0.4472 0)
(0.8944 0.4472 0)
(0.8944 0.4472 0)
(0.8944 0.4472 0)
(0.8944 0.4472 0)
(0.8944 0.4472 0)
(0.8944 0.4472 0)
(0.8944 0.4472 0)
(0.8944 0.4472 0)
(0.8944 0.4472 0)
(0.8944 0.4472 0)
(0.8944 0.4472 0)
(0.8944 0.4472 0)
(0.8944 0.4472 0)
(0.8944 0.4472 0)
(0.8944 0.4472 0)
(0.8944 0.4472 0)
(0.8944 0.4472 0)
(0.8944 0.4472 0)
(0.8944 0.4472 0)
(0.8944 0.4472 0)
(0.894401 0.4472 0)
(0.894402 0.4472 0)
(0.894402 0.447199 0)
(0.894404 0.447198 0)
(0.894406 0.447196 0)
(0.89441 0.447192 0)
(0.894417 0.447185 0)
(0.894428 0.447171 0)
(0.894446 0.447151 0)
(0.894475 0.447115 0)
(0.894522 0.447057 0)
(0.894594 0.446963 0)
(0.894707 0.446818 0)
(0.894881 0.446601 0)
(0.895141 0.446275 0)
(0.895528 0.445812 0)
(0.896093 0.445151 0)
(0.896897 0.444245 0)
(0.898034 0.443033 0)
(0.899594 0.441442 0)
(0.901708 0.439415 0)