/*--------------------------------*- C++ -*----------------------------------*\
  =========                 |
  \\      /  F ield         | OpenFOAM: The Open Source CFD Toolbox
   \\    /   O peration     | Website:  https://openfoam.org
    \\  /    A nd           | Version:  6
     \\/     M anipulation  |
\*---------------------------------------------------------------------------*/
FoamFile
{
    version     2.0;
    format      ascii;
    class       volScalarField;
    location    "3.96";
    object      p;
}
// * * * * * * * * * * * * * * * * * * * * * * * * * * * * * * * * * * * * * //

dimensions      [1 -1 -2 0 0 0 0];

internalField   nonuniform List<scalar> 
10000
(
1
1
1
1
1
1
1
1
1
1
1
1
1
1
1
1
1
1
1
1
1
1
1
1
1
1
1
1
1
1
1
1
1
1
1
1
1
1
1
1
1
1
1
1.00001
1.00001
1.00001
1.00001
1.00001
1
0.999999
0.99999
0.999981
0.99997
0.999963
0.999959
0.999964
0.999978
1
1.00004
1.00009
1.00015
1.00022
1.0003
1.00038
1.00045
1.00053
1.0006
1.00065
1.00069
1.00072
1.00072
1.00071
1.00068
1.00063
1.00057
1.0005
1.00042
1.00034
1.00027
1.0002
1.00014
1.00009
1.00005
1.00002
1
0.999989
0.999983
0.999982
0.999983
0.999986
0.999988
0.999991
0.999994
0.999996
0.999997
0.999998
0.999999
0.999999
1
1
1
1
1
1
1
1
1
1
1
1
1
1
1
1
1
0.999999
1
0.999999
1
1
1
1
1
0.999999
1
1
0.999999
1
1
1
1
1
1
1
1
1
1
1
1
1
1
1
1.00001
1.00001
1.00001
1.00001
1.00001
1.00001
1.00001
1
0.999993
0.999983
0.999976
0.999974
0.999982
1
1.00004
1.0001
1.00017
1.00026
1.00037
1.00049
1.00061
1.00074
1.00086
1.00097
1.00106
1.00114
1.00119
1.00122
1.00121
1.00118
1.00112
1.00104
1.00093
1.00082
1.00069
1.00057
1.00045
1.00034
1.00024
1.00016
1.0001
1.00005
1.00002
0.999995
0.999984
0.999979
0.999979
0.999981
0.999985
0.999988
0.999991
0.999994
0.999996
0.999997
0.999998
0.999999
0.999999
1
1
1
1
1
1
1
1
1
1
1
1
1
1
1
1
0.999999
1
1
1
1
1
1
1
0.999999
1
1
1
1
1
1
0.999999
1
1
1
1
1
1
1
1
1
1
1.00001
1.00001
1.00001
1.00002
1.00002
1.00002
1.00002
1.00002
1.00001
1
0.999995
0.999995
1.00001
1.00004
1.00009
1.00017
1.00028
1.00042
1.00059
1.00078
1.00097
1.00118
1.00138
1.00156
1.00173
1.00187
1.00197
1.00203
1.00204
1.00202
1.00195
1.00183
1.00169
1.00151
1.00132
1.00113
1.00093
1.00074
1.00057
1.00041
1.00029
1.00018
1.0001
1.00005
1.00001
0.999989
0.999979
0.999975
0.999976
0.99998
0.999984
0.999988
0.999992
0.999994
0.999996
0.999998
0.999999
0.999999
1
1
1
1
1
1
1
1
1
1
1
1
1
1
1
1
0.999999
1
1
0.999999
1
1
1
1
1
0.999999
1
1
0.999999
1
1
0.999999
0.999999
1
1
1
0.999999
1
1
1
1
1.00001
1.00001
1.00001
1.00002
1.00003
1.00003
1.00003
1.00003
1.00003
1.00002
1.00002
1.00002
1.00004
1.00008
1.00015
1.00027
1.00043
1.00063
1.00088
1.00116
1.00147
1.0018
1.00213
1.00244
1.00273
1.00298
1.00318
1.00332
1.00338
1.00338
1.00331
1.00317
1.00297
1.00272
1.00243
1.00212
1.0018
1.00149
1.00119
1.00092
1.00068
1.00048
1.00032
1.0002
1.0001
1.00004
1
0.999982
0.999973
0.999972
0.999975
0.999979
0.999984
0.999989
0.999992
0.999995
0.999997
0.999998
0.999999
0.999999
0.999999
1
1
1
1
1
1
1
1
1
1
1
1
1
1
1
1
1
0.999999
1
1
0.999999
0.999999
1
0.999996
1
1
0.999998
1
1
1
1
1
1
1
0.999999
1
1
1
1
1.00001
1.00001
1.00002
1.00003
1.00004
1.00005
1.00005
1.00005
1.00005
1.00005
1.00005
1.00008
1.00013
1.00022
1.00037
1.00059
1.00087
1.00122
1.00164
1.00211
1.00262
1.00314
1.00366
1.00415
1.00459
1.00496
1.00525
1.00544
1.00551
1.00548
1.00534
1.00508
1.00474
1.00432
1.00385
1.00335
1.00284
1.00235
1.00188
1.00146
1.00109
1.00079
1.00053
1.00034
1.0002
1.0001
1.00003
0.999994
0.999975
0.999968
0.999969
0.999974
0.999979
0.999985
0.999989
0.999993
0.999996
0.999997
0.999998
0.999999
0.999999
1
1
1
1
1
1
1
1
1
1
1
1
1
0.999999
1
0.999999
1
1
0.999999
1
0.999997
1
1
0.999997
0.999999
1
1
0.999999
0.999999
1
1
0.999999
0.999999
1
1
1
1
1
1.00001
1.00001
1.00002
1.00003
1.00004
1.00005
1.00006
1.00007
1.00007
1.00008
1.00008
1.00011
1.00017
1.00029
1.00047
1.00075
1.00112
1.0016
1.00218
1.00286
1.0036
1.0044
1.00521
1.006
1.00674
1.0074
1.00796
1.00837
1.00863
1.00872
1.00864
1.00839
1.00797
1.00742
1.00676
1.00601
1.00522
1.00442
1.00365
1.00293
1.00228
1.00172
1.00124
1.00086
1.00056
1.00034
1.00018
1.00008
1.00002
0.999982
0.999968
0.999965
0.999968
0.999974
0.99998
0.999986
0.999991
0.999994
0.999996
0.999998
0.999999
0.999999
0.999999
1
1
1
1
1
1
1
1
1
1
1
1
0.999999
1
0.999998
1
0.999998
1
0.999999
0.999999
1
0.999996
1
0.999994
1
1
0.999994
0.999999
1
1
0.999997
0.999999
1
1
1
1
1.00001
1.00001
1.00002
1.00003
1.00004
1.00006
1.00008
1.00009
1.0001
1.00011
1.00012
1.00015
1.00021
1.00034
1.00056
1.00089
1.00136
1.00198
1.00276
1.00367
1.00471
1.00585
1.00704
1.00824
1.00941
1.0105
1.01146
1.01225
1.01283
1.01319
1.01331
1.01317
1.01277
1.01215
1.01133
1.01033
1.00919
1.00799
1.00678
1.0056
1.0045
1.0035
1.00265
1.00193
1.00135
1.0009
1.00056
1.00032
1.00016
1.00006
0.999999
0.999971
0.999962
0.999963
0.999968
0.999975
0.999982
0.999988
0.999992
0.999995
0.999997
0.999998
0.999999
0.999999
1
1
1
1
1
1
1
1
1
1
1
1
0.999998
1
0.999997
1
0.999997
1.00001
0.999991
1
1.00001
0.999988
1.00001
1
0.999995
1
0.999998
0.999999
1
1
0.999997
0.999999
1
1
1
1
1.00001
1.00002
1.00003
1.00004
1.00006
1.00008
1.0001
1.00012
1.00013
1.00015
1.00018
1.00024
1.00038
1.00061
1.001
1.00156
1.00232
1.0033
1.00449
1.00587
1.00741
1.00906
1.01076
1.01247
1.01411
1.01562
1.01694
1.01801
1.0188
1.01928
1.01944
1.01923
1.01871
1.01788
1.01674
1.01533
1.01372
1.01199
1.01021
1.00845
1.00679
1.00531
1.00403
1.00295
1.00208
1.0014
1.00089
1.00053
1.00028
1.00012
1.00003
0.99998
0.99996
0.999957
0.999962
0.99997
0.999978
0.999984
0.999989
0.999993
0.999996
0.999998
0.999998
0.999999
0.999999
1
1
1
1
1
1
1
1
1
1
1
0.999999
1
1
0.999997
1
0.999999
0.999995
1.00001
1
0.999992
0.999996
1.00002
0.999986
0.999994
1.00001
0.999997
0.999994
1
1
0.999998
1
1
1
1.00001
1.00001
1.00002
1.00004
1.00006
1.00008
1.00011
1.00014
1.00016
1.00018
1.00021
1.00027
1.0004
1.00064
1.00105
1.00168
1.00257
1.00376
1.00523
1.00698
1.00896
1.01112
1.0134
1.01571
1.01799
1.02015
1.02211
1.0238
1.02516
1.02615
1.02675
1.02693
1.02671
1.02613
1.02512
1.0237
1.02192
1.01984
1.01751
1.01502
1.01251
1.01012
1.00794
1.00603
1.00443
1.00314
1.00213
1.00138
1.00084
1.00046
1.00022
1.00008
0.999997
0.999962
0.999952
0.999955
0.999963
0.999972
0.99998
0.999986
0.999991
0.999995
0.999997
0.999998
0.999999
0.999999
1
1
1
1
1
1
1
1
1
1
0.999999
1
0.999997
1.00001
0.999989
1.00002
0.999981
1.00001
1.00001
0.999984
1.00001
0.999987
1.00001
0.999999
0.999985
1.00001
1.00001
0.999987
0.999999
1.00001
1
0.999999
1
1.00001
1.00001
1.00002
1.00003
1.00005
1.00008
1.00011
1.00015
1.00018
1.00021
1.00024
1.00029
1.00041
1.00064
1.00105
1.00172
1.00271
1.00407
1.00581
1.00793
1.01038
1.01308
1.01595
1.01889
1.02183
1.02465
1.02727
1.02959
1.03153
1.03305
1.03413
1.03476
1.03496
1.0348
1.03424
1.03322
1.0318
1.0299
1.0275
1.02464
1.02144
1.01809
1.01479
1.01168
1.00891
1.00657
1.00468
1.0032
1.00209
1.00129
1.00074
1.00038
1.00016
1.00003
0.99997
0.999948
0.999947
0.999955
0.999965
0.999975
0.999983
0.999989
0.999993
0.999996
0.999997
0.999998
0.999999
0.999999
1
1
1
1
0.999999
1
0.999998
1
0.999999
0.999998
1
0.999994
1.00001
0.999994
1.00001
0.999984
1.00001
1.00002
0.999966
1.00002
1.00002
0.999957
1.00003
1.00001
0.99998
1.00001
1
0.999989
1.00001
1.00001
0.999996
0.999999
1.00001
1.00002
1.00003
1.00004
1.00007
1.00011
1.00015
1.00019
1.00023
1.00026
1.00031
1.0004
1.00061
1.001
1.00167
1.00271
1.00419
1.00617
1.00863
1.01153
1.01476
1.01822
1.02178
1.02531
1.02871
1.03187
1.03469
1.03708
1.03896
1.04033
1.0412
1.04166
1.0418
1.04171
1.04133
1.04073
1.03976
1.03819
1.03599
1.03304
1.02943
1.02537
1.02105
1.01683
1.01297
1.00963
1.00689
1.00473
1.00312
1.00195
1.00115
1.00061
1.00028
1.00009
0.999989
0.999948
0.999939
0.999945
0.999956
0.999968
0.999978
0.999986
0.999991
0.999994
0.999996
0.999998
0.999999
0.999999
1
0.999999
1
1
1
1
0.999999
1
0.999998
1
1
0.999997
0.999994
1.00002
0.99997
1.00002
0.999992
0.999999
1.00001
0.999976
1.00005
0.999955
0.999995
1.00005
0.999969
0.999987
1.00002
0.999995
0.999991
1.00001
1
1
1.00001
1.00003
1.00004
1.00006
1.0001
1.00014
1.0002
1.00024
1.00028
1.00033
1.0004
1.00057
1.00091
1.00153
1.00257
1.00411
1.00626
1.00901
1.01232
1.01606
1.02007
1.02417
1.0282
1.03202
1.0355
1.03854
1.04105
1.04295
1.04421
1.04488
1.04509
1.04504
1.04492
1.04485
1.04492
1.04515
1.04514
1.04476
1.04371
1.04155
1.03833
1.03401
1.02895
1.02366
1.01851
1.0139
1.01002
1.00694
1.0046
1.00291
1.00174
1.00096
1.00047
1.00018
1.00003
0.999956
0.999933
0.999935
0.999946
0.99996
0.999972
0.999981
0.999988
0.999993
0.999994
0.999997
0.999998
0.999999
0.999999
1
1
0.999999
1
1
1
1
0.999998
1
1
1
0.999989
1.00003
0.99995
1.00004
1.00002
0.999932
1.00007
0.999978
0.999962
1.00007
0.999945
1.00001
1.00003
0.999956
1.00001
1.00003
0.999989
0.999991
1.00001
1.00001
1.00001
1.00003
1.00005
1.00009
1.00013
1.00018
1.00025
1.0003
1.00035
1.00041
1.00053
1.00081
1.00135
1.00231
1.00384
1.00606
1.00902
1.01267
1.01687
1.02138
1.02596
1.03037
1.03442
1.03796
1.04089
1.04312
1.04458
1.04522
1.04512
1.04441
1.0434
1.04239
1.04173
1.0416
1.04223
1.04345
1.04505
1.04686
1.04792
1.04792
1.04639
1.04295
1.03806
1.03204
1.02568
1.01963
1.01433
1.01004
1.00672
1.00429
1.0026
1.00147
1.00075
1.00033
1.00009
0.999978
0.999933
0.999926
0.999935
0.99995
0.999965
0.999976
0.999985
0.999991
0.999993
0.999996
0.999997
0.999999
0.999999
1
0.999999
1
1
0.999999
1
1
0.999998
1
0.999997
0.999996
1.00001
0.999985
1.00001
0.999978
1.00005
0.999931
1.00002
1.00008
0.99986
1.00009
1.00003
0.999902
1.00006
1.00001
0.999951
1.00003
1.00002
0.999976
1
1.00003
1.00002
1.00003
1.00007
1.00012
1.00017
1.00023
1.0003
1.00036
1.00042
1.0005
1.0007
1.00114
1.00198
1.0034
1.00559
1.00865
1.01255
1.01714
1.02211
1.02711
1.0318
1.03593
1.0393
1.04182
1.04342
1.04403
1.04361
1.04221
1.04
1.03731
1.03456
1.03221
1.03069
1.03028
1.03127
1.03352
1.03719
1.04147
1.04567
1.04926
1.05086
1.05017
1.04692
1.04124
1.03432
1.0269
1.02007
1.01426
1.00965
1.00625
1.00384
1.00222
1.00118
1.00055
1.0002
1.00002
0.999941
0.99992
0.999925
0.99994
0.999956
0.99997
0.999981
0.999988
0.999991
0.999994
0.999997
0.999998
0.999999
1
0.999999
1
1
0.999997
1.00001
0.999994
1
0.999999
0.999999
0.99999
1.00004
0.99993
1.00008
0.999962
0.999974
1.00008
0.999895
1.00008
1.00001
0.99989
1.00015
0.999941
0.999937
1.00009
0.999979
0.999967
1.00003
1.00001
0.999988
1.00002
1.00004
1.00005
1.00008
1.00015
1.00022
1.00029
1.00035
1.00042
1.00049
1.00063
1.00095
1.00163
1.00287
1.00491
1.00792
1.01196
1.01685
1.02225
1.02765
1.0326
1.03672
1.03978
1.04169
1.04242
1.04194
1.04022
1.03727
1.03325
1.02848
1.02346
1.01873
1.01486
1.01217
1.01116
1.01199
1.01496
1.02007
1.0268
1.03488
1.04271
1.04898
1.05289
1.05297
1.04973
1.04345
1.03545
1.02728
1.01972
1.0136
1.00894
1.00557
1.00328
1.0018
1.00088
1.00036
1.00009
0.999961
0.999918
0.999915
0.999929
0.999947
0.999963
0.999976
0.999984
0.999988
0.999992
0.999997
0.999997
1
0.999999
1
0.999999
1
0.999996
1.00001
0.99999
1.00001
0.999998
0.999989
1.00002
0.999997
0.999977
1.00002
1.00005
0.999854
1.00016
0.99996
0.999855
1.00024
0.999848
0.999968
1.00017
0.999857
1
1.00009
0.999948
0.999968
1.00006
1.00001
0.999996
1.00005
1.00009
1.00011
1.00018
1.00027
1.00035
1.00042
1.00049
1.00059
1.00081
1.0013
1.00231
1.00409
1.00691
1.01091
1.01599
1.02177
1.02761
1.03286
1.03701
1.03974
1.04097
1.04075
1.03913
1.03611
1.03168
1.02593
1.01914
1.01185
1.00465
0.998179
0.992908
0.989135
0.987236
0.987261
0.989848
0.995092
1.00356
1.01456
1.02678
1.0387
1.04815
1.05375
1.05499
1.05124
1.04445
1.03546
1.02646
1.0187
1.01248
1.00793
1.00477
1.00268
1.00138
1.00062
1.0002
1
0.999925
0.999908
0.999918
0.999936
0.999955
0.999969
0.999981
0.999984
0.999992
0.999995
0.999997
0.999999
0.999998
1
1
0.999998
1
0.999997
1
1
1
0.99998
1.00005
0.999926
1.00008
0.999928
1.00007
0.999939
0.999975
1.00016
0.999787
1.00007
1.00017
0.99974
1.00013
1.00007
0.999851
1.00008
1.00004
0.99993
1.00002
1.00006
1.00001
1.00002
1.00011
1.00016
1.00022
1.00031
1.00041
1.00048
1.00056
1.00071
1.00105
1.0018
1.00324
1.00573
1.0095
1.0146
1.02065
1.02697
1.03265
1.03697
1.03949
1.04013
1.039
1.03632
1.03216
1.02655
1.01946
1.01113
1.002
0.992849
0.98426
0.976912
0.970996
0.966882
0.964256
0.963402
0.964492
0.968422
0.975896
0.987417
1.00236
1.0191
1.03474
1.0473
1.05424
1.05585
1.0518
1.04363
1.03419
1.02482
1.01696
1.011
1.00675
1.0039
1.00209
1.001
1.00039
1.00008
0.999947
0.999906
0.999907
0.999925
0.999946
0.999962
0.999977
0.999981
0.99999
0.999991
0.999998
0.999996
1
0.999998
1
0.999995
1.00001
0.999987
1.00001
0.999999
0.99998
1.00003
0.999981
0.999969
1.00007
0.999961
0.999938
1.00017
0.999802
1.00011
1.00009
0.999719
1.00027
0.999978
0.999759
1.00024
0.99997
0.999884
1.00009
1.00002
0.999954
1.00004
1.00007
1.00004
1.00011
1.00022
1.00028
1.00035
1.00046
1.00055
1.00066
1.00086
1.00138
1.00248
1.00451
1.00786
1.01273
1.01892
1.02567
1.03194
1.03668
1.03924
1.03949
1.03762
1.03402
1.02894
1.02249
1.0146
1.00533
0.995097
0.984634
0.97483
0.966332
0.959525
0.954444
0.951218
0.949133
0.948183
0.947762
0.948978
0.952624
0.961109
0.974657
0.993362
1.01354
1.03246
1.04665
1.05486
1.05528
1.05063
1.04179
1.03159
1.0223
1.01481
1.0093
1.00551
1.00305
1.00154
1.00067
1.00021
0.999998
0.999916
0.999901
0.999915
0.999934
0.999956
0.99997
0.999979
0.999984
0.999993
0.999995
0.999996
1
0.999998
1
1
1
0.999997
1.00001
0.999997
0.99998
1.00006
0.999904
1.00009
0.999945
1.00007
0.999846
1.00019
0.999936
0.999836
1.00029
0.999831
0.999897
1.0003
0.999753
0.999977
1.00023
0.999843
0.999956
1.00012
0.999987
0.999964
1.00009
1.00012
1.00012
1.00022
1.00035
1.00042
1.0005
1.00061
1.00077
1.00108
1.00185
1.00339
1.00617
1.01055
1.0166
1.02368
1.03063
1.03607
1.03904
1.03921
1.03687
1.03253
1.02672
1.01966
1.01142
1.00182
0.991153
0.980045
0.96967
0.960819
0.954205
0.949622
0.947002
0.945642
0.945402
0.945195
0.94454
0.943028
0.94251
0.944903
0.953465
0.968332
0.988981
1.01165
1.03252
1.04668
1.05435
1.05437
1.04792
1.03834
1.02816
1.01924
1.01239
1.00753
1.00429
1.00226
1.00107
1.00041
1.00009
0.999945
0.999905
0.999906
0.999925
0.999948
0.999962
0.999973
0.99998
0.999994
0.99999
1
0.999994
1
0.999995
1.00001
0.999992
1.00001
1.00001
0.999968
1.00006
0.999938
1.00001
1.00006
0.999906
1.00008
0.999966
0.999959
1.00017
0.999765
1.00009
1.00021
0.999664
1.00012
1.0002
0.999716
1.00012
1.00009
0.999874
1.00004
1.00008
0.999976
1.00004
1.00016
1.00018
1.00022
1.00037
1.0005
1.00056
1.00067
1.0009
1.00139
1.00249
1.00461
1.00829
1.01384
1.02099
1.02857
1.03497
1.03877
1.03933
1.03683
1.03198
1.02559
1.01808
1.00966
1.0002
0.989634
0.978469
0.967776
0.959043
0.95296
0.949749
0.948473
0.948628
0.948995
0.950027
0.950454
0.950361
0.948106
0.945414
0.942745
0.944755
0.952235
0.969003
0.990458
1.01389
1.03397
1.04834
1.05343
1.0515
1.04402
1.03393
1.02405
1.01594
1.00994
1.00582
1.00318
1.00158
1.00068
1.00022
0.999999
0.99992
0.999903
0.99992
0.999937
0.999958
0.999964
0.999983
0.999986
0.999992
0.999999
0.999994
1
0.999997
1
0.999999
1
0.999999
0.999984
1.00006
0.999889
1.00013
0.999918
1.00003
0.99994
1.00015
0.999808
1.00015
0.999971
0.999853
1.00028
0.999858
0.999771
1.00038
0.999922
0.999746
1.00022
1.00003
0.999892
1.00007
1.00011
1.00004
1.00012
1.00025
1.00029
1.00037
1.00053
1.00064
1.00077
1.00109
1.00182
1.00335
1.00618
1.01091
1.01769
1.02568
1.03312
1.03816
1.03964
1.03748
1.03243
1.02555
1.01768
1.0091
0.99993
0.989812
0.979054
0.968358
0.959542
0.953867
0.951946
0.952783
0.954967
0.956618
0.957199
0.957075
0.956858
0.956289
0.954735
0.951351
0.947475
0.944947
0.948061
0.957751
0.974877
0.996526
1.02011
1.03776
1.04903
1.05188
1.04764
1.03886
1.02885
1.01976
1.01268
1.00764
1.00431
1.00223
1.00103
1.00039
1.00008
0.999945
0.99991
0.999914
0.999929
0.999955
0.999962
0.999981
0.999979
0.999999
0.999988
1
0.999995
1
0.999997
1
1.00001
0.999964
1.00008
0.999895
1.00009
0.99997
0.99996
1.00009
0.999853
1.00018
0.999892
0.999903
1.00024
0.99982
0.999982
1.00019
0.99978
1.00003
1.00025
0.999725
0.999982
1.0002
0.999934
0.99995
1.00012
1.00011
1.00009
1.00026
1.00038
1.00043
1.00053
1.00069
1.00091
1.00138
1.00238
1.00445
1.00815
1.01407
1.02196
1.03029
1.03683
1.0398
1.03858
1.0338
1.02662
1.01835
1.00959
1.00058
0.991094
0.980986
0.970679
0.96162
0.955925
0.954443
0.956983
0.961105
0.965586
0.967885
0.968088
0.965542
0.963143
0.960256
0.957873
0.953388
0.949465
0.945493
0.9471
0.952023
0.96606
0.985001
1.00678
1.02689
1.04236
1.04959
1.04895
1.0425
1.03311
1.02357
1.01559
1.00968
1.00563
1.00303
1.00148
1.00062
1.00018
0.999988
0.999924
0.999908
0.999929
0.999944
0.999964
0.999967
0.999985
0.999992
0.999987
1.00001
0.999988
1.00001
0.999996
1
1
0.999984
1.00006
0.999882
1.00016
0.999856
1.00007
0.999995
0.999982
1.00002
1.00005
0.999766
1.00034
0.999923
0.999655
1.00033
1.00011
0.999628
1.00018
1.00017
0.999762
1.00006
1.00013
0.999978
1.00001
1.00016
1.00014
1.00022
1.0004
1.00051
1.00058
1.00073
1.00107
1.00175
1.00313
1.00585
1.01055
1.01768
1.0264
1.03441
1.03931
1.03971
1.03582
1.02878
1.02012
1.01104
1.00199
0.992987
0.983634
0.974099
0.964916
0.95863
0.95686
0.960065
0.965995
0.972186
0.976626
0.978945
0.979033
0.976199
0.972007
0.967296
0.962772
0.956939
0.950474
0.944414
0.941665
0.946238
0.95799
0.976373
0.996076
1.01788
1.03459
1.04566
1.04851
1.04477
1.03657
1.02711
1.01852
1.01181
1.00707
1.00395
1.00202
1.00092
1.00033
1.00006
0.999941
0.999915
0.999925
0.999935
0.999954
0.999964
0.99999
0.999977
1
0.99999
0.999999
1
0.999993
1.00001
0.999967
1.00007
0.999887
1.00013
0.999907
1.00004
0.999993
0.999939
1.00019
0.999738
1.00015
1.00001
0.999976
1.00007
0.999805
1.00008
1.00028
0.99973
0.999775
1.00038
0.999995
0.999802
1.00011
1.00012
0.999993
1.00012
1.00026
1.00026
1.00036
1.00054
1.00068
1.00084
1.0013
1.00222
1.00408
1.00755
1.01336
1.02162
1.03065
1.03765
1.04032
1.03806
1.03178
1.02305
1.01348
1.00411
0.995259
0.986563
0.977889
0.969185
0.962047
0.959044
0.961591
0.968573
0.975756
0.981351
0.983442
0.984072
0.982357
0.980152
0.976203
0.973525
0.970365
0.966804
0.958464
0.949683
0.940057
0.940526
0.94761
0.964648
0.986832
1.00871
1.02756
1.04073
1.047
1.04572
1.0392
1.03026
1.02138
1.01401
1.0086
1.00494
1.00263
1.00126
1.00052
1.00014
0.999976
0.999929
0.999917
0.999939
0.999943
0.999973
0.999974
0.999985
1
0.999982
1.00001
0.999986
1.00001
0.999993
0.999999
1.00003
0.999907
1.00017
0.999808
1.00012
0.999985
0.999952
1.00012
0.999789
1.00009
1.00031
0.999493
1.00012
1.00034
0.999728
0.999972
1.00023
0.999789
0.999964
1.00022
0.999886
0.999909
1.00012
1.00014
1.00008
1.00021
1.00033
1.00038
1.00054
1.00074
1.001
1.00163
1.00285
1.00524
1.00957
1.01653
1.02563
1.03438
1.03974
1.03992
1.03517
1.02694
1.0171
1.00707
0.997931
0.989524
0.981554
0.973806
0.966298
0.9617
0.962133
0.968262
0.976192
0.981918
0.982167
0.978442
0.973165
0.967808
0.964041
0.962188
0.964461
0.968241
0.971931
0.969222
0.961638
0.950833
0.942071
0.942206
0.953152
0.975374
0.998267
1.02019
1.03552
1.04444
1.04563
1.04098
1.03286
1.024
1.0162
1.0102
1.006
1.00329
1.00165
1.00073
1.00024
1.00003
0.99994
0.999923
0.999938
0.999949
0.999966
0.999967
0.999997
0.99998
1
0.999997
0.999991
1.00002
0.999969
1.00006
0.999906
1.00012
0.999906
1.00004
0.999976
1.00006
0.999979
0.999839
1.00024
0.999918
1.00006
0.999743
1.00012
1.00033
0.999727
0.999694
1.00033
1.00021
0.999708
1.00003
1.00016
0.999933
0.999973
1.00015
1.00018
1.00015
1.00032
1.00042
1.00054
1.00077
1.00117
1.00205
1.00362
1.0066
1.01186
1.01992
1.02945
1.03733
1.0406
1.03835
1.03141
1.02177
1.01123
1.00122
0.992587
0.984915
0.977982
0.971181
0.965302
0.962943
0.96665
0.973894
0.97901
0.978135
0.96909
0.955412
0.940246
0.929612
0.923839
0.926059
0.934506
0.948449
0.960932
0.969807
0.968473
0.963128
0.951363
0.946316
0.950514
0.965216
0.988213
1.01097
1.0297
1.04082
1.04477
1.04197
1.03488
1.02627
1.01823
1.01178
1.00712
1.004
1.00208
1.00096
1.00037
1.00009
0.999961
0.999936
0.999928
0.999952
0.999953
0.99998
0.999981
0.999986
1
0.999983
1.00001
0.999986
1.00001
0.999996
0.999967
1.00011
0.999817
1.00016
0.999975
0.999907
1.0001
0.99987
1.00026
0.999853
0.999685
1.00045
1.00002
0.999702
1.00009
1.00001
0.999962
1.00017
0.999889
0.999819
1.00018
1.00018
1
0.999993
1.00017
1.00022
1.00032
1.0005
1.00061
1.00086
1.0014
1.00255
1.00454
1.00816
1.01438
1.02333
1.03285
1.03932
1.04039
1.0359
1.02718
1.01655
1.00568
0.99605
0.988123
0.981479
0.975603
0.969918
0.965365
0.965093
0.970376
0.975215
0.973064
0.959545
0.937183
0.910146
0.885646
0.869378
0.864333
0.871847
0.889229
0.914549
0.938521
0.958124
0.966559
0.965842
0.959201
0.952458
0.953221
0.961729
0.981207
1.00285
1.02303
1.03663
1.043
1.04217
1.03637
1.02823
1.02009
1.01328
1.00821
1.00474
1.00254
1.00122
1.00052
1.00015
0.999999
0.999941
0.999932
0.999941
0.999959
0.999976
0.999974
0.999999
0.999986
0.999998
1.00001
0.999978
1.00004
0.999935
1.00009
0.999921
1.00001
1.00006
0.999976
0.999874
1.00014
1.00009
0.999801
1.00002
0.999954
1.00038
0.999799
0.999573
1.00034
1.00033
0.999699
0.999854
1.00018
0.999963
0.999942
1.00009
1.00006
1.00002
1.00014
1.00028
1.00028
1.00047
1.00074
1.00106
1.00171
1.00311
1.00558
1.00988
1.01701
1.02656
1.03563
1.04038
1.03932
1.03289
1.02279
1.01147
1.00063
0.991581
0.984604
0.979001
0.974296
0.96954
0.96576
0.967011
0.971134
0.969572
0.95436
0.924632
0.884816
0.842558
0.808965
0.789501
0.787888
0.80226
0.832174
0.870767
0.911016
0.941455
0.961239
0.965194
0.962778
0.956038
0.953302
0.961094
0.976753
0.997705
1.01717
1.03245
1.04059
1.0417
1.03727
1.02983
1.02176
1.0147
1.00926
1.00547
1.003
1.00151
1.00067
1.00023
1.00004
0.999951
0.999944
0.999942
0.999964
0.999963
0.999988
0.999985
0.999993
1
0.999989
1.00001
0.999979
1.00002
1.00002
0.999897
1.00017
0.999893
0.999901
1.00023
0.999874
1.00003
0.999842
1.00013
1.00028
0.999642
0.999863
1.00028
1.00004
1
0.999868
0.999839
1.00025
1.00017
0.999844
0.99994
1.00007
1.00008
1.00015
1.00029
1.00028
1.00039
1.0008
1.00127
1.00207
1.00372
1.00674
1.01171
1.0196
1.02943
1.03774
1.04063
1.03763
1.02961
1.01841
1.00672
0.996066
0.987902
0.9819
0.97731
0.973853
0.969344
0.966073
0.967225
0.967373
0.954694
0.921918
0.872955
0.814618
0.75767
0.714136
0.693334
0.696087
0.720337
0.764412
0.819473
0.876513
0.922018
0.95253
0.966054
0.966461
0.960588
0.95463
0.959513
0.972683
0.992959
1.01274
1.02867
1.03818
1.04087
1.03767
1.03096
1.02315
1.01598
1.01027
1.00618
1.00346
1.00179
1.00083
1.00032
1.00007
0.999976
0.999945
0.999954
0.999954
0.999971
0.999982
0.999983
0.999997
0.999994
0.999993
1.00001
0.999969
1.00005
0.999936
1.00004
1.00004
0.999857
1.00011
1.00012
0.999769
1
1.00021
0.999959
0.99999
0.999697
1.00016
1.00048
0.999639
0.999665
1.00031
1.00011
0.999897
1.00003
0.99993
0.999984
1.00018
1.00013
1.00007
1.00022
1.00036
1.00049
1.00087
1.00145
1.00246
1.00442
1.00797
1.01357
1.02201
1.03185
1.03923
1.04027
1.03557
1.02623
1.01426
1.00233
0.992063
0.98501
0.979806
0.976332
0.973813
0.969006
0.965494
0.965098
0.957857
0.929913
0.877379
0.807022
0.731204
0.661324
0.609721
0.587279
0.595169
0.631195
0.689351
0.761615
0.833817
0.896377
0.938822
0.963019
0.969247
0.965295
0.960472
0.960183
0.97029
0.988063
1.00853
1.02519
1.03587
1.03983
1.03777
1.03178
1.02427
1.01707
1.01119
1.00685
1.00392
1.00207
1.001
1.00041
1.00012
0.999998
0.999948
0.999953
0.999955
0.999975
0.999972
0.999996
0.999985
1
0.999999
0.999986
1.00002
0.99997
1
1.00007
0.999853
1.0001
1.00012
0.999688
1.00018
1.00007
0.999968
0.999941
0.999779
1.00034
1.0001
0.999754
0.999908
1.00001
1.00025
1.00011
0.999679
0.999921
1.00019
1.00005
1.00002
1.00006
1.00008
1.00022
1.00037
1.00055
1.00099
1.00171
1.00286
1.00515
1.00922
1.01539
1.02412
1.0338
1.04016
1.03951
1.03334
1.02293
1.01049
0.998286
0.988699
0.982773
0.978245
0.975857
0.973863
0.968153
0.963589
0.960175
0.942079
0.896722
0.824086
0.733769
0.641872
0.562109
0.505191
0.480301
0.492356
0.53829
0.609533
0.696227
0.78469
0.863817
0.922305
0.955988
0.968585
0.96723
0.964138
0.962879
0.970559
0.985443
1.00461
1.02188
1.03359
1.0386
1.03759
1.03233
1.02515
1.018
1.01198
1.00746
1.00434
1.00235
1.00116
1.0005
1.00017
1.00002
0.999965
0.999954
0.999965
0.999965
0.999983
0.999984
0.999994
0.999994
1
0.999993
1.00001
0.99998
1.00003
0.999969
0.999985
1.00012
0.999823
1.00004
1.00018
0.999891
0.999846
1.00014
1
1.00015
0.999908
0.999576
1.00037
1.00029
0.999698
0.999868
1.00006
1.00006
1.00013
1.00004
0.999911
0.999966
1.00013
1.00031
1.00035
1.00048
1.00107
1.00204
1.00329
1.00585
1.01036
1.0171
1.02587
1.03531
1.04063
1.03858
1.03104
1.0199
1.00712
0.994653
0.985943
0.981055
0.977211
0.97566
0.973677
0.966623
0.960521
0.951941
0.920896
0.857744
0.767493
0.661222
0.557104
0.472199
0.413252
0.38626
0.398626
0.449437
0.530143
0.628207
0.732321
0.827716
0.902702
0.948388
0.967265
0.96943
0.964584
0.963733
0.970518
0.98456
1.00209
1.01907
1.03144
1.03736
1.03721
1.03262
1.02582
1.01877
1.01267
1.008
1.00473
1.00261
1.00132
1.0006
1.00022
1.00004
0.999978
0.999965
0.999963
0.999969
0.999984
0.999981
0.999999
0.999989
0.999999
1.00001
0.99998
1.00003
0.999981
0.999981
1.00008
0.999891
0.999999
1.0002
0.999767
0.99999
1.00017
0.999911
1.00015
0.999732
1.00002
1.00016
1.0001
0.999953
0.999726
0.999973
1.00034
1.00008
0.999739
0.999897
1.00015
1.00013
1.00005
1.00024
1.00041
1.00053
1.00115
1.00232
1.00372
1.00653
1.01145
1.01863
1.02727
1.0364
1.04076
1.03765
1.0288
1.01723
1.00421
0.991485
0.983708
0.979743
0.97676
0.9755
0.972827
0.965004
0.956386
0.940229
0.895952
0.817653
0.714549
0.5974
0.486507
0.401356
0.345059
0.317735
0.327215
0.377755
0.462712
0.569578
0.685039
0.79348
0.880224
0.937548
0.965152
0.972117
0.96708
0.9646
0.969739
0.983149
1.00035
1.01704
1.02964
1.03623
1.03677
1.03274
1.02629
1.01936
1.01324
1.00846
1.00507
1.00283
1.00146
1.00068
1.00027
1.00007
0.999987
0.999974
0.999964
0.999977
0.999975
0.999993
0.999986
1
0.999996
0.999998
1
0.999999
0.999994
1.00002
0.999983
0.999976
1.00012
0.99984
1.00004
1.0001
0.999974
0.999871
1.00012
0.999909
1.00001
1.00031
0.999687
0.99979
1.00029
1.00014
0.99989
0.999919
0.999904
0.999985
1.00019
1.00013
0.999928
1.00014
1.00049
1.00064
1.00124
1.00254
1.00414
1.00715
1.01244
1.01988
1.0284
1.03706
1.04071
1.03681
1.02672
1.01499
1.00175
0.988847
0.981861
0.978764
0.976913
0.975047
0.971429
0.963926
0.951161
0.924961
0.869506
0.78187
0.671969
0.549897
0.436469
0.35412
0.303549
0.277858
0.283764
0.330755
0.416089
0.528109
0.650457
0.766136
0.860325
0.925092
0.960665
0.971469
0.969564
0.9668
0.970391
0.982049
0.998698
1.01536
1.02815
1.03518
1.03626
1.03271
1.02657
1.01978
1.01367
1.00883
1.00535
1.00303
1.0016
1.00076
1.00032
1.0001
1
0.999978
0.999973
0.999974
0.999982
0.999989
0.99999
0.999998
0.999996
0.999997
1.00001
0.999986
1.00002
0.999991
0.999987
1.00005
0.999924
1.00001
1.00012
0.999877
0.999931
1.00022
0.999809
1.00012
0.999979
0.999965
0.999903
1.00005
1.00023
0.999947
0.999674
0.999999
1.00027
1.00006
0.999916
0.999963
0.999977
1.00021
1.00053
1.00061
1.00125
1.00276
1.00457
1.00767
1.01322
1.02083
1.02931
1.03732
1.04065
1.03604
1.02501
1.01319
0.999684
0.986948
0.980155
0.978071
0.977536
0.974311
0.969974
0.9633
0.944761
0.907072
0.844049
0.753771
0.643255
0.521601
0.409194
0.33037
0.28544
0.262689
0.266185
0.308327
0.390896
0.502981
0.627286
0.745871
0.845199
0.916347
0.957
0.970072
0.969928
0.96767
0.971084
0.98195
0.99774
1.01401
1.02688
1.03421
1.03571
1.03255
1.02669
1.02005
1.01398
1.00911
1.00557
1.0032
1.00171
1.00084
1.00036
1.00012
1.00002
0.999988
0.999978
0.999976
0.999986
0.999985
0.999996
0.999994
0.999997
1
0.999994
1.00001
0.999998
0.999995
1.00001
0.999982
0.999989
1.00009
0.999847
1.00006
1.0001
0.999938
0.999874
1.00018
0.999997
0.999755
1.00023
1.00012
0.999763
0.999916
1.00011
1.00011
1.00003
0.999858
0.999893
1.0001
1.0001
1.00018
1.00047
1.00061
1.00128
1.00291
1.00492
1.00811
1.01378
1.02155
1.02995
1.03733
1.04055
1.03538
1.02391
1.0116
0.998176
0.985831
0.97842
0.977591
0.978326
0.973807
0.968813
0.962061
0.937616
0.889788
0.821911
0.733591
0.626858
0.509398
0.400987
0.325446
0.284668
0.265923
0.269653
0.307678
0.384738
0.491866
0.612818
0.731062
0.83302
0.909533
0.954075
0.970342
0.970869
0.968025
0.971038
0.981791
0.997229
1.01313
1.02593
1.03343
1.03519
1.03231
1.02667
1.02018
1.01417
1.00931
1.00574
1.00332
1.0018
1.0009
1.0004
1.00015
1.00003
0.999999
0.999981
0.999983
0.999984
0.999991
0.999993
0.999995
1
0.999996
1
1
0.999991
1.00001
0.999992
0.999992
1.00004
0.999928
1.00004
1.00007
0.999909
0.999914
1.00024
0.999861
0.99995
1.00005
1.00009
0.999919
0.999883
1.0001
1.00012
0.999951
0.999866
0.999907
1.00006
1.00018
1.00001
1.00001
1.00044
1.00074
1.00136
1.00295
1.00516
1.00848
1.01415
1.02204
1.03032
1.03725
1.04027
1.03502
1.02337
1.01024
0.997337
0.985229
0.976966
0.977064
0.978795
0.974293
0.968061
0.958959
0.931023
0.877663
0.805855
0.719071
0.617531
0.507037
0.404796
0.33232
0.294551
0.280902
0.287782
0.32399
0.39524
0.495517
0.611228
0.726923
0.827943
0.904412
0.949968
0.969053
0.971314
0.968945
0.971565
0.981776
0.996895
1.01264
1.02534
1.03285
1.03471
1.032
1.02654
1.02018
1.01424
1.00941
1.00584
1.00341
1.00186
1.00095
1.00043
1.00017
1.00005
1.00001
0.999989
0.999986
0.999988
0.999992
0.999994
0.999997
0.999999
0.999997
1
0.999995
1
1
0.999993
1.00001
0.99999
0.999983
1.00007
0.999894
1.00002
1.0001
0.99995
0.999874
1.00011
1.00012
0.999815
0.999968
1.00015
1.00003
0.999883
0.999924
1.00006
1.00005
0.999973
1
0.999966
1.00005
1.00044
1.00077
1.00135
1.0029
1.00532
1.00877
1.01432
1.02223
1.0305
1.03712
1.03986
1.03495
1.02326
1.00942
0.996854
0.9851
0.976267
0.976043
0.978714
0.975853
0.967786
0.954619
0.926065
0.872844
0.79814
0.709893
0.611994
0.509224
0.414418
0.345882
0.311498
0.303357
0.315229
0.352257
0.419719
0.514204
0.625848
0.738232
0.835213
0.906232
0.948526
0.96693
0.969956
0.968892
0.972082
0.982157
0.997025
1.01254
1.02505
1.03243
1.03428
1.03164
1.02629
1.02005
1.01419
1.00941
1.00587
1.00345
1.0019
1.00098
1.00046
1.00019
1.00006
1.00002
0.999996
0.999989
0.999991
0.999993
0.999995
0.999998
0.999996
1
0.999997
1
1
0.999992