/*--------------------------------*- C++ -*----------------------------------*\
  =========                 |
  \\      /  F ield         | OpenFOAM: The Open Source CFD Toolbox
   \\    /   O peration     | Website:  https://openfoam.org
    \\  /    A nd           | Version:  6
     \\/     M anipulation  |
\*---------------------------------------------------------------------------*/
FoamFile
{
    version     2.0;
    format      ascii;
    class       surfaceScalarField;
    location    "1.82";
    object      phi;
}
// * * * * * * * * * * * * * * * * * * * * * * * * * * * * * * * * * * * * * //

dimensions      [0 3 -1 0 0 0 0];

internalField   nonuniform List<scalar> 
8193
(
0.197196
-0.360098
-0.172083
0.215849
-0.371337
0.230136
-0.37887
0.240657
-0.384001
0.247262
-0.387407
0.249801
-0.388866
0.248366
-0.38857
0.243409
-0.387092
0.235149
-0.38481
0.223758
-0.381593
0.209645
-0.377844
0.193457
-0.374668
0.175688
-0.373512
0.155711
-0.374194
0.131723
-0.372274
0.10194
-0.359387
0.0673613
-0.331426
0.0329999
-0.299234
0.00111657
-0.28693
-0.032691
-0.295027
-0.0673414
-0.295978
-0.099902
-0.296783
-0.129685
-0.302866
-0.156601
-0.312257
-0.180508
-0.322022
-0.201459
-0.330389
-0.219737
-0.336911
-0.235637
-0.342113
-0.249521
-0.346636
-0.261447
-0.351224
-0.271046
-0.356386
-0.277762
-0.362095
-0.281175
-0.367793
-0.28108
-0.37285
-0.277591
-0.377253
-0.270612
-0.380864
-0.260077
-0.383528
-0.245954
-0.385459
-0.227957
-0.38674
-0.204981
-0.38596
-0.378843
-0.17449
0.241144
-0.382445
-0.219543
0.256785
-0.390565
0.268439
-0.396718
0.275863
-0.399951
0.278746
-0.400837
0.27735
-0.399704
0.272214
-0.397002
0.263742
-0.393164
0.252008
-0.38824
0.237394
-0.38241
0.220555
-0.376368
0.202117
-0.371204
0.18209
-0.367775
0.15944
-0.364876
0.132223
-0.357189
0.0996698
-0.337552
0.064241
-0.305118
0.0303358
-0.272699
-0.0019493
-0.260146
-0.0368335
-0.263683
-0.0724932
-0.261841
-0.106721
-0.262033
-0.138864
-0.268162
-0.16841
-0.278146
-0.194673
-0.289257
-0.217337
-0.299385
-0.236368
-0.307829
-0.252398
-0.314481
-0.266281
-0.319791
-0.278601
-0.324798
-0.289314
-0.330669
-0.297914
-0.337863
-0.303858
-0.345885
-0.30675
-0.353975
-0.306511
-0.361819
-0.303115
-0.369235
-0.296455
-0.376158
-0.286418
-0.382803
-0.273098
-0.389039
-0.256551
-0.393479
-0.396554
-0.232101
0.278421
-0.401662
-0.259418
0.292136
-0.407267
0.300948
-0.411076
0.305013
-0.411862
0.304471
-0.410152
0.299866
-0.406652
0.291652
-0.401704
0.280106
-0.395561
0.265588
-0.38835
0.248617
-0.380418
0.2297
-0.372458
0.209308
-0.365541
0.187243
-0.359876
0.162217
-0.353189
0.132721
-0.339969
0.0988809
-0.314716
0.0634521
-0.279237
0.0297497
-0.246936
-0.00292798
-0.233673
-0.0378203
-0.233165
-0.0731975
-0.228939
-0.107681
-0.228084
-0.140786
-0.233638
-0.171898
-0.243677
-0.200168
-0.255734
-0.224652
-0.26782
-0.244977
-0.278692
-0.261609
-0.287432
-0.275414
-0.294113
-0.28729
-0.29977
-0.29775
-0.305982
-0.306793
-0.313746
-0.314042
-0.322964
-0.318974
-0.333043
-0.321291
-0.34346
-0.320897
-0.353849
-0.317695
-0.36415
-0.311585
-0.374589
-0.302535
-0.384966
-0.290401
-0.393999
-0.403461
-0.273688
0.31924
-0.416393
-0.304209
0.328839
-0.419269
0.333363
-0.420509
0.333205
-0.41888
0.328852
-0.414971
0.320744
-0.409417
0.309246
-0.402468
0.294726
-0.394371
0.277573
-0.38527
0.258214
-0.37556
0.23724
-0.366105
0.214939
-0.357684
0.190811
-0.349745
0.163515
-0.339187
0.13201
-0.320827
0.0972097
-0.291141
0.0620341
-0.253971
0.0288531
-0.222196
-0.00379444
-0.207869
-0.0383887
-0.203715
-0.0734883
-0.197207
-0.108215
-0.194897
-0.142356
-0.199181
-0.175284
-0.208574
-0.205957
-0.221046
-0.233031
-0.234937
-0.255683
-0.248504
-0.273895
-0.26005
-0.288288
-0.269033
-0.299859
-0.276135
-0.309676
-0.282887
-0.3184
-0.290715
-0.326041
-0.300196
-0.332164
-0.311196
-0.336341
-0.323209
-0.338401
-0.335624
-0.338357
-0.34821
-0.336115
-0.361307
-0.331531
-0.374773
-0.324609
-0.387174
-0.400985
-0.314651
0.35755
-0.425608
-0.347542
0.362416
-0.425972
0.362424
-0.424804
0.358262
-0.421236
0.350272
-0.415478
0.338774
-0.408116
0.324224
-0.399521
0.306946
-0.3898
0.287296
-0.379125
0.265814
-0.368078
0.243022
-0.357515
0.218949
-0.347736
0.192846
-0.337426
0.163526
-0.323067
0.130573
-0.300267
0.0955106
-0.267468
0.0610728
-0.229742
0.0286403
-0.198639
-0.00359271
-0.183051
-0.0373844
-0.175772
-0.0716868
-0.167104
-0.106225
-0.162846
-0.140957
-0.165187
-0.175257
-0.173242
-0.208232
-0.185273
-0.238365
-0.200263
-0.264273
-0.216357
-0.285267
-0.231183
-0.30137
-0.243507
-0.31332
-0.253321
-0.322538
-0.261489
-0.330359
-0.269546
-0.337423
-0.278782
-0.343697
-0.289755
-0.348787
-0.302337
-0.352401
-0.315829
-0.354533
-0.329729
-0.355216
-0.344348
-0.354447
-0.359588
-0.352001
-0.37424
-0.390845
-0.34759
0.392532
-0.429041
-0.387828
0.392709
-0.427435
0.388536
-0.424312
0.380478
-0.41905
0.368899
-0.411726
0.35419
-0.402932
0.336716
-0.392992
0.316815
-0.381977
0.294907
-0.37014
0.27157
-0.358221
0.247144
-0.346848
0.221393
-0.335756
0.193454
-0.323018
0.162465
-0.305136
0.128684
-0.278858
0.093941
-0.244219
0.0606051
-0.20685
0.0292121
-0.176491
-0.00213736
-0.15962
-0.0347198
-0.149673
-0.0679597
-0.138827
-0.101901
-0.132279
-0.136424
-0.1324
-0.171431
-0.138304
-0.206142
-0.14895
-0.239322
-0.163796
-0.269222
-0.181518
-0.294229
-0.199627
-0.313647
-0.215988
-0.327543
-0.22985
-0.337177
-0.240899
-0.344239
-0.25026
-0.350138
-0.25952
-0.355636
-0.269902
-0.360765
-0.282021
-0.365226
-0.295525
-0.368774
-0.309871
-0.371402
-0.325144
-0.373328
-0.341027
-0.374533
-0.356558
-0.374432
-0.374845
0.423694
-0.427194
-0.423809
0.419476
-0.423972
0.411271
-0.419197
0.399452
-0.412471
0.384466
-0.403909
0.366717
-0.394041
0.346547
-0.383107
0.32428
-0.371155
0.300446
-0.358635
0.27552
-0.346238
0.249639
-0.334258
0.222357
-0.321859
0.192844
-0.306745
0.160688
-0.285851
0.126712
-0.25718
0.0928704
-0.221918
0.0609847
-0.185581
0.0309287
-0.155983
0.00098474
-0.138028
-0.0302715
-0.125467
-0.0620525
-0.112703
-0.0945044
-0.104021
-0.128177
-0.101402
-0.163012
-0.104584
-0.198514
-0.11298
-0.233655
-0.126595
-0.267167
-0.14436
-0.29709
-0.164492
-0.321529
-0.18481
-0.339447
-0.203716
-0.351373
-0.219346
-0.358765
-0.231911
-0.363679
-0.242417
-0.36783
-0.252437
-0.372144
-0.263396
-0.376683
-0.275815
-0.381006
-0.289665
-0.384942
-0.304771
-0.388734
-0.320417
-0.39242
-0.335846
-0.353661
-0.39614
0.451074
-0.420207
-0.455888
0.442524
-0.415661
0.430391
-0.409581
0.415014
-0.401714
0.396869
-0.392286
0.376345
-0.381714
0.353754
-0.370145
0.329486
-0.357693
0.30405
-0.344925
0.277791
-0.332368
0.250629
-0.319896
0.222007
-0.306207
0.191303
-0.288954
0.158586
-0.265775
0.125061
-0.23583
0.0926241
-0.201012
0.0624912
-0.166176
0.0341435
-0.137419
0.00563463
-0.118236
-0.023863
-0.103513
-0.0534939
-0.0893531
-0.0840108
-0.0784466
-0.116117
-0.0728404
-0.149851
-0.0729504
-0.185018
-0.0784371
-0.221115
-0.0896246
-0.256947
-0.10615
-0.290836
-0.126726
-0.320723
-0.149562
-0.34445
-0.173178
-0.360987
-0.194589
-0.370958
-0.212364
-0.37636
-0.226153
-0.379577
-0.237152
-0.382581
-0.247208
-0.386366
-0.257833
-0.390881
-0.270054
-0.395729
-0.284049
-0.400897
-0.298729
-0.406393
-0.31332
-0.33031
-0.412349
0.474174
-0.408213
-0.483572
0.461495
-0.402724
0.445681
-0.395726
0.427058
-0.387108
0.406092
-0.377207
0.383135
-0.366304
0.358498
-0.354485
0.332612
-0.341975
0.305911
-0.329342
0.278573
-0.316853
0.25034
-0.303953
0.22067
-0.289067
0.189259
-0.270094
0.156605
-0.245493
0.124111
-0.215341
0.0934352
-0.181805
0.065305
-0.148826
0.0389362
-0.121007
0.0121228
-0.100436
-0.0149739
-0.084382
-0.0421684
-0.0689885
-0.0702647
-0.0559687
-0.0999312
-0.0475181
-0.131495
-0.0444065
-0.164703
-0.046884
-0.199738
-0.0548527
-0.236059
-0.0686821
-0.272255
-0.087965
-0.306277
-0.111561
-0.336234
-0.137839
-0.359551
-0.164511
-0.375132
-0.188678
-0.383935
-0.207943
-0.388159
-0.222273
-0.390437
-0.23309
-0.393004
-0.242314
-0.397116
-0.25196
-0.402507
-0.263735
-0.408707
-0.276761
-0.415687
-0.289832
-0.304988
-0.423867
0.492619
-0.39161
-0.506223
0.476195
-0.385566
0.457061
-0.378013
0.43561
-0.369088
0.412254
-0.359117
0.387294
-0.348249
0.36106
-0.336582
0.333968
-0.324415
0.306341
-0.312219
0.278186
-0.299945
0.249147
-0.286679
0.218821
-0.270806
0.18725
-0.250684
0.155251
-0.225558
0.124244
-0.196125
0.095584
-0.1645
0.0696898
-0.133707
0.0452646
-0.106647
0.0209916
-0.0854037
-0.00347586
-0.0682309
-0.0278665
-0.0519025
-0.0529486
-0.0371049
-0.0792774
-0.0262578
-0.10711
-0.0204396
-0.136517
-0.0200962
-0.167506
-0.0252041
-0.200964
-0.0352577
-0.236721
-0.0509208
-0.273527
-0.0721362
-0.309049
-0.0983681
-0.340277
-0.128012
-0.364273
-0.158104
-0.379887
-0.184471
-0.38848
-0.204572
-0.392412
-0.218841
-0.394593
-0.228657
-0.397975
-0.235997
-0.403549
-0.244539
-0.410831
-0.254881
-0.419023
-0.266139
-0.279528
-0.428156
0.506135
-0.371034
-0.523328
0.486525
-0.364765
0.46462
-0.35701
0.440884
-0.348212
0.415653
-0.338546
0.389174
-0.328046
0.361795
-0.316895
0.333921
-0.305438
0.305712
-0.293898
0.27703
-0.281924
0.247525
-0.268396
0.217014
-0.251874
0.185847
-0.231258
0.155009
-0.206441
0.125816
-0.178466
0.0991867
-0.149065
0.0755526
-0.120788
0.0536871
-0.0948947
0.0321798
-0.0732988
0.0107054
-0.0553519
-0.0104528
-0.0384488
-0.0320351
-0.0222632
-0.0545408
-0.00946633
-0.0778235
-0.00179112
-0.102526
0.00109699
-0.129283
-0.000794179
-0.158037
-0.00765778
-0.190191
-0.0187064
-0.225461
-0.035574
-0.26281
-0.0584848
-0.299934
-0.0871095
-0.333236
-0.119784
-0.358764
-0.152693
-0.375057
-0.180817
-0.384227
-0.201019
-0.388649
-0.214421
-0.391422
-0.222285
-0.396974
-0.226961
-0.405009
-0.233779
-0.414295
-0.242794
-0.253754
-0.425073
0.514686
-0.347286
-0.53469
0.492562
-0.341013
0.468639
-0.333488
0.443294
-0.325177
0.416783
-0.316105
0.389327
-0.306249
0.361292
-0.295922
0.332993
-0.285407
0.304521
-0.274697
0.27562
-0.263094
0.246034
-0.249479
0.21582
-0.232736
0.185559
-0.212294
0.15626
-0.18849
0.128969
-0.162413
0.104791
-0.135872
0.0833675
-0.109967
0.0640036
-0.085633
0.0453366
-0.0641303
0.0269668
-0.0457859
0.00931281
-0.0288239
-0.00832789
-0.0118071
-0.0266929
0.00261929
-0.0452615
0.0114559
-0.0648628
0.0163796
-0.086525
0.0175908
-0.111044
0.0146576
-0.138014
0.00716086
-0.168424
-0.00514507
-0.202995
-0.0227579
-0.24085
-0.0469505
-0.279873
-0.0773056
-0.315512
-0.112446
-0.342658
-0.147916
-0.359678
-0.177108
-0.369865
-0.196223
-0.375593
-0.207446
-0.381339
-0.21103
-0.38991
-0.213977
-0.400162
-0.220298
-0.228045
-0.412648
0.518411
-0.321195
-0.540416
0.494608
-0.315169
0.469515
-0.308318
0.443347
-0.300787
0.416211
-0.292466
0.388383
-0.283479
0.36024
-0.274224
0.331975
-0.264788
0.303562
-0.254941
0.274727
-0.243736
0.24542
-0.230279
0.215869
-0.213741
0.186791
-0.194047
0.159123
-0.171766
0.134042
-0.148241
0.111977
-0.124542
0.0927364
-0.101166
0.0757087
-0.0786395
0.0597099
-0.0576633
0.0440429
-0.039062
0.0291452
-0.0222057
0.0152893
-0.00550081
0.00227703
0.00886914
-0.0113086
0.0191168
-0.0262889
0.0263166
-0.0432675
0.0304455
-0.06289
0.0311085
-0.0856806
0.0277599
-0.111764
0.0197504
-0.14098
0.00629159
-0.174427
-0.0126324
-0.21205
-0.0377662
-0.251924
-0.0696027
-0.289206
-0.106612
-0.317806
-0.143435
-0.336027
-0.171887
-0.347549
-0.188777
-0.355147
-0.19527
-0.364836
-0.19513
-0.376414
-0.198587
-0.203036
-0.390342
0.517653
-0.293733
-0.54071
0.493238
-0.288321
0.467874
-0.282422
0.441559
-0.27574
0.414466
-0.268316
0.38692
-0.260405
0.359208
-0.25235
0.331397
-0.244009
0.303372
-0.234964
0.274937
-0.224183
0.246268
-0.211148
0.217707
-0.195204
0.190108
-0.176794
0.164498
-0.156671
0.14148
-0.135766
0.121078
-0.114585
0.1034
-0.0937184
0.0879968
-0.0731487
0.0741047
-0.0532752
0.0608098
-0.0347827
0.0481796
-0.0180324
0.0369127
-0.00207051
0.0273044
0.0113148
0.0175014
0.0224782
0.00664738
0.0314912
-0.00591149
0.0381232
-0.020884
0.0420294
-0.0389439
0.042625
-0.0605444
0.0390361
-0.0858534
0.0301852
-0.114297
0.0153106
-0.146151
-0.00548591
-0.18253
-0.0318625
-0.221099
-0.0657423
-0.25824
-0.103055
-0.287419
-0.138534
-0.307007
-0.164087
-0.319581
-0.176677
-0.33063
-0.17716
-0.343063
-0.178352
-0.179207
-0.358228
0.513013
-0.266229
-0.535818
0.489209
-0.261716
0.464386
-0.256633
0.438638
-0.250771
0.412194
-0.244281
0.385546
-0.237661
0.358669
-0.23072
0.331737
-0.223506
0.304304
-0.214973
0.276631
-0.204798
0.24886
-0.192342
0.221626
-0.177452
0.195921
-0.160933
0.172069
-0.142882
0.150808
-0.124655
0.13196
-0.105854
0.11557
-0.0873047
0.101153
-0.0684712
0.0883793
-0.0499201
0.0764427
-0.0318694
0.0647891
-0.0149417
0.054351
0.000321394
0.0453367
0.0128489
0.0374352
0.0235085
0.0293737
0.033328
0.0202457
0.041706
0.00890035
0.0485377
-0.00519352
0.0526149
-0.0224509
0.0529438
-0.0430208
0.0481779
-0.0663139
0.0368133
-0.0930836
0.0202912
-0.123361
-0.00177274
-0.15727
-0.0312108
-0.193879
-0.0650149
-0.228291
-0.101885
-0.256126
-0.133218
-0.274774
-0.154208
-0.289767
-0.157577
-0.303261
-0.159517
-0.157513
-0.318888
0.505
-0.239383
-0.526876
0.483185
-0.236755
0.459194
-0.231266
0.435253
-0.227144
0.409921
-0.220846
0.385136
-0.216231
0.359124
-0.209379
0.333671
-0.203891
0.30662
-0.194769
0.280392
-0.186268
0.253337
-0.173678
0.227695
-0.160742
0.203305
-0.145871
0.180532
-0.1297
0.160689
-0.114542
0.14223
-0.0971524
0.126957
-0.0817137
0.112895
-0.063929
0.101658
-0.0479612
0.0914354
-0.0306157
0.0825772
-0.0146837
0.0743063
0.000411846
0.0659903
0.0134488
0.0579895
0.0242958
0.0494232
0.0352168
0.0402873
0.0447291
0.0293231
0.053979
0.017006
0.0600203
0.00241698
0.0632505
-0.0138033
0.0607599
-0.0334605
0.0534879
-0.0547473
0.0392594
-0.0801896
0.0220195
-0.107363
-0.00501792
-0.139826
-0.0328655
-0.171234
-0.0701298
-0.204651
-0.098805
-0.227339
-0.129892
-0.247105
-0.135569
-0.262559
-0.141233
-0.139651
-0.277032
0.493248
-0.513443
0.474904
0.452369
0.431537
0.407862
0.385627
0.360729
0.337358
0.31072
0.286623
0.25973
0.236154
0.212274
0.19032
0.171244
0.151544
0.137259
0.12089
0.111023
0.0984481
0.0920591
0.0821078
0.0762194
0.0664032
0.058731
0.0487747
0.0392151
0.0295403
0.0168612
0.00644193
-0.0127335
-0.0262946
-0.0520706
-0.0685985
-0.10237
-0.123663
-0.160717
-0.182996
-0.205808
-0.223832
-0.237805
0.114486
-0.227571
0.100825
-0.259865
0.0813633
-0.293439
0.0575114
-0.32608
0.0321951
-0.354672
0.00784083
-0.376204
-0.0142721
-0.389516
-0.0324105
-0.395653
-0.0456373
-0.395821
-0.0537987
-0.389402
-0.0578473
-0.377829
-0.0573783
-0.362055
-0.0518811
-0.341281
-0.0399922
-0.316592
-0.0251765
-0.280762
-0.0046983
-0.247322
-0.176612
0.117737
-0.215741
0.103674
-0.242553
0.086173
-0.270487
0.0654339
-0.297818
0.0428824
-0.322724
0.0205551
-0.342861
-5.48196e-05
-0.356579
-0.0178699
-0.364549
-0.0321989
-0.367625
-0.0425101
-0.365049
-0.0485427
-0.357997
-0.0505428
-0.346909
-0.0482704
-0.33146
-0.0407699
-0.313422
-0.0273988
-0.285221
-0.0114159
-0.256434
-0.183427
0.119315
-0.204037
0.10621
-0.226502
0.0901829
-0.249561
0.0716117
-0.272495
0.0512704
-0.293928
0.0307508
-0.312382
0.0113843
-0.32599
-0.00598758
-0.33497
-0.0206259
-0.340104
-0.0315662
-0.340885
-0.0388991
-0.337442
-0.0424305
-0.33051
-0.042106
-0.319617
-0.03774
-0.306654
-0.0273167
-0.285852
-0.0138337
-0.261746
-0.190948
0.122925
-0.191574
0.109614
-0.210577
0.0945695
-0.230178
0.0776921
-0.249624
0.0593854
-0.268084
0.0405355
-0.284601
0.0225245
-0.29784
0.00612444
-0.307442
-0.0084882
-0.31362
-0.0202017
-0.316823
-0.0286345
-0.316469
-0.0337538
-0.312951
-0.0351766
-0.306151
-0.0334148
-0.297059
-0.0262639
-0.282613
-0.015452
-0.263396
-0.198702
0.125207
-0.179458
0.112703
-0.195813
0.0986179
-0.212314
0.0831323
-0.228886
0.0665348
-0.244838
0.0493107
-0.259444
0.0325691
-0.272019
0.0169597
-0.281774
0.0030351
-0.288848
-0.00895467
-0.293409
-0.0181284
-0.295522
-0.0245051
-0.294693
-0.0275669
-0.291347
-0.0277359
-0.285536
-0.0235497
-0.276079
-0.0154851
-0.261611
-0.205432
0.12813
-0.167449
0.115693
-0.18148
0.102379
-0.195771
0.0880697
-0.210041
0.0729059
-0.223882
0.0572188
-0.236784
0.0416233
-0.248371
0.0269283
-0.258071
0.0135595
-0.265659
0.00179106
-0.271173
-0.00797617
-0.274819
-0.0151928
-0.276265
-0.0197139
-0.275541
-0.0215459
-0.272555
-0.0195918
-0.267229
-0.0144053
-0.256548
-0.210344
0.129391
-0.156277
0.117909
-0.168469
0.105474
-0.180642
0.0922486
-0.192967
0.0783645
-0.205023
0.0640516
-0.216418
0.0496496
-0.226908
0.0358008
-0.236239
0.0229897
-0.24405
0.0116033
-0.250296
0.00173045
-0.2549
-0.00614071
-0.257943
-0.0117292
-0.259259
-0.0149741
-0.258543
-0.0148432
-0.256695
-0.0120316
-0.248974
-0.212447
0.130616
-0.145681
0.119481
-0.156166
0.107862
-0.166842
0.0956496
-0.177558
0.082906
-0.188078
0.0698039
-0.198137
0.0565882
-0.207578
0.043607
-0.216268
0.0313821
-0.224032
0.0202584
-0.230665
0.0105443
-0.236066
0.00227914
-0.240059
-0.00415337
-0.242833
-0.00848653
-0.243977
-0.0101325
-0.244718
-0.00915299
-0.239671
-0.211517
0.13005
-0.136231
0.120063
-0.145359
0.10936
-0.154445
0.0981226
-0.163739
0.0864416
-0.172924
0.0744447
-0.181787
0.0623227
-0.190244
0.050319
-0.198228
0.0387361
-0.205637
0.0279465
-0.212346
0.0182236
-0.218169
0.00985261
-0.222951
0.00290406
-0.226679
-0.00228931
-0.22921
-0.00545014
-0.231727
-0.00613651
-0.229016
-0.20767
0.129233
-0.127621
0.119762
-0.135402
0.109935
-0.14338
0.0996564
-0.151452
0.0889723
-0.159447
0.0779928
-0.167226
0.0668778
-0.174767
0.0558164
-0.18204
0.0450121
-0.188968
0.0346682
-0.195435
0.0250464
-0.201325
0.0164261
-0.20651
0.00910648
-0.211005
0.00322489
-0.214516
-0.00107638
-0.218237
-0.00328282
-0.217335
-0.201288
0.126675
-0.120236
0.118398
-0.12695
0.109519
-0.133688
0.100189
-0.140643
0.0904749
-0.147571
0.0804575
-0.154349
0.0702881
-0.161034
0.0601126
-0.167599
0.0500701
-0.173968
0.04031
-0.180045
0.031006
-0.185744
0.0223505
-0.190966
0.0145964
-0.195793
0.00801114
-0.199954
0.00274651
-0.204536
-0.000841602
-0.204915
-0.192975
0.123804
-0.113797
0.116168
-0.119429
0.108184
-0.125282
0.0997792
-0.131248
0.0909732
-0.137183
0.0818889
-0.143071
0.0726262
-0.148951
0.0632879
-0.154805
0.0539694
-0.160557
0.0447817
-0.166131
0.0358594
-0.171473
0.0273776
-0.176529
0.0194995
-0.181379
0.0124344
-0.185803
0.00612997
-0.190632
0.00134839
-0.192066
-0.183141
0.119457
-0.10856
0.112982
-0.113336
0.105945
-0.118181
0.098432
-0.123193
0.0905313
-0.128235
0.0823317
-0.133293
0.0739129
-0.138403
0.0653408
-0.143536
0.0566832
-0.148624
0.0480283
-0.153616
0.0394816
-0.158479
0.0311955
-0.163214
0.0232705
-0.167851
0.0159328
-0.172304
0.00907947
-0.17708
0.00330499
-0.179081
-0.172145
0.114897
-0.104311
0.10913
-0.108197
0.102961
-0.112276
0.09635
-0.116449
0.0893376
-0.120663
0.0819989
-0.124942
0.074389
-0.129303
0.0665491
-0.133708
0.058529
-0.138099
0.0504045
-0.142456
0.0422625
-0.146762
0.0342242
-0.151053
0.026343
-0.155299
0.0188229
-0.159567
0.0114368
-0.163938
0.0048669
-0.166227
-0.160484
0.109263
-0.101212
0.104585
-0.104376
0.0993578
-0.107614
0.093641
-0.110974
0.0875124
-0.114424
0.081022
-0.117961
0.0741962
-0.12158
0.0670607
-0.125246
0.0596608
-0.12892
0.0520619
-0.132607
0.044334
-0.136297
0.0365608
-0.140042
0.0287796
-0.14377
0.0211343
-0.147656
0.0133967
-0.151414
0.00613483
-0.153658
-0.148525
0.103608
-0.0991217
0.099697
-0.101537
0.09533
-0.104092
0.0905007
-0.106735
0.0852318
-0.109461
0.0795529
-0.112276
0.0734764
-0.11516
0.06702
-0.118082
0.0602243
-0.12103
0.0531405
-0.12402
0.0458218
-0.127045
0.0383182
-0.130159
0.0306634
-0.133273
0.0229324
-0.136608
0.014956
-0.139634
0.0071898
-0.141595
-0.136538
0.0973355
-0.098132
0.0944369
-0.0999169
0.0909949
-0.101762
0.0870447
-0.103702
0.0826213
-0.105734
0.0777309
-0.107835
0.072376
-0.10998
0.0665768
-0.11216
0.0603687
-0.114376
0.0537851
-0.116646
0.0468616
-0.118964
0.0396203
-0.121372
0.0320964
-0.123797
0.0242939
-0.126429
0.016144
-0.128669
0.0079037
-0.130086
-0.124902
0.0912557
-0.0981874
0.0891647
-0.0993118
0.0865662
-0.100535
0.0834652
-0.101834
0.0798498
-0.103189
0.0757111
-0.104578
0.0710496
-0.105989
0.0658826
-0.107428
0.0602358
-0.108906
0.0541288
-0.110433
0.0475815
-0.112006
0.0405978
-0.113654
0.0332105
-0.115329
0.0253671
-0.11714
0.0171103
-0.118584
0.00850936
-0.119258
-0.11375
0.0849884
-0.0993489
0.0838691
-0.099894
0.0821715
-0.100473
0.0799034
-0.101114
0.0770594
-0.101783
0.0736308
-0.102456
0.0696258
-0.103136
0.0650572
-0.103835
0.0599358
-0.104563
0.0542692
-0.105325
0.0480696
-0.106126
0.0413341
-0.106976
0.0340807
-0.107852
0.0262494
-0.108785
0.0178961
-0.109387
0.00893473
-0.109114
-0.103277
0.0790266
-0.101591
0.078735
-0.101537
0.0778769
-0.101527
0.0764164
-0.101523
0.0743219
-0.101497
0.0715861
-0.101449
0.0682135
-0.101393
0.0642105
-0.101342
0.0595781
-0.101302
0.054313
-0.101274
0.0484138
-0.101263
0.041871
-0.101273
0.0347022
-0.101307
0.0268268
-0.101298
0.0183627
-0.101058
0.0090635
-0.0996782
-0.0937883
0.0731793
-0.104981
0.0738341
-0.104386
0.0738302
-0.103733
0.0731413
-0.103045
0.071761
-0.102312
0.0696834
-0.101533
0.0669055
-0.100728
0.0634233
-0.0999078
0.0592301
-0.0990735
0.0543201
-0.0982288
0.04869
-0.0973807
0.0423297
-0.0965263
0.0352409
-0.0956807
0.0273684
-0.0947198
0.0188023
-0.0936008
0.00924181
-0.0910248
-0.0852346
0.0677768
-0.109554
0.069268
-0.108367
0.0700649
-0.107071
0.0701182
-0.105677
0.0694115
-0.104209
0.0679378
-0.102675
0.0656899
-0.101093
0.0626573
-0.0994719
0.0588281
-0.0978106
0.0541928
-0.0961151
0.0487443
-0.0943946
0.042478
-0.0926486
0.0354002
-0.090903
0.0274659
-0.0889821
0.0188092
-0.0870227
0.00912449
-0.0832856
-0.0779078
0.0625602
-0.115364
0.0649661
-0.113601
0.0665394
-0.111555
0.0672815
-0.109402
0.0671941
-0.107166
0.0662574
-0.104834
0.0644542
-0.102427
0.061772
-0.0999551
0.0582048
-0.0974265
0.0537554
-0.094855
0.0484302
-0.0922532
0.0422363
-0.0896211
0.0351744
-0.0869781
0.027267
-0.0841701
0.0185588
-0.081356
0.00917473
-0.0768768
-0.0716294
0.0577121
-0.122474
0.0608845
-0.11999
0.0631742
-0.117171
0.064555
-0.114212
0.065011
-0.111146
0.064524
-0.107957
0.0630874
-0.104678
0.0606982
-0.101324
0.0573537
-0.0979012
0.0530626
-0.0944355
0.0478636
-0.090969
0.0417916
-0.087498
0.0348629
-0.0840231
0.027166
-0.0804622
0.0186234
-0.0768079
0.00942804
-0.0716718
-0.0661776
0.0528804
-0.130875
0.0568936
-0.127659
0.0598715
-0.123939
0.0618483
-0.120108
0.0628202
-0.11616
0.0627635
-0.11206
0.0616783
-0.107864
0.0595893
-0.103611
0.056518
-0.0993056
0.0524862
-0.0949722
0.0474969
-0.0906343
0.0415765
-0.0863118
0.0347534
-0.0820069
0.0270776
-0.077659
0.0185728
-0.0732342
0.00940903
-0.0674907
-0.0617953
0.0481725
-0.140675
0.0529126
-0.136549
0.0565899
-0.13192
0.0591785
-0.12715
0.0606786
-0.122261
0.0611031
-0.117228
0.0604453
-0.112089
0.0587061
-0.10689
0.0559068
-0.101655
0.0520744
-0.0964154
0.0472411
-0.0911988
0.0414413
-0.0860278
0.0347081
-0.0809027
0.0271013
-0.0757897
0.0186563
-0.0706304
0.00955739
-0.0643316
-0.0582714
0.043275
-0.151855
0.0488619
-0.146826
0.0532806
-0.141199
0.0565304
-0.135427
0.0586127
-0.129536
0.0595076
-0.123479
0.05923
-0.117328
0.057804
-0.111139
0.0552584
-0.10494
0.0516255
-0.0987666
0.0469435
-0.0926518
0.0412528
-0.08662
0.034598
-0.080676
0.0270527
-0.0748147
0.0186629
-0.0689502
0.00961609
-0.0621306
-0.0556341
0.0382367
-0.164627
0.0446487
-0.15851
0.0498373
-0.151839
0.053752
-0.144973
0.0563797
-0.137972
0.0577279
-0.130812
0.0578194
-0.12358
0.0566821
-0.116337
0.054353
-0.109119
0.0508765
-0.10197
0.0463047
-0.0949306
0.0406941
-0.0880291
0.0341103
-0.0812794
0.0266452
-0.0747028
0.0183502
-0.0681726
0.00946446
-0.0609248
-0.0540103
0.0327103
-0.178921
0.0400736
-0.171754
0.0460206
-0.163851
0.0505845
-0.155785
0.0537455
-0.147565
0.0555177
-0.1392
0.0559342
-0.130795
0.0550339
-0.122417
0.0528689
-0.114117
0.0495034
-0.105949
0.0450108
-0.0979629
0.0394721
-0.0901954
0.0329821
-0.0826738
0.0256551
-0.0754388
0.017575
-0.0683331
0.00904143
-0.0608087
-0.0535623
0.0266265
-0.194984
0.0348602
-0.186485
0.0415723
-0.177242
0.0467705
-0.167844
0.0504324
-0.158269
0.0525851
-0.148577
0.0532731
-0.13889
0.0525531
-0.129286
0.0505
-0.119834
0.0472051
-0.110606
0.0427727
-0.101663
0.0373181
-0.0930541
0.0309767
-0.0848257
0.0238988
-0.0770338
0.0162212
-0.0695073
0.00828432
-0.0619019
-0.0544857
0.0195746
-0.21261
0.0287438
-0.202752
0.0362284
-0.191997
0.0420384
-0.181097
0.0461627
-0.170009
0.0486452
-0.158847
0.049546
-0.14775
0.048948
-0.13682
0.0469585
-0.126148
0.043705
-0.115826
0.0393321
-0.105935
0.0340013
-0.0965378
0.0278986
-0.0877068
0.0212209
-0.0795082
0.0141672
-0.0717731
0.00712571
-0.0643467
-0.0570121
0.0114433
-0.232067
0.0214972
-0.220462
0.029739
-0.208049
0.0361329
-0.195456
0.0406771
-0.182672
0.0434357
-0.169878
0.0444921
-0.157232
0.043964
-0.144869
0.0420002
-0.132913
0.0387743
-0.12148
0.0344822
-0.110671
0.0293425
-0.100574
0.0236014
-0.0912882
0.0175122
-0.0828863
0.0113471
-0.0752189
0.00552801
-0.0682806
-0.0613775
0.00188877
-0.252975
0.012899
-0.239608
0.0219009
-0.225316
0.0288503
-0.210798
0.0337725
-0.196114
0.0367546
-0.181506
0.0379142
-0.167161
0.0374127
-0.153259
0.0354493
-0.139962
0.0322539
-0.127416
0.0280843
-0.11575
0.0232266
-0.105079
0.017994
-0.0955303
0.0127043
-0.0871811
0.00770767
-0.0799142
0.00346335
-0.0738329
-0.0678132
-0.00915306
-0.275688
0.00279194
-0.26006
0.0125349
-0.243659
0.0200188
-0.226974
0.0252872
-0.210164
0.0284509
-0.193539
0.0296719
-0.177337
0.0291657
-0.161791
0.0271912
-0.147106
0.0240459
-0.133465
0.0200605
-0.121033
0.0155975
-0.109956
0.0110429
-0.100382
0.00678538
-0.0923933
0.00325281
-0.0859109
0.000941773
-0.0811072
-0.0765091
-0.0219634
-0.299616
-0.0089916
-0.281758
0.00151315
-0.26294
0.00951276
-0.243797
0.0150948
-0.224614
0.0184042
-0.205757
0.0196531
-0.187532
0.0191193
-0.170237
0.0171338
-0.15413
0.0140733
-0.13944
0.0103533
-0.12637
0.00642051
-0.115096
0.00273751
-0.105784
-0.000232669
-0.0985144
-0.00199037
-0.0932463
-0.00202192
-0.0901656
-0.0876133
-0.0364458
-0.325214
-0.0224475
-0.304518
-0.0111693
-0.282977
-0.00264573
-0.261073
0.00322212
-0.239223
0.00663201
-0.217893
0.00786612
-0.197473
0.00727865
-0.178333
0.00528646
-0.160792
0.00235823
-0.145132
-0.000999099
-0.131592
-0.00425606
-0.120372
-0.00687779
-0.111642
-0.00832574
-0.105489
-0.00802808
-0.101902
-0.00543765
-0.101043
-0.101262
-0.0527874
-0.351633
-0.0376816
-0.328199
-0.0255853
-0.303584
-0.0165154
-0.278584
-0.0103482
-0.253759
-0.00683914
-0.229693
-0.00563
-0.206889
-0.00627369
-0.185807
-0.00825283
-0.166834
-0.0109985
-0.150306
-0.0139065
-0.136494
-0.0163557
-0.125617
-0.017728
-0.117842
-0.017408
-0.11325
-0.0147645
-0.111849
-0.00920637
-0.113761
-0.117477
-0.0708487
-0.379433
-0.0547176
-0.352465
-0.041856
-0.324447
-0.0322858
-0.296019
-0.0258533
-0.267912
-0.0222547
-0.240864
-0.0210545
-0.215508
-0.0217132
-0.192405
-0.0236109
-0.172027
-0.0260728
-0.154758
-0.0283937
-0.140906
-0.0298599
-0.130693
-0.0297706
-0.124275
-0.0274325
-0.121725
-0.0221492
-0.123055
-0.0132879
-0.128324
-0.136238
-0.0905848
-0.407456
-0.0733247
-0.377138
-0.0596572
-0.345321
-0.0495892
-0.31308
-0.0429145
-0.281363
-0.0392559
-0.251075
-0.0380835
-0.223003
-0.0387521
-0.197824
-0.0405313
-0.176091
-0.0426372
-0.158245
-0.0442605
-0.144615
-0.0445934
-0.135425
-0.0428495
-0.130808
-0.0382624
-0.130817
-0.030084
-0.135447
-0.0176532
-0.144668
-0.157498
-0.111569
-0.436583
-0.0930464
-0.402054
-0.0784029
-0.36607
-0.0676551
-0.329643
-0.0605878
-0.293949
-0.0567666
-0.260114
-0.0555721
-0.229108
-0.0562442
-0.201749
-0.0579226
-0.17869
-0.059692
-0.160425
-0.0606205
-0.1473
-0.0597884
-0.139526
-0.0563074
-0.137205
-0.0493301
-0.140349
-0.0380874
-0.148875
-0.0219799
-0.162586
-0.180907
-0.231348
-0.00322036
0.240012
-0.223534
-0.0131819
-0.21509
-0.0248506
-0.207225
-0.0378885
-0.198688
-0.0525373
-0.190375
-0.0685441
-0.181399
-0.0858558
-0.172436
-0.104317
-0.162748
-0.123852
-0.152857
-0.144221
-0.142155
-0.165265
-0.131092
-0.186691
-0.119156
-0.208282
-0.106707
-0.229771
-0.0933315
-0.250871
-0.0792794
-0.271346
-0.0642944
-0.290842
-0.04846
-0.309203
-0.0317296
-0.326175
-0.013972
-0.341504
0.00460723
-0.355209
0.0243443
-0.366809
0.0447759
-0.376732
0.0662329
-0.384355
0.0883291
-0.389877
0.111266
-0.393013
0.134761
-0.393727
0.158663
-0.391985
0.183081
-0.387588
0.207309
-0.380707
0.231957
-0.371088
0.255915
-0.359021
0.280085
-0.344334
0.303004
-0.327372
0.325843
-0.308434
0.347069
-0.287826
0.367906
-0.265906
0.386806
-0.243069
0.405067
-0.219786
0.421228
-0.196442
-0.17348
-0.21059
-0.013011
0.216992
-0.204077
-0.0225247
-0.197529
-0.0336398
-0.190742
-0.0463047
-0.183735
-0.0605393
-0.176408
-0.0762172
-0.168705
-0.0932455
-0.160591
-0.111451
-0.152004
-0.13079
-0.142885
-0.15102
-0.133194
-0.171974
-0.122888
-0.193358
-0.111906
-0.214982
-0.100231
-0.236534
-0.0877872
-0.257791
-0.0745726
-0.278447
-0.0605127
-0.298224
-0.0455957
-0.316906
-0.029796
-0.334258
-0.0130491
-0.350071
0.00456137
-0.364219
0.0231519
-0.376431
0.0425467
-0.386849
0.062803
-0.395092
0.083788
-0.401179
0.105443
-0.404911
0.127649
-0.406202
0.150233
-0.404978
0.173125
-0.401152
0.196046
-0.394697
0.218967
-0.385618
0.24156
-0.373917
0.263695
-0.359622
0.285146
-0.342985
0.30577
-0.324387
0.325331
-0.304032
0.343676
-0.282354
0.360637
-0.259716
0.376075
-0.2366
0.389916
-0.213428
-0.190587
-0.190024
-0.0238436
0.194789
-0.185054
-0.0328353
-0.179853
-0.043431
-0.174337
-0.055641
-0.168483
-0.0694281
-0.16223
-0.0847065
-0.155537
-0.10137
-0.148356
-0.119254
-0.140688
-0.138271
-0.132459
-0.158257
-0.123657
-0.178984
-0.114223
-0.200216
-0.104138
-0.221717
-0.0933519
-0.243217
-0.0818383
-0.264468
-0.0695585
-0.285182
-0.0564741
-0.305084
-0.0425605
-0.323949
-0.0277899
-0.341549
-0.0121388
-0.357676
0.00437334
-0.372168
0.021785
-0.38482
0.0399865
-0.395632
0.058979
-0.404345
0.0786635
-0.410887
0.0989572
-0.415088
0.119738
-0.416833
0.14087
-0.416046
0.162204
-0.412642
0.183571
-0.406581
0.2048
-0.397882
0.225676
-0.386505
0.246
-0.372503
0.265597
-0.356153
0.284231
-0.337773
0.301728
-0.317626
0.317876
-0.296093
0.332526
-0.273587
0.345506
-0.250546
0.356723
-0.227447
-0.204632
-0.17041
-0.0359537
0.173857
-0.166664
-0.0443854
-0.162583