/*--------------------------------*- C++ -*----------------------------------*\
  =========                 |
  \\      /  F ield         | OpenFOAM: The Open Source CFD Toolbox
   \\    /   O peration     | Website:  https://openfoam.org
    \\  /    A nd           | Version:  6
     \\/     M anipulation  |
\*---------------------------------------------------------------------------*/
FoamFile
{
    version     2.0;
    format      ascii;
    class       volScalarField;
    location    "3.37";
    object      k;
}
// * * * * * * * * * * * * * * * * * * * * * * * * * * * * * * * * * * * * * //

dimensions      [0 2 -2 0 0 0 0];

internalField   nonuniform List<scalar> 
4214
(
0.0248745
0.0165804
0.0136914
0.0129746
0.013054
0.0134895
0.0142977
0.0157229
0.0182045
0.0225146
0.0298592
0.0423221
0.0629441
0.0955198
0.143319
0.204912
0.250797
0.236768
0.187886
0.150532
0.127973
0.107112
0.0880544
0.0717802
0.0582801
0.0471759
0.0380152
0.0305873
0.0247805
0.0204674
0.0174458
0.0154324
0.0141405
0.0133503
0.0128842
0.0126139
0.0124708
0.012556
0.0134154
0.0166537
0.0258725
0.0150798
0.0130399
0.0123982
0.0123904
0.0126629
0.0131641
0.0140167
0.0154785
0.0179639
0.022204
0.029489
0.0420108
0.063188
0.0974799
0.14882
0.215568
0.263723
0.243564
0.192168
0.15679
0.135928
0.114384
0.0937365
0.0763414
0.062143
0.0503379
0.0403307
0.0319393
0.0251749
0.0200972
0.0165739
0.0142672
0.012859
0.012053
0.0116311
0.0114323
0.0113585
0.011395
0.011706
0.0128181
0.0158791
0.0125948
0.0119324
0.0118195
0.011978
0.0123059
0.012841
0.0137285
0.0151879
0.0176468
0.0218329
0.0290453
0.0415941
0.0632749
0.0992897
0.154436
0.226999
0.27776
0.251988
0.196755
0.164015
0.144985
0.122403
0.100529
0.0827237
0.0684728
0.0563534
0.045481
0.0357339
0.0273945
0.0210112
0.0165655
0.0136417
0.0118737
0.0108914
0.0104132
0.0102348
0.010229
0.0103362
0.0105912
0.0111719
0.0124684
0.011554
0.011325
0.0113816
0.0115992
0.0119571
0.0125123
0.0133999
0.0148575
0.0172891
0.0214143
0.0285507
0.0411205
0.063288
0.101029
0.160057
0.238607
0.293032
0.26266
0.204105
0.17381
0.156169
0.132373
0.109764
0.0923481
0.0788644
0.0669575
0.0552241
0.043478
0.0326896
0.0242269
0.0181027
0.0139969
0.0115056
0.0101163
0.00944083
0.00918839
0.00918041
0.00932156
0.00960363
0.0100791
0.0109022
0.010889
0.0108476
0.0109787
0.0112283
0.0115936
0.0121561
0.0130487
0.0144963
0.0168926
0.02095
0.0280015
0.0405705
0.0631677
0.102561
0.165503
0.250356
0.30962
0.275752
0.213129
0.185505
0.169469
0.144889
0.122351
0.106297
0.0945868
0.0836469
0.0712046
0.0567056
0.0425103
0.0306446
0.021819
0.0157403
0.0120096
0.0098828
0.00881202
0.00836138
0.00826696
0.00837834
0.00863821
0.00906967
0.00971265
0.0103656
0.0104205
0.0105887
0.0108425
0.0112169
0.0117858
0.0126759
0.0141048
0.0164572
0.0204381
0.0273914
0.0399252
0.0628591
0.103727
0.170458
0.261937
0.327771
0.292315
0.224638
0.199727
0.18572
0.16112
0.139594
0.125871
0.116932
0.107823
0.0949439
0.0770855
0.0582045
0.0413303
0.0284905
0.0193593
0.0136923
0.0103767
0.00864658
0.00784164
0.00756417
0.00757772
0.00777251
0.0081177
0.00863423
0.00990986
0.0100145
0.0101922
0.0104544
0.0108348
0.0114036
0.0122829
0.0136836
0.0159812
0.0198717
0.0267018
0.0391384
0.0622559
0.104302
0.174478
0.272702
0.347368
0.313255
0.238998
0.216774
0.205798
0.182408
0.162963
0.152486
0.147115
0.140556
0.127408
0.105709
0.0809059
0.0571609
0.0388311
0.0252952
0.0168355
0.011758
0.00903784
0.00768643
0.0071182
0.00696806
0.00705356
0.00729646
0.00767891
0.00949026
0.00961487
0.00980293
0.0100712
0.0104526
0.011014
0.0118731
0.0132342
0.0154626
0.0192411
0.0259066
0.038151
0.0612275
0.104008
0.177007
0.28167
0.367892
0.339397
0.256854
0.237026
0.230742
0.210291
0.194202
0.188047
0.186914
0.183033
0.169272
0.142982
0.111203
0.0785024
0.0532859
0.0338049
0.0216236
0.014127
0.0100451
0.0079278
0.00695158
0.00657419
0.00651646
0.00664113
0.0069003
0.00908658
0.00922815
0.00942623
0.00969767
0.0100745
0.010621
0.0114504
0.0127594
0.0149002
0.018536
0.0249773
0.0368974
0.0596288
0.102526
0.177395
0.287607
0.388123
0.370604
0.278829
0.260653
0.261348
0.246155
0.235084
0.234383
0.23805
0.237165
0.221468
0.189075
0.149229
0.105015
0.0718165
0.0447853
0.0280339
0.0174519
0.0116561
0.00855507
0.00705848
0.00639484
0.00616833
0.00616946
0.00631152
0.00869527
0.00885323
0.00906011
0.00933171
0.0096996
0.0102254
0.0110171
0.0122616
0.0142948
0.0177508
0.0238928
0.0353233
0.0573317
0.0995422
0.175055
0.289838
0.405962
0.407154
0.305007
0.287328
0.297721
0.290484
0.286561
0.293329
0.302256
0.305124
0.285694
0.24435
0.195072
0.13585
0.0938577
0.0576674
0.0357549
0.0215028
0.0137482
0.00949112
0.00739556
0.00640256
0.00599229
0.00587097
0.00590794
0.00830956
0.0084816
0.00869505
0.00896458
0.00932116
0.00982312
0.010572
0.0117431
0.0136507
0.01689
0.0226532
0.0334142
0.0542805
0.0948587
0.169294
0.286335
0.417406
0.447648
0.334665
0.31652
0.338797
0.342057
0.347574
0.365842
0.382709
0.388748
0.36399
0.309272
0.248868
0.170038
0.118468
0.0714469
0.0441863
0.0258306
0.0160751
0.010579
0.00787536
0.0065416
0.0059511
0.00571622
0.00566495
0.0079221
0.00810416
0.00832156
0.00858753
0.00893224
0.00940972
0.0101144
0.0112075
0.0129783
0.0159737
0.0212937
0.0312301
0.0505757
0.0885472
0.159745
0.275443
0.418481
0.488621
0.377726
0.348481
0.381759
0.397526
0.414071
0.447045
0.475529
0.487244
0.457316
0.383787
0.310172
0.206591
0.144523
0.0848305
0.05254
0.0298236
0.0183049
0.0115985
0.00837666
0.00673295
0.00599298
0.00566452
0.00554709
0.00753094
0.00771902
0.00793846
0.00819982
0.00853338
0.00898741
0.00964983
0.0106658
0.0122997
0.0150441
0.0198997
0.0289351
0.0465297
0.081085
0.146939
0.257022
0.406696
0.521198
0.449004
0.386379
0.421072
0.449738
0.477798
0.525512
0.571478
0.59556
0.563483
0.467012
0.378108
0.244033
0.170781
0.0964464
0.0600043
0.0328282
0.0200997
0.0123133
0.00877499
0.00689101
0.00606298
0.00567136
0.00551473
0.00714059
0.00733076
0.00755197
0.00780765
0.00813296
0.00856631
0.00919418
0.0101426
0.0116597
0.0141827
0.0186336
0.0268309
0.0427324
0.0734332
0.132577
0.232186
0.37996
0.526461
0.521277
0.437164
0.453235
0.489023
0.52809
0.588899
0.656536
0.704125
0.676246
0.557186
0.451986
0.280299
0.195931
0.105022
0.0658882
0.0342931
0.0212064
0.0125347
0.00898148
0.00694698
0.00611819
0.00569775
0.00553169
0.00676386
0.00695134
0.00717857
0.00742659
0.00775258
0.00817017
0.00878444
0.0096876
0.0111471
0.01353
0.0177613
0.0253436
0.0399865
0.0668128
0.11881
0.203493
0.340155
0.49523
0.557196
0.496124
0.480329
0.509654
0.554898
0.627058
0.717358
0.802132
0.786615
0.651862
0.530352
0.312682
0.219002
0.109433
0.0697099
0.0338798
0.0215108
0.0121771
0.00896951
0.00686943
0.00613946
0.00571872
0.0055719
0.00642244
0.00659814
0.00684787
0.00708184
0.00743475
0.0078403
0.00849331
0.0093816
0.0109077
0.0132562
0.0175796
0.0247651
0.0387821
0.0617588
0.107124
0.173919
0.293317
0.436372
0.534603
0.522792
0.496479
0.510434
0.552112
0.634829
0.746735
0.881847
0.883772
0.744738
0.611457
0.337773
0.239944
0.108589
0.0713554
0.0314917
0.021044
0.0112822
0.00877183
0.00667252
0.00613121
0.00572679
0.00562193
0.00614138
0.00627822
0.00659748
0.00678751
0.00724096
0.00760523
0.00842514
0.00926881
0.0110956
0.0133455
0.0181493
0.0246295
0.0384692
0.0568708
0.0963504
0.144686
0.245452
0.36582
0.46313
0.506622
0.495436
0.49876
0.534064
0.618716
0.744811
0.944331
0.953779
0.832561
0.693413
0.350993
0.260915
0.101087
0.0715324
0.0271526
0.0199872
0.00998089
0.00845446
0.00640635
0.0061094
0.00572956
0.00567773
0.00563457
0.00556801
0.00551101
0.00547075
0.00546283
0.00551172
0.00564992
0.00591664
0.00635801
0.00702641
0.00797024
0.00916794
0.0105328
0.0122071
0.0149263
0.0230551
0.0485969
0.00563409
0.00556341
0.00550181
0.00546024
0.00545594
0.00551203
0.00565728
0.00592576
0.00635615
0.00698985
0.00786471
0.00901998
0.0105371
0.012617
0.0161118
0.0261758
0.051134
0.0056671
0.00558759
0.00552064
0.00547772
0.00547509
0.00553346
0.00567812
0.0059392
0.00635253
0.0069622
0.00782938
0.00904833
0.0107725
0.0133418
0.0178618
0.0303188
0.0534434
0.00567665
0.00560578
0.00554528
0.00550786
0.00551029
0.00557243
0.00571796
0.00597607
0.00638469
0.00699692
0.00789371
0.00921064
0.0111865
0.0143329
0.0201224
0.0354131
0.0564386
0.00572834
0.00565002
0.00558722
0.00555216
0.00555961
0.00562733
0.00577755
0.00603986
0.00645599
0.00708888
0.00803893
0.00947714
0.0117292
0.0155128
0.0228673
0.0421608
0.060339
0.00574461
0.00567875
0.00562651
0.00560094
0.00561746
0.00569384
0.00585251
0.00612449
0.00655578
0.00721838
0.00823006
0.00979411
0.0123123
0.0167523
0.0260055
0.0509073
0.0653882
0.00580232
0.00573286
0.00568112
0.00566039
0.00568421
0.00576899
0.00593683
0.00622002
0.00666812
0.00736038
0.00842802
0.0100998
0.012846
0.0178938
0.0292609
0.0609609
0.0712103
0.00582838
0.0057726
0.0057332
0.00572233
0.00575498
0.00584771
0.00602312
0.0063147
0.0067745
0.00748646
0.00859051
0.0103323
0.0132172
0.0187179
0.0320326
0.0703476
0.0768087
0.0058888
0.00583087
0.00579516
0.00579152
0.0058304
0.00592752
0.00610569
0.00639832
0.00685793
0.00756967
0.008676
0.0104285
0.0133427
0.0190147
0.0334431
0.0759322
0.0808961
0.00592638
0.00588168
0.00585563
0.00585946
0.00590443
0.00600483
0.00618128
0.00646606
0.00690979
0.00759459
0.00865922
0.0103538
0.0131867
0.0186873
0.0329896
0.0759278
0.0827873
0.00599125
0.00594597
0.00592371
0.00593148
0.00597825
0.00607713
0.00624742
0.0065181
0.00693513
0.00757421
0.00856545
0.0101453
0.0127949
0.0178203
0.0308142
0.0710063
0.0829745
0.00604002
0.00600797
0.00599382
0.00600607
0.00605372
0.0061494
0.00631093
0.00656427
0.00694992
0.00753456
0.00843368
0.0098602
0.012245
0.0166507
0.0277203
0.0634879
0.0826741
0.00611194
0.00608059
0.00607017
0.00608483
0.00613203
0.00622355
0.00637566
0.00661135
0.00696563
0.00749528
0.00829863
0.00955855
0.0116462
0.0154509
0.0245782
0.055361
0.0827154
0.00617243
0.00615444
0.00615034
0.00616752
0.00621395
0.00630112
0.0064441
0.00666349
0.00698953
0.00746999
0.00818634
0.00929061
0.0110975
0.0143705
0.0218482
0.0476441
0.0832264
0.00625347
0.00623704
0.00623622
0.00625504
0.00630052
0.00638355
0.0065182
0.0067233
0.00702558
0.00746562
0.00811056
0.00908442
0.0106498
0.0134648
0.0196568
0.0408175
0.0838461
0.00632751
0.00632304
0.00632698
0.0063478
0.0063927
0.00647217
0.00659949
0.00679238
0.00707526
0.00748378
0.00807425
0.00894785
0.0103196
0.0127426
0.0179903
0.035239
0.0840166
0.00641712
0.0064155
0.00642337
0.00644649
0.00649144
0.00656818
0.00668934
0.00687191
0.00713895
0.0075231
0.00807356
0.00887471
0.0101012
0.0122151
0.0167712
0.031215
0.0832839
0.00650757
0.00651275
0.00652547
0.00655163
0.00659754
0.00667256
0.00678887
0.0069629
0.0072169
0.00758187
0.00810285
0.00885309
0.00997746
0.0118645
0.0159143
0.0286815
0.0813767
0.00660365
0.00661495
0.00663308
0.00666318
0.00671135
0.00678628
0.00689958
0.00706716
0.00731071
0.0076603
0.00815894
0.00887359
0.00993091
0.0116718
0.0153902
0.0270015
0.0782196
0.00670379
0.00672168
0.00674575
0.00678039
0.00683139
0.00690685
0.00701794
0.00718007
0.00741455
0.00775097
0.00823136
0.0089195
0.00993199
0.0115786
0.0150484
0.0258651
0.0743027
0.0068082
0.00683327
0.00686388
0.00690386
0.00695846
0.00703522
0.00714471
0.00730177
0.0075272
0.00785021
0.00831239
0.00897616
0.00995186
0.0115243
0.0147883
0.0249079
0.0703753
0.00691662
0.00694983
0.00698792
0.00703427
0.0070936
0.00717279
0.00728173
0.00743452
0.00765126
0.00796061
0.00840394
0.00904337
0.00998644
0.0115016
0.0146051
0.0241163
0.0667432
0.00702916
0.00707151
0.00711826
0.00717231
0.00723784
0.00732107
0.00743107
0.00758105
0.00779016
0.00808636
0.0085107
0.0091257
0.010039
0.0115111
0.0145016
0.0235458
0.063632
0.00714528
0.00719808
0.00725493
0.00731833
0.00739194
0.00748128
0.00759453
0.00774385
0.00794724
0.00823155
0.00863725
0.00922725
0.0101111
0.0115484
0.0144646
0.0231717
0.0611755
0.00726475
0.00732934
0.00739793
0.00747259
0.00755653
0.00765458
0.00777401
0.00792579
0.0081265
0.00840143
0.00878989
0.00935485
0.0102084
0.0116137
0.0144791
0.0229542
0.0594208
0.00738674
0.00746467
0.00754682
0.00763498
0.00773193
0.00784189
0.00797125
0.00812972
0.0083322
0.00860202
0.00897651
0.00951783
0.0103401
0.0117116
0.0145344
0.0228494
0.0583624
0.00751053
0.00760338
0.00770107
0.00780513
0.00791812
0.00804376
0.00818765
0.00835824
0.00856862
0.00883968
0.00920595
0.0097274
0.0105187
0.0118534
0.014638
0.0228755
0.057963
0.00763489
0.00774432
0.00785962
0.00798226
0.00811467
0.00826029
0.00842411
0.00861349
0.00883968
0.00912077
0.00948761
0.00999632
0.0107597
0.0120543
0.0147974
0.023012
0.0581659
0.00775883
0.00788642
0.00802144
0.00816536
0.00832081
0.00849119
0.00868114
0.00889719
0.00914886
0.00945129
0.00983086
0.010338
0.0110801
0.0123326
0.0150237
0.0232437
0.0589057
0.00788111
0.00802842
0.00818523
0.00835331
0.00853564
0.00873595
0.00895894
0.00921068
0.00949932
0.00983697
0.0102448
0.0107659
0.0114986
0.0127102
0.0153326
0.023551
0.0601065
0.00800215
0.0081715
0.00835264
0.00854764
0.00876024
0.00899503
0.00925786
0.00955542
0.00989415
0.0102834
0.0107386
0.0112938
0.0120347
0.0132122
0.015746
0.0239202
0.0616861
0.00812548
0.00831804
0.0085257
0.00875128
0.00899932
0.0092751
0.00958466
0.00993529
0.0103371
0.0107967
0.0113217
0.0119359
0.0127094
0.0138682
0.0162961
0.0243484
0.0635523
0.00824282
0.00845997
0.00869624
0.0089558
0.00924461
0.00956946
0.00993795
0.010358
0.0108367
0.0113845
0.0120048
0.0127074
0.0135455
0.0147125
0.0170287
0.0248513
0.0655962
0.00835627
0.00859897
0.00886607
0.00916305
0.00949777
0.00987912
0.010317
0.0108213
0.0114008
0.0120586
0.0128012
0.0136257
0.0145685
0.0157872
0.0180077
0.0254757
0.0676854
0.00846775
0.00873747
0.00903723
0.00937529
0.00976167
0.010208
0.0107271
0.0113323
0.0120345
0.0128348
0.0137281
0.0147122
0.0158095
0.0171445
0.019322
0.0263166
0.0696627
0.00857879
0.00887636
0.00921153
0.00959493
0.0100396
0.0105608
0.0111753
0.0119013
0.0127525
0.0137265
0.0148073
0.015994
0.017308
0.018851
0.0210929
0.0275425
0.0713561
0.00869209
0.00901896
0.00939144
0.00982494
0.0103359
0.0109437
0.0116709
0.0125422
0.0135745
0.0147576
0.0160659
0.0175067
0.0191188
0.0209978
0.0234867
0.0294325
0.0726049
0.00880796
0.00916529
0.0095792
0.0100688
0.0106555
0.0113646
0.0122267
0.0132743
0.0145251
0.0159562
0.0175367
0.0192994
0.0213217
0.023715
0.0267337
0.0324288
0.0732976
0.00893102
0.00931988
0.00977782
0.0103307
0.0110054
0.0118353
0.0128609
0.0141223
0.0156326
0.0173524
0.0192618
0.0214469
0.0240417
0.0272005
0.0311627
0.0372053
0.0734032
0.00905851
0.00948166
0.00999096
0.0106181
0.0113985
0.0123766
0.0136034
0.0151217
0.0169324
0.0189886
0.0213207
0.0240905
0.0275013
0.0317921
0.0372979
0.044803
0.0729724
0.017068
0.0178724
0.0186572
0.0194124
0.0201184
0.0207537
0.0212981
0.0217334
0.0220457
0.0222261
0.0222715
0.022184
0.0219708
0.0216434
0.0212163
0.0207048
0.0201259
0.019495
0.0188292
0.0181375
0.017322
0.0165375
0.0158927
0.0152785
0.0146904
0.0141266
0.0135847
0.0130708
0.012592
0.0121483
0.0117375
0.0113565
0.0110065
0.0106843
0.0103931
0.0101271
0.00989155
0.00967676
0.00948948
0.00931774
0.00917329
0.018413
0.0193091
0.0201909
0.0210387
0.0218289
0.0225363
0.0231371
0.0236103
0.0239398
0.0241158
0.0241354
0.024002
0.0237254
0.0233203
0.0228046
0.0221979
0.0215203
0.0207916
0.0200304
0.0192498
0.0183508
0.0174893
0.0167791
0.0161071
0.0154696
0.0148635
0.0142844
0.0137343
0.013221
0.0127475
0.0123111
0.0119083
0.0115374
0.011197
0.0108882
0.0106088
0.0103603
0.0101375
0.00994119
0.00976227
0.00960332
0.019823
0.0208305
0.0218255
0.0227812
0.0236708
0.0244645
0.0251341
0.0256552
0.026009
0.0261844
0.026179
0.0259973
0.0256523
0.0251626
0.0245504
0.02384
0.0230557
0.0222211
0.0213578
0.0204813
0.0194953
0.0185522
0.017771
0.0170367
0.0163458
0.0156952
0.0150788
0.0144934
0.013945
0.0134402
0.0129781
0.0125543
0.0121653
0.0118092
0.0114858
0.0111946
0.010935
0.0107051
0.0105008
0.0103131
0.0101337
0.0213113
0.0224382
0.0235538
0.0246334
0.0256408
0.0265365
0.0272892
0.0278704
0.0282579
0.0284389
0.028411
0.0281805
0.0277637
0.0271838
0.0264684
0.0256468
0.0247483
0.0238009
0.0228294
0.0218512
0.0207738
0.0197455
0.0188882
0.0180868
0.0173382
0.01664
0.0159856
0.0153669
0.0147846
0.0142469
0.013757
0.013312
0.0129072
0.0125393
0.0122066
0.0119083
0.0116437
0.0114111
0.0112057
0.0110134
0.0108092
0.0228669
0.024136
0.025394
0.0266072
0.027738
0.0287484
0.0296022
0.0302578
0.0306902
0.0308853
0.03084
0.0305624
0.0300728
0.0293994
0.0285757
0.0276372
0.0266186
0.0255526
0.0244674
0.0233823
0.0222098
0.0210927
0.0201542
0.0192811
0.0184705
0.0177204
0.0170256
0.0163759
0.0157645
0.0151957
0.0146766
0.0142088
0.0137887
0.0134119
0.0130753
0.0127769
0.0125159
0.0122906
0.0120962
0.0119124
0.0116849
0.0244924
0.0259189
0.0273357
0.0287042
0.0299809
0.0311204
0.032079
0.0328181
0.0333091
0.0335296
0.0334747
0.033155
0.0325943
0.0318268
0.0308924
0.0298333
0.0286906
0.0275016
0.0262981
0.025102
0.0238308
0.022622
0.021598
0.0206489
0.0197718
0.0189654
0.0182258
0.0175449
0.016911
0.0163197
0.015776
0.0152858
0.0148501
0.014466
0.0141299
0.0138391
0.0135922
0.0133877
0.0132216
0.0130692
0.0128346
0.0262009
0.0277981
0.0293886
0.0309286
0.0323678
0.0336541
0.0347371
0.0355725
0.0361265
0.036379
0.0363253
0.0359714
0.035345
0.0344865
0.0334423
0.032262
0.0309933
0.0296787
0.0283541
0.0270437
0.0256712
0.0243685
0.0232553
0.0222263
0.0212788
0.0204116
0.0196221
0.0189051
0.0182511
0.017649
0.0170949
0.0165926
0.0161469
0.0157593
0.0154286
0.0151529
0.0149305
0.0147607
0.0146398
0.0145442
0.0143394
0.0280199
0.0297979
0.0315741
0.0332987
0.0349147
0.0363626
0.0375846
0.0385302
0.0391606
0.0394534
0.039404
0.0390247
0.0383455
0.0374032
0.0362534
0.0349553
0.0335619
0.032122
0.0306754
0.0292491
0.0277739
0.0263763
0.0251714
0.0240594
0.0230377
0.0221055
0.0212611
0.0205009
0.01982
0.0192094
0.0186595
0.0181653
0.017728
0.017351
0.0170364
0.0167848
0.0165963
0.0164694
0.0164007
0.0163727
0.0162466
0.0299955
0.0319601
0.0339292
0.0358471
0.03765
0.0392705
0.0406431
0.0417105
0.042429
0.0427733
0.0427384
0.042339
0.0416094
0.0405977
0.0393606
0.037953
0.0364398
0.0348785
0.0333122
0.0317709
0.0301932
0.0287017
0.0274041
0.0262066
0.0251078
0.0241076
0.0232044
0.0223956
0.0216774
0.0210454
0.0204934
0.0200142
0.0196019
0.0192544
0.0189721
0.0187562
0.0186066
0.0185212
0.0184962
0.0185221
0.0185094
0.0321998
0.0343506
0.0365131
0.0386263
0.0406192
0.0424168
0.0439461
0.045143
0.0459587
0.0463646
0.0463556
0.0459484
0.0451811
0.0441073
0.0427893
0.0412928
0.039681
0.0380076
0.0363279
0.0346769
0.033
0.0314177
0.0300285
0.0287455
0.0275685
0.0264985
0.0255341
0.0246731
0.0239119
0.0232466
0.0226731
0.0221871
0.0217839
0.0214591
0.0212085
0.0210284
0.0209154
0.0208664
0.0208777
0.0209454
0.0210499
0.0347397
0.037068
0.0394156
0.0417159
0.0438918
0.0458614
0.0475448
0.0488716
0.0497882
0.0502633
0.0502911
0.0498903
0.0491022
0.0479848
0.0466054
0.0450341
0.0433382
0.0415783
0.0398052
0.0380555
0.0362875
0.0346212
0.0331457
0.0317808
0.0305279
0.0293885
0.0283622
0.027447
0.02664
0.0259375
0.0253355
0.0248297
0.0244157
0.0240897
0.0238478
0.0236861
0.0236008
0.0235881
0.023645
0.0237694
0.0239527
0.0377725
0.0402578
0.0427684
0.0452334
0.0475705
0.0496924
0.0515138
0.0529595
0.0539722
0.0545186
0.0545925
0.0542138
0.053426
0.0522904
0.0508772
0.0492598
0.0475081
0.0456848
0.0438432
0.0420221
0.0401806
0.0384444
0.0368951
0.035458
0.0341362
0.0329324
0.031847
0.0308792
0.0300265
0.029286
0.028654
0.0281268
0.0277007
0.0273723
0.0271381
0.0269949
0.0269397
0.0269702
0.0270853
0.0272809
0.0275475
0.0415299
0.0441335
0.0467652
0.0493507
0.0518048
0.0540375
0.0559606
0.0574969
0.0585875
0.0591984
0.0593235
0.0589832
0.0582219
0.0571016
0.0556936
0.0540716
0.052306
0.0504604
0.0485889
0.0467316
0.044851
0.0430711
0.0414714
0.0399831
0.0386086
0.0373532
0.0362191
0.0352066
0.0343144
0.0335404
0.0328822
0.0323372
0.0319026
0.0315759
0.0313545
0.0312368
0.0312214
0.0313062
0.031489
0.0317679
0.0321365
0.0463586
0.0490119
0.0516905
0.0543187
0.0568118
0.0590806
0.0610389
0.0626115
0.0637413
0.0643959
0.0645699
0.0642838
0.0635805
0.06252
0.0611707
0.0596037
0.0578868
0.0560816
0.0542408
0.0524049
0.0505432
0.048769
0.0471579
0.0456523
0.0442582
0.0429807
0.041823
0.0407868
0.0398725
0.0390798
0.0384081
0.0378563
0.0374234
0.0371082
0.0369096
0.0368269
0.0368592
0.0370054
0.0372652
0.0376378
0.0381193
0.0527931
0.0553747
0.0579712
0.0605087
0.062908
0.0650871
0.066968
0.0684833
0.0695829
0.070239
0.0704481
0.0702294
0.0696221
0.0686798
0.0674636
0.0660371
0.0644614
0.0627919
0.0610772
0.0593558
0.0576068
0.0559251
0.0543786
0.0529242
0.0515703
0.050324
0.0491904
0.0481732
0.0472747
0.0464965
0.0458398
0.0453053
0.0448935
0.0446051
0.0444405
0.0444006
0.0444856
0.044696
0.0450326
0.0454951
0.0460834
0.0616887
0.0639777
0.0662634
0.0684802
0.0705622
0.0724432
0.0740619
0.0753669
0.0763209
0.0769043
0.0771164
0.0769739
0.0765082
0.0757616
0.0747822
0.0736199
0.072323
0.070936
0.0694984
0.0680428
0.06656
0.065119
0.0637731
0.0624968
0.0613002
0.0601921
0.059179
0.0582663
0.0574585
0.0567592
0.0561713
0.0556975
0.0553405
0.0551024
0.0549855
0.0549917
0.0551228
0.0553805
0.055766
0.0562795
0.0569247
0.0744865
0.0760598
0.077614
0.0791015
0.0804826
0.0817184
0.0827747
0.0836239
0.0842473
0.0846361
0.0847923
0.0847268
0.0844588
0.0840128
0.0834168
0.0826997
0.0818899
0.0810139
0.0800958
0.0791562
0.0781956
0.0772509
0.0763509
0.0754889
0.0746733
0.0739117
0.0732105
0.0725751
0.0720105
0.0715211
0.0711109
0.0707837
0.070543
0.070392
0.0703338
0.0703712
0.0705066
0.0707416
0.0710771
0.0715125
0.072055
0.0458585
0.0198217
0.014136
0.0121891
0.0111518
0.0104402
0.00986854
0.00936332
0.00890333
0.00847548
0.0080677
0.00767128
0.00728227
0.00690184
0.00653663
0.00619693
0.0058866
0.0475707
0.0221874
0.0150721
0.0125247
0.0111904
0.0103208
0.00966952
0.00913624
0.00866316
0.00822427
0.00780844
0.00740949
0.00702535
0.00665835
0.00631575
0.00600931
0.00575154
0.0491868
0.0261862
0.0166029
0.0132502
0.011514
0.0104073
0.00960777
0.00898088
0.00845017
0.00797709
0.00754337
0.00713997
0.00676433
0.00641989
0.0061159
0.00586579
0.0056801
0.05148
0.0319424
0.0189048
0.0144415
0.0121639
0.0107275
0.00971038
0.00893575
0.0083103
0.00777808
0.0073111
0.00689433
0.00652093
0.00619034
0.00590705
0.00567693
0.00549909
0.0543723
0.0384471
0.0220465
0.0161284
0.0131329
0.0112656
0.00996661
0.00900026
0.00824996
0.00764001
0.00712876
0.00669276
0.00631925
0.00600252
0.00574259
0.00554325
0.0054056
0.0581272
0.0464535
0.0259833
0.0182327
0.0143361
0.0119477
0.0103221
0.00914283
0.00824918
0.00755255
0.00699335
0.00653755
0.00616527
0.00586588
0.00563487
0.00547137
0.00537233
0.0632625
0.0572099
0.0306964
0.0205419
0.0155825
0.0126282
0.0106689
0.00928366
0.00826153
0.00748624
0.00688595
0.00641612
0.00604911
0.0057692
0.00556944
0.00544803
0.00540448
0.0697157
0.0708161
0.0359441
0.022731
0.0166182
0.0131334
0.010892
0.00934473
0.00822919
0.00740395
0.0067852
0.00631683
0.00596406
0.00570567
0.00553057
0.00543487
0.00541542
0.076407
0.084911
0.0407563
0.024327
0.0171892
0.0133213
0.0109085
0.00927772
0.00812585
0.00729276
0.00668313
0.00623633
0.00591123
0.00568077
0.00552863
0.00544595
0.00542631
0.0813629
0.0950718
0.0435734
0.0248186
0.0171198
0.0131263
0.0106918
0.00907399
0.00795226
0.00715796
0.0065899
0.00618359
0.00589788
0.00570818
0.00560221
0.00557654
0.00562715
0.0832146
0.0970324
0.0431539
0.0239609
0.01641
0.0125904
0.0102863
0.00877403
0.00774204
0.00702356
0.00651838
0.00616335
0.00591841
0.00575929
0.00567371
0.00565846
0.00571338
0.0826577
0.0901638
0.0395989
0.0219901
0.0152629
0.0118493
0.00978894
0.0084481
0.00754323
0.00691962
0.00648532
0.00618358
0.00597876
0.00584832
0.00577822
0.00575921
0.00578129
0.0818079
0.0778778
0.0342638
0.0195341
0.0139704
0.0110662
0.00930473
0.00816285
0.00739476
0.00686629
0.00649913
0.00624577
0.00607697
0.00597542
0.00593321
0.00595208
0.00603667
0.0820456
0.0645314
0.0286849
0.0172392
0.0127847
0.0103858
0.00892177
0.00796853
0.00732273
0.00687518
0.0065631
0.00634853
0.00620753
0.00612493
0.00609219
0.00610921
0.00618607
0.0831567
0.0528061
0.0240249
0.0154129
0.0118445
0.00988598
0.00867585
0.00787563
0.007325
0.00693905
0.0066689
0.0064843
0.00636519
0.00629756
0.00627078
0.00627677
0.00630586
0.0841957
0.0436252
0.0206886
0.0140687
0.011184
0.00957474
0.00855693
0.00786769
0.00738495
0.00704381
0.00680533
0.00664405
0.00654219
0.00648684
0.00646859
0.00648556
0.00654844
0.0842849
0.0367828
0.0184873
0.0131575
0.0107787
0.00942004
0.00853395
0.0079199
0.00748496
0.00717735
0.00696403
0.00682192
0.00673396
0.00668749
0.00667236
0.00668539
0.00673756
0.0829448
0.031964
0.0170513
0.0125908
0.0105656
0.00937195
0.00857112
0.00800855
0.0076099
0.00733036
0.00713918
0.00701391
0.00693766
0.00689805
0.00688474
0.00689303
0.00691152
0.0800642
0.0289824
0.0162273
0.0122846
0.0104783
0.00938569
0.00864192
0.00811956
0.00775298
0.00749961
0.00732903
0.0072188
0.00715219
0.00711728
0.00710432
0.00710991
0.0071228
0.0762706
0.0270471
0.0157259
0.0121239
0.0104508
0.00942577
0.00872871
0.00824472
0.00791051
0.0076834
0.00753268
0.00743604
0.00737728
0.00734507
0.00733065
0.00733012
0.00733652
0.0722793
0.0257505
0.0153407
0.0120157
0.0104414
0.00947367
0.00882361
0.00838085
0.0080813
0.00788139
0.00775032
0.00766633
0.00761414
0.00758337
0.00756633
0.00755977
0.00755738
0.0684896
0.0247842
0.0150842
0.0119466
0.0104464
0.00953413
0.00893489
0.00853666
0.0082732
0.00810022
0.0079874
0.00791414
0.00786649
0.0078353
0.00781408
0.00780083
0.00778783
0.0651877
0.0241543
0.0149249
0.0119088
0.0104718
0.00961858
0.0090746
0.00872302
0.0084953
0.0083473
0.00825003
0.00818455
0.00813852
0.00810415
0.00807618
0.00805239
0.00802806
0.0625357
0.0238095
0.0148478
0.0119072
0.0105313
0.00974212
0.00925638
0.00895119
0.00875678
0.00863022
0.00854463
0.00848319
0.00843535
0.00839477
0.00835716
0.00832107
0.00828348
0.0605877
0.0235358
0.0148185
0.0119484
0.0106405
0.00992071
0.00949383
0.00923222
0.00906653
0.0089562
0.00887713
0.00881492
0.008761
0.00871047
0.0086602
0.00861031
0.00855554
0.0593351
0.0233729
0.0148358
0.0120449
0.0108161
0.0101694
0.00979932
0.00957606
0.00943258
0.00933184
0.00925301
0.00918431
0.00911913
0.0090539
0.00898665
0.00891698
0.00884106
0.0587343
0.0233152
0.0149119
0.0122147
0.0110757
0.0105031
0.0101848
0.00999224
0.00986271
0.00976369
0.00967795
0.00959635
0.00951414
0.00942906
0.00933995
0.00924644
0.00914838
0.0587252
0.0233498
0.01506
0.0124775
0.0114375
0.0109364
0.0106616
0.0104897
0.0103642
0.0102579
0.0101571
0.0100554
0.00994984
0.00983942
0.0097237
0.0096038
0.0094784
0.0592441
0.0234875
0.015301
0.0128561
0.0119204
0.011484
0.0112411
0.0110775
0.0109447
0.0108208
0.0106961
0.0105664
0.0104303
0.0102879
0.0101394
0.00998654
0.00982555
0.0602239
0.023715
0.0156589
0.0133767
0.0125452
0.0121613
0.0119351
0.0117654
0.0116125
0.01146
0.0113016
0.0111353
0.0109611
0.0107795
0.0105918
0.0103986
0.010201
0.0615959
0.0240324
0.0161659
0.0140698
0.0133346
0.0129851
0.0127569
0.0125646
0.0123774
0.0121843
0.0119818
0.0117695
0.0115484
0.0113199
0.0110857
0.0108471
0.0106061
0.0632851
0.0244555
0.0168666
0.014972
0.0143148
0.013975
0.0137224
0.0134886
0.0132517
0.0130049
0.0127467
0.0124779
0.0122001
0.0119154
0.0116256
0.0113335
0.0110376
0.0652028
0.0250213
0.0178207
0.0161274
0.0155165
0.0151544
0.0148509
0.0145547
0.0142509
0.0139355
0.0136085
0.0132712
0.0129255
0.012574
0.0122188
0.0118623
0.0115067
0.0672368
0.0257956
0.0191055
0.0175891
0.0169775
0.0165527
0.0161671
0.0157841
0.0153935
0.0149926
0.0145816
0.0141617
0.0137351
0.0133044
0.0128723
0.0124417
0.0120169
0.0692506
0.0268896
0.0208223
0.0194238
0.0187452
0.0182073
0.0177023
0.0172035
0.0167024
0.0161958
0.0156827
0.0151637
0.0146406
0.0141162
0.0135935
0.0130766
0.0125719
0.0710946
0.0284868
0.0231053
0.0217173
0.0208816
0.0201668
0.0194957
0.0188453
0.0182048
0.0175678
0.0169308
0.0162929
0.0156552
0.0150201
0.0143913
0.0137735
0.0131773
0.0726327
0.0308774
0.0261354
0.0245836
0.0234693
0.0224946
0.0215974
0.0207496
0.019933
0.019135
0.0183477
0.0175673
0.0167932
0.0160274
0.0152739
0.01454
0.0138336
0.0737691
0.034509
0.0301602
0.0281809
0.0266218
0.0252755
0.024072
0.0229665
0.0219264
0.0209287
0.0199582
0.0190063
0.0180697
0.0171493
0.0162491
0.0153788
0.0145444
0.0744638
0.0400619
0.0355314
0.032739
0.0305021
0.0286275
0.0270058
0.0255595
0.0242322
0.0229841
0.0217886
0.0206294
0.0194988
0.0183956
0.0173231
0.0162923
0.0153108
0.074714
0.048575
0.0427847
0.0386126
0.0353524
0.0327169
0.0305133
0.0286072
0.0269038
0.0253372
0.023863
0.0224532
0.0210926
0.0197752
0.018502
0.0172841
0.0161303
0.0059447
0.00647181
0.00734629
0.00910535
0.0131626
0.0233226
0.0494097
0.115939
0.295639
0.455564
0.477275
0.596815
1.00529
0.920111
0.345606
0.0846529
0.0206982
0.00836583
0.00612034
0.00574045
0.00582319
0.00633183
0.0072137
0.00896029
0.0127866
0.0217541
0.0433995
0.0974336
0.234488
0.394275
0.44058
0.563997
1.04922
1.01285
0.357772
0.0810794
0.0197442
0.00828679
0.00615797
0.0057882
0.00574218
0.00623135
0.00712161
0.0088863
0.0126654
0.0212786
0.0415464
0.0910995
0.192737
0.331701
0.398084
0.537884
1.0975
1.09699
0.362998
0.077032
0.0191688
0.00827862
0.00622487
0.00584514
0.00570926
0.00618518
0.00710297
0.00898198
0.0131224
0.022848
0.0460748
0.0965666
0.174113
0.27588
0.356661
0.512729
1.1528
1.17856
0.36498
0.0738236
0.0187612
0.00838772
0.00633861
0.00591729
0.00573204
0.0062119
0.00720612
0.00939259
0.0146
0.0275986
0.0591222
0.114169
0.178963
0.249443
0.32221
0.493833
1.22268
1.25235
0.36239
0.0718452
0.0186509
0.00867484
0.00652512
0.00601415
0.00582052
0.00633997
0.00750955
0.0103462
0.0177103
0.0368271
0.0803085
0.142223
0.200896
0.246613
0.29953
0.485043
1.31099
1.3136
0.3571
0.0700916
0.0189967
0.00922365
0.00682385
0.00615114
0.00599079
0.00661923
0.00815706
0.012229
0.0233295
0.0520724
0.107225
0.177702
0.233954
0.256757
0.291205
0.490264
1.42223
1.35264
0.350643
0.0688614
0.0200009
0.0101547
0.00729674
0.00635356
0.00627438
0.00715603
0.00945345
0.0157807
0.0329579
0.0730205
0.138849
0.218462
0.27367