/*--------------------------------*- C++ -*----------------------------------*\
  =========                 |
  \\      /  F ield         | OpenFOAM: The Open Source CFD Toolbox
   \\    /   O peration     | Website:  https://openfoam.org
    \\  /    A nd           | Version:  6
     \\/     M anipulation  |
\*---------------------------------------------------------------------------*/
FoamFile
{
    version     2.0;
    format      ascii;
    class       volVectorField;
    location    "3.28";
    object      U;
}
// * * * * * * * * * * * * * * * * * * * * * * * * * * * * * * * * * * * * * //

dimensions      [0 1 -1 0 0 0 0];

internalField   nonuniform List<vector> 
4214
(
(12.2175 0.129662 2.48285e-19)
(12.6095 -0.34641 -3.33004e-19)
(12.6224 -0.926064 3.70257e-19)
(12.5649 -1.46746 0)
(12.4633 -2.06187 0)
(12.2772 -2.76246 1.54163e-19)
(11.7123 -3.45324 3.73146e-21)
(10.6097 -3.93946 -3.96338e-21)
(9.29407 -4.3181 -1.05799e-19)
(8.14669 -4.79581 0)
(7.24345 -5.37489 0)
(6.43478 -5.90701 -2.93471e-20)
(5.59355 -6.29214 0)
(4.74489 -6.56581 -1.71723e-19)
(4.02408 -6.79554 1.34894e-19)
(3.5649 -6.99606 -1.07763e-20)
(3.43174 -7.14604 2.29621e-19)
(3.73223 -7.20273 -9.49344e-20)
(4.43413 -7.1794 0)
(5.51556 -6.94045 4.47942e-19)
(6.87834 -6.5493 0)
(8.39417 -6.07389 4.84e-19)
(9.87433 -5.53463 0)
(11.1871 -4.98047 -7.82265e-20)
(12.2191 -4.40662 1.36502e-19)
(12.8998 -3.7897 0)
(13.2264 -3.13833 0)
(13.2085 -2.48606 0)
(12.9862 -1.9089 -1.23903e-19)
(12.7813 -1.49143 9.25893e-20)
(12.6199 -1.19064 2.9769e-20)
(12.4773 -0.959189 0)
(12.3467 -0.774893 -5.3349e-22)
(12.2342 -0.627081 5.31258e-22)
(12.1426 -0.506292 -5.93256e-22)
(12.0708 -0.405942 6.78913e-22)
(12.0198 -0.318199 -5.29491e-21)
(11.9877 -0.23747 0)
(11.9611 -0.180194 -5.66025e-20)
(11.8592 -0.138085 5.819e-20)
(11.4328 -0.0785934 2.62536e-20)
(12.0044 -0.308081 2.56087e-18)
(12.0618 -0.6648 0)
(12.0135 -1.10598 1.19204e-18)
(11.9654 -1.53655 -3.57985e-19)
(11.8692 -2.02277 1.9095e-19)
(11.6985 -2.59532 -9.21007e-19)
(11.2874 -3.20414 6.05012e-19)
(10.3989 -3.6534 0)
(9.17638 -3.94072 -4.33593e-20)
(8.00379 -4.2823 1.54717e-19)
(7.07698 -4.76996 0)
(6.31435 -5.30705 -7.56207e-20)
(5.53676 -5.75699 0)
(4.69487 -6.09507 8.93913e-20)
(3.93892 -6.37964 -2.80221e-19)
(3.45268 -6.61877 9.77739e-20)
(3.30942 -6.78207 -2.05054e-19)
(3.67028 -6.78687 9.43363e-19)
(4.51737 -6.5557 1.3655e-18)
(5.79739 -6.08925 -3.71372e-18)
(7.34885 -5.51907 -8.84121e-20)
(9.00787 -4.91935 -3.73374e-18)
(10.5737 -4.32394 0)
(11.9531 -3.84388 -1.50487e-18)
(13.0576 -3.44759 2.71395e-19)
(13.8195 -3.06028 0)
(14.1574 -2.59641 0)
(14.138 -2.06169 0)
(13.7396 -1.53286 0)
(13.3386 -1.12979 5.80531e-20)
(13.039 -0.873467 -1.78536e-19)
(12.814 -0.692849 7.32411e-20)
(12.6261 -0.556969 -3.84843e-20)
(12.4707 -0.454072 3.85456e-20)
(12.3466 -0.373066 6.65565e-21)
(12.25 -0.307296 4.71816e-21)
(12.1761 -0.253692 0)
(12.1211 -0.210721 0)
(12.0873 -0.188727 0)
(12.0661 -0.166954 0)
(12.0014 -0.0527659 -2.75383e-20)
(11.7226 -0.404382 -2.22401e-18)
(11.8104 -0.739121 0)
(11.8123 -1.11686 -9.86892e-19)
(11.7693 -1.50575 0)
(11.6704 -1.94984 -1.70886e-19)
(11.4965 -2.46803 -5.78028e-20)
(11.1175 -3.02876 -6.46917e-19)
(10.3204 -3.45798 9.67894e-19)
(9.16039 -3.69385 0)
(7.96521 -3.92347 -2.74881e-19)
(6.98003 -4.30057 5.02815e-19)
(6.19282 -4.78969 3.96363e-19)
(5.43638 -5.24679 -1.52777e-18)
(4.61861 -5.5892 9.35782e-20)
(3.86969 -5.84161 1.20696e-18)
(3.38895 -6.00901 1.17163e-19)
(3.25567 -6.05898 4.89764e-19)
(3.68715 -5.88381 1.65316e-18)
(4.61663 -5.43204 -1.33746e-18)
(5.97256 -4.80021 -1.23497e-18)
(7.57206 -4.1256 0)
(9.21387 -3.43846 -1.05161e-18)
(10.7429 -2.81911 0)
(12.0497 -2.41121 4.01966e-18)
(13.1032 -2.17388 -1.22537e-18)
(13.8998 -2.03091 -8.04919e-19)
(14.3332 -1.81964 0)
(14.3887 -1.486 6.71335e-20)
(13.9903 -1.11987 -5.78002e-20)
(13.5108 -0.803039 -1.45001e-19)
(13.1448 -0.60363 2.6451e-19)
(12.8871 -0.475765 -1.19447e-19)
(12.6845 -0.383655 7.83621e-20)
(12.521 -0.316268 -1.08011e-19)
(12.3905 -0.2637 2.50937e-20)
(12.289 -0.22047 1.15997e-19)
(12.2122 -0.185764 -1.18092e-19)
(12.1552 -0.159125 2.95724e-19)
(12.1105 -0.137731 -2.34116e-19)
(12.0717 -0.124171 5.34996e-19)
(12.0496 -0.0986804 -1.20075e-18)
(11.4896 -0.525443 3.08591e-18)
(11.5463 -0.798441 -2.49611e-18)
(11.5328 -1.11924 8.4976e-19)
(11.4883 -1.46265 0)
(11.3889 -1.85575 0)
(11.2213 -2.31371 8.9215e-19)
(10.9029 -2.8269 0)
(10.2292 -3.2469 -1.00211e-18)
(9.16132 -3.45535 6.53237e-19)
(7.96117 -3.58605 2.75381e-19)
(6.91011 -3.82873 -4.42615e-20)
(6.07113 -4.21538 -2.84789e-19)
(5.31553 -4.6327 1.16686e-18)
(4.52642 -4.95696 -5.8796e-19)
(3.79159 -5.15226 -4.07519e-19)
(3.33655 -5.20713 -3.45719e-19)
(3.21929 -5.09317 -4.59017e-19)
(3.74757 -4.70488 -5.57709e-18)
(4.7639 -4.04044 0)
(6.19362 -3.23244 4.55119e-18)
(7.83306 -2.42247 -3.10908e-19)
(9.44037 -1.67193 -5.2871e-18)
(10.8977 -1.0611 0)
(12.075 -0.742314 1.50283e-19)
(13.0249 -0.664508 -2.46085e-20)
(13.8117 -0.757492 0)
(14.3688 -0.84373 0)
(14.4937 -0.759827 -9.65435e-20)
(14.1901 -0.578129 4.23004e-20)
(13.6615 -0.395858 3.68075e-19)
(13.2392 -0.279488 0)
(12.9522 -0.217191 0)
(12.7398 -0.179283 1.38223e-19)
(12.5722 -0.154302 -2.7236e-20)
(12.439 -0.134167 0)
(12.3358 -0.117384 0)
(12.2578 -0.104331 1.65045e-19)
(12.2001 -0.0946358 -2.40426e-19)
(12.1517 -0.08412 0)
(12.111 -0.0790337 0)
(12.0877 -0.0712582 0)
(11.2861 -0.568412 2.19712e-19)
(11.3351 -0.8056 1.94386e-18)
(11.324 -1.08718 2.84812e-18)
(11.2771 -1.39381 -5.70364e-19)
(11.1766 -1.74557 2.54262e-18)
(11.0073 -2.15218 0)
(10.7174 -2.61551 0)
(10.1414 -3.02449 3.55757e-19)
(9.17547 -3.22365 -1.00426e-18)
(7.99389 -3.27439 0)
(6.88161 -3.37371 4.34449e-20)
(5.96708 -3.61088 0)
(5.18413 -3.92601 -7.24197e-19)
(4.42415 -4.18571 1.56377e-18)
(3.72058 -4.28612 4.04399e-19)
(3.31287 -4.19115 1.31707e-19)
(3.22601 -3.88014 0)
(3.84331 -3.26054 2.9981e-18)
(4.92813 -2.3944 5.13951e-18)
(6.39082 -1.4221 5.45241e-18)
(8.00488 -0.511555 -1.67776e-19)
(9.54484 0.2427 1.46057e-17)
(10.8804 0.770262 0)
(11.9043 0.947984 -2.98171e-18)
(12.723 0.841973 2.07187e-18)
(13.4599 0.542938 2.27658e-19)
(14.1175 0.200823 -2.21373e-19)
(14.4524 0.0118131 9.38108e-20)
(14.1641 -0.0182027 1.83086e-19)
(13.656 0.0217501 -5.54485e-19)
(13.2135 0.0430167 0)
(12.9227 0.0358002 1.26788e-19)
(12.7189 0.0189839 -6.95483e-20)
(12.5603 0.00390343 3.19574e-19)
(12.4349 -0.00602378 -8.30432e-20)
(12.3381 -0.0133832 -9.55922e-20)
(12.2647 -0.0193302 1.13285e-19)
(12.2111 -0.0237242 2.93965e-20)
(12.1689 -0.0242268 -1.1678e-19)
(12.1338 -0.0307949 -1.16394e-19)
(12.1071 -0.0375323 -9.37945e-19)
(11.1131 -0.584782 1.9737e-19)
(11.1518 -0.788974 0)
(11.1353 -1.03476 -2.52387e-18)
(11.0822 -1.30967 0)
(10.9789 -1.6253 -2.6673e-18)
(10.8076 -1.98574 0)
(10.5366 -2.39742 1.61061e-18)
(10.0426 -2.78776 -1.67412e-18)
(9.18693 -2.98967 8.66276e-19)
(8.0533 -2.98506 -4.30652e-19)
(6.9017 -2.94799 6.43071e-19)
(5.90782 -3.00579 -9.08734e-19)
(5.07333 -3.15245 0)
(4.32365 -3.28293 1.82277e-19)
(3.66379 -3.25594 -2.01244e-18)
(3.32833 -2.99183 -9.41218e-20)
(3.3146 -2.47 -3.70887e-19)
(4.01376 -1.61016 2.94622e-19)
(5.13579 -0.575828 -1.47415e-17)
(6.57851 0.51719 5.79697e-18)
(8.10465 1.45466 0)
(9.5547 2.12777 4.16279e-18)
(10.7408 2.47696 0)
(11.6077 2.45495 -4.82525e-18)
(12.2906 2.15798 2.56386e-19)
(12.9552 1.68529 -1.45076e-19)
(13.6465 1.15963 1.41609e-19)
(14.1018 0.755018 0)
(13.9687 0.518017 0)
(13.5311 0.415655 0)
(13.1016 0.340786 1.65077e-19)
(12.8308 0.262556 -8.86814e-19)
(12.6478 0.196473 -2.87791e-19)
(12.5076 0.146252 -2.77156e-19)
(12.3975 0.109829 4.43259e-19)
(12.3129 0.0819521 0)
(12.2483 0.0606767 0)
(12.2013 0.0443069 -3.05414e-20)
(12.1674 0.0324992 6.33054e-19)
(12.1402 0.0190199 -2.74389e-19)
(12.1138 0.00747845 -1.39332e-19)
(10.9679 -0.572145 -2.90735e-18)
(10.9937 -0.752605 -3.10169e-18)
(10.9724 -0.967624 0)
(10.9138 -1.21478 0)
(10.8066 -1.49796 4.0844e-19)
(10.632 -1.81698 -4.01725e-19)
(10.3671 -2.17577 -1.61084e-18)
(9.93183 -2.53509 1.77357e-18)
(9.18511 -2.74308 2.10272e-19)
(8.12838 -2.70949 -2.22467e-19)
(6.97105 -2.55675 -2.19656e-19)
(5.9142 -2.42983 1.8465e-18)
(5.01861 -2.36041 0)
(4.25723 -2.28729 -1.52212e-18)
(3.65299 -2.09354 4.59915e-18)
(3.39451 -1.6557 -1.73667e-19)
(3.49603 -0.927722 0)
(4.23431 0.158098 0)
(5.33645 1.31327 1.83896e-17)
(6.72298 2.44234 -1.07026e-17)
(8.12587 3.30641 0)
(9.444 3.79737 -2.40192e-17)
(10.4638 3.91002 1.60509e-19)
(11.1693 3.66203 4.1973e-18)
(11.7294 3.17494 -1.40635e-18)
(12.3329 2.55259 2.89091e-19)
(13.0579 1.89893 5.98864e-19)
(13.6331 1.36832 3.66707e-20)
(13.634 0.99014 1.71851e-18)
(13.2908 0.750161 0)
(12.9137 0.584831 0)
(12.6832 0.442643 8.35235e-19)
(12.5312 0.338146 -5.22494e-20)
(12.4176 0.259839 -4.65936e-20)
(12.3286 0.202577 -7.60158e-19)
(12.2606 0.159259 -2.56568e-19)
(12.2083 0.126757 -4.67928e-19)
(12.1705 0.101741 -6.15177e-20)
(12.1454 0.0818844 -2.79325e-19)
(12.1265 0.0640471 -1.17925e-19)
(12.1057 0.051999 7.686e-19)
(10.852 -0.542758 -3.38531e-18)
(10.858 -0.701655 3.27569e-18)
(10.8283 -0.890885 0)
(10.7629 -1.11241 0)
(10.651 -1.36543 -3.11013e-18)
(10.4729 -1.64628 3.19545e-18)
(10.2086 -1.95294 -3.7285e-18)
(9.81098 -2.26783 1.92306e-18)
(9.16323 -2.47487 -9.17309e-19)
(8.20713 -2.43566 -2.52127e-19)
(7.08367 -2.19792 5.07231e-19)
(5.99641 -1.90379 -9.35189e-19)
(5.05283 -1.60869 0)
(4.27653 -1.28427 0)
(3.72605 -0.869143 -2.23766e-18)
(3.53442 -0.24887 -8.34804e-19)
(3.73086 0.673083 -1.95409e-18)
(4.44631 1.90719 0)
(5.51235 3.09335 -8.62547e-18)
(6.8152 4.15471 -8.43515e-18)
(8.08716 4.86145 -6.43647e-20)
(9.22953 5.08845 9.12436e-18)
(10.0818 4.95053 0)
(10.648 4.49413 0)
(11.1144 3.85093 1.60613e-18)
(11.6765 3.12415 -3.11539e-19)
(12.432 2.40087 -5.82775e-19)
(13.1134 1.80205 1.53797e-20)
(13.2126 1.34244 -1.74295e-18)
(12.9773 0.993474 -6.38225e-20)
(12.6775 0.755174 0)
(12.4993 0.567041 9.85908e-19)
(12.3859 0.43587 1.43647e-20)
(12.3043 0.337225 8.56013e-19)
(12.2399 0.265685 -4.29e-19)
(12.1911 0.21202 -2.50031e-20)
(12.1534 0.172176 -1.70734e-19)
(12.1258 0.141919 4.36624e-19)
(12.1091 0.118069 0)
(12.0989 0.0985503 6.545e-19)
(12.0871 0.0835885 -6.84529e-19)
(10.7594 -0.498428 3.5169e-18)
(10.7446 -0.638959 0)
(10.7029 -0.807388 0)
(10.6286 -1.00461 9.09012e-19)
(10.5105 -1.22804 2.60425e-18)
(10.3285 -1.4718 -3.06411e-18)
(10.0627 -1.72884 -6.65443e-19)
(9.68655 -1.98949 -1.36525e-18)
(9.12041 -2.17959 -4.7828e-19)
(8.27868 -2.14938 2.44488e-19)
(7.22869 -1.86341 -4.91411e-19)
(6.15324 -1.43623 -2.05388e-18)
(5.19341 -0.943644 0)
(4.42144 -0.383186 0)
(3.91267 0.280356 2.389e-18)
(3.75503 1.11169 8.09561e-19)
(3.99752 2.19203 1.88903e-18)
(4.68163 3.44575 0)
(5.70996 4.56427 -3.6356e-21)
(6.88666 5.48474 1.56358e-18)
(8.01438 5.95384 0)
(8.96237 5.90136 5.90655e-18)
(9.65963 5.55268 2.46776e-18)
(10.1091 4.94488 -1.08543e-21)
(10.5062 4.20348 0)
(11.0419 3.4253 0)
(11.8189 2.68533 0)
(12.5828 2.06089 -2.69968e-18)
(12.7578 1.55833 7.83474e-20)
(12.6365 1.13425 -7.83911e-20)
(12.4157 0.850612 -2.44925e-18)
(12.2975 0.633866 -1.02632e-18)
(12.2289 0.486817 0)
(12.1825 0.376029 -1.81073e-18)
(12.1447 0.296656 1.68046e-18)
(12.116 0.237496 3.88451e-19)
(12.093 0.194032 7.47542e-19)
(12.0751 0.161458 6.98322e-19)
(12.065 0.135841 -7.43689e-19)
(12.062 0.115009 -5.4783e-21)
(12.0587 0.0996372 0)
(10.682 -0.443131 1.80591e-18)
(10.6507 -0.567638 -5.39536e-18)
(10.5948 -0.716858 0)
(10.5094 -0.89045 -4.57938e-18)
(10.3829 -1.08393 8.88653e-19)
(10.1965 -1.29089 -9.51424e-19)
(9.93031 -1.50137 4.60297e-18)
(9.56665 -1.70386 0)
(9.06135 -1.8573 0)
(8.33477 -1.83681 0)
(7.39243 -1.54043 0)
(6.37626 -1.02695 1.99219e-18)
(5.44103 -0.38671 0)
(4.69461 0.356787 0)
(4.2075 1.22378 -2.3108e-18)
(4.07038 2.2412 2.25268e-18)
(4.32523 3.40766 -6.11791e-19)
(4.98694 4.59866 0)
(5.93934 5.58194 4.66572e-18)
(6.96057 6.31769 6.60736e-18)
(7.93191 6.46993 3.85364e-20)
(8.69863 6.24811 -1.68311e-20)
(9.25245 5.76449 -2.48708e-18)
(9.60002 5.07238 0)
(9.94382 4.29253 0)
(10.4629 3.50567 -2.71153e-18)
(11.2493 2.78892 2.60536e-19)
(12.0791 2.1622 5.93113e-18)
(12.3145 1.64544 3.22265e-18)
(12.2951 1.17959 -3.01446e-18)
(12.1499 0.878737 -1.97732e-19)
(12.098 0.645165 0)
(12.0779 0.49229 0)
(12.0668 0.37721 9.58115e-19)
(12.0542 0.296988 1.5027e-20)
(12.0438 0.237718 0)
(12.0337 0.194945 -1.16023e-18)
(12.0244 0.162891 -3.24424e-19)
(12.0189 0.137409 5.02103e-20)
(12.0196 0.116655 1.48402e-18)
(12.0212 0.101871 -7.62433e-19)
(10.6153 -0.377934 0)
(10.5708 -0.487261 3.46292e-18)
(10.5021 -0.617381 0)
(10.4046 -0.767068 -1.89181e-18)
(10.2684 -0.930362 -9.15913e-20)
(10.0774 -1.10059 3.65952e-18)
(9.81253 -1.26682 -2.79324e-18)
(9.45865 -1.41276 9.39529e-19)
(8.9951 -1.51389 0)
(8.37114 -1.48884 0)
(7.55906 -1.21201 0)
(6.6489 -0.667766 2.05132e-18)
(5.78216 0.0619362 -3.81679e-18)
(5.07791 0.927289 0)
(4.61821 1.92182 0)
(4.49532 3.03422 -4.80434e-18)
(4.74866 4.20554 7.39737e-19)
(5.36297 5.29166 0)
(6.19325 6.11827 -1.37989e-18)
(7.04334 6.608 3.70537e-18)
(7.84399 6.57628 0)
(8.46342 6.25797 -1.62084e-18)
(8.88677 5.69907 0)
(9.14066 4.97263 -1.00539e-19)
(9.44337 4.19404 9.87253e-20)
(9.95228 3.42207 2.47844e-18)
(10.7351 2.75091 2.088e-19)
(11.6303 2.12922 -2.98653e-18)
(11.9016 1.62163 -3.75916e-18)
(11.9701 1.14338 -2.38441e-19)
(11.902 0.845476 2.79066e-18)
(11.9173 0.605238 2.58146e-18)
(11.9433 0.457935 0)
(11.9636 0.347303 -1.50049e-18)
(11.9713 0.273213 -4.34636e-19)
(11.9767 0.218112 -8.25303e-19)
(11.9779 0.179231 8.54575e-19)
(11.9766 0.149329 -7.53183e-19)
(11.9751 0.125549 5.28583e-20)
(11.9772 0.106569 7.76001e-19)
(11.9807 0.0934022 1.85723e-19)
(10.5573 -0.301343 3.19234e-18)
(10.5005 -0.395725 6.64385e-18)
(10.4214 -0.505975 7.7238e-20)
(10.3137 -0.630915 3.3593e-18)
(10.1685 -0.763898 -5.27447e-18)
(9.97323 -0.897642 1.7264e-18)
(9.71138 -1.02094 0)
(9.36888 -1.11433 -3.92645e-18)
(8.93411 -1.15827 1.92671e-18)
(8.39131 -1.10757 2.09559e-18)
(7.71365 -0.86061 -2.02765e-18)
(6.94306 -0.337769 -2.00172e-18)
(6.18055 0.418087 2.84386e-18)
(5.5445 1.34117 1.56653e-18)
(5.12907 2.38701 -6.85992e-19)
(5.02196 3.50976 -2.12475e-19)
(5.25715 4.61989 4.71774e-19)
(5.78944 5.58027 -1.06468e-18)
(6.46893 6.25343 -3.28591e-18)
(7.14128 6.61974 -3.63039e-18)
(7.76307 6.47932 -7.25755e-21)
(8.24664 6.04865 1.62929e-18)
(8.56069 5.47195 -9.51609e-19)
(8.72967 4.74142 0)
(9.00285 3.97935 -4.10808e-18)
(9.50673 3.22253 4.52519e-19)
(10.2768 2.59999 5.4461e-19)
(11.2425 1.987 -5.41685e-19)
(11.5245 1.51059 5.01965e-18)
(11.6808 1.03584 2.49919e-18)
(11.687 0.757254 0)
(11.7619 0.524308 2.26161e-20)
(11.8265 0.393803 -2.32303e-18)
(11.8748 0.294508 6.72438e-20)
(11.8993 0.231776 1.92025e-18)
(11.9193 0.183321 8.21965e-19)
(11.9306 0.150592 -8.51306e-19)
(11.9371 0.123912 0)
(11.9391 0.103422 7.25633e-19)
(11.9407 0.0877602 3.23589e-19)
(11.9434 0.0765937 -2.76018e-19)
(10.5098 -0.210088 -2.99417e-18)
(10.4402 -0.289489 -5.19501e-20)
(10.3518 -0.379052 9.07933e-20)
(10.2359 -0.478574 -3.12636e-18)
(10.0842 -0.58081 3.28227e-18)
(9.88633 -0.678408 0)
(9.62875 -0.760181 0)
(9.30251 -0.80531 1.85241e-18)
(8.8966 -0.797285 0)
(8.41565 -0.707124 2.49243e-19)
(7.85212 -0.476375 9.99668e-19)
(7.22694 0.000226111 0)
(6.58804 0.72293 0)
(6.0482 1.63375 0)
(5.70008 2.66368 2.38826e-18)
(5.61269 3.73754 3.01161e-18)
(5.81208 4.74896 -9.07971e-19)
(6.23395 5.57593 1.09573e-18)
(6.75494 6.11864 0)
(7.26406 6.33206 1.62627e-18)
(7.71004 6.17395 -2.59814e-20)
(8.0515 5.73351 -5.91342e-19)
(8.26545 5.19051 8.36825e-19)
(8.35388 4.45666 5.73721e-19)
(8.60914 3.7058 2.73268e-18)
(9.11252 2.9396 -4.78756e-18)
(9.86765 2.35882 -5.44956e-18)
(10.9025 1.75139 0)
(11.1953 1.32874 -8.65806e-18)
(11.44 0.867333 3.82883e-18)
(11.5077 0.624744 -3.20366e-18)
(11.6315 0.412885 -2.75355e-18)
(11.7282 0.307845 1.28279e-18)
(11.8049 0.22359 1.11892e-18)
(11.8444 0.176778 8.28242e-19)
(11.8781 0.137325 0)
(11.8971 0.113444 0)
(11.9097 0.0922976 -6.98158e-19)
(11.914 0.0771665 -6.75862e-19)
(11.9141 0.065699 1.75356e-18)
(11.9137 0.0568104 -1.12694e-18)
(10.4767 -0.100367 -2.13316e-20)
(10.3935 -0.163888 2.87647e-18)
(10.2963 -0.231854 -5.74003e-18)
(10.1724 -0.304593 -3.01981e-18)
(10.0164 -0.376866 3.14283e-18)
(9.81876 -0.439331 3.38916e-18)
(9.56877 -0.483428 -6.87054e-18)
(9.26293 -0.488685 1.68697e-18)
(8.88912 -0.435331 0)
(8.46256 -0.301814 -1.95724e-18)
(7.98733 -0.0584147 -1.0073e-18)
(7.49308 0.381203 2.48401e-20)
(6.98012 1.03969 0)
(6.55164 1.87525 0)
(6.28116 2.83073 -2.36183e-18)
(6.21971 3.82005 2.71676e-18)
(6.36871 4.71655 -1.09979e-18)
(6.66468 5.4205 0)
(7.01721 5.85442 6.77943e-20)
(7.36844 5.99597 -1.68733e-18)
(7.66049 5.83541 -2.04998e-19)
(7.8674 5.4436 6.02389e-19)
(7.97932 4.94073 2.64323e-18)
(7.98491 4.16622 0)
(8.22893 3.40907 -6.92213e-19)
(8.75093 2.58856 1.25138e-17)
(9.49965 2.04792 8.84901e-19)
(10.6268 1.43644 -2.71368e-18)
(10.9267 1.081 1.05838e-17)
(11.2477 0.65141 -3.93614e-18)
(11.3603 0.45917 3.28843e-18)
(11.5277 0.27768 0)
(11.6526 0.205398 0)
(11.7594 0.138846 -1.90634e-18)
(11.811 0.111729 -1.81577e-18)
(11.856 0.0850807 7.36472e-19)
(11.8789 0.0732243 -9.86166e-20)
(11.8952 0.0600831 2.63804e-18)
(11.9008 0.0521925 1.20653e-18)
(11.9003 0.0458973 -6.5924e-20)
(11.8974 0.0395246 -1.68779e-18)
(10.464 0.0322452 9.78146e-18)
(10.3677 -0.0118026 -7.75152e-18)
(10.2619 -0.0592716 2.39383e-18)
(10.1302 -0.104969 5.50791e-18)
(9.97175 -0.151953 9.66216e-20)
(9.77825 -0.183589 6.09573e-20)
(9.53713 -0.192359 0)
(9.25708 -0.16311 1.71363e-18)
(8.91202 -0.0630975 0)
(8.54413 0.0978697 -2.31451e-19)
(8.13499 0.37602 -4.49183e-19)
(7.75226 0.800488 1.83142e-18)
(7.34644 1.40907 -1.57147e-18)
(7.02652 2.14099 1.53379e-18)
(6.82863 2.98674 -1.25443e-18)
(6.78255 3.86622 -6.84294e-18)
(6.87726 4.64374 -1.06775e-19)
(7.05553 5.25409 -3.03391e-19)
(7.25494 5.61253 -4.58918e-19)
(7.44651 5.75195 0)
(7.58155 5.61817 2.10582e-19)
(7.65167 5.27141 0)
(7.65446 4.75987 -3.19694e-18)
(7.56818 3.8855 -4.59437e-18)
(7.79148 3.09224 0)
(8.40644 2.16387 -4.8219e-18)
(9.1736 1.6726 4.70383e-18)
(10.4062 1.06312 -1.36123e-18)
(10.7212 0.77964 -3.50163e-18)
(11.1031 0.400522 -1.84285e-18)
(11.2538 0.271577 1.84786e-18)
(11.4629 0.124851 2.57102e-18)
(11.6093 0.091707 0)
(11.7441 0.0473254 2.66876e-19)
(11.8024 0.0423132 0)
(11.8554 0.0325461 1.29645e-18)
(11.8779 0.0337983 -2.65686e-18)
(11.8949 0.0311419 -1.14694e-20)
(11.8998 0.0313052 -5.39757e-19)
(11.8989 0.0310425 1.15668e-18)
(11.8945 0.028564 0)
(10.4816 0.183603 -4.37508e-18)
(10.379 0.165017 -2.34986e-18)
(10.2628 0.128954 2.39473e-18)
(10.1314 0.109194 2.61466e-18)
(9.96468 0.0851377 0)
(9.78714 0.082856 -9.20765e-20)
(9.54389 0.115359 0)
(9.30173 0.170543 -1.56043e-18)
(8.97535 0.325912 1.62095e-18)
(8.67935 0.492409 -8.28378e-19)
(8.30956 0.822611 3.86069e-18)
(8.01677 1.22113 -1.06325e-19)
(7.6756 1.81081 -1.7429e-18)
(7.43147 2.43461 -2.67221e-18)
(7.28179 3.17924 3.39243e-18)
(7.24046 3.94225 2.94848e-18)
(7.29789 4.61093 5.73555e-20)
(7.38863 5.17238 1.89812e-19)
(7.47605 5.5055 8.61569e-19)
(7.49957 5.69635 -4.14715e-19)
(7.47793 5.58577 -1.75142e-20)
(7.38667 5.25547 1.87664e-18)
(7.23856 4.64645 0)
(7.04091 3.61851 5.24118e-18)
(7.23827 2.73698 -8.62873e-18)
(8.07189 1.6296 0)
(8.89765 1.22248 1.68566e-18)
(10.2406 0.638101 -2.87735e-19)
(10.583 0.446928 -3.58268e-18)
(11.0243 0.122738 4.43552e-19)
(11.2087 0.0667135 -1.05866e-18)
(11.4511 -0.0356923 -1.55889e-18)
(11.6012 -0.0279383 -2.78719e-18)
(11.7596 -0.040478 1.73778e-18)
(11.8186 -0.0256972 0)
(11.8779 -0.0136441 0)
(11.896 -0.00139986 -5.66363e-19)
(11.9107 0.00973181 3.60594e-19)
(11.9135 0.0158857 -9.30237e-19)
(11.9113 0.0225496 0)
(11.9059 0.0243737 -4.95432e-19)
(10.5214 0.341783 3.92092e-18)
(10.4401 0.350478 4.24399e-18)
(10.2828 0.324717 -4.20369e-18)
(10.1905 0.331507 -4.52397e-18)
(9.98497 0.343957 0)
(9.85774 0.362396 -5.24439e-18)
(9.58427 0.453018 0)
(9.40815 0.51564 6.08202e-18)
(9.08309 0.732994 -6.07958e-18)
(8.87188 0.878593 -2.34074e-18)
(8.52606 1.27712 3.12738e-18)
(8.30436 1.6127 0)
(7.99924 2.21014 0)
(7.79598 2.72839 1.15019e-18)
(7.65854 3.39919 -2.97333e-18)
(7.60549 4.04376 0)
(7.63389 4.6496 1.56089e-18)
(7.65949 5.21102 0)
(7.62612 5.55995 -4.02364e-19)
(7.5058 5.85358 2.17639e-19)
(7.32576 5.71801 0)
(7.04045 5.3934 -1.91229e-18)
(6.72623 4.60256 -4.75937e-18)
(6.39614 3.37032 7.15116e-18)
(6.67947 2.37765 1.53999e-17)
(7.7656 0.955078 2.12444e-19)
(8.6349 0.6768 -4.09228e-18)
(10.1365 0.139234 -4.57123e-18)
(10.4853 0.0565203 6.60507e-19)
(11.0248 -0.175681 2.13305e-18)
(11.2081 -0.167143 -1.1297e-18)
(11.4896 -0.192159 -6.77809e-19)
(11.6117 -0.15985 1.7392e-18)
(11.799 -0.122759 0)
(11.8491 -0.0967566 -8.20064e-19)
(11.92 -0.0496834 8.40972e-19)
(11.9308 -0.0337689 2.67651e-19)
(11.9416 -0.000802352 0)
(11.9414 0.00652124 5.96929e-19)
(11.9336 0.0251162 -6.2304e-19)
(11.9282 0.0280799 -3.88337e-19)
(11.9117 0.0389133 -3.02224e-19)
(11.8991 0.0227802 5.59315e-19)
(11.8926 0.0187015 0)
(11.8978 0.0228579 -2.1249e-18)
(11.917 0.0363496 7.54402e-19)
(11.946 0.0550901 -1.74953e-18)
(11.98 0.0734388 -8.51571e-19)
(12.0152 0.0866005 1.77102e-18)
(12.0472 0.0905262 -1.14834e-20)
(12.071 0.0821857 -3.36124e-18)
(12.084 0.0650193 8.29598e-19)
(12.0887 0.0403972 -7.54984e-19)
(12.0861 0.0118984 1.29155e-18)
(12.0762 -0.0124408 1.24447e-18)
(12.0352 -0.0253824 2.98314e-19)
(11.7907 0.0768257 -2.92423e-19)
(10.6722 -0.0682081 4.26782e-19)
(11.9016 0.0419046 8.23001e-19)
(11.8892 0.0265572 0)
(11.8857 0.0178169 0)
(11.8917 0.018589 2.25875e-18)
(11.9083 0.0278136 -7.49916e-20)
(11.9322 0.0424742 -8.87959e-19)
(11.96 0.0582636 1.36638e-20)
(11.9903 0.0716198 2.90013e-18)
(12.0213 0.0786322 -9.70132e-19)
(12.0502 0.0772673 1.89963e-18)
(12.073 0.0670983 -9.26484e-19)
(12.0872 0.050536 2.61969e-18)
(12.0929 0.0248028 -1.69096e-18)
(12.091 -0.0018957 -3.01575e-18)
(12.0591 -0.0361364 1.26879e-18)
(11.8222 -0.0145943 2.67118e-19)
(10.6313 -0.105368 -9.32474e-19)
(11.8804 0.0514557 0)
(11.878 0.0304654 1.2041e-18)
(11.8794 0.0184652 -1.78485e-18)
(11.8859 0.0135921 -1.32991e-18)
(11.9002 0.0175025 -1.80432e-18)
(11.9207 0.0275665 2.06e-18)
(11.9452 0.0405923 -1.07033e-18)
(11.9725 0.053658 -4.84302e-20)
(12.0017 0.0634788 -2.16465e-18)
(12.0309 0.0671451 1.08031e-18)
(12.0573 0.062627 0)
(12.0779 0.0514844 0)
(12.0888 0.0342688 9.7714e-19)
(12.0879 0.0160433 1.83104e-18)
(12.051 -0.00586729 0)
(11.7752 -0.000606535 0)
(10.5476 -0.0679223 0)
(11.8692 0.0543519 8.90127e-19)
(11.8665 0.0352217 -2.45328e-18)
(11.8711 0.0207622 1.61725e-18)
(11.878 0.0115001 -1.29429e-18)
(11.8899 0.0113302 2.13608e-18)
(11.9078 0.017168 5.34358e-19)
(11.9304 0.026622 -5.78153e-20)
(11.9565 0.0376938 2.38077e-18)
(11.9847 0.0480957 4.68424e-20)
(12.0138 0.0548513 -1.23261e-18)
(12.0415 0.05593 1.21035e-18)
(12.0649 0.0506559 1.19468e-18)
(12.0809 0.038724 -1.16675e-18)
(12.0815 0.0224431 -1.10993e-18)
(12.0341 0.00178547 2.17049e-18)
(11.7144 0.000717156 1.53265e-18)
(10.4642 -0.0462847 -4.84703e-19)
(11.8498 0.0633002 -1.39179e-18)
(11.8535 0.0417488 1.59697e-18)
(11.8608 0.0239559 -2.24664e-18)
(11.8683 0.0112563 1.99752e-18)
(11.8787 0.00686969 5.3048e-19)
(11.8948 0.00887967 -1.23054e-18)
(11.916 0.0149588 -6.5148e-19)
(11.9412 0.0233555 2.55137e-20)
(11.9689 0.0323979 6.51944e-19)
(11.9976 0.040507 0)
(12.0251 0.0453884 0)
(12.0485 0.0449408 1.37653e-18)
(12.0658 0.039179 -2.68181e-18)
(12.0669 0.0289845 -2.64363e-18)
(11.9989 0.0153113 -6.40955e-19)
(11.6231 0.0107571 -2.1674e-18)
(10.3751 -0.0179354 3.0275e-19)
(11.8377 0.068653 0)
(11.84 0.0481798 9.26313e-19)
(11.8473 0.0292044 2.03408e-18)
(11.8561 0.0136218 0)
(11.8666 0.00541443 -1.18701e-18)
(11.8816 0.00352017 6.73421e-19)
(11.9015 0.00627562 -2.02352e-18)
(11.9254 0.0117466 1.40755e-18)
(11.9523 0.0188054 -7.6863e-19)
(11.9803 0.0263301 -7.49627e-19)
(12.0069 0.0323564 -7.77863e-19)
(12.029 0.0356708 7.66232e-19)
(12.0431 0.0347359 1.56541e-18)
(12.0403 0.029048 1.54695e-18)
(11.9436 0.0223728 -7.36322e-19)
(11.5139 0.0175399 -7.4147e-19)
(10.2844 0.00839202 0)
(11.8203 0.078661 -1.20985e-18)
(11.825 0.0561143 -2.11787e-18)
(11.832 0.0357993 2.95726e-19)
(11.8414 0.0180439 -2.99112e-19)
(11.8531 0.00653473 1.35027e-18)
(11.8677 0.000949893 0)
(11.8863 0.000196501 1.53919e-18)
(11.9088 0.00292201 -1.60927e-18)
(11.9343 0.00771734 0)
(11.961 0.0136888 0)
(11.9859 0.0194686 0)
(12.0052 0.0243605 0)
(12.0136 0.0269054 -8.45287e-19)
(12.002 0.026017 8.72373e-19)
(11.8732 0.0249099 4.37504e-20)
(11.4011 0.0204491 0)
(10.1941 0.0288958 -1.69114e-18)
(11.8068 0.086161 -2.22667e-20)
(11.809 0.0649433 2.56762e-18)
(11.8151 0.0436053 -3.22951e-19)
(11.8244 0.0250222 1.67612e-19)
(11.837 0.0109883 1.85775e-19)
(11.852 0.00181915 -3.8315e-19)
(11.8699 -0.0026469 1.96947e-19)
(11.8909 -0.00277745 0)
(11.9149 -0.00118848 -4.44e-19)
(11.94 0.0028459 4.42298e-19)
(11.9628 0.00794134 4.65231e-19)
(11.9786 0.0130631 4.49505e-19)
(11.9813 0.0173346 4.87211e-19)
(11.9576 0.0194388 -4.58268e-19)
(11.8016 0.0226757 9.7336e-19)
(11.2999 0.019419 0)
(10.1096 0.0420647 1.95767e-18)
(11.79 0.0972597 1.26068e-18)
(11.7925 0.0747989 -1.34951e-18)
(11.7974 0.0530911 0)
(11.8057 0.0341429 0)
(11.818 0.0187233 1.69392e-18)
(11.8332 0.00708955 -1.01827e-19)
(11.8509 -0.000664972 0)
(11.8711 -0.00553221 -1.13399e-19)
(11.8938 -0.00590923 -1.20897e-19)
(11.9175 -0.0045663 1.16172e-18)
(11.9386 -0.00125054 9.4822e-19)
(11.9517 0.0026874 -7.61871e-19)
(11.9501 0.00723278 -7.55371e-19)
(11.9169 0.0113999 1.0269e-18)
(11.7398 0.0176809 5.06945e-19)
(11.2183 0.0177497 0)
(10.0399 0.0512806 0)
(11.7751 0.107164 0)
(11.7755 0.0857474 0)
(11.7792 0.0642112 -1.59823e-18)
(11.7863 0.045149 -6.39492e-21)
(11.7971 0.0292473 -1.73234e-18)
(11.8112 0.0159199 0)
(11.8282 0.00587982 0)
(11.8477 -0.00114254 0)
(11.8696 -0.0055892 0)
(11.8927 -0.00791731 -3.03425e-20)
(11.9132 -0.00683495 -1.02424e-18)
(11.9252 -0.00442551 -1.00062e-18)
(11.9213 -0.000559648 0)
(11.8838 0.00422047 8.90861e-19)
(11.6927 0.0101124 1.30885e-19)
(11.1633 0.0120963 0)
(9.99597 0.0511514 0)
(11.7577 0.120395 0)
(11.7582 0.0978263 -1.68672e-18)
(11.7607 0.0765486 1.73027e-18)
(11.7665 0.0576103 -9.07996e-19)
(11.7756 0.0414245 0)
(11.7877 0.0274778 2.41175e-19)
(11.8027 0.0161837 -1.21423e-18)
(11.8206 0.00716319 9.88556e-19)
(11.8413 0.000378319 0)
(11.8639 -0.00397234 -1.35712e-20)
(11.8847 -0.00682901 1.01653e-18)
(11.8973 -0.00618613 1.04948e-18)
(11.893 -0.00469701 -1.02746e-18)
(11.8563 -0.00212202 -1.07118e-18)
(11.6648 0.000927955 1.03561e-18)
(11.1396 0.00615256 0)
(9.98578 0.0404167 0)
(11.7412 0.1332 1.32028e-20)
(11.7403 0.110983 1.92066e-18)
(11.7418 0.0899952 -1.15405e-19)
(11.7464 0.0707905 9.53248e-19)
(11.7539 0.054163 9.81186e-19)
(11.764 0.0396988 0)
(11.7767 0.0276314 1.00128e-18)
(11.792 0.0177403 -1.4178e-21)
(11.8104 0.00968719 1.01979e-18)
(11.8313 0.00350728 -1.54961e-18)
(11.8521 -0.00074591 -5.24697e-19)
(11.866 -0.00309561 2.59727e-19)
(11.8627 -0.00321912 7.86592e-19)
(11.8289 -0.00268257 8.92604e-19)
(11.6538 -0.000657961 -1.04782e-18)
(11.145 0.00667413 1.27764e-19)
(10.0112 0.0281398 -1.01965e-18)
(11.7227 0.149193 1.28001e-19)
(11.7216 0.125297 -1.23982e-18)
(11.7224 0.10435 1.0074e-18)
(11.7258 0.0848284 0)
(11.7317 0.0676357 -9.95751e-19)
(11.7401 0.0524427 1.01643e-18)
(11.7506 0.039486 1.01586e-18)
(11.7634 0.0286612 -1.51523e-18)
(11.7789 0.0196429 -2.01942e-18)
(11.7974 0.0122433 -5.06909e-19)
(11.817 0.00664982 -1.51078e-18)
(11.8318 0.00303887 9.95996e-19)
(11.8311 0.000872845 4.97728e-19)
(11.8018 -0.000166577 -1.2494e-18)
(11.6536 0.00076866 2.45267e-19)
(11.1727 0.00768279 0)
(10.0658 0.0157835 9.8973e-19)
(11.704 0.16489 -1.06419e-18)
(11.7019 0.140841 -5.72562e-19)
(11.7017 0.120081 -5.09702e-19)
(11.7039 0.100258 0)
(11.7083 0.0824774 -1.05115e-18)
(11.715 0.0664657 -1.01118e-18)
(11.7236 0.0523929 -1.00381e-18)
(11.7342 0.0402711 4.93421e-19)
(11.7472 0.0300457 4.9313e-19)
(11.763 0.0213798 -4.98289e-19)
(11.781 0.014109 1.45112e-18)
(11.7967 0.0086481 -9.59518e-19)
(11.8 0.00458091 -1.41623e-18)
(11.7779 0.00144893 9.3115e-19)
(11.6566 0.00117679 -6.8438e-19)
(11.2126 0.00465778 -2.25603e-19)
(10.1392 0.00309271 4.4114e-19)
(11.6833 0.184189 1.08551e-18)
(11.6805 0.158841 1.08088e-18)
(11.6793 0.137813 0)
(11.6801 0.117762 0)
(11.6829 0.0994663 5.07886e-19)
(11.6879 0.0825447 1.05405e-18)
(11.6947 0.0669572 -1.54581e-18)
(11.7033 0.0528232 1.99451e-18)
(11.7141 0.0408403 -9.74007e-19)
(11.7273 0.0308351 -7.60207e-21)
(11.7435 0.0219295 9.29674e-19)
(11.7599 0.0145042 0)
(11.7677 0.00824925 8.87528e-19)
(11.75 0.00211985 4.37425e-19)
(11.6576 -0.00143876 -9.17251e-22)
(11.2554 -0.00313914 0)
(10.2255 -0.00875497 -3.58541e-21)
(11.661 0.203006 5.83494e-19)
(11.6571 0.178504 5.9415e-19)
(11.6546 0.157675 -1.16874e-18)
(11.6539 0.137423 0)
(11.6551 0.118522 0)
(11.6583 0.100648 -5.21242e-19)
(11.6631 0.0836606 1.04565e-18)
(11.6697 0.067621 -1.007e-18)
(11.6779 0.0537218 9.7626e-19)
(11.6886 0.0418464 4.89902e-19)
(11.7027 0.0308417 1.38087e-18)
(11.7186 0.0214622 -8.82382e-19)
(11.7293 0.01294 0)
(11.7181 0.00345351 -8.13501e-19)
(11.6502 -0.000864222 7.89825e-19)
(11.2949 -0.00897269 -1.90476e-19)
(10.3138 -0.0130294 -5.60238e-19)
(11.6358 0.226764 0)
(11.6308 0.201406 -6.531e-19)
(11.6271 0.179874 1.22459e-18)
(11.6249 0.159176 0)
(11.6244 0.139657 5.99225e-19)
(11.6255 0.120993 -5.80247e-19)
(11.6283 0.103045 -5.16844e-19)
(11.6324 0.0858024 5.41947e-19)
(11.638 0.0698092 0)
(11.6457 0.055325 -4.61046e-19)
(11.6567 0.0425283 -9.2646e-19)
(11.6708 0.031663 -4.65223e-19)
(11.6836 0.0195125 4.44764e-19)
(11.6792 0.00760944 0)
(11.6271 0.00673335 -4.09438e-19)
(11.3265 -0.015494 0)
(10.3956 -0.0137291 3.42257e-19)
(11.6086 0.248728 1.3862e-18)
(11.602 0.224998 -6.70563e-19)
(11.5967 0.203638 -6.19521e-19)
(11.5926 0.182774 1.25593e-18)
(11.59 0.162801 -1.77284e-18)
(11.5889 0.14357 5.55264e-19)
(11.5892 0.12505 0)
(11.5908 0.107055 5.62619e-19)
(11.5936 0.0893721 -1.03026e-18)
(11.598 0.0722129 0)
(11.6049 0.0571438 7.04498e-19)
(11.6158 0.0440212 4.30749e-19)
(11.6287 0.0287202 -4.09753e-19)