/*--------------------------------*- C++ -*----------------------------------*\
  =========                 |
  \\      /  F ield         | OpenFOAM: The Open Source CFD Toolbox
   \\    /   O peration     | Website:  https://openfoam.org
    \\  /    A nd           | Version:  6
     \\/     M anipulation  |
\*---------------------------------------------------------------------------*/
FoamFile
{
    version     2.0;
    format      ascii;
    class       volVectorField;
    location    "3.19";
    object      U;
}
// * * * * * * * * * * * * * * * * * * * * * * * * * * * * * * * * * * * * * //

dimensions      [0 1 -1 0 0 0 0];

internalField   nonuniform List<vector> 
10000
(
(0.8944 0.4472 0)
(0.8944 0.4472 0)
(0.8944 0.4472 0)
(0.8944 0.4472 0)
(0.8944 0.4472 0)
(0.8944 0.4472 0)
(0.8944 0.4472 0)
(0.8944 0.4472 0)
(0.8944 0.4472 0)
(0.8944 0.4472 0)
(0.8944 0.4472 0)
(0.8944 0.4472 0)
(0.8944 0.4472 0)
(0.8944 0.4472 0)
(0.8944 0.4472 0)
(0.8944 0.4472 0)
(0.8944 0.4472 0)
(0.8944 0.4472 0)
(0.8944 0.4472 0)
(0.8944 0.4472 0)
(0.8944 0.4472 0)
(0.8944 0.4472 0)
(0.8944 0.4472 0)
(0.8944 0.4472 0)
(0.8944 0.4472 0)
(0.8944 0.4472 0)
(0.8944 0.4472 0)
(0.8944 0.4472 0)
(0.8944 0.4472 0)
(0.8944 0.4472 0)
(0.8944 0.4472 0)
(0.8944 0.4472 0)
(0.8944 0.4472 0)
(0.8944 0.4472 0)
(0.8944 0.4472 0)
(0.8944 0.4472 0)
(0.8944 0.4472 0)
(0.8944 0.4472 0)
(0.8944 0.4472 0)
(0.8944 0.4472 0)
(0.8944 0.4472 0)
(0.8944 0.4472 0)
(0.8944 0.4472 0)
(0.8944 0.4472 0)
(0.8944 0.4472 0)
(0.894401 0.4472 0)
(0.894401 0.447199 0)
(0.894402 0.447199 0)
(0.894403 0.447197 0)
(0.894404 0.447195 0)
(0.894405 0.447193 0)
(0.894406 0.44719 0)
(0.894406 0.447187 0)
(0.894406 0.447183 0)
(0.894405 0.44718 0)
(0.894403 0.447178 0)
(0.8944 0.447177 0)
(0.894396 0.447179 0)
(0.894393 0.447182 0)
(0.89439 0.447187 0)
(0.894388 0.447194 0)
(0.894387 0.447201 0)
(0.894387 0.44721 0)
(0.894389 0.447217 0)
(0.894392 0.447224 0)
(0.894395 0.447228 0)
(0.894399 0.44723 0)
(0.894403 0.44723 0)
(0.894406 0.447228 0)
(0.894408 0.447224 0)
(0.894409 0.447219 0)
(0.894408 0.447213 0)
(0.894407 0.447207 0)
(0.894406 0.447203 0)
(0.894404 0.447199 0)
(0.894403 0.447197 0)
(0.894401 0.447195 0)
(0.8944 0.447194 0)
(0.894399 0.447194 0)
(0.894398 0.447194 0)
(0.894398 0.447195 0)
(0.894398 0.447196 0)
(0.894398 0.447197 0)
(0.894399 0.447198 0)
(0.894399 0.447198 0)
(0.894399 0.447199 0)
(0.8944 0.447199 0)
(0.8944 0.4472 0)
(0.8944 0.4472 0)
(0.8944 0.4472 0)
(0.8944 0.4472 0)
(0.8944 0.4472 0)
(0.8944 0.4472 0)
(0.8944 0.4472 0)
(0.8944 0.4472 0)
(0.8944 0.4472 0)
(0.8944 0.4472 0)
(0.8944 0.4472 0)
(0.8944 0.4472 0)
(0.8944 0.4472 0)
(0.8944 0.4472 0)
(0.8944 0.4472 0)
(0.8944 0.4472 0)
(0.8944 0.4472 0)
(0.8944 0.4472 0)
(0.8944 0.4472 0)
(0.8944 0.4472 0)
(0.8944 0.4472 0)
(0.8944 0.4472 0)
(0.8944 0.4472 0)
(0.8944 0.4472 0)
(0.8944 0.4472 0)
(0.8944 0.4472 0)
(0.8944 0.4472 0)
(0.8944 0.4472 0)
(0.8944 0.4472 0)
(0.8944 0.4472 0)
(0.8944 0.4472 0)
(0.8944 0.4472 0)
(0.8944 0.4472 0)
(0.8944 0.4472 0)
(0.8944 0.4472 0)
(0.8944 0.4472 0)
(0.8944 0.4472 0)
(0.8944 0.4472 0)
(0.8944 0.4472 0)
(0.8944 0.4472 0)
(0.8944 0.4472 0)
(0.8944 0.4472 0)
(0.8944 0.4472 0)
(0.8944 0.4472 0)
(0.8944 0.4472 0)
(0.8944 0.4472 0)
(0.8944 0.4472 0)
(0.8944 0.4472 0)
(0.8944 0.4472 0)
(0.8944 0.4472 0)
(0.8944 0.4472 0)
(0.8944 0.4472 0)
(0.8944 0.4472 0)
(0.8944 0.4472 0)
(0.8944 0.4472 0)
(0.8944 0.447201 0)
(0.8944 0.447201 0)
(0.8944 0.447201 0)
(0.894401 0.4472 0)
(0.894402 0.4472 0)
(0.894403 0.447198 0)
(0.894405 0.447196 0)
(0.894406 0.447194 0)
(0.894408 0.44719 0)
(0.894409 0.447186 0)
(0.894409 0.447182 0)
(0.894408 0.447178 0)
(0.894407 0.447174 0)
(0.894404 0.447171 0)
(0.8944 0.447171 0)
(0.894396 0.447172 0)
(0.894391 0.447176 0)
(0.894387 0.447182 0)
(0.894384 0.44719 0)
(0.894383 0.4472 0)
(0.894383 0.44721 0)
(0.894385 0.44722 0)
(0.894388 0.447228 0)
(0.894392 0.447234 0)
(0.894397 0.447237 0)
(0.894402 0.447238 0)
(0.894406 0.447235 0)
(0.894408 0.447231 0)
(0.89441 0.447225 0)
(0.89441 0.447219 0)
(0.89441 0.447212 0)
(0.894409 0.447206 0)
(0.894407 0.447201 0)
(0.894404 0.447197 0)
(0.894402 0.447195 0)
(0.8944 0.447193 0)
(0.894399 0.447193 0)
(0.894399 0.447193 0)
(0.894398 0.447194 0)
(0.894398 0.447195 0)
(0.894398 0.447196 0)
(0.894398 0.447197 0)
(0.894399 0.447198 0)
(0.894399 0.447198 0)
(0.894399 0.447199 0)
(0.894399 0.447199 0)
(0.8944 0.4472 0)
(0.8944 0.4472 0)
(0.8944 0.4472 0)
(0.8944 0.4472 0)
(0.8944 0.4472 0)
(0.8944 0.4472 0)
(0.8944 0.4472 0)
(0.8944 0.4472 0)
(0.8944 0.4472 0)
(0.8944 0.4472 0)
(0.8944 0.4472 0)
(0.8944 0.4472 0)
(0.8944 0.4472 0)
(0.8944 0.4472 0)
(0.8944 0.4472 0)
(0.8944 0.4472 0)
(0.8944 0.4472 0)
(0.8944 0.4472 0)
(0.8944 0.4472 0)
(0.8944 0.4472 0)
(0.8944 0.4472 0)
(0.8944 0.4472 0)
(0.8944 0.4472 0)
(0.8944 0.4472 0)
(0.8944 0.4472 0)
(0.8944 0.4472 0)
(0.8944 0.4472 0)
(0.8944 0.4472 0)
(0.8944 0.4472 0)
(0.8944 0.4472 0)
(0.8944 0.4472 0)
(0.8944 0.4472 0)
(0.8944 0.4472 0)
(0.8944 0.4472 0)
(0.8944 0.4472 0)
(0.8944 0.4472 0)
(0.8944 0.4472 0)
(0.8944 0.4472 0)
(0.8944 0.4472 0)
(0.8944 0.4472 0)
(0.8944 0.4472 0)
(0.8944 0.4472 0)
(0.8944 0.4472 0)
(0.8944 0.4472 0)
(0.8944 0.4472 0)
(0.8944 0.4472 0)
(0.8944 0.4472 0)
(0.8944 0.4472 0)
(0.8944 0.4472 0)
(0.8944 0.4472 0)
(0.8944 0.4472 0)
(0.8944 0.447201 0)
(0.8944 0.447201 0)
(0.8944 0.447201 0)
(0.8944 0.447201 0)
(0.8944 0.447201 0)
(0.894401 0.447201 0)
(0.894402 0.447201 0)
(0.894403 0.4472 0)
(0.894405 0.447198 0)
(0.894407 0.447196 0)
(0.894409 0.447192 0)
(0.894411 0.447187 0)
(0.894412 0.447182 0)
(0.894413 0.447177 0)
(0.894412 0.447171 0)
(0.89441 0.447167 0)
(0.894406 0.447163 0)
(0.894401 0.447162 0)
(0.894395 0.447164 0)
(0.89439 0.447168 0)
(0.894384 0.447176 0)
(0.89438 0.447186 0)
(0.894378 0.447198 0)
(0.894377 0.44721 0)
(0.894379 0.447222 0)
(0.894383 0.447233 0)
(0.894388 0.44724 0)
(0.894395 0.447245 0)
(0.8944 0.447247 0)
(0.894405 0.447245 0)
(0.894409 0.44724 0)
(0.894412 0.447234 0)
(0.894413 0.447226 0)
(0.894412 0.447218 0)
(0.894411 0.447211 0)
(0.894409 0.447204 0)
(0.894406 0.447199 0)
(0.894403 0.447196 0)
(0.894401 0.447194 0)
(0.8944 0.447193 0)
(0.894399 0.447193 0)
(0.894398 0.447193 0)
(0.894398 0.447194 0)
(0.894397 0.447195 0)
(0.894398 0.447196 0)
(0.894398 0.447197 0)
(0.894399 0.447198 0)
(0.894399 0.447199 0)
(0.894399 0.447199 0)
(0.8944 0.447199 0)
(0.8944 0.4472 0)
(0.8944 0.4472 0)
(0.8944 0.4472 0)
(0.8944 0.4472 0)
(0.8944 0.4472 0)
(0.8944 0.4472 0)
(0.8944 0.4472 0)
(0.8944 0.4472 0)
(0.8944 0.4472 0)
(0.8944 0.4472 0)
(0.8944 0.4472 0)
(0.8944 0.4472 0)
(0.8944 0.4472 0)
(0.8944 0.4472 0)
(0.8944 0.4472 0)
(0.8944 0.4472 0)
(0.8944 0.4472 0)
(0.8944 0.4472 0)
(0.8944 0.4472 0)
(0.8944 0.4472 0)
(0.8944 0.4472 0)
(0.8944 0.4472 0)
(0.8944 0.4472 0)
(0.8944 0.4472 0)
(0.8944 0.4472 0)
(0.8944 0.4472 0)
(0.8944 0.4472 0)
(0.8944 0.4472 0)
(0.8944 0.4472 0)
(0.8944 0.4472 0)
(0.8944 0.4472 0)
(0.8944 0.4472 0)
(0.8944 0.4472 0)
(0.8944 0.4472 0)
(0.8944 0.4472 0)
(0.8944 0.4472 0)
(0.8944 0.4472 0)
(0.8944 0.4472 0)
(0.8944 0.4472 0)
(0.8944 0.4472 0)
(0.8944 0.4472 0)
(0.8944 0.4472 0)
(0.8944 0.4472 0)
(0.8944 0.4472 0)
(0.8944 0.4472 0)
(0.8944 0.4472 0)
(0.8944 0.4472 0)
(0.8944 0.4472 0)
(0.8944 0.4472 0)
(0.894399 0.447201 0)
(0.894399 0.447201 0)
(0.894399 0.447202 0)
(0.894399 0.447202 0)
(0.894399 0.447202 0)
(0.8944 0.447203 0)
(0.894401 0.447203 0)
(0.894403 0.447202 0)
(0.894405 0.447201 0)
(0.894407 0.447199 0)
(0.89441 0.447195 0)
(0.894413 0.44719 0)
(0.894416 0.447184 0)
(0.894417 0.447177 0)
(0.894418 0.44717 0)
(0.894416 0.447163 0)
(0.894413 0.447158 0)
(0.894409 0.447154 0)
(0.894402 0.447153 0)
(0.894395 0.447154 0)
(0.894387 0.44716 0)
(0.89438 0.447169 0)
(0.894375 0.447181 0)
(0.894372 0.447195 0)
(0.894371 0.447211 0)
(0.894373 0.447225 0)
(0.894377 0.447238 0)
(0.894383 0.447248 0)
(0.89439 0.447255 0)
(0.894398 0.447258 0)
(0.894404 0.447256 0)
(0.894409 0.447252 0)
(0.894413 0.447244 0)
(0.894415 0.447236 0)
(0.894415 0.447226 0)
(0.894414 0.447217 0)
(0.894411 0.447209 0)
(0.894408 0.447202 0)
(0.894406 0.447197 0)
(0.894403 0.447194 0)
(0.894401 0.447192 0)
(0.894399 0.447192 0)
(0.894398 0.447192 0)
(0.894397 0.447193 0)
(0.894397 0.447194 0)
(0.894397 0.447195 0)
(0.894398 0.447196 0)
(0.894398 0.447197 0)
(0.894399 0.447198 0)
(0.894399 0.447199 0)
(0.894399 0.447199 0)
(0.8944 0.447199 0)
(0.8944 0.4472 0)
(0.8944 0.4472 0)
(0.8944 0.4472 0)
(0.8944 0.4472 0)
(0.8944 0.4472 0)
(0.8944 0.4472 0)
(0.8944 0.4472 0)
(0.8944 0.4472 0)
(0.8944 0.4472 0)
(0.8944 0.4472 0)
(0.8944 0.4472 0)
(0.8944 0.4472 0)
(0.8944 0.4472 0)
(0.8944 0.4472 0)
(0.8944 0.4472 0)
(0.8944 0.4472 0)
(0.8944 0.4472 0)
(0.8944 0.4472 0)
(0.8944 0.4472 0)
(0.8944 0.4472 0)
(0.8944 0.4472 0)
(0.8944 0.4472 0)
(0.8944 0.4472 0)
(0.8944 0.4472 0)
(0.8944 0.4472 0)
(0.8944 0.4472 0)
(0.8944 0.4472 0)
(0.8944 0.4472 0)
(0.8944 0.4472 0)
(0.8944 0.4472 0)
(0.8944 0.4472 0)
(0.8944 0.447199 0)
(0.8944 0.447201 0)
(0.8944 0.4472 0)
(0.8944 0.4472 0)
(0.8944 0.4472 0)
(0.8944 0.4472 0)
(0.8944 0.4472 0)
(0.8944 0.4472 0)
(0.8944 0.4472 0)
(0.8944 0.4472 0)
(0.8944 0.4472 0)
(0.8944 0.4472 0)
(0.8944 0.4472 0)
(0.8944 0.4472 0)
(0.8944 0.4472 0)
(0.8944 0.447201 0)
(0.894399 0.447201 0)
(0.894399 0.447202 0)
(0.894399 0.447202 0)
(0.894399 0.447203 0)
(0.894398 0.447204 0)
(0.894398 0.447205 0)
(0.8944 0.447206 0)
(0.894401 0.447206 0)
(0.894404 0.447205 0)
(0.894407 0.447203 0)
(0.894411 0.4472 0)
(0.894415 0.447195 0)
(0.894419 0.447188 0)
(0.894422 0.44718 0)
(0.894424 0.447172 0)
(0.894424 0.447163 0)
(0.894422 0.447155 0)
(0.894418 0.447148 0)
(0.894412 0.447143 0)
(0.894404 0.447142 0)
(0.894395 0.447144 0)
(0.894385 0.44715 0)
(0.894376 0.447161 0)
(0.894369 0.447175 0)
(0.894365 0.447192 0)
(0.894363 0.44721 0)
(0.894365 0.447228 0)
(0.89437 0.447244 0)
(0.894377 0.447257 0)
(0.894385 0.447266 0)
(0.894394 0.447271 0)
(0.894402 0.44727 0)
(0.894409 0.447266 0)
(0.894414 0.447258 0)
(0.894417 0.447248 0)
(0.894418 0.447237 0)
(0.894417 0.447226 0)
(0.894415 0.447215 0)
(0.894412 0.447206 0)
(0.894408 0.4472 0)
(0.894405 0.447195 0)
(0.894402 0.447192 0)
(0.894399 0.447191 0)
(0.894398 0.447191 0)
(0.894397 0.447191 0)
(0.894397 0.447192 0)
(0.894397 0.447194 0)
(0.894397 0.447195 0)
(0.894397 0.447196 0)
(0.894398 0.447197 0)
(0.894399 0.447198 0)
(0.894399 0.447199 0)
(0.894399 0.447199 0)
(0.8944 0.4472 0)
(0.8944 0.4472 0)
(0.8944 0.4472 0)
(0.8944 0.4472 0)
(0.8944 0.4472 0)
(0.8944 0.4472 0)
(0.8944 0.4472 0)
(0.8944 0.4472 0)
(0.8944 0.4472 0)
(0.8944 0.4472 0)
(0.8944 0.4472 0)
(0.8944 0.4472 0)
(0.8944 0.4472 0)
(0.8944 0.4472 0)
(0.8944 0.4472 0)
(0.8944 0.4472 0)
(0.8944 0.4472 0)
(0.8944 0.4472 0)
(0.8944 0.4472 0)
(0.8944 0.4472 0)
(0.8944 0.4472 0)
(0.8944 0.4472 0)
(0.8944 0.4472 0)
(0.8944 0.4472 0)
(0.8944 0.4472 0)
(0.8944 0.4472 0)
(0.8944 0.4472 0)
(0.8944 0.4472 0)
(0.8944 0.4472 0)
(0.8944 0.4472 0)
(0.8944 0.4472 0)
(0.8944 0.4472 0)
(0.8944 0.4472 0)
(0.8944 0.4472 0)
(0.8944 0.4472 0)
(0.8944 0.4472 0)
(0.8944 0.447201 0)
(0.8944 0.447199 0)
(0.8944 0.447201 0)
(0.8944 0.4472 0)
(0.894399 0.4472 0)
(0.8944 0.4472 0)
(0.8944 0.4472 0)
(0.8944 0.4472 0)
(0.894399 0.4472 0)
(0.894399 0.447201 0)
(0.894399 0.447201 0)
(0.894398 0.447202 0)
(0.894397 0.447204 0)
(0.894397 0.447205 0)
(0.894397 0.447206 0)
(0.894396 0.447208 0)
(0.894397 0.44721 0)
(0.894398 0.447211 0)
(0.894401 0.447211 0)
(0.894405 0.447211 0)
(0.89441 0.447208 0)
(0.894415 0.447203 0)
(0.894421 0.447196 0)
(0.894426 0.447187 0)
(0.89443 0.447176 0)
(0.894432 0.447166 0)
(0.894432 0.447155 0)
(0.894429 0.447146 0)
(0.894424 0.447138 0)
(0.894416 0.447133 0)
(0.894406 0.447132 0)
(0.894395 0.447134 0)
(0.894382 0.447142 0)
(0.894371 0.447154 0)
(0.894362 0.44717 0)
(0.894356 0.44719 0)
(0.894353 0.447211 0)
(0.894355 0.447232 0)
(0.89436 0.447252 0)
(0.894367 0.447268 0)
(0.894377 0.447279 0)
(0.894388 0.447286 0)
(0.894399 0.447287 0)
(0.894408 0.447283 0)
(0.894415 0.447275 0)
(0.89442 0.447264 0)
(0.894421 0.447251 0)
(0.894421 0.447237 0)
(0.894419 0.447224 0)
(0.894416 0.447213 0)
(0.894412 0.447204 0)
(0.894407 0.447197 0)
(0.894404 0.447193 0)
(0.894401 0.44719 0)
(0.894398 0.44719 0)
(0.894397 0.44719 0)
(0.894396 0.447191 0)
(0.894396 0.447192 0)
(0.894396 0.447194 0)
(0.894397 0.447195 0)
(0.894398 0.447197 0)
(0.894398 0.447198 0)
(0.894399 0.447198 0)
(0.894399 0.447199 0)
(0.894399 0.447199 0)
(0.8944 0.4472 0)
(0.8944 0.4472 0)
(0.8944 0.4472 0)
(0.8944 0.4472 0)
(0.8944 0.4472 0)
(0.8944 0.4472 0)
(0.8944 0.4472 0)
(0.8944 0.4472 0)
(0.8944 0.4472 0)
(0.8944 0.4472 0)
(0.8944 0.4472 0)
(0.8944 0.4472 0)
(0.8944 0.4472 0)
(0.8944 0.4472 0)
(0.8944 0.4472 0)
(0.8944 0.4472 0)
(0.8944 0.4472 0)
(0.8944 0.4472 0)
(0.8944 0.4472 0)
(0.8944 0.4472 0)
(0.8944 0.4472 0)
(0.8944 0.4472 0)
(0.8944 0.4472 0)
(0.8944 0.4472 0)
(0.8944 0.4472 0)
(0.8944 0.4472 0)
(0.8944 0.4472 0)
(0.8944 0.4472 0)
(0.8944 0.4472 0)
(0.8944 0.447199 0)
(0.8944 0.447201 0)
(0.8944 0.447199 0)
(0.8944 0.447201 0)
(0.8944 0.4472 0)
(0.894399 0.4472 0)
(0.894401 0.447201 0)
(0.8944 0.447199 0)
(0.8944 0.4472 0)
(0.894401 0.4472 0)
(0.894399 0.4472 0)
(0.8944 0.447201 0)
(0.8944 0.4472 0)
(0.894399 0.447201 0)
(0.894398 0.447201 0)
(0.894398 0.447203 0)
(0.894397 0.447203 0)
(0.894396 0.447205 0)
(0.894395 0.447207 0)
(0.894394 0.447209 0)
(0.894393 0.447213 0)
(0.894393 0.447216 0)
(0.894394 0.447219 0)
(0.894396 0.44722 0)
(0.8944 0.447221 0)
(0.894407 0.44722 0)
(0.894414 0.447215 0)
(0.894422 0.447209 0)
(0.894429 0.447199 0)
(0.894436 0.447187 0)
(0.89444 0.447174 0)
(0.894442 0.447162 0)
(0.894441 0.44715 0)
(0.894437 0.447139 0)
(0.894431 0.44713 0)
(0.894421 0.447125 0)
(0.894408 0.447123 0)
(0.894394 0.447126 0)
(0.894379 0.447134 0)
(0.894365 0.447148 0)
(0.894353 0.447166 0)
(0.894345 0.447188 0)
(0.894341 0.447213 0)
(0.894342 0.447238 0)
(0.894348 0.447261 0)
(0.894356 0.447281 0)
(0.894368 0.447295 0)
(0.894381 0.447304 0)
(0.894394 0.447307 0)
(0.894406 0.447305 0)
(0.894415 0.447296 0)
(0.894422 0.447283 0)
(0.894425 0.447268 0)
(0.894426 0.447252 0)
(0.894424 0.447237 0)
(0.894421 0.447222 0)
(0.894416 0.447209 0)
(0.894411 0.4472 0)
(0.894406 0.447194 0)
(0.894402 0.44719 0)
(0.894399 0.447189 0)
(0.894397 0.447188 0)
(0.894396 0.447189 0)
(0.894395 0.44719 0)
(0.894396 0.447192 0)
(0.894396 0.447194 0)
(0.894397 0.447195 0)
(0.894397 0.447197 0)
(0.894398 0.447198 0)
(0.894399 0.447199 0)
(0.894399 0.447199 0)
(0.894399 0.447199 0)
(0.8944 0.4472 0)
(0.8944 0.4472 0)
(0.8944 0.4472 0)
(0.8944 0.4472 0)
(0.8944 0.4472 0)
(0.8944 0.4472 0)
(0.8944 0.4472 0)
(0.8944 0.4472 0)
(0.8944 0.4472 0)
(0.8944 0.4472 0)
(0.8944 0.4472 0)
(0.8944 0.4472 0)
(0.8944 0.4472 0)
(0.8944 0.4472 0)
(0.8944 0.4472 0)
(0.8944 0.4472 0)
(0.8944 0.4472 0)
(0.8944 0.4472 0)
(0.8944 0.4472 0)
(0.8944 0.4472 0)
(0.8944 0.4472 0)
(0.8944 0.4472 0)
(0.8944 0.4472 0)
(0.8944 0.4472 0)
(0.8944 0.4472 0)
(0.8944 0.447201 0)
(0.8944 0.447199 0)
(0.8944 0.447201 0)
(0.8944 0.447199 0)
(0.894399 0.447201 0)
(0.894401 0.4472 0)
(0.8944 0.447199 0)
(0.894399 0.447201 0)
(0.894401 0.4472 0)
(0.8944 0.447199 0)
(0.8944 0.447202 0)
(0.8944 0.447198 0)
(0.8944 0.447201 0)
(0.8944 0.4472 0)
(0.894399 0.4472 0)
(0.8944 0.447201 0)
(0.894398 0.447202 0)
(0.894396 0.447203 0)
(0.894396 0.447204 0)
(0.894394 0.447207 0)
(0.894392 0.44721 0)
(0.894389 0.447213 0)
(0.894388 0.447218 0)
(0.894387 0.447223 0)
(0.894387 0.447228 0)
(0.894389 0.447233 0)
(0.894393 0.447235 0)
(0.8944 0.447236 0)
(0.894409 0.447233 0)
(0.894419 0.447228 0)
(0.894429 0.447218 0)
(0.894439 0.447206 0)
(0.894447 0.447192 0)
(0.894451 0.447176 0)
(0.894453 0.447161 0)
(0.894451 0.447148 0)
(0.894445 0.447136 0)
(0.894437 0.447127 0)
(0.894424 0.447122 0)
(0.89441 0.44712 0)
(0.894392 0.447123 0)
(0.894374 0.447131 0)
(0.894357 0.447146 0)
(0.894342 0.447166 0)
(0.894332 0.447191 0)
(0.894326 0.447219 0)
(0.894326 0.447247 0)
(0.894332 0.447273 0)
(0.894342 0.447297 0)
(0.894355 0.447316 0)
(0.894371 0.447327 0)
(0.894386 0.447332 0)
(0.894401 0.44733 0)
(0.894414 0.447322 0)
(0.894424 0.447308 0)
(0.89443 0.447291 0)
(0.894432 0.447272 0)
(0.894431 0.447253 0)
(0.894427 0.447235 0)
(0.894422 0.447219 0)
(0.894416 0.447206 0)
(0.89441 0.447196 0)
(0.894405 0.44719 0)
(0.894401 0.447188 0)
(0.894398 0.447187 0)
(0.894396 0.447188 0)
(0.894395 0.447189 0)
(0.894395 0.447191 0)
(0.894395 0.447192 0)
(0.894396 0.447194 0)
(0.894397 0.447196 0)
(0.894397 0.447197 0)
(0.894398 0.447198 0)
(0.894399 0.447199 0)
(0.894399 0.447199 0)
(0.8944 0.4472 0)
(0.8944 0.4472 0)
(0.8944 0.4472 0)
(0.8944 0.4472 0)
(0.8944 0.4472 0)
(0.8944 0.4472 0)
(0.8944 0.4472 0)
(0.8944 0.4472 0)
(0.8944 0.4472 0)
(0.8944 0.4472 0)
(0.8944 0.4472 0)
(0.8944 0.4472 0)
(0.8944 0.4472 0)
(0.8944 0.4472 0)
(0.8944 0.4472 0)
(0.8944 0.4472 0)
(0.8944 0.4472 0)
(0.8944 0.4472 0)
(0.8944 0.4472 0)
(0.8944 0.4472 0)
(0.8944 0.4472 0)
(0.8944 0.4472 0)
(0.8944 0.4472 0)
(0.8944 0.447199 0)
(0.8944 0.4472 0)
(0.8944 0.4472 0)
(0.8944 0.447199 0)
(0.8944 0.4472 0)
(0.8944 0.4472 0)
(0.8944 0.447199 0)
(0.894401 0.4472 0)
(0.894399 0.4472 0)
(0.8944 0.447201 0)
(0.894401 0.447199 0)
(0.894399 0.4472 0)
(0.894401 0.447201 0)
(0.894399 0.447199 0)
(0.894399 0.447201 0)
(0.894401 0.447201 0)
(0.894398 0.447199 0)
(0.894398 0.447203 0)
(0.894395 0.447204 0)
(0.894394 0.447206 0)
(0.894391 0.447208 0)
(0.894388 0.447213 0)
(0.894385 0.447218 0)
(0.89438 0.447224 0)
(0.894377 0.447232 0)
(0.894376 0.44724 0)
(0.894377 0.447247 0)
(0.894381 0.447254 0)
(0.894388 0.447258 0)
(0.894397 0.447258 0)
(0.89441 0.447254 0)
(0.894424 0.447247 0)
(0.894438 0.447234 0)
(0.894449 0.447219 0)
(0.894458 0.447202 0)
(0.894462 0.447185 0)
(0.894462 0.447169 0)
(0.894459 0.447155 0)
(0.894451 0.447143 0)
(0.89444 0.447134 0)
(0.894425 0.447128 0)
(0.894408 0.447127 0)
(0.894388 0.44713 0)
(0.894367 0.447138 0)
(0.894346 0.447153 0)
(0.894329 0.447174 0)
(0.894315 0.4472 0)
(0.894308 0.44723 0)
(0.894307 0.447262 0)
(0.894312 0.447292 0)
(0.894324 0.447319 0)
(0.894339 0.447341 0)
(0.894357 0.447356 0)
(0.894376 0.447363 0)
(0.894396 0.447362 0)
(0.894413 0.447355 0)
(0.894425 0.447341 0)
(0.894433 0.447321 0)
(0.894437 0.447298 0)
(0.894438 0.447275 0)
(0.894435 0.447254 0)
(0.894429 0.447235 0)
(0.894422 0.447217 0)
(0.894415 0.447202 0)
(0.894408 0.447192 0)
(0.894403 0.447186 0)
(0.894399 0.447185 0)
(0.894396 0.447186 0)
(0.894394 0.447187 0)
(0.894394 0.447189 0)
(0.894394 0.447191 0)
(0.894395 0.447193 0)
(0.894396 0.447195 0)
(0.894397 0.447196 0)
(0.894397 0.447197 0)
(0.894398 0.447198 0)
(0.894399 0.447199 0)
(0.894399 0.447199 0)
(0.8944 0.4472 0)
(0.8944 0.4472 0)
(0.8944 0.4472 0)
(0.8944 0.4472 0)
(0.8944 0.4472 0)
(0.8944 0.4472 0)
(0.8944 0.4472 0)
(0.8944 0.4472 0)
(0.8944 0.4472 0)
(0.8944 0.4472 0)
(0.8944 0.4472 0)
(0.8944 0.4472 0)
(0.8944 0.4472 0)
(0.8944 0.4472 0)
(0.8944 0.4472 0)
(0.8944 0.4472 0)
(0.8944 0.4472 0)
(0.8944 0.4472 0)
(0.8944 0.4472 0)
(0.8944 0.4472 0)
(0.8944 0.4472 0)
(0.8944 0.4472 0)
(0.8944 0.4472 0)
(0.8944 0.447201 0)
(0.894401 0.447199 0)
(0.8944 0.447201 0)
(0.8944 0.447199 0)
(0.894399 0.447202 0)
(0.894402 0.447197 0)
(0.894399 0.447202 0)
(0.894399 0.447201 0)
(0.894402 0.447198 0)
(0.894399 0.447201 0)
(0.894399 0.447201 0)
(0.8944 0.447197 0)
(0.8944 0.447204 0)
(0.894399 0.447198 0)
(0.894399 0.447201 0)
(0.894396 0.447202 0)
(0.894393 0.447205 0)
(0.894393 0.447207 0)
(0.894389 0.44721 0)
(0.894383 0.447214 0)
(0.894378 0.447222 0)
(0.894371 0.44723 0)
(0.894366 0.447242 0)
(0.894362 0.447252 0)
(0.89436 0.447265 0)
(0.894362 0.447276 0)
(0.894368 0.447285 0)
(0.894379 0.447291 0)
(0.894393 0.447291 0)
(0.89441 0.447287 0)
(0.894429 0.447276 0)
(0.894445 0.447262 0)
(0.894458 0.447244 0)
(0.894467 0.447225 0)
(0.894469 0.447208 0)
(0.894468 0.447191 0)
(0.894461 0.447177 0)
(0.894451 0.447166 0)
(0.894438 0.447159 0)
(0.894421 0.447153 0)
(0.894401 0.447152 0)
(0.894378 0.447154 0)
(0.894354 0.447161 0)
(0.894331 0.447176 0)
(0.89431 0.447196 0)
(0.894294 0.447223 0)
(0.894284 0.447254 0)
(0.894282 0.447287 0)
(0.894288 0.44732 0)
(0.8943 0.44735 0)
(0.894318 0.447375 0)
(0.89434 0.447394 0)
(0.894364 0.447403 0)
(0.894387 0.447401 0)
(0.894407 0.447396 0)
(0.894425 0.447383 0)
(0.894438 0.44736 0)
(0.894445 0.447331 0)
(0.894446 0.447303 0)
(0.894445 0.447277 0)
(0.89444 0.447252 0)
(0.894432 0.447231 0)
(0.894422 0.447214 0)
(0.894413 0.447197 0)
(0.894405 0.447187 0)
(0.894399 0.447182 0)
(0.894396 0.44718 0)
(0.894394 0.447183 0)
(0.894393 0.447186 0)
(0.894393 0.447189 0)
(0.894394 0.447191 0)
(0.894394 0.447194 0)
(0.894396 0.447196 0)
(0.894397 0.447197 0)
(0.894398 0.447198 0)
(0.894398 0.447199 0)
(0.894399 0.447199 0)
(0.894399 0.4472 0)
(0.8944 0.4472 0)
(0.8944 0.4472 0)
(0.8944 0.4472 0)
(0.8944 0.4472 0)
(0.8944 0.4472 0)
(0.8944 0.4472 0)
(0.8944 0.4472 0)
(0.8944 0.4472 0)
(0.8944 0.4472 0)
(0.8944 0.4472 0)
(0.8944 0.4472 0)
(0.8944 0.4472 0)
(0.8944 0.4472 0)
(0.8944 0.4472 0)
(0.8944 0.4472 0)
(0.8944 0.4472 0)
(0.8944 0.4472 0)
(0.8944 0.4472 0)
(0.8944 0.447199 0)
(0.8944 0.447201 0)
(0.8944 0.447199 0)
(0.8944 0.447201 0)
(0.8944 0.4472 0)
(0.894401 0.447199 0)
(0.894399 0.447202 0)
(0.8944 0.447199 0)
(0.894401 0.447199 0)
(0.8944 0.447201 0)
(0.894398 0.447202 0)
(0.894401 0.447198 0)
(0.894402 0.4472 0)
(0.894398 0.447201 0)
(0.8944 0.447199 0)
(0.8944 0.4472 0)
(0.8944 0.447202 0)
(0.894398 0.447199 0)
(0.894394 0.447201 0)
(0.894395 0.447207 0)
(0.894388 0.447206 0)
(0.894387 0.447211 0)
(0.894379 0.447216 0)
(0.89437 0.447225 0)
(0.894361 0.447236 0)
(0.89435 0.44725 0)
(0.894344 0.447267 0)
(0.894338 0.447282 0)
(0.894336 0.447301 0)
(0.894339 0.447316 0)
(0.894348 0.447329 0)
(0.894365 0.447336 0)
(0.894384 0.447338 0)
(0.894407 0.447333 0)
(0.894429 0.447321 0)
(0.894447 0.447305 0)
(0.89446 0.447287 0)
(0.894467 0.447269 0)
(0.894467 0.447253 0)
(0.894462 0.447239 0)
(0.894451 0.447227 0)
(0.894438 0.447219 0)
(0.894423 0.447214 0)
(0.894404 0.447209 0)
(0.894383 0.447207 0)
(0.894359 0.447208 0)
(0.894333 0.447212 0)
(0.894308 0.447223 0)
(0.894284 0.447241 0)
(0.894266 0.447266 0)
(0.894254 0.447296 0)
(0.894252 0.447328 0)
(0.894259 0.447363 0)
(0.894271 0.447396 0)
(0.894291 0.447422 0)
(0.894318 0.447442 0)
(0.894346 0.447454 0)
(0.894371 0.447458 0)
(0.894398 0.447448 0)
(0.894424 0.447427 0)
(0.894442 0.447408 0)
(0.894452 0.447384 0)
(0.894458 0.447346 0)
(0.894457 0.447305 0)
(0.894451 0.447274 0)
(0.894443 0.447251 0)
(0.894433 0.447229 0)
(0.894422 0.447211 0)
(0.894412 0.447196 0)
(0.894403 0.447184 0)
(0.894396 0.447179 0)
(0.894392 0.447178 0)
(0.894391 0.44718 0)
(0.894391 0.447184 0)
(0.894392 0.447188 0)
(0.894393 0.447192 0)
(0.894395 0.447194 0)
(0.894396 0.447196 0)
(0.894397 0.447197 0)
(0.894398 0.447198 0)
(0.894399 0.447199 0)
(0.894399 0.447199 0)
(0.8944 0.4472 0)
(0.8944 0.4472 0)
(0.8944 0.4472 0)
(0.8944 0.4472 0)
(0.8944 0.4472 0)
(0.8944 0.4472 0)
(0.8944 0.4472 0)
(0.8944 0.4472 0)
(0.8944 0.4472 0)
(0.8944 0.4472 0)
(0.8944 0.4472 0)
(0.8944 0.4472 0)
(0.8944 0.4472 0)
(0.8944 0.4472 0)
(0.8944 0.4472 0)
(0.8944 0.4472 0)
(0.8944 0.4472 0)
(0.8944 0.4472 0)
(0.8944 0.4472 0)
(0.8944 0.447199 0)
(0.8944 0.4472 0)
(0.8944 0.447201 0)
(0.8944 0.447198 0)
(0.8944 0.447202 0)
(0.894399 0.4472 0)
(0.894401 0.447199 0)
(0.894402 0.447198 0)
(0.894396 0.447206 0)
(0.894401 0.447194 0)
(0.894404 0.447201 0)
(0.894397 0.447202 0)
(0.894399 0.4472 0)
(0.8944 0.447198 0)
(0.894402 0.447205 0)
(0.894397 0.447194 0)
(0.894394 0.447206 0)
(0.894392 0.447203 0)
(0.894392 0.447209 0)
(0.894383 0.44721 0)
(0.894374 0.447216 0)
(0.894363 0.447227 0)
(0.89435 0.447241 0)
(0.894334 0.447257 0)
(0.894321 0.447279 0)
(0.894311 0.447301 0)
(0.894303 0.447325 0)
(0.894301 0.447349 0)
(0.894306 0.44737 0)
(0.894321 0.447388 0)
(0.894342 0.447398 0)
(0.894368 0.447401 0)
(0.894395 0.447397 0)
(0.894418 0.447387 0)
(0.894437 0.447374 0)
(0.894447 0.447359 0)
(0.894449 0.447345 0)
(0.894445 0.447335 0)
(0.894434 0.447327 0)
(0.894418 0.447322 0)
(0.894403 0.447319 0)
(0.894386 0.447316 0)
(0.894367 0.447314 0)
(0.894346 0.447309 0)
(0.894324 0.447308 0)
(0.894297 0.447307 0)
(0.894272 0.447311 0)
(0.894247 0.447324 0)
(0.894227 0.447343 0)
(0.894217 0.447368 0)
(0.894212 0.447397 0)
(0.894216 0.44743 0)
(0.894233 0.447464 0)
(0.89426 0.447488 0)
(0.894286 0.447506 0)
(0.894317 0.447526 0)
(0.894359 0.447529 0)
(0.894395 0.447513 0)
(0.894416 0.447497 0)
(0.894438 0.447474 0)
(0.894461 0.447435 0)
(0.894472 0.447395 0)
(0.894472 0.447358 0)
(0.894468 0.447317 0)
(0.894457 0.447272 0)
(0.894446 0.447242 0)
(0.894434 0.447223 0)
(0.894421 0.447205 0)
(0.894408 0.447195 0)
(0.894399 0.447185 0)
(0.894393 0.447176 0)
(0.894389 0.447176 0)
(0.894388 0.447179 0)
(0.894389 0.447182 0)
(0.894391 0.447186 0)
(0.894393 0.447191 0)
(0.894394 0.447194 0)
(0.894396 0.447196 0)
(0.894397 0.447198 0)
(0.894398 0.447199 0)
(0.894399 0.447199 0)
(0.894399 0.4472 0)
(0.8944 0.4472 0)
(0.8944 0.4472 0)
(0.8944 0.4472 0)
(0.8944 0.4472 0)
(0.8944 0.4472 0)
(0.8944 0.4472 0)
(0.8944 0.4472 0)
(0.8944 0.4472 0)
(0.8944 0.4472 0)
(0.8944 0.4472 0)
(0.8944 0.4472 0)
(0.8944 0.4472 0)
(0.8944 0.4472 0)
(0.8944 0.4472 0)
(0.8944 0.4472 0)
(0.894401 0.4472 0)
(0.894399 0.447199 0)
(0.8944 0.447202 0)
(0.8944 0.447197 0)
(0.8944 0.447203 0)
(0.8944 0.447197 0)
(0.8944 0.4472 0)
(0.894399 0.447204 0)
(0.894399 0.447196 0)
(0.894404 0.447199 0)
(0.894396 0.447206 0)
(0.894397 0.447196 0)
(0.894407 0.447197 0)
(0.894399 0.447205 0)
(0.894394 0.447199 0)
(0.894402 0.447197 0)
(0.894403 0.447205 0)
(0.894398 0.447196 0)
(0.894391 0.447203 0)
(0.894392 0.447205 0)
(0.894393 0.447209 0)
(0.894381 0.447205 0)
(0.894374 0.447219 0)
(0.894352 0.447224 0)
(0.894341 0.447242 0)
(0.894319 0.447262 0)
(0.894299 0.447286 0)
(0.894281 0.447314 0)
(0.894263 0.447344 0)
(0.894254 0.44738 0)
(0.894253 0.447411 0)
(0.894261 0.447439 0)
(0.894281 0.447463 0)
(0.894306 0.447479 0)
(0.894336 0.447488 0)
(0.894364 0.447488 0)
(0.894386 0.447486 0)
(0.894399 0.44748 0)
(0.894402 0.447475 0)
(0.894396 0.447474 0)
(0.894383 0.447474 0)
(0.894365 0.44748 0)
(0.894346 0.447486 0)
(0.894328 0.447491 0)
(0.89431 0.447493 0)
(0.894295 0.447493 0)
(0.894277 0.447486 0)
(0.894259 0.447477 0)
(0.894237 0.44747 0)
(0.894214 0.447462 0)
(0.894192 0.447463 0)
(0.894173 0.44747 0)
(0.894164 0.447484 0)
(0.894158 0.447511 0)
(0.894165 0.447535 0)
(0.894187 0.447558 0)
(0.894215 0.447589 0)
(0.894247 0.447616 0)
(0.894294 0.447614 0)
(0.894338 0.447609 0)
(0.894368 0.44762 0)
(0.894412 0.447598 0)
(0.894453 0.447542 0)
(0.894466 0.447503 0)
(0.894478 0.447474 0)
(0.894489 0.447431 0)
(0.894486 0.447367 0)
(0.894479 0.447315 0)
(0.894466 0.447273 0)
(0.894448 0.447232 0)
(0.894432 0.447213 0)
(0.894417 0.447197 0)
(0.894407 0.447183 0)
(0.894396 0.447184 0)
(0.894389 0.44718 0)
(0.894386 0.447176 0)
(0.894386 0.447179 0)
(0.894387 0.447183 0)
(0.894389 0.447187 0)
(0.894392 0.447191 0)
(0.894394 0.447194 0)
(0.894396 0.447196 0)
(0.894398 0.447198 0)
(0.894399 0.447199 0)
(0.894399 0.447199 0)
(0.8944 0.4472 0)
(0.8944 0.4472 0)
(0.8944 0.4472 0)
(0.8944 0.4472 0)
(0.8944 0.4472 0)
(0.8944 0.4472 0)
(0.8944 0.4472 0)
(0.8944 0.4472 0)
(0.8944 0.4472 0)
(0.8944 0.4472 0)
(0.8944 0.4472 0)
(0.8944 0.4472 0)
(0.8944 0.4472 0)
(0.8944 0.4472 0)
(0.8944 0.4472 0)
(0.8944 0.4472 0)
(0.8944 0.4472 0)
(0.8944 0.4472 0)
(0.894401 0.4472 0)
(0.894399 0.4472 0)
(0.894401 0.447198 0)
(0.8944 0.447203 0)
(0.894398 0.447199 0)
(0.894404 0.447196 0)
(0.8944 0.447206 0)
(0.894392 0.447202 0)
(0.894408 0.447188 0)
(0.894403 0.447213 0)
(0.894389 0.447195 0)
(0.894402 0.447198 0)
(0.894408 0.447201 0)
(0.894397 0.447203 0)
(0.894389 0.447193 0)
(0.894394 0.447216 0)
(0.894392 0.447197 0)
(0.894385 0.447213 0)
(0.894366 0.447209 0)
(0.894356 0.447227 0)
(0.894329 0.447239 0)
(0.894309 0.44726 0)
(0.894279 0.447284 0)
(0.894252 0.44732 0)
(0.894223 0.447354 0)
(0.894199 0.447397 0)
(0.894189 0.447442 0)
(0.89419 0.447484 0)
(0.894201 0.447523 0)
(0.894221 0.447556 0)
(0.894249 0.447584 0)
(0.894277 0.447603 0)
(0.894299 0.447617 0)
(0.894313 0.447631 0)
(0.894314 0.447642 0)
(0.894301 0.447659 0)
(0.894282 0.447679 0)
(0.894256 0.447701 0)
(0.894228 0.447729 0)
(0.894206 0.447752 0)
(0.894187 0.44777 0)
(0.894173 0.447781 0)
(0.894166 0.44778 0)
(0.894158 0.447772 0)
(0.894149 0.447749 0)
(0.89414 0.447732 0)
(0.894123 0.447706 0)
(0.894109 0.447686 0)
(0.894097 0.447679 0)
(0.894082 0.447678 0)
(0.894087 0.447686 0)
(0.894107 0.447696 0)
(0.894122 0.447716 0)
(0.89415 0.447745 0)
(0.894213 0.447747 0)
(0.894259 0.447743 0)
(0.894286 0.447761 0)
(0.894354 0.447734 0)
(0.894419 0.447687 0)
(0.89444 0.447673 0)
(0.894472 0.447633 0)
(0.894503 0.447561 0)
(0.894507 0.447484 0)
(0.894512 0.447434 0)
(0.894504 0.447391 0)
(0.894485 0.447322 0)
(0.894469 0.447273 0)
(0.894451 0.447228 0)
(0.894434 0.447195 0)
(0.894415 0.447194 0)
(0.894401 0.447182 0)
(0.894395 0.447173 0)
(0.894389 0.44718 0)
(0.894385 0.447182 0)
(0.894385 0.447182 0)
(0.894387 0.447185 0)
(0.894389 0.447189 0)
(0.894392 0.447192 0)
(0.894394 0.447195 0)
(0.894396 0.447197 0)
(0.894398 0.447198 0)
(0.894399 0.447199 0)
(0.894399 0.4472 0)
(0.8944 0.4472 0)
(0.8944 0.4472 0)
(0.8944 0.4472 0)
(0.8944 0.4472 0)
(0.8944 0.4472 0)
(0.8944 0.4472 0)
(0.8944 0.4472 0)
(0.8944 0.4472 0)
(0.8944 0.4472 0)
(0.8944 0.4472 0)
(0.8944 0.4472 0)
(0.8944 0.4472 0)
(0.8944 0.4472 0)
(0.894401 0.4472 0)
(0.894399 0.4472 0)
(0.894401 0.447201 0)
(0.894399 0.447197 0)
(0.8944 0.447205 0)
(0.894401 0.447194 0)
(0.8944 0.447205 0)
(0.894398 0.447201 0)
(0.894401 0.447193 0)
(0.894405 0.447207 0)
(0.89439 0.447202 0)
(0.894405 0.447187 0)
(0.89441 0.447212 0)
(0.894386 0.447198 0)
(0.894397 0.447197 0)
(0.894415 0.447198 0)
(0.894397 0.44721 0)
(0.894385 0.447186 0)
(0.894395 0.447217 0)
(0.8944 0.447196 0)
(0.894382 0.447209 0)
(0.89437 0.447203 0)
(0.894354 0.447228 0)
(0.894327 0.447226 0)