/*--------------------------------*- C++ -*----------------------------------*\
  =========                 |
  \\      /  F ield         | OpenFOAM: The Open Source CFD Toolbox
   \\    /   O peration     | Website:  https://openfoam.org
    \\  /    A nd           | Version:  6
     \\/     M anipulation  |
\*---------------------------------------------------------------------------*/
FoamFile
{
    version     2.0;
    format      ascii;
    class       volScalarField;
    location    "1.19";
    object      rho;
}
// * * * * * * * * * * * * * * * * * * * * * * * * * * * * * * * * * * * * * //

dimensions      [1 -3 0 0 0 0 0];

internalField   nonuniform List<scalar> 
5835
(
1.54738e-05
1.18569e-05
1.81995e-05
1.18755e-05
1.19828e-05
1.18577e-05
1.18671e-05
1.18569e-05
1.18809e-05
1.18568e-05
1.18739e-05
1.22203e-05
1.18576e-05
1.18609e-05
1.25921e-05
1.18576e-05
3.68971e-05
3.58952e-05
1.18571e-05
1.18573e-05
4.00008e-05
1.1857e-05
3.86245e-05
1.23841e-05
1.1857e-05
1.18581e-05
1.27363e-05
1.18585e-05
1.18812e-05
1.18658e-05
1.1857e-05
1.18573e-05
1.18586e-05
1.18586e-05
1.18569e-05
1.18578e-05
1.18572e-05
1.18579e-05
1.1857e-05
1.18572e-05
1.18573e-05
1.18569e-05
1.18574e-05
1.1857e-05
1.18588e-05
1.1857e-05
1.18572e-05
1.18569e-05
1.1857e-05
1.1857e-05
1.18577e-05
1.18573e-05
1.1857e-05
1.18574e-05
1.1857e-05
1.1857e-05
1.18575e-05
1.1858e-05
1.18569e-05
1.18572e-05
1.18652e-05
1.18584e-05
1.18711e-05
1.18572e-05
1.18586e-05
1.1857e-05
1.1857e-05
1.18615e-05
1.1857e-05
1.1857e-05
1.18569e-05
1.1857e-05
1.18572e-05
1.18598e-05
1.18572e-05
1.18597e-05
1.18586e-05
1.18569e-05
1.1857e-05
1.1857e-05
1.18653e-05
1.1857e-05
1.18569e-05
1.9217e-05
1.56696e-05
1.18695e-05
1.19076e-05
1.1857e-05
1.18568e-05
1.18728e-05
1.18797e-05
1.18568e-05
1.18831e-05
1.18632e-05
1.18609e-05
1.1857e-05
1.18584e-05
1.18573e-05
1.19585e-05
1.18765e-05
1.18678e-05
1.18599e-05
1.18597e-05
1.18582e-05
1.2305e-05
1.18591e-05
1.18594e-05
1.2478e-05
1.18576e-05
1.18645e-05
1.186e-05
1.1857e-05
1.19467e-05
1.18563e-05
1.18576e-05
1.18566e-05
1.18565e-05
1.18571e-05
1.18601e-05
1.20422e-05
1.20294e-05
1.18568e-05
1.18568e-05
1.18643e-05
1.18581e-05
1.18571e-05
1.18569e-05
1.1857e-05
1.1857e-05
1.18673e-05
1.18651e-05
1.18576e-05
1.18571e-05
1.1857e-05
1.18591e-05
1.18652e-05
4.68999e-05
1.18602e-05
4.95986e-05
1.18575e-05
1.18585e-05
1.18569e-05
4.46584e-05
4.5736e-05
5.01437e-05
5.16343e-05
1.83347e-05
2.01047e-05
1.1859e-05
1.18568e-05
1.96719e-05
1.18571e-05
1.18629e-05
1.18569e-05
1.4558e-05
1.28428e-05
1.19169e-05
1.18712e-05
1.18597e-05
1.26425e-05
1.18566e-05
1.18659e-05
1.1858e-05
1.1868e-05
1.19471e-05
1.18575e-05
1.18567e-05
1.19115e-05
1.18581e-05
1.18569e-05
1.18573e-05
1.18802e-05
1.1868e-05
1.18672e-05
1.18621e-05
1.18593e-05
1.18593e-05
1.19371e-05
1.1875e-05
1.18972e-05
1.18573e-05
1.18583e-05
1.18605e-05
1.18596e-05
1.18568e-05
1.18781e-05
1.18569e-05
1.18639e-05
1.18629e-05
1.18569e-05
1.18573e-05
1.18572e-05
1.1857e-05
1.18605e-05
1.18575e-05
1.1858e-05
1.18579e-05
1.18569e-05
1.18574e-05
1.1857e-05
4.31469e-05
4.19932e-05
1.18583e-05
1.18577e-05
1.18591e-05
1.18575e-05
1.18612e-05
1.18582e-05
1.18569e-05
1.18609e-05
1.18689e-05
1.1858e-05
1.18689e-05
1.18579e-05
1.18592e-05
1.18589e-05
1.1857e-05
1.18571e-05
1.18575e-05
1.18569e-05
1.18569e-05
1.18589e-05
1.18666e-05
1.18734e-05
1.18566e-05
1.18652e-05
1.18653e-05
5.1129e-05
1.1868e-05
1.18644e-05
1.18616e-05
1.18573e-05
1.18568e-05
1.1857e-05
1.18589e-05
1.18569e-05
1.97342e-05
1.18603e-05
1.92564e-05
1.18605e-05
1.18607e-05
1.1857e-05
1.18596e-05
1.18634e-05
1.18567e-05
1.18768e-05
1.18569e-05
1.18683e-05
1.18614e-05
1.18581e-05
1.18682e-05
1.1859e-05
1.1857e-05
1.18759e-05
1.18576e-05
1.18567e-05
1.18572e-05
1.19839e-05
1.18758e-05
1.18569e-05
1.18572e-05
1.28465e-05
1.24473e-05
1.18584e-05
1.27158e-05
1.18619e-05
1.18622e-05
1.18602e-05
1.25903e-05
1.27749e-05
1.18594e-05
1.18571e-05
1.1857e-05
1.18569e-05
1.18569e-05
1.18687e-05
1.18569e-05
1.18596e-05
1.18569e-05
1.18598e-05
1.1875e-05
1.18601e-05
1.33397e-05
1.18569e-05
1.18581e-05
1.18643e-05
1.18593e-05
1.18584e-05
1.18573e-05
1.1857e-05
3.92928e-05
1.59011e-05
1.19061e-05
1.7577e-05
1.18594e-05
1.18663e-05
1.18578e-05
1.18569e-05
1.18574e-05
3.79517e-05
1.18687e-05
5.04955e-05
5.13089e-05
3.62862e-05
1.58087e-05
3.66312e-05
1.1857e-05
3.6966e-05
1.1869e-05
1.89954e-05
5.20526e-05
1.87025e-05
4.07474e-05
1.31872e-05
1.18645e-05
1.18588e-05
1.18678e-05
1.26657e-05
1.18598e-05
1.18568e-05
1.18569e-05
1.18669e-05
1.18569e-05
1.32356e-05
1.18589e-05
1.39349e-05
1.18645e-05
1.18649e-05
4.05106e-05
1.18568e-05
1.1876e-05
1.21108e-05
1.18606e-05
1.186e-05
1.18589e-05
1.18598e-05
1.18571e-05
1.1859e-05
1.18664e-05
1.18571e-05
1.18569e-05
4.01699e-05
1.19878e-05
4.05067e-05
1.18581e-05
1.1865e-05
1.1871e-05
1.18685e-05
1.18602e-05
1.18578e-05
1.25127e-05
1.18704e-05
1.18706e-05
1.18568e-05
1.18873e-05
1.18564e-05
1.18584e-05
1.18568e-05
1.23716e-05
1.18662e-05
1.18909e-05
1.18573e-05
1.18569e-05
1.18587e-05
1.28914e-05
1.18624e-05
1.18733e-05
1.18688e-05
1.18574e-05
1.1857e-05
1.18597e-05
1.18588e-05
1.18571e-05
1.1865e-05
1.19139e-05
1.18577e-05
1.18567e-05
1.18572e-05
1.1857e-05
1.18604e-05
1.18574e-05
1.18591e-05
1.18569e-05
1.18599e-05
1.18582e-05
1.18617e-05
1.18586e-05
1.18579e-05
1.18581e-05
1.18569e-05
1.18582e-05
1.18627e-05
1.18632e-05
1.18569e-05
1.18573e-05
1.18598e-05
1.18575e-05
1.18596e-05
1.18572e-05
1.18577e-05
1.18571e-05
1.18573e-05
1.18575e-05
1.18605e-05
1.18568e-05
1.18567e-05
1.18645e-05
1.18592e-05
1.19086e-05
1.18653e-05
1.18574e-05
1.18573e-05
1.18568e-05
1.18575e-05
1.18743e-05
1.18566e-05
1.1963e-05
1.18564e-05
1.18673e-05
1.18573e-05
1.18569e-05
1.1857e-05
1.18697e-05
1.18806e-05
1.1864e-05
1.18623e-05
1.18816e-05
1.18589e-05
1.18611e-05
1.18635e-05
1.18569e-05
1.19176e-05
1.18578e-05
1.18568e-05
1.18641e-05
1.1858e-05
1.18808e-05
1.18735e-05
1.1859e-05
1.18933e-05
1.18868e-05
1.18636e-05
1.18626e-05
1.1868e-05
1.18611e-05
1.18664e-05
1.18618e-05
1.18642e-05
1.18597e-05
1.18569e-05
1.18759e-05
1.18568e-05
1.18676e-05
1.18633e-05
1.18567e-05
1.18732e-05
1.188e-05
1.18568e-05
1.18705e-05
1.18568e-05
1.18589e-05
1.18581e-05
1.18653e-05
1.18719e-05
1.18568e-05
1.18613e-05
1.18566e-05
1.18566e-05
1.18763e-05
1.18689e-05
1.18662e-05
1.18618e-05
1.1866e-05
1.18697e-05
1.18639e-05
1.18574e-05
1.18642e-05
1.18782e-05
1.18749e-05
1.18627e-05
1.18569e-05
1.18568e-05
1.18772e-05
1.18571e-05
1.18724e-05
1.18581e-05
1.18586e-05
1.1858e-05
1.18567e-05
1.18627e-05
1.1864e-05
1.18635e-05
1.1863e-05
1.18628e-05
1.18573e-05
1.18569e-05
1.18755e-05
1.18569e-05
1.18571e-05
1.18572e-05
1.20415e-05
1.18677e-05
1.1856e-05
1.18584e-05
1.19077e-05
1.1857e-05
1.18588e-05
1.18592e-05
1.21273e-05
1.18566e-05
1.18576e-05
1.18784e-05
1.18571e-05
1.19689e-05
1.1858e-05
1.1861e-05
4.64948e-05
1.18582e-05
1.18605e-05
4.64287e-05
4.46195e-05
4.43331e-05
1.18576e-05
1.18586e-05
1.18707e-05
1.18577e-05
1.96229e-05
1.69485e-05
1.18598e-05
1.18569e-05
1.18567e-05
1.96981e-05
4.16102e-05
1.1857e-05
4.9869e-05
1.18684e-05
1.18574e-05
1.18568e-05
1.99274e-05
1.18663e-05
1.26599e-05
1.18564e-05
4.22027e-05
1.18569e-05
1.37254e-05
1.19304e-05
1.18727e-05
1.18668e-05
1.18632e-05
1.18651e-05
1.18567e-05
1.19165e-05
1.186e-05
1.19201e-05
1.18749e-05
1.18568e-05
1.18576e-05
1.18583e-05
1.18579e-05
1.1858e-05
1.18583e-05
1.18703e-05
5.08801e-05
1.18568e-05
1.18832e-05
1.18579e-05
1.18574e-05
1.18656e-05
1.18725e-05
1.18596e-05
1.18568e-05
1.18569e-05
1.18794e-05
1.18652e-05
1.18569e-05
1.18668e-05
3.87521e-05
1.18569e-05
1.18568e-05
1.18588e-05
1.18624e-05
1.1857e-05
1.18601e-05
1.18584e-05
1.18753e-05
1.18567e-05
1.18906e-05
1.1875e-05
1.18603e-05
1.18663e-05
1.18662e-05
1.18589e-05
1.18566e-05
1.18569e-05
1.18566e-05
1.1865e-05
1.18606e-05
1.1877e-05
1.18574e-05
1.18568e-05
1.18582e-05
1.18574e-05
1.18566e-05
1.18569e-05
1.27018e-05
1.1858e-05
1.18582e-05
1.18616e-05
1.18584e-05
1.18615e-05
1.18608e-05
1.28216e-05
1.1957e-05
1.25236e-05
1.18727e-05
1.25892e-05
1.18609e-05
1.18576e-05
1.18568e-05
3.95857e-05
1.18569e-05
1.29384e-05
1.18568e-05
1.1857e-05
1.29675e-05
1.18569e-05
3.39721e-05
1.18568e-05
1.84008e-05
1.97206e-05
1.18566e-05
1.19029e-05
3.54913e-05
3.45423e-05
1.83607e-05
1.1857e-05
1.18628e-05
1.18655e-05
1.18565e-05
1.30571e-05
4.85131e-05
1.18576e-05
1.34346e-05
1.1869e-05
1.18716e-05
1.1862e-05
1.18611e-05
4.86414e-05
4.15871e-05
1.18662e-05
1.28579e-05
1.18595e-05
3.41273e-05
1.18577e-05
1.18568e-05
1.18565e-05
3.52731e-05
1.19616e-05
3.68492e-05
1.1857e-05
1.18652e-05
1.18561e-05
1.20154e-05
1.1995e-05
1.18571e-05
1.18569e-05
1.18678e-05
1.18767e-05
1.18592e-05
1.2488e-05
1.18567e-05
1.18691e-05
1.24833e-05
1.18691e-05
1.18576e-05
1.18571e-05
1.18574e-05
1.18601e-05
1.18574e-05
1.18587e-05
1.18588e-05
1.18588e-05
1.18571e-05
1.18594e-05
1.1857e-05
1.18627e-05
1.18601e-05
1.18578e-05
1.18589e-05
1.18571e-05
1.18763e-05
1.18567e-05
1.18571e-05
1.18578e-05
1.18574e-05
1.18661e-05
1.18637e-05
1.18577e-05
1.18596e-05
1.1856e-05
1.18642e-05
1.18569e-05
1.187e-05
1.18774e-05
1.18993e-05
1.191e-05
1.18565e-05
1.18768e-05
1.18609e-05
1.18644e-05
1.18569e-05
1.18585e-05
1.18573e-05
1.18678e-05
1.18601e-05
1.18564e-05
1.1874e-05
1.1859e-05
1.18982e-05
1.18605e-05
1.18587e-05
1.18566e-05
1.18569e-05
1.18569e-05
1.187e-05
1.18565e-05
1.18875e-05
1.1859e-05
1.18587e-05
1.18638e-05
1.18688e-05
1.18866e-05
1.18858e-05
1.18573e-05
1.18662e-05
1.18565e-05
1.1881e-05
1.18646e-05
1.18624e-05
1.18966e-05
1.18898e-05
1.18626e-05
1.18667e-05
1.18566e-05
1.18692e-05
1.18802e-05
1.18566e-05
1.18696e-05
1.18567e-05
1.18569e-05
1.1876e-05
1.18746e-05
1.18671e-05
1.18652e-05
1.18571e-05
1.18621e-05
1.18729e-05
1.1857e-05
1.18568e-05
1.18762e-05
1.18824e-05
1.18556e-05
1.18561e-05
1.18651e-05
1.18566e-05
1.18627e-05
1.18628e-05
1.18679e-05
1.18568e-05
1.18663e-05
1.18568e-05
1.18641e-05
1.18567e-05
1.18792e-05
1.18567e-05
1.18572e-05
1.18705e-05
1.18606e-05
1.18572e-05
1.18569e-05
1.18568e-05
1.18573e-05
1.18579e-05
1.18598e-05
1.18575e-05
1.18604e-05
1.18573e-05
1.18575e-05
1.18576e-05
1.18579e-05
1.18561e-05
1.1857e-05
1.18596e-05
1.18587e-05
1.18569e-05
1.18568e-05
1.1858e-05
1.18655e-05
1.18671e-05
1.18602e-05
1.18566e-05
1.18641e-05
1.18581e-05
1.18602e-05
1.18856e-05
1.18741e-05
1.18696e-05
1.1867e-05
1.18602e-05
1.18575e-05
1.1861e-05
1.18713e-05
1.1865e-05
1.18597e-05
1.18622e-05
1.18631e-05
1.18612e-05
1.18574e-05
1.18577e-05
1.18569e-05
1.18567e-05
1.18717e-05
1.1857e-05
1.18603e-05
1.18648e-05
1.18587e-05
1.18689e-05
1.51755e-05
1.78544e-05
1.93699e-05
1.46929e-05
1.18605e-05
1.18605e-05
1.18603e-05
1.18587e-05
1.18585e-05
1.18565e-05
1.1857e-05
1.18568e-05
1.18618e-05
1.18612e-05
1.18601e-05
1.18568e-05
1.18566e-05
1.18618e-05
1.18572e-05
1.18569e-05
1.18577e-05
1.1863e-05
1.18568e-05
1.18646e-05
1.18576e-05
1.18589e-05
1.18572e-05
1.18581e-05
1.18569e-05
1.26193e-05
1.18569e-05
1.18568e-05
1.20046e-05
1.18568e-05
1.18932e-05
1.18831e-05
1.3276e-05
1.1867e-05
1.18716e-05
1.18723e-05
1.18554e-05
1.18563e-05
1.19016e-05
1.18705e-05
1.18592e-05
1.1856e-05
1.18599e-05
1.18568e-05
1.18614e-05
1.1962e-05
1.1864e-05
1.18601e-05
1.18633e-05
1.18662e-05
1.18569e-05
1.27518e-05
1.20927e-05
1.186e-05
1.18617e-05
1.18868e-05
1.18567e-05
1.19004e-05
1.18962e-05
1.80427e-05
1.18595e-05
2.34083e-05
1.1868e-05
1.18568e-05
1.18569e-05
1.18574e-05
1.18628e-05
1.18568e-05
1.18588e-05
1.18597e-05
1.18569e-05
1.25083e-05
1.27427e-05
1.18569e-05
1.18568e-05
1.20315e-05
1.18628e-05
1.25469e-05
1.18701e-05
1.1974e-05
1.18567e-05
1.18575e-05
6.37268e-05
6.7252e-05
1.18581e-05
1.18601e-05
1.1857e-05
6.18502e-05
6.7735e-05
6.9679e-05
1.18575e-05
5.96324e-05
1.18569e-05
1.18628e-05
1.186e-05
6.93823e-05
6.00475e-05
1.18573e-05
6.65987e-05
5.72198e-05
1.18578e-05
1.18575e-05
1.18587e-05
6.90233e-05
1.18576e-05
1.18579e-05
6.91462e-05
1.18614e-05
6.23151e-05
1.18621e-05
1.1859e-05
1.18585e-05
6.5393e-05
5.77395e-05
6.13347e-05
1.18591e-05
1.18596e-05
1.18607e-05
5.49336e-05
6.81051e-05
6.62714e-05
6.01084e-05
5.86905e-05
1.18575e-05
1.18592e-05
6.46579e-05
1.18571e-05
1.18581e-05
5.74163e-05
5.81477e-05
6.22943e-05
1.18571e-05
6.14496e-05
1.18572e-05
1.19774e-05
1.18599e-05
1.18576e-05
1.18564e-05
1.18571e-05
1.18639e-05
1.18611e-05
1.18639e-05
1.18569e-05
1.18569e-05
1.26075e-05
1.2725e-05
1.186e-05
1.186e-05
1.20714e-05
1.18571e-05
1.18568e-05
4.96059e-05
1.18575e-05
1.18575e-05
4.71594e-05
1.18567e-05
1.21122e-05
1.18571e-05
1.18568e-05
1.18716e-05
1.1857e-05
1.18664e-05
1.18581e-05
1.1857e-05
1.1857e-05
1.18656e-05
1.18572e-05
1.18577e-05
1.18569e-05
1.18666e-05
1.18663e-05
1.18589e-05
1.1863e-05
1.18683e-05
1.18595e-05
1.18571e-05
1.18576e-05
1.18582e-05
1.18621e-05
1.18569e-05
1.18623e-05
1.18579e-05
1.18579e-05
1.18583e-05
1.18633e-05
1.19137e-05
1.18572e-05
1.18626e-05
1.18645e-05
1.18702e-05
1.44246e-05
3.10756e-05
1.18655e-05
1.18575e-05
1.23657e-05
3.16876e-05
1.18601e-05
1.44151e-05
1.25232e-05
1.18684e-05
1.18642e-05
1.18586e-05
1.18575e-05
1.18587e-05
1.18578e-05
1.18592e-05
1.18568e-05
1.18599e-05
1.18576e-05
1.18577e-05
1.18583e-05
1.1857e-05
1.18643e-05
1.18783e-05
1.18566e-05
1.1949e-05
1.18595e-05
1.18573e-05
1.18564e-05
1.18618e-05
1.18669e-05
1.22179e-05
1.36786e-05
1.18658e-05
1.18569e-05
1.18661e-05
1.18717e-05
1.18572e-05
1.18567e-05
1.18714e-05
1.18675e-05
1.18578e-05
1.18601e-05
1.18687e-05
1.186e-05
1.18566e-05
1.18728e-05
1.18582e-05
1.18707e-05
1.1857e-05
1.18582e-05
1.18691e-05
1.18616e-05
1.18616e-05
1.18571e-05
1.18563e-05
1.18649e-05
1.18571e-05
1.1874e-05
1.18567e-05
1.18735e-05
1.18565e-05
1.1868e-05
1.18569e-05
1.18598e-05
1.18571e-05
1.18878e-05
1.18604e-05
1.18686e-05
1.18567e-05
1.18559e-05
1.18564e-05
1.18568e-05
1.18611e-05
1.18583e-05
1.18587e-05
1.19015e-05
1.18576e-05
1.18637e-05
1.18573e-05
1.18684e-05
1.18635e-05
1.18583e-05
1.18639e-05
1.18612e-05
1.18624e-05
1.1875e-05
1.1874e-05
1.18588e-05
1.18632e-05
1.18702e-05
1.18814e-05
1.18571e-05
1.18572e-05
1.18622e-05
1.18564e-05
1.19046e-05
1.18575e-05
1.18578e-05
1.18627e-05
1.18648e-05
1.18712e-05
1.18708e-05
1.18569e-05
1.1874e-05
1.18595e-05
1.18633e-05
1.18752e-05
1.18626e-05
1.18902e-05
1.18735e-05
1.18611e-05
1.1857e-05
1.18619e-05
1.18571e-05
1.18605e-05
1.18676e-05
1.18564e-05
1.18669e-05
1.18582e-05
1.18575e-05
1.18575e-05
1.18601e-05
1.18574e-05
1.186e-05
1.18863e-05
1.18574e-05
1.18643e-05
1.18672e-05
1.18767e-05
1.18695e-05
1.18626e-05
1.18611e-05
1.18575e-05
1.18585e-05
1.19221e-05
1.18975e-05
1.18629e-05
1.18711e-05
1.18585e-05
1.18655e-05
1.18577e-05
1.18637e-05
1.18561e-05
1.18571e-05
1.1879e-05
1.18605e-05
1.18601e-05
1.1857e-05
1.18576e-05
1.18563e-05
1.18654e-05
1.19059e-05
1.18559e-05
1.18656e-05
1.18652e-05
1.18605e-05
1.18627e-05
1.18644e-05
1.18584e-05
1.18678e-05
1.18717e-05
1.18564e-05
1.18641e-05
1.18691e-05
1.18625e-05
1.18569e-05
1.18603e-05
1.18573e-05
1.18579e-05
1.1857e-05
1.18646e-05
1.18581e-05
1.18726e-05
1.18682e-05
1.18589e-05
1.18617e-05
1.18655e-05
1.18558e-05
1.18644e-05
1.18575e-05
1.18651e-05
1.1869e-05
1.18632e-05
1.18583e-05
1.1858e-05
1.18615e-05
1.18587e-05
1.18618e-05
1.18634e-05
1.18617e-05
1.18581e-05
1.18567e-05
1.1857e-05
1.18568e-05
1.18669e-05
1.18597e-05
1.18569e-05
1.18644e-05
1.18769e-05
1.18567e-05
1.18624e-05
1.1879e-05
1.18776e-05
1.18623e-05
1.18654e-05
1.1866e-05
1.18589e-05
1.18643e-05
1.18635e-05
1.18577e-05
1.18632e-05
1.186e-05
1.18577e-05
1.18596e-05
1.1857e-05
1.22578e-05
1.18566e-05
1.18748e-05
1.18693e-05
1.18695e-05
1.18619e-05
1.18618e-05
1.18623e-05
1.18623e-05
1.18578e-05
1.20949e-05
1.18572e-05
1.18689e-05
1.18564e-05
1.18573e-05
1.18596e-05
1.18586e-05
1.18709e-05
1.18595e-05
1.18577e-05
1.18574e-05
1.18587e-05
1.18624e-05
1.2013e-05
1.18646e-05
1.18612e-05
1.18654e-05
1.18645e-05
1.1857e-05
1.18636e-05
1.18712e-05
1.18726e-05
1.1866e-05
1.21286e-05
1.18565e-05
1.18644e-05
1.18651e-05
1.18588e-05
1.18726e-05
1.18596e-05
1.18601e-05
1.18695e-05
1.19774e-05
1.1858e-05
1.18574e-05
1.18556e-05
1.18578e-05
1.18645e-05
1.18568e-05
1.18572e-05
1.19451e-05
1.18567e-05
1.18702e-05
1.18659e-05
1.18612e-05
1.19328e-05
1.18952e-05
1.18686e-05
1.19325e-05
1.18648e-05
1.19431e-05
1.18576e-05
1.18705e-05
1.18738e-05
1.18728e-05
1.18645e-05
1.18595e-05
1.18613e-05
1.18666e-05
1.18581e-05
1.18835e-05
1.18701e-05
1.18617e-05
1.18581e-05
1.18567e-05
1.19005e-05
1.20603e-05
1.18791e-05
1.18659e-05
1.18726e-05
1.18677e-05
1.5954e-05
2.44356e-05
1.18605e-05
1.18572e-05
1.18568e-05
1.18577e-05
1.18584e-05
1.18603e-05
1.18569e-05
1.18623e-05
1.18595e-05
1.20427e-05
6.63369e-05
1.18566e-05
1.18631e-05
1.18614e-05
1.45862e-05
1.67269e-05
1.18714e-05
1.1858e-05
2.51326e-05
1.18572e-05
1.18709e-05
1.18587e-05
1.27847e-05
1.18565e-05
1.18611e-05
1.4527e-05
2.39013e-05
4.01164e-05
1.18674e-05
5.81075e-05
2.0511e-05
1.18843e-05
4.41355e-05
1.18751e-05
2.57043e-05
3.95085e-05
1.65138e-05
2.81146e-05
2.57336e-05
1.1899e-05
1.547e-05
1.21911e-05
2.59478e-05
1.18632e-05
1.39088e-05
1.55416e-05
2.15605e-05
1.18667e-05
1.18613e-05
1.18719e-05
1.18683e-05
1.1857e-05
3.72843e-05
2.56951e-05
1.18622e-05
1.1859e-05
1.18706e-05
1.29243e-05
1.62104e-05
1.18659e-05
1.18589e-05
1.48856e-05
1.18811e-05
1.18599e-05
2.70939e-05
1.18872e-05
1.18575e-05
1.18572e-05
2.01107e-05
1.41313e-05
1.1857e-05
1.18636e-05
1.32861e-05
1.1864e-05
1.30356e-05
1.18654e-05
1.24226e-05
1.18761e-05
1.18809e-05
1.18864e-05
1.20707e-05
1.18687e-05
1.18604e-05
1.57052e-05
1.18673e-05
1.18622e-05
1.18641e-05
1.18579e-05
1.18711e-05
1.18651e-05
1.18656e-05
1.18616e-05
1.18574e-05
1.18601e-05
2.43241e-05
1.1859e-05
1.18786e-05
1.18572e-05
1.91266e-05
1.1857e-05
1.18644e-05
1.18569e-05
1.18577e-05
1.18672e-05
1.18569e-05
1.2067e-05
1.18583e-05
1.18638e-05
1.1857e-05
1.18665e-05
1.18588e-05
1.1859e-05
1.18582e-05
1.18663e-05
1.18978e-05
1.45045e-05
1.18589e-05
1.19907e-05
1.33028e-05
1.18692e-05
1.1861e-05
1.18581e-05
1.19241e-05
2.23698e-05
2.12527e-05
1.1858e-05
1.18571e-05
1.18764e-05
1.18576e-05
1.18598e-05
1.18579e-05
1.41273e-05
1.18572e-05
1.1858e-05
1.1859e-05
1.18623e-05
1.18607e-05
1.18602e-05
1.1858e-05
1.18572e-05
2.28487e-05
1.18569e-05
1.18569e-05
1.18636e-05
1.19308e-05
1.18649e-05
1.18611e-05
1.35685e-05
1.20472e-05
1.20309e-05
1.18594e-05
1.18601e-05
1.18568e-05
1.61708e-05
2.8589e-05
1.18602e-05
1.1862e-05
1.18579e-05
1.18569e-05
1.18563e-05
1.19238e-05
1.18585e-05
1.18652e-05
1.18572e-05
1.19409e-05
1.18664e-05
1.18577e-05
1.19417e-05
1.18571e-05
1.18587e-05
1.18622e-05
1.18594e-05
1.18574e-05
1.18578e-05
1.18603e-05
1.18577e-05
1.18577e-05
1.18583e-05
1.18576e-05
1.18572e-05
1.18573e-05
1.18666e-05
1.18568e-05
1.18571e-05
1.1858e-05
1.18644e-05
1.18619e-05
1.18603e-05
1.18589e-05
1.18608e-05
1.18581e-05
1.18572e-05
1.18571e-05
1.18594e-05
1.18591e-05
1.18586e-05
1.18636e-05
1.18576e-05
1.18605e-05
1.18567e-05
1.18602e-05
1.18569e-05
1.18626e-05
1.18591e-05
1.1858e-05
1.18569e-05
1.18589e-05
1.18571e-05
1.1863e-05
1.18577e-05
1.1859e-05
1.18588e-05
1.18583e-05
1.1857e-05
1.18576e-05
1.18601e-05
1.18569e-05
1.18577e-05
1.18592e-05
1.1859e-05
1.18667e-05
1.18575e-05
1.1857e-05
2.67418e-05
1.18571e-05
1.18645e-05
1.20257e-05
1.18569e-05
1.1857e-05
1.18653e-05
1.18569e-05
1.18655e-05
1.18581e-05
1.18739e-05
1.18663e-05
1.18644e-05
1.20876e-05
1.19761e-05
1.18577e-05
1.22253e-05
1.1857e-05
1.18568e-05
1.18636e-05
1.18603e-05
1.18721e-05
1.18578e-05
1.18755e-05
1.18618e-05
1.18823e-05
1.18559e-05
1.18611e-05
1.18776e-05
1.18627e-05
1.18568e-05
1.18691e-05
1.18568e-05
1.18645e-05
1.18566e-05
1.18864e-05
1.18566e-05
1.18569e-05
1.18655e-05
1.18742e-05
1.18571e-05
1.18571e-05
1.18569e-05
1.1857e-05
1.18575e-05
1.18747e-05
1.19033e-05
1.18579e-05
1.18586e-05
1.18579e-05
1.63131e-05
1.18578e-05
1.18595e-05
1.18592e-05
1.18571e-05
1.18776e-05
1.18582e-05
1.18565e-05
1.18569e-05
3.99495e-05
1.18625e-05
1.18574e-05
1.1868e-05
1.18725e-05
1.18562e-05
1.18703e-05
1.18585e-05
2.67432e-05
1.18573e-05
1.18649e-05
1.18632e-05
1.18589e-05
1.18612e-05
1.18871e-05
1.18562e-05
1.18573e-05
1.20958e-05
1.18567e-05
1.18577e-05
1.18652e-05
6.35303e-05
1.1857e-05
1.18572e-05
2.51674e-05
1.18628e-05
1.22511e-05
1.18694e-05
1.19368e-05
1.18593e-05
1.18606e-05
1.18662e-05
1.18647e-05
1.18615e-05
1.1856e-05
1.18561e-05
1.18581e-05
1.18613e-05
1.18571e-05
1.18576e-05
1.18569e-05
1.18719e-05
1.1858e-05
1.18562e-05
1.18593e-05
1.18987e-05
1.18904e-05
1.18568e-05
1.18581e-05
1.1861e-05
1.18715e-05
1.18609e-05
1.18599e-05
1.18846e-05
1.1867e-05
1.18565e-05
1.18584e-05
1.18594e-05
1.18903e-05
1.18623e-05
1.18583e-05
1.18661e-05
1.18673e-05
1.1862e-05
1.18572e-05
1.18619e-05
1.18602e-05
1.18597e-05
1.18569e-05
1.18572e-05
1.18662e-05
1.18613e-05
1.18571e-05
1.18623e-05
1.18603e-05
1.18564e-05
1.18574e-05
1.18577e-05
1.19063e-05
1.18579e-05
1.18578e-05
1.18589e-05
1.18575e-05
1.18725e-05
1.1857e-05
1.19615e-05
1.18585e-05
1.19227e-05
1.1858e-05
1.18574e-05
1.18661e-05
1.18567e-05
1.18607e-05
1.18597e-05
1.19482e-05
1.18596e-05
1.1858e-05
1.18573e-05
1.18573e-05
1.18569e-05
1.18585e-05
1.18575e-05
1.1858e-05
1.18579e-05
1.1981e-05
1.21361e-05
1.18573e-05
1.18582e-05
1.18569e-05
1.18568e-05
1.18589e-05
1.18592e-05
1.1857e-05
1.18571e-05
1.1857e-05
1.26413e-05
1.18571e-05
2.97531e-05
1.1859e-05
1.18581e-05
1.18604e-05
1.19575e-05
1.18567e-05
1.2244e-05
1.18599e-05
1.18598e-05
1.18574e-05
1.1864e-05
2.88765e-05
1.18579e-05
1.18596e-05
1.18582e-05
1.20448e-05
1.1857e-05
1.18569e-05
1.1859e-05
1.1858e-05
1.18574e-05
1.1858e-05
1.18568e-05
1.18566e-05
1.18592e-05
1.18627e-05
1.18621e-05
1.18577e-05
6.86837e-05
1.18626e-05
3.94731e-05
1.18613e-05
1.1859e-05
1.18616e-05
1.18569e-05
1.18576e-05
1.18603e-05
1.18673e-05
1.18681e-05
1.18569e-05
1.18592e-05
1.18566e-05
1.18622e-05
1.18621e-05
1.18573e-05
1.1875e-05
1.18566e-05
1.18569e-05
1.18662e-05
1.18726e-05
1.18584e-05
1.18629e-05
1.18601e-05
1.18861e-05
1.18604e-05
1.18622e-05
1.18572e-05
1.18599e-05
1.23802e-05
1.1857e-05
6.53332e-05
1.18574e-05
2.8673e-05
1.18574e-05
1.18608e-05
1.18578e-05
1.36475e-05
1.18618e-05
4.1143e-05
1.18675e-05
2.71319e-05
1.18568e-05
1.60206e-05
2.72143e-05
1.60421e-05
1.29945e-05
1.18568e-05
1.18596e-05
3.61373e-05
1.18669e-05
1.18613e-05
4.71964e-05
1.18569e-05
1.18567e-05
3.67475e-05
1.18583e-05
2.78745e-05
3.3404e-05
1.18571e-05
1.18575e-05
1.18588e-05
3.39208e-05
1.18605e-05
2.02507e-05
1.18572e-05
6.61309e-05
1.18582e-05
3.22378e-05
1.18582e-05
1.18968e-05
1.18572e-05
1.18646e-05
1.1858e-05
1.18576e-05
1.18686e-05
1.18589e-05
1.18586e-05
1.18629e-05
1.18603e-05
1.19188e-05
1.18723e-05
1.18733e-05
1.18577e-05
1.49364e-05
1.28796e-05
1.18576e-05
1.18577e-05
6.54338e-05
7.0638e-05
1.1857e-05
1.18574e-05
7.05422e-05
7.8465e-05
1.18571e-05
1.18569e-05
7.00108e-05
7.35585e-05
1.18574e-05
7.07122e-05
7.84041e-05
1.18571e-05
1.18572e-05
1.18569e-05
7.88076e-05
7.56536e-05
1.18583e-05
8.11814e-05
1.18589e-05
7.91789e-05
1.18576e-05
1.18572e-05
6.73015e-05
7.43197e-05
7.19974e-05
1.18581e-05
1.18575e-05
7.33368e-05
7.26835e-05
1.18569e-05
7.09873e-05
1.18569e-05
7.06604e-05
1.18573e-05
1.18569e-05
6.92918e-05
6.75923e-05
1.18569e-05
1.18569e-05
7.44499e-05
1.18589e-05
1.18569e-05
7.30962e-05
7.27975e-05
1.18579e-05
1.18571e-05
7.36758e-05
7.29902e-05
1.18575e-05
1.18575e-05
8.20608e-05
7.97963e-05
1.18574e-05
7.45694e-05
7.54127e-05
1.18572e-05
1.18584e-05
8.07975e-05
1.18573e-05
7.95229e-05
8.08128e-05
1.18573e-05
1.18573e-05
8.1176e-05
1.18571e-05
7.86913e-05
1.18572e-05
7.7998e-05
7.72009e-05
1.18571e-05
1.18571e-05
7.61713e-05
1.22467e-05
1.1867e-05
1.1858e-05
1.21824e-05
1.18656e-05
1.18568e-05
1.18617e-05
1.18771e-05
1.18763e-05
1.18608e-05
1.18689e-05
1.53378e-05
1.36338e-05
1.1956e-05
1.18581e-05
1.1861e-05
1.18585e-05
7.13662e-05
1.18574e-05
1.18574e-05
6.95718e-05
1.18576e-05
7.24436e-05
7.99115e-05
1.18578e-05
6.94517e-05
1.18577e-05
6.74888e-05
1.18592e-05
7.59017e-05
1.18571e-05
1.18585e-05
1.18575e-05
7.88977e-05
8.29977e-05
7.20353e-05
7.81435e-05
1.18578e-05
1.18572e-05
1.18582e-05
1.18569e-05
7.45126e-05
1.18579e-05
1.18581e-05
1.18578e-05
1.18585e-05
1.18569e-05
1.18583e-05
7.15934e-05
6.61461e-05
7.2198e-05
7.45586e-05
6.49394e-05
7.80729e-05
1.18568e-05
1.1858e-05
7.63336e-05
1.18569e-05
7.24344e-05
7.99586e-05
7.22775e-05
1.18574e-05
1.18573e-05
7.29781e-05
1.18577e-05
7.54564e-05
1.18572e-05
7.24844e-05
7.11012e-05
1.18572e-05
1.18585e-05
1.18648e-05
1.18568e-05
1.18738e-05
1.18737e-05
1.18642e-05
1.18737e-05
1.39724e-05
1.2538e-05
1.18609e-05
1.18589e-05
1.18712e-05
1.18587e-05
1.18907e-05
1.18568e-05
1.18572e-05
1.18601e-05
1.22713e-05
1.41932e-05
5.37368e-05
1.18572e-05
1.18574e-05
1.18575e-05
5.7856e-05
1.18574e-05
5.69972e-05
6.00036e-05
1.18761e-05
1.1857e-05
1.18637e-05
1.18603e-05
1.18616e-05
1.18575e-05
1.18624e-05
1.18572e-05
1.1857e-05
1.18665e-05
1.18589e-05
1.18651e-05
1.18594e-05
1.18672e-05
1.18568e-05
1.18615e-05
1.18567e-05
1.18571e-05
1.18603e-05
1.18577e-05
1.18573e-05
1.18582e-05
1.18633e-05
1.1857e-05
1.18626e-05
1.18573e-05
1.18569e-05
1.1859e-05
1.18657e-05
1.1857e-05
1.18586e-05
1.18622e-05
1.18571e-05
1.18682e-05
1.18578e-05
1.99381e-05
1.18646e-05
1.61712e-05
1.58503e-05
1.18697e-05
1.18578e-05
1.18576e-05
1.95797e-05
1.19982e-05
1.18706e-05
1.18606e-05
1.18638e-05
1.18638e-05
1.19175e-05
1.18586e-05
1.18577e-05
1.18625e-05
1.18584e-05
1.18592e-05
1.18568e-05
1.18589e-05
1.18569e-05
1.18571e-05
1.18569e-05
1.18578e-05
1.18575e-05
1.18577e-05
1.18621e-05
1.18572e-05
1.18584e-05
1.18587e-05
1.18596e-05
1.18673e-05
1.18607e-05
1.18636e-05
1.18714e-05
1.18614e-05
1.18667e-05
1.18579e-05
1.18593e-05
1.18761e-05
1.18646e-05
1.18593e-05
1.18703e-05
1.18588e-05
1.18607e-05
1.18675e-05
1.18598e-05
1.18697e-05
1.18664e-05
1.18589e-05
1.18698e-05
1.18607e-05
1.18619e-05
1.18584e-05
1.18592e-05
1.18702e-05
1.18634e-05
1.18776e-05
1.18565e-05
1.18648e-05
1.18699e-05
1.18566e-05
1.1857e-05
1.186e-05
1.18691e-05
1.18763e-05
1.18567e-05
1.18596e-05
1.18638e-05
1.18598e-05
1.18843e-05
1.18594e-05
1.18613e-05
1.1861e-05
1.18574e-05
1.1858e-05
1.1858e-05
1.1864e-05
1.18576e-05
1.18584e-05
1.18568e-05
1.186e-05
1.18979e-05
1.18657e-05
1.18602e-05
1.18625e-05
1.18578e-05
1.18614e-05
1.18583e-05
1.18568e-05
1.18565e-05
1.18562e-05
1.18604e-05
1.18815e-05
1.18569e-05
1.18725e-05
1.18669e-05
1.18644e-05
1.18656e-05
1.18584e-05
1.18664e-05
1.18606e-05
1.18604e-05
1.1856e-05
1.18736e-05
1.18566e-05
1.18799e-05
1.18568e-05
1.1873e-05
1.18656e-05
1.18796e-05
1.18689e-05
1.18886e-05
1.18574e-05
1.18567e-05
1.18635e-05
1.19036e-05
1.18625e-05
1.18695e-05
1.18784e-05
1.18573e-05
1.18765e-05
1.18878e-05
1.18581e-05
1.18588e-05
1.187e-05
1.1873e-05
1.18841e-05
1.18568e-05
1.18671e-05
1.18678e-05
1.18589e-05
1.18585e-05
1.18578e-05
1.18633e-05
1.18684e-05
1.18732e-05
1.18718e-05
1.18612e-05
1.18667e-05
1.18571e-05
1.18651e-05
1.1857e-05
1.18597e-05
1.18782e-05
1.18577e-05
1.1857e-05
1.18663e-05
1.18568e-05
1.1871e-05
1.18569e-05
1.18582e-05
1.18658e-05
1.1857e-05
1.18622e-05
1.1858e-05
1.18599e-05
1.18694e-05
1.18567e-05
1.18567e-05
1.18626e-05
1.18669e-05
1.18636e-05
1.18611e-05
1.18587e-05
1.18575e-05
1.18725e-05
1.18631e-05
1.18661e-05
1.18628e-05
1.18663e-05
1.18565e-05
1.18608e-05
1.18568e-05
1.1863e-05
1.18584e-05
1.18584e-05
1.18676e-05
1.18651e-05
1.18726e-05
1.18563e-05
1.18596e-05
1.18577e-05
1.18563e-05
1.18565e-05
1.18581e-05
1.19034e-05
1.1861e-05
1.18618e-05
1.18773e-05
1.18648e-05
1.18599e-05
1.18676e-05
1.18851e-05
1.18668e-05
1.18594e-05
1.1889e-05
1.187e-05
1.18676e-05
1.18564e-05
1.18635e-05
1.18605e-05
1.18582e-05
1.18634e-05
1.18653e-05
1.18578e-05
1.18583e-05
1.18746e-05
1.18585e-05
1.18722e-05
1.18579e-05
1.18818e-05
1.18657e-05
1.18628e-05
1.18603e-05
1.18688e-05
1.18677e-05
1.18622e-05
1.18584e-05
1.18631e-05
1.18573e-05
1.18639e-05
1.18565e-05
1.1857e-05
1.18731e-05
1.18643e-05
1.18654e-05
1.18597e-05
1.18713e-05
1.18643e-05
1.18629e-05
1.18797e-05
1.18602e-05
1.18592e-05
1.18558e-05
1.18576e-05
1.18727e-05
1.18582e-05
1.186e-05
1.18559e-05
1.18743e-05
1.18594e-05
1.18569e-05
1.18586e-05
1.18633e-05
1.18709e-05
1.18561e-05
1.18616e-05
1.18567e-05
1.18567e-05
1.18553e-05
1.18643e-05
1.18634e-05
1.18591e-05
1.18604e-05
1.1863e-05
1.18603e-05
1.18613e-05
1.18581e-05
1.18564e-05
1.18593e-05
1.18637e-05
1.18682e-05
1.18627e-05
1.18685e-05
1.18606e-05
1.18585e-05
1.18662e-05
1.18623e-05
1.1864e-05
1.18595e-05
1.18726e-05
1.18575e-05
1.18707e-05
1.18895e-05
1.18946e-05
1.1857e-05
1.18689e-05
1.18567e-05
1.18685e-05
1.18565e-05
1.18608e-05
1.18625e-05
1.18569e-05
1.18659e-05
1.18631e-05
1.18693e-05
1.18631e-05
1.18569e-05
1.18718e-05
1.18616e-05
1.18571e-05
1.18573e-05
1.1857e-05
1.18564e-05
1.18597e-05
1.1861e-05
1.1869e-05
1.18592e-05
1.18674e-05
1.18641e-05
1.18635e-05
1.18593e-05
1.18715e-05
1.18579e-05
1.1857e-05
1.18572e-05
1.18657e-05
1.18657e-05
1.18588e-05
1.18628e-05
1.18749e-05
1.18778e-05
1.18679e-05
1.18585e-05
1.18796e-05
1.18573e-05
1.18584e-05
1.22264e-05
1.18674e-05
1.1866e-05
1.18813e-05
1.18808e-05
1.18616e-05
1.22754e-05
1.18709e-05
1.18566e-05
1.1878e-05
1.18741e-05
1.18572e-05
1.21244e-05
1.18698e-05
1.18781e-05
1.188e-05
1.18629e-05
1.21771e-05
1.18599e-05
1.18569e-05
1.18614e-05
1.18605e-05
1.18713e-05
1.18632e-05
1.18638e-05
1.18571e-05
1.18569e-05
1.18587e-05
1.1857e-05
1.18603e-05
1.18581e-05
1.18624e-05
1.18757e-05
1.1859e-05
1.18625e-05
1.18586e-05
1.18658e-05
1.18784e-05
1.18567e-05
1.18712e-05
1.18651e-05
1.18588e-05
1.18566e-05
1.1858e-05
1.18628e-05
1.18699e-05
1.18594e-05
1.18638e-05
1.18656e-05
1.18668e-05
1.18613e-05
1.18565e-05
1.18572e-05
1.18619e-05
1.18592e-05
1.18636e-05
1.18608e-05
1.18655e-05
1.18568e-05
1.18559e-05
1.18592e-05
1.18573e-05
1.19255e-05
1.18733e-05
1.18954e-05
1.18669e-05
1.18584e-05
1.18589e-05
1.18657e-05
1.18676e-05
1.18636e-05
1.18631e-05
1.18572e-05
1.18596e-05
1.18668e-05
1.18732e-05
1.18604e-05
1.18745e-05
1.18574e-05
1.18569e-05
1.18598e-05
1.1857e-05
1.18943e-05
1.18572e-05
1.18907e-05
1.18745e-05
1.18565e-05
1.18654e-05
1.186e-05
1.18683e-05
1.18743e-05
1.18697e-05
1.18732e-05
1.18597e-05
1.18569e-05
1.18583e-05
1.18572e-05
1.18565e-05
1.18797e-05
1.1857e-05
1.18578e-05
1.1862e-05
1.18573e-05
1.18875e-05
1.18635e-05
1.19061e-05