/*--------------------------------*- C++ -*----------------------------------*\
  =========                 |
  \\      /  F ield         | OpenFOAM: The Open Source CFD Toolbox
   \\    /   O peration     | Website:  https://openfoam.org
    \\  /    A nd           | Version:  6
     \\/     M anipulation  |
\*---------------------------------------------------------------------------*/
FoamFile
{
    version     2.0;
    format      ascii;
    class       volScalarField;
    location    "3.27";
    object      rho;
}
// * * * * * * * * * * * * * * * * * * * * * * * * * * * * * * * * * * * * * //

dimensions      [1 -3 0 0 0 0 0];

internalField   nonuniform List<scalar> 
10000
(
1.40001
1.40001
1.40001
1.40001
1.40001
1.40001
1.40001
1.40001
1.40001
1.4
1.40001
1.4
1.40001
1.4
1.40001
1.4
1.40001
1.4
1.40001
1.4
1.40001
1.4
1.40001
1.4
1.40001
1.4
1.40001
1.40001
1.4
1.40001
1.4
1.40001
1.40001
1.40001
1.40001
1.40001
1.40001
1.40001
1.40001
1.40001
1.40001
1.40001
1.40001
1.40001
1.40001
1.4
1.4
1.4
1.4
1.39999
1.39999
1.39998
1.39998
1.39997
1.39997
1.39997
1.39996
1.39997
1.39997
1.39998
1.39999
1.4
1.40002
1.40003
1.40005
1.40006
1.40006
1.40007
1.40006
1.40006
1.40005
1.40004
1.40003
1.40002
1.40001
1.40001
1.4
1.4
1.39999
1.39999
1.39999
1.4
1.4
1.4
1.4
1.4
1.4
1.4
1.4
1.4
1.4
1.4
1.4
1.4
1.40001
1.40001
1.40001
1.40001
1.40001
1.40001
1.40001
1.40001
1.40001
1.40001
1.40001
1.40001
1.40001
1.40001
1.40001
1.4
1.40001
1.40001
1.40001
1.40001
1.4
1.40001
1.40001
1.40001
1.40001
1.40001
1.4
1.40001
1.4
1.40001
1.40001
1.40001
1.4
1.40001
1.40001
1.4
1.40001
1.40001
1.40001
1.4
1.40001
1.40001
1.40001
1.40001
1.40001
1.40001
1.40001
1.40001
1.40001
1.40001
1.40001
1.4
1.4
1.4
1.4
1.39999
1.39998
1.39998
1.39997
1.39996
1.39996
1.39995
1.39995
1.39996
1.39996
1.39997
1.39998
1.4
1.40002
1.40003
1.40005
1.40006
1.40007
1.40008
1.40008
1.40007
1.40006
1.40006
1.40004
1.40003
1.40002
1.40001
1.4
1.4
1.4
1.39999
1.39999
1.39999
1.4
1.4
1.4
1.4
1.4
1.4
1.4
1.4
1.4
1.4
1.4
1.4
1.4
1.4
1.40001
1.40001
1.40001
1.40001
1.40001
1.40001
1.40001
1.40001
1.40001
1.40001
1.40001
1.40001
1.40001
1.40001
1.40001
1.40001
1.4
1.40001
1.4
1.40001
1.4
1.40001
1.4
1.40001
1.4
1.40001
1.4
1.40001
1.4
1.40001
1.4
1.40001
1.40001
1.4
1.40001
1.40001
1.40001
1.4
1.40001
1.40001
1.40001
1.40001
1.40001
1.40001
1.40001
1.40001
1.40001
1.40001
1.40001
1.40001
1.4
1.4
1.39999
1.39999
1.39998
1.39997
1.39996
1.39995
1.39995
1.39994
1.39994
1.39994
1.39995
1.39996
1.39998
1.4
1.40002
1.40004
1.40005
1.40007
1.40008
1.40009
1.40009
1.40009
1.40008
1.40007
1.40006
1.40004
1.40003
1.40002
1.40001
1.4
1.4
1.39999
1.39999
1.39999
1.39999
1.4
1.4
1.4
1.4
1.4
1.4
1.4
1.4
1.4
1.4
1.4
1.4
1.40001
1.40001
1.40001
1.40001
1.40001
1.40001
1.40001
1.40001
1.40001
1.40001
1.40001
1.40001
1.40001
1.40001
1.40001
1.4
1.40001
1.4
1.40001
1.4
1.40001
1.40001
1.40001
1.4
1.40001
1.40001
1.4
1.40001
1.4
1.4
1.40001
1.4
1.40001
1.40001
1.4
1.40001
1.40001
1.40001
1.4
1.40001
1.40001
1.40001
1.40001
1.40001
1.40001
1.40001
1.40001
1.40001
1.40001
1.40001
1.40001
1.4
1.4
1.39999
1.39998
1.39997
1.39996
1.39995
1.39994
1.39993
1.39993
1.39993
1.39993
1.39994
1.39995
1.39997
1.39999
1.40001
1.40004
1.40006
1.40008
1.4001
1.40011
1.40011
1.40011
1.4001
1.40009
1.40008
1.40006
1.40004
1.40003
1.40002
1.40001
1.4
1.39999
1.39999
1.39999
1.39999
1.39999
1.39999
1.4
1.4
1.4
1.4
1.4
1.4
1.4
1.4
1.4
1.4
1.4
1.4
1.40001
1.40001
1.40001
1.40001
1.40001
1.40001
1.40001
1.40001
1.40001
1.40001
1.40001
1.4
1.40001
1.4
1.40001
1.4
1.40001
1.40001
1.4
1.40001
1.4
1.40001
1.4
1.40001
1.4
1.40001
1.4
1.4
1.40001
1.40001
1.4
1.40001
1.40001
1.4
1.40001
1.40001
1.40001
1.40001
1.40001
1.40001
1.40001
1.40001
1.40001
1.40001
1.40002
1.40002
1.40002
1.40002
1.40001
1.40001
1.4
1.39999
1.39998
1.39996
1.39995
1.39994
1.39993
1.39992
1.39992
1.39992
1.39992
1.39993
1.39994
1.39996
1.39999
1.40001
1.40004
1.40006
1.40009
1.40011
1.40012
1.40013
1.40013
1.40013
1.40012
1.4001
1.40008
1.40006
1.40004
1.40003
1.40001
1.4
1.4
1.39999
1.39999
1.39999
1.39999
1.39999
1.39999
1.4
1.4
1.4
1.4
1.4
1.4
1.4
1.4
1.4
1.4
1.4
1.40001
1.40001
1.40001
1.40001
1.40001
1.40001
1.40001
1.40001
1.40001
1.40001
1.40001
1.4
1.40001
1.4
1.40001
1.4
1.40001
1.4
1.40001
1.40001
1.4
1.40001
1.4
1.40001
1.40001
1.4
1.40001
1.4
1.4
1.40001
1.4
1.40001
1.40001
1.4
1.40001
1.40001
1.40001
1.40001
1.40001
1.40001
1.40001
1.40002
1.40002
1.40002
1.40003
1.40003
1.40003
1.40003
1.40002
1.40001
1.4
1.39999
1.39997
1.39996
1.39994
1.39993
1.39992
1.39991
1.39991
1.39991
1.39991
1.39992
1.39994
1.39996
1.39998
1.40001
1.40004
1.40007
1.4001
1.40012
1.40014
1.40015
1.40016
1.40015
1.40014
1.40013
1.40011
1.40009
1.40006
1.40004
1.40002
1.40001
1.4
1.39999
1.39999
1.39999
1.39999
1.39999
1.39999
1.39999
1.4
1.4
1.4
1.4
1.4
1.4
1.4
1.4
1.4
1.4
1.4
1.40001
1.40001
1.40001
1.40001
1.40001
1.40001
1.40001
1.40001
1.40001
1.40001
1.4
1.40001
1.40001
1.40001
1.40001
1.4
1.40001
1.40001
1.4
1.40001
1.4
1.40001
1.4
1.40001
1.4
1.40001
1.40001
1.4
1.4
1.40001
1.4
1.40001
1.40001
1.40001
1.40001
1.40001
1.40001
1.40001
1.40002
1.40002
1.40003
1.40003
1.40004
1.40004
1.40005
1.40004
1.40004
1.40003
1.40002
1.40001
1.39999
1.39997
1.39995
1.39993
1.39992
1.39991
1.3999
1.3999
1.3999
1.39991
1.39992
1.39994
1.39996
1.39999
1.40002
1.40005
1.40008
1.40011
1.40014
1.40016
1.40018
1.40019
1.40019
1.40018
1.40016
1.40014
1.40012
1.40009
1.40007
1.40004
1.40002
1.40001
1.4
1.39999
1.39999
1.39999
1.39999
1.39999
1.39999
1.39999
1.4
1.4
1.4
1.4
1.4
1.4
1.4
1.4
1.4
1.4
1.40001
1.40001
1.40001
1.40001
1.40001
1.40001
1.40001
1.40001
1.40001
1.40001
1.40001
1.40001
1.40001
1.4
1.40001
1.4
1.40001
1.4
1.4
1.40001
1.4
1.40001
1.4
1.40001
1.40001
1.4
1.40001
1.4
1.4
1.40001
1.4
1.40001
1.40001
1.40001
1.40001
1.40001
1.40002
1.40002
1.40003
1.40004
1.40005
1.40006
1.40007
1.40007
1.40007
1.40007
1.40007
1.40005
1.40004
1.40002
1.4
1.39998
1.39996
1.39994
1.39992
1.39992
1.39991
1.39991
1.39991
1.39992
1.39993
1.39995
1.39997
1.4
1.40003
1.40006
1.4001
1.40013
1.40016
1.40019
1.40021
1.40022
1.40023
1.40022
1.4002
1.40018
1.40016
1.40013
1.4001
1.40007
1.40004
1.40002
1.4
1.39999
1.39998
1.39998
1.39998
1.39999
1.39999
1.39999
1.4
1.4
1.4
1.4
1.4
1.4
1.4
1.4
1.4
1.4
1.4
1.40001
1.40001
1.40001
1.40001
1.40001
1.40001
1.40001
1.40001
1.40001
1.4
1.40001
1.4
1.40001
1.4
1.40001
1.4
1.4
1.40001
1.4
1.40001
1.40001
1.40001
1.4
1.40001
1.40001
1.4
1.40001
1.40001
1.4
1.40001
1.40001
1.40001
1.40001
1.40002
1.40002
1.40003
1.40004
1.40005
1.40007
1.40008
1.4001
1.40011
1.40012
1.40012
1.40011
1.4001
1.40009
1.40007
1.40004
1.40002
1.4
1.39998
1.39996
1.39995
1.39994
1.39994
1.39994
1.39994
1.39995
1.39996
1.39998
1.4
1.40003
1.40005
1.40009
1.40012
1.40016
1.40019
1.40022
1.40025
1.40026
1.40027
1.40027
1.40026
1.40024
1.4002
1.40017
1.40014
1.4001
1.40007
1.40004
1.40001
1.39999
1.39998
1.39998
1.39998
1.39998
1.39998
1.39999
1.39999
1.4
1.4
1.4
1.4
1.4
1.4
1.4
1.4
1.4
1.4
1.40001
1.40001
1.40001
1.40001
1.40001
1.40001
1.40001
1.4
1.40001
1.4
1.40001
1.4
1.40001
1.4
1.40001
1.4
1.40001
1.40001
1.4
1.40001
1.4
1.40001
1.4
1.40001
1.4
1.4
1.40001
1.40001
1.4
1.40001
1.40001
1.40002
1.40002
1.40003
1.40004
1.40005
1.40007
1.40009
1.40011
1.40014
1.40015
1.40017
1.40018
1.40018
1.40017
1.40016
1.40014
1.40011
1.40009
1.40006
1.40004
1.40003
1.40001
1.4
1.4
1.4
1.4
1.40001
1.40002
1.40003
1.40004
1.40006
1.40008
1.4001
1.40013
1.40017
1.4002
1.40023
1.40027
1.4003
1.40031
1.40033
1.40033
1.40031
1.4003
1.40027
1.40023
1.40018
1.40014
1.40011
1.40007
1.40004
1.40001
1.39999
1.39998
1.39997
1.39997
1.39998
1.39998
1.39999
1.39999
1.4
1.4
1.4
1.4
1.4
1.4
1.4
1.4
1.4
1.40001
1.40001
1.40001
1.40001
1.40001
1.40001
1.40001
1.4
1.40001
1.4
1.40001
1.4
1.40001
1.40001
1.40001
1.4
1.40001
1.4
1.40001
1.40001
1.4
1.4
1.40001
1.4
1.4
1.40001
1.40001
1.4
1.40001
1.40001
1.40002
1.40002
1.40004
1.40004
1.40006
1.40009
1.40012
1.40015
1.40018
1.40021
1.40024
1.40026
1.40027
1.40027
1.40026
1.40024
1.40022
1.40019
1.40017
1.40015
1.40014
1.40013
1.40012
1.40012
1.40012
1.40012
1.40013
1.40013
1.40013
1.40014
1.40015
1.40015
1.40017
1.40019
1.40021
1.40023
1.40027
1.40031
1.40034
1.40035
1.40039
1.40041
1.40039
1.40039
1.40038
1.40035
1.4003
1.40025
1.4002
1.40015
1.40011
1.40007
1.40003
1.40001
1.39998
1.39997
1.39997
1.39997
1.39997
1.39998
1.39999
1.39999
1.4
1.4
1.4
1.4
1.4
1.4
1.4
1.4
1.40001
1.4
1.40001
1.40001
1.40001
1.40001
1.4
1.40001
1.4
1.40001
1.4
1.40001
1.4
1.40001
1.4
1.40001
1.4
1.4
1.40001
1.4
1.40001
1.40001
1.40001
1.39999
1.40001
1.40001
1.4
1.40001
1.40002
1.40001
1.40003
1.40003
1.40005
1.40008
1.4001
1.40015
1.40019
1.40023
1.40028
1.40032
1.40035
1.40037
1.40038
1.40038
1.40038
1.40036
1.40034
1.40033
1.40032
1.40031
1.40031
1.40031
1.40032
1.40033
1.40033
1.40033
1.40034
1.40033
1.40033
1.40033
1.40032
1.40032
1.40032
1.40032
1.40033
1.40034
1.40038
1.4004
1.40042
1.40047
1.40049
1.40047
1.40051
1.40052
1.40047
1.40043
1.40041
1.40036
1.40029
1.40022
1.40015
1.4001
1.40006
1.40002
1.4
1.39998
1.39997
1.39996
1.39997
1.39997
1.39998
1.39999
1.39999
1.4
1.4
1.4
1.4
1.4
1.4
1.4
1.40001
1.40001
1.4
1.40001
1.4
1.40001
1.4
1.40001
1.4
1.40001
1.4
1.40001
1.4
1.40001
1.4
1.40001
1.4
1.40001
1.40001
1.4
1.40001
1.40001
1.39999
1.40002
1.40001
1.4
1.4
1.40002
1.40001
1.40003
1.40002
1.40006
1.40007
1.40013
1.40016
1.40022
1.40028
1.40034
1.4004
1.40045
1.4005
1.40052
1.40054
1.40054
1.40054
1.40054
1.40054
1.40055
1.40057
1.40059
1.40061
1.40063
1.40066
1.40067
1.40068
1.40068
1.40068
1.40067
1.40064
1.40062
1.4006
1.40058
1.40055
1.40053
1.40052
1.40055
1.40053
1.40052
1.4006
1.40061
1.40057
1.40065
1.40066
1.40061
1.40059
1.40059
1.40054
1.40045
1.4004
1.40032
1.40024
1.40017
1.40009
1.40005
1.40002
1.39999
1.39997
1.39997
1.39996
1.39997
1.39997
1.39998
1.39999
1.39999
1.4
1.4
1.4
1.4
1.4
1.4
1.4
1.40001
1.4
1.40001
1.4
1.40001
1.40001
1.4
1.40001
1.4
1.40001
1.4
1.40001
1.4
1.40001
1.4
1.40001
1.40001
1.4
1.40001
1.40001
1.39999
1.4
1.40002
1.39999
1.4
1.40002
1.40002
1.40002
1.40003
1.40005
1.40009
1.40013
1.40018
1.40025
1.40031
1.40039
1.40048
1.40055
1.40061
1.40066
1.40071
1.40074
1.40076
1.40079
1.40082
1.40086
1.40092
1.40098
1.40104
1.4011
1.40116
1.4012
1.40122
1.40124
1.40123
1.4012
1.40118
1.40112
1.40108
1.40102
1.40097
1.40091
1.40086
1.40085
1.40079
1.40075
1.40083
1.40079
1.40073
1.40086
1.40084
1.40076
1.4008
1.40082
1.40076
1.40065
1.40062
1.40055
1.40046
1.40037
1.40025
1.40018
1.4001
1.40002
1.4
1.39998
1.39997
1.39996
1.39997
1.39997
1.39998
1.39998
1.39999
1.4
1.4
1.4
1.4
1.4
1.4
1.4
1.4
1.40001
1.4
1.40001
1.4
1.40001
1.4
1.40001
1.4
1.40001
1.4
1.40001
1.4
1.40001
1.4
1.40001
1.4
1.4
1.40002
1.39999
1.4
1.40003
1.39998
1.4
1.40001
1.40004
1.4
1.40004
1.40003
1.40011
1.4001
1.4002
1.40023
1.40035
1.40043
1.40054
1.40063
1.40072
1.4008
1.40087
1.40094
1.401
1.40108
1.40116
1.40126
1.40137
1.4015
1.40164
1.40177
1.40188
1.40198
1.40204
1.40208
1.40208
1.40206
1.402
1.40194
1.40185
1.40175
1.40166
1.40155
1.40145
1.40139
1.40126
1.40116
1.40124
1.40113
1.40102
1.40118
1.4011
1.40099
1.4011
1.40109
1.40101
1.40093
1.40092
1.40086
1.40073
1.40063
1.40049
1.40042
1.4003
1.40016
1.4001
1.40004
1.39997
1.39996
1.39996
1.39996
1.39996
1.39997
1.39998
1.39999
1.39999
1.4
1.4
1.4
1.4
1.4
1.4
1.4
1.4
1.40001
1.40001
1.4
1.40001
1.4
1.40001
1.40001
1.4
1.40001
1.4
1.40001
1.4
1.40001
1.4
1.4
1.40002
1.4
1.39999
1.40004
1.39999
1.39999
1.40002
1.40003
1.39999
1.40002
1.40004
1.40009
1.40011
1.40017
1.40025
1.40034
1.40045
1.40057
1.40069
1.4008
1.40092
1.40102
1.40114
1.40125
1.40139
1.40154
1.40172
1.40193
1.40216
1.40241
1.40265
1.40287
1.40306
1.4032
1.4033
1.40334
1.40334
1.40327
1.40319
1.40305
1.40292
1.40275
1.40259
1.40242
1.40228
1.40208
1.40191
1.40192
1.40173
1.40154
1.40172
1.40153
1.40137
1.40156
1.40148
1.40135
1.40131
1.40131
1.40127
1.4011
1.401
1.40085
1.40073
1.40058
1.40039
1.40033
1.4002
1.40006
1.40002
1.39998
1.39995
1.39994
1.39995
1.39996
1.39997
1.39998
1.39999
1.4
1.4
1.4
1.4
1.4
1.4
1.40001
1.4
1.4
1.40001
1.4
1.40001
1.40001
1.4
1.40001
1.4
1.40001
1.4
1.40001
1.4
1.40001
1.39999
1.40002
1.4
1.39999
1.40002
1.40001
1.39997
1.40004
1.40001
1.40001
1.39998
1.40008
1.40003
1.40014
1.4001
1.40027
1.40027
1.40048
1.40053
1.40073
1.40084
1.401
1.40115
1.40131
1.40148
1.40169
1.40193
1.40222
1.40256
1.40294
1.40334
1.40375
1.40414
1.40448
1.40477
1.40498
1.40512
1.40516
1.40513
1.40502
1.40488
1.40466
1.40444
1.4042
1.40391
1.4037
1.40341
1.40312
1.40306
1.40275
1.40244
1.4026
1.4023
1.40204
1.40229
1.40207
1.4019
1.40193
1.40186
1.40179
1.40159
1.40152
1.40139
1.40121
1.40102
1.40079
1.40067
1.40045
1.40025
1.4002
1.40009
1.39999
1.39996
1.39995
1.39994
1.39995
1.39997
1.39998
1.39999
1.39999
1.4
1.4
1.4
1.4
1.4
1.4
1.40001
1.4
1.40001
1.40001
1.4
1.40001
1.4
1.4
1.40001
1.4
1.40001
1.4
1.40001
1.4
1.4
1.40002
1.39999
1.40001
1.40003
1.39996
1.40004
1.40001
1.40001
1.39997
1.40007
1.40003
1.40009
1.40008
1.40022
1.40026
1.4004
1.40053
1.40068
1.40084
1.40102
1.40122
1.40142
1.40168
1.40196
1.40231
1.40273
1.40323
1.40379
1.4044
1.40504
1.40567
1.40625
1.40676
1.40717
1.40748
1.40765
1.4077
1.40763
1.40748
1.40722
1.40693
1.40657
1.40621
1.40583
1.40546
1.40504
1.40482
1.4044
1.40395
1.40403
1.40358
1.40316
1.40346
1.40306
1.40278
1.40288
1.40266
1.40256
1.40236
1.40226
1.40212
1.40183
1.40167
1.40144
1.40123
1.40091
1.40063
1.40051
1.40028
1.4001
1.40005
1.39999
1.39995
1.39995
1.39995
1.39996
1.39997
1.39998
1.39999
1.4
1.4
1.4
1.4
1.4
1.4
1.40001
1.40001
1.4
1.40001
1.4
1.4
1.40001
1.4
1.40001
1.4
1.4
1.40001
1.4
1.4
1.40002
1.39999
1.40002
1.40001
1.39999
1.4
1.40005
1.39998
1.39999
1.40004
1.40006
1.40001
1.40012
1.40008
1.4003
1.40024
1.40053
1.40053
1.40086
1.40093
1.40125
1.40147
1.4018
1.40215
1.40263
1.40318
1.40386
1.40465
1.40551
1.40645
1.40739
1.4083
1.40914
1.40986
1.41044
1.41085
1.41108
1.41114
1.41103
1.41081
1.41044
1.41001
1.40951
1.40899
1.40851
1.4079
1.40748
1.40698
1.4063
1.40623
1.40567
1.40501
1.40527
1.40469
1.40422
1.40442
1.40399
1.40378
1.40358
1.40335
1.40321
1.40281
1.40263
1.40234
1.40199
1.40165
1.40133
1.40111
1.40072
1.40041
1.40028
1.40011
1.4
1.39996
1.39994
1.39993
1.39995
1.39996
1.39997
1.39999
1.39999
1.4
1.4
1.4
1.40001
1.40001
1.4
1.40001
1.4
1.4
1.40001
1.4
1.40001
1.40001
1.4
1.40001
1.4
1.40001
1.4
1.40001
1.40001
1.39999
1.40003
1.39999
1.39998
1.40006
1.39996
1.40001
1.39999
1.40009
1.39996
1.4001
1.40006
1.4002
1.40021
1.40039
1.40048
1.40069
1.40091
1.40116
1.40146
1.40182
1.40228
1.40282
1.40354
1.40439
1.40541
1.40656
1.40783
1.40916
1.4105
1.41177
1.41293
1.41392
1.4147
1.41525
1.41556
1.41564
1.4155
1.41518
1.4147
1.41412
1.41348
1.41279
1.41206
1.41137
1.41074
1.40987
1.40952
1.40888
1.40792
1.40804
1.40733
1.40658
1.40681
1.40613
1.40577
1.40562
1.40512
1.40487
1.40433
1.40407
1.40375
1.40318
1.40278
1.40236
1.40197
1.40145
1.40105
1.4008
1.40045
1.4002
1.40007
1.39997
1.39992
1.39992
1.39993
1.39995
1.39996
1.39998
1.39999
1.39999
1.4
1.4
1.4
1.40001
1.4
1.4
1.40001
1.4
1.40001
1.40001
1.4
1.40001
1.4
1.4
1.40001
1.4
1.40001
1.40001
1.39999
1.40003
1.39998
1.40001
1.40001
1.40003
1.39995
1.40003
1.40006
1.39997
1.40003
1.40005
1.40011
1.40021
1.40018
1.40048
1.40046
1.40088
1.40093
1.40145
1.40169
1.40231
1.40289
1.40375
1.40474
1.40598
1.40741
1.40903
1.41079
1.41261
1.41442
1.41614
1.41769
1.41901
1.42005
1.42078
1.4212
1.42131
1.42115
1.42074
1.42017
1.41944
1.41862
1.41774
1.41682
1.41602
1.41498
1.41423
1.41355
1.41233
1.41212
1.41132
1.41022
1.41041
1.40952
1.40882
1.40868
1.4079
1.40759
1.40695
1.40636
1.40591
1.4051
1.40463
1.40404
1.40334
1.40266
1.40207
1.40164
1.40109
1.40067
1.40041
1.40017
1.40002
1.39995
1.39992
1.39991
1.39993
1.39995
1.39997
1.39999
1.39999
1.4
1.4
1.4
1.4
1.40001
1.4
1.40001
1.40001
1.4
1.40001
1.4
1.4
1.40001
1.4
1.40001
1.4
1.40001
1.4
1.4
1.40002
1.39998
1.40002
1.40003
1.39995
1.40004
1.40002
1.40004
1.39992
1.40012
1.40001
1.40016
1.40011
1.40029
1.40041
1.40061
1.40086
1.40116
1.40161
1.40214
1.40284
1.40374
1.40488
1.40626
1.40794
1.40988
1.41206
1.41439
1.41679
1.41916
1.42139
1.4234
1.4251
1.42644
1.4274
1.42795
1.42813
1.42796
1.42753
1.42687
1.42602
1.42505
1.42403
1.423
1.42187
1.42079
1.41997
1.41857
1.4179
1.4171
1.41566
1.41557
1.41453
1.41353
1.41344
1.41234
1.41175
1.41104
1.41011
1.4095
1.40835
1.40755
1.40668
1.40563
1.40478
1.40388
1.40309
1.40225
1.40155
1.40106
1.40059
1.40027
1.40009
1.39996
1.39991
1.39991
1.39992
1.39994
1.39996
1.39998
1.39999
1.39999
1.4
1.4
1.4
1.40001
1.40001
1.4
1.40001
1.4
1.4
1.40001
1.4
1.40001
1.40001
1.4
1.40001
1.4
1.40001
1.40002
1.39998
1.40003
1.39999
1.40002
1.39995
1.40009
1.39998
1.39994
1.40009
1.40001
1.4001
1.40002
1.40017
1.40032
1.40034
1.40073
1.40085
1.40146
1.40179
1.4027
1.40347
1.40479
1.4062
1.40808
1.41024
1.41278
1.41558
1.41856
1.42162
1.4246
1.4274
1.4299
1.43201
1.43368
1.43485
1.43556
1.43583
1.43571
1.43531
1.43459
1.43371
1.43273
1.43162
1.43046
1.42922
1.42821
1.42682
1.42573
1.4249
1.42329
1.42283
1.42174
1.42033
1.42018
1.41898
1.41814
1.41731
1.41584
1.41495
1.41352
1.41225
1.41097
1.40936
1.40818
1.40684
1.40556
1.40437
1.40322
1.40233
1.4015
1.40087
1.40045
1.40014
1.39998
1.39991
1.39989
1.3999
1.39993
1.39995
1.39997
1.39999
1.39999
1.4
1.40001
1.40001
1.4
1.40001
1.4
1.4
1.40001
1.4
1.40001
1.40001
1.4
1.40001
1.4
1.40001
1.4
1.40001
1.4
1.4
1.40002
1.39999
1.39998
1.40007
1.39999
1.39995
1.40001
1.40011
1.39992
1.40007
1.40004
1.40021
1.40026
1.40038
1.40075
1.40099
1.40162
1.4022
1.40316
1.40433
1.40584
1.40775
1.41005
1.4128
1.41597
1.41945
1.42315
1.42689
1.43054
1.43391
1.43687
1.43936
1.44129
1.44265
1.44349
1.44386
1.44384
1.44346
1.44284
1.44204
1.44111
1.44006
1.43892
1.43788
1.43665
1.43542
1.4346
1.43306
1.43218
1.4312
1.42967
1.42928
1.4279
1.42679
1.42622
1.42468
1.42352
1.42172
1.41977
1.41798
1.41568
1.41382
1.41176
1.40969
1.40795
1.40617
1.40467
1.40334
1.4022
1.40136
1.40071
1.40028
1.40004
1.39991
1.39986
1.39988
1.3999
1.39994
1.39996
1.39998
1.39999
1.39999
1.4
1.40001
1.4
1.4
1.40001
1.4
1.40001
1.40001
1.4
1.40001
1.4
1.4
1.40001
1.39999
1.40002
1.4
1.4
1.40002
1.39998
1.40002
1.4
1.40007
1.39987
1.40008
1.40006
1.39991
1.40003
1.39998
1.40018
1.40006
1.40025
1.4005
1.40069
1.40123
1.40169
1.40267
1.40364
1.40522
1.40693
1.40938
1.41209
1.41548
1.41929
1.42351
1.42793
1.43237
1.43664
1.44052
1.44385
1.44657
1.44863
1.45006
1.45094
1.45135
1.45139
1.45111
1.45066
1.45002
1.44928
1.44851
1.44766
1.44677
1.44581
1.44508
1.44391
1.44299
1.44228
1.44091
1.44045
1.43933
1.43808
1.43763
1.43641
1.43563
1.43429
1.43208
1.42974
1.42655
1.42355
1.42038
1.41701
1.41424
1.41142
1.4089
1.40674
1.40477
1.40323
1.402
1.4011
1.4005
1.40012
1.39992
1.39985
1.39985
1.39988
1.39991
1.39995
1.39997
1.39999
1.4
1.4
1.4
1.40001
1.4
1.40001
1.40001
1.4
1.40001
1.4
1.4
1.40001
1.4
1.40001
1.4
1.40001
1.4
1.40002
1.39999
1.4
1.40002
1.40003
1.39993
1.40004
1.40007
1.39995
1.39993
1.4001
1.39999
1.40007
1.40008
1.40023
1.40054
1.40064
1.40141
1.40183
1.40301
1.40419
1.40594
1.40812
1.41087
1.41419
1.41808
1.4226
1.42752
1.43264
1.43773
1.44254
1.44678
1.45028
1.45299
1.45494
1.45623
1.45697
1.4573
1.45732
1.45711
1.45676
1.45639
1.45597
1.45558
1.45515
1.45466
1.45434
1.45385
1.45334
1.45313
1.45234
1.45195
1.45135
1.45051
1.45036
1.44936
1.44868
1.44826
1.44718
1.44577
1.44291
1.43928
1.43499
1.42998
1.42547
1.42091
1.41661
1.41299
1.40967
1.4069
1.40467
1.40291
1.40165
1.40079
1.40025
1.39998
1.39986
1.39983
1.39986
1.3999
1.39993
1.39997
1.39998
1.4
1.4
1.4
1.4
1.40001
1.4
1.40001
1.4
1.4
1.40001
1.4
1.40001
1.40001
1.4
1.40001
1.39999
1.40001
1.4
1.39999
1.40002
1.40001
1.39997
1.39998
1.40012
1.39987
1.4
1.40006
1.39998
1.40004
1.39993
1.40019
1.40018
1.40042
1.40082
1.40129
1.40216
1.40315
1.40471
1.4066
1.40919
1.41224
1.41611
1.42046
1.42565
1.43125
1.43703
1.44267
1.44786
1.45225
1.45562
1.45802
1.45956
1.46041
1.46079
1.46081
1.46063
1.46032
1.46001
1.45984
1.45975
1.45971
1.45981
1.45999
1.46019
1.46043
1.46077
1.4607
1.46073
1.46079
1.4605
1.46068
1.46026
1.45974
1.45963
1.45938
1.45961
1.45927
1.45777
1.45472
1.44966
1.44389
1.43737
1.43053
1.42447
1.41889
1.41403
1.41006
1.40681
1.40432
1.40249
1.40124
1.40049
1.40007
1.39988
1.39983
1.39984
1.39988
1.39992
1.39996
1.39998
1.39999
1.4
1.40001
1.4
1.40001
1.40001
1.4
1.40001
1.4
1.40001
1.40001
1.4
1.40001
1.4
1.40001
1.4
1.40001
1.39998
1.40003
1.4
1.39998
1.40002
1.40007
1.39992
1.39998
1.40004
1.40001
1.39993
1.40002
1.39998
1.4001
1.40023
1.40036
1.40094
1.40116
1.40237
1.40324
1.40512
1.40718
1.40993
1.41345
1.41766
1.42255
1.42824
1.43452
1.44088
1.44695
1.45233
1.45662
1.45955
1.46129
1.46209
1.46221
1.46193
1.46137
1.46073
1.46008
1.45961
1.45943
1.45951
1.4598
1.46031
1.46099
1.46171
1.46255
1.46329
1.46399
1.46472
1.46501
1.46534
1.46547
1.46559
1.46605
1.46615
1.46664
1.46777
1.46923
1.47021
1.46912
1.46584
1.46006
1.45211
1.44374
1.43527
1.42723
1.42036
1.41456
1.40988
1.40631
1.4037
1.40195
1.40085
1.40022
1.39992
1.39983
1.39982
1.39986
1.39991
1.39994
1.39997
1.39999
1.4
1.4
1.40001
1.4
1.40001
1.4
1.4
1.40001
1.4
1.40001
1.4
1.4
1.40001
1.4
1.40001
1.4
1.40001
1.40002
1.39997
1.40002
1.40005
1.39995
1.39999
1.40009
1.39993
1.39999
1.39998
1.39994
1.40008
1.40001
1.40025
1.40037
1.40072
1.40135
1.40216
1.4035
1.4052
1.40756
1.41046
1.41431
1.41887
1.42419
1.43029
1.43718
1.44405
1.45041
1.45581
1.45974
1.46196
1.46274
1.4625
1.46162
1.46039
1.45897
1.45757
1.45627
1.45535
1.45495
1.45495
1.45524
1.45578
1.45667
1.4578
1.45902
1.46024
1.46129
1.46186
1.46218
1.46236
1.46247
1.46291
1.46315
1.46338
1.46419
1.46602
1.46925
1.47306
1.47618
1.47672
1.47341
1.46707
1.45826
1.44793
1.43779
1.42849
1.42044
1.41397
1.409
1.40539
1.40292
1.40135
1.40045
1.40001
1.39984
1.39981
1.39984
1.3999
1.39994
1.39996
1.39999
1.39999
1.4
1.40001
1.4
1.4
1.40001
1.4
1.40001
1.40001
1.4
1.40001
1.4
1.40001
1.4
1.40001
1.4
1.40003
1.39997
1.40003
1.40004
1.39993
1.40002
1.40006
1.39994
1.40004
1.39997
1.39999
1.39998
1.40006
1.40002
1.4001
1.40034
1.40058
1.4014
1.40197
1.40356
1.40512
1.40775
1.4108
1.41475
1.41973
1.42533
1.43179
1.43912
1.44649
1.45303
1.45826
1.46168
1.463
1.46258
1.46107
1.45895
1.45655
1.45399
1.45157
1.44933
1.44775
1.44681
1.44632
1.4462
1.44661
1.44748
1.4486
1.4496
1.45023
1.45039
1.45016
1.44958
1.44855
1.44742
1.44643
1.44587
1.446
1.44684
1.44914
1.45372
1.46075
1.46876
1.47517
1.47821
1.47646
1.4698
1.46011
1.44895
1.43765
1.42751
1.41904
1.41239
1.40751
1.40415
1.40202
1.40078
1.40014
1.39988
1.39981
1.39983
1.39988
1.39993
1.39996
1.39998
1.4
1.4
1.4
1.40001
1.4
1.40001
1.40001
1.4
1.40001
1.4
1.40001
1.40001
1.4
1.40001
1.4
1.40001
1.4
1.4
1.40004
1.39995
1.40001
1.40008
1.39989
1.40004
1.40002
1.39992
1.40004
1.40001
1.39992
1.40003
1.40002
1.40032
1.40061
1.40111
1.40205
1.40321
1.40511
1.40762
1.41085
1.41487
1.42012
1.42603
1.43267
1.44033
1.44817
1.45488
1.45983
1.46263
1.46297
1.46123
1.45827
1.45473
1.45098
1.4471
1.44348
1.44008
1.43761
1.43594
1.4347
1.43393
1.4337
1.43384
1.43401
1.43385
1.43312
1.43169
1.4295
1.4266
1.42334
1.42033
1.41821
1.41741
1.4176
1.41858
1.42104
1.42634
1.43539
1.44751
1.46061
1.47123
1.47641
1.47551
1.46908
1.45871
1.44676
1.43502
1.42464
1.41626
1.41
1.40564
1.40284
1.40119
1.40032
1.39994
1.39982
1.39983
1.39987
1.39992
1.39996
1.39998
1.39999
1.4
1.4
1.4
1.40001
1.4
1.40001
1.4
1.4
1.40001
1.4
1.40001
1.4
1.40001
1.4
1.40001
1.39998
1.40005
1.39996
1.4
1.40009
1.3999
1.40004
1.40006
1.39987
1.40006
1.39998
1.39993
1.39991
1.40003
1.40007
1.40023
1.40054
1.40091
1.40189
1.40293
1.40486
1.4073
1.41063
1.41468
1.42002
1.42629
1.43302
1.44085
1.44912
1.45606
1.4607
1.46284
1.46223
1.45913
1.45459
1.44952
1.44429
1.43906
1.43409
1.42939
1.42615
1.42367
1.42114
1.41903
1.41772
1.41705
1.41628
1.41463
1.41159
1.4073
1.40234
1.39745
1.39312
1.38948
1.38686
1.38562
1.38577
1.38716
1.39004
1.39559
1.40541
1.4201
1.43791
1.45522
1.46844
1.47478
1.4734
1.46589
1.45466
1.44213
1.43032
1.42039
1.41273
1.40731
1.40377
1.40166
1.40053
1.40002
1.39984
1.39982
1.39987
1.39991
1.39995
1.39998
1.39999
1.4
1.40001
1.4
1.40001
1.40001
1.4
1.40001
1.4
1.40001
1.4
1.4
1.40001
1.4
1.40001
1.4
1.40002
1.39999
1.39998
1.40007
1.39994
1.39999
1.40013
1.39986
1.40006
1.40005
1.39987
1.39996
1.40004
1.39998
1.40006
1.40011
1.40036
1.40083
1.40145
1.40277
1.40433
1.40686
1.41017
1.41422
1.41954
1.42608
1.43296
1.44077
1.44937
1.45667
1.46108
1.46257
1.4611
1.4567
1.45049
1.44376
1.43705
1.43051
1.4241
1.41836
1.41457
1.41047
1.40594
1.40303
1.40199
1.40097
1.39823
1.39321
1.38662
1.37972
1.37342
1.36801
1.36335
1.35925
1.35593
1.3541
1.35432
1.35644
1.36021
1.36632
1.37655
1.39224
1.41283
1.43548
1.45557
1.46889
1.47363
1.47023
1.46082
1.44845
1.43575
1.42446
1.4155
1.40904
1.40475
1.40216
1.40077
1.40011
1.39987
1.39983
1.39986
1.39991
1.39995
1.39998
1.39999
1.4
1.4
1.40001
1.4
1.40001
1.4
1.4
1.40001
1.4
1.40001
1.4
1.40001
1.4
1.4
1.4
1.40002
1.39997
1.40007
1.39996
1.39996
1.40012
1.39988
1.40001
1.40012
1.39987
1.40001
1.40004
1.39999
1.39989
1.40001
1.40006
1.40024
1.40066
1.40121
1.40234
1.40389
1.40622
1.40951
1.41355
1.41871
1.4254
1.43254
1.44022
1.44898
1.45677
1.46117
1.46205
1.45981
1.45427
1.44636
1.43785
1.42966
1.42187
1.41424
1.40789
1.40293
1.39651
1.39143
1.38992
1.38906
1.38504
1.37742
1.36838
1.35985
1.35255
1.34636
1.34079
1.33568
1.33142
1.32849
1.32732
1.3281
1.33061
1.33456
1.34058
1.35049
1.36631
1.38854
1.41469
1.44009
1.45992
1.47081
1.47194
1.46517
1.45365
1.4405
1.4282
1.41815
1.41071
1.40572
1.40268
1.40102
1.40022
1.3999
1.39983
1.39986
1.39991
1.39995
1.39997
1.39999
1.4
1.4
1.40001
1.40001
1.4
1.40001
1.4
1.40001
1.4
1.4
1.40001
1.4
1.40001
1.4
1.40001
1.39999
1.40003
1.4
1.39995
1.4001
1.39994
1.39995
1.40014
1.39987
1.39997
1.4001
1.39994
1.39988
1.39997
1.39997
1.40006
1.4002
1.40043
1.40108
1.40182
1.40343
1.40546
1.40865
1.41267
1.41763
1.4243
1.43175
1.43936
1.44804
1.45636
1.46107
1.4615
1.45852
1.45206
1.44252
1.43209
1.42238
1.41357
1.40508
1.39803
1.39122
1.38399
1.38067
1.37966
1.3751
1.36526
1.35362
1.34377
1.3363
1.33016
1.32482
1.32037
1.31678
1.31394
1.31201
1.31125
1.31178
1.31343
1.31614
1.32067
1.32906
1.34386
1.36616
1.39428
1.42385
1.44919
1.46562
1.4714
1.46767
1.45745
1.44438
1.43147
1.42051
1.41224
1.40663
1.40318
1.40125
1.40032
1.39994
1.39985
1.39986
1.39991
1.39995
1.39997
1.39999
1.4
1.4
1.4
1.40001
1.4
1.40001
1.40001
1.4
1.40001
1.4
1.40001
1.4
1.4
1.40001
1.4
1.40001
1.40002
1.39995
1.40008
1.39998
1.39993
1.40015
1.39992
1.39994
1.40011
1.39993
1.39989
1.39998
1.40005
1.39993
1.4
1.40011
1.40029
1.40076
1.40152
1.40274
1.40474
1.40762
1.41159
1.4164
1.42284
1.43056
1.4383
1.44673
1.45542
1.46081
1.46107
1.45736
1.45016
1.43924
1.42674
1.41541
1.40584
1.3967
1.38873
1.38078
1.37472
1.37215
1.36777
1.35763
1.34435
1.33277
1.32463
1.31878
1.31391
1.31028
1.30847
1.30776
1.30657
1.30443
1.30231
1.30136
1.30187
1.30351
1.30661
1.31309
1.32589
1.34706
1.37585
1.40807
1.43755
1.45884
1.46904
1.46842
1.45988
1.44729
1.43404
1.42244
1.41354
1.40742
1.4036
1.40147
1.40042
1.39999
1.39986
1.39987
1.39991
1.39995
1.39998
1.39999
1.4
1.4
1.4
1.4
1.40001
1.4
1.40001
1.4
1.4
1.40001
1.4
1.40001
1.4
1.4
1.40001
1.40001
1.39997
1.40004
1.4
1.39993
1.40012
1.39996
1.39992
1.40014
1.39999
1.3999
1.40003
1.40002
1.39992
1.39995
1.39995
1.40002
1.40022
1.40042
1.40123
1.40216
1.40395
1.40654
1.41035
1.41507
1.42114
1.42896
1.43704
1.44525
1.454
1.46027
1.46086
1.45646
1.44858
1.43669
1.42211
1.40893
1.39868
1.38912
1.3805
1.37251
1.36721
1.3625
1.35381
1.34123
1.32784
1.3161
1.30661
1.29921
1.29387
1.29052
1.28876
1.28771
1.28624
1.28407
1.28246
1.28298
1.28588
1.29004
1.29467
1.30108
1.31257
1.33226
1.36051
1.39385
1.42623
1.45141
1.4654
1.46776
1.46102
1.44911
1.43582
1.42386
1.41453
1.40802
1.40394
1.40165
1.40051
1.40003
1.39988
1.39988
1.39991
1.39995
1.39998
1.39999
1.4
1.4
1.40001
1.4
1.40001
1.40001
1.4
1.40001
1.4
1.40001
1.4
1.4
1.40001
1.40001
1.40001
1.39999
1.40002
1.40002
1.39995
1.40009
1.39998
1.3999
1.40011
1.4
1.39992
1.40004
1.40005
1.39993
1.3999
1.4
1.39995
1.39996
1.40013
1.40032
1.40077
1.40174
1.40313
1.40548
1.40896
1.4136
1.41937
1.42697
1.43546
1.44373
1.45227
1.45931
1.4608
1.45599
1.44731
1.43487
1.41854
1.40312
1.39202
1.38247
1.37356
1.36577
1.35942
1.35198
1.34181
1.32857
1.31229
1.2938
1.27575
1.26095
1.24976
1.24022
1.2311
1.2236
1.21991
1.22133
1.228
1.23929
1.25349
1.26779
1.27995
1.29044
1.30285
1.32162
1.34881
1.38229
1.41632
1.44419
1.46117
1.46607
1.46098
1.44987
1.4368
1.42471
1.41512
1.40839
1.40416
1.40178
1.40058
1.40007
1.39991
1.39989
1.39992
1.39996
1.39998
1.39999
1.4
1.4
1.4
1.40001
1.4
1.40001
1.4
1.40001
1.40001
1.4
1.40001
1.4
1.40001
1.40001
1.4
1.40001
1.40001
1.39997
1.40005
1.4
1.39993
1.4001
1.40001
1.39991
1.40002
1.40003
1.39995
1.39998
1.4
1.39993
1.39996
1.39996
1.4
1.40026
1.40046
1.40124
1.40242
1.40445
1.40753
1.41198
1.41758
1.42477
1.43347
1.44215
1.45046
1.45788
1.46066
1.45606
1.44642
1.43363
1.41626
1.39837
1.38585
1.37658
1.36778
1.35973
1.3513
1.34263
1.33237
1.31456
1.28805
1.25511
1.22042
1.18886
1.16167
1.13686
1.11425
1.09819
1.09453
1.10599
1.13064
1.16371
1.19961
1.23282
1.25934
1.27877
1.29512
1.31443
1.34086
1.37387
1.40849
1.43797
1.457
1.46378
1.46005
1.44972
1.43698
1.42494
1.41532
1.40854
1.40426
1.40184
1.40063
1.4001
1.39993
1.39991
1.39993
1.39996
1.39998
1.39999
1.4
1.4
1.4
1.40001
1.40001
1.4
1.40001
1.4
1.40001
1.4
1.4
1.40001
1.4
1.40001
1.40001
1.4
1.4
1.40002
1.4
1.39996
1.40007
1.40001
1.39993
1.40004
1.40004
1.39997
1.39996
1.40001
1.39999
1.39992
1.39995
1.39999
1.39993
1.40006
1.40036
1.4008
1.4018
1.40347
1.40617
1.41022
1.41572
1.42254
1.43108
1.44032
1.44878
1.45617
1.46015
1.45659
1.44618
1.43276
1.4152
1.39522
1.38027
1.37105
1.36303
1.35421
1.34365
1.3339
1.32131
1.29404
1.25117
1.1973
1.13751
1.07934
1.02872
0.986484
0.952911
0.932947
0.934109
0.960083
1.00748
1.06775
1.13096
1.18827
1.23354
1.26547
1.28839
1.3099
1.33622
1.36864
1.4032
1.43334
1.45344
1.46131
1.45849
1.44878
1.4364
1.42459
1.41512
1.40844