/*--------------------------------*- C++ -*----------------------------------*\
  =========                 |
  \\      /  F ield         | OpenFOAM: The Open Source CFD Toolbox
   \\    /   O peration     | Website:  https://openfoam.org
    \\  /    A nd           | Version:  6
     \\/     M anipulation  |
\*---------------------------------------------------------------------------*/
FoamFile
{
    version     2.0;
    format      ascii;
    class       surfaceScalarField;
    location    "2.61";
    object      phi;
}
// * * * * * * * * * * * * * * * * * * * * * * * * * * * * * * * * * * * * * //

dimensions      [0 3 -1 0 0 0 0];

internalField   nonuniform List<scalar> 
8193
(
0.0958605
-0.186355
-0.0915743
0.0976739
-0.187201
0.0985236
-0.186517
0.0987136
-0.185427
0.0984172
-0.184556
0.0976391
-0.183934
0.0962809
-0.183391
0.0942526
-0.18279
0.0915152
-0.182038
0.0880674
-0.181094
0.0839167
-0.179998
0.0791581
-0.178793
0.0739341
-0.177716
0.0684638
-0.177132
0.0627441
-0.177463
0.0566282
-0.178645
0.0490196
-0.179757
0.0394608
-0.179195
0.0272852
-0.174586
0.0136662
-0.162886
0.00132162
-0.148496
-0.0090832
-0.148215
-0.0195529
-0.159105
-0.0298156
-0.165948
-0.0393358
-0.167876
-0.0481852
-0.16909
-0.0566091
-0.171183
-0.0646188
-0.173936
-0.0720974
-0.176831
-0.078917
-0.179559
-0.0849854
-0.181982
-0.090208
-0.18407
-0.0945187
-0.185811
-0.0978697
-0.187223
-0.100253
-0.188314
-0.1017
-0.189104
-0.102254
-0.189649
-0.101893
-0.19002
-0.100522
-0.190153
-0.0977171
-0.189692
-0.187304
-0.0920827
0.0983974
-0.186992
-0.101788
0.0934053
-0.184705
0.0884576
-0.182583
0.0837752
-0.180354
0.0794679
-0.17856
0.0755276
-0.177134
0.0719013
-0.175878
0.0685485
-0.17468
0.0654461
-0.173472
0.0625793
-0.172223
0.05991
-0.17095
0.0574659
-0.169757
0.0552586
-0.168858
0.0531783
-0.168491
0.0507893
-0.168738
0.0473504
-0.169221
0.0416441
-0.168528
0.0332003
-0.16579
0.0219688
-0.159043
0.009985
-0.147314
0.000297059
-0.136005
-0.00728624
-0.138662
-0.0157904
-0.149501
-0.0248317
-0.156701
-0.0337034
-0.159705
-0.0422764
-0.162124
-0.0507107
-0.165251
-0.0589774
-0.169042
-0.0669059
-0.17311
-0.0743148
-0.177144
-0.0810275
-0.180989
-0.0869094
-0.184559
-0.0918767
-0.187782
-0.0958874
-0.190618
-0.0989645
-0.193001
-0.101197
-0.194871
-0.102746
-0.196203
-0.103842
-0.196987
-0.104766
-0.197101
-0.105695
-0.196286
-0.194653
-0.105355
0.0904045
-0.183087
-0.101144
0.0800126
-0.179347
0.0704358
-0.176264
0.0619555
-0.173422
0.0546497
-0.17119
0.0485356
-0.169468
0.0436264
-0.168076
0.0399129
-0.166897
0.0373654
-0.16585
0.0359082
-0.164867
0.0354324
-0.163932
0.0357667
-0.163084
0.0366198
-0.162414
0.037487
-0.161935
0.037656
-0.161516
0.0361396
-0.160491
0.032081
-0.157567
0.0250179
-0.152258
0.0157098
-0.143809
0.00651738
-0.132837
-0.000185448
-0.124745
-0.00554809
-0.129544
-0.0123131
-0.139847
-0.0201296
-0.146916
-0.0281489
-0.150681
-0.0362448
-0.15402
-0.0444851
-0.158022
-0.052812
-0.162758
-0.0610262
-0.167973
-0.0688855
-0.173386
-0.0761733
-0.178806
-0.0827122
-0.184095
-0.0883796
-0.189112
-0.0931257
-0.193731
-0.0969672
-0.197804
-0.0999966
-0.20118
-0.102382
-0.203741
-0.10439
-0.205359
-0.10644
-0.205747
-0.108884
-0.204693
-0.202543
-0.111821
0.0758582
-0.176224
-0.0920281
0.0610512
-0.171766
0.0477293
-0.168107
0.0363331
-0.165189
0.0269915
-0.163108
0.0197251
-0.161688
0.0145358
-0.160752
0.0114029
-0.160181
0.0102371
-0.159838
0.010879
-0.159591
0.0130324
-0.159293
0.0162195
-0.158798
0.0197766
-0.158007
0.0229248
-0.156811
0.0247903
-0.154974
0.024606
-0.151926
0.0216164
-0.146376
0.0159325
-0.138691
0.00877441
-0.129215
0.00250492
-0.119696
-0.00110509
-0.114933
-0.00419317
-0.12102
-0.00913624
-0.130321
-0.0155391
-0.13686
-0.0225252
-0.141041
-0.0299199
-0.145032
-0.0377402
-0.149721
-0.0459133
-0.155262
-0.0542345
-0.161521
-0.0624357
-0.168273
-0.0702624
-0.175301
-0.0775017
-0.182415
-0.0839924
-0.189409
-0.0896488
-0.196066
-0.0944633
-0.202144
-0.0985149
-0.207386
-0.101969
-0.21157
-0.105079
-0.214457
-0.108171
-0.215663
-0.111636
-0.21489
-0.212341
-0.115979
0.0541104
-0.167023
-0.0746987
0.0358493
-0.162544
0.0200383
-0.159005
0.00704456
-0.156639
-0.00308643
-0.155258
-0.0103608
-0.154668
-0.014787
-0.154718
-0.0164419
-0.155238
-0.0154977
-0.156011
-0.0123134
-0.156727
-0.00748107
-0.157007
-0.00179938
-0.1565
0.00381196
-0.154979
0.00846307
-0.15236
0.0114686
-0.148601
0.0119731
-0.142951
0.00976145
-0.13475
0.00570941
-0.125443
0.0011649
-0.115834
-0.00179048
-0.108395
-0.00235053
-0.106641
-0.00328555
-0.113079
-0.00644009
-0.12099
-0.011257
-0.126794
-0.0169824
-0.131083
-0.0234331
-0.135449
-0.0305788
-0.140621
-0.0383405
-0.146795
-0.0465241
-0.153945
-0.0548607
-0.161913
-0.0630762
-0.170479
-0.0709315
-0.179408
-0.0782358
-0.188432
-0.0848688
-0.197251
-0.090791
-0.205525
-0.0960389
-0.212902
-0.100741
-0.219047
-0.105107
-0.223615
-0.109394
-0.22615
-0.113965
-0.226216
-0.223874
-0.119301
0.0261044
-0.156513
-0.0496551
0.0058969
-0.152784
-0.0108847
-0.150103
-0.0241191
-0.148788
-0.0338347
-0.148543
-0.0400635
-0.149204
-0.0428749
-0.150608
-0.0424407
-0.152503
-0.039133
-0.154488
-0.0335641
-0.156019
-0.0265408
-0.156526
-0.019045
-0.155482
-0.0120287
-0.152686
-0.0063247
-0.148165
-0.00286503
-0.141768
-0.00206899
-0.133247
-0.00323403
-0.123052
-0.00519083
-0.113083
-0.00666187
-0.104242
-0.00619295
-0.0991682
-0.00398531
-0.0997098
-0.00293785
-0.105669
-0.00426064
-0.11201
-0.0073341
-0.116974
-0.0115868
-0.121101
-0.016848
-0.125576
-0.0230607
-0.131012
-0.0301401
-0.137628
-0.03791
-0.145483
-0.0461217
-0.154489
-0.0545055
-0.164437
-0.0628118
-0.175065
-0.0708315
-0.186054
-0.0784151
-0.19703
-0.0854897
-0.207562
-0.0920502
-0.217213
-0.098173
-0.225542
-0.104004
-0.232112
-0.109726
-0.236401
-0.115616
-0.237851
-0.236367
-0.122071
-0.00637206
-0.146202
-0.018181
-0.0267538
-0.143842
-0.0430486
-0.142482
-0.0553019
-0.142526
-0.0635973
-0.143679
-0.068022
-0.145806
-0.068769
-0.148667
-0.0662091
-0.151852
-0.060936
-0.154748
-0.0536695
-0.156696
-0.0451497
-0.157107
-0.0364547
-0.155115
-0.0285615
-0.150615
-0.022372
-0.143699
-0.0186126
-0.134385
-0.0171689
-0.123254
-0.0167746
-0.111895
-0.0161604
-0.102201
-0.0143306
-0.0947891
-0.0106406
-0.0919378
-0.0060593
-0.0938731
-0.00321256
-0.0987335
-0.00266282
-0.103539
-0.00385422
-0.107645
-0.00643342
-0.111386
-0.0102783
-0.115713
-0.0153085
-0.121192
-0.0214258
-0.12806
-0.0284793
-0.136425
-0.0362578
-0.146255
-0.0445179
-0.15737
-0.0530197
-0.169496
-0.0615505
-0.182279
-0.0699452
-0.195288
-0.0781
-0.208014
-0.0859742
-0.219939
-0.0935928
-0.230539
-0.10104
-0.239292
-0.108426
-0.245621
-0.115914
-0.248887
-0.248838
-0.123788
-0.0405173
-0.137531
0.0168618
-0.0595718
-0.136806
-0.0742369
-0.136918
-0.0846307
-0.13841
-0.0909117
-0.140986
-0.0932984
-0.144482
-0.0921504
-0.148543
-0.0879833
-0.152623
-0.0814591
-0.155976
-0.0731204
-0.158068
-0.0635127
-0.158311
-0.0540154
-0.155001
-0.0456141
-0.148423
-0.039186
-0.138768
-0.0350054
-0.126647
-0.0324186
-0.113557
-0.0299781
-0.101871
-0.0265739
-0.0931319
-0.0216029
-0.0874403
-0.0151579
-0.0863683
-0.00864808
-0.088818
-0.00412898
-0.0922745
-0.00167071
-0.0957379
-0.000876901
-0.0990274
-0.00163784
-0.102187
-0.0038664
-0.106143
-0.00747227
-0.111466
-0.0123518
-0.118402
-0.0183799
-0.127083
-0.025391
-0.137514
-0.0331855
-0.149546
-0.0415528
-0.162913
-0.0502926
-0.177243
-0.059241
-0.192058
-0.0682789
-0.206793
-0.0773359
-0.220867
-0.0863941
-0.233682
-0.0954834
-0.244646
-0.104652
-0.253138
-0.113959
-0.258479
-0.260281
-0.123565
-0.0734906
-0.13141
0.0520944
-0.0902641
-0.132231
-0.102603
-0.133761
-0.110718
-0.136563
-0.114894
-0.140305
-0.115506
-0.144763
-0.11301
-0.149528
-0.107867
-0.154066
-0.100465
-0.157715
-0.0911272
-0.160013
-0.0808708
-0.15968
-0.0709979
-0.154725
-0.0624393
-0.145796
-0.0558351
-0.133367
-0.0509682
-0.118897
-0.0467907
-0.104701
-0.0420284
-0.0933653
-0.0359968
-0.0858347
-0.0284174
-0.0817916
-0.0198517
-0.0819592
-0.0117971
-0.084296
-0.00566771
-0.0863643
-0.0012642
-0.0887733
0.00152077
-0.0912473
0.00266977
-0.0937034
0.00222229
-0.0971258
0.000259847
-0.102126
-0.0031208
-0.108968
-0.0078216
-0.117783
-0.0137251
-0.128597
-0.0206834
-0.141291
-0.0285279
-0.155615
-0.0370938
-0.171191
-0.0462339
-0.187513
-0.0558301
-0.20398
-0.0657956
-0.219961
-0.076084
-0.234804
-0.0866799
-0.247864
-0.0975861
-0.258476
-0.108775
-0.265963
-0.269828
-0.120299
-0.103128
-0.128139
0.0847184
-0.117088
-0.130277
-0.126784
-0.133008
-0.132564
-0.13677
-0.13483
-0.141218
-0.134021
-0.14612
-0.130506
-0.151157
-0.124544
-0.155925
-0.116339
-0.159827
-0.10657
-0.161933
-0.0963971
-0.160482
-0.0865479
-0.153912
-0.0780376
-0.142577
-0.071169
-0.127655
-0.0653142
-0.111523
-0.059368
-0.0969631
-0.052435
-0.0863407
-0.0442109
-0.0799973
-0.0347743
-0.0772221
-0.0247075
-0.0782259
-0.0154241
-0.0801285
-0.00773018
-0.0810941
-0.00144316
-0.0827167
0.00330181
-0.0844008
0.00639078
-0.0860842
0.00783763
-0.0888793
0.00769884
-0.0934423
0.00604508
-0.100052
0.00294637
-0.108843
-0.00152212
-0.119847
-0.00726883
-0.132961
-0.014184
-0.147952
-0.0221463
-0.164452
-0.0310375
-0.181945
-0.0407582
-0.199801
-0.0512241
-0.217366
-0.0623788
-0.233939
-0.0741709
-0.248854
-0.0865722
-0.261399
-0.0994877
-0.270937
-0.276867
-0.112896
-0.127834
-0.127719
0.112806
-0.138723
-0.130865
-0.14571
-0.134439
-0.149245
-0.138708
-0.149771
-0.143367
-0.147691
-0.148253
-0.143285
-0.153191
-0.136752
-0.157878
-0.128394
-0.161621
-0.118966
-0.163041
-0.109177
-0.160429
-0.0996942
-0.152255
-0.0913366
-0.138718
-0.0840486
-0.12186
-0.077081
-0.10474
-0.0695466
-0.0902684
-0.0609253
-0.08043
-0.0511321
-0.0751208
-0.040441
-0.0732606
-0.0295472
-0.0746303
-0.0193305
-0.0761583
-0.0101867
-0.0764875
-0.00216872
-0.0775515
0.00440882
-0.0784916
0.00940906
-0.0794234
0.0128136
-0.0815793
0.014637
-0.0856509
0.0149037
-0.0919296
0.0136458
-0.100562
0.0108965
-0.111581
0.00669794
-0.124896
0.00110827
-0.140291
-0.00580092
-0.157406
-0.0139595
-0.175724
-0.0232982
-0.194603
-0.0337537
-0.213373
-0.0452775
-0.231305
-0.0577915
-0.247744
-0.0712506
-0.261923
-0.0854963
-0.273295
-0.281128
-0.100471
-0.146319
-0.129932
0.134799
-0.154113
-0.133728
-0.158463
-0.137741
-0.159836
-0.142097
-0.158667
-0.146551
-0.155359
-0.151004
-0.150236
-0.155376
-0.143575
-0.159431
-0.135693
-0.162445
-0.127041
-0.162908
-0.118134
-0.159048
-0.109431
-0.149389
-0.101356
-0.134155
-0.0936597
-0.116052
-0.0857392
-0.0984843
-0.0770321
-0.0843079
-0.0673029
-0.0751696
-0.0566136
-0.0706571
-0.0453397
-0.0693664
-0.0340688
-0.0708581
-0.0231177
-0.0723247
-0.0128341
-0.0723731
-0.00342591
-0.0730742
0.004757
-0.073426
0.0115823
-0.0737626
0.0169546
-0.0753552
0.0208179
-0.0789378
0.023141
-0.0848307
0.0239087
-0.0931994
0.0231158
-0.104092
0.0207645
-0.117426
0.0168667
-0.132998
0.0114369
-0.150448
0.00449472
-0.169261
-0.00393257
-0.188797
-0.0138108
-0.208383
-0.025115
-0.227267
-0.0377446
-0.244854
-0.0516567
-0.260299
-0.0666359
-0.273202
-0.282686
-0.0825878
-0.157758
-0.134335
0.149591
-0.162624
-0.138458
-0.164476
-0.142583
-0.163746
-0.146724
-0.160887
-0.150649
-0.156386
-0.154252
-0.150699
-0.157505
-0.144217
-0.160252
-0.137249
-0.16186
-0.129936
-0.160992
-0.122531
-0.155761
-0.11497
-0.145008
-0.107347
-0.128791
-0.0995546
-0.110007
-0.0911296
-0.0924053
-0.0817511
-0.0786887
-0.0716285
-0.0699621
-0.0607541
-0.0660193
-0.0494665
-0.0651003
-0.0381321
-0.0667298
-0.0267849
-0.0684261
-0.0156974
-0.0685531
-0.00507757
-0.0692438
0.00439253
-0.0690213
0.0127908
-0.0689807
0.0200296
-0.0702303
0.0259359
-0.0734223
0.03039
-0.0789343
0.0333077
-0.0869721
0.0346487
-0.0976307
0.0343833
-0.110843
0.0324824
-0.126406
0.0288998
-0.143945
0.023621
-0.16297
0.0166087
-0.182816
0.00788014
-0.202854
-0.00257944
-0.222288
-0.0146377
-0.240653
-0.0282945
-0.256954
-0.0432472
-0.271069
-0.281847
-0.059443
-0.161986
-0.140348
0.156816
-0.164238
-0.144562
-0.163809
-0.148602
-0.161094
-0.152361
-0.156608
-0.155521
-0.151
-0.157864
-0.1449
-0.159403
-0.138803
-0.160133
-0.133054
-0.159579
-0.127403
-0.157005
-0.121773
-0.150347
-0.115718
-0.138817
-0.108931
-0.122321
-0.101375
-0.103483
-0.0931886
-0.08586
-0.0838794
-0.0727793
-0.0740125
-0.0642748
-0.0633772
-0.0609059
-0.0523147
-0.0603513
-0.0411739
-0.06212
-0.029765
-0.0642625
-0.0185259
-0.0645112
-0.00714544
-0.0657456
0.00329317
-0.065094
0.0131051
-0.0650514
0.0220442
-0.0661673
0.0298251
-0.0690584
0.0362918
-0.0742365
0.0413514
-0.0819749
0.0449165
-0.0923785
0.0469001
-0.105384
0.0472217
-0.120797
0.0457895
-0.138231
0.0425408
-0.157224
0.0373769
-0.177068
0.0303273
-0.197253
0.0213106
-0.216862
0.0105169
-0.235685
-0.00215867
-0.252413
-0.0162546
-0.267468
-0.279067
-0.0319151
-0.159515
-0.147199
0.156727
-0.159584
-0.151483
-0.157206
-0.155374
-0.152731
-0.158719
-0.146892
-0.160852
-0.140219
-0.161779
-0.134057
-0.160721
-0.128245
-0.159194
-0.123932
-0.155422
-0.119883
-0.151057
-0.116053
-0.142844
-0.111587
-0.130805
-0.106221
-0.114246
-0.0992298
-0.0962435
-0.0917686
-0.078464
-0.0829986
-0.066218
-0.0737254
-0.0578843
-0.0639431
-0.0548229
-0.0534143
-0.0549352
-0.0429244
-0.0566995
-0.031741
-0.059678
-0.0208614
-0.0598696
-0.00927886
-0.0621556
0.00160806
-0.0612586
0.012501
-0.0617754
0.0228099
-0.0629665
0.0322465
-0.0657548
0.0406013
-0.0707347
0.047685
-0.078205
0.0534204
-0.0883868
0.0576812
-0.101172
0.0603505
-0.116375
0.0612286
-0.133529
0.0602623
-0.152316
0.0572654
-0.171888
0.0523354
-0.192011
0.0452341
-0.211421
0.0363395
-0.230507
0.0252701
-0.247181
0.0128188
-0.263019
-0.274833
-0.0015997
-0.151218
-0.153948
0.149956
-0.14988
-0.158385
-0.146199
-0.162213
-0.140331
-0.165412
-0.133729
-0.166048
-0.125752
-0.166249
-0.120162
-0.160854
-0.113812
-0.158299
-0.111309
-0.149066
-0.108029
-0.144044
-0.106609
-0.132716
-0.10294
-0.121846
-0.099566
-0.104082
-0.093127
-0.088397
-0.0869221
-0.0697872
-0.0794108
-0.0583925
-0.0706946
-0.0509391
-0.06258
-0.047072
-0.0524484
-0.0491089
-0.0435306
-0.0496709
-0.032586
-0.054786
-0.0225378
-0.0542856
-0.0110797
-0.0582781
-0.000257336
-0.0571342
0.0113498
-0.0589183
0.0224187
-0.0601504
0.0331008
-0.0632314
0.0430022
-0.0682152
0.0519744
-0.0756504
0.0598015
-0.0856949
0.0662131
-0.0981892
0.0711688
-0.113181
0.0743242
-0.129897
0.0757742
-0.148456
0.0750397
-0.167432
0.0725505
-0.18749
0.0676489
-0.206266
0.0611676
-0.225623
0.0520804
-0.241597
0.0419028
-0.25828
-0.26942
0.0291093
-0.138696
0.138105
-0.136546
-0.132379
-0.125377
-0.118811
-0.109649
-0.104395
-0.0979236
-0.0960694
-0.0937222
-0.0939759
-0.091379
-0.090032
-0.0844803
-0.0796781
-0.0739692
-0.0659449
-0.0600863
-0.0498928
-0.0428101
-0.0320956
-0.0231394
-0.0122398
-0.00176598
0.0100249
0.0213712
0.0329469
0.043894
0.0542899
0.0637892
0.072042
0.0790482
0.084249
0.08798
0.0895221
0.0895078
0.0869846
0.0829649
0.0761853
0.0683166
0.0574152
0.285946
0.0477316
0.283215
0.0233005
0.274001
-0.0034965
0.258664
-0.0300637
0.238228
-0.0545842
0.21401
-0.0756752
0.187445
-0.0925056
0.159935
-0.10479
0.132686
-0.112733
0.106637
-0.116924
0.0824433
-0.118172
0.0605446
-0.117379
0.0412659
-0.115347
0.0250551
-0.112752
0.0124801
-0.109493
0.00507149
-0.10514
-0.0909269
0.289793
0.0367898
0.287951
0.0161571
0.279705
-0.00655504
0.265556
-0.0293852
0.246453
-0.0508926
0.223596
-0.0698815
0.198254
-0.0855301
0.171666
-0.0974758
0.144948
-0.105761
0.119006
-0.110742
0.0945149
-0.112984
0.0719351
-0.113177
0.0515896
-0.112002
0.0337627
-0.110125
0.0189375
-0.107689
0.00768133
-0.104402
-0.0910006
0.293417
0.026824
0.291066
0.00933936
0.283232
-0.0099807
0.270104
-0.0294926
0.252331
-0.0481597
0.230887
-0.0650551
0.20687
-0.0794341
0.181373
-0.0908854
0.155396
-0.0993252
0.129786
-0.104932
0.105206
-0.108068
0.0821257
-0.109227
0.0608764
-0.108955
0.0417135
-0.10786
0.0250008
-0.106216
0.010945
-0.103611
-0.0910737
0.28951
0.0163494
0.288242
0.0014934
0.281846
-0.0145839
0.270493
-0.030942
0.254656
-0.0468024
0.235102
-0.0614837
0.212775
-0.0743824
0.188652
-0.0850812
0.163658
-0.0934145
0.138603
-0.0994199
0.114141
-0.103286
0.0907532
-0.105323
0.0687782
-0.105931
0.048437
-0.105606
0.030061
-0.104745
0.0137959
-0.102772
-0.090956
0.285884
0.00738591
0.284075
-0.00555082
0.278228
-0.0192878
0.268145
-0.0330559
0.254014
-0.0464238
0.23636
-0.0590101
0.215887
-0.07036
0.193386
-0.0801108
0.169652
-0.0880723
0.145417
-0.0941984
0.121312
-0.0985555
0.0978346
-0.101307
0.0753426
-0.102708
0.0540796
-0.103135
0.0343111
-0.103012
0.0161813
-0.101652
-0.0905041
0.275121
-0.00150383
0.274038
-0.012887
0.269349
-0.0245467
0.260974
-0.0361271
0.248992
-0.0473266
0.233678
-0.0579327
0.215506
-0.0676596
0.195056
-0.0762283
0.172991
-0.0835054
0.149966
-0.0894148
0.126575
-0.0939464
0.103317
-0.0971508
0.0805745
-0.0991573
0.0586254
-0.100231
0.0377195
-0.100766
0.0180371
-0.100007
-0.0896517
0.265811
-0.00867921
0.263906
-0.0188312
0.2593
-0.0291624
0.251736
-0.0391445
0.241174
-0.0486731
0.227725
-0.0576619
0.211642
-0.0659459
0.193323
-0.0733698
0.173215
-0.0798293
0.1518
-0.0852634
0.129562
-0.0896461
0.106945
-0.0929766
0.0843329
-0.0953076
0.0620446
-0.0968334
0.0403146
-0.0978555
0.0194384
-0.0976771
-0.0882855
0.250229
-0.0157884
0.248855
-0.0246365
0.244907
-0.0336197
0.23838
-0.0422532
0.229303
-0.0504479
0.217741
-0.0581368
0.203826
-0.0652051
0.18778
-0.0715668
0.169877
-0.0771557
0.150421
-0.081923
0.129759
-0.0858712
0.108256
-0.089001
0.086261
-0.09134
0.0640962
-0.0930439
0.0420267
-0.0943486
0.0204064
-0.0946401
-0.0863129
0.237079
-0.0214863
0.23514
-0.0291389
0.230992
-0.0370035
0.224726
-0.0446254
0.216363
-0.0518328
0.205929
-0.0585473
0.193506
-0.0646978
0.179219
-0.0702285
0.163217
-0.0750813
0.145677
-0.0792204
0.126795
-0.0826575
0.106801
-0.0854109
0.0859521
-0.0875273
0.0645053
-0.0891487
0.0427303
-0.0905161
0.0209337
-0.0910441
-0.0836989
0.218329
-0.0270621
0.217146
-0.0336229
0.213809
-0.0402984
0.208362
-0.0467983
0.200925
-0.0530177
0.191617
-0.0588676
0.180543
-0.0642521
0.167818
-0.0691113
0.153542
-0.0733643
0.13783
-0.0769775
0.120801
-0.079953
0.10258
-0.0823084
0.0833235
-0.0841086
0.0631893
-0.0854873
0.0423519
-0.0866934
0.0209928
-0.0871403
-0.0804932
0.202814
-0.0316325
0.201396
-0.0370883
0.19801
-0.0426424
0.192793
-0.048186
0.185831
-0.0535594
0.177209
-0.0586616
0.167036
-0.0634149
0.155408
-0.0677356
0.142432
-0.0715457
0.128196
-0.0747839
0.112781
-0.0774359
0.0962806
-0.0795206
0.0787803
-0.0810887
0.0603323
-0.0822297
0.0409361
-0.0831322
0.0205727
-0.0831827
-0.0768158
0.182812
-0.0360076
0.18208
-0.0404707
0.179614
-0.0450245
0.175378
-0.0495661
0.169427
-0.0540203
0.16186
-0.0583247
0.152789
-0.0624065
0.14233
-0.0661829
0.130604
-0.0695711
0.117719
-0.0724907
0.103774
-0.0749109
0.0888591
-0.0768334
0.0730535
-0.0782913
0.0563728
-0.0793023
0.0386691
-0.0798844
0.0197028
-0.0793247
-0.072817
0.165833
-0.039735
0.165216
-0.0432294
0.163018
-0.0468325
0.159262
-0.0504788
0.15399
-0.0541132
0.147264
-0.0576845
0.139158
-0.0611302
0.129756
-0.0643716
0.11915
-0.067329
0.107457
-0.0699405
0.0947966
-0.0721732
0.0812801
-0.0740141
0.0669736
-0.0754448
0.0518829
-0.0764165
0.0358242
-0.0767514
0.0184383
-0.0755549
-0.0686484
0.145868
-0.0432054
0.14584
-0.0458814
0.144463
-0.0486662
0.141691
-0.0514828
0.13752
-0.0543155
0.131978
-0.0571404
0.125103
-0.059904
0.116956
-0.0625455
0.107627
-0.065012
0.097229
-0.0672586
0.0858728
-0.0692475
0.0736726
-0.0709634
0.060711
-0.0723518
0.0470307
-0.073319
0.0324944
-0.0735022
0.0167406
-0.0717771
-0.0645525
0.12802
-0.0459927
0.128112
-0.0480077
0.127054
-0.0500803
0.124838
-0.0522089
0.121455
-0.0543748
0.116878
-0.0565344
0.111097
-0.0586507
0.104141
-0.060696
0.096072
-0.0626498
0.0869759
-0.0644886
0.0769475
-0.0661792
0.0660608
-0.0676825
0.054394
-0.0689443
0.0420166
-0.0698587
0.0288993
-0.0699597
0.0148393
-0.067946
-0.060588
0.108777
-0.0483673
0.109138
-0.0498067
0.108585
-0.0513153
0.107056
-0.0528472
0.104498
-0.0543907
0.100885
-0.0559285
0.0962079
-0.057441
0.090481
-0.0589192
0.083734
-0.0603578
0.0760122
-0.0617468
0.0673793
-0.0630687
0.0579005
-0.0642839
0.0476506
-0.0653449
0.0366984
-0.066137
0.0250864
-0.0661651
0.0128316
-0.0640992
-0.0567554
0.0909858
-0.0500216
0.0913161
-0.0510254
0.0908902
-0.0520444
0.0896764
-0.0530799
0.0876363
-0.054113
0.0847377
-0.0551319
0.0809689
-0.056137
0.0763276
-0.0571271
0.0708129
-0.0580976
0.0644309
-0.059044
0.0572041
-0.0599636
0.049188
-0.0608482
0.0404492
-0.0616597
0.0310749
-0.0623018
0.0211266
-0.0622518
0.0107367
-0.0602483
-0.0530677
0.0728727
-0.0511491
0.0732167
-0.051746
0.0729641
-0.0523555
0.0720633
-0.0529501
0.0704893
-0.0535373
0.068233
-0.0541209
0.0652835
-0.0546991
0.0616298
-0.0552701
0.0572646
-0.055832
0.0521855
-0.0563846
0.0463978
-0.056932
0.0399215
-0.0574795
0.032805
-0.0580166
0.0251222
-0.0584707
0.0170002
-0.0583714
0.00853387
-0.0564233
-0.0495832
0.0557829
-0.0515022
0.0559476
-0.0518016
0.0556464
-0.052056
0.0548688
-0.0523001
0.0536061
-0.0525432
0.0518447
-0.052784
0.0495713
-0.053021
0.0467751
-0.0532543
0.0434484
-0.053485
0.0395877
-0.0537168
0.0351945
-0.053958
0.0302755
-0.0542189
0.0248463
-0.0544968
0.0189181
-0.0547144
0.0126697
-0.054568
0.00622147
-0.0527029
-0.0463811
0.0388479
-0.0512593
0.0388374
-0.0512078
0.0384959
-0.0511684
0.0378274
-0.0511324
0.0368265
-0.0510997
0.0354897
-0.051071
0.0338136
-0.0510448
0.0317951
-0.0510216
0.0294326
-0.051004
0.0267274
-0.0509981
0.0236823
-0.051014
0.0202985
-0.0510599
0.0165692
-0.0511252
0.0124867
-0.0511311
0.00812337
-0.0508539
0.00384458
-0.0492314
-0.0435097
0.0225877
-0.0500728
0.0223072
-0.0498656
0.0218501
-0.0496151
0.0212166
-0.0493723
0.0204079
-0.0491385
0.0194255
-0.0489146
0.0182757
-0.0487039
0.0169647
-0.0485072
0.0154986
-0.0483272
0.0138844
-0.0481708
0.0121267
-0.0480461
0.0102232
-0.0479541
0.00816239
-0.0478756
0.00593823
-0.0477372
0.00356843
-0.0473392
0.00151945
-0.0460681
-0.0409125
0.00647909
-0.0483808
0.0059885
-0.0478143
0.00540698
-0.047368
0.00476868
-0.0469623
0.00410506
-0.046596
0.00343607
-0.0462589
0.00277743
-0.0459501
0.00214318
-0.0456691
0.00154653
-0.0454182
0.000999083
-0.045203
0.000507776
-0.0450273
7.08386e-05
-0.0448841
-0.000319832
-0.0447481
-0.000661402
-0.0445573
-0.000908345
-0.0441554
-0.000789289
-0.0431553
-0.0385789
-0.00926201
-0.0454182
-0.0101275
-0.0448534
-0.0108885
-0.0443371
-0.0115405
-0.0438594
-0.0120596
-0.0434391
-0.0124183
-0.0430697
-0.0125898
-0.0427501
-0.0125505
-0.0424774
-0.0122792
-0.0422517
-0.0117589
-0.0420751
-0.0109802
-0.0419447
-0.00994317
-0.0418448
-0.00865239
-0.0417462
-0.00710853
-0.041592
-0.00528915
-0.0412498
-0.00309629
-0.040409
-0.0365248
-0.0251296
-0.0419208
-0.0261833
-0.0411206
-0.0270867
-0.0405106
-0.0277613
-0.0400068
-0.0281482
-0.0396086
-0.0282021
-0.0392967
-0.027885
-0.0390632
-0.0271648
-0.0389001
-0.026015
-0.0388027
-0.0244168
-0.0387668
-0.0223622
-0.0387794
-0.0198537
-0.0388155
-0.0168983
-0.0388427
-0.0135048
-0.0388038
-0.00967969
-0.0385701
-0.00539521
-0.0378666
-0.034774
-0.0406726
-0.0369999
-0.0421909
-0.0362807
-0.0433257
-0.0357407
-0.0440427
-0.0353262
-0.0442936
-0.0350513
-0.0440285
-0.0348991
-0.0432033
-0.0348568
-0.0417816
-0.0349099
-0.0397363
-0.035046
-0.0370516
-0.0352505
-0.0337245
-0.0354994
-0.0297611
-0.0357604
-0.0251693
-0.0360012
-0.0199543
-0.0361685
-0.0141174
-0.0361403
-0.0076505
-0.0356527
-0.033334
-0.0567049
-0.0313467
-0.0584245
-0.0305326
-0.0597097
-0.0300441
-0.0604417
-0.0297813
-0.0605346
-0.0297269
-0.0599241
-0.0298435
-0.0585599
-0.0301058
-0.0564055
-0.0304873
-0.0534375
-0.0309642
-0.0496461
-0.0315104
-0.0450338
-0.0320917
-0.039609
-0.0326719
-0.0333793
-0.0332223
-0.0263476
-0.0336969
-0.0185073
-0.0339855
-0.0098273
-0.0338516
-0.0322028
-0.072412
-0.0240977
-0.0746773
-0.0234679
-0.0762081
-0.0232608
-0.0769598
-0.0233033
-0.0768652
-0.0236028
-0.0758637
-0.0241167
-0.0739087
-0.024808
-0.0709692
-0.0256369
-0.0670298
-0.0265666
-0.0620889
-0.0275598
-0.0561555
-0.0285748
-0.0492429
-0.0295741
-0.0413638
-0.0305327
-0.0325279
-0.0314108
-0.0227356
-0.0321108
-0.011961
-0.0324261
-0.0314458
-0.0887797
-0.0159041
-0.091203
-0.015416
-0.0928478
-0.0154642
-0.0935505
-0.0159039
-0.0932073
-0.016685
-0.0917503
-0.0177322
-0.0891371
-0.0189854
-0.0853473
-0.0203864
-0.0803786
-0.0218837
-0.0742427
-0.0234294
-0.0669603
-0.0249767
-0.0585549
-0.0264894
-0.0490482
-0.0279481
-0.0384578
-0.0293212
-0.0267897
-0.030527
-0.0140224
-0.0313902
-0.0311387
-0.104531
-0.00597638
-0.107558
-0.00588611
-0.109421
-0.00650558
-0.110063
-0.00755031
-0.109414
-0.00898953
-0.107428
-0.0107271
-0.10408
-0.0126855
-0.0993682
-0.0147873
-0.0933109
-0.0169665
-0.0859393
-0.0191662
-0.0772919
-0.0213374
-0.0674071
-0.0234491
-0.0563177
-0.0254921
-0.044047
-0.0274493
-0.0305998
-0.0292627
-0.0159398
-0.0308026
-0.0313318
-0.120846
0.0050386
-0.123965
0.0046358
-0.125856
0.00345192
-0.126323
0.00166624
-0.125278
-0.000586982
-0.122673
-0.00317651
-0.118505
-0.00598728
-0.112797
-0.00891889
-0.105595
-0.0118904
-0.0969551
-0.0148384
-0.0869394
-0.0177164
-0.0756046
-0.0205034
-0.062997
-0.0232069
-0.0491465
-0.0258319
-0.0340576
-0.0283513
-0.0176873
-0.030688
-0.0321025
-0.136066
0.0177197
-0.139745
0.0166155
-0.14174
0.0144818
-0.142012
0.0117232
-0.140501
0.0084452
-0.137197
0.00482483
-0.132129
0.00100597
-0.125358
-0.00288453
-0.116966
-0.00675188
-0.107045
-0.0105313
-0.095684
-0.0141856
-0.0829609
-0.0177122
-0.0689355
-0.0211439
-0.053642
-0.0245175
-0.0370826
-0.0278439
-0.0192037
-0.031107
-0.033524
-0.151165
0.0315517
-0.154942
0.0295572
-0.156901
0.0264104
-0.156865
0.0224698
-0.154788
0.0179666
-0.15069
0.0131322
-0.144642
0.00815393
-0.136749
0.00318431
-0.12714
-0.00167015
-0.115947
-0.00634896
-0.10329
-0.0108343
-0.0892694
-0.015153
-0.073957
-0.019374
-0.0573899
-0.023575
-0.0395684
-0.0278101
-0.0204372
-0.0321236
-0.0356777
-0.164876
0.0468532
-0.169043
0.0436791
-0.170935
0.0391327
-0.170519
0.0337593
-0.167785
0.0278047
-0.162803
0.0215693
-0.155703
0.0152857
-0.146649
0.00913149
-0.135821
0.00321717
-0.123395
-0.00241096
-0.109525
-0.0077666
-0.0943333
-0.0129196
-0.077899
-0.0179873
-0.0602627
-0.0230945
-0.0414244
-0.0283405
-0.0213396
-0.0338184
-0.0386568
-0.177393
0.0631642
-0.18168
0.0585959
-0.18345
0.0524773
-0.182582
0.0454015
-0.179115
0.0377623
-0.173182
0.0299373
-0.164984
0.0222113
-0.154755
0.014784
-0.142738
0.00775898
-0.129155
0.00115189
-0.114194
-0.00509945
-0.0979909
-0.0111234
-0.0806311
-0.0170973
-0.0621558
-0.0231962
-0.0425702
-0.0295591
-0.0218531
-0.0363077
-0.0425533
-0.188021
0.0805889
-0.192525
0.0742418
-0.194098
0.0662083
-0.192702
0.05716
-0.188434
0.0476047
-0.181503
0.0380136
-0.172191
0.0287274
-0.160812
0.0199611
-0.147675
0.0117969
-0.133051
0.00419887
-0.117152
-0.00296532
-0.100126
-0.00989964
-0.0820579
-0.0168501
-0.0629882
-0.0240403
-0.0429362
-0.0316327
-0.0219292
-0.0397394
-0.0474618
-0.196459
0.0986635
-0.201129
0.0903546
-0.202497
0.0801121
-0.200542
0.0687958
-0.195443
0.0570911
-0.187503
0.0455703
-0.177102
0.0346285
-0.164641
0.0244824
-0.150497
0.0151709
-0.134983
0.00658079
-0.118331
-0.00151518
-0.100688
-0.00941456
-0.0821336
-0.0174348
-0.0627133
-0.0258366
-0.042476
-0.0347758
-0.0215295
-0.0442989
-0.0534788
-0.202431
0.117323
-0.207262
0.106674
-0.208389
0.0939007
-0.205859
0.0800449
-0.199932
0.0659743
-0.191016
0.0523825
-0.179598
0.0397157
-0.166169
0.0281733
-0.151171
0.0177216
-0.13495
0.00813829
-0.117745
-0.000925593
-0.0996902
-0.009876
-0.0808595
-0.0190962
-0.0613112
-0.0288574
-0.0411548
-0.0392561
-0.0206233
-0.0502016
-0.0606983
-0.205633
0.136135
-0.210657
0.122933
-0.211586
0.107325
-0.208516
0.0906541
-0.201812
0.0740175
-0.192001
0.0582381
-0.179684
0.043804
-0.165446
0.03087
-0.149782
0.0192918
-0.133059
0.00870052
-0.115503
-0.00140303
-0.097229
-0.0115397
-0.0783034
-0.0221391
-0.0588191
-0.0334354
-0.0389794
-0.0453978
-0.0192023
-0.0576981
-0.0692172
-0.205976
0.154923
-0.21124
0.138843
-0.212026
0.120114
-0.208495
0.100383
-0.201115
0.081005
-0.19054
0.0629483
-0.17749
0.0467289
-0.162638
0.0324218
-0.146522
0.0197255
-0.129507
0.00807961
-0.111791
-0.00319064
-0.0934561
-0.0147165
-0.0745704
-0.0269355
-0.0552916
-0.0399707
-0.0359806
-0.0535605
-0.017276
-0.0670634
-0.0791343
-0.203437
0.173238
-0.209042
0.154137
-0.209801
0.132031
-0.205933
0.109013
-0.198019
0.086742
-0.186848
0.0663437
-0.17326
0.0483412
-0.158009
0.0326838
-0.141657
0.0188563
-0.124545
0.00605815
-0.106817
-0.00658244
-0.0885199
-0.0197874
-0.0697335
-0.0339385
-0.0507217
-0.0489444
-0.032063
-0.0641857
-0.0147565
-0.0785492
-0.090432
0.0884471
-0.186741
-0.0837849
0.0912536
-0.202649
0.0932355
-0.218537
0.0935379
-0.233792
0.0933644
-0.248003
0.0916979
-0.260596
0.0898352
-0.271161
0.0866586
-0.279233
0.0834279
-0.28457
0.0791046
-0.286927
0.0746001
-0.286158
0.0692316
-0.282504
0.0634363
-0.2759
0.0569813
-0.26678
0.0498781
-0.255333
0.0422086
-0.241847
0.0337744
-0.22676
0.0248183
-0.210396
0.0150765
-0.193348
0.00481565
-0.175855
-0.0061587
-0.158596
-0.0176156
-0.141796
-0.0296473
-0.126062
-0.042086
-0.111697
-0.054901
-0.0991652
-0.067967
-0.0887916
-0.0811608
-0.0808723
-0.0943577
-0.0756456
-0.107342
-0.0732499
-0.119984
-0.0737356
-0.132001
-0.0770451
-0.143251
-0.0829922
-0.153418
-0.0913008
-0.162364
-0.101558
-0.169763
-0.113285
-0.175521
-0.125904
-0.179327
-0.138817
-0.18116
-0.15139
-0.180746
-0.163019
-0.178173
-0.173135
-0.181284
0.12121
-0.182097
-0.118474
0.122434
-0.198435
0.122239
-0.214839
0.12082
-0.230775
0.118297
-0.245734
0.114819
-0.259151
0.110504
-0.270568
0.105478
-0.279516
0.0998271
-0.285708
0.0936012
-0.288851
0.086907
-0.288858
0.0796725
-0.285789
0.0720061
-0.279761
0.0638448
-0.27104
0.0552133
-0.259907
0.0461134
-0.246632
0.0365248
-0.231635
0.0264922
-0.21531
0.0159653
-0.198157
0.0050439
-0.180566
-0.0063173
-0.163071
-0.0180169
-0.146043
-0.0300505
-0.129986
-0.0423238
-0.115289
-0.0547757
-0.102375
-0.0673066
-0.0915975
-0.0798006
-0.0832599
-0.092125
-0.0776065
-0.104125
-0.0747874
-0.115626
-0.0748629
-0.126438
-0.0777818
-0.136353
-0.0833704
-0.145165
-0.0913469