/*--------------------------------*- C++ -*----------------------------------*\
  =========                 |
  \\      /  F ield         | OpenFOAM: The Open Source CFD Toolbox
   \\    /   O peration     | Website:  https://openfoam.org
    \\  /    A nd           | Version:  6
     \\/     M anipulation  |
\*---------------------------------------------------------------------------*/
FoamFile
{
    version     2.0;
    format      ascii;
    class       surfaceScalarField;
    location    "3.53";
    object      meshPhi;
}
// * * * * * * * * * * * * * * * * * * * * * * * * * * * * * * * * * * * * * //

dimensions      [0 3 -1 0 0 0 0];

internalField   nonuniform List<scalar> 
19800
(
-2.43481e-05
-0.00379901
0.000239062
-0.0113803
0.000784085
-0.0189116
0.00160015
-0.0263598
0.00267244
-0.0336924
0.00398212
-0.0408775
0.00550665
-0.0478838
0.00722016
-0.0546813
0.00909384
-0.061241
0.0110964
-0.0675351
0.0131947
-0.0735373
0.0153539
-0.079223
0.0175386
-0.0845689
0.0197129
-0.0895538
0.0218411
-0.0941583
0.0238885
-0.0983648
0.0258216
-0.102158
0.0276091
-0.105524
0.0292216
-0.108451
0.0306332
-0.110931
0.0318207
-0.112955
0.0327649
-0.114519
0.0334505
-0.115619
0.0338663
-0.116255
0.0340057
-0.116427
0.0338663
-0.116138
0.0334505
-0.115392
0.0327649
-0.114195
0.0318207
-0.112557
0.0306332
-0.110486
0.0292216
-0.107993
0.0276091
-0.105092
0.0258216
-0.101795
0.0238885
-0.0981193
0.0218411
-0.0940799
0.0197129
-0.0896946
0.0175386
-0.0849816
0.0153539
-0.0799604
0.0131947
-0.0746508
0.0110964
-0.0690736
0.00909384
-0.0632502
0.00722016
-0.0572025
0.00550665
-0.050953
0.00398212
-0.0445243
0.00267244
-0.0379399
0.00160015
-0.0312231
0.000784085
-0.0243976
0.000239062
-0.0174875
-2.43481e-05
-0.0105168
1.02157e-14
-0.00350963
0.000313721
0.00350963
0.000913866
0.0105168
0.00179296
0.0174875
0.00293912
0.0243976
0.00433621
0.0312231
0.00596413
0.0379399
0.00779908
0.0445243
0.00981396
0.050953
0.0119788
0.0572025
0.0142611
0.0632502
0.0166266
0.0690736
0.0190396
0.0746508
0.0214634
0.0799604
0.0238614
0.0849816
0.0261969
0.0896946
0.0284344
0.0940799
0.0305398
0.0981193
0.0324807
0.101795
0.0342276
0.105092
0.0357537
0.107993
0.0370356
0.110486
0.0380536
0.112557
0.0387921
0.114195
0.0392398
0.115392
0.0393898
0.116138
0.0392398
0.116427
0.0387921
0.116255
0.0380536
0.115619
0.0370356
0.114519
0.0357537
0.112955
0.0342276
0.110931
0.0324807
0.108451
0.0305398
0.105524
0.0284344
0.102158
0.0261969
0.0983648
0.0238614
0.0941583
0.0214634
0.0895538
0.0190396
0.0845689
0.0166266
0.079223
0.0142611
0.0735373
0.0119788
0.0675351
0.00981396
0.061241
0.00779908
0.0546813
0.00596413
0.0478838
0.00433621
0.0408775
0.00293912
0.0336924
0.00179296
0.0263598
0.000913866
0.0189116
0.000313721
0.0113803
0.00379901
-7.46591e-05
-0.00787068
0.000709426
-0.0235742
0.00233392
-0.0391643
0.0047673
-0.0545663
0.00796533
-0.0697067
0.0118718
-0.0845139
0.0164196
-0.0989183
0.0215313
-0.112853
0.027121
-0.126255
0.0330956
-0.139063
0.0393556
-0.151222
0.0457978
-0.162678
0.052316
-0.173385
0.0588032
-0.183299
0.0651531
-0.192382
0.0712619
-0.200601
0.0770298
-0.207927
0.082363
-0.214337
0.0871745
-0.219814
0.0913861
-0.224344
0.0949293
-0.227919
0.0977467
-0.230537
0.0997923
-0.232198
0.101033
-0.23291
0.101449
-0.232682
0.101033
-0.231529
0.0997923
-0.229469
0.0977467
-0.226524
0.0949293
-0.222719
0.0913861
-0.21808
0.0871745
-0.21264
0.082363
-0.206429
0.0770298
-0.199482
0.0712619
-0.191837
0.0651531
-0.183529
0.0588032
-0.174598
0.052316
-0.165083
0.0457978
-0.155024
0.0393556
-0.144462
0.0330956
-0.133437
0.027121
-0.121991
0.0215313
-0.110165
0.0164196
-0.0979985
0.0118718
-0.0855334
0.00796533
-0.0728098
0.0047673
-0.0598681
0.00233392
-0.0467483
0.000709426
-0.0334903
-7.46591e-05
-0.0201336
3.01916e-14
-0.00671775
0.000938214
0.00671775
0.00273117
0.0201336
0.00535657
0.0334903
0.00877891
0.0467483
0.0129501
0.0598681
0.01781
0.0728098
0.0232878
0.0855334
0.0293024
0.0979985
0.0357645
0.110165
0.0425771
0.121991
0.0496379
0.133437
0.0568402
0.144462
0.064075
0.155024
0.0712323
0.165083
0.0782033
0.174598
0.0848817
0.183529
0.0911655
0.191837
0.0969587
0.199482
0.102173
0.206429
0.106728
0.21264
0.110554
0.21808
0.113592
0.222719
0.115796
0.226524
0.117132
0.229469
0.11758
0.231529
0.117132
0.232682
0.115796
0.23291
0.113592
0.232198
0.110554
0.230537
0.106728
0.227919
0.102173
0.224344
0.0969587
0.219814
0.0911655
0.214337
0.0848817
0.207927
0.0782033
0.200601
0.0712323
0.192382
0.064075
0.183299
0.0568402
0.173385
0.0496379
0.162678
0.0425771
0.151222
0.0357645
0.139063
0.0293024
0.126255
0.0232878
0.112853
0.01781
0.0989183
0.0129501
0.0845139
0.00877891
0.0697067
0.00535657
0.0545663
0.00273117
0.0391643
0.000938214
0.0235742
0.00787068
-0.000129781
-0.0121939
0.00115665
-0.0365182
0.00382909
-0.060653
0.00783555
-0.0844734
0.0131031
-0.107857
0.0195392
-0.130685
0.0270329
-0.152843
0.0354569
-0.17422
0.0446694
-0.194714
0.0545167
-0.214227
0.0648352
-0.232668
0.0754542
-0.249956
0.0861988
-0.266018
0.0968927
-0.280786
0.10736
-0.294206
0.117431
-0.30623
0.12694
-0.316819
0.135732
-0.325945
0.143664
-0.333589
0.150607
-0.33974
0.156449
-0.344395
0.161093
-0.347561
0.164466
-0.349251
0.166511
-0.349489
0.167197
-0.348302
0.166511
-0.345725
0.164466
-0.341798
0.161093
-0.336569
0.156449
-0.330086
0.150607
-0.322403
0.143664
-0.313579
0.135732
-0.303671
0.12694
-0.292742
0.117431
-0.280854
0.10736
-0.26807
0.0968927
-0.254453
0.0861988
-0.240068
0.0754542
-0.224976
0.0648352
-0.209238
0.0545167
-0.192916
0.0446694
-0.176067
0.0354569
-0.158749
0.0270329
-0.141017
0.0195392
-0.122924
0.0131031
-0.104524
0.00783555
-0.0858657
0.00382909
-0.0669986
0.00115665
-0.0479703
-0.000129781
-0.0288277
4.92179e-14
-0.00961681
0.0015539
0.00961681
0.00451736
0.0288277
0.00885357
0.0479703
0.014504
0.0669986
0.0213892
0.0858657
0.0294102
0.104524
0.0384498
0.122924
0.0483747
0.141017
0.0590372
0.158749
0.0702777
0.176067
0.0819272
0.192916
0.0938098
0.209238
0.105746
0.224976
0.117553
0.240068
0.129054
0.254453
0.140071
0.26807
0.150437
0.280854
0.159994
0.292742
0.168595
0.303671
0.176109
0.313579
0.18242
0.322403
0.187433
0.330086
0.191069
0.336569
0.193273
0.341798
0.194011
0.345725
0.193273
0.348302
0.191069
0.349489
0.187433
0.349251
0.18242
0.347561
0.176109
0.344395
0.168595
0.33974
0.159994
0.333589
0.150437
0.325945
0.140071
0.316819
0.129054
0.30623
0.117553
0.294206
0.105746
0.280786
0.0938098
0.266018
0.0819272
0.249956
0.0702777
0.232668
0.0590372
0.214227
0.0483747
0.194714
0.0384498
0.17422
0.0294102
0.152843
0.0213892
0.130685
0.014504
0.107857
0.00885357
0.0844734
0.00451736
0.060653
0.0015539
0.0365182
0.0121939
-0.00019281
-0.016743
0.00156576
-0.0501362
0.00523416
-0.0832514
0.0107408
-0.115906
0.0179853
-0.147921
0.0268401
-0.179124
0.0371524
-0.209347
0.048747
-0.238432
0.0614284
-0.26623
0.0749849
-0.292604
0.0891911
-0.317425
0.103812
-0.340579
0.118607
-0.361966
0.133332
-0.381496
0.147746
-0.399097
0.161614
-0.414709
0.174709
-0.428287
0.186816
-0.439799
0.19774
-0.449231
0.207302
-0.456578
0.215347
-0.461851
0.221744
-0.465072
0.226388
-0.466275
0.229206
-0.465507
0.23015
-0.462821
0.229206
-0.458282
0.226388
-0.45196
0.221744
-0.443936
0.215347
-0.434291
0.207302
-0.423115
0.19774
-0.410497
0.186816
-0.396532
0.174709
-0.381314
0.161614
-0.364936
0.147746
-0.347493
0.133332
-0.329076
0.118607
-0.309774
0.103812
-0.289673
0.0891911
-0.268857
0.0749849
-0.247404
0.0614284
-0.225388
0.048747
-0.20288
0.0371524
-0.179946
0.0268401
-0.156648
0.0179853
-0.133043
0.0107408
-0.109185
0.00523416
-0.0851254
0.00156576
-0.0609119
-0.00019281
-0.03659
6.72247e-14
-0.0122038
0.00215503
0.0122038
0.00625218
0.03659
0.0122407
0.0609119
0.0200397
0.0851254
0.02954
0.109185
0.0406049
0.133043
0.053073
0.156648
0.0667605
0.179946
0.0814639
0.20288
0.0969632
0.225388
0.113025
0.247404
0.129408
0.268857
0.145864
0.289673
0.162143
0.309774
0.177997
0.329076
0.193185
0.347493
0.207475
0.364936
0.220649
0.381314
0.232506
0.396532
0.242864
0.410497
0.251564
0.423115
0.258473
0.434291
0.263485
0.443936
0.266523
0.45196
0.267541
0.458282
0.266523
0.462821
0.263485
0.465507
0.258473
0.466275
0.251564
0.465072
0.242864
0.461851
0.232506
0.456578
0.220649
0.449231
0.207475
0.439799
0.193185
0.428287
0.177997
0.414709
0.162143
0.399097
0.145864
0.381496
0.129408
0.361966
0.113025
0.340579
0.0969632
0.317425
0.0814639
0.292604
0.0667605
0.26623
0.053073
0.238432
0.0406049
0.209347
0.02954
0.179124
0.0200397
0.147921
0.0122407
0.115906
0.00625218
0.0832514
0.00215503
0.0501362
0.016743
-0.000266678
-0.0214887
0.00192248
-0.0643398
0.00651526
-0.106813
0.0134217
-0.148661
0.0225155
-0.189642
0.0336363
-0.22952
0.0465919
-0.268072
0.0611618
-0.305085
0.0771002
-0.34036
0.0941406
-0.373714
0.112
-0.404979
0.130381
-0.434006
0.148983
-0.460667
0.167498
-0.484849
0.185623
-0.506463
0.203062
-0.525439
0.219529
-0.541728
0.234755
-0.5553
0.248493
-0.566148
0.260518
-0.57428
0.270635
-0.579724
0.27868
-0.582528
0.284521
-0.582751
0.288064
-0.580471
0.289252
-0.575776
0.288064
-0.568767
0.284521
-0.559555
0.27868
-0.548259
0.270635
-0.535002
0.260518
-0.519916
0.248493
-0.503131
0.234755
-0.484781
0.219529
-0.464998
0.203062
-0.443915
0.185623
-0.421658
0.167498
-0.39835
0.148983
-0.374109
0.130381
-0.349047
0.112
-0.323267
0.0941406
-0.296866
0.0771002
-0.269932
0.0611618
-0.242547
0.0465919
-0.214783
0.0336363
-0.186705
0.0225155
-0.158371
0.0134217
-0.129833
0.00651526
-0.101136
0.00192248
-0.072321
-0.000266678
-0.0434244
8.41515e-14
-0.01448
0.00273606
0.01448
0.0079161
0.0434244
0.0154761
0.072321
0.0253144
0.101136
0.0372932
0.129833
0.0512406
0.158371
0.0669533
0.186705
0.0841999
0.214783
0.102724
0.242547
0.122249
0.269932
0.142482
0.296866
0.163118
0.323267
0.183843
0.349047
0.204345
0.374109
0.224312
0.39835
0.243439
0.421658
0.261435
0.443915
0.278025
0.464998
0.292956
0.484781
0.305999
0.503131
0.316954
0.519916
0.325654
0.535002
0.331966
0.548259
0.335792
0.559555
0.337073
0.568767
0.335792
0.575776
0.331966
0.580471
0.325654
0.582751
0.316954
0.582528
0.305999
0.579724
0.292956
0.57428
0.278025
0.566148
0.261435
0.5553
0.243439
0.541728
0.224312
0.525439
0.204345
0.506463
0.183843
0.484849
0.163118
0.460667
0.142482
0.434006
0.122249
0.404979
0.102724
0.373714
0.0841999
0.34036
0.0669533
0.305085
0.0512406
0.268072
0.0372932
0.22952
0.0253144
0.189642
0.0154761
0.148661
0.0079161
0.106813
0.00273606
0.0643398
0.0214887
-0.000354094
-0.0263975
0.00221344
-0.0790294
0.00764064
-0.131174
0.0158206
-0.182511
0.0266033
-0.23273
0.039798
-0.281528
0.0551763
-0.328618
0.0724758
-0.373729
0.0914046
-0.416607
0.111646
-0.45702
0.132862
-0.494759
0.154701
-0.529638
0.176804
-0.561498
0.198805
-0.590205
0.220344
-0.615654
0.241069
-0.637767
0.260639
-0.656491
0.278735
-0.671804
0.295063
-0.683708
0.309356
-0.692232
0.321381
-0.697426
0.330943
-0.699366
0.337886
-0.698147
0.342098
-0.693884
0.34351
-0.686706
0.342098
-0.67676
0.337886
-0.664202
0.330943
-0.649198
0.321381
-0.631921
0.309356
-0.612549
0.295063
-0.591261
0.278735
-0.568237
0.260639
-0.543653
0.241069
-0.517681
0.220344
-0.490487
0.198805
-0.462227
0.176804
-0.433051
0.154701
-0.403094
0.132862
-0.372484
0.111646
-0.341332
0.0914046
-0.30974
0.0724758
-0.277797
0.0551763
-0.245578
0.039798
-0.213147
0.0266033
-0.180558
0.0158206
-0.147853
0.00764064
-0.115066
0.00221344
-0.0822245
-0.000354094
-0.0493475
9.99529e-14
-0.0164512
0.00329169
0.0164512
0.00949062
0.0493475
0.0185205
0.0822245
0.0302602
0.115066
0.0445457
0.147853
0.0611723
0.180558
0.0798981
0.213147
0.100448
0.245578
0.122516
0.277797
0.145774
0.30974
0.169872
0.341332
0.194448
0.372484
0.219129
0.403094
0.243543
0.433051
0.267318
0.462227
0.290092
0.490487
0.311519
0.517681
0.331272
0.543653
0.349048
0.568237
0.364577
0.591261
0.37762
0.612549
0.387977
0.631921
0.395491
0.649198
0.400046
0.664202
0.401572
0.67676
0.400046
0.686706
0.395491
0.693884
0.387977
0.698147
0.37762
0.699366
0.364577
0.697426
0.349048
0.692232
0.331272
0.683708
0.311519
0.671804
0.290092
0.656491
0.267318
0.637767
0.243543
0.615654
0.219129
0.590205
0.194448
0.561498
0.169872
0.529638
0.145774
0.494759
0.122516
0.45702
0.100448
0.416607
0.0798981
0.373729
0.0611723
0.328618
0.0445457
0.281528
0.0302602
0.23273
0.0185205
0.182511
0.00949062
0.131174
0.00329169
0.0790294
0.0263975
-0.000457479
-0.0314326
0.00242647
-0.0940951
0.00858119
-0.156152
0.0178847
-0.217205
0.0301655
-0.276867
0.0452057
-0.334765
0.0627443
-0.390544
0.0824815
-0.443868
0.104084
-0.494427
0.127188
-0.541937
0.151409
-0.586143
0.176346
-0.626823
0.201586
-0.663786
0.226712
-0.696876
0.251313
-0.725973
0.274984
-0.750992
0.297338
-0.771882
0.318009
-0.788628
0.336661
-0.801248
0.352989
-0.809792
0.366727
-0.814342
0.37765
-0.815008
0.385582
-0.811923
0.390394
-0.805246
0.392007
-0.795158
0.390394
-0.781852
0.385582
-0.765539
0.37765
-0.74644
0.366727
-0.724782
0.352989
-0.700797
0.336661
-0.674718
0.318009
-0.646774
0.297338
-0.617192
0.274984
-0.586187
0.251313
-0.553966
0.226712
-0.520724
0.201586
-0.48664
0.176346
-0.451879
0.151409
-0.416587
0.127188
-0.380894
0.104084
-0.344911
0.0824815
-0.308732
0.0627443
-0.272432
0.0452057
-0.236071
0.0301655
-0.199691
0.0178847
-0.163322
0.00858119
-0.126979
0.00242647
-0.0906688
-0.000457479
-0.0543878
1.14576e-13
-0.0181269
0.00381696
0.0181269
0.0109585
0.0543878
0.0213371
0.0906688
0.0348141
0.126979
0.0512017
0.163322
0.0702656
0.199691
0.091729
0.236071
0.115277
0.272432
0.14056
0.308732
0.167201
0.344911
0.194802
0.380894
0.222946
0.416587
0.25121
0.451879
0.279164
0.48664
0.306386
0.520724
0.332461
0.553966
0.356992
0.586187
0.379605
0.617192
0.399955
0.646774
0.417732
0.674718
0.432662
0.700797
0.444519
0.724782
0.45312
0.74644
0.458334
0.765539
0.460081
0.781852
0.458334
0.795158
0.45312
0.805246
0.444519
0.811923
0.432662
0.815008
0.417732
0.814342
0.399955
0.809792
0.379605
0.801248
0.356992
0.788628
0.332461
0.771882
0.306386
0.750992
0.279164
0.725973
0.25121
0.696876
0.222946
0.663786
0.194802
0.626823
0.167201
0.586143
0.14056
0.541937
0.115277
0.494427
0.091729
0.443868
0.0702656
0.390544
0.0512017
0.334765
0.0348141
0.276867
0.0213371
0.217205
0.0109585
0.156152
0.00381696
0.0940951
0.0314326
-0.00057892
-0.0365544
0.00255079
-0.109418
0.00931101
-0.18155
0.0195666
-0.252469
0.0331275
-0.32171
0.0497523
-0.388821
0.0691514
-0.453375
0.0909925
-0.514971
0.114905
-0.573237
0.140488
-0.627835
0.167313
-0.678465
0.194934
-0.724863
0.222895
-0.766809
0.250734
-0.804125
0.277992
-0.836677
0.304222
-0.864373
0.328995
-0.887167
0.351904
-0.905054
0.372576
-0.918071
0.390672
-0.926296
0.405899
-0.929843
0.418006
-0.928862
0.426798
-0.923531
0.432132
-0.91406
0.433919
-0.900681
0.432132
-0.883647
0.426798
-0.863226
0.418006
-0.839699
0.405899
-0.813354
0.390672
-0.784482
0.372576
-0.753373
0.351904
-0.720313
0.328995
-0.685579
0.304222
-0.649438
0.277992
-0.612139
0.250734
-0.573915
0.222895
-0.53498
0.194934
-0.495524
0.167313
-0.455717
0.140488
-0.415703
0.114905
-0.375601
0.0909925
-0.335508
0.0691514
-0.295497
0.0497523
-0.255617
0.0331275
-0.215897
0.0195666
-0.176348
0.00931101
-0.136962
0.00255079
-0.0977183
-0.00057892
-0.0585847
1.27979e-13
-0.0195203
0.00430731
0.0195203
0.012304
0.0585847
0.0238926
0.0977183
0.0389191
0.136962
0.0571746
0.176348
0.0783989
0.215897
0.102285
0.255617
0.128482
0.295497
0.156602
0.335508
0.186228
0.375601
0.216916
0.415703
0.248204
0.455717
0.279622
0.495524
0.310693
0.53498
0.340948
0.573915
0.369926
0.612139
0.397187
0.649438
0.422316
0.685579
0.444929
0.720313
0.464682
0.753373
0.481272
0.784482
0.494446
0.813354
0.504003
0.839699
0.509796
0.863226
0.511737
0.883647
0.509796
0.900681
0.504003
0.91406
0.494446
0.923531
0.481272
0.928862
0.464682
0.929843
0.444929
0.926296
0.422316
0.918071
0.397187
0.905054
0.369926
0.887167
0.340948
0.864373
0.310693
0.836677
0.279622
0.804125
0.248204
0.766809
0.216916
0.724863
0.186228
0.678465
0.156602
0.627835
0.128482
0.573237
0.102285
0.514971
0.0783989
0.453375
0.0571746
0.388821
0.0389191
0.32171
0.0238926
0.252469
0.012304
0.18155
0.00430731
0.109418
0.0365544
-0.000720118
-0.0417207
0.00257723
-0.124873
0.00980777
-0.20716
0.0208255
-0.288017
0.035425
-0.366893
0.0533449
-0.443257
0.0742721
-0.516607
0.0978469
-0.586472
0.123669
-0.652418
0.151302
-0.71405
0.180285
-0.771019
0.210134
-0.823023
0.240354
-0.869811
0.270447
-0.911182
0.299915
-0.946989
0.328275
-0.977137
0.35506
-1.00158
0.379833
-1.02034
0.402187
-1.03346
0.421757
-1.04106
0.438224
-1.04328
0.451318
-1.04033
0.460827
-1.03242
0.466595
-1.01983
0.468528
-1.00284
0.466595
-0.981766
0.460827
-0.956944
0.451318
-0.928716
0.438224
-0.897437
0.421757
-0.86346
0.402187
-0.827139
0.379833
-0.788818
0.35506
-0.748831
0.328275
-0.707493
0.299915
-0.665102
0.270447
-0.621931
0.240354
-0.578227
0.210134
-0.534209
0.180285
-0.490068
0.151302
-0.44596
0.123669
-0.402015
0.0978469
-0.358327
0.0742721
-0.314965
0.0533449
-0.271964
0.035425
-0.229336
0.0208255
-0.187068
0.00980777
-0.145125
0.00257723
-0.103454
-0.000720118
-0.0619873
1.40127e-13
-0.0206481
0.00475862
0.0206481
0.0135131
0.0619873
0.0261576
0.103454
0.0425247
0.145125
0.062388
0.187068
0.0854653
0.229336
0.111423
0.271964
0.139882
0.314965
0.170422
0.358327
0.202589
0.402015
0.235902
0.44596
0.269863
0.490068
0.30396
0.534209
0.337677
0.578227
0.370505
0.621931
0.401946
0.665102
0.431522
0.707493
0.458783
0.748831
0.483314
0.788818
0.504741
0.827139
0.522737
0.86346
0.537027
0.897437
0.547393
0.928716
0.553677
0.956944
0.555782
0.981766
0.553677
1.00284
0.547393
1.01983
0.537027
1.03242
0.522737
1.04033
0.504741
1.04328
0.483314
1.04106
0.458783
1.03346
0.431522
1.02034
0.401946
1.00158
0.370505
0.977137
0.337677
0.946989
0.30396
0.911182
0.269863
0.869811
0.235902
0.823023
0.202589
0.771019
0.170422
0.71405
0.139882
0.652418
0.111423
0.586472
0.0854653
0.516607
0.062388
0.443257
0.0425247
0.366893
0.0261576
0.288017
0.0135131
0.20716
0.00475862
0.124873
0.0417207
-0.00088235
-0.046887
0.00249836
-0.140326
0.0100532
-0.232764
0.0216277
-0.323546
0.0370043
-0.412034
0.0559063
-0.497616
0.0780018
-0.579713
0.10291
-0.657782
0.130205
-0.731323
0.159427
-0.799886
0.190084
-0.863072
0.221666
-0.920539
0.253647
-0.972005
0.285497
-1.01725
0.316691
-1.05611
0.346714
-1.08848
0.375074
-1.11435
0.401304
-1.13372
0.424975
-1.14669
0.4457
-1.15339
0.463138
-1.15401
0.477006
-1.14881
0.487076
-1.13805
0.493185
-1.12207
0.495233
-1.1012
0.493185
-1.07585
0.487076
-1.04639
0.477006
-1.01326
0.463138
-0.97686
0.4457
-0.937625
0.424975
-0.895968
0.401304
-0.852298
0.375074
-0.807004
0.346714
-0.760457
0.316691
-0.713
0.285497
-0.66495
0.253647
-0.616588
0.221666
-0.568162
0.190084
-0.51988
0.159427
-0.471916
0.130205
-0.424402
0.10291
-0.377433
0.0780018
-0.331066
0.0559063
-0.285324
0.0370043
-0.240197
0.0216277
-0.195644
0.0100532
-0.151598
0.00249836
-0.10797
-0.00088235
-0.0646535
1.51005e-13
-0.0215295
0.00516727
0.0215295
0.0145737
0.0646535
0.0281066
0.10797
0.045588
0.151598
0.0667769
0.195644
0.0913736
0.240197
0.119024
0.285324
0.149325
0.331066
0.18183
0.377433
0.216057
0.424402
0.251497
0.471916
0.287619
0.51988
0.32388
0.568162
0.359733
0.616588
0.394636
0.66495
0.428062
0.713
0.459503
0.760457
0.488481
0.807004
0.514556
0.852298
0.53733
0.895968
0.556457
0.937625
0.571645
0.97686
0.582663
1.01326
0.589341
1.04639
0.591579
1.07585
0.589341
1.1012
0.582663
1.12207
0.571645
1.13805
0.556457
1.14881
0.53733
1.15401
0.514556
1.15339
0.488481
1.14669
0.459503
1.13372
0.428062
1.11435
0.394636
1.08848
0.359733
1.05611
0.32388
1.01725
0.287619
0.972005
0.251497
0.920539
0.216057
0.863072
0.18183
0.799886
0.149325
0.731323
0.119024
0.657782
0.0913736
0.579713
0.0667769
0.497616
0.045588
0.412034
0.0281066
0.323546
0.0145737
0.232764
0.00516727
0.140326
0.046887
-0.00106643
-0.0520078
0.00230871
-0.155642
0.0100334
-0.258136
0.0219471
-0.358743
0.0378241
-0.456739
0.0573764
-0.551428
0.0802589
-0.642151
0.106075
-0.728293
0.134383
-0.809289
0.164702
-0.88463
0.196523
-0.95387
0.229312
-1.01663
0.262524
-1.07258
0.295606
-1.1215
0.328011
-1.16321
0.359205
-1.1976
0.388674
-1.22466
0.415932
-1.24442
0.440532
-1.25701
0.462072
-1.26258
0.480197
-1.26138
0.494611
-1.2537
0.505079
-1.23987
0.511429
-1.22029
0.513557
-1.19536
0.511429
-1.16554
0.505079
-1.1313
0.494611
-1.09311
0.480197
-1.05148
0.462072
-1.0069
0.440532
-0.959846
0.415932
-0.910794
0.388674
-0.860195
0.359205
-0.808472
0.328011
-0.75602
0.295606
-0.703194
0.262524
-0.650313
0.229312
-0.597651
0.196523
-0.545438
0.164702
-0.493858
0.134383
-0.443049
0.106075
-0.393102
0.0802589
-0.344064
0.0573764
-0.29594
0.0378241
-0.248694
0.0219471
-0.202257
0.0100334
-0.156526
0.00230871
-0.111373
-0.00106643
-0.0666484
1.60618e-13
-0.0221865
0.00553019
0.0221865
0.0154759
0.0666484
0.0297192
0.111373
0.0480739
0.156526
0.0702887
0.202257
0.0960507
0.248694
0.12499
0.29594
0.156687
0.344064
0.190675
0.393102
0.226454
0.443049
0.263489
0.493858
0.301229
0.545438
0.339107
0.597651
0.376554
0.650313
0.413005
0.703194
0.447908
0.75602
0.480736
0.808472
0.510991
0.860195
0.538213
0.910794
0.561987
0.959846
0.581954
1.0069
0.597808
1.05148
0.609308
1.09311
0.616279
1.1313
0.618615
1.16554
0.616279
1.19536
0.609308
1.22029
0.597808
1.23987
0.581954
1.2537
0.561987
1.26138
0.538213
1.26258
0.510991
1.25701
0.480736
1.24442
0.447908
1.22466
0.413005
1.1976
0.376554
1.16321
0.339107
1.1215
0.301229
1.07258
0.263489
1.01663
0.226454
0.95387
0.190675
0.88463
0.156687
0.809289
0.12499
0.728293
0.0960507
0.642151
0.0702887
0.551428
0.0480739
0.456739
0.0297192
0.358743
0.0154759
0.258136
0.00553019
0.155642
0.0520078
-0.0012727
-0.0570364
0.0020048
-0.170681
0.00973889
-0.283045
0.021766
-0.393291
0.0378554
-0.500606
0.057713
-0.604211
0.0809858
-0.703367
0.107268
-0.797386
0.136109
-0.885639
0.167015
-0.967558
0.199466
-1.04265
0.232917
-1.11049
0.266808
-1.17073
0.300574
-1.22311
0.333657
-1.26746
0.365507
-1.30367
0.395599
-1.33172
0.423438
-1.35167
0.448564
-1.36368
0.470566
-1.36794
0.489081
-1.36473
0.503806
-1.35441
0.5145
-1.33736
0.520987
-1.31404
0.523162
-1.28492
0.520987
-1.25052
0.5145
-1.2114
0.503806
-1.1681
0.489081
-1.12119
0.470566
-1.07123
0.448564
-1.01879
0.423438
-0.964383
0.395599
-0.908534
0.365507
-0.85172
0.333657
-0.794381
0.300574
-0.736919
0.266808
-0.679684
0.232917
-0.622981
0.199466
-0.567056
0.167015
-0.512107
0.136109
-0.458273
0.107268
-0.405642
0.0809858
-0.354247
0.057713
-0.304074
0.0378554
-0.255062
0.021766
-0.207108
0.00973889
-0.160071
0.0020048
-0.113781
-0.0012727
-0.0680428
1.68916e-13
-0.0226429
0.0058449
0.0226429
0.0162119
0.0680428
0.0309794
0.113781
0.0499562
0.160071
0.0728839
0.207108
0.0994416
0.255062
0.12925
0.304074
0.161877
0.354247
0.196847
0.405642
0.233644
0.458273
0.271721
0.512107
0.310514
0.567056
0.34944
0.622981
0.387916
0.679684
0.425362
0.736919
0.461215
0.794381
0.494933
0.85172
0.526004
0.908534
0.553959
0.964383
0.578373
1.01879
0.598875
1.07123
0.615153
1.12119
0.626961
1.1681
0.634118
1.2114
0.636516
1.25052
0.634118
1.28492
0.626961
1.31404
0.615153
1.33736
0.598875
1.35441
0.578373
1.36473
0.553959
1.36794
0.526004
1.36368
0.494933
1.35167
0.461215
1.33172
0.425362
1.30367
0.387916
1.26746
0.34944
1.22311
0.310514
1.17073
0.271721
1.11049
0.233644
1.04265
0.196847
0.967558
0.161877
0.885639
0.12925
0.797386
0.0994416
0.703367
0.0728839
0.604211
0.0499562
0.500606
0.0309794
0.393291
0.0162119
0.283045
0.0058449
0.170681
0.0570364
-0.00150097
-0.061926
0.00158528
-0.185303
0.00916527
-0.30726
0.021075
-0.426871
0.0370827
-0.543233
0.0568927
-0.655483
0.0801502
-0.762806
0.106447
-0.864441
0.135329
-0.959694
0.166301
-1.04794
0.198837
-1.12864
0.23239
-1.20132
0.266396
-1.26563
0.300286
-1.32126
0.333498
-1.36804
0.365478
-1.40586
0.395699
-1.43472
0.42366
-1.4547
0.448899
-1.46596
0.471002
-1.46877
0.489603
-1.46343
0.504398
-1.45036
0.515142
-1.42999
0.521661
-1.40285
0.523845
-1.36948
0.521661
-1.33048
0.515142
-1.28646
0.504398
-1.23805
0.489603
-1.18589
0.471002
-1.13061
0.448899
-1.07283
0.42366
-1.01317
0.395699
-0.95218
0.365478
-0.890405
0.333498
-0.828334
0.300286
-0.766408
0.266396
-0.705014
0.23239
-0.644481
0.198837
-0.585077
0.166301
-0.527008
0.135329
-0.470415
0.106447
-0.41538
0.0801502
-0.361924
0.0568927
-0.31001
0.0370827
-0.25955
0.021075
-0.210406
0.00916527
-0.1624
0.00158528
-0.115316
-0.00150097
-0.0689119
1.75924e-13
-0.0229239
0.00610951
0.0229239
0.0167762
0.0689119
0.0318767
0.115316
0.0512173
0.1624
0.0745369
0.210406
0.101511
0.25955
0.131756
0.31001
0.164838
0.361924
0.200273
0.41538
0.237543
0.470415
0.276096
0.527008
0.31536
0.585077
0.35475
0.644481
0.393676
0.705014
0.431554
0.766408
0.467815
0.828334
0.501911
0.890405
0.533329
0.95218
0.561592
1.01317
0.586274
1.07283
0.607
1.13061
0.623455
1.18589
0.635391
1.23805
0.642626
1.28646
0.64505
1.33048
0.642626
1.36948
0.635391
1.40285
0.623455
1.42999
0.607
1.45036
0.586274
1.46343
0.561592
1.46877
0.533329
1.46596
0.501911
1.4547
0.467815
1.43472
0.431554
1.40586
0.393676
1.36804
0.35475
1.32126
0.31536
1.26563
0.276096
1.20132
0.237543
1.12864
0.200273
1.04794
0.164838
0.959694
0.131756
0.864441
0.101511
0.762806
0.0745369
0.655483
0.0512173
0.543233
0.0318767
0.426871
0.0167762
0.30726
0.00610951
0.185303
0.061926
-0.00175056
-0.0666299
0.00105096
-0.199369
0.00831283
-0.330553
0.0198734
-0.459164
0.0355037
-0.584216
0.0549114
-0.704765
0.0777454
-0.819917
0.103602
-0.928842
0.132031
-1.03078
0.162542
-1.12506
0.194615
-1.21108
0.227707
-1.28835
0.26126
-1.35646
0.29471
-1.41512
0.3275
-1.46413
0.359081
-1.50338
0.38893
-1.53288
0.416552
-1.55274
0.441488
-1.56315
0.463328
-1.5644
0.48171
-1.55686
0.496331
-1.54098
0.50695
-1.51727
0.513392
-1.48631
0.515551
-1.44871
0.513392
-1.40513
0.50695
-1.35627
0.496331
-1.30283
0.48171
-1.24551
0.463328
-1.18502
0.441488
-1.12205
0.416552
-1.05727
0.38893
-0.99131
0.359081
-0.924755
0.3275
-0.858146
0.29471
-0.791965
0.26126
-0.726632
0.227707
-0.662502
0.194615
-0.59986
0.162542
-0.538922
0.132031
-0.47983
0.103602
-0.422659
0.0777454
-0.367415
0.0549114
-0.31404
0.0355037
-0.262417
0.0198734
-0.212373
0.00831283
-0.163689
0.00105096
-0.116107
-0.00175056
-0.0693336
1.81663e-13
-0.0230557
0.00632277
0.0230557
0.0171658
0.0693336
0.0324055
0.116107
0.0518488
0.163689
0.0752357
0.212373
0.102243
0.262417
0.13249
0.31404
0.165544
0.367415
0.200925
0.422659
0.238117
0.47983
0.276573
0.538922
0.315723
0.59986
0.354987
0.662502
0.39378
0.726632
0.431519
0.791965
0.467641
0.858146
0.501602
0.924755
0.53289
0.99131
0.561035
1.05727
0.585611
1.12205
0.606246
1.18502
0.622629
1.24551
0.634511
1.30283
0.641714
1.35627
0.644127
1.40513
0.641714
1.44871
0.634511
1.48631
0.622629
1.51727
0.606246
1.54098
0.585611
1.55686
0.561035
1.5644
0.53289
1.56315
0.501602
1.55274
0.467641
1.53288
0.431519
1.50338
0.39378
1.46413
0.354987
1.41512
0.315723
1.35646
0.276573
1.28835
0.238117
1.21108
0.200925
1.12506
0.165544
1.03078
0.13249
0.928842
0.102243
0.819917
0.0752357
0.704765
0.0518488
0.584216
0.0324055
0.459164
0.0171658
0.330553
0.00632277
0.199369
0.0666299
-0.00202028
-0.0711026
0.000404782
-0.212743
0.00718686
-0.352697
0.0181693
-0.489861
0.0331299
-0.623166
0.0517842
-0.751588
0.0737909
-0.87416
0.0987567
-0.989986
0.126243
-1.09825
0.155773
-1.19821
0.18684
-1.28923
0.218913
-1.37079
0.25145
-1.44245
0.283901
-1.5039
0.315722
-1.55492
0.346379
-1.59543
0.375362
-1.62543
0.402187
-1.64506
0.426408
-1.65453
0.447624
-1.65418
0.465483
-1.64441
0.479689
-1.62574
0.490008
-1.59872
0.496268
-1.56399
0.498366
-1.52225
0.496268
-1.47421
0.490008
-1.42064
0.479689
-1.3623
0.465483
-1.29999
0.447624
-1.23448
0.426408
-1.16652
0.402187
-1.09683
0.375362
-1.02612
0.346379
-0.955013
0.315722
-0.884102
0.283901
-0.813907
0.25145
-0.744881
0.218913
-0.677403
0.18684
-0.611774
0.155773
-0.548219
0.126243
-0.48688
0.0987567
-0.427826
0.0737909
-0.371046
0.0517842
-0.316462
0.0331299
-0.263925
0.0181693
-0.213231
0.00718686
-0.164118
0.000404782
-0.116283
-0.00202028
-0.0693869
1.86126e-13
-0.0230647
0.00648404
0.0230647
0.0173798
0.0693869
0.0325657
0.116283
0.0518517
0.164118
0.074983
0.213231
0.101643
0.263925
0.131458
0.316462
0.164005
0.371046
0.198815
0.427826
0.235383
0.48688
0.273172
0.548219
0.311628
0.611774
0.350181
0.677403
0.388259
0.744881
0.425295
0.813907
0.460734
0.884102
0.494048
0.955013
0.524736
1.02612
0.552337
1.09683
0.576435
1.16652
0.596668
1.23448
0.61273
1.29999
0.624379
1.3623
0.63144
1.42064
0.633806
1.47421
0.63144
1.52225
0.624379
1.56399
0.61273
1.59872
0.596668
1.62574
0.576435
1.64441
0.552337
1.65418
0.524736
1.65453
0.494048
1.64506
0.460734
1.62543
0.425295
1.59543
0.388259
1.55492
0.350181
1.5039
0.311628
1.44245
0.273172
1.37079
0.235383
1.28923
0.198815
1.19821
0.164005
1.09825
0.131458
0.989986
0.101643
0.87416
0.074983
0.751588
0.0518517
0.623166
0.0325657
0.489861
0.0173798
0.352697
0.00648404
0.212743
0.0711026
-0.00230841
-0.0753002
-0.000348132
-0.225294
0.00579751
-0.373475
0.0159796
-0.518661
0.0299861
-0.659701
0.0475457
-0.795499
0.0683318
-0.925017
0.0919683
-1.04729
0.118036
-1.16145
0.146077
-1.26671
0.175607
-1.36238
0.206119
-1.44791
0.237091
-1.52284
0.267997
-1.58683
0.298317
-1.63967
0.327538
-1.68127
0.355172
-1.71165
0.380754
-1.73096
0.403859
-1.73945
0.4241
-1.73749
0.44114
-1.72552
0.454697
-1.70411
0.464544
-1.67388
0.470519
-1.63552
0.472521
-1.58978
0.470519
-1.53746
0.464544
-1.47938
0.454697
-1.41638
0.44114
-1.34932
0.4241
-1.27902
0.403859
-1.20632
0.380754
-1.132
0.355172
-1.05681
0.327538
-0.981427
0.298317
-0.906489
0.267997
-0.832554
0.237091
-0.760106
0.206119
-0.689545
0.175607
-0.621189
0.146077
-0.555269
0.118036
-0.49193
0.0919683
-0.43123
0.0683318
-0.373144
0.0475457
-0.317572
0.0299861
-0.264338
0.0159796
-0.213201
0.00579751
-0.163862
-0.000348132
-0.115974
-0.00230841
-0.0691504
1.89333e-13
-0.0229772
0.00659333
0.0229772
0.0174202
0.0691504
0.0323623
0.115974
0.0512361
0.163862
0.0737951
0.213201
0.0997343
0.264338
0.128694
0.317572
0.160266
0.373144
0.193999
0.43123
0.229407
0.49193
0.265974
0.555269
0.303166
0.621189
0.340436
0.689545
0.377232