/*--------------------------------*- C++ -*----------------------------------*\
  =========                 |
  \\      /  F ield         | OpenFOAM: The Open Source CFD Toolbox
   \\    /   O peration     | Website:  https://openfoam.org
    \\  /    A nd           | Version:  6
     \\/     M anipulation  |
\*---------------------------------------------------------------------------*/
FoamFile
{
    version     2.0;
    format      ascii;
    class       volVectorField;
    location    "3.07";
    object      U;
}
// * * * * * * * * * * * * * * * * * * * * * * * * * * * * * * * * * * * * * //

dimensions      [0 1 -1 0 0 0 0];

internalField   nonuniform List<vector> 
10000
(
(0.8944 0.4472 0)
(0.8944 0.4472 0)
(0.8944 0.4472 0)
(0.8944 0.4472 0)
(0.8944 0.4472 0)
(0.8944 0.4472 0)
(0.8944 0.4472 0)
(0.8944 0.4472 0)
(0.8944 0.4472 0)
(0.8944 0.4472 0)
(0.8944 0.4472 0)
(0.8944 0.4472 0)
(0.8944 0.4472 0)
(0.8944 0.4472 0)
(0.8944 0.4472 0)
(0.8944 0.4472 0)
(0.8944 0.4472 0)
(0.8944 0.4472 0)
(0.8944 0.4472 0)
(0.8944 0.4472 0)
(0.8944 0.4472 0)
(0.8944 0.4472 0)
(0.8944 0.4472 0)
(0.8944 0.4472 0)
(0.8944 0.4472 0)
(0.8944 0.4472 0)
(0.8944 0.4472 0)
(0.8944 0.4472 0)
(0.8944 0.4472 0)
(0.8944 0.4472 0)
(0.8944 0.4472 0)
(0.8944 0.4472 0)
(0.8944 0.4472 0)
(0.8944 0.4472 0)
(0.8944 0.4472 0)
(0.8944 0.4472 0)
(0.8944 0.4472 0)
(0.8944 0.4472 0)
(0.8944 0.4472 0)
(0.8944 0.4472 0)
(0.8944 0.4472 0)
(0.8944 0.4472 0)
(0.8944 0.4472 0)
(0.8944 0.4472 0)
(0.8944 0.4472 0)
(0.894401 0.447199 0)
(0.894402 0.447199 0)
(0.894403 0.447197 0)
(0.894404 0.447196 0)
(0.894405 0.447193 0)
(0.894406 0.44719 0)
(0.894407 0.447186 0)
(0.894408 0.447182 0)
(0.894408 0.447177 0)
(0.894407 0.447173 0)
(0.894405 0.44717 0)
(0.894403 0.447168 0)
(0.8944 0.447167 0)
(0.894396 0.447169 0)
(0.894392 0.447173 0)
(0.894388 0.447179 0)
(0.894385 0.447187 0)
(0.894384 0.447196 0)
(0.894384 0.447206 0)
(0.894385 0.447215 0)
(0.894387 0.447223 0)
(0.89439 0.44723 0)
(0.894394 0.447234 0)
(0.894398 0.447237 0)
(0.894401 0.447237 0)
(0.894404 0.447235 0)
(0.894406 0.447232 0)
(0.894407 0.447228 0)
(0.894407 0.447223 0)
(0.894407 0.447219 0)
(0.894407 0.447215 0)
(0.894406 0.447211 0)
(0.894404 0.447208 0)
(0.894403 0.447205 0)
(0.894403 0.447204 0)
(0.894402 0.447202 0)
(0.894401 0.447201 0)
(0.894401 0.447201 0)
(0.8944 0.4472 0)
(0.8944 0.4472 0)
(0.8944 0.4472 0)
(0.8944 0.4472 0)
(0.8944 0.4472 0)
(0.8944 0.4472 0)
(0.8944 0.4472 0)
(0.8944 0.4472 0)
(0.8944 0.4472 0)
(0.8944 0.4472 0)
(0.8944 0.4472 0)
(0.8944 0.4472 0)
(0.8944 0.4472 0)
(0.8944 0.4472 0)
(0.8944 0.4472 0)
(0.8944 0.4472 0)
(0.8944 0.4472 0)
(0.8944 0.4472 0)
(0.8944 0.4472 0)
(0.8944 0.4472 0)
(0.8944 0.4472 0)
(0.8944 0.4472 0)
(0.8944 0.4472 0)
(0.8944 0.4472 0)
(0.8944 0.4472 0)
(0.8944 0.4472 0)
(0.8944 0.4472 0)
(0.8944 0.4472 0)
(0.8944 0.4472 0)
(0.8944 0.4472 0)
(0.8944 0.4472 0)
(0.8944 0.4472 0)
(0.8944 0.4472 0)
(0.8944 0.4472 0)
(0.8944 0.4472 0)
(0.8944 0.4472 0)
(0.8944 0.4472 0)
(0.8944 0.4472 0)
(0.8944 0.4472 0)
(0.8944 0.4472 0)
(0.8944 0.4472 0)
(0.8944 0.4472 0)
(0.8944 0.4472 0)
(0.8944 0.4472 0)
(0.8944 0.4472 0)
(0.8944 0.4472 0)
(0.8944 0.4472 0)
(0.8944 0.4472 0)
(0.8944 0.4472 0)
(0.8944 0.4472 0)
(0.8944 0.4472 0)
(0.8944 0.4472 0)
(0.8944 0.4472 0)
(0.8944 0.4472 0)
(0.8944 0.4472 0)
(0.8944 0.4472 0)
(0.8944 0.4472 0)
(0.8944 0.4472 0)
(0.8944 0.4472 0)
(0.8944 0.4472 0)
(0.8944 0.4472 0)
(0.894401 0.4472 0)
(0.894402 0.447199 0)
(0.894402 0.447198 0)
(0.894404 0.447196 0)
(0.894405 0.447194 0)
(0.894407 0.44719 0)
(0.894409 0.447185 0)
(0.894411 0.44718 0)
(0.894412 0.447174 0)
(0.894411 0.447168 0)
(0.89441 0.447162 0)
(0.894408 0.447157 0)
(0.894404 0.447154 0)
(0.894398 0.447154 0)
(0.894393 0.447158 0)
(0.894387 0.447164 0)
(0.894382 0.447173 0)
(0.894378 0.447185 0)
(0.894375 0.447198 0)
(0.894375 0.447212 0)
(0.894377 0.447226 0)
(0.89438 0.447237 0)
(0.894385 0.447246 0)
(0.894391 0.447252 0)
(0.894397 0.447255 0)
(0.894402 0.447255 0)
(0.894406 0.447252 0)
(0.894409 0.447247 0)
(0.894411 0.447241 0)
(0.894411 0.447235 0)
(0.894411 0.447228 0)
(0.89441 0.447222 0)
(0.894409 0.447216 0)
(0.894407 0.447212 0)
(0.894405 0.447208 0)
(0.894404 0.447205 0)
(0.894403 0.447203 0)
(0.894402 0.447202 0)
(0.894401 0.447201 0)
(0.894401 0.447201 0)
(0.8944 0.4472 0)
(0.8944 0.4472 0)
(0.8944 0.4472 0)
(0.8944 0.4472 0)
(0.8944 0.4472 0)
(0.8944 0.4472 0)
(0.8944 0.4472 0)
(0.8944 0.4472 0)
(0.8944 0.4472 0)
(0.8944 0.4472 0)
(0.8944 0.4472 0)
(0.8944 0.4472 0)
(0.8944 0.4472 0)
(0.8944 0.4472 0)
(0.8944 0.4472 0)
(0.8944 0.4472 0)
(0.8944 0.4472 0)
(0.8944 0.4472 0)
(0.8944 0.4472 0)
(0.8944 0.4472 0)
(0.8944 0.4472 0)
(0.8944 0.4472 0)
(0.8944 0.4472 0)
(0.8944 0.4472 0)
(0.8944 0.4472 0)
(0.8944 0.4472 0)
(0.8944 0.4472 0)
(0.8944 0.4472 0)
(0.8944 0.4472 0)
(0.8944 0.4472 0)
(0.8944 0.4472 0)
(0.8944 0.4472 0)
(0.8944 0.4472 0)
(0.8944 0.4472 0)
(0.8944 0.4472 0)
(0.8944 0.4472 0)
(0.8944 0.4472 0)
(0.8944 0.4472 0)
(0.8944 0.4472 0)
(0.8944 0.4472 0)
(0.8944 0.4472 0)
(0.8944 0.4472 0)
(0.8944 0.4472 0)
(0.8944 0.4472 0)
(0.8944 0.4472 0)
(0.8944 0.4472 0)
(0.8944 0.4472 0)
(0.8944 0.4472 0)
(0.8944 0.4472 0)
(0.8944 0.4472 0)
(0.8944 0.4472 0)
(0.8944 0.4472 0)
(0.8944 0.4472 0)
(0.8944 0.4472 0)
(0.8944 0.4472 0)
(0.8944 0.4472 0)
(0.8944 0.4472 0)
(0.8944 0.4472 0)
(0.8944 0.4472 0)
(0.894401 0.4472 0)
(0.894401 0.4472 0)
(0.894402 0.447199 0)
(0.894404 0.447197 0)
(0.894406 0.447195 0)
(0.894408 0.447191 0)
(0.894411 0.447186 0)
(0.894413 0.447179 0)
(0.894416 0.447172 0)
(0.894417 0.447163 0)
(0.894417 0.447155 0)
(0.894415 0.447147 0)
(0.89441 0.447141 0)
(0.894404 0.447138 0)
(0.894397 0.447139 0)
(0.894388 0.447145 0)
(0.894379 0.447155 0)
(0.894372 0.447168 0)
(0.894366 0.447186 0)
(0.894363 0.447205 0)
(0.894363 0.447224 0)
(0.894365 0.447243 0)
(0.894371 0.447259 0)
(0.894378 0.447271 0)
(0.894387 0.447279 0)
(0.894395 0.447282 0)
(0.894403 0.447281 0)
(0.894409 0.447277 0)
(0.894414 0.447269 0)
(0.894417 0.44726 0)
(0.894417 0.44725 0)
(0.894417 0.44724 0)
(0.894415 0.447231 0)
(0.894413 0.447223 0)
(0.894411 0.447217 0)
(0.894408 0.447211 0)
(0.894406 0.447207 0)
(0.894404 0.447205 0)
(0.894403 0.447203 0)
(0.894402 0.447201 0)
(0.894401 0.447201 0)
(0.894401 0.4472 0)
(0.8944 0.4472 0)
(0.8944 0.4472 0)
(0.8944 0.4472 0)
(0.8944 0.4472 0)
(0.8944 0.4472 0)
(0.8944 0.4472 0)
(0.8944 0.4472 0)
(0.8944 0.4472 0)
(0.8944 0.4472 0)
(0.8944 0.4472 0)
(0.8944 0.4472 0)
(0.8944 0.4472 0)
(0.8944 0.4472 0)
(0.8944 0.4472 0)
(0.8944 0.4472 0)
(0.8944 0.4472 0)
(0.8944 0.4472 0)
(0.8944 0.4472 0)
(0.8944 0.4472 0)
(0.8944 0.4472 0)
(0.8944 0.4472 0)
(0.8944 0.4472 0)
(0.8944 0.4472 0)
(0.8944 0.4472 0)
(0.8944 0.4472 0)
(0.8944 0.4472 0)
(0.8944 0.4472 0)
(0.8944 0.4472 0)
(0.8944 0.4472 0)
(0.8944 0.4472 0)
(0.8944 0.4472 0)
(0.8944 0.4472 0)
(0.8944 0.4472 0)
(0.8944 0.4472 0)
(0.8944 0.4472 0)
(0.8944 0.4472 0)
(0.8944 0.4472 0)
(0.8944 0.4472 0)
(0.8944 0.4472 0)
(0.8944 0.4472 0)
(0.8944 0.4472 0)
(0.8944 0.4472 0)
(0.8944 0.4472 0)
(0.8944 0.4472 0)
(0.8944 0.4472 0)
(0.8944 0.4472 0)
(0.8944 0.4472 0)
(0.8944 0.4472 0)
(0.8944 0.4472 0)
(0.8944 0.4472 0)
(0.8944 0.4472 0)
(0.8944 0.4472 0)
(0.8944 0.4472 0)
(0.8944 0.4472 0)
(0.8944 0.4472 0)
(0.8944 0.4472 0)
(0.8944 0.4472 0)
(0.8944 0.4472 0)
(0.894401 0.4472 0)
(0.894402 0.4472 0)
(0.894404 0.447199 0)
(0.894405 0.447196 0)
(0.894409 0.447193 0)
(0.894412 0.447188 0)
(0.894416 0.447181 0)
(0.89442 0.447172 0)
(0.894423 0.447161 0)
(0.894424 0.44715 0)
(0.894424 0.447139 0)
(0.89442 0.447129 0)
(0.894414 0.447122 0)
(0.894404 0.447119 0)
(0.894393 0.447123 0)
(0.89438 0.447132 0)
(0.894368 0.447148 0)
(0.894357 0.447168 0)
(0.894349 0.447193 0)
(0.894345 0.447221 0)
(0.894345 0.447248 0)
(0.894349 0.447273 0)
(0.894358 0.447294 0)
(0.894369 0.44731 0)
(0.894381 0.44732 0)
(0.894394 0.447323 0)
(0.894405 0.44732 0)
(0.894414 0.447312 0)
(0.894421 0.4473 0)
(0.894425 0.447287 0)
(0.894426 0.447272 0)
(0.894425 0.447258 0)
(0.894423 0.447244 0)
(0.89442 0.447233 0)
(0.894416 0.447223 0)
(0.894412 0.447216 0)
(0.894409 0.44721 0)
(0.894406 0.447206 0)
(0.894404 0.447204 0)
(0.894403 0.447202 0)
(0.894402 0.447201 0)
(0.894401 0.4472 0)
(0.8944 0.4472 0)
(0.8944 0.4472 0)
(0.8944 0.4472 0)
(0.8944 0.4472 0)
(0.8944 0.4472 0)
(0.8944 0.4472 0)
(0.8944 0.4472 0)
(0.8944 0.4472 0)
(0.8944 0.4472 0)
(0.8944 0.4472 0)
(0.8944 0.4472 0)
(0.8944 0.4472 0)
(0.8944 0.4472 0)
(0.8944 0.4472 0)
(0.8944 0.4472 0)
(0.8944 0.4472 0)
(0.8944 0.4472 0)
(0.8944 0.4472 0)
(0.8944 0.4472 0)
(0.8944 0.4472 0)
(0.8944 0.4472 0)
(0.8944 0.4472 0)
(0.8944 0.4472 0)
(0.8944 0.4472 0)
(0.8944 0.4472 0)
(0.8944 0.4472 0)
(0.8944 0.4472 0)
(0.8944 0.4472 0)
(0.8944 0.4472 0)
(0.8944 0.4472 0)
(0.8944 0.4472 0)
(0.8944 0.4472 0)
(0.8944 0.4472 0)
(0.8944 0.4472 0)
(0.8944 0.4472 0)
(0.8944 0.4472 0)
(0.8944 0.4472 0)
(0.8944 0.4472 0)
(0.8944 0.4472 0)
(0.8944 0.4472 0)
(0.8944 0.4472 0)
(0.8944 0.4472 0)
(0.8944 0.4472 0)
(0.8944 0.4472 0)
(0.8944 0.4472 0)
(0.8944 0.4472 0)
(0.8944 0.4472 0)
(0.8944 0.4472 0)
(0.8944 0.4472 0)
(0.8944 0.4472 0)
(0.8944 0.4472 0)
(0.8944 0.4472 0)
(0.8944 0.4472 0)
(0.8944 0.4472 0)
(0.8944 0.4472 0)
(0.8944 0.447201 0)
(0.8944 0.447201 0)
(0.8944 0.447201 0)
(0.894401 0.447201 0)
(0.894403 0.4472 0)
(0.894405 0.447198 0)
(0.894408 0.447196 0)
(0.894412 0.447191 0)
(0.894417 0.447184 0)
(0.894423 0.447175 0)
(0.894428 0.447163 0)
(0.894432 0.447149 0)
(0.894434 0.447134 0)
(0.894432 0.44712 0)
(0.894426 0.447109 0)
(0.894417 0.447102 0)
(0.894403 0.447102 0)
(0.894386 0.447109 0)
(0.894367 0.447125 0)
(0.89435 0.447149 0)
(0.894334 0.44718 0)
(0.894323 0.447217 0)
(0.894318 0.447255 0)
(0.89432 0.447292 0)
(0.894327 0.447326 0)
(0.89434 0.447353 0)
(0.894356 0.447372 0)
(0.894375 0.447382 0)
(0.894393 0.447383 0)
(0.894409 0.447376 0)
(0.894422 0.447363 0)
(0.894432 0.447345 0)
(0.894437 0.447324 0)
(0.894439 0.447302 0)
(0.894437 0.447281 0)
(0.894434 0.447262 0)
(0.894429 0.447246 0)
(0.894423 0.447232 0)
(0.894418 0.447222 0)
(0.894413 0.447214 0)
(0.894409 0.447208 0)
(0.894406 0.447205 0)
(0.894404 0.447202 0)
(0.894402 0.447201 0)
(0.894401 0.4472 0)
(0.894401 0.4472 0)
(0.8944 0.4472 0)
(0.8944 0.4472 0)
(0.8944 0.4472 0)
(0.8944 0.4472 0)
(0.8944 0.4472 0)
(0.8944 0.4472 0)
(0.8944 0.4472 0)
(0.8944 0.4472 0)
(0.8944 0.4472 0)
(0.8944 0.4472 0)
(0.8944 0.4472 0)
(0.8944 0.4472 0)
(0.8944 0.4472 0)
(0.8944 0.4472 0)
(0.8944 0.4472 0)
(0.8944 0.4472 0)
(0.8944 0.4472 0)
(0.8944 0.4472 0)
(0.8944 0.4472 0)
(0.8944 0.4472 0)
(0.8944 0.4472 0)
(0.8944 0.4472 0)
(0.8944 0.4472 0)
(0.8944 0.4472 0)
(0.8944 0.4472 0)
(0.8944 0.4472 0)
(0.8944 0.4472 0)
(0.8944 0.4472 0)
(0.8944 0.4472 0)
(0.8944 0.4472 0)
(0.8944 0.4472 0)
(0.8944 0.4472 0)
(0.8944 0.4472 0)
(0.8944 0.4472 0)
(0.8944 0.4472 0)
(0.8944 0.4472 0)
(0.8944 0.4472 0)
(0.8944 0.4472 0)
(0.8944 0.4472 0)
(0.8944 0.4472 0)
(0.8944 0.4472 0)
(0.8944 0.4472 0)
(0.8944 0.4472 0)
(0.8944 0.4472 0)
(0.8944 0.4472 0)
(0.8944 0.4472 0)
(0.8944 0.4472 0)
(0.8944 0.4472 0)
(0.8944 0.4472 0)
(0.8944 0.4472 0)
(0.8944 0.4472 0)
(0.8944 0.4472 0)
(0.8944 0.4472 0)
(0.894399 0.447201 0)
(0.8944 0.447201 0)
(0.8944 0.447201 0)
(0.8944 0.447202 0)
(0.894401 0.447202 0)
(0.894403 0.447201 0)
(0.894407 0.447199 0)
(0.894411 0.447195 0)
(0.894417 0.447189 0)
(0.894424 0.44718 0)
(0.894432 0.447168 0)
(0.894439 0.447152 0)
(0.894443 0.447135 0)
(0.894445 0.447117 0)
(0.894442 0.447101 0)
(0.894432 0.44709 0)
(0.894417 0.447085 0)
(0.894396 0.44709 0)
(0.894372 0.447106 0)
(0.894345 0.447133 0)
(0.894321 0.447172 0)
(0.8943 0.447218 0)
(0.894286 0.44727 0)
(0.894281 0.447323 0)
(0.894285 0.447373 0)
(0.894297 0.447416 0)
(0.894316 0.447449 0)
(0.894341 0.44747 0)
(0.894367 0.447478 0)
(0.894394 0.447474 0)
(0.894417 0.44746 0)
(0.894435 0.447437 0)
(0.894448 0.447408 0)
(0.894455 0.447376 0)
(0.894457 0.447344 0)
(0.894455 0.447313 0)
(0.894449 0.447286 0)
(0.894442 0.447262 0)
(0.894434 0.447244 0)
(0.894426 0.447229 0)
(0.894419 0.447218 0)
(0.894413 0.44721 0)
(0.894409 0.447205 0)
(0.894405 0.447202 0)
(0.894403 0.447201 0)
(0.894402 0.4472 0)
(0.894401 0.447199 0)
(0.8944 0.447199 0)
(0.8944 0.447199 0)
(0.8944 0.4472 0)
(0.8944 0.4472 0)
(0.8944 0.4472 0)
(0.8944 0.4472 0)
(0.8944 0.4472 0)
(0.8944 0.4472 0)
(0.8944 0.4472 0)
(0.8944 0.4472 0)
(0.8944 0.4472 0)
(0.8944 0.4472 0)
(0.8944 0.4472 0)
(0.8944 0.4472 0)
(0.8944 0.4472 0)
(0.8944 0.4472 0)
(0.8944 0.4472 0)
(0.8944 0.4472 0)
(0.8944 0.4472 0)
(0.8944 0.4472 0)
(0.8944 0.4472 0)
(0.8944 0.4472 0)
(0.8944 0.4472 0)
(0.8944 0.4472 0)
(0.8944 0.4472 0)
(0.8944 0.4472 0)
(0.8944 0.4472 0)
(0.8944 0.4472 0)
(0.8944 0.4472 0)
(0.8944 0.4472 0)
(0.8944 0.4472 0)
(0.8944 0.4472 0)
(0.8944 0.4472 0)
(0.8944 0.4472 0)
(0.8944 0.4472 0)
(0.8944 0.4472 0)
(0.8944 0.4472 0)
(0.8944 0.4472 0)
(0.8944 0.4472 0)
(0.8944 0.4472 0)
(0.8944 0.4472 0)
(0.8944 0.4472 0)
(0.8944 0.4472 0)
(0.8944 0.4472 0)
(0.8944 0.4472 0)
(0.8944 0.4472 0)
(0.8944 0.4472 0)
(0.8944 0.4472 0)
(0.8944 0.4472 0)
(0.8944 0.4472 0)
(0.8944 0.4472 0)
(0.8944 0.4472 0)
(0.894399 0.447201 0)
(0.894399 0.447201 0)
(0.894399 0.447202 0)
(0.894399 0.447202 0)
(0.8944 0.447203 0)
(0.894402 0.447203 0)
(0.894405 0.447202 0)
(0.894409 0.4472 0)
(0.894416 0.447195 0)
(0.894424 0.447187 0)
(0.894433 0.447176 0)
(0.894443 0.447161 0)
(0.894452 0.447142 0)
(0.894457 0.447121 0)
(0.894458 0.447102 0)
(0.894451 0.447085 0)
(0.894436 0.447077 0)
(0.894412 0.447079 0)
(0.894381 0.447096 0)
(0.894346 0.447127 0)
(0.894309 0.447173 0)
(0.894276 0.447233 0)
(0.894249 0.447303 0)
(0.894232 0.447377 0)
(0.894227 0.44745 0)
(0.894236 0.447516 0)
(0.894256 0.447569 0)
(0.894286 0.447607 0)
(0.894322 0.447627 0)
(0.894361 0.447629 0)
(0.894398 0.447613 0)
(0.89443 0.447584 0)
(0.894456 0.447545 0)
(0.894473 0.447498 0)
(0.894482 0.44745 0)
(0.894483 0.447402 0)
(0.894479 0.447357 0)
(0.894471 0.447318 0)
(0.89446 0.447285 0)
(0.894448 0.447258 0)
(0.894437 0.447238 0)
(0.894427 0.447223 0)
(0.894419 0.447213 0)
(0.894412 0.447206 0)
(0.894408 0.447202 0)
(0.894404 0.4472 0)
(0.894402 0.447199 0)
(0.894401 0.447199 0)
(0.8944 0.447199 0)
(0.8944 0.447199 0)
(0.8944 0.447199 0)
(0.8944 0.447199 0)
(0.8944 0.4472 0)
(0.8944 0.4472 0)
(0.8944 0.4472 0)
(0.8944 0.4472 0)
(0.8944 0.4472 0)
(0.8944 0.4472 0)
(0.8944 0.4472 0)
(0.8944 0.4472 0)
(0.8944 0.4472 0)
(0.8944 0.4472 0)
(0.8944 0.4472 0)
(0.8944 0.4472 0)
(0.8944 0.4472 0)
(0.8944 0.4472 0)
(0.8944 0.4472 0)
(0.8944 0.4472 0)
(0.8944 0.4472 0)
(0.8944 0.4472 0)
(0.8944 0.4472 0)
(0.8944 0.4472 0)
(0.8944 0.4472 0)
(0.8944 0.4472 0)
(0.8944 0.4472 0)
(0.8944 0.4472 0)
(0.8944 0.4472 0)
(0.8944 0.4472 0)
(0.8944 0.4472 0)
(0.8944 0.4472 0)
(0.8944 0.4472 0)
(0.8944 0.4472 0)
(0.8944 0.4472 0)
(0.8944 0.4472 0)
(0.8944 0.4472 0)
(0.8944 0.4472 0)
(0.8944 0.4472 0)
(0.8944 0.4472 0)
(0.8944 0.4472 0)
(0.8944 0.4472 0)
(0.8944 0.4472 0)
(0.8944 0.4472 0)
(0.8944 0.4472 0)
(0.8944 0.4472 0)
(0.8944 0.4472 0)
(0.8944 0.4472 0)
(0.8944 0.4472 0)
(0.8944 0.4472 0)
(0.8944 0.4472 0)
(0.894399 0.447201 0)
(0.894399 0.447201 0)
(0.894399 0.447202 0)
(0.894399 0.447203 0)
(0.894399 0.447204 0)
(0.8944 0.447205 0)
(0.894402 0.447205 0)
(0.894406 0.447204 0)
(0.894412 0.447202 0)
(0.894421 0.447196 0)
(0.894432 0.447187 0)
(0.894444 0.447173 0)
(0.894457 0.447155 0)
(0.894467 0.447133 0)
(0.894472 0.447111 0)
(0.894469 0.447093 0)
(0.894456 0.447081 0)
(0.894431 0.447082 0)
(0.894395 0.447099 0)
(0.89435 0.447137 0)
(0.8943 0.447195 0)
(0.894249 0.447273 0)
(0.894204 0.447367 0)
(0.894169 0.447471 0)
(0.894151 0.447576 0)
(0.89415 0.447676 0)
(0.894167 0.447762 0)
(0.894201 0.447826 0)
(0.894248 0.447866 0)
(0.894302 0.447878 0)
(0.894358 0.447864 0)
(0.89441 0.447827 0)
(0.894454 0.447772 0)
(0.894488 0.447705 0)
(0.89451 0.44763 0)
(0.894521 0.447555 0)
(0.894522 0.447483 0)
(0.894514 0.447418 0)
(0.894501 0.447361 0)
(0.894485 0.447314 0)
(0.894468 0.447277 0)
(0.894452 0.447249 0)
(0.894438 0.447229 0)
(0.894426 0.447215 0)
(0.894417 0.447207 0)
(0.89441 0.447201 0)
(0.894406 0.447199 0)
(0.894403 0.447198 0)
(0.894401 0.447198 0)
(0.8944 0.447198 0)
(0.8944 0.447198 0)
(0.8944 0.447199 0)
(0.8944 0.447199 0)
(0.8944 0.447199 0)
(0.8944 0.4472 0)
(0.8944 0.4472 0)
(0.8944 0.4472 0)
(0.8944 0.4472 0)
(0.8944 0.4472 0)
(0.8944 0.4472 0)
(0.8944 0.4472 0)
(0.8944 0.4472 0)
(0.8944 0.4472 0)
(0.8944 0.4472 0)
(0.8944 0.4472 0)
(0.8944 0.4472 0)
(0.8944 0.4472 0)
(0.8944 0.4472 0)
(0.8944 0.4472 0)
(0.8944 0.4472 0)
(0.8944 0.4472 0)
(0.8944 0.4472 0)
(0.8944 0.4472 0)
(0.8944 0.4472 0)
(0.8944 0.4472 0)
(0.8944 0.4472 0)
(0.8944 0.4472 0)
(0.8944 0.4472 0)
(0.8944 0.4472 0)
(0.8944 0.4472 0)
(0.8944 0.4472 0)
(0.8944 0.4472 0)
(0.8944 0.4472 0)
(0.8944 0.4472 0)
(0.8944 0.4472 0)
(0.8944 0.4472 0)
(0.8944 0.4472 0)
(0.8944 0.4472 0)
(0.8944 0.4472 0)
(0.8944 0.4472 0)
(0.8944 0.4472 0)
(0.8944 0.4472 0)
(0.8944 0.4472 0)
(0.8944 0.4472 0)
(0.8944 0.4472 0)
(0.8944 0.4472 0)
(0.8944 0.4472 0)
(0.8944 0.4472 0)
(0.8944 0.4472 0)
(0.894399 0.447201 0)
(0.894399 0.447201 0)
(0.894399 0.447202 0)
(0.894398 0.447203 0)
(0.894398 0.447204 0)
(0.894398 0.447206 0)
(0.894399 0.447208 0)
(0.894402 0.447209 0)
(0.894407 0.447209 0)
(0.894415 0.447206 0)
(0.894427 0.447199 0)
(0.894441 0.447189 0)
(0.894457 0.447173 0)
(0.894472 0.447153 0)
(0.894483 0.447131 0)
(0.894485 0.447111 0)
(0.894476 0.447099 0)
(0.894451 0.4471 0)
(0.894411 0.447121 0)
(0.894355 0.447168 0)
(0.894289 0.447243 0)
(0.894217 0.447346 0)
(0.894148 0.447474 0)
(0.894089 0.447621 0)
(0.894047 0.447775 0)
(0.894029 0.447926 0)
(0.894037 0.448063 0)
(0.894071 0.448173 0)
(0.894127 0.448248 0)
(0.8942 0.448284 0)
(0.89428 0.448278 0)
(0.894361 0.448234 0)
(0.894435 0.448158 0)
(0.894495 0.448059 0)
(0.89454 0.447945 0)
(0.894568 0.447826 0)
(0.89458 0.447709 0)
(0.894577 0.4476 0)
(0.894564 0.447503 0)
(0.894544 0.447421 0)
(0.89452 0.447354 0)
(0.894495 0.447302 0)
(0.894472 0.447264 0)
(0.894452 0.447236 0)
(0.894435 0.447218 0)
(0.894422 0.447206 0)
(0.894413 0.4472 0)
(0.894407 0.447197 0)
(0.894403 0.447196 0)
(0.894401 0.447196 0)
(0.8944 0.447196 0)
(0.894399 0.447197 0)
(0.894399 0.447198 0)
(0.894399 0.447199 0)
(0.894399 0.447199 0)
(0.8944 0.447199 0)
(0.8944 0.4472 0)
(0.8944 0.4472 0)
(0.8944 0.4472 0)
(0.8944 0.4472 0)
(0.8944 0.4472 0)
(0.8944 0.4472 0)
(0.8944 0.4472 0)
(0.8944 0.4472 0)
(0.8944 0.4472 0)
(0.8944 0.4472 0)
(0.8944 0.4472 0)
(0.8944 0.4472 0)
(0.8944 0.4472 0)
(0.8944 0.4472 0)
(0.8944 0.4472 0)
(0.8944 0.4472 0)
(0.8944 0.4472 0)
(0.8944 0.4472 0)
(0.8944 0.4472 0)
(0.8944 0.4472 0)
(0.8944 0.4472 0)
(0.8944 0.4472 0)
(0.8944 0.4472 0)
(0.8944 0.4472 0)
(0.8944 0.4472 0)
(0.8944 0.4472 0)
(0.8944 0.4472 0)
(0.8944 0.4472 0)
(0.8944 0.4472 0)
(0.8944 0.4472 0)
(0.8944 0.4472 0)
(0.8944 0.4472 0)
(0.8944 0.4472 0)
(0.8944 0.4472 0)
(0.8944 0.4472 0)
(0.8944 0.4472 0)
(0.8944 0.4472 0)
(0.8944 0.4472 0)
(0.8944 0.4472 0)
(0.8944 0.4472 0)
(0.8944 0.4472 0)
(0.8944 0.4472 0)
(0.8944 0.4472 0)
(0.894399 0.4472 0)
(0.894399 0.447201 0)
(0.894398 0.447202 0)
(0.894398 0.447203 0)
(0.894397 0.447205 0)
(0.894396 0.447207 0)
(0.894396 0.447209 0)
(0.894398 0.447212 0)
(0.894402 0.447214 0)
(0.894408 0.447215 0)
(0.894419 0.447212 0)
(0.894434 0.447206 0)
(0.894451 0.447194 0)
(0.89447 0.447179 0)
(0.894486 0.447159 0)
(0.894495 0.447141 0)
(0.894491 0.44713 0)
(0.894468 0.447135 0)
(0.894425 0.447162 0)
(0.89436 0.447223 0)
(0.894275 0.44732 0)
(0.894178 0.447458 0)
(0.894076 0.447634 0)
(0.893982 0.44784 0)
(0.893906 0.448065 0)
(0.893858 0.448295 0)
(0.893845 0.448511 0)
(0.89387 0.448697 0)
(0.893932 0.448838 0)
(0.894024 0.448923 0)
(0.894136 0.448945 0)
(0.894257 0.448905 0)
(0.894375 0.44881 0)
(0.89448 0.448669 0)
(0.894564 0.448497 0)
(0.894623 0.448309 0)
(0.894657 0.448118 0)
(0.894668 0.447935 0)
(0.894659 0.447769 0)
(0.894636 0.447625 0)
(0.894605 0.447505 0)
(0.894569 0.44741 0)
(0.894533 0.447336 0)
(0.894499 0.447282 0)
(0.894471 0.447245 0)
(0.894448 0.44722 0)
(0.89443 0.447205 0)
(0.894417 0.447197 0)
(0.894409 0.447193 0)
(0.894403 0.447192 0)
(0.8944 0.447193 0)
(0.894399 0.447194 0)
(0.894398 0.447195 0)
(0.894398 0.447197 0)
(0.894399 0.447198 0)
(0.894399 0.447198 0)
(0.894399 0.447199 0)
(0.8944 0.447199 0)
(0.8944 0.4472 0)
(0.8944 0.4472 0)
(0.8944 0.4472 0)
(0.8944 0.4472 0)
(0.8944 0.4472 0)
(0.8944 0.4472 0)
(0.8944 0.4472 0)
(0.8944 0.4472 0)
(0.8944 0.4472 0)
(0.8944 0.4472 0)
(0.8944 0.4472 0)
(0.8944 0.4472 0)
(0.8944 0.4472 0)
(0.8944 0.4472 0)
(0.8944 0.4472 0)
(0.8944 0.4472 0)
(0.8944 0.4472 0)
(0.8944 0.4472 0)
(0.8944 0.4472 0)
(0.8944 0.4472 0)
(0.8944 0.4472 0)
(0.8944 0.4472 0)
(0.8944 0.4472 0)
(0.8944 0.4472 0)
(0.8944 0.4472 0)
(0.8944 0.4472 0)
(0.8944 0.4472 0)
(0.8944 0.4472 0)
(0.8944 0.4472 0)
(0.8944 0.4472 0)
(0.8944 0.4472 0)
(0.8944 0.4472 0)
(0.8944 0.4472 0)
(0.8944 0.4472 0)
(0.8944 0.4472 0)
(0.8944 0.4472 0)
(0.8944 0.4472 0)
(0.8944 0.4472 0)
(0.8944 0.4472 0)
(0.8944 0.4472 0)
(0.8944 0.4472 0)
(0.894399 0.447201 0)
(0.894399 0.447201 0)
(0.894399 0.447201 0)
(0.894398 0.447203 0)
(0.894396 0.447204 0)
(0.894395 0.447207 0)
(0.894394 0.44721 0)
(0.894394 0.447214 0)
(0.894396 0.447218 0)
(0.8944 0.447222 0)
(0.894409 0.447224 0)
(0.894422 0.447223 0)
(0.89444 0.447217 0)
(0.894461 0.447207 0)
(0.894481 0.447194 0)
(0.894496 0.44718 0)
(0.894498 0.447174 0)
(0.894479 0.447184 0)
(0.894434 0.447222 0)
(0.894359 0.447299 0)
(0.894254 0.447426 0)
(0.894125 0.447608 0)
(0.893983 0.447846 0)
(0.893839 0.448134 0)
(0.893712 0.448457 0)
(0.893615 0.448799 0)
(0.893563 0.449136 0)
(0.893562 0.449443 0)
(0.893618 0.449698 0)
(0.893725 0.449878 0)
(0.893873 0.44997 0)
(0.894048 0.449967 0)
(0.894231 0.44987 0)
(0.894405 0.449692 0)
(0.894556 0.449449 0)
(0.894672 0.449163 0)
(0.894751 0.448859 0)
(0.894791 0.448556 0)
(0.894798 0.448273 0)
(0.894779 0.44802 0)
(0.89474 0.447804 0)
(0.894691 0.447627 0)
(0.894637 0.447488 0)
(0.894584 0.447384 0)
(0.894537 0.447308 0)
(0.894496 0.447256 0)
(0.894464 0.447223 0)
(0.894439 0.447203 0)
(0.894422 0.447192 0)
(0.89441 0.447188 0)
(0.894403 0.447187 0)
(0.894399 0.447189 0)
(0.894398 0.447191 0)
(0.894397 0.447193 0)
(0.894397 0.447195 0)
(0.894398 0.447197 0)
(0.894398 0.447198 0)
(0.894399 0.447199 0)
(0.894399 0.447199 0)
(0.8944 0.447199 0)
(0.8944 0.4472 0)
(0.8944 0.4472 0)
(0.8944 0.4472 0)
(0.8944 0.4472 0)
(0.8944 0.4472 0)
(0.8944 0.4472 0)
(0.8944 0.4472 0)
(0.8944 0.4472 0)
(0.8944 0.4472 0)
(0.8944 0.4472 0)
(0.8944 0.4472 0)
(0.8944 0.4472 0)
(0.8944 0.4472 0)
(0.8944 0.4472 0)
(0.8944 0.4472 0)
(0.8944 0.4472 0)
(0.8944 0.4472 0)
(0.8944 0.4472 0)
(0.8944 0.4472 0)
(0.8944 0.4472 0)
(0.8944 0.4472 0)
(0.8944 0.4472 0)
(0.8944 0.4472 0)
(0.8944 0.4472 0)
(0.8944 0.4472 0)
(0.8944 0.4472 0)
(0.8944 0.4472 0)
(0.8944 0.4472 0)
(0.8944 0.4472 0)
(0.8944 0.4472 0)
(0.8944 0.4472 0)
(0.8944 0.4472 0)
(0.8944 0.4472 0)
(0.8944 0.4472 0)
(0.8944 0.4472 0)
(0.8944 0.4472 0)
(0.8944 0.4472 0)
(0.8944 0.4472 0)
(0.8944 0.4472 0)
(0.8944 0.4472 0)
(0.894399 0.447201 0)
(0.894398 0.447201 0)
(0.894398 0.447202 0)
(0.894396 0.447204 0)
(0.894394 0.447207 0)
(0.894393 0.44721 0)
(0.894391 0.447215 0)
(0.894391 0.44722 0)
(0.894392 0.447227 0)
(0.894398 0.447233 0)
(0.894407 0.447237 0)
(0.894424 0.447239 0)
(0.894444 0.447236 0)
(0.894467 0.44723 0)
(0.894486 0.447224 0)
(0.894495 0.447225 0)
(0.894481 0.447244 0)
(0.894436 0.447294 0)
(0.894351 0.447391 0)
(0.894224 0.447552 0)
(0.894059 0.447787 0)
(0.893863 0.448102 0)
(0.893655 0.448492 0)
(0.893453 0.448944 0)
(0.893281 0.449438 0)
(0.893158 0.449945 0)
(0.893103 0.450433 0)
(0.893127 0.450867 0)
(0.893231 0.451214 0)
(0.893409 0.451446 0)
(0.893645 0.451545 0)
(0.893915 0.451501 0)
(0.894193 0.451319 0)
(0.894453 0.451016 0)
(0.894672 0.450619 0)
(0.894838 0.450164 0)
(0.894944 0.449684 0)
(0.894992 0.449214 0)
(0.894992 0.448778 0)
(0.894955 0.448393 0)
(0.894891 0.448069 0)
(0.894814 0.447807 0)
(0.894734 0.447604 0)
(0.894656 0.447453 0)
(0.894588 0.447345 0)
(0.89453 0.447273 0)
(0.894485 0.447226 0)
(0.894451 0.4472 0)
(0.894428 0.447186 0)
(0.894412 0.447181 0)
(0.894403 0.447181 0)
(0.894398 0.447183 0)
(0.894396 0.447186 0)
(0.894395 0.44719 0)
(0.894396 0.447193 0)
(0.894397 0.447195 0)
(0.894397 0.447197 0)
(0.894398 0.447198 0)
(0.894399 0.447199 0)
(0.894399 0.447199 0)
(0.8944 0.4472 0)
(0.8944 0.4472 0)
(0.8944 0.4472 0)
(0.8944 0.4472 0)
(0.8944 0.4472 0)
(0.8944 0.4472 0)
(0.8944 0.4472 0)
(0.8944 0.4472 0)
(0.8944 0.4472 0)
(0.8944 0.4472 0)
(0.8944 0.4472 0)
(0.8944 0.4472 0)
(0.8944 0.4472 0)
(0.8944 0.4472 0)
(0.8944 0.4472 0)
(0.8944 0.4472 0)
(0.8944 0.4472 0)
(0.8944 0.4472 0)
(0.8944 0.4472 0)
(0.8944 0.4472 0)
(0.8944 0.4472 0)
(0.8944 0.4472 0)
(0.8944 0.4472 0)
(0.8944 0.4472 0)
(0.8944 0.4472 0)
(0.8944 0.4472 0)
(0.8944 0.4472 0)
(0.8944 0.4472 0)
(0.8944 0.4472 0)
(0.8944 0.4472 0)
(0.8944 0.4472 0)
(0.8944 0.4472 0)
(0.8944 0.4472 0)
(0.8944 0.4472 0)
(0.8944 0.4472 0)
(0.8944 0.4472 0)
(0.8944 0.4472 0)
(0.8944 0.4472 0)
(0.8944 0.4472 0)
(0.894399 0.447201 0)
(0.894399 0.447201 0)
(0.894398 0.447202 0)
(0.894396 0.447203 0)
(0.894395 0.447206 0)
(0.894392 0.447209 0)
(0.894389 0.447214 0)
(0.894387 0.447221 0)
(0.894385 0.447229 0)
(0.894386 0.447239 0)
(0.894393 0.447248 0)
(0.894404 0.447256 0)
(0.894422 0.447262 0)
(0.894444 0.447265 0)
(0.894466 0.447269 0)
(0.894478 0.44728 0)
(0.894471 0.447308 0)
(0.894426 0.447371 0)
(0.894334 0.447491 0)
(0.894184 0.447687 0)
(0.893977 0.447981 0)
(0.893719 0.448382 0)
(0.893427 0.448893 0)
(0.893124 0.449502 0)
(0.89284 0.450188 0)
(0.892606 0.450917 0)
(0.89245 0.45165 0)
(0.892395 0.452341 0)
(0.892455 0.452943 0)
(0.892633 0.453414 0)
(0.892917 0.453716 0)
(0.893283 0.453824 0)
(0.893698 0.453726 0)
(0.89412 0.453426 0)
(0.89451 0.45295 0)
(0.894835 0.452337 0)
(0.895076 0.451637 0)
(0.895225 0.450904 0)
(0.895287 0.450188 0)
(0.895276 0.449527 0)
(0.895211 0.448947 0)
(0.89511 0.448462 0)
(0.894992 0.448074 0)
(0.894871 0.447776 0)
(0.894758 0.447556 0)
(0.894659 0.447401 0)
(0.894577 0.447298 0)
(0.894514 0.447234 0)
(0.894467 0.447196 0)
(0.894435 0.447178 0)
(0.894414 0.447172 0)
(0.894401 0.447172 0)
(0.894395 0.447176 0)
(0.894393 0.44718 0)
(0.894393 0.447185 0)
(0.894394 0.447189 0)
(0.894395 0.447193 0)
(0.894396 0.447195 0)
(0.894397 0.447197 0)
(0.894398 0.447198 0)
(0.894399 0.447199 0)
(0.894399 0.447199 0)
(0.8944 0.4472 0)
(0.8944 0.4472 0)
(0.8944 0.4472 0)
(0.8944 0.4472 0)
(0.8944 0.4472 0)
(0.8944 0.4472 0)
(0.8944 0.4472 0)
(0.8944 0.4472 0)
(0.8944 0.4472 0)
(0.8944 0.4472 0)
(0.8944 0.4472 0)
(0.8944 0.4472 0)
(0.8944 0.4472 0)
(0.8944 0.4472 0)
(0.8944 0.4472 0)
(0.8944 0.4472 0)
(0.8944 0.4472 0)
(0.8944 0.4472 0)
(0.8944 0.4472 0)
(0.8944 0.4472 0)
(0.8944 0.4472 0)
(0.8944 0.4472 0)
(0.8944 0.4472 0)
(0.8944 0.4472 0)
(0.8944 0.4472 0)
(0.8944 0.4472 0)
(0.8944 0.4472 0)
(0.8944 0.4472 0)
(0.8944 0.4472 0)
(0.8944 0.4472 0)
(0.8944 0.4472 0)
(0.8944 0.4472 0)
(0.8944 0.4472 0)
(0.8944 0.4472 0)
(0.8944 0.4472 0)
(0.8944 0.4472 0)
(0.8944 0.4472 0)
(0.894399 0.4472 0)
(0.894399 0.447201 0)
(0.894398 0.447202 0)
(0.894397 0.447202 0)
(0.894395 0.447205 0)
(0.894392 0.447208 0)
(0.894388 0.447212 0)
(0.894383 0.447219 0)
(0.89438 0.447229 0)
(0.894377 0.44724 0)
(0.894378 0.447254 0)
(0.894384 0.447268 0)
(0.894396 0.447282 0)
(0.894415 0.447295 0)
(0.894437 0.44731 0)
(0.894451 0.447331 0)
(0.894446 0.447371 0)
(0.894405 0.447447 0)
(0.894308 0.447586 0)
(0.894137 0.447816 0)
(0.893886 0.448167 0)
(0.893556 0.448659 0)
(0.893162 0.449301 0)
(0.892729 0.450088 0)
(0.892293 0.450998 0)
(0.891893 0.451996 0)
(0.891573 0.453034 0)
(0.89137 0.454057 0)
(0.891315 0.455008 0)
(0.891425 0.455826 0)
(0.891706 0.456458 0)
(0.892139 0.456855 0)
(0.892693 0.456983 0)
(0.893318 0.456823 0)
(0.893955 0.45638 0)
(0.894545 0.455682 0)
(0.895037 0.454782 0)
(0.895399 0.453752 0)
(0.89562 0.452668 0)
(0.895707 0.451606 0)
(0.895684 0.450624 0)
(0.895579 0.449764 0)
(0.895424 0.449045 0)
(0.895246 0.448471 0)
(0.895067 0.448033 0)
(0.894902 0.447713 0)
(0.894759 0.447489 0)
(0.894643 0.44734 0)
(0.894553 0.447248 0)
(0.894488 0.447195 0)
(0.894444 0.447169 0)
(0.894415 0.44716 0)
(0.894399 0.447161 0)
(0.894391 0.447166 0)
(0.894388 0.447173 0)
(0.894389 0.447179 0)
(0.89439 0.447185 0)
(0.894392 0.44719 0)
(0.894394 0.447193 0)
(0.894396 0.447196 0)
(0.894397 0.447197 0)
(0.894398 0.447198 0)
(0.894399 0.447199 0)
(0.894399 0.447199 0)
(0.8944 0.4472 0)
(0.8944 0.4472 0)
(0.8944 0.4472 0)
(0.8944 0.4472 0)
(0.8944 0.4472 0)
(0.8944 0.4472 0)
(0.8944 0.4472 0)
(0.8944 0.4472 0)
(0.8944 0.4472 0)
(0.8944 0.4472 0)
(0.8944 0.4472 0)
(0.8944 0.4472 0)
(0.8944 0.4472 0)
(0.8944 0.4472 0)
(0.8944 0.4472 0)
(0.8944 0.4472 0)
(0.8944 0.4472 0)
(0.8944 0.4472 0)
(0.8944 0.4472 0)
(0.8944 0.4472 0)
(0.8944 0.4472 0)
(0.8944 0.4472 0)
(0.8944 0.4472 0)
(0.8944 0.4472 0)
(0.8944 0.4472 0)
(0.8944 0.4472 0)
(0.8944 0.4472 0)
(0.8944 0.4472 0)
(0.8944 0.4472 0)
(0.8944 0.4472 0)
(0.8944 0.4472 0)
(0.8944 0.4472 0)
(0.8944 0.4472 0)
(0.8944 0.4472 0)
(0.8944 0.4472 0)
(0.8944 0.4472 0)
(0.894399 0.4472 0)
(0.894399 0.447201 0)
(0.894397 0.447202 0)
(0.894395 0.447203 0)
(0.894393 0.447206 0)
(0.894389 0.447211 0)
(0.894383 0.447217 0)
(0.894377 0.447227 0)
(0.894371 0.44724 0)
(0.894366 0.447255 0)
(0.894366 0.447274 0)
(0.894371 0.447295 0)
(0.894383 0.447317 0)
(0.894399 0.447342 0)
(0.894414 0.447374 0)
(0.894411 0.447425 0)
(0.894373 0.447514 0)
(0.894273 0.447669 0)
(0.894087 0.447926 0)
(0.893794 0.448325 0)
(0.893387 0.4489 0)
(0.892877 0.449674 0)
(0.892286 0.450647 0)
(0.891655 0.451801 0)
(0.891032 0.453098 0)
(0.890471 0.454484 0)
(0.890029 0.455898 0)
(0.889753 0.457271 0)
(0.889688 0.458531 0)
(0.889858 0.45961 0)
(0.890268 0.460442 0)
(0.890902 0.460969 0)
(0.891714 0.461142 0)
(0.892639 0.460933 0)
(0.893591 0.460338 0)
(0.894483 0.459385 0)
(0.895234 0.458138 0)
(0.895794 0.456689 0)