/*--------------------------------*- C++ -*----------------------------------*\
  =========                 |
  \\      /  F ield         | OpenFOAM: The Open Source CFD Toolbox
   \\    /   O peration     | Website:  https://openfoam.org
    \\  /    A nd           | Version:  6
     \\/     M anipulation  |
\*---------------------------------------------------------------------------*/
FoamFile
{
    version     2.0;
    format      ascii;
    class       volScalarField;
    location    "3.17";
    object      p;
}
// * * * * * * * * * * * * * * * * * * * * * * * * * * * * * * * * * * * * * //

dimensions      [1 -1 -2 0 0 0 0];

internalField   nonuniform List<scalar> 
22500
(
1
1
1
1
1
1
1
1
1
1
1
1
1
1
1
1
1
1
1
1
1
1
1
1
1
1
1
1
1
1
1
1
1
1
1
1
1
1
1
1
1
1
1
1
1
1
1
1
1
1
1
1
1
1
1
1
1
1
1
1
1
1
1
1
1
1
0.999999
1
0.999999
0.999999
0.999998
0.999998
0.999997
0.999996
0.999995
0.999994
0.999993
0.999991
0.99999
0.999988
0.999986
0.999985
0.999984
0.999983
0.999982
0.999982
0.999982
0.999982
0.999984
0.999985
0.999987
0.99999
0.999993
0.999996
0.999999
1
1.00001
1.00001
1.00001
1.00002
1.00002
1.00002
1.00002
1.00002
1.00002
1.00002
1.00002
1.00002
1.00002
1.00002
1.00002
1.00001
1.00001
1.00001
1.00001
1.00001
1.00001
1.00001
1
1
1
1
1
1
1
1
1
1
1
1
1
1
1
1
1
1
1
1
1
1
1
1
1
1
1
1
1
1
1
1
1
1
1
1
1
1
1
1
1
1
1
1
1
1
1
1
1
1
1
1
1
1
1
1
1
1
1
1
1
1
1
1
1
1
1
1
1
1
1
1
1
1
1
1
1
1
1
1
1
1
1
1
1
1
1
1
1
1
1
1
1
1
1
1
1
1
0.999999
0.999999
0.999999
0.999999
0.999998
0.999997
0.999996
0.999995
0.999994
0.999992
0.99999
0.999989
0.999987
0.999985
0.999983
0.999981
0.999979
0.999978
0.999978
0.999978
0.999978
0.999979
0.99998
0.999983
0.999985
0.999989
0.999993
0.999997
1
1.00001
1.00001
1.00001
1.00002
1.00002
1.00002
1.00003
1.00003
1.00003
1.00003
1.00003
1.00003
1.00003
1.00003
1.00002
1.00002
1.00002
1.00002
1.00001
1.00001
1.00001
1.00001
1.00001
1.00001
1
1
1
1
1
1
1
1
1
1
1
1
1
1
1
1
1
1
1
1
1
1
1
1
1
1
1
1
1
1
1
1
1
1
1
1
1
1
1
1
1
1
1
1
1
1
1
1
1
1
1
1
1
1
1
1
1
1
1
1
1
1
1
1
1
1
1
1
1
1
1
1
1
1
1
1
1
1
1
1
1
1
1
1
1
1
1
1
1
1
1
1
1
1
1
1
1
0.999999
0.999999
0.999999
0.999998
0.999997
0.999996
0.999995
0.999993
0.999992
0.99999
0.999988
0.999986
0.999983
0.999981
0.999978
0.999976
0.999975
0.999973
0.999972
0.999972
0.999973
0.999975
0.999977
0.99998
0.999984
0.999989
0.999994
1
1.00001
1.00001
1.00002
1.00002
1.00003
1.00003
1.00003
1.00004
1.00004
1.00004
1.00004
1.00004
1.00004
1.00004
1.00003
1.00003
1.00003
1.00002
1.00002
1.00002
1.00002
1.00001
1.00001
1.00001
1.00001
1.00001
1
1
1
1
1
1
1
1
1
1
1
1
1
1
1
1
1
1
1
1
1
1
1
1
1
1
1
1
1
1
1
1
1
1
1
1
1
1
1
1
1
1
1
1
1
1
1
1
1
1
1
1
1
1
1
1
1
1
1
1
1
1
1
1
1
1
1
1
1
1
1
1
1
1
1
1
1
1
1
1
1
1
1
1
1
1
1
1
1
1
1
1
1
1
1
1
0.999999
0.999999
0.999999
0.999998
0.999997
0.999996
0.999994
0.999992
0.99999
0.999987
0.999985
0.999982
0.999979
0.999976
0.999973
0.999971
0.999969
0.999968
0.999968
0.999968
0.99997
0.999972
0.999976
0.99998
0.999986
0.999992
0.999998
1.00001
1.00001
1.00002
1.00003
1.00003
1.00004
1.00004
1.00005
1.00005
1.00005
1.00005
1.00005
1.00005
1.00005
1.00005
1.00004
1.00004
1.00004
1.00003
1.00003
1.00002
1.00002
1.00002
1.00001
1.00001
1.00001
1.00001
1.00001
1
1
1
1
1
1
1
1
1
1
1
1
1
1
1
1
1
1
1
1
1
1
1
1
1
1
1
1
1
1
1
1
1
1
1
1
1
1
1
1
1
1
1
1
1
1
1
1
1
1
1
1
1
1
1
1
1
1
1
1
1
1
1
1
1
1
1
1
1
1
1
1
1
1
1
1
1
1
1
1
1
1
1
1
1
1
1
1
1
1
1
1
1
1
1
0.999999
0.999999
0.999998
0.999997
0.999996
0.999994
0.999992
0.99999
0.999987
0.999985
0.999981
0.999978
0.999974
0.999971
0.999968
0.999966
0.999964
0.999962
0.999963
0.999964
0.999967
0.999971
0.999976
0.999983
0.99999
0.999998
1.00001
1.00002
1.00003
1.00003
1.00004
1.00005
1.00006
1.00006
1.00007
1.00007
1.00007
1.00007
1.00007
1.00007
1.00006
1.00006
1.00006
1.00005
1.00005
1.00004
1.00004
1.00003
1.00003
1.00002
1.00002
1.00001
1.00001
1.00001
1.00001
1
1
1
1
1
1
1
1
1
1
1
1
1
1
1
1
1
1
1
1
1
1
1
1
1
1
1
1
1
1
1
1
1
1
1
1
1
1
1
1
1
1
1
1
1
1
1
1
1
1
1
1
1
1
1
1
1
1
1
1
1
1
1
1
1
1
1
1
1
1
1
1
1
1
1
1
1
1
1
1
1
1
1
1
1
1
1
1
1
1
1
1
1
1
1
0.999999
0.999999
0.999998
0.999996
0.999995
0.999993
0.999991
0.999988
0.999985
0.999981
0.999977
0.999973
0.999969
0.999966
0.999962
0.99996
0.999959
0.999959
0.99996
0.999963
0.999968
0.999974
0.999982
0.999991
1
1.00001
1.00002
1.00004
1.00005
1.00006
1.00007
1.00008
1.00008
1.00009
1.00009
1.0001
1.0001
1.0001
1.00009
1.00009
1.00008
1.00008
1.00007
1.00007
1.00006
1.00005
1.00005
1.00004
1.00003
1.00003
1.00002
1.00002
1.00001
1.00001
1.00001
1.00001
1
1
1
1
1
1
1
1
1
1
1
1
1
1
1
1
1
1
1
1
1
1
1
1
1
1
1
1
1
1
1
1
1
1
1
1
1
1
1
1
1
1
1
1
1
1
1
1
1
1
1
1
1
1
1
1
1
1
1
1
1
1
1
1
1
1
1
1
1
1
1
1
1
1
1
1
1
1
1
1
1
1
1
1
1
1
1
1
1
1
1
1
1
1
0.999999
0.999999
0.999997
0.999996
0.999994
0.999992
0.999989
0.999985
0.999981
0.999977
0.999973
0.999968
0.999964
0.999961
0.999957
0.999955
0.999955
0.999957
0.99996
0.999966
0.999974
0.999984
0.999995
1.00001
1.00002
1.00004
1.00005
1.00007
1.00008
1.0001
1.00011
1.00012
1.00013
1.00013
1.00013
1.00014
1.00013
1.00013
1.00013
1.00012
1.00011
1.0001
1.0001
1.00009
1.00008
1.00007
1.00006
1.00005
1.00004
1.00003
1.00003
1.00002
1.00002
1.00001
1.00001
1.00001
1.00001
1
1
1
1
1
1
1
1
1
1
1
1
1
1
1
1
1
1
1
1
1
1
1
1
1
1
1
1
1
1
1
1
1
1
1
1
1
1
1
1
1
1
1
1
1
1
1
1
1
1
1
1
1
1
1
1
1
1
1
1
1
1
1
1
1
1
1
1
1
1
1
1
1
1
1
1
1
1
1
1
1
1
1
1
1
1
1
1
1
1
1
1
1
0.999999
0.999999
0.999997
0.999995
0.999993
0.99999
0.999987
0.999983
0.999978
0.999973
0.999969
0.999963
0.999959
0.999956
0.999954
0.999953
0.999955
0.99996
0.999967
0.999976
0.999989
1
1.00002
1.00004
1.00006
1.00008
1.0001
1.00012
1.00014
1.00016
1.00017
1.00018
1.00019
1.00019
1.00019
1.00019
1.00019
1.00018
1.00017
1.00016
1.00015
1.00014
1.00013
1.00011
1.0001
1.00009
1.00008
1.00006
1.00005
1.00004
1.00004
1.00003
1.00002
1.00002
1.00001
1.00001
1.00001
1
1
1
1
1
1
1
1
1
1
1
1
1
1
1
1
1
1
1
1
1
1
1
1
1
1
1
1
1
1
1
1
1
1
1
1
1
1
1
1
1
1
1
1
1
1
1
1
1
1
1
1
1
1
1
1
1
1
1
1
1
1
1
1
1
1
1
1
1
1
1
1
1
1
1
1
1
1
1
1
1
1
1
1
1
1
1
1
1
1
1
1
1
0.999999
0.999998
0.999997
0.999995
0.999992
0.999989
0.999985
0.99998
0.999975
0.999969
0.999964
0.99996
0.999956
0.999954
0.999954
0.999956
0.999961
0.999971
0.999984
0.999999
1.00002
1.00004
1.00007
1.00009
1.00012
1.00015
1.00018
1.0002
1.00023
1.00025
1.00026
1.00027
1.00028
1.00028
1.00028
1.00028
1.00027
1.00025
1.00024
1.00022
1.0002
1.00019
1.00017
1.00015
1.00013
1.00011
1.0001
1.00008
1.00007
1.00006
1.00004
1.00004
1.00003
1.00002
1.00002
1.00001
1.00001
1.00001
1
1
1
1
1
1
1
1
1
1
1
1
1
1
1
1
1
1
1
1
1
1
1
1
1
1
1
1
1
1
1
1
1
1
1
1
1
1
1
1
1
1
1
1
1
1
1
1
1
1
1
1
1
1
1
1
1
1
1
1
1
1
1
1
1
1
1
1
1
1
1
1
1
1
1
1
1
1
1
1
1
1
1
1
1
1
1
1
1
1
1
1
0.999999
0.999998
0.999997
0.999994
0.999991
0.999987
0.999982
0.999977
0.999972
0.999966
0.999962
0.999958
0.999956
0.999956
0.99996
0.999967
0.999978
0.999994
1.00002
1.00004
1.00007
1.00011
1.00014
1.00018
1.00022
1.00026
1.0003
1.00033
1.00036
1.00039
1.0004
1.00042
1.00042
1.00042
1.00041
1.0004
1.00038
1.00036
1.00033
1.00031
1.00028
1.00025
1.00022
1.0002
1.00017
1.00015
1.00012
1.0001
1.00009
1.00007
1.00006
1.00004
1.00003
1.00003
1.00002
1.00001
1.00001
1.00001
1
1
1
1
1
0.999999
0.999999
0.999999
0.999999
0.999999
1
1
1
1
1
1
1
1
1
1
1
1
1
1
1
1
1
1
1
1
1
1
1
1
1
1
1
1
1
1
1
1
1
1
1
1
1
1
1
1
1
1
1
1
1
1
1
1
1
1
1
1
1
1
1
1
1
1
1
1
1
1
1
1
1
1
1
1
1
1
1
1
1
1
1
1
1
1
1
1
1
1
1
0.999998
0.999997
0.999994
0.99999
0.999986
0.999981
0.999976
0.99997
0.999965
0.999961
0.99996
0.999961
0.999966
0.999975
0.99999
1.00001
1.00004
1.00007
1.00011
1.00016
1.00021
1.00026
1.00032
1.00038
1.00043
1.00048
1.00053
1.00056
1.00059
1.00061
1.00062
1.00062
1.00061
1.0006
1.00057
1.00054
1.00051
1.00047
1.00043
1.00038
1.00034
1.0003
1.00026
1.00023
1.00019
1.00016
1.00013
1.00011
1.00009
1.00007
1.00006
1.00004
1.00003
1.00002
1.00002
1.00001
1.00001
1
1
1
1
0.999999
0.999999
0.999999
0.999999
0.999999
0.999999
0.999999
1
1
1
1
1
1
1
1
1
1
1
1
1
1
1
1
1
1
1
1
1
1
1
1
1
1
1
1
1
1
1
1
1
1
1
1
1
1
1
1
1
1
1
1
1
1
1
1
1
1
1
1
1
1
1
1
1
1
1
1
1
1
1
1
1
1
1
1
1
1
1
1
1
1
1
1
1
1
1
1
1
1
0.999999
0.999997
0.999994
0.99999
0.999985
0.99998
0.999975
0.99997
0.999967
0.999966
0.999968
0.999974
0.999986
1.00001
1.00003
1.00007
1.00011
1.00017
1.00023
1.0003
1.00037
1.00045
1.00053
1.00061
1.00068
1.00075
1.00081
1.00086
1.00089
1.00091
1.00092
1.00092
1.0009
1.00087
1.00082
1.00077
1.00072
1.00066
1.0006
1.00053
1.00047
1.00041
1.00035
1.0003
1.00026
1.00021
1.00018
1.00014
1.00011
1.00009
1.00007
1.00005
1.00004
1.00003
1.00002
1.00001
1.00001
1
1
1
0.999999
0.999999
0.999998
0.999998
0.999998
0.999999
0.999999
0.999999
0.999999
0.999999
1
1
1
1
1
1
1
1
1
1
1
1
1
1
1
1
1
1
1
1
1
1
1
1
1
1
1
1
1
1
1
1
1
1
1
1
1
1
1
1
1
1
1
1
1
1
1
1
1
1
1
1
1
1
1
1
1
1
1
1
1
1
1
1
1
1
1
1
1
1
1
1
1
1
1
1
1
1
1
1
1
0.999997
0.999994
0.99999
0.999986
0.999981
0.999977
0.999974
0.999973
0.999977
0.999985
1
1.00002
1.00006
1.0001
1.00016
1.00023
1.00031
1.0004
1.0005
1.00061
1.00072
1.00084
1.00095
1.00105
1.00114
1.00122
1.00128
1.00132
1.00135
1.00135
1.00133
1.0013
1.00125
1.00118
1.0011
1.00102
1.00093
1.00083
1.00074
1.00065
1.00056
1.00048
1.00041
1.00034
1.00028
1.00023
1.00019
1.00015
1.00012
1.00009
1.00007
1.00005
1.00003
1.00002
1.00002
1.00001
1
1
1
0.999999
0.999998
0.999998
0.999998
0.999998
0.999998
0.999998
0.999999
0.999999
0.999999
0.999999
1
1
1
1
1
1
1
1
1
1
1
1
1
1
1
1
1
1
1
1
1
1
1
1
1
1
1
1
1
1
1
1
1
1
1
1
1
1
1
1
1
1
1
1
1
1
1
1
1
1
1
1
1
1
1
1
1
1
1
1
1
1
1
1
1
1
1
1
1
1
1
1
1
1
1
1.00001
1
1
1
1
0.999999
0.999996
0.999992
0.999988
0.999985
0.999982
0.999982
0.999987
0.999998
1.00002
1.00005
1.00009
1.00014
1.00022
1.0003
1.00041
1.00053
1.00066
1.00081
1.00097
1.00112
1.00128
1.00143
1.00157
1.00169
1.0018
1.00187
1.00193
1.00195
1.00195
1.00192
1.00186
1.00178
1.00168
1.00157
1.00144
1.0013
1.00117
1.00103
1.0009
1.00078
1.00066
1.00056
1.00046
1.00038
1.00031
1.00024
1.00019
1.00015
1.00011
1.00008
1.00006
1.00004
1.00003
1.00002
1.00001
1
1
0.999999
0.999998
0.999997
0.999997
0.999997
0.999997
0.999997
0.999998
0.999998
0.999999
0.999999
0.999999
0.999999
1
1
1
1
1
1
1
1
1
1
1
1
1
1
1
1
1
1
1
1
1
1
1
1
1
1
1
1
1
1
1
1
1
1
1
1
1
1
1
1
1
1
1
1
1
1
1
1
1
1
1
1
1
1
1
1
1
1
1
1
1
1
1
1
1
1
1
1
1
1
1
1
1.00001
1.00001
1.00001
1.00001
1.00001
1.00001
1
1
0.999999
0.999996
0.999993
0.999992
0.999993
0.999999
1.00001
1.00003
1.00007
1.00012
1.00019
1.00028
1.00039
1.00052
1.00067
1.00085
1.00104
1.00125
1.00147
1.00169
1.0019
1.00211
1.0023
1.00246
1.0026
1.0027
1.00276
1.00279
1.00278
1.00273
1.00264
1.00252
1.00237
1.0022
1.00202
1.00183
1.00163
1.00144
1.00125
1.00107
1.00091
1.00076
1.00063
1.00051
1.00041
1.00033
1.00025
1.00019
1.00015
1.00011
1.00008
1.00005
1.00004
1.00002
1.00001
1.00001
1
0.999998
0.999996
0.999995
0.999995
0.999996
0.999996
0.999997
0.999997
0.999998
0.999998
0.999999
0.999999
0.999999
0.999999
1
1
1
1
1
1
1
1
1
1
1
1
1
1
1
1
1
1
1
1
1
1
1
1
1
1
1
1
1
1
1
1
1
1
1
1
1
1
1
1
1
1
1
1
1
1
1
1
1
1
1
1
1
1
1
1
1
1
1
1
1
1
1
1
1
1
1
1
1
1
1.00001
1.00001
1.00001
1.00001
1.00001
1.00001
1.00001
1.00001
1.00001
1
1
1
1
1.00001
1.00003
1.00005
1.00009
1.00015
1.00023
1.00034
1.00047
1.00064
1.00083
1.00105
1.0013
1.00158
1.00187
1.00217
1.00247
1.00276
1.00304
1.00329
1.00351
1.00369
1.00382
1.0039
1.00392
1.0039
1.00382
1.00369
1.00352
1.00331
1.00308
1.00282
1.00254
1.00227
1.00199
1.00173
1.00148
1.00125
1.00104
1.00085
1.00069
1.00055
1.00044
1.00034
1.00026
1.00019
1.00014
1.0001
1.00007
1.00004
1.00003
1.00001
1.00001
1
0.999996
0.999995
0.999994
0.999994
0.999994
0.999995
0.999995
0.999996
0.999997
0.999998
0.999998
0.999999
0.999999
0.999999
1
1
1
1
1
1
1
1
1
1
1
1
1
1
1
1
1
1
1
1
1
1
1
1
1
1
1
1
1
1
1
1
1
1
1
1
1
1
1
1
1
1
1
1
1
1
1
1
1
1
1
1
1
1
1
1
1
1
1
1
1
1
1
1
1
1
1
1
1.00001
1.00001
1.00001
1.00001
1.00001
1.00001
1.00001
1.00001
1.00001
1.00001
1.00001
1.00001
1.00001
1.00002
1.00003
1.00004
1.00007
1.00012
1.00018
1.00028
1.0004
1.00056
1.00075
1.00099
1.00127
1.00159
1.00194
1.00231
1.00271
1.00312
1.00353
1.00392
1.00429
1.00462
1.00491
1.00514
1.0053
1.0054
1.00543
1.00539
1.00528
1.0051
1.00486
1.00457
1.00425
1.00389
1.00351
1.00313
1.00275
1.00238
1.00204
1.00172
1.00143
1.00117
1.00094
1.00075
1.00059
1.00045
1.00034
1.00026
1.00019
1.00013
1.00009
1.00006
1.00003
1.00002
1.00001
1
0.999995
0.999993
0.999992
0.999992
0.999992
0.999993
0.999994
0.999995
0.999996
0.999997
0.999998
0.999998
0.999999
0.999999
0.999999
1
1
1
1
1
1
1
1
1
1
1
1
1
1
1
1
1
1
1
1
1
1
1
1
1
1
1
1
1
1
1
1
1
1
1
1
1
1
1
1
1
1
1
1
1
1
1
1
1
1
1
1
1
1
1
1
1
1
1
1
1
1
1
1
1
1
1
1.00001
1.00001
1.00001
1.00001
1.00001
1.00002
1.00002
1.00002
1.00002
1.00002
1.00002
1.00002
1.00003
1.00004
1.00006
1.00009
1.00014
1.00021
1.00032
1.00046
1.00064
1.00087
1.00116
1.00149
1.00188
1.00232
1.0028
1.00331
1.00385
1.00439
1.00493
1.00545
1.00593
1.00636
1.00673
1.00703
1.00724
1.00736
1.00739
1.00733
1.00717
1.00693
1.00662
1.00623
1.00579
1.00531
1.0048
1.00428
1.00376
1.00326
1.00279
1.00235
1.00195
1.0016
1.00129
1.00102
1.0008
1.00061
1.00046
1.00034
1.00025
1.00017
1.00012
1.00008
1.00005
1.00002
1.00001
0.999999
0.999993
0.99999
0.999989
0.999989
0.99999
0.999991
0.999992
0.999994
0.999995
0.999996
0.999997
0.999998
0.999998
0.999999
0.999999
0.999999
1
1
1
1
1
1
1
1
1
1
1
1
1
1
1
1
1
1
1
1
1
1
1
1
1
1
1
1
1
1
1
1
1
1
1
1
1
1
1
1
1
1
1
1
1
1
1
1
1
1
1
1
1
1
1
1
1
1
1
1
1
1
1
1
1
1.00001
1.00001
1.00001
1.00001
1.00002
1.00002
1.00002
1.00002
1.00002
1.00003
1.00003
1.00003
1.00004
1.00005
1.00007
1.00011
1.00016
1.00024
1.00035
1.00051
1.00072
1.00098
1.00131
1.00171
1.00217
1.00271
1.0033
1.00395
1.00463
1.00534
1.00606
1.00676
1.00743
1.00805
1.0086
1.00907
1.00944
1.0097
1.00985
1.00988
1.00979
1.00959
1.00928
1.00886
1.00836
1.00778
1.00715
1.00648
1.00579
1.0051
1.00443
1.00379
1.0032
1.00265
1.00217
1.00175
1.00139
1.00108
1.00083
1.00062
1.00046
1.00033
1.00023
1.00016
1.0001
1.00006
1.00003
1.00001
0.999999
0.999992
0.999988
0.999986
0.999986
0.999987
0.999989
0.99999
0.999992
0.999994
0.999995
0.999996
0.999997
0.999998
0.999998
0.999999
0.999999
0.999999
1
1
1
1
1
1
1
1
1
1
1
1
1
1
1
1
1
1
1
1
1
1
1
1
1
1
1
1
1
1
1
1
1
1
1
1
1
1
1
1
1
1
1
1
1
1
1
1
1
1
1
1
1
1
1
1
1
1
1
1
1
1
1
1.00001
1.00001
1.00001
1.00001
1.00002
1.00002
1.00002
1.00003
1.00003
1.00003
1.00004
1.00004
1.00005
1.00006
1.00009
1.00012
1.00018
1.00026
1.00038
1.00055
1.00078
1.00108
1.00145
1.00191
1.00245
1.00309
1.00381
1.0046
1.00545
1.00635
1.00727
1.00819
1.00908
1.00993
1.0107
1.01139
1.01197
1.01242
1.01274
1.01293
1.01296
1.01285
1.01259
1.0122
1.01168
1.01104
1.01031
1.00949
1.00863
1.00773
1.00683
1.00595
1.0051
1.00431
1.00359
1.00294
1.00237
1.00188
1.00147
1.00112
1.00085
1.00062
1.00045
1.00031
1.00021
1.00014
1.00008
1.00004
1.00002
1
0.99999
0.999985
0.999982
0.999982
0.999984
0.999985
0.999988
0.99999
0.999992
0.999994
0.999995
0.999996
0.999997
0.999998
0.999999
0.999999
0.999999
1
1
1
1
1
1
1
1
1
1
1
1
1
1
1
1
1
1
1
1
1
1
1
1
1
1
1
1
1
1
1
1
1
1
1
1
1
1
1
1
1
1
1
1
1
1
1
1
1
1
1
1
1
1
1
1
1
1
1
1
1
1
1.00001
1.00001
1.00001
1.00001
1.00002
1.00002
1.00002
1.00003
1.00003
1.00004
1.00004
1.00005
1.00006
1.00008
1.0001
1.00013
1.00019
1.00028
1.00041
1.00058
1.00083
1.00115
1.00156
1.00208
1.00271
1.00344
1.00429
1.00524
1.00628
1.00738
1.00853
1.00969
1.01084
1.01195
1.01299
1.01394
1.01477
1.01547
1.01601
1.0164
1.01661
1.01665
1.01652
1.01621
1.01573
1.0151
1.01432
1.01341
1.0124
1.01132
1.01018
1.00903
1.00789
1.00679
1.00576
1.0048
1.00395
1.00319
1.00253
1.00198
1.00152
1.00114
1.00084
1.00061
1.00043
1.00029
1.00019
1.00011
1.00006
1.00003
1
0.999989
0.999982
0.999979
0.999978
0.99998
0.999982
0.999984
0.999987
0.99999
0.999992
0.999994
0.999995
0.999997
0.999997
0.999998
0.999999
0.999999
0.999999
1
1
1
1
1
1
1
1
1
1
1
1
1
1
1
1
1
1
1
1
1
1
1
1
1
1
1
1
1
1
1
1
1
1
1
1
1
1
1
1
1
1
1
1
1
1
1
1
1
1
1
1
1
1
1
1
1
1
1
1
1
1.00001
1.00001
1.00001
1.00002
1.00002
1.00003
1.00003
1.00004
1.00004
1.00005
1.00006
1.00007
1.00008
1.00011
1.00015
1.0002
1.00029
1.00042
1.0006
1.00086
1.0012
1.00165
1.00222
1.00292
1.00376
1.00473
1.00584
1.00707
1.0084
1.00979
1.01122
1.01266
1.01406
1.0154
1.01665
1.01777
1.01874
1.01955
1.02018
1.02062
1.02086
1.02091
1.02075
1.0204
1.01985
1.01911
1.01819
1.01712
1.01591
1.01459
1.01319
1.01176
1.01033
1.00893
1.0076
1.00637
1.00525
1.00425
1.00339
1.00266
1.00204
1.00154
1.00114
1.00082
1.00058
1.00039
1.00026
1.00016
1.00009
1.00004
1.00001
0.99999
0.99998
0.999975
0.999974
0.999975
0.999978
0.999981
0.999984
0.999987
0.99999
0.999992
0.999994
0.999996
0.999997
0.999998
0.999998
0.999999
0.999999
0.999999
1
1
1
1
1
1
1
1
1
1
1
1
1
1
1
1
1
1
1
1
1
1
1
1
1
1
1
1
1
1
1
1
1
1
1
1
1
1
1
1
1
1
1
1
1
1
1
1
1
1
1
1
1
1
1
1
1
1
1
1.00001
1.00001
1.00001
1.00002
1.00002
1.00002
1.00003
1.00004
1.00005
1.00005
1.00006
1.00008
1.00009
1.00012
1.00015
1.00021
1.00029
1.00042
1.00061
1.00087
1.00122
1.0017
1.00231
1.00307
1.00401
1.00511
1.00638
1.0078
1.00935
1.01101
1.01273
1.01447
1.01619
1.01785
1.01941
1.02084
1.02211
1.0232
1.0241
1.02479
1.02528
1.02555
1.0256
1.02543
1.02505
1.02445
1.02363
1.02261
1.02139
1.01999
1.01844
1.01679
1.01506
1.0133
1.01157
1.0099
1.00834
1.0069
1.00562
1.0045
1.00353
1.00273
1.00207
1.00153
1.00111
1.00078
1.00054
1.00035
1.00022
1.00013
1.00006
1.00002
0.999993
0.999978
0.999971
0.999969
0.99997
0.999973
0.999977
0.999981
0.999984
0.999988
0.99999
0.999993
0.999995
0.999996
0.999997
0.999998
0.999999
0.999999
0.999999
1
1
1
1
1
1
1
1
1
1
1
1
1
1
1
1
1
1
1
1
1
1
1
1
1
1
1
1
1
1
1
1
1
1
1
1
1
1
1
1
1
1
1
1
0.999999
1
1
1
1
1
1
1
1
1
1
1
1
1
1
1.00001
1.00001
1.00001
1.00002
1.00002
1.00003
1.00004
1.00005
1.00006
1.00007
1.00008
1.0001
1.00012
1.00016
1.00021
1.00029
1.00042
1.0006
1.00086
1.00122
1.00171
1.00235
1.00317
1.00418
1.00539
1.00681
1.00843
1.01022
1.01214
1.01415
1.01621
1.01826
1.02026
1.02214
1.02389
1.02545
1.02682
1.02798
1.02892
1.02964
1.03013
1.03041
1.03047
1.0303
1.02992
1.0293
1.02846
1.02738
1.02607
1.02455
1.02282
1.02093
1.01892
1.01684
1.01475
1.01271
1.01077
1.00897
1.00734
1.0059
1.00466
1.00361
1.00275
1.00204
1.00149
1.00106
1.00073
1.00048
1.00031
1.00018
1.00009
1.00004
1
0.999979
0.999968
0.999964
0.999965
0.999968
0.999972
0.999976
0.999981
0.999985
0.999988
0.999991
0.999993
0.999995
0.999997
0.999998
0.999998
0.999999
0.999999
0.999999
1
1
1
1
1
1
1
1
1
1
1
1
1
1
1
1
1
1
1
1
1
1
1
1
1
1
1
1
1
1
1
1
1
1
1
1
1
1
1
1
1
1
1
1
1
1
1
1
1
1
1
1
1
1
1
1
1
1.00001
1.00001
1.00001
1.00002
1.00002
1.00003
1.00004
1.00005
1.00006
1.00007
1.00008
1.0001
1.00013
1.00016
1.00021
1.00029
1.00041
1.00058
1.00084
1.0012
1.00169
1.00235
1.0032
1.00427
1.00558
1.00714
1.00893
1.01094
1.01313
1.01544
1.01782
1.02021
1.02253
1.02474
1.02678
1.02862
1.03024
1.03162
1.03276
1.03367
1.03435
1.03481
1.03507
1.03513
1.03498
1.03463
1.03406
1.03327
1.03222
1.03093
1.02937
1.02755
1.02551
1.02328
1.02091
1.01848
1.01605
1.0137
1.01149
1.00946
1.00765
1.00608
1.00473
1.00362
1.00271
1.00198
1.00142
1.00098
1.00066
1.00042
1.00026
1.00014
1.00006
1.00001
0.999982
0.999967
0.99996
0.99996
0.999962
0.999967
0.999972
0.999977
0.999982
0.999986
0.999989
0.999992
0.999994
0.999996
0.999997
0.999998
0.999999
0.999999
0.999999
1
1
1
1
1
1
1
1
1
1
1
1
1
1
1
1
1
1
1
1
1
1
1
1
1
1
1
1
1
1
1
1
1
1
1
1
1
1
1
1
1
1
1
1
1
1
1
1
1
1
1
1
1
1
1
1
1.00001
1.00001
1.00001
1.00002
1.00002
1.00003
1.00004
1.00004
1.00006
1.00007
1.00008
1.0001
1.00013
1.00016
1.00021
1.00028
1.00039
1.00055
1.0008
1.00115
1.00163
1.00229
1.00316
1.00427
1.00566
1.00733
1.00928
1.0115
1.01394
1.01654
1.01924
1.02196
1.02461
1.02712
1.02944
1.03151
1.03333
1.03486
1.03613
1.03713
1.03791
1.03847
1.03884
1.03904
1.03909
1.03898
1.03871
1.03826
1.0376
1.03671
1.03556
1.03411
1.03235
1.03029
1.02796
1.02539
1.02268
1.0199
1.01714
1.0145
1.01203
1.0098
1.00783
1.00614
1.00471
1.00355
1.00261
1.00188
1.00131
1.00089
1.00058
1.00036
1.0002
1.0001
1.00003
0.99999
0.999967
0.999957
0.999954
0.999956
0.999961
0.999967
0.999973
0.999978
0.999983
0.999987
0.99999
0.999993
0.999995
0.999996
0.999997
0.999998
0.999999
0.999999
0.999999
1
1
1
1
1
1
1
1
1
1
1
1
1
1
1
1
1
1
1
1
1
1
1
1
1
1
1
1
1
1
1
1
1
1
1
1
1
1
1
1
1
1
1
1
1
1
1
1
1
1
1
1
1
1
1
1.00001
1.00001
1.00001
1.00002
1.00003
1.00003
1.00004
1.00005
1.00007
1.00008
1.0001
1.00013
1.00016
1.0002
1.00027
1.00037
1.00052
1.00075
1.00108
1.00154
1.00219
1.00306
1.00419
1.00562
1.00737
1.00946
1.01186
1.01453
1.01742
1.02042
1.02346
1.02642
1.02922
1.03177
1.03404
1.03598
1.03759
1.03888
1.03987
1.0406
1.04113
1.04148
1.04169
1.0418
1.04182
1.04176
1.04161
1.04135
1.04094
1.04034
1.03949
1.03833
1.03683
1.03495
1.03269
1.03009
1.02722
1.02417
1.02105
1.01798
1.01506
1.01237
1.00996
1.00786
1.00608
1.0046
1.00341
1.00247
1.00174
1.00119
1.00079
1.00049
1.00029
1.00015
1.00006
1
0.999971
0.999955
0.999949
0.99995
0.999955
0.999961
0.999968
0.999974
0.99998
0.999985
0.999988
0.999992
0.999994
0.999996
0.999997
0.999998
0.999999
0.999999
0.999999
1
1
1
1
1
1
1
1
1
1
1
1
1
1
1
1
1
1
1
1
1
1
1
1
1
1
1
1
1
1
1
1
1
1
1
1
1
1
1
1
1
1
1
1
1
1
1
1
1
1
1
1
1
1
1.00001
1.00001
1.00001
1.00002
1.00002
1.00003
1.00004
1.00005
1.00006
1.00008
1.0001
1.00012
1.00015
1.00019
1.00026
1.00035
1.00048
1.00069
1.00099
1.00143
1.00205
1.00289
1.00402
1.00546
1.00727
1.00945
1.012
1.01488
1.01802
1.02132
1.02466
1.02792
1.03098
1.03375
1.03616
1.03816
1.03975
1.04095
1.0418
1.04235
1.04268
1.04283
1.04288
1.04287
1.04284
1.04283
1.04283
1.04283
1.04283
1.04276
1.04257
1.04218
1.04151
1.04048
1.03902
1.03709
1.03468
1.03185
1.02869
1.02533
1.0219
1.01854
1.01537
1.01248
1.00993
1.00774
1.0059
1.0044
1.00321
1.00228
1.00158
1.00105
1.00067
1.0004
1.00022
1.0001
1.00002
0.999979
0.999955
0.999946
0.999945
0.999949
0.999955
0.999962
0.99997
0.999976
0.999982
0.999986
0.99999
0.999993
0.999995
0.999996
0.999998
0.999998
0.999999
0.999999
1
1
1
1
1
1
1
1
1
1
1
1
1
1
1
1
1
1
1
1
1
1
1
1
1
1
1
1
1
1
1
1
1
1
1
1
1
1
1
1
1
1
1
1
1
1
1
1
1
1
1
1
1
1
1.00001
1.00001
1.00001
1.00002
1.00003
1.00003
1.00005
1.00006
1.00007
1.00009
1.00012
1.00015
1.00019
1.00024
1.00032
1.00044
1.00063
1.0009
1.00131
1.00188
1.00269
1.00377
1.0052
1.00702
1.00926
1.01192
1.01497
1.01834
1.02191
1.02555
1.02909
1.0324
1.03535
1.03785
1.03985
1.04135
1.04236
1.04295
1.04319
1.04316
1.04295
1.04265
1.04232
1.04204
1.04184
1.04177
1.04183
1.04202
1.0423
1.04264
1.04296
1.04317
1.04317
1.04283
1.04203
1.0407
1.03877
1.03625
1.03322
1.02978
1.02612
1.0224
1.01879
1.01541
1.01237
1.00972
1.00747
1.00562
1.00413
1.00296
1.00206
1.00139
1.0009
1.00056
1.00032
1.00016
1.00005
0.999993
0.999959
0.999944
0.99994
0.999943
0.999949
0.999957
0.999965
0.999972
0.999978
0.999984
0.999988
0.999991
0.999994
0.999996
0.999997
0.999998
0.999999
0.999999
0.999999
1
1
1
1
1
1
1
1
1
1
1
1
1
1
1
1
1
1
1
1
1
1
1
1
1
1
1
1
1
1
1
1
1
1
1
1
1
1
1
1
1
1
1
1
1
1
1
1
1
1
1
1
1.00001
1.00001
1.00001
1.00002
1.00002
1.00003
1.00004
1.00005
1.00007
1.00009
1.00011
1.00014
1.00017
1.00022
1.0003
1.0004
1.00057
1.00081
1.00117
1.0017
1.00244
1.00347
1.00485
1.00664
1.00889
1.01161
1.01479
1.01835
1.02217
1.02608
1.0299
1.03345
1.03657
1.03914
1.0411
1.04244
1.04319
1.04342
1.04323
1.04272
1.04201
1.04119
1.04038
1.03965
1.03907
1.03869
1.03855
1.03866
1.03903
1.03961
1.04038
1.04126
1.04214
1.04291
1.04343
1.04353
1.04306
1.04191
1.04002
1.0374
1.03416
1.03047
1.02653
1.02255
1.01872
1.01518
1.01204
1.00933
1.00707
1.00524
1.00379
1.00266
1.00182
1.0012
1.00075
1.00044
1.00023
1.0001
1.00001
0.999968
0.999944
0.999936
0.999937
0.999943
0.999951
0.99996
0.999968
0.999975
0.999981
0.999986
0.99999
0.999993
0.999995
0.999996
0.999998
0.999998
0.999999
0.999999
1
1
1
1
1
1
1
1
1
1
1
1
1
1
1
1
1
1
1
1
1
1
1
1
1
1
1
1
1
1
1
1
1
1
1
1
1
1
1
1
1
1
1
1
1
1
1
1
1
1
1
1
1.00001
1.00001
1.00001
1.00002
1.00003
1.00004
1.00005
1.00006
1.00008
1.0001
1.00013
1.00016
1.00021
1.00027
1.00036
1.0005
1.00072
1.00103
1.0015
1.00218
1.00313
1.00444
1.00616
1.00837
1.0111
1.01435
1.01805
1.02208
1.02625
1.03034
1.03413
1.03742
1.04006
1.04197
1.04313
1.04357
1.04338
1.04268
1.0416
1.04028
1.03884
1.0374
1.03608
1.03494
1.03407
1.03352
1.03331
1.03347
1.03399
1.03486
1.03603
1.03745
1.03901
1.0406
1.04205
1.04318
1.04379
1.04368
1.04273
1.04086
1.03814
1.03469
1.03074
1.02654
1.02234
1.01834
1.0147
1.0115
1.0088
1.00657
1.00479
1.0034
1.00234
1.00156
1.001
1.0006
1.00033
1.00016
1.00005
0.999982
0.999949
0.999934
0.999933
0.999937
0.999945
0.999955
0.999963
0.999971
0.999978
0.999984
0.999988
0.999992
0.999994
0.999996
0.999997
0.999998
0.999999
0.999999
1
1
1
1
1
1
1
1
1
1
1
1
1
1
1
1
1
1
1
1
1
1
1
1
1
1
1
1
1
1
1
1
1
1
1
1
1
1
1
1
1
1
1
0.999999
1
1
1
1
1
1
1
1
1.00001
1.00001
1.00002
1.00002
1.00003
1.00004
1.00005
1.00007
1.00009
1.00012
1.00015
1.00019
1.00024
1.00033
1.00045
1.00063
1.0009
1.00131
1.00191
1.00277
1.00397
1.00559
1.00771
1.0104
1.01365
1.01744
1.02163
1.02604
1.0304
1.03445
1.03793
1.04067
1.04254
1.04351
1.04364
1.04301
1.04177
1.04007
1.03808
1.03595
1.03382
1.0318
1.03001
1.02852
1.02739
1.02667
1.0264
1.02659
1.02724
1.02835
1.02987
1.03177
1.03395
1.0363
1.03868
1.04087
1.04266
1.04378
1.04403
1.04323
1.04136
1.03848
1.03481
1.0306
1.02617
1.02178
1.01767
1.01398
1.01079
1.00813
1.00598
1.00428
1.00298
1.00201
1.00131
1.00081
1.00046
1.00024
1.00009
1
0.999957
0.999935
0.999929
0.999932
0.99994
0.999949
0.999959
0.999968
0.999975
0.999981
0.999986
0.99999
0.999993
0.999995
0.999997
0.999998
0.999999
0.999999
0.999999
1
1
1
1
1
1
1
1
1
1
1
1
1
1
1
1
1
1
1
1
1
1
1
1
1
1
1
1
1
1
1
1
1
1
1
1
1
1
1
1
1
1
1
1
1
1
1
1
1
1
1.00001
1.00001
1.00001
1.00002
1.00002
1.00003
1.00005
1.00006
1.00008
1.0001
1.00013
1.00017
1.00022
1.00029
1.00039
1.00054
1.00077
1.00112
1.00165
1.00241
1.00348
1.00497
1.00696
1.00954
1.01274
1.01654
1.02084
1.02545
1.03007
1.03439
1.03811
1.04098
1.04286
1.0437
1.04353
1.04248
1.04071
1.03839
1.03572
1.03287
1.03001
1.02727
1.02476
1.02258
1.02079
1.01946
1.01861
1.01828
1.01849
1.01925
1.02053
1.02234
1.02461
1.0273
1.03032
1.03351
1.03671
1.03966
1.04208
1.04369
1.04421
1.0435
1.04153
1.03845
1.03451
1.03005
1.02541
1.02089
1.01673
1.01305
1.00993
1.00736
1.00532
1.00374
1.00255
1.00168
1.00106
1.00063
1.00034
1.00015
1.00004
0.999972
0.999939
0.999927
0.999928
0.999934
0.999944
0.999954
0.999964
0.999972
0.999979
0.999984
0.999989
0.999992
0.999994
0.999996
0.999997
0.999998
0.999999
0.999999
1
1
1
1
1
1
1
1
1
1
1
1
1
1
1
1
1
1
1
1
1
1
1
1
1
1
1
1
1
1
1
1
1
1
1
1
1
1
1
1
1
1
1
1
1
1
1
1
1
1
1.00001
1.00001
1.00001
1.00002
1.00003
1.00004
1.00005
1.00007
1.00009
1.00012
1.00015
1.00019
1.00026
1.00034
1.00047
1.00066
1.00095
1.0014
1.00205
1.003
1.00433
1.00616
1.00857
1.01164
1.01538
1.01973
1.02448
1.02934
1.03395
1.03795
1.04103
1.04299
1.04376
1.04338
1.04196
1.03969
1.03679
1.03346
1.02991
1.02632
1.02284
1.01961
1.01672
1.01424
1.01223
1.01074
1.0098
1.00943
1.00965
1.01047
1.01188
1.01388
1.01645
1.01953
1.02306
1.02693
1.03098
1.03498
1.03865
1.04164
1.04362
1.0443
1.04355
1.04138
1.03802
1.0338
1.02909
1.0243
1.01971
1.01556
1.01196
1.00896
1.00654
1.00464
1.0032
1.00213
1.00137
1.00083
1.00047
1.00023
1.00008
0.999994
0.999948
0.999928
0.999924
0.999929
0.999939
0.999949
0.999959
0.999969
0.999976
0.999982
0.999987
0.999991
0.999994
0.999996
0.999997
0.999998
0.999999
0.999999
1
1
1
1
1
1
1
1
1
1
1
1
1
1
1
1
1
1
1
1
1
1
1
1
1
1
1
1
1
1
1
1
1
1
1
1
1
1
1
1
1
1
1
1
1
1
1
1
1
1
1.00001
1.00001
1.00002
1.00002
1.00003
1.00004
1.00006
1.00008
1.0001
1.00013
1.00017
1.00022
1.0003
1.0004
1.00056
1.0008
1.00117
1.00172
1.00253
1.0037
1.00533
1.00754
1.01042
1.01402
1.01831
1.02314
1.0282
1.03312
1.03744
1.04081
1.04296
1.04377
1.04326
1.04156
1.03888
1.03544
1.0315
1.02728
1.023
1.01881
1.01487
1.01126
1.00809
1.00539
1.00323
1.00163
1.00062
1.00022
1.00044
1.0013
1.00279
1.00493
1.00769
1.01105
1.01496
1.01935
1.02407
1.02895
1.03372
1.03801
1.04145
1.04365
1.04433
1.04338
1.04091
1.03721
1.03268
1.02777
1.02286
1.01828
1.01421
1.01076
1.00792
1.00568
1.00396
1.00267
1.00173
1.00107
1.00062
1.00032
1.00014
1.00002
0.999962
0.999932
0.999923
0.999926
0.999934
0.999944
0.999955
0.999965
0.999973
0.99998
0.999986
0.99999
0.999993
0.999995
0.999997
0.999998
0.999999
0.999999
0.999999
1
1
1
1
1
1
1
1
1
1
1
1
1
1
1
1
1
1
1
1
1
1
1
1
1
1
1
1
1
1
1
1
1
1
1
1
1
1
1
1
1
1
1
1
1
1
1
1
1.00001
1.00001
1.00001
1.00002
1.00003
1.00004
1.00005
1.00007
1.00009
1.00011
1.00015
1.00019
1.00025
1.00034
1.00047
1.00067
1.00096
1.00142
1.0021
1.0031
1.00452
1.00649
1.00912
1.01251
1.01666
1.02147
1.02667
1.03187
1.03657
1.04031
1.04276
1.04373
1.04323
1.04137
1.03837
1.03449
1.03
1.02518
1.02023
1.01537
1.01073
1.00644
1.00257
0.999202
0.996364
0.994094
0.992416
0.991352
0.990917
0.991129
0.992001
0.993542
0.995759
0.99865
1.0022
1.00639
1.01114
1.01638
1.02195
1.02761
1.03305
1.03785
1.04156
1.04379
1.04428
1.04298
1.04009
1.036
1.03117
1.0261
1.02116
1.01666
1.01274
1.00948
1.00687
1.00483
1.00329
1.00217
1.00137
1.00081
1.00044
1.00021
1.00006
0.999982
0.99994
0.999924
0.999923
0.99993
0.99994
0.999951
0.999962
0.999971
0.999978
0.999984
0.999989
0.999992
0.999995
0.999996
0.999997
0.999998
0.999999
0.999999
1
1
1
1
1
1
1
1
1
1
1
1
1
1
1
1
1
1
1
1
1
1
1
1
1
1
1
1
1
1
1
1
1
1
1
1
1
1
1
1
1
1
1
1
1
1
1
1
1.00001
1.00001
1.00001
1.00002
1.00003
1.00004
1.00005
1.00007
1.0001
1.00013
1.00016
1.00022
1.00029
1.00039
1.00055
1.00079
1.00116
1.00172
1.00255
1.00376
1.00547
1.00782
1.01092
1.01483
1.01952
1.02477
1.03019
1.03528
1.03947
1.04234
1.04364
1.04329
1.04141
1.03822
1.034
1.02907
1.0237
1.01815
1.01265
1.00735
1.00239
0.997848
0.993799
0.990284
0.987336
0.984977
0.983231
0.982115
0.981647
0.981842
0.982717
0.984284
0.986552
0.989528
0.993209
0.997581
1.00261
1.00822
1.01431
1.02068
1.02706
1.03305
1.03818
1.04196
1.04399
1.04407
1.04227
1.03888
1.03438
1.0293
1.02413
1.01925
1.0149
1.0112
1.00819
1.00582
1.00401
1.00267
1.00171
1.00104
1.00059
1.0003
1.00011
1.00001
0.999952
0.999928
0.999922
0.999927
0.999936
0.999947
0.999958
0.999968
0.999976
0.999982
0.999987
0.999991
0.999994
0.999996
0.999997
0.999998
0.999999