/*--------------------------------*- C++ -*----------------------------------*\
  =========                 |
  \\      /  F ield         | OpenFOAM: The Open Source CFD Toolbox
   \\    /   O peration     | Website:  https://openfoam.org
    \\  /    A nd           | Version:  6
     \\/     M anipulation  |
\*---------------------------------------------------------------------------*/
FoamFile
{
    version     2.0;
    format      ascii;
    class       volScalarField;
    location    "4.75";
    object      nut;
}
// * * * * * * * * * * * * * * * * * * * * * * * * * * * * * * * * * * * * * //

dimensions      [0 2 -1 0 0 0 0];

internalField   nonuniform List<scalar> 
4214
(
0.00253949
0.00151737
0.00116098
0.0010915
0.00117196
0.00139336
0.0018482
0.0026558
0.00392069
0.00569775
0.00795332
0.0105317
0.0131404
0.015462
0.0171974
0.0181278
0.0181298
0.0173155
0.0159882
0.0149842
0.0151364
0.0171137
0.0208439
0.0256198
0.0303336
0.0341696
0.0370455
0.0405027
0.0453857
0.0505012
0.0522681
0.0486475
0.0405306
0.0302427
0.0201586
0.0119737
0.00638861
0.00324951
0.00186592
0.00157833
0.00226742
0.00108638
0.000998783
0.00103445
0.00114764
0.00138933
0.00189348
0.00282249
0.00433913
0.00654485
0.00941479
0.0127487
0.0161981
0.0193644
0.0218796
0.0234816
0.0240348
0.0234643
0.0219807
0.019886
0.0177819
0.0164576
0.0165526
0.018397
0.0216578
0.0255504
0.0293018
0.0325822
0.0363404
0.0415642
0.0474897
0.0517441
0.0509807
0.0448063
0.0350688
0.0244721
0.0151752
0.00837248
0.00423703
0.0021644
0.00131229
0.00103095
0.00101567
0.00105332
0.00113928
0.00136848
0.00189572
0.00291609
0.00465871
0.00730898
0.0108675
0.015105
0.0195654
0.023711
0.0270874
0.0293875
0.0304762
0.0303689
0.0291311
0.0270022
0.0241113
0.0210343
0.0184525
0.017028
0.0171901
0.0188753
0.0216276
0.0248769
0.0282852
0.0323006
0.0375074
0.0439119
0.0496541
0.0516975
0.0481228
0.0396704
0.028965
0.0187354
0.0107468
0.0055667
0.00277838
0.00153971
0.00109181
0.0010478
0.00111374
0.00132202
0.00184375
0.00291023
0.00481608
0.00785455
0.012118
0.01736
0.0230281
0.0283965
0.0328316
0.0359699
0.0376761
0.0379985
0.0370867
0.0350225
0.032033
0.0284435
0.0246607
0.021221
0.0186882
0.0174802
0.0177298
0.0192594
0.0216735
0.024701
0.0285982
0.0336496
0.0401726
0.0470417
0.0514463
0.0506029
0.0439685
0.0336295
0.0226866
0.0135337
0.00722747
0.00361072
0.00187479
0.00119541
0.00108654
0.00126201
0.00174391
0.00279524
0.00477535
0.00808346
0.0129677
0.0192238
0.0262528
0.0330961
0.0388108
0.0428792
0.0451792
0.0458405
0.0452112
0.0434333
0.0405839
0.0368289
0.0325079
0.0281134
0.0241129
0.0208871
0.0187542
0.0179069
0.0183293
0.0198122
0.0221981
0.0257013
0.0304649
0.0368253
0.0442037
0.0503064
0.0520314
0.0476089
0.0381827
0.0268632
0.0166579
0.00920222
0.00467417
0.00235096
0.00134614
0.00120323
0.00161349
0.00258282
0.00452256
0.00794267
0.0132465
0.0204303
0.0288383
0.0373745
0.0445612
0.049674
0.0524278
0.0530794
0.052382
0.0507405
0.0483573
0.0451462
0.0410375
0.0362842
0.0314276
0.0270054
0.0233482
0.0206397
0.0190163
0.0185657
0.0192093
0.0208551
0.0237521
0.0280697
0.0341259
0.0416316
0.0487853
0.0525376
0.0504215
0.0423536
0.0310766
0.0200169
0.0114463
0.00596033
0.00298101
0.00158551
0.00148647
0.00230402
0.00407904
0.0074063
0.0128879
0.0207203
0.0303673
0.0406152
0.049543
0.0556119
0.058504
0.0585917
0.0570809
0.0549882
0.0528069
0.0505168
0.0477825
0.0441683
0.0395737
0.0345722
0.0298861
0.0259198
0.0228974
0.0207594
0.0196782
0.0196661
0.0206837
0.022924
0.0267013
0.0323565
0.0397398
0.0473948
0.0525397
0.0523361
0.0458608
0.03505
0.0234334
0.0138669
0.00743219
0.00375876
0.00193204
0.00202582
0.00350432
0.00651325
0.0117969
0.0198937
0.0304705
0.04229
0.0531249
0.060344
0.0626285
0.0614706
0.0587241
0.0557224
0.0531728
0.0511978
0.0495835
0.0479326
0.0456908
0.0422137
0.03751
0.0326024
0.0283511
0.025115
0.0229006
0.0214603
0.0209744
0.0215296
0.0232836
0.0265693
0.0318036
0.0388881
0.0465881
0.0524016
0.0535268
0.0484992
0.0384597
0.0266494
0.0163062
0.00900974
0.00465118
0.00238211
0.0029064
0.00537703
0.010084
0.0177948
0.028707
0.0417896
0.0540447
0.061854
0.0643329
0.062587
0.0587744
0.0547037
0.0513776
0.0490581
0.0476081
0.0466818
0.0458854
0.0447973
0.0429656
0.039886
0.0355276
0.0309617
0.027424
0.0252641
0.0237435
0.0230475
0.0233451
0.0248075
0.0277817
0.0326541
0.039353
0.0467187
0.0525059
0.0541756
0.0501694
0.0409808
0.0293364
0.0185337
0.0105599
0.00558896
0.00290471
0.00416297
0.00792498
0.0146275
0.0248797
0.0380391
0.0510637
0.0605147
0.0643519
0.0630482
0.0587621
0.0537618
0.0494797
0.0465005
0.0447219
0.0438845
0.0436039
0.0435351
0.0432961
0.0425396
0.0408785
0.038053
0.0342556
0.0306066
0.0282272
0.0267572
0.0259733
0.026241
0.0276255
0.0305075
0.0350705
0.0412239
0.0478681
0.0529932
0.054436
0.0508313
0.0423379
0.031135
0.0202539
0.0118936
0.00646145
0.00343749
0.00565894
0.0107297
0.0191862
0.030997
0.0443004
0.0557899
0.0623289
0.0630855
0.0595425
0.0541113
0.0488056
0.0447092
0.0421056
0.0408435
0.0405546
0.040881
0.0415085
0.0420619
0.0422058
0.0416781
0.0402459
0.0378619
0.0350082
0.0326166
0.0310626
0.0303246
0.0305988
0.0320417
0.0348378
0.039109
0.0444289
0.049882
0.0537292
0.0542564
0.0504198
0.0423196
0.0317169
0.0211462
0.0127817
0.00712168
0.00388987
0.00691631
0.0128028
0.0219445
0.0339429
0.0466807
0.0567116
0.0614166
0.0606282
0.0561281
0.0502122
0.0447127
0.040594
0.0380998
0.0370658
0.0371097
0.037966
0.0392433
0.0406186
0.0417492
0.0423746
0.0423589
0.0415582
0.0400965
0.0384223
0.0370851
0.0364346
0.0367765
0.0381649
0.0407041
0.0443087
0.0484251
0.0521761
0.054229
0.0533115
0.0488022
0.0407942
0.0308614
0.0209345
0.0129968
0.0074082
0.00415874
0.00727381
0.0131082
0.021955
0.0334798
0.0456584
0.0552168
0.0595733
0.0584797
0.0536577
0.0473898
0.0415292
0.0370818
0.0343443
0.0331876
0.0332599
0.0343186
0.0360444
0.0381362
0.0402414
0.0420844
0.0434501
0.0442702
0.0444725
0.044173
0.0437277
0.0435321
0.0439741
0.0451289
0.0470405
0.0495042
0.0519699
0.0536654
0.0536404
0.0510497
0.0456692
0.0376262
0.0284995
0.0194848
0.0123851
0.0071862
0.00415413
0.00649827
0.0115548
0.0194003
0.0300674
0.0420343
0.0521354
0.0574434
0.0571083
0.0524987
0.0459444
0.0395086
0.0344336
0.0311564
0.0295591
0.0293134
0.030184
0.0319127
0.0342727
0.0369732
0.0397816
0.0424202
0.0446166
0.046329
0.0475444
0.0483982
0.0490166
0.0497099
0.0505812
0.0516531
0.0527338
0.0533557
0.0529677
0.0509378
0.0467722
0.040692
0.0327488
0.024699
0.0168367
0.0109398
0.00640915
0.00383581
0.0049858
0.00877935
0.0150491
0.0242539
0.0358499
0.0471973
0.0547887
0.0563652
0.0527242
0.0460793
0.039016
0.033076
0.0289901
0.0267493
0.0258879
0.0262443
0.0274833
0.0295392
0.0321715
0.0352303
0.0384989
0.0416296
0.0445278
0.0468389
0.048726
0.050052
0.0510662
0.0517172
0.0520368
0.0518914
0.0509168
0.0488329
0.0452592
0.0399932
0.0338018
0.0263523
0.0197772
0.0132614
0.00883316
0.00516536
0.00324685
0.00342615
0.00581107
0.0102325
0.0171537
0.0278225
0.0398492
0.0506507
0.0552111
0.0538323
0.0475668
0.0401424
0.0332928
0.0281825
0.025199
0.0234706
0.0232028
0.023607
0.0249252
0.0268405
0.0293256
0.0323435
0.0354235
0.0387265
0.0414213
0.0439399
0.0455423
0.0467249
0.047138
0.046848
0.0458725
0.0438619
0.0407624
0.0365384
0.0309615
0.0255469
0.0190737
0.0143544
0.00927892
0.00642205
0.00369711
0.00252055
0.00233552
0.00347526
0.00644362
0.0103607
0.019575
0.02961
0.0441763
0.0515419
0.0540592
0.0500409
0.0425838
0.0352801
0.02859
0.0252829
0.0221968
0.0214507
0.0208905
0.0213377
0.0222235
0.0235466
0.0256377
0.027619
0.0304852
0.032508
0.0350342
0.0363247
0.0373603
0.0374919
0.0366996
0.0353976
0.0329932
0.0296629
0.0260084
0.020832
0.0171858
0.0119238
0.00930848
0.00557638
0.00420202
0.00235385
0.00184988
0.00128487
0.00160178
0.00197897
0.00229339
0.00244452
0.00239928
0.00219052
0.00188981
0.00157789
0.00132089
0.00115402
0.00107315
0.00103671
0.000995259
0.000945865
0.00108505
0.00470827
0.00118316
0.00130603
0.00144289
0.00155716
0.00161221
0.00159087
0.0015026
0.00137605
0.0012465
0.00114343
0.00108036
0.0010501
0.00102864
0.000989413
0.000935472
0.00102508
0.00475527
0.00114719
0.00117754
0.00120912
0.0012362
0.0012482
0.00123704
0.00120367
0.00115752
0.00111155
0.00107617
0.0010549
0.00104272
0.00102632
0.00098756
0.000927959
0.000983674
0.00478811
0.00114247
0.00115364
0.00115644
0.00115331
0.00114453
0.00113005
0.00111113
0.00109059
0.00107203
0.0010582
0.00104956
0.00104291
0.00102856
0.000989992
0.000925165
0.000955771
0.00481573
0.00115843
0.00115334
0.00114347
0.00113106
0.00111724
0.00110272
0.00108831
0.001075
0.00106397
0.00105621
0.00105172
0.00104779
0.00103538
0.000997578
0.000928304
0.000941375
0.00483474
0.00115494
0.00114736
0.00113583
0.00112266
0.00110904
0.00109573
0.00108342
0.00107276
0.00106453
0.00105945
0.00105755
0.00105626
0.00104662
0.00101084
0.000938579
0.000940502
0.0048393
0.00114911
0.00114009
0.00112906
0.00111716
0.00110513
0.00109359
0.00108312
0.00107438
0.00106813
0.00106518
0.00106572
0.00106748
0.00106177
0.00102991
0.000956852
0.000953544
0.00482228
0.0011435
0.00113356
0.00112313
0.00111263
0.00110237
0.00109271
0.00108409
0.00107717
0.00107279
0.00107195
0.00107511
0.00108049
0.00108003
0.00105445
0.000983528
0.000978875
0.00478029
0.00112911
0.00112265
0.00111515
0.00110721
0.00109922
0.00109161
0.00108491
0.00107986
0.00107743
0.0010788
0.00108478
0.00109431
0.00110038
0.00108364
0.00101834
0.00101549
0.0047165
0.00112352
0.00111623
0.00110925
0.00110246
0.00109597
0.00109004
0.00108512
0.00108191
0.00108146
0.00108511
0.00109406
0.00110815
0.0011218
0.00111622
0.0010602
0.00106233
0.00463364
0.00110975
0.001106
0.00110155
0.00109684
0.0010922
0.001088
0.00108477
0.0010833
0.00108474
0.00109064
0.00110268
0.00112166
0.00114357
0.00115071
0.00110718
0.00111814
0.004532
0.0011048
0.00110012
0.00109587
0.00109191
0.00108835
0.00108544
0.00108365
0.0010838
0.00108712
0.00109538
0.00111071
0.00113484
0.00116525
0.00118558
0.00115659
0.00118087
0.0044103
0.00109355
0.00109149
0.00108901
0.0010865
0.00108427
0.00108268
0.00108227
0.00108395
0.00108913
0.0010998
0.00111863
0.00114803
0.00118664
0.00121934
0.00120538
0.00124794
0.00426727
0.00108917
0.00108618
0.00108374
0.00108174
0.00108029
0.00107967
0.00108045
0.00108362
0.00109075
0.00110409
0.00112672
0.00116147
0.00120759
0.00125069
0.00125068
0.0013168
0.00410255
0.00108011
0.00107902
0.00107778
0.00107674
0.00107618
0.00107654
0.0010785
0.00108324
0.00109251
0.00110887
0.00113555
0.0011755
0.00122794
0.00127861
0.00129072
0.00138585
0.00391718
0.00107616
0.00107418
0.00107289
0.00107218
0.00107221
0.00107341
0.00107661
0.00108314
0.00109492
0.00111468
0.00114559
0.00119036
0.00124756
0.00130273
0.00132603
0.00145549
0.0037135
0.00106881
0.00106822
0.00106771
0.00106764
0.00106839
0.00107061
0.00107534
0.00108401
0.00109874
0.00112218
0.00115729
0.00120618
0.0012664
0.00132374
0.00135964
0.00152653
0.00349515
0.00106524
0.00106387
0.00106336
0.00106367
0.00106519
0.0010687
0.0010753
0.00108658
0.00110459
0.00113185
0.00117094
0.00122314
0.00128501
0.00134414
0.00139679
0.0015978
0.00326523
0.0010594
0.00105916
0.00105935
0.00106043
0.0010631
0.00106829
0.0010772
0.00109143
0.00111297
0.00114409
0.00118689
0.00124185
0.00130516
0.00136844
0.00144283
0.00166472
0.00302689
0.00105644
0.00105585
0.00105644
0.00105846
0.00106262
0.00106988
0.00108146
0.00109895
0.00112422
0.00115931
0.00120585
0.00126385
0.00133024
0.00140209
0.00149937
0.00172456
0.00278542
0.00105238
0.00105309
0.00105473
0.00105811
0.00106413
0.00107379
0.00108837
0.00110943
0.0011388
0.00117831
0.00122933
0.00129193
0.00136468
0.00144928
0.0015653
0.00177212
0.00254755
0.0010507
0.00105182
0.00105454
0.00105956
0.00106776
0.00108018
0.00109816
0.00112334
0.00115753
0.00120252
0.00125969
0.00132954
0.00141208
0.00151011
0.00163375
0.00180118
0.00231976
0.00104918
0.00105177
0.001056
0.00106293
0.00107362
0.00108922
0.00111123
0.00114139
0.00118162
0.0012338
0.0012994
0.00137909
0.00147269
0.00157946
0.00169508
0.00180807
0.00210739
0.00104948
0.0010531
0.00105897
0.00106818
0.00108181
0.00110122
0.00112814
0.00116451
0.0012124
0.00127372
0.00134972
0.0014402
0.00154251
0.00164888
0.00174106
0.00179243
0.00191459
0.00105084
0.00105588
0.00106364
0.00107543
0.00109252
0.00111655
0.00114947
0.00119345
0.0012506
0.00132253
0.00140953
0.0015093
0.00161482
0.00171054
0.00176813
0.00175655
0.00174429
0.0010532
0.00105977
0.0010698
0.00108468
0.0011059
0.00113541
0.00117544
0.00122823
0.00129566
0.00137853
0.00147544
0.00158101
0.0016833
0.00176027
0.0017781
0.00170469
0.00159923
0.00105687
0.00106516
0.00107763
0.00109595
0.00112186
0.00115759
0.0012055
0.0012677
0.00134551
0.00143846
0.00154295
0.00165025
0.00174417
0.0017984
0.00177705
0.00164927
0.00148279
0.00106134
0.00107151
0.00108677
0.00110889
0.00113989
0.00118219
0.00123815
0.00130957
0.00139692
0.00149826
0.00160772
0.00171372
0.00179705
0.00182924
0.00177446
0.00160532
0.00139936
0.00106706
0.00107919
0.00109712
0.001123
0.001159
0.00120763
0.00127111
0.00135076
0.00144615
0.00155394
0.00166648
0.00177027
0.00184441
0.00185982
0.00178152
0.00158477
0.00135443
0.00107376
0.00108761
0.00110809
0.00113736
0.00117779
0.00123182
0.00130151
0.0013877
0.00148923
0.00160182
0.00171686
0.00181993
0.00188986
0.00189763
0.00180845
0.00159807
0.0013541
0.00108156
0.00109704
0.00111936
0.00115107
0.00119461
0.00125234
0.00132615
0.00141657
0.00152203
0.00163802
0.00175599
0.00186196
0.00193552
0.00194825
0.00186415
0.00165452
0.00140594
0.00108933
0.0011058
0.00112942
0.00116249
0.00120749
0.00126662
0.0013417
0.00143323
0.00153981
0.00165748
0.00177889
0.00189207
0.00197876
0.00201173
0.001952
0.00175881
0.00151801
0.00109727
0.00111415
0.00113768
0.00117026
0.00121426
0.00127181
0.00134466
0.00143346
0.00153729
0.00165351
0.00177717
0.00189987
0.00200741
0.00207575
0.00206398
0.00191618
0.00169769
0.00110552
0.00112205
0.00114451
0.00117481
0.00121513
0.00126746
0.00133353
0.00141444
0.0015101
0.00161931
0.00174009
0.00186908
0.00199914
0.00211364
0.0021753
0.0021141
0.00195144
0.00111444
0.0011304
0.00115096
0.00117769
0.00121225
0.0012563
0.00131133
0.00137867
0.0014592
0.00155326
0.0016616
0.00178626
0.00192923
0.00208768
0.00224131
0.00232145
0.00228434
0.00112432
0.00113972
0.00115837
0.00118118
0.0012092
0.00124356
0.0012853
0.00133552
0.00139542
0.00146651
0.00155156
0.00165637
0.00179102
0.00196989
0.00220667
0.00247983
0.00269985
0.00113546
0.0011508
0.00116805
0.00118764
0.00120999
0.00123554
0.00126478
0.00129842
0.00133746
0.00138369
0.00144047
0.00151439
0.00161852
0.00177838
0.00204482
0.00250571
0.00319933
0.00114779
0.00116383
0.0011808
0.0011987
0.00121754
0.00123731
0.00125801
0.00127986
0.00130351
0.00133048
0.00136363
0.00140791
0.00147373
0.00158555
0.00180756
0.00233888
0.00378168
0.00116115
0.00117871
0.00119661
0.00121464
0.00123259
0.00125027
0.00126752
0.00128428
0.00130086
0.00131813
0.0013378
0.00136251
0.00139831
0.00146099
0.00159995
0.00203042
0.00444317
0.00117504
0.00119488
0.00121478
0.00123446
0.0012537
0.00127227
0.00129004
0.00130692
0.00132297
0.00133853
0.00135422
0.00137122
0.00139262
0.00142474
0.00149078
0.00172459
0.00517758
0.0011661
0.0011734
0.00118057
0.00118764
0.00119478
0.00120186
0.00120843
0.00121398
0.00121824
0.0012212
0.00122309
0.00122421
0.00122497
0.0012257
0.00122677
0.00122851
0.00123124
0.00123519
0.00124054
0.00124737
0.00125878
0.00127079
0.00127764
0.0012834
0.00128792
0.00129117
0.00129318
0.00129399
0.00129356
0.00129186
0.00128885
0.00128447
0.00127868
0.00127142
0.0012627
0.00125246
0.00124087
0.0012281
0.00121467
0.00120105
0.00118781
0.00116453
0.00117152
0.00117841
0.00118534
0.00119246
0.00119953
0.00120596
0.00121126
0.00121524
0.001218
0.00121985
0.00122115
0.00122235
0.00122378
0.00122585
0.00122885
0.0012331
0.0012388
0.00124609
0.00125501
0.00126912
0.0012838
0.00129307
0.00130118
0.00130792
0.00131318
0.00131694
0.00131922
0.00132001
0.00131927
0.00131698
0.00131311
0.00130763
0.00130052
0.00129175
0.0012813
0.00126915
0.00125544
0.00124049
0.00122494
0.00120959
0.00116334
0.00116956
0.00117596
0.00118273
0.00118988
0.00119691
0.00120314
0.00120814
0.00121183
0.00121446
0.00121639
0.00121807
0.00121989
0.00122225
0.0012255
0.00122994
0.00123584
0.00124337
0.00125261
0.00126357
0.00128005
0.001297
0.00130846
0.00131876
0.00132761
0.00133482
0.00134034
0.00134412
0.00134616
0.00134643
0.00134489
0.00134153
0.00133636
0.00132938
0.00132059
0.00130997
0.00129747
0.00128306
0.00126686
0.00124939
0.00123171
0.00116252
0.00116746
0.00117329
0.00118004
0.0011873
0.00119426
0.0012002
0.00120484
0.00120829
0.0012109
0.00121311
0.00121535
0.00121802
0.00122149
0.00122609
0.00123209
0.00123972
0.00124909
0.00126023
0.0012731
0.00129158
0.00131034
0.00132372
0.00133596
0.00134672
0.00135576
0.00136294
0.00136819
0.00137148
0.00137276
0.00137199
0.00136915
0.00136427
0.00135738
0.00134853
0.00133773
0.00132496
0.00131011
0.00129305
0.00127395
0.00125385
0.0011618
0.00116519
0.00117071
0.00117772
0.00118513
0.0011919
0.00119744
0.00120172
0.00120502
0.00120778
0.00121046
0.00121347
0.00121717
0.00122192
0.00122799
0.00123562
0.00124497
0.00125612
0.00126905
0.00128366
0.00130373
0.00132386
0.00133885
0.00135272
0.00136513
0.00137577
0.00138445
0.00139108
0.00139555
0.0013978
0.00139778
0.00139547
0.00139088
0.00138406
0.0013751
0.00136407
0.00135101
0.00133586
0.00131833
0.00129812
0.00127576
0.00116077
0.00116302
0.00116894
0.00117649
0.00118394
0.0011903
0.00119534
0.00119929
0.00120258
0.00120569
0.00120904
0.001213
0.00121789
0.00122401
0.0012316
0.00124085
0.00125186
0.00126467
0.00127921
0.00129532
0.00131655
0.00133763
0.00135391
0.0013691
0.00138283
0.0013948
0.00140477
0.00141257
0.0014181
0.00142124
0.00142193
0.00142011
0.00141582
0.00140908
0.0014
0.0013887
0.0013753
0.00135985
0.0013421
0.0013214
0.00129728
0.0011594
0.00116209
0.00116928
0.00117732
0.00118442
0.0011901
0.00119456
0.00119828
0.00120174
0.00120538
0.00120955
0.00121458
0.00122073
0.00122825
0.00123733
0.00124811
0.00126065
0.00127493
0.00129084
0.00130819
0.00133018
0.00135181
0.00136907
0.00138524
0.00139998
0.00141297
0.00142393
0.00143268
0.00143907
0.00144296
0.00144425
0.00144289
0.00143888
0.00143225
0.00142309
0.00141154
0.0013978
0.001382
0.00136408
0.00134337
0.00131835
0.00115921
0.00116476
0.00117341
0.00118122
0.00118736
0.00119209
0.001196
0.00119962
0.0012034
0.00120769
0.00121277
0.0012189
0.00122629
0.00123514
0.0012456
0.00125774
0.00127161
0.00128712
0.00130414
0.00132244
0.00134479
0.00136662
0.00138455
0.0014014
0.00141683
0.0014305
0.00144216
0.00145158
0.00145859
0.00146303
0.0014648
0.00146381
0.00146005
0.00145355
0.00144437
0.00143267
0.00141864
0.00140249
0.00138433
0.00136376
0.00133888
0.00116443
0.00117399
0.00118269
0.00118902
0.00119361
0.00119731
0.00120075
0.00120441
0.00120859
0.00121356
0.00121952
0.00122667
0.00123519
0.00124521
0.00125684
0.00127013
0.00128506
0.00130153
0.00131935
0.00133829
0.00136066
0.00138238
0.00140068
0.00141791
0.0014337
0.00144775
0.00145978
0.00146957
0.00147694
0.00148171
0.00148378
0.00148306
0.00147951
0.00147316
0.00146405
0.00145231
0.00143812
0.00142168
0.00140314
0.00138242
0.00135827
0.00118081
0.00119139
0.00119757
0.00120138
0.00120425
0.00120701
0.00121011
0.00121383
0.00121838
0.00122392
0.00123062
0.00123863
0.00124806
0.00125903
0.00127158
0.00128572
0.00130141
0.00131852
0.00133682
0.00135607
0.00137812
0.00139947
0.00141785
0.00143515
0.00145101
0.00146512
0.00147722
0.00148708
0.00149453
0.00149941
0.0015016
0.00150102
0.00149764
0.00149145
0.00148248
0.00147083
0.00145661
0.00143996
0.00142091
0.00139948
0.00137564
0.00121035
0.0012161
0.00121806
0.00121927
0.00122066
0.00122265
0.00122542
0.00122912
0.00123386
0.00123978
0.00124699
0.00125558
0.00126566
0.00127726
0.00129041
0.00130509
0.00132119
0.00133858
0.00135702
0.00137623
0.00139766
0.00141834
0.00143651
0.00145358
0.0014692
0.00148306
0.00149493
0.00150458
0.00151186
0.00151662
0.00151877
0.00151823
0.00151496
0.00150893
0.00150017
0.00148871
0.00147459
0.00145777
0.00143809
0.00141574
0.0013918
0.00124831
0.00124692
0.00124521
0.0012444
0.00124458
0.00124579
0.00124809
0.00125155
0.00125624
0.00126225
0.00126965
0.00127851
0.00128888
0.00130077
0.00131415
0.00132898
0.00134512
0.0013624
0.0013806
0.0013994
0.00141987
0.0014396
0.00145722
0.00147372
0.00148877
0.00150208
0.00151342
0.0015226
0.00152947
0.00153393
0.00153589
0.0015353
0.0015321
0.00152626
0.00151776
0.00150657
0.00149262
0.00147557
0.00145546
0.00143306
0.00140976
0.00129078
0.00128544
0.00128142
0.0012789
0.00127781
0.00127807
0.00127965
0.00128259
0.00128691
0.00129268
0.00129992
0.00130868
0.00131895
0.00133071
0.0013439
0.00135844
0.00137418
0.00139092
0.00140842
0.00142639
0.00144552
0.00146397
0.00148064
0.00149619
0.00151031
0.00152273
0.00153324
0.00154168
0.00154795
0.00155195
0.00155362
0.00155292
0.00154977
0.00154415
0.00153598
0.00152516
0.00151136
0.00149433
0.00147481
0.00145351
0.00143109
0.0013414
0.00133442
0.00132888
0.00132476
0.00132225
0.00132134
0.00132198
0.00132412
0.00132777
0.00133294
0.00133964
0.00134786
0.00135758
0.00136873
0.00138124
0.00139497
0.00140977
0.00142543
0.00144171
0.00145832
0.00147565
0.00149236
0.00150759
0.00152172
0.00153448
0.00154563
0.001555
0.00156246
0.00156792
0.00157133
0.00157263
0.00157179
0.00156874
0.00156342
0.00155573
0.00154537
0.00153198
0.00151603
0.00149811
0.00147813
0.001457
0.0014036
0.00139543
0.00138906
0.00138388
0.00138018
0.00137805
0.00137764
0.0013788
0.0013815
0.00138572
0.00139147
0.00139868
0.00140732
0.00141729
0.00142848
0.00144075
0.00145393
0.00146781
0.00148215
0.0014967
0.00151161
0.00152597
0.00153911
0.00155124
0.0015621
0.00157153
0.00157939
0.00158559
0.00159005
0.00159274
0.00159363
0.00159268
0.00158984
0.00158501
0.00157805
0.00156846
0.00155652
0.00154265
0.00152667
0.00150872
0.00148983
0.00147885
0.00147054
0.00146413
0.0014588
0.00145468
0.00145182
0.00145049
0.00145065
0.00145225
0.00145523
0.00145958
0.00146523
0.00147211
0.00148013
0.00148916
0.00149906
0.00150966
0.00152077
0.00153219
0.00154368
0.00155527
0.00156638
0.00157657
0.00158589
0.00159419
0.00160134
0.00160723
0.00161182
0.00161506
0.00161694
0.00161742
0.00161648
0.00161407
0.0016101
0.00160432
0.00159648
0.00158712
0.00157595
0.001563
0.00154836
0.00153323
0.0015693
0.0015628
0.00155808
0.00155401
0.00155072
0.00154828
0.00154678
0.0015463
0.00154684
0.00154836
0.00155083
0.00155419
0.00155838
0.00156333
0.00156893
0.00157506
0.00158161
0.00158844
0.0015954
0.00160235
0.00160923
0.00161579
0.00162179
0.00162724
0.00163204
0.00163614
0.00163948
0.00164204
0.00164381
0.00164478
0.00164493
0.00164424
0.00164268
0.00164019
0.00163651
0.00163183
0.00162607
0.00161916
0.00161111
0.00160193
0.00159297
0.00542794
0.00144234
0.00101547
0.00101879
0.00103868
0.00105288
0.00114316
0.00139148
0.00184141
0.00248148
0.00321581
0.00381753
0.00399264
0.00360325
0.0028513
0.00206772
0.001489
0.00556574
0.0013126
0.000981951
0.00101477
0.00103616
0.00104252
0.00108475
0.00120509
0.00142074
0.00171671
0.00203749
0.00227741
0.00231468
0.0021093
0.00176237
0.00143473
0.00123927
0.00558011
0.00115623
0.000959994
0.00101185
0.00103502
0.00103725
0.00105288
0.00110333
0.00119467
0.00131642
0.00143924
0.00151821
0.00151171
0.00141789
0.00128804
0.00119117
0.00115904
0.00552135
0.001047
0.00094546
0.00100979
0.00103423
0.00103488
0.00103815
0.00105546
0.00108812
0.00113019
0.00116889
0.0011883
0.00117836
0.00114498
0.001109
0.00108961
0.00109005
0.00541294
0.000983289
0.000938517
0.00100935
0.00103387
0.00103397
0.00103242
0.00103677
0.00104691
0.00105972
0.00107051
0.00107511
0.00107291
0.00106827
0.0010677
0.00107453
0.00108731
0.00528135
0.000951317
0.000939228
0.00101114
0.00103408
0.00103351
0.00103012
0.00103013
0.00103339
0.00103818
0.00104283
0.00104651
0.00104984
0.00105453
0.00106202
0.00107265
0.00108602
0.00514384
0.000941832
0.000948255
0.00101659
0.00103568
0.00103341
0.00102873
0.001027
0.00102806
0.00103074
0.00103412
0.00103781
0.00104193
0.00104673
0.00105221
0.00105804
0.00106416
0.0050066
0.000951555
0.000966552
0.0010276
0.00104017
0.0010346
0.00102806
0.00102489
0.00102474
0.00102651
0.00102936
0.00103293
0.00103717
0.0010422
0.00104811
0.00105494
0.00106281
0.00487075
0.000977814
0.000994619
0.00104568
0.00104917
0.00103846
0.00102911
0.00102424
0.00102306
0.00102427
0.00102695
0.00103066
0.00103524
0.00104067
0.00104695
0.00105413
0.00106227
0.00473467
0.00101809
0.00103155
0.00107072
0.00106337
0.00104615
0.00103311
0.00102609
0.0010237
0.00102429
0.0010267
0.00103029
0.00103466
0.00103964
0.00104512
0.00105105
0.00105744
0.00459452
0.00106966
0.00107491
0.00110085
0.00108205
0.00105784
0.00104072
0.00103125
0.00102737
0.00102713
0.00102914
0.00103251
0.00103673
0.00104151
0.00104669
0.00105219
0.00105799
0.004445
0.00112938
0.00112163
0.0011338
0.00110396
0.00107291
0.00105163
0.00103948
0.00103382
0.0010324
0.0010336
0.00103639
0.00104014
0.00104448
0.00104919
0.00105415
0.00105922
0.00428171
0.00119415
0.00116863
0.00116803
0.00112861
0.00109112
0.00106547
0.00105026
0.0010424
0.00103938
0.00103943
0.00104137
0.00104447
0.00104829
0.00105257
0.00105721
0.00106221
0.00410206
0.00126146
0.00121308
0.00120212
0.00115582
0.00111277
0.00108266
0.00106396
0.00105339
0.00104824
0.00104664
0.00104729
0.00104935
0.00105229
0.00105574
0.00105954
0.00106365
0.00390584
0.00133004
0.00125321
0.00123453
0.00118473
0.00113755
0.00110317
0.00108071
0.00106703
0.00105937
0.00105576
0.00105483
0.00105564
0.00105758
0.00106019
0.00106312
0.001066
0.0036947
0.00140046
0.00128961
0.00126433
0.0012143
0.00116473
0.00112664
0.00110032
0.00108321
0.00107269
0.0010667
0.00106384
0.00106311
0.00106386
0.00106567
0.0010683
0.00107162
0.00347129
0.00147426
0.00132576
0.00129203
0.00124365
0.00119347
0.00115253
0.00112253
0.00110182
0.00108813
0.00107946
0.00107432
0.00107166
0.00107074
0.00107105
0.00107232
0.00107447
0.0032385
0.00154996
0.00136701
0.00132016
0.0012728
0.00122312
0.00118022
0.00114696
0.00112268
0.00110563
0.00109404
0.00108644
0.00108171
0.001079
0.00107777
0.00107753
0.00107781
0.00299982
0.0016249
0.00141826
0.00135309
0.00130332
0.00125379
0.00120941
0.00117325
0.00114551
0.00112501
0.0011103
0.0011
0.00109299
0.00108841
0.00108567
0.00108444
0.00108463
0.00275986
0.00169292
0.00148075
0.0013954
0.00133826
0.00128672
0.0012404
0.00120137
0.00117017
0.00114612
0.0011281
0.00111486
0.00110533
0.00109857
0.00109387
0.00109079
0.00108929
0.00252329
0.00174563
0.00155046
0.00144938
0.00138115
0.00132425
0.00127436
0.00123178
0.00119678
0.00116894
0.00114736
0.00113096
0.00111871
0.00110967
0.00110303
0.00109804
0.00109401
0.00229681
0.00177654
0.00161927
0.00151326
0.00143393
0.00136877
0.00131296
0.00126541
0.00122581
0.00119363
0.00116809
0.00114819
0.00113294
0.00112142
0.00111287
0.0011065
0.0011018
0.00208502
0.00178325
0.00167793
0.00158125
0.00149553
0.00142141
0.00135765
0.00130338
0.00125792
0.00122054
0.00119039
0.00116651
0.00114787
0.00113354
0.00112274
0.00111452
0.00110814
0.00189259
0.00176811
0.00171974
0.00164586
0.00156182
0.00148101
0.00140876
0.00134637
0.00129368
0.00125001
0.00121443
0.00118592
0.00116343
0.00114597
0.00113275
0.00112265
0.00111409
0.00172324
0.00173618
0.00174408
0.00170139
0.00162738
0.00154444
0.00146498
0.00139406
0.00133315
0.00128212
0.00124019
0.00120635
0.00117947
0.00115853
0.00114273
0.00113094
0.00112182
0.00157945
0.00169277
0.00175438
0.0017459
0.00168808
0.00160799
0.00152393
0.00144519
0.00137571
0.00131655
0.00126745
0.00122756
0.00119573
0.00117098
0.00115231
0.00113852
0.0011283
0.00146501
0.00164593
0.00175661
0.00178122
0.00174224
0.00166874
0.00158289
0.00149779
0.00142005
0.00135244
0.00129557
0.00124906
0.00121186
0.00118299
0.00116132
0.00114545
0.00113372
0.00138428
0.00160937
0.00175921
0.00181202
0.00179077
0.00172518
0.0016395
0.00154951
0.00146426
0.00138829
0.00132343
0.00126998
0.0012272
0.0011941
0.00116942
0.00115158
0.00113904
0.00134264
0.0015947
0.00177201
0.00184473
0.00183642
0.00177716
0.00169191
0.00159789
0.00150585
0.00142196
0.0013493
0.00128903
0.00124083
0.00120369
0.0011762
0.00115656
0.00114314
0.00134627
0.00161206
0.00180449
0.00188608
0.00188263
0.00182511
0.00173843
0.00164009
0.00154171
0.00145059
0.00137089
0.00130452
0.0012516
0.00121103
0.00118124
0.00116026
0.00114618
0.00140246
0.00167211
0.00186517
0.0019411
0.0019313
0.00186834
0.00177648
0.00167248
0.00156801
0.00147084
0.00138563
0.0013147
0.00125833
0.00121544
0.00118421
0.00116264
0.00114843
0.00151885
0.0017796
0.00195576
0.00200946
0.00198032
0.00190299
0.00180096
0.00168987
0.00158027
0.00147922
0.00139108
0.00131796
0.00126013
0.00121649
0.00118509
0.00116362
0.00114972
0.00170218
0.00193366
0.00206778
0.00207864
0.00201709
0.00191858
0.00180404
0.00168637
0.00157411
0.00147257
0.00138501
0.00131292
0.00125625
0.00121379
0.00118353
0.00116313
0.00115022
0.00195824
0.00212426
0.00217932
0.00212458
0.00202085
0.00189932
0.00177463
0.00165487
0.00154503
0.00144825
0.001366
0.00129884
0.00124637
0.00120731
0.00117974
0.00116144
0.00115012
0.00229135
0.00232315
0.00224674
0.0021065
0.00196055
0.00182441
0.00170034
0.00158892
0.00149053
0.0014056
0.00133429
0.00127636
0.00123123
0.00119774
0.0011743
0.00115898
0.00114976
0.00270422
0.00247551
0.00221238
0.00198723
0.00181706
0.00168636
0.00158031
0.00149072
0.00141392
0.00134829
0.00129311
0.00124807
0.00121274
0.00118645
0.00116815
0.00115639
0.0011496
0.00319795
0.00249744
0.00203976
0.00177225
0.0016123
0.00150948
0.00143592
0.0013776
0.00132834
0.00128576
0.00124914
0.00121845
0.00119385
0.00117533
0.00116245
0.00115439
0.00115006
0.00377211
0.00232089
0.00177271
0.00153558
0.00141533
0.00134853
0.00130746
0.00127789
0.00125322
0.00123099
0.0012107
0.00119275
0.00117776
0.00116625
0.00115831
0.00115363
0.00115153
0.0044249
0.0019924
0.00153191
0.00137048
0.00129282
0.00125061
0.00122754
0.00121367
0.00120306
0.00119321
0.00118357
0.00117447
0.00116658
0.0011605
0.00115657
0.0011547
0.00115449
0.00515318
0.00167048
0.00140422
0.00131158
0.00125906