/*--------------------------------*- C++ -*----------------------------------*\
  =========                 |
  \\      /  F ield         | OpenFOAM: The Open Source CFD Toolbox
   \\    /   O peration     | Website:  https://openfoam.org
    \\  /    A nd           | Version:  6
     \\/     M anipulation  |
\*---------------------------------------------------------------------------*/
FoamFile
{
    version     2.0;
    format      ascii;
    class       volScalarField;
    location    "3.97";
    object      p;
}
// * * * * * * * * * * * * * * * * * * * * * * * * * * * * * * * * * * * * * //

dimensions      [1 -1 -2 0 0 0 0];

internalField   nonuniform List<scalar> 
10000
(
1
1
1
1
1
1
1
1
1
1
1
1
1
1
1
1
1
1
1
1
1
1
1
1
1
1
1
1
1
1
1
1
1
1
1
1
1
1
1
1
1
1
1
1
1
1
1
0.999994
0.999985
0.999974
0.99996
0.999944
0.999929
0.999918
0.999915
0.999925
0.999953
0.999999
1.00007
1.00016
1.00027
1.00039
1.00052
1.00065
1.00077
1.00087
1.00096
1.00102
1.00105
1.00106
1.00104
1.00099
1.00093
1.00084
1.00076
1.00066
1.00057
1.00048
1.00039
1.00031
1.00025
1.00019
1.00014
1.0001
1.00007
1.00005
1.00003
1.00002
1.00001
1
1
0.999999
0.999999
0.999999
0.999999
0.999999
0.999999
1
1
1
1
1
1
1
1
1
1
1
1
1
1
1
1
1
1
1
1
1
1
1
1
1
1
1
1
1
1
1
1
1
1
1
1
1
1
1
1
1
1
1
1
1
1
1.00001
1.00001
1
1
0.999995
0.999985
0.999972
0.999956
0.999941
0.99993
0.999928
0.999941
0.999977
1.00004
1.00013
1.00026
1.00041
1.00059
1.00078
1.00098
1.00117
1.00135
1.0015
1.00161
1.00169
1.00172
1.0017
1.00164
1.00155
1.00143
1.00129
1.00114
1.00099
1.00084
1.00069
1.00056
1.00045
1.00035
1.00026
1.00019
1.00014
1.00009
1.00006
1.00004
1.00002
1.00001
1
1
0.999998
0.999998
0.999998
0.999998
0.999998
0.999999
0.999999
0.999999
1
1
1
1
1
1
1
1
1
1
1
1
1
1
1
1
1
1
1
1
1
1
1
1
1
1
1
1
1
1
1
1
1
1
1
1
1
1
1
1
1
1
1.00001
1.00001
1.00001
1.00001
1.00001
1
0.999997
0.999986
0.999972
0.999957
0.999947
0.999946
0.999964
1.00001
1.00009
1.00021
1.00038
1.00059
1.00084
1.00113
1.00143
1.00173
1.00201
1.00227
1.00247
1.00262
1.00271
1.00273
1.00268
1.00257
1.00241
1.00221
1.00198
1.00173
1.00148
1.00124
1.00102
1.00082
1.00064
1.00049
1.00037
1.00027
1.00019
1.00013
1.00008
1.00005
1.00003
1.00001
1
0.999999
0.999997
0.999996
0.999996
0.999997
0.999998
0.999998
0.999999
0.999999
0.999999
1
1
1
1
1
1
1
1
1
1
1
1
1
1
1
1
1
1
1
1
1
1
1
1
1
1
1
1
1
1
1
1
1
1
1
1
1
1
1
1
1.00001
1.00001
1.00001
1.00001
1.00001
1.00001
1.00001
1
0.99999
0.999978
0.999969
0.99997
0.999992
1.00005
1.00015
1.0003
1.00052
1.0008
1.00115
1.00155
1.00199
1.00244
1.00288
1.00329
1.00365
1.00393
1.00413
1.00424
1.00424
1.00414
1.00396
1.00369
1.00337
1.003
1.00261
1.00222
1.00185
1.00151
1.0012
1.00093
1.00071
1.00052
1.00038
1.00026
1.00017
1.00011
1.00006
1.00003
1.00001
1
0.999997
0.999994
0.999993
0.999994
0.999995
0.999996
0.999997
0.999998
0.999999
0.999999
0.999999
1
1
1
1
1
1
1
1
1
1
1
1
1
1
1
1
1
1
1
1
1
1
1
1
1
1
1
1
1
1
1
1
1
1
1
1
1
1
1.00001
1.00001
1.00001
1.00002
1.00002
1.00002
1.00002
1.00002
1.00001
1
0.999995
0.999998
1.00002
1.00009
1.0002
1.00039
1.00067
1.00103
1.00149
1.00204
1.00264
1.00329
1.00395
1.00458
1.00516
1.00566
1.00604
1.0063
1.00642
1.0064
1.00624
1.00595
1.00554
1.00505
1.0045
1.00391
1.00332
1.00276
1.00223
1.00177
1.00136
1.00103
1.00075
1.00054
1.00037
1.00024
1.00015
1.00009
1.00005
1.00002
1
0.999994
0.99999
0.99999
0.999991
0.999992
0.999994
0.999996
0.999997
0.999998
0.999999
0.999999
0.999999
1
1
1
1
1
1
1
1
1
1
1
1
1
1
1
1
1
1
1
1
1
1
1
1
1
1
1
1
1
1
1
1
1
1
1
1
1.00001
1.00001
1.00001
1.00002
1.00002
1.00003
1.00003
1.00003
1.00003
1.00003
1.00002
1.00003
1.00006
1.00013
1.00026
1.00048
1.00081
1.00126
1.00185
1.00256
1.00337
1.00427
1.0052
1.00613
1.007
1.00779
1.00845
1.00895
1.00928
1.00942
1.00936
1.00912
1.0087
1.00813
1.00743
1.00663
1.00577
1.00491
1.00407
1.0033
1.0026
1.002
1.0015
1.00109
1.00077
1.00053
1.00035
1.00021
1.00012
1.00006
1.00002
1
0.99999
0.999985
0.999985
0.999986
0.999989
0.999991
0.999994
0.999996
0.999997
0.999998
0.999998
0.999999
0.999999
1
1
1
1
1
1
1
1
1
1
1
1
1
1
1
1
1
1
1
1
1
1
1
1
1
1
1
1
1
1
1
1
1
1
1
1.00001
1.00001
1.00002
1.00002
1.00003
1.00004
1.00005
1.00005
1.00005
1.00005
1.00006
1.00009
1.00016
1.00031
1.00055
1.00093
1.00146
1.00218
1.00307
1.00413
1.00531
1.00657
1.00786
1.00912
1.01028
1.0113
1.01214
1.01277
1.01317
1.01332
1.01324
1.01291
1.01235
1.01159
1.01063
1.00954
1.00836
1.00714
1.00595
1.00482
1.00381
1.00293
1.0022
1.0016
1.00113
1.00077
1.0005
1.00031
1.00018
1.00009
1.00003
1
0.999985
0.999979
0.999978
0.999981
0.999984
0.999988
0.999991
0.999994
0.999996
0.999997
0.999998
0.999998
0.999999
0.999999
1
1
1
1
1
1
1
1
1
1
1
1
1
1
1
1
1
1
1
1
1
1
1
1
1
1
1
1
1
1
1
1
1
1.00001
1.00001
1.00002
1.00002
1.00003
1.00005
1.00006
1.00007
1.00007
1.00008
1.00009
1.00013
1.0002
1.00034
1.0006
1.00101
1.00163
1.00247
1.00355
1.00486
1.00636
1.008
1.00971
1.01141
1.01302
1.01448
1.01573
1.01674
1.01749
1.01794
1.01811
1.01799
1.01759
1.01691
1.01596
1.01476
1.01335
1.0118
1.01016
1.00852
1.00696
1.00553
1.00427
1.0032
1.00233
1.00164
1.00112
1.00073
1.00045
1.00026
1.00013
1.00005
1.00001
0.999981
0.999972
0.99997
0.999973
0.999978
0.999983
0.999987
0.999991
0.999994
0.999996
0.999996
0.999998
0.999999
0.999999
1
1
1
1
1
1
1
1
1
1
1
1
1
1
1
1
1
1
1
1
1
1
1
1
1
1
1
1
1
1
1
1
1.00001
1.00001
1.00002
1.00002
1.00003
1.00005
1.00006
1.00008
1.00009
1.0001
1.00012
1.00016
1.00023
1.00037
1.00063
1.00106
1.00173
1.00267
1.00393
1.0055
1.00734
1.00939
1.01157
1.01376
1.01588
1.01783
1.01954
1.02097
1.02209
1.02288
1.02336
1.02353
1.02338
1.02293
1.02218
1.02111
1.01973
1.01806
1.01614
1.01407
1.01193
1.00983
1.00787
1.00612
1.00462
1.00338
1.00239
1.00163
1.00107
1.00067
1.00039
1.0002
1.00008
1.00002
0.999979
0.999964
0.999961
0.999964
0.99997
0.999977
0.999983
0.999988
0.999992
0.999994
0.999995
0.999997
0.999998
0.999999
0.999999
1
1
1
1
1
1
1
1
1
1
1
1
1
1
1
1
1
1
1
1
1
1
1
1
1
1
1
1
1
1
1
1.00001
1.00001
1.00002
1.00003
1.00005
1.00006
1.00008
1.0001
1.00012
1.00015
1.00019
1.00025
1.00039
1.00064
1.00107
1.00176
1.00278
1.00419
1.00599
1.00817
1.01065
1.01332
1.01604
1.01869
1.02115
1.02332
1.02515
1.02661
1.0277
1.02845
1.02887
1.029
1.02884
1.02841
1.02768
1.02663
1.02522
1.02343
1.02128
1.01884
1.01621
1.01355
1.01098
1.00863
1.00657
1.00484
1.00345
1.00237
1.00157
1.00098
1.00058
1.00031
1.00014
1.00004
0.999981
0.999957
0.99995
0.999953
0.99996
0.999969
0.999977
0.999983
0.999989
0.999992
0.999993
0.999996
0.999997
0.999999
0.999999
1
1
1
1
1
1
1
1
1
1
1
1
1
1
1
1
1
1
1
1
1
1
1
1
1
1
1
1
1
1
1.00001
1.00001
1.00002
1.00003
1.00004
1.00006
1.00008
1.00011
1.00014
1.00017
1.00021
1.00028
1.0004
1.00063
1.00104
1.00172
1.00278
1.00429
1.0063
1.00879
1.01168
1.01485
1.01812
1.02131
1.02427
1.02686
1.02901
1.03071
1.03196
1.03282
1.03334
1.0336
1.03364
1.03348
1.03315
1.03259
1.03177
1.03058
1.02895
1.02682
1.02423
1.02127
1.01809
1.0149
1.01188
1.00915
1.00682
1.00491
1.00341
1.00227
1.00145
1.00087
1.00048
1.00023
1.00008
0.999993
0.999953
0.999939
0.999941
0.999949
0.999959
0.999969
0.999978
0.999985
0.99999
0.999991
0.999994
0.999997
0.999998
0.999999
0.999999
1
1
1
1
1
1
1
1
1
1
1
1
1
1
1
1
1
1
1
1
1
1
1
1
1
1
1
1
1
1.00001
1.00001
1.00002
1.00004
1.00006
1.00008
1.00011
1.00014
1.00018
1.00022
1.00029
1.0004
1.00061
1.00098
1.00163
1.00267
1.00422
1.00637
1.00912
1.0124
1.01606
1.01987
1.0236
1.02702
1.02996
1.03233
1.0341
1.03531
1.03604
1.0364
1.0365
1.03646
1.03634
1.03619
1.03603
1.03582
1.03547
1.03484
1.03376
1.03208
1.02973
1.02675
1.02329
1.01958
1.0159
1.01245
1.00941
1.00686
1.00482
1.00326
1.0021
1.00128
1.00073
1.00036
1.00014
1.00002
0.999955
0.999931
0.999928
0.999936
0.999948
0.99996
0.999971
0.99998
0.999987
0.999989
0.999993
0.999996
0.999997
0.999998
0.999999
0.999999
1
1
1
1
1
1
1
1
1
1
1
1
1
1
1
1
1
1
1
1
1
1
1
1
1
1
1
1.00001
1.00001
1.00002
1.00003
1.00005
1.00007
1.0001
1.00014
1.00018
1.00023
1.0003
1.0004
1.00058
1.00091
1.00149
1.00247
1.00399
1.0062
1.00913
1.01275
1.01686
1.0212
1.02545
1.0293
1.03253
1.03499
1.03666
1.03759
1.0379
1.03777
1.03737
1.03686
1.03639
1.03605
1.03591
1.03598
1.03624
1.03659
1.03685
1.03677
1.03606
1.03451
1.03203
1.02871
1.02479
1.02059
1.01646
1.01266
1.00938
1.00668
1.00458
1.003
1.00186
1.00108
1.00057
1.00025
1.00007
0.999969
0.999927
0.999916
0.999922
0.999935
0.99995
0.999963
0.999974
0.999983
0.999985
0.999991
0.999994
0.999997
0.999998
0.999999
0.999999
1
1
1
1
1
1
1
1
1
1
1
1
1
1
1
1
1
1
1
1
1
1
1
1
1
1
1
1.00001
1.00001
1.00002
1.00004
1.00006
1.00009
1.00013
1.00018
1.00023
1.0003
1.00039
1.00055
1.00082
1.00133
1.00221
1.00364
1.0058
1.00882
1.01267
1.01718
1.02202
1.02678
1.03105
1.03451
1.03697
1.03837
1.03881
1.03846
1.03754
1.03629
1.03494
1.03369
1.03271
1.0321
1.03195
1.03227
1.03306
1.03424
1.03561
1.03688
1.03765
1.03753
1.03623
1.03368
1.03004
1.02569
1.02105
1.01655
1.01249
1.00905
1.0063
1.0042
1.00266
1.00159
1.00087
1.00042
1.00015
1
0.999931
0.999907
0.999909
0.999922
0.999938
0.999954
0.999967
0.999978
0.999982
0.999988
0.999993
0.999996
0.999997
0.999999
0.999999
1
1
1
1
1
1
1
1
1
1
1
1
1
1
1
1
1
1
1
1
1
1
1
1
1
1
1.00001
1.00001
1.00002
1.00003
1.00005
1.00008
1.00011
1.00016
1.00022
1.00029
1.00038
1.00051
1.00074
1.00116
1.00191
1.00319
1.00522
1.00818
1.01215
1.01697
1.02228
1.02755
1.03224
1.03593
1.03833
1.03938
1.03917
1.03796
1.03602
1.03368
1.03122
1.02888
1.02689
1.0254
1.02453
1.02434
1.02487
1.02614
1.0281
1.03061
1.03339
1.03597
1.0378
1.03836
1.03732
1.03467
1.03071
1.02595
1.02094
1.01616
1.01195
1.00847
1.00574
1.00371
1.00227
1.00129
1.00066
1.00027
1.00006
0.999948
0.999904
0.999897
0.999908
0.999926
0.999944
0.99996
0.999972
0.999977
0.999985
0.999991
0.999994
0.999997
0.999998
0.999999
0.999999
1
1
1
1
1
1
1
1
1
1
1
1
1
1
1
1
1
1
1
1
1
1
1
1
1
1.00001
1.00001
1.00002
1.00004
1.00006
1.0001
1.00014
1.0002
1.00027
1.00035
1.00047
1.00067
1.00101
1.00162
1.00271
1.00451
1.0073
1.01122
1.01622
1.02192
1.02769
1.03286
1.03682
1.03919
1.03987
1.03897
1.0368
1.03374
1.03017
1.02645
1.02289
1.0197
1.01709
1.01518
1.01408
1.01384
1.0145
1.0161
1.01866
1.02211
1.02625
1.03065
1.03468
1.03758
1.03875
1.03787
1.03504
1.03072
1.02557
1.02027
1.01533
1.01109
1.00766
1.00505
1.00316
1.00185
1.00099
1.00046
1.00015
0.999983
0.99991
0.99989
0.999895
0.999913
0.999933
0.999951
0.999966
0.999972
0.999982
0.999989
0.999993
0.999996
0.999998
0.999999
0.999999
1
1
1
1
1
1
1
1
1
1
1
1
1
1
1
1
1
1
1
1
1
1
1
1
1
1.00001
1.00002
1.00003
1.00005
1.00008
1.00012
1.00017
1.00024
1.00032
1.00043
1.00059
1.00087
1.00136
1.00224
1.00377
1.00625
1.00995
1.01494
1.02091
1.02718
1.03288
1.03723
1.03968
1.04006
1.03852
1.03541
1.03121
1.0264
1.02142
1.01662
1.01225
1.00849
1.00548
1.00332
1.00206
1.00175
1.00244
1.00418
1.00705
1.01108
1.01619
1.02209
1.02815
1.03354
1.03735
1.0389
1.03796
1.03479
1.03006
1.02458
1.01909
1.01413
1.00997
1.00671
1.00429
1.00258
1.00144
1.00071
1.00028
1.00004
0.99993
0.999888
0.999885
0.9999
0.999921
0.999942
0.999959
0.999967
0.999978
0.999986
0.999992
0.999995
0.999997
0.999998
0.999999
1
1
1
1
1
1
1
1
1
1
1
1
1
1
1
1
1
1
1
1
1
1
1
1
1.00001
1.00001
1.00002
1.00004
1.00006
1.00009
1.00014
1.0002
1.00028
1.00039
1.00053
1.00074
1.00112
1.00181
1.00305
1.00515
1.00846
1.01322
1.01927
1.02597
1.03227
1.03715
1.03987
1.04015
1.0381
1.03417
1.02892
1.02295
1.01677
1.01082
1.00537
1.00062
0.996646
0.993522
0.991282
0.989956
0.989575
0.990181
0.991855
0.994714
0.998893
1.00446
1.01128
1.01889
1.02647
1.03296
1.03731
1.03889
1.0376
1.03394
1.02878
1.02304
1.01749
1.01263
1.00868
1.00567
1.0035
1.00202
1.00106
1.00047
1.00014
0.999968
0.999896
0.999879
0.99989
0.99991
0.999932
0.999952
0.999961
0.999974
0.999984
0.99999
0.999994
0.999996
0.999998
0.999999
0.999999
1
1
1
1
1
1
1
1
1
1
1
1
1
1
1
1
1
1
1
1
1
1
1
1.00001
1.00001
1.00003
1.00004
1.00007
1.00011
1.00017
1.00024
1.00033
1.00046
1.00064
1.00093
1.00145
1.00241
1.00409
1.0069
1.01119
1.01706
1.02402
1.03095
1.03654
1.03979
1.04023
1.03794
1.03338
1.02724
1.02024
1.01299
1.00601
0.999621
0.994039
0.989338
0.985518
0.982552
0.980415
0.979099
0.978619
0.979028
0.980432
0.982995
0.986929
0.992422
0.999529
1.008
1.01717
1.02596
1.0331
1.03752
1.03868
1.03675
1.03249
1.02692
1.02103
1.01556
1.01094
1.0073
1.00462
1.00274
1.0015
1.00072
1.00027
1.00003
0.999917
0.99988
0.999882
0.9999
0.999923
0.999944
0.999955
0.99997
0.999981
0.999988
0.999993
0.999996
0.999998
0.999999
0.999999
1
1
1
1
1
1
1
1
1
1
1
1
1
1
1
1
1
1
1
1
1
1
1
1.00001
1.00002
1.00003
1.00005
1.00008
1.00013
1.0002
1.00028
1.00039
1.00054
1.00077
1.00116
1.00187
1.00316
1.00541
1.00907
1.01445
1.02137
1.02883
1.03529
1.03937
1.04032
1.03811
1.03323
1.02643
1.01856
1.01037
1.00247
0.995262
0.989002
0.983772
0.979534
0.976179
0.973592
0.971687
0.970423
0.969803
0.969894
0.970836
0.97285
0.976211
0.981209
0.988049
0.996697
1.00671
1.01715
1.02667
1.0339
1.03782
1.03815
1.03536
1.03044
1.02455
1.01867
1.01343
1.00917
1.00593
1.00361
1.00205
1.00105
1.00045
1.00012
0.999954
0.999889
0.999878
0.999892
0.999914
0.999936
0.99995
0.999966
0.999978
0.999986
0.999992
0.999995
0.999997
0.999998
0.999999
0.999999
1
1
1
1
1
1
1
1
1
1
1
1
1
1
1
1
1
1
1
1
1
1
1.00001
1.00002
1.00003
1.00006
1.0001
1.00015
1.00022
1.00032
1.00045
1.00063
1.00092
1.00144
1.00239
1.0041
1.00704
1.01167
1.01816
1.02587
1.03324
1.03844
1.04031
1.03861
1.03377
1.02661
1.01807
1.00907
1.00032
0.992371
0.985516
0.979878
0.975417
0.971964
0.969299
0.967229
0.96562
0.964408
0.963589
0.963241
0.963545
0.964784
0.96731
0.971495
0.977653
0.985926
0.996102
1.00746
1.01874
1.02842
1.03509
1.03797
1.03712
1.03335
1.02785
1.02179
1.01608
1.01123
1.00742
1.00463
1.00271
1.00145
1.00068
1.00024
1.00001
0.99991
0.99988
0.999886
0.999906
0.999929
0.999944
0.999962
0.999975
0.999984
0.99999
0.999994
0.999997
0.999998
0.999999
0.999999
1
1
1
1
1
1
1
1
1
1
1
1
1
1
1
1
1
1
1
1
1
1.00001
1.00001
1.00002
1.00004
1.00007
1.00011
1.00017
1.00025
1.00036
1.00051
1.00073
1.00111
1.00179
1.00303
1.00526
1.00899
1.01468
1.02218
1.03023
1.03676
1.03999
1.03927
1.0349
1.02775
1.01883
1.00916
0.999638
0.990936
0.983479
0.977456
0.972847
0.96946
0.966993
0.965123
0.963598
0.962272
0.961079
0.960014
0.959151
0.958687
0.958968
0.960435
0.963555
0.968739
0.976251
0.986068
0.997697
1.01007
1.02166
1.0308
1.03628
1.03767
1.03545
1.03072
1.0248
1.01879
1.01343
1.00907
1.00579
1.00348
1.00193
1.00096
1.00039
1.00009
0.999943
0.99989
0.999885
0.999901
0.999923
0.99994
0.999958
0.999972
0.999982
0.999989
0.999994
0.999996
0.999998
0.999999
0.999999
1
1
1
1
1
1
1
1
1
1
1
1
1
1
1
1
1
1
1
1
1
1.00001
1.00001
1.00003
1.00005
1.00008
1.00013
1.00019
1.00028
1.00041
1.00058
1.00085
1.00133
1.00221
1.00381
1.00663
1.01127
1.01803
1.02626
1.03402
1.039
1.03981
1.03645
1.02973
1.02076
1.01064
1.00042
0.990935
0.982787
0.97629
0.971486
0.968187
0.966034
0.964587
0.963447
0.962358
0.961215
0.959998
0.958707
0.957372
0.956148
0.955392
0.955635
0.957473
0.961438
0.967907
0.976995
0.988406
1.00128
1.01419
1.02538
1.03328
1.03701
1.03663
1.03303
1.02754
1.02144
1.01569
1.01084
1.00707
1.00435
1.00249
1.0013
1.00059
1.00019
0.999991
0.999909
0.999889
0.999898
0.999919
0.999936
0.999955
0.99997
0.999981
0.999988
0.999993
0.999996
0.999998
0.999999
0.999999
0.999999
1
1
1
1
1
1
1
1
1
1
1
1
1
1
1
1
1
1
1
1
1.00001
1.00001
1.00003
1.00005
1.00008
1.00014
1.00021
1.00031
1.00045
1.00066
1.00098
1.00158
1.00271
1.00473
1.00824
1.01385
1.02157
1.03009
1.0369
1.0398
1.03807
1.03232
1.02369
1.01341
1.00263
0.992364
0.983397
0.976239
0.97107
0.967748
0.965875
0.964899
0.964261
0.963548
0.962586
0.961408
0.960117
0.958739
0.957208
0.955514
0.953901
0.952925
0.953332
0.955845
0.961005
0.969065
0.979882
0.992785
1.00649
1.01926
1.02929
1.03529
1.0369
1.03469
1.02991
1.02394
1.01795
1.01267
1.00844
1.0053
1.00312
1.00169
1.00082
1.00032
1.00006
0.999937
0.999899
0.999899
0.999916
0.999934
0.999953
0.999968
0.999979
0.999987
0.999992
0.999995
0.999997
0.999999
0.999999
1
1
1
1
1
1
1
1
1
1
1
1
1
1
1
1
1
1
1
1
1.00001
1.00001
1.00002
1.00004
1.00006
1.00009
1.00015
1.00023
1.00033
1.00049
1.00074
1.00113
1.00188
1.00329
1.0058
1.01006
1.01665
1.02512
1.03339
1.03866
1.03924
1.03513
1.02738
1.0173
1.00619
0.995207
0.98533
0.977282
0.971464
0.967876
0.966129
0.965554
0.965383
0.964977
0.964015
0.962548
0.960898
0.959414
0.958215
0.957095
0.955706
0.953928
0.952151
0.95122
0.952131
0.95571
0.962429
0.972313
0.984851
0.99891
1.0128
1.02461
1.03271
1.03633
1.03568
1.03184
1.02622
1.02013
1.01451
1.00987
1.00633
1.00381
1.00214
1.00108
1.00047
1.00014
0.999976
0.999915
0.999904
0.999916
0.999934
0.999951
0.999966
0.999978
0.999986
0.999992
0.999995
0.999997
0.999998
0.999999
1
1
1
1
1
1
1
1
1
1
1
1
1
1
1
1
1
1
1
1
1
1.00001
1.00001
1.00004
1.00007
1.00009
1.00016
1.00026
1.00035
1.00053
1.00083
1.0013
1.00221
1.00396
1.00701
1.01207
1.01956
1.02844
1.03592
1.03928
1.03758
1.03142
1.02208
1.01095
0.99941
0.988622
0.979506
0.972706
0.968477
0.966565
0.966239
0.966473
0.966261
0.964956
0.962496
0.959382
0.956442
0.95446
0.953777
0.954047
0.954383
0.953936
0.952542
0.950937
0.95041
0.952241
0.957304
0.965896
0.977689
0.991692
1.00629
1.0195
1.02947
1.03503
1.03603
1.03329
1.0282
1.02218
1.01633
1.01131
1.0074
1.00455
1.00262
1.00138
1.00064
1.00023
1.00003
0.999938
0.999913
0.999918
0.999935
0.999951
0.999965
0.999977
0.999985
0.999991
0.999995
0.999997
0.999998
0.999999
1
1
1
1
1
1
1
1
1
1
1
1
1
1
1
1
1
1
1
1
1
1.00002
1.00002
1.00004
1.00008
1.0001
1.00017
1.00028
1.00037
1.00056
1.00093
1.00149
1.00258
1.0047
1.00836
1.01421
1.02245
1.03135
1.03762
1.03894
1.03516
1.02731
1.01673
1.0049
0.993278
0.983021
0.974972
0.969659
0.967129
0.966766
0.967359
0.967406
0.965631
0.961517
0.955548
0.949001
0.943482
0.940427
0.940573
0.943504
0.947644
0.950981
0.952223
0.951549
0.950407
0.950682
0.953901
0.960853
0.971511
0.985059
0.999969
1.01423
1.02579
1.03315
1.03579
1.03428
1.02986
1.02404
1.01806
1.01275
1.00848
1.00532
1.00313
1.00171
1.00084
1.00035
1.00009
0.999969
0.999927
0.999923
0.999939
0.999952
0.999966
0.999977
0.999985
0.999991
0.999995
0.999997
0.999998
0.999999
0.999999
1
1
1
1
1
1
1
1
1
1
1
1
1
1
1
1
0.999999
1
1
1
1.00002
1.00002
1.00003
1.00008
1.00011
1.00016
1.00029
1.0004
1.00059
1.00103
1.00172
1.00298
1.00551
1.00982
1.01642
1.02516
1.03372
1.03855
1.03787
1.03227
1.02306
1.01157
0.999325
0.987902
0.978461
0.971715
0.968012
0.967103
0.967869
0.968421
0.96661
0.960896
0.951182
0.938969
0.926714
0.917036
0.91216
0.913375
0.920334
0.930735
0.94105
0.948216
0.951181
0.951177
0.950712
0.952241
0.957346
0.966515
0.979214
0.994044
1.00899
1.02184
1.03083
1.03507
1.03482
1.03119
1.02569
1.01968
1.01414
1.00957
1.00611
1.00367
1.00206
1.00105
1.00047
1.00016
1.00001
0.999946
0.999932
0.999944
0.999954
0.999967
0.999977
0.999985
0.999991
0.999995
0.999997
0.999998
0.999999
0.999999
1
1
1
1
1
1
1
1
1
1
1
1
1
1
1
1
0.999999
1
1.00001
0.999999
1.00002
1.00003
1.00002
1.00009
1.00012
1.00015
1.0003
1.00043
1.0006
1.00112
1.00197
1.00342
1.00635
1.01134
1.01862
1.02758
1.03551
1.03885
1.03632
1.02914
1.01887
1.00675
0.994323
0.983326
0.974929
0.969635
0.967517
0.967918
0.969037
0.968041
0.96194
0.949091
0.930376
0.90895
0.8888
0.873564
0.866207
0.868671
0.880865
0.89985
0.920435
0.937294
0.947412
0.951186
0.951537
0.952022
0.955347
0.962804
0.974316
0.988697
1.00397
1.01782
1.02821
1.03394
1.03496
1.03219
1.0271
1.02116
1.01545
1.01062
1.00689
1.00421
1.00242
1.00128
1.00061
1.00024
1.00005
0.999969
0.999944
0.999952
0.999958
0.999969
0.999978
0.999986
0.999991
0.999995
0.999997
0.999998
0.999999
1
1
1
1
1
1
1
1
1
1
1
1
1
1
1
1
1
0.999999
1
1.00001
0.999997
1.00002
1.00003
1.00002
1.00008
1.00013
1.00013
1.0003
1.00047
1.00062
1.0012
1.00224
1.00389
1.00719
1.01288
1.02074
1.02964
1.03676
1.03869
1.03449
1.02593
1.01487
1.00239
0.989956
0.979533
0.97234
0.968557
0.967819
0.968956
0.969274
0.964686
0.951271
0.927732
0.896747
0.863743
0.834287
0.812715
0.802509
0.806357
0.824638
0.853917
0.887386
0.917304
0.938166
0.948814
0.952109
0.952679
0.954619
0.960334
0.97043
0.984054
0.999333
1.01388
1.02545
1.03253
1.03477
1.03289
1.02828
1.02247
1.01666
1.01162
1.00764
1.00475
1.00278
1.00151
1.00075
1.00032
1.0001
0.999997
0.999959
0.999962
0.999964
0.999971
0.999979
0.999986
0.999991
0.999995
0.999997
0.999998
0.999999
1
1
1
1
1
1
1
1
1
1
1
1
1
1
1
1
1
1
0.999997
1.00001
0.999999
1.00001
1.00004
1.00001
1.00007
1.00015
1.00012
1.00027
1.00052
1.00065
1.00125
1.00253
1.00441
1.00801
1.01436
1.02274
1.03135
1.03752
1.03821
1.03258
1.02278
1.01113
0.998543
0.98625
0.976464
0.970554
0.968243
0.968511
0.969543
0.967583
0.957066
0.933275
0.895957
0.850422
0.804698
0.765591
0.737578
0.724423
0.729733
0.75457
0.795055
0.842867
0.888042
0.922487
0.942922
0.951485
0.953584
0.954806
0.958942
0.96752
0.980164
0.995179
1.01016
1.02267
1.03094
1.03431
1.03331
1.02922
1.0236
1.01776
1.01255
1.00836
1.00527
1.00313
1.00175
1.0009
1.00041
1.00015
1.00003
0.999977
0.999974
0.999971
0.999975
0.999982
0.999988
0.999992
0.999995
0.999997
0.999999
0.999999
1
1
1
1
1
1
1
1
1
1
1
1
0.999999
1
1
1
1
1
0.999996
1.00001
1
0.999997
1.00005
1.00002
1.00004
1.00017
1.00012
1.00022
1.00055
1.0007
1.00127
1.00278
1.00496
1.0088
1.01571
1.02456
1.03275
1.03788
1.03752
1.03073
1.01981
1.00769
0.995241
0.983213
0.974022
0.969378
0.968432
0.969186
0.969061
0.963231
0.94467
0.908188
0.855239
0.794274
0.735873
0.687556
0.653409
0.637386
0.644206
0.675727
0.727604
0.790058
0.851231
0.900782
0.933129
0.949058
0.95421
0.955546
0.958416
0.965486
0.977014
0.991559
1.00674
1.01998
1.02926
1.03367
1.0335
1.02995
1.02456
1.01872
1.01339
1.00903
1.00576
1.00348
1.00198
1.00105
1.00051
1.00021
1.00006
0.999997
0.999987
0.999979
0.99998
0.999985
0.999989
0.999993
0.999996
0.999997
0.999999
0.999999
1
1
1
1
1
1
1
1
1
1
1
1
1
1
1
0.999999
1
1
0.999995
1.00001
1.00001
0.999988
1.00005
1.00003
1.00001
1.00016
1.00014
1.00016
1.00055
1.00078
1.00128
1.00298
1.00553
1.00957
1.01686
1.02616
1.03392
1.03794
1.03667
1.02906
1.01715
1.00456
0.992449
0.980842
0.972109
0.968581
0.968863
0.969533
0.967116
0.956034
0.928146
0.878058
0.80913
0.733031
0.662704
0.605989
0.566304
0.547751
0.556094
0.593963
0.656708
0.733207
0.809898
0.874648
0.919854
0.944613
0.954179
0.956518
0.958535
0.964202
0.974552
0.988484
1.00368
1.01745
1.02758
1.03291
1.03351
1.03048
1.02535
1.01955
1.01413
1.00963
1.00621
1.0038
1.00219
1.00119
1.0006
1.00027
1.0001
1.00002
1
0.999988
0.999986
0.999988
0.999991
0.999994
0.999996
0.999997
0.999999
0.999999
1
1
1
1
1
1
1
1
1
1
1
1
1
1
1
1
0.999999
1
0.999997
1
1.00002
0.999985
1.00003
1.00005
0.99999
1.00014
1.00018
1.00011
1.00051
1.00088
1.00131
1.0031
1.00607
1.01032
1.01779
1.02748
1.03495
1.03782
1.0357
1.02764
1.01494
1.00177
0.990071
0.97911
0.97066
0.96792
0.969292
0.969425
0.963698
0.94647
0.909193
0.846199
0.762302
0.672145
0.590995
0.526977
0.482836
0.462526
0.472234
0.515285
0.587402
0.676589
0.767541
0.846492
0.904273
0.938397
0.953299
0.95744
0.959074
0.963521
0.972704
0.98594
1.00101
1.01516
1.02598
1.03208
1.03338
1.03084
1.02596
1.02023
1.01476
1.01015
1.00661
1.00409
1.0024
1.00133
1.00069
1.00033
1.00014
1.00004
1.00002
0.999998
0.999992
0.999992
0.999993
0.999995
0.999997
0.999998
0.999999
0.999999
1
1
1
1
1
1
1
1
1
1
1
1
1
1
1
1
0.999999
1
0.999999
0.999997
1.00002
0.99999
1.00001
1.00006
0.999984
1.00009
1.0002
1.00008
1.00042
1.00096
1.00139
1.00314
1.00651
1.01107
1.01853
1.02846
1.03586
1.0377
1.03465
1.02642
1.01328
0.99937
0.987967
0.977936
0.969681
0.967195
0.969487
0.968964
0.959261
0.935544
0.889947
0.816209
0.719576
0.617167
0.526695
0.456927
0.410094
0.389266
0.399918
0.445968
0.524648
0.624148
0.727467
0.81895
0.888077
0.931135
0.951642
0.958114
0.959805
0.963278
0.971378
0.983896
0.998754
1.01314
1.0245
1.03126
1.03316
1.03105
1.02641
1.02077
1.01527
1.01058
1.00695
1.00434
1.00258
1.00145
1.00077
1.00038
1.00017
1.00007
1.00003
1.00001
0.999999
0.999996
0.999996
0.999997
0.999998
0.999999
0.999999
1
1
1
1
1
1
1
1
1
0.999999
1
1
1
1
1
1
0.999999
1
1
1
0.999996
1.00001
0.999999
0.999996
1.00006
0.999996
1.00003
1.0002
1.0001
1.00032
1.00098
1.00152
1.00315
1.00679
1.01176
1.01914
1.02907
1.03661
1.03771
1.03363
1.02532
1.01222
0.997543
0.986018
0.977127
0.969249
0.966345
0.969196
0.968377
0.954689
0.924522
0.872209
0.790974
0.685165
0.573359
0.475684
0.402156
0.354816
0.334971
0.346085
0.392404
0.473729
0.579873
0.692714
0.794426
0.873027
0.92383
0.949546
0.958492
0.960548
0.963302
0.970462
0.982301
0.996905
1.01144
1.02321
1.03049
1.03288
1.03114
1.02672
1.02117
1.01567
1.01092
1.00722
1.00455
1.00273
1.00156
1.00085
1.00044
1.00021
1.00009
1.00005
1.00002
1.00001
1
0.999999
0.999998
0.999999
0.999999
1
1
1
1
1
1
1
1
1
1
1
1
1
1
1
0.999999
1
0.999999
1
1
1
0.999996
1.00001
1.00001
0.999988
1.00004
1.00001
0.999994
1.00016
1.00013
1.00023
1.00092
1.00165
1.00317
1.00688
1.01231
1.01969
1.02936
1.03709
1.03795
1.03284
1.02424
1.01162
0.996489
0.984257
0.976365
0.969391
0.96556
0.968205
0.96778
0.951099
0.914827
0.857093
0.771898
0.661684
0.544668
0.44263
0.367337
0.321283
0.303683
0.31502
0.35934
0.439376
0.547752
0.666257
0.775085
0.86067
0.917454
0.947459
0.958647
0.961199
0.963454
0.969848
0.981099
0.995453
1.01006
1.02213
1.02981
1.03257
1.03113
1.0269
1.02143
1.01594
1.01117
1.00743
1.00471
1.00285
1.00166
1.00092
1.00049
1.00024
1.00012
1.00007
1.00003
1.00001
1
1
1
1
0.999999
1
1
1
1
1
1
1
1
1
1
1
1
1
1
1
0.999999
1
0.999999
1
1
1
0.999999
1
1.00001
0.999991
1.00002
1.00002
0.999982
1.00009
1.00015
1.0002
1.0008
1.00172
1.00325
1.00683
1.01262
1.02019
1.02949
1.03724
1.03831
1.03251
1.02325
1.01123
0.996289
0.982965
0.975341
0.969885
0.965279
0.966541
0.966909
0.949375
0.90814
0.84549
0.758795
0.648978
0.531833
0.428891
0.353474
0.309431
0.294528
0.306144
0.34744
0.423576
0.530353
0.650463
0.762771
0.852317
0.912836
0.945791
0.958686
0.961703
0.963633
0.969453
0.980242
0.994386
1.00903
1.0213
1.02925
1.03228
1.03104
1.02695
1.02155
1.01609
1.01132
1.00756
1.00482
1.00294
1.00173
1.00097
1.00053
1.00028
1.00014
1.00008
1.00004
1.00002
1.00001
1
1
1
1
1
1
1
1
1
1
1
1
1
1
1
1
1
1
1
0.999999
1
1
1
1
0.999998
1
0.999999
1
0.999997
0.999998
1.00001
0.999989
1.00003
1.00012
1.00021
1.00067
1.00168
1.00333
1.00673
1.01262
1.02051
1.02957
1.03712
1.03863
1.03271
1.02262
1.01082
0.99672
0.982564
0.974074
0.970158
0.965852
0.964807
0.965279
0.949463
0.906105
0.839065
0.75126
0.644514
0.531481
0.431171
0.357345
0.315438
0.302871
0.314849
0.353302
0.424771
0.527691
0.646135
0.758465
0.848844
0.91061
0.944889
0.958717
0.962034
0.963769
0.969215
0.979696
0.993697
1.00835
1.02073
1.02883
1.03201
1.0309
1.02689
1.02155
1.01612
1.01137
1.00762
1.00488
1.003
1.00178
1.00102
1.00056
1.0003
1.00016
1.00009
1.00005
1.00003
1.00001
1.00001
1
1
1
1
1
1
1
1
1
1
1
1
1
1
1
1
1
1
0.999999
1
1
0.999998
1
0.999998
0.999999
1
0.999992
0.999998
0.999994
0.999982
0.999991
0.999995
1.00005
1.00021
1.00059
1.00154
1.00334
1.00664
1.01239
1.02054
1.02963
1.0369
1.03874
1.03328
1.02267
1.01047
0.997313
0.983229
0.97312
0.969644
0.966955
0.964062
0.962992
0.950135
0.909047
0.840176
0.750861
0.646808
0.539276
0.444101
0.374077
0.334957
0.324224
0.336481
0.372802
0.440075
0.53828
0.65277
0.762148
0.850452
0.911051
0.944972
0.958843
0.962196
0.963827
0.969101
0.979446
0.993386
1.00804
1.02045
1.02858
1.03179
1.0307
1.02673
1.02143
1.01604
1.01132
1.00761
1.00489
1.00302
1.00181
1.00105
1.00059
1.00033
1.00018
1.00011
1.00006
1.00003
1.00002
1.00001
1.00001
1
1
1
1
1
1
1
1
1
1
1
1
1
1
1
1
1
1
1
1
0.999998
1
0.999998
0.999997
1
0.99999
0.999989
0.999996
0.999961
0.999973
0.999986
0.999988
1.00016
1.00055
1.00139
1.00321
1.00653
1.01204
1.0202
1.02953
1.03675
1.03871
1.03392
1.02344
1.01059
0.997755
0.984551
0.97323
0.968517
0.967507
0.964824
0.961417
0.950294
0.914944
0.849479
0.760694
0.658446
0.555499
0.466352
0.402006
0.366417
0.357001
0.369228
0.403976
0.467673
0.560745
0.669485
0.773285
0.856836
0.914046
0.946053
0.959108
0.962217
0.963813
0.969112
0.979498
0.993467
1.00811
1.02046
1.0285
1.03161
1.03046
1.02646
1.02118
1.01584
1.01118
1.00752
1.00485
1.00301
1.00182
1.00106
1.00061
1.00034
1.00019
1.00012
1.00007
1.00004
1.00002
1.00001
1.00001
1
1
1
1
1
1
1
1
1
1
1
1
1
1
1
1
1
1
1
1
0.999999
1
1
0.999995
1
0.999993
0.999979
0.999993
0.999957
0.99994
0.999973
0.999952
1.00008
1.0005
1.00126
1.00298
1.00629
1.01164
1.01958
1.02911
1.03666
1.03876
1.03448
1.02465
1.01157
0.998306
0.985821
0.974515
0.967889
0.966798
0.966018
0.962036
0.950875
0.921191
0.863902
0.781022
0.682994
0.585103
0.502663
0.444271
0.411233
0.401776
0.41324
0.446473
0.506695
0.593879
0.695064
0.790899
0.867334
0.919217
0.94797
0.959482
0.962122
0.963766
0.969286
0.979883
0.993961
1.00857
1.02077
1.02859
1.03148
1.03017
1.0261
1.02081
1.01553
1.01095
1.00736
1.00476
1.00297
1.0018
1.00107
1.00062
1.00036
1.0002
1.00012
1.00007
1.00004
1.00002
1.00001
1.00001
1
1
1
1
1
1
1
1
1
1
1
1
1
1
0.999999
1
1
1
1
1
0.999999
1
1
0.999996
0.999997
0.999995
0.999976
0.99998
0.99996
0.999917
0.99994
0.99994
1
1.00039
1.00116
1.0027
1.00589
1.01116
1.01882
1.02832
1.0364
1.03901
1.03508
1.02592
1.01329
0.999575
0.986878
0.976189
0.968628
0.965723
0.966013
0.964134
0.953866
0.927926
0.879476
0.807231
0.718982
0.630509
0.55674
0.502931
0.469918
0.458784
0.468743
0.500128
0.556401
0.636452
0.728005
0.813573
0.880905
0.92596
0.950456
0.959902
0.961943
0.963751
0.969688
0.980651
0.994899
1.00944
1.02138
1.02884
1.03139
1.02983
1.02563
1.02033
1.01511
1.01063
1.00714
1.00462
1.00289
1.00177
1.00106
1.00062
1.00037
1.00021
1.00013
1.00008
1.00005
1.00003
1.00002
1.00001
1.00001
1
1
1
1
1
1
1
1
1
1
1
1
1
1
1
1
1
1
1
0.999999
1
1
0.999996
0.999995
0.999993
0.999978
0.999967
0.999956
0.999911
0.999899
0.999918
0.999959
1.00026
1.00102
1.00245
1.00537
1.01049
1.01795
1.02728
1.03581
1.03931
1.03597
1.02724
1.01531
1.00176
0.988373
0.977626
0.970212
0.965794
0.965039
0.965331
0.958631
0.936911
0.895853
0.835181
0.76118
0.687286
0.62362
0.572753
0.53874
0.526116
0.53473
0.563923
0.615464
0.686943
0.766748
0.839839
0.896376
0.933538
0.953177
0.960296
0.96174
0.963867
0.970408
0.981868
0.996315
1.01073
1.02228
1.02924