/*--------------------------------*- C++ -*----------------------------------*\
  =========                 |
  \\      /  F ield         | OpenFOAM: The Open Source CFD Toolbox
   \\    /   O peration     | Website:  https://openfoam.org
    \\  /    A nd           | Version:  6
     \\/     M anipulation  |
\*---------------------------------------------------------------------------*/
FoamFile
{
    version     2.0;
    format      ascii;
    class       volScalarField;
    location    "3.51";
    object      rho;
}
// * * * * * * * * * * * * * * * * * * * * * * * * * * * * * * * * * * * * * //

dimensions      [1 -3 0 0 0 0 0];

internalField   nonuniform List<scalar> 
10000
(
1.40001
1.40001
1.40001
1.40001
1.40001
1.40001
1.40001
1.4
1.40001
1.40001
1.40001
1.40001
1.4
1.40001
1.40001
1.40001
1.40001
1.40001
1.4
1.40001
1.4
1.40001
1.40001
1.40001
1.4
1.40001
1.40001
1.4
1.40001
1.4
1.40001
1.4
1.40001
1.4
1.40001
1.40001
1.40001
1.40001
1.40001
1.40001
1.40001
1.40001
1.40001
1.40001
1.40001
1.40001
1.40001
1.4
1.4
1.39999
1.39999
1.39998
1.39997
1.39996
1.39995
1.39994
1.39994
1.39994
1.39994
1.39996
1.39997
1.4
1.40002
1.40005
1.40009
1.40011
1.40014
1.40016
1.40017
1.40017
1.40016
1.40015
1.40013
1.40011
1.40008
1.40006
1.40004
1.40002
1.40001
1.4
1.39999
1.39999
1.39999
1.39999
1.39999
1.39999
1.4
1.4
1.4
1.4
1.4
1.4
1.4
1.4
1.4
1.4
1.4
1.40001
1.40001
1.40001
1.40001
1.40001
1.40001
1.40001
1.40001
1.40001
1.40001
1.40001
1.40001
1.40001
1.4
1.40001
1.4
1.40001
1.4
1.40001
1.4
1.40001
1.4
1.40001
1.4
1.40001
1.4
1.40001
1.4
1.40001
1.4
1.4
1.40001
1.4
1.4
1.40001
1.40001
1.4
1.40001
1.40001
1.40001
1.40001
1.40001
1.40001
1.40001
1.40001
1.40001
1.40001
1.40001
1.40001
1.40001
1.4
1.4
1.39999
1.39998
1.39997
1.39996
1.39995
1.39993
1.39993
1.39992
1.39993
1.39993
1.39995
1.39997
1.4
1.40004
1.40008
1.40012
1.40016
1.4002
1.40023
1.40025
1.40026
1.40026
1.40025
1.40023
1.4002
1.40016
1.40013
1.40009
1.40006
1.40003
1.40001
1.4
1.39999
1.39999
1.39999
1.39999
1.39999
1.39999
1.4
1.4
1.4
1.4
1.4
1.4
1.4
1.4
1.4
1.4
1.4
1.4
1.40001
1.40001
1.40001
1.40001
1.40001
1.40001
1.40001
1.40001
1.40001
1.40001
1.40001
1.4
1.40001
1.4
1.40001
1.4
1.40001
1.4
1.40001
1.4
1.40001
1.4
1.40001
1.4
1.40001
1.4
1.40001
1.4
1.4
1.40001
1.4
1.4
1.40001
1.40001
1.4
1.40001
1.40001
1.40001
1.40001
1.40001
1.40001
1.40001
1.40001
1.40001
1.40001
1.40001
1.40001
1.40001
1.4
1.4
1.39999
1.39997
1.39996
1.39995
1.39993
1.39992
1.39992
1.39992
1.39992
1.39994
1.39996
1.39999
1.40003
1.40008
1.40014
1.4002
1.40025
1.40031
1.40035
1.40039
1.40041
1.40041
1.4004
1.40038
1.40034
1.40029
1.40024
1.40019
1.40014
1.40009
1.40005
1.40002
1.4
1.39999
1.39998
1.39998
1.39998
1.39999
1.39999
1.39999
1.4
1.4
1.4
1.4
1.4
1.4
1.4
1.4
1.4
1.4
1.40001
1.40001
1.40001
1.40001
1.40001
1.40001
1.40001
1.40001
1.40001
1.4
1.40001
1.4
1.40001
1.4
1.40001
1.40001
1.4
1.40001
1.40001
1.4
1.40001
1.40001
1.4
1.40001
1.40001
1.4
1.40001
1.4
1.4
1.40001
1.4
1.40001
1.40001
1.40001
1.40001
1.40001
1.40001
1.40001
1.40001
1.40001
1.40001
1.40001
1.40001
1.40001
1.40001
1.40001
1.40001
1.40001
1.40001
1.4
1.39998
1.39997
1.39996
1.39994
1.39993
1.39992
1.39992
1.39992
1.39994
1.39997
1.4
1.40005
1.40011
1.40018
1.40025
1.40033
1.40041
1.40048
1.40055
1.4006
1.40063
1.40065
1.40064
1.40062
1.40057
1.40051
1.40043
1.40035
1.40027
1.4002
1.40013
1.40007
1.40003
1.4
1.39999
1.39998
1.39998
1.39998
1.39998
1.39999
1.39999
1.4
1.4
1.4
1.4
1.4
1.4
1.4
1.4
1.4
1.4
1.40001
1.40001
1.40001
1.40001
1.40001
1.40001
1.40001
1.40001
1.4
1.40001
1.4
1.40001
1.40001
1.4
1.40001
1.4
1.40001
1.4
1.40001
1.4
1.40001
1.4
1.40001
1.4
1.40001
1.40001
1.40001
1.4
1.40001
1.40001
1.4
1.40001
1.40001
1.40001
1.40001
1.40001
1.40001
1.40001
1.40001
1.40001
1.40001
1.40002
1.40002
1.40002
1.40002
1.40002
1.40002
1.40001
1.4
1.39999
1.39997
1.39995
1.39994
1.39993
1.39993
1.39994
1.39996
1.4
1.40004
1.40011
1.40018
1.40027
1.40037
1.40048
1.40058
1.40069
1.40079
1.40088
1.40095
1.40101
1.40103
1.40103
1.401
1.40094
1.40085
1.40075
1.40063
1.40051
1.40039
1.40028
1.40018
1.4001
1.40005
1.40001
1.39998
1.39997
1.39997
1.39997
1.39998
1.39999
1.39999
1.4
1.4
1.4
1.4
1.4
1.4
1.4
1.4
1.4
1.40001
1.40001
1.40001
1.40001
1.40001
1.40001
1.4
1.40001
1.4
1.40001
1.4
1.40001
1.40001
1.40001
1.40001
1.4
1.40001
1.4
1.40001
1.4
1.40001
1.4
1.40001
1.4
1.4
1.40001
1.40001
1.4
1.40001
1.4
1.4
1.40001
1.40001
1.40001
1.40001
1.40001
1.40001
1.40001
1.40001
1.40002
1.40002
1.40002
1.40003
1.40003
1.40003
1.40003
1.40003
1.40002
1.4
1.39999
1.39998
1.39996
1.39996
1.39996
1.39997
1.4
1.40005
1.40012
1.4002
1.40031
1.40044
1.40057
1.40072
1.40088
1.40103
1.40119
1.40133
1.40145
1.40155
1.40162
1.40166
1.40165
1.4016
1.40152
1.40141
1.40126
1.40108
1.4009
1.40072
1.40054
1.40038
1.40025
1.40014
1.40006
1.40001
1.39998
1.39997
1.39997
1.39997
1.39998
1.39999
1.39999
1.4
1.4
1.4
1.4
1.4
1.4
1.4
1.4
1.4
1.40001
1.40001
1.40001
1.40001
1.40001
1.4
1.40001
1.4
1.40001
1.4
1.40001
1.4
1.40001
1.4
1.40001
1.4
1.40001
1.40001
1.4
1.40001
1.40001
1.4
1.40001
1.4
1.40001
1.40001
1.4
1.40001
1.4
1.40001
1.40001
1.40001
1.40001
1.40001
1.40001
1.40001
1.40002
1.40002
1.40002
1.40003
1.40004
1.40004
1.40005
1.40005
1.40005
1.40004
1.40003
1.40002
1.4
1.39999
1.39999
1.4
1.40002
1.40006
1.40013
1.40022
1.40034
1.40049
1.40067
1.40087
1.40109
1.40132
1.40156
1.4018
1.40202
1.40223
1.40241
1.40256
1.40265
1.4027
1.40268
1.40261
1.40248
1.4023
1.40207
1.40181
1.40154
1.40126
1.40098
1.40072
1.4005
1.40031
1.40017
1.40007
1.40001
1.39998
1.39996
1.39996
1.39997
1.39998
1.39999
1.39999
1.4
1.4
1.4
1.4
1.4
1.4
1.4
1.4
1.40001
1.40001
1.40001
1.40001
1.40001
1.40001
1.40001
1.4
1.40001
1.4
1.40001
1.4
1.40001
1.4
1.40001
1.4
1.40001
1.4
1.40001
1.4
1.40001
1.4
1.40001
1.40001
1.4
1.40001
1.40001
1.4
1.40001
1.40001
1.4
1.40001
1.40001
1.40001
1.40001
1.40002
1.40002
1.40003
1.40004
1.40005
1.40006
1.40006
1.40007
1.40007
1.40007
1.40006
1.40005
1.40004
1.40004
1.40004
1.40005
1.40009
1.40015
1.40024
1.40036
1.40053
1.40073
1.40098
1.40127
1.40159
1.40193
1.40229
1.40266
1.40302
1.40337
1.40368
1.40396
1.40418
1.40433
1.40439
1.40436
1.40425
1.40405
1.40375
1.40339
1.40299
1.40257
1.40213
1.4017
1.40129
1.40093
1.40062
1.40038
1.4002
1.40008
1.40001
1.39997
1.39996
1.39996
1.39997
1.39998
1.39999
1.39999
1.4
1.4
1.4
1.4
1.4
1.4
1.4
1.40001
1.40001
1.40001
1.40001
1.40001
1.4
1.40001
1.4
1.40001
1.40001
1.4
1.40001
1.4
1.40001
1.4
1.4
1.40001
1.4
1.40001
1.4
1.40001
1.4
1.40001
1.40001
1.4
1.40001
1.4
1.4
1.40001
1.4
1.40001
1.40001
1.40001
1.40002
1.40002
1.40003
1.40004
1.40005
1.40006
1.40007
1.40008
1.40009
1.4001
1.4001
1.4001
1.40009
1.40009
1.40009
1.4001
1.40012
1.40017
1.40025
1.40037
1.40054
1.40076
1.40103
1.40136
1.40175
1.4022
1.40269
1.40322
1.40377
1.40433
1.40489
1.40542
1.40591
1.40635
1.4067
1.40694
1.40705
1.40704
1.40688
1.40656
1.4061
1.40554
1.40491
1.40423
1.40353
1.40285
1.40222
1.40164
1.40115
1.40074
1.40043
1.40021
1.40007
1.4
1.39996
1.39995
1.39996
1.39997
1.39998
1.39999
1.4
1.4
1.4
1.4
1.4
1.4
1.4
1.40001
1.40001
1.40001
1.40001
1.40001
1.4
1.40001
1.4
1.40001
1.40001
1.4
1.40001
1.4
1.40001
1.4
1.40001
1.4
1.4
1.40001
1.4
1.40001
1.4
1.40001
1.4
1.4
1.40001
1.4
1.40001
1.40001
1.4
1.40002
1.40001
1.40002
1.40002
1.40003
1.40005
1.40006
1.40008
1.40009
1.40011
1.40012
1.40013
1.40014
1.40014
1.40015
1.40015
1.40015
1.40017
1.40021
1.40028
1.40038
1.40054
1.40075
1.40103
1.40138
1.40182
1.40233
1.40292
1.40359
1.40432
1.40511
1.40593
1.40678
1.40762
1.40842
1.40918
1.40987
1.41042
1.41083
1.41107
1.41112
1.41092
1.41047
1.40981
1.40898
1.408
1.40691
1.40579
1.40471
1.4037
1.40279
1.402
1.40135
1.40084
1.40046
1.40021
1.40006
1.39998
1.39995
1.39995
1.39996
1.39997
1.39998
1.39999
1.4
1.4
1.4
1.4
1.4
1.4
1.4
1.40001
1.40001
1.40001
1.40001
1.40001
1.40001
1.4
1.40001
1.4
1.40001
1.4
1.40001
1.4
1.4
1.40001
1.4
1.40001
1.40001
1.4
1.4
1.40001
1.4
1.4
1.40001
1.4
1.40001
1.4
1.40001
1.40002
1.40001
1.40002
1.40003
1.40004
1.40005
1.40007
1.40009
1.40011
1.40013
1.40015
1.40017
1.40019
1.4002
1.4002
1.40021
1.40023
1.40026
1.40031
1.4004
1.40054
1.40073
1.401
1.40135
1.4018
1.40234
1.40299
1.40375
1.40462
1.40558
1.40664
1.40777
1.40896
1.41018
1.4114
1.41259
1.41373
1.41477
1.41563
1.41632
1.4168
1.41698
1.41682
1.41632
1.41547
1.41429
1.41282
1.41115
1.40941
1.4077
1.40608
1.40462
1.40336
1.40232
1.4015
1.40089
1.40045
1.40018
1.40003
1.39996
1.39994
1.39995
1.39996
1.39998
1.39999
1.39999
1.4
1.4
1.4
1.4
1.4
1.4
1.40001
1.4
1.40001
1.4
1.40001
1.40001
1.4
1.40001
1.4
1.40001
1.4
1.40001
1.4
1.40001
1.4
1.4
1.40001
1.4
1.4
1.40001
1.40001
1.39999
1.40002
1.4
1.4
1.40001
1.40001
1.40001
1.40003
1.40001
1.40004
1.40004
1.40006
1.40008
1.40011
1.40014
1.40016
1.40019
1.40022
1.40024
1.40025
1.40027
1.40029
1.40031
1.40036
1.40043
1.40055
1.40072
1.40096
1.40129
1.40172
1.40226
1.40294
1.40374
1.40468
1.40577
1.40699
1.40833
1.4098
1.41136
1.41302
1.41471
1.41641
1.41809
1.41971
1.42118
1.42248
1.42359
1.4244
1.42483
1.42488
1.42447
1.42353
1.42204
1.42003
1.41765
1.41506
1.41242
1.40986
1.40754
1.40553
1.40387
1.40256
1.40157
1.40087
1.40041
1.40013
1.39999
1.39994
1.39994
1.39995
1.39997
1.39998
1.39999
1.4
1.4
1.4
1.4
1.4
1.4
1.40001
1.4
1.40001
1.4
1.40001
1.4
1.40001
1.4
1.40001
1.40001
1.4
1.40001
1.4
1.40001
1.4
1.40001
1.40001
1.4
1.40001
1.40001
1.4
1.4
1.40002
1.39999
1.40001
1.4
1.40003
1.40001
1.40002
1.40004
1.40005
1.40008
1.40009
1.40013
1.40016
1.4002
1.40023
1.40027
1.40029
1.40032
1.40035
1.40037
1.40041
1.40047
1.40057
1.40072
1.40093
1.40123
1.40162
1.40214
1.4028
1.4036
1.40457
1.40572
1.40703
1.40852
1.41018
1.412
1.41395
1.41603
1.41821
1.42044
1.4227
1.42493
1.42711
1.42909
1.4309
1.4325
1.4337
1.43453
1.43494
1.4348
1.434
1.43244
1.4301
1.42706
1.42347
1.41959
1.41573
1.41213
1.40897
1.40633
1.40423
1.40266
1.40153
1.40078
1.40032
1.40007
1.39996
1.39993
1.39994
1.39996
1.39997
1.39999
1.4
1.4
1.4
1.4
1.4
1.4
1.4
1.40001
1.40001
1.40001
1.40001
1.40001
1.40001
1.4
1.40001
1.4
1.40001
1.4
1.40001
1.4
1.4
1.40001
1.4
1.4
1.40001
1.4
1.39999
1.40003
1.39999
1.4
1.40001
1.40003
1.40001
1.40003
1.40002
1.40008
1.40005
1.40014
1.40014
1.40019
1.40023
1.40028
1.40032
1.40036
1.40039
1.40043
1.40047
1.40052
1.4006
1.40073
1.40091
1.40117
1.40153
1.402
1.40262
1.40339
1.40435
1.4055
1.40685
1.40842
1.4102
1.41217
1.41433
1.4167
1.41918
1.42183
1.42453
1.42735
1.43014
1.43293
1.43563
1.4381
1.44046
1.44242
1.44399
1.44529
1.44608
1.44634
1.44602
1.44486
1.44272
1.43943
1.43506
1.42992
1.42446
1.41912
1.41428
1.41017
1.40687
1.40437
1.40258
1.40137
1.40063
1.40021
1.4
1.39993
1.39992
1.39994
1.39996
1.39998
1.39999
1.4
1.4
1.4
1.4
1.40001
1.4
1.40001
1.4
1.40001
1.4
1.40001
1.4
1.40001
1.4
1.4
1.40001
1.4
1.40001
1.4
1.40001
1.40001
1.4
1.40001
1.40001
1.39998
1.40003
1.40001
1.39998
1.40003
1.40001
1.40003
1.4
1.40006
1.40006
1.40009
1.40012
1.40016
1.40023
1.40026
1.40033
1.40037
1.40043
1.40047
1.40052
1.40057
1.40064
1.40075
1.4009
1.40112
1.40144
1.40187
1.40244
1.40316
1.40407
1.40519
1.40652
1.4081
1.40993
1.41199
1.4143
1.41682
1.41954
1.42243
1.42548
1.42863
1.43182
1.43513
1.43831
1.4416
1.44456
1.44746
1.45009
1.45218
1.45403
1.45546
1.45639
1.45713
1.45745
1.45719
1.45602
1.45344
1.44925
1.44347
1.43657
1.42925
1.42221
1.41601
1.41094
1.40705
1.40423
1.40232
1.40112
1.40043
1.40008
1.39994
1.39991
1.39992
1.39995
1.39997
1.39999
1.4
1.4
1.4
1.4
1.4
1.4
1.40001
1.4
1.40001
1.4
1.40001
1.4
1.4
1.40001
1.4
1.40001
1.4
1.40001
1.4
1.40002
1.39999
1.40001
1.40002
1.39998
1.40001
1.40004
1.39997
1.40002
1.40002
1.40003
1.4
1.40006
1.40005
1.40012
1.40009
1.40024
1.40019
1.40034
1.40034
1.40044
1.40049
1.40055
1.40061
1.40069
1.40077
1.4009
1.40109
1.40136
1.40174
1.40225
1.40292
1.40377
1.40482
1.40611
1.40766
1.40947
1.41155
1.41394
1.41655
1.41942
1.4225
1.42577
1.42911
1.43264
1.43609
1.4397
1.44311
1.4466
1.44995
1.45293
1.4559
1.4582
1.46021
1.46182
1.46272
1.46343
1.46414
1.46478
1.46566
1.46621
1.46576
1.46347
1.45867
1.45151
1.44269
1.43335
1.42458
1.41707
1.41114
1.40679
1.40382
1.40192
1.40081
1.40024
1.39998
1.39991
1.39991
1.39993
1.39996
1.39998
1.39999
1.4
1.4
1.4
1.4
1.40001
1.4
1.40001
1.4
1.40001
1.4
1.40001
1.4
1.40001
1.4
1.4
1.40001
1.4
1.40001
1.40001
1.39999
1.40002
1.40001
1.39997
1.40005
1.39998
1.39999
1.40005
1.4
1.40003
1.40001
1.40011
1.40006
1.40016
1.40018
1.40027
1.40031
1.4004
1.40051
1.40053
1.40064
1.40069
1.4008
1.4009
1.40106
1.40129
1.40162
1.40207
1.40267
1.40345
1.40444
1.40566
1.40714
1.40891
1.41097
1.41335
1.416
1.41896
1.42217
1.42555
1.42911
1.43277
1.43647
1.44015
1.44373
1.44734
1.45056
1.45397
1.45671
1.45956
1.46173
1.46331
1.46452
1.46499
1.46488
1.46471
1.46428
1.4645
1.46588
1.46819
1.47104
1.47268
1.47155
1.46668
1.4582
1.44749
1.43622
1.4258
1.41717
1.41065
1.4061
1.40317
1.40143
1.4005
1.40007
1.39992
1.39989
1.39992
1.39995
1.39997
1.39999
1.4
1.4
1.4
1.4
1.40001
1.4
1.40001
1.4
1.40001
1.4
1.40001
1.40001
1.4
1.40001
1.4
1.40001
1.39999
1.40002
1.39999
1.40001
1.40002
1.39998
1.40002
1.40003
1.39996
1.40005
1.40001
1.40002
1.40001
1.4001
1.40006
1.40017
1.40016
1.40033
1.40026
1.40051
1.40045
1.40067
1.40066
1.40081
1.40089
1.40104
1.40122
1.4015
1.40189
1.40242
1.40312
1.40403
1.40518
1.40658
1.40827
1.41027
1.41261
1.41525
1.41824
1.42152
1.425
1.42872
1.43251
1.43637
1.44013
1.44391
1.44732
1.45076
1.45365
1.45658
1.45897
1.46101
1.4628
1.46363
1.464
1.46335
1.46196
1.46019
1.45816
1.45592
1.45479
1.45503
1.45808
1.4638
1.4705
1.47588
1.47695
1.47243
1.46293
1.45036
1.43723
1.42553
1.41622
1.4095
1.40506
1.40238
1.40092
1.40022
1.39994
1.39988
1.3999
1.39993
1.39996
1.39998
1.39999
1.4
1.4
1.40001
1.4
1.40001
1.4
1.40001
1.4
1.40001
1.4
1.40001
1.4
1.40001
1.4
1.4
1.40001
1.40001
1.39999
1.40003
1.39999
1.39998
1.40007
1.39994
1.40003
1.40003
1.40001
1.40004
1.40003
1.40014
1.40006
1.40026
1.40021
1.40038
1.40042
1.4006
1.40064
1.40074
1.40091
1.40095
1.40118
1.40136
1.4017
1.40215
1.40276
1.40358
1.40463
1.40595
1.40756
1.40948
1.41174
1.41435
1.41731
1.4206
1.42417
1.428
1.43194
1.43592
1.43991
1.44367
1.44726
1.45051
1.45342
1.45598
1.45793
1.45982
1.46076
1.4618
1.46158
1.46102
1.4591
1.45624
1.45223
1.44799
1.4434
1.43938
1.43599
1.43408
1.43594
1.44207
1.45287
1.46557
1.47577
1.47982
1.47578
1.46495
1.45066
1.43618
1.42374
1.4143
1.40784
1.40383
1.40158
1.40047
1.40001
1.39988
1.39988
1.39992
1.39995
1.39998
1.39999
1.4
1.4
1.4
1.4
1.40001
1.4
1.40001
1.4
1.40001
1.4
1.40001
1.40001
1.4
1.40001
1.4
1.40002
1.39999
1.40002
1.40001
1.39996
1.40005
1.4
1.39997
1.40006
1.39999
1.40004
1.40002
1.4001
1.4001
1.40021
1.40023
1.40037
1.40038
1.40067
1.40061
1.40089
1.40083
1.40114
1.40122
1.40154
1.40186
1.40241
1.40309
1.40403
1.40523
1.40673
1.40855
1.41073
1.41327
1.41618
1.41945
1.42306
1.42696
1.43103
1.4352
1.43936
1.44331
1.44703
1.45029
1.45324
1.45545
1.45743
1.45846
1.45942
1.4593
1.45915
1.45798
1.45617
1.45327
1.44902
1.44361
1.43668
1.42946
1.4221
1.41623
1.41083
1.40728
1.40611
1.41004
1.42155
1.4391
1.45885
1.47437
1.4805
1.47627
1.46413
1.44838
1.43307
1.42059
1.41165
1.40591
1.4026
1.40089
1.40014
1.39989
1.39986
1.39989
1.39994
1.39997
1.39999
1.4
1.4
1.4
1.40001
1.4
1.40001
1.4
1.40001
1.4
1.40001
1.4
1.40001
1.4
1.40001
1.4
1.40001
1.39999
1.40004
1.39997
1.40001
1.40006
1.39992
1.40007
1.39999
1.40005
1.40001
1.40004
1.40014
1.40011
1.40032
1.40021
1.40055
1.40048
1.40077
1.40073
1.40102
1.40111
1.4013
1.40168
1.40197
1.40263
1.40337
1.40443
1.40578
1.40747
1.40952
1.41196
1.41479
1.41802
1.42162
1.42556
1.42976
1.43409
1.43845
1.44265
1.44658
1.45013
1.45299
1.45541
1.457
1.45807
1.45832
1.45801
1.45707
1.45541
1.4535
1.45027
1.44674
1.44105
1.43493
1.4265
1.41757
1.40722
1.39758
1.38947
1.3834
1.37906
1.37553
1.37637
1.38436
1.40204
1.42759
1.45379
1.47297
1.47992
1.47428
1.46029
1.44355
1.42828
1.41658
1.40872
1.40403
1.40153
1.40038
1.39995
1.39985
1.39987
1.39992
1.39996
1.39999
1.39999
1.4
1.4
1.4
1.40001
1.4
1.4
1.40001
1.4
1.40001
1.4
1.40001
1.4
1.40001
1.40001
1.4
1.40002
1.4
1.39997
1.40008
1.39995
1.4
1.40005
1.4
1.40004
1.39999
1.40012
1.40015
1.40018
1.40028
1.40036
1.40057
1.40069
1.40074
1.40101
1.40108
1.40146
1.40158
1.40218
1.40269
1.4036
1.40473
1.40624
1.4081
1.41039
1.41309
1.41623
1.41978
1.42373
1.428
1.43249
1.43708
1.44156
1.44579
1.44962
1.45285
1.45537
1.45707
1.45804
1.45806
1.45756
1.45598
1.45419
1.45121
1.44841
1.44411
1.43989
1.43362
1.42652
1.41752
1.40729
1.3966
1.38462
1.37375
1.36391
1.35766
1.35322
1.35038
1.34897
1.35182
1.36503
1.38989
1.42226
1.45319
1.47314
1.4779
1.46952
1.45378
1.43679
1.42247
1.41227
1.40591
1.40241
1.40073
1.40006
1.39986
1.39986
1.39991
1.39995
1.39998
1.39999
1.4
1.40001
1.4
1.40001
1.4
1.40001
1.4
1.40001
1.4
1.40001
1.4
1.40001
1.4
1.40001
1.4
1.40003
1.39997
1.40004
1.40003
1.39992
1.40009
1.39997
1.40007
1.39993
1.40011
1.40016
1.40012
1.40024
1.40028
1.40059
1.4005
1.40088
1.40079
1.40126
1.40126
1.40174
1.40211
1.40273
1.40375
1.40486
1.40654
1.40855
1.41106
1.41401
1.41746
1.42134
1.42563
1.43024
1.43503
1.43984
1.44445
1.44868
1.45229
1.4552
1.45728
1.45828
1.45853
1.45759
1.45618
1.45368
1.45082
1.44696
1.44299
1.43826
1.43295
1.42686
1.41892
1.41035
1.39897
1.38801
1.37558
1.36444
1.35346
1.34399
1.33737
1.33387
1.33295
1.33109
1.33098
1.33785
1.35681
1.38863
1.42581
1.45713
1.4739
1.47405
1.46208
1.44511
1.42891
1.41645
1.40824
1.40354
1.4012
1.40021
1.39989
1.39985
1.39989
1.39994
1.39997
1.39999
1.4
1.4
1.40001
1.4
1.40001
1.4
1.40001
1.4
1.4
1.40001
1.4
1.40001
1.4
1.40001
1.4
1.40001
1.39998
1.40007
1.39993
1.40003
1.40005
1.40001
1.39996
1.39999
1.4002
1.4001
1.40008
1.40033
1.40035
1.40063
1.40057
1.40095
1.40105
1.40134
1.40163
1.40204
1.40281
1.40359
1.40497
1.40659
1.40876
1.41142
1.41462
1.41834
1.42254
1.42718
1.43212
1.43722
1.44225
1.44698
1.45114
1.45459
1.45712
1.45862
1.4591
1.45851
1.45682
1.45433
1.45117
1.44722
1.44287
1.43768
1.43263
1.42648
1.42064
1.41245
1.40407
1.39299
1.38159
1.36948
1.35779
1.34807
1.33861
1.33108
1.325
1.3228
1.32228
1.32173
1.32129
1.32333
1.33512
1.36125
1.39846
1.43651
1.46358
1.47335
1.46742
1.45235
1.43532
1.42098
1.41098
1.40496
1.40183
1.40043
1.39995
1.39985
1.39988
1.39993
1.39997
1.39998
1.4
1.4
1.40001
1.4
1.40001
1.4
1.40001
1.39999
1.40002
1.39999
1.40002
1.39999
1.40002
1.4
1.40002
1.39998
1.40004
1.4
1.39993
1.40011
1.4
1.39999
1.39993
1.40023
1.40005
1.40003
1.40018
1.4004
1.40046
1.4005
1.40085
1.40084
1.40139
1.40137
1.40209
1.40248
1.40357
1.40477
1.40639
1.4087
1.4114
1.4148
1.41872
1.42325
1.42819
1.43347
1.43887
1.44416
1.44902
1.45317
1.4564
1.45856
1.45956
1.45943
1.4581
1.45576
1.4523
1.44848
1.44369
1.43881
1.43289
1.4273
1.42085
1.41468
1.40716
1.39863
1.38869
1.37684
1.36558
1.35367
1.34465
1.33639
1.32999
1.32418
1.31972
1.31742
1.31655
1.31735
1.31684
1.31663
1.32337
1.34307
1.3765
1.41619
1.45013
1.4687
1.46965
1.4579
1.44117
1.42554
1.41391
1.40658
1.40259
1.40074
1.40004
1.39986
1.39987
1.39992
1.39996
1.39998
1.39999
1.40001
1.4
1.40001
1.4
1.40001
1.4
1.40001
1.4
1.4
1.40001
1.4
1.40001
1.4
1.40001
1.39999
1.40006
1.3999
1.40009
1.40006
1.3999
1.39995
1.40017
1.40016
1.39991
1.40009
1.4004
1.40025
1.40057
1.40051
1.40102
1.40087
1.40147
1.40169
1.40245
1.40321
1.40436
1.40608
1.4082
1.41101
1.41445
1.41856
1.42328
1.4285
1.4341
1.43982
1.44539
1.45046
1.45465
1.45774
1.45959
1.46013
1.45938
1.4575
1.4545
1.45035
1.44568
1.44041
1.43494
1.4288
1.42233
1.41588
1.40934
1.40278
1.39426
1.38517
1.3736
1.36284
1.35169
1.34256
1.33539
1.32979
1.32586
1.32153
1.31794
1.31467
1.314
1.31428
1.31286
1.31183
1.3157
1.33059
1.35974
1.39876
1.43664
1.46186
1.46924
1.4616
1.44613
1.42984
1.41685
1.40828
1.40344
1.4011
1.40015
1.39988
1.39986
1.39991
1.39995
1.39998
1.39999
1.4
1.4
1.40001
1.4
1.40001
1.4
1.40001
1.4
1.40001
1.39999
1.40002
1.4
1.40001
1.39999
1.40004
1.39996
1.39999
1.40016
1.39985
1.39995
1.40015
1.40012
1.39983
1.40006
1.40028
1.40036
1.40018
1.40051
1.40073
1.40082
1.40131
1.40137
1.40223
1.40267
1.40409
1.40532
1.40748
1.41022
1.41356
1.41772
1.42253
1.42799
1.43384
1.43991
1.4458
1.45115
1.45554
1.45862
1.46027
1.46045
1.45926
1.45674
1.45322
1.44865
1.44316
1.43736
1.43134
1.42527
1.41829
1.41156
1.40458
1.39862
1.39122
1.38274
1.37177
1.3605
1.35046
1.3416
1.33529
1.32969
1.32633
1.32308
1.31983
1.31585
1.31282
1.31228
1.31143
1.30969
1.30752
1.30844
1.31961
1.34564
1.38372
1.4238
1.45399
1.4671
1.46367
1.45003
1.43368
1.41971
1.41003
1.40435
1.4015
1.40031
1.39992
1.39986
1.3999
1.39994
1.39998
1.4
1.39999
1.40001
1.4
1.40001
1.4
1.40001
1.4
1.40001
1.4
1.40001
1.40001
1.4
1.40001
1.40001
1.40001
1.39993
1.40017
1.39988
1.39989
1.40023
1.40009
1.39984
1.39993
1.40026
1.40026
1.40003
1.40041
1.40039
1.40082
1.40071
1.40152
1.4016
1.40249
1.40322
1.40467
1.40656
1.40899
1.41222
1.41624
1.421
1.4265
1.43258
1.43896
1.44524
1.45099
1.45572
1.45903
1.46069
1.46068
1.45914
1.45625
1.4521
1.44717
1.44128
1.43475
1.42819
1.42206
1.41515
1.40799
1.40076
1.39469
1.38863
1.38112
1.37143
1.35965
1.34936
1.34058
1.33491
1.33012
1.32609
1.32225
1.31809
1.31383
1.30932
1.30735
1.30734
1.30844
1.30853
1.30531
1.30321
1.31059
1.33318
1.36968
1.41123
1.44559
1.46375
1.46437
1.45289
1.43693
1.42233
1.41173
1.40529
1.40193
1.40047
1.39996
1.39987
1.39989
1.39994
1.39997
1.39999
1.4
1.4
1.4
1.40001
1.4
1.40001
1.4
1.40001
1.4
1.40001
1.4
1.40001
1.40001
1.40001
1.39997
1.40008
1.39999
1.39981
1.40025
1.40006
1.39977
1.40001
1.40025
1.40021
1.39999
1.40003
1.40049
1.40048
1.40068
1.40107
1.40121
1.40206
1.40251
1.40404
1.4052
1.4077
1.41052
1.41419
1.41876
1.42413
1.43025
1.43683
1.44354
1.44981
1.4551
1.45889
1.46088
1.46094
1.45927
1.45609
1.45165
1.44608
1.44001
1.43303
1.42569
1.41909
1.41265
1.40543
1.39785
1.39119
1.38612
1.38014
1.37193
1.36041
1.34915
1.33988
1.33382
1.32976
1.32529
1.31993
1.31267
1.30504
1.2972
1.29155
1.28982
1.29295
1.30036
1.30566
1.30509
1.30236
1.30587
1.32375
1.35752
1.39952
1.43698
1.45943
1.4639
1.45475
1.4395
1.42457
1.41328
1.40618
1.40237
1.40065
1.40003
1.39988
1.39989
1.39993
1.39997
1.39998
1.4
1.4
1.40001
1.4
1.40001
1.4
1.40001
1.4
1.40001
1.4
1.40001
1.4
1.40001
1.39999
1.40002
1.40004
1.39983
1.40021
1.40008
1.39972
1.40003
1.4002
1.40012
1.39989
1.39998
1.40038
1.40033
1.40058
1.40054
1.40119
1.40122
1.4022
1.40287
1.40434
1.40616
1.40852
1.41185
1.41602
1.42101
1.42694
1.43354
1.44052
1.44735
1.45342
1.45802
1.46069
1.46124
1.45973
1.4565
1.45184
1.44604
1.43927
1.43226
1.4243
1.4167
1.41034
1.40363
1.39599
1.3886
1.38353
1.37915
1.37286
1.36252
1.35035
1.3399
1.33276
1.32865
1.32389
1.31651
1.30494
1.29064
1.2755
1.26189
1.25318
1.25203
1.26164
1.27848
1.29404
1.3023
1.3032
1.30498
1.31876
1.34904
1.38993
1.42898
1.4547
1.46254
1.45567
1.44135
1.42638
1.41461
1.40698
1.40279
1.40083
1.40009
1.39989
1.39989
1.39993
1.39997
1.39999
1.4
1.4
1.4
1.40001
1.4
1.40001
1.4
1.40001
1.4
1.40001
1.4
1.40001
1.4
1.40002
1.40001
1.39993
1.40008
1.40013
1.39972
1.40007
1.40025
1.39995
1.39991
1.39988
1.40026
1.40034
1.40021
1.40039
1.40067
1.40089
1.40165
1.40204
1.40344
1.40436
1.40685
1.40934
1.4129
1.41746
1.42294
1.42924
1.4362
1.44343
1.45029
1.45603
1.45986
1.46134
1.46049
1.45749
1.45287
1.44695
1.4399
1.43218
1.42429
1.41553
1.40822
1.40217
1.39503
1.38703
1.38122
1.37796
1.37375
1.36516
1.35284
1.34122
1.33286
1.32768
1.32202
1.31245
1.29656
1.27413
1.24762
1.22055
1.19843
1.18589
1.18825
1.20732
1.23752
1.26914
1.2913
1.30044
1.30478
1.31698
1.34418
1.38312
1.42249
1.45026
1.46065
1.45578
1.4425
1.42772
1.41568
1.40767
1.40317
1.40101
1.40016
1.39991
1.39989
1.39993
1.39996
1.39999
1.39999
1.4
1.4
1.40001
1.4
1.40001
1.4
1.40001
1.4
1.40001
1.4
1.40001
1.4
1.40001
1.39997
1.40003
1.40009
1.39979
1.40007
1.40021
1.39987
1.39993
1.39997
1.40021
1.40026
1.40002
1.40013
1.40026
1.40081
1.4009
1.40165
1.4021
1.40338
1.40488
1.40693
1.41003
1.4137
1.41846
1.42432
1.43094
1.43815
1.4455
1.45235
1.45774
1.46084
1.46121
1.45905
1.4547
1.44887
1.44181
1.43367
1.42516
1.41624
1.40715
1.40059
1.39436
1.38658
1.37973
1.3764
1.37402
1.3678
1.3563
1.3437
1.33433
1.32839
1.32134
1.3084
1.28744
1.25771
1.21988
1.17627
1.13374
1.1013
1.08741
1.09763
1.13085
1.18038
1.23247
1.27168
1.29278
1.30314
1.31614
1.34161
1.37886
1.41781
1.44656
1.45863
1.45533
1.44302
1.42857
1.41645
1.40822
1.40348
1.40117
1.40022
1.39994
1.3999
1.39993
1.39996
1.39998
1.4
1.4
1.40001
1.4
1.40001
1.4
1.40001
1.4
1.40001
1.4
1.40001
1.4
1.40001
1.39999
1.40002
1.40003
1.39992
1.40003
1.40018
1.39984
1.39994
1.40009
1.40001
1.40023
1.39991
1.39995
1.40021
1.40049
1.4006
1.401
1.40128
1.40236
1.40307
1.40519
1.40712
1.41024
1.41415
1.419
1.42505
1.43199
1.43936
1.44677
1.45354
1.45868
1.46121
1.46066
1.45728
1.45175
1.44481
1.43678
1.42769
1.41829
1.40836
1.39974
1.39345
1.38633
1.37933
1.37543
1.37343
1.3691
1.35989
1.34782
1.3374
1.33041
1.3227
1.30711
1.27985
1.2415
1.19375
1.13698
1.07445
1.0162
0.976129
0.966223
0.990134
1.04424
1.11758
1.19163
1.24928
1.28357
1.30076
1.3158
1.34079
1.37676
1.4149
1.44382
1.45679
1.45454
1.44301
1.42896
1.41692
1.40859
1.40372
1.4013
1.40029
1.39996
1.39991
1.39993
1.39996
1.39998
1.4
1.4
1.40001
1.4
1.40001
1.4
1.40001
1.4
1.40001
1.4
1.40001
1.4
1.40001
1.40001
1.40001
1.39997
1.40002
1.4001
1.39986
1.4
1.40013
1.39994
1.40011
1.39995
1.39983
1.40012
1.40029
1.40043
1.40034
1.40082
1.40118
1.4022
1.40328
1.40482
1.40721
1.41011
1.41415
1.41906
1.42517
1.43234
1.43989
1.44729
1.45396
1.45896
1.4612
1.45999
1.45556
1.4489
1.44095
1.4321
1.42217
1.41167
1.40128
1.39312
1.38579
1.37895
1.37526
1.37328
1.36907
1.36159
1.35228
1.34291
1.33453
1.32524
1.30842
1.27713
1.23005
1.17104
1.10329
1.02781
0.949511
0.881373
0.841503
0.842653
0.886563
0.965245
1.06204
1.15655
1.2307
1.27602
1.29932
1.31685
1.34181
1.37666
1.41374
1.44216
1.45522
1.45347
1.44252
1.42889
1.41705
1.40877
1.40388
1.4014
1.40034
1.39998
1.39991
1.39993
1.39996
1.39999
1.4
1.4
1.4
1.40001
1.4
1.40001
1.4
1.40001
1.4
1.40001
1.4
1.40001
1.40001
1.4
1.39999
1.40002
1.40003
1.39994
1.40001
1.40011
1.39991
1.40001
1.4001
1.39979
1.4001
1.40022
1.40013
1.40007
1.40033
1.40067
1.40131
1.40178
1.40323
1.4045
1.40676
1.4098
1.41378
1.4187
1.4247
1.43194
1.43974
1.4472
1.45377
1.45872
1.46095
1.45942
1.45416
1.44638
1.43753
1.42785
1.41725
1.40565
1.3952
1.38639
1.37803
1.3742
1.37372
1.3698
1.36182
1.35443
1.34862
1.3413
1.32995
1.31139
1.27897
1.22728
1.1582
1.07863
0.993444
0.904947
0.819323
0.751838
0.721534
0.740016
0.806213
0.907098
1.02331
1.13355
1.2188
1.27153
1.29955
1.31927
1.34449
1.37847
1.41423
1.44145
1.45392
1.4522
1.44162
1.4284
1.41688
1.40877
1.40394
1.40146
1.40038
1.40001
1.39993
1.39994
1.39996
1.39999
1.4
1.4
1.4
1.40001
1.4
1.40001
1.4
1.40001
1.4
1.40001
1.4
1.40001
1.4
1.40001
1.40001
1.4
1.39999
1.40001
1.40006
1.39993
1.4
1.40011
1.39986
1.39998
1.4002
1.39999
1.39997
1.40006
1.40039
1.40053
1.40112
1.40166
1.4026
1.40421
1.40622
1.40919
1.41311
1.41796
1.42372
1.43085
1.4389
1.44661
1.45314
1.45804
1.46046
1.45904
1.45325
1.44444
1.43454
1.42422
1.41302
1.4006
1.38975
1.37939
1.37182
1.37188
1.37136
1.3637
1.35507
1.35127
1.34753
1.3368
1.31668
1.28425
1.23297
1.1597
1.07025
0.974635
0.879479
0.78763
0.705501
0.647934
0.632612
0.669842
0.755664
0.87436
1.00481
1.12419
1.21464
1.2708
1.30131
1.32267
1.3485
1.38187
1.41608
1.44163
1.45295
1.4508
1.44036
1.42755
1.41643
1.4086
1.40391
1.40149
1.40042
1.40003
1.39994
1.39994
1.39997
1.39999
1.4
1.4
1.4
1.4
1.40001
1.4
1.40001
1.4
1.40001
1.4
1.40001
1.4
1.4
1.40001
1.4
1.4
1.40002
1.40001
1.39998
1.40001
1.40007
1.39993
1.39993
1.40018
1.39995
1.39987
1.40002
1.40013
1.40026
1.40044
1.40071
1.40142
1.40219
1.40365
1.40566
1.40829
1.41206
1.41686
1.42242
1.4292
1.43735
1.44552
1.45221
1.45707
1.45971
1.45873
1.45291
1.44325
1.43208
1.42125
1.40939
1.39678
1.38464
1.37298
1.36774
1.36944
1.36664
1.35804
1.35224
1.35006
1.34266
1.32388
1.29237
1.24441
1.17417
1.08204
0.977757
0.874021
0.77837
0.692793
0.621544
0.577144
0.576754
0.630272
0.73248
0.865578
1.00533
1.12826
1.21884
1.27429
1.30488
1.32721
1.35376
1.3866
1.41913
1.44259
1.45223
1.44925
1.43877
1.42637
1.41574
1.40827
1.4038
1.40147
1.40043
1.40005
1.39995
1.39995
1.39997
1.39999
1.4
1.4
1.4
1.4
1.40001
1.4
1.40001
1.4
1.40001
1.4
1.40001
1.4
1.40001
1.4
1.4
1.40001
1.39999
1.40001
1.40001
1.40001
1.39997
1.39997
1.40009
1.39999
1.39986
1.40003
1.40004
1.40005
1.40008
1.40032
1.40053
1.40103
1.40184
1.40303
1.40489
1.40728
1.41066
1.41537
1.42089
1.42725
1.43515
1.44379
1.45104
1.45601
1.45875
1.45832
1.45304
1.44297
1.43044
1.41874
1.4065
1.39401
1.38008
1.36824
1.36451
1.36515
1.3615
1.35537
1.35133
1.34571
1.33067
1.30214
1.25845
1.19568
1.10999
1.00469
0.89274
0.789188
0.701136
0.627394
0.568954
0.537704
0.551358
0.619658
0.736088
0.879651
1.0236
1.14493
1.23077
1.28182
1.31056
1.33323
1.36037
1.39264
1.42319
1.44408
1.45158
1.44749
1.43689
1.4249
1.41482
1.40781
1.40361
1.40143
1.40044
1.40007
1.39997
1.39996
1.39997
1.39999
1.4
1.4
1.4
1.4
1.4
1.40001
1.4
1.40001
1.4
1.40001
1.4
1.40001
1.4
1.40001
1.40001
1.4
1.40001
1.40001
1.39999
1.4
1.40001
1.40003
1.4
1.39991
1.40002
1.40004
1.39996
1.40001
1.40004
1.40015
1.40037
1.40077
1.4014
1.40238
1.40395
1.40622
1.4092
1.41356
1.41907
1.42518
1.43254
1.44135
1.44945
1.45497
1.45777
1.45768
1.45333
1.44357
1.42988
1.41673
1.40429
1.39168
1.37696
1.36526
1.36079
1.35982
1.35761
1.35417
1.34894
1.33674
1.31212
1.27321
1.21874
1.14459
1.0477
0.934582
0.822359
0.726997
0.6518
0.591317
0.546077
0.529512
0.55924
0.642847
0.770476
0.918513
1.05975
1.17289
1.24887
1.29257
1.31823
1.34081
1.3684
1.39982
1.42796
1.4458
1.45084
1.44548
1.43471
1.42318
1.41372
1.40723
1.40337
1.40136
1.40044
1.40009
1.39998
1.39997
1.39998
1.39999
1.4
1.4
1.4
1.40001
1.4
1.40001
1.4
1.40001
1.4
1.40001
1.4
1.40001
1.40001
1.4
1.40001
1.4
1.40001
1.39999
1.40001
1.40002
1.39999
1.4
1.39997
1.40001
1.40004
1.39995
1.39995
1.39998
1.40002
1.40007
1.40022
1.40048
1.40099
1.40176
1.40304
1.40505
1.40775
1.41156
1.41686
1.42297
1.42987
1.43834
1.44717
1.4538
1.457
1.45697
1.45342
1.44467
1.43061
1.41567
1.40238
1.38959
1.37563