/*--------------------------------*- C++ -*----------------------------------*\
  =========                 |
  \\      /  F ield         | OpenFOAM: The Open Source CFD Toolbox
   \\    /   O peration     | Website:  https://openfoam.org
    \\  /    A nd           | Version:  6
     \\/     M anipulation  |
\*---------------------------------------------------------------------------*/
FoamFile
{
    version     2.0;
    format      ascii;
    class       volScalarField;
    location    "1.17";
    object      p;
}
// * * * * * * * * * * * * * * * * * * * * * * * * * * * * * * * * * * * * * //

dimensions      [1 -1 -2 0 0 0 0];

internalField   nonuniform List<scalar> 
5835
(
1.28566
1
1.47216
1.00098
1.01046
1.00006
1.00125
1
1.00256
1
1.00181
1.02955
1.00009
1.00037
1.06254
1.00005
3.10031
3.01552
1
1.00002
3.35765
1
3.24489
1.04323
1
1.00011
1.0748
1.00014
1.00214
1.00093
1
1
1.00015
1.00016
1
1.00005
1
1.00013
1
1
1
1
1.00007
1
1.00018
1.00001
1.00005
1
1
1
1.00007
1.00003
1.00001
1.00004
1
1
1.00006
1.00011
1
1
1.00061
1.00013
1.00118
1
1.00017
1
1
1.00047
1
1
1
1
1
1.00028
1
1.00028
1.00015
1
1.00002
1
1.00086
1
1
1.55364
1.30361
1.0016
1.00416
1
1
1.00056
1.00246
1
1.00293
1.00058
1.00039
1
1.00012
1
1.00708
1.00206
1.0012
1.00036
1.00027
1.00012
1.04006
1.00019
1.00029
1.05414
1.00007
1.00069
1.00026
1
1.00649
1
1.00006
1
1
1
1.00022
1.01647
1.01564
1.00002
1.00004
1.00086
1.00022
1
1
1
1
1.00112
1.00068
1.00005
1
1
1.00008
1.00068
3.90641
1.00028
4.11365
1.00001
1.00014
1
3.7335
3.81194
4.15988
4.26196
1.50498
1.63458
1.00019
1
1.5957
1
1.00076
1
1.22088
1.06679
1.00421
1.00149
1.00014
1.05678
1
1.00095
1.00015
1.00111
1.00562
1.00001
1
1.00404
1.00011
1
1
1.00226
1.00106
1.00117
1.00056
1.00034
1.0002
1.00594
1.0019
1.00311
1.00003
1.00014
1.00037
1.00031
1
1.00232
1
1.00076
1.00042
1
1.00003
1.00003
1.00001
1.00036
1
1.00009
1.00008
1
1.00007
1.00001
3.61448
3.52834
1.00012
1.00007
1.00019
1.00004
1.00042
1
1
1.0004
1.00148
1.00009
1.00121
1.00011
1.00028
1.00021
1
1.00003
1.00003
1
1
1.00024
1.00093
1.00115
1
1.0009
1.00094
4.20184
1.00097
1.00056
1.00051
1.00002
1
1
1.00024
1
1.59598
1.0003
1.55317
1.00026
1.00032
1
1.00029
1.0006
1
1.0021
1
1.00117
1.0005
1.00012
1.00098
1.0001
1
1.0021
1.00008
1
1.00002
1.01091
1.00204
1
1
1.09509
1.05904
1.00015
1.08319
1.00062
1.00053
1.00036
1.07003
1.08858
1.00019
1.00002
1
1
1
1.00125
1
1.00025
1
1.0003
1.00195
1.00036
1.13114
1
1.00013
1.0007
1.00022
1.00015
1
1
3.34133
1.32615
1.0041
1.45007
1.00027
1.00091
1
1
1.00009
3.23413
1.00097
4.16534
4.23221
3.09105
1.32278
3.12853
1
3.15678
1.00111
1.55032
4.29369
1.53493
3.39787
1.12127
1.00067
1.00019
1.00094
1.07683
1.00029
1
1
1.00103
1
1.1226
1.00019
1.17991
1.00089
1.00079
3.44389
1
1.002
1.02049
1.00043
1.00014
1.00029
1.0003
1
1.00023
1.00094
1.00001
1
3.38213
1.01096
3.42311
1.00008
1.00084
1.00145
1.00118
1.0004
1.00006
1.049
1.00148
1.00142
1
1.00309
1
1.00008
1
1.03941
1.00116
1.00231
1
1
1.00018
1.0727
1.00057
1.00188
1.00125
1.0001
1
1.00031
1.00013
1
1.00091
1.00319
1.00008
1
1.00002
1
1.00033
1.00004
1.00021
1
1.00026
1.00011
1.00046
1.00014
1.00008
1.00009
1
1.00019
1.00057
1.0006
1.00001
1.00002
1.00022
1
1.00024
1.00002
1.00005
1.00002
1.00003
1.00004
1.00031
1.00001
1
1.00092
1.00026
1.00342
1.00092
1.00003
1
1
1
1.00214
1
1.00669
1
1.00086
1
1
1.00004
1.00127
1.00214
1.0007
1.00049
1.00254
1.00025
1.0004
1.00067
1
1.00551
1
1
1.001
1.00005
1.00235
1.00191
1.00018
1.00337
1.00323
1.00059
1.0006
1.00109
1.00046
1.00068
1.00054
1.00075
1.00028
1
1.00213
1
1.00134
1.00056
1
1.00183
1.00245
1
1.00114
1
1.0002
1.00008
1.00076
1.00157
1
1.00064
1
1
1.00196
1.00123
1.0009
1.0005
1.00097
1.00109
1.00063
1.00008
1.00076
1.00198
1.00184
1.00057
1
1
1.00214
1
1.00164
1.00013
1.00001
1.00015
1
1.00066
1.00079
1.00065
1.00065
1.00058
1
1
1.00177
1
1
1
1.01281
1.00108
1
1.00017
1.00475
1
1.00013
1.00028
1.0235
1
1
1.00205
1
1.00845
1.0001
1.00061
3.85207
1.00001
1.00029
3.84704
3.71828
3.69063
1.00002
1.00015
1.00119
1.00003
1.59311
1.3966
1.00026
1
1
1.59771
3.48113
1.00001
4.1072
1.00092
1.00007
1
1.60843
1.00098
1.05816
1
3.53204
1
1.15443
1.00542
1.00153
1.0009
1.00065
1.00054
1
1.00385
1.00035
1.00482
1.00182
1
1.00005
1.00013
1.00008
1.00008
1.00015
1.00127
4.19328
1
1.00194
1.00007
1
1.00056
1.00166
1.0004
1
1
1.0024
1.00099
1
1.00094
3.25927
1
1
1.00019
1.00055
1
1.00037
1.00016
1.00158
1
1.00315
1.00186
1.0003
1.00089
1.00094
1.00022
1
1
1
1.00106
1.00041
1.0021
1.00003
1
1
1.00002
1
1
1.05664
1.0001
1.00014
1.00032
1.00015
1.00051
1.00044
1.09256
1.00628
1.06588
1.00138
1.07144
1.0005
1.00005
1
3.33079
1
1.10352
1
1
1.09983
1
2.90704
1
1.51552
1.60286
1
1.00387
3.01916
2.94218
1.51134
1
1.00054
1.00083
1
1.11114
3.99328
1.00007
1.13794
1.00112
1.00122
1.00047
1.00041
4.00386
3.4593
1.00083
1.09436
1.00024
2.91937
1.00009
1
1
2.99853
1.00634
3.1219
1
1.00078
1
1.01306
1.01175
1
1
1.00096
1.002
1.00011
1.04784
1
1.00125
1.04707
1.00132
1.00006
1.00001
1.00002
1.00026
1.00003
1.00017
1.00016
1.00015
1
1.00024
1
1.00055
1.00029
1.00007
1.00016
1
1.00138
1
1
1.00012
1.00003
1.00088
1.00077
1
1.00017
1
1.00075
1
1.00125
1.00226
1.0022
1.00343
1
1.00213
1.00036
1.0005
1
1.00024
1
1.00109
1.00041
1
1.00184
1.00022
1.00399
1.00039
1.00021
1
1
1
1.0014
1
1.00294
1.00013
1.00015
1.00071
1.0012
1.00285
1.00315
1.00001
1.00101
1
1.00264
1.00077
1.00087
1.00428
1.00318
1.00056
1.00077
1
1.00129
1.00248
1
1.00123
1
1.00004
1.00212
1.00148
1.00096
1.00066
1
1.00051
1.00163
1
1
1.00195
1.00238
1
1
1.00075
1
1.00056
1.0006
1.0009
1
1.00092
1
1.00075
1
1.00233
1
1
1.00142
1.00012
1
1
1
1
1.00015
1.0003
1
1.00032
1.00003
1.00006
1.00007
1.00008
1
1
1.00025
1.00015
1
1
1
1.0008
1.0011
1.0003
1
1.00067
1
1.00032
1.00274
1.00151
1.00123
1.00105
1.00034
1
1.00039
1.00143
1.0008
1.00024
1.00049
1.00057
1.00035
1
1.00031
1
1
1.00162
1
1.00044
1.00068
1
1.00092
1.26782
1.48955
1.61114
1.232
1.0004
1.00035
1.00034
1.00016
1.00017
1.00001
1
1
1.00045
1.00046
1.00034
1
1
1.00047
1.00004
1
1.00007
1.00064
1
1.00078
1.00005
1.00017
1.00006
1
1
1.05331
1
1
1.01284
1
1.00336
1.00253
1.10068
1.00098
1.00149
1.00153
1
1
1.00402
1.00143
1.0001
1
1.00035
1
1.00053
1.00934
1.0006
1.0005
1.00063
1.00089
1
1.06354
1.01915
1.00009
1.00045
1.00335
1
1.00239
1.00393
1.49817
1
1.88504
1.00147
1
1
1.00004
1.00057
1
1.00022
1.00033
1
1.04662
1.06289
1
1
1.01455
1.00069
1.04844
1.00136
1.00992
1
1.00004
5.3464
5.63112
1.00009
1.00024
1.00001
5.20095
5.66453
5.82509
1
5.02574
1
1.00052
1.00017
5.78792
5.08687
1
5.57217
4.85031
1.00008
1.00006
1.00019
5.76724
1.00006
1.00009
5.77843
1.00042
5.27873
1.00048
1.0002
1.00016
5.51684
4.89948
5.14486
1.00019
1.00025
1.00027
4.66181
5.6811
5.53416
5.05844
4.96582
1.00005
1.00021
5.42113
1
1.00011
4.87638
4.92787
5.23753
1.00002
5.18376
1.00003
1.00834
1.00028
1.00004
1
1.00001
1.00056
1.00041
1.00076
1
1
1.05428
1.06142
1.0003
1.00033
1.01768
1
1
4.16037
1.00005
1.00006
3.96648
1.00001
1.02264
1
1.00006
1.0015
1
1.00087
1.00008
1
1
1.00086
1.00002
1.00007
1
1.00089
1.00095
1.00017
1.00058
1.00092
1.00024
1.00001
1.00005
1.00011
1.0005
1
1.00064
1.00009
1.00011
1.0001
1.00058
1.00478
1
1.00063
1.0007
1.00136
1.21833
2.60633
1.00082
1.00007
1.04251
2.65179
1.00033
1.21253
1.05487
1.00114
1.00071
1.00021
1.00002
1.00016
1.00007
1.00021
1
1.00033
1.00009
1.00007
1.00012
1
1.00054
1.00197
1
1.00874
1.00018
1.00009
1
1.00039
1.00083
1.03047
1.13241
1.00099
1
1.00108
1.00147
1.00002
1
1.00154
1.00112
1.00005
1.00028
1.00128
1.0003
1
1.00162
1.00012
1.00147
1
1.00005
1.00118
1.00047
1.00043
1.00002
1
1.00094
1
1.00161
1
1.00164
1
1.00129
1
1.00038
1
1.0028
1.00027
1.00118
1
1
1
1
1.00038
1.0001
1
1.00405
1
1.00068
1
1.0012
1.0007
1
1.00068
1.00042
1.00048
1.00189
1.00173
1.00019
1.00052
1.00148
1.00222
1
1
1.00083
1
1.00472
1
1
1.00051
1.0008
1.00141
1.00154
1
1.00179
1.00033
1.00067
1.00195
1.00065
1.00343
1.00192
1.0003
1
1.00058
1
1.0004
1.00078
1
1.00111
1.00009
1.00006
1.0001
1.00036
1
1.00025
1.00248
1.00003
1.00073
1.00102
1.00204
1.00132
1.00067
1.00027
1.00012
1
1.00577
1.00415
1.00065
1.00151
1.00023
1.00101
1.00018
1.00097
1
1
1.00224
1.00018
1.00027
1
1.00008
1
1.00089
1.005
1
1.00081
1.00092
1.00037
1.00056
1.00055
1.00008
1.00102
1.00143
1
1.00062
1.00115
1.0006
1
1.00017
1
1.00014
1.00003
1.0006
1.00008
1.00154
1.00107
1.00014
1.00046
1.00087
1
1.00071
1.00003
1.0008
1.00116
1.00062
1
1
1.00046
1.00022
1.00053
1.00063
1.00047
1.00011
1
1
1
1.00111
1.00018
1
1.00077
1.00201
1
1.0006
1.00203
1.001
1.00043
1.00079
1.00087
1.00016
1.00068
1.0001
1.00028
1.00042
1.00033
1
1.00021
1
1.02682
1
1.00132
1.00133
1.00119
1.00061
1.00044
1.00044
1.00053
1
1.01533
1
1.00114
1
1
1.00029
1.00012
1.00132
1.00031
1.00008
1.00011
1.00019
1.00041
1.01038
1.00071
1.0004
1.00098
1.00087
1.00002
1.00072
1.0014
1.00166
1.00099
1.02003
1
1.00084
1.00092
1.00026
1.00148
1.00026
1.00028
1.0012
1.00938
1
1
1
1
1.00074
1
1
1.0076
1
1.0013
1.00096
1.00035
1.00659
1.0033
1.00123
1.00693
1.00093
1.00817
1.00001
1.00111
1.0015
1.0016
1.00087
1.0002
1.00041
1.00096
1.0001
1.00231
1.00155
1.00051
1
1
1.00406
1.01217
1.00186
1.00093
1.00155
1.00072
1.34818
2.05963
1.00032
1.00006
1
1.00009
1.00012
1.00042
1
1.00057
1.00024
1.01731
5.56302
1
1.0007
1.00046
1.25312
1.42027
1.0014
1.00009
2.15123
1
1.00131
1.00019
1.06784
1
1.00041
1.24317
1.97357
3.26915
1.00116
4.91998
1.76696
1.00241
3.63292
1.0015
2.14175
3.20513
1.40691
2.32134
2.10772
1.00365
1.26961
1.02939
2.11564
1.00063
1.19635
1.33015
1.86107
1.0009
1
1.00155
1.00093
1
3.02942
2.0724
1.00042
1.00021
1.00126
1.08684
1.36015
1.00075
1
1.23039
1.00204
1.00024
2.19308
1.00277
1.00005
1.00004
1.74551
1.16133
1
1.00052
1.10744
1.00043
1.09257
1.00054
1.04588
1.00195
1.00202
1.00182
1.01818
1.00116
1.0003
1.3545
1.00109
1.00034
1.00075
1.00006
1.00155
1.00087
1.00098
1.00038
1
1.00031
2.10988
1.00017
1.00204
1
1.6654
1
1.00081
1
1.00004
1.00109
1
1.01902
1
1.00066
1
1.00094
1.00015
1.00021
1.00006
1.00085
1.00402
1.25141
1.00014
1.01357
1.14526
1.00125
1.00046
1.00001
1.00683
1.91862
1.83694
1.00008
1.00001
1.00184
1
1.00024
1.00009
1.21451
1
1
1.00015
1.0005
1.00032
1.00035
1
1.00002
1.9516
1
1
1.00068
1.00761
1.00085
1.00046
1.16722
1.01188
1.01801
1.00019
1.00035
1
1.37466
2.44685
1.00018
1.00056
1.00008
1
1
1.00699
1.00014
1.0007
1.00001
1.00851
1.00097
1
1.00865
1
1.00016
1.00052
1.00021
1.00005
1.00008
1.00031
1.00004
1.0001
1.0001
1.00004
1
1.00003
1.00095
1
1
1.00009
1.00068
1.00036
1.00026
1.00019
1.00032
1.00013
1.00003
1.00001
1.00024
1.00017
1.0001
1.00062
1.00006
1.00032
1
1.0002
1.00002
1.00052
1.00019
1.00007
1
1.00017
1.00001
1.00048
1.00009
1.00018
1.00013
1.00011
1
1
1.00021
1
1.00007
1.0002
1.00017
1.0009
1.00002
1
2.2592
1
1.00076
1.01521
1
1
1
1
1.00077
1.00012
1.0017
1.00079
1.00068
1.02246
1.01128
1.00007
1.03566
1
1
1.00069
1.00025
1.00128
1.00008
1.00166
1.00044
1.00248
1
1.00061
1.00228
1.00052
1
1.00123
1
1.00083
1
1.00303
1
1
1.00087
1.00187
1
1
1
1
1.00002
1.00182
1.00471
1
1.00017
1
1.32198
1
1.00028
1.00005
1
1.00228
1
1
1
3.24498
1.00045
1
1.00082
1.00195
1
1.00123
1.00001
2.15421
1
1.00086
1.00058
1.00018
1.00039
1.00279
1.00025
1
1.01564
1
1
1.00083
5.35227
1.00001
1.00003
2.11824
1.00059
1.02526
1.00125
1.00736
1.00015
1.00026
1.00095
1.00053
1.00051
1
1
1.00003
1.00039
1.00001
1.00004
1
1.00093
1.00004
1
1.00026
1.00293
1.00314
1
1
1.0003
1.00155
1.00039
1.00026
1.00193
1.00091
1
1
1.00023
1.00327
1.00049
1.00011
1.00081
1.00092
1.0005
1
1.00048
1.00033
1.00039
1
1.00002
1.0008
1.00046
1
1.0005
1.00028
1
1.00005
1.00004
1.00345
1.00003
1.00005
1.00016
1.00006
1.00116
1
1.0075
1.00017
1.00504
1.00009
1.00009
1.00082
1.00003
1.00037
1.00024
1.0065
1.00023
1.00012
1.00003
1.00003
1
1.00013
1.00008
1.00005
1.00004
1.00824
1.01802
1.00003
1.0001
1
1
1.00011
1.00021
1
1.00003
1.00003
1.06616
1
2.48643
1.00013
1.00011
1.00033
1.00712
1
1.02708
1.00032
1.00027
1.00006
1.00073
2.31656
1.00013
1.00021
1.00014
1.01277
1
1.00001
1.00013
1.00009
1.00012
1.00008
1.00001
1
1.00022
1.00042
1.0005
1.00007
5.78725
1.00049
3.19809
1.0004
1.00018
1.00034
1.00002
1.00007
1.00026
1.00112
1.00108
1
1.00012
1
1.00037
1.00051
1.00004
1.00161
1
1
1.00092
1.00153
1.00013
1.0005
1.00027
1.00266
1
1.00047
1.00002
1.00026
1.04278
1.00003
5.49899
1.00004
2.38631
1.00004
1.00048
1.00016
1.1314
1.00047
3.34657
1.00108
2.18314
1.00005
1.30291
2.20256
1.31092
1.08622
1
1.00004
2.93738
1.00086
1.00026
3.86462
1
1
3.01608
1.00008
2.27112
2.76269
1
1
1.00012
2.77743
1.00024
1.68131
1.00003
5.56671
1.0001
2.65655
1.00009
1.00265
1
1.00098
1.0001
1.00006
1.00126
1.00015
1.00007
1.00035
1.00038
1.00523
1.00173
1.00173
1.00005
1.22035
1.08007
1.00006
1.00006
5.51593
5.95558
1
1
5.93051
6.58797
1
1
5.9334
6.18589
1.00002
5.99077
6.56204
1
1
1
6.5943
6.3421
1.00005
6.80041
1.00019
6.6437
1.00008
1
5.70466
6.28341
6.07986
1.00011
1.00005
6.19063
6.13773
1
6.01803
1.00001
5.98725
1.00005
1
5.87332
5.72775
1.00001
1
6.30125
1.0002
1
6.16616
6.15828
1.00009
1.00002
6.21926
6.16431
1
1
6.86354
6.67274
1.00004
6.28793
6.3538
1.00003
1.00009
6.78146
1
6.66674
6.77476
1
1
6.79677
1
6.61031
1
6.55123
6.49265
1
1
6.41079
1.02742
1.00087
1.00006
1.02231
1.00078
1
1.00053
1.00181
1.00162
1.00031
1.00123
1.24514
1.13637
1.00865
1.0001
1.00037
1.00013
6.01885
1.00005
1.00005
5.87055
1.00005
6.10727
6.73036
1.00005
5.88971
1
5.70741
1.00023
6.38714
1.00004
1.00013
1.00006
6.63991
6.9678
6.07751
6.62355
1.00004
1
1.00013
1
6.27874
1
1.00011
1.00007
1.00013
1.00001
1.00014
6.01323
5.60385
6.1253
6.26079
5.49556
6.57102
1
1
6.42838
1
6.14947
6.7323
6.11346
1
1.00002
6.14625
1.00009
6.37818
1.00003
6.10708
5.9961
1.00003
1.00035
1.00072
1
1.0015
1.00165
1.00104
1.00154
1.14989
1.05372
1.00031
1.0002
1.00141
1
1.003
1
1
1.00021
1.03486
1.16901
4.52696
1.00002
1.00003
1.00004
4.87245
1.00003
4.79045
5.04185
1.00186
1
1.00059
1.00022
1.00056
1.00001
1.00054
1.00002
1
1.00093
1.00015
1.00087
1.00019
1.00093
1
1.00046
1
1
1.00032
1.00005
1.00004
1.00013
1.0006
1
1.00066
1.00001
1
1.00014
1.00084
1
1.00014
1.00044
1
1.0011
1.0001
1.67392
1
1.36648
1.33245
1.0012
1.00013
1
1.64052
1.01219
1.00135
1.0004
1.00053
1.00062
1.005
1.00017
1.00002
1.00065
1.00012
1.00019
1
1.00027
1
1
1
1.0001
1.00003
1.00004
1.00058
1.00004
1.00027
1.00016
1.00019
1.001
1.0003
1.00063
1.00149
1.00034
1.00111
1.00013
1.00013
1.00189
1.0009
1.00025
1.00128
1.00013
1.00034
1.00111
1.00022
1.00143
1.00107
1.00016
1.0013
1.00029
1.00044
1.00003
1.0001
1.00124
1.00075
1.00203
1
1.0008
1.00128
1
1
1.00026
1.00107
1.0018
1.00003
1.00034
1.00064
1.00031
1.00259
1.00021
1.00037
1.00038
1
1
1
1.00078
1.0001
1.00008
1
1.0003
1.00369
1.00094
1.00018
1.0006
1.00008
1.0005
1
1
1
1
1.00026
1.00229
1
1.00157
1.00092
1.0007
1.00091
1.00016
1.0009
1.00029
1
1
1.00153
1
1.00219
1
1.00143
1.0009
1.00213
1.00122
1.00293
1
1
1.00047
1.00433
1.00063
1.00111
1.00213
1
1.00209
1.00305
1.00021
1
1.00125
1.00186
1.00265
1
1.00101
1.00109
1.00015
1.00013
1.00005
1.00066
1.00124
1.00176
1.00143
1.00035
1.00093
1
1.00084
1
1.00021
1.00181
1
1
1.00092
1
1.00114
1
1
1.00098
1.00001
1.00048
1
1.00023
1.00142
1
1
1.00057
1.00088
1.00063
1.00051
1.0003
1
1.00143
1.00069
1.00089
1.00054
1.00067
1
1.00023
1
1.0003
1
1.00016
1.00105
1.0008
1.00156
1
1.00029
1
1
1
1
1.00436
1.00044
1.00061
1.00212
1.00088
1.00012
1.00116
1.00301
1.00107
1.00059
1.00309
1.0013
1.0009
1
1.00059
1.0004
1.00031
1.00056
1.001
1
1.00036
1.00156
1.0002
1.00155
1.00015
1.00226
1.0008
1.00073
1.00044
1.00112
1.00085
1.00035
1
1.00055
1
1.00072
1
1
1.00159
1.00056
1.00079
1.00042
1.00126
1.00066
1.0007
1.0023
1.00036
1.00015
1
1
1.00148
1
1
1
1.0017
1.00016
1
1.00017
1.00056
1.00129
1
1.00044
1
1
1
1.00073
1.00059
1.0001
1.00044
1.00057
1.00029
1.00027
1
1.00004
1
1.00065
1.00103
1.00059
1.00105
1.00019
1.0001
1.00095
1.00053
1.00074
1.00026
1.00152
1
1.00141
1.00296
1.00362
1
1.00112
1
1.00117
1
1.00032
1.00061
1
1.00103
1.00049
1.00108
1.00063
1
1.00123
1.00057
1
1.00002
1
1
1.00024
1.00031
1.00113
1
1.00101
1.00063
1.0006
1.00016
1.00126
1
1
1
1.00067
1.00081
1
1.00045
1.00164
1.00206
1.00116
1.00012
1.00214
1.00003
1.0001
1.02397
1.00105
1.00091
1.00241
1.00222
1.00037
1.02823
1.00125
1
1.00195
1.00161
1
1.01703
1.00121
1.00198
1.00213
1.00062
1.02137
1.0002
1
1.00033
1.0005
1.00133
1.00058
1.0006
1
1
1.00002
1
1.00047
1.00006
1.00047
1.0019
1.00004
1.00051
1.0001
1.0009
1.00201
1
1.00129
1.0009
1.00011
1
1.00022
1.00048
1.00113
1.00036
1.00053
1.00076
1.00109
1.0003
1
1
1.00056
1.00017
1.00071
1.0004
1.00085
1.00003
1
1
1.00011
1.005
1.00146
1.00358
1.00101
1.00012
1.00016
1.00084
1.00101
1.00057
1.00069
1
1
1.00104
1.00149
1.0003
1.00112
1.00013
1
1.0004
1
1.00349
1
1.00323
1.00202
1.00004
1.00077
1.00008
1.00118
1.00171
1.00135
1.00124
1.00023
1
1.00016
1
1
1.00249
1
1
1.00062
1
1.00309
1.0008
1.00342
1.00047
1
1
1.00101
1.00031
1.00025
1
1.00112
1
1.00006
1
1.00037
1.00039
1.00063
1.00129
1.00025
1.00143
1.00032
1.00057
1.00093
1
1.00051
1.00096
1.00065
1.00055
1
1.00014
1.00038
1.55578
1.00015
1.00012
1.00018
1
1.4866
1.39469
1.36651
1.00028
1
1.4992
1.6402
1.00062
1.00122
1
1.00024
1.47291
1.5476
1
1
1.00002
1.00058
1
1.24374
1.00026
1.0008
1
1
2.32081
1.00035
1.00062
1.21951
1
1.00034
2.73031
2.16275
2.57394
1.00117
1.55802
2.70601
1
1.16191
2.32405
2.31097
1.44906
1.153
1.00396
2.57967
1.15753
1.5783
1.00019
1.00035
1
2.61072
1.24947
1.00029
1.0012
1.00486
2.33764
1.01015
1.00005
1
1.0002
1.00026
1.00037
1
2.34925
2.73724
1.00039
1.00139
1.06323
1.17651
1.43475
1.37973
1.00006
1.5808
1.75814
1.00024
1.00035
1.00084
1.1622
1
1.00016
1.00102
1.00014
1.19976
1.00135
1.00327
1.00059
1.0008
1.00064
1.00017
1.00112
1.0002
1.00921
1.00119
1.03779
1.0015
1.11005
1.12299
1
1.00081
1.00032
1.0008
1.00019
1.51103
1.00036
1.45029
1.00057
1.00002
1.00031
1.13306
1.00004
1.0012
1.81928
1.62817
1.0001
1.00001
1.00054
1
1.00013
1.187
1.17198
1.00004
1
1.00062
1
1
1.00044
1
1.00016
1.00001
1.00007
1.00015
1.00006
1
1.00016
1.00006
1.00023
1.00086
1.00007
1.00045
1.00081
1.00111
1.00051
1
1.00027
1.00021
1.00047
1.00001
1.0005
1
1.00017
1
1.00035
1.00025
1.00074
1
1
1
1.00009
1
1
1.00034
1
1
1
1.00012
1.00018
1
1
1
1.00031
1
1.00005
1.00025
1.00051
1.00015
1.00037
1
1
1.00038
1.00013
1
1.00012
1.00004
1
1
1.00006
1.00007
1
1
1
1.00023
1
1.00034
1.00011
1.00062
1
1.00022
1
1.00096
1.00002
1.00027
1.00128
1
1.00003
1.00014
1
1.00025
1.00045
1
1.17144
1.00024
1.19609
1.001
1
1.00155
1
1.00067
1.0006
1.13388
1
1.00013
1.14475
1
1
1
1.00042
1.00099
1.00091
1.00002
1.28638
1.00034
1.18384
1
1
1.00045
1.0008
1.00028
1
1.00006
1.67192
1.29217
1
1
1.44583
1.49478
1
1.00048
1.00012
1.00006
1.00011
2.10146
1.97116
1.00037
1.0008
1.0233
1.00002
1.63176
1.53746
1.00001
1.00006
1
1.01489
1.00048
1.00491
1.00357
1.00095
1.00079
1.01022
1.00058
1.00298
1
1.00127
1
1.01869
1.00004
1.00985
1.00924
1
1
1.00038
1.01276
1
1.00064
1.01716
1.01976
1
1.0008
1.00063
1.00015
1.00015
1
1.02427
1.00017
1.00005
1.00004
1.00032
1.00069
1.00055
1
1.00029
1.00081
1.00177
1.00008
1.00052
1.00111
1.00016
1.00032
1.00014
1.00143
1.00013
1.00043
1.00104
1.00146
1.00757
1.00809
1.00061
1.00003
1.00011
1.00191
1.00042
1
1.00087
1.01134
1
1.00044
1.0002
1.01172
1
1.00014
1.00937
1.01601
1.01647
1.01851
1
1.00004
1.00214
1.00009
1.00036
1.00007
1
1
1.00019
1.00023
1.00058
1.00043
1.00021
1.00004
1
1
1.00063
1.00028
1.00077
1
1.0012
1.0024
1.00009
1
1
1.00121
1.00077
1.00027
1
1.00001
1
1.00174
1.00325
1
1.00101
1
1.00106
1
1.00072
1
1.00076
1.00018
1.00257
1.00004
1.00012
1.00201
1
1.00181
1
1.216
1
1.21516
1
1.00004
1.00222
1.00063
2.65705
2.86321
1.00042
1.00042
1.00034
2.28169
2.43036
1.00017
1
1.00204
1.00022
1.00489
1.00044
1
1.00085
1
1.00019
1.00078
1
1.00217
1
1.00009
1.00051
1.00038
1
1
1.00039
1
1.00054
1.00006
1.00005
1
1.0007
1
1.0012
1
1.00137
1.00186
1.00042
1.00062
1.00087
1.00053
1.00105
1
1.00175
1.00111
1.00188
1.00035
1.00161
1.00012
1.00219
1.00084
1.00106
1.00023
1.00099
1.00175
1.0008
1.00221
1.00071
1.00057
1.00043
1.0004
1
1.00272
1.00158
1
1
1
1.00364
1.00211
1
1
1
1.00002
1
1.00006
1
1.00082
1.00052
1
1.00007
1.00001
1.00008
1.00016
1
1.00031
1
1.00053
1.00002
1.0001
1
1.00032
1.0003
1
1
1.00042
1.0003
1.00008
1
1.00005
1.00049
1.00048
1
1
1
1
1
1.00018
1.00001
1
1.00084
1.00088
1.00132
1
1
1
1
1.0001
1
1.00005
1
1.00045
1
1.00037
1.00016
1
1.00028
1.00013
1.00002
1.0001
1.00013
1.00005
1.00001
1.00007
1.00001
1.00387
1
1.00007
1
1
1.00018
1.04084
1.00026
1.04665
1.0001
1.59304
1.00005
1
1.91744
1.75414
1.00005
1.00466
1.00006
1
1.00013
1.00077
1.00051
1
1.0005
1.00079
1.00001
1
1.00325
1
1.00002
1.00026
1.00022
1
1.00007
1
1.00039
1
1.00013
1.00106
1.00031
1
1.0002
1.00261
1.0002
1.00085
1.00056
1.00037
1.00048
1.00013
1
1
1.00007
1.00011
1.00009
1.01636
1
1
1.00027
1.00018
1.00022
1.00996
1.00017
1.01943
1.01003
1
1.00387
1.00012
1.00048
1.00051
1
1.00059
1.00846
1.00042
1.01233
1.00041
1.00068
1
1.00005
1.00822
1.00053
1.00077
1.00065
1
1
1
1
1.00043
1.01652
1.00139
1.00048
1
1
1.00607
1.00052
1.00055
1.00014
1.00012
1
1
1.0011
1.00039
1
1
1.00016
1
1.00023
1.00054
1.00062
1.00066
2.73366
2.87806
2.358
1.00117
2.47601
1.00112
1.00028
1.22003
1.16356
1
1
1.14565
1.00076
1.11398
1.12952
1.00019
1.00079
3.00459
2.96295
2.51455
1.00014
1.00024
2.37053
2.41488
1.00004
2.56511
1
2.20894
1
1.00004
2.05178
1
1.93177
1.00007
1.78546
1.00002
1.00016
1.00094
1.00153
1.00041
1.00606
1.00074
1.00034
1.00114
1.20201
1.0883
1.00038
1.00136
1
1.00367
1.00031
1
1.00123
1.0417
1.20722
1.00055
1.00042
1
1.00377
1.00146
1
1.00175
1.17464
1.06887
1.00039
1.00037
1
1.00042
1
1.00083
1.00238
1.00006
1.00215
1.00011
1.16231
1.02151
1
1.00093
1.00109
1.00002
1.0001
1.00075
1.00136
1.00192
1.03626
1.2204
1
1.00134
1.00134
1
1.00027
1.00091
1.00104
1.0004
1.0002
1.0003
1.00011
1.00104
1.00121
1.00107
1
1.00165
1.0021
1.14172
1.1832
1.0262
1.05507
1.00031
1.00032
5.85456
1.00001
5.93571
1
1.0068
1.00026
1.00126
1.00007
1.0004
1.0002
1.53384
1
1.86036
1.00335
1.00276
1.36736
1.00018
1.00035
1.00008
1.00198
1
1.00097
1.00327
1.00213
1.00017
1.19783
3.54664
3.82811
5.71424
6.98607
4.93254
5.88086
3.68288
3.39409
6.90216
5.70959
5.88212
4.8629
1.00036
1.00013
1.00047
1
1.00061
1.00014
1.00092
1.00098
1.0004
1
1.00068
1.00032
1
1
1.00094
1.00166
1.51862
1.00002
1.0011
1.0014
1.00081
1.00087
1.00139
1
1
1.00076
1.00087
1
1
1
1
1
1
1.00019
1
1
1.00044
1
1
1
1.00144
1
1
1.00034
1.00012
1.00264
1
1
1
1.0004
1
1.00029
1.00055
1.00039
1.00034
1.00001
1.00038
1.00023
1.01417
1.0236
1.00477
1
1
1.00053
1.00181
1
1
1.00023
1.00053
1.00006
1.00003
1.00018
1.00039
1
1.00103
1.00068
1.00129
1.00329
1
1
1
1
1.00017
1
1
1
1
1.00012
1
1
1.00077
1.0001
1
1.00014
1
1
1
1
1.00013
1
1.0001
1.0002
1
1.00004
1
1
1.00027
1.00001
1.00035
1.00006
1.00021
1.00022
1.00028
1.00013
1
1
1
1.00062
1.0014
1.00197
1.0023
1.00276
1.00233
1.00039
1
1.00003
1.00013
1.00025
1.0003
1.00026
1.00016
1.00009
1.00025
1.00006
1.00018
1
1.00045
1.00047
1
1
1.00123
1.00185
1
1
1.00009
1.00028
1.00016
1
1.00016
1.00001
1
1
1
1
1
1.00008
1.00004
1
1.00005
1.00006
1.00004
1.00007
1.00013
1.00018
1.00003
1.00009
1
1.00005
1.25256
1.11811
1.68341
1.43052
1.71716
1.57665
1.0001
1.00005
1
1.00008
1.00009
1
1.21698
1.50742
1.02616
1.11711
1.11021
1.38476
1.00003
1.00007
1.00006
1.00008
1.00002
1.00061
1.00046
1.00059
1.00101
1.00067
1.0012
1.00014
1
1.0002
1.00025
1.00019
1.00008
1.00019
1.00013
1.00002
1.00006
1
1
1
1
1.00004
1.00003
1.00011
1
1.00022
1.00003
1
1.00031
1
1
1.00009
1
1.0004
1
1.00004
1
1.00034
1.00009
1.00062
1.00006
1
1.00031
1
1
1.00095
1.00136
1.0008
1.00065
1.00034
1.00022
1.00018
1.00029
1.00022
1
1.00014
1.00002
1.0001
1
1.00015
1
1.00019
1.00018
1
1
1
3.99594
2.71737
3.48599
3.4723
1.0008
1.00084
1.00103
1.00045
1.00017
1.00128
1.00051
1.0006
1
1.00023
1.0015
1.00167
1.00155
1.00166
1
1
1.00046
1
1.00005
1
1
1
1
1.00009
1.00004
1.00033
1
1
1.00002
1
1.00002
1
1
1.00002
1.00005
1.00001
1.00015
1.0001
1.00038
1.00015
1
1.00002
1.00281
1.00329
1.00214
1.00098
1.00238
1.00293
1.00008
1
1.00011
1.00004
1.00033
1.00029
1.0007
1.00093
1.00145
1.00086
1.00028
1.00012
1.00001
1.00003
1.00049
1.00003
1.0001
1
1.00003
1
1.00017
1
1.0001
1
1
1
1
1
1.00028
1.00062
1.00048
1.00037
1.00027
1.0001
1.09129
1.01912
1.03972
1
1.00049
1.00064
1.00095
1.00077
1.00057
1.00003
1.00023
1.00015
1.00016
1.00045
1.00047
1.00006
1.00182
1.00052
1.00001
1
1
1.00026
1.00008
1.00065
1.0005
1.00143
1.00098
1.00008
1.00134
1.00051
1.00203
1.00794
1.00195
1.00464
1.00344
1.00009
1
1.00026
1.00008
1.00017
1
1.00001
1
1
1
1.00004
1.00012
1.00215
1.00061
1.00064
1.00102
1.00179
1.00075
1.00236
1.00051
1
1.0004
1.00068
1.00105
1
1.00011
1.00071
1.00019
1.00051
1.00069
1.00094
1.00161
1.00423
1
1.00392
1
1.00015
1.00028
1.00079
1.0008
1.00212
1.00067
1.00164
1.00026
1.00017
1.00146
1.00177
1.00089
1
1
1
1.00119
1.00042
1
1.0011
1.00115
1.00087
1.00127
1.00146
1.00143
1.00155
1.00064
1
1
1.00056
1.00136
1.13476
1.05022
1.21838
1.07356
1.26749
1.06892
1.15884
1.05953
1.00042
1.00015
1.00043
1.00025
1.00021
1.00026
1.00017
1.0002
1.00031
1.00032
1.00003
1
1
1
1
1.00032
1
1.00016
1
1.00508
1.01061
1.00216
1.00501
1.00286
1.00382
1.00104
1.00048
1
1
1
1.00022
1
1.00007
1.00021
1.00039
1
1.0001
1.00039
1.00018
1.00015
1.00013
1.00016
1.00012
1.00032
1.00022
1.17022
1.06401
1.52876
1.34377
1.74394
1.56852
2.7388
2.30146
6.38334
4.89976
5.02672
3.77661
2.81946
2.30605
6.3486
4.91241
5.11597
3.78567
2.80362
1.51434
2.64508
2.32326
4.74344
2.36488
1.00013
1
1.00011
1.00004
1.00005
1.00002
1.27942
1.07283
1.03624
1
1.15574
1.02155
1.00014
1
1.00015
1
1
1.00021
1.00062
1.00125
1
1.00081
1.00045
1
1.00011
1
1.00009
1
1.00008
1.00021
1
1.00041
1.00012
1.00038
1
2.23675
1.57495
1.48345
1.25253
1.91135
1.39139
2.86054
4.09369
2.87164
3.74107
1.0005
1.00071
1
1.00056
1.00042
1.00073
1.40485
1.88075
1.20986
1.38544
1.2174
1.30484
1.00011
1.00022
1.00015
1.00076
1
1.00087
3.88466
3.57886
6.57162
5.67963
6.78165
5.99363
1.0649
1.19386
1.01189
1.06111
1
1.00096
1.0008
1
1.00049
1.00038
1.00067
3.45215
3.02661
6.94913
5.50295
5.622
4.79248
2.40139
4.68612
3.19206
5.71578
2.31741
4.60538
1.07837
1.26912
1
1.05749
1.00813
1.02411
1
1.00036
1.00005
1.00088
1.00091
1.00066
1.00027
1.00019
1
1.00007
1
1
1
1
1.00018
1
1
1
1.00011
3.21658
3.17331
1.70353
5.34352
2.81734
1.00071
1
1.00133
1.00012
1
3.0349
2.58823
6.61442
5.14614
5.35033
4.0353
1
1
1
1.00003
1
1.00019
1
1
2.87734
2.48383
6.19967
4.85742
5.0414
3.86949
1
1.00093
1
1
1
1.00053
1
1
1
1
1.00055
1.0008
1.00107
1
1
1
1.002
1.00001
1
1.00146
1
1.00051
1.00136
1
1.00141
1.0003
1.00131
1.0011
1.00155
1.00132
1.00082
1
1.00108
1.00099
1.00119
1.0001
1.0017
1.00246
1.00174
1.00066
1
1.00081
1.00106
1.00226
1.00063
1.00062
1
1.0019
1.0004
1.00195
1.00084
1.0004
1.00024
1
1.00058
1
1.00015
1
1.00024
1.00008
1.0002
1.00021
1.00021
1.00035
1.00111
1.00084
1.00134
1.00076
1.00054
1
1
1
1
1
1.00004
1
1
1
1
1.00075
1.00038
1.00035
1.00034
1.00038
1.00047
1.00086
1.0009
1
1.00131
1.00052
1.00036
1.00039
1.05054
1.00043
1.00113
1.00033
1.00035
1
1
1.00073
1.00038
1.00168
1
1.00168
1.0011
1.00005
1
1.0004
1.00078
1.00028
1.00102
1.00112
1.0023
1
1
1.00068
1
1.00145
1.00079
1.00075
1.00031
1.00023
1.00006
1.00019
1
1.00047
1.00007
1.00062
1.00012
1.00012
1.00073
1
1.0007
1
1.00052
1.00061
1.00029
1.00039
1.00006
1.00046
1
1.00021
1.00014
1.00052
1.00022
1
1.00016
1.00018
1.00012
1.0003
1.00024
1.00079
1.00063
1.00075
1.00014
1.00053
1.00052
1
1.00012
1.00017
1.0003
1.00025
1.00046
1.00006
1.00033
1.00048
1
1.00019
1
1.00014
1
1
1.0002
1
1.0002
1
1
1
1
1.00038
1.00052
1.0006
1
1
1
1
1.002
1.00011
1
1.03759
1.083
1
1
1.00005
1.00035
1.00082
1.00023
1.00009
1.00023
1.00001
1.00022
1.00123
1
1.00022
1.00024
1.00003
1
1.00036
1
1.00002
1.00037
1.00011
1
1.00058
1.00048
1.00087
1
1
1.00126
1.00193
1
1.00009
1.00016
1
1
1
1.00064
1.00093
1.00038
1.00167
1.00065
1.00204
1.00004
1.00003
1.0005
1
1.00051
1
1.00013
1
1
1
1.00109
1.0026
1.00141
1.00009
1
1.00063
1.00025
1.00144
1.0019
1.00044
1
1.00011
1.00033
1.00006
1
1
1.00004
1.00002
1
1.00167
1.00314
1.00027
1.00104
1.00189
1.00076
1
1.00051
1.00063
1.00087
1.00146
1.001
1.0007
1.00144
1.00054
1
1
1.00077
1.00014
1.00029
1.00028
1
1.00109
1
1.00137
1
1
1.00123
1.00232
1.00245
1.00142
1.00313
1.00308
1.00197
1.00201
1.00044
1.00002
1.00029
1.00031
1.00048
1.00004
1
1
1
1.00071
1.00116
1
1
1
1.0009
1
1
1.00194
1.00725
1.00062
1.00139
1.00104
1.00138
1.00046
1
1
1
1
1
1.00384
1.00731
1.0031
1.00411
1.00293
1.00466
1.00407
1.01005
1
1
1.00002
1
1.00208
1.00326
1
1.00128
1.00113
1
1
1.00261
1
1.0015
1.00103
1.00066
1.00134
1.00103
1.00095
1.0009
1
1.00073
1
1.00115
1.00043
1.00015
1.0013
1.0006
1.00051
1
1.00194
1.00591
1.00179
1.00236
1.00337
1.00333
1.00101
1.00144
1
1
1.00108
1.00149
1.00005
1.00005
1.00047
1.00096
1.00075
1.00069
1.00024
1.00017
1.00067
1.0007
1.00038
1.00229
1.00392
1.00191
1.00166
1
1
1.00069
1
1
1
1.0001
1.00007
1
1.00117
1.00194
1.00152
1.00057
1
1.0001
1.00023
1.00023
1.00034
1.00036
1
1.00129
1
1.00048
1
1
1.0002
1
1
1
1
1.00024
1.00076
1.00101
1.00047
1.00062
1.00053
1.00135
1.00182
1.00183
1.00161
1.00112
1.00047
1.00034
1.00058
1
1.00087
1.00041
1.00108
1.00109
1.00019
1.00012
1.00106
1.00106
1
1.00186
1.00054
1.00075
1.00021
1.00006
1.00116
1.00079
1
1.00125
1.00064
1.00207
1.00228
1.00264
1.00377
1.00117
1.00077
1.00019
1.00113
1.0015
1.00295
1.00281
1.00081
1.00129
1
1
1.0005
1.00091
1.00024
1
1
1.00029
1
1
1.00002
1.00039
1
1.00023
1.00026
1.00191
1.00053
1.00198
1.00116
1.00134
1.00087
1
1
1.00046
1.00064
1.0034
1.00116
1.00409
1.00025
1.0011
1
1
1
1.00117
1.00077
1.00048
1.00115
1.00093
1.00123
1.00085
1.00053
1.00042
1
1.00055
1.00116
1.00092
1.00093
1
1
1
1
1.0006
1.00053
1.00132
1.00101
1.00143
1.0012
1.00081
1.00012
1
1
1
1.00009
1.00013
1.00196
1.00445
1.0005
1.00143
1.00033
1.00075
1.00027
1.00024
1
1.00009
1.00022
1
1.00102
1
1.00072
1
1
1.00005
1.00009
1.00041
1
1.00008
1
1
1.00022
1.00041
1.00047
1.00039
1.00052
1.00053
1
1.0007
1.00037
1.00032
1.00031
1.00112
1.00023
1.00085
1
1.00055
1.00055
1
1
1.00046
1.00061
1.00025
1.00032
1.00012
1.00006
1.00004
1.00021
1
1
1
1.00005
1.00006
1.00009
1.00009
1.00019
1.00247
1.00117