/*--------------------------------*- C++ -*----------------------------------*\
  =========                 |
  \\      /  F ield         | OpenFOAM: The Open Source CFD Toolbox
   \\    /   O peration     | Website:  https://openfoam.org
    \\  /    A nd           | Version:  6
     \\/     M anipulation  |
\*---------------------------------------------------------------------------*/
FoamFile
{
    version     2.0;
    format      ascii;
    class       volScalarField;
    location    "2.55";
    object      p;
}
// * * * * * * * * * * * * * * * * * * * * * * * * * * * * * * * * * * * * * //

dimensions      [0 2 -2 0 0 0 0];

internalField   nonuniform List<scalar> 
4214
(
-0.250246
-0.250564
-0.213157
-0.169017
-0.146021
-0.133056
-0.119429
-0.103356
-0.0854418
-0.0669631
-0.0486875
-0.0313562
-0.018505
-0.0114039
-0.0147714
-0.0191163
-0.0288587
0.0274771
0.0814719
0.121077
0.149437
0.159168
0.111953
0.105744
0.0674132
0.0444269
0.0318496
0.0195319
0.00981117
0.000635304
-0.00625237
-0.0137374
-0.0216743
-0.0303506
-0.0394195
-0.0499162
-0.0592875
-0.0823127
-0.151358
-0.239849
-0.280848
-0.177257
-0.26603
-0.280928
-0.241465
-0.210754
-0.186342
-0.161204
-0.135264
-0.108941
-0.0819803
-0.0539846
-0.0237616
0.00837966
0.0400527
0.0675993
0.101385
0.126758
0.163635
0.175225
0.176823
0.191501
0.232422
0.171578
0.167158
0.10573
0.0621769
0.0301814
0.00851756
-0.0086595
-0.0206872
-0.0294608
-0.0387292
-0.0472162
-0.0568836
-0.0690137
-0.0826732
-0.097968
-0.133153
-0.195759
-0.205926
-0.16807
-0.401818
-0.449852
-0.450959
-0.409959
-0.367681
-0.327687
-0.28705
-0.245496
-0.203219
-0.156412
-0.106136
-0.0534569
0.000397564
0.0524806
0.103243
0.158498
0.225272
0.270455
0.311999
0.32939
0.341406
0.366704
0.304445
0.256914
0.186325
0.116991
0.0644804
0.0265453
-0.00236181
-0.0246191
-0.0428691
-0.0594518
-0.0742505
-0.0918386
-0.11233
-0.135078
-0.162699
-0.208994
-0.271668
-0.293719
-0.307901
-0.619381
-0.608942
-0.586358
-0.541576
-0.493177
-0.443686
-0.393011
-0.339676
-0.280623
-0.216071
-0.147406
-0.0762029
-0.00420548
0.0715539
0.157012
0.234948
0.309037
0.385329
0.442981
0.466948
0.476252
0.482145
0.417977
0.325369
0.256523
0.168657
0.0965963
0.0439488
0.00305741
-0.0279017
-0.0532792
-0.0767146
-0.0979875
-0.120866
-0.146815
-0.176389
-0.212631
-0.265175
-0.329249
-0.36797
-0.40978
-0.807574
-0.772726
-0.730566
-0.681251
-0.627275
-0.570475
-0.510798
-0.443376
-0.368507
-0.287409
-0.201617
-0.113345
-0.0223113
0.0832944
0.188372
0.278194
0.393513
0.508982
0.57752
0.61336
0.620182
0.615974
0.542213
0.414999
0.32611
0.22516
0.135643
0.0688613
0.016088
-0.0258202
-0.0595628
-0.0902893
-0.118703
-0.148376
-0.180925
-0.217548
-0.260993
-0.318471
-0.387528
-0.440351
-0.487901
-0.966741
-0.925131
-0.874649
-0.822694
-0.765025
-0.703276
-0.633909
-0.554662
-0.466605
-0.371059
-0.270858
-0.16893
-0.0600496
0.0627495
0.169839
0.322105
0.500197
0.627674
0.716455
0.761831
0.764228
0.746311
0.666291
0.506577
0.393469
0.283465
0.180273
0.0981776
0.0335311
-0.0187272
-0.0616909
-0.100735
-0.136265
-0.173424
-0.212936
-0.256401
-0.306419
-0.367997
-0.442748
-0.505408
-0.555347
-1.11115
-1.07649
-1.02789
-0.975927
-0.916063
-0.850719
-0.773063
-0.683255
-0.58204
-0.47085
-0.356632
-0.242313
-0.120021
0.0127395
0.174224
0.373666
0.579217
0.746968
0.857374
0.908993
0.906435
0.871908
0.78718
0.606342
0.466027
0.344743
0.228594
0.131685
0.0551607
-0.00750873
-0.0609066
-0.108548
-0.152063
-0.196393
-0.242659
-0.292863
-0.349194
-0.415598
-0.494751
-0.566213
-0.6181
-1.26979
-1.24712
-1.19919
-1.14799
-1.08713
-1.01805
-0.933344
-0.833015
-0.720033
-0.599969
-0.463748
-0.330693
-0.192269
-0.0357627
0.158728
0.397295
0.656439
0.860068
0.994939
1.04994
1.04062
0.992586
0.899712
0.710489
0.545207
0.409072
0.28066
0.169292
0.0800513
0.0062004
-0.0583058
-0.114794
-0.166609
-0.217963
-0.271104
-0.328155
-0.391057
-0.462583
-0.545328
-0.624722
-0.681221
-1.45443
-1.43695
-1.39266
-1.34346
-1.282
-1.20721
-1.11156
-0.994225
-0.86523
-0.738515
-0.572688
-0.423852
-0.272855
-0.100754
0.124423
0.41763
0.725527
0.957681
1.11694
1.17747
1.1596
1.10184
1.00196
0.803913
0.621689
0.472463
0.333845
0.209519
0.107216
0.0216749
-0.0535223
-0.119826
-0.180539
-0.2396
-0.300091
-0.364095
-0.433508
-0.510421
-0.596458
-0.683018
-0.746496
-1.66642
-1.65853
-1.61703
-1.56856
-1.50462
-1.41826
-1.30301
-1.15771
-0.990961
-0.825385
-0.648356
-0.49452
-0.335217
-0.149182
0.104548
0.436229
0.77556
1.02589
1.19752
1.27346
1.25787
1.1975
1.08812
0.882496
0.684789
0.526287
0.3814
0.247347
0.134037
0.0384596
-0.0465962
-0.123156
-0.194014
-0.261986
-0.330629
-0.402187
-0.478497
-0.561215
-0.650568
-0.743312
-0.814421
-1.9256
-1.92348
-1.88378
-1.83546
-1.76544
-1.66354
-1.5259
-1.35326
-1.14924
-0.928421
-0.728162
-0.525495
-0.351334
-0.154604
0.108468
0.45218
0.798021
1.05073
1.23066
1.32887
1.32745
1.27485
1.16711
0.962151
0.749178
0.579198
0.427634
0.284329
0.160124
0.055034
-0.0390833
-0.126376
-0.2085
-0.286312
-0.364116
-0.444104
-0.527966
-0.616799
-0.71008
-0.810682
-0.889166
-2.24033
-2.24311
-2.20743
-2.16091
-2.08291
-1.96403
-1.79893
-1.58748
-1.33211
-1.05806
-0.811289
-0.547932
-0.327974
-0.119792
0.137004
0.46929
0.797046
1.04273
1.22503
1.34597
1.33541
1.27846
1.19482
1.02011
0.812295
0.636034
0.477882
0.324787
0.187702
0.0705474
-0.0349859
-0.134396
-0.227518
-0.315312
-0.40291
-0.491883
-0.583781
-0.679221
-0.780168
-0.89102
-0.983502
-2.61483
-2.63086
-2.60361
-2.56198
-2.47613
-2.3383
-2.13902
-1.8755
-1.55451
-1.20009
-0.847945
-0.521346
-0.248005
-0.0205564
0.203622
0.494477
0.768138
0.968591
1.10434
1.26056
1.26705
1.21396
1.14761
0.994841
0.806751
0.646441
0.499001
0.349327
0.206129
0.0771607
-0.0416408
-0.153401
-0.256258
-0.353242
-0.450219
-0.54718
-0.648139
-0.751398
-0.862231
-0.979978
-1.0862
-3.05791
-3.09609
-3.08378
-3.04697
-2.9538
-2.79238
-2.55347
-2.23173
-1.83498
-1.38105
-0.905809
-0.469878
-0.121109
0.141161
0.296285
0.519772
0.685558
0.788943
0.843056
1.00838
1.08941
1.06134
1.03551
0.89519
0.735377
0.595997
0.462583
0.324242
0.189627
0.0596432
-0.0666114
-0.187381
-0.300949
-0.406081
-0.509907
-0.6116
-0.722941
-0.830116
-0.951712
-1.06968
-1.18543
-3.54933
-3.62478
-3.65765
-3.63564
-3.55088
-3.36337
-3.10605
-2.70716
-2.2491
-1.62803
-1.03083
-0.438852
-0.0422211
0.311943
0.374607
0.537275
0.575721
0.551975
0.524573
0.600701
0.775955
0.777797
0.836916
0.717485
0.589025
0.478901
0.363131
0.244803
0.129594
0.0112488
-0.112791
-0.240868
-0.367854
-0.481455
-0.596099
-0.700807
-0.828051
-0.934448
-1.07864
-1.19053
-1.33587
-4.10605
-4.23763
-4.331
-4.36478
-4.3739
-4.16218
-4.03046
-3.41397
-3.04195
-2.08701
-1.50761
-0.550812
-0.208671
0.466939
0.403456
0.561357
0.553128
0.370582
0.278335
0.0888207
0.298537
0.313391
0.520411
0.415723
0.343177
0.262185
0.164749
0.0773828
-0.00813553
-0.0962777
-0.200213
-0.321968
-0.463132
-0.594482
-0.742451
-0.858778
-1.02788
-1.13554
-1.34481
-1.44644
-1.67453
-4.7714
-4.93851
-5.11312
-5.22597
-5.3461
-5.18543
-5.2412
-4.3589
-4.17644
-2.88313
-2.24004
-0.847183
-0.436776
0.548606
0.347025
0.492871
0.481273
0.113977
-0.0168635
-0.520062
-0.329849
-0.33065
0.0371057
-0.0222934
-0.00236968
-0.0663432
-0.145099
-0.203342
-0.260697
-0.301986
-0.375479
-0.463661
-0.608775
-0.766053
-0.963888
-1.1188
-1.33568
-1.47033
-1.75497
-1.86627
-2.16633
-2.29769
-1.84763
-1.51817
-1.35727
-1.26259
-1.15042
-1.04988
-0.977641
-0.914635
-0.852636
-0.79341
-0.734335
-0.668866
-0.601569
-0.51655
-0.471751
-0.436627
-2.58518
-2.13882
-1.74773
-1.54098
-1.43248
-1.31734
-1.20912
-1.12729
-1.05703
-0.990059
-0.928293
-0.86983
-0.807728
-0.746645
-0.667485
-0.623878
-0.511554
-2.66438
-2.26685
-1.94604
-1.7434
-1.61754
-1.4974
-1.38539
-1.29662
-1.22111
-1.15108
-1.08722
-1.0284
-0.96902
-0.913161
-0.8405
-0.795795
-0.65778
-2.9197
-2.54264
-2.19931
-1.9707
-1.81397
-1.68638
-1.57218
-1.47712
-1.39609
-1.32315
-1.25757
-1.19803
-1.14009
-1.08519
-1.01951
-0.973802
-0.838389
-2.91772
-2.61661
-2.36479
-2.17031
-2.01065
-1.87425
-1.75881
-1.66344
-1.58099
-1.5065
-1.43956
-1.37932
-1.3225
-1.26975
-1.20924
-1.16387
-1.03871
-3.16821
-2.86615
-2.58485
-2.38534
-2.2239
-2.08001
-1.95641
-1.85433
-1.76917
-1.69392
-1.62691
-1.56716
-1.5121
-1.46162
-1.40634
-1.36304
-1.25539
-3.08409
-2.84279
-2.65955
-2.51207
-2.37301
-2.24395
-2.13038
-2.03228
-1.95008
-1.87843
-1.81438
-1.75666
-1.70406
-1.65633
-1.60845
-1.56571
-1.47657
-3.27614
-3.05222
-2.83739
-2.68528
-2.55795
-2.43385
-2.31825
-2.21723
-2.13085
-2.05645
-1.9932
-1.93716
-1.88697
-1.84245
-1.80064
-1.76142
-1.69148
-3.13233
-2.94394
-2.79582
-2.70221
-2.61515
-2.51694
-2.423
-2.341
-2.2692
-2.20479
-2.14718
-2.09688
-2.05346
-2.01399
-1.97515
-1.94305
-1.89316
-3.16233
-3.03294
-2.90322
-2.8159
-2.74291
-2.65665
-2.56832
-2.48584
-2.41246
-2.34785
-2.29108
-2.242
-2.19992
-2.16447
-2.13233
-2.10512
-2.07195
-2.97001
-2.86065
-2.7705
-2.71983
-2.67535
-2.62588
-2.57614
-2.52747
-2.47865
-2.432
-2.38821
-2.34786
-2.31236
-2.28198
-2.2576
-2.23514
-2.22113
-2.88165
-2.81301
-2.75778
-2.71264
-2.67265
-2.63105
-2.59095
-2.55211
-2.51275
-2.47664
-2.4432
-2.41233
-2.38423
-2.35948
-2.33969
-2.32265
-2.32436
-2.68072
-2.6157
-2.5662
-2.54539
-2.53399
-2.51862
-2.49858
-2.47705
-2.45602
-2.43502
-2.41509
-2.39746
-2.38305
-2.37167
-2.36429
-2.35809
-2.36414
-2.5407
-2.49544
-2.47308
-2.46154
-2.44925
-2.4333
-2.41673
-2.40143
-2.3872
-2.37357
-2.36131
-2.35089
-2.3428
-2.33749
-2.33544
-2.33417
-2.34435
-2.29908
-2.26563
-2.25003
-2.25683
-2.26192
-2.25829
-2.2544
-2.25137
-2.24816
-2.24497
-2.24222
-2.24006
-2.2379
-2.23756
-2.23904
-2.24399
-2.25866
-2.1099
-2.0805
-2.07944
-2.08962
-2.08817
-2.08477
-2.08351
-2.08241
-2.08035
-2.07882
-2.07778
-2.0787
-2.07953
-2.0841
-2.08528
-2.09567
-2.10949
-1.84565
-1.83225
-1.82731
-1.8404
-1.84836
-1.85023
-1.85394
-1.8587
-1.86217
-1.86471
-1.86665
-1.86918
-1.87169
-1.87806
-1.88003
-1.89337
-1.89883
-1.6362
-1.61515
-1.61126
-1.61106
-1.60991
-1.60872
-1.60833
-1.60904
-1.61045
-1.61251
-1.61565
-1.61852
-1.62146
-1.62722
-1.62653
-1.63795
-1.63537
-1.35762
-1.35312
-1.34471
-1.33885
-1.33423
-1.33009
-1.32646
-1.3235
-1.32121
-1.31953
-1.31835
-1.31761
-1.31836
-1.31925
-1.31719
-1.32939
-1.32531
-1.10982
-1.07993
-1.06668
-1.05404
-1.04198
-1.03171
-1.02275
-1.01486
-1.00804
-1.00232
-0.99752
-0.993544
-0.990926
-0.98832
-0.985587
-0.992654
-0.987525
-0.792169
-0.78695
-0.766515
-0.747774
-0.729218
-0.71188
-0.696426
-0.682775
-0.670837
-0.660605
-0.651562
-0.643874
-0.638657
-0.632578
-0.628632
-0.63096
-0.621468
-0.549812
-0.493435
-0.454818
-0.424376
-0.398854
-0.375802
-0.354892
-0.335786
-0.31863
-0.303215
-0.288922
-0.276758
-0.266632
-0.254978
-0.248058
-0.247832
-0.229857
-0.181237
-0.161156
-0.131737
-0.0984359
-0.0665033
-0.0365674
-0.00899773
0.0162397
0.038887
0.0597075
0.0791386
0.0953357
0.10986
0.12647
0.136048
0.14021
0.165945
0.0444054
0.120189
0.17624
0.223464
0.264142
0.30078
0.334147
0.364365
0.391456
0.416822
0.440207
0.459155
0.477441
0.498516
0.509239
0.515822
0.548539
0.408664
0.452978
0.496981
0.543616
0.58758
0.628566
0.66631
0.700381
0.731156
0.76033
0.786599
0.807708
0.829669
0.853976
0.864454
0.87331
0.911704
0.624232
0.715714
0.786747
0.845229
0.895886
0.941435
0.982712
1.0197
1.05339
1.08541
1.11375
1.13702
1.16227
1.18872
1.19998
1.21252
1.25468
0.970074
1.03302
1.08508
1.1395
1.18972
1.23646
1.27921
1.31768
1.35301
1.38665
1.41621
1.44092
1.46821
1.4959
1.50802
1.52333
1.56837
1.16407
1.26545
1.34416
1.40633
1.46027
1.50849
1.55204
1.59101
1.62693
1.66111
1.69092
1.71618
1.74462
1.77301
1.78571
1.80268
1.8495
1.48035
1.55604
1.60662
1.66173
1.71171
1.75853
1.80107
1.83935
1.87478
1.90848
1.93784
1.96318
1.99192
2.02025
2.03388
2.0531
2.09999
1.64341
1.74554
1.82432
1.88568
1.93818
1.98434
2.02569
2.06251
2.09655
2.1289
2.15709
2.18173
2.21008
2.23797
2.25168
2.27218
2.31862
1.92584
1.99656
2.04669
2.09938
2.14637
2.18931
2.2275
2.26145
2.29294
2.32298
2.34933
2.37269
2.39985
2.42679
2.44079
2.46191
2.50761
2.06482
2.16535
2.23231
2.28478
2.32954
2.36967
2.40513
2.43601
2.46438
2.49159
2.51571
2.53738
2.56288
2.58865
2.60297
2.62442
2.66896
2.29526
2.36276
2.40673
2.45222
2.49137
2.52721
2.55938
2.5873
2.61234
2.63636
2.65793
2.67759
2.70111
2.72549
2.73987
2.76085
2.80415
2.42505
2.5111
2.56015
2.60066
2.63417
2.66448
2.69213
2.71668
2.73841
2.75904
2.77792
2.79548
2.81685
2.83967
2.85399
2.87422
2.91601
2.60649
2.65764
2.69393
2.72874
2.75717
2.78243
2.80533
2.82616
2.84468
2.86207
2.87831
2.89388
2.91313
2.93422
2.94828
2.96782
3.00736
2.72914
2.78381
2.81488
2.84152
2.86365
2.88343
2.90148
2.91836
2.9337
2.94806
2.96174
2.97544
2.99257
3.01185
3.0259
3.0446
3.08026
2.86049
2.89241
2.91614
2.93731
2.95422
2.96903
2.98253
2.99551
3.0076
3.0189
3.02998
3.04184
3.05703
3.07454
3.08859
3.10591
3.13644
2.96067
2.98935
3.00589
3.01965
3.03112
3.04118
3.05046
3.05971
3.06854
3.07691
3.08575
3.09626
3.10989
3.12534
3.13792
3.15188
3.17707
3.05875
3.071
3.08104
3.08946
3.09613
3.10202
3.10775
3.11393
3.12016
3.12649
3.13403
3.1436
3.1553
3.16745
3.1774
3.1886
3.2066
3.13566
3.14453
3.14802
3.15072
3.15321
3.15601
3.15921
3.1628
3.16648
3.17062
3.1761
3.18292
3.19052
3.19785
3.20451
3.21403
3.23012
0.758319
0.926766
1.17336
1.37235
1.70142
1.95077
2.35192
2.63049
3.04916
3.33146
3.67804
3.91312
4.14546
4.31264
4.42681
4.51304
4.54206
4.56502
4.52329
4.49512
4.42094
4.36023
4.28225
4.21454
4.14311
4.07677
4.0078
3.9367
3.87024
3.80465
3.74653
3.68788
3.63736
3.58315
3.53619
3.48185
3.43577
3.37911
3.33206
3.26781
3.20743
1.02957
1.2068
1.3955
1.61093
1.854
2.12413
2.4173
2.72547
3.03517
3.32234
3.60026
3.83238
4.03431
4.1887
4.30119
4.37717
4.41604
4.43235
4.4099
4.38015
4.32376
4.2672
4.20186
4.13935
4.07594
4.01368
3.9496
3.88444
3.82239
3.76367
3.70794
3.65538
3.60453
3.55603
3.50903
3.46226
3.41478
3.36747
3.31833
3.26354
3.20197
1.31677
1.46916
1.63295
1.81732
2.02597
2.26065
2.5128
2.77907
3.04243
3.29977
3.54002
3.75239
3.93298
4.07652
4.18318
4.25708
4.29883
4.31673
4.30608
4.28071
4.23663
4.18691
4.13138
4.07516
4.0182
3.96049
3.90016
3.83994
3.78249
3.72797
3.6761
3.62678
3.57917
3.53315
3.48813
3.44434
3.39978
3.35525
3.30927
3.25797
3.1996
1.56883
1.69914
1.83824
1.99482
2.1736
2.37438
2.59128
2.82024
3.05074
3.27657
3.48906
3.6801
3.84443
3.97683
4.07752
4.14981
4.19371
4.21435
4.21221
4.19305
4.15882
4.11674
4.0693
4.01961
3.96839
3.91526
3.85866
3.8032
3.74986
3.69879
3.6499
3.60305
3.55792
3.51419
3.4714
3.42925
3.38733
3.34493
3.30168
3.25362
3.19797
1.79481
1.90489
2.02154
2.15335
2.30488
2.47543
2.66085
2.8578
3.05797
3.25589
3.44396
3.6153
3.76471
3.8875
3.98208
4.05371
4.09956
4.12374
4.1283
4.11569
4.09004
4.05551
4.01524
3.9717
3.92564
3.87637
3.82379
3.77243
3.72257
3.6744
3.62795
3.58316
3.5399
3.49795
3.45701
3.41671
3.37652
3.3362
3.29567
3.25054
3.19748
1.9904
2.08217
2.17904
2.28995
2.41828
2.56303
2.72081
2.88981
3.06353
3.23711
3.40378
3.5576
3.69373
3.80748
3.89716
3.96755
4.01546
4.04333
4.05381
4.04754
4.02924
4.00193
3.96826
3.9304
3.88893
3.84296
3.79446
3.74661
3.69966
3.65387
3.60938
3.56622
3.52438
3.48376
3.44419
3.40542
3.36702
3.32841
3.28979
3.24866
3.19858
2.15745
2.23292
2.31284
2.40679
2.51614
2.63945
2.77444
2.91816
3.06821
3.22024
3.36807
3.50643
3.63081
3.73646
3.82203
3.89018
3.94026
3.97186
3.9875
3.98801
3.97587
3.95502
3.92749
3.89485
3.85741
3.81452
3.7698
3.72492
3.68034
3.63641
3.59341
3.55148
3.51069
3.47105
3.43251
3.39493
3.35806
3.3212
3.28425
3.24605
3.19985
2.29632
2.3575
2.42345
2.50408
2.59818
2.7038
2.81935
2.94234
3.07197
3.20519
3.33664
3.46157
3.57569
3.67438
3.75636
3.82135
3.87305
3.90824
3.92852
3.93547
3.92964
3.91415
3.89213
3.86428
3.83032
3.79062
3.74921
3.70687
3.66418
3.62163
3.57963
3.53848
3.49836
3.4594
3.42165
3.38503
3.34942
3.31409
3.27858
3.24272
3.20017
2.40759
2.45688
2.51202
2.58218
2.66414
2.75571
2.85581
2.96252
3.07512
3.19232
3.30972
3.42301
3.52802
3.62047
3.6988
3.76228
3.81345
3.85177
3.87635
3.88853
3.88954
3.87903
3.86155
3.83805
3.8071
3.77053
3.73174
3.69133
3.65001
3.60855
3.56743
3.52689
3.48721
3.44863
3.41135
3.37542
3.34082
3.30687
3.27266
3.23902
3.20027
2.49381
2.53299
2.57939
2.6403
2.71245
2.79363
2.88276
2.97816
3.07794
3.18215
3.28764
3.3909
3.48726
3.57388
3.649
3.7116
3.76195
3.80203
3.83047
3.84738
3.85368
3.84906
3.83543
3.81563
3.78741
3.75356
3.71666
3.67739
3.637
3.59639
3.55605
3.51603
3.47659
3.43818
3.40117
3.36576
3.33192
3.29911
3.26669
3.23559
3.20077
2.5562
2.58932
2.63033
2.68412
2.74835
2.82119
2.90185
2.9895
3.08084
3.1748
3.26992
3.36338
3.45213
3.53358
3.60585
3.66778
3.71893
3.75951
3.79072
3.81157
3.8222
3.82293
3.81354
3.79658
3.77082
3.73916
3.70364
3.66564
3.62665
3.5869
3.54626
3.50562
3.46575
3.42721
3.39039
3.35554
3.32268
3.29131
3.2611
3.23273
3.20205
2.59801
2.62905
2.66652
2.71489
2.77322
2.84015
2.91503
2.99559
3.08024
3.16654
3.25349
3.33945
3.42219
3.49943
3.56936
3.63068
3.6826
3.72488
3.75769
3.78131
3.79542
3.79991
3.79533
3.78062
3.75698
3.72687
3.69288
3.65692
3.61854
3.57803
3.53659
3.49521
3.45483
3.41612
3.37953
3.34533
3.31357
3.28378
3.2559
3.23031
3.20413
2.62418
2.65532
2.69088
2.73576
2.78991
2.85252
2.92231
2.9975
3.07692
3.15797
3.23951
3.32018
3.39841
3.47226
3.54008
3.6006
3.65293
3.69656
3.73132
3.75708
3.77344
3.78088
3.77953
3.76746
3.74569
3.71715
3.68546
3.64981
3.61058
3.56915
3.52683
3.48472
3.44395
3.40518
3.36888
3.33533
3.30463
3.27645
3.25099
3.22808
3.20662
2.64007
2.67175
2.70726
2.75042
2.8021
2.86143
2.92717
2.99831
3.07327
3.15042
3.22835
3.3053
3.38007
3.45112
3.5171
3.57684
3.62939
3.67404
3.71031
3.73788
3.75648
3.76603
3.76624
3.75676
3.73684
3.71066
3.6794
3.64297
3.60275
3.56027
3.51698
3.47413
3.4329
3.39408
3.35804
3.32513
3.29555
3.26925
3.24655
3.22632
3.20928
2.65045
2.68151
2.71782
2.76021
2.80929
2.86519
2.92755
2.99531
3.0667
3.14084
3.21598
3.2905
3.36311
3.43267
3.49789
3.55761
3.61078
3.65656
3.69429
3.72356
3.74397
3.75524
3.7566
3.74849
3.73032
3.70519
3.6734
3.63619
3.59499
3.55153
3.50733
3.46365
3.42178
3.38266
3.34682
3.3146
3.28633
3.26223
3.24276
3.22589
3.21359
2.6597
2.68706
2.72154
2.76178
2.80812
2.86068
2.91938
2.98388
3.05356
3.12643
3.20005
3.27397
3.34633
3.41612
3.48199
3.54267
3.59709
3.64434
3.68371
3.71457
3.73643
3.74891
3.75104
3.74348
3.72611
3.70098
3.66883
3.63082
3.58855
3.5437
3.49829
3.45392
3.41152
3.37213
3.3364
3.30479
3.2777
3.25563
3.23937
3.22773
3.22234
2.67306
2.69277
2.72338
2.76199
2.80716
2.85816
2.91459
2.97622
3.043
3.11422
3.18808
3.2623
3.33558
3.40623
3.47304
3.5348
3.59039
3.63885
3.67932
3.71111
3.73371
3.74659
3.74931
3.74197
3.72475
3.69945
3.66678
3.62812
3.58482
3.53863
3.49167
3.4463
3.40368
3.36428
3.32876
3.29759
3.27127
3.25043
3.236
3.22957
3.23657
-0.402712
-0.492588
-0.627048
-0.812275
-0.966226
-1.09224
-1.21576
-1.36568
-1.55987
-1.78208
-2.04197
-2.34875
-2.70083
-3.09741
-3.52651
-4.0063
-4.5217
-0.511794
-0.703106
-0.831835
-1.00964
-1.16182
-1.2832
-1.40521
-1.55044
-1.71803
-1.91169
-2.13535
-2.41989
-2.74099
-3.10206
-3.49009
-3.86317
-4.17793
-0.677919
-0.901349
-1.03692
-1.19836
-1.33404
-1.45204
-1.58155
-1.73427
-1.90301
-2.08995
-2.30074
-2.55684
-2.84064
-3.13736
-3.44869
-3.76456
-4.09966
-0.868442
-1.0974
-1.23751
-1.38881
-1.51393
-1.62257
-1.74262
-1.88426
-2.04005
-2.21414
-2.42485
-2.66165
-2.90556
-3.1389
-3.39721
-3.68402
-3.98272
-1.07418
-1.29898
-1.43249
-1.56863
-1.68533
-1.7909
-1.90441
-2.03268
-2.172
-2.32404
-2.51538
-2.71816
-2.91667
-3.11565
-3.32853
-3.51295
-3.6691
-1.28636
-1.4968
-1.61958
-1.74218
-1.85018
-1.9474
-2.05117
-2.16503
-2.29007
-2.43138
-2.5965
-2.7575
-2.90867
-3.07296
-3.25129
-3.39808
-3.55734
-1.5001
-1.68812
-1.79704
-1.90689
-2.00302
-2.09191
-2.18104
-2.27802
-2.38541
-2.51548
-2.65149
-2.77257
-2.89113
-3.02309
-3.16981
-3.31154
-3.4461
-1.71524
-1.87271
-1.96535
-2.06262
-2.14242
-2.21734
-2.29197
-2.3742
-2.46852
-2.57225
-2.66954
-2.76099
-2.85589
-2.96044
-3.06336
-3.13989
-3.20466
-1.92048
-2.04477
-2.12235
-2.19943
-2.2625
-2.32193
-2.381
-2.44784
-2.52595
-2.59805
-2.66361
-2.73476
-2.8105
-2.89573
-2.97852
-3.04602
-3.1287
-2.10993
-2.19387
-2.25628
-2.30774
-2.35407
-2.39868
-2.44409
-2.49626
-2.54473
-2.59218
-2.64308
-2.69788
-2.75675
-2.82029
-2.88578
-2.9569
-3.0246
-2.2642
-2.31215
-2.35187
-2.38126
-2.41202
-2.44304
-2.47409
-2.50322
-2.53451
-2.56926
-2.60687
-2.64875
-2.69262
-2.73462
-2.77176
-2.8011
-2.83448
-2.37077
-2.38902
-2.4074
-2.42185
-2.43859
-2.45392
-2.47039
-2.48946
-2.51105
-2.53633
-2.56525
-2.59658
-2.62804
-2.66005
-2.69273
-2.72423
-2.7694
-2.42782
-2.42586
-2.432
-2.43398
-2.43709
-2.44329
-2.45245
-2.46437
-2.47886
-2.4957
-2.51412
-2.53399
-2.5542
-2.57455
-2.59861
-2.63371
-2.67543
-2.44362
-2.43162
-2.42816
-2.42092
-2.41885
-2.41934
-2.42178
-2.42603
-2.43206
-2.4397
-2.44873
-2.4591
-2.4702
-2.4807
-2.48928
-2.4969
-2.51324
-2.43819
-2.4105
-2.39819
-2.38365
-2.37611
-2.37049
-2.3669
-2.36526
-2.36558
-2.36726
-2.37046
-2.37542
-2.38233
-2.3914
-2.40275
-2.41669
-2.44378
-2.39095
-2.35174
-2.33459
-2.31667
-2.30414
-2.29436
-2.28542
-2.27935
-2.27576
-2.27385
-2.27399
-2.27627
-2.28051
-2.28665
-2.29632
-2.31495
-2.34215
-2.29568
-2.25305
-2.2323
-2.21566
-2.19851
-2.18654
-2.17692
-2.17034
-2.16569
-2.16276
-2.16269
-2.16556
-2.17078
-2.17805
-2.18634
-2.19467
-2.20552
-2.1455
-2.11253
-2.08766
-2.07708
-2.06189
-2.05283
-2.04556
-2.03983
-2.03667
-2.0373
-2.04054
-2.04613
-2.05423
-2.06521
-2.07941
-2.09622
-2.11831
-1.93326
-1.93064
-1.90868
-1.90381
-1.89344
-1.88838
-1.88604
-1.88639
-1.88905
-1.89382
-1.90068
-1.90963
-1.92074
-1.93411
-1.95003
-1.97022
-1.99491
-1.67561
-1.68466
-1.67495
-1.68019
-1.68244
-1.68631
-1.69261
-1.70014
-1.70884
-1.72029
-1.73406
-1.75014
-1.76865
-1.78979
-1.81357
-1.83808
-1.85922
-1.34966
-1.38369
-1.3841
-1.40753
-1.42696
-1.44408
-1.46483
-1.48567
-1.50684
-1.52966
-1.55388
-1.57954
-1.60711
-1.63718
-1.6698
-1.70467
-1.74828
-0.972972
-1.04799
-1.06397
-1.10083
-1.14154
-1.174
-1.20944
-1.24649
-1.28221
-1.31871
-1.35658
-1.39508
-1.43441
-1.47469
-1.51519
-1.55579
-1.60426
-0.538696
-0.657082
-0.700318
-0.755403
-0.823056
-0.877208
-0.929796
-0.986072
-1.04027
-1.0928
-1.14603
-1.19944
-1.25286
-1.30713
-1.36276
-1.41868
-1.46878
-0.080198
-0.228763
-0.300085
-0.373115
-0.467007
-0.549765
-0.625419
-0.704264
-0.781306
-0.853742
-0.924851
-0.995311
-1.06426
-1.13237
-1.20132
-1.27191
-1.3508
0.357365
0.189449
0.104223
0.0155296
-0.0992482
-0.203331
-0.298874
-0.398794
-0.498916
-0.59487
-0.688613
-0.781127
-0.870801
-0.956561
-1.03968
-1.11927
-1.20173
0.74521
0.567754
0.470461
0.373094
0.244951
0.123997
0.0123192
-0.104016
-0.221968
-0.336434
-0.449145
-0.560965
-0.670316
-0.777332
-0.88149
-0.980784
-1.07003
1.08363
0.906107
0.800365
0.697795
0.56141
0.428527
0.304237
0.175126
0.0427389
-0.0877284
-0.217231
-0.3465
-0.473812
-0.598585
-0.720664
-0.841661
-0.961459
1.37114
1.20105
1.09256
0.987017
0.847941
0.708121
0.574043
0.435485
0.292342
0.148991
0.00515549
-0.139391
-0.283108
-0.425533
-0.565375
-0.700483
-0.83105
1.61501
1.45567
1.34812
1.24476
1.10718
0.961476
0.820132
0.675129
0.52428
0.370721
0.214827
0.0576529
-0.0999136
-0.258503
-0.416381
-0.569851
-0.711191
1.82097
1.67539
1.57183
1.47337
1.33943
1.19195
1.04636
0.896388
0.740044
0.57838
0.412212
0.243823
0.0736531
-0.0989576
-0.271894
-0.446053
-0.617429
1.99427
1.86414
1.76686
1.67604
1.54852
1.40166
1.25488
1.10401
0.944487
0.776278
0.601796
0.423091
0.240296
0.0540904
-0.132916
-0.322001
-0.507173
2.14018
2.02442
1.93653
1.85575
1.73549
1.59255
1.44833
1.29907
1.13804
0.965816
0.785262
0.597458
0.403091
0.203601
0.00186903
-0.203483
-0.391108
2.26073
2.16009
2.08463
2.01315
1.90181
1.76684
1.62756
1.48063
1.32041
1.14719
0.962487
0.767283
0.563194
0.35141
0.135649
-0.0877059
-0.303872
2.35962
2.27474
2.21105
2.14879
2.04982
1.92515
1.79223
1.64964
1.49296
1.32093
1.13402
0.93375
0.721707
0.498687
0.269112
0.0307598
-0.205941
2.44024
2.37049
2.31776
2.26472
2.17978
2.06776
1.94315
1.80699
1.65589
1.487
1.3004
1.09744
0.87917
0.646347
0.404006
0.149443
-0.0773486
2.50535
2.44992
2.40709
2.36281
2.29281
2.19546
2.08091
1.95301
1.80921
1.6458
1.46238
1.25942
1.03761
0.797419
0.545487
0.272516
0.014845
2.55793
2.51493
2.48079
2.44467
2.38935
2.30813
2.20589
2.08824
1.95315
1.79676
1.61823
1.41727
1.19452
0.9494
0.68983
0.403666
0.119957
2.59913
2.56679
2.54092
2.51188
2.46961
2.40489
2.31716
2.21256
2.08932
1.94373
1.77391
1.5787
1.35836
1.11099
0.842737
0.543724
0.294643
2.63222
2.61018
2.59186
2.56978
2.5381
2.4887
2.41503
2.32184
2.20828
2.07193
1.9105
1.72279
1.50899
1.26684
0.998519
0.690673
0.398271
2.65829
2.64288
2.63014
2.61545
2.59535
2.56337
2.51146
2.43829
2.34249
2.22231
2.07472
1.89712
1.68825
1.44665
1.17745
0.867239
0.531801
-5.37399
-5.79948
-5.95364
-5.54966
-4.28866
-1.91589
0.0511367
0.0923848
-0.35973
-0.999913
-1.07448
-0.536091
-0.358738
-0.482616
-0.592779
-0.743112
-1.01617
-1.39059
-1.78563
-2.1764
-5.84311
-6.38823
-6.70776
-6.51161
-5.31144
-2.82823
-0.351476
-0.27208
-0.991104
-1.832
-2.05963
-1.4051
-0.977788
-0.979171
-1.01214
-1.11556
-1.32415
-1.66671
-2.07678
-2.45811
-6.33516
-7.01011
-7.53919
-7.65248
-6.53529
-4.02761
-1.13054
-0.854427
-1.74703
-2.80127
-3.20878
-2.52616
-1.84416
-1.65071
-1.56336
-1.61812
-1.76569
-2.0408
-2.44479
-2.80569
-6.85583
-7.6831
-8.44303
-8.86395
-8.06203
-5.54631
-2.31248
-1.6737
-2.66115
-3.91393
-4.53682
-3.94863
-3.01978
-2.56237
-2.30434
-2.29231
-2.38365
-2.56224
-2.92987
-3.25821
-7.40209
-8.39719
-9.41827
-10.184
-9.82166
-7.32027
-3.9115
-2.78086
-3.76255
-5.14427
-5.99157
-5.66233
-4.578
-3.83135
-3.33814
-3.16087
-3.20429
-3.28754
-3.57697
-3.82597
-7.97378
-9.14521
-10.5519
-11.6509
-11.7247
-9.38735
-5.90817
-4.23524
-5.01029
-6.45109
-7.53944
-7.65545
-6.59083
-5.52467
-4.77014
-4.28218
-4.22383
-4.25185
-4.43419
-4.52322
-8.56585
-9.95968
-11.9186
-13.3193
-13.7778
-11.8059
-8.22691
-6.08713
-6.3724
-7.81365
-9.17861
-9.68081
-8.91016
-7.7129
-6.77612
-5.90575
-5.50469
-5.45396
-5.50448
-5.41508
-9.17843
-10.8829
-13.1764
-15.1698
-15.9819
-14.3264
-10.7755
-8.33578
-7.88162
-9.15825
-10.7784
-11.5812
-11.4468
-10.2445
-9.22784
-8.32266
-7.39618
-6.99825
-6.88274
-6.59779
-9.83069
-11.9107
-14.1592
-16.9751
-18.1128
-16.7721
-13.4769
-10.8437
-9.57944
-10.4295
-12.1391
-13.3108
-13.7086
-13.0853
-11.8938
-10.9523
-10.0922
-9.23496
-8.66779
-8.09078
-10.5571
-12.8443
-15.339
-18.5297
-19.9329
-19.08
-16.0665
-13.4155
-11.4858
-11.6802
-13.1907
-14.6338
-15.4259
-15.5367
-14.7763
-13.7946
-12.7261
-11.7353
-10.8113
-9.92319
-11.372
-13.5022
-16.6845
-19.6931
-21.2438
-20.9188
-18.3385
-15.8635
-13.5673
-12.8462
-13.8524
-15.4221
-16.4842
-17.0055
-16.9374
-16.1831
-15.1945
-14.1602
-13.0419
-11.9384
-12.1191
-14.2764
-17.6139
-20.2387
-21.8886
-21.988
-20.0931
-17.9416
-15.5763
-14.0623
-14.3268
-15.5595
-16.8283
-17.6046
-17.8866
-17.6398
-16.9471
-16.0326
-14.9073
-13.6856
-12.6043
-15.3576
-18.013
-20.1272
-21.8717
-22.209
-21.0661
-19.4248
-17.3294
-15.388
-14.6214
-15.1359
-16.2239
-17.2164
-17.8352
-17.9699
-17.6969
-17.0511
-16.0501
-15.0027
-13.4932
-15.8011
-17.71
-19.517
-21.1392
-21.6826
-20.9271
-19.6648
-18.0594
-16.2803
-15.0157
-14.6265
-15.1505
-15.9401
-16.6543
-17.0605
-17.0683
-16.8321
-16.1405
-15.3992
-14.3795
-15.5335
-16.8267
-18.5528
-19.978
-20.6849
-20.2819
-19.2818
-17.9149
-16.292
-15.0121
-14.2791
-14.0816
-14.4054
-14.8574
-15.1922
-15.3345
-15.2809
-14.9861
-14.5385
-14.3635
-14.7056
-15.7365
-17.3926
-18.6093
-19.3343
-19.1269
-18.4431
-17.3055
-15.8439
-14.546
-13.6025
-13.052
-12.8027
-12.8099
-12.9813
-13.0128
-12.9792
-12.8291
-12.6434
-13.5334
-13.6441
-14.8328
-16.2219
-17.2126
-17.8049
-17.657
-17.118
-16.2199
-14.9386
-13.6927
-12.6586
-11.89
-11.3915
-11.0979
-10.93
-10.8164
-10.6674
-10.4172
-10.1721
-12.3238
-12.8825
-14.139
-15.1995
-15.9392
-16.3077
-16.1413
-15.6557
-14.8648
-13.8008
-12.7032
-11.7207
-10.9254
-10.3321
-9.91475
-9.60593
-9.33288
-9.02565
-8.61797
-8.10851
-11.9436
-12.6838
-13.5944
-14.3304
-14.8374
-15.0182
-14.8405
-14.353
-13.6163
-12.7103
-11.7515
-10.8608
-10.1214
-9.56889
-9.18583
-8.91628
-8.6976
-8.46903
-8.10017
-7.5363
-12.7067
-12.9368
-13.2495
-13.603
-13.8657
-13.9228
-13.7299
-13.3072
-12.6938
-11.9369
-11.0778
-10.2318
-9.51504
-8.96049
-8.58146
-8.29794
-8.09056
-8.02834
-8.0951
-8.21598
-8.69432
-6.17524
-6.75892
-9.27357
-11.5649
-13.0798
-13.8304
-13.4251
-12.3337
-10.9062
-9.37201
-7.84807
-6.61878
-5.66169
-4.86095
-4.18815
-3.63764
-3.19201
-2.84932
-2.56541
-7.15434
-5.08102
-5.34674
-7.99204
-10.1357
-11.6776
-12.5268
-12.13
-11.2458
-10.0874
-8.91003
-7.7129
-6.70058
-5.84671
-5.09351
-4.4639
-3.95739
-3.54266
-3.20931
-2.92608
-6.47887
-4.78491
-4.38901
-6.09402
-8.32725
-10.0582
-10.6816
-10.3977
-9.58383
-8.90267
-8.1251
-7.25825
-6.47451
-5.78927
-5.18025
-4.63853
-4.17092
-3.77807
-3.45833
-3.18662
-6.59941
-5.10354
-4.13203
-4.92679
-6.81166
-8.30883
-8.70676
-8.54903
-8.12002
-7.72643
-7.22586
-6.62119
-6.03311
-5.50196
-5.0145
-4.57115
-4.17956
-3.83744
-3.54597
-3.28423
-7.11729
-5.69796
-4.50346
-4.73745
-5.65588
-6.69725
-7.06544
-6.8687
-6.73122
-6.54327
-6.23481
-5.85862
-5.43994
-5.03556
-4.65873
-4.30842
-3.98882
-3.69835
-3.4471
-3.2072
-7.67662
-6.3275
-5.13746
-4.84761
-5.00576
-5.63088
-5.81409
-5.75517
-5.67733
-5.5264
-5.30388
-5.04136
-4.74
-4.43682
-4.14554
-3.8686
-3.6108
-3.37125
-3.16348
-2.95619
-8.36047
-6.92113
-5.63482
-5.08246
-4.94456
-5.09903
-5.07066
-4.97666
-4.8464
-4.68277
-4.49485
-4.28007
-4.04895
-3.81525
-3.5868
-3.36772
-3.16256
-2.97062
-2.8046
-2.63906
-9.14454
-7.59793
-6.07059
-5.45826
-5.07479
-4.77665
-4.56777
-4.37919
-4.17928
-3.97792
-3.77991
-3.58166
-3.38359
-3.18969
-3.00355
-2.82741
-2.66353
-2.51117
-2.378
-2.24607
-9.95106
-8.68981
-6.77098
-5.70659
-5.04286
-4.54854
-4.15507
-3.84366
-3.57145
-3.32635
-3.10602
-2.90456
-2.71792
-2.54507
-2.38571
-2.23971
-2.10648
-1.98467
-1.87673
-1.77727
-10.5948
-9.57813
-7.32565
-5.67042
-4.85687
-4.2066
-3.67314
-3.26328
-2.93061
-2.64965
-2.41056
-2.20444
-2.0244
-1.86627