/*--------------------------------*- C++ -*----------------------------------*\
  =========                 |
  \\      /  F ield         | OpenFOAM: The Open Source CFD Toolbox
   \\    /   O peration     | Website:  https://openfoam.org
    \\  /    A nd           | Version:  6
     \\/     M anipulation  |
\*---------------------------------------------------------------------------*/
FoamFile
{
    version     2.0;
    format      ascii;
    class       volScalarField;
    location    "4.99";
    object      T;
}
// * * * * * * * * * * * * * * * * * * * * * * * * * * * * * * * * * * * * * //

dimensions      [0 0 0 1 0 0 0];

internalField   nonuniform List<scalar> 
10000
(
1
1
1
1
1
1
1
1
1
1
1
1
1
1
1
1
1
1
1
1
1
1
1
1
1
1
1
1
1
1
1
1
1
1
1
1
1
1
1
1
1
1
1
1
1
1
1
1
1
1
1
1
1
1
1
1
1
1
1
1.00001
1.00001
1.00001
1.00001
1.00001
1.00001
1.00001
1.00002
1.00002
1.00002
1.00002
1.00002
1.00002
1.00002
1.00002
1.00002
1.00002
1.00002
1.00002
1.00001
1.00001
1.00001
1.00001
1.00001
1.00001
1.00001
1
1
1
1
1
1
1
1
1
1
1
1
1
1
1
1
1
1
1
1
1
1
1
1
1
1
1
1
1
1
1
1
1
1
1
1
1
1
1
1
1
1
1
1
1
1
1
1
1
1
1
1
1
1
1
1
1
1
1
1
1
1
1
1
1
1
1
1
1
1
1
1
1
1.00001
1.00001
1.00001
1.00001
1.00001
1.00002
1.00002
1.00002
1.00002
1.00002
1.00002
1.00002
1.00002
1.00002
1.00002
1.00002
1.00002
1.00002
1.00002
1.00002
1.00002
1.00002
1.00002
1.00001
1.00001
1.00001
1.00001
1.00001
1.00001
1
1
1
1
1
1
1
1
1
1
1
1
1
1
1
1
1
1
1
1
1
1
1
1
1
1
1
1
1
1
1
1
1
1
1
1
1
1
1
1
1
1
1
1
1
1
1
1
1
1
1
1
1
1
1
1
1
1
1
1
1
1
1
1
1
1
1
1
1
1.00001
1.00001
1.00001
1.00001
1.00001
1.00002
1.00002
1.00002
1.00002
1.00002
1.00002
1.00002
1.00002
1.00002
1.00002
1.00002
1.00002
1.00002
1.00002
1.00002
1.00002
1.00002
1.00002
1.00002
1.00002
1.00002
1.00002
1.00001
1.00001
1.00001
1.00001
1.00001
1
1
1
1
1
1
1
1
1
1
1
1
1
1
1
1
1
1
1
1
1
1
1
1
1
1
1
1
1
1
1
1
1
1
1
1
1
1
1
1
1
1
1
1
1
1
1
1
1
1
1
1
1
1
1
1
1
1
1
1
1
1
1
1
1
1
1
1.00001
1.00001
1.00001
1.00001
1.00001
1.00002
1.00002
1.00002
1.00002
1.00002
1.00002
1.00002
1.00002
1.00002
1.00002
1.00002
1.00002
1.00002
1.00002
1.00002
1.00002
1.00002
1.00002
1.00002
1.00002
1.00002
1.00002
1.00002
1.00002
1.00001
1.00001
1.00001
1.00001
1.00001
1
1
1
1
1
1
1
1
1
1
1
1
1
1
1
1
1
1
1
1
1
1
1
1
1
1
1
1
1
1
1
1
1
1
1
1
1
1
1
1
1
1
1
1
1
1
1
1
1
1
1
1
1
1
1
1
1
1
1
1
1
1
1
1
1
1.00001
1.00001
1.00001
1.00001
1.00002
1.00002
1.00002
1.00002
1.00002
1.00002
1.00002
1.00002
1.00002
1.00002
1.00002
1.00002
1.00002
1.00002
1.00002
1.00002
1.00002
1.00002
1.00002
1.00002
1.00002
1.00002
1.00002
1.00002
1.00002
1.00002
1.00002
1.00002
1.00001
1.00001
1.00001
1.00001
1
1
1
1
1
1
1
1
1
1
1
1
1
1
1
1
1
1
1
1
1
1
1
1
1
1
1
1
1
1
1
1
1
1
1
1
1
1
1
1
1
1
1
1
1
1
1
1
1
1
1
1
1
1
1
1
1
1
1
1
1
1
1
1.00001
1.00001
1.00001
1.00001
1.00002
1.00002
1.00002
1.00002
1.00002
1.00002
1.00002
1.00002
1.00002
1.00002
1.00002
1.00002
1.00002
1.00002
1.00002
1.00002
1.00002
1.00002
1.00002
1.00002
1.00002
1.00002
1.00002
1.00002
1.00002
1.00002
1.00002
1.00002
1.00002
1.00002
1.00001
1.00001
1.00001
1.00001
1
1
1
1
1
1
1
1
1
1
1
1
1
1
1
1
1
1
1
1
1
1
1
1
1
1
1
1
1
1
1
1
1
1
1
1
1
1
1
1
1
1
1
1
1
1
1
1
1
1
1
1
1
1
1
1
1
1
1
1
1
1.00001
1.00001
1.00001
1.00001
1.00002
1.00002
1.00002
1.00002
1.00002
1.00002
1.00002
1.00002
1.00002
1.00002
1.00002
1.00002
1.00001
1.00001
1.00001
1.00001
1.00001
1.00001
1.00001
1.00001
1.00001
1.00002
1.00002
1.00002
1.00002
1.00002
1.00002
1.00002
1.00002
1.00002
1.00002
1.00002
1.00001
1.00001
1.00001
1.00001
1
1
1
1
1
1
1
1
1
1
1
1
1
1
1
1
1
1
1
1
1
1
1
1
1
1
1
1
1
1
1
1
1
1
1
1
1
1
1
1
1
1
1
1
1
1
1
1
1
1
1
1
1
1
1
1
1
1
1
1
1.00001
1.00001
1.00001
1.00002
1.00002
1.00002
1.00002
1.00003
1.00002
1.00002
1.00002
1.00002
1.00002
1.00001
1.00001
1.00001
1.00001
1.00001
1.00001
1
1
1
1
1.00001
1.00001
1.00001
1.00001
1.00001
1.00002
1.00002
1.00002
1.00002
1.00002
1.00002
1.00002
1.00002
1.00002
1.00001
1.00001
1.00001
1.00001
1
1
1
1
1
1
1
1
1
1
1
1
1
1
1
1
1
1
1
1
1
1
1
1
1
1
1
1
1
1
1
1
1
1
1
1
1
1
1
1
1
1
1
1
1
1
1
1
1
1
1
1
1
1
1
1
1
1
1.00001
1.00001
1.00001
1.00002
1.00002
1.00002
1.00002
1.00003
1.00002
1.00002
1.00002
1.00002
1.00001
1.00001
1.00001
1.00001
1
1
0.999999
0.999997
0.999996
0.999996
0.999996
0.999997
0.999998
1
1
1
1.00001
1.00001
1.00002
1.00002
1.00002
1.00002
1.00002
1.00002
1.00002
1.00002
1.00002
1.00001
1.00001
1.00001
1
1
1
1
1
1
1
1
1
1
1
1
1
1
1
1
1
1
1
1
1
1
1
1
1
1
1
1
1
1
1
1
1
1
1
1
1
1
1
1
1
1
1
1
1
1
1
1
1
1
1
1
1
1
1
1
1
1.00001
1.00001
1.00001
1.00002
1.00002
1.00002
1.00003
1.00003
1.00002
1.00002
1.00002
1.00002
1.00001
1.00001
1
1
0.999998
0.999995
0.999993
0.999991
0.999989
0.999989
0.999988
0.999988
0.999989
0.99999
0.999992
0.999994
0.999997
1
1
1.00001
1.00001
1.00002
1.00002
1.00002
1.00002
1.00002
1.00002
1.00002
1.00001
1.00001
1.00001
1.00001
1
1
1
1
1
1
1
1
1
1
1
1
1
1
1
1
1
1
1
1
1
1
1
1
1
1
1
1
1
1
1
1
1
1
1
1
1
1
1
1
1
1
1
1
1
1
1
1
1
1
1
1
1
1
1
1
1.00001
1.00001
1.00002
1.00002
1.00002
1.00003
1.00003
1.00002
1.00002
1.00002
1.00001
1.00001
1.00001
1
0.999997
0.999994
0.999991
0.999988
0.999985
0.999983
0.999982
0.999981
0.999981
0.999981
0.999982
0.999983
0.999984
0.999987
0.999989
0.999993
0.999997
1
1.00001
1.00001
1.00002
1.00002
1.00002
1.00002
1.00002
1.00002
1.00002
1.00001
1.00001
1.00001
1.00001
1
1
1
1
1
1
1
1
1
1
1
1
1
1
1
1
1
1
1
1
1
1
1
1
1
1
1
1
1
1
1
1
1
1
1
1
1
1
1
1
1
1
1
1
1
1
1
1
1
1
1
1
1
1
1.00001
1.00001
1.00001
1.00002
1.00002
1.00002
1.00003
1.00002
1.00002
1.00002
1.00001
1.00001
1
0.999999
0.999995
0.999991
0.999987
0.999984
0.99998
0.999978
0.999975
0.999974
0.999973
0.999972
0.999973
0.999974
0.999976
0.999977
0.99998
0.999982
0.999986
0.99999
0.999995
1
1.00001
1.00001
1.00002
1.00002
1.00002
1.00002
1.00002
1.00002
1.00002
1.00001
1.00001
1.00001
1
1
1
1
1
1
1
1
1
1
1
1
1
1
1
1
1
1
1
1
1
1
1
1
1
1
1
1
1
1
1
1
1
1
1
1
1
1
1
1
1
1
1
1
1
1
1
1
1
1
1
1
1
1
1.00001
1.00001
1.00002
1.00002
1.00002
1.00003
1.00002
1.00002
1.00002
1.00001
1.00001
1
0.999998
0.999993
0.999989
0.999985
0.999981
0.999977
0.999973
0.999969
0.999965
0.999963
0.999962
0.999962
0.999963
0.999965
0.999967
0.99997
0.999973
0.999976
0.999979
0.999983
0.999987
0.999993
1
1.00001
1.00001
1.00002
1.00002
1.00002
1.00002
1.00002
1.00002
1.00001
1.00001
1.00001
1.00001
1
1
1
1
1
1
1
1
1
1
1
1
1
1
1
1
1
1
1
1
1
1
1
1
1
1
1
1
1
1
1
1
1
1
1
1
1
1
1
1
1
1
1
1
1
1
1
1
1
1
1
1
1.00001
1.00001
1.00002
1.00002
1.00002
1.00003
1.00002
1.00002
1.00002
1.00001
1.00001
1
0.999997
0.999992
0.999988
0.999984
0.99998
0.999975
0.999969
0.999962
0.999955
0.99995
0.999945
0.999943
0.999944
0.999946
0.99995
0.999955
0.999959
0.999964
0.999968
0.999972
0.999976
0.999981
0.999986
0.999993
1
1.00001
1.00001
1.00002
1.00002
1.00002
1.00002
1.00002
1.00002
1.00001
1.00001
1.00001
1
1
1
1
1
1
1
1
1
1
1
1
1
1
1
1
1
1
1
1
1
1
1
1
1
1
1
1
1
1
1
1
1
1
1
1
1
1
1
1
1
1
1
1
1
1
1
1
1
1
1
1
1.00001
1.00001
1.00002
1.00002
1.00003
1.00003
1.00002
1.00002
1.00001
1.00001
1
0.999996
0.999992
0.999988
0.999984
0.99998
0.999975
0.999967
0.999957
0.999945
0.999932
0.99992
0.999912
0.999908
0.999909
0.999914
0.999923
0.999932
0.999942
0.99995
0.999958
0.999964
0.999969
0.999974
0.99998
0.999986
0.999994
1
1.00001
1.00002
1.00002
1.00002
1.00002
1.00002
1.00002
1.00001
1.00001
1.00001
1.00001
1
1
1
1
1
1
1
1
1
1
1
1
1
1
1
1
1
1
1
1
1
1
1
1
1
1
1
1
1
1
1
1
1
1
1
1
1
1
1
1
1
1
1
1
1
1
1
1
1
1
1.00001
1.00001
1.00002
1.00002
1.00002
1.00003
1.00002
1.00002
1.00002
1.00001
1
0.999997
0.999992
0.999988
0.999985
0.999982
0.999977
0.999969
0.999955
0.999936
0.999912
0.999887
0.999863
0.999845
0.999837
0.99984
0.999851
0.999869
0.999889
0.999909
0.999926
0.99994
0.999951
0.999959
0.999966
0.999973
0.99998
0.999988
0.999996
1
1.00001
1.00002
1.00002
1.00002
1.00002
1.00002
1.00002
1.00001
1.00001
1.00001
1
1
1
1
1
1
1
1
1
1
1
1
1
1
1
1
1
1
1
1
1
1
1
1
1
1
1
1
1
1
1
1
1
1
1
1
1
1
1
1
1
1
1
1
1
1
1
1
1
1
1.00001
1.00001
1.00002
1.00002
1.00003
1.00002
1.00002
1.00002
1.00001
1
0.999997
0.999992
0.999989
0.999987
0.999985
0.999981
0.999974
0.999959
0.999933
0.999896
0.999849
0.999798
0.99975
0.999715
0.999698
0.999702
0.999725
0.999761
0.999803
0.999844
0.999879
0.999908
0.999929
0.999945
0.999956
0.999965
0.999973
0.999981
0.99999
0.999999
1.00001
1.00001
1.00002
1.00002
1.00002
1.00002
1.00002
1.00001
1.00001
1.00001
1.00001
1
1
1
1
1
1
1
1
1
1
1
1
1
1
1
1
1
1
1
1
1
1
1
1
1
1
1
1
1
1
1
1
1
1
1
1
1
1
1
1
1
1
1
1
1
1
1
1
1.00001
1.00001
1.00002
1.00002
1.00002
1.00003
1.00002
1.00002
1.00001
1.00001
0.999999
0.999993
0.999989
0.999987
0.999987
0.999986
0.999982
0.999968
0.99994
0.999891
0.99982
0.999729
0.999628
0.999534
0.999463
0.999429
0.999436
0.999481
0.999552
0.999636
0.999718
0.99979
0.999848
0.99989
0.999919
0.99994
0.999954
0.999965
0.999974
0.999984
0.999993
1
1.00001
1.00002
1.00002
1.00002
1.00002
1.00002
1.00002
1.00001
1.00001
1.00001
1
1
1
1
1
1
1
1
1
1
1
1
1
1
1
1
1
1
1
1
1
1
1
1
1
1
1
1
1
1
1
1
1
1
1
1
1
1
1
1
1
1
1
1
1
1
1
1
1.00001
1.00001
1.00002
1.00002
1.00003
1.00002
1.00002
1.00002
1.00001
1
0.999994
0.999988
0.999986
0.999987
0.99999
0.999991
0.999982
0.999957
0.999903
0.99981
0.999675
0.999503
0.999313
0.999134
0.998998
0.99893
0.998941
0.999025
0.999161
0.999322
0.999483
0.999624
0.999736
0.999818
0.999874
0.999912
0.999936
0.999953
0.999966
0.999977
0.999987
0.999997
1.00001
1.00001
1.00002
1.00002
1.00002
1.00002
1.00002
1.00001
1.00001
1.00001
1
1
1
1
1
1
1
1
1
1
1
1
1
1
1
1
1
1
1
1
1
1
1
1
1
1
1
1
1
1
1
1
1
1
1
1
1
1
1
1
1
1
1
1
1
1
1
1
1.00001
1.00001
1.00002
1.00002
1.00002
1.00002
1.00002
1.00001
1.00001
0.999997
0.999989
0.999985
0.999986
0.999991
0.999998
0.999998
0.999981
0.999932
0.999831
0.999661
0.999412
0.999096
0.998747
0.998418
0.998167
0.99804
0.998058
0.998209
0.998459
0.998758
0.999057
0.999322
0.999533
0.999689
0.999795
0.999864
0.999908
0.999936
0.999955
0.999969
0.999981
0.999992
1
1.00001
1.00002
1.00002
1.00002
1.00002
1.00002
1.00002
1.00001
1.00001
1.00001
1
1
1
1
1
1
1
1
1
1
1
1
1
1
1
1
1
1
1
1
1
1
1
1
1
1
1
1
1
1
1
1
1
1
1
1
1
1
1
1
1
1
1
1
1
1
1.00001
1.00001
1.00002
1.00002
1.00002
1.00002
1.00002
1.00002
1.00001
1
0.999992
0.999984
0.999981
0.999988
1
1.00001
1.00001
0.999974
0.999882
0.9997
0.999394
0.99895
0.998388
0.99777
0.997189
0.996747
0.996521
0.996549
0.996813
0.997253
0.997783
0.998319
0.998797
0.99918
0.999464
0.999658
0.999784
0.999862
0.999909
0.999939
0.999958
0.999973
0.999986
0.999998
1.00001
1.00002
1.00002
1.00002
1.00002
1.00002
1.00002
1.00001
1.00001
1.00001
1
1
1
1
1
1
1
1
1
1
1
1
1
1
1
1
1
1
1
1
1
1
1
1
1
1
1
1
1
1
1
1
1
1
1
1
1
1
1
1
1
1
1
1
1
1
1.00001
1.00001
1.00002
1.00002
1.00002
1.00002
1.00002
1.00001
1.00001
0.999999
0.999986
0.999977
0.999979
0.999994
1.00001
1.00003
1.00002
0.999953
0.999789
0.999468
0.998935
0.998168
0.997205
0.996155
0.995173
0.994425
0.994043
0.994086
0.994528
0.995273
0.996177
0.997097
0.997922
0.99859
0.999087
0.999429
0.99965
0.999786
0.999867
0.999914
0.999944
0.999964
0.999979
0.999992
1
1.00001
1.00002
1.00002
1.00002
1.00002
1.00002
1.00001
1.00001
1.00001
1
1
1
1
1
1
1
1
1
1
1
1
1
1
1
1
1
1
1
1
1
1
1
1
1
1
1
1
1
1
1
1
1
1
1
1
1
1
1
1
1
1
1
1
1
1.00001
1.00001
1.00001
1.00002
1.00002
1.00002
1.00002
1.00002
1.00001
1.00001
0.999994
0.999978
0.99997
0.999979
1.00001
1.00004
1.00005
1.00003
0.999907
0.999623
0.999077
0.998179
0.996902
0.995316
0.993601
0.992008
0.990797
0.990173
0.990234
0.990946
0.992156
0.993637
0.995155
0.996526
0.997645
0.99848
0.999059
0.999434
0.999664
0.9998
0.999878
0.999924
0.999952
0.999972
0.999987
0.999999
1.00001
1.00002
1.00002
1.00002
1.00002
1.00002
1.00001
1.00001
1.00001
1.00001
1
1
1
1
1
1
1
1
1
1
1
1
1
1
1
1
1
1
1
1
1
1
1
1
1
1
1
1
1
1
1
1
1
1
1
1
1
1
1
1
1
1
1
1
1.00001
1.00001
1.00001
1.00002
1.00003
1.00002
1.00002
1.00002
1.00002
1.00001
0.999988
0.999967
0.999961
0.999982
1.00003
1.00007
1.00009
1.00003
0.999822
0.999347
0.998447
0.996988
0.994942
0.992433
0.989744
0.987256
0.985359
0.984368
0.984443
0.985544
0.987441
0.989781
0.992195
0.994389
0.99619
0.997544
0.998486
0.9991
0.999477
0.999697
0.999823
0.999894
0.999935
0.999962
0.99998
0.999995
1.00001
1.00001
1.00002
1.00002
1.00002
1.00002
1.00002
1.00001
1.00001
1.00001
1
1
1
1
1
1
1
1
1
1
1
1
1
1
1
1
1
1
1
1
1
1
1
1
1
1
1
1
1
1
1
1
1
1
1
1
1
1
1
1
1
1
1
1
1.00001
1.00001
1.00002
1.00002
1.00003
1.00002
1.00001
1.00001
1.00002
1.00001
0.999979
0.999952
0.999951
0.999991
1.00006
1.00012
1.00013
1.00002
0.999676
0.99891
0.997479
0.9952
0.992051
0.988236
0.984169
0.980403
0.977516
0.975983
0.97606
0.977708
0.980585
0.984158
0.987864
0.991248
0.994041
0.996154
0.997634
0.998602
0.999197
0.999546
0.999743
0.999852
0.999913
0.999949
0.999972
0.999989
1
1.00001
1.00002
1.00002
1.00002
1.00002
1.00002
1.00001
1.00001
1.00001
1
1
1
1
1
1
1
1
1
1
1
1
1
1
1
1
1
1
1
1
1
1
1
1
1
1
1
1
1
1
1
1
1
1
1
1
1
1
1
1
1
1
1
1
1.00001
1.00001
1.00002
1.00003
1.00003
1.00002
1.00001
1.00002
1.00002
1.00001
0.999966
0.999931
0.999941
1.00001
1.0001
1.00018
1.00017
0.999986
0.999447
0.998253
0.996066
0.992648
0.987994
0.982396
0.976435
0.970896
0.966623
0.96433
0.964414
0.966824
0.971063
0.976338
0.981818
0.986841
0.991007
0.99418
0.996417
0.997888
0.998797
0.999329
0.999629
0.999793
0.999882
0.999933
0.999963
0.999984
0.999998
1.00001
1.00002
1.00002
1.00002
1.00002
1.00002
1.00001
1.00001
1.00001
1.00001
1
1
1
1
1
1
1
1
1
1
1
1
1
1
1
1
1
1
1
1
1
1
1
1
1
1
1
1
1
1
1
1
1
1
1
1
1
1
1
1
1
1
1.00001
1.00001
1.00001
1.00002
1.00003
1.00003
1.00001
1
1.00002
1.00003
1.00001
0.999947
0.999905
0.999932
1.00003
1.00016
1.00025
1.00022
0.999929
0.999109
0.997321
0.994114
0.989196
0.982573
0.974622
0.96613
0.95822
0.952116
0.948841
0.94897
0.95244
0.958519
0.96605
0.973849
0.980997
0.98695
0.991514
0.994758
0.996909
0.998245
0.999031
0.999473
0.999713
0.999841
0.999911
0.999952
0.999977
0.999994
1.00001
1.00001
1.00002
1.00002
1.00002
1.00002
1.00001
1.00001
1.00001
1.00001
1
1
1
1
1
1
1
1
1
1
1
1
1
1
1
1
1
1
1
1
1
1
1
1
1
1
1
1
1
1
1
1
1
1
1
1
1
1
1
1
1
1
1.00001
1.00001
1.00001
1.00002
1.00004
1.00003
0.999998
0.999997
1.00003
1.00005
1.00001
0.99992
0.999871
0.999924
1.00007
1.00024
1.00034
1.00027
0.999845
0.99864
0.99607
0.991571
0.984783
0.975677
0.964711
0.952979
0.94209
0.933711
0.929202
0.929406
0.934303
0.942832
0.953289
0.963998
0.973747
0.981866
0.98813
0.992624
0.995634
0.997522
0.998639
0.999267
0.999608
0.999789
0.999885
0.999938
0.999969
0.99999
1
1.00001
1.00002
1.00002
1.00002
1.00002
1.00001
1.00001
1.00001
1.00001
1
1
1
1
1
1
1
1
1
1
1
1
1
1
1
1
1
1
1
1
1
1
1
1
1
1
1
1
1
1
1
1
1
1
1
1
1
0.999999
1
1
0.999999
1
1.00001
1.00001
1
1.00002
1.00005
1.00003
0.999985
0.999991
1.00005
1.00007
1
0.999886
0.99983
0.999919
1.00012
1.00033
1.00044
1.00034
0.999732
0.998032
0.994502
0.988467
0.979453
0.967326
0.952662
0.93705
0.922663
0.911487
0.905236
0.905344
0.912067
0.923875
0.938171
0.952523
0.965359
0.975955
0.984138
0.990063
0.994078
0.996627
0.998149
0.99901
0.999477
0.999723
0.999852
0.999921
0.99996
0.999985
1
1.00001
1.00002
1.00002
1.00002
1.00002
1.00002
1.00001
1.00001
1.00001
1
1
1
1
1
1
1
1
1
1
1
1
1
1
1
1
1
1
1
1
1
1
1
1
1
1
1
1
1
1
1
1
1
1
0.999999
1
1
0.999998
1
1
0.999997
0.999999
1.00002
1.00001
0.999996
1.00002
1.00006
1.00002
0.999967
0.999984
1.00006
1.00009
0.999996
0.999842
0.999783
0.999915
1.00018
1.00043
1.00056
1.00043
0.999595
0.9973
0.992677
0.984935
0.973388
0.957737
0.938834
0.918947
0.900594
0.885684
0.87651
0.875916
0.884881
0.901132
0.92061
0.93967
0.956222
0.969581
0.979803
0.987228
0.992317
0.995593
0.997573
0.998705
0.999321
0.999645
0.999814
0.999902
0.999951
0.999979
0.999997
1.00001
1.00002
1.00002
1.00002
1.00002
1.00002
1.00001
1.00001
1.00001
1
1
1
1
1
1
1
1
1
1
1
1
1
1
1
1
1
1
1
1
1
1
1
1
1
1
1
1
1
1
1
1
1
1
0.999999
1
1
0.999997
1
1.00001
0.999994
0.999997
1.00002
1.00001
0.999987
1.00003
1.00007
1.00002
0.999945
0.999975
1.00009
1.00012
0.99999
0.99979
0.999727
0.99991
1.00024
1.00054
1.00071
1.00055
0.999448
0.996492
0.990731
0.981213
0.966918
0.947405
0.924059
0.899809
0.876869
0.856577
0.842554
0.840345
0.85202
0.874099
0.900408
0.925558
0.946679
0.963157
0.975478
0.984366
0.990497
0.994495
0.996949
0.998368
0.999147
0.999558
0.999771
0.999881
0.99994
0.999974
0.999994
1.00001
1.00002
1.00002
1.00002
1.00002
1.00002
1.00001
1.00001
1.00001
1
1
1
1
1
1
1
1
1
1
1
1
1
1
1
1
1
1
1
1
1
1
1
1
1
1
1
1
1
1
1
1
1
1
0.999999
1
1
0.999995
1
1.00001
0.999991
0.999995
1.00003
1.00001
0.999976
1.00003
1.00009
1.00002
0.99992
0.999963
1.00011
1.00016
0.999988
0.999734
0.999664
0.999899
1.00029
1.00066
1.0009
1.00072
0.999317
0.995693
0.988859
0.977624
0.960527
0.937127
0.90958
0.881144
0.852853
0.825377
0.80491
0.800588
0.815359
0.844138
0.878375
0.91067
0.93712
0.957072
0.971526
0.981762
0.988806
0.993445
0.996334
0.998028
0.998968
0.999468
0.999727
0.999859
0.999929
0.999968
0.999991
1.00001
1.00001
1.00002
1.00002
1.00002
1.00002
1.00001
1.00001
1.00001
1
1
1
1
1
1
1
1
1
1
1
1
1
1
1
1
1
1
1
1
1
1
1
1
1
1
1
1
1
1
1
1
1
1
0.999998
1
1
0.999993
1
1.00002
0.999987
0.99999
1.00004
1.00001
0.999963
1.00003
1.00011
1.00002
0.999893
0.999943
1.00014
1.00021
0.999996
0.999678
0.999594
0.999873
1.00033
1.00077
1.00112
1.00093
0.999239
0.995013
0.987286
0.974542
0.954825
0.92791
0.896828
0.864673
0.830823
0.795975
0.769692
0.763874
0.781507
0.816174
0.857588
0.896669
0.928387
0.951808
0.968293
0.979684
0.987441
0.992567
0.995798
0.997721
0.998803
0.999383
0.999684
0.999839
0.999919
0.999963
0.999989
1
1.00001
1.00002
1.00002
1.00002
1.00002
1.00001
1.00001
1.00001
1
1
1
1
1
1
1
1
1
1
1
1
1
1
1
1
1
1
1
1
1
1
1
1
1
1
1
1
1
1
1
1
1
1
0.999997
1
1.00001
0.99999
1
1.00002
0.999984
0.999983
1.00005
1.00002
0.999949
1.00002
1.00013
1.00003
0.999868
0.999912
1.00016
1.00026
1.00002
0.99963
0.999516
0.999822
1.00033
1.00088
1.00139
1.00122
0.999258
0.994561
0.986221
0.972335
0.950466
0.920781
0.88715
0.852195
0.814074
0.774691
0.746073
0.740285
0.759448
0.796987
0.842504
0.886145
0.921831
0.948029
0.966131
0.97836
0.986563
0.991973
0.995413
0.997488
0.998672
0.999314
0.999649
0.999821
0.99991
0.999959
0.999986
1
1.00001
1.00002
1.00002
1.00002
1.00002
1.00001
1.00001
1.00001
1
1
1
1
1
1
1
1
1
1
1
1
1
1
1
1
1
1
1
1
1
1
1
1
1
1
1
1
1
0.999999
1
1
0.999999
1
0.999996
0.999999
1.00001
0.999988
0.999996
1.00003
0.999983
0.999972
1.00006
1.00003
0.999934
1.00001
1.00015
1.00006
0.999847
0.999867
1.00016
1.00033
1.00007
0.999599
0.999432
0.999742
1.00028
1.00096
1.00167
1.00158
0.999422
0.994421
0.985811
0.971298
0.948016
0.916587
0.881572
0.845189
0.80556
0.766393
0.739963
0.735718
0.754279
0.790442
0.835795
0.880834
0.918492
0.946297
0.965329
0.977952
0.986282
0.991742
0.995231
0.997361
0.998593
0.999269
0.999625
0.999809
0.999904
0.999955
0.999985
1
1.00001
1.00002
1.00002
1.00002
1.00002
1.00001
1.00001
1.00001
1
1
1
1
1
1
1
1
1
1
1
1
1
1
1
1
1
1
1
1
1
1
1
1
1
1
1
1
1
0.999999
1
1
0.999998
1
0.999996
0.999997
1.00001
0.999988
0.999988
1.00004
0.999988
0.999957
1.00006
1.00005
0.999924
0.999985
1.00016
1.0001
0.999841
0.999811
1.00013
1.00039
1.00016
0.999601
0.99935
0.999629
1.00018
1.00099
1.00196
1.00202
0.999766
0.994642
0.986117
0.97158
0.94782
0.915832
0.880606
0.844322
0.806074
0.770993
0.749797
0.747763
0.763711
0.794994
0.836722
0.880519
0.918379
0.94667
0.965929
0.978488
0.986623
0.991903
0.99528
0.997361
0.998579
0.999256
0.999617
0.999804
0.999902
0.999954
0.999984
1
1.00001
1.00002
1.00002
1.00002
1.00002
1.00001
1.00001
1.00001
1
1
1
1
1
1
1
1
1
1
1
1
1
1
1
1
1
1
1
1
1
1
1
1
1
1
1
1
1
0.999999
1
1
0.999997
1
0.999998
0.999992
1.00002
0.999992
0.999979
1.00004
1
0.99994
1.00005
1.00008
0.999925
0.999947
1.00016
1.00015
0.999858
0.999749
1.00006
1.00043
1.00028
0.999651
0.999282
0.99949
1.00001
1.00093
1.0022
1.00254
1.00031
0.995238
0.987108
0.973151
0.949939
0.918586
0.884195
0.849254
0.814005
0.784359
0.768916
0.76874
0.781186
0.806505
0.843321
0.884406
0.921118
0.948899
0.967748
0.979845
0.987518
0.992424
0.99555
0.997487
0.998634
0.999278
0.999625
0.999807
0.999903
0.999954
0.999984
1
1.00001
1.00002
1.00002
1.00002
1.00002
1.00001
1.00001
1.00001
1
1
1
1
1
1
1
1
1
1
1
1
1
1
1
1
1
1
1
1
1
1
1
1
1
1
1
1
1
0.999999
1
1
0.999996
1
1
0.999987
1.00002
1
0.999967
1.00004
1.00002
0.999928
1.00003
1.00011
0.999945
0.999904
1.00014
1.0002
0.99991
0.999698
0.999953
1.00043
1.00042
0.999767
0.999253
0.999344
0.999769
1.00073
1.00234
1.00308
1.00107
0.996203
0.988668
0.975812
0.954135
0.924526
0.891911
0.859046
0.826984
0.802114
0.791029
0.791773
0.801274
0.821972
0.854522
0.892356
0.926758
0.952932
0.970632
0.981854
0.988839
0.993227
0.996
0.997722
0.998749
0.999333
0.99965
0.999819
0.999908
0.999956
0.999985
1
1.00001
1.00002
1.00002
1.00002
1.00002
1.00001
1.00001
1.00001
1
1
1
1
1
1
1
1
1
1
1
1
1
1
1
1
1
1
1
1
1
1
1
1
1
1
1
1
1
0.999999
1
1
0.999996
1
1.00001
0.999984
1.00001
1.00001
0.999959
1.00002
1.00005
0.999927
0.999991
1.00013
0.999987
0.999866
1.00008
1.00024
1
0.999682
0.99981
1.00036
1.00056
0.99996
0.999295
0.999214
0.999482
1.0004
1.0023
1.00357
1.002
0.997522
0.990653
0.979247
0.959881
0.933014
0.90314
0.872779
0.843582
0.822173
0.813391
0.814083
0.821804
0.839867
0.869255
0.903713
0.934984
0.958613
0.974444
0.984364
0.990449
0.994214
0.996571
0.998033
0.99891
0.999412
0.999688
0.999836
0.999916
0.99996
0.999987
1
1.00001
1.00002
1.00002
1.00002
1.00002
1.00001
1.00001
1.00001
1
1
1
1
1
1
1
1
1
1
1
1
1
1
1
1
1
1
1
1
1
1
1
1
1
1
1
1
1
1
0.999999
1
0.999996
0.999999
1.00001
0.999984
1
1.00003
0.999961
0.999998
1.00007
0.999948
0.999945
1.00013
1.00005
0.999854
1
1.00025
1.00012
0.999728
0.999668
1.0002
1.00064
1.00022
0.999445
0.99913
0.999186
0.99995
1.00199
1.00384
1.00304
0.999154
0.992972
0.983112
0.966404
0.94308
0.916868
0.889536
0.863211
0.844201
0.836103
0.836117
0.842841
0.859377
0.886063
0.916931
0.944593
0.965204
0.978787
0.987153
0.992201
0.995285
0.997199
0.998383
0.999096
0.999507
0.999735
0.999859
0.999927
0.999965
0.999989
1
1.00001
1.00002
1.00002
1.00002
1.00002
1.00001
1.00001
1.00001
1
1
1
1
1
1
1
1
1
1
1
1
1
1
1
1
1
1
1
1
1
1
1
1
1
1
1
1
1
1
0.999998
1
0.999999
0.999994
1.00001
0.999991
0.999987
1.00004
0.999977
0.999967
1.00007
0.99999
0.999907
1.00009
1.00011
0.999884
0.999915
1.0002
1.00022
0.999849
0.999582
0.999957
1.0006
1.00051
0.999732
0.999132
0.998934
0.999459
1.0014
1.00375
1.00396
1.00099
0.995664
0.987185
0.973001
0.953556
0.931557
0.90795
0.884863
0.867773
0.859716
0.858923
0.864965
0.880304
0.90429
0.931194
0.954753
0.971996
0.98317
0.989925
0.993928
0.996338
0.99782
0.998735
0.999286
0.999606
0.999784
0.999883
0.999939
0.999971
0.999992
1.00001
1.00001
1.00002
1.00002
1.00002
1.00002
1.00001
1.00001
1.00001
1
1
1
1
1
1
1
1
1
1
1
1
1
1
1
1
1
1
1
1
1
1
1
1
1
1
1
1
1
1
0.999998
1
1
0.999992
1.00001
1
0.999976
1.00003
1
0.999945
1.00005
1.00004
0.999899
1.00002
1.00015
0.999959
0.999852
1.0001
1.00028
1.00002
0.999602
0.9997
1.00038
1.00072
1.00014
0.999283
0.99879
0.999019
1.00063
1.00316
1.00438
1.0028
0.998733
0.991428
0.979368
0.963529
0.945784
0.926362
0.906801
0.891683
0.883817
0.882456
0.888001
0.902229
0.923471
0.946178
0.965253
0.97878
0.987367
0.992492
0.995498
0.99729
0.998385
0.999058
0.999463
0.999699
0.999832
0.999907
0.99995
0.999977
0.999995
1.00001
1.00001
1.00002
1.00002
1.00002
1.00001
1.00001
1.00001
1.00001
1
1
1
1
1
1
1
1
1
1
1
1
1
1
1
1
1
1
1
1
1
1
1
1
1
1
1
1
0.999999
1
1
0.999998
1.00001
0.999993
1
1.00001
0.999974
1.00001
1.00003
0.999945
1.00001
1.00008
0.999933
0.99995
1.00014
1.00006
0.999849
0.999967
1.00026
1.0002
0.999743
0.999532
1.00005
1.00072
1.00054
0.999634
0.998835
0.998724
0.999834
1.00208
1.00402
1.00422
1.00186
0.99577
0.985515
0.972732
0.958872
0.943504
0.9275
0.914637
0.907373
0.905843
0.911117
0.924128
0.942312
0.960632
0.975242
0.985135
0.9912
0.994759
0.996845
0.998094
0.99886
0.999331
0.999614
0.99978
0.999874
0.999928
0.999961
0.999983
0.999998
1.00001
1.00002
1.00002
1.00002
1.00002
1.00001
1.00001
1.00001
1.00001
1
1
1
1
1
1
1
1
1
1
1
1
1
1
1
1
1
0.999999
1
1
1
1
1
1
1
1
1
1
0.999999
1
1
0.999997
1
0.999998
0.999993
1.00002
0.999986
0.999987
1.00004
0.999972
0.999965
1.00008
0.999998
0.999906
1.00008
1.00014
0.999917
0.999865
1.00015
1.00029
0.999952
0.999537
0.999745
1.00046
1.00074
1.00012
0.999178
0.998681
0.999112
1.00069
1.00302
1.00487
1.00432
0.999749
0.991375
0.981305
0.97075
0.958932
0.946353
0.935849
0.92947
0.928258
0.933513
0.944975
0.959518
0.973175
0.983553
0.99031
0.994305
0.99659
0.997923
0.998733
0.999236
0.999547
0.999735
0.999844
0.999908
0.999946
0.999971
0.999988
1
1.00001
1.00002
1.00002
1.00002
1.00002
1.00001
1.00001
1.00001
1.00001
1
1
1
1
1
1
1
1
1
1
1
1
1
1
1
1
1
1
1
1
1
1
1
1
1
1
1
1
1
1
1
0.999997
1
1
0.99999
1.00001
1
0.999976
1.00003
1.00001
0.999947
1.00004
1.00006
0.99992
0.999992
1.00015
1.00002
0.999847
1.00001
1.00027
1.00013
0.999716
0.999615
1.00007
1.00059
1.00052
0.999819
0.998955
0.998558
0.999415
1.00181
1.00459
1.00545
1.0026
0.996417
0.989004
0.981382
0.972732
0.963182
0.954698
0.949423
0.949044
0.954242
0.963587
0.974101
0.983209
0.989814
0.994028
0.996494
0.997891
0.998703
0.9992
0.999512
0.999706
0.999823
0.999892
0.999934
0.99996
0.999978
0.999993
1
1.00001
1.00002
1.00002
1.00002
1.00002
1.00001
1.00001
1.00001
1
1
1
1
1
1
1
1
1
1
1
1
1
1
1
1
1
1
1
1
1
1
1
1
1
1
1
1
1
1
1
1
0.999999
0.999998
1.00001
0.999995
0.999998
1.00001
0.999983
0.999998
1.00003
0.999966
0.999986
1.00007
0.99998
0.999939
1.00009
1.0001
0.999921
0.999923
1.00013
1.00019
0.999966
0.999711
0.999766
1.00018
1.00059
1.00042
0.999482
0.998511
0.998727
1.00069
1.00347
1.00501
1.00364
0.999748
0.995206
0.990596
0.984701
0.977304
0.970472
0.966778
0.967429
0.971882
0.978405
0.985031
0.990422
0.994176
0.996531
0.997925
0.998735
0.999216
0.999514
0.9997
0.999816
0.999885
0.999926
0.999952
0.99997
0.999985
0.999997
1.00001
1.00001
1.00002
1.00002
1.00002
1.00002
1.00001
1.00001
1.00001
1
1
1
1
1
1
1
1
1
1
1
1
1
1
1
1
1
1
1
1
1
1
1
1
1
1
1
1
1
1
1
1
1
0.999997
1
1
0.999992
1.00001
1
0.999982
1.00002
1
0.999962
1.00003
1.00004
0.999953
1
1.0001
1.00003
0.999925
0.999982
1.00013
1.00014
0.999919
0.999701
0.99985
1.00032
1.00053
1.00003
0.999173
0.998914
0.999905
1.00174
1.00298
1.00255
1.00111
0.999847
0.997967
0.993705
0.98771
0.982907
0.981165
0.982162
0.984857
0.988393
0.99197
0.994895
0.996898
0.99812
0.99884
0.999273
0.999542
0.999713
0.99982
0.999886
0.999924
0.999948
0.999964
0.999978
0.99999
1
1.00001
1.00002
1.00002
1.00002
1.00002
1.00002
1.00001
1.00001
1.00001
1
1
1
1
1
1
1
1
1
1
1
1
1
1
1
1
1
1
1
1
1
1
1
1
1
1
1
1
1
1
1
0.999999
1
0.999999
0.999999
1
0.999995
0.999999
1.00001
0.999986
0.999998
1.00002
0.999979
0.999985
1.00005
1.00001
0.999961
1.00004
1.00009
0.999994
0.999922
1.00002
1.00015
1.00007
0.999861
0.999782
0.999943
1.0002
1.00031
1.00009
0.999714
0.999589
0.999808
1.00008
1.00054
1.00173
1.00293
1.00199
0.998296
0.994251
0.992062
0.991489
0.991603
0.99237
0.993921
0.995802
0.997398
0.998455
0.999061
0.999403
0.999611
0.999747
0.999837
0.999894
0.999928
0.999949
0.999962
0.999973
0.999983
0.999994
1
1.00001
1.00002
1.00002
1.00002
1.00002
1.00001
1.00001
1.00001
1.00001
1
1
1
1
1
1
1
1
1
1
1
1
1
1
1
1
1
1
1
1
1
1
1
1
1
1
1
1
1
1
1
1
1
1
0.999998
1
1
0.999993
1.00001
1
0.999985
1.00001
1.00001
0.999974
1.00002
1.00004
0.999982
0.999996
1.00007
1.00005
0.999968
0.999967
1.00005
1.0001
1.00004
0.999888
0.999768
0.999897
1.00026
1.00051
1.00027
0.999494
0.998672
0.99869
1.00013
1.00223
1.00297
1.0014
0.999127
0.997908
0.997327
0.996381
0.99551
0.995637
0.996689
0.997917
0.99881
0.999315
0.999575
0.999716
0.999805
0.999867
0.999909
0.999937
0.999953
0.999963
0.999971
0.999979
0.999988
0.999997
1.00001
1.00001
1.00002
1.00002
1.00002
1.00002
1.00001
1.00001
1.00001
1.00001
1
1
1
1
1
1
1
1
1
1
1
1
1
1
1
1
1
1
1
1
1
1
1
1
1
1
1
1
1
1
1
1
0.999999
1
1
0.999998
1
0.999998
0.999997
1.00001
0.999994
0.999995
1.00002
0.999996
0.999988
1.00002
1.00002
0.999995
1.00002
1.00006
1.00004
0.999981
0.999975
1.00004
1.00007
0.999989
0.999883
0.999906
1.00007
1.0002
1.00003
0.999574
0.999397
0.999973
1.00088
1.001
1.00003
0.999142
0.999204
0.999289
0.998334
0.997017
0.99666
0.997416
0.998478
0.999225
0.999587
0.999737
0.999811
0.999861
0.9999
0.999929
0.999948
0.999959
0.999966
0.999971
0.999976
0.999984
0.999992
1
1.00001
1.00002
1.00002
1.00002
1.00002
1.00002
1.00001
1.00001
1.00001
1
1
1
1
1
1
1
1
1
1
1
1
1
1
1
1
1
1
1
1
1
1
1
1
1
1
1
1
1
1
1
0.999999
1
1
0.999999
1
0.999998
1
1
0.999995
1
1.00001
0.99999
1
1.00001
0.999991
0.999997
1.00003
1.00002
0.999997
1.00003
1.00005
1.00003
0.999991
0.999983
0.999997
1.00003
1.00006
1.00003
0.999905
0.999733
0.999735
1.00013
1.00073
1.00086
1.0001
0.998992
0.998659
0.999265
0.999583
0.998764
0.997641
0.997462
0.998266
0.999216
0.999753
0.999904
0.999901
0.999889
0.9999
0.999922
0.999943
0.999958
0.999966
0.99997
0.999973
0.999976
0.999981
0.999988
0.999996
1
1.00001
1.00002
1.00002
1.00002
1.00002
1.00001
1.00001
1.00001
1.00001
1
1
1
1
1
1
1
1
1
1
1
1
1
1
1
1
1
1
1
1
1
1
1
1
1
1
1
1
1
1
1
1
1
1
0.999999
1
1
0.999998
1
1
0.999997
1
1
0.999994
1.00001
1.00001
0.999995
1.00001
1.00003
1.00002
1.00001
1.00003
1.00004
1.00002
0.999979
0.999977
1.00003
1.00007
1
0.999836
0.999794
1.00007
1.00044
1.00037
0.999763
0.999261
0.999512
1.00016
1.00017
0.999291
0.998499
0.998637
0.999427
1.00008
1.00026
1.00015
1.00001
0.999943
0.999934
0.999945
0.999957
0.999966
0.999972
0.999974
0.999976
0.999977
0.99998
0.999985
0.999992
1
1.00001
1.00001
1.00002
1.00002
1.00002
1.00002
1.00001
1.00001
1.00001
1.00001
1
1
1
1
1
1
1
1
1
1
1
1
1
1
1
1
1
1
1
1
1
1
1
1
1
1
1
1
1
1
1
1
0.999999
1
1
0.999999
1
1
0.999999
1
0.999999
0.999998
1
0.999999
0.999996
1.00001
1.00001
0.999998
1.00001
1.00003
1.00002
1.00002
1.00003
1.00002
1.00002
1.00002
1.00001
0.999968
0.999921
0.999984
1.00017
1.0002
0.999877
0.999467
0.999541
1.00018
1.00069
1.00043
0.999696
0.999366
0.999757
1.00035
1.00057
1.00039
1.00012
0.999958
0.999921
0.999938
0.99996
0.999973
0.999977
0.999979
0.999979
0.999978
0.999978
0.999979
0.999983
0.999988
0.999996
1
1.00001
1.00002
1.00002
1.00002
1.00002
1.00002
1.00001
1.00001
1.00001
1
1
1
1
1
1
1
1
1
1
1
1
1
1
1
1
1
1
1
1
1
1
1
1
1
1
1
1
1
1
1
1
1
1
1
1
1
1
1
0.999999
1
1
0.999998