/*--------------------------------*- C++ -*----------------------------------*\
  =========                 |
  \\      /  F ield         | OpenFOAM: The Open Source CFD Toolbox
   \\    /   O peration     | Website:  https://openfoam.org
    \\  /    A nd           | Version:  6
     \\/     M anipulation  |
\*---------------------------------------------------------------------------*/
FoamFile
{
    version     2.0;
    format      ascii;
    class       volScalarField;
    location    "2.36";
    object      epsilon;
}
// * * * * * * * * * * * * * * * * * * * * * * * * * * * * * * * * * * * * * //

dimensions      [0 2 -3 0 0 0 0];

internalField   nonuniform List<scalar> 
4214
(
0.207002
0.0767875
0.0330794
0.017937
0.0128136
0.0114536
0.0118451
0.0136928
0.0177228
0.0256797
0.0406551
0.0673596
0.111967
0.18088
0.278796
0.407462
0.568274
0.772799
1.05678
1.47036
1.89522
2.2256
3.46405
2.60978
1.29449
0.610348
0.310622
0.165537
0.0900262
0.0502833
0.0297225
0.0192866
0.0140924
0.0115763
0.0105091
0.0104685
0.0118575
0.0166125
0.0306448
0.0715102
0.19392
0.043961
0.0224396
0.0144955
0.0117283
0.0110234
0.0113447
0.0125878
0.0152781
0.0207126
0.0313052
0.051135
0.0862067
0.143994
0.231656
0.353543
0.510237
0.703612
0.948237
1.283
1.74006
2.15083
2.47623
3.85831
2.97304
1.49343
0.703387
0.358482
0.192373
0.105272
0.0587928
0.0344075
0.0218762
0.0155605
0.0124196
0.0109103
0.0102645
0.0102135
0.01094
0.0133985
0.0203514
0.0392436
0.0128502
0.011234
0.0106864
0.0106753
0.011056
0.0119375
0.0137453
0.0173942
0.0247112
0.0389356
0.0654189
0.111748
0.186847
0.298412
0.450139
0.641763
0.876258
1.17192
1.55874
2.04035
2.39561
2.72941
4.24313
3.33917
1.70553
0.808086
0.413985
0.224068
0.123618
0.0691962
0.0401988
0.0250846
0.0173766
0.0134897
0.0115721
0.010641
0.010213
0.0100729
0.0101998
0.010769
0.0122916
0.0108033
0.0106597
0.0107547
0.0110585
0.0116762
0.0128848
0.0153251
0.0202612
0.0301931
0.049452
0.0850543
0.146511
0.244297
0.386401
0.57564
0.811327
1.09848
1.45886
1.90949
2.42026
2.71595
3.10613
4.7189
3.74414
1.94075
0.928401
0.478505
0.261584
0.14574
0.0819579
0.0473974
0.0290988
0.0196496
0.0148252
0.0124192
0.0112319
0.0106557
0.0103775
0.0102645
0.0102833
0.01049
0.0108665
0.0109624
0.0112025
0.0116414
0.0124702
0.0140907
0.017407
0.0241505
0.0377626
0.0640322
0.112134
0.193826
0.321095
0.501937
0.738241
1.03004
1.38478
1.8232
2.34103
2.85989
3.05951
3.55344
5.23752
4.16392
2.19402
1.06378
0.553998
0.3064
0.172681
0.0977697
0.0564405
0.0341753
0.0225211
0.0164903
0.0134513
0.0119361
0.0111972
0.0108303
0.0106467
0.0105625
0.0105617
0.0112566
0.0114395
0.0117735
0.0123519
0.0134577
0.0156523
0.0202175
0.02953
0.0483647
0.0844283
0.14966
0.258308
0.423757
0.653875
0.950001
1.31498
1.75859
2.28932
2.8727
3.37247
3.44364
4.10024
5.81368
4.60325
2.46868
1.21781
0.642907
0.360434
0.205809
0.117565
0.0679322
0.0406813
0.026208
0.0186069
0.0147348
0.0127814
0.0118282
0.0113566
0.0111179
0.0109893
0.0109339
0.0117573
0.0120127
0.0124474
0.0132064
0.0147035
0.0177186
0.0240906
0.0370823
0.0633716
0.113114
0.201738
0.346059
0.560821
0.853995
1.22758
1.6899
2.24688
2.88285
3.51694
3.95101
3.87221
4.73802
6.44182
5.05964
2.76504
1.394
0.748733
0.426263
0.246985
0.142623
0.0827167
0.0491337
0.0310183
0.0213471
0.0163655
0.0138157
0.012568
0.0119538
0.0116502
0.0114844
0.0113932
0.012357
0.0126812
0.0132434
0.0142541
0.0163218
0.020524
0.0295416
0.04783
0.0848014
0.153582
0.273962
0.465191
0.743819
1.11886
1.59644
2.18811
2.88207
3.62871
4.28079
4.58302
4.35011
5.45753
7.11247
5.52951
3.08612
1.59753
0.875992
0.507334
0.29874
0.174712
0.101985
0.060273
0.0374025
0.0249657
0.0184896
0.0151164
0.013457
0.012639
0.012247
0.0120409
0.0119293
0.0130458
0.0134567
0.0141985
0.0155723
0.0184893
0.0244228
0.0373584
0.0632866
0.11559
0.210662
0.373862
0.626501
0.988537
1.47202
2.09048
2.84614
3.70298
4.54666
5.15869
5.23937
4.87213
6.19772
7.80432
6.01027
3.43705
1.83497
1.03059
0.608262
0.364534
0.216285
0.127428
0.0751655
0.0460257
0.0298403
0.0213281
0.0168012
0.014559
0.0134416
0.0129198
0.0126571
0.0125235
0.013839
0.0143675
0.0153755
0.0172815
0.0214854
0.0299551
0.0487555
0.0856721
0.159969
0.290921
0.511598
0.844709
1.31732
1.94646
2.74927
3.71418
4.7512
5.64896
6.13087
5.87068
5.46618
7.11328
8.5004
6.50392
3.82512
2.1147
1.22028
0.735189
0.449075
0.270742
0.161463
0.0953589
0.0578838
0.0365388
0.0252225
0.0190521
0.0159772
0.014411
0.0136926
0.013342
0.0131808
0.0147605
0.0154582
0.0168748
0.0195665
0.0257554
0.0379387
0.0656064
0.118175
0.223962
0.403145
0.701137
1.14045
1.76226
2.58922
3.64103
4.85736
6.06025
6.93497
7.15963
6.44775
6.22254
8.12311
9.18927
7.01514
4.2601
2.44761
1.45519
0.896235
0.558753
0.342769
0.207555
0.123099
0.0744844
0.0459223
0.0307091
0.0221529
0.0178791
0.0156282
0.0146073
0.0141117
0.0139049
0.0158532
0.0167982
0.0188617
0.0227104
0.0320214
0.0495949
0.0907992
0.16524
0.316106
0.559024
0.962342
1.54301
2.36898
3.46316
4.83167
6.32232
7.63973
8.37546
8.15738
7.03428
7.0729
9.15209
9.86106
7.55244
4.7539
2.84703
1.74836
1.10203
0.70222
0.438758
0.270672
0.161624
0.0981334
0.0593009
0.0386486
0.0265496
0.0205431
0.0172257
0.0157381
0.0149955
0.0147078
0.0171988
0.0184957
0.0216117
0.0271417
0.0414712
0.0666964
0.128804
0.232841
0.448732
0.774342
1.32454
2.09359
3.20076
4.64133
6.3825
8.12834
9.46429
9.90161
9.00789
7.55426
7.93632
10.168
10.5068
8.12517
5.32032
3.32878
2.11643
1.36639
0.891225
0.567272
0.357947
0.215526
0.132387
0.0786557
0.0504489
0.0329449
0.0244432
0.0194221
0.0172196
0.0160458
0.015618
0.0189167
0.0207032
0.0256001
0.0334875
0.0560984
0.0916766
0.186571
0.328552
0.640235
1.06995
1.83086
2.84487
4.33628
6.19154
8.32462
10.2526
11.4751
11.3744
9.66928
7.99977
8.75655
11.0127
11.118
8.74177
5.97351
3.91068
2.58077
1.70698
1.14199
0.73943
0.479691
0.291099
0.182775
0.106914
0.0684659
0.0424358
0.0304123
0.0225751
0.019304
0.0173551
0.0166956
0.0211924
0.0236291
0.0316844
0.0425991
0.0793055
0.127519
0.275138
0.461108
0.919506
1.47162
2.54445
3.85845
5.8614
8.14486
10.6292
12.6173
13.5791
12.6065
10.0151
8.37675
9.45594
11.7468
11.7073
9.41378
6.72534
4.61012
3.16936
2.14555
1.4778
0.968793
0.65114
0.39639
0.258026
0.148146
0.0967242
0.0566678
0.0399672
0.0272524
0.022481
0.0190804
0.0180623
0.0243891
0.0275358
0.0414892
0.0554303
0.117054
0.177056
0.41286
0.638601
1.33441
2.00426
3.56052
5.18315
7.84808
10.4482
13.192
15.0851
15.6185
13.6271
10.2882
8.79059
10.1884
12.3289
12.2627
10.1413
7.58218
5.435
3.92087
2.70425
1.93498
1.26986
0.896172
0.540267
0.372363
0.207363
0.142386
0.0778884
0.0560129
0.034276
0.0277535
0.0214674
0.0199857
0.0293643
0.0326078
0.0582264
0.0723965
0.180109
0.240779
0.631886
0.862736
1.96665
2.6718
5.03454
6.79545
10.3271
12.9247
15.7806
17.3726
17.3425
14.0367
10.1732
8.94504
10.4674
12.7968
12.7099
10.788
8.52729
6.36729
4.89866
3.38857
2.5781
1.65213
1.25674
0.728682
0.550613
0.288687
0.218772
0.108314
0.0844435
0.0445393
0.0373169
0.0248131
0.0231005
0.0201535
0.018697
0.0174515
0.0163845
0.0154476
0.0146033
0.0138267
0.0131105
0.012457
0.0118743
0.0113544
0.0109525
0.0106643
0.0110379
0.0159892
0.0912087
0.585071
0.0200152
0.0186782
0.0175787
0.0166254
0.0157669
0.0149726
0.0142266
0.013533
0.0128993
0.0123364
0.0118353
0.0114586
0.0112018
0.0116629
0.0167664
0.0915015
0.691586
0.0197165
0.0187085
0.017782
0.0169252
0.0161244
0.0153659
0.0146465
0.013976
0.013364
0.0128217
0.012343
0.0119903
0.0117873
0.0123522
0.017734
0.0952699
0.776808
0.0198676
0.0189572
0.0181007
0.0172942
0.0165287
0.0157963
0.0151004
0.0144528
0.0138647
0.0133439
0.0128893
0.0125608
0.0124219
0.0131071
0.0188471
0.0994229
0.862053
0.0201383
0.0192846
0.0184812
0.0177135
0.0169743
0.0162632
0.0155893
0.0149668
0.0144042
0.0139058
0.0134762
0.0131742
0.0131045
0.0139282
0.0201153
0.104318
0.944605
0.0204119
0.0196652
0.0189154
0.0181794
0.0174614
0.0167694
0.0161187
0.0155234
0.0149875
0.0145127
0.0141091
0.0138363
0.0138362
0.0148188
0.0215468
0.109993
1.02872
0.0209284
0.020148
0.0194093
0.0186914
0.017991
0.0173194
0.0166947
0.0161281
0.0156199
0.0151703
0.0147939
0.0145545
0.01463
0.0157821
0.0231449
0.116255
1.11345
0.0212809
0.020623
0.019934
0.0192423
0.0185636
0.017918
0.0173237
0.0167874
0.0163075
0.0158842
0.015537
0.0153361
0.0154949
0.0168227
0.0249297
0.123162
1.20106
0.0219526
0.0212199
0.0205221
0.019841
0.0191846
0.0185707
0.0180116
0.0175082
0.0170569
0.0166612
0.016346
0.0161901
0.0164414
0.0179727
0.0269039
0.130554
1.29078
0.0223768
0.0217804
0.021132
0.0204805
0.0198573
0.019283
0.0187637
0.0182956
0.0178751
0.017509
0.0172288
0.0171261
0.0174816
0.0192528
0.0290781
0.138385
1.38097
0.0231768
0.0224781
0.0218126
0.0211787
0.0205924
0.0200623
0.0195855
0.0191548
0.0187676
0.018434
0.0181945
0.0181532
0.0186292
0.0206818
0.0314835
0.146749
1.46969
0.0236756
0.0231246
0.0225174
0.0219306
0.0213954
0.0209153
0.0204832
0.0200914
0.0197402
0.0194433
0.0192506
0.0192788
0.0198979
0.0222772
0.0342106
0.155855
1.55845
0.0245893
0.0239195
0.0233062
0.022759
0.0222778
0.0218498
0.0214636
0.0211123
0.0207998
0.0205439
0.0204059
0.0205134
0.0212983
0.0240452
0.0372608
0.165636
1.64577
0.0251704
0.0246668
0.0241362
0.0236601
0.0232435
0.022871
0.0225324
0.022224
0.021954
0.0217443
0.0216697
0.0218684
0.0228473
0.0260097
0.0406679
0.175804
1.73026
0.0261858
0.0255746
0.0250695
0.0246555
0.0243023
0.0239856
0.0236962
0.023434
0.0232111
0.0230546
0.0230533
0.0233564
0.0245576
0.0281787
0.0444499
0.185613
1.80738
0.0268713
0.0264627
0.0260694
0.0257411
0.0254566
0.0251985
0.0249615
0.0247503
0.0245807
0.0244856
0.0245665
0.0249883
0.0264393
0.0305683
0.0486226
0.193947
1.87127
0.0279888
0.0275219
0.0271873
0.0269327
0.0267141
0.0265166
0.0263364
0.0261825
0.0260736
0.0260495
0.0262229
0.0267811
0.0285061
0.0331889
0.0528988
0.20248
1.92119
0.0288263
0.0286062
0.0283924
0.028226
0.0280778
0.0279466
0.0278302
0.0277421
0.0277031
0.0277605
0.0280378
0.0287512
0.0307693
0.0360627
0.0574912
0.210677
1.95278
0.0300604
0.0298566
0.0297155
0.0296306
0.0295554
0.0294978
0.0294543
0.0294426
0.0294844
0.0296361
0.0300306
0.0309181
0.0332457
0.0392134
0.0624239
0.218875
1.96642
0.0311231
0.0311704
0.0311371
0.0311459
0.0311532
0.0311802
0.0312218
0.0312992
0.0314359
0.031697
0.0322226
0.0333048
0.0359609
0.042664
0.0677636
0.227248
1.95792
0.0324976
0.0326276
0.0326785
0.0327828
0.0328841
0.0330092
0.0331508
0.0333325
0.0335802
0.0339658
0.0346389
0.0359365
0.0389389
0.046431
0.0735392
0.236171
1.92437
0.0339081
0.034169
0.0343342
0.0345495
0.0347619
0.0350012
0.0352611
0.0355656
0.035944
0.0364743
0.0373156
0.0388539
0.0422378
0.0505713
0.0798883
0.247062
1.87063
0.0354498
0.0358296
0.036125
0.036463
0.0368055
0.0371777
0.0375776
0.0380269
0.0385606
0.0392599
0.0402957
0.0421001
0.0458855
0.0551341
0.0868787
0.258131
1.80067
0.0371163
0.0376036
0.0380488
0.0385355
0.0390331
0.0395631
0.0401285
0.0407508
0.0414673
0.0423627
0.0436191
0.0457014
0.0498699
0.0599595
0.0936572
0.264839
1.72537
0.0388741
0.0395297
0.0401386
0.0407915
0.0414687
0.0421862
0.0429488
0.0437779
0.0447123
0.045837
0.0473436
0.0497142
0.0542453
0.0650034
0.0999489
0.268686
1.6471
0.0407779
0.0415891
0.0423956
0.0432512
0.0441415
0.0450822
0.0460809
0.0471591
0.0483557
0.0497553
0.0515525
0.0542344
0.0591096
0.0703473
0.105785
0.269337
1.56773
0.0427987
0.0438305
0.0448552
0.0459423
0.0470836
0.0482914
0.0495747
0.0509552
0.052472
0.0542075
0.0563531
0.0593893
0.0646103
0.0761657
0.111402
0.268888
1.48875
0.0449922
0.0462381
0.0475278
0.0488936
0.0503336
0.0518616
0.0534897
0.0552398
0.0571515
0.0593046
0.0618824
0.0653478
0.0709589
0.0827744
0.117409
0.267926
1.41123
0.0473304
0.0488638
0.05045
0.0521398
0.0539349
0.0558487
0.0578961
0.0601012
0.0625046
0.0651837
0.0683124
0.0723259
0.0784295
0.0905159
0.124324
0.267364
1.33583
0.0498631
0.0516973
0.0536424
0.0557195
0.0579389
0.0603186
0.0628782
0.065646
0.068666
0.072015
0.0758573
0.0805964
0.0873623
0.0998163
0.132706
0.267655
1.26295
0.0525793
0.0547923
0.057145
0.0596775
0.0624047
0.0653489
0.0685369
0.0720042
0.0758016
0.0800098
0.0847875
0.0905082
0.0982092
0.111277
0.143308
0.269743
1.19284
0.0555111
0.0581466
0.0609889
0.0640649
0.0674016
0.0710319
0.0749934
0.0793338
0.0841166
0.0894342
0.0954479
0.102509
0.11156
0.125677
0.157197
0.275018
1.12564
0.0586699
0.0618136
0.0652198
0.0689397
0.0730099
0.0774765
0.0823941
0.0878296
0.0938682
0.100626
0.108284
0.117187
0.128199
0.144069
0.175822
0.285325
1.06143
0.0620814
0.0658001
0.0698799
0.0743685
0.0793238
0.0848133
0.0909172
0.0977332
0.105382
0.114023
0.123881
0.135329
0.149189
0.167905
0.201149
0.303157
1.00025
0.0657558
0.0701593
0.0750228
0.0804275
0.0864536
0.0931988
0.100782
0.109348
0.119076
0.130197
0.14302
0.158005
0.176005
0.199243
0.236036
0.33232
0.942079
0.0697201
0.074906
0.0807026
0.0872043
0.0945301
0.102823
0.11226
0.123058
0.135491
0.149908
0.166767
0.186708
0.210755
0.24109
0.284801
0.378759
0.886856
0.0739835
0.0800939
0.086984
0.0947994
0.103708
0.113919
0.125692
0.13936
0.155341
0.174182
0.1966
0.223572
0.25653
0.297978
0.354207
0.452196
0.834506
0.0785707
0.0857437
0.0939331
0.103327
0.11417
0.126767
0.141507
0.158893
0.179579
0.204429
0.234604
0.2717
0.31799
0.376991
0.455278
0.569775
0.784921
0.0834868
0.0919062
0.101623
0.112915
0.126128
0.141709
0.160241
0.18249
0.209481
0.242606
0.283786
0.33573
0.402356
0.48955
0.60657
0.76326
0.737951
0.0887488
0.0986037
0.110131
0.12371
0.139838
0.159172
0.182585
0.211257
0.24681
0.291514
0.348609
0.422832
0.521286
0.654942
0.841045
1.09473
0.69338
0.0940522
0.0986859
0.103456
0.108342
0.11332
0.118362
0.123433
0.128491
0.133496
0.138398
0.143149
0.147692
0.151973
0.155936
0.159527
0.162691
0.16538
0.167552
0.169167
0.170202
0.170608
0.170212
0.169195
0.167596
0.165441
0.16277
0.159623
0.156051
0.152106
0.147842
0.143315
0.138582
0.133696
0.128707
0.123664
0.118608
0.113579
0.108615
0.103741
0.0989833
0.0943579
0.105594
0.110744
0.11604
0.121451
0.12696
0.132528
0.138122
0.143693
0.1492
0.154584
0.159797
0.164775
0.169462
0.173793
0.177714
0.181164
0.184094
0.186455
0.188208
0.189326
0.18976
0.189335
0.188234
0.186496
0.184151
0.181238
0.177805
0.173902
0.169587
0.164916
0.159955
0.154758
0.149389
0.143897
0.138341
0.132761
0.127206
0.121709
0.116311
0.111027
0.105887
0.119272
0.125015
0.130908
0.136924
0.143037
0.149208
0.155395
0.161552
0.167626
0.173561
0.179296
0.184768
0.189911
0.19466
0.198952
0.202725
0.205924
0.208499
0.210407
0.211618
0.212084
0.211627
0.210431
0.208537
0.205977
0.202794
0.199037
0.194761
0.190027
0.184899
0.179443
0.173723
0.167803
0.161743
0.1556
0.149426
0.143267
0.137167
0.131162
0.125281
0.119548
0.135629
0.142052
0.148631
0.155341
0.162148
0.169009
0.175877
0.182702
0.189425
0.195984
0.202313
0.208344
0.214005
0.219226
0.223939
0.228077
0.23158
0.234395
0.236478
0.237794
0.238295
0.237802
0.236499
0.23443
0.231629
0.22814
0.224017
0.21932
0.214113
0.208465
0.202449
0.196133
0.189588
0.182878
0.176066
0.16921
0.162361
0.155565
0.148867
0.142299
0.135886
0.15538
0.162591
0.169962
0.177472
0.185078
0.192732
0.200382
0.207972
0.215436
0.222708
0.229715
0.236382
0.242632
0.248389
0.253578
0.258129
0.261976
0.265063
0.267342
0.268777
0.269317
0.268784
0.267361
0.265094
0.26202
0.258185
0.253648
0.248474
0.24273
0.236492
0.229838
0.222844
0.215585
0.208132
0.200554
0.192915
0.185272
0.177676
0.170178
0.162817
0.155615
0.179487
0.187616
0.195909
0.204343
0.212872
0.221441
0.229992
0.23846
0.246776
0.254864
0.262645
0.270037
0.276958
0.283322
0.289052
0.294071
0.298308
0.301702
0.304203
0.305772
0.306356
0.305778
0.30422
0.30173
0.298346
0.294121
0.289115
0.283398
0.277044
0.270135
0.262754
0.254985
0.246908
0.238603
0.230146
0.221605
0.213046
0.204527
0.196103
0.18782
0.179699
0.209268
0.218472
0.227839
0.237348
0.246947
0.256573
0.266163
0.275644
0.284937
0.29396
0.302627
0.310848
0.318532
0.325589
0.331932
0.337481
0.34216
0.345901
0.348653
0.350372
0.351006
0.350377
0.348667
0.345925
0.342192
0.337525
0.331987
0.325655
0.318607
0.310933
0.302723
0.294066
0.285053
0.275769
0.266297
0.256717
0.2471
0.23751
0.22801
0.218652
0.209455
0.246554
0.25702
0.267644
0.278406
0.289248
0.3001
0.310889
0.321536
0.331955
0.342051
0.351731
0.360897
0.369451
0.377294
0.384334
0.390483
0.39566
0.399794
0.402828
0.404717
0.405406
0.404721
0.40284
0.399813
0.395687
0.390519
0.38438
0.37735
0.369513
0.360969
0.351812
0.342141
0.332053
0.321642
0.311004
0.300224
0.28938
0.278545
0.267791
0.257175
0.246715
0.29394
0.305892
0.317989
0.330214
0.342502
0.354773
0.366947
0.378936
0.390646
0.401971
0.412807
0.423049
0.432592
0.441325
0.449152
0.455978
0.461716
0.466292
0.469642
0.471721
0.472473
0.471725
0.469652
0.466307
0.461738
0.456007
0.44919
0.441371
0.432642
0.423109
0.412874
0.402045
0.390726
0.379024
0.367043
0.354877
0.342612
0.330329
0.318111
0.306021
0.294074
0.355188
0.368885
0.382704
0.396635
0.410602
0.424513
0.438281
0.451808
0.464991
0.477715
0.489864
0.501323
0.51198
0.521714
0.530424
0.538007
0.544372
0.549439
0.553142
0.555432
0.556252
0.555435
0.55315
0.549451
0.544389
0.53803
0.530454
0.52175
0.512018
0.50137
0.489917
0.477773
0.465054
0.451878
0.438358
0.424596
0.410689
0.396727
0.382802
0.368988
0.355294
0.435875
0.451612
0.467435
0.483339
0.499238
0.51503
0.530615
0.545887
0.560733
0.575029
0.58865
0.601467
0.613362
0.624206
0.63389
0.642307
0.649361
0.654966
0.659054
0.661573
0.662468
0.661575
0.659059
0.654974
0.649372
0.642324
0.633912
0.624233
0.613389
0.601503
0.588688
0.575073
0.560781
0.54594
0.530674
0.515094
0.499305
0.483409
0.467509
0.45169
0.435955
0.544509
0.562595
0.580714
0.598863
0.616948
0.634854
0.652469
0.669677
0.68636
0.70238
0.717605
0.731899
0.745133
0.757172
0.7679
0.777207
0.784993
0.791169
0.795664
0.798425
0.799396
0.798426
0.795668
0.791174
0.785
0.777218
0.767915
0.757189
0.74515
0.731924
0.717631
0.702411
0.686392
0.669716
0.652511
0.634899
0.616994
0.598912
0.580767
0.56265
0.544565
0.694465
0.715174
0.735833
0.756444
0.776904
0.797091
0.816879
0.83614
0.854754
0.872574
0.88946
0.90527
0.919873
0.933123
0.944905
0.955105
0.963621
0.970363
0.975261
0.978259
0.979305
0.97826
0.975263
0.970366
0.963625
0.955111
0.944913
0.933133
0.919882
0.905288
0.889476
0.872594
0.854774
0.836166
0.816906
0.797119
0.776933
0.756476
0.735867
0.715208
0.694501
0.907528
0.930961
0.954212
0.977302
1.00012
1.02254
1.04444
1.06565
1.08609
1.10558
1.12399
1.14117
1.15699
1.17131
1.18401
1.19498
1.20412
1.21135
1.21658
1.21978
1.22088
1.21978
1.21658
1.21135
1.20413
1.19499
1.18402
1.17131
1.15699
1.14118
1.12399
1.10559
1.0861
1.06567
1.04445
1.02256
1.00014
0.977319
0.954231
0.930979
0.907548
1.22064
1.24641
1.27175
1.29678
1.32139
1.34546
1.36886
1.39143
1.41306
1.43361
1.45295
1.47094
1.48744
1.50234
1.51551
1.52686
1.5363
1.54373
1.54911
1.55238
1.55351
1.55238
1.54911
1.54373
1.5363
1.52686
1.51551
1.50233
1.48744
1.47094
1.45295
1.43362
1.41307
1.39143
1.36887
1.34547
1.3214
1.29679
1.27175
1.24641
1.22065
1.69944
1.72585
1.75136
1.77643
1.80092
1.82472
1.84774
1.86983
1.89088
1.91079
1.92944
1.94672
1.9625
1.97671
1.98923
1.99998
2.0089
2.01591
2.02097
2.02404
2.02509
2.02404
2.02097
2.01591
2.0089
1.99998
1.98923
1.9767
1.96251
1.94671
1.92945
1.91079
1.89089
1.86983
1.84774
1.82472
1.80092
1.77643
1.75137
1.72586
1.69944
2.46712
2.48918
2.50938
2.52906
2.54816
2.5666
2.58431
2.6012
2.6172
2.63225
2.64627
2.65919
2.67095
2.68148
2.69073
2.69866
2.7052
2.71034
2.71403
2.71627
2.71702
2.71627
2.71403
2.71034
2.7052
2.69866
2.69073
2.68148
2.67095
2.65919
2.64627
2.63225
2.6172
2.6012
2.58431
2.5666
2.54816
2.52906
2.50938
2.48918
2.46712
0.623271
0.102944
0.0168288
0.0113292
0.0109203
0.0112007
0.0116228
0.0121772
0.0128151
0.0135477
0.0143731
0.0153147
0.0164292
0.017793
0.0194636
0.0214254
0.0235354
0.740104
0.0994941
0.0173044
0.0119055
0.0114312
0.011679
0.0120778
0.0126092
0.0132185
0.0139124
0.0146805
0.0155283
0.0164931
0.0176482
0.0190932
0.0209227
0.023141
0.829614
0.100603
0.0180276
0.0125486
0.0119764
0.0121793
0.0125563
0.0130623
0.0136446
0.0143039
0.0150277
0.0158077
0.0166543
0.0176093
0.018757
0.0202499
0.0223481
0.914153
0.102012
0.0188982
0.0132462
0.0125651
0.0127185
0.0130743
0.0135543
0.0141103
0.0147384
0.0154271
0.0161626
0.0169363
0.0177537
0.0186297
0.0195873
0.0206623
0.990353
0.104347
0.019922
0.0139893
0.0132041
0.0133023
0.0136351
0.0140882
0.0146171
0.0152149
0.0158738
0.0165796
0.017318
0.0180855
0.01889
0.0197394
0.0206419
1.06587
0.107536
0.0211214
0.0147772
0.0138993
0.0139377
0.0142434
0.014669
0.0151699
0.0157366
0.0163657
0.0170447
0.017756
0.0184885
0.019246
0.0200394
0.020859
1.14141
0.111683
0.0225058
0.0156578
0.0146599
0.0146327
0.0149053
0.0153015
0.0157731
0.0163081
0.0169052
0.017556
0.0182432
0.0189494
0.0196703
0.0204234
0.0212502
1.21823
0.116767
0.0240907
0.0166454
0.0154936
0.0153936
0.0156266
0.0159913
0.0164321
0.0169339
0.0174963
0.0181157
0.018778
0.0194618
0.0201486
0.0208289
0.0215173
1.29668
0.122945
0.0259088
0.0177549
0.0164112
0.0162275
0.0164138
0.016744
0.0171523
0.0176188
0.0181432
0.018727
0.0193629
0.0200321
0.0207117
0.0213725
0.0219541
1.37619
0.130326
0.0280047
0.0190002
0.0174239
0.0171414
0.0172741
0.0175656
0.0179392
0.0183681
0.0188513
0.0193933
0.0199945
0.0206442
0.0213264
0.022035
0.0227872
1.45827
0.138813
0.0304121
0.0203961
0.0185431
0.0181427
0.0182142
0.0184623
0.0187988
0.0191886
0.0196283
0.0201232
0.020679
0.02129
0.0219365
0.02259
0.0232434
1.54177
0.148231
0.0331554
0.0219537
0.0197793
0.0192403
0.0192418
0.0194409
0.0197378
0.0200872
0.0204823
0.0209273
0.0214327
0.0220023
0.0226246
0.023254
0.023784
1.62438
0.158045
0.0362463
0.0236911
0.0211475
0.0204443
0.0203658
0.0205088
0.0207631
0.0210704
0.0214195
0.0218117
0.0222596
0.0227771
0.0233752
0.0240498
0.0247773
1.70375
0.167556
0.0397247
0.0256241
0.0226604
0.0217658
0.0215961
0.0216751
0.0218824
0.0221455
0.0224477
0.0227856
0.0231691
0.0236143
0.0241389
0.0247424
0.0254026
1.77493
0.177293
0.0433983
0.0277636
0.0243317
0.023218
0.0229433
0.0229497
0.0231039
0.0233196
0.0235739
0.0238581
0.0241777
0.0245492
0.0249991
0.0255294
0.0260387
1.83517
0.187011
0.0473968
0.0301309
0.0261743
0.0248157
0.0244196
0.0243444
0.0244375
0.0246009
0.0248041
0.0250339
0.0252898
0.025587
0.025961
0.0264639
0.0271167
1.88349
0.196464
0.0517368
0.0327435
0.0282042
0.0265759
0.0260395
0.0258724
0.025895
0.0259989
0.0261457
0.0263179
0.026509
0.0267277
0.0269974
0.0273748
0.0279252
1.91452
0.205591
0.0564143
0.0356241
0.0304429
0.0285169
0.0278202
0.027549
0.0274906
0.0275259
0.0276082
0.0277179
0.0278425
0.0279867
0.0281595
0.028407
0.0287137
1.92854
0.214596
0.0614736
0.0387958
0.0329138
0.030659
0.0297821
0.0293925
0.0292401
0.0291956
0.029203
0.0292413
0.0292935
0.0293632
0.0294471
0.0296085
0.0298893
1.92173
0.223494
0.0669564
0.0422819
0.0356394
0.0330266
0.031948
0.0314246
0.0311625
0.0310236
0.0309431
0.0308978
0.0308667
0.0308542
0.0308406
0.0308855
0.0309771
1.89095
0.232505
0.0728913
0.046101
0.0386367
0.0356451
0.0343432
0.0336687
0.033281
0.0330313
0.0328474
0.0327033
0.0325753
0.0324698
0.0323578
0.0322973
0.032149
1.84029
0.242942
0.0794132
0.0503064
0.0419512
0.0385556
0.037004
0.0361569
0.0356231
0.0352422
0.0349359
0.0346745
0.0344333
0.0342184
0.0340013
0.0338363
0.0335733
1.77326
0.254546
0.0866324
0.0549511
0.0456151
0.0418011
0.0399737
0.0389267
0.0382219
0.0376851
0.0372341
0.0368326
0.0364587
0.0361139
0.0357729
0.0354719
0.0351087
1.7015
0.262074
0.093599
0.0598472
0.049625
0.0454033
0.0432895
0.0420171
0.0411143
0.0403941
0.0397701
0.0392033
0.0386725
0.0381735
0.0376854
0.0372377
0.0367632
1.62701
0.266625
0.100042
0.0649488
0.054023
0.0494181
0.0470086
0.0454821
0.0443481
0.0434093
0.0425782
0.0418144
0.0410965
0.0404175
0.0397626
0.0391551
0.038518
1.55139
0.268286
0.10602
0.0703371
0.0589045
0.0539398
0.0512136
0.0493938
0.0479836
0.0467819
0.0457013
0.044701
0.0437589
0.0428672
0.0420135
0.041207
0.0403913
1.47588
0.268484
0.111746
0.0761872
0.0644151
0.0590952
0.0560112
0.0538418
0.0520947
0.0505726
0.0491894
0.0479043
0.046695
0.0455521
0.0444615
0.043427
0.0424264
1.40142
0.268211
0.117827
0.0828056
0.0707666
0.0650529
0.0615388
0.0589371
0.0567722
0.0548547
0.0531013
0.0514709
0.0499409
0.0484993
0.0471322
0.0458472
0.044605
1.3286
0.267976
0.124758
0.0905348
0.0782326
0.0720292
0.0679685
0.0648169
0.0621262
0.0597168
0.0575078
0.0554573
0.0535405
0.0517424
0.0500495
0.0484586
0.0469278
1.25782
0.268556
0.133125
0.0998155
0.0871579
0.0802983
0.0755154
0.0716518
0.0682917
0.0652652
0.0624927
0.059929
0.0575455
0.0553227
0.0532427
0.0512926
0.0494597
1.18934
0.270821
0.14369
0.111248
0.0979957
0.0902104
0.0844508
0.0796537
0.0754346
0.0716299
0.0681568
0.0649635
0.0620144
0.0592828
0.0567445
0.0543882
0.0521877
1.12337
0.276077
0.157511
0.125616
0.111338
0.102215
0.09512
0.0890887
0.0837601
0.078969
0.0746213
0.0706529
0.0670164
0.0636737
0.0605933
0.0577507
0.0551043
1.06004
0.286229
0.176049
0.143976
0.127973
0.116901
0.107969
0.100295
0.0935256
0.087477
0.0820323
0.0771063
0.0726319
0.0685545
0.0648281
0.0614098
0.0582706
0.999454
0.303858
0.201285
0.167785
0.148965
0.135057
0.123584
0.113711
0.105057
0.0973953
0.0905681
0.0844539
0.078955
0.0739912
0.0694944
0.0654112
0.0616969
0.941656
0.332796
0.236088
0.199106
0.175791
0.157753
0.142746
0.129907
0.11877
0.109027
0.100448
0.0928524
0.0860962
0.0800599
0.074646
0.0697748
0.0653633
0.886656
0.379003
0.284785
0.240949
0.210561
0.186483
0.16652
0.149642
0.135207
0.122757
0.111943
0.102492
0.0941862
0.0868487
0.0803369
0.0745301
0.069335
0.834427
0.452289
0.354156
0.297849
0.256364
0.223377
0.196382
0.173943
0.155081
0.13908
0.125395
0.113605
0.10338
0.0944582
0.0866299
0.0797275
0.0736233
0.784898
0.569787
0.455221
0.376887
0.317856
0.271539
0.234418
0.204219
0.179346
0.158639
0.141232
0.126473
0.11386
0.103003
0.0935954
0.0853982
0.078205
0.737948
0.763245
0.606524
0.489475
0.402256
0.335604
0.283635
0.242429
0.209279
0.182264
0.159992
0.14144
0.12584
0.11261
0.101303
0.0915697
0.0831389
0.693381
1.09472
0.841024
0.654902
0.521224
0.422747
0.348497
0.291374
0.246643
0.211064
0.182367
0.158931
0.139575
0.123428
0.109832
0.0982904
0.0884306
0.0382907
0.0911774
0.310613
1.11062
3.41837
8.47739
15.2778
18.9575
14.0302
9.49135
11.7683
10.8742
7.2737
4.14289
2.10074
0.952547
0.388411
0.146924
0.0577466
0.0290782
0.0461006
0.118505
0.412748
1.47027
4.49498
10.7574
18.104
20.1756
13.6498
9.28702
11.4063
11.2461
8.3021
5.15451
2.73003
1.26646
0.529975
0.203132
0.0770648
0.0348069
0.0569485
0.156047
0.550087
1.94531
5.88744
13.2805
20.7948
21.1697
13.2687
9.04622
11.215
12.0158
9.69669
6.48432
3.56376
1.69126
0.724543
0.283773
0.105959
0.0435059
0.0721588
0.20779
0.735674
2.57291
7.58354
15.9449
23.1532
21.7931
12.9555
8.77771
11.1239
12.9335
11.2448
8.08493
4.67083
2.26795
0.991648
0.398829
0.149264
0.0569348
0.0937102
0.279421
0.986326
3.40656
9.58749
18.4863
24.8758
21.9718
12.6902
8.48563
11.0297
13.7503
12.7719
9.85482
6.09288
3.04945
1.35961
0.562125
0.214169
0.0779609
0.124558
0.379101
1.32587
4.51094
11.7992
20.6598
25.8784
21.8774
12.4901
8.20281
10.8798
14.4406
14.1426
11.5879
7.77784
4.11068
1.86807
0.793181
0.311117
0.111189
0.169195
0.518881
1.78859
5.90901
14.0435
22.2661
26.1272
21.5542
12.3044
7.90861
10.6262
14.9612
15.2546
13.0555
9.52629
5.48167
2.56705
1.12044
0.455194
0.164006
0.234512
0.717193
2.42277
7.58773
16.0759
23.1327
25.748
21.0071
12.1582
7.62658
10.3746
15.0551
16.0373
14.1295
11.0446
7.10318
3.54275
1.58488
0.66845
0.248146
0.331332
1.00027
3.30175
9.50443
17.6035
23.1708
24.7093
20.2312
12.0502
7.44166
10.0927
14.7538
16.3658
14.8364
12.1074
8.72351
4.85813
2.24176
0.984192
0.382113
0.476856
1.40902
4.50116
11.4322
18.4065
22.5053
23.1734
19.2301
11.8734
7.43641
9.78987
14.1552
16.1666
15.232
12.7158
9.98954
6.42428
3.18565
1.45231
0.595201
0.69956
2.00678
5.99245
13.0429
18.3257
21.1952
21.3964
18.0422
11.6292
7.57505
9.49157
13.3611
15.5458
15.1717
13.0307
10.6989
7.96364
4.51687
2.14593
0.934329
1.04511
2.90016
7.73242
13.9427
17.4598
19.4559
19.457
16.7177
11.3317
7.81149
9.231
12.4581
14.5533
14.6721
13.0793
10.9257
9.05171
6.12535
3.19427
1.47767
1.59078
4.18923
9.3768
13.8132
16.0073
17.4965
17.463
15.3242
10.9978
8.10274
9.02972
11.5381
13.3904
13.8305
12.7722
10.9026
9.45699
7.66997
4.71862
2.35208
2.48381
5.8266
10.3199
12.7832
14.2857
15.4273
15.5244
13.9422
10.6632
8.41294
8.90145
10.6728
12.1508
12.7176
12.1198
10.7118
9.32648
8.58573
6.57189
3.78995
3.85093
7.43113
10.1162
11.2596
12.5812
13.5234
13.7316
12.6613
10.3552
8.71508
8.85529
9.94175
10.9681
11.447
11.1722
10.2338
9.05412
8.65069
8.17155
5.91945
5.68762
8.13556
8.9583
9.73334
10.9827
11.8325
12.1348
11.5326
10.0887
8.98854
8.89175
9.39631
9.92254
10.1558
10.0253
9.4772
8.65568
8.2216
8.76202
8.31901
7.1559
7.48216
7.58001
8.44655
9.49532
10.3275
10.7559
10.5849
9.86809
9.22688
9.01405
9.08891
9.17616
9.11076
8.91758
8.55821
8.06357
7.70638
8.26517
9.49136
6.8918
6.12123
6.50255
7.40155
8.31892
9.14218
9.7131
9.9203
9.76361
9.49208
9.2743
9.0916
8.86204
8.5379
8.15014
7.78222
7.45177
7.23823
7.49808
8.88937
4.88888
5.33292
6.07629
6.91462
7.85148
8.74488
9.48884
10.0342
10.226
10.2033
10.0653
9.79255
9.40015
8.91351
8.3675
7.84566
7.5232
7.34281
7.34665
7.70738
5.93972
7.75289
9.36864
11.0648
12.9662
14.6649
16.0809
17.2058
17.8896
18.1583
18.0304
17.5981
16.8819
15.9021
14.7282
13.4934
12.4772
11.5304
10.5651
9.21047
7.21562
8.7327
10.9998
10.7253
6.51136
3.3305
1.72032
0.938092
0.531152
0.310645
0.188399
0.119399
0.0797963
0.0566515
0.0428512
0.0344312
0.0291492
0.0257243
0.0234051
0.0217641
4.6795
7.03354
12.0594
7.69976
3.54919
1.64142
0.823877
0.435202
0.241544
0.141744
0.0888904
0.0601883
0.0442153
0.0350864
0.0296991
0.0263884
0.0242448
0.0227706
0.0216789
0.0208215
3.23564
7.48183
10.482
4.68774
1.88796
0.846027
0.410894
0.214454
0.121042
0.0748321
0.0512125
0.0387651
0.0319799
0.0281185
0.0257905
0.0242798
0.0232104
0.0223878
0.0216972
0.0210921
2.85078
11.1941
7.10027
2.59549
1.00118
0.441454
0.214502
0.115498
0.0697791
0.0477805
0.0368196
0.0311394
0.028034
0.0262046
0.0250181
0.0241619
0.0234764