/*--------------------------------*- C++ -*----------------------------------*\
  =========                 |
  \\      /  F ield         | OpenFOAM: The Open Source CFD Toolbox
   \\    /   O peration     | Website:  https://openfoam.org
    \\  /    A nd           | Version:  6
     \\/     M anipulation  |
\*---------------------------------------------------------------------------*/
FoamFile
{
    version     2.0;
    format      ascii;
    class       volVectorField;
    location    "1.81";
    object      U;
}
// * * * * * * * * * * * * * * * * * * * * * * * * * * * * * * * * * * * * * //

dimensions      [0 1 -1 0 0 0 0];

internalField   nonuniform List<vector> 
4214
(
(4.94039 -0.0408292 0)
(4.99275 -0.001765 2.84629e-20)
(5.00316 0.0332897 -6.54152e-20)
(5.00714 0.0626963 6.16807e-20)
(5.01557 0.0898104 -2.88344e-20)
(5.02939 0.115737 -2.57794e-20)
(5.04358 0.139976 2.75612e-20)
(5.05077 0.162091 1.69329e-21)
(5.0504 0.181918 -1.33561e-21)
(5.04267 0.19885 0)
(5.02841 0.212056 0)
(5.00887 0.220658 -1.04137e-21)
(4.98379 0.223194 1.04409e-21)
(4.9529 0.217473 7.94251e-21)
(4.91873 0.201494 3.64996e-21)
(4.88765 0.174416 -1.24651e-20)
(4.87408 0.138452 0)
(4.89419 0.0923175 -4.23541e-21)
(4.96207 0.0391133 6.00242e-21)
(5.06745 -0.0188714 0)
(5.15806 -0.0563901 0)
(5.16317 -0.0998114 -4.19326e-21)
(5.13082 -0.132399 3.14009e-21)
(5.06342 -0.139544 -1.47594e-21)
(5.00085 -0.14207 -5.07776e-21)
(4.97555 -0.150838 0)
(4.97629 -0.160835 6.68301e-21)
(4.99146 -0.168962 -8.76185e-21)
(5.0065 -0.174158 3.11703e-22)
(5.01838 -0.174265 1.88265e-21)
(5.02789 -0.168526 -6.44617e-22)
(5.036 -0.157753 0)
(5.04153 -0.143112 6.82469e-22)
(5.04175 -0.125776 8.47883e-22)
(5.03252 -0.106076 4.95147e-20)
(5.01201 -0.0838624 -4.93456e-20)
(4.98943 -0.0599665 0)
(4.97469 -0.0353467 0)
(4.96706 -0.00849165 -7.33989e-20)
(4.95616 0.0239999 1.54263e-19)
(4.90508 0.0588682 -8.14692e-20)
(5.06191 0.00654789 9.49285e-20)
(5.05256 0.0434897 -8.98599e-20)
(5.04275 0.0730764 -1.14969e-20)
(5.04331 0.0978226 0)
(5.05384 0.122865 0)
(5.06648 0.148003 0)
(5.07181 0.17142 1.1117e-20)
(5.06857 0.192036 -1.68123e-21)
(5.05836 0.209405 1.98451e-20)
(5.04083 0.223372 -2.20999e-20)
(5.01826 0.233574 -5.05425e-22)
(4.99084 0.239516 -2.88702e-23)
(4.95769 0.240501 0)
(4.91862 0.235255 6.4117e-22)
(4.87867 0.223044 0)
(4.84813 0.204879 6.81853e-21)
(4.83944 0.183616 0)
(4.86049 0.154563 -9.56945e-21)
(4.92361 0.111226 1.40515e-20)
(5.02374 0.0467526 -1.9485e-20)
(5.11016 -0.0152565 2.81308e-22)
(5.1142 -0.0877163 -3.04292e-20)
(5.11794 -0.147394 1.24447e-20)
(5.07918 -0.164397 4.06109e-21)
(5.01372 -0.167589 0)
(4.96994 -0.171345 0)
(4.95812 -0.179155 1.73813e-20)
(4.96735 -0.18794 -1.66411e-20)
(4.98892 -0.195687 0)
(5.00996 -0.199527 -3.93807e-22)
(5.0285 -0.198339 -1.06303e-21)
(5.04593 -0.19183 -4.89973e-20)
(5.06209 -0.180708 4.9255e-20)
(5.07274 -0.165623 -7.35304e-20)
(5.07794 -0.146775 7.14857e-20)
(5.07123 -0.124629 8.7566e-20)
(5.05081 -0.100693 -8.59174e-20)
(5.03054 -0.0770301 0)
(5.02155 -0.0515128 0)
(5.02068 -0.0167236 -1.31919e-21)
(5.02371 0.0165506 -2.53181e-21)
(5.0688 0.0340344 -1.91577e-19)
(5.04889 0.0634697 0)
(5.05412 0.0910743 -4.47651e-20)
(5.06334 0.117096 6.57997e-20)
(5.07367 0.143018 -3.45366e-20)
(5.07992 0.167671 0)
(5.07863 0.189729 -1.10258e-20)
(5.06932 0.208741 0)
(5.05318 0.224477 4.03039e-21)
(5.03211 0.236797 -1.51814e-21)
(5.00677 0.245593 1.09097e-21)
(4.97631 0.250774 2.34297e-22)
(4.94032 0.252468 7.60551e-21)
(4.90044 0.250329 -8.85446e-21)
(4.86294 0.244166 -6.33733e-21)
(4.83702 0.234775 -1.39638e-20)
(4.83078 0.223817 -1.05728e-20)
(4.84901 0.204456 -1.36141e-20)
(4.89887 0.1666 3.90937e-20)
(4.98318 0.0999904 1.18733e-20)
(5.05848 0.0279694 6.02404e-21)
(5.05775 -0.05239 -6.12213e-21)
(5.07721 -0.125764 -3.0596e-20)
(5.07762 -0.163446 3.98352e-20)
(5.02595 -0.172689 -4.24249e-20)
(4.97774 -0.17687 7.81311e-20)
(4.95553 -0.184663 -3.92836e-20)
(4.95671 -0.194328 0)
(4.97397 -0.203566 0)
(4.99618 -0.210453 -4.09492e-22)
(5.018 -0.213074 -1.7002e-21)
(5.03834 -0.210091 -7.22086e-20)
(5.05774 -0.201542 1.5778e-19)
(5.07536 -0.188408 -8.57186e-20)
(5.08751 -0.171646 4.40399e-21)
(5.08974 -0.151575 -1.45368e-19)
(5.07953 -0.128659 1.43821e-19)
(5.06119 -0.104274 -1.75456e-19)
(5.0438 -0.0760644 1.67418e-19)
(5.03302 -0.0388857 3.85244e-21)
(5.04187 -0.00909226 -1.14409e-20)
(5.07866 0.0610431 -2.89102e-19)
(5.07482 0.0870176 3.80516e-19)
(5.08297 0.115822 -2.96319e-19)
(5.09144 0.143026 9.72979e-20)
(5.09628 0.168432 8.45734e-21)
(5.09474 0.191789 4.02631e-20)
(5.08529 0.21235 -5.88493e-20)
(5.06891 0.229679 4.84117e-20)
(5.04749 0.243611 -3.76956e-20)
(5.02197 0.254119 1.8949e-20)
(4.99239 0.261436 3.64094e-20)
(4.95816 0.266172 -1.08832e-20)
(4.91951 0.269216 0)
(4.87948 0.271045 -6.41498e-21)
(4.84493 0.271735 6.65905e-21)
(4.82387 0.271225 5.74029e-20)
(4.81998 0.270103 -3.61241e-20)
(4.83071 0.260141 3.30551e-20)
(4.86249 0.228474 -1.01089e-19)
(4.92642 0.160781 0)
(4.99068 0.0794189 0)
(4.98336 -0.00929118 0)
(5.0174 -0.0931446 -5.46963e-21)
(5.05103 -0.147885 -3.21531e-21)
(5.02755 -0.169214 1.63323e-19)
(4.98255 -0.178953 -7.85337e-20)
(4.95135 -0.189986 -6.1421e-20)
(4.94288 -0.202755 6.61119e-20)
(4.95508 -0.215148 3.11077e-20)
(4.97797 -0.225912 -1.61578e-20)
(5.00431 -0.233049 1.34415e-21)
(5.03034 -0.234733 0)
(5.05518 -0.230138 -1.1293e-19)
(5.07849 -0.219838 -4.14384e-20)
(5.09883 -0.205062 1.39609e-19)
(5.11207 -0.186454 -2.52302e-21)
(5.11385 -0.164867 7.74438e-21)
(5.10384 -0.141057 1.21533e-22)
(5.08599 -0.110791 2.30703e-21)
(5.06757 -0.0696145 2.1191e-19)
(5.0684 -0.0393805 -1.98776e-19)
(5.097 0.0863125 2.26427e-19)
(5.09976 0.113756 2.1776e-19)
(5.10929 0.143399 -1.83361e-19)
(5.11464 0.170589 5.73288e-20)
(5.11243 0.195119 -9.58398e-20)
(5.10251 0.217144 -4.00796e-20)
(5.08571 0.236142 4.73976e-20)
(5.06355 0.251694 -5.76743e-20)
(5.03751 0.263705 -4.70122e-20)
(5.00816 0.27246 6.71251e-20)
(4.9754 0.278685 -2.80381e-20)
(4.93925 0.283592 -7.56938e-21)
(4.90092 0.288763 8.31128e-21)
(4.86399 0.295282 6.69714e-21)
(4.83479 0.303178 -5.49401e-20)
(4.81865 0.311096 -5.04899e-20)
(4.81414 0.317941 6.84589e-20)
(4.81351 0.315033 0)
(4.82184 0.289322 6.94659e-20)
(4.85884 0.222867 -2.52338e-20)
(4.90839 0.135227 0)
(4.8938 0.0406845 0)
(4.93324 -0.0503232 0)
(4.99956 -0.118719 0)
(5.01494 -0.154241 -1.46463e-19)
(4.98155 -0.174563 5.29387e-20)
(4.94659 -0.191219 -2.3499e-19)
(4.92982 -0.208714 7.56484e-20)
(4.93394 -0.225883 -6.48304e-20)
(4.95367 -0.241623 0)
(4.98197 -0.254153 -3.77861e-20)
(5.01322 -0.261292 1.27774e-19)
(5.04407 -0.261479 3.6426e-20)
(5.07325 -0.254681 -1.32256e-19)
(5.09997 -0.24218 2.12778e-19)
(5.12201 -0.225085 -4.46452e-19)
(5.13557 -0.204508 2.43361e-19)
(5.13735 -0.181509 2.84682e-19)
(5.12608 -0.151248 9.58615e-21)
(5.10717 -0.108062 -5.51629e-19)
(5.10325 -0.0733052 2.69358e-19)
(5.12348 0.117095 -6.72082e-19)
(5.13058 0.145092 4.01978e-19)
(5.137 0.174751 0)
(5.13467 0.201148 -5.70535e-20)
(5.12351 0.22444 -5.11516e-21)
(5.10546 0.244958 -8.55038e-20)
(5.08213 0.262243 1.85025e-19)
(5.05483 0.275862 -6.14034e-20)
(5.02458 0.285937 -3.85802e-20)
(4.99189 0.293172 3.77246e-20)
(4.95708 0.298688 -3.09842e-22)
(4.92098 0.304182 0)
(4.88545 0.311784 1.22123e-20)
(4.85383 0.322886 5.73078e-20)
(4.83055 0.337345 -5.82404e-20)
(4.8173 0.352441 1.33257e-19)
(4.80865 0.365184 -1.53076e-19)
(4.79346 0.366826 6.50527e-20)
(4.77487 0.346343 -6.31316e-20)
(4.78028 0.2826 0)
(4.81217 0.191126 -2.01432e-20)
(4.79079 0.0916568 1.94194e-19)
(4.82955 -0.00337724 0)
(4.92117 -0.0822917 0)
(4.9715 -0.131587 2.57774e-19)
(4.96512 -0.164651 2.22846e-19)
(4.93522 -0.190034 7.79493e-20)
(4.91316 -0.214544 -8.01607e-20)
(4.90986 -0.238455 3.7273e-20)
(4.92467 -0.260598 0)
(4.9529 -0.279423 1.00269e-20)
(4.98848 -0.292662 0)
(5.02611 -0.298273 1.47412e-20)
(5.06259 -0.295719 1.82182e-19)
(5.09655 -0.28592 -1.95848e-19)
(5.12658 -0.270174 0)
(5.1504 -0.250168 -1.72248e-20)
(5.16486 -0.227663 0)
(5.16505 -0.197916 1.16354e-20)
(5.15103 -0.153963 3.37483e-19)
(5.14501 -0.116659 -3.40348e-19)
(5.15735 0.152421 4.79979e-19)
(5.16144 0.180783 1.39674e-19)
(5.16005 0.209606 -2.97959e-19)
(5.14828 0.234502 6.87596e-20)
(5.1286 0.256246 -4.83961e-20)
(5.10353 0.275183 2.55839e-19)
(5.07447 0.290644 -9.81073e-20)
(5.04246 0.30225 3.77646e-20)
(5.0085 0.310468 -5.33838e-20)
(4.97357 0.316383 0)
(4.93865 0.321518 7.23057e-22)
(4.90513 0.327955 3.22806e-20)
(4.87498 0.338074 -5.9141e-20)
(4.85031 0.353234 -7.93319e-20)
(4.83258 0.373068 8.11683e-20)
(4.81952 0.393753 -1.272e-19)
(4.80286 0.410539 1.89101e-19)
(4.77012 0.414259 -1.73782e-19)
(4.72248 0.397328 1.82232e-19)
(4.69216 0.33694 1.3127e-19)
(4.70252 0.243728 -2.42877e-20)
(4.6749 0.13997 -1.89382e-19)
(4.70855 0.0417969 -2.17558e-19)
(4.81726 -0.0441152 2.06742e-19)
(4.90363 -0.104863 -1.54962e-19)
(4.9267 -0.151472 -1.34911e-19)
(4.91063 -0.188036 1.42065e-19)
(4.88919 -0.221178 8.55657e-20)
(4.88048 -0.253605 5.66128e-20)
(4.88984 -0.284059 -4.84032e-20)
(4.91629 -0.31061 -5.98695e-20)
(4.95488 -0.331044 -9.02886e-21)
(4.99936 -0.342826 0)
(5.04434 -0.344968 2.76264e-19)
(5.08702 -0.338288 -2.51059e-19)
(5.12567 -0.323978 4.06917e-20)
(5.15888 -0.30399 -3.75308e-19)
(5.18487 -0.281093 3.60173e-19)
(5.19797 -0.251235 1.56096e-20)
(5.19367 -0.206483 8.0938e-19)
(5.1914 -0.16716 -7.65408e-19)
(5.19158 0.19267 3.50317e-19)
(5.18749 0.220203 -3.20726e-19)
(5.17669 0.247281 1.43395e-19)
(5.15611 0.270401 -2.25117e-19)
(5.12894 0.290615 6.23156e-20)
(5.09754 0.307932 -5.19086e-20)
(5.06312 0.321441 4.21757e-20)
(5.02687 0.33097 -6.28559e-20)
(4.99026 0.337393 3.31399e-20)
(4.95487 0.342231 3.61216e-20)
(4.92221 0.347423 -1.72364e-20)
(4.89373 0.355192 -4.00885e-21)
(4.87074 0.367842 9.20506e-20)
(4.85341 0.386384 -1.87538e-19)
(4.8396 0.410131 1.09406e-19)
(4.8231 0.434505 -1.65277e-19)
(4.79396 0.453544 1.65686e-19)
(4.7409 0.457115 9.41513e-20)
(4.66392 0.441014 -1.70597e-19)
(4.59542 0.383485 -1.73279e-19)
(4.58047 0.290125 0)
(4.54648 0.182618 -3.55258e-19)
(4.57331 0.0812006 2.98874e-19)
(4.69094 -0.00928591 -2.23672e-19)
(4.80707 -0.0787815 -2.20371e-19)
(4.86266 -0.138518 2.06184e-19)
(4.86758 -0.187624 -4.6894e-19)
(4.85323 -0.230463 2.96222e-19)
(4.84261 -0.272876 0)
(4.84762 -0.313616 0)
(4.87178 -0.349674 0)
(4.91256 -0.378662 0)
(4.96364 -0.397723 1.59987e-19)
(5.0183 -0.40531 -1.76475e-19)
(5.07187 -0.402163 -4.09509e-20)
(5.12103 -0.389356 5.25062e-21)
(5.16427 -0.369017 0)
(5.20096 -0.344619 -5.39484e-19)
(5.22583 -0.312945 4.29579e-19)
(5.23245 -0.266119 -3.1987e-20)
(5.23833 -0.224876 -6.82546e-21)
(5.22081 0.236384 -2.28072e-19)
(5.20694 0.262538 -3.2233e-19)
(5.18721 0.287633 3.49995e-19)
(5.15903 0.30902 5.65444e-20)
(5.12507 0.327703 -3.19133e-19)
(5.08755 0.343217 1.22042e-19)
(5.0481 0.354555 -4.27068e-20)
(5.00866 0.361901 1.50422e-20)
(4.9713 0.366672 0)
(4.93795 0.370884 0)
(4.91015 0.376758 0)
(4.88871 0.386377 -2.37406e-21)
(4.87358 0.401652 -2.53295e-20)
(4.86247 0.422947 3.4038e-20)
(4.84972 0.449123 0)
(4.82569 0.475152 1.04717e-19)
(4.77969 0.494513 0)
(4.70335 0.496075 0)
(4.59756 0.4777 1.34966e-19)
(4.49055 0.421027 1.68475e-19)
(4.44704 0.328361 -2.1323e-20)
(4.40538 0.217308 3.32663e-19)
(4.42548 0.112065 -3.52545e-19)
(4.54663 0.0178107 0)
(4.68508 -0.0578079 0)
(4.77197 -0.129025 0)
(4.80268 -0.191408 0)
(4.80134 -0.244911 0)
(4.79273 -0.298693 0)
(4.7954 -0.351683 0)
(4.81794 -0.399384 -7.14379e-20)
(4.8609 -0.438443 6.70073e-20)
(4.91874 -0.465801 -1.6103e-19)
(4.98443 -0.479898 -1.33294e-19)
(5.05119 -0.480814 7.3449e-19)
(5.11346 -0.469434 -4.14916e-19)
(5.16886 -0.448363 5.3092e-19)
(5.21678 -0.421382 -3.66944e-19)
(5.25223 -0.385806 0)
(5.26876 -0.334655 3.27525e-20)
(5.28407 -0.290425 0)
(5.2438 0.283671 4.20297e-19)
(5.22055 0.308242 3.43665e-19)
(5.19292 0.331207 -3.73377e-19)
(5.15787 0.350782 -5.93147e-20)
(5.11714 0.367719 2.12953e-19)
(5.07351 0.381102 -4.99282e-20)
(5.02989 0.389993 0)
(4.98915 0.395126 -2.08536e-20)
(4.95367 0.398629 2.28524e-20)
(4.92512 0.402911 -3.98218e-21)
(4.90446 0.410261 0)
(4.89111 0.422352 -8.79609e-20)
(4.88306 0.440407 1.29769e-19)
(4.87534 0.463858 -3.55547e-20)
(4.85953 0.490908 1.06383e-19)
(4.82361 0.516429 -2.01751e-19)
(4.75699 0.533938 0)
(4.65437 0.53203 1.72743e-19)
(4.5205 0.50862 2.87283e-19)
(4.37662 0.449642 -2.49084e-19)
(4.30271 0.35728 -2.45511e-20)
(4.25105 0.241898 0)
(4.26564 0.132178 8.25036e-19)
(4.3877 0.0341134 0)
(4.54137 -0.0463015 7.84014e-19)
(4.65621 -0.12723 -1.58846e-20)
(4.71495 -0.202749 -3.08791e-19)
(4.73092 -0.268483 4.56753e-19)
(4.72839 -0.335677 -4.25889e-19)
(4.73159 -0.403328 1.56696e-19)
(4.75427 -0.465359 0)
(4.80039 -0.516339 0)
(4.86614 -0.552676 0)
(4.94434 -0.573561 0)
(5.02614 -0.578357 -4.65043e-19)
(5.10414 -0.567807 4.37967e-19)
(5.17441 -0.54509 -8.10069e-19)
(5.23526 -0.514088 3.54436e-19)
(5.28139 -0.472369 0)
(5.30671 -0.414289 0)
(5.33111 -0.365832 9.2475e-20)
(5.26194 0.335797 7.84498e-20)
(5.22974 0.358399 4.08489e-19)
(5.19488 0.378895 0)
(5.15288 0.396359 8.02943e-20)
(5.10504 0.411168 4.30616e-20)
(5.05583 0.422012 -1.14135e-19)
(5.01 0.428285 0)
(4.97093 0.431527 -2.21939e-21)
(4.94049 0.434546 4.9793e-20)
(4.91931 0.43978 -5.36572e-20)
(4.90689 0.44936 -9.17444e-20)
(4.90096 0.464354 1.07397e-19)
(4.89723 0.484955 0)
(4.88821 0.509557 -5.60179e-20)
(4.86396 0.535714 1.14935e-19)
(4.8113 0.558284 2.55865e-20)
(4.72095 0.571455 1.85703e-19)
(4.58959 0.564606 -6.90527e-19)
(4.42796 0.534295 -3.39603e-19)
(4.25086 0.469875 2.54701e-19)
(4.14652 0.375912 2.6941e-19)
(4.0826 0.254182 0)
(4.09337 0.138904 -7.43501e-19)
(4.21609 0.036536 5.01375e-19)
(4.38007 -0.0484993 -7.31929e-19)
(4.51889 -0.13862 -1.7278e-20)
(4.60549 -0.226762 -3.98344e-19)
(4.64106 -0.307395 0)
(4.64897 -0.391429 4.61766e-19)
(4.65686 -0.477137 -5.97587e-19)
(4.6832 -0.55732 0)
(4.73563 -0.622836 0)
(4.81203 -0.668899 2.12147e-20)
(4.9038 -0.695597 0)
(5.0014 -0.702135 0)
(5.09619 -0.690151 -7.10093e-19)
(5.18289 -0.663091 8.40528e-19)
(5.25858 -0.625284 1.9025e-19)
(5.31695 -0.574386 2.34116e-19)
(5.35109 -0.506235 8.52501e-19)
(5.3842 -0.451733 -9.06174e-19)
(5.27633 0.393989 0)
(5.23546 0.414072 2.15525e-19)
(5.19374 0.431772 2.69435e-20)
(5.14428 0.446834 1.0606e-19)
(5.08939 0.459093 -1.03093e-19)
(5.03653 0.467097 1.60469e-19)
(4.99188 0.470998 -2.17155e-20)
(4.95824 0.473138 2.02416e-20)
(4.936 0.476725 5.50205e-21)
(4.92364 0.483942 -7.96475e-20)
(4.91977 0.496307 9.42429e-20)
(4.91861 0.513939 1.59207e-19)
(4.91462 0.536171 -1.80576e-19)
(4.89796 0.56033 2.68253e-19)
(4.85888 0.583444 -1.2352e-19)
(4.7841 0.600334 -1.49024e-19)
(4.66696 0.606029 -4.35813e-19)
(4.50449 0.591468 4.61783e-19)
(4.31458 0.552333 2.54327e-19)
(4.10809 0.479415 -2.74874e-19)
(3.97582 0.381664 -2.51799e-19)
(3.8989 0.251539 -3.84289e-20)
(3.90846 0.129602 0)
(4.03306 0.0214955 -3.22783e-19)
(4.20504 -0.0692547 1.837e-18)
(4.3648 -0.16995 -2.83144e-19)
(4.47692 -0.270978 -5.99142e-20)
(4.53299 -0.3709 -8.30695e-19)
(4.55596 -0.476841 7.21443e-19)
(4.57513 -0.585383 -2.57947e-19)
(4.61201 -0.689583 -2.09667e-19)
(4.67641 -0.773968 1.94774e-19)
(4.76566 -0.831536 -1.50353e-19)
(4.87214 -0.861187 3.82491e-19)
(4.98605 -0.864546 -4.27515e-19)
(5.09767 -0.845345 -9.13634e-19)
(5.20139 -0.808148 5.88512e-19)
(5.29339 -0.758829 0)
(5.36501 -0.693522 -5.48651e-19)
(5.40834 -0.610173 0)
(5.45052 -0.545224 0)
(5.2873 0.458698 0)
(5.23904 0.476273 -4.56211e-19)
(5.19071 0.491453 -4.14924e-19)
(5.13329 0.504107 -8.48335e-20)
(5.07279 0.51365 -6.09568e-20)
(5.02003 0.519001 -3.65271e-20)
(4.98088 0.521377 -4.58031e-21)
(4.95614 0.523508 1.51202e-20)
(4.94385 0.528517 -1.27985e-19)
(4.94057 0.537987 2.44392e-19)
(4.94239 0.552779 -2.60391e-19)
(4.94162 0.571834 3.62054e-19)
(4.93175 0.594146 4.08374e-20)
(4.90113 0.615835 -2.87213e-19)
(4.84162 0.633891 9.98553e-20)
(4.74013 0.642637 -2.35293e-19)
(4.59405 0.638128 -2.7208e-19)
(4.39871 0.611893 7.41071e-19)
(4.17915 0.559866 -1.55787e-19)
(3.94428 0.4736 -7.49583e-19)
(3.78739 0.36846 4.9167e-20)
(3.69874 0.22909 -6.66743e-19)
(3.71242 0.101842 -2.71676e-20)
(3.84123 -0.0136075 -6.37804e-19)
(4.02083 -0.113204 -2.77881e-19)
(4.19974 -0.2278 -7.51068e-19)
(4.33402 -0.344949 -1.44704e-20)
(4.41022 -0.471358 1.0378e-18)
(4.45231 -0.606601 -4.03491e-19)
(4.48964 -0.745586 -2.0694e-19)
(4.5446 -0.878386 2.08617e-19)
(4.62736 -0.983454 2.22683e-19)
(4.73668 -1.05513 -1.97548e-19)
(4.86574 -1.0867 3.6042e-19)
(5.00085 -1.08191 -6.71368e-20)
(5.13127 -1.04702 -1.23514e-18)
(5.25089 -0.989332 1.81879e-18)
(5.35639 -0.919007 -3.99528e-19)
(5.43797 -0.830441 3.20334e-19)
(5.48973 -0.725495 0)
(5.54148 -0.643694 1.41625e-18)
(5.29707 0.530649 -5.03012e-19)
(5.24411 0.547125 7.85991e-19)
(5.18872 0.560966 2.71806e-20)
(5.12353 0.571706 2.40044e-19)
(5.06102 0.579094 2.7813e-19)
(5.01322 0.582738 3.74608e-20)
(4.98316 0.584914 3.21101e-20)
(4.96849 0.587848 -4.18826e-20)
(4.96479 0.59437 -1.14356e-19)
(4.96661 0.604955 -3.63545e-21)
(4.96859 0.619973 1.44428e-19)
(4.96046 0.637177 0)
(4.93741 0.656167 0)
(4.88503 0.671438 8.52596e-20)
(4.80067 0.681757 -1.04433e-19)
(4.66901 0.679466 9.98739e-20)
(4.49412 0.663049 0)
(4.26702 0.622729 -3.28496e-19)
(4.02051 0.556025 1.01142e-19)
(3.75872 0.452555 1.15627e-18)
(3.58158 0.333045 0)
(3.48216 0.180595 9.608e-19)
(3.50814 0.0502464 4.60337e-19)
(3.64619 -0.0717059 9.26542e-19)
(3.83447 -0.184994 -8.95572e-19)
(4.03075 -0.318738 8.19399e-19)
(4.18221 -0.457309 7.9406e-19)
(4.27701 -0.62033 0)
(4.33828 -0.793438 -4.69749e-19)
(4.39759 -0.972049 0)
(4.47652 -1.13766 -2.33099e-19)
(4.58964 -1.26679 1.50444e-19)
(4.73523 -1.35344 -8.96083e-20)
(4.90246 -1.38265 -4.69885e-19)
(5.06997 -1.36295 1.20614e-18)
(5.22556 -1.29921 0)
(5.36026 -1.20793 -3.9742e-19)
(5.47391 -1.10313 -1.54237e-18)
(5.55728 -0.980894 1.85816e-18)
(5.61313 -0.848218 1.84882e-18)
(5.67097 -0.742664 -1.75267e-18)
(5.31483 0.612312 0)
(5.25827 0.631275 -5.52372e-19)
(5.19348 0.645137 4.71453e-19)
(5.12303 0.655247 -3.09628e-19)
(5.06463 0.661983 -6.17028e-20)
(5.02552 0.665581 0)
(5.00506 0.668674 6.09926e-20)
(4.99779 0.672318 -9.71027e-20)
(4.9972 0.678975 -1.05339e-19)
(4.99701 0.687805 1.48469e-19)
(4.99035 0.699622 0)
(4.96598 0.710826 0)
(4.92206 0.721827 0)
(4.83926 0.724602 -1.24825e-19)
(4.72686 0.721876 -1.51114e-19)
(4.55793 0.701283 1.54804e-19)
(4.35524 0.668086 0)
(4.09324 0.606816 -4.51494e-19)
(3.82625 0.523643 0)
(3.54016 0.405006 -1.09764e-18)
(3.35477 0.274947 6.62587e-20)
(3.25329 0.109433 -3.99503e-19)
(3.30032 -0.031057 -7.69685e-19)
(3.45258 -0.161312 0)
(3.65054 -0.292077 0)
(3.85932 -0.45335 5.00539e-19)
(4.01943 -0.621528 -1.74744e-18)
(4.12737 -0.829212 3.91108e-19)
(4.20528 -1.04579 0)
(4.28883 -1.26999 -6.01088e-19)
(4.40116 -1.46921 2.5189e-19)
(4.56522 -1.62442 -2.65232e-19)
(4.76841 -1.72154 4.08489e-19)
(4.99583 -1.74298 1.14211e-19)
(5.21362 -1.69739 -3.02922e-18)
(5.40876 -1.5889 -2.23419e-19)
(5.56093 -1.45016 1.20096e-18)
(5.67798 -1.29332 -2.76762e-18)
(5.75192 -1.13126 2.61001e-18)
(5.80268 -0.964766 2.55258e-18)
(5.8547 -0.830489 -4.93781e-18)
(5.35976 0.708323 8.24967e-19)
(5.29309 0.734163 6.90914e-19)
(5.21697 0.748273 0)
(5.14671 0.760996 0)
(5.09775 0.768982 9.05168e-20)
(5.06608 0.774951 -9.93661e-20)
(5.05011 0.777829 -7.08385e-21)
(5.04281 0.780894 -2.20475e-20)
(5.03601 0.783754 9.84045e-20)
(5.02612 0.786928 -4.47452e-20)
(5.00025 0.790257 -2.56689e-19)
(4.95429 0.79046 3.17159e-19)
(4.88388 0.788809 0)
(4.76559 0.774411 3.49328e-19)
(4.62864 0.756826 -4.8543e-19)
(4.41133 0.712491 1.8061e-19)
(4.19136 0.661429 0)
(3.8783 0.568687 2.14122e-19)
(3.6052 0.464759 -2.999e-19)
(3.28209 0.315999 5.85877e-19)
(3.10424 0.175721 0)
(3.01375 0.00261179 -1.81468e-19)
(3.09039 -0.140311 8.51465e-19)
(3.26122 -0.287912 0)
(3.4721 -0.433931 -6.7824e-19)
(3.68684 -0.62665 1.75091e-18)
(3.84816 -0.825957 -1.51914e-18)
(3.96219 -1.0844 7.62157e-19)
(4.0575 -1.34555 0)
(4.16209 -1.63095 3.55405e-19)
(4.32027 -1.8651 -1.97622e-20)
(4.54821 -2.04861 -2.58473e-19)
(4.82455 -2.14437 -1.79165e-19)
(5.14041 -2.14599 3.03789e-18)
(5.43439 -2.057 -1.79017e-18)
(5.70946 -1.87881 -3.08505e-18)
(5.87236 -1.68366 1.82994e-18)
(5.99686 -1.45497 1.15818e-18)
(6.04313 -1.25689 0)
(6.07012 -1.04897 -1.02188e-18)
(6.0901 -0.892947 0)
(5.44093 0.819726 -4.70095e-19)
(5.3653 0.853027 -2.71271e-19)
(5.27576 0.875727 4.19791e-19)
(5.21832 0.894636 0)
(5.168 0.906094 1.21019e-19)
(5.13845 0.916261 -1.3273e-19)
(5.10933 0.913864 7.28965e-21)
(5.09323 0.915162 -1.39614e-19)
(5.06142 0.903787 1.12666e-19)
(5.03853 0.898566 2.26702e-19)
(4.97606 0.882478 -2.41253e-19)
(4.9131 0.867894 0)
(4.80362 0.845603 -2.10307e-19)
(4.65187 0.81153 3.65917e-20)
(4.49652 0.778553 1.16223e-19)
(4.21218 0.706342 1.8613e-19)
(4.01053 0.64938 0)
(3.6077 0.517307 -2.89238e-19)
(3.38365 0.418291 6.04411e-19)
(2.98671 0.217111 0)
(2.85608 0.0790882 0)
(2.77189 -0.158468 6.86485e-19)
(2.86508 -0.28049 2.0739e-19)
(3.06038 -0.489164 -8.50446e-19)
(3.26708 -0.670025 7.31399e-19)
(3.45943 -0.937774 -1.2866e-18)
(3.59067 -1.19342 2.689e-18)
(3.67653 -1.50695 -1.62157e-18)
(3.79758 -1.78414 3.17948e-19)
(3.92225 -2.09294 0)
(4.20905 -2.30357 -3.88088e-19)
(4.49444 -2.4931 3.15618e-19)
(4.96589 -2.51709 -6.80981e-19)
(5.34572 -2.5231 -2.84302e-19)
(5.85167 -2.32771 -8.47602e-20)
(6.12649 -2.13946 -1.85798e-18)
(6.32125 -1.83366 2.91331e-18)
(6.42505 -1.56899 -2.90149e-18)
(6.40473 -1.31617 0)
(6.394 -1.05903 1.12289e-18)
(6.35264 -0.910522 0)
(6.33354 -0.724519 2.21619e-18)
(6.11837 -0.764286 -3.49161e-18)
(5.91976 -0.749929 5.28289e-18)
(5.75078 -0.695591 2.10236e-18)
(5.62036 -0.619848 -1.49822e-18)
(5.52115 -0.534952 -1.33998e-18)
(5.44553 -0.448125 -1.11588e-18)
(5.38281 -0.364881 0)
(5.32581 -0.291101 -8.16252e-19)
(5.27118 -0.226673 0)
(5.21861 -0.169772 6.22844e-19)
(5.17121 -0.120389 0)
(5.1317 -0.0782439 0)
(5.10201 -0.0480007 4.17056e-19)
(5.08235 -0.0105959 0)
(5.04061 0.0105132 6.70894e-21)
(4.82206 0.0726604 -7.21883e-21)
(6.29887 -0.618609 -3.60845e-18)
(6.1312 -0.640951 3.70745e-18)
(5.96638 -0.639116 -2.88357e-18)
(5.81266 -0.610858 -3.5551e-18)
(5.68348 -0.563141 9.09235e-19)
(5.57934 -0.501836 1.4254e-18)
(5.49826 -0.433332 8.91102e-19)
(5.43243 -0.363143 1.41785e-18)
(5.37302 -0.297197 8.59747e-19)
(5.31765 -0.237595 -8.57752e-19)
(5.2661 -0.18326 -5.66522e-19)
(5.21897 -0.133315 -4.69052e-20)
(5.17759 -0.0877667 -3.64588e-20)
(5.1453 -0.0532476 1.08303e-19)
(5.1229 -0.0115807 -3.4434e-21)
(5.08844 -0.0107673 0)
(4.84766 0.0650721 0)
(6.2751 -0.465882 2.36526e-18)
(6.1326 -0.51858 8.99046e-19)
(5.99675 -0.54061 0)
(5.86514 -0.535028 6.4402e-18)
(5.74541 -0.508663 -3.22109e-18)
(5.64209 -0.467117 8.25608e-19)
(5.55608 -0.41409 7.54774e-19)
(5.48669 -0.356375 1.36017e-19)
(5.42498 -0.297872 -2.5995e-19)
(5.36793 -0.24279 1.1596e-18)
(5.31576 -0.191535 -9.13558e-19)
(5.26851 -0.143223 0)
(5.22648 -0.0978846 7.69996e-19)
(5.19164 -0.061127 -5.6869e-19)
(5.16625 -0.0162835 -8.73476e-21)
(5.1319 -0.0192924 5.3323e-19)
(4.87712 0.0702767 4.2285e-19)
(6.23006 -0.393333 0)
(6.1215 -0.426066 -2.08307e-18)
(6.01015 -0.447509 -1.73406e-18)
(5.90018 -0.455501 -2.76715e-18)
(5.79515 -0.446695 1.56146e-19)
(5.69936 -0.422552 3.21406e-18)
(5.61361 -0.385603 -1.6609e-18)
(5.54133 -0.340546 -1.07196e-18)
(5.4788 -0.291008 -1.72704e-18)
(5.42138 -0.241947 0)
(5.36926 -0.195132 9.59724e-19)
(5.32231 -0.149814 8.73369e-19)
(5.27971 -0.105777 2.38922e-19)
(5.24216 -0.0679006 -4.254e-20)
(5.21348 -0.0220352 -6.67846e-19)
(5.17784 -0.0247587 1.32476e-19)
(4.91292 0.0732222 -4.20136e-19)
(6.1968 -0.277333 0)
(6.10531 -0.329148 2.08974e-18)
(6.01388 -0.361119 -8.59725e-20)
(5.92322 -0.379731 -1.58951e-18)
(5.83395 -0.38266 0)
(5.74872 -0.37163 -2.36957e-18)
(5.66838 -0.348946 -1.07135e-18)
(5.59539 -0.315767 2.24014e-18)
(5.53259 -0.276494 -5.46702e-19)
(5.47585 -0.234198 0)
(5.42424 -0.192581 -2.91579e-19)
(5.37774 -0.15174 4.30569e-19)
(5.33499 -0.110848 -9.23228e-19)
(5.29558 -0.0738678 -9.16114e-19)
(5.26394 -0.0277261 -1.73993e-19)
(5.22646 -0.0284527 -1.52467e-18)
(4.95256 0.0749532 0)
(6.15561 -0.224452 -1.18112e-18)
(6.08488 -0.258351 1.19292e-18)
(6.011 -0.286478 1.93662e-18)
(5.93587 -0.308385 -3.5112e-18)
(5.86169 -0.31884 5.64282e-20)
(5.78843 -0.317531 1.30269e-18)
(5.71659 -0.305668 -2.30154e-18)
(5.647 -0.284217 -4.04346e-19)
(5.58422 -0.254755 3.21693e-19)
(5.52883 -0.22012 -1.6807e-18)
(5.47844 -0.184357 0)
(5.43274 -0.148746 -2.6169e-18)
(5.3904 -0.112091 1.42051e-19)
(5.35055 -0.0777321 2.02361e-18)
(5.31717 -0.0324364 9.57982e-19)
(5.27802 -0.0315839 7.81094e-19)
(4.9951 0.0749505 0)
(6.12086 -0.133067 1.39607e-18)
(6.06193 -0.180203 -2.36959e-18)
(6.00195 -0.215074 2.22752e-18)
(5.94044 -0.241618 -1.89942e-18)
(5.87966 -0.257908 4.55657e-20)
(5.8182 -0.26355 1.62262e-18)
(5.75597 -0.259864 2.74272e-18)
(5.69316 -0.247876 1.2221e-18)
(5.63232 -0.227359 1.00632e-18)
(5.5782 -0.201081 1.80112e-18)
(5.52961 -0.17132 -4.08921e-19)
(5.4854 -0.140986 1.86638e-18)
(5.44446 -0.109277 1.69577e-19)
(5.40568 -0.0785587 -1.37955e-18)
(5.37209 -0.0357921 -7.15048e-20)
(5.3312 -0.0340449 7.01973e-19)
(5.03945 0.0729732 4.96372e-19)
(6.08591 -0.0919036 8.21475e-20)
(6.03803 -0.124495 2.52365e-18)
(5.99004 -0.154791 -2.37647e-18)
(5.93877 -0.181555 4.10102e-18)
(5.88864 -0.200895 -1.90933e-18)
(5.83806 -0.211261 -3.32123e-18)
(5.78553 -0.21374 -1.46549e-18)
(5.73087 -0.208712 0)
(5.67509 -0.196657 -1.80936e-18)
(5.62269 -0.17788 5.60377e-19)
(5.57639 -0.154359 0)
(5.5346 -0.129061 0)
(5.49603 -0.102312 8.65714e-19)
(5.45936 -0.0755413 0)
(5.42694 -0.0378678 7.44587e-19)
(5.38348 -0.034051 -6.19813e-19)
(5.08472 0.0667306 -5.4369e-19)
(6.05138 -0.0153822 1.54267e-18)
(6.01188 -0.0590472 1.35059e-18)
(5.97235 -0.0942963 -1.2278e-18)
(5.93091 -0.124589 2.19885e-18)
(5.88995 -0.147163 -2.0789e-18)
(5.84882 -0.16161 3.49667e-20)
(5.80535 -0.168885 3.3327e-18)
(5.75905 -0.169398 -1.49089e-18)
(5.71046 -0.163663 2.74056e-18)
(5.66201 -0.151557 -6.03536e-19)
(5.61841 -0.134454 1.19711e-18)
(5.57973 -0.113876 5.35307e-19)
(5.54411 -0.0915981 -9.21493e-19)
(5.51007 -0.0687591 0)
(5.47955 -0.0375535 -1.65151e-18)
(5.43263 -0.0304856 -8.22922e-19)
(5.12956 0.0568548 -7.56248e-19)
(6.01961 0.0190737 0)
(5.9853 -0.0119128 -4.67617e-20)
(5.95377 -0.0432189 2.66436e-18)
(5.91948 -0.0732928 -1.23778e-18)
(5.88514 -0.0976985 -3.27937e-18)
(5.8514 -0.115241 3.07268e-18)
(5.81611 -0.12617 -1.81243e-18)
(5.77807 -0.131115 8.82081e-19)
(5.73744 -0.130096 -8.24521e-21)
(5.69549 -0.123777 2.12541e-18)
(5.65555 -0.112182 -1.92255e-18)
(5.62004 -0.0964418 -1.22639e-18)
(5.58742 -0.0784005 0)
(5.55617 -0.0591221 0)
(5.52779 -0.034505 9.1866e-19)
(5.47823 -0.0243838 8.64401e-19)
(5.171 0.046564 -9.641e-20)
(5.98275 0.0856262 2.52895e-18)
(5.95629 0.0455922 -1.63309e-18)
(5.92985 0.0107889 1.41771e-18)
(5.90186 -0.0213972 -3.77749e-20)
(5.87391 -0.0487954 1.18493e-18)
(5.84664 -0.0697172 -7.47583e-21)
(5.81881 -0.0845547 0)
(5.78879 -0.0936955 -1.80247e-20)
(5.75625 -0.097077 -8.61936e-19)
(5.7217 -0.0952691 -2.34398e-18)
(5.68669 -0.0887838 1.98544e-21)
(5.65416 -0.0781072 1.32389e-18)
(5.62436 -0.064384 0)
(5.59583 -0.048181 1.5063e-18)
(5.56954 -0.0302086 -1.42949e-18)
(5.51794 -0.0165644 1.08641e-18)
(5.20566 0.0352742 9.29746e-19)
(5.95305 0.114152 -2.74615e-18)
(5.92697 0.0875309 -8.97729e-21)
(5.90489 0.0580488 0)
(5.8817 0.0270491 -7.03709e-19)
(5.85857 -0.00143342 -2.06789e-20)
(5.83638 -0.0251075 -1.2126e-18)
(5.81478 -0.0435744 -1.10337e-18)
(5.79215 -0.0566708 2.07742e-18)
(5.76712 -0.064417 -5.9341e-21)
(5.73941 -0.0670392 -9.00549e-19)
(5.70987 -0.0654774 8.11148e-19)
(5.68062 -0.0597476 -7.7762e-19)
(5.65357 -0.0507187 0)
(5.62789 -0.0377674 -9.73819e-19)
(5.60359 -0.0254765 9.05605e-19)
(5.54956 -0.00909855 -1.15461e-18)
(5.23142 0.0243783 0)
(5.91316 0.169959 1.94721e-18)
(5.89449 0.138061 -9.15885e-19)
(5.87568 0.107754 -3.33524e-18)
(5.8562 0.077174 3.09016e-18)
(5.83743 0.0478568 -7.28852e-19)
(5.82036 0.0218047 0)
(5.80449 -0.000117317 0)
(5.7882 -0.0174226 0)
(5.76958 -0.0298946 0)
(5.74779 -0.0376602 0)
(5.72358 -0.0411615 9.07536e-19)
(5.69852 -0.0408368 -2.14921e-20)
(5.67479 -0.0370997 0)
(5.65253 -0.028507 0)
(5.62998 -0.0205407 0)
(5.57295 -0.00324091 -6.90689e-19)
(5.24653 0.014521 0)
(5.88462 0.188943 0)
(5.86275 0.171493 9.86529e-19)
(5.84505 0.149503 1.78517e-18)
(5.82823 0.123189 -2.51214e-18)
(5.81302 0.0958424 7.49371e-19)
(5.80013 0.0696876 6.84126e-19)
(5.78858 0.045892 -1.98765e-18)
(5.77659 0.0253012 0)
(5.76262 0.00851042 1.14218e-18)
(5.74593 -0.00439217 -1.08324e-18)
(5.72692 -0.0133691 -1.00184e-18)
(5.70686 -0.0190106 9.45441e-19)
(5.68763 -0.0211384 -1.78315e-18)
(5.66974 -0.0188239 1.26496e-18)
(5.64917 -0.0149554 -1.20567e-18)
(5.58853 0.000569816 -2.4425e-20)
(5.24898 0.00643468 0)
(5.84287 0.22534 -2.80693e-18)
(5.82738 0.207301 2.61089e-18)
(5.81169 0.187837 0)
(5.79694 0.165803 0)
(5.78459 0.141908 0)
(5.77472 0.117598 -7.74588e-19)
(5.76589 0.0940041 7.19606e-19)
(5.75643 0.0718881 0)
(5.74544 0.051925 6.18304e-19)
(5.73258 0.0346474 0)
(5.71795 0.0204163 0)
(5.70251 0.00851449 5.1693e-19)
(5.68836 0.000224569 0)
(5.67621 -0.00591964 -2.3336e-21)
(5.65963 -0.00631799 4.28883e-19)
(5.59496 0.00382442 8.24729e-19)
(5.23607 0.00156733 0)
(5.81663 0.228354 6.12693e-19)
(5.79568 0.222325 -1.11373e-18)
(5.77858 0.212321 0)
(5.76432 0.197221 -2.3723e-18)
(5.75338 0.178961 1.34342e-18)
(5.74465 0.159165 0)
(5.7363 0.138474 -3.79409e-19)
(5.72724 0.117543 0)
(5.71711 0.0970356 -2.01162e-18)
(5.70565 0.0773837 1.88788e-18)
(5.6929 0.0590589 0)
(5.68006 0.0416972 5.61119e-19)
(5.67005 0.0274308 0)
(5.66631 0.0119947 5.02003e-19)
(5.66101 0.00754417 4.76249e-19)
(5.5871 0.0056507 0)
(5.20497 -1.61847e-05 -4.37109e-19)
(5.77715 0.23515 0)
(5.76074 0.230919 5.99595e-19)
(5.74457 0.223722 5.37883e-19)
(5.73062 0.214388 5.14045e-19)
(5.71932 0.202116 4.77144e-19)
(5.70932 0.187832 0)
(5.69909 0.17181 4.13752e-19)
(5.68807 0.1543 1.9044e-18)
(5.67608 0.135589 -1.4401e-18)
(5.66283 0.116019 -2.0257e-18)
(5.6485 0.095872 2.85771e-18)