/*--------------------------------*- C++ -*----------------------------------*\
  =========                 |
  \\      /  F ield         | OpenFOAM: The Open Source CFD Toolbox
   \\    /   O peration     | Website:  https://openfoam.org
    \\  /    A nd           | Version:  6
     \\/     M anipulation  |
\*---------------------------------------------------------------------------*/
FoamFile
{
    version     2.0;
    format      ascii;
    class       volScalarField;
    location    "1.62";
    object      p;
}
// * * * * * * * * * * * * * * * * * * * * * * * * * * * * * * * * * * * * * //

dimensions      [1 -1 -2 0 0 0 0];

internalField   nonuniform List<scalar> 
10000
(
1
1
1
1
1
1
1
1
1
1
1
1
1
1
1
1
1
1
1
1
1
1
1
1
1
1
1
1
1
1
1
1
1
1
1
1
1
1
1
1
1
1
1
1
1
1
1
1
1
1
1
1
1
1
1
1
1
1
1
1
1
1
1
1
1
1
1
1
1
1
1
1
1
1
1
1
1
1
1
1
1
1
1
1
1
1
1
1
1
1
1
1
1
1
1
1
1
1
1
1
1
1
1
1
1
1
1
1
1
1
1
1
1
1
1
1
1
1
1
1
1
1
1
1
1
1
1
1
1
1
1
1
1
1
1
1
1
1
1
1
1
1
1
1
1
1
1
1
1
1
1
1
1
1
1
1
1
1
1
1
1
1
1
1
1
1
1
1
1
1
1
1
1
1
1
1
1
1
1
1
1
1
1
1
1
1
1
1
1
1
1
1
1
1
1
1
1
1
1
1
1
1
1
1
1
1
1
1
1
1
1
1
1
1
1
1
1
1
1
1
1
1
1
1
1
1
1
1
1
1
1
1
1
1
1
1
1
1
1
1
1
1
1
1
1
1
1
1
1
1
1
1
1
1
1
1
1
1
1
1
1
1
1
1
1
1
1
1
1
1
1
1
1
1
1
1
1
1
1
1
1
1
1
1
1
1
1
1
1
1
1
1
1
1
1
1
1
1
1
1
1
1
1
1
1
1
1
1
1
1
1
1
1
1
1
1
1
1
1
1
1
1
1
1
1
1
1
1
1
1
1
1
1
1
1
1
1
1
1
1
1
1
1
1
1
1
1
1
1
1
1
1
1
1
1
1
1
1
1
1
1
1
1
1
1
1
1
1
1
1
1
1
1
1
1
1
1
1
1
1
1
1
1
1
1
1
1
1
1
1
1
1
1
1
1
1
1
1
1
1
1
1
1
1
1
1
1
1
1
1
1
1
1
1
1
1
1
1
1
1
1
1
1
1
1
1
1
1
1
1
1
1
1
1
1
1
1
1
1
1
1
1
1
1
1
1
1
1
1
1
1
1
1
1
1
1
1
1
1
1
1
1
1
1
1
1
1
1
1
1
1
1
1
1
1
1
1
1
1
1
1
1
1
1
1
1
1
1
1
1
1
1
1
1
1
1
1
1
1
1
1
1
1
1
1
1
1
1
1
1
1
1
1
1
1
1
1
1
1
1
1
1
1
1
1
1
1
1
1
1
1
1
1
1
1
1
1
1
1
1
1
1
1
1
1
1
1
0.999999
0.999999
0.999999
0.999999
0.999999
0.999999
1
1
1
1
1
1
1
1
1
1
1
1
1
1
1
0.999999
0.999999
0.999999
0.999999
0.999999
0.999999
0.999999
0.999999
1
1
1
1
1
1
1
1
1
1
1
1
1
1
1
1
1
1
1
1
1
1
1
1
1
1
1
1
1
1
1
1
1
1
1
1
1
1
1
1
1
1
1
1
1
1
1
1
1
1
1
1
1
1
1
1
1
1
1
1
1
1
1
1
1
1
1
1
1
0.999999
0.999999
0.999999
0.999999
0.999999
0.999999
0.999999
0.999999
0.999999
0.999999
1
1
1
1
1
1
1
1
1
1
1
1
1
0.999999
0.999999
0.999998
0.999998
0.999998
0.999998
0.999998
0.999999
0.999999
0.999999
1
1
1
1
1
1
1
1
1
1
1
1
1
1
1
1
1
1
1
1
1
1
1
1
1
1
1
1
1
1
1
1
1
1
1
1
1
1
1
1
1
1
1
1
1
1
1
1
1
1
1
1
1
1
1
1
1
1
1
1
1
1
1
1
1
1
1
0.999999
0.999999
0.999999
0.999998
0.999998
0.999998
0.999998
0.999998
0.999998
0.999999
1
1
1
1
1
1.00001
1.00001
1.00001
1.00001
1.00001
1.00001
1
1
1
0.999999
0.999997
0.999997
0.999996
0.999996
0.999997
0.999997
0.999998
0.999998
0.999999
0.999999
1
1
1
1
1
1
1
1
1
1
1
1
1
1
1
1
1
1
1
1
1
1
1
1
1
1
1
1
1
1
1
1
1
1
1
1
1
1
1
1
1
1
1
1
1
1
1
1
1
1
1
1
1
1
1
1
1
1
1
1
1
1
0.999999
0.999999
0.999999
0.999999
0.999998
0.999998
0.999997
0.999997
0.999996
0.999996
0.999996
0.999997
0.999997
0.999999
1
1
1
1.00001
1.00001
1.00001
1.00001
1.00001
1.00001
1.00001
1.00001
1.00001
1
1
0.999998
0.999996
0.999994
0.999993
0.999994
0.999994
0.999995
0.999997
0.999998
0.999998
0.999999
0.999999
1
1
1
1
1
1
1
1
1
1
1
1
1
1
1
1
1
1
1
1
1
1
1
1
1
1
1
1
1
1
1
1
1
1
1
1
1
1
1
1
1
1
1
1
1
1
1
1
1
1
1
1
1
1
1
1
1
1
1
0.999999
0.999999
0.999999
0.999999
0.999998
0.999997
0.999997
0.999996
0.999995
0.999994
0.999994
0.999994
0.999994
0.999995
0.999997
0.999999
1
1.00001
1.00001
1.00001
1.00002
1.00002
1.00002
1.00003
1.00002
1.00002
1.00002
1.00001
1.00001
1
0.999997
0.999993
0.99999
0.99999
0.99999
0.999991
0.999993
0.999995
0.999997
0.999998
0.999999
0.999999
1
1
1
1
1
1
1
1
1
1
1
1
1
1
1
1
1
1
1
1
1
1
1
1
1
1
1
1
1
1
1
1
1
1
1
1
1
1
1
1
1
1
1
1
1
1
1
1
1
1
1
1
1
1
1
1
0.999999
0.999999
0.999999
0.999999
0.999998
0.999998
0.999997
0.999996
0.999995
0.999993
0.999992
0.999991
0.99999
0.99999
0.99999
0.999992
0.999994
0.999997
1
1.00001
1.00002
1.00002
1.00003
1.00004
1.00004
1.00005
1.00005
1.00005
1.00004
1.00004
1.00003
1.00001
1
0.999996
0.99999
0.999987
0.999985
0.999986
0.999988
0.999991
0.999993
0.999996
0.999997
0.999999
0.999999
1
1
1
1
1
1
1
1
1
1
1
1
1
1
1
1
1
1
1
1
1
1
1
1
1
1
1
1
1
1
1
1
1
1
1
1
1
1
1
1
1
1
1
1
1
1
1
1
1
1
1
1
1
1
0.999999
1
0.999999
0.999999
0.999998
0.999997
0.999996
0.999995
0.999993
0.999991
0.99999
0.999988
0.999986
0.999985
0.999984
0.999984
0.999985
0.999988
0.999994
1
1.00001
1.00002
1.00003
1.00005
1.00006
1.00008
1.00009
1.00009
1.00009
1.00009
1.00008
1.00007
1.00005
1.00003
1.00001
0.999997
0.999987
0.999981
0.99998
0.999982
0.999985
0.999989
0.999992
0.999995
0.999997
0.999999
0.999999
1
1
1
1
1
1
1
1
1
1
1
1
1
1
1
1
1
1
1
1
1
1
1
1
1
1
1
1
1
1
1
1
1
1
1
1
1
1
1
1
1
1
1
1
1
1
1
1
1
1
1
1
1
0.999998
1
0.999999
0.999998
0.999997
0.999995
0.999994
0.999992
0.99999
0.999987
0.999985
0.999981
0.999978
0.999976
0.999974
0.999974
0.999975
0.999979
0.999986
0.999996
1.00001
1.00003
1.00005
1.00008
1.0001
1.00013
1.00015
1.00017
1.00018
1.00018
1.00017
1.00015
1.00012
1.00008
1.00005
1.00002
0.999999
0.999983
0.999976
0.999974
0.999977
0.999982
0.999987
0.999992
0.999995
0.999997
0.999999
0.999999
1
1
1
1
1
1
1
1
1
1
1
1
1
1
1
1
1
1
1
1
1
1
1
1
1
1
1
1
1
1
1
1
1
1
1
1
1
1
1
1
1
1
1
1
1
1
0.999999
1
0.999999
0.999999
1
0.999999
1
0.999998
0.999998
0.999997
0.999995
0.999993
0.999991
0.999988
0.999985
0.99998
0.999977
0.999971
0.999967
0.999963
0.99996
0.999958
0.999958
0.999964
0.999973
0.999989
1.00001
1.00004
1.00008
1.00012
1.00017
1.00021
1.00026
1.0003
1.00032
1.00033
1.00032
1.00029
1.00025
1.0002
1.00014
1.00009
1.00004
1
0.999981
0.99997
0.999969
0.999973
0.99998
0.999986
0.999992
0.999995
0.999998
0.999999
0.999999
1
1
1
1
1
1
1
1
1
1
1
1
1
1
1
1
1
1
1
1
1
1
1
1
1
1
1
1
1
1
1
1
1
1
1
1
1
1
1
1
1
1
1
1
1
1
1
0.999999
1
1
0.999999
0.999999
0.999997
0.999996
0.999995
0.999993
0.999989
0.999987
0.999981
0.999977
0.999971
0.999965
0.999957
0.99995
0.999943
0.999937
0.999934
0.999935
0.999943
0.999956
0.99998
1.00002
1.00006
1.00012
1.00019
1.00027
1.00036
1.00044
1.0005
1.00056
1.00059
1.00059
1.00055
1.0005
1.00041
1.00032
1.00022
1.00013
1.00006
1.00001
0.999978
0.999965
0.999964
0.99997
0.999978
0.999986
0.999992
0.999996
0.999998
0.999999
1
1
1
1
1
1
1
1
1
1
1
1
1
1
1
1
1
1
1
1
1
1
1
1
1
1
1
1
1
1
1
1
1
1
1
1
1
1
1
1
1
1
1
0.999999
1
1
0.999999
1
1
0.999998
0.999999
0.999996
0.999997
0.999995
0.999993
0.999989
0.999985
0.999981
0.999973
0.999966
0.999957
0.999947
0.999936
0.999926
0.999915
0.999906
0.999903
0.999904
0.999916
0.99994
0.999978
1.00004
1.00011
1.00021
1.00033
1.00046
1.0006
1.00074
1.00086
1.00096
1.00102
1.00104
1.001
1.00091
1.00079
1.00063
1.00047
1.00031
1.00018
1.00008
1.00001
0.999974
0.99996
0.999961
0.999969
0.999979
0.999987
0.999993
0.999996
0.999998
0.999999
1
1
1
1
1
1
1
1
1
1
1
1
1
1
1
1
1
1
1
1
1
1
1
1
1
1
1
1
1
1
1
1
1
1
1
1
1
1
1
1
1
1
1
1
0.999998
1
1
0.999999
0.999998
0.999999
0.999996
0.999996
0.999993
0.999986
0.999984
0.999979
0.999971
0.999961
0.999951
0.999937
0.999923
0.999908
0.999893
0.999879
0.999868
0.999864
0.999871
0.999892
0.999936
1
1.0001
1.00023
1.00039
1.00059
1.0008
1.00104
1.00126
1.00147
1.00164
1.00175
1.00178
1.00174
1.00161
1.00141
1.00117
1.0009
1.00064
1.0004
1.00022
1.00009
1.00001
0.999967
0.999956
0.99996
0.99997
0.999981
0.999989
0.999994
0.999997
0.999999
1
1
1
1
1
1
1
1
1
1
1
1
1
1
1
1
1
1
1
1
1
1
1
1
1
1
1
1
1
1
1
1
1
1
1
1
1
1
1
1
1
1
1
0.999999
1
1
0.999999
0.999999
0.999998
0.999997
0.999995
0.999992
0.999989
0.999983
0.999976
0.999969
0.999957
0.999945
0.999928
0.999911
0.999891
0.999871
0.99985
0.999835
0.999825
0.999827
0.999849
0.999893
0.999972
1.00009
1.00026
1.00048
1.00075
1.00107
1.00143
1.0018
1.00217
1.0025
1.00277
1.00295
1.00301
1.00294
1.00274
1.00243
1.00203
1.0016
1.00117
1.00078
1.00047
1.00023
1.00008
0.999992
0.999957
0.999952
0.999961
0.999973
0.999984
0.999991
0.999996
0.999998
0.999999
1
1
1
1
1
1
1
1
1
1
1
1
1
1
1
1
1
1
1
1
1
1
1
1
1
1
1
1
1
1
1
1
1
1
1
1
1
1
1
1
1
0.999999
1
1
0.999999
0.999999
0.999998
0.999997
0.999995
0.999992
0.999988
0.999982
0.999978
0.999967
0.999954
0.999939
0.999922
0.9999
0.999876
0.99985
0.999827
0.999803
0.999791
0.999789
0.999811
0.999863
0.99996
1.00011
1.00033
1.00062
1.00099
1.00143
1.00195
1.00252
1.0031
1.00368
1.00419
1.00461
1.00487
1.00495
1.00483
1.00451
1.00402
1.0034
1.00271
1.00202
1.00139
1.00087
1.00048
1.00021
1.00005
0.999973
0.999948
0.999951
0.999964
0.999977
0.999987
0.999994
0.999997
0.999999
1
1
1
1
1
1
1
1
1
1
1
1
1
1
1
1
1
1
1
1
1
1
1
1
1
1
1
1
1
1
1
1
1
1
1
1
1
1
1
1
0.999999
1
1
0.999999
0.999999
0.999999
0.999998
0.999997
0.999992
0.999992
0.999984
0.999975
0.999967
0.999953
0.999935
0.999914
0.999891
0.999863
0.999834
0.999803
0.999779
0.999761
0.999761
0.999786
0.999852
0.99997
1.00016
1.00044
1.00082
1.00131
1.00192
1.00264
1.00345
1.00433
1.00522
1.00608
1.00685
1.00745
1.00783
1.00793
1.00772
1.00721
1.00643
1.00546
1.00438
1.00331
1.00233
1.0015
1.00086
1.00042
1.00015
1.00001
0.999952
0.999943
0.999954
0.99997
0.999983
0.999991
0.999996
0.999998
0.999999
1
1
1
1
1
1
1
1
1
1
1
1
1
1
1
1
1
1
1
1
1
1
1
1
1
1
1
1
1
1
1
1
1
1
1
1
1
1
0.999999
1
1
0.999999
0.999998
1
0.999998
0.999998
0.999995
0.999991
0.999986
0.999977
0.999968
0.999952
0.999934
0.999911
0.999885
0.999853
0.999821
0.999787
0.999761
0.99974
0.999745
0.99978
0.999864
1.00001
1.00026
1.00061
1.0011
1.00174
1.00255
1.00351
1.00462
1.00585
1.00714
1.00845
1.00968
1.01077
1.01161
1.01213
1.01224
1.01191
1.01112
1.00993
1.00845
1.00682
1.00518
1.00369
1.00242
1.00144
1.00075
1.00031
1.00007
0.999965
0.999936
0.999942
0.99996
0.999976
0.999988
0.999994
0.999997
0.999999
1
1
1
1
1
1
1
1
1
1
1
1
1
1
1
1
1
1
1
1
1
1
1
1
1
1
1
1
1
1
1
1
1
1
1
1
1
0.999999
1
1
0.999999
0.999999
1
0.999998
0.999999
0.999998
0.999991
0.999993
0.999976
0.99997
0.999956
0.999932
0.999911
0.999881
0.999848
0.999811
0.999778
0.999746
0.999733
0.999741
0.999793
0.999902
1.0001
1.0004
1.00085
1.00147
1.00229
1.00331
1.00456
1.006
1.00763
1.00938
1.0112
1.01298
1.01465
1.0161
1.01722
1.0179
1.01804
1.01756
1.01643
1.01473
1.01258
1.0102
1.0078
1.00559
1.00371
1.00226
1.00122
1.00055
1.00017
0.999991
0.99993
0.999928
0.999947
0.999968
0.999983
0.999992
0.999996
0.999999
1
1
1
1
1
1
1
1
1
1
1
1
1
1
1
1
1
1
1
1
1
1
1
1
1
1
1
1
1
1
1
1
1
0.999999
1
1
0.999999
0.999999
1
0.999999
1
1.00001
1
0.999998
1
0.999994
0.999994
0.999985
0.999976
0.999959
0.999938
0.999913
0.999882
0.999847
0.999809
0.999773
0.999745
0.999736
0.999755
0.999828
0.999971
1.00022
1.0006
1.00117
1.00193
1.00295
1.00422
1.00577
1.00757
1.00962
1.01184
1.01416
1.0165
1.01876
1.02083
1.02261
1.024
1.02487
1.02509
1.02451
1.02309
1.02084
1.01793
1.01463
1.01126
1.00813
1.00546
1.00336
1.00185
1.00087
1.00031
1.00003
0.999928
0.999913
0.999932
0.999957
0.999976
0.999988
0.999995
0.999998
0.999999
1
1
1
1
1
1
1
1
1
1
1
1
1
1
1
1
1
1
1
1
1
1
1
1
1
1
1
1
1
1
1
0.999999
1
1
0.999999
1
1
1
1
1.00001
1.00001
1
1.00001
1
0.999996
0.999996
0.999978
0.999972
0.999949
0.999922
0.999891
0.999854
0.999814
0.999779
0.999754
0.999751
0.999787
0.999884
1.00007
1.00038
1.00086
1.00154
1.00248
1.00371
1.00525
1.00712
1.0093
1.01175
1.01442
1.0172
1.02
1.0227
1.02523
1.02748
1.02943
1.03099
1.03208
1.03249
1.03204
1.03052
1.02789
1.02428
1.02003
1.01556
1.01134
1.00768
1.00478
1.00268
1.0013
1.0005
1.00009
0.999928
0.999895
0.999914
0.999944
0.999968
0.999984
0.999993
0.999997
0.999999
1
1
1
1
1
1
1
1
1
1
1
1
1
1
1
1
1
1
1
1
1
1
1
1
1
1
1
1
1
1
0.999998
1
1
0.999997
1
1
1
1
1.00001
1.00001
1
1.00001
1.00001
1
1.00001
0.999994
0.999983
0.999962
0.99994
0.999908
0.99987
0.999832
0.999796
0.999775
0.999783
0.999839
0.999967
1.0002
1.00059
1.00116
1.00199
1.00311
1.00456
1.00639
1.00859
1.01114
1.01397
1.01703
1.02016
1.02326
1.02617
1.02879
1.03107
1.03304
1.03475
1.0363
1.03762
1.03851
1.03861
1.03752
1.03499
1.03104
1.02602
1.02051
1.01511
1.01034
1.00651
1.0037
1.00184
1.00073
1.00017
0.999931
0.999874
0.999892
0.999928
0.99996
0.99998
0.999991
0.999996
0.999999
1
1
1
1
1
1
1
1
1
1
1
1
1
1
1
1
1
1
1
1
1
1
1
1
1
1
1
1
1
0.999999
1
1
0.999993
1
1
1
1
1.00001
1.00001
1.00001
1.00001
1.00002
1.00002
1.00001
1.00001
1
0.999989
0.999966
0.999933
0.999899
0.999862
0.999831
0.999816
0.999835
0.99991
1.00007
1.00036
1.00083
1.00152
1.00249
1.00381
1.0055
1.00762
1.01015
1.01306
1.01625
1.01961
1.02297
1.02613
1.02894
1.03121
1.0329
1.03406
1.03492
1.03581
1.03702
1.03865
1.04048
1.0419
1.04217
1.04066
1.03715
1.03192
1.02565
1.0192
1.01331
1.00848
1.00488
1.00247
1.00102
1.00026
0.999939
0.999852
0.999867
0.99991
0.999949
0.999974
0.999988
0.999995
0.999998
0.999999
1
1
1
1
1
1
1
1
1
1
1
1
1
1
1
1
1
1
1
1
1
1
1
1
1
1
1
0.999999
1
1
0.999995
1
1.00001
0.999997
1.00001
1.00001
1.00001
1.00001
1.00002
1.00003
1.00003
1.00002
1.00003
1.00003
1.00002
0.999998
0.999974
0.999941
0.999909
0.999882
0.999875
0.999906
1.00001
1.00021
1.00056
1.0011
1.00191
1.00304
1.00456
1.00652
1.00893
1.01179
1.01503
1.01855
1.02213
1.02557
1.02858
1.03092
1.03237
1.0328
1.03225
1.03104
1.0297
1.02898
1.02953
1.0317
1.03519
1.03909
1.04212
1.04305
1.04123
1.03674
1.03036
1.02321
1.01636
1.01056
1.00616
1.00316
1.00134
1.00037
0.999951
0.999829
0.999839
0.999888
0.999935
0.999967
0.999985
0.999994
0.999998
0.999999
1
1
1
1
1
1
1
1
1
1
1
1
1
1
1
1
1
1
1
1
1
1
1
1
1
1
1
1
1
0.999996
0.999999
1.00001
0.999993
1.00001
1.00001
1.00001
1.00001
1.00002
1.00003
1.00003
1.00005
1.00005
1.00006
1.00005
1.00004
1.00003
0.999999
0.999975
0.999957
0.999957
1
1.00013
1.00037
1.00077
1.00141
1.00234
1.00363
1.00536
1.00757
1.01028
1.01347
1.01704
1.02082
1.02456
1.02794
1.0306
1.03216
1.03231
1.03085
1.02777
1.02335
1.01826
1.01355
1.01049
1.01024
1.01341
1.01964
1.02757
1.03517
1.04039
1.0419
1.03946
1.03391
1.02665
1.01916
1.01256
1.00743
1.00387
1.00167
1.00049
0.999966
0.999806
0.99981
0.999865
0.99992
0.999959
0.999981
0.999992
0.999997
0.999999
1
1
1
1
1
1
1
1
1
1
1
1
1
1
1
1
1
1
1
1
1
1
1
1
1
1
1
1
0.999999
0.999998
1.00001
0.999994
0.999994
1.00001
1.00001
1.00001
1.00002
1.00004
1.00005
1.00006
1.00007
1.00009
1.0001
1.0001
1.00009
1.00008
1.00006
1.00005
1.00006
1.00013
1.00027
1.00055
1.00101
1.00173
1.00278
1.00424
1.00618
1.00865
1.01166
1.01517
1.01904
1.02306
1.02689
1.03011
1.03223
1.03272
1.03118
1.02729
1.02099
1.0125
1.00248
0.992135
0.983131
0.977388
0.976621
0.981666
0.992061
1.00585
1.02007
1.0316
1.03826
1.03937
1.03572
1.0291
1.02144
1.0143
1.00857
1.00451
1.00198
1.00061
0.999985
0.999786
0.999783
0.999844
0.999907
0.999951
0.999977
0.99999
0.999996
0.999999
1
1
1
1
1
1
1
1
1
1
1
1
1
1
1
1
1
1
1
1
1
1
1
1
1
1
1
0.999999
0.999998
1.00001
1
0.999992
1.00002
1.00001
1.00001
1.00002
1.00004
1.00005
1.00007
1.0001
1.00012
1.00014
1.00015
1.00016
1.00017
1.00016
1.00017
1.0002
1.00027
1.00044
1.00075
1.00126
1.00206
1.00322
1.00483
1.00698
1.0097
1.013
1.01682
1.02099
1.02522
1.02909
1.03207
1.03351
1.03276
1.02921
1.02246
1.0124
0.999221
0.98357
0.966631
0.950213
0.936677
0.928627
0.928238
0.936555
0.952834
0.974402
0.997191
1.0169
1.03036
1.03632
1.03559
1.03031
1.02296
1.0156
1.00947
1.00504
1.00224
1.0007
0.999997
0.999767
0.999759
0.999825
0.999894
0.999944
0.999974
0.999989
0.999996
0.999998
1
1
1
1
1
1
1
1
1
1
1
1
1
1
1
1
1
1
1
1
1
1
1
1
1
1
1
0.999999
1
1
0.999993
1.00001
1.00001
1.00001
1.00002
1.00004
1.00006
1.00008
1.00011
1.00013
1.00018
1.00021
1.00024
1.00026
1.00028
1.0003
1.00035
1.00044
1.00062
1.00095
1.00151
1.00237
1.00362
1.00537
1.0077
1.01066
1.01425
1.01838
1.02284
1.02727
1.03116
1.03385
1.03454
1.0324
1.02665
1.01677
1.00255
0.984285
0.96262
0.938742
0.914427
0.892126
0.874866
0.865789
0.867411
0.880801
0.904795
0.935883
0.968796
0.998006
1.0193
1.03095
1.0338
1.03036
1.0237
1.01639
1.01007
1.00541
1.00242
1.00077
1
0.999751
0.99974
0.99981
0.999884
0.999939
0.999971
0.999988
0.999995
0.999998
0.999999
1
1
1
1
1
1
1
1
1
1
1
1
1
1
1
1
1
1
1
1
1
1
1
1
1
0.999999
1
1
0.999998
1.00001
1.00001
1
1.00001
1.00003
1.00005
1.00008
1.0001
1.00015
1.00019
1.00025
1.0003
1.00035
1.00039
1.00044
1.00051
1.00062
1.00081
1.00116
1.00173
1.00262
1.00395
1.00581
1.00829
1.01147
1.01532
1.01975
1.0245
1.02915
1.03307
1.03547
1.03539
1.03183
1.02382
1.01066
0.992115
0.968502
0.940659
0.90986
0.877851
0.846954
0.820188
0.801077
0.7931
0.798928
0.819398
0.852803
0.894672
0.938573
0.977759
1.00712
1.02457
1.03105
1.02957
1.02376
1.01669
1.01034
1.00558
1.0025
1.00079
1
0.99974
0.999728
0.9998
0.999878
0.999935
0.999969
0.999987
0.999995
0.999998
0.999999
1
1
1
1
1
1
1
1
1
1
1
1
1
1
1
1
1
1
1
1
1
1
1
1
1
1
1
0.999999
1
1.00001
1
1.00001
1.00003
1.00005
1.00006
1.0001
1.00014
1.00019
1.00027
1.00034
1.00041
1.00049
1.00056
1.00066
1.00079
1.00099
1.00134
1.00191
1.0028
1.00415
1.00607
1.00866
1.012
1.01609
1.0208
1.02586
1.03076
1.03479
1.03697
1.0362
1.03127
1.02105
1.00467
0.981795
0.952798
0.918745
0.881182
0.841965
0.803292
0.767897
0.739165
0.720874
0.716651
0.72904
0.758494
0.802592
0.855867
0.910743
0.959416
0.996154
1.01868
1.02825
1.02842
1.02336
1.01657
1.01031
1.00556
1.00248
1.00077
0.999988
0.999731
0.999721
0.999795
0.999875
0.999933
0.999968
0.999986
0.999994
0.999998
0.999999
1
1
1
1
1
1
1
1
1
1
1
1
1
1
1
1
1
1
1
1
1
1
1
1
1
1
1
1
1
1
1
1.00002
1.00003
1.00005
1.00008
1.00012
1.00019
1.00025
1.00034
1.00043
1.00054
1.00065
1.00078
1.00093
1.00114
1.00148
1.00202
1.00288
1.00419
1.0061
1.00872
1.01216
1.01642
1.02139
1.02677
1.03199
1.03623
1.03837
1.03711
1.03101
1.01877
0.999382
0.9724
0.938205
0.898079
0.853957
0.808021
0.762505
0.719826
0.682917
0.655298
0.640828
0.643042
0.664152
0.70407
0.759544
0.824094
0.889056
0.945847
0.98839
1.01458
1.02618
1.02735
1.02273
1.01616
1.01001
1.00537
1.00237
1.00072
0.999965
0.999724
0.999721
0.999796
0.999876
0.999933
0.999968
0.999986
0.999994
0.999998
0.999999
1
1
1
1
1
1
1
1
1
1
1
1
1
1
1
1
1
1
1
1
1
1
1
1
1
1
0.999999
1
1
1
1.00001
1.00002
1.00003
1.00005
1.00009
1.00015
1.00021
1.0003
1.00041
1.00053
1.00068
1.00083
1.00101
1.00123
1.00155
1.00206
1.00285
1.00406
1.00587
1.00842
1.01184
1.01618
1.02134
1.02701
1.03263
1.03726
1.03963
1.03822
1.03139
1.01754
0.99552
0.964829
0.925851
0.880006
0.829607
0.777329
0.725692
0.676975
0.633574
0.598413
0.575012
0.567166
0.578119
0.609635
0.660916
0.727792
0.802714
0.876104
0.938888
0.985035
1.013
1.02526
1.02657
1.022
1.01551
1.00951
1.00503
1.00218
1.00063
0.999938
0.999724
0.99973
0.999806
0.999882
0.999936
0.999969
0.999986
0.999994
0.999998
0.999999
1
1
1
1
1
1
1
1
1
1
1
1
1
1
1
1
1
1
1
1
1
1
1
1
1
1
1
1
1
1
1.00001
1.00002
1.00004
1.00006
1.0001
1.00016
1.00024
1.00034
1.00047
1.00063
1.0008
1.001
1.00123
1.00155
1.002
1.0027
1.00377
1.00539
1.00774
1.011
1.01526
1.02047
1.02639
1.03244
1.03764
1.0406
1.03957
1.03264
1.01792
0.993971
0.960175
0.91699
0.865976
0.809726
0.751416
0.694065
0.640106
0.591572
0.550676
0.520241
0.503746
0.504779
0.526216
0.569224
0.632158
0.7098
0.793527
0.873049
0.939149
0.986344
1.014
1.02545
1.02608
1.02117
1.01466
1.00884
1.00459
1.00194
1.00052
0.999908
0.99973
0.999746
0.99982
0.999891
0.999941
0.999971
0.999987
0.999995
0.999998
0.999999
1
1
1
1
1
1
1
1
1
1
1
1
1
1
1
1
1
1
1
1
1
1
1
1
1
1
1
1
1
1
1.00001
1.00002
1.00003
1.00006
1.00011
1.00016
1.00026
1.00037
1.00051
1.00069
1.00089
1.00113
1.00144
1.00185
1.00244
1.00334
1.00472
1.00677
1.00969
1.01367
1.01873
1.02472
1.03114
1.03704
1.04097
1.04098
1.03484
1.02031
0.995585
0.959711
0.913117
0.857584
0.796006
0.73199
0.669104
0.610176
0.557213
0.511875
0.476164
0.452849
0.445306
0.456858
0.489923
0.54493
0.619232
0.706403
0.796801
0.879659
0.946111
0.991712
1.01703
1.0264
1.02568
1.02017
1.01361
1.00802
1.00406
1.00166
1.0004
0.99988
0.99974
0.999765
0.999836
0.999901
0.999947
0.999974
0.999989
0.999995
0.999998
0.999999
1
1
1
1
1
1
1
1
1
1
1
1
1
1
1
1
1
1
1
1
1
1
1
1
1
1
1
1
1
1
1.00001
1.00002
1.00003
1.00006
1.0001
1.00016
1.00025
1.00037
1.00052
1.00071
1.00094
1.00122
1.00159
1.00209
1.00283
1.00394
1.00562
1.00808
1.01156
1.01621
1.02199
1.02857
1.03513
1.04026
1.04195
1.03767
1.02474
1.00083
0.964526
0.915871
0.856704
0.79034
0.720892
0.652485
0.588471
0.531106
0.481838
0.441996
0.413478
0.399014
0.401829
0.424959
0.470252
0.537253
0.62209
0.717023
0.811472
0.89457
0.958371
0.999905
1.0212
1.02755
1.02508
1.01889
1.01235
1.00707
1.00347
1.00135
1.00029
0.999863
0.99976
0.999791
0.999856
0.999915
0.999955
0.999978
0.99999
0.999996
0.999999
0.999999
1
1
1
1
1
1
1
1
1
1
1
1
1
1
1
1
1
1
1
1
1
1
1
1
1
1
1
1
1
1
1.00001
1.00001
1.00003
1.00005
1.00009
1.00014
1.00022
1.00033
1.00049
1.00068
1.00092
1.00124
1.00166
1.00225
1.00312
1.00443
1.00638
1.00922
1.01319
1.01842
1.02478
1.0317
1.038
1.04173
1.04027
1.03052
1.0095
0.975012
0.926451
0.865263
0.794924
0.720232
0.646112
0.576576
0.514294
0.460821
0.417157
0.384434
0.36448
0.359967
0.374
0.409269
0.466948
0.545481
0.639529
0.739959
0.835459
0.915617
0.973955
1.00938
1.02548
1.02832
1.02402
1.01728
1.01089
1.00603
1.00286
1.00106
1.00019
0.999852
0.999784
0.99982
0.99988
0.999931
0.999964
0.999983
0.999992
0.999997
0.999999
1
1
1
1
1
1
1
1
1
1
1
1
1
1
1
1
1
1
1
1
1
1
1
1
1
1
1
1
1
1
1
1
1.00001
1.00002
1.00004
1.00006
1.00011
1.00018
1.00028
1.00041
1.0006
1.00084
1.00117
1.00164
1.0023
1.00329
1.00477
1.00696
1.01011
1.01447
1.02015
1.02692
1.03393
1.03959
1.04141
1.03613
1.02017
0.990352
0.944914
0.884379
0.811854
0.732509
0.652323
0.576459
0.508304
0.449709
0.401665
0.364873
0.34029
0.32967
0.33568
0.36134
0.408963
0.478875
0.568087
0.669546
0.772733
0.866055
0.940188
0.99068
1.01858
1.02893
1.02825
1.02237
1.01534
1.0093
1.00496
1.00226
1.00078
1.0001
0.999851
0.999812
0.999851
0.999903
0.999945
0.999971
0.999986
0.999994
0.999997
0.999999
1
1
1
1
1
1
1
1
1
1
1
1
1
1
1
1
1
1
1
1
1
1
1
1
1
1
1
1
1
1
1
1
1.00001
1.00001
1.00002
1.00004
1.00007
1.00012
1.0002
1.00031
1.00048
1.00071
1.00103
1.00151
1.00223
1.00331
1.00493
1.00731
1.01071
1.01535
1.02134
1.02833
1.03526
1.04004
1.03964
1.03027
1.00792
0.969364
0.913444
0.841994
0.759905
0.673931
0.590782
0.515322
0.45013
0.396404
0.354726
0.32551
0.309509
0.308473
0.325197
0.362684
0.422757
0.504525
0.603151
0.709658
0.81242
0.900232
0.965573
1.00649
1.0262
1.03088
1.02711
1.02013
1.01316
1.00765
1.00393
1.00171
1.00055
1.00003
0.999861
0.999845
0.999882
0.999924
0.999957
0.999978
0.999989
0.999995
0.999998
0.999999
1
1
1
1
1
1
1
1
1
1
1
1
1
1
1
1
1
1
1
1
1
1
1
1
1
1
1
1
1
1
1
1
1
1
1.00001
1.00002
1.00004
1.00007
1.00012
1.00021
1.00033
1.00053
1.00084
1.00131
1.00205
1.00318
1.0049
1.00742
1.011
1.01583
1.02198
1.02909
1.03583
1.03968
1.03708
1.02378
0.995467
0.948947
0.883695
0.802892
0.713193
0.622721
0.538467
0.464704
0.403332
0.355069
0.320155
0.298656
0.291188
0.299687
0.327266
0.376875
0.449479
0.542405
0.64855
0.757077
0.855861
0.934924
0.989274
1.01971
1.03134
1.031
1.0249
1.01741
1.01085
1.00605
1.00298
1.00123
1.00036
0.999992
0.99988
0.999879
0.999911
0.999945
0.999969
0.999984
0.999992
0.999997
0.999999
0.999999
1
1
1
1
1
1
1
1
1
1
1
1
1
1
1
1
1
1
1
1
1
1
1
1
1
1
1
1
1
1
0.999999
1
1
1
1
1
1.00001
1.00002
1.00005
1.0001
1.00019
1.00035
1.00061
1.00105
1.00178
1.00293
1.00469
1.00731
1.011
1.01594
1.02216
1.0293
1.03589
1.03898
1.03448
1.0178
0.98447
0.931324
0.85836
0.770022
0.674597
0.581269
0.497043
0.42562
0.368381
0.325696
0.297437
0.283372
0.284182
0.302267
0.341112
0.403287
0.488257
0.590965
0.70186
0.808699
0.899761
0.967263
1.00927
1.02921
1.0336
1.02933
1.02184
1.01443
1.00859
1.0046
1.00217
1.00085
1.00022
0.999972
0.999905
0.999911
0.999937
0.999961
0.999979
0.999989
0.999995
0.999998
0.999999
1
1
1
1
1
1
1
1
1
1
1
1
1
1
1
1
1
1
1
1
1
1
1
1
1
1
1
1
1
1
1
1
0.999999
0.999998
0.999997
0.999995
0.999992
0.999991
0.99999
0.999998
1.00002
1.00007
1.00018
1.00039
1.00078
1.00145
1.00256
1.00431
1.00695
1.01071
1.01573
1.02196
1.02907
1.03565
1.03839
1.03257
1.01335
0.976235
0.918139
0.839376
0.745453
0.645989
0.550947
0.46731
0.398392
0.345226
0.307865
0.285852
0.278829
0.287842
0.31592
0.366682
0.441689
0.538166
0.648242
0.760146
0.861093
0.940919
0.99487
1.02421
1.03455
1.0331
1.02623
1.01827
1.01146
1.00652
1.00335
1.00152
1.00057
1.00013
0.999969
0.99993
0.999939
0.999959
0.999976
0.999987
0.999993
0.999997
0.999999
1
1
1
1
1
1
1
1
1
1
1
1
1
1
1
1
1
1
1
1
1
1
1
1
1
1
1
1
1
1
1
1
1
0.999999
0.999998
0.999995
0.999993
0.999988
0.999981
0.999972
0.999967
0.999966
0.999987
1.00005
1.0002
1.00051
1.00109
1.0021
1.00377
1.00633
1.01007
1.01515
1.02141
1.02849
1.0352
1.03813
1.03188
1.01116
0.97162
0.910347
0.827818
0.73028
0.628294
0.532328
0.449459
0.382909
0.333526
0.301093
0.284916
0.284763
0.302302
0.34108
0.404305
0.49173
0.597704
0.711519
0.819906
0.910759
0.976578
1.01611
1.03354
1.03592
1.03037
1.02222
1.01457
1.0087
1.00475
1.00234
1.00102
1.00037
1.00008
0.999977
0.999956
0.999963
0.999976
0.999986
0.999993
0.999997
0.999999
0.999999
1
1
1
1
1
1
1
1
1
1
1
1
1
1
1
1
1
1
1
1
1
1
1
1
1
1
1
1
1
1
1
1
0.999999
1
0.999998
0.999997
0.999994
0.999988
0.999979
0.999968
0.999954
0.999941
0.999939
0.999967
1.00006
1.00028
1.00074
1.00159
1.00307
1.00547
1.00907
1.01412
1.02047
1.02757
1.0345
1.03814
1.03257
1.01165
0.971103
0.908324
0.823982
0.724733
0.621593
0.525343
0.443274
0.378817
0.332868
0.305045
0.294538
0.3015
0.328248
0.378424
0.454044
0.552301
0.664403
0.77729
0.877365
0.954521
1.00475
1.03028
1.03754
1.03406
1.02616
1.01787
1.0111
1.00634
1.00332
1.00158
1.00067
1.00023
1.00005
0.999988
0.999977
0.999982
0.999989
0.999994
0.999997
0.999999
1
1
1
1
1
1
1
1
1
1
1
1
1
1
1
1
1
1
1
1
1
1
1
1
1
1
1
1
1
1
1
1
1
1
1
1
0.999999
0.999997
0.999995
0.99999
0.999983
0.999971
0.999956
0.999938
0.999923
0.999924
0.999966
1.0001
1.00042
1.00107
1.00228
1.00438
1.00769
1.01255
1.01897
1.02625
1.03346
1.03814
1.03431
1.0148
0.974848
0.912117
0.827682
0.728395
0.625339
0.529417
0.448234
0.38567
0.342938
0.319638
0.315004
0.329682
0.366389
0.428163
0.515017
0.621118
0.734757
0.841529
0.928925
0.989971
1.02448
1.03765
1.0371
1.02997
1.02128
1.01369
1.0081
1.00443
1.00224
1.00104
1.00043
1.00015
1.00004
1
0.999993
0.999994
0.999997
0.999999
1
1
1
1
1
1
1
1
1
1
1
1
1
1
1
1
1
1
1
1
1
1
1
1
1
1
1
1
1
1
1
1
1
1
1
1
1
1
0.999999
0.999998
0.999997
0.999993
0.999987
0.999979
0.999965
0.999948
0.999928
0.999915
0.999921
0.999982
1.00017
1.0006
1.00149
1.00318
1.00604
1.0105
1.01679
1.02434
1.032
1.03779
1.03641
1.01999
0.98258
0.921594
0.838582
0.740629
0.638706
0.543735
0.463708
0.403122
0.363682
0.345097
0.346796
0.369856
0.41686
0.489446
0.585016
0.694676
0.804551
0.900252
0.971719
1.01583
1.03595
1.03927
1.03353
1.02474
1.01643
1.01002
1.00567
1.00299
1.00147
1.00067
1.00028
1.00011
1.00004
1.00001
1
1
1
1
1
1
1
1
1
1
1
1
1
1
1
1
1
1
1
1
1
1
1
1
1
1
1
1
1
1
1
1
1
1
1
1
1
1
1
1
1
1
1
0.999999
0.999998
0.999996
0.999993
0.999986
0.999978
0.999965
0.999946
0.999926
0.999914
0.999923
1
1.00024
1.0008
1.002
1.00427
1.00811
1.01397
1.02163
1.02991
1.03689
1.03816
1.02608
0.99334
0.936234
0.85632
0.76094
0.661046
0.567662
0.489253
0.431088
0.395358
0.38188
0.390361
0.422068
0.478792
0.560111
0.66057
0.768661
0.86949
0.950145
1.00407
1.03207
1.04028
1.03668
1.0282
1.01931
1.0121
1.00704
1.00383
1.00197
1.00095
1.00044
1.00019
1.00008
1.00004
1.00002
1.00001
1.00001
1
1
1
1
1
1
1
1
1
1
1
1
1
1
1
1
1
1
1
1
1
1
1
1
1
1
1
1
1
1
1
1
1
1
1
1
1
1
1
1
1
0.999999
1
0.999998
0.999997
0.999994
0.999988
0.99998
0.999966
0.99995
0.99993
0.999915
0.999925
1.00002
1.0003
1.00104
1.00263
1.00566
1.01075
1.01813
1.02694
1.03522
1.03912
1.03189
1.00555
0.954765
0.88014
0.788865
0.692032
0.600981
0.52488
0.469848
0.438376
0.430323
0.445662
0.485465
0.550128
0.636813
0.737399
0.838611
0.925901
0.989101
1.02565
1.03979
1.03921
1.03156
1.02231
1.01434
1.00854
1.00477
1.00252
1.00127
1.00062
1.00029
1.00014
1.00007
1.00004
1.00002
1.00001
1.00001
1.00001
1
1
1
1
1
1
1
1
1
1
1
1
1
1
1
1
1
1
1
1
1
1
1
1
1
1
1
1
1
1
1
1
1
1
1
1
1
1
1
1
0.999999
1
0.999999
0.999999
0.999998
0.999995
0.999991
0.999982
0.999973
0.999957
0.999938
0.999916
0.999921
1.00001
1.00037
1.00133
1.00345
1.00751
1.0141
1.02302
1.03251
1.039
1.03661
1.01756
0.97521
0.908428
0.823409
0.731188
0.643621
0.570844
0.519734
0.49283
0.490074
0.51164
0.557953
0.627601
0.715354
0.810999
0.90059
0.97125
1.01642
1.0374
1.04082
1.03467
1.0254
1.01675
1.01019
1.00581
1.00314
1.00163
1.00082
1.00041
1.00021
1.00011
1.00006
1.00004
1.00002
1.00001
1.00001
1.00001
1
1
1
1
1
1
1
1
1
1
1
1
1
1
1
1
1
1
1
1
1
1
1
1
1
1
1
1
1
1
1
1
1
1
1
1
1
1
1
0.999999
1
1
1
0.999999
1
0.999997
0.999998
0.999994
0.999989
0.999983
0.999968
0.999948
0.999915
0.999906
1.00001
1.00047
1.00175
1.00463
1.01
1.01833
1.02859
1.03747
1.03971
1.02812
0.995451
0.938789
0.862582
0.77719
0.694889
0.626806
0.580238
0.557705
0.559492
0.585845
0.636122
0.706995
0.791204
0.877247
0.951698
1.00442
1.03276
1.04116
1.03733
1.02847
1.01932
1.01201
1.00698
1.00384
1.00203
1.00105
1.00054
1.00028
1.00015
1.00009
1.00005
1.00003
1.00002
1.00001
1.00001
1
1
1
1
1
1
1
1
1
1
1
1
1
1
1
1
1
1
1
1
1
1
1
1
1
1
1
1
1
1
1
1
1
1
1
1
1
1
1
1
1
1
1
1
0.999999
1
1
0.999999
1
0.999997
0.999997
0.999995
0.999983
0.999954
0.999912
0.999887
1.00002
1.00066
1.00244
1.00633
1.01337
1.02355
1.03429
1.04074
1.03633
1.01371
0.968614
0.903548
0.827523
0.752759
0.690821
0.649032
0.630236
0.635378
0.664492
0.715629
0.783752
0.860161
0.93299
0.990406
1.0257
1.03984
1.03923
1.03141
1.02201
1.014
1.00828
1.00463
1.00249
1.0013
1.00068
1.00037
1.0002
1.00012
1.00007
1.00005
1.00003
1.00002
1.00001
1.00001
1
1
1
1
1
1
1
1
1
1
1
1
1
1
1
1
1
1
1
1
1
1
1
1
1
1
1
1
1
1
1
1
1
1
1
1
1
1
1
1
1
1
0.999999
1
1
0.999999
1
0.999997
1
0.999997
1
1
1
0.999993
0.999959
0.999897
0.999869
1.00009
1.00103
1.00354
1.00883
1.01788
1.02943
1.03936
1.0415
1.02862
0.995594
0.943199
0.878756
0.813626
0.758881
0.721844
0.706182
0.713429
0.743075
0.791928
0.853714
0.918967
0.976368
1.0166
1.03658
1.04003
1.03398
1.02474
1.01616
1.00973
1.00552
1.003
1.00159
1.00084
1.00046
1.00026
1.00015
1.00009
1.00006
1.00004
1.00002
1.00001
1.00001
1
1
1
1
1
1
1
1
1
1
1
1
1
1
1
1
1
1
1
1
1
1
1
1
1
1
1
1
1
1
1
1
1
1
1
1
1
1
1
1
1
1
1
1
0.999999
1
0.999999
1
0.999999
0.999998
0.999998
0.999999
1
1.00001
1.00001
0.999996
0.999949
0.999872
0.99987
1.00027
1.0017
1.00527
1.01241
1.02336
1.03544
1.04312
1.03916
1.01789
0.978694