/*--------------------------------*- C++ -*----------------------------------*\
  =========                 |
  \\      /  F ield         | OpenFOAM: The Open Source CFD Toolbox
   \\    /   O peration     | Website:  https://openfoam.org
    \\  /    A nd           | Version:  6
     \\/     M anipulation  |
\*---------------------------------------------------------------------------*/
FoamFile
{
    version     2.0;
    format      ascii;
    class       volScalarField;
    location    "1.62";
    object      rho;
}
// * * * * * * * * * * * * * * * * * * * * * * * * * * * * * * * * * * * * * //

dimensions      [1 -3 0 0 0 0 0];

internalField   nonuniform List<scalar> 
10000
(
1.40001
1.40001
1.40001
1.40001
1.40001
1.40001
1.40001
1.40001
1.40001
1.40001
1.40001
1.40001
1.40001
1.40001
1.40001
1.40001
1.40001
1.40001
1.40001
1.40001
1.40001
1.40001
1.40001
1.40001
1.40001
1.40001
1.40001
1.40001
1.40001
1.40001
1.40001
1.40001
1.40001
1.40001
1.40001
1.40001
1.40001
1.40001
1.40001
1.4
1.40001
1.4
1.40001
1.40001
1.40001
1.40001
1.40001
1.40001
1.40001
1.40001
1.40001
1.40001
1.40001
1.40001
1.40001
1.40001
1.40001
1.40001
1.4
1.40001
1.4
1.40001
1.4
1.40001
1.4
1.40001
1.4
1.4
1.4
1.4
1.4
1.40001
1.40001
1.40001
1.40001
1.40001
1.40001
1.40001
1.40001
1.40001
1.40001
1.40001
1.40001
1.40001
1.40001
1.40001
1.40001
1.40001
1.40001
1.40001
1.40001
1.40001
1.40001
1.40001
1.40001
1.40001
1.40001
1.40001
1.40001
1.40001
1.40001
1.40001
1.40001
1.40001
1.40001
1.40001
1.40001
1.40001
1.40001
1.40001
1.40001
1.40001
1.40001
1.40001
1.40001
1.40001
1.40001
1.40001
1.40001
1.40001
1.40001
1.40001
1.40001
1.40001
1.40001
1.40001
1.40001
1.40001
1.40001
1.40001
1.40001
1.40001
1.40001
1.40001
1.40001
1.40001
1.40001
1.40001
1.40001
1.40001
1.40001
1.40001
1.40001
1.40001
1.4
1.40001
1.4
1.4
1.4
1.4
1.4
1.4
1.4
1.40001
1.4
1.40001
1.40001
1.40001
1.40001
1.40001
1.40001
1.40001
1.40001
1.4
1.40001
1.4
1.4
1.4
1.4
1.4
1.4
1.4
1.4
1.4
1.40001
1.4
1.40001
1.40001
1.40001
1.40001
1.40001
1.40001
1.40001
1.40001
1.40001
1.40001
1.40001
1.40001
1.40001
1.40001
1.40001
1.40001
1.40001
1.40001
1.40001
1.40001
1.40001
1.40001
1.40001
1.40001
1.40001
1.40001
1.40001
1.40001
1.40001
1.40001
1.40001
1.40001
1.40001
1.40001
1.40001
1.40001
1.40001
1.40001
1.40001
1.40001
1.40001
1.40001
1.40001
1.40001
1.40001
1.40001
1.40001
1.40001
1.40001
1.40001
1.40001
1.40001
1.40001
1.40001
1.40001
1.40001
1.40001
1.40001
1.40001
1.40001
1.4
1.4
1.40001
1.4
1.40001
1.40001
1.40001
1.40001
1.40001
1.40001
1.40001
1.4
1.4
1.4
1.4
1.4
1.4
1.4
1.4
1.40001
1.40001
1.40001
1.40001
1.40001
1.40001
1.40001
1.40001
1.40001
1.4
1.40001
1.4
1.4
1.4
1.4
1.4
1.4
1.4
1.4
1.4
1.4
1.4
1.40001
1.40001
1.40001
1.40001
1.40001
1.40001
1.40001
1.40001
1.40001
1.40001
1.40001
1.40001
1.40001
1.40001
1.40001
1.40001
1.40001
1.40001
1.40001
1.40001
1.40001
1.40001
1.40001
1.40001
1.40001
1.40001
1.40001
1.40001
1.40001
1.40001
1.40001
1.40001
1.40001
1.40001
1.40001
1.40001
1.40001
1.40001
1.40001
1.40001
1.40001
1.40001
1.40001
1.40001
1.40001
1.40001
1.40001
1.40001
1.40001
1.40001
1.40001
1.40001
1.40001
1.40001
1.40001
1.40001
1.40001
1.40001
1.40001
1.40001
1.40001
1.40001
1.40001
1.40001
1.40001
1.40001
1.40001
1.40001
1.4
1.4
1.4
1.4
1.4
1.4
1.4
1.4
1.4
1.4
1.40001
1.40001
1.40001
1.40001
1.40001
1.40001
1.40001
1.40001
1.40001
1.40001
1.4
1.4
1.4
1.4
1.4
1.4
1.4
1.4
1.4
1.4
1.4
1.4
1.4
1.40001
1.40001
1.40001
1.40001
1.40001
1.40001
1.40001
1.40001
1.40001
1.40001
1.40001
1.40001
1.40001
1.40001
1.40001
1.40001
1.40001
1.40001
1.40001
1.40001
1.40001
1.40001
1.40001
1.40001
1.40001
1.40001
1.40001
1.40001
1.40001
1.40001
1.40001
1.40001
1.40001
1.40001
1.40001
1.40001
1.40001
1.40001
1.40001
1.40001
1.40001
1.40001
1.40001
1.40001
1.40001
1.40001
1.40001
1.40001
1.40001
1.40001
1.40001
1.40001
1.40001
1.40001
1.40001
1.40001
1.40001
1.40001
1.4
1.40001
1.40001
1.40001
1.40001
1.40001
1.40001
1.4
1.4
1.4
1.4
1.4
1.4
1.4
1.4
1.4
1.4
1.4
1.4
1.4
1.40001
1.40001
1.40001
1.40001
1.40001
1.40001
1.40001
1.40001
1.40001
1.40001
1.4
1.4
1.4
1.4
1.4
1.4
1.4
1.4
1.4
1.4
1.4
1.4
1.4
1.4
1.40001
1.40001
1.40001
1.40001
1.40001
1.40001
1.40001
1.40001
1.40001
1.40001
1.40001
1.40001
1.40001
1.40001
1.40001
1.40001
1.40001
1.40001
1.40001
1.40001
1.40001
1.40001
1.40001
1.40001
1.40001
1.40001
1.40001
1.40001
1.40001
1.40001
1.40001
1.40001
1.40001
1.40001
1.40001
1.40001
1.40001
1.40001
1.40001
1.40001
1.40001
1.40001
1.40001
1.40001
1.40001
1.40001
1.40001
1.40001
1.40001
1.40001
1.40001
1.40001
1.40001
1.40001
1.40001
1.40001
1.40001
1.4
1.40001
1.40001
1.40001
1.40001
1.4
1.4
1.4
1.4
1.4
1.4
1.4
1.4
1.4
1.4
1.4
1.4
1.4
1.4
1.40001
1.40001
1.40001
1.40001
1.40001
1.40001
1.40001
1.40001
1.40001
1.40001
1.40001
1.4
1.4
1.4
1.4
1.4
1.4
1.4
1.4
1.4
1.4
1.4
1.4
1.4
1.4
1.4
1.40001
1.40001
1.40001
1.40001
1.40001
1.40001
1.40001
1.40001
1.40001
1.40001
1.40001
1.40001
1.40001
1.40001
1.40001
1.40001
1.40001
1.40001
1.40001
1.40001
1.40001
1.40001
1.40001
1.40001
1.40001
1.40001
1.40001
1.40001
1.40001
1.40001
1.40001
1.40001
1.40001
1.40001
1.40001
1.40001
1.40001
1.40001
1.40001
1.40001
1.40001
1.40001
1.40001
1.40001
1.40001
1.40001
1.40001
1.40001
1.40001
1.40001
1.40001
1.40001
1.40001
1.40001
1.40001
1.40001
1.40001
1.40001
1.40001
1.4
1.4
1.4
1.4
1.4
1.4
1.4
1.4
1.4
1.4
1.4
1.4
1.4
1.4
1.4
1.40001
1.40001
1.40001
1.40001
1.40001
1.40001
1.40001
1.40001
1.40001
1.40001
1.40001
1.40001
1.4
1.4
1.4
1.4
1.4
1.4
1.4
1.4
1.4
1.4
1.4
1.4
1.4
1.4
1.4
1.40001
1.40001
1.40001
1.40001
1.40001
1.40001
1.40001
1.40001
1.40001
1.40001
1.40001
1.40001
1.40001
1.40001
1.40001
1.40001
1.40001
1.40001
1.40001
1.40001
1.40001
1.40001
1.40001
1.40001
1.40001
1.40001
1.40001
1.40001
1.40001
1.40001
1.40001
1.40001
1.40001
1.40001
1.40001
1.40001
1.40001
1.40001
1.40001
1.40001
1.40001
1.40001
1.40001
1.40001
1.40001
1.40001
1.40001
1.40001
1.4
1.40001
1.40001
1.40001
1.40001
1.4
1.40001
1.40001
1.40001
1.4
1.4
1.4
1.4
1.4
1.4
1.4
1.4
1.4
1.4
1.4
1.4
1.4
1.4
1.4
1.4
1.40001
1.40001
1.40001
1.40001
1.40001
1.40001
1.40001
1.40001
1.40001
1.40001
1.40001
1.40001
1.40001
1.4
1.4
1.4
1.4
1.4
1.4
1.4
1.4
1.4
1.4
1.4
1.4
1.4
1.4
1.4
1.40001
1.40001
1.40001
1.40001
1.40001
1.40001
1.40001
1.40001
1.40001
1.40001
1.40001
1.40001
1.40001
1.40001
1.40001
1.40001
1.40001
1.40001
1.40001
1.40001
1.40001
1.40001
1.40001
1.40001
1.40001
1.40001
1.40001
1.40001
1.40001
1.40001
1.40001
1.40001
1.40001
1.40001
1.40001
1.40001
1.40001
1.40001
1.40001
1.40001
1.40001
1.40001
1.40001
1.40001
1.40001
1.40001
1.40001
1.40001
1.40001
1.40001
1.4
1.40001
1.40001
1.4
1.40001
1.40001
1.4
1.4
1.4
1.4
1.4
1.4
1.4
1.4
1.4
1.4
1.4
1.4
1.4
1.4
1.4
1.4
1.4
1.40001
1.40001
1.40001
1.40002
1.40002
1.40002
1.40002
1.40002
1.40002
1.40002
1.40001
1.40001
1.40001
1.4
1.4
1.4
1.4
1.4
1.4
1.4
1.4
1.4
1.4
1.4
1.4
1.4
1.4
1.4
1.40001
1.40001
1.40001
1.40001
1.40001
1.40001
1.40001
1.40001
1.40001
1.40001
1.40001
1.40001
1.40001
1.40001
1.40001
1.40001
1.40001
1.40001
1.40001
1.40001
1.40001
1.40001
1.40001
1.40001
1.40001
1.40001
1.40001
1.40001
1.40001
1.40001
1.40001
1.40001
1.40001
1.40001
1.40001
1.40001
1.40001
1.40001
1.40001
1.40001
1.40001
1.40001
1.40001
1.40001
1.40001
1.40001
1.40001
1.40001
1.40001
1.40001
1.4
1.40001
1.40001
1.4
1.4
1.4
1.4
1.4
1.4
1.4
1.4
1.4
1.4
1.4
1.4
1.4
1.4
1.4
1.4
1.4
1.4
1.4
1.40001
1.40001
1.40002
1.40003
1.40003
1.40004
1.40004
1.40004
1.40004
1.40004
1.40003
1.40002
1.40002
1.40001
1.4
1.39999
1.39999
1.39999
1.39999
1.39999
1.4
1.4
1.4
1.4
1.4
1.4
1.4
1.4
1.4
1.40001
1.40001
1.40001
1.40001
1.40001
1.40001
1.40001
1.40001
1.40001
1.40001
1.40001
1.40001
1.40001
1.40001
1.40001
1.40001
1.40001
1.40001
1.40001
1.40001
1.40001
1.40001
1.40001
1.40001
1.40001
1.40001
1.40001
1.40001
1.40001
1.40001
1.40001
1.40001
1.40001
1.40001
1.40001
1.40001
1.40001
1.40001
1.40001
1.40001
1.40001
1.40001
1.4
1.40001
1.4
1.4
1.4
1.40001
1.4
1.40001
1.4
1.4
1.40001
1.4
1.4
1.4
1.4
1.4
1.4
1.4
1.4
1.4
1.4
1.39999
1.39999
1.39999
1.39999
1.39999
1.39999
1.4
1.4
1.40001
1.40002
1.40003
1.40004
1.40005
1.40006
1.40007
1.40007
1.40007
1.40007
1.40006
1.40005
1.40004
1.40003
1.40001
1.4
1.39999
1.39999
1.39998
1.39999
1.39999
1.39999
1.4
1.4
1.4
1.4
1.4
1.4
1.4
1.4
1.40001
1.40001
1.40001
1.40001
1.40001
1.40001
1.40001
1.40001
1.40001
1.40001
1.40001
1.40001
1.40001
1.40001
1.40001
1.40001
1.40001
1.40001
1.40001
1.40001
1.40001
1.40001
1.40001
1.40001
1.40001
1.40001
1.40001
1.40001
1.40001
1.40001
1.40001
1.40001
1.40001
1.40001
1.40001
1.40001
1.40001
1.40001
1.40001
1.40001
1.40001
1.40001
1.40001
1.40001
1.40001
1.40001
1.4
1.4
1.40001
1.4
1.40001
1.4
1.4
1.4
1.4
1.4
1.4
1.4
1.4
1.4
1.39999
1.39999
1.39999
1.39999
1.39998
1.39998
1.39998
1.39998
1.39999
1.4
1.40001
1.40002
1.40004
1.40005
1.40007
1.4001
1.40011
1.40013
1.40014
1.40014
1.40013
1.40012
1.4001
1.40007
1.40004
1.40002
1.4
1.39999
1.39998
1.39998
1.39998
1.39998
1.39999
1.39999
1.4
1.4
1.4
1.4
1.4
1.4
1.4
1.40001
1.40001
1.40001
1.40001
1.40001
1.40001
1.40001
1.40001
1.40001
1.40001
1.40001
1.40001
1.40001
1.40001
1.40001
1.40001
1.40001
1.40001
1.40001
1.40001
1.40001
1.40001
1.40001
1.40001
1.40001
1.40001
1.40001
1.40001
1.40001
1.40001
1.40001
1.40001
1.40001
1.40001
1.40001
1.40001
1.40001
1.40001
1.40001
1.40001
1.4
1.4
1.4
1.40001
1.40001
1.4
1.40001
1.4
1.4
1.4
1.4
1.40001
1.4
1.4
1.4
1.4
1.4
1.39999
1.39999
1.39999
1.39998
1.39998
1.39997
1.39997
1.39997
1.39997
1.39997
1.39998
1.39999
1.4
1.40002
1.40005
1.40008
1.40011
1.40015
1.40018
1.40022
1.40024
1.40025
1.40025
1.40024
1.40021
1.40017
1.40012
1.40008
1.40004
1.4
1.39998
1.39997
1.39997
1.39997
1.39998
1.39999
1.39999
1.4
1.4
1.4
1.4
1.4
1.4
1.4
1.40001
1.40001
1.40001
1.40001
1.40001
1.40001
1.40001
1.40001
1.40001
1.40001
1.40001
1.40001
1.40001
1.40001
1.40001
1.40001
1.40001
1.40001
1.40001
1.40001
1.40001
1.40001
1.40001
1.40001
1.40001
1.40001
1.40001
1.40001
1.40001
1.40001
1.40001
1.40001
1.40001
1.40001
1.40001
1.4
1.4
1.4
1.40001
1.40001
1.40001
1.4
1.40001
1.4
1.40001
1.4
1.4
1.4
1.4
1.4
1.4
1.4
1.4
1.4
1.4
1.39999
1.39999
1.39998
1.39998
1.39997
1.39996
1.39996
1.39995
1.39995
1.39995
1.39995
1.39995
1.39997
1.39999
1.40002
1.40006
1.40011
1.40017
1.40024
1.4003
1.40037
1.40042
1.40045
1.40047
1.40045
1.40042
1.40036
1.40028
1.40021
1.40013
1.40006
1.40001
1.39998
1.39996
1.39996
1.39997
1.39998
1.39999
1.39999
1.4
1.4
1.4
1.4
1.4
1.4
1.40001
1.40001
1.40001
1.40001
1.40001
1.40001
1.40001
1.40001
1.40001
1.40001
1.40001
1.40001
1.40001
1.40001
1.40001
1.40001
1.40001
1.40001
1.40001
1.40001
1.40001
1.40001
1.40001
1.40001
1.40001
1.40001
1.40001
1.40001
1.40001
1.40001
1.40001
1.40001
1.40001
1.40001
1.40001
1.40001
1.40001
1.4
1.4
1.4
1.40001
1.40001
1.4
1.40001
1.4
1.4
1.40001
1.40001
1.4
1.4
1.4
1.4
1.4
1.4
1.39999
1.39999
1.39998
1.39997
1.39996
1.39996
1.39994
1.39993
1.39992
1.39992
1.39991
1.39991
1.39993
1.39994
1.39998
1.40003
1.40009
1.40018
1.40028
1.40039
1.4005
1.40062
1.40071
1.40079
1.40083
1.40083
1.40078
1.4007
1.40058
1.40045
1.40031
1.40019
1.40009
1.40002
1.39997
1.39996
1.39996
1.39996
1.39997
1.39999
1.39999
1.4
1.4
1.4
1.4
1.4
1.4
1.40001
1.40001
1.40001
1.40001
1.40001
1.40001
1.40001
1.40001
1.40001
1.40001
1.40001
1.40001
1.40001
1.40001
1.40001
1.40001
1.40001
1.40001
1.40001
1.40001
1.40001
1.40001
1.40001
1.40001
1.40001
1.40001
1.40001
1.40001
1.40001
1.40001
1.40001
1.40001
1.4
1.4
1.4
1.40001
1.40001
1.40001
1.4
1.4
1.4
1.40001
1.4
1.4
1.40001
1.40001
1.4
1.4
1.4
1.4
1.4
1.39999
1.39999
1.39998
1.39998
1.39997
1.39996
1.39995
1.39993
1.39992
1.3999
1.39989
1.39987
1.39987
1.39987
1.39989
1.39992
1.39997
1.40005
1.40016
1.4003
1.40047
1.40065
1.40085
1.40104
1.40121
1.40135
1.40144
1.40145
1.4014
1.40129
1.40111
1.40089
1.40066
1.40044
1.40026
1.40011
1.40002
1.39997
1.39995
1.39995
1.39996
1.39998
1.39999
1.39999
1.4
1.4
1.4
1.4
1.4
1.40001
1.40001
1.40001
1.40001
1.40001
1.40001
1.40001
1.40001
1.40001
1.40001
1.40001
1.40001
1.40001
1.40001
1.40001
1.40001
1.40001
1.40001
1.40001
1.40001
1.40001
1.40001
1.40001
1.40001
1.40001
1.40001
1.40001
1.40001
1.40001
1.40001
1.40001
1.40001
1.40001
1.40001
1.40001
1.4
1.4
1.4
1.4
1.40001
1.40001
1.40001
1.4
1.40001
1.4
1.4
1.4
1.4
1.4
1.4
1.4
1.39999
1.39998
1.39998
1.39996
1.39995
1.39994
1.39992
1.3999
1.39988
1.39986
1.39984
1.39982
1.39982
1.39982
1.39985
1.39992
1.40001
1.40014
1.40032
1.40056
1.40083
1.40113
1.40146
1.40177
1.40207
1.4023
1.40245
1.4025
1.40244
1.40226
1.40198
1.40164
1.40126
1.40089
1.40057
1.40031
1.40013
1.40001
1.39996
1.39994
1.39995
1.39996
1.39998
1.39999
1.4
1.4
1.4
1.4
1.4
1.4
1.40001
1.40001
1.40001
1.40001
1.40001
1.40001
1.40001
1.40001
1.40001
1.40001
1.40001
1.40001
1.40001
1.40001
1.40001
1.40001
1.40001
1.40001
1.40001
1.40001
1.40001
1.40001
1.40001
1.40001
1.40001
1.40001
1.40001
1.40001
1.40001
1.4
1.40001
1.40001
1.40001
1.40001
1.40001
1.40001
1.40001
1.40001
1.4
1.40001
1.4
1.40001
1.40001
1.4
1.4
1.4
1.4
1.4
1.39999
1.39999
1.39998
1.39997
1.39996
1.39994
1.39993
1.3999
1.39988
1.39985
1.39982
1.3998
1.39977
1.39976
1.39976
1.39979
1.39986
1.39997
1.40014
1.40037
1.40068
1.40106
1.40151
1.40201
1.40253
1.40304
1.40351
1.40389
1.40413
1.40422
1.40412
1.40384
1.4034
1.40285
1.40225
1.40164
1.4011
1.40066
1.40033
1.40011
1.39999
1.39995
1.39994
1.39995
1.39997
1.39998
1.39999
1.4
1.4
1.4
1.4
1.4
1.40001
1.40001
1.40001
1.40001
1.40001
1.40001
1.40001
1.40001
1.40001
1.40001
1.40001
1.40001
1.40001
1.40001
1.40001
1.40001
1.40001
1.40001
1.40001
1.40001
1.40001
1.40001
1.40001
1.40001
1.40001
1.40001
1.40001
1.40001
1.40001
1.40001
1.4
1.4
1.40001
1.4
1.40001
1.4
1.40001
1.40001
1.40001
1.4
1.40001
1.40001
1.4
1.4
1.4
1.4
1.4
1.39999
1.39999
1.39998
1.39997
1.39996
1.39994
1.39992
1.3999
1.39986
1.39983
1.3998
1.39976
1.39973
1.39971
1.39971
1.39974
1.39981
1.39995
1.40016
1.40046
1.40087
1.40139
1.40202
1.40274
1.40354
1.40436
1.40517
1.40589
1.40647
1.40684
1.40695
1.40678
1.40633
1.40564
1.40476
1.4038
1.40283
1.40195
1.40123
1.40067
1.4003
1.40007
1.39997
1.39993
1.39994
1.39996
1.39997
1.39999
1.4
1.4
1.4
1.4
1.4
1.40001
1.40001
1.40001
1.40001
1.40001
1.40001
1.40001
1.40001
1.40001
1.40001
1.40001
1.40001
1.40001
1.40001
1.40001
1.40001
1.40001
1.40001
1.40001
1.40001
1.40001
1.40001
1.40001
1.40001
1.40001
1.40001
1.40001
1.40001
1.40001
1.40001
1.40001
1.40001
1.4
1.40001
1.4
1.4
1.40001
1.40001
1.4
1.40001
1.40001
1.4
1.4
1.4
1.4
1.4
1.39999
1.39999
1.39998
1.39997
1.39996
1.39994
1.39991
1.39989
1.39985
1.39981
1.39977
1.39973
1.3997
1.39967
1.39967
1.39971
1.3998
1.39996
1.40023
1.40062
1.40116
1.40184
1.4027
1.40371
1.40486
1.40609
1.40735
1.40856
1.40964
1.41049
1.41102
1.41115
1.41085
1.41013
1.40903
1.40765
1.40614
1.40464
1.40326
1.4021
1.40121
1.4006
1.40022
1.40002
1.39994
1.39993
1.39994
1.39996
1.39998
1.39999
1.4
1.4
1.4
1.4
1.4
1.40001
1.40001
1.40001
1.40001
1.40001
1.40001
1.40001
1.40001
1.40001
1.40001
1.40001
1.40001
1.40001
1.40001
1.40001
1.40001
1.40001
1.40001
1.40001
1.40001
1.40001
1.40001
1.40001
1.40001
1.40001
1.40001
1.40001
1.40001
1.4
1.40001
1.4
1.40001
1.40001
1.40001
1.40001
1.40001
1.4
1.40001
1.40001
1.4
1.4
1.40001
1.4
1.4
1.4
1.39999
1.39998
1.39997
1.39996
1.39994
1.39991
1.39988
1.39984
1.3998
1.39975
1.39971
1.39967
1.39964
1.39965
1.3997
1.39982
1.40003
1.40037
1.40086
1.40155
1.40245
1.40358
1.40493
1.40651
1.40824
1.41007
1.41192
1.41367
1.41521
1.41639
1.41712
1.41726
1.41678
1.41565
1.41396
1.41187
1.40957
1.40727
1.40517
1.40339
1.40202
1.40106
1.40044
1.40011
1.39996
1.39991
1.39992
1.39995
1.39997
1.39999
1.4
1.4
1.4
1.4
1.4
1.40001
1.40001
1.40001
1.40001
1.40001
1.40001
1.40001
1.40001
1.40001
1.40001
1.40001
1.40001
1.40001
1.40001
1.40001
1.40001
1.40001
1.40001
1.40001
1.40001
1.40001
1.40001
1.40001
1.40001
1.40001
1.40001
1.40001
1.4
1.40001
1.4
1.40001
1.4
1.4
1.40001
1.40001
1.4
1.40001
1.40001
1.4
1.4
1.40001
1.4
1.4
1.4
1.39999
1.39999
1.39997
1.39996
1.39994
1.39991
1.39988
1.39984
1.39979
1.39974
1.39969
1.39965
1.39963
1.39964
1.39972
1.39987
1.40014
1.40057
1.4012
1.40207
1.40322
1.40466
1.40642
1.40846
1.41076
1.41325
1.41584
1.41838
1.42077
1.42283
1.42443
1.42538
1.42555
1.42483
1.42321
1.42077
1.41772
1.41434
1.41096
1.40784
1.40521
1.40317
1.40171
1.40077
1.40024
1.39999
1.39991
1.3999
1.39993
1.39996
1.39998
1.39999
1.4
1.4
1.4
1.4
1.40001
1.40001
1.40001
1.40001
1.40001
1.40001
1.40001
1.40001
1.40001
1.40001
1.40001
1.40001
1.40001
1.40001
1.40001
1.40001
1.40001
1.40001
1.40001
1.40001
1.40001
1.40001
1.40001
1.40001
1.40001
1.40001
1.40001
1.40001
1.4
1.40001
1.40001
1.4
1.40001
1.4
1.4
1.4
1.40001
1.4
1.4
1.40001
1.40001
1.4
1.40001
1.4
1.4
1.39998
1.39997
1.39995
1.39992
1.39988
1.39984
1.39979
1.39974
1.39969
1.39965
1.39964
1.39966
1.39976
1.39997
1.40032
1.40085
1.40164
1.40272
1.40415
1.40594
1.40813
1.41068
1.4136
1.41677
1.4201
1.42348
1.42674
1.42974
1.43232
1.43431
1.43553
1.43579
1.43489
1.43278
1.42951
1.42533
1.42063
1.41585
1.41143
1.40766
1.40472
1.4026
1.40123
1.40044
1.40005
1.3999
1.39988
1.39991
1.39994
1.39997
1.39999
1.4
1.4
1.4
1.4
1.4
1.40001
1.40001
1.40001
1.40001
1.40001
1.40001
1.40001
1.40001
1.40001
1.40001
1.40001
1.40001
1.40001
1.40001
1.40001
1.40001
1.40001
1.40001
1.40001
1.40001
1.40001
1.40001
1.40001
1.40001
1.4
1.40001
1.40001
1.40001
1.40001
1.4
1.40001
1.4
1.4
1.4
1.40001
1.40001
1.4
1.40001
1.40001
1.4
1.40001
1.40001
1.4
1.4
1.39997
1.39997
1.39993
1.3999
1.39985
1.3998
1.39975
1.3997
1.39966
1.39966
1.39971
1.39984
1.4001
1.40054
1.40121
1.40217
1.40349
1.40521
1.40739
1.41003
1.41314
1.41663
1.42047
1.4245
1.42861
1.4326
1.43635
1.43973
1.44262
1.4449
1.44642
1.4469
1.44607
1.44371
1.43977
1.43449
1.42835
1.42197
1.41597
1.4108
1.40672
1.40377
1.40183
1.4007
1.40013
1.3999
1.39986
1.39988
1.39993
1.39996
1.39998
1.4
1.4
1.4
1.4
1.4
1.40001
1.40001
1.40001
1.40001
1.40001
1.40001
1.40001
1.40001
1.40001
1.40001
1.40001
1.40001
1.40001
1.40001
1.40001
1.40001
1.40001
1.40001
1.40001
1.40001
1.40001
1.40001
1.40001
1.40001
1.40001
1.4
1.4
1.40001
1.4
1.40001
1.40001
1.4
1.40001
1.4
1.40001
1.4
1.40002
1.40001
1.40001
1.40002
1.40002
1.40001
1.40001
1.4
1.39998
1.39995
1.39992
1.39988
1.39982
1.39977
1.39972
1.39969
1.3997
1.39978
1.39996
1.40029
1.40083
1.40164
1.40279
1.40437
1.40642
1.40901
1.41211
1.41575
1.41982
1.42424
1.42884
1.43346
1.43789
1.44198
1.44562
1.44879
1.45151
1.45385
1.45568
1.45671
1.45647
1.45447
1.45043
1.44445
1.43707
1.42908
1.42136
1.41458
1.40916
1.40521
1.40259
1.40104
1.40024
1.39991
1.39983
1.39985
1.3999
1.39995
1.39998
1.39999
1.4
1.4
1.4
1.4
1.40001
1.40001
1.40001
1.40001
1.40001
1.40001
1.40001
1.40001
1.40001
1.40001
1.40001
1.40001
1.40001
1.40001
1.40001
1.40001
1.40001
1.40001
1.40001
1.40001
1.40001
1.40001
1.40001
1.40001
1.40001
1.40001
1.40001
1.4
1.40001
1.40001
1.4
1.40001
1.40001
1.40001
1.40001
1.40001
1.40002
1.40001
1.40002
1.40003
1.40003
1.40002
1.40002
1.4
1.39999
1.39996
1.39991
1.39986
1.39981
1.39977
1.39975
1.39977
1.39988
1.40011
1.40052
1.40116
1.40213
1.4035
1.40535
1.40775
1.41074
1.41434
1.41849
1.42309
1.42799
1.43299
1.43784
1.44232
1.44619
1.44933
1.45177
1.45373
1.45553
1.4575
1.45972
1.46186
1.46315
1.46264
1.45961
1.45387
1.44588
1.43662
1.42727
1.41884
1.41196
1.40688
1.40348
1.40144
1.40037
1.39992
1.3998
1.39982
1.39988
1.39993
1.39997
1.39999
1.4
1.4
1.4
1.4
1.40001
1.40001
1.40001
1.40001
1.40001
1.40001
1.40001
1.40001
1.40001
1.40001
1.40001
1.40001
1.40001
1.40001
1.40001
1.40001
1.40001
1.40001
1.40001
1.40001
1.40001
1.40001
1.40001
1.4
1.4
1.40001
1.4
1.40001
1.40001
1.4
1.40001
1.40002
1.4
1.40001
1.40001
1.40002
1.40002
1.40003
1.40004
1.40004
1.40004
1.40005
1.40004
1.40003
1.4
1.39997
1.39992
1.39988
1.39984
1.39983
1.39987
1.40001
1.4003
1.40078
1.40155
1.40269
1.40428
1.40641
1.40917
1.41259
1.41666
1.4213
1.42639
1.43167
1.43689
1.44168
1.44575
1.44878
1.45061
1.45122
1.4509
1.45026
1.45016
1.45134
1.45418
1.45829
1.46251
1.46521
1.46494
1.46096
1.45351
1.44374
1.43318
1.42325
1.41494
1.4087
1.40446
1.40189
1.40053
1.39994
1.39977
1.39978
1.39985
1.39991
1.39996
1.39998
1.4
1.4
1.4
1.4
1.4
1.40001
1.40001
1.40001
1.40001
1.40001
1.40001
1.40001
1.40001
1.40001
1.40001
1.40001
1.40001
1.40001
1.40001
1.40001
1.40001
1.40001
1.40001
1.40001
1.40001
1.40001
1.40001
1.40001
1.40001
1.4
1.4
1.40001
1.4
1.4
1.40002
1.4
1.40001
1.40002
1.40002
1.40003
1.40004
1.40005
1.40005
1.40007
1.40008
1.40008
1.40008
1.40007
1.40004
1.4
1.39997
1.39994
1.39995
1.40001
1.40018
1.40052
1.40109
1.40198
1.40328
1.40511
1.40754
1.41066
1.4145
1.41904
1.42417
1.42967
1.43525
1.44049
1.44496
1.44819
1.4498
1.44951
1.44726
1.4433
1.43836
1.43364
1.43066
1.43081
1.4348
1.44218
1.45121
1.45935
1.46411
1.46391
1.45863
1.44949
1.43843
1.42741
1.41786
1.41052
1.40547
1.40236
1.4007
1.39996
1.39973
1.39974
1.39982
1.39989
1.39995
1.39998
1.39999
1.4
1.4
1.4
1.4
1.40001
1.40001
1.40001
1.40001
1.40001
1.40001
1.40001
1.40001
1.40001
1.40001
1.40001
1.40001
1.40001
1.40001
1.40001
1.40001
1.40001
1.40001
1.40001
1.40001
1.40001
1.4
1.4
1.4
1.4
1.40001
1.4
1.4
1.40002
1.4
1.4
1.40003
1.40002
1.40002
1.40004
1.40006
1.40007
1.40009
1.4001
1.40013
1.40014
1.40014
1.40013
1.40011
1.40009
1.40008
1.40009
1.40018
1.40038
1.40077
1.40142
1.40243
1.40391
1.40595
1.40868
1.41217
1.41644
1.42144
1.42702
1.43291
1.43868
1.44382
1.44772
1.44975
1.44942
1.44631
1.44033
1.43166
1.421
1.40968
1.39966
1.39328
1.39266
1.39882
1.41119
1.42729
1.4434
1.45568
1.46151
1.46022
1.45307
1.44243
1.43089
1.42044
1.41219
1.4064
1.40281
1.40086
1.39999
1.39971
1.3997
1.39979
1.39987
1.39994
1.39997
1.39999
1.4
1.4
1.4
1.4
1.40001
1.40001
1.40001
1.40001
1.40001
1.40001
1.40001
1.40001
1.40001
1.40001
1.40001
1.40001
1.40001
1.40001
1.40001
1.40001
1.40001
1.40001
1.40001
1.40001
1.40001
1.40001
1.40001
1.4
1.40001
1.4
1.4
1.40001
1.40001
1.39999
1.40003
1.40002
1.40002
1.40003
1.40006
1.40008
1.4001
1.40015
1.40017
1.4002
1.40022
1.40023
1.40024
1.40023
1.40024
1.40028
1.40039
1.40062
1.40105
1.40177
1.40289
1.40452
1.40679
1.4098
1.41365
1.41834
1.42379
1.42981
1.43604
1.44195
1.44688
1.45002
1.4506
1.44788
1.44141
1.431
1.41685
1.3996
1.38053
1.36171
1.34597
1.33653
1.33614
1.34615
1.36563
1.39118
1.41768
1.43979
1.45369
1.45805
1.45414
1.44483
1.43338
1.42244
1.41353
1.40718
1.40319
1.401
1.40001
1.39968
1.39967
1.39976
1.39986
1.39993
1.39997
1.39999
1.4
1.4
1.4
1.4
1.40001
1.40001
1.40001
1.40001
1.40001
1.40001
1.40001
1.40001
1.40001
1.40001
1.40001
1.40001
1.40001
1.40001
1.40001
1.40001
1.40001
1.40001
1.4
1.40001
1.4
1.40001
1.4
1.40001
1.40001
1.4
1.40001
1.40001
1.4
1.40002
1.40003
1.40001
1.40003
1.40006
1.40008
1.40011
1.40016
1.40019
1.40025
1.40029
1.40034
1.40037
1.4004
1.40043
1.40049
1.40062
1.40088
1.40134
1.40211
1.40332
1.40508
1.40755
1.41083
1.415
1.42009
1.426
1.43245
1.43901
1.44502
1.44966
1.45196
1.45089
1.44555
1.4353
1.41994
1.39976
1.37543
1.34819
1.32
1.29373
1.27307
1.262
1.2638
1.2799
1.3088
1.34603
1.38489
1.4185
1.44177
1.45282
1.45297
1.44564
1.4348
1.42373
1.41444
1.40772
1.40345
1.4011
1.40001
1.39966
1.39964
1.39974
1.39984
1.39992
1.39996
1.39999
1.4
1.4
1.4
1.4
1.4
1.40001
1.40001
1.40001
1.40001
1.40001
1.40001
1.40001
1.40001
1.40001
1.40001
1.40001
1.40001
1.40001
1.40001
1.40001
1.40001
1.40001
1.40001
1.40001
1.4
1.40001
1.4
1.40001
1.4
1.40001
1.40001
1.4
1.40001
1.40002
1.40001
1.40002
1.40005
1.40008
1.40011
1.40015
1.40022
1.40027
1.40035
1.40043
1.4005
1.40055
1.40063
1.40072
1.40087
1.40114
1.40163
1.40243
1.40368
1.40554
1.40815
1.41165
1.41613
1.4216
1.42793
1.43482
1.44173
1.44785
1.45222
1.45363
1.45086
1.44278
1.42856
1.40797
1.38138
1.3497
1.31428
1.27697
1.24038
1.20812
1.18464
1.17448
1.1812
1.20597
1.24655
1.29713
1.3495
1.39523
1.42818
1.44606
1.4504
1.44522
1.43523
1.42431
1.4149
1.40799
1.40358
1.40114
1.40002
1.39964
1.39963
1.39973
1.39983
1.39991
1.39996
1.39999
1.4
1.4
1.4
1.4
1.4
1.40001
1.40001
1.40001
1.40001
1.40001
1.40001
1.40001
1.40001
1.40001
1.40001
1.40001
1.40001
1.40001
1.40001
1.40001
1.40001
1.40001
1.40001
1.40001
1.40001
1.40001
1.4
1.40001
1.40001
1.40001
1.4
1.40001
1.40002
1.40001
1.40002
1.40005
1.40007
1.40009
1.40014
1.4002
1.40028
1.40038
1.40048
1.40058
1.40069
1.4008
1.40093
1.40111
1.40139
1.40188
1.40267
1.40393
1.40582
1.40851
1.41216
1.41688
1.42267
1.42941
1.43675
1.44405
1.45038
1.45456
1.45517
1.45076
1.43999
1.42185
1.39599
1.36287
1.32371
1.2802
1.2343
1.18839
1.14562
1.11018
1.08703
1.08108
1.09581
1.13185
1.18591
1.25076
1.31669
1.37397
1.41575
1.43961
1.44749
1.44415
1.43493
1.42427
1.41491
1.40798
1.40356
1.40111
1.4
1.39963
1.39962
1.39972
1.39983
1.39991
1.39996
1.39999
1.4
1.4
1.4
1.4
1.4
1.40001
1.40001
1.40001
1.40001
1.40001
1.40001
1.40001
1.40001
1.40001
1.40001
1.40001
1.40001
1.40001
1.40001
1.40001
1.40001
1.4
1.40001
1.4
1.40001
1.4
1.40001
1.4
1.40001
1.4
1.4
1.40001
1.40001
1.40001
1.40003
1.40005
1.40007
1.40011
1.40017
1.40027
1.40036
1.40048
1.40061
1.40076
1.40091
1.40109
1.4013
1.4016
1.40207
1.40283
1.40404
1.40588
1.40855
1.41224
1.41709
1.42313
1.43023
1.43801
1.44578
1.45246
1.45667
1.45676
1.45096
1.43772
1.41588
1.38499
1.34552
1.29896
1.24749
1.19348
1.13931
1.08765
1.04205
1.00707
0.988017
0.989831
1.01558
1.06504
1.13364
1.21272
1.29113
1.35825
1.40691
1.435
1.44518
1.44292
1.43417
1.42373
1.41452
1.40772
1.4034
1.40104
1.39997
1.39962
1.39962
1.39972
1.39983
1.39991
1.39996
1.39999
1.4
1.4
1.4
1.4
1.4
1.40001
1.40001
1.40001
1.40001
1.40001
1.40001
1.40001
1.40001
1.40001
1.40001
1.40001
1.40001
1.40001
1.40001
1.40001
1.40001
1.40001
1.40001
1.4
1.40001
1.4
1.40001
1.4
1.40001
1.4
1.40001
1.40001
1.40001
1.40002
1.40003
1.40005
1.40007
1.40014
1.40021
1.4003
1.40043
1.40058
1.40075
1.40095
1.40116
1.40141
1.40172
1.40218
1.40288
1.40399
1.40569
1.40822
1.41181
1.41663
1.42276
1.43011
1.43832
1.44663
1.45389
1.45847
1.45847
1.45183
1.43663
1.41155
1.37608
1.33074
1.27717
1.21798
1.15618
1.09449
1.03541
0.981707
0.937131
0.906536
0.895354
0.908233
0.94753
1.01183
1.09514
1.18729
1.27605
1.35032
1.40312
1.43315
1.44397
1.44181
1.43311
1.4228
1.4138
1.40725
1.40314
1.40092
1.39993
1.39962
1.39963
1.39973
1.39984
1.39992
1.39996
1.39999
1.4
1.4
1.4
1.4
1.4
1.40001
1.40001
1.40001
1.40001
1.40001
1.40001
1.40001
1.40001
1.40001
1.40001
1.40001
1.40001
1.40001
1.40001
1.40001
1.40001
1.40001
1.40001
1.40001
1.40001
1.40001
1.4
1.4
1.4
1.40001
1.40001
1.40001
1.40001
1.40002
1.40003
1.40006
1.40009
1.40015
1.40023
1.40034
1.40049
1.40067
1.40088
1.40113
1.4014
1.40173
1.40217
1.4028
1.40378
1.40528
1.40755
1.41085
1.41543
1.42144
1.42885
1.43736
1.44625
1.45429
1.4597
1.46028
1.45362
1.43742
1.40995
1.37062
1.32008
1.26014
1.19373
1.12441
1.05557
0.989904
0.929729
0.877823
0.838085
0.815591
0.815639
0.842313
0.896906
0.976557
1.0737
1.17681
1.2729
1.35089
1.40466
1.43409
1.44383
1.44082
1.43176
1.42151
1.4128
1.4066
1.40279
1.40076
1.39988
1.39963
1.39965
1.39975
1.39985
1.39992
1.39996
1.39999
1.4
1.4
1.4
1.4
1.4
1.40001
1.40001
1.40001
1.40001
1.40001
1.40001
1.40001
1.40001
1.40001
1.40001
1.40001
1.40001
1.40001
1.40001
1.40001
1.40001
1.40001
1.40001
1.40001
1.40001
1.40001
1.4
1.40001
1.40001
1.40001
1.40001
1.40001
1.40001
1.40002
1.40003
1.40005
1.4001
1.40015
1.40024
1.40036
1.40052
1.40072
1.40097
1.40125
1.40159
1.40202
1.40259
1.40342
1.40468
1.40661
1.40947
1.41358
1.41918
1.42635
1.43491
1.44425
1.4532
1.4599
1.46189
1.45635
1.4405
1.41213
1.3702
1.31539
1.24986
1.17687
1.10043
1.02457
0.952528
0.886654
0.829021
0.78241
0.750937
0.739732
0.753723
0.796115
0.866816
0.961339
1.07048
1.18157
1.2813
1.35926
1.41075
1.43716
1.44433
1.43974
1.43006
1.41988
1.41158
1.40583
1.40238
1.40059
1.39984
1.39964
1.39968
1.39978
1.39987
1.39993
1.39997
1.39999
1.4
1.4
1.4
1.4
1.4
1.40001
1.40001
1.40001
1.40001
1.40001
1.40001
1.40001
1.40001
1.40001
1.40001
1.40001
1.40001
1.40001
1.40001
1.40001
1.40001
1.40001
1.40001
1.40001
1.40001
1.4
1.40001
1.4
1.40001
1.40001
1.40001
1.40001
1.40001
1.40002
1.40003
1.40005
1.40008
1.40014
1.40023
1.40035
1.40052
1.40073
1.401
1.40132
1.40171
1.40223
1.40294
1.40397
1.40552
1.40786
1.41131
1.4162
1.42274
1.43096
1.44043
1.45017
1.45839
1.46257
1.45949
1.4458
1.41859
1.37618
1.31876
1.24867
1.16976
1.0866
1.00378
0.925182
0.853543
0.790756
0.738743
0.70042
0.680064
0.682645
0.712474
0.771552
0.858195
0.966136
1.08461
1.20008
1.29943
1.37363
1.41985
1.44126
1.4448
1.43823
1.42792
1.41794
1.41017
1.40497
1.40194
1.40043
1.39982
1.39967
1.39971
1.3998
1.39989
1.39994
1.39997
1.39999
1.4
1.4
1.4
1.4
1.4
1.40001
1.40001
1.40001
1.40001
1.40001
1.40001
1.40001
1.40001
1.40001
1.40001
1.40001
1.40001
1.40001
1.40001
1.40001
1.40001
1.40001
1.40001
1.40001
1.4
1.40001
1.4
1.40001
1.40001
1.4
1.40001
1.40001
1.40001
1.40001
1.40002
1.40004
1.40007
1.40012
1.4002
1.40031
1.40047
1.40069
1.40095
1.4013
1.40174
1.40233
1.40316
1.40437
1.4062
1.40893
1.41291
1.41848
1.42585
1.43491
1.44497
1.45457
1.4613
1.46184
1.45231
1.42891
1.38893
1.33167
1.25903
1.17518
1.08557
0.995687
0.910097
0.832058
0.763703
0.706643
0.662792
0.635178
0.628075
0.646124
0.69274
0.768523
0.870036
0.989153
1.11366
1.22951
1.3245
1.39153
1.43009
1.44519
1.44461
1.43605
1.4253
1.41573
1.40864
1.40408
1.40151
1.40028
1.3998
1.3997
1.39975
1.39984
1.39991
1.39995
1.39998
1.39999
1.4
1.4
1.4
1.4
1.4
1.40001
1.40001
1.40001
1.40001
1.40001
1.40001
1.40001
1.40001
1.40001
1.40001
1.40001
1.40001
1.40001
1.40001
1.40001
1.40001
1.40001
1.40001
1.40001
1.4
1.40001
1.4
1.40001
1.4
1.4
1.40001
1.40001
1.40001
1.40001
1.40002
1.40003
1.40006
1.40009
1.40016
1.40025
1.4004
1.40059
1.40084
1.40118
1.40165
1.40229
1.40323
1.40461
1.40667
1.40973
1.41415
1.42027
1.42828
1.43794
1.44825
1.45723
1.46181
1.45793
1.44107
1.40719
1.35405
1.2823
1.19578
1.10052
1.00326
0.909869
0.824395
0.749355
0.686481
0.637251
0.603532
0.588323
0.595783
0.630067
0.693563
0.78533
0.899973
1.02744
1.15422
1.26636
1.35325
1.41034
1.43966
1.44788
1.44326
1.43307
1.42226
1.41335
1.40708
1.40321
1.40112
1.40015
1.3998
1.39974
1.3998
1.39987
1.39993
1.39996
1.39999
1.4
1.4
1.4
1.4
1.4
1.40001
1.40001
1.40001
1.40001