/*--------------------------------*- C++ -*----------------------------------*\
  =========                 |
  \\      /  F ield         | OpenFOAM: The Open Source CFD Toolbox
   \\    /   O peration     | Website:  https://openfoam.org
    \\  /    A nd           | Version:  6
     \\/     M anipulation  |
\*---------------------------------------------------------------------------*/
FoamFile
{
    version     2.0;
    format      ascii;
    class       surfaceScalarField;
    location    "1.62";
    object      meshPhi;
}
// * * * * * * * * * * * * * * * * * * * * * * * * * * * * * * * * * * * * * //

dimensions      [0 3 -1 0 0 0 0];

internalField   nonuniform List<scalar> 
11670
(
0.113823
-0.00839249
0.0593459
-0.183719
0.0739434
-0.0247531
0.0332162
-0.061977
0.149477
0.0186076
-0.000676133
-0.160695
0.378286
-0.0666248
0.243272
-0.585551
0.276909
-0.014412
0.140098
-0.42756
-0.00770119
-0.00140911
0.00136041
0.00164284
-0.78278
0.0422893
-0.0932786
0.830288
0.256
0.102195
-0.0510716
-0.263077
-0.293336
0.00840773
-0.0296023
0.293732
0.356703
-0.171593
0.234434
-0.389517
-0.667411
-0.129167
-0.157294
0.957456
0.00281435
0.00667178
-0.00774198
0.0108128
-0.00481639
0.00133933
-0.0169462
0.00813514
-0.00716173
0.00169729
0.0080317
-0.0179817
0.00804983
-0.00739407
0.0228137
-0.00826674
-0.000272901
-0.00117751
-0.00968423
0.00398792
0.00340098
-0.00172552
0.00735946
-0.00322741
0.00117223
0.00209153
-0.0032481
0.00452007
-0.00298688
-0.00216685
-0.0135863
0.00853279
-0.00178022
-0.00221306
0.00316108
-0.0046585
0.00243303
-0.00134585
0.00942689
-0.00348379
-0.00176218
-0.00208991
0.00279754
-0.00280144
0.000887407
0.00212466
-0.00303252
0.00440998
0.0100003
-0.00232688
0.0129473
-0.00827406
-0.00260273
0.00118472
-0.0107079
0.00395959
-0.00346889
-0.000633716
0.00810916
-0.0269226
-0.00616054
0.00724333
-0.00854296
0.0264769
-0.0118999
0.000248035
-0.0195113
0.0127736
0.0100107
-0.00237231
-0.0132001
0.0208908
0.00229674
-0.00402306
0.0131888
-0.0422492
0.0138259
-0.00431813
-0.0164305
0.0261599
-0.0160931
0.00172533
-0.023961
0.015889
0.00656565
-0.00886136
0.0164054
-0.0522305
-0.000219795
0.0157464
0.0258141
-0.0172826
0.0344433
-0.0321322
-0.0178442
0.0568884
-0.0185582
0.016243
0.0178401
-0.0570244
-0.00648926
-0.00898659
-0.0256924
0.0172786
-0.00589873
0.00134494
-0.0380416
0.0174519
0.0214842
-0.00891771
0.0256193
-0.0170965
-0.029698
0.035834
-0.0198266
0.0625471
-0.00145138
-0.00761375
-0.0238976
0.0150087
-0.0113119
0.012485
0.0410665
-0.0145295
0.00689855
-0.0138922
0.0142636
-0.0465126
0.020947
-0.00461148
-0.0136071
0.0184488
-0.00882611
0.0023443
0.0103746
-0.0206363
-5.81848e-05
0.00462435
0.0224142
-0.0105002
-0.00492996
3.25299e-06
-0.0249014
0.0105082
0.0159001
-0.00895063
-0.0103667
0.0227437
-0.00186152
-0.00165444
-0.00926881
0.00582121
0.00602283
-9.2437e-05
-0.00526535
0.00649509
-0.00177181
-0.000914321
0.00553221
-0.018141
-0.00215533
0.00263312
0.0170144
-0.00562225
0.000300895
1.67837e-05
-2.55954e-05
0.00061204
2.80372e-05
-0.000105706
-0.00134228
-3.14952e-05
1.34993e-14
-1.02434e-14
0
0
-0.00542393
-0.00509671
0.00504036
-0.00430808
0.00686467
0.00161946
0.00622679
-0.00515792
-9.16018e-05
0.00043051
-0.0207001
0.00677108
0.00179079
-0.00364018
-0.00588962
0.0168734
-0.011096
-0.000139555
-0.0185131
0.0127409
0.0167868
-0.00426853
-0.011804
0.0170501
0.00262575
-0.00435026
0.013155
-0.0426056
-0.0153051
0.0183155
0.0458401
-0.0146668
-0.00213356
-0.00451735
-0.0175332
0.0110116
0.00152688
-0.00682131
0.0104649
-0.0347438
-0.0119433
0.0109911
0.0390558
-0.0113485
0.0144709
-0.00209574
-0.0105467
0.0133416
-0.000312205
-0.0100344
0.0178803
-0.0284677
0.0282546
-0.00765362
-0.0171356
0.0224696
-0.0271661
0.0256469
0.0619758
-0.0184383
-0.0241817
0.0261641
-0.0173494
0.0562517
0.0234768
-0.0084738
0.0248699
-0.0168033
-0.0202113
0.000102621
0.016671
-0.0220094
0.00963149
-0.00829264
-0.0603923
0.0179383
-0.0155342
0.00141337
-0.0233689
0.0158696
0.00675507
-0.00889062
0.0163854
-0.0526687
0.00167103
0.0170766
-0.015738
0.0203595
0.0300098
-0.0314148
0.0574386
-0.0169344
0.0227184
-0.000843937
0.0160544
-0.0132986
-0.00375057
-0.0113798
-0.0163655
0.0120028
0.00652308
-0.0126009
0.0189318
-0.0523597
0.00980795
-0.0145762
-0.0151851
0.0435043
0.0113779
-0.0168811
0.0949108
-0.0471372
0.0445136
0.155938
-0.00500982
0.00366088
0.102021
0.130114
-0.14554
-0.767794
0.0197926
0.0136155
0.227502
-0.00107035
-0.00484603
-0.00524001
-0.150075
0.143652
0.294555
0.0154309
-0.0209887
0.35931
-0.00604731
-0.0546182
-0.249184
0.0702564
-0.0810537
0.390451
0.200765
-0.188635
-0.670287
0.0796821
-0.0233299
-0.445735
0.381726
-0.0933629
0.00202983
-0.070397
0.158665
1.22535e-05
0.00248561
0.00207078
-0.0018178
-0.0119368
-0.0308915
0.0744545
-0.0242328
0.0139271
-0.137258
-0.0205296
0.153305
-0.0336748
0.270543
0.0263023
-0.253178
-0.0292066
0.0510923
0.0968543
-0.128182
-0.0263649
0.0508031
0.0710182
-0.0974393
-0.0154699
-0.445735
0.359473
0.00128089
-0.00567538
-0.0056998
0.0129469
0.000627899
0.0147545
-0.00553489
-0.00134986
0.0149876
-0.0369078
-0.0552481
0.069869
0.0132202
0.010617
-0.0140725
-0.016747
0.0181459
-0.00935055
0.00737231
0.0141002
0.0416897
-0.0482332
0.0116652
-0.00715259
-0.000592386
-0.0385679
-0.116612
0.117331
-0.104631
0.158766
-0.0314489
-0.00028156
0.00397614
-0.000986813
0.145835
-0.204034
0.0346935
-0.0233783
-0.0843443
0.080016
-0.0512397
-0.010095
0.0567219
0.0132719
-0.047802
-0.0348779
0.0781597
-0.0227768
-0.0372687
0.0820691
0.000193959
-0.0332794
0.000597365
0.0554564
0.0780805
0.000538214
-0.0554564
-0.0671657
0.0276085
-0.0258235
0.0441815
-0.123667
-0.0259646
0.0612668
-0.0110887
0.00754881
-0.0115857
0.0131805
-0.00458561
0.00761775
-0.016066
-0.0709724
0.10661
0.0437923
-0.0805061
-0.0284716
0.0409562
-0.0845329
-0.106339
-0.243648
-0.323585
0.695719
-0.367855
-0.319249
0.602912
0.0524142
-0.111839
-0.115503
0.194651
-0.0837806
-0.114006
0.269924
-0.124191
0.108603
0.00179522
-0.00320168
-0.13927
0.00177951
-0.00369451
-2.80663e-05
0.0111938
3.23579e-05
-0.00597506
-0.000810645
3.05738e-05
0.00597506
-0.106435
0.184921
-0.169706
0.0231939
0.00611329
0.135343
0.246291
-0.000231044
-0.0623723
-0.19224
0.0561497
-0.00889404
0.00164073
-0.0489844
0.17649
0.00138206
-0.043988
-0.137537
-0.0536339
-0.00227631
0.0189634
0.0404818
-0.0994176
0.0152716
0.000232232
0.0838821
0.097661
0.00148741
-0.0253191
-0.0727352
-0.0322321
0.007666
-0.00138025
0.0306778
0.0286707
-0.00502261
-0.000841653
-0.0281751
-0.0455345
-0.000451265
0.0122085
0.0329561
0.0524489
-0.0122707
0.0120232
-0.0428587
-0.0518652
-0.00805682
0.0289521
0.0425958
0.1868
-0.00712381
-0.0303026
-0.155451
-0.198735
0.0400463
-0.00150344
0.157272
0.525547
-0.151111
0.0347384
-0.396298
-0.28821
-0.0349849
0.0976777
0.241019
0.192495
-0.0511323
-0.00652282
-0.13255
-0.731918
-0.0119631
0.14766
0.591652
0.713429
-0.17316
-0.00469564
-0.542188
0.289607
0.0138895
-0.0953079
-0.191764
0.0927374
-0.00985631
-0.0263983
-0.0778541
-0.323273
0.176632
0.0298695
0.119918
-0.449503
0.12466
0.109888
0.209932
1.0102
-0.405383
0.205062
-0.777645
-0.710882
-0.0215208
0.231014
0.459503
0.344529
-0.0727338
-0.0800891
-0.206705
0.227467
-1.06361
0.080827
0.75817
0.659923
-0.243253
-0.0241694
-0.373005
0.435106
-0.215832
0.129877
-0.296789
-0.319376
-0.174651
1.20771
-0.71182
-0.702621
0.131195
0.0117876
0.553087
0.789078
-0.273094
0.0536118
-0.544753
-0.737539
-0.175722
0.355418
0.589456
0.414812
-0.149455
-0.084543
-0.193859
-0.852756
0.422533
-0.0304229
0.482572
-0.207446
-0.11331
0.17243
0.208823
0.189952
-0.00544317
-0.083405
-0.150944
-0.729732
0.274487
0.259143
0.182539
-0.831599
-0.0192763
0.175419
0.625079
0.553767
-0.23978
-0.0547259
-0.248551
0.572568
-0.284628
0.184368
-0.430295
-0.316292
0.0976477
0.0440709
0.154886
0.376848
-0.18751
0.124488
-0.263852
0.594795
-0.0367363
-0.102162
-0.465046
0.627827
-0.162183
-0.167534
-0.306767
0.430025
0.00713357
-0.148729
-0.325148
-0.0709278
0.236833
-0.566745
0.430923
-0.162456
-0.0275656
0.109294
0.112279
-0.202854
0.0160618
0.0166385
0.144358
0.0653522
-0.00774243
-0.0134216
-0.0633974
-0.467862
-0.183371
0.287091
0.411945
0.492175
-0.143007
0.0171285
-0.412091
-0.194151
-0.101435
0.15626
0.19506
-0.241624
0.0734162
0.0927962
0.063549
0.160262
-0.0534074
-0.0765367
-0.0422696
-0.00885904
0.0437533
-0.025298
2.24993e-19
-0.00104534
0.00187751
2.24993e-19
-0.00225174
0.00141958
0
-4.49986e-19
0.000946793
0.0375335
-0.0222091
0.0668206
0.0584995
-0.497216
0.355713
0.370748
-0.0383013
-0.0776467
-0.269868
-2.39238e-13
0.00456449
0.000588075
1.83881e-13
1.03964e-13
0.000170486
0.00198514
-1.1811e-13
0.0180018
-0.00010037
0.00100674
-0.00992608
0.0638751
-0.02128
0.00350274
-0.0305041
0.0243899
-3.08156e-05
-0.00498767
-0.0136492
-0.0180018
2.78321e-06
0.00304618
0.00992519
-0.0243914
-7.65193e-05
0.000733726
0.0136492
0.000187762
0.0012982
-0.00666318
-2.40145e-05
4.63144e-07
0.00184882
0.00526097
-3.87393e-06
-3.15084e-06
0.00687083
0.00299876
2.44171e-07
-0.0119088
0.00195229
-4.13416e-05
0.000193814
0.118218
-0.0476394
0.0307041
-0.0865069
-0.495294
0.0494003
0.140896
0.294522
-0.0236385
0.0716503
-0.123827
0.0917658
0.523963
0.120451
-0.242785
-0.373603
-0.728667
0.267994
0.255889
0.190916
0.15811
-0.0396077
-0.0231714
-0.0878408
-0.811698
0.140156
0.0137156
0.610939
-0.196707
-0.011178
0.0805512
0.133898
-0.317102
0.0976913
0.0582484
0.143166
0.291384
0.100523
-0.142184
-0.203933
0.000400827
0.00177444
-0.0142751
-3.91413e-05
-5.62998e-05
-0.0164444
0.00145746
0.000373468
0.00148924
-0.000795848
0.00619896
0.00158442
-0.110937
0.0362434
-0.00588454
0.083338
0.00599879
0.0819794
-0.372843
0.285403
0.483264
-0.120608
-0.0117721
-0.353608
0.135657
0.00458965
-0.0279002
-0.112886
0.598344
-0.213271
-0.248216
-0.156885
0.272741
-0.119894
-0.469419
0.347982
-0.124964
0.0148151
-0.00230765
0.0620501
0.464778
-0.00867991
-0.107618
-0.38977
0.0511227
-0.0174568
0.00448062
-0.0287224
0.242832
-0.00382751
-0.0641589
-0.188248
-0.281465
0.0291104
0.0126741
0.224895
0.146063
-0.0356824
-0.0643185
-0.0662347
-0.161303
0.125372
-0.07712
0.162421
0.0601204
-0.123423
0.295386
-0.211322
-0.452034
0.00186397
0.0787173
0.364787
0.554313
-0.116865
-0.000197429
-0.44679
-0.786947
0.0538522
0.134155
0.587795
0.17731
0.0318325
-0.0647506
-0.133559
-0.157269
-0.0463214
0.752013
-0.561941
0.0985946
-0.0406381
-0.207113
0.164379
-0.642977
0.083902
0.486094
0.264599
0.0788381
-0.126635
-0.185013
0.0909445
0.166025
-0.955711
0.6808
-0.359514
0.0471823
0.0108053
0.26219
-0.133036
-0.00379862
0.0199832
0.069468
-0.284167
0.144073
-0.0458089
0.206845
0.367192
-0.0411714
-0.304803
-0.238553
0.133926
-0.0534085
0.187799
0.901578
-0.169073
-0.0847808
-0.666887
0.121553
-0.00677321
-0.0267644
-0.12071
0.0837337
-0.0012608
-0.0431795
-0.103152
-0.00415469
0.022163
0.0504549
1.0642
-0.193951
-0.0756607
-0.808247
0.101361
-0.0225662
0.00935207
-0.0510973
0.964711
-0.199798
-0.0259378
-0.74641
0.0726283
-0.0193895
0.00060353
-0.0334491
-1.1018
0.071105
0.19124
0.829641
0.0937315
0.0134892
-0.015198
-0.0476565
0.000446776
-0.0612748
0.00846735
0.016445
0.743215
-0.170748
0.000339567
-0.575637
-1.12154
-0.00674747
0.232987
0.890613
0.17086
-0.0435987
-0.0139566
-0.104672
-0.56803
0.157375
0.147997
0.256792
0.520788
-0.120627
-0.173807
-0.235428
-0.185691
-0.0291254
0.112519
0.115041
-0.558807
0.0620784
0.17415
0.3088
0.328086
-0.147645
-0.00525535
-0.155184
-0.0448897
-0.0225734
0.134776
-0.0653426
-0.131769
0.00898712
0.0641154
0.0638846
0.134837
0.0217441
-0.797747
0.632202
0.714692
-0.0336534
-0.149224
-0.541102
-0.0164057
0.00370984
4.00543e-12
-4.16207e-12
-2.90572e-12
0.0050615
-0.0158504
2.21457e-12
0.125355
-0.0444272
-0.00976924
-0.0635096
-0.120606
0.00359188
0.0671471
0.0613147
-0.857684
-0.0328625
0.209625
0.681408
0.938816
-0.227923
-0.172231
-0.541285
-0.0482159
-0.00838131
0.0295277
0.0388521
0.0538944
-0.0141183
0.0170109
-0.0448933
-0.500456
0.0337299
0.0767319
0.37949
-0.108442
-0.0205755
0.559555
-0.444276
-0.434129
0.143357
0.162797
0.114091
-0.124406
0.0383254
0.0477219
0.0310872
-0.199102
0.0858407
-0.0312254
0.165846
0.0455394
0.00296312
-0.0820502
0.03978
0.0424543
-0.00354962
-0.0116904
-0.0272233
-0.00792234
-0.028823
0.0795337
-0.0385599
0.151217
-0.0494941
-0.040879
-0.0666846
0.0522467
-0.0137942
0.0131367
-0.0393023
0.105444
-0.0385632
-0.0520467
-0.0263285
-0.00719017
0.0331428
-0.0559495
0.042435
0.188847
0.00343762
-0.0783595
-0.118917
-0.10752
0.0830984
0.0125152
0.0275752
0.320937
-0.115536
-0.137084
-0.0846385
0.126015
-0.0089932
-0.0692072
-0.0325
-0.00493678
-0.0135192
0.0569944
-0.0357143
0.165058
-0.0599272
-0.00856662
-0.0988934
0.534291
-0.1623
-0.0783092
-0.30812
-0.0519068
0.00126624
0.0291068
0.0289438
-0.145487
0.0496976
0.0299168
0.0641315
-0.00912598
-0.0666223
0.240833
-0.178366
-0.193262
0.0158364
0.0143725
0.147972
-0.0547404
-0.00623043
0.0298146
0.0421995
-0.0146462
0.017332
0.0552944
-0.0435813
-0.200642
0.0252378
0.00979293
0.158165
0.0908628
0.013551
-0.0321907
-0.0530978
0.268118
-0.00148164
-0.0658385
-0.211395
-0.0304206
0.00143309
0.0145339
0.012963
-0.277545
0.0284708
0.0312485
0.204717
0.14957
-0.0026827
-0.0333337
-0.127611
0.181098
0.0733134
-0.093028
-0.134119
0.0518416
-0.00674055
-0.0038068
-0.0326239
-0.202338
0.121555
-0.0609496
0.170487
0.0339897
-0.00547474
0.000716702
-0.0195902
0.409042
0.0291499
-0.138087
-0.282694
-0.127659
0.00911196
0.0257326
0.0805339
-0.111454
0.0101502
0.0123509
0.071315
0.570018
-0.240133
-0.0288201
-0.319024
-0.562261
-0.0184441
0.219255
0.363908
-0.0317153
-0.00533752
0.125039
-0.116625
-0.182941
-0.00999533
0.101307
0.128492
-0.13781
-0.0447262
0.0768022
0.139262
0.210108
-0.0933845
0.0159561
-0.181952
-0.0197333
-0.0965716
0.0891646
-0.288812
0.0264144
0.199766
0.144922
-0.0499413
-0.102975
-0.024783
0.110596
-0.0956754
-0.518653
0.0103135
0.202511
0.284452
0.161693
-0.0627479
0.0149547
-0.162318
0.173324
0.00164329
-0.0751797
-0.108242
0.0385159
0.261753
-1.13729
0.835081
0.488336
0.0210181
-0.130115
-0.3771
-0.229863
0.150275
-0.0905839
0.212386
0.954077
-0.350397
0.0431479
-0.622541
-0.480857
-0.0136306
0.122265
0.326132
0.625472
-0.347697
0.12789
-0.37732
-0.521999
0.177035
0.180053
0.135186
-0.191902
0.0076219
0.0300248
0.133958
0.327225
-0.113722
0.0410601
-0.228809
0.238999
-0.0433805
-0.00887969
-0.210008
0.0454108
-0.00667648
0.00650502
-0.0329396
-0.0287051
-0.00294768
0.0130682
0.0284618
0.0322511
-0.000963888
-0.0102696
-0.0302497
0.171345
0.0310528
-0.0553202
-0.115543
-0.0999682
0.00670726
0.0059517
0.0727482
-0.216138
0.0216287
0.029077
0.136817
-0.0811648
-0.13809
0.775786
-0.567667
0.315258
-0.0817943
-0.0802314
-0.184414
0.356432
-0.0983115
-0.00459029
-0.283364
0.401667
-0.128708
-0.00599958
-0.238331
-0.290568
-0.0185318
0.070009
0.199077
-0.235998
-0.00256865
0.134376
0.11915
0.35291
0.00638352
-0.119933
-0.281899
0.642929
-0.0427912
-0.0961579
-0.543048
-0.342106
-0.135712
0.241687
0.288216
0.896928
-0.0596975
-0.287374
-0.562631
-0.932165
0.318862
-0.0433563
0.673087
0.230162
0.0466715
-0.083739
-0.154531
-0.556282
0.166139
-0.0449048
0.44078
0.291411
0.109565
-0.146091
-0.215178
1.2016
-0.260738
-0.0597913
-0.886914
-0.454139
0.25623
0.377842
-0.0649482
-0.154944
0.25911
-0.0662017
-0.248468
0.010631
0.0341241
0.186636
-0.843438
0.169437
0.054701
0.613275
-0.352626
0.205442
-0.0594854
0.221118
-0.571984
-0.0116864
0.264103
0.328299
-0.598149
0.119702
0.335263
0.157123
0.838312
-0.072201
-0.106783
-0.682968
0.813386
0.0807462
-0.312066
-0.555404
0.00420379
0.0936434
-0.434691
0.309759
0.593675
-0.299602
0.176016
-0.416614
0.154558
-0.0108927
-0.639484
0.448513
-0.788989
0.113752
0.0581216
0.582032
0.577297
-0.173184
-0.0827916
-0.353486
-0.563281
0.288391
-0.143392
0.444972
0.263976
0.0111373
-0.0746358
-0.164875
-0.254453
0.0745105
0.0247043
0.162552
-0.0994166
-0.00740579
0.0452431
0.0774122
0.114504
-0.0344924
0.0152696
-0.0781189
0.0834323
-0.00773312
-0.0273401
-0.0583345
7.72637e-13
0.00596498
0.00225425
-9.80204e-13
-0.00712554
-0.00819786
0.00543122
0.00235191
-0.0137456
0.0771442
-0.113091
0.0604269
-0.000459015
-0.000795123
0.00369357
-7.95559e-13
0.00107468
0.00371575
1.1573e-12
0.135193
-0.00267996
-0.0305285
-0.0997609
0.00501305
-0.000373481
-0.014533
0.00596121
-0.00151131
-0.00307721
0.00408386
-0.000749084
3.55232e-06
0.00740824
0.00367826
-2.9196e-07
0.0419407
-0.00284083
-0.115788
0.0815879
-0.0865582
0.0471719
0.0183914
0.0216703
-0.422207
0.0811207
0.0351622
0.284422
0.137226
-0.0253453
-0.0323033
-0.0996578
-0.108686
0.00864199
0.049531
0.0644763
0.0932291
-0.0371846
-0.0360309
-0.0233404
0.386458
-0.0978189
-0.0428639
-0.25761
-0.307834
0.067469
0.08895
0.150734
-5.53495e-07
0.00265213
0.00638914
4.38839e-06
1.48854e-12
0.00324838
8.92917e-05
-2.66015e-13
-0.113982
0.0133806
0.00981539
0.0734128
-0.0532585
0.00920598
0.0171193
0.0189866
0.0619592
-0.00760763
-0.00884511
-0.0348593
0.078794
-0.00476926
-0.0246945
-0.0437815
0.254839
-0.0859239
0.0139681
-0.22736
-0.419807
0.196703
0.194039
0.065435
-0.876078
0.23349
0.108714
0.549252
-0.368328
0.162867
0.0888798
0.0946747
0.662744
-0.284971
0.0842026
-0.421881
0.599367
0.178269
-0.470034
0.0397651
0.124704
-0.198494
0.049694
0.224417
-0.0583883
-0.010196
-0.129901
-0.212851
0.0421998
-0.000222489
0.137069
-1.05177
0.0975972
0.0917383
0.839091
0.728384
-0.37089
-0.16004
-0.191206
-0.790347
0.199712
0.395342
0.201787
0.307757
0.118561
-0.971697
0.533492
0.687131
0.171734
-0.295016
-0.536202
-0.789371
0.169101
0.138205
0.469341
0.20309
-0.0963068
-0.0664448
-0.0515037
-0.393353
-0.02217
0.0913975
0.283206
-0.157714
0.129702
-0.0789557
0.155083
-0.183582
-0.0604512
0.340203
-0.0851717
-0.211482
0.00154886
0.0641347
0.132657
0.636774
-0.217043
-0.278797
-0.162836
0.361152
-0.0863763
-0.567055
0.320524
0.857126
-0.326596
-0.0044579
-0.5295
0.854537
-0.400112
-0.238354
-0.2182
-0.203149
0.0815042
0.0648022
0.0516022
-0.382616
0.145452
0.000582087
0.207123
0.375496
0.133073
-0.183188
-0.270379
-0.123392
0.0884098
-0.0493138
0.122642
0.177168
-0.00336888
-0.0468806
-0.16512
0.589399
-0.169751
-0.266964
-0.153263
-0.941444
0.227791
0.173238
0.538802
0.285687
0.271153
-0.767041
0.195957
-0.273742
-0.0578584
0.222519
0.586574
-0.297852
-0.0135254
-0.266816
-0.581941
0.331868
0.107734
0.151322
0.266483
0.0885546
-0.115703
-0.194726
-0.380406
0.0676365
0.0148949
0.264843
0.916746
-0.138213
-0.0580855
-0.739486
-0.15849
0.363537
-0.276474
0.351185
0.00304442
-0.123776
-0.211977
-1.11472
0.0541543
0.144138
0.896898
0.136978
-0.3465
0.863695
-0.622529
-0.829985
0.167153
-0.00957167
0.631569
0.121363
0.114913
-1.16535
0.906709
0.828824
0.0597412
-0.275449
-0.596237
0.572839
0.163314
-0.275009
-0.415243
-0.936822
0.170408
0.0553849
0.679191
1.01179
-0.230422
-0.0127835
-0.77596
-0.280254
0.123441
0.0256136
0.136358
1.06242
-0.153437
-0.242518
-0.670279
-0.270133
0.0587041
-0.010134
0.181371
-0.679378
0.313014
-0.13003
0.530047
0.57582
0.00914114
-0.154957
-0.469007
0.882955
-0.0938769
-0.126418
-0.683896
0.289702
-0.0691067
-0.722805
0.522439
-0.101809
-0.186032
0.389704
-0.0998003
-0.377425
0.245562
-0.159096
0.343994
0.233091
0.00957798
-0.0628173
-0.147136
-0.0317497
-0.162747
0.703369
-0.544729
-1.11269
-0.0127324
0.228754
0.891419
0.335185
0.022769
-0.166118
-0.225476
-0.289327
0.228167
-0.0757343
0.169687
-0.388928
0.246652
0.0531989
0.0996032
0.0791724
-0.383569
0.276022
0.0980522
0.0798331
-0.652665
0.461572
0.895579
-0.292801
0.100129
-0.681095
0.402354
-0.0549749
-0.305557
-0.328627
-0.00687574
0.0742813
0.22732
-0.732772
0.411058
0.14776
0.187051
0.633667
-0.105025
-0.0732514
-0.472704
-0.566794
-0.0919602
0.220951
0.461129
-0.47597
-0.0312259
0.131502
0.329198
0.597319
-0.252902
0.127605
-0.431741
0.36267
-0.154139
-0.024395
-0.175731
0.20185
-0.0536764
-0.00746113
-0.116719
0.21854
-0.0733383
0.000167551
-0.181702
0.0478661
-0.114571
0.281416
-0.198294
-0.846168
0.0802019
0.116319
0.632093
-0.37143
-0.1353
0.21606
0.33893
0.291716
-0.116805
0.0203098
-0.242624
0.262135
-0.123197
0.00545662
-0.12703
0.613191
-0.172378
-0.0783553
-0.388224
-0.341209
0.166463
-0.00480551
0.204238
-0.204193
0.0540249
0.0203647
0.104277
0.00530248
-0.0505497
0.147117
-0.0817447
0.146615
-0.0472239
-0.30669
0.226311
-0.120003
-0.0647777
0.82895
-0.666421
-0.339397
0.135068
0.101083
0.0848795
0.227655
0.0846849
-0.111766
-0.164793
0.483031
-0.0300566
-0.160793
-0.315141
-0.21075
0.0341424
0.011903
0.13485
0.19811
-0.0779601
-0.0901565
-0.049529
-0.18822
0.120703
-0.0665539
0.171183
0.283588
-0.384518
-0.00323253
0.0224693
-0.0708594
0.0832082
0.0446875
-0.406188
-0.089358
0.658066
-0.52159
-0.103004
0.289381
-0.0829356
0.255642
0.00763921
-0.0502796
0.072371
-0.272307
-0.00705785
0.0057318
-0.0117102
0.128817
0.0176559
-0.0410755
-0.0458587
0.0946214
-0.00674438
0.00236305
-0.116206
0.0546733
-0.418783
0.144512
-0.00412242
0.0127614
0.199122
-0.157121
-0.220046
0.032442
-0.132978
0.0948454
-0.208407
0.0261071
-0.0150505
0.0549905
0.00288507
-0.0503299
-0.127003
0.0228955
-0.00419468
0.152691
0.0257316
-0.00937534
-0.0627733
-0.00145062
0.0160018
0.0409747
-0.00651268
0.000750042
-0.0404109
0.00300836
-0.031567
-0.0702765
0.0145187
-0.00557194
0.089462
-0.048755
0.0271661
0.252054
-0.153932
0.123538
-0.701052
0.0654316
-0.0160187
0.14382
-0.0101239
-0.00984334
0.190666
0.122538
-0.148117
0.56426
0.0683665
-0.0213008
0.26277
0.00887863
-0.0734665
-0.205439
0.0264911
-0.0591908
-0.165847
-0.00247677
-0.000750334
-0.0206313
0.00473392
-0.00284427
0.0290044
-0.0103858
0.0386349
0.0387914
-0.0433325
0.0165881
-0.275939
0.029746
-0.0209619
0.0815309
-0.00253742
-0.149848
-0.64514
-0.0162222
0.0782142
0.124616
-0.245076
0.260382
0.671433
0.020128
-0.0814527
0.374137
-0.0519778
-0.233083
-0.822516
-8.12547e-05
0.00609214
0.0161991
0.00138804
-0.0102315
-0.0175509
0.00180209
0.00466488
0.0527839
-0.0671011
-0.0013605
0.634521
-0.122876
-0.17623
0.892955
-0.00494511
0.00415468
0.139105
-0.00811415
0.00536248
-0.232018
0.111558
-0.103453
-0.781376
0.425289
-0.349593
-0.756975
0.00769774
0.0578967
-0.538969
-0.00150904
0.00351638
0.0402259
0.0702949
-0.0839043
0.393889
-0.379453
0.378239
1.04265
0.279217
-0.336488
0.561091
0.00509711
0.00178983
2.13617e-13
-0.00434606
-0.00538028
0.00201411
0.00144832
0.00475527
-3.3296e-07
0.00866648
0.00658777
-0.000176904
-0.273141
0.26801
-1.10735
0.106799
-0.109903
-0.889779
-0.0175657
0.02116
-0.0390338
-0.395906
0.347968
0.675747
0.0786295
-0.0817246
0.35946
-0.0086922
-0.0113797
0.0057847
0.00930673
0.0110521
0.000132319
0.157373
0.134118
-1.06354
-0.510166
0.297036
0.810249
-0.041162
0.119954
-0.446686
0.1652
-0.240936
-0.341311
0.229201
-0.142642
0.336693
-0.13856
0.0650439
0.500036
0.117945
0.00819297
0.57823
-0.0368235
0.0553606
0.123147
0.0195479
-0.0136964
0.125768
0.00266859
0.00157623
0.0175522
-0.00461361
0.00368434
-0.0161991
-0.104483
0.00291499
-0.355082
-0.263732
0.265432
-0.84292
-0.285179
0.0713608
1.13797
-0.0199658
0.0497478
-0.133625
-0.0103731
0.0800704
0.408849
-0.0151921
0.00218884
4.04782e-05
0.0525922
-0.0321629
-0.203023
-0.105188
-0.00787092
-0.398351
0.0433896
-0.037937
0.556521
0.0598992
-0.0582348
-0.866264
0.293456
-0.276334
0.544789
0.0233371
-0.0326058
0.87094
0.057395
-0.0918539
0.431349
-0.170176
0.200983
0.310287
0.0866502
-0.0415512
-0.419398
-0.0355589
0.0468018
-0.704593
0.225322
-0.210784
-0.549251
0.0979111
-0.00495875
1.09409
-0.0363384
-0.0361884
-0.324888
0.0448402
0.0288238
0.259502
-0.101679
0.0983234
-0.192162
0.104714
-0.106488
-0.116322
0.0451884
-0.0699801
0.131385
0.0893755
-0.100564
-0.115119
-0.0973059
0.126082
-0.265603
0.0628894
-0.0453596
0.113226
0.168857
-0.0562826
-0.426418
-0.0646869
0.0367794
-0.0917679
0.0631292
-0.037654
0.110606
-0.0517449
0.0929178
-0.557524
0.00147272
-0.0159241
2.32258e-12
0.00875258
-0.00243523
0.0746567
0.00469624
0.0804857
0.457371
0.0326972
-0.124604
0.783828
-0.164093
0.170505
-0.703538
-0.00888885
-0.14609
0.644887
-0.0505611
0.0110047
0.258676
0.1299
-0.00202934
-0.718638
0.0170092
-0.0576876
0.103825
0.0642169
-0.0724598
-0.0931842
-0.106248
0.127472
-0.114958
-0.000248765
-0.00674165
-0.0290175
-0.00175366
0.00960403
0.0206277
0.0917967
-0.0283585
-0.650528
0.0935684
-0.053621
-0.129646
0.0896983
-0.0967159
0.191512
-0.00728628
-0.0164077
-0.302973
0.0195839
-0.0151086
-0.038408
-0.0485859
0.0273196
0.270139
0.0181477
-0.0163258
-0.0403068
-0.0661038
0.0821258
0.138752
-0.0877979
0.119313
0.176958
0.0264023
0.0251577
-0.198534
-0.00399769
-0.000692201
0.292794
0.0147314
-0.0141768
0.18069
0.00790253
-0.0327408
-0.183803
-0.0967286
0.118638
-0.182436
0.0063059
-0.00228756
-0.0398189
-0.0313053
-0.0211693
0.180011
-0.0258217
-0.00724966
0.19101
0.00384336
0.0343886
-0.190541
0.110514
-0.13608
0.455117
-0.0175697
0.032247
-0.0503821
0.00518096
-0.00339095
0.0347418
0.044007
-0.076484
-0.140049
0.0176514
-0.000556543
0.113698
-0.0127597
0.0170887
-0.221407
0.00250389
-0.0098093
0.0858202
0.00993308
-0.00530758
-0.152574
-0.0150243
0.0353715
0.0497823
0.0157155
-0.00987414
0.0463078
0.00042968
-0.037051
-0.107765
0.138286
-0.0801722
-0.612867
0.0386924
-0.0101853
0.0396324
-0.0374749
0.0153238
-0.278311
0.0361477
-0.0112729
0.0432668
0.0374282
-0.0540518
-0.0814848
-0.0597901
-0.135029
-0.873159
-0.0303356
0.0033034
0.173834
-0.270752
0.285889
0.697988
-0.0129232
0.00457858
-0.11454
0.0197664
-0.0125946
0.0567908
-0.0312453
0.0293873
0.0900566
-0.114898
-0.0150998
-0.672736
0.117071
-0.0673186
0.165906
0.0864366
-0.116084
-0.150562
-0.0367929
0.0850556
-0.336802
0.0333564
-0.0499459
-0.0674304
0.0412121
-0.0562564
-0.18229
-0.0879827
0.0911727
0.246316
-0.226484
0.208943
0.32895
0.19138
-0.12368
-0.264466
-0.183186
0.150938
-0.241893
-0.0536671
0.0640482
0.569056
0.17855
-0.211106
0.373098
0.0838844
-0.0494078
0.251145
0.0913067
-0.066552
-0.114812
0.00380323
0.000978095
5.6671e-13
-0.00582731
-0.0059931
0.00609478
0.00657632
0.00576151
-3.2179e-06
-0.022672
-0.00480005
-0.112795
2.39584e-05
-0.00541771
-0.00202206
0.00635105
0.00260917
-7.07042e-13
0.00573952
0.0072105
0.000445176
0.00217277
0.00591511
3.98158e-07
-0.0103862
-0.00337802
-0.00496668
-0.127814
0.184783
0.263068
0.0079072
0.0153931
0.0882953
0.126193
-0.00602558
-0.429319
0.00128266
0.0041078
-3.11062e-13
-0.00546961
-0.00384991
0.0736692
0.00591418
0.00353481
-0.0787891
0.372447
-0.304643
-0.45362
0.30975
-0.25519
0.594626
0.0774514
0.0601972
-0.965176
0.0867039
-0.163882
0.436343
-0.039791
-0.00340399
-0.171835
0.00265254
0.0356519
0.175381
-0.394711
0.2095
0.58051
-0.0701996
0.0198572
-0.209384
-0.0209353
0.0647467
0.164441
-0.0963004
0.104277
-0.420879
-0.148782
0.133947
0.529623
0.45762
-0.473994
0.74607
0.0536153
-0.00712144
0.755743
0.13692
0.0571891
0.757084
0.142203
-0.246451
-0.42734
0.290579
-0.165712
0.510473
0.512597
-0.397442
-0.945817
0.00982501
0.123172
0.598377
0.0181228
-0.105838
-0.343839
0.104741
-0.145512
-0.500326
-0.00632812
-0.00814364
-0.250794
0.215799
-0.157702
0.383401
-0.0806162
0.0173832
-0.261898
-0.0224943
0.0785604
0.262755
-0.445101
0.348907
0.782002
0.0348086
0.0581455
-0.309365
0.0427822
-0.0133333
0.453553
-0.465785
0.362856
1.08574
0.000613557
-0.116385
0.977875
0.507908
-0.503746
-0.893723
-0.171507
0.157398
-0.557189
-0.246928
0.232265
0.867138
0.0603202
-0.0344924
0.111678
0.05333
-0.0704772
0.143233
0.102027
-0.102683
0.590361
-0.179347
0.403747
-1.16169
-0.0304487
0.0110827
-0.405524
0.0883544
-0.130916
-0.192045
0.155377
-0.0893028
0.244241
-0.216952
0.264287
0.387558
-0.0302615
0.128733
-0.551443
-0.0113507
-0.192118
0.779847
0.00599055
0.0467109
0.835246
0.248271
-0.276028
0.418219
0.150846
-0.143208
-0.85061
0.251278
-0.0974993
-0.413064
0.0302509
0.167327
0.802398
-0.189201
-0.0237737
-0.915767
0.0887492
-0.14793
1.10911
-0.00999586
-0.379198
1.23783
-0.218386
0.186052
0.632602
0.215179
-0.241214
-1.08278
-0.0740718
0.0666391
-0.867582
0.0581694
-0.115091
-0.809852
0.249735
-0.273998
0.94112
0.12495
0.0413553
0.68755
-0.0330837
-0.130682
-0.806212
-0.0425538
0.0363357
0.38311
0.188497
-0.306413
-0.518216
0.283334
-0.16975
0.499167
0.103071
-0.167377
0.574352
0.232242
-0.199013
-0.559213
0.0502703
-0.054109
-0.365956
0.125169
-0.0934475
-0.386239
0.189747
-0.225449
-0.270138
0.139161
-0.292109
0.541151
-0.0858104
0.0774973
0.271915
0.187101
-0.184422
0.301714
0.183477
-0.175688
-0.228101
-0.0328601
0.0501139
0.154865
0.125753
-0.196964
0.330686
0.328282
-0.142663
-0.547024
-0.232375
0.472568
-0.936137
0.0655119
-0.0725953
0.60127
0.0439455
0.0248908
-0.453815
-0.118448
0.150829
0.232701
-0.0310364
-0.036033
0.49496
0.10742
-0.110812
-0.529927
-0.354146
0.277852
0.725541
0.013867
-0.0237346
0.162278
0.0926645
-0.0955439
-0.135291
0.0345667
-0.018552
-0.288914
-0.174649
0.133673
-0.266181
-0.0611776
0.0863841
0.206454
0.32953
-0.209814
-0.403331
0.189531
-0.272515
0.396137
0.0761996
-0.150096
0.618159
0.115438
-0.025874
-0.372651
1.48195
0.370231
-1.02592
0.252047
0.428248
0.0768525
-0.732727
0.367258
-0.528393
0.208446
0.349807
1.41136
-0.397657
-0.606281
1.05329
0.661217
0.0578409
-0.449512
-0.215384
-0.284861
-3.05703e-14
0.0144763
-0.0103548
-0.0144763
0.0185979
4.49986e-19
-6.17059e-15
-0.0112472
-9.86433e-14
0.0177055
-1.90662
0.16816
0.953263
0.0694392
0.419738
-0.309798
-0.165725
0.302686
-0.0614829
-0.0373383
0.163402
0.191089
0.200158
-0.849307
-0.593995
-0.505304
0.829592
-1.7729
1.05494
-0.0173401
0.147636
-0.296645
0.0949734
0.0747245
-0.288404
0.517844
-0.120756
-0.0922576
-0.20365
0.479997
0.448765
-0.328194
-0.201097
0.176752
-1.08383
1.94271
0.0694484
0.218337
-0.244507
0.0941336
0.0622634
0.049197
1.12936
-0.664046
1.09799
-0.506825
-0.597472
0.0580386
0.499936
0.55966
0.543633
0.12471
0.300274
-0.231318
0.369072
-0.0555753
-0.16598
0.0846034
-0.242488
0.293956
-0.126429
0.296679
-0.159683
0.129503
-0.310332
0.0452749
0.180387
-0.381434
0.370078
0.206535
-0.259148
-0.199053
0.00912218
-0.797714
1.75345
-0.807547
1.36886
-0.556533
-0.0522793
-0.839087
-0.155115
0.345586
0.204447
0.0392378
0.428085
-1.3563
0.347584
0.771711
0.679616
-1.18166
0.0834411
0.602584
-0.0698221
0.96139
-0.370978
-0.560024
-0.756624