/*--------------------------------*- C++ -*----------------------------------*\
  =========                 |
  \\      /  F ield         | OpenFOAM: The Open Source CFD Toolbox
   \\    /   O peration     | Website:  https://openfoam.org
    \\  /    A nd           | Version:  6
     \\/     M anipulation  |
\*---------------------------------------------------------------------------*/
FoamFile
{
    version     2.0;
    format      ascii;
    class       volScalarField;
    location    "3.32";
    object      k;
}
// * * * * * * * * * * * * * * * * * * * * * * * * * * * * * * * * * * * * * //

dimensions      [0 2 -2 0 0 0 0];

internalField   nonuniform List<scalar> 
4214
(
0.102569
0.0445667
0.0246543
0.0179433
0.0158205
0.0153131
0.0154804
0.0162046
0.0179701
0.0222814
0.0335158
0.0680243
0.213508
0.842786
2.57724
5.21884
7.16512
7.15289
5.512
3.89511
3.07707
3.05331
3.412
3.85098
4.18373
4.2424
3.879
3.11881
2.18566
1.2922
0.62927
0.252573
0.0916357
0.0376541
0.0220384
0.0177543
0.0172234
0.01928
0.0267631
0.0491639
0.113796
0.0251063
0.0185722
0.0161831
0.0153988
0.0152486
0.015402
0.0158263
0.0167279
0.0187342
0.0233931
0.0347922
0.0665134
0.18586
0.69391
2.20752
4.75372
7.02497
7.67145
6.64073
4.97317
3.86645
3.48394
3.64406
4.08428
4.55871
4.79848
4.58457
3.85044
2.78944
1.69846
0.848042
0.344383
0.121769
0.0461688
0.0244659
0.018297
0.0166086
0.0162522
0.0168428
0.019103
0.0253429
0.0164236
0.0156071
0.0153366
0.0153278
0.0154703
0.015757
0.0162906
0.0173557
0.0196575
0.0247888
0.0366015
0.066255
0.162748
0.548665
1.76752
4.06884
6.51516
7.73332
7.20986
5.63396
4.35364
3.79783
3.88588
4.38697
5.0314
5.4771
5.44627
4.7481
3.54896
2.22325
1.13512
0.467657
0.163083
0.057776
0.0278133
0.0193434
0.0170045
0.0161952
0.0159341
0.0160139
0.0165971
0.0156284
0.0154848
0.015506
0.0156274
0.015842
0.0161964
0.0168384
0.018109
0.0208048
0.0265988
0.0391992
0.0678648
0.147185
0.430311
1.34993
3.29303
5.73826
7.44864
7.60504
6.43608
5.0496
4.28163
4.20376
4.65942
5.40764
6.10548
6.32661
5.76325
4.47427
2.88637
1.51202
0.631993
0.219209
0.0734725
0.0323058
0.0207227
0.0176316
0.0165603
0.0161342
0.0159395
0.0159241
0.0156829
0.015725
0.0158349
0.0160072
0.0162691
0.0166952
0.0174771
0.0190238
0.02226
0.0289912
0.0429047
0.0718752
0.139993
0.345882
1.00036
2.52706
4.7814
6.80272
7.63194
7.07199
5.77561
4.8556
4.56797
4.91984
5.70588
6.60597
7.15275
6.84746
5.55959
3.71265
1.99782
0.847813
0.294149
0.0944007
0.0382694
0.0224682
0.0183985
0.0170196
0.0164926
0.0162164
0.0160642
0.0159857
0.0160854
0.0162322
0.0164375
0.0167485
0.0172663
0.0182395
0.0201673
0.0241592
0.0322276
0.0482022
0.079083
0.141901
0.297028
0.74653
1.86326
3.77083
5.86681
7.21828
7.33279
6.44427
5.47198
4.98822
5.18919
5.96179
7.00364
7.85394
7.92689
6.76453
4.7124
2.60726
1.12842
0.392586
0.121837
0.0461167
0.0246663
0.0193239
0.0175403
0.0169073
0.0165878
0.0163993
0.0163758
0.0165029
0.0166743
0.0169128
0.0172873
0.0179311
0.0191754
0.0216403
0.0267074
0.0366927
0.0557799
0.0905506
0.153631
0.280944
0.592744
1.36492
2.84818
4.7915
6.43637
7.14094
6.8137
5.99393
5.42683
5.47234
6.18843
7.32859
8.43765
8.90917
8.02303
5.86316
3.36189
1.48458
0.519092
0.157001
0.0563026
0.0274127
0.0204465
0.0181223
0.0173546
0.0169919
0.0167916
0.0168208
0.016964
0.0171593
0.0174396
0.0179033
0.018727
0.0203649
0.0236004
0.0302224
0.0429696
0.0666565
0.107822
0.176499
0.293898
0.526551
1.05106
2.12425
3.75423
5.44792
6.55931
6.77461
6.29467
5.79923
5.75279
6.39578
7.59866
8.9235
9.75032
9.264
7.10973
4.2501
1.9228
0.677533
0.200831
0.069284
0.0307984
0.0218164
0.0187769
0.0178321
0.0174107
0.0172018
0.0173073
0.0174664
0.0176917
0.0180306
0.0186263
0.0197126
0.0219362
0.0262941
0.0352017
0.051946
0.0823531
0.133164
0.212881
0.333944
0.529999
0.902098
1.64709
2.90268
4.44486
5.74561
6.3854
6.32863
6.02382
5.98666
6.58542
7.83213
9.3405
10.4612
10.4055
8.3856
5.23283
2.43857
0.871565
0.253569
0.0854512
0.0348883
0.0234908
0.0195208
0.0183466
0.0178405
0.0176168
0.017838
0.0180149
0.0182826
0.0187078
0.0195056
0.0209822
0.0240976
0.0301089
0.0424276
0.0649738
0.10514
0.169862
0.266569
0.401692
0.589592
0.880899
1.4025
2.31412
3.58907
4.88488
5.78581
6.10527
6.06515
6.13346
6.74648
8.04773
9.72095
11.0963
11.3703
9.61883
6.24671
3.00675
1.09592
0.314457
0.105031
0.0396928
0.0255286
0.0203732
0.018911
0.0182846
0.0180346
0.0184143
0.0186163
0.0189507
0.0195066
0.0206234
0.0226869
0.027191
0.0356523
0.0531335
0.0840829
0.13836
0.222549
0.343055
0.500922
0.698074
0.954614
1.34264
1.99121
2.97382
4.13006
5.13897
5.71367
5.93889
6.17635
6.87124
8.26114
10.0966
11.6887
12.1885
10.7117
7.20578
3.58143
1.34097
0.380788
0.127985
0.0451427
0.0279892
0.0213555
0.0195444
0.0187515
0.018461
0.0190426
0.0192844
0.0197296
0.0204864
0.0221215
0.0250703
0.0317823
0.0438616
0.0692527
0.112238
0.186817
0.29748
0.449699
0.638323
0.855531
1.10332
1.41899
1.89153
2.62358
3.59396
4.56552
5.28636
5.72412
6.14736
6.97453
8.49468
10.4989
12.2697
12.9133
11.5862
8.02152
4.09785
1.58732
0.447521
0.153976
0.051074
0.0309317
0.0224884
0.0202732
0.0192529
0.0189068
0.0197399
0.0200441
0.0206801
0.0217461
0.0242483
0.0285173
0.0388158
0.0561446
0.0937885
0.15357
0.257201
0.402641
0.595867
0.823223
1.068
1.32089
1.60064
1.97071
2.51456
3.28067
4.1542
4.92276
5.50537
6.09753
7.09241
8.78298
10.9605
12.8631
13.5545
12.2091
8.62035
4.4842
1.81005
0.507451
0.182415
0.057213
0.0344191
0.0237898
0.0211344
0.0198044
0.0193858
0.020538
0.0209374
0.0219157
0.0234454
0.0274441
0.033615
0.0498859
0.0745331
0.13144
0.213602
0.358994
0.548244
0.79446
1.0695
1.34876
1.61517
1.8733
2.15795
2.56144
3.16008
3.91587
4.67529
5.3486
6.09423
7.27776
9.17051
11.5114
13.4743
14.0923
12.5521
8.95571
4.68248
1.98843
0.552087
0.212666
0.0631862
0.0385412
0.0252723
0.0221826
0.0204244
0.0199178
0.0214896
0.0220292
0.0236541
0.0258294
0.0325026
0.0411955
0.0677043
0.101693
0.189584
0.299097
0.50608
0.747134
1.06451
1.39727
1.71893
2.00323
2.23656
2.45344
2.74355
3.20052
3.83941
4.5636
5.29925
6.19602
7.59489
9.70114
12.1605
14.08
14.4692
12.5739
9.01577
4.65613
2.11542
0.573462
0.244636
0.0685394
0.0434685
0.0269376
0.0235042
0.0211334
0.0205331
0.0226999
0.0234126
0.0263282
0.0292275
0.0408887
0.0522636
0.0969594
0.140533
0.280128
0.41707
0.720099
1.01408
1.4347
1.83081
2.20272
2.50122
2.70151
2.84669
3.04086
3.37399
3.90527
4.59396
5.39857
6.44702
8.08336
10.3852
12.8539
14.6069
14.5597
12.2647
8.8451
4.39259
2.21171
0.565629
0.279655
0.0727228
0.0495566
0.0287555
0.025253
0.0219498
0.0212852
0.0244232
0.0251884
0.0308264
0.0339311
0.055371
0.0675525
0.145919
0.192801
0.423445
0.571943
1.03757
1.36092
1.94834
2.38679
2.81382
3.10591
3.24215
3.30286
3.42534
3.63422
4.08462
4.74033
5.61343
6.83617
8.67916
11.2104
13.4129
14.8908
14.2396
11.5177
8.54805
3.87272
2.33518
0.521938
0.321477
0.07485
0.0575695
0.0305904
0.0277333
0.022868
0.0222842
0.0213415
0.0207334
0.0201762
0.0196673
0.019197
0.0187542
0.0183278
0.0179085
0.0174887
0.0170668
0.016653
0.0162736
0.0160064
0.0161534
0.0181691
0.0415989
0.297998
0.0213143
0.020731
0.0202154
0.0197484
0.0193145
0.0189016
0.0185001
0.0181028
0.0177053
0.0173087
0.0169234
0.0165752
0.0163483
0.0165567
0.0187123
0.0419882
0.307018
0.0212784
0.0207795
0.020321
0.0198927
0.0194861
0.0190935
0.0187093
0.0183287
0.0179497
0.0175756
0.0172161
0.0168995
0.0167184
0.0170062
0.0193655
0.0429442
0.308802
0.0213809
0.0209298
0.0204999
0.0200915
0.0196998
0.0193196
0.0189472
0.0185798
0.0182173
0.0178637
0.0175292
0.0172451
0.0171145
0.0174996
0.0201239
0.0442417
0.310107
0.0215837
0.0211351
0.0207201
0.0203255
0.0199449
0.0195743
0.0192116
0.0188562
0.0185093
0.0181752
0.0178649
0.017615
0.0175413
0.0180446
0.0209914
0.0458642
0.311739
0.0217443
0.0213562
0.020968
0.0205878
0.0202168
0.0198544
0.0195011
0.0191578
0.0188262
0.0185112
0.0182255
0.0180122
0.018003
0.0186459
0.0219626
0.0478088
0.314149
0.0220561
0.0216386
0.0212503
0.0208766
0.020513
0.020159
0.0198161
0.0194857
0.0191701
0.0188743
0.0186142
0.0184406
0.0185048
0.0193098
0.023049
0.0501068
0.317191
0.022253
0.0219049
0.0215444
0.0211849
0.0208313
0.0204878
0.0201573
0.0198416
0.019543
0.0192672
0.0190345
0.0189048
0.019053
0.0200438
0.0242669
0.052786
0.320805
0.0226303
0.0222378
0.0218717
0.0215174
0.0211734
0.0208424
0.0205269
0.0202278
0.0199475
0.0196928
0.0194902
0.0194096
0.019654
0.0208564
0.0256309
0.0558367
0.324868
0.0228586
0.0225424
0.0222056
0.0218677
0.0215387
0.0212244
0.0209269
0.0206466
0.0203859
0.0201542
0.019985
0.0199595
0.0203137
0.0217553
0.0271479
0.0592201
0.329111
0.0232863
0.0229169
0.0225733
0.0222443
0.0219316
0.021637
0.0213601
0.0211
0.0208605
0.020654
0.0205227
0.0205588
0.021038
0.0227462
0.0288172
0.0628777
0.33341
0.0235473
0.0232595
0.0229486
0.022643
0.0223536
0.0220826
0.0218284
0.02159
0.0213734
0.0211949
0.0211065
0.0212116
0.0218322
0.023833
0.0306324
0.0667177
0.337577
0.0240189
0.0236736
0.0233616
0.0230743
0.0228099
0.0225644
0.0223339
0.0221185
0.0219268
0.0217795
0.0217393
0.0219224
0.0227004
0.0250179
0.0325815
0.070644
0.341433
0.024317
0.0240601
0.0237898
0.023536
0.023302
0.0230839
0.0228785
0.0226876
0.022523
0.0224109
0.0224241
0.0226947
0.023647
0.0262995
0.0346509
0.0745711
0.344911
0.024828
0.0245197
0.024262
0.0240373
0.0238335
0.0236432
0.0234637
0.0232992
0.0231646
0.0230917
0.0231633
0.023532
0.0246721
0.0276742
0.0368201
0.0784104
0.34788
0.025173
0.0249658
0.0247604
0.0245757
0.0244046
0.024243
0.024091
0.0239555
0.0238541
0.0238248
0.02396
0.024436
0.0257738
0.029136
0.0390675
0.0820851
0.350134
0.0257217
0.0254855
0.0253068
0.0251567
0.025017
0.0248852
0.0247626
0.0246589
0.0245945
0.024613
0.0248164
0.0254058
0.0269489
0.0306777
0.0413706
0.0855539
0.351564
0.0261329
0.0260124
0.0258873
0.0257775
0.0256709
0.0255712
0.0254808
0.0254122
0.0253884
0.0254586
0.025735
0.0264408
0.0281932
0.032292
0.0437119
0.0888012
0.352003
0.0267212
0.0266062
0.0265131
0.0264405
0.0263679
0.0263032
0.0262486
0.0262187
0.0262387
0.0263645
0.0267169
0.0275423
0.0295015
0.0339723
0.0460955
0.0918819
0.351547
0.0272321
0.0272242
0.0271757
0.0271444
0.0271093
0.0270836
0.0270688
0.0270817
0.0271494
0.0273341
0.0277639
0.0287101
0.0308692
0.0357103
0.0485119
0.0948071
0.349827
0.0278666
0.0278915
0.0278811
0.0278916
0.0278983
0.0279158
0.0279455
0.0280053
0.0281253
0.0283716
0.0288795
0.0299433
0.0322916
0.0374926
0.0509523
0.097654
0.346504
0.0285149
0.0285881
0.0286267
0.0286834
0.0287377
0.0288032
0.0288827
0.0289946
0.0291713
0.0294823
0.0300697
0.0312494
0.0337771
0.0393325
0.0534656
0.100756
0.341962
0.0292031
0.0293259
0.0294175
0.029524
0.0296313
0.0297503
0.0298856
0.0300553
0.0302934
0.0306722
0.0313395
0.0326298
0.0353198
0.0412044
0.0559881
0.103613
0.337108
0.0299325
0.0301012
0.0302523
0.0304165
0.0305834
0.0307626
0.0309597
0.0311926
0.0314957
0.0319421
0.0326836
0.0340635
0.0368736
0.0430137
0.0583057
0.106144
0.332591
0.0306911
0.0309242
0.0311387
0.0313662
0.0315995
0.0318465
0.0321131
0.0324164
0.0327899
0.0333057
0.0341161
0.0355662
0.0384568
0.0447645
0.0604155
0.108341
0.328475
0.0314963
0.0317891
0.0320762
0.0323772
0.0326861
0.0330102
0.0333558
0.0337388
0.0341907
0.0347805
0.0356577
0.0371615
0.0400917
0.0464703
0.062308
0.110152
0.324789
0.0323358
0.0327087
0.033074
0.0334557
0.0338502
0.0342627
0.0346991
0.0351738
0.0357159
0.0363889
0.0373357
0.0388829
0.0418162
0.0481693
0.0639952
0.111636
0.321542
0.0332272
0.0336757
0.0341323
0.0346077
0.0351
0.0356141
0.0361559
0.0367379
0.037386
0.0381576
0.0391841
0.0407744
0.0436868
0.0499405
0.0655959
0.11289
0.318713
0.034158
0.0347045
0.0352597
0.0358399
0.0364439
0.0370757
0.0377404
0.0384493
0.0392247
0.0401169
0.0412432
0.0428889
0.0457716
0.0518632
0.0671887
0.113956
0.31625
0.0351434
0.0357882
0.0364585
0.0371594
0.0378918
0.0386599
0.039469
0.0403289
0.0412588
0.0423018
0.0435593
0.0452866
0.0481485
0.0540312
0.0688745
0.114881
0.314086
0.0361756
0.0369408
0.0377368
0.0385742
0.0394542
0.0403809
0.0413597
0.0424
0.0435184
0.0447513
0.0461845
0.0480379
0.0509128
0.0565718
0.0707868
0.115732
0.312153
0.0372623
0.0381569
0.0390989
0.040093
0.0411429
0.0422541
0.043433
0.0446891
0.0460379
0.0475103
0.0491775
0.0512237
0.0541746
0.0596365
0.073112
0.116634
0.310387
0.0384043
0.0394496
0.0405528
0.041725
0.0429707
0.044297
0.0457121
0.0472267
0.048857
0.0506307
0.0526073
0.054938
0.058064
0.0634098
0.0760995
0.117807
0.308732
0.0396056
0.040815
0.0421041
0.0434803
0.0449522
0.0465294
0.0482236
0.0500485
0.0520228
0.0541745
0.0565561
0.0592912
0.0627388
0.0681158
0.0800653
0.119562
0.307136
0.0408663
0.0422646
0.043761
0.0453702
0.0471032
0.0489739
0.0509986
0.0531967
0.0555922
0.0582177
0.0611251
0.06442
0.0683904
0.0740309
0.0854058
0.122337
0.305555
0.0421901
0.0437961
0.0455305
0.0474067
0.0494423
0.051657
0.0540743
0.0567222
0.0596346
0.0628547
0.0664422
0.0704984
0.0752601
0.0815113
0.09265
0.12679
0.303951
0.0435763
0.0454196
0.0474212
0.0496035
0.0519902
0.0546094
0.0574949
0.0606876
0.0642373
0.0682058
0.0726733
0.0777556
0.0836694
0.0910297
0.102516
0.133897
0.302288
0.0450279
0.0471337
0.0494408
0.0519751
0.0547704
0.0578669
0.0613134
0.0651697
0.0695098
0.0744261
0.0800367
0.0864999
0.0940581
0.103234
0.116026
0.145176
0.300531
0.0465426
0.048946
0.0515977
0.0545365
0.0578084
0.0614702
0.0655923
0.0702621
0.07559
0.0817168
0.0888247
0.0971551
0.107045
0.119051
0.134672
0.163037
0.298641
0.048121
0.0508551
0.0538997
0.0573045
0.0611339
0.0654681
0.0704082
0.0760826
0.0826568
0.0903471
0.0994408
0.110326
0.123543
0.139881
0.160745
0.191566
0.29656
0.0498106
0.0511403
0.0524809
0.0538272
0.0551718
0.0565074
0.0578251
0.0591164
0.0603718
0.0615815
0.0627357
0.0638237
0.0648355
0.0657607
0.0665899
0.0673141
0.0679247
0.0684151
0.0687786
0.069011
0.0691039
0.0690133
0.068783
0.0684215
0.0679329
0.0673235
0.0666003
0.0657714
0.064846
0.0638335
0.0627442
0.0615878
0.0603752
0.059116
0.0578202
0.0564971
0.0551557
0.0538047
0.052451
0.0511008
0.0497603
0.0529049
0.0543122
0.0557298
0.0571497
0.0585672
0.0599721
0.0613578
0.0627131
0.0640302
0.0652973
0.0665055
0.0676428
0.0686998
0.0696651
0.0705297
0.0712837
0.0719191
0.0724284
0.0728056
0.0730455
0.0731406
0.073048
0.0728104
0.0724356
0.0719284
0.0712946
0.070542
0.0696782
0.0687133
0.067656
0.0665179
0.0653082
0.0640388
0.0627187
0.0613596
0.0599693
0.0585593
0.0571362
0.0557094
0.0542837
0.0528675
0.0563813
0.0578724
0.0593707
0.0608704
0.0623646
0.0638446
0.0653016
0.066726
0.0681078
0.0694365
0.0707013
0.0718914
0.0729958
0.0740039
0.0749054
0.0756912
0.0763525
0.076882
0.0772733
0.0775214
0.0776187
0.077524
0.0772785
0.0768898
0.0763628
0.0757035
0.0749194
0.074019
0.0730117
0.0719076
0.0707172
0.0694513
0.0681209
0.0667367
0.0653092
0.0638483
0.0623638
0.0608647
0.0593589
0.0578542
0.0563562
0.0603123
0.0618915
0.0634762
0.0650608
0.0666373
0.0681968
0.0697302
0.0712276
0.0726786
0.0740722
0.0753973
0.0766429
0.0777976
0.0788506
0.0797913
0.0806104
0.081299
0.0818496
0.0822558
0.0825124
0.0826118
0.0825151
0.0822613
0.0818579
0.08131
0.0806236
0.0798065
0.0788672
0.0778154
0.0766614
0.0754159
0.0740902
0.0726954
0.0712426
0.0697427
0.068206
0.0666425
0.0650616
0.0634725
0.0618831
0.0602983
0.0647864
0.0664598
0.0681364
0.0698114
0.0714756
0.0731198
0.0747344
0.0763091
0.0778332
0.0792954
0.0806842
0.0819882
0.0831959
0.084296
0.0852779
0.0861319
0.0868491
0.0874217
0.0878433
0.0881089
0.0882105
0.0881115
0.0878489
0.0874302
0.0868604
0.0861457
0.0852939
0.0843137
0.0832151
0.0820085
0.0807049
0.0793159
0.0778529
0.0763274
0.0747506
0.0731332
0.0714856
0.069818
0.0681401
0.06646
0.0647821
0.0699167
0.0716909
0.0734655
0.0752363
0.0769936
0.0787276
0.080428
0.0820844
0.0836856
0.08522
0.0866756
0.0880407
0.0893037
0.090453
0.0914777
0.092368
0.0931148
0.0937103
0.0941478
0.0944226
0.0945265
0.0944252
0.0941535
0.0937188
0.0931262
0.092382
0.091494
0.0904713
0.0893237
0.088062
0.0866975
0.085242
0.0837072
0.0821049
0.0804467
0.0787439
0.0770074
0.0752478
0.0734752
0.0716982
0.0699205
0.0758486
0.0777304
0.0796089
0.081481
0.0833365
0.0851649
0.0869557
0.0886977
0.0903796
0.0919891
0.0935142
0.0949428
0.096263
0.0974631
0.0985319
0.0994595
0.100237
0.100856
0.101309
0.101593
0.1017
0.101596
0.101315
0.100864
0.100248
0.0994733
0.0985482
0.0974814
0.0962831
0.0949644
0.0935365
0.0920117
0.0904019
0.0887192
0.0869757
0.0851832
0.0833531
0.0814963
0.0796233
0.077743
0.0758587
0.082771
0.0847668
0.0867549
0.0887333
0.0906914
0.0926183
0.0945029
0.0963338
0.098099
0.099786
0.101382
0.102876
0.104254
0.105506
0.10662
0.107585
0.108393
0.109035
0.109505
0.109798
0.109907
0.109801
0.10951
0.109043
0.108403
0.107598
0.106635
0.105524
0.104274
0.102897
0.101404
0.0998082
0.0981209
0.0963551
0.0945233
0.0926377
0.0907099
0.0887512
0.0867724
0.0847831
0.0827856
0.0909336
0.0930486
0.0951509
0.0972395
0.0993035
0.101331
0.103312
0.105233
0.107083
0.108848
0.110516
0.112074
0.113511
0.114813
0.115971
0.116973
0.117811
0.118476
0.118962
0.119264
0.119375
0.119266
0.118967
0.118484
0.117821
0.116986
0.115986
0.11483
0.113529
0.112094
0.110536
0.108868
0.107103
0.105253
0.103332
0.101351
0.0993226
0.0972584
0.0951698
0.0930669
0.0909506
0.100672
0.102909
0.105127
0.107327
0.109498
0.111626
0.113702
0.115712
0.117644
0.119486
0.121223
0.122844
0.124336
0.125687
0.126886
0.127923
0.128789
0.129475
0.129976
0.130286
0.130398
0.130288
0.12998
0.129482
0.128798
0.127934
0.1269
0.125702
0.124352
0.122862
0.121241
0.119504
0.117663
0.11573
0.11372
0.111645
0.109516
0.107346
0.105146
0.102927
0.100689
0.112445
0.114801
0.117133
0.119442
0.121714
0.123939
0.126104
0.128197
0.130205
0.132116
0.133916
0.135593
0.137134
0.138528
0.139763
0.14083
0.141719
0.142423
0.142935
0.143252
0.143365
0.143253
0.142939
0.142428
0.141726
0.140839
0.139774
0.138541
0.137148
0.135608
0.133932
0.132132
0.130221
0.128213
0.12612
0.123956
0.121731
0.119458
0.117151
0.114818
0.112461
0.126894
0.129359
0.131794
0.134199
0.136561
0.138868
0.141109
0.14327
0.145341
0.147307
0.149156
0.150875
0.152453
0.153877
0.155138
0.156225
0.15713
0.157845
0.158364
0.158684
0.158797
0.158685
0.158367
0.157849
0.157136
0.156232
0.155147
0.153888
0.152464
0.150887
0.149168
0.147319
0.145353
0.143283
0.141122
0.138882
0.136575
0.134213
0.131809
0.129373
0.126908
0.144941
0.147486
0.149998
0.152472
0.154895
0.157257
0.159545
0.161747
0.163852
0.165846
0.167718
0.169456
0.171046
0.17248
0.173748
0.174839
0.175746
0.176462
0.17698
0.177298
0.17741
0.177299
0.176982
0.176465
0.17575
0.174845
0.173755
0.172489
0.171054
0.169464
0.167727
0.165855
0.163861
0.161757
0.159556
0.157268
0.154906
0.152483
0.150009
0.147497
0.144952
0.167942
0.17051
0.173045
0.175533
0.177963
0.180326
0.182607
0.184797
0.186885
0.188859
0.190707
0.192419
0.193983
0.195391
0.196632
0.197699
0.198585
0.199283
0.199787
0.200095
0.200203
0.200096
0.199789
0.199285
0.198588
0.197703
0.196637
0.195396
0.193988
0.192424
0.190713
0.188865
0.186891
0.184804
0.182615
0.180333
0.177971
0.17554
0.173052
0.170517
0.167949
0.197961
0.200441
0.202892
0.20529
0.207624
0.209885
0.212062
0.214144
0.216124
0.21799
0.219733
0.221343
0.222812
0.22413
0.225291
0.226286
0.227111
0.227759
0.228228
0.228513
0.228611
0.228513
0.228228
0.227761
0.227113
0.226288
0.225293
0.224133
0.222815
0.221346
0.219736
0.217993
0.216128
0.214148
0.212066
0.209889
0.207628
0.205294
0.202896
0.200445
0.197965
0.238255
0.240438
0.242601
0.244709
0.246752
0.248723
0.250614
0.252417
0.254124
0.255728
0.257222
0.258597
0.259849
0.260969
0.261954
0.262797
0.263493
0.26404
0.264434
0.264673
0.264754
0.264673
0.264434
0.264041
0.263494
0.262797
0.261955
0.260971
0.25985
0.258598
0.257223
0.255729
0.254126
0.252418
0.250616
0.248724
0.246753
0.24471
0.242603
0.240439
0.238256
0.294192
0.295677
0.297157
0.29859
0.299973
0.3013
0.302568
0.303772
0.304907
0.30597
0.306955
0.30786
0.308681
0.309413
0.310055
0.310603
0.311055
0.311409
0.311664
0.311818
0.31187
0.311818
0.311664
0.31141
0.311055
0.310603
0.310055
0.309413
0.308681
0.30786
0.306956
0.30597
0.304908
0.303772
0.302569
0.301301
0.299973
0.29859
0.297157
0.295677
0.294193
0.271865
0.0425358
0.0184201
0.0160898
0.0157422
0.0159385
0.0162848
0.0167164
0.0171933
0.0177179
0.018285
0.018894
0.0195556
0.0202903
0.0211165
0.0220372
0.0230294
0.287172
0.0450466
0.0193022
0.0166247
0.0161579
0.016303
0.0166204
0.0170306
0.0174869
0.0179872
0.0185247
0.0190958
0.0197058
0.0203715
0.0211196
0.0219786
0.0229593
0.297395
0.0479326
0.0202548
0.0171938
0.0165982
0.0166848
0.0169725
0.0173589
0.0177928
0.018268
0.0187783
0.0193186
0.0198856
0.0204862
0.0211421
0.0218979
0.0228239
0.306835
0.05081
0.021266
0.017798
0.0170641
0.0170868
0.0173433
0.0177049
0.0181157
0.0185666
0.0190529
0.0195671
0.0200997
0.0206482
0.0212163
0.0218131
0.0224526
0.315101
0.0536156
0.0223279
0.0184355
0.017558
0.0175124
0.0177356
0.0180713
0.0184594
0.0188874
0.019351
0.0198414
0.0203469
0.0208618
0.0213888
0.0219303
0.0224876
0.32267
0.0563234
0.0234381
0.0191058
0.0180826
0.0179643
0.0181516
0.0184607
0.018827
0.0192324
0.0196718
0.0201378
0.0206192
0.0211072
0.0216024
0.0221098
0.0226188
0.329362
0.0589119
0.0245981
0.0198185
0.0186428
0.0184469
0.0185951
0.0188774
0.0192213
0.0196029
0.0200159
0.0204559
0.0209137
0.0213785
0.0218466
0.0223269
0.0228362
0.33509
0.061392
0.0258155
0.0205867
0.0192446
0.0189652
0.0190699
0.0193234
0.0196429
0.0199991
0.0203851
0.0207981
0.0212314
0.0216728
0.0221121
0.0225457
0.0229778
0.339994
0.0638431
0.0271069
0.0214216
0.0198929
0.0195225
0.0195786
0.0197997
0.0200927
0.0204228
0.0207812
0.0211665
0.0215754
0.0219973
0.0224203
0.0228327
0.0232024
0.344585
0.0664584
0.0285137
0.0223271
0.0205923
0.0201209
0.0201232
0.0203078
0.0205727
0.020876
0.0212059
0.0215613
0.0219424
0.022343
0.0227548
0.0231774
0.0236165
0.348843
0.0692688
0.0300371
0.0233077
0.0213486
0.020763
0.0207059
0.0208504
0.0210851
0.0213605
0.0216617
0.0219857
0.0223346
0.0227047
0.0230869
0.0234702
0.0238487
0.352881
0.0722612
0.0316919
0.0243665
0.0221643
0.0214517
0.0213293
0.0214293
0.0216317
0.021878
0.0221502
0.0224429
0.0227591
0.0230991
0.0234583
0.0238188
0.024126
0.356488
0.0753189
0.0334835
0.0255049
0.0230429
0.0221895
0.0219953
0.0220464
0.0222143
0.0224301
0.0226725
0.0229334
0.0232154
0.0235225
0.0238606
0.024232
0.024624
0.359391
0.0782083
0.0354202
0.0267231
0.0239853
0.0229779
0.0227059
0.0227039
0.0228346
0.0230184
0.0232304
0.0234592
0.023705
0.0239714
0.024266
0.0245924
0.0249399
0.36143
0.0808268
0.0374507
0.0280181
0.0249911
0.0238188
0.0234626
0.0234037
0.0234942
0.0236447
0.0238258
0.0240232
0.0242341
0.0244613
0.0247153
0.0249982
0.0252605
0.362638
0.0836082
0.0394748
0.0293849
0.0260583
0.0247141
0.0242669
0.024148
0.0241952
0.0243106
0.0244598
0.0246256
0.0248024
0.0249925
0.0252095
0.0254752
0.0257945
0.363161
0.0864199
0.041572
0.0308219
0.027182
0.0256652
0.0251212
0.0249393
0.0249402
0.0250184
0.0251337
0.025267
0.0254091
0.0255602
0.0257283
0.0259339
0.0261959
0.36255
0.0892608
0.0437224
0.0323269
0.0283641
0.0266736
0.0260281
0.0257803
0.0257325
0.0257709
0.0258503
0.0259498
0.0260571
0.026171
0.0262943
0.0264427
0.0265835
0.36107
0.0922411
0.0459278
0.0338962
0.0296075
0.0277408
0.0269906
0.026675
0.0265751
0.026571
0.0266117
0.0266751
0.0267461
0.0268244
0.0269073
0.0270223
0.027151
0.358439
0.0953637
0.0481872
0.0355243
0.0309105
0.0288687
0.0280121
0.0276278
0.0274721
0.0274225
0.0274209
0.0274445
0.0274759
0.027516
0.027553
0.0276183
0.0276677
0.354309
0.0985934
0.0504953
0.0372034
0.0322696
0.0300601
0.0290968
0.0286429
0.0284295
0.02833
0.0282827
0.0282625
0.0282508
0.0282496
0.0282417
0.0282615
0.0282096
0.349125
0.101585
0.0528509
0.0389395
0.033695
0.0313231
0.0302531
0.0297278
0.0294535
0.0292998
0.0292021
0.0291328
0.0290735
0.0290265
0.0289741
0.0289492
0.0288517
0.342977
0.104498
0.0552665
0.0407369
0.0351778
0.0326644
0.0314905
0.0308913
0.0305524
0.030339
0.0301849
0.0300603
0.0299485
0.0298491
0.0297465
0.0296617
0.0295296
0.337271
0.106788
0.0575918
0.042535
0.0367066
0.0340783
0.0328124
0.0321393
0.0317332
0.0314552
0.0312385
0.0310527
0.030882
0.0307229
0.0305626
0.0304185
0.0302493
0.332104
0.108541
0.0597026
0.0442901
0.0382787
0.0355676
0.034227
0.0334826
0.0330062
0.0326574
0.0323705
0.0321158
0.0318781
0.0316529
0.0314315
0.0312279
0.0309953
0.327521
0.110006
0.0616017
0.0460143
0.0399155
0.037156
0.0357545
0.034939
0.0343867
0.0339584
0.0335917
0.0332581
0.0329436
0.0326434
0.032351
0.0320728
0.0317752
0.323525
0.111186
0.0633068
0.0477489
0.0416522
0.0388759
0.0374215
0.0365306
0.0358919
0.0353722
0.0349135
0.0344894
0.0340873
0.0337023
0.0333279
0.032968
0.0326101
0.320089
0.112286
0.0649496
0.0495705
0.043543
0.0407699
0.0392611
0.0382836
0.0375426
0.0369151
0.0363486
0.0358193
0.0353162
0.0348341
0.0343686
0.033925
0.0334833
0.317152
0.113301
0.066613
0.0515483
0.0456527
0.0428888
0.0413124
0.0402278
0.0393622
0.0386057
0.0379118
0.0372597
0.0366393
0.0360458
0.0354762
0.0349304
0.034394
0.314631
0.114231
0.0683813
0.0537742
0.0480557
0.0452912
0.0436206
0.0423974
0.0413772
0.0404646
0.0396193
0.038823
0.0380667
0.0373458
0.0366562
0.0359954
0.0353606
0.312446
0.115147
0.0703818
0.0563721
0.0508443
0.0480456
0.0462366
0.0448312
0.0436179
0.0425154
0.0414893
0.0405234
0.039609
0.0387411
0.037915
0.0371315
0.036382
0.310513
0.116165
0.0728028
0.0594901
0.0541263
0.051232
0.0492192
0.0475742
0.0461187
0.0447848
0.0435424
0.0423765
0.041278
0.0402405
0.0392594
0.0383316
0.0374446
0.308758
0.117486
0.0758901
0.0633098
0.0580305
0.0549436
0.0526373
0.0506784
0.0489197
0.0473034
0.045802
0.0444
0.0430867
0.041854
0.040695
0.0396022
0.0385719
0.307113
0.119371
0.079936
0.0680499
0.0627134
0.0592912
0.0565738
0.0542067
0.0520684
0.0501071
0.048295
0.0466139
0.0450498
0.0435915
0.0422287
0.0409548
0.0397624
0.305516
0.122264
0.0853378
0.0739872
0.0683676
0.0644127
0.0611306
0.0582353
0.0556217
0.0532383
0.0510528
0.049041
0.0471836
0.0454641
0.0438688
0.0423867
0.0410007
0.303913
0.126802
0.0926201
0.0814793
0.0752359
0.0704833
0.0664367
0.0628592
0.0596497
0.0567485
0.0541126
0.051708
0.0495064
0.0474845
0.0456223
0.0439015
0.042309
0.302261
0.133945
0.102502
0.0910013
0.0836422
0.0777338
0.0726585
0.0681993
0.0642401
0.0607007
0.0575191
0.0546457
0.0520394
0.0496661
0.0474973
0.0455096
0.0436858
0.300516
0.145225
0.116014
0.103206
0.0940287
0.0864735
0.0800152
0.0744111
0.0695026
0.0651715
0.0613254
0.0578901
0.0548058
0.0520235
0.0495029
0.0472111
0.0451158
0.298634
0.163067
0.134656
0.119024
0.107017
0.0971276
0.0888001
0.0816967
0.0755758
0.0702552
0.0655942
0.0614822
0.0578316
0.054572
0.0516463
0.0490069
0.0466171
0.296558
0.191573
0.16073
0.13986
0.123521
0.110303
0.0994179
0.0903261
0.0826393
0.0760703
0.0704027
0.0654711
0.0611467
0.0573284
0.0539359
0.0509046
0.048187
0.0273081
0.0396589
0.0859763
0.254899
0.756514
1.77717
3.04487
3.78736
3.79696
3.92687
5.01624
7.51342
12.2711
14.7618
10.1793
3.1041
0.429628
0.0731384
0.0319782
0.0237713
0.0299239
0.0475386
0.112056
0.342921
1.01757
2.35695
3.89093
4.56139
4.32083
4.26086
5.43919
8.12786
12.7997
14.4386
9.53603
2.85563
0.416479
0.079234
0.0347578
0.0248576
0.0335957
0.0586131
0.147992
0.462818
1.36551
3.09339
4.80768
5.28607
4.82631
4.74056
6.00005
8.77066
13.0366
13.8426
8.79588
2.59367
0.404242
0.0871448
0.038365
0.0262502
0.0388023
0.0741561
0.197287
0.625959
1.83185
3.97183
5.70724
5.8951
5.31954
5.27972
6.59758
9.30424
12.9604
13.0052
7.94813
2.32307
0.397012
0.097798
0.0431669
0.0280832
0.0462532
0.0959363
0.264866
0.846899
2.44246
4.91864
6.48412
6.38589
5.80256
5.8297
7.13381
9.63373
12.5583
11.9601
7.04776
2.07111
0.399828
0.112526
0.0497302
0.0305689
0.0569732
0.126396
0.35805
1.14765
3.18758
5.83309
7.07986
6.79474
6.24726
6.3121
7.53832
9.70414
11.8588
10.7783
6.17392
1.86873
0.418614
0.133228
0.058926
0.0340447
0.0724543
0.168929
0.486283
1.56073
4.02741
6.61133
7.47892
7.1294
6.63162
6.70251
7.77032
9.5049
10.9223
9.56527
5.41105
1.74185
0.459658
0.16264
0.0721004
0.0390583
0.0948784
0.228488
0.663767
2.09009
4.86692
7.17776
7.70218
7.37539
6.9311
6.96993
7.81553
9.10013
9.91149
8.43933
4.82945
1.70932
0.53068
0.20474
0.0913287
0.0465089
0.127453
0.312721
0.911352
2.73141
5.59738
7.47888
7.79484
7.51608
7.12509
7.10301
7.69859
8.55665
8.894
7.49985
4.47627
1.78943
0.642447
0.265463
0.119832
0.0578768
0.17505
0.432225
1.26081
3.43199
6.10573
7.53073
7.76017
7.53896
7.19638
7.10803
7.46069
7.96878
7.98875
6.79241
4.36457
2.0028
0.810896
0.353361
0.162488
0.0756295
0.245185
0.604545
1.70698
4.08133
6.35862
7.36798
7.59387
7.43829
7.14617
7.00506
7.15053
7.41826
7.24122
6.30102
4.45777
2.36592
1.06006
0.48189
0.226906
0.103891
0.349791
0.859378
2.24399
4.55344
6.30009
7.06496
7.30289
7.21756
6.98879
6.82447
6.82442
6.9243
6.64845
5.95471
4.67519
2.87964
1.42662
0.673188
0.325156
0.149654
0.508351
1.21117
2.79136
4.74386
6.04871
6.65811
6.90206
6.88456
6.734
6.58157
6.49973
6.45654
6.17056
5.65577
4.84366
3.47048
1.94511
0.962673
0.476534
0.225053
0.756818
1.6673
3.21965
4.66102
5.63763
6.1645
6.41672
6.4597
6.39089
6.28043
6.17211
6.04553
5.77497
5.35556
4.82434
3.94805
2.57862
1.39144
0.713532
0.351535
1.12092
2.14734
3.39613
4.41999
5.15443
5.61232
5.86229
5.96151
5.96963
5.91113
5.81672
5.67339
5.42448
5.05843
4.61807
4.0734
3.14249
1.96628
1.09353
0.567135
1.59362
2.47862
3.32358
4.08197
4.63749
5.02334
5.26509
5.41124
5.47454
5.47427
5.41291
5.28706
5.0664
4.7451
4.35474
3.91293
3.33951
2.52536
1.6444
0.949115
1.9982
2.53948
3.13435
3.66909
4.08945
4.40712
4.64345
4.81643
4.92396
4.96735
4.9444
4.84617
4.65713
4.37956
4.02965
3.64064
3.19157
2.73966
2.22183
1.58193
2.08673
2.4045
2.80231
3.17389
3.49067
3.75425
3.98424
4.17063
4.30419
4.37826
4.38529
4.3139
4.15868
3.92371
3.62018
3.27026
2.90315
2.56155
2.41195
2.2838
1.80622
2.0183
2.28205
2.54512
2.787
3.01181
3.21444
3.38395
3.51113
3.59167
3.61792
3.56857
3.45098
3.26976
3.03246
2.75441
2.47188
2.20977
2.04294
2.21931
0.937355
1.04689
1.16963
1.29048
1.41926
1.55591
1.67872
1.78082
1.86057
1.9149
1.94264
1.92554
1.87302
1.78642
1.66697
1.51747
1.34427
1.16817
0.989993
0.843219
0.74506
2.66669
2.09247