/*--------------------------------*- C++ -*----------------------------------*\
  =========                 |
  \\      /  F ield         | OpenFOAM: The Open Source CFD Toolbox
   \\    /   O peration     | Website:  https://openfoam.org
    \\  /    A nd           | Version:  6
     \\/     M anipulation  |
\*---------------------------------------------------------------------------*/
FoamFile
{
    version     2.0;
    format      ascii;
    class       volVectorField;
    location    "3.02";
    object      U;
}
// * * * * * * * * * * * * * * * * * * * * * * * * * * * * * * * * * * * * * //

dimensions      [0 1 -1 0 0 0 0];

internalField   nonuniform List<vector> 
4214
(
(13.1702 0.301157 -5.76974e-19)
(13.6442 0.0773988 1.10369e-19)
(13.8584 -0.183936 5.56892e-19)
(14.0249 -0.426594 0)
(14.229 -0.656919 -5.98447e-20)
(14.5239 -0.904104 0)
(14.9415 -1.166 0)
(15.3254 -1.44841 -2.60053e-19)
(15.1238 -1.79017 2.66718e-19)
(14.1646 -2.31386 -1.48049e-20)
(12.4471 -3.01895 -1.34627e-19)
(10.4438 -3.74652 1.28643e-19)
(8.49037 -4.32846 2.2279e-20)
(6.78329 -4.66417 0)
(5.51223 -4.75337 4.35468e-21)
(4.74063 -4.70068 0)
(4.43558 -4.60721 1.56264e-20)
(4.41919 -4.51621 -1.38844e-20)
(4.66778 -4.41282 -1.44591e-23)
(5.07926 -4.26702 0)
(5.5927 -4.0338 9.04586e-22)
(6.17602 -3.71899 -8.95958e-22)
(6.79677 -3.35013 4.05456e-21)
(7.41876 -2.96572 2.06571e-20)
(8.01179 -2.59271 -2.23391e-20)
(8.55162 -2.24241 1.06724e-20)
(9.02665 -1.91898 0)
(9.43336 -1.62481 0)
(9.77423 -1.36315 -4.86915e-21)
(10.057 -1.13495 0)
(10.2917 -0.93848 3.29524e-21)
(10.4871 -0.771017 0)
(10.6491 -0.629354 1.3141e-21)
(10.7817 -0.509861 -1.28676e-21)
(10.8879 -0.408932 0)
(10.9725 -0.32275 -2.94566e-21)
(11.0409 -0.245416 -2.87773e-21)
(11.0926 -0.175122 -2.3152e-21)
(11.119 -0.116336 1.11701e-19)
(11.0697 -0.0588467 -2.2694e-19)
(10.7644 -0.000756919 3.39431e-20)
(13.3902 -0.102202 1.59702e-18)
(13.5219 -0.235524 -1.41438e-18)
(13.6326 -0.524377 1.6283e-19)
(13.8037 -0.805446 -1.36621e-18)
(14.0359 -1.0922 1.4668e-18)
(14.3666 -1.41321 -4.91257e-19)
(14.7929 -1.76576 7.49174e-20)
(14.9584 -2.1773 1.67115e-19)
(14.3354 -2.71541 7.12375e-19)
(12.8645 -3.46113 -2.69851e-19)
(10.9482 -4.35635 -1.15615e-20)
(9.06932 -5.23288 -5.56954e-20)
(7.45095 -5.94638 4.56695e-20)
(6.15175 -6.41178 -7.61108e-21)
(5.21911 -6.61833 -6.61626e-20)
(4.67439 -6.61612 6.24025e-20)
(4.48136 -6.47695 -1.77883e-21)
(4.54264 -6.25695 0)
(4.8576 -5.94755 1.27241e-21)
(5.3426 -5.56419 -7.9733e-23)
(5.93063 -5.12531 0)
(6.56449 -4.6589 -7.97173e-21)
(7.19938 -4.19156 8.03466e-21)
(7.80684 -3.73698 -9.05439e-21)
(8.37086 -3.29557 -3.06343e-20)
(8.88034 -2.87123 -1.08352e-19)
(9.32477 -2.47491 2.01055e-19)
(9.69969 -2.11404 -9.28556e-20)
(10.008 -1.79165 5.2293e-20)
(10.259 -1.50773 -1.62843e-19)
(10.4637 -1.26104 1.23205e-19)
(10.6319 -1.04947 8.09109e-20)
(10.7706 -0.869588 -1.00419e-20)
(10.8844 -0.716975 -7.75537e-21)
(10.9766 -0.587548 -1.63119e-19)
(11.051 -0.477094 1.05094e-19)
(11.1108 -0.379874 -8.81901e-20)
(11.1644 -0.296511 1.65492e-19)
(11.2195 -0.231217 -5.97758e-20)
(11.2499 -0.154166 1.42159e-19)
(11.2311 -0.0283389 -1.22957e-19)
(13.1426 -0.192201 -2.85743e-18)
(13.296 -0.439475 0)
(13.4559 -0.752418 -2.28731e-19)
(13.6451 -1.03277 2.33142e-18)
(13.8736 -1.34382 -3.1088e-18)
(14.1952 -1.70912 -1.50947e-18)
(14.5376 -2.13189 1.28146e-18)
(14.4495 -2.63271 0)
(13.5497 -3.25561 -1.08892e-18)
(11.9537 -4.03059 1.65647e-20)
(10.1088 -4.90431 9.12662e-19)
(8.40502 -5.76481 5.72217e-20)
(6.98062 -6.49522 6.97005e-20)
(5.87498 -7.00586 0)
(5.1206 -7.26496 0)
(4.72917 -7.29563 -6.99043e-22)
(4.62783 -7.15349 -4.29846e-20)
(4.77872 -6.89189 3.8406e-20)
(5.14115 -6.53598 -1.34048e-20)
(5.64401 -6.13036 1.49626e-20)
(6.22752 -5.69012 1.08838e-21)
(6.84722 -5.21843 -6.83271e-21)
(7.47093 -4.71932 1.32611e-20)
(8.07201 -4.20337 -5.94586e-20)
(8.62732 -3.69054 8.95097e-20)
(9.12192 -3.2045 2.79002e-20)
(9.54669 -2.76075 0)
(9.9016 -2.36228 0)
(10.1911 -2.00749 -6.50448e-20)
(10.4234 -1.69498 6.63862e-20)
(10.6092 -1.42329 -1.44007e-19)
(10.759 -1.1902 1.26466e-19)
(10.8806 -0.991916 0)
(10.9795 -0.823624 0)
(11.0597 -0.680833 0)
(11.1243 -0.558552 -2.1132e-20)
(11.175 -0.450801 0)
(11.2174 -0.357321 4.90078e-21)
(11.2552 -0.278502 -1.05423e-19)
(11.279 -0.200792 1.15345e-19)
(11.2979 -0.11328 3.24959e-19)
(12.9687 -0.44667 0)
(13.1162 -0.679855 -2.96665e-18)
(13.2485 -0.99301 6.21887e-18)
(13.4157 -1.29071 -6.53038e-18)
(13.6281 -1.64249 6.58654e-18)
(13.9252 -2.06771 -1.75572e-18)
(14.1312 -2.55998 -3.54768e-18)
(13.7811 -3.11888 1.77616e-18)
(12.6029 -3.76658 3.34337e-19)
(10.8695 -4.52604 0)
(9.07511 -5.36378 1.02986e-18)
(7.53071 -6.19782 -1.55056e-18)
(6.32026 -6.9133 -1.11799e-19)
(5.46287 -7.41029 0)
(4.94773 -7.65747 -5.92962e-20)
(4.7553 -7.70247 -2.79764e-20)
(4.76776 -7.59647 2.87811e-20)
(4.99527 -7.39233 4.71796e-21)
(5.39487 -7.12251 5.69047e-21)
(5.92419 -6.79348 -4.13161e-20)
(6.53753 -6.39146 0)
(7.19119 -5.9049 -4.69984e-20)
(7.83997 -5.34702 1.52067e-20)
(8.44668 -4.75176 -6.53376e-21)
(8.98696 -4.15917 0)
(9.45342 -3.60188 -2.81661e-20)
(9.84683 -3.09742 0)
(10.1715 -2.64937 0)
(10.4332 -2.25429 0)
(10.6393 -1.90812 4.11283e-20)
(10.7998 -1.60757 -1.13888e-19)
(10.9254 -1.34954 1.13717e-19)
(11.0252 -1.12996 0)
(11.1054 -0.943792 0)
(11.1701 -0.785942 -2.05834e-19)
(11.222 -0.650964 2.23438e-19)
(11.264 -0.533597 5.16681e-20)
(11.301 -0.432262 -1.80009e-19)
(11.3329 -0.342197 1.58935e-19)
(11.3545 -0.253628 -2.0979e-19)
(11.3781 -0.169258 2.06164e-19)
(12.7535 -0.623501 3.87288e-18)
(12.8852 -0.880346 0)
(12.9912 -1.21105 0)
(13.1338 -1.53106 3.08357e-18)
(13.3175 -1.91621 -4.55062e-18)
(13.5538 -2.39031 2.30815e-18)
(13.5915 -2.92785 -3.6572e-18)
(12.9807 -3.49861 -1.30717e-18)
(11.6003 -4.11566 0)
(9.83388 -4.81221 2.36766e-18)
(8.14661 -5.57923 -4.87113e-18)
(6.76864 -6.35295 1.94797e-18)
(5.76289 -7.02063 1.49297e-18)
(5.1358 -7.49627 0)
(4.82535 -7.77047 1.37934e-19)
(4.74875 -7.89004 -5.58036e-20)
(4.85127 -7.91176 5.18806e-20)
(5.13012 -7.86575 0)
(5.57799 -7.74365 -3.04803e-20)
(6.16961 -7.50497 1.22789e-19)
(6.85368 -7.13384 0)
(7.57104 -6.6272 2.24709e-19)
(8.26108 -6.01048 8.66587e-20)
(8.88029 -5.33385 4.34037e-20)
(9.40698 -4.64926 0)
(9.84212 -4.00198 -2.31514e-20)
(10.197 -3.4197 0)
(10.4835 -2.91134 0)
(10.7112 -2.47236 0)
(10.8874 -2.09349 1.75589e-19)
(11.0202 -1.76681 -1.91217e-19)
(11.1193 -1.48686 1.80553e-19)
(11.1947 -1.24887 -2.09448e-19)
(11.2537 -1.04743 -6.59607e-20)
(11.3005 -0.876748 -2.42126e-19)
(11.3373 -0.730986 2.37776e-19)
(11.3669 -0.60535 1.05629e-19)
(11.3935 -0.497479 -1.58973e-19)
(11.4169 -0.40155 0)
(11.4352 -0.308863 0)
(11.456 -0.223816 0)
(12.5114 -0.80942 0)
(12.6233 -1.07012 -2.33488e-18)
(12.6952 -1.40504 2.57935e-18)
(12.7975 -1.74198 9.05695e-18)
(12.9362 -2.15127 -4.05674e-18)
(13.0849 -2.65745 0)
(12.9517 -3.2102 -1.57636e-18)
(12.1275 -3.75092 1.34659e-18)
(10.622 -4.29172 3.06679e-18)
(8.87495 -4.89073 -3.10245e-18)
(7.29539 -5.55913 3.89129e-18)
(6.05936 -6.25015 -1.40546e-18)
(5.2412 -6.86859 -1.45183e-18)
(4.81215 -7.35473 1.49395e-18)
(4.65223 -7.70655 -3.09551e-19)
(4.65047 -7.96299 -1.1781e-19)
(4.80623 -8.16512 1.94999e-19)
(5.14705 -8.30218 -2.56721e-19)
(5.688 -8.32963 1.99075e-20)
(6.38504 -8.17784 -8.20649e-20)
(7.17569 -7.84861 -4.56319e-20)
(7.98678 -7.34803 3.15251e-20)
(8.74457 -6.69668 -4.55428e-19)
(9.39595 -5.95121 1.43311e-19)
(9.91798 -5.17307 -1.41055e-19)
(10.3184 -4.424 -1.69125e-19)
(10.6219 -3.74796 1.02105e-19)
(10.8546 -3.16467 -6.86862e-21)
(11.0349 -2.67234 -2.29885e-20)
(11.1724 -2.25739 -8.43763e-20)
(11.2726 -1.90499 -4.08589e-20)
(11.3423 -1.6049 0)
(11.3903 -1.35051 1.29125e-19)
(11.4249 -1.1359 -6.7196e-20)
(11.4511 -0.954545 1.31544e-19)
(11.471 -0.800161 0)
(11.4869 -0.667994 -1.87457e-19)
(11.5018 -0.554806 1.88074e-19)
(11.5159 -0.454693 0)
(11.5287 -0.360039 6.63356e-20)
(11.5453 -0.274852 0)
(12.2351 -0.954062 0)
(12.325 -1.21839 4.9993e-18)
(12.3622 -1.55258 -1.10186e-17)
(12.4115 -1.90212 -8.85475e-18)
(12.492 -2.32263 6.20748e-18)
(12.541 -2.83888 -1.60758e-18)
(12.2507 -3.37695 3.44597e-18)
(11.2772 -3.85358 1.70841e-18)
(9.71926 -4.28925 -5.47033e-18)
(8.02532 -4.76749 7.61625e-18)
(6.54211 -5.31329 -3.87715e-18)
(5.42805 -5.91295 7.9289e-19)
(4.76959 -6.50398 0)
(4.47993 -7.03003 -1.67246e-19)
(4.3915 -7.47987 4.2945e-19)
(4.42969 -7.89245 -2.88522e-19)
(4.64114 -8.26886 -1.55705e-19)
(5.0703 -8.54668 1.15576e-18)
(5.72299 -8.66487 -5.75242e-19)
(6.54308 -8.64119 -8.49679e-20)
(7.46603 -8.39477 1.6266e-19)
(8.4036 -7.94477 -6.89889e-19)
(9.26314 -7.30546 3.70855e-19)
(9.97736 -6.53167 4.95602e-19)
(10.517 -5.68752 -2.12506e-19)
(10.891 -4.84721 3.21731e-19)
(11.1368 -4.07374 -1.54253e-19)
(11.2989 -3.40466 1.51716e-19)
(11.4126 -2.84864 8.17914e-21)
(11.4967 -2.39244 2.17779e-20)
(11.5562 -2.01435 4.30602e-20)
(11.5924 -1.69654 2.54755e-20)
(11.6105 -1.42849 -6.11261e-20)
(11.618 -1.20318 0)
(11.6208 -1.01366 2.67067e-19)
(11.6213 -0.853185 -1.96335e-19)
(11.6213 -0.716626 2.67177e-19)
(11.6223 -0.600099 -5.22231e-19)
(11.6249 -0.497806 2.55305e-19)
(11.6298 -0.403077 -6.72679e-20)
(11.6422 -0.31871 -2.81456e-19)
(11.9392 -1.06762 0)
(12.0003 -1.32489 8.72315e-18)
(12.0036 -1.64541 -3.10867e-18)
(11.994 -1.99487 3.49191e-18)
(12.0043 -2.41238 -1.10231e-17)
(11.9541 -2.91645 -2.14667e-18)
(11.5413 -3.41703 3.94064e-18)
(10.4878 -3.80778 1.9659e-18)
(8.93308 -4.12071 -2.04838e-18)
(7.30259 -4.45928 2.29479e-18)
(5.89764 -4.86953 2.21564e-18)
(4.88332 -5.37998 0)
(4.33193 -5.95022 1.18639e-18)
(4.10212 -6.50449 -1.64525e-18)
(4.02263 -7.04808 1.44968e-19)
(4.10249 -7.59953 2.83348e-19)
(4.38675 -8.10758 0)
(4.91814 -8.49173 -1.61364e-19)
(5.68098 -8.69618 -4.99189e-19)
(6.63217 -8.76981 6.21404e-19)
(7.69923 -8.60583 -1.27989e-19)
(8.78051 -8.24767 3.85743e-19)
(9.76851 -7.68221 0)
(10.5805 -6.94999 -5.01073e-19)
(11.1735 -6.10438 0)
(11.548 -5.21921 1.38289e-18)
(11.7459 -4.37178 -1.09654e-18)
(11.8294 -3.62123 -2.09519e-19)
(11.8569 -2.99592 -1.75465e-20)
(11.8667 -2.49274 -1.06851e-19)
(11.8711 -2.08794 1.21926e-19)
(11.8671 -1.75528 -3.00683e-20)
(11.8521 -1.47746 -6.47458e-20)
(11.8302 -1.24488 -6.70856e-20)
(11.8071 -1.05015 1.0699e-19)
(11.7861 -0.886339 7.89341e-20)
(11.7684 -0.747824 -5.43748e-19)
(11.7543 -0.630013 2.72247e-19)
(11.7437 -0.52734 -2.89492e-19)
(11.7379 -0.434264 2.84987e-19)
(11.7432 -0.352349 -1.61003e-19)
(11.6403 -1.13336 -6.14237e-18)
(11.6623 -1.37687 1.28585e-17)
(11.6292 -1.67361 -1.02462e-17)
(11.5646 -2.00762 -3.58056e-18)
(11.5007 -2.40725 -4.2545e-18)
(11.3609 -2.8815 3.76101e-18)
(10.8677 -3.32847 8.74001e-18)
(9.79396 -3.62605 0)
(8.28466 -3.81045 -2.46906e-18)
(6.71603 -3.99824 -2.34481e-18)
(5.37452 -4.26931 -4.62251e-18)
(4.42409 -4.67812 0)
(3.90566 -5.18794 2.81556e-18)
(3.66711 -5.73718 -1.26097e-18)
(3.59184 -6.3486 -1.77109e-19)
(3.70625 -6.98964 -7.68253e-19)
(4.06763 -7.57679 9.35335e-19)
(4.70694 -8.04583 0)
(5.59574 -8.3448 7.02426e-19)
(6.68003 -8.45781 -8.93101e-20)
(7.87066 -8.36161 -1.81189e-19)
(9.07194 -8.08613 6.47615e-19)
(10.1877 -7.65871 7.61001e-19)
(11.1249 -7.05191 0)
(11.8157 -6.29604 -6.3888e-19)
(12.238 -5.4477 -1.53492e-18)
(12.4235 -4.5855 5.75262e-19)
(12.4422 -3.78591 0)
(12.3757 -3.10136 -2.50524e-19)
(12.2905 -2.55003 4.6919e-19)
(12.2197 -2.11732 2.6678e-19)
(12.1637 -1.77268 -1.44561e-19)
(12.111 -1.49014 -4.78901e-20)
(12.0576 -1.25517 2.21377e-21)
(12.0066 -1.05927 2.21203e-19)
(11.962 -0.895483 -3.49316e-19)
(11.9249 -0.757907 2.55004e-19)
(11.8946 -0.641353 0)
(11.8698 -0.540315 3.05069e-19)
(11.8516 -0.450377 -1.41058e-19)
(11.8465 -0.372174 1.63223e-19)
(11.353 -1.13604 3.31121e-18)
(11.3263 -1.3635 -3.27227e-18)
(11.2531 -1.63041 3.60493e-18)
(11.1394 -1.93618 4.10014e-18)
(11.0076 -2.30278 -8.32023e-18)
(10.7955 -2.73187 0)
(10.2655 -3.1179 4.87116e-18)
(9.22104 -3.32963 5.09895e-18)
(7.78393 -3.38915 7.62085e-18)
(6.27659 -3.42424 -5.23989e-18)
(4.97908 -3.54785 2.40537e-18)
(4.0373 -3.8094 -2.11036e-18)
(3.48416 -4.19256 -3.16604e-18)
(3.22135 -4.71354 8.28511e-19)
(3.15742 -5.3407 -4.35015e-19)
(3.30411 -5.98076 1.05531e-18)
(3.74116 -6.5592 -1.64791e-18)
(4.48308 -7.00773 2.79532e-18)
(5.48073 -7.29945 -1.56934e-18)
(6.65959 -7.45255 -4.26863e-19)
(7.93295 -7.48061 2.38975e-19)
(9.21979 -7.37134 -1.11027e-18)
(10.445 -7.12063 -2.07814e-18)
(11.5162 -6.70957 1.47683e-18)
(12.343 -6.1337 0)
(12.8705 -5.41962 1.32558e-18)
(13.1026 -4.62986 0)
(13.1002 -3.84661 -1.49678e-18)
(12.9579 -3.13978 5.99413e-19)
(12.7705 -2.55235 0)
(12.6039 -2.09375 -4.05479e-19)
(12.4789 -1.74016 2.64511e-19)
(12.3809 -1.45867 3.01687e-20)
(12.2939 -1.22766 3.82718e-20)
(12.2141 -1.03594 0)
(12.1444 -0.876452 0)
(12.0865 -0.743287 1.26739e-19)
(12.0391 -0.630952 2.97538e-19)
(11.9999 -0.534167 -4.47861e-19)
(11.969 -0.449229 7.24942e-21)
(11.9512 -0.375711 -1.59719e-19)
(11.0755 -1.06557 3.3337e-18)
(11.0036 -1.27241 -7.15149e-18)
(10.8905 -1.50875 7.91561e-18)
(10.7338 -1.77932 -4.01483e-18)
(10.5463 -2.10129 0)
(10.2831 -2.47483 4.93054e-18)
(9.75376 -2.80104 -1.49225e-17)
(8.77853 -2.94096 -5.22707e-18)
(7.43411 -2.89086 -1.08187e-17)
(5.99262 -2.77802 5.10848e-18)
(4.71704 -2.72521 -9.79718e-18)
(3.75119 -2.79897 6.78958e-18)
(3.14283 -3.0374 4.27704e-19)
(2.84605 -3.46285 -7.1729e-20)
(2.78458 -4.01004 -1.42872e-19)
(2.9655 -4.56815 -1.79347e-18)
(3.46986 -5.06348 -2.68208e-19)
(4.28592 -5.46111 -1.40414e-18)
(5.33863 -5.76079 9.39696e-19)
(6.55315 -5.97565 1.10989e-18)
(7.8607 -6.10542 0)
(9.19571 -6.1402 0)
(10.4968 -6.06879 2.21892e-18)
(11.6815 -5.87694 0)
(12.6567 -5.53761 0)
(13.3367 -5.03944 0)
(13.6836 -4.41326 -4.43554e-19)
(13.7312 -3.73225 -1.26173e-18)
(13.5647 -3.06902 -2.68068e-19)
(13.2958 -2.47966 1.82401e-18)
(13.0238 -2.00728 -2.74035e-19)
(12.8102 -1.6499 -5.26253e-20)
(12.6542 -1.37561 -1.80851e-19)
(12.5301 -1.15602 -5.49275e-20)
(12.4218 -0.975297 0)
(12.3271 -0.825414 0)
(12.2476 -0.700836 1.45089e-19)
(12.1824 -0.596144 -7.27454e-19)
(12.1291 -0.506609 6.26359e-19)
(12.0863 -0.429012 5.14308e-19)
(12.0559 -0.361587 -5.12707e-19)
(10.8188 -0.924628 3.39766e-18)
(10.7121 -1.10875 3.67582e-18)
(10.5656 -1.31379 -1.20567e-17)
(10.3729 -1.54563 8.33839e-18)
(10.1408 -1.81594 0)
(9.84342 -2.12673 4.90237e-18)
(9.33983 -2.39678 -5.16817e-18)
(8.46252 -2.48421 5.41088e-18)
(7.23418 -2.34694 5.52053e-18)
(5.87321 -2.09081 -5.35122e-18)
(4.618 -1.85914 0)
(3.62566 -1.74755 3.49927e-18)
(2.96391 -1.80608 -3.58587e-18)
(2.61124 -2.05785 1.17357e-19)
(2.53252 -2.42764 -3.84518e-19)
(2.73226 -2.8478 1.00471e-19)
(3.27069 -3.23795 -1.07768e-18)
(4.11066 -3.59286 2.72103e-18)
(5.16941 -3.90965 -1.4651e-19)
(6.38192 -4.17402 -6.94129e-19)
(7.68581 -4.37752 0)
(9.02281 -4.52335 -4.05435e-18)
(10.3481 -4.6027 1.50727e-18)
(11.5969 -4.60934 -1.95719e-18)
(12.6947 -4.51273 8.73375e-18)
(13.5433 -4.27186 -6.83623e-19)
(14.0606 -3.87921 -5.42987e-19)
(14.2321 -3.37729 1.55524e-18)
(14.1238 -2.83249 -1.05716e-18)
(13.8305 -2.29853 -2.31717e-18)
(13.4688 -1.84307 9.57454e-19)
(13.1547 -1.4946 -3.6922e-19)
(12.9238 -1.23504 1.84231e-19)
(12.7549 -1.03478 5.5948e-20)
(12.6182 -0.873212 -2.00153e-20)
(12.5005 -0.739498 0)
(12.4004 -0.628511 -1.34439e-19)
(12.3178 -0.535442 1.51756e-19)
(12.2507 -0.456408 1.24448e-20)
(12.1974 -0.388697 0)
(12.1564 -0.329241 -1.88097e-19)
(10.6002 -0.733053 -1.04973e-17)
(10.4679 -0.8876 1.47933e-17)
(10.2976 -1.05463 -3.76555e-18)
(10.0791 -1.24159 4.22418e-18)
(9.81379 -1.45449 -9.47085e-18)
(9.49237 -1.69893 9.70174e-18)
(9.02516 -1.91851 1.05695e-17)
(8.26493 -1.97594 -5.40265e-18)
(7.17794 -1.78825 0)
(5.91719 -1.42699 1.67354e-19)
(4.70175 -1.03901 2.38191e-18)
(3.6957 -0.738327 -1.96962e-18)
(2.97971 -0.584045 0)
(2.54658 -0.603583 1.10508e-18)
(2.4707 -0.758654 1.38012e-18)
(2.62736 -0.991797 -2.02685e-18)
(3.14137 -1.259 -3.43511e-18)
(3.94663 -1.56562 7.98712e-19)
(4.97581 -1.88779 -1.42424e-18)
(6.1602 -2.18161 2.49806e-18)
(7.43144 -2.43375 -3.69658e-19)
(8.73019 -2.67024 1.42584e-18)
(10.0339 -2.86969 1.49871e-18)
(11.2868 -3.03514 -2.22761e-18)
(12.4495 -3.14764 2.4414e-18)
(13.4399 -3.15886 0)
(14.1492 -3.03481 2.08881e-18)
(14.4709 -2.76053 -5.44592e-18)
(14.5181 -2.38764 1.07976e-18)
(14.2969 -1.97045 1.37147e-18)
(13.8996 -1.58046 0)
(13.4993 -1.26629 1.50571e-19)
(13.1821 -1.03395 3.99776e-19)
(12.9569 -0.861187 -7.79165e-20)
(12.7897 -0.727312 -4.87038e-20)
(12.6527 -0.617481 -1.27054e-19)
(12.5354 -0.525821 5.38312e-20)
(12.4376 -0.449072 3.14766e-19)
(12.358 -0.383998 2.0777e-19)
(12.295 -0.328718 -3.84244e-19)
(12.2454 -0.279429 1.91248e-19)
(10.4307 -0.49196 -1.01187e-17)
(10.2759 -0.612278 1.44765e-17)
(10.0865 -0.739359 -7.61451e-18)
(9.85107 -0.880264 -4.28513e-18)
(9.56589 -1.03557 4.42418e-18)
(9.2311 -1.21154 9.91526e-18)
(8.80052 -1.38069 -1.01545e-17)
(8.15902 -1.42983 0)
(7.23391 -1.24097 0)
(6.10597 -0.82736 5.31971e-18)
(4.95654 -0.316473 1.87297e-18)
(3.95353 0.161363 -2.35838e-18)
(3.19462 0.526876 0)
(2.71342 0.751542 -5.30763e-19)
(2.55439 0.831894 0)
(2.65161 0.803971 3.22999e-18)
(3.05728 0.694773 -8.69567e-19)
(3.7817 0.476018 -1.3317e-18)
(4.75925 0.190732 2.42259e-18)
(5.89636 -0.103621 0)
(7.10999 -0.387435 0)
(8.33315 -0.701001 -2.98716e-18)
(9.58555 -1.00528 -2.84102e-18)
(10.7973 -1.30142 4.95759e-18)
(11.9602 -1.57864 -4.23455e-18)
(13.028 -1.79956 -3.12949e-18)
(13.9013 -1.92921 5.38839e-18)
(14.4693 -1.90698 1.53416e-18)
(14.6435 -1.7457 0)
(14.5808 -1.48682 1.39528e-18)
(14.2395 -1.20823 -1.37157e-18)
(13.8093 -0.960252 -3.4604e-21)
(13.4176 -0.773684 -7.32306e-20)
(13.1282 -0.638137 -1.83336e-19)
(12.9245 -0.538686 1.27481e-19)
(12.7714 -0.460771 -1.57968e-19)
(12.6425 -0.394695 0)
(12.5341 -0.339083 -4.24934e-19)
(12.4443 -0.29154 2.0961e-19)
(12.373 -0.251047 2.00888e-19)
(12.3162 -0.214195 -6.76945e-19)
(10.3278 -0.21872 3.25436e-18)
(10.1575 -0.303946 -1.37586e-17)
(9.9553 -0.392439 7.24558e-18)
(9.71135 -0.489426 -3.87448e-18)
(9.41766 -0.590786 -4.46311e-18)
(9.0767 -0.700049 -4.97911e-18)
(8.67095 -0.810975 9.72229e-18)
(8.13113 -0.854183 0)
(7.37006 -0.702338 5.0762e-18)
(6.40293 -0.30086 -3.73833e-19)
(5.35096 0.274136 -4.82595e-18)
(4.37985 0.888692 -1.34058e-18)
(3.59837 1.44467 3.246e-18)
(3.06627 1.8939 -5.16722e-19)
(2.81499 2.21166 -5.67638e-20)
(2.82903 2.38942 -1.04223e-19)
(3.11703 2.4466 -3.93948e-19)
(3.69843 2.37236 2.67921e-18)
(4.57703 2.19888 -7.56535e-19)
(5.62231 1.9546 1.34425e-18)
(6.73818 1.65031 0)
(7.84574 1.27525 4.58205e-18)
(9.01904 0.879524 1.25341e-18)
(10.1697 0.463205 -5.16788e-18)
(11.2845 0.0555928 4.14437e-18)
(12.3721 -0.328342 0)
(13.3263 -0.653274 -2.4518e-18)
(14.1058 -0.86557 3.60476e-19)
(14.5324 -0.934898 -2.35174e-18)
(14.6605 -0.872282 2.30206e-18)
(14.417 -0.739619 0)
(14.0323 -0.585693 -1.07297e-18)
(13.6087 -0.461127 2.66368e-19)
(13.2649 -0.37626 0)
(13.015 -0.315526 -1.9441e-19)
(12.8433 -0.275019 4.73742e-19)
(12.7091 -0.240674 0)
(12.5961 -0.210203 -2.79926e-19)
(12.5023 -0.18418 2.73564e-19)
(12.4256 -0.16027 2.36738e-19)
(12.3646 -0.137828 -7.27717e-19)
(10.2804 0.0875642 0)
(10.0977 0.0383271 -6.56014e-18)
(9.88024 -0.0106952 6.74434e-18)
(9.63252 -0.066395 -2.28472e-19)
(9.33274 -0.116601 7.92123e-18)
(8.99511 -0.16808 -4.52758e-18)
(8.59899 -0.213483 4.37942e-18)
(8.13595 -0.234315 0)
(7.51613 -0.127479 0)
(6.73661 0.197544 -9.14876e-18)
(5.8184 0.751559 4.61517e-18)
(4.93295 1.42314 -6.84456e-18)
(4.15744 2.11641 2.23427e-18)
(3.60407 2.74088 8.92566e-19)
(3.28483 3.26012 -1.98188e-19)
(3.21582 3.64139 -2.64823e-18)
(3.38603 3.89158 2.09999e-18)
(3.80722 4.00125 -4.49355e-18)
(4.52088 3.98012 2.63059e-18)
(5.39021 3.82619 -1.20794e-18)
(6.35332 3.52371 3.46435e-19)
(7.30865 3.12148 -3.44777e-19)
(8.35532 2.66669 -2.70428e-18)
(9.43697 2.146 -4.75466e-18)
(10.4593 1.64159 1.65755e-18)
(11.5523 1.11072 -6.7564e-18)
(12.4983 0.660677 2.45683e-18)
(13.4395 0.251022 0)
(14.0352 0.000510509 2.369e-18)
(14.4424 -0.152365 -3.93206e-18)
(14.445 -0.175346 7.73667e-19)
(14.1309 -0.160383 -2.52843e-19)
(13.7156 -0.106842 0)
(13.3479 -0.0898222 0)
(13.0551 -0.0739899 0)
(12.8493 -0.0746315 -5.97398e-19)
(12.7208 -0.0771085 6.61083e-19)
(12.6081 -0.0747035 -7.34567e-19)
(12.5234 -0.0727824 -6.2081e-19)
(12.4467 -0.0669866 6.08825e-19)
(12.3874 -0.0594975 0)
(10.3434 0.37826 1.02475e-17)
(10.1442 0.373739 3.23124e-18)
(9.94861 0.342941 -6.04827e-18)
(9.67991 0.334565 3.3578e-18)
(9.40152 0.315204 -1.46724e-17)
(9.05007 0.322547 -2.99769e-19)
(8.68306 0.332622 3.84766e-18)
(8.25304 0.367896 -4.40452e-18)
(7.73423 0.460179 4.50995e-18)
(7.10189 0.69748 4.69007e-18)
(6.31814 1.15296 0)
(5.55207 1.7742 5.37165e-18)
(4.78256 2.5255 0)
(4.24618 3.25155 -9.99433e-20)
(3.83055 3.9426 3.11207e-19)
(3.69396 4.49666 -8.56855e-19)
(3.73898 4.9255 -2.17629e-18)
(4.0262 5.20555 1.25983e-18)
(4.58867 5.3087 4.29527e-19)
(5.21815 5.27757 2.52717e-19)
(5.99163 5.02311 0)
(6.76939 4.67646 2.18598e-18)
(7.63724 4.21384 2.52708e-18)
(8.63023 3.63455 1.76426e-18)
(9.5047 3.08646 -1.27867e-18)
(10.6248 2.39555 5.49672e-19)
(11.4735 1.89672 2.35754e-20)
(12.6043 1.27058 2.78684e-18)
(13.2183 0.959078 0)
(13.9687 0.581824 -6.56744e-19)
(14.033 0.471722 1.95277e-18)
(14.1274 0.315334 0)
(13.7052 0.287209 4.33475e-19)
(13.326 0.210548 -2.04419e-19)
(13.0629 0.178205 1.02181e-18)
(12.7784 0.114881 9.00932e-19)
(12.6849 0.0833817 -1.92465e-18)
(12.5609 0.0442188 1.3166e-18)
(12.508 0.0305692 0)
(12.4324 0.0124265 0)
(12.3897 0.00942828 -1.22096e-18)
(12.3373 0.0053974 1.80669e-18)
(12.3388 -0.0477589 -2.904e-19)
(12.3167 -0.112164 -2.74206e-19)
(12.2731 -0.176186 7.42128e-19)
(12.2104 -0.231832 0)
(12.1319 -0.27517 2.1585e-19)
(12.0452 -0.304013 -2.15898e-19)
(11.956 -0.316896 4.05537e-19)
(11.8649 -0.313686 0)
(11.7709 -0.295415 -1.69965e-19)
(11.6755 -0.26462 5.26439e-19)
(11.5839 -0.224167 0)
(11.5032 -0.175752 -1.30317e-19)
(11.4333 -0.123621 4.0109e-19)
(11.3459 -0.0566205 -4.7706e-19)
(11.1259 0.050671 0)
(10.192 0.00639037 1.12779e-19)
(12.3115 0.0122109 0)
(12.3037 -0.0288362 0)
(12.2861 -0.0772541 5.83776e-19)
(12.2542 -0.127948 0)
(12.2082 -0.175183 0)
(12.1502 -0.215195 7.44707e-19)
(12.086 -0.245903 -7.16943e-19)
(12.018 -0.265329 -1.10193e-18)
(11.9447 -0.272349 2.18143e-19)
(11.865 -0.267077 4.12886e-19)
(11.7816 -0.250778 -3.94264e-19)
(11.7003 -0.22458 1.80137e-19)
(11.6282 -0.189859 1.75812e-19)
(11.5639 -0.151615 -2.86996e-19)
(11.4691 -0.0967118 6.71214e-20)
(11.2289 -0.0472808 -6.68904e-20)
(10.1899 -0.0215423 0)
(12.2792 0.0175414 -5.16361e-19)
(12.2737 -0.0144965 0)
(12.2583 -0.0526961 5.9291e-19)
(12.2323 -0.0933564 0)
(12.1955 -0.132143 -2.80755e-19)
(12.151 -0.166288 -8.09371e-19)
(12.103 -0.193899 -1.4383e-20)
(12.0511 -0.213148 7.42368e-19)
(11.9919 -0.222592 -2.37894e-19)
(11.9246 -0.222201 -8.95626e-19)
(11.8525 -0.212939 -1.71214e-20)
(11.7823 -0.194988 4.18997e-19)
(11.721 -0.170108 2.07722e-20)
(11.6645 -0.139305 -4.61867e-19)
(11.5677 -0.0928192 8.05902e-21)
(11.3064 -0.0515944 4.66256e-20)
(10.2138 -0.0205461 3.1959e-20)
(12.2637 0.0276338 5.60998e-19)
(12.2499 0.000954045 -5.74866e-19)
(12.235 -0.0297711 -2.74637e-20)
(12.2139 -0.0628143 0)
(12.1851 -0.0951207 6.15263e-19)
(12.1526 -0.1249 1.18649e-18)
(12.1189 -0.150229 2.65887e-19)
(12.081 -0.169525 -8.10465e-19)
(12.0345 -0.181307 5.08578e-19)
(11.9792 -0.185356 7.49534e-19)
(11.919 -0.182087 7.08678e-19)
(11.8606 -0.171516 -4.45602e-19)
(11.8111 -0.155553 -4.23916e-19)
(11.7636 -0.132976 2.95818e-19)
(11.671 -0.0973597 1.02262e-19)
(11.3944 -0.0613488 -3.84728e-19)
(10.2721 -0.0231419 -3.35912e-19)
(12.2424 0.0386723 4.94456e-19)
(12.2303 0.0152437 6.25236e-19)
(12.2153 -0.0102372 -9.68623e-19)
(12.1968 -0.0374909 -5.9821e-21)
(12.174 -0.0643602 -6.59524e-19)
(12.1509 -0.0898762 -3.17015e-19)
(12.1285 -0.112192 6.14934e-19)
(12.1014 -0.130067 0)
(12.0653 -0.142303 0)
(12.0209 -0.148567 -1.37316e-18)
(11.9721 -0.148925 8.11392e-19)
(11.9255 -0.143525 2.50586e-19)
(11.8872 -0.133901 -7.53905e-19)
(11.8493 -0.118344 4.85129e-19)
(11.7652 -0.0919719 1.11078e-19)
(11.4808 -0.0608737 2.9784e-19)
(10.3528 -0.0238248 3.57146e-19)
(12.2284 0.0514867 -4.88391e-19)
(12.2132 0.0305472 -5.97763e-19)
(12.1981 0.00797613 1.00208e-18)
(12.1811 -0.0152192 -7.09777e-19)
(12.1632 -0.0383137 -3.52086e-19)
(12.1479 -0.0605461 0)
(12.1341 -0.0804158 0)
(12.1153 -0.0968498 -3.30382e-19)
(12.0878 -0.109108 -3.20276e-19)
(12.0531 -0.116734 5.99307e-19)
(12.0153 -0.11955 -5.77407e-19)
(11.9799 -0.117758 0)
(11.9517 -0.112534 5.3557e-19)
(11.9219 -0.102766 -5.15431e-19)
(11.8485 -0.0847582 -3.28538e-19)
(11.5644 -0.0579504 -2.2394e-19)
(10.4466 -0.0236556 3.00338e-20)
(12.2075 0.0686199 -2.52655e-19)
(12.1954 0.0474653 3.443e-19)
(12.1813 0.0269232 2.71266e-20)
(12.1659 0.00588924 1.35827e-20)
(12.1522 -0.0150463 -6.55763e-22)
(12.1431 -0.0352113 3.76267e-19)
(12.1355 -0.0532191 0)
(12.1226 -0.0682172 3.54583e-19)
(12.1019 -0.0801498 6.86145e-19)
(12.0758 -0.0885366 -3.4087e-19)
(12.048 -0.0930406 0)
(12.0228 -0.0938599 0)
(12.003 -0.0916352 1.50821e-19)
(11.9793 -0.0860362 -1.5031e-19)
(11.9167 -0.0751478 5.76897e-19)
(11.6419 -0.0526117 5.62964e-19)
(10.5452 -0.0239326 0)
(12.1896 0.0854297 -6.56371e-20)
(12.176 0.0664676 -3.84835e-19)
(12.1631 0.0465109 -4.09318e-19)
(12.1498 0.0259758 -7.8725e-21)
(12.1403 0.00598854 0)
(12.1362 -0.0130352 4.12593e-19)
(12.1329 -0.0297558 4.09841e-19)
(12.1242 -0.0437385 -3.98859e-19)
(12.1089 -0.0553448 3.92179e-19)
(12.09 -0.0642272 -3.68065e-19)
(12.0709 -0.0700288 5.43636e-19)
(12.0547 -0.072971 -1.77197e-19)
(12.042 -0.0728769 -1.67934e-19)
(12.0231 -0.0700915 3.30202e-19)
(11.9699 -0.0643636 -4.75586e-19)
(11.7102 -0.0451773 -3.07198e-19)
(10.6422 -0.0251847 0)
(12.1665 0.108429 3.80875e-19)
(12.1551 0.0857884 1.93011e-21)
(12.1435 0.0658113 -4.72113e-19)
(12.1325 0.0451967 0)
(12.1269 0.0255326 -9.43529e-19)
(12.1269 0.00717112 4.5802e-19)
(12.1262 -0.00878356 -4.44882e-19)
(12.1203 -0.0222611 0)
(12.1094 -0.0337002 -8.60037e-19)
(12.0966 -0.0429479 0)
(12.0847 -0.0498201 1.98222e-19)
(12.0762 -0.0545489 -1.96498e-19)
(12.0698 -0.0561781 -5.73987e-19)
(12.0557 -0.0556419 -2.80904e-19)
(12.0103 -0.053343 4.53494e-19)
(11.7658 -0.035993 0)
(10.7325 -0.0270056 -3.44711e-19)
(12.144 0.126155 5.44344e-19)
(12.1315 0.104946 -1.03462e-18)
(12.1217 0.084915 4.75513e-19)
(12.1134 0.0639787 0)
(12.1114 0.0442257 5.16296e-19)
(12.1142 0.0262502 0)
(12.1153 0.0106301 5.29536e-19)
(12.1114 -0.00279284 -5.15815e-19)
(12.104 -0.0143792 1.21055e-18)
(12.0962 -0.0241045 -4.88755e-21)
(12.0901 -0.0319026 -2.28215e-19)
(12.0875 -0.0380802 0)
(12.0871 -0.0413006 4.10344e-19)
(12.0789 -0.0431169 4.97632e-19)
(12.0405 -0.0431857 -3.84994e-19)
(11.8059 -0.0267348 -1.45169e-19)
(10.8125 -0.0287672 4.1002e-19)
(12.1163 0.152763 0)
(12.1056 0.124872 0)
(12.0973 0.104203 9.47641e-19)
(12.0918 0.0826955 -3.33725e-19)
(12.0929 0.0626754 3.26087e-19)
(12.0976 0.0449598 0)
(12.0998 0.0292948 -8.77733e-19)
(12.0975 0.0155457 5.52473e-19)
(12.0931 0.00353168 -1.09766e-18)
(12.0892 -0.00687147 2.69292e-19)
(12.088 -0.0156673 5.2297e-19)
(12.0899 -0.0231975 8.19012e-21)
(12.0929 -0.0278632 -1.32046e-19)
(12.0909 -0.0318316 1.23467e-19)
(12.0608 -0.0338509 0)
(11.8293 -0.0190106 5.29973e-20)
(10.8795 -0.0304524 -5.27858e-20)
(12.0876 0.169538 -4.25455e-19)
(12.0759 0.144126 -4.26676e-19)
(12.0696 0.12358 -3.68229e-19)
(12.0669 0.101552 7.68284e-19)
(12.0704 0.0814305 -3.5171e-19)
(12.0762 0.0637621 7.37875e-19)
(12.079 0.0476384 -1.672e-20)
(12.0782 0.033275 -3.31417e-19)
(12.0764 0.0205982 6.32727e-19)
(12.0759 0.00944209 -3.27598e-19)
(12.0781 -0.000294743 -8.92493e-19)
(12.084 -0.00917107 -1.25729e-19)
(12.0923 -0.0152514 2.47512e-19)
(12.0951 -0.0213694 2.11375e-20)
(12.0698 -0.0254911 -1.27716e-19)
(11.8367 -0.0125085 3.00106e-20)
(10.9312 -0.0316898 -2.98209e-20)
(12.0536 0.199409 -8.13803e-20)
(12.0436 0.166071 1.45646e-18)
(12.0386 0.143923 -4.81938e-19)
(12.0381 0.121174 -4.39368e-19)
(12.0431 0.100822 -4.8529e-19)
(12.0493 0.0827962 -4.08773e-19)
(12.0524 0.0660122 0)
(12.0528 0.0507689 -3.95554e-19)
(12.0533 0.0371061 -2.4612e-20)
(12.0557 0.0249488 3.46852e-19)
(12.0608 0.0142984 8.79465e-19)
(12.0693 0.00433315 -1.69147e-19)
(12.0809 -0.00300211 3.03912e-19)
(12.0898 -0.011751 -6.1614e-19)
(12.0661 -0.0184509 -3.10651e-19)
(11.8323 -0.00834631 0)
(10.9676 -0.0319587 0)
(12.0174 0.215313 -4.49118e-20)
(12.007 0.186517 5.6257e-19)
(12.0037 0.164776 5.04144e-20)
(12.0048 0.141826 -6.26149e-19)
(12.0103 0.120951 1.07249e-18)
(12.0162 0.102275 -4.86413e-19)
(12.0194 0.0847839 5.11737e-19)
(12.0207 0.0685141 0)
(12.0229 0.0535584 4.34291e-19)
(12.0273 0.0400324 -4.80038e-19)
(12.0346 0.0279811 -8.52104e-19)
(12.045 0.0163722 4.35633e-19)
(12.0568 0.00813561 4.15574e-19)
(12.0629 -0.0024846 3.39748e-19)
(12.0485 -0.0117174 3.22739e-19)
(11.8214 -0.00690696 -3.20304e-19)
(10.9908 -0.0334493 -3.74489e-19)
(11.9766 0.248772 -4.27959e-19)
(11.968 0.211452 7.23946e-19)
(11.9652 0.187751 -1.04115e-18)
(11.9669 0.164127 1.77417e-18)
(11.9718 0.142224 0)
(11.9767 0.122468 4.17152e-20)
(11.9794 0.104163 -6.31482e-19)
(11.9812 0.0868888 -3.26061e-19)
(11.9843 0.0706206 -2.81991e-19)
(11.9899 0.0555476 5.09177e-19)
(11.9984 0.0416556 7.11355e-19)
(12.0096 0.0279123 -9.7234e-19)
(12.0223 0.018226 -3.17042e-19)
(12.0291 0.00422423 -3.56304e-19)
(11.9957 -0.00430164 0)
(11.8037 -0.00646645 3.71352e-19)
(11.0003 -0.0350298 3.44056e-19)
(11.9337 0.263191 -3.32783e-20)
(11.925 0.233748 4.71858e-19)
(11.9228 0.211198 -4.28637e-19)
(11.9243 0.187898 -4.11171e-19)
(11.9278 0.165104 0)
(11.9308 0.14386 -4.39319e-19)
(11.9324 0.12431 4.21549e-19)
(11.9339 0.105948 3.41765e-19)
(11.9372 0.0885266 -3.49528e-19)
(11.943 0.0719829 -3.03994e-20)
(11.9516 0.0563168 2.94253e-19)
(11.9626 0.04067 4.30136e-19)
(11.9744 0.0290418 -4.6846e-19)
(11.9805 0.00992267 5.57206e-19)
(11.9507 0.00489931 2.93136e-19)
(11.7684 -0.00651837 2.7943e-19)
(10.9936 -0.0315611 -2.63306e-19)
(11.8862 0.299948 0)
(11.8791 0.261702 5.85025e-19)
(11.8762 0.236932 4.40322e-20)
(11.8766 0.213295 -4.06752e-20)
(11.8784 0.190174 4.17587e-20)