/*--------------------------------*- C++ -*----------------------------------*\
  =========                 |
  \\      /  F ield         | OpenFOAM: The Open Source CFD Toolbox
   \\    /   O peration     | Website:  https://openfoam.org
    \\  /    A nd           | Version:  6
     \\/     M anipulation  |
\*---------------------------------------------------------------------------*/
FoamFile
{
    version     2.0;
    format      ascii;
    class       volVectorField;
    location    "4.2";
    object      U;
}
// * * * * * * * * * * * * * * * * * * * * * * * * * * * * * * * * * * * * * //

dimensions      [0 1 -1 0 0 0 0];

internalField   nonuniform List<vector> 
4214
(
(4.99903 -0.0365182 6.14748e-20)
(5.42244 0.0441462 1.86145e-19)
(5.50785 0.119436 -8.15361e-20)
(5.49806 0.182189 0)
(5.47659 0.244118 4.08083e-21)
(5.45304 0.301501 -4.0536e-21)
(5.42554 0.354361 0)
(5.3891 0.404824 -9.30581e-22)
(5.33976 0.453284 9.37582e-22)
(5.27422 0.498799 -3.88178e-22)
(5.18857 0.539715 -9.32682e-22)
(5.07815 0.573355 4.87991e-21)
(4.93876 0.595786 -2.85464e-21)
(4.76885 0.601271 0)
(4.56992 0.581499 -7.77614e-21)
(4.33627 0.5281 0)
(4.02059 0.459392 -9.36168e-21)
(3.55052 0.454688 2.71927e-20)
(3.00142 0.513584 8.98462e-21)
(2.56333 0.427212 -9.48593e-21)
(2.25864 0.0811212 0)
(2.05264 -0.305647 0)
(2.02024 -0.567158 2.75943e-20)
(2.23846 -0.707581 0)
(2.77793 -0.784957 5.07367e-20)
(3.6221 -0.843087 0)
(4.65427 -0.893457 -9.48147e-21)
(5.68464 -0.914342 1.18581e-19)
(6.51 -0.863529 -1.78928e-20)
(6.95501 -0.730792 -5.36938e-20)
(7.08833 -0.55264 1.8865e-20)
(6.97413 -0.376238 -7.46293e-22)
(6.75304 -0.245745 0)
(6.56733 -0.168432 0)
(6.43338 -0.119203 -2.70525e-21)
(6.33564 -0.0883511 -8.07416e-21)
(6.2656 -0.0687364 9.86922e-21)
(6.21967 -0.0558571 0)
(6.17934 -0.0550747 0)
(6.06591 -0.0607438 7.92496e-21)
(5.67584 -0.0493561 -3.74144e-20)
(5.60369 0.0138505 0)
(5.66215 0.138767 1.30374e-20)
(5.63821 0.199736 -1.29349e-20)
(5.6034 0.238553 1.99376e-21)
(5.57264 0.288969 -1.9643e-21)
(5.54711 0.347256 0)
(5.51864 0.408745 0)
(5.48141 0.473143 0)
(5.43124 0.540304 0)
(5.36393 0.60917 2.07331e-21)
(5.27446 0.67797 -8.79441e-21)
(5.15678 0.744458 5.35609e-21)
(5.00415 0.806042 0)
(4.81175 0.859006 1.70983e-20)
(4.58096 0.89624 1.116e-20)
(4.32062 0.906827 0)
(4.03258 0.88248 0)
(3.65696 0.866918 -4.33732e-20)
(3.10234 0.987351 4.23729e-20)
(2.46443 1.21212 4.72889e-20)
(1.98891 1.28188 2.18514e-21)
(1.78783 1.07171 2.10396e-21)
(1.85316 0.774186 -3.72071e-20)
(2.18246 0.506021 0)
(2.80538 0.261743 -4.92774e-20)
(3.69643 0.0255745 -1.84746e-19)
(4.76201 -0.203142 7.92217e-20)
(5.82448 -0.395614 -1.3762e-19)
(6.67023 -0.496935 0)
(7.10085 -0.462293 5.15675e-22)
(7.21448 -0.339071 1.86843e-21)
(7.0689 -0.211162 -3.0993e-22)
(6.81557 -0.114915 -6.16385e-21)
(6.61355 -0.0607756 1.30092e-21)
(6.4725 -0.0296917 1.53639e-20)
(6.36881 -0.0140786 -4.35047e-20)
(6.29046 -0.00923173 0)
(6.23523 -0.0150106 0)
(6.20967 -0.0388829 0)
(6.19803 -0.0694399 4.88616e-20)
(6.12481 -0.0154956 -2.39136e-19)
(5.69889 0.0910708 -1.18681e-20)
(5.6921 0.15889 2.09397e-22)
(5.66989 0.2096 2.18091e-21)
(5.64434 0.256146 -1.54064e-21)
(5.62544 0.311233 -5.11861e-22)
(5.60825 0.373935 -1.30437e-22)
(5.58589 0.441502 0)
(5.55394 0.51395 -8.42433e-22)
(5.50859 0.591858 8.42663e-22)
(5.44524 0.674818 -4.54767e-21)
(5.35846 0.761118 5.94053e-21)
(5.24228 0.847927 0)
(5.09023 0.932115 1.26411e-20)
(4.89629 1.01078 -3.12736e-20)
(4.65818 1.07996 2.34625e-20)
(4.37954 1.13225 -2.65071e-20)
(4.06678 1.15915 0)
(3.71249 1.16577 0)
(3.26092 1.22538 -7.64551e-20)
(2.67822 1.44801 1.48341e-20)
(2.09884 1.72481 0)
(1.76011 1.76998 -6.72303e-21)
(1.78439 1.59041 -1.17795e-19)
(2.10332 1.30294 0)
(2.74446 0.976504 5.59598e-19)
(3.65022 0.633723 -2.16964e-19)
(4.72757 0.29154 -1.89828e-19)
(5.8064 -0.0139596 3.24818e-19)
(6.67596 -0.221962 -1.4122e-19)
(7.13118 -0.267394 0)
(7.24492 -0.19369 -8.68035e-23)
(7.08124 -0.105282 1.50509e-20)
(6.81822 -0.0371341 -1.89702e-20)
(6.61335 0.00150679 -1.55114e-20)
(6.47127 0.0207681 -1.13717e-19)
(6.36688 0.0277471 5.75459e-20)
(6.28721 0.0266276 7.12744e-20)
(6.22674 0.0199267 9.70343e-20)
(6.18068 0.00438143 1.6269e-19)
(6.14053 -0.0230561 -2.04061e-19)
(6.10383 -0.0433356 -2.18601e-19)
(5.78104 0.130956 1.63832e-20)
(5.75454 0.18191 0)
(5.73408 0.231947 0)
(5.71877 0.281976 1.46235e-21)
(5.70653 0.338403 -1.50043e-21)
(5.69376 0.402746 3.4191e-22)
(5.67627 0.474472 -4.67915e-22)
(5.65016 0.554162 -3.78066e-23)
(5.61117 0.642891 1.05602e-22)
(5.55377 0.741023 -7.53427e-22)
(5.47118 0.847521 -1.97341e-21)
(5.35647 0.959516 1.38295e-21)
(5.20338 1.07291 0)
(5.00626 1.18404 0)
(4.76123 1.29003 -9.37563e-21)
(4.47041 1.38574 -4.08396e-21)
(4.14302 1.46164 1.4196e-20)
(3.78602 1.5119 6.66475e-20)
(3.37949 1.55937 5.95638e-20)
(2.87362 1.7072 -1.51452e-19)
(2.29025 2.02842 0)
(1.80053 2.31308 1.53221e-20)
(1.75159 2.33196 1.15226e-19)
(1.99571 2.0981 0)
(2.6359 1.73579 -7.39509e-19)
(3.55367 1.30296 2.22617e-19)
(4.65074 0.854076 -1.93313e-20)
(5.75532 0.437019 -1.89055e-19)
(6.66124 0.118966 0)
(7.15085 -0.0204338 -1.44362e-20)
(7.26489 -0.013624 -9.918e-22)
(7.09897 0.026844 3.64822e-20)
(6.82573 0.060869 1.86595e-20)
(6.61639 0.079614 1.06855e-19)
(6.47196 0.0835709 1.08342e-19)
(6.36603 0.0793163 -1.28752e-20)
(6.28462 0.0690144 -5.3151e-20)
(6.22201 0.0552996 -3.64179e-19)
(6.17407 0.0378646 3.46012e-20)
(6.13722 0.012022 -2.02402e-19)
(6.106 -0.00709194 1.32426e-20)
(5.83847 0.159518 1.07011e-20)
(5.81345 0.201023 -1.70467e-20)
(5.80065 0.248122 2.77589e-21)
(5.79365 0.298789 4.93678e-21)
(5.78858 0.355772 -1.09809e-21)
(5.78268 0.421221 0)
(5.77275 0.496059 6.17917e-22)
(5.75521 0.581574 6.4942e-22)
(5.72578 0.679549 -9.49085e-22)
(5.67835 0.791373 -9.65033e-21)
(5.60474 0.917113 6.59578e-21)
(5.49635 1.05475 -6.03242e-21)
(5.34634 1.20018 -2.83892e-20)
(5.14989 1.34872 2.7743e-20)
(4.90305 1.49657 2.39731e-20)
(4.60476 1.63873 0)
(4.26131 1.76469 6.30568e-22)
(3.88542 1.86199 -6.17545e-20)
(3.48653 1.92619 0)
(3.0455 2.00647 8.83551e-20)
(2.52951 2.23478 0)
(1.99614 2.61499 0)
(1.7785 2.84784 0)
(1.93282 2.76646 -4.49757e-19)
(2.50538 2.43389 3.68755e-19)
(3.40702 1.94702 0)
(4.51174 1.40916 -4.24466e-19)
(5.63784 0.896976 6.97317e-19)
(6.58441 0.480637 -1.59558e-19)
(7.12961 0.248604 1.42062e-20)
(7.26726 0.177137 -2.70951e-22)
(7.08822 0.162118 -2.95404e-20)
(6.81335 0.160963 0)
(6.60306 0.157805 -1.15183e-19)
(6.45807 0.145472 0)
(6.35238 0.129991 3.07544e-19)
(6.27049 0.112035 0)
(6.20519 0.0937099 1.08927e-19)
(6.15271 0.0742238 2.85609e-19)
(6.11393 0.0462635 1.48682e-19)
(6.08352 0.0219734 -3.15554e-19)
(5.89639 0.176446 1.49182e-20)
(5.88052 0.213157 1.13626e-20)
(5.87585 0.257562 -1.65229e-22)
(5.87582 0.307184 -4.32454e-22)
(5.87724 0.363308 -5.64497e-22)
(5.87836 0.428588 1.77693e-21)
(5.87681 0.505001 -9.64755e-22)
(5.86935 0.594596 -1.06882e-20)
(5.85165 0.700014 -1.76276e-20)
(5.81721 0.823874 1.28749e-20)
(5.75672 0.967689 0)
(5.65977 1.13111 0)
(5.5183 1.31164 1.72195e-20)
(5.32738 1.50502 -4.46752e-21)
(5.08256 1.7056 -2.47683e-20)
(4.77992 1.90454 -9.65577e-20)
(4.4214 2.08652 -9.35478e-20)
(4.01946 2.23172 -7.66597e-20)
(3.59767 2.32346 2.3864e-21)
(3.17309 2.37248 5.63602e-20)
(2.72382 2.47535 0)
(2.24144 2.77193 0)
(1.90911 3.12372 0)
(1.93766 3.23932 4.4167e-19)
(2.36688 3.01568 8.58629e-20)
(3.21835 2.5332 -8.9061e-20)
(4.31787 1.93374 4.15326e-19)
(5.4643 1.34584 -3.50385e-19)
(6.45574 0.84813 -3.85687e-20)
(7.06339 0.532967 6.65419e-20)
(7.22372 0.380353 -1.24113e-20)
(7.05826 0.306016 1.45854e-20)
(6.7895 0.267193 -1.50554e-20)
(6.58004 0.238777 3.1969e-22)
(6.43583 0.208798 -3.25168e-22)
(6.33175 0.181099 -2.73154e-19)
(6.25075 0.154959 4.57573e-20)
(6.18496 0.131447 -8.85105e-20)
(6.13147 0.108605 0)
(6.09128 0.0795636 -5.67694e-19)
(6.05584 0.0544164 5.11775e-19)
(5.95705 0.183809 0)
(5.95036 0.216579 1.65165e-22)
(5.95256 0.257234 0)
(5.95857 0.304269 1.52676e-22)
(5.96637 0.358296 0)
(5.9752 0.422117 7.31343e-21)
(5.9834 0.498563 0)
(5.98804 0.590531 2.80887e-20)
(5.98472 0.701523 -3.13596e-20)
(5.96652 0.835294 6.8094e-21)
(5.92337 0.995128 -1.51879e-20)
(5.84418 1.18344 8.41671e-21)
(5.7198 1.40137 1.18063e-20)
(5.54382 1.64728 -1.19586e-20)
(5.30846 1.91366 1.75186e-19)
(5.00458 2.18425 8.58918e-20)
(4.62847 2.43339 6.03626e-20)
(4.19138 2.62927 -3.24607e-19)
(3.72581 2.7466 -3.90957e-19)
(3.27723 2.78355 -5.44334e-20)
(2.85572 2.79166 -2.63487e-21)
(2.44223 2.91816 9.71426e-22)
(2.08879 3.22662 0)
(1.99365 3.48106 0)
(2.26961 3.42305 -3.36725e-20)
(3.00711 3.01613 -3.0453e-21)
(4.07102 2.39872 7.44676e-20)
(5.23307 1.76044 1.81081e-19)
(6.27146 1.20238 6.73071e-20)
(6.94244 0.815868 -1.74579e-20)
(7.14378 0.589525 -1.14522e-20)
(7.00232 0.458658 -6.17748e-20)
(6.7487 0.378128 1.86947e-19)
(6.54348 0.320805 0)
(6.40256 0.272356 0)
(6.30175 0.232018 -4.42702e-19)
(6.22263 0.197771 0)
(6.15738 0.168644 4.6159e-19)
(6.10448 0.141078 2.22115e-19)
(6.06337 0.110414 4.17836e-19)
(6.02433 0.0853883 -2.18044e-19)
(6.01887 0.180847 0)
(6.01996 0.209945 8.2187e-21)
(6.02764 0.246035 -5.7495e-21)
(6.03896 0.289382 -3.73758e-21)
(6.05317 0.340276 1.46247e-21)
(6.07022 0.401385 -6.56797e-22)
(6.0891 0.476194 0)
(6.10737 0.568437 -1.1229e-20)
(6.1208 0.682569 -1.94545e-20)
(6.12225 0.823616 -3.98958e-21)
(6.10148 0.996957 1.10607e-19)
(6.04803 1.2093 -1.40265e-19)
(5.95217 1.46753 3.51787e-19)
(5.8039 1.7732 0)
(5.58747 2.11601 -1.61518e-19)
(5.28484 2.47017 6.36845e-19)
(4.88487 2.79693 -7.96855e-21)
(4.3998 3.04851 4.11741e-19)
(3.87074 3.18813 1.14112e-18)
(3.36695 3.21303 -8.71104e-22)
(2.9292 3.15698 9.02275e-22)
(2.56379 3.12333 0)
(2.2551 3.2672 7.7856e-21)
(2.08327 3.54145 -2.58306e-19)
(2.22583 3.60331 -1.00499e-20)
(2.80066 3.34837 0)
(3.78438 2.77414 0)
(4.94959 2.11712 -2.13349e-19)
(6.03679 1.52499 -1.19273e-19)
(6.77448 1.08702 -8.02679e-21)
(7.03212 0.798716 1.09868e-21)
(6.92119 0.613906 1.48004e-19)
(6.68912 0.490869 7.28315e-20)
(6.49344 0.403087 2.10199e-19)
(6.35914 0.335603 -5.47661e-19)
(6.26338 0.282396 5.00597e-19)
(6.18749 0.239861 0)
(6.12448 0.204499 -4.70819e-19)
(6.07338 0.171824 0)
(6.03135 0.139052 2.59363e-19)
(5.99005 0.113885 -2.5787e-19)
(6.07779 0.167679 3.5503e-20)
(6.08476 0.193007 -1.36648e-20)
(6.09672 0.22403 -1.36351e-21)
(6.11288 0.262769 4.13917e-21)
(6.1337 0.309524 -1.92329e-20)
(6.15955 0.366678 -6.47582e-21)
(6.18994 0.43811 1.52869e-20)
(6.22303 0.528256 4.33844e-20)
(6.25499 0.642436 5.98122e-20)
(6.27931 0.787154 2.16159e-20)
(6.28739 0.971177 -2.79036e-19)
(6.27125 1.20743 1.60861e-19)
(6.21888 1.50911 -3.56391e-19)
(6.11197 1.87864 0)
(5.9216 2.30009 0)
(5.61884 2.73826 -1.61419e-18)
(5.18447 3.14186 0)
(4.63491 3.45107 -1.24138e-18)
(4.02339 3.61273 -7.51875e-19)
(3.43969 3.62063 -1.07095e-18)
(2.95101 3.51439 0)
(2.59919 3.36493 6.95943e-19)
(2.35422 3.32485 0)
(2.1822 3.4813 4.79343e-19)
(2.23331 3.62182 0)
(2.61985 3.49749 1.35737e-19)
(3.48195 3.03158 4.58189e-21)
(4.62432 2.39162 -4.71275e-21)
(5.7561 1.79758 1.34448e-20)
(6.56284 1.33493 7.8489e-21)
(6.8819 1.00038 1.25551e-20)
(6.81521 0.76594 2.12727e-20)
(6.60874 0.601896 -2.13087e-19)
(6.42884 0.484644 -2.31333e-19)
(6.30496 0.397995 4.80012e-19)
(6.2162 0.332044 0)
(6.14505 0.280823 -1.34769e-19)
(6.08579 0.238608 4.40301e-19)
(6.03697 0.20068 2.82489e-19)
(5.99475 0.16557 5.95774e-19)
(5.95254 0.139024 -6.08356e-19)
(6.12971 0.144857 0)
(6.14096 0.166187 1.16311e-20)
(6.15645 0.191968 -1.38154e-20)
(6.17723 0.225375 2.60159e-21)
(6.20471 0.266924 0)
(6.23974 0.318866 0)
(6.28217 0.385133 0)
(6.33083 0.470579 -9.04835e-20)
(6.38254 0.58121 -3.93911e-20)
(6.43302 0.725369 -1.74052e-19)
(6.47816 0.916876 -1.36682e-19)
(6.51411 1.17666 -4.88123e-20)
(6.52055 1.52243 -4.17973e-20)
(6.46377 1.9507 4.20846e-20)
(6.29777 2.43712 0)
(5.98574 2.94071 -4.78766e-19)
(5.50362 3.40291 4.0614e-20)
(4.87055 3.76369 -6.26259e-19)
(4.1576 3.94492 -1.80777e-18)
(3.48077 3.93014 -5.43916e-19)
(2.92496 3.79143 8.32327e-21)
(2.55619 3.57387 -6.99371e-19)
(2.35997 3.39561 0)
(2.24297 3.39387 -2.20479e-19)
(2.24753 3.50803 0)
(2.48995 3.47611 -1.57555e-19)
(3.20013 3.14457 0)
(4.27957 2.56263 0)
(5.43908 2.00234 -9.57171e-20)
(6.31126 1.54604 0)
(6.69515 1.18555 -1.20213e-20)
(6.67937 0.910166 -1.07449e-19)
(6.50797 0.708669 0)
(6.34929 0.564058 -2.90765e-19)
(6.23967 0.459044 0)
(6.15999 0.380664 -2.82808e-19)
(6.09521 0.320393 2.92054e-19)
(6.04077 0.271078 -1.48097e-18)
(5.99467 0.227802 3.0385e-19)
(5.95334 0.189994 -5.93112e-19)
(5.9117 0.161374 6.12068e-19)
(6.17109 0.113559 0)
(6.18568 0.130646 1.73175e-20)
(6.20444 0.151111 -9.4945e-21)
(6.22992 0.178772 -2.83823e-22)
(6.26401 0.214125 -6.23387e-21)
(6.30798 0.259381 3.97517e-20)
(6.36211 0.318378 1.00664e-20)
(6.42616 0.396289 7.11159e-20)
(6.4983 0.499424 0)
(6.5795 0.638822 1.39804e-19)
(6.67203 0.834512 5.02138e-19)
(6.77421 1.1145 4.94876e-19)
(6.84591 1.49607 -8.62807e-19)
(6.83476 1.96158 1.17621e-18)
(6.68086 2.48013 1.5611e-18)
(6.34332 3.01079 3.4115e-18)
(5.79948 3.49827 0)
(5.07149 3.89058 4.40108e-18)
(4.24689 4.07604 1.9594e-18)
(3.47613 4.0427 -6.71921e-19)
(2.85327 3.91546 2.35899e-20)
(2.4507 3.67645 -1.26092e-18)
(2.28238 3.42464 7.96012e-19)
(2.23634 3.29184 -1.71393e-20)
(2.23442 3.31389 -3.22638e-21)
(2.39803 3.32656 2.63473e-20)
(2.94814 3.09397 0)
(3.94199 2.61994 1.98124e-19)
(5.10189 2.12763 1.31701e-19)
(6.02725 1.70734 0)
(6.47479 1.34358 6.72583e-21)
(6.51486 1.03945 0)
(6.38481 0.806904 0)
(6.25312 0.63874 2.81259e-19)
(6.16132 0.517546 -2.96426e-19)
(6.09367 0.427497 7.0182e-21)
(6.0373 0.357901 3.09126e-19)
(5.98873 0.301298 9.04932e-19)
(5.94633 0.252963 -6.31228e-19)
(5.90712 0.212097 3.22449e-19)
(5.86757 0.180921 1.33854e-18)
(6.19959 0.0753401 0)
(6.21702 0.0879651 2.67564e-20)
(6.2392 0.103032 -5.31564e-20)
(6.26968 0.124622 -6.92667e-23)
(6.31039 0.153099 6.68118e-23)
(6.36267 0.190452 0)
(6.42717 0.239835 -4.98686e-20)
(6.50527 0.30711 9.85562e-20)
(6.59822 0.398306 -3.34331e-19)
(6.71652 0.529144 0)
(6.86695 0.724577 0)
(7.04257 1.01528 3.11787e-19)
(7.16898 1.40989 6.71336e-19)
(7.18212 1.87102 1.21173e-19)
(7.01638 2.37667 -1.3884e-18)
(6.63707 2.88604 -1.99516e-18)
(6.01878 3.35793 1.7771e-19)
(5.20816 3.74053 -2.81468e-18)
(4.28563 4.0256 0)
(3.41553 3.99554 2.28159e-18)
(2.72691 3.85821 -3.15806e-20)
(2.29409 3.62075 2.83885e-18)
(2.14084 3.34804 -7.68392e-19)
(2.16624 3.1404 -1.91382e-19)
(2.19341 3.08122 6.07698e-20)
(2.29057 3.08414 0)
(2.72569 2.92992 0)
(3.62992 2.56939 -1.96075e-19)
(4.76456 2.17063 -3.04351e-19)
(5.72116 1.80915 0)
(6.22482 1.46298 3.23091e-19)
(6.32233 1.14534 -1.41533e-19)
(6.23711 0.891124 -2.4383e-20)
(6.13816 0.704992 -3.27118e-19)
(6.06888 0.570289 -3.54014e-19)
(6.01654 0.470175 -3.22909e-19)
(5.97061 0.392282 0)
(5.92918 0.328848 6.30744e-19)
(5.89152 0.275597 -1.19305e-20)
(5.85578 0.231596 1.12266e-20)
(5.82005 0.197467 -1.31692e-18)
(6.21424 0.0320151 -1.32582e-19)
(6.23442 0.0400247 1.61611e-20)
(6.26046 0.0497069 1.04638e-19)
(6.29607 0.0648303 -2.60495e-20)
(6.34311 0.0857158 -8.55794e-21)
(6.40267 0.114017 8.30218e-21)
(6.47618 0.151788 -4.05631e-20)
(6.56679 0.20542 1.00498e-19)
(6.68198 0.280125 2.35061e-19)
(6.84443 0.398549 3.69656e-20)
(7.05671 0.58528 -6.25341e-19)
(7.30071 0.866893 -5.80266e-19)
(7.45329 1.23626 -3.63779e-19)
(7.46016 1.64499 -1.67009e-18)
(7.25262 2.09811 4.9909e-19)
(6.81696 2.53963 0)
(6.11345 2.95312 -4.52232e-19)
(5.23286 3.29036 4.63107e-18)
(4.24842 3.53126 0)
(3.3003 3.62677 0)
(2.55074 3.56845 -3.39452e-20)
(2.09294 3.37654 -1.56173e-18)
(1.95591 3.12131 1.03807e-18)
(2.04314 2.89794 5.82925e-19)
(2.11381 2.78945 -5.06474e-20)
(2.17397 2.76189 2.41785e-19)
(2.52632 2.66263 -4.55605e-19)
(3.35257 2.41904 6.72548e-19)
(4.44539 2.13291 -2.97059e-20)
(5.40828 1.84649 -3.45098e-19)
(5.95102 1.53477 -6.39779e-20)
(6.10125 1.2207 5.39455e-19)
(6.06508 0.956156 3.17485e-19)
(6.00503 0.757825 -3.51554e-19)
(5.96228 0.613747 1.29803e-18)
(5.92805 0.506012 -6.73343e-19)
(5.89471 0.4215 0)
(5.86208 0.352758 6.63771e-19)
(5.83077 0.295393 -6.34274e-19)
(5.80034 0.247706 2.38667e-20)
(5.77031 0.209585 6.29884e-19)
(6.21551 -0.0151327 3.20445e-20)
(6.23892 -0.0116149 7.02593e-20)
(6.26931 -0.00713928 1.42161e-19)
(6.30986 0.00112206 -5.46139e-20)
(6.36265 0.0138896 0)
(6.42771 0.0314642 0)
(6.5096 0.0560725 -1.75861e-20)
(6.61146 0.0931247 0)
(6.75284 0.148177 -2.50956e-19)
(6.96264 0.249329 3.91671e-19)
(7.22494 0.412115 -2.17873e-19)
(7.51328 0.653549 8.24923e-19)
(7.63491 0.957784 7.09359e-19)
(7.60205 1.28777 -2.45231e-18)
(7.3571 1.66194 3.64322e-18)
(6.8531 1.99456 -7.75768e-19)
(6.06035 2.31888 5.42354e-19)
(5.11474 2.57714 -4.5254e-18)
(4.10441 2.77324 -2.9243e-19)
(3.12916 2.90628 4.36123e-18)
(2.3489 2.97134 0)
(1.87293 2.90312 -2.33145e-18)
(1.7544 2.7211 -1.04529e-18)
(1.88886 2.52786 -4.0879e-19)
(2.00815 2.41433 1.4684e-19)
(2.05256 2.36845 -3.41653e-19)
(2.35378 2.3102 1.2063e-18)
(3.1197 2.18418 -7.48145e-19)
(4.16024 2.02006 1.87273e-19)
(5.10405 1.81861 -8.05054e-19)
(5.6625 1.55367 3.45157e-19)
(5.85689 1.25563 0)
(5.87273 0.991951 0)
(5.85417 0.790491 -7.05805e-19)
(5.84041 0.642963 7.20022e-19)
(5.82675 0.530936 -7.00216e-19)
(5.80822 0.441955 0)
(5.78653 0.369389 -5.9794e-19)
(5.76375 0.309245 1.26756e-18)
(5.74084 0.258796 -6.33455e-19)
(5.71841 0.216547 -6.2493e-19)
(6.20489 -0.0643593 2.8514e-19)
(6.23249 -0.0656423 -3.34234e-19)
(6.26729 -0.0661721 -5.8802e-20)
(6.31162 -0.0650535 0)
(6.3689 -0.0605194 3.69604e-20)
(6.43557 -0.0553062 -1.63558e-20)
(6.52619 -0.0436198 1.53592e-20)
(6.63712 -0.0261719 4.42227e-20)
(6.81187 0.00910769 -3.3756e-19)
(7.06265 0.0841479 -2.44241e-19)
(7.34607 0.204147 6.28114e-19)
(7.62888 0.378122 -9.48148e-19)
(7.68078 0.596737 -4.55588e-19)
(7.63416 0.836936 2.53714e-18)
(7.30508 1.10313 2.41832e-19)
(6.73895 1.30129 3.97857e-18)
(5.86172 1.5176 0)
(4.8766 1.67948 0)
(3.87618 1.83376 0)
(2.91015 1.96938 3.4552e-19)
(2.15387 2.11263 6.67984e-20)
(1.69622 2.18773 2.37354e-18)
(1.59418 2.12706 -1.23821e-18)
(1.74209 2.01068 -1.05557e-19)
(1.87831 1.93675 -2.26144e-19)
(1.9293 1.90105 -2.06613e-19)
(2.21296 1.8913 3.68361e-19)
(2.93993 1.88741 8.39743e-19)
(3.92099 1.84419 4.60055e-19)
(4.81812 1.72832 -4.55467e-19)
(5.36898 1.51513 1.03633e-19)
(5.60312 1.24318 -8.14581e-19)
(5.66768 0.992901 8.25972e-19)
(5.6912 0.798896 -7.36582e-19)
(5.70759 0.653574 7.47111e-19)
(5.71562 0.54093 -4.11023e-20)
(5.7129 0.449941 0)
(5.7035 0.375131 -1.27862e-18)
(5.69106 0.312863 1.2179e-18)
(5.67763 0.260137 -3.02547e-18)
(5.66367 0.215068 1.77233e-18)
(6.18715 -0.115456 -1.07333e-19)
(6.21714 -0.120335 2.10565e-19)
(6.25605 -0.124659 -1.69639e-19)
(6.30082 -0.129606 3.89777e-19)
(6.36122 -0.133009 -1.33758e-19)
(6.42196 -0.139736 -2.0044e-20)
(6.52472 -0.141478 0)
(6.63621 -0.145879 -5.05587e-20)
(6.85524 -0.131343 2.33024e-19)
(7.12221 -0.0968124 0)
(7.39862 -0.0309026 9.93758e-19)
(7.66816 0.0627747 -4.11496e-19)
(7.63775 0.18764 0)
(7.57938 0.319676 0)
(7.07481 0.447261 -3.28625e-18)
(6.4926 0.516105 -2.93403e-18)
(5.52334 0.616613 -1.85158e-18)
(4.55975 0.685378 6.82662e-19)
(3.60284 0.792696 0)
(2.66714 0.912993 1.99055e-19)
(1.99442 1.08119 -2.03997e-20)
(1.55813 1.28382 2.46956e-18)
(1.46172 1.36881 2.7312e-18)
(1.61993 1.36538 1.02125e-19)
(1.73303 1.3522 -2.3367e-19)
(1.82475 1.36083 5.54918e-19)
(2.14142 1.43128 -7.34166e-19)
(2.83041 1.54855 0)
(3.7234 1.61694 -9.64348e-19)
(4.54874 1.57863 1.94315e-18)
(5.07792 1.41197 -9.6355e-19)
(5.33983 1.17482 0)
(5.44782 0.952706 8.08207e-19)
(5.51277 0.775358 -5.36751e-20)
(5.55845 0.63914 -1.5235e-18)
(5.59039 0.530935 6.81575e-19)
(5.60625 0.441779 0)
(5.6129 0.367029 6.19531e-19)
(5.61361 0.3043 6.14509e-19)
(5.61088 0.25015 -5.65355e-19)
(5.60587 0.204142 1.7024e-18)
(6.16566 -0.162881 -4.72783e-19)
(6.19266 -0.169756 -4.00366e-19)
(6.24241 -0.180074 -2.32947e-19)
(6.27739 -0.188183 1.35987e-19)
(6.34633 -0.203274 -1.73651e-19)
(6.38928 -0.215735 -1.28588e-19)
(6.5203 -0.240142 1.43976e-19)
(6.6095 -0.260115 0)
(6.89374 -0.28378 -6.75409e-20)
(7.11207 -0.295667 0)
(7.38478 -0.29167 -5.97524e-19)
(7.59076 -0.275678 6.75189e-19)
(7.44726 -0.257635 -6.76103e-19)
(7.37602 -0.23555 -2.12044e-18)
(6.6585 -0.264415 0)
(6.15099 -0.297882 1.20599e-18)
(5.04665 -0.330643 -1.22895e-18)
(4.19606 -0.35258 5.73485e-18)
(3.25324 -0.277226 0)
(2.38497 -0.166535 -5.13244e-18)
(1.81576 0.037682 -1.46926e-19)
(1.29798 0.332748 -2.71348e-18)
(1.15025 0.524868 -1.36904e-18)
(1.29902 0.64399 2.0018e-19)
(1.39253 0.684304 2.42451e-19)
(1.64525 0.763051 -5.59172e-19)
(1.98952 0.964695 0)
(2.74309 1.21214 5.17152e-19)
(3.56055 1.37811 -1.27361e-18)
(4.3492 1.38276 6.49287e-20)
(4.85383 1.24111 0)
(5.12771 1.03717 1.35239e-18)
(5.27067 0.859776 -1.33242e-18)
(5.35336 0.708767 0)
(5.43545 0.590744 1.40367e-18)
(5.47435 0.488125 -1.44618e-18)
(5.51539 0.404563 0)
(5.52351 0.329878 0)
(5.54182 0.270423 -1.73055e-18)
(5.53986 0.214498 1.14486e-18)
(5.54878 0.169588 -2.06775e-18)
(5.54419 0.126085 2.12462e-18)
(5.59812 0.163271 0)
(5.64801 0.176962 1.18772e-18)
(5.69572 0.182084 6.41783e-19)
(5.74071 0.179892 -7.04959e-19)
(5.78407 0.172482 7.35343e-19)
(5.82648 0.161922 -7.59396e-19)
(5.86782 0.148966 -1.50597e-18)
(5.90745 0.133639 3.37693e-18)
(5.94471 0.114549 -1.43699e-18)
(5.97933 0.0917162 -1.52104e-18)
(6.01201 0.0664513 1.11072e-18)
(6.04152 0.0398827 -4.16135e-19)
(6.06176 0.0167849 -3.25252e-19)
(6.06143 -0.00346816 4.72854e-19)
(5.9154 0.0654391 3.66892e-19)
(5.02204 -0.0643803 0)
(5.54626 0.0904125 0)
(5.5848 0.124057 0)
(5.62447 0.139236 -2.51829e-18)
(5.66367 0.147628 0)
(5.70142 0.149126 7.24067e-19)
(5.73833 0.145984 -1.57062e-18)
(5.77535 0.140018 0)
(5.81293 0.131784 4.03145e-19)
(5.85078 0.12169 -2.50252e-18)
(5.88812 0.108742 8.19394e-19)
(5.92358 0.0917345 -3.63219e-19)
(5.95657 0.0699622 3.78526e-19)
(5.98572 0.044691 1.14319e-18)
(6.0053 0.0174324 4.04437e-19)
(6.00086 -0.0163943 -4.14792e-19)
(5.90133 -0.0145355 1.41061e-19)
(4.98935 -0.0987209 -1.27471e-19)
(5.5444 0.0543816 0)
(5.5762 0.0886819 5.84875e-19)
(5.60768 0.105431 3.93754e-18)
(5.63958 0.115695 -7.12314e-19)
(5.67126 0.119642 -7.59655e-19)
(5.70265 0.119218 8.2424e-19)
(5.73471 0.115551 0)
(5.76792 0.110086 9.01833e-19)
(5.80235 0.103126 -4.4994e-19)
(5.83722 0.094254 1.37264e-18)
(5.871 0.0815854 1.28245e-18)
(5.90175 0.0647342 -1.19589e-18)
(5.92728 0.0449445 6.95592e-19)
(5.94125 0.0240819 -1.24129e-18)
(5.92768 -0.00117201 1.10648e-18)
(5.84062 -0.0039657 0)
(4.91174 -0.0791754 0)
(5.55113 0.0283147 0)
(5.57028 0.0576105 -1.28573e-18)
(5.59355 0.0747398 -7.16118e-19)
(5.61832 0.0864977 0)
(5.64415 0.0928852 0)
(5.67074 0.0949827 1.69746e-18)
(5.69832 0.0938986 -9.14446e-19)
(5.72725 0.0905569 4.72386e-19)
(5.75745 0.0857316 -5.09789e-19)
(5.78836 0.0795977 -2.48139e-18)
(5.81854 0.0707628 5.0537e-19)
(5.84567 0.0581626 0)
(5.86703 0.0421849 -8.45379e-19)
(5.87746 0.0228887 2.56757e-20)
(5.86394 -4.24949e-05 -2.90307e-19)
(5.77797 -0.00618058 3.05474e-19)
(4.83694 -0.0623276 0)
(5.55687 -0.000766285 -8.70603e-19)
(5.56898 0.0289701 1.59248e-18)
(5.58435 0.0470643 -7.19611e-19)
(5.60209 0.0596773 0)
(5.62203 0.0676609 0)
(5.64396 0.0718215 -1.67421e-20)
(5.66753 0.0728689 4.69152e-19)
(5.69249 0.0714238 4.97921e-19)
(5.71838 0.0683689 5.23929e-19)
(5.74449 0.0639502 -5.36061e-19)
(5.7696 0.0581479 5.38762e-19)
(5.79168 0.0499444 -1.03917e-18)
(5.80772 0.0388419 1.00723e-18)
(5.81262 0.0235364 0)
(5.79339 0.00626003 0)
(5.70448 -0.00343758 -1.87058e-19)
(4.75498 -0.0425079 1.71134e-19)
(5.57004 -0.018125 6.11029e-19)
(5.57256 0.00564679 -1.69834e-18)
(5.58058 0.0225583 -3.65667e-19)
(5.59148 0.0355674 -3.79638e-19)
(5.60543 0.044628 0)
(5.62224 0.0504771 -9.21109e-19)
(5.64161 0.0535949 -4.91552e-19)
(5.6627 0.0541884 -5.21498e-19)
(5.68447 0.0526472 -5.41524e-19)
(5.70566 0.0498526 2.05636e-21)
(5.72517 0.0458609 2.92045e-21)
(5.74131 0.0403812 5.74267e-19)
(5.75133 0.0326873 -7.96442e-22)
(5.75017 0.0216979 -5.42295e-19)
(5.72431 0.00985886 0)
(5.62648 -0.000562852 0)
(4.66802 -0.0246588 0)
(5.58165 -0.0392004 2.88661e-19)
(5.58058 -0.0160426 3.33891e-19)
(5.58263 0.000901487 0)
(5.58763 0.013854 8.1666e-19)
(5.59585 0.0237037 8.44539e-19)
(5.60733 0.0306134 4.65727e-19)
(5.62181 0.0350983 -9.94094e-19)
(5.63844 0.0375908 6.6382e-21)
(5.65601 0.0385641 1.11696e-18)
(5.67267 0.0376497 0)
(5.68691 0.0349 -6.01091e-19)
(5.69718 0.0311975 0)
(5.70109 0.0264197 -3.05725e-19)
(5.69337 0.0200279 2.9594e-19)
(5.65901 0.0119414 -5.80348e-19)
(5.54693 0.00266559 0)
(4.58315 -0.00703092 0)
(5.59903 -0.0486788 -1.43364e-18)
(5.59212 -0.0323107 1.69876e-19)
(5.58992 -0.0175078 0)
(5.59017 -0.00519744 0)
(5.59355 0.00484697 -1.73095e-18)
(5.6002 0.0124978 0)
(5.60992 0.0180628 0)
(5.62161 0.0217484 5.391e-19)
(5.63448 0.0238939 -1.65908e-20)
(5.64662 0.0246452 -5.84611e-19)
(5.65627 0.0242515 1.23545e-18)
(5.66179 0.0229124 0)
(5.6608 0.0207821 6.47208e-19)
(5.64737 0.0172681 -9.72339e-19)
(5.60315 0.0119409 9.57889e-19)
(5.46688 0.00714634 0)
(4.50744 0.00859149 0)
(5.61434 -0.0623649 3.45356e-19)
(5.60638 -0.0463239 -6.334e-21)
(5.60108 -0.0326031 1.84899e-19)
(5.59795 -0.021409 -1.01703e-19)
(5.5975 -0.0116432 9.8974e-19)
(5.59995 -0.00367867 4.49545e-19)
(5.6056 0.00247373 0)
(5.61325 0.00711852 0)
(5.62153 0.0105201 -5.66072e-19)
(5.6293 0.0126485 4.49546e-19)
(5.63485 0.0136887 -4.7185e-19)
(5.63703 0.0139314 0)
(5.63344 0.0135802 -3.34135e-19)
(5.6174 0.0130843 6.70961e-19)
(5.56767 0.0113638 -1.69124e-19)
(5.37581 0.00808359 4.7057e-21)
(4.45699 0.0165825 -1.63595e-19)
(5.63463 -0.063834 1.62056e-19)
(5.62287 -0.0547806 8.96534e-20)
(5.61534 -0.0435279 -7.77932e-19)
(5.60979 -0.0338707 -4.31322e-20)
(5.60662 -0.0249873 -6.58937e-21)
(5.60562 -0.0173967 -4.64008e-19)
(5.60636 -0.0110264 0)
(5.61225 -0.00582587 -4.97305e-19)
(5.61681 -0.00176769 0)
(5.62108 0.00136849 0)
(5.62377 0.00380797 -7.5194e-20)
(5.62376 0.00530557 -2.28269e-19)
(5.61945 0.00631419 0)
(5.60479 0.00869116 -1.20423e-20)
(5.55079 0.00846826 3.34669e-19)
(5.26917 0.00495438 1.10558e-20)
(4.44888 0.0215024 3.3982e-19)
(5.65353 -0.0689402 -3.82253e-20)
(5.64173 -0.0599955 2.97284e-19)
(5.63231 -0.0505324 3.63973e-19)
(5.62489 -0.0425277 4.90356e-20)
(5.6198 -0.0348983 4.08943e-19)
(5.61705 -0.0280509 0)
(5.61644 -0.0217846 0)
(5.61735 -0.0164146 5.03112e-19)
(5.61924 -0.0120487 2.52092e-19)
(5.62121 -0.00823417 -4.01805e-19)
(5.62195 -0.00487081 1.41857e-19)
(5.62095 -0.00267047 5.96214e-19)
(5.6165 -0.000343562 0)
(5.60329 0.00370371 -3.24469e-19)
(5.52939 0.00299491 -4.07251e-20)
(5.20566 0.000209732 3.66626e-19)
(4.48211 0.0245024 -6.91405e-19)
(5.67573 -0.0617946 -3.21457e-20)
(5.66241 -0.0595974 9.78253e-20)
(5.65183 -0.0530957 2.92696e-19)
(5.64287 -0.0469767 1.99017e-19)
(5.63611 -0.0407071 -6.25219e-19)
(5.63153 -0.0348541 2.03425e-19)
(5.62907 -0.0293612 -3.55719e-21)
(5.62836 -0.0243945 -2.32707e-19)
(5.62863 -0.0199919 -2.5473e-19)
(5.62908 -0.0157803 5.10412e-19)
(5.62902 -0.0119491 5.35596e-19)
(5.62752 -0.00910151 -8.3644e-19)
(5.6219 -0.00565148 4.29579e-19)
(5.60525 -0.00159872 -2.25952e-19)
(5.519 -0.00234297 -5.45267e-19)
(5.20353 -0.00352829 -1.5628e-19)
(4.53882 0.023691 1.7799e-19)
(5.69222 -0.0553008 0)
(5.68206 -0.0525393 -3.71102e-19)
(5.67175 -0.0494372 1.90987e-19)
(5.66241 -0.0456224 -1.92887e-19)
(5.65478 -0.0415916 0)
(5.64908 -0.0374136 -4.27533e-19)
(5.64534 -0.0330937 0)
(5.64341 -0.0288731 2.29361e-19)
(5.64277 -0.0248511 0)
(5.64268 -0.0207692 -2.46493e-19)
(5.64239 -0.0170153 0)
(5.64072 -0.0138752 2.64816e-19)
(5.63432 -0.0100367 -5.43159e-19)
(5.61382 -0.00630155 2.75643e-19)
(5.5329 -0.00613743 1.49841e-19)
(5.23848 -0.00513208 1.54311e-19)
(4.60925 0.0188349 1.56695e-19)
(5.70524 -0.0430224 2.80093e-19)
(5.69687 -0.0428029 1.93246e-19)
(5.68842 -0.041262 -3.86051e-19)
(5.6802 -0.0394491 3.95485e-19)
(5.67298 -0.0372822 -3.97065e-19)
(5.66718 -0.03482 2.03482e-19)
(5.663 -0.0321082 0)
(5.66056 -0.0292478 -2.12304e-19)
(5.65955 -0.0262089 0)
(5.65933 -0.0230275 -2.22603e-19)
(5.65914 -0.0200135 4.63927e-19)
(5.65794 -0.0170835 -4.72978e-19)
(5.65269 -0.0133795 2.45105e-19)
(5.63231 -0.00974612 -3.737e-19)
(5.56191 -0.00882216 0)
(5.29381 -0.00643258 6.94775e-20)
(4.69052 0.0142075 6.80664e-20)
(5.71244 -0.0273416 2.00507e-19)
(5.70632 -0.0284248 -9.94368e-19)
(5.6995 -0.0295953 1.19635e-18)
(5.69265 -0.0296787 -8.02187e-19)
(5.68641 -0.0290402 4.01702e-19)
(5.68126 -0.0279008 -2.04556e-19)
(5.67743 -0.0264092 0)
(5.67513 -0.0247033 2.0978e-19)
(5.67438 -0.0228204 0)
(5.67468 -0.0207548 2.16309e-19)
(5.67506 -0.0186241 -4.35619e-19)
(5.67457 -0.0164222 4.40759e-19)
(5.67104 -0.0136724 -2.25299e-19)
(5.65593 -0.0111931 4.60442e-19)
(5.59653 -0.010664 -3.48784e-19)
(5.35772 -0.00791798 0)
(4.77935 0.0089841 0)
(5.71776 -0.0107335 6.32955e-19)
(5.71201 -0.0127296 -4.1513e-19)
(5.70605 -0.0142564 0)
(5.69996 -0.0157133 -6.25447e-19)
(5.69429 -0.0165963 2.00862e-19)
(5.68956 -0.0170501 4.12385e-19)
(5.68604 -0.0171041 -8.21314e-19)
(5.68387 -0.0168262 8.22133e-19)
(5.68324 -0.0162259 -4.11191e-19)
(5.68426 -0.0153629 -1.04594e-19)
(5.68557 -0.0144113 -4.16351e-19)
(5.68598 -0.0133203 8.36909e-19)
(5.68386 -0.0116075 -4.21298e-19)
(5.67506 -0.00979321 -1.05903e-19)
(5.62827 -0.0103781 3.22529e-19)
(5.41924 -0.00973863 -1.09124e-19)
(4.86895 0.00603959 -1.10794e-19)
(5.71946 0.0116326 -2.2155e-19)
(5.71438 0.00702958 0)
(5.70907 0.0037451 0)
(5.7036 0.000859425 2.11339e-19)
(5.6983 -0.00138303 6.33805e-19)
(5.69375 -0.0032574 -4.17612e-19)
(5.6903 -0.00477283 0)
(5.6881 -0.00596824 0)
(5.68705 -0.00685507 0)
(5.68806 -0.00752411 1.00515e-19)
(5.69018 -0.0081147 -4.05228e-19)
(5.69133 -0.00866827 5.07147e-19)
(5.69122 -0.00869463 1.03207e-19)
(5.68603 -0.00764127 0)
(5.65161 -0.00864025 -1.0343e-19)
(5.47153 -0.0135562 1.521e-19)
(4.95157 0.00696929 1.01274e-19)
(5.71873 0.0298783 -2.25941e-19)
(5.71344 0.0259608 -4.63817e-19)
(5.70821 0.0227188 -1.18131e-19)
(5.70307 0.0187746 1.15496e-19)
(5.698 0.0152613 -1.1318e-19)
(5.69349 0.0120248 -7.51314e-19)
(5.68992 0.0091402 8.43945e-19)
(5.68775 0.00654668 0)