/*--------------------------------*- C++ -*----------------------------------*\
  =========                 |
  \\      /  F ield         | OpenFOAM: The Open Source CFD Toolbox
   \\    /   O peration     | Website:  https://openfoam.org
    \\  /    A nd           | Version:  6
     \\/     M anipulation  |
\*---------------------------------------------------------------------------*/
FoamFile
{
    version     2.0;
    format      ascii;
    class       volScalarField;
    location    "4.69";
    object      mag(U);
}
// * * * * * * * * * * * * * * * * * * * * * * * * * * * * * * * * * * * * * //

dimensions      [0 1 -1 0 0 0 0];

internalField   nonuniform List<scalar> 
10000
(
0.999963
0.999965
0.999966
0.999967
0.999968
0.999968
0.999969
0.99997
0.99997
0.99997
0.99997
0.99997
0.99997
0.99997
0.99997
0.99997
0.99997
0.99997
0.99997
0.99997
0.99997
0.99997
0.99997
0.99997
0.99997
0.99997
0.99997
0.99997
0.99997
0.99997
0.99997
0.99997
0.99997
0.99997
0.99997
0.99997
0.999969
0.999969
0.999969
0.999968
0.999968
0.999967
0.999966
0.999968
0.99997
0.999973
0.999979
0.999988
0.999998
1.00001
1.00002
1.00002
1.00002
1.00001
0.999997
0.999979
0.999968
0.999977
1.00002
1.00011
1.00027
1.0005
1.00081
1.0012
1.00166
1.00217
1.00272
1.00329
1.00385
1.00438
1.00486
1.00526
1.00557
1.00577
1.00585
1.00579
1.0056
1.00527
1.00485
1.00434
1.00378
1.00321
1.00266
1.00214
1.00168
1.00129
1.00095
1.00069
1.00047
1.00031
1.00019
1.00011
1.00005
1.00001
0.999985
0.999971
0.999965
0.999962
0.999961
0.999962
0.99996
0.999962
0.999964
0.999966
0.999967
0.999968
0.999968
0.99997
0.99997
0.99997
0.99997
0.99997
0.99997
0.99997
0.99997
0.99997
0.99997
0.99997
0.99997
0.99997
0.99997
0.99997
0.99997
0.99997
0.99997
0.99997
0.99997
0.99997
0.99997
0.99997
0.99997
0.99997
0.99997
0.99997
0.99997
0.999969
0.999969
0.999968
0.999968
0.999968
0.999966
0.999966
0.999966
0.999966
0.999969
0.999973
0.999981
0.99999
1
1.00001
1.00002
1.00002
1.00001
0.99999
0.999961
0.999933
0.999919
0.99994
1.00002
1.00017
1.00041
1.00075
1.0012
1.00174
1.00237
1.00306
1.00379
1.00453
1.00527
1.00597
1.0066
1.00715
1.00758
1.00788
1.00803
1.008
1.00779
1.00741
1.00687
1.0062
1.00544
1.00465
1.00387
1.00313
1.00246
1.00188
1.0014
1.00101
1.0007
1.00047
1.00029
1.00017
1.00008
1.00003
0.999993
0.999972
0.999962
0.999958
0.999957
0.999958
0.999957
0.999959
0.999962
0.999964
0.999966
0.999967
0.999968
0.999968
0.99997
0.99997
0.99997
0.99997
0.99997
0.99997
0.99997
0.99997
0.99997
0.99997
0.99997
0.99997
0.99997
0.99997
0.99997
0.99997
0.99997
0.99997
0.99997
0.99997
0.99997
0.99997
0.99997
0.99997
0.99997
0.99997
0.99997
0.999969
0.999969
0.999969
0.999967
0.999967
0.999966
0.999965
0.999963
0.999965
0.999967
0.999972
0.999981
0.999992
1
1.00001
1.00002
1.00001
0.999979
0.999939
0.999889
0.999845
0.99983
0.99987
0.999991
1.00022
1.00057
1.00106
1.00167
1.0024
1.00321
1.0041
1.00502
1.00595
1.00687
1.00774
1.00854
1.00925
1.00984
1.01028
1.01055
1.01061
1.01045
1.01005
1.00942
1.0086
1.00763
1.00658
1.00552
1.00449
1.00355
1.00273
1.00204
1.00147
1.00103
1.00069
1.00044
1.00026
1.00014
1.00006
1
0.999975
0.999959
0.999953
0.999952
0.999954
0.999951
0.999956
0.999959
0.999962
0.999964
0.999966
0.999967
0.999968
0.999968
0.99997
0.99997
0.99997
0.99997
0.99997
0.99997
0.99997
0.99997
0.99997
0.99997
0.99997
0.99997
0.99997
0.99997
0.99997
0.99997
0.99997
0.99997
0.99997
0.99997
0.99997
0.99997
0.99997
0.99997
0.99997
0.99997
0.999969
0.999969
0.999967
0.999966
0.999965
0.999964
0.999962
0.999961
0.999961
0.999965
0.99997
0.99998
0.999991
1
1
0.999996
0.999968
0.999915
0.999842
0.999763
0.999699
0.999683
0.999751
0.999936
1.00027
1.00076
1.00141
1.00221
1.00313
1.00414
1.00521
1.00631
1.00741
1.00848
1.00951
1.01047
1.01134
1.01211
1.01274
1.01319
1.01342
1.0134
1.01308
1.01246
1.01155
1.0104
1.00908
1.0077
1.00633
1.00505
1.00391
1.00294
1.00214
1.0015
1.00101
1.00065
1.00039
1.00022
1.0001
1.00002
0.999981
0.999959
0.999948
0.999946
0.999948
0.999945
0.999951
0.999955
0.99996
0.999963
0.999965
0.999967
0.999968
0.999968
0.999969
0.99997
0.99997
0.99997
0.99997
0.99997
0.99997
0.99997
0.99997
0.99997
0.99997
0.99997
0.99997
0.99997
0.99997
0.99997
0.99997
0.99997
0.99997
0.99997
0.99997
0.99997
0.99997
0.99997
0.99997
0.999969
0.999968
0.999968
0.999967
0.999966
0.999963
0.999962
0.999958
0.999958
0.999957
0.99996
0.999967
0.999976
0.999986
0.999991
0.999983
0.999953
0.999893
0.999799
0.99968
0.999558
0.999467
0.999455
0.999566
0.999839
1.0003
1.00095
1.00179
1.00277
1.00387
1.00504
1.00625
1.00747
1.00867
1.00984
1.01098
1.01206
1.01308
1.01403
1.01488
1.01558
1.01609
1.01633
1.01625
1.01577
1.01491
1.01367
1.01215
1.01046
1.00872
1.00704
1.0055
1.00417
1.00306
1.00216
1.00147
1.00096
1.00059
1.00034
1.00017
1.00006
0.999994
0.999959
0.999944
0.99994
0.999941
0.999938
0.999945
0.99995
0.999956
0.99996
0.999963
0.999966
0.999967
0.999968
0.999968
0.99997
0.99997
0.99997
0.99997
0.99997
0.99997
0.99997
0.99997
0.99997
0.99997
0.99997
0.99997
0.99997
0.99997
0.99997
0.99997
0.99997
0.99997
0.99997
0.99997
0.99997
0.99997
0.99997
0.999969
0.999969
0.999968
0.999967
0.999966
0.999964
0.999961
0.999958
0.999954
0.999952
0.999952
0.999954
0.99996
0.999968
0.999973
0.999967
0.999938
0.999874
0.999764
0.999608
0.999423
0.999245
0.999126
0.999125
0.999298
0.999683
1.00029
1.00112
1.00213
1.00327
1.00449
1.00575
1.00701
1.00825
1.00946
1.01064
1.01179
1.01292
1.01404
1.01515
1.01622
1.01722
1.0181
1.01876
1.01909
1.01899
1.01838
1.01726
1.01568
1.01377
1.01168
1.00957
1.00759
1.00581
1.0043
1.00308
1.00212
1.0014
1.00088
1.00051
1.00027
1.00011
1.00002
0.999966
0.999941
0.999933
0.999934
0.99993
0.999937
0.999945
0.999952
0.999957
0.999961
0.999964
0.999966
0.999967
0.999968
0.999969
0.99997
0.99997
0.99997
0.99997
0.99997
0.99997
0.99997
0.99997
0.99997
0.99997
0.99997
0.99997
0.99997
0.99997
0.99997
0.99997
0.99997
0.99997
0.99997
0.99997
0.99997
0.999969
0.999969
0.999968
0.999968
0.999966
0.999965
0.999961
0.999958
0.999952
0.999948
0.999945
0.999944
0.999945
0.99995
0.999953
0.999948
0.999922
0.999859
0.999739
0.999555
0.999311
0.999038
0.998792
0.998646
0.998676
0.998937
0.999458
1.00023
1.00122
1.00236
1.00359
1.00485
1.00608
1.00727
1.0084
1.00948
1.01053
1.01159
1.01267
1.01381
1.01501
1.01628
1.01759
1.0189
1.02009
1.02103
1.02155
1.0215
1.02079
1.01941
1.01747
1.01515
1.01266
1.0102
1.00793
1.00595
1.0043
1.003
1.00201
1.00128
1.00077
1.00042
1.00019
1.00006
0.999981
0.999942
0.999927
0.999925
0.999921
0.999929
0.999939
0.999946
0.999953
0.999958
0.999962
0.999965
0.999967
0.999968
0.999968
0.999969
0.99997
0.99997
0.99997
0.99997
0.99997
0.99997
0.99997
0.99997
0.99997
0.99997
0.99997
0.99997
0.99997
0.99997
0.99997
0.99997
0.99997
0.99997
0.99997
0.99997
0.999969
0.999969
0.999969
0.999967
0.999965
0.999962
0.999958
0.999953
0.999947
0.999941
0.999935
0.999933
0.999932
0.999932
0.999928
0.999905
0.999846
0.999727
0.999526
0.999236
0.998872
0.998489
0.998171
0.998013
0.998099
0.998478
0.999152
1.00008
1.00119
1.0024
1.00361
1.00477
1.00585
1.00681
1.00769
1.0085
1.0093
1.01014
1.01106
1.01211
1.01332
1.01471
1.01628
1.018
1.01978
1.02147
1.02284
1.02365
1.0237
1.02289
1.02125
1.01894
1.01621
1.01333
1.01055
1.00804
1.0059
1.00417
1.00283
1.00183
1.00112
1.00064
1.00032
1.00012
1.00001
0.999949
0.999923
0.999917
0.999911
0.999921
0.99993
0.99994
0.999949
0.999956
0.99996
0.999963
0.999966
0.999967
0.999968
0.999969
0.99997
0.99997
0.99997
0.99997
0.99997
0.99997
0.99997
0.99997
0.99997
0.99997
0.99997
0.99997
0.99997
0.99997
0.99997
0.99997
0.99997
0.99997
0.99997
0.99997
0.999969
0.999968
0.999968
0.999966
0.999963
0.99996
0.999954
0.999947
0.999939
0.999931
0.999923
0.999918
0.999913
0.999907
0.999886
0.999834
0.999723
0.999522
0.999204
0.998766
0.998251
0.997742
0.997361
0.997221
0.997402
0.997929
0.998762
0.999814
1.00098
1.00215
1.00322
1.00416
1.00492
1.00553
1.00602
1.00644
1.00686
1.00736
1.00801
1.00887
1.00999
1.0114
1.01313
1.01517
1.01749
1.01994
1.02228
1.02421
1.02538
1.02556
1.02463
1.0227
1.02
1.01687
1.01364
1.01059
1.00791
1.00567
1.00391
1.00258
1.00161
1.00094
1.0005
1.00022
1.00006
0.999966
0.999924
0.999911
0.999904
0.999911
0.999922
0.999934
0.999944
0.999951
0.999958
0.999962
0.999965
0.999967
0.999968
0.999968
0.99997
0.99997
0.99997
0.99997
0.99997
0.99997
0.99997
0.99997
0.99997
0.99997
0.99997
0.99997
0.99997
0.99997
0.99997
0.99997
0.99997
0.99997
0.99997
0.999969
0.999969
0.999968
0.999967
0.999964
0.999962
0.999956
0.999949
0.99994
0.999929
0.999918
0.999908
0.999899
0.999888
0.999868
0.999823
0.999724
0.999535
0.999214
0.998734
0.998107
0.997412
0.99678
0.996364
0.99629
0.996614
0.997311
0.998289
0.999414
1.00055
1.00157
1.00238
1.00296
1.00329
1.00342
1.0034
1.00332
1.00327
1.00335
1.00364
1.00422
1.00516
1.00649
1.00825
1.01049
1.01319
1.01629
1.01958
1.02271
1.02525
1.02679
1.02705
1.02596
1.0237
1.02061
1.01711
1.01358
1.01034
1.00755
1.00529
1.00355
1.00226
1.00136
1.00075
1.00036
1.00013
0.999997
0.999932
0.999907
0.999897
0.999902
0.999914
0.999926
0.999938
0.999948
0.999954
0.99996
0.999964
0.999966
0.999967
0.999968
0.999968
0.99997
0.99997
0.99997
0.99997
0.99997
0.99997
0.99997
0.99997
0.99997
0.99997
0.99997
0.99997
0.99997
0.99997
0.99997
0.99997
0.99997
0.99997
0.999969
0.999969
0.999968
0.999966
0.999963
0.999959
0.999952
0.999942
0.999932
0.999917
0.999903
0.999888
0.999873
0.999852
0.999812
0.999728
0.999561
0.999258
0.99877
0.998075
0.997217
0.99633
0.995601
0.99521
0.995269
0.995783
0.996664
0.997757
0.998889
0.999898
1.00066
1.00111
1.00121
1.00099
1.00053
0.999916
0.999257
0.998671
0.998271
0.998159
0.998421
0.999118
1.00029
1.00199
1.00427
1.00718
1.01072
1.01477
1.01901
1.02298
1.02612
1.02796
1.0282
1.02686
1.02422
1.02073
1.0169
1.01316
1.0098
1.00699
1.00478
1.00311
1.00192
1.0011
1.00057
1.00024
1.00005
0.999951
0.999908
0.999894
0.999894
0.999904
0.999918
0.999931
0.999942
0.999951
0.999958
0.999962
0.999965
0.999967
0.999968
0.999969
0.99997
0.99997
0.99997
0.99997
0.99997
0.99997
0.99997
0.99997
0.99997
0.99997
0.99997
0.99997
0.99997
0.99997
0.99997
0.99997
0.99997
0.99997
0.999969
0.999968
0.999967
0.999965
0.999961
0.999956
0.999946
0.999935
0.999921
0.999903
0.999884
0.999864
0.99984
0.999802
0.999731
0.99959
0.999323
0.998863
0.998151
0.997187
0.996068
0.995006
0.994243
0.993964
0.994232
0.994979
0.996042
0.99721
0.998279
0.999078
0.999489
0.999451
0.998967
0.998093
0.996937
0.995632
0.994323
0.993152
0.992249
0.991728
0.991674
0.99214
0.993158
0.994759
0.996999
0.999959
1.00371
1.00823
1.01333
1.01856
1.02333
1.02696
1.02893
1.029
1.02729
1.02422
1.02036
1.01627
1.0124
1.00903
1.00628
1.00417
1.00263
1.00156
1.00084
1.00039
1.00013
0.999986
0.999918
0.999896
0.999888
0.999896
0.99991
0.999924
0.999938
0.999948
0.999955
0.99996
0.999964
0.999966
0.999967
0.999968
0.99997
0.99997
0.99997
0.99997
0.99997
0.99997
0.99997
0.99997
0.99997
0.99997
0.99997
0.99997
0.99997
0.99997
0.99997
0.99997
0.99997
0.999969
0.999969
0.999968
0.999966
0.999963
0.999959
0.999952
0.999941
0.999926
0.999907
0.999886
0.999861
0.999833
0.999796
0.999736
0.999619
0.999395
0.998989
0.998314
0.997316
0.996032
0.994653
0.993476
0.992783
0.992723
0.993276
0.994285
0.995516
0.996714
0.99765
0.998148
0.998097
0.997455
0.996249
0.994577
0.992594
0.990484
0.98844
0.986641
0.985236
0.984344
0.984037
0.98435
0.985287
0.986846
0.989059
0.992006
0.995806
1.00054
1.00616
1.01235
1.01853
1.02395
1.02785
1.02971
1.02941
1.02722
1.0237
1.01951
1.01525
1.01135
1.00806
1.00546
1.00352
1.00214
1.00121
1.00061
1.00024
1.00004
0.999939
0.999907
0.999886
0.999889
0.999902
0.999917
0.999932
0.999943
0.999953
0.999958
0.999963
0.999965
0.999967
0.999968
0.999969
0.99997
0.99997
0.99997
0.99997
0.99997
0.99997
0.99997
0.99997
0.99997
0.99997
0.99997
0.99997
0.99997
0.99997
0.99997
0.99997
0.999969
0.999969
0.999967
0.999965
0.999962
0.999956
0.999946
0.999934
0.999915
0.999892
0.999865
0.999835
0.999796
0.99974
0.999645
0.999464
0.999125
0.998529
0.997577
0.996226
0.994597
0.993001
0.99182
0.991332
0.991601
0.992503
0.993789
0.995162
0.996335
0.997055
0.997142
0.996488
0.99507
0.992953
0.990284
0.987284
0.984209
0.981316
0.978835
0.976944
0.975758
0.975331
0.975651
0.976675
0.97835
0.980661
0.983659
0.987477
0.992271
0.998124
1.0049
1.01214
1.01911
1.02491
1.02878
1.03026
1.0294
1.02664
1.02268
1.01823
1.01391
1.0101
1.00699
1.0046
1.00286
1.00167
1.00089
1.0004
1.00012
0.999974
0.999928
0.99989
0.999886
0.999895
0.999911
0.999926
0.999939
0.999949
0.999956
0.999961
0.999964
0.999966
0.999967
0.999969
0.999969
0.99997
0.99997
0.99997
0.99997
0.99997
0.99997
0.99997
0.99997
0.99997
0.99997
0.99997
0.99997
0.99997
0.99997
0.99997
0.999969
0.999968
0.999966
0.999964
0.99996
0.999953
0.999941
0.999925
0.999904
0.999874
0.999841
0.999802
0.99975
0.999668
0.999524
0.999255
0.998759
0.997915
0.99661
0.994854
0.992897
0.991188
0.990157
0.99002
0.990717
0.992008
0.993564
0.99504
0.996111
0.996503
0.996019
0.994559
0.992123
0.98882
0.984871
0.980583
0.976314
0.972411
0.969175
0.966822
0.965469
0.965123
0.965707
0.967092
0.969149
0.971795
0.975033
0.978974
0.983813
0.989739
0.99679
1.0047
1.01286
1.02034
1.02619
1.02966
1.03049
1.0289
1.02554
1.02118
1.0166
1.01234
1.00872
1.00586
1.00374
1.00224
1.00124
1.00061
1.00023
1.00003
0.999962
0.999901
0.999886
0.99989
0.999905
0.99992
0.999934
0.999945
0.999954
0.99996
0.999963
0.999966
0.999967
0.999969
0.999969
0.99997
0.99997
0.99997
0.99997
0.99997
0.99997
0.99997
0.99997
0.99997
0.99997
0.99997
0.99997
0.99997
0.99997
0.99997
0.999969
0.999968
0.999966
0.999963
0.999958
0.999949
0.999935
0.999915
0.99989
0.999856
0.999814
0.999764
0.999694
0.999576
0.999366
0.998975
0.998277
0.997114
0.995386
0.993205
0.990995
0.989331
0.988629
0.988974
0.990167
0.991862
0.993661
0.995171
0.996029
0.995925
0.994645
0.992089
0.988293
0.983427
0.977808
0.971863
0.966083
0.960946
0.95685
0.954071
0.952725
0.952759
0.953981
0.95613
0.958955
0.962283
0.966054
0.970344
0.975355
0.981346
0.988504
0.996773
1.00572
1.01452
1.02215
1.02762
1.03034
1.03027
1.02787
1.02392
1.01929
1.01471
1.01063
1.0073
1.00476
1.00293
1.00168
1.00087
1.00038
1.0001
1.00001
0.999922
0.99989
0.999889
0.9999
0.999916
0.99993
0.999942
0.999951
0.999958
0.999962
0.999966
0.999966
0.999968
0.999969
0.99997
0.99997
0.99997
0.99997
0.99997
0.99997
0.99997
0.99997
0.99997
0.99997
0.99997
0.99997
0.99997
0.999969
0.99997
0.999969
0.999967
0.999966
0.999961
0.999954
0.999944
0.999928
0.999903
0.999875
0.999835
0.999783
0.999719
0.999624
0.999459
0.999159
0.998612
0.997652
0.996094
0.993887
0.991312
0.988993
0.987572
0.987367
0.988294
0.990015
0.992098
0.994083
0.995523
0.996004
0.99517
0.992782
0.988743
0.983129
0.9762
0.968395
0.960305
0.952597
0.945925
0.940828
0.937668
0.93657
0.937396
0.939787
0.943274
0.947413
0.951892
0.95658
0.961522
0.966923
0.973091
0.980326
0.988757
0.998169
1.00792
1.017
1.02431
1.02898
1.03063
1.0295
1.02628
1.02186
1.01711
1.01266
1.00888
1.00591
1.00372
1.0022
1.00119
1.00057
1.00021
1.00008
0.999952
0.999901
0.99989
0.999897
0.999911
0.999927
0.99994
0.999949
0.999957
0.999961
0.999964
0.999966
0.999967
0.999969
0.999969
0.99997
0.99997
0.99997
0.99997
0.99997
0.99997
0.99997
0.99997
0.99997
0.99997
0.99997
0.99997
0.999968
0.99997
0.999969
0.999966
0.999966
0.99996
0.999951
0.99994
0.99992
0.99989
0.999856
0.999811
0.999747
0.999666
0.999541
0.999314
0.998896
0.998147
0.99686
0.994836
0.992129
0.989256
0.987025
0.986053
0.986476
0.988035
0.990282
0.992706
0.994788
0.99601
0.99589
0.994014
0.99011
0.984086
0.976077
0.966449
0.955802
0.944937
0.934762
0.926164
0.919885
0.916409
0.915883
0.91806
0.922351
0.927974
0.934185
0.940451
0.946539
0.952486
0.958529
0.965035
0.972403
0.980918
0.990573
1.00093
1.01113
1.02001
1.02652
1.02999
1.03035
1.02811
1.02416
1.01944
1.01474
1.01057
1.00719
1.00463
1.0028
1.00158
1.0008
1.00034
1.00017
0.999996
0.999919
0.999894
0.999896
0.999909
0.999924
0.999937
0.999947
0.999955
0.99996
0.999964
0.999966
0.999967
0.999969
0.999969
0.99997
0.99997
0.99997
0.99997
0.99997
0.99997
0.99997
0.99997
0.99997
0.99997
0.99997
0.99997
0.999968
0.99997
0.999969
0.999964
0.999964
0.999959
0.999946
0.999934
0.999913
0.999876
0.999837
0.999787
0.999708
0.999603
0.99944
0.999134
0.998564
0.997565
0.995883
0.993333
0.990156
0.987151
0.985234
0.984881
0.986009
0.988208
0.990945
0.99364
0.995692
0.996501
0.995491
0.992177
0.986246
0.977624
0.966509
0.953402
0.939102
0.924678
0.911355
0.900344
0.892661
0.88897
0.889449
0.893717
0.900874
0.909704
0.919015
0.927927
0.936041
0.943395
0.95032
0.957303
0.964863
0.973429
0.983184
0.993901
1.00488
1.01503
1.02318
1.02842
1.03038
1.02935
1.0261
1.02161
1.0168
1.01232
1.00855
1.00562
1.00349
1.00203
1.00108
1.0005
1.00028
1.00005
0.999945
0.999905
0.999898
0.999907
0.999921
0.999935
0.999945
0.999953
0.999959
0.999963
0.999966
0.999967
0.999969
0.999969
0.99997
0.99997
0.99997
0.99997
0.99997
0.99997
0.99997
0.999969
0.99997
0.99997
0.999969
0.999971
0.999967
0.999969
0.999969
0.999963
0.999962
0.999959
0.999942
0.999927
0.999907
0.999862
0.999815
0.999761
0.999666
0.999528
0.999317
0.998913
0.998156
0.996849
0.994707
0.991604
0.988054
0.985128
0.983738
0.984118
0.98597
0.988781
0.991953
0.994823
0.996689
0.996835
0.994578
0.989346
0.980784
0.968832
0.953774
0.936261
0.917333
0.8984
0.881105
0.867099
0.857774
0.854032
0.856094
0.863392
0.874623
0.888012
0.901743
0.914432
0.925395
0.934648
0.942683
0.950207
0.957942
0.966491
0.97621
0.987068
0.998543
1.00966
1.0192
1.02608
1.02966
1.02997
1.02761
1.02355
1.01876
1.01407
1.00997
1.00669
1.00424
1.00253
1.0014
1.00069
1.0004
1.00012
0.999982
0.999921
0.999904
0.999908
0.99992
0.999932
0.999944
0.999953
0.999958
0.999962
0.999966
0.999966
0.999969
0.999969
0.99997
0.99997
0.99997
0.99997
0.99997
0.99997
0.99997
0.99997
0.99997
0.99997
0.999968
0.999972
0.999968
0.999967
0.99997
0.999963
0.99996
0.999959
0.999938
0.999918
0.999901
0.99985
0.99979
0.999734
0.999623
0.999442
0.999169
0.998649
0.997664
0.995987
0.99333
0.9897
0.985928
0.983307
0.982607
0.983771
0.986323
0.989698
0.993237
0.996167
0.99765
0.996837
0.992912
0.985206
0.973319
0.957211
0.937256
0.914274
0.889591
0.865043
0.842831
0.825192
0.814024
0.810525
0.814936
0.826415
0.843134
0.862629
0.882327
0.900166
0.915027
0.926819
0.936226
0.944291
0.952067
0.960417
0.969902
0.980669
0.992371
1.00415
1.01481
1.02314
1.02828
1.02998
1.02865
1.02518
1.02058
1.01578
1.01141
1.0078
1.00505
1.00308
1.00175
1.00091
1.00055
1.00021
1.00003
0.999943
0.999915
0.999911
0.99992
0.999931
0.999943
0.999952
0.999958
0.999962
0.999966
0.999966
0.999968
0.999969
0.99997
0.99997
0.999969
0.99997
0.99997
0.99997
0.99997
0.99997
0.99997
0.999971
0.999967
0.999971
0.999969
0.999966
0.999972
0.999962
0.999956
0.999959
0.999936
0.999907
0.999895
0.999841
0.999763
0.999702
0.999579
0.999342
0.998991
0.998337
0.997083
0.994972
0.991769
0.987693
0.983894
0.98177
0.981861
0.98381
0.987014
0.990893
0.994722
0.997576
0.998448
0.99633
0.990263
0.97947
0.963504
0.942349
0.916466
0.886854
0.855175
0.823811
0.795682
0.773805
0.760725
0.757992
0.76579
0.782831
0.806582
0.833761
0.860978
0.885411
0.90536
0.920494
0.931638
0.94024
0.94783
0.955672
0.964605
0.974981
0.986607
0.998747
1.01024
1.0198
1.02637
1.02945
1.02923
1.02648
1.0222
1.0174
1.01283
1.00894
1.0059
1.00367
1.00215
1.00116
1.00072
1.00031
1.00008
0.999971
0.999928
0.999917
0.999923
0.999931
0.999943
0.99995
0.999957
0.999962
0.999965
0.999966
0.999968
0.999969
0.99997
0.99997
0.99997
0.99997
0.99997
0.99997
0.99997
0.99997
0.999969
0.999971
0.999966
0.999971
0.999971
0.999962
0.999972
0.999965
0.999949
0.999959
0.999937
0.999894
0.999887
0.999836
0.999733
0.999665
0.999537
0.999233
0.998777
0.997973
0.996415
0.993808
0.99006
0.985674
0.982045
0.980555
0.981477
0.984184
0.987982
0.992298
0.996331
0.998959
0.998962
0.995159
0.986442
0.971924
0.951111
0.924007
0.891154
0.853741
0.813826
0.774464
0.739486
0.712908
0.698108
0.697033
0.709663
0.733957
0.766368
0.802645
0.838613
0.870781
0.896868
0.916173
0.929514
0.938712
0.945871
0.952803
0.960754
0.970333
0.981519
0.99368
1.0057
1.01623
1.02406
1.02846
1.02938
1.02743
1.02358
1.01889
1.0142
1.01008
1.00676
1.0043
1.00257
1.00143
1.0009
1.00042
1.00014
1.00001
0.999946
0.999926
0.999925
0.999932
0.999942
0.99995
0.999958
0.999962
0.999965
0.999967
0.999968
0.999969
0.99997
0.999969
0.99997
0.99997
0.99997
0.99997
0.99997
0.99997
0.999968
0.999972
0.999966
0.999969
0.999975
0.99996
0.99997
0.99997
0.999943
0.999955
0.999944
0.999881
0.999874
0.999839
0.999708
0.999619
0.999492
0.99912
0.998524
0.997552
0.995666
0.992514
0.988252
0.983728
0.980449
0.979659
0.981401
0.984835
0.989169
0.993845
0.997986
1.00023
0.99909
0.993203
0.98133
0.962478
0.936106
0.902233
0.861482
0.815252
0.76605
0.717705
0.675139
0.643624
0.627645
0.629648
0.649164
0.682885
0.725724
0.77222
0.817525
0.857803
0.890453
0.914411
0.930324
0.940219
0.946736
0.952332
0.958793
0.967085
0.97739
0.989189
1.0014
1.01262
1.0215
1.0271
1.02914
1.02805
1.02472
1.02022
1.01549
1.01118
1.00763
1.00493
1.00301
1.00172
1.0011
1.00053
1.00022
1.00005
0.999967
0.999938
0.999931
0.999936
0.999943
0.99995
0.999958
0.999961
0.999965
0.999967
0.999968
0.999969
0.999969
0.99997
0.99997
0.99997
0.99997
0.99997
0.99997
0.999971
0.999967
0.999973
0.999968
0.999965
0.999979
0.999959
0.999964
0.999979
0.999938
0.999945
0.999955
0.999873
0.999852
0.999848
0.999691
0.999559
0.999443
0.999007
0.998236
0.997065
0.994845
0.991124
0.986399
0.981914
0.979134
0.979056
0.981572
0.985704
0.990523
0.995471
0.99962
1.00132
0.998764
0.990405
0.974921
0.951228
0.918735
0.877488
0.828218
0.772562
0.713486
0.655571
0.604905
0.568362
0.55208
0.559267
0.588587
0.634581
0.689853
0.747393
0.801826
0.84948
0.887991
0.916239
0.934635
0.945168
0.950822
0.954665
0.959106
0.965568
0.974499
0.985505
0.997536
1.00915
1.01885
1.02549
1.02859
1.02836
1.02561
1.02138
1.01667
1.01223
1.00848
1.00557
1.00346
1.00202
1.0013
1.00066
1.00029
1.00009
0.999994
0.999951
0.999939
0.999939
0.999945
0.999952
0.999957
0.999962
0.999965
0.999967
0.999968
0.999969
0.999969
0.99997
0.99997
0.99997
0.99997
0.99997
0.999969
0.999971
0.999966
0.999973
0.99997
0.999961
0.999981
0.999962
0.999955
0.999986
0.999941
0.999928
0.999967
0.999875
0.999821
0.999854
0.999692
0.999489
0.999379
0.998906
0.997922
0.996508
0.993966
0.989693
0.984559
0.980264
0.978106
0.978712
0.981926
0.986728
0.992
0.997124
1.00117
1.00219
0.99796
0.986788
0.967351
0.938505
0.899603
0.850767
0.792929
0.727998
0.659233
0.59167
0.532458
0.490631
0.475085
0.490347
0.533351
0.595087
0.664968
0.734136
0.796832
0.850073
0.892477
0.92346
0.943395
0.954047
0.958447
0.960087
0.96197
0.96604
0.973074
0.982829
0.994292
1.00596
1.01622
1.02374
1.02779
1.02841
1.02626
1.02235
1.01773
1.01321
1.00929
1.00619
1.00391
1.00233
1.0015
1.00079
1.00037
1.00014
1.00002
0.999968
0.999948
0.999944
0.999948
0.999953
0.999957
0.999962
0.999964
0.999967
0.999968
0.999969
0.999969
0.99997
0.99997
0.99997
0.99997
0.99997
0.999968
0.999972
0.999966
0.999971
0.999975
0.999958
0.999979
0.99997
0.999945
0.999989
0.999952
0.999907
0.999973
0.999893
0.999785
0.999851
0.999716
0.999419
0.999287
0.998817
0.997601
0.995876
0.993038
0.988281
0.982778
0.978773
0.977347
0.978602
0.982396
0.987839
0.993562
0.998768
1.00259
1.00282
0.996721
0.982483
0.958934
0.924918
0.879729
0.823685
0.758112
0.685158
0.60791
0.531164
0.462791
0.414773
0.400763
0.427521
0.488571
0.56952
0.655995
0.737235
0.807148
0.863734
0.907233
0.938367
0.957946
0.967537
0.969949
0.968806
0.967563
0.968672
0.973276
0.981315
0.991811
1.00321
1.01376
1.02194
1.02683
1.02823
1.02668
1.02314
1.01865
1.0141
1.01005
1.00679
1.00435
1.00264
1.00171
1.00093
1.00046
1.00019
1.00006
0.999987
0.999959
0.99995
0.999951
0.999955
0.999958
0.999963
0.999965
0.999967
0.999968
0.999969
0.999969
0.99997
0.99997
0.99997
0.99997
0.99997
0.999968
0.999972
0.999967
0.999967
0.999979
0.999957
0.999974
0.999981
0.999936
0.999984
0.999973
0.999887
0.999965
0.999928
0.999754
0.999825
0.99976
0.999367
0.999159
0.998729
0.997302
0.995179
0.992066
0.986945
0.981109
0.977414
0.976814
0.978714
0.98293
0.988954
0.995178
1.00039
1.00384
1.00321
0.995156
0.97774
0.950166
0.911351
0.860527
0.798446
0.727103
0.648686
0.565341
0.480627
0.402458
0.346269
0.333314
0.374349
0.456956
0.559637
0.664194
0.758019
0.83454
0.892666
0.934546
0.962875
0.979583
0.986352
0.985657
0.980972
0.975975
0.973545
0.975193
0.981054
0.990192
1.00099
1.01156
1.02021
1.02577
1.02789
1.02692
1.02375
1.01943
1.01488
1.01075
1.00735
1.00477
1.00294
1.00191
1.00106
1.00055
1.00025
1.00009
1.00001
0.999971
0.999958
0.999955
0.999958
0.99996
0.999963
0.999966
0.999967
0.999968
0.999969
0.999969
0.99997
0.999969
0.99997
0.99997
0.99997
0.999969
0.999972
0.99997
0.999964
0.999981
0.999959
0.999965
0.999992
0.999934
0.999968
0.999997
0.999879
0.999938
0.999971
0.999746
0.999772
0.999811
0.999353
0.998997
0.998622
0.997048
0.994452
0.991045
0.985716
0.979603
0.97616
0.976438
0.979032
0.983511
0.989987
0.996801
1.00201
1.00491
1.00339
0.993443
0.972924
0.941693
0.898887
0.843702
0.777645
0.703656
0.623602
0.537828
0.447805
0.360403
0.293181
0.277385
0.332319
0.437691
0.563346
0.687048
0.794176
0.877437
0.93631
0.974736
0.997724
1.009
1.01091
1.00573
0.9966
0.987186
0.980649
0.978832
0.982078
0.989489
0.999373
1.00971
1.0186
1.0247
1.02742
1.02699
1.0242
1.02007
1.01556
1.01136
1.00786
1.00516
1.00322
1.00209
1.00119
1.00063
1.0003
1.00012
1.00003
0.999985
0.999966
0.99996
0.999961
0.999962
0.999964
0.999966
0.999967
0.999968
0.999969
0.999969
0.99997
0.99997
0.99997
0.99997
0.99997
0.999969
0.99997
0.999971
0.999962
0.999979
0.999966
0.999954
0.999998
0.999944
0.999945
1.00002
0.999892
0.999897
1.00001
0.999773
0.999701
0.999844
0.999391
0.998826
0.99847
0.996847
0.993751
0.989978
0.984588
0.978315
0.975004
0.976119
0.979523
0.984161
0.990865
0.998352
1.00365
1.00583
1.00339
0.991812
0.968504
0.934245
0.88868
0.831045
0.763877
0.691228
0.614264
0.530995
0.440515
0.347495
0.267708
0.240075
0.3021
0.428407
0.577234
0.720725
0.841827
0.932373
0.992064
1.02627
1.04227
1.04603
1.04112
1.03001
1.01548
1.001
0.98984
0.984114
0.984352
0.989703
0.998392
1.00825
1.01719
1.02366
1.02688
1.02693
1.02449
1.02056
1.01612
1.01189
1.00831
1.00551
1.00348
1.00226
1.00131
1.00071
1.00036
1.00016
1.00005
0.999999
0.999975
0.999966
0.999963
0.999965
0.999965
0.999966
0.999968
0.999968
0.999969
0.999969
0.99997
0.99997
0.999969
0.99997
0.99997
0.999969
0.999969
0.999973
0.999963
0.999975
0.999974
0.999949
0.999993
0.999962
0.999924
1.00002
0.999926
0.999855
1.00002
0.999835
0.999637
0.999834
0.999473
0.998686
0.998254
0.996677
0.993145
0.988896
0.983522
0.977276
0.973978
0.975754
0.980102
0.984937
0.991562
0.999702
1.00535
1.00667
1.00325
0.990503
0.965007
0.928532
0.881766
0.824143
0.759227
0.692177
0.623279
0.548177
0.463629
0.371416
0.282473
0.234324
0.288626
0.429813
0.600126
0.762772
0.897778
0.995905
1.05669
1.08654
1.09477
1.08962
1.07635
1.05798
1.03716
1.01702
1.00083
0.990839
0.987761
0.990778
0.998033
1.0072
1.016
1.02269
1.02631
1.02676
1.02465
1.02092
1.01656
1.01233
1.00869
1.00582
1.00372
1.00241
1.00141
1.00079
1.00041
1.00019
1.00007
1.00001
0.999984
0.999972
0.999967
0.999966
0.999966
0.999967
0.999968
0.999969
0.999969
0.99997
0.99997
0.99997
0.99997
0.99997
0.99997
0.999969
0.999968
0.999973
0.999965
0.99997
0.999979
0.999949
0.999982
0.999981
0.999915
1
0.999968
0.999835
0.999992
0.999913
0.999611
0.999775
0.999563
0.998624
0.997991
0.996491
0.992683
0.987869
0.982464
0.976461
0.973156
0.975279
0.980617
0.985891
0.992152
1.0007
1.00706
1.0076
1.00303
0.989702
0.962948
0.925145
0.878882
0.824093
0.764849
0.707197
0.650787
0.589074
0.51622
0.431022
0.340393
0.27486
0.307287
0.451082
0.636135
0.813706
0.96059
1.06567
1.12741
1.15277
1.15286
1.13806
1.11539
1.0888
1.06093
1.03469
1.01317
0.998704
0.992111
0.992607
0.998251
1.00656
1.01507
1.02184
1.02574
1.02652
1.02469
1.02115
1.01689
1.01267
1.009
1.00608
1.00392
1.00254
1.00151
1.00085
1.00046
1.00023
1.0001
1.00003
0.999994
0.999978
0.999971
0.999969
0.999969
0.999968
0.999969
0.999969
0.999969
0.99997
0.99997
0.99997
0.99997
0.99997
0.99997
0.99997
0.999968
0.999972
0.999968
0.999966
0.99998
0.999956
0.999969
0.999992
0.999924
0.999973
1
0.999846
0.999944
0.999976
0.999643
0.999691
0.999618
0.998654
0.997737
0.996241
0.992363
0.986998
0.981393
0.975779
0.972595
0.974732
0.98088
0.986976
0.992815
1.00124
1.00862
1.00881
1.00285
0.989472
0.962716
0.924521
0.880334
0.831242
0.780736
0.735251
0.69446
0.649847
0.592507
0.518869
0.434421
0.364951
0.379189
0.512084
0.696971
0.878165
1.03078
1.14035
1.20213
1.22254
1.21411
1.18923
1.15664
1.12123
1.08589
1.05329
1.02632
1.0073
0.997131
0.995024
0.998956
1.00629
1.01439
1.02112
1.02519
1.02622
1.02463
1.02127
1.0171
1.01292
1.00923
1.00628
1.00408
1.00263
1.00158
1.00091
1.0005
1.00025
1.00012
1.00004
1
0.999983
0.999975
0.99997
0.99997
0.99997
0.999969
0.99997
0.999969
0.99997
0.99997
0.99997
0.999969
0.99997
0.99997
0.999969
0.99997
0.99997
0.99997
0.999966
0.999976
0.999965
0.999962
0.99999
0.999944
0.99995
1.00001
0.999887
0.999902
0.999996
0.999723
0.999628
0.999605
0.998747
0.997564
0.995926
0.992124
0.986366
0.980366
0.975104
0.972279
0.974239
0.980769
0.987988
0.993752
1.00141
1.00973
1.01041
1.00299
0.989741
0.964434
0.926948
0.885992
0.845044
0.805776
0.774
0.750257
0.72462
0.68505
0.626631
0.555449
0.496148
0.509628
0.628601
0.795807
0.962987
1.11001
1.21892
1.27883
1.29356
1.27623
1.24099
1.19824
1.15385
1.11092
1.07196
1.03962
1.01617
1.0025
0.997827
1.00003
1.00634
1.01393
1.02053
1.02468
1.02589
1.02448
1.02127
1.01719
1.01306
1.00939
1.00642
1.0042
1.0027
1.00164
1.00096
1.00053
1.00028
1.00014
1.00006
1.00001
0.99999
0.999979
0.999973
0.999971
0.99997
0.99997
0.999969
0.99997
0.99997
0.999969
0.99997
0.99997
0.99997
0.999971
0.999968
0.99997
0.99997
0.99997
0.999968
0.999971
0.99997
0.999963
0.999979
0.999962
0.999946
0.999991
0.999932
0.999892
0.999975
0.999811
0.999626
0.999538
0.998839
0.997516
0.995612
0.991887
0.985983
0.979506
0.97436
0.972066
0.973943
0.980334