/*--------------------------------*- C++ -*----------------------------------*\
  =========                 |
  \\      /  F ield         | OpenFOAM: The Open Source CFD Toolbox
   \\    /   O peration     | Website:  https://openfoam.org
    \\  /    A nd           | Version:  6
     \\/     M anipulation  |
\*---------------------------------------------------------------------------*/
FoamFile
{
    version     2.0;
    format      ascii;
    class       surfaceScalarField;
    location    "1";
    object      phi;
}
// * * * * * * * * * * * * * * * * * * * * * * * * * * * * * * * * * * * * * //

dimensions      [0 3 -1 0 0 0 0];

internalField   nonuniform List<scalar> 
8193
(
0.17568
-0.353812
-0.181851
0.16719
-0.354361
0.157987
-0.353776
0.148837
-0.353392
0.140126
-0.354342
0.131826
-0.356373
0.123536
-0.358568
0.115022
-0.359945
0.106299
-0.360304
0.0974708
-0.359949
0.0886012
-0.359249
0.0797163
-0.358455
0.0707309
-0.357597
0.0615968
-0.356681
0.0522707
-0.355428
0.0429073
-0.353917
0.0339771
-0.353446
0.025568
-0.356526
0.0169396
-0.362802
0.0067119
-0.366169
-0.0045894
-0.366566
-0.0149586
-0.365366
-0.023821
-0.36122
-0.0324709
-0.354407
-0.0417061
-0.351061
-0.0512624
-0.351834
-0.0607381
-0.353558
-0.0700046
-0.354967
-0.0791024
-0.35599
-0.0880873
-0.356893
-0.0970693
-0.357736
-0.106031
-0.358667
-0.114909
-0.359493
-0.123568
-0.359706
-0.13193
-0.358731
-0.140217
-0.356569
-0.148827
-0.35426
-0.157908
-0.353078
-0.167044
-0.353299
-0.175508
-0.35392
-0.353445
-0.181683
0.181308
-0.344076
-0.191044
0.170734
-0.343787
0.160527
-0.34357
0.151122
-0.343987
0.142406
-0.345625
0.133992
-0.347959
0.12541
-0.349985
0.116563
-0.351098
0.107576
-0.351316
0.0985769
-0.35095
0.0895976
-0.350269
0.0805771
-0.349435
0.071469
-0.348489
0.0622192
-0.347431
0.0527913
-0.346001
0.0434335
-0.344559
0.0346569
-0.34467
0.0263701
-0.348239
0.0176707
-0.354103
0.00707746
-0.355576
-0.00462837
-0.354861
-0.0153611
-0.354633
-0.0243664
-0.352214
-0.0329337
-0.34584
-0.042041
-0.341954
-0.0516241
-0.342251
-0.0612313
-0.34395
-0.07064
-0.345558
-0.079893
-0.346737
-0.0890399
-0.347746
-0.0981469
-0.348629
-0.107293
-0.34952
-0.116448
-0.350339
-0.125461
-0.350693
-0.134162
-0.35003
-0.142614
-0.348117
-0.15126
-0.345615
-0.160588
-0.34375
-0.170681
-0.343206
-0.181228
-0.343372
-0.343721
-0.190952
0.182272
-0.333578
-0.19277
0.171765
-0.333279
0.161783
-0.333587
0.152622
-0.334826
0.143942
-0.336945
0.135299
-0.339317
0.126447
-0.341133
0.117416
-0.342067
0.108341
-0.342241
0.0992765
-0.341886
0.0902368
-0.34123
0.0811293
-0.340327
0.0719468
-0.339307
0.0626249
-0.338109
0.0531861
-0.336562
0.0438953
-0.335269
0.0352066
-0.335981
0.026867
-0.3399
0.0179705
-0.345206
0.00715251
-0.344758
-0.00463188
-0.343076
-0.0155622
-0.343702
-0.0247527
-0.343024
-0.0334077
-0.337185
-0.0424151
-0.332947
-0.0519599
-0.332706
-0.0616086
-0.334302
-0.0711029
-0.336064
-0.0804399
-0.3374
-0.0896798
-0.338506
-0.0988423
-0.339467
-0.108043
-0.34032
-0.117277
-0.341104
-0.126466
-0.341505
-0.135441
-0.341054
-0.144137
-0.339421
-0.152806
-0.336946
-0.161925
-0.334631
-0.171823
-0.333307
-0.182254
-0.332942
-0.333274
-0.192701
0.184282
-0.322545
-0.195315
0.173789
-0.322787
0.163996
-0.323793
0.15481
-0.32564
0.145933
-0.328068
0.137
-0.330384
0.127892
-0.332025
0.118687
-0.332862
0.109464
-0.333019
0.100279
-0.3327
0.0911107
-0.332062
0.0819007
-0.331117
0.0726155
-0.330022
0.0632105
-0.328704
0.0537544
-0.327106
0.0445629
-0.326077
0.0359234
-0.327341
0.0276074
-0.331584
0.0183861
-0.335985
0.00728347
-0.333655
-0.00472468
-0.331068
-0.0158935
-0.332534
-0.0253644
-0.333553
-0.0340591
-0.32849
-0.0429833
-0.324022
-0.0524886
-0.323201
-0.062183
-0.324607
-0.0717758
-0.326471
-0.0812204
-0.327955
-0.0905664
-0.32916
-0.0998485
-0.330185
-0.109155
-0.331013
-0.118525
-0.331734
-0.127894
-0.332136
-0.137142
-0.331807
-0.146146
-0.330416
-0.155023
-0.328069
-0.164167
-0.325487
-0.173938
-0.323537
-0.184366
-0.322514
-0.322303
-0.195337
0.18632
-0.31172
-0.197145
0.17603
-0.312496
0.166337
-0.314101
0.157101
-0.316404
0.148001
-0.318968
0.13879
-0.321173
0.129447
-0.322682
0.120056
-0.323471
0.110697
-0.32366
0.10138
-0.323383
0.0920808
-0.322763
0.0827651
-0.321802
0.073377
-0.320634
0.0639007
-0.319228
0.0544486
-0.317654
0.045372
-0.317001
0.0367657
-0.318735
0.0284061
-0.323224
0.0188307
-0.326409
0.00737323
-0.322198
-0.00488482
-0.31881
-0.0163136
-0.321105
-0.0260818
-0.323785
-0.0348589
-0.319713
-0.0437675
-0.315114
-0.0532054
-0.313763
-0.0629174
-0.314895
-0.0725917
-0.316797
-0.0821365
-0.31841
-0.0915806
-0.319716
-0.100976
-0.320789
-0.110396
-0.321593
-0.119889
-0.322241
-0.129438
-0.322587
-0.138932
-0.322312
-0.148241
-0.321107
-0.157373
-0.318937
-0.16659
-0.31627
-0.176246
-0.313881
-0.186492
-0.312268
-0.311533
-0.197263
0.189002
-0.300871
-0.199851
0.178751
-0.302245
0.169053
-0.304403
0.159665
-0.307016
0.150277
-0.30958
0.140776
-0.311672
0.131205
-0.313112
0.121635
-0.3139
0.112115
-0.31414
0.102646
-0.313914
0.093209
-0.313326
0.083775
-0.312367
0.0742786
-0.311137
0.0647394
-0.309689
0.0553085
-0.308223
0.046337
-0.308029
0.0377795
-0.310178
0.029272
-0.314716
0.0193011
-0.316439
0.00742328
-0.31032
-0.00512468
-0.306262
-0.0168784
-0.309351
-0.0269298
-0.313733
-0.035835
-0.310808
-0.044776
-0.306173
-0.0541359
-0.304403
-0.0638519
-0.305179
-0.0735976
-0.307051
-0.0832427
-0.308765
-0.0927883
-0.31017
-0.102303
-0.311274
-0.111851
-0.312045
-0.12148
-0.312612
-0.1312
-0.312867
-0.140934
-0.312579
-0.15056
-0.311481
-0.160006
-0.309491
-0.169398
-0.306878
-0.179068
-0.304211
-0.189275
-0.30206
-0.300734
-0.200073
0.19202
-0.290063
-0.202829
0.181797
-0.292021
0.172007
-0.294613
0.162373
-0.297382
0.152694
-0.2999
0.142937
-0.301915
0.133159
-0.303333
0.123406
-0.304147
0.113711
-0.304444
0.104083
-0.304286
0.0945067
-0.30375
0.0849443
-0.302805
0.0753397
-0.301532
0.0657526
-0.300102
0.0563672
-0.298838
0.0474984
-0.29916
0.0389836
-0.301663
0.0301808
-0.305914
0.019755
-0.306013
0.00741198
-0.297977
-0.00543916
-0.293411
-0.0175389
-0.297251
-0.0279423
-0.30333
-0.0370338
-0.301717
-0.0460107
-0.297196
-0.0553001
-0.295114
-0.0650102
-0.295469
-0.0748166
-0.297245
-0.0845606
-0.299021
-0.0942132
-0.300518
-0.103845
-0.301643
-0.113523
-0.302367
-0.123298
-0.302838
-0.133181
-0.302984
-0.143123
-0.302636
-0.153027
-0.301577
-0.162796
-0.299723
-0.172459
-0.297214
-0.182238
-0.294432
-0.192422
-0.291876
-0.289984
-0.203173
0.195402
-0.279229
-0.206237
0.185127
-0.281746
0.175169
-0.284655
0.165266
-0.28748
0.155311
-0.289945
0.145319
-0.291924
0.135337
-0.293351
0.125394
-0.294204
0.115513
-0.294564
0.105721
-0.294494
0.0960046
-0.294033
0.0863063
-0.293107
0.0765973
-0.291824
0.0669806
-0.290485
0.0576553
-0.289512
0.0488731
-0.290378
0.040317
-0.293107
0.0310933
-0.29669
0.0201843
-0.295104
0.00733138
-0.285124
-0.00584271
-0.280237
-0.0183134
-0.284781
-0.0291201
-0.292523
-0.0384887
-0.292348
-0.047497
-0.288188
-0.0567354
-0.285875
-0.0664301
-0.285775
-0.0762847
-0.28739
-0.0861265
-0.289179
-0.0958937
-0.29075
-0.105643
-0.291893
-0.115457
-0.292553
-0.125381
-0.292913
-0.135423
-0.292942
-0.145556
-0.292503
-0.155703
-0.291431
-0.165768
-0.289657
-0.175727
-0.287256
-0.185704
-0.284455
-0.195962
-0.281618
-0.279202
-0.206744
0.199138
-0.268409
-0.209958
0.188764
-0.271372
0.17857
-0.274461
0.168381
-0.277291
0.158161
-0.279725
0.14794
-0.281703
0.137749
-0.28316
0.127614
-0.284069
0.117553
-0.284502
0.107592
-0.284533
0.0977326
-0.284174
0.0878966
-0.283271
0.0780944
-0.282021
0.0684717
-0.280862
0.059214
-0.280255
0.0504762
-0.28164
0.0417494
-0.28438
0.0320973
-0.287038
0.020553
-0.283559
0.00716322
-0.271734
-0.00634969
-0.266724
-0.0192232
-0.271907
-0.0304881
-0.281258
-0.0402001
-0.282636
-0.0492964
-0.279091
-0.0584929
-0.276679
-0.0681573
-0.27611
-0.0780425
-0.277505
-0.0879775
-0.279244
-0.0978617
-0.280866
-0.107745
-0.28201
-0.117695
-0.282602
-0.127762
-0.282846
-0.137957
-0.282747
-0.148271
-0.28219
-0.158636
-0.281065
-0.16897
-0.279323
-0.179221
-0.277005
-0.18944
-0.274236
-0.199823
-0.271234
-0.268397
-0.210628
0.203316
-0.25756
-0.214165
0.192743
-0.260799
0.182242
-0.26396
0.171746
-0.266795
0.161262
-0.269241
0.150809
-0.27125
0.140408
-0.272759
0.130091
-0.273753
0.119869
-0.27428
0.109749
-0.274413
0.099722
-0.274147
0.0897641
-0.273313
0.079889
-0.272146
0.070285
-0.271258
0.0611012
-0.271071
0.0523397
-0.272879
0.0433245
-0.275365
0.0331367
-0.27685
0.0208603
-0.271283
0.00690631
-0.25778
-0.00697269
-0.252845
-0.0202947
-0.258585
-0.0320856
-0.269467
-0.0422005
-0.272521
-0.0514738
-0.269818
-0.0606378
-0.267515
-0.0702432
-0.266505
-0.0801382
-0.26761
-0.0901558
-0.269227
-0.100157
-0.270865
-0.110193
-0.271974
-0.120283
-0.272512
-0.130474
-0.272656
-0.140816
-0.272405
-0.151301
-0.271704
-0.161873
-0.270493
-0.172459
-0.268737
-0.183004
-0.26646
-0.193517
-0.263724
-0.204096
-0.260655
-0.257545
-0.214948
0.20793
-0.246518
-0.218973
0.197028
-0.249896
0.186169
-0.253102
0.175363
-0.255989
0.164619
-0.258497
0.153939
-0.26057
0.143338
-0.262158
0.132853
-0.263267
0.1225
-0.263928
0.11223
-0.264142
0.102036
-0.263953
0.0919723
-0.263249
0.0820555
-0.262229
0.0724936
-0.261696
0.0633703
-0.261947
0.0545054
-0.264014
0.0450749
-0.265934
0.0342041
-0.265979
0.0211538
-0.258233
0.00656361
-0.24319
-0.0077308
-0.238551
-0.0215681
-0.244748
-0.033958
-0.257077
-0.0445507
-0.261928
-0.0540859
-0.260283
-0.0632544
-0.258346
-0.0727634
-0.256996
-0.0826397
-0.257734
-0.092706
-0.25916
-0.102847
-0.260724
-0.113038
-0.261784
-0.123251
-0.262299
-0.133562
-0.262345
-0.144035
-0.261931
-0.154673
-0.261066
-0.165434
-0.259733
-0.17626
-0.257911
-0.187101
-0.255619
-0.19794
-0.252885
-0.208808
-0.249787
-0.246523
-0.21983
0.212851
-0.23509
-0.224279
0.201533
-0.238578
0.190318
-0.241886
0.179226
-0.244897
0.168241
-0.247512
0.157356
-0.249685
0.146586
-0.251388
0.135962
-0.252643
0.125478
-0.253444
0.115093
-0.253758
0.10476
-0.25362
0.0945889
-0.253078
0.0846846
-0.252325
0.0751878
-0.2522
0.0660854
-0.252845
0.0570208
-0.254949
0.0470346
-0.255948
0.0353723
-0.254317
0.0214425
-0.244303
0.00613546
-0.227883
-0.00864958
-0.223766
-0.0230948
-0.230303
-0.0361729
-0.243999
-0.0473154
-0.250786
-0.0571933
-0.250405
-0.0664326
-0.249107
-0.0758407
-0.247588
-0.0856474
-0.247927
-0.0957155
-0.249092
-0.105998
-0.250441
-0.116312
-0.251469
-0.126644
-0.251967
-0.137075
-0.251915
-0.147656
-0.25135
-0.158415
-0.250307
-0.169329
-0.248819
-0.180364
-0.246876
-0.191482
-0.244501
-0.202663
-0.241704
-0.213905
-0.238545
-0.235158
-0.225271
0.217859
-0.22322
-0.229729
0.206166
-0.226885
0.194667
-0.230388
0.183343
-0.233573
0.172158
-0.236327
0.16111
-0.238637
0.150214
-0.240492
0.139483
-0.241912
0.128884
-0.242844
0.118383
-0.243257
0.107982
-0.243219
0.0977302
-0.242827
0.0878906
-0.242486
0.0784669
-0.242776
0.0693061
-0.243684
0.0599347
-0.245578
0.0492408
-0.245254
0.0366627
-0.241739
0.0217501
-0.22939
0.00563476
-0.211768
-0.00974398
-0.208387
-0.0249103
-0.215136
-0.0387884
-0.230121
-0.0505701
-0.239004
-0.0608841
-0.240091
-0.0702594
-0.239732
-0.0795996
-0.238247
-0.0892765
-0.23825
-0.0993217
-0.239047
-0.109666
-0.240097
-0.120068
-0.241068
-0.130526
-0.241509
-0.141065
-0.241376
-0.151728
-0.240687
-0.162567
-0.239468
-0.173578
-0.237808
-0.18476
-0.235694
-0.196094
-0.233166
-0.207569
-0.23023
-0.219179
-0.226935
-0.22338
-0.230956
0.222799
-0.211066
-0.234952
0.210899
-0.214985
0.199235
-0.218724
0.18775
-0.222087
0.176423
-0.225001
0.165276
-0.22749
0.154298
-0.229515
0.143489
-0.231102
0.132792
-0.232148
0.122201
-0.232665
0.111778
-0.232797
0.101563
-0.232611
0.0918138
-0.232736
0.0824507
-0.233413
0.0731211
-0.234355
0.0633163
-0.235773
0.0516868
-0.233625
0.0380705
-0.228123
0.0220629
-0.213383
0.0050596
-0.194764
-0.0109837
-0.192344
-0.0269905
-0.199129
-0.0418262
-0.215286
-0.0543755
-0.226455
-0.0652869
-0.22918
-0.0748691
-0.23015
-0.0841903
-0.228926
-0.0936998
-0.228741
-0.10366
-0.229087
-0.113948
-0.229809
-0.124407
-0.230609
-0.134958
-0.230957
-0.14559
-0.230744
-0.156305
-0.229972
-0.167185
-0.228589
-0.17823
-0.226762
-0.189479
-0.224445
-0.200926
-0.221719
-0.21258
-0.218577
-0.224438
-0.215077
-0.211304
-0.236515
0.227703
-0.198846
-0.239923
0.215802
-0.203083
0.204033
-0.206955
0.192512
-0.210566
0.181085
-0.213574
0.169958
-0.216363
0.158886
-0.218442
0.148079
-0.220296
0.137262
-0.221331
0.126693
-0.222096
0.116275
-0.222379
0.106236
-0.222573
0.0966024
-0.223102
0.0873021
-0.224112
0.0776303
-0.224683
0.0672668
-0.225409
0.0543816
-0.220739
0.0396492
-0.21339
0.0223993
-0.196133
0.00437432
-0.176739
-0.0122889
-0.17568
-0.0293103
-0.182108
-0.0453412
-0.199255
-0.0587791
-0.213017
-0.0705535
-0.217405
-0.0804209
-0.220282
-0.0898178
-0.219529
-0.0991525
-0.219406
-0.108894
-0.219345
-0.118997
-0.219706
-0.129466
-0.22014
-0.139985
-0.220438
-0.150735
-0.219994
-0.161416
-0.219292
-0.172361
-0.217643
-0.183329
-0.215794
-0.194614
-0.213159
-0.206017
-0.210317
-0.217754
-0.20684
-0.229668
-0.203163
-0.199064
-0.241908
0.232509
-0.186478
-0.244878
0.220959
-0.191533
0.208946
-0.194942
0.197781
-0.199401
0.186114
-0.201907
0.175339
-0.205588
0.163957
-0.20706
0.153445
-0.209784
0.142326
-0.210212
0.132089
-0.21186
0.121571
-0.21186
0.111955
-0.212957
0.102287
-0.213434
0.0931632
-0.214989
0.0828133
-0.214333
0.0719537
-0.21455
0.0575069
-0.206293
0.041729
-0.197612
0.0230768
-0.177481
0.00360284
-0.157265
-0.0137147
-0.158363
-0.0321258
-0.163697
-0.0496033
-0.181777
-0.0638896
-0.198731
-0.0768415
-0.204453
-0.0869508
-0.210173
-0.0967299
-0.20975
-0.105667
-0.210469
-0.115337
-0.209675
-0.124924
-0.210119
-0.135491
-0.209573
-0.145631
-0.210299
-0.156685
-0.20894
-0.167021
-0.208955
-0.178262
-0.206403
-0.188835
-0.205221
-0.20034
-0.201654
-0.211337
-0.19932
-0.223271
-0.194906
-0.234792
-0.191641
-0.1866
-0.247257
0.237161
-0.24962
0.226313
0.214216
0.203571
0.1918
0.181348
0.169849
0.159534
0.148403
0.138375
0.128051
0.118634
0.109101
0.099765
0.0889308
0.0772516
0.0616146
0.0448249
0.0246248
0.00340505
-0.0160004
-0.0360008
-0.0548865
-0.0700502
-0.0839684
-0.0946909
-0.104712
-0.113591
-0.122963
-0.132177
-0.142495
-0.152316
-0.16338
-0.173441
-0.184816
-0.195007
-0.206648
-0.21709
-0.229099
-0.239914
-0.25243
0.159351
-0.236313
0.144866
-0.232772
0.131876
-0.228918
0.119824
-0.224462
0.108509
-0.219641
0.0978424
-0.214604
0.0877267
-0.209714
0.0781186
-0.205339
0.0689755
-0.201485
0.0602154
-0.197984
0.0516644
-0.194622
0.0432647
-0.191674
0.0347153
-0.188713
0.0264557
-0.187077
0.0177108
-0.183956
0.0108746
-0.184116
-0.170808
0.153589
-0.222093
0.140186
-0.219369
0.127557
-0.216289
0.115759
-0.212664
0.104681
-0.208563
0.0942694
-0.204193
0.0844202
-0.199865
0.0750507
-0.19597
0.0661019
-0.192536
0.0575309
-0.189413
0.0492367
-0.186327
0.0411629
-0.1836
0.0331043
-0.180655
0.0251128
-0.179086
0.0169849
-0.175828
0.0090969
-0.176228
-0.161711
0.149098
-0.207288
0.135507
-0.205778
0.123075
-0.203856
0.111545
-0.201135
0.100753
-0.197771
0.0906332
-0.194073
0.0810847
-0.190316
0.0719937
-0.186879
0.063282
-0.183825
0.0549217
-0.181053
0.0468535
-0.178259
0.039053
-0.175799
0.0313548
-0.172956
0.023742
-0.171473
0.0160799
-0.168166
0.0083275
-0.168475
-0.153384
0.142879
-0.194359
0.130358
-0.193257
0.118419
-0.191917
0.107193
-0.189909
0.0967049
-0.187283
0.0868884
-0.184257
0.0776539
-0.181082
0.0688609
-0.178086
0.0604095
-0.175373
0.0522802
-0.172924
0.0444519
-0.170431
0.03692
-0.168267
0.0295574
-0.165594
0.0223129
-0.164229
0.0150696
-0.160923
0.0076909
-0.161097
-0.145693
0.137806
-0.181052
0.125344
-0.180795
0.113684
-0.180256
0.102773
-0.178998
0.092594
-0.177104
0.0830887
-0.174752
0.0741811
-0.172174
0.0657117
-0.169617
0.0575579
-0.16722
0.0496874
-0.165053
0.0421097
-0.162853
0.0348254
-0.160983
0.0277795
-0.158548
0.02089
-0.157339
0.0140705
-0.154103
0.00711096
-0.154137
-0.138582
0.13123
-0.169655
0.119845
-0.16941
0.108789
-0.169201
0.098276
-0.168484
0.088426
-0.167254
0.0792425
-0.165568
0.070655
-0.163586
0.0625185
-0.16148
0.0546952
-0.159396
0.047128
-0.157486
0.0398343
-0.155559
0.0328061
-0.153955
0.0260664
-0.151808
0.019507
-0.15078
0.0130924
-0.147689
0.00654933
-0.147594
-0.132033
0.125607
-0.15814
0.11456
-0.158362
0.103911
-0.158552
0.0937856
-0.158359
0.084268
-0.157736
0.075398
-0.156698
0.0671065
-0.155295
0.0592885
-0.153662
0.0518099
-0.151918
0.0445887
-0.150265
0.0376145
-0.148585
0.0308715
-0.147212
0.0244208
-0.145357
0.0181814
-0.14454
0.0121346
-0.141642
0.00599929
-0.141459
-0.126033
0.11865
-0.148564
0.108805
-0.148517
0.0989051
-0.148653
0.0892964
-0.14875
0.0801653
-0.148605
0.0715987
-0.148132
0.0635723
-0.147269
0.0560353
-0.146125
0.0488847
-0.144767
0.0420296
-0.14341
0.0354089
-0.141965
0.0290138
-0.140817
0.0228623
-0.139206
0.0169606
-0.138639
0.0112464
-0.135928
0.00549075
-0.135703
-0.120543
0.112364
-0.139277
0.10311
-0.139262
0.0938915
-0.139435
0.0848592
-0.139718
0.076165
-0.139911
0.0679147
-0.139881
0.0601534
-0.139507
0.0528466
-0.138818
0.0459717
-0.137892
0.0394541
-0.136892
0.0331983
-0.135709
0.0271999
-0.134818
0.0213828
-0.133389
0.0158289
-0.133085
0.0104442
-0.130543
0.0050475
-0.130306
-0.115495
0.104725
-0.131722
0.0967962
-0.131333
0.0886561
-0.131294
0.0804079
-0.13147
0.0722768
-0.13178
0.0644273
-0.132032
0.0569494
-0.132029
0.0498832
-0.131752
0.043221
-0.13123
0.0369518
-0.130623
0.031001
-0.129758
0.0253497
-0.129167
0.0199006
-0.12794
0.0147235
-0.127908
0.00968208
-0.125502
0.00466426
-0.125289
-0.110831
0.097321
-0.124898
0.090334
-0.124346
0.0831161
-0.124077
0.0757903
-0.124144
0.0684363
-0.124426
0.0611256
-0.124721
0.0540465
-0.12495
0.0472785
-0.124984
0.0408554
-0.124807
0.0347678
-0.124535
0.0290384
-0.124029
0.0236458
-0.123774
0.0184996
-0.122794
0.0136685
-0.123076
0.00893345
-0.120767
0.00432325
-0.120678
-0.106508
0.0887262
-0.119443
0.0830023
-0.118622
0.0770189
-0.118093
0.0707817
-0.117907
0.0643542
-0.117999
0.057868
-0.118235
0.0513954
-0.118478
0.0450402
-0.118629
0.0389191
-0.118686
0.0330739
-0.11869
0.0275157
-0.11847
0.0222668
-0.118525
0.0173046
-0.117831
0.0127179
-0.11849
0.00823242
-0.116281
0.00393913
-0.116385
-0.102569
0.0797972
-0.114771
0.0751167
-0.113942
0.0702754
-0.113252
0.065202
-0.112833
0.059866
-0.112663
0.0543113
-0.11268
0.0486289
-0.112795
0.0429472
-0.112947
0.0373283
-0.113067
0.0318227
-0.113184
0.0264697
-0.113117
0.021317
-0.113373
0.0164851
-0.113
0.0119894
-0.113994
0.0077981
-0.11209
0.00369518
-0.112282
-0.0988734
0.0702695
-0.111074
0.0665046
-0.110177
0.0626807
-0.109428
0.0587223
-0.108875
0.0545414
-0.108482
0.0500898
-0.108229
0.0453987
-0.108104
0.0405411
-0.10809
0.0355954
-0.108121
0.0306291
-0.108218
0.0257293
-0.108218
0.020865
-0.108509
0.0161186
-0.108253
0.0115118
-0.109387
0.00757157
-0.10815
0.00356976
-0.10828
-0.0953037
0.0600307
-0.108245
0.0572529
-0.107399
0.0543707
-0.106546
0.0513407
-0.105845
0.0481474
-0.105288
0.0447677
-0.104849
0.0411712
-0.104508
0.0373384
-0.104257
0.0332981
-0.104081
0.0290741
-0.103994
0.0247461
-0.10389
0.0202856
-0.104048
0.0157851
-0.103753
0.011092
-0.104694
0.00695643
-0.104014
0.00319598
-0.10452
-0.0921077
0.0491559
-0.106049
0.0470423
-0.105286
0.0449989
-0.104502
0.0429055
-0.103751
0.0406677
-0.103051
0.0382453
-0.102426
0.0356202
-0.101883
0.0327712
-0.101408
0.0296893
-0.100999
0.026358
-0.100663
0.0228051
-0.100337
0.0189562
-0.100199
0.014946
-0.0997424
0.0104671
-0.100215
0.00611035
-0.0996572
0.00279229
-0.101202
-0.0893154
0.0371021
-0.104456
0.035643
-0.103827
0.0342208
-0.10308
0.0328268
-0.102357
0.031408
-0.101632
0.0299076
-0.100926
0.0282632
-0.100238
0.0264279
-0.0995725
0.0243643
-0.0989354
0.022034
-0.0983327
0.0194251
-0.0977276
0.0164652
-0.0972393
0.0132189
-0.0964961
0.009538
-0.0965345
0.00569775
-0.095817
0.00251966
-0.0980237
-0.0867957
0.0254066
-0.103162
0.0241854
-0.102606
0.0230932
-0.101988
0.0221056
-0.10137
0.0211832
-0.10071
0.0202874
-0.10003
0.0193698
-0.0993205
0.0183841
-0.0985869
0.0172839
-0.0978351
0.0160112
-0.09706
0.0145331
-0.0962495
0.0127542
-0.0954605
0.0106762
-0.094418
0.00811784
-0.0939761
0.00536051
-0.0930596
0.00198874
-0.0946519
-0.084807
0.0134517
-0.102152
0.0125866
-0.10174
0.011835
-0.101236
0.0111781
-0.100713
0.0106152
-0.100147
0.0101319
-0.0995469
0.00971178
-0.0989005
0.00933281
-0.0982079
0.008965
-0.0974673
0.0085724
-0.0966674
0.00812367
-0.0958008
0.00751451
-0.0948513
0.00677888
-0.0936824
0.00559593
-0.0927932
0.00420838
-0.0916721
0.00120872
-0.0916523
-0.0835983
0.00227339
-0.101627
0.0017001
-0.101167
0.00121826
-0.100754
0.000827193
-0.100322
0.000542607
-0.099862
0.000363344
-0.0993676
0.000294674
-0.0988318
0.000338152
-0.0982514
0.000492872
-0.097622
0.00075655
-0.096931
0.00111579
-0.09616
0.00152361
-0.0952591
0.00199833
-0.0941571
0.00217736
-0.0929722
0.00211085
-0.0916056
0.000394667
-0.0899361
-0.0832036
-0.008123
-0.101368
-0.00822233
-0.101068
-0.00823316
-0.100744
-0.00818046
-0.100374
-0.00805978
-0.0999827
-0.00785714
-0.0995702
-0.00754967
-0.0991393
-0.00711302
-0.098688
-0.00652502
-0.09821
-0.00576491
-0.0976912
-0.00481943
-0.0971055
-0.0036712
-0.0964073
-0.00233228
-0.095496
-0.001036
-0.0942685
3.86876e-06
-0.0926454
-0.000295422
-0.0896368
-0.083499
-0.0180016
-0.102098
-0.0174263
-0.101643
-0.0168575
-0.101312
-0.0162564
-0.100975
-0.0155966
-0.100643
-0.0148684
-0.100298
-0.0140591
-0.0999486
-0.0131508
-0.0995963
-0.012118
-0.0992428
-0.010929
-0.0988802
-0.00954051
-0.098494
-0.00790733
-0.0980405
-0.00601283
-0.0973905
-0.00396147
-0.0963198
-0.00203079
-0.0945761
-0.000958907
-0.0907087
-0.0844579
-0.0268124
-0.102961
-0.0257065
-0.102749
-0.0245115
-0.102508
-0.0232781
-0.102209
-0.0220054
-0.101915
-0.0206823
-0.101622
-0.019296
-0.101335
-0.0178387
-0.101054
-0.0163021
-0.100779
-0.0146684
-0.100514
-0.0129066
-0.100256
-0.0109696
-0.0999775
-0.00880882
-0.0995513
-0.00640751
-0.0987211
-0.00386925
-0.0971144
-0.00170764
-0.0928703
-0.0861656
-0.0349983
-0.105381
-0.0328968
-0.104851
-0.0309208
-0.104483
-0.0289562
-0.104173
-0.0269864
-0.103885
-0.0250044
-0.103604
-0.023012
-0.103327
-0.0210103
-0.103055
-0.0189986
-0.102791
-0.0169721
-0.10254
-0.0149167
-0.102311
-0.0127938
-0.1021
-0.0105443
-0.101801
-0.00806146
-0.101204
-0.00527652
-0.0998993
-0.00244833
-0.0956985
-0.0886139
-0.0420983
-0.107671
-0.0394496
-0.107499
-0.0367265
-0.107206
-0.0340243
-0.106876
-0.0313641
-0.106545
-0.0287439
-0.106224
-0.0261684
-0.105903
-0.0236403
-0.105583
-0.0211639
-0.105268
-0.0187428
-0.104961
-0.0163757
-0.104678
-0.0140481
-0.104428
-0.0117104
-0.104138
-0.0092237
-0.103691
-0.00639151
-0.102731
-0.00321184
-0.0988782
-0.0918258
-0.0493389
-0.111785
-0.0457556
-0.111082
-0.0423375
-0.110625
-0.0389926
-0.110221
-0.035721
-0.109817
-0.0325306
-0.109414
-0.0294275
-0.109006
-0.0264142
-0.108597
-0.0234937
-0.108188
-0.0206699
-0.107785
-0.0179479
-0.1074
-0.0153292
-0.107047
-0.0127773
-0.10669
-0.0101732
-0.106295
-0.00732896
-0.105576
-0.00385466
-0.102352
-0.0956804
-0.0562708
-0.115472
-0.0522072
-0.115146
-0.0481586
-0.114673
-0.0442256
-0.114154
-0.0404152
-0.113627
-0.0367243
-0.113105
-0.0331504
-0.11258
-0.0296913
-0.112056
-0.0263452
-0.111534
-0.0231094
-0.111021
-0.0199803
-0.110529
-0.0169572
-0.11007
-0.0140228
-0.109625
-0.0110756
-0.109242
-0.00809552
-0.108556
-0.0044037
-0.106044
-0.100084
-0.0635659
-0.120897
-0.0587994
-0.119912
-0.0542457
-0.119227
-0.0498312
-0.118568
-0.0455533
-0.117905
-0.0414114
-0.117247
-0.0374001
-0.116591
-0.0335111
-0.115945
-0.0297332
-0.115312
-0.0260581
-0.114696
-0.0224658
-0.114122
-0.0189611
-0.113574
-0.015525
-0.113061
-0.0121485
-0.112619
-0.00879009
-0.111914
-0.00477473
-0.11006
-0.104859
-0.0709139
-0.125724
-0.0657268
-0.1251
-0.0606672
-0.124287
-0.055783
-0.123452
-0.0510586
-0.122629
-0.0464787
-0.121827
-0.0420292
-0.121041
-0.037697
-0.120277
-0.0334582
-0.119551
-0.0292947
-0.11886
-0.0252123
-0.118204
-0.0212022
-0.117585
-0.0172548
-0.117008
-0.0133498
-0.116524
-0.00939332
-0.115871
-0.00501522
-0.114438
-0.109874
-0.078414
-0.132149
-0.0727244
-0.130789
-0.0672494
-0.129762
-0.0619353
-0.128766
-0.0567702
-0.127795
-0.0517419
-0.126855
-0.0468356
-0.125947
-0.0420297
-0.125083
-0.0373064
-0.124274
-0.0326569
-0.123509
-0.0280687
-0.122792
-0.0235328
-0.12212
-0.0190363
-0.121505
-0.014559
-0.121001
-0.0100471
-0.120383
-0.00528561
-0.119199
-0.11516
-0.0860022
-0.137956
-0.0798809
-0.13691
-0.0739285
-0.135714
-0.0681579
-0.134537
-0.0625394
-0.133413
-0.0570503
-0.132344
-0.0516719
-0.131325
-0.0463876
-0.130367
-0.0411776
-0.129484
-0.0360292
-0.128657
-0.0309294
-0.127892
-0.025868
-0.127182
-0.0208309
-0.126542
-0.015808
-0.126024
-0.0107791
-0.125411
-0.00560268
-0.124376
-0.120762
-0.0934784
-0.145254
-0.0869192
-0.14347
-0.0805577
-0.142075
-0.0743479
-0.140747
-0.0682757
-0.139485
-0.0623236
-0.138296
-0.0564716
-0.137177
-0.0507076
-0.136131
-0.0450171
-0.135175
-0.0393778
-0.134297
-0.0337797
-0.13349
-0.0282101
-0.132751
-0.0226587
-0.132093
-0.0171292
-0.131553
-0.0116012
-0.13094
-0.00596648
-0.13001
-0.126729
-0.100979
-0.151986
-0.0939549
-0.150494
-0.0871192
-0.148911
-0.080461
-0.147405
-0.0739427
-0.146004
-0.0675376
-0.144701
-0.0612245
-0.14349
-0.0549843
-0.142371
-0.0488197
-0.141339
-0.0427024
-0.140414
-0.0366201
-0.139573
-0.0305638
-0.138808
-0.0245259
-0.138131
-0.0185118
-0.137567
-0.0124918
-0.13696
-0.00637085
-0.136131
-0.1331
-0.108191
-0.160132
-0.100782
-0.157903
-0.0935586
-0.156134
-0.0864806
-0.154483
-0.079531
-0.152953
-0.072688
-0.151544
-0.0659296
-0.150249
-0.0592382
-0.149063
-0.052598
-0.147979
-0.0460175
-0.146995
-0.0394641
-0.146126
-0.0329318
-0.14534
-0.0264165
-0.144647
-0.0199228
-0.144061
-0.0134206
-0.143462
-0.00682566
-0.142726
-0.139925
-0.115416
-0.167726
-0.107551
-0.165769
-0.0998869
-0.163798
-0.0923937
-0.161976
-0.0850276
-0.160319
-0.0777605
-0.158812
-0.070571
-0.157438
-0.0634412
-0.156193
-0.0563572
-0.155064
-0.049308
-0.154044
-0.0423017
-0.153132
-0.0353095
-0.152332
-0.0283277
-0.151628
-0.0213595
-0.151029
-0.0143784
-0.150443
-0.00732144
-0.149783
-0.147247
-0.122281
-0.176653
-0.114094
-0.173956
-0.106077
-0.171815
-0.0981922
-0.169861
-0.0904218
-0.16809
-0.0827419
-0.166491
-0.0751318
-0.165048
-0.0675746
-0.16375
-0.0600562
-0.162582
-0.0525641
-0.161536
-0.0450954
-0.160601
-0.0376528
-0.159775
-0.0302192
-0.159062
-0.0227979
-0.158451
-0.0153576
-0.157883
-0.00784055
-0.1573
-0.155087
-0.129185
-0.185009
-0.12057
-0.182571
-0.112154
-0.18023
-0.103887
-0.178128
-0.0957278
-0.176249
-0.0876486
-0.174571
-0.079631
-0.173066
-0.0716586
-0.171722
-0.063718
-0.170523
-0.0557978
-0.169456
-0.0478884
-0.168511
-0.0399849
-0.167678
-0.0320968
-0.16695
-0.0242147
-0.166333
-0.0163167
-0.165781
-0.0083464
-0.16527
-0.163434
-0.13572
-0.194571
-0.126853
-0.191438
-0.118126
-0.188957
-0.109505
-0.186749
-0.100976
-0.184779
-0.0925165
-0.18303
-0.0841085
-0.181474
-0.075736
-0.180095
-0.0673859
-0.178873
-0.0590481
-0.177794
-0.0507139
-0.176845
-0.0423774
-0.176015
-0.034032
-0.175295
-0.0256776
-0.174687
-0.0172923
-0.174166
-0.00886411
-0.173699
-0.172298
-0.142287
-0.203541
-0.133037
-0.200689
-0.123958
-0.198035
-0.114993
-0.195714
-0.106108
-0.193664
-0.0972812
-0.191857
-0.0884951
-0.19026
-0.0797344
-0.188855
-0.0709861
-0.187621
-0.0622401
-0.18654
-0.053488
-0.185597
-0.0447233
-0.184779
-0.0359413
-0.184077
-0.0271428
-0.183486
-0.0183115
-0.182998
-0.00939986
-0.18261
-0.181698
-0.148381
-0.213642
-0.138912
-0.210158
-0.129523
-0.207423
-0.120196
-0.205041
-0.110934
-0.202927
-0.10172
-0.201071
-0.0925401
-0.19944
-0.0833811
-0.198014
-0.0742325
-0.19677
-0.0650865
-0.195686
-0.0559356
-0.194748
-0.0467703
-0.193945
-0.0375783
-0.193269
-0.0283505
-0.192713
-0.0190793
-0.192269
-0.00976347
-0.191926
-0.191461
-0.200473
-0.17386
0.214359
-0.187741
-0.179114
-0.174787
-0.184308
-0.162804
-0.189158
-0.150756
-0.193828
-0.13948
-0.198265
-0.128181
-0.202508
-0.117494
-0.206477
-0.106858
-0.210207
-0.0967067
-0.213661
-0.0866486
-0.21685
-0.0769572
-0.219759
-0.0673799
-0.222381
-0.0580655
-0.224715
-0.0488681
-0.226747
-0.0398411
-0.228482
-0.0309183
-0.229904
-0.0220846
-0.231018
-0.0133289
-0.231814
-0.00459195
-0.232294
0.00410596
-0.232453
0.0128434
-0.232295
0.0215963
-0.231814
0.0304303
-0.231019
0.0393478
-0.229904
0.0483752
-0.22848
0.0575649
-0.226744
0.0668803
-0.224709
0.0764478
-0.222371
0.0861411
-0.219745
0.0961878
-0.21683
0.106343
-0.213636
0.116966
-0.210174
0.12766
-0.206437
0.138948
-0.20246
0.150229
-0.198203
0.162254
-0.193747
0.174235
-0.189061
0.187153
-0.184191
0.199845
-0.179
-0.17373
-0.19763
-0.186876
0.210646
-0.184941
-0.191803
-0.172657
-0.196592
-0.160713
-0.201103
-0.149117
-0.205423
-0.13785
-0.209533
-0.126903
-0.213455
-0.116261
-0.217119
-0.105898
-0.22057
-0.0958041
-0.223756
-0.0859452
-0.226709
-0.0763158
-0.229388
-0.0668792
-0.231817
-0.0576289
-0.233966
-0.0485285
-0.235847
-0.0395667
-0.237444
-0.0307104
-0.23876
-0.0219428
-0.239786
-0.0132349
-0.240521
-0.00456521
-0.240964
0.00409236
-0.24111
0.0127617
-0.240964
0.0214683
-0.240521
0.0302346
-0.239785
0.0390885
-0.238758
0.0480481
-0.23744
0.0571452
-0.235841
0.0663927
-0.233957
0.0758255
-0.231804
0.0854517
-0.229371
0.0953069
-0.226686
0.105398
-0.223727
0.115758
-0.220534
0.126397
-0.217076
0.137338
-0.213402
0.148605
-0.20947
0.1602
-0.205342
0.17214
-0.201001
0.184439
-0.19649
0.197135
-0.191696
-0.186752
-0.195114
-0.199644
0.207881
-0.182704
-0.204214
-0.170678
-0.208617
-0.158964
-0.212816
-0.147581
-0.216807
-0.136498
-0.220615
-0.12573
-0.224223
-0.115236
-0.227614
-0.105017
-0.230788
-0.0950391
-0.233734
-0.0852981
-0.23645
-0.075761
-0.238926
-0.0664191
-0.241159
-0.0572427
-0.243142
-0.048218
-0.244872
-0.0393176
-0.246344
-0.0305228
-0.247555
-0.0218087
-0.2485
-0.0131533
-0.249177
-0.00453352
-0.249584
0.00407455
-0.249718
0.0126941
-0.249584
0.0213487
-0.249175
0.0300613
-0.248498
0.0388546
-0.247551
0.0477527
-0.246338
0.0567753
-0.244864
0.0659489
-0.24313
0.0752884
-0.241144
0.0848226
-0.238905
0.0945615
-0.236424
0.104537