/*--------------------------------*- C++ -*----------------------------------*\
  =========                 |
  \\      /  F ield         | OpenFOAM: The Open Source CFD Toolbox
   \\    /   O peration     | Website:  https://openfoam.org
    \\  /    A nd           | Version:  6
     \\/     M anipulation  |
\*---------------------------------------------------------------------------*/
FoamFile
{
    version     2.0;
    format      ascii;
    class       volScalarField;
    location    "3.77";
    object      p;
}
// * * * * * * * * * * * * * * * * * * * * * * * * * * * * * * * * * * * * * //

dimensions      [0 2 -2 0 0 0 0];

internalField   nonuniform List<scalar> 
4214
(
-0.362399
-0.412085
-0.318034
-0.217149
-0.152138
-0.0926627
-0.0520134
-0.024138
0.00451324
0.0358179
0.0659892
0.101497
0.149092
0.220591
0.300594
0.389338
0.375168
0.323168
0.248119
0.182671
0.0212497
-0.212273
-0.426236
-0.572312
-0.623874
-0.647136
-0.643986
-0.561588
-0.475482
-0.378429
-0.277177
-0.199275
-0.152633
-0.13911
-0.148656
-0.167697
-0.19622
-0.259791
-0.388484
-0.505562
-0.429437
-0.00644184
-0.168382
-0.197833
-0.10638
-0.0795917
-0.0633223
-0.043256
-0.0269465
-0.0114321
0.0156938
0.0512225
0.0949386
0.161826
0.237103
0.289532
0.410548
0.48372
0.418788
0.197064
-0.0458506
-0.418482
-0.890488
-1.41004
-1.82518
-1.98793
-1.90249
-1.76635
-1.51289
-1.18223
-0.876414
-0.610997
-0.417042
-0.28674
-0.2101
-0.16886
-0.141487
-0.11834
-0.140191
-0.208518
-0.149945
0.0545588
-0.105568
-0.22256
-0.258031
-0.165524
-0.110936
-0.0939836
-0.0690393
-0.0302319
0.0162385
0.0722163
0.142017
0.227048
0.34165
0.454709
0.586138
0.747622
0.742181
0.556047
0.246538
-0.14294
-0.717946
-1.4468
-2.2412
-2.97145
-3.45366
-3.71035
-3.72394
-3.31189
-2.76626
-2.19193
-1.64691
-1.19157
-0.848566
-0.627201
-0.493022
-0.409709
-0.339188
-0.334874
-0.367109
-0.282018
-0.150573
-0.175999
-0.22935
-0.264478
-0.194878
-0.128769
-0.0955944
-0.0554486
0.00377118
0.0690724
0.146997
0.242893
0.361856
0.512373
0.640006
0.787802
0.915444
0.85138
0.598
0.188233
-0.345817
-1.08054
-2.03275
-3.10379
-4.14852
-4.98223
-5.42965
-5.57043
-5.37801
-4.81409
-3.95306
-3.06538
-2.27434
-1.61846
-1.14968
-0.838978
-0.648194
-0.513272
-0.466784
-0.467772
-0.3558
-0.338789
-0.256607
-0.276253
-0.28774
-0.221025
-0.144955
-0.0900629
-0.0306008
0.0504945
0.140607
0.246135
0.371655
0.517417
0.676095
0.829334
0.984041
1.03834
0.921623
0.602318
0.087078
-0.577172
-1.44483
-2.54755
-3.8291
-5.13179
-6.26436
-7.05797
-7.41058
-7.46561
-6.99977
-6.06559
-4.91992
-3.7727
-2.79417
-1.97882
-1.40161
-1.01643
-0.761036
-0.637885
-0.58775
-0.476745
-0.4928
-0.323618
-0.316869
-0.305376
-0.231851
-0.144524
-0.066419
0.0144876
0.117497
0.23234
0.360977
0.507179
0.667531
0.833401
0.984429
1.0985
1.09021
0.926451
0.528973
-0.0686547
-0.840957
-1.81865
-3.01701
-4.37313
-5.76877
-7.04395
-8.06069
-8.71921
-8.96909
-8.73232
-7.96756
-6.80809
-5.4423
-4.09166
-2.92593
-2.06867
-1.45497
-1.06781
-0.847931
-0.725091
-0.615831
-0.637662
-0.373649
-0.353216
-0.321677
-0.234804
-0.131914
-0.0321645
0.0726873
0.194675
0.330834
0.476395
0.634583
0.801276
0.96105
1.08886
1.14506
1.09199
0.85583
0.39951
-0.247183
-1.07369
-2.09013
-3.29757
-4.62988
-5.98142
-7.23584
-8.28199
-9.03083
-9.4223
-9.39814
-8.92447
-8.05041
-6.83956
-5.37002
-3.95385
-2.75825
-1.96648
-1.46439
-1.15292
-0.935991
-0.785203
-0.773756
-0.41487
-0.387972
-0.337817
-0.232422
-0.111599
0.00883299
0.13523
0.274927
0.425964
0.582399
0.745248
0.906897
1.04106
1.11821
1.1325
1.01149
0.718641
0.233368
-0.428002
-1.24913
-2.22504
-3.3288
-4.52591
-5.74307
-6.88125
-7.80285
-8.44341
-8.78555
-8.79362
-8.48233
-7.82754
-6.85313
-5.6634
-4.42395
-3.27971
-2.34583
-1.66658
-1.23879
-0.981165
-0.871938
-0.854066
-0.454792
-0.420696
-0.354428
-0.228394
-0.0900695
0.0487483
0.193744
0.347771
0.507713
0.667961
0.82367
0.957928
1.04608
1.08561
1.04204
0.86163
0.532561
0.0391042
-0.608695
-1.38857
-2.28735
-3.27677
-4.31669
-5.33798
-6.23113
-6.89253
-7.32028
-7.49086
-7.3675
-7.02448
-6.48175
-5.76655
-4.91264
-3.92576
-2.93154
-2.03976
-1.39906
-1.01672
-0.841447
-0.804039
-0.794169
-0.503561
-0.461825
-0.380034
-0.230298
-0.0706528
0.0823317
0.23815
0.396817
0.552393
0.697874
0.8276
0.929446
0.991129
0.992447
0.883281
0.654878
0.30445
-0.184651
-0.80116
-1.52592
-2.33791
-3.21332
-4.09178
-4.89503
-5.5323
-5.95522
-6.18339
-6.1596
-5.76651
-5.23296
-4.6001
-3.90611
-3.2062
-2.52535
-1.8723
-1.26926
-0.823645
-0.586171
-0.493623
-0.527228
-0.569497
-0.576029
-0.529981
-0.438934
-0.269036
-0.0947537
0.0673324
0.226586
0.381833
0.52662
0.656536
0.762674
0.833115
0.858961
0.805639
0.655349
0.391282
0.0263426
-0.450602
-1.03137
-1.69674
-2.42844
-3.19959
-3.94911
-4.59265
-5.06391
-5.30337
-5.38537
-5.15276
-4.58064
-3.817
-2.95768
-2.09812
-1.34986
-0.774054
-0.361333
-0.0648263
0.123508
0.184988
0.148787
-0.0414332
-0.217054
-0.69469
-0.642715
-0.549432
-0.365816
-0.178128
-0.0117674
0.147756
0.299577
0.437876
0.549598
0.630488
0.666045
0.632194
0.519642
0.327582
0.0449058
-0.331585
-0.794638
-1.34169
-1.95601
-2.6184
-3.2995
-3.95432
-4.51985
-4.90405
-5.05557
-4.95573
-4.56935
-3.88504
-2.96781
-1.89725
-0.800263
0.143126
0.803214
1.1532
1.27235
1.27578
1.10459
0.816853
0.476386
0.168566
-0.882537
-0.828872
-0.728697
-0.53102
-0.334375
-0.166792
-0.0098042
0.131368
0.251845
0.345631
0.404695
0.40924
0.330154
0.17717
-0.0500371
-0.364053
-0.754795
-1.2186
-1.75409
-2.34811
-2.97802
-3.61132
-4.21311
-4.72946
-5.09648
-5.18062
-5.03927
-4.58004
-3.78711
-2.69455
-1.39403
-0.074916
1.07584
1.92044
2.35419
2.41359
2.20723
1.83445
1.38863
0.934814
0.512641
-1.17148
-1.1034
-0.982225
-0.78561
-0.589376
-0.42959
-0.284369
-0.162978
-0.0604058
0.00784825
0.0391287
-0.000342532
-0.102368
-0.269704
-0.493154
-0.816734
-1.21718
-1.70316
-2.25982
-2.87643
-3.52296
-4.16761
-4.77309
-5.2556
-5.56105
-5.54819
-5.36613
-4.87325
-4.00917
-2.81782
-1.38101
0.149298
1.53372
2.52092
3.03234
3.0795
2.75877
2.23233
1.62766
1.04438
0.536376
-1.61268
-1.4944
-1.33434
-1.13926
-0.962006
-0.804492
-0.67772
-0.575105
-0.495554
-0.448123
-0.469731
-0.57318
-0.710638
-0.914888
-1.17419
-1.53498
-1.95067
-2.46468
-3.01224
-3.6346
-4.26504
-4.93335
-5.53922
-5.99517
-6.1666
-6.11685
-5.88285
-5.35753
-4.41921
-3.13149
-1.58446
0.0374083
1.52044
2.63197
3.20352
3.22355
2.80722
2.15192
1.44236
0.79693
0.24826
-2.48839
-2.21858
-2.06351
-1.75563
-1.65387
-1.41073
-1.31805
-1.17023
-1.10995
-1.04188
-1.07251
-1.19905
-1.38353
-1.64083
-1.9563
-2.40538
-2.87127
-3.46257
-4.03688
-4.73111
-5.32841
-6.02962
-6.48764
-7.00672
-7.00166
-6.91767
-6.58428
-5.97063
-4.9455
-3.55269
-1.9358
-0.222014
1.30778
2.41381
2.92801
2.85425
2.31478
1.53927
0.761265
0.0824117
-0.473703
-4.06897
-3.48821
-3.51444
-2.86164
-2.94417
-2.44296
-2.44315
-2.11292
-2.07619
-1.93338
-1.93369
-1.96175
-2.18071
-2.45975
-2.77665
-3.26746
-3.67984
-4.38952
-4.88068
-5.81238
-6.37904
-7.44267
-7.54091
-8.20017
-8.07115
-7.9749
-7.50233
-6.86293
-5.60907
-4.09716
-2.31761
-0.529079
0.854692
1.95301
2.013
1.85762
1.02794
0.241286
-0.579898
-1.17342
-1.7044
-2.10388
-1.01175
-0.272972
0.10997
0.153011
-0.0004027
-0.209207
-0.422677
-0.620366
-0.733697
-0.736779
-0.701644
-0.619535
-0.542177
-0.433494
-0.449118
-0.528752
-2.47132
-1.48724
-0.77193
-0.317306
-0.173877
-0.214873
-0.321682
-0.462931
-0.591148
-0.67952
-0.717551
-0.711983
-0.667011
-0.613014
-0.520676
-0.506368
-0.47157
-2.68555
-1.85933
-1.19815
-0.724397
-0.491267
-0.445402
-0.472442
-0.536991
-0.617169
-0.678775
-0.709226
-0.716744
-0.695909
-0.664783
-0.598872
-0.597589
-0.500105
-2.86458
-2.1507
-1.55327
-1.09525
-0.79868
-0.680595
-0.645856
-0.654896
-0.682146
-0.71079
-0.729889
-0.736737
-0.723071
-0.696832
-0.644163
-0.648754
-0.557151
-2.94431
-2.35808
-1.83853
-1.4136
-1.09387
-0.917129
-0.833315
-0.794314
-0.780908
-0.780225
-0.780638
-0.776802
-0.762896
-0.740543
-0.700691
-0.696533
-0.613579
-3.01219
-2.51216
-2.06211
-1.67657
-1.36442
-1.14655
-1.025
-0.950924
-0.904096
-0.875845
-0.856455
-0.839177
-0.818275
-0.793255
-0.760909
-0.739661
-0.671397
-2.99644
-2.6078
-2.23037
-1.88926
-1.59842
-1.36661
-1.21435
-1.1155
-1.04421
-0.992725
-0.954565
-0.923072
-0.892751
-0.860744
-0.82766
-0.793367
-0.73755
-2.9782
-2.6652
-2.35843
-2.06168
-1.79619
-1.5716
-1.39772
-1.2805
-1.19326
-1.12479
-1.07081
-1.02624
-0.986374
-0.946561
-0.90922
-0.864493
-0.814433
-2.92555
-2.68066
-2.43751
-2.19357
-1.9619
-1.75379
-1.57587
-1.44235
-1.34419
-1.26532
-1.20015
-1.14524
-1.09722
-1.05065
-1.00868
-0.959238
-0.905953
-2.87401
-2.6717
-2.48252
-2.28522
-2.09149
-1.91041
-1.7446
-1.60074
-1.49307
-1.40828
-1.33699
-1.27552
-1.22179
-1.17058
-1.12491
-1.07305
-1.01519
-2.79811
-2.64356
-2.49368
-2.33791
-2.18121
-2.02999
-1.88699
-1.754
-1.63908
-1.54929
-1.47548
-1.41145
-1.35516
-1.30214
-1.25494
-1.20277
-1.1437
-2.73223
-2.60515
-2.4857
-2.36411
-2.23945
-2.11648
-1.99751
-1.88373
-1.7769
-1.68512
-1.61037
-1.54675
-1.49123
-1.43934
-1.39355
-1.34348
-1.28868
-2.64968
-2.5538
-2.45901
-2.36322
-2.26778
-2.17187
-2.07642
-1.98296
-1.89322
-1.80831
-1.73578
-1.67474
-1.6228
-1.57489
-1.53416
-1.48793
-1.44146
-2.57854
-2.49852
-2.42225
-2.34479
-2.27073
-2.19826
-2.1252
-2.05223
-1.98062
-1.91133
-1.84546
-1.78884
-1.74197
-1.70028
-1.66649
-1.62704
-1.59457
-2.49348
-2.43375
-2.37281
-2.3107
-2.25159
-2.19679
-2.1435
-2.08992
-2.03648
-1.98398
-1.93296
-1.88449
-1.84173
-1.8075
-1.7809
-1.75073
-1.73399
-2.41666
-2.36436
-2.31676
-2.26608
-2.21747
-2.17321
-2.13243
-2.09404
-2.0567
-2.02005
-1.98422
-1.94993
-1.91657
-1.88992
-1.86732
-1.84805
-1.84398
-2.32338
-2.28664
-2.24841
-2.20924
-2.17106
-2.13503
-2.10169
-2.07128
-2.04367
-2.01851
-1.99529
-1.97401
-1.95372
-1.93736
-1.91917
-1.9112
-1.91192
-2.23949
-2.20397
-2.1733
-2.14183
-2.11167
-2.08369
-2.05764
-2.0333
-2.01108
-1.99112
-1.97363
-1.95899
-1.94674
-1.94029
-1.93197
-1.93273
-1.93191
-2.14287
-2.116
-2.08767
-2.06079
-2.03604
-2.01319
-1.99221
-1.97324
-1.95634
-1.9415
-1.92894
-1.9187
-1.91032
-1.90522
-1.89883
-1.90501
-1.89971
-2.05826
-2.02707
-1.99903
-1.97311
-1.94943
-1.92755
-1.90764
-1.88982
-1.874
-1.86012
-1.84845
-1.83878
-1.83058
-1.82652
-1.81896
-1.82378
-1.81122
-1.96187
-1.94048
-1.90832
-1.88093
-1.85728
-1.83466
-1.8136
-1.79444
-1.77693
-1.76099
-1.74674
-1.73332
-1.72054
-1.71238
-1.69636
-1.69675
-1.66664
-1.87689
-1.84945
-1.81697
-1.78898
-1.76401
-1.73983
-1.71716
-1.69543
-1.67381
-1.65212
-1.63001
-1.60615
-1.58166
-1.55814
-1.5206
-1.509
-1.44675
-1.78599
-1.76207
-1.72355
-1.6927
-1.66457
-1.63524
-1.60579
-1.575
-1.54103
-1.50303
-1.46001
-1.41091
-1.35773
-1.30039
-1.23063
-1.18801
-1.07984
-1.69468
-1.66268
-1.61679
-1.57674
-1.53616
-1.49062
-1.43995
-1.38238
-1.31775
-1.24622
-1.16794
-1.08389
-0.996833
-0.906528
-0.808303
-0.734766
-0.602327
-1.58263
-1.54601
-1.48016
-1.41959
-1.35406
-1.27907
-1.19669
-1.10664
-1.00898
-0.904801
-0.795318
-0.682682
-0.57022
-0.457719
-0.345024
-0.257303
-0.120013
-1.4533
-1.3955
-1.30468
-1.21774
-1.12457
-1.02081
-0.909233
-0.790145
-0.664877
-0.535583
-0.404574
-0.274764
-0.149295
-0.0278325
0.0874967
0.178787
0.310105
-1.30129
-1.22287
-1.10432
-0.992267
-0.873628
-0.74379
-0.607184
-0.465573
-0.32126
-0.177045
-0.0356948
0.0998986
0.227392
0.347517
0.457677
0.545442
0.664836
-1.13683
-1.03436
-0.893272
-0.757341
-0.616199
-0.465357
-0.310252
-0.154039
0.000400918
0.150203
0.292796
0.425748
0.547856
0.660564
0.761509
0.842505
0.947823
-0.95722
-0.84196
-0.679943
-0.523607
-0.363599
-0.197251
-0.0303414
0.133153
0.290185
0.438327
0.575713
0.700657
0.813196
0.915638
1.00554
1.0784
1.17026
-0.77835
-0.645119
-0.469699
-0.296701
-0.122234
0.0540361
0.226577
0.39118
0.545041
0.686469
0.814529
0.928632
1.02985
1.12101
1.19969
1.26443
1.34433
-0.59876
-0.454484
-0.267056
-0.0813189
0.103411
0.28458
0.457465
0.618306
0.764951
0.896613
1.0134
1.11586
1.20569
1.28589
1.35417
1.41139
1.48099
-0.449188
-0.276571
-0.0781072
0.117202
0.308366
0.490513
0.659833
0.81356
0.950569
1.07113
1.17637
1.26775
1.34749
1.41818
1.478
1.52909
1.59029
-0.302111
-0.120196
0.0890031
0.291634
0.486429
0.667184
0.830807
0.975873
1.10256
1.21228
1.30712
1.38917
1.46095
1.52466
1.57917
1.62702
1.68285
-0.187536
0.0173543
0.233933
0.440897
0.636443
0.813549
0.970358
1.10684
1.22445
1.32564
1.41327
1.48969
1.55708
1.61699
1.66826
1.71388
1.76583
-0.0636194
0.142401
0.364039
0.572592
0.765786
0.938074
1.08864
1.21841
1.32982
1.42578
1.50905
1.58179
1.64578
1.70207
1.74944
1.79193
1.8399
0.030324
0.262119
0.488038
0.697069
0.887274
1.05453
1.19922
1.32319
1.42934
1.5207
1.5998
1.66857
1.72851
1.78039
1.82331
1.86158
1.90464
0.140636
0.365593
0.596924
0.809202
0.998734
1.16258
1.30245
1.42116
1.52225
1.60898
1.68384
1.7484
1.80385
1.85089
1.88905
1.92252
1.95974
0.218697
0.464819
0.699035
0.911263
1.09861
1.25844
1.39378
1.50815
1.6054
1.68867
1.75996
1.82038
1.87093
1.91259
1.94551
1.97364
2.00404
0.338281
0.591227
0.835482
1.0454
1.22501
1.37525
1.50157
1.60836
1.69925
1.77646
1.84116
1.89419
1.93683
1.97047
1.99605
2.01692
2.03896
0.429452
0.706096
0.951844
1.15929
1.33302
1.47728
1.59835
1.70026
1.7859
1.85693
1.91451
1.95984
1.9947
2.02009
2.03713
2.04971
2.06485
2.87804
2.91962
2.96471
3.00443
3.04884
3.09068
3.1386
3.18471
3.23766
3.28913
3.34847
3.40619
3.47221
3.53506
3.60516
3.66921
3.73658
3.7966
3.84454
3.88293
3.88412
3.87259
3.82739
3.75526
3.63827
3.4711
3.27192
3.01897
2.78415
2.48458
2.25201
1.95115
1.75245
1.49536
1.3354
1.12435
1.001
0.837691
0.743672
0.614744
0.535284
2.88127
2.92417
2.96688
3.00786
3.04829
3.08913
3.13139
3.17571
3.22244
3.27178
3.32435
3.37929
3.43758
3.49687
3.55813
3.61656
3.675
3.72678
3.76773
3.79664
3.79614
3.77951
3.7361
3.66313
3.55349
3.39788
3.21086
2.99017
2.76304
2.51384
2.27227
2.03391
1.82055
1.62173
1.44747
1.2903
1.15442
1.03643
0.935217
0.845954
0.768372
2.90128
2.93879
2.97555
3.01251
3.05052
3.08823
3.12726
3.16818
3.2113
3.25709
3.3055
3.35654
3.40972
3.4646
3.51916
3.57168
3.6225
3.6666
3.70065
3.72139
3.71803
3.69795
3.65393
3.58276
3.47791
3.33344
3.15925
2.96224
2.75185
2.53118
2.31053
2.10028
1.90347
1.72785
1.57102
1.43388
1.31446
1.21309
1.12743
1.05228
0.991492
2.91936
2.95306
2.98592
3.01915
3.05348
3.08894
3.12528
3.1633
3.20342
3.24595
3.29088
3.3381
3.38707
3.43735
3.48644
3.53326
3.57727
3.61447
3.6418
3.65567
3.64938
3.62653
3.58152
3.51245
3.41225
3.27767
3.11769
2.93872
2.74697
2.54801
2.3499
2.16037
1.98303
1.8246
1.68433
1.56222
1.45723
1.36868
1.2952
1.2304
1.18389
2.93353
2.96523
2.99622
3.02728
3.05883
3.09123
3.12488
3.16035
3.19786
3.2376
3.27949
3.32329
3.3685
3.4145
3.45898
3.50053
3.53848
3.56937
3.59052
3.59834
3.58917
3.56372
3.51773
3.45075
3.35458
3.22938
3.08271
2.91957
2.74548
2.56597
2.38801
2.21696
2.05747
1.91443
1.78848
1.67922
1.58612
1.5081
1.44378
1.38665
1.35096
2.94657
2.97643
3.00564
3.03479
3.06428
3.09448
3.12593
3.15896
3.19416
3.23149
3.27076
3.31158
3.35338
3.39545
3.43593
3.47273
3.5052
3.53039
3.54591
3.54847
3.53645
3.50855
3.4619
3.39647
3.30417
3.18769
3.05312
2.90417
2.74631
2.58424
2.42387
2.2696
2.12588
1.99656
1.88277
1.78431
1.70079
1.63107
1.57353
1.52202
1.49422
2.9589
2.98649
3.01422
3.04178
3.06959
3.09803
3.12766
3.15892
3.19199
3.22723
3.2642
3.30242
3.34121
3.37973
3.4166
3.4492
3.4767
3.49679
3.50715
3.50528
3.49043
3.46027
3.4133
3.34857
3.26017
3.15171
3.02782
2.89171
2.74834
2.60205
2.45724
2.31789
2.18802
2.07078
1.96748
1.87813
1.80242
1.73921
1.68684
1.63966
1.61717
2.97112
2.99639
3.02222
3.04827
3.07464
3.10158
3.12978
3.15958
3.19126
3.22456
3.25944
3.29536
3.3315
3.36691
3.40037
3.42936
3.45238
3.46788
3.47346
3.46822
3.45046
3.41827
3.371
3.30641
3.22201
3.12075
3.0063
2.88158
2.75107
2.61875
2.48771
2.36147
2.24363
2.13692
2.04268
1.96102
1.89165
1.83353
1.78524
1.7416
1.722
2.98273
3.00628
3.03036
3.05449
3.07923
3.10481
3.13194
3.16068
3.19119
3.22311
3.25624
3.29011
3.3239
3.35656
3.38686
3.41263
3.43174
3.44311
3.44466
3.43642
3.4159
3.38187
3.33404
3.26984
3.18921
3.09427
2.98809
2.87337
2.75409
2.63382
2.51488
2.40013
2.2927
2.19508
2.10861
2.03341
1.96919
1.91506
1.87001
1.82948
1.81047
2.99362
3.01587
3.0383
3.06049
3.08363
3.10783
3.13394
3.16186
3.1917
3.22262
3.25438
3.28652
3.31821
3.34839
3.37581
3.3986
3.41433
3.42187
3.42053
3.40924
3.38618
3.35065
3.30185
3.23859
3.16137
3.07193
2.97291
2.86685
2.75723
2.64717
2.53854
2.43366
2.33522
2.24538
2.16551
2.0957
2.03566
1.98471
1.94211
1.90443
1.88399
3.00421
3.0246
3.04563
3.06602
3.08749
3.11027
3.13569
3.16335
3.19275
3.22287
3.25357
3.28433
3.31421
3.34218
3.36697
3.38694
3.39973
3.40414
3.40022
3.38612
3.36096
3.324
3.27455
3.2124
3.13817
3.05349
2.9606
2.86191
2.76046
2.65905
2.55895
2.46223
2.3713
2.288
2.21366
2.14835
2.09174
2.0433
2.0024
1.96707
1.94386
3.01505
3.03221
3.05152
3.07074
3.09077
3.11235
3.13745
3.16482
3.19383
3.22341
3.25338
3.28308
3.31146
3.33753
3.35998
3.37729
3.3875
3.38964
3.38322
3.36684
3.33978
3.30158
3.25193
3.19089
3.11927
3.03868
2.95081
2.85822
2.76351
2.66917
2.57645
2.48652
2.40161
2.32349
2.25355
2.1918
2.13789
2.09129
2.05135
2.01732
1.9908
3.025
3.03924
3.05606
3.07423
3.09344
3.11422
3.13883
3.16592
3.19456
3.2239
3.25352
3.28249
3.30982
3.3341
3.35461
3.36964
3.37773
3.37782
3.36916
3.35083
3.32229
3.28323
3.23353
3.17353
3.10411
3.02687
2.94316
2.8555
2.76619
2.67736
2.59084
2.50679
2.42677
2.35236
2.28537
2.22594
2.17371
2.12803
2.08822
2.05395
2.02366
3.03332
3.04555
3.06034
3.07641
3.09503
3.11528
3.13952
3.16647
3.19514
3.22467
3.25421
3.28276
3.30926
3.33249
3.35106
3.36411
3.37024
3.36846
3.3579
3.33799
3.30829
3.26861
3.21902
3.15999
3.0925
3.01817
2.93802
2.85441
2.76926
2.68461
2.60224
2.52269
2.44655
2.37465
2.30894
2.25007
2.19785
2.15172
2.11114
2.07606
2.04407
3.04072
3.05086
3.06367
3.07755
3.09467
3.115
3.13911
3.16652
3.19589
3.22603
3.2557
3.28412
3.31017
3.33242
3.34961
3.36068
3.36496
3.36135
3.34931
3.32819
3.29773
3.25783
3.20867
3.15085
3.08552
3.01373
2.93659
2.85594
2.77365
2.69163
2.61188
2.53478
2.46085
2.39053
2.32463
2.26437
2.21003
2.16222
2.12113
2.08627
2.05517
3.04963
3.05465
3.06424
3.07653
3.09285
3.11366
3.13802
3.16593
3.19599
3.22677
3.25696
3.28549
3.31115
3.33262
3.34876
3.35876
3.36137
3.35631
3.34343
3.32168
3.29102
3.25147
3.20328
3.14702
3.08371
3.01363
2.93826
2.85944
2.77895
2.69832
2.61942
2.54286
2.4692
2.39923
2.33359
2.27245
2.21663
2.16735
2.12543
2.09099
2.06331
3.06146
3.05621
3.0619
3.07449
3.09156
3.11314
3.13733
3.16472
3.19434
3.22492
3.2553
3.28391
3.30943
3.33073
3.34674
3.35647
3.35914
3.35407
3.34053
3.31874
3.28838
3.24949
3.20231
3.1472
3.0843
3.01481
2.94026
2.86236
2.7828
2.70318
2.62458
2.54816
2.47449
2.404
2.33711
2.27507
2.21918
2.16988
2.1282
2.09579
2.07633
-0.476985
-0.428653
-0.41006
-0.422955
-0.442177
-0.481591
-0.523369
-0.573856
-0.636289
-0.716919
-0.824692
-0.984926
-1.21462
-1.5083
-1.86396
-2.34937
-3.24039
-0.456777
-0.463081
-0.4495
-0.493688
-0.527187
-0.577586
-0.627102
-0.68807
-0.763333
-0.860389
-0.995999
-1.18732
-1.44465
-1.7368
-2.10165
-2.73346
-3.59713
-0.487117
-0.561586
-0.557047
-0.612913
-0.645065
-0.695091
-0.74852
-0.817835
-0.9044
-1.01871
-1.17252
-1.38285
-1.66021
-1.99079
-2.45139
-3.39971
-4.91498
-0.558759
-0.659268
-0.659637
-0.721216
-0.758437
-0.81412
-0.876008
-0.954582
-1.05353
-1.18032
-1.33989
-1.54447
-1.79494
-2.09188
-2.45165
-3.00167
-3.72876
-0.664709
-0.7693
-0.778028
-0.838468
-0.881223
-0.94098
-1.0102
-1.09942
-1.21211
-1.34915
-1.51718
-1.72544
-1.97008
-2.24588
-2.57223
-2.91186
-3.18064
-0.787964
-0.881181
-0.899368
-0.955322
-1.00254
-1.06488
-1.14081
-1.23687
-1.35258
-1.49338
-1.66312
-1.86597
-2.10163
-2.35503
-2.66649
-3.18807
-3.80017
-0.91396
-0.996078
-1.02015
-1.07168
-1.122
-1.18711
-1.26765
-1.362
-1.47281
-1.60151
-1.75175
-1.92532
-2.1155
-2.30981
-2.51752
-2.80224
-3.13775
-1.03589
-1.10486
-1.13287
-1.18033
-1.23487
-1.30232
-1.38143
-1.47303
-1.57733
-1.69562
-1.82987
-1.97663
-2.12567
-2.27582
-2.42262
-2.5026
-2.53383
-1.1495
-1.20037
-1.23298
-1.27615
-1.3309
-1.39337
-1.46589
-1.54794
-1.64018
-1.74211
-1.8517
-1.96643
-2.08609
-2.20729
-2.33596
-2.48346
-2.64425
-1.24905
-1.2822
-1.31648
-1.3551
-1.40382
-1.45848
-1.52025
-1.5884
-1.66198
-1.73871
-1.8174
-1.89934
-1.9832
-2.06318
-2.13251
-2.22109
-2.33254
-1.32508
-1.34496
-1.37753
-1.40914
-1.44889
-1.49242
-1.54028
-1.59085
-1.64405
-1.6999
-1.7573
-1.81468
-1.87101
-1.91828
-1.94879
-1.94009
-1.9442
-1.36263
-1.37324
-1.39907
-1.41968
-1.44559
-1.47464
-1.50703
-1.54347
-1.58341
-1.62608
-1.66956
-1.71067
-1.7486
-1.78503
-1.81924
-1.84748
-1.8874
-1.35352
-1.35239
-1.36556
-1.37875
-1.3961
-1.41716
-1.44014
-1.46464
-1.48908
-1.51413
-1.53846
-1.5607
-1.58039
-1.59833
-1.61664
-1.64263
-1.67468
-1.29648
-1.28736
-1.29126
-1.30054
-1.31032
-1.32288
-1.3363
-1.35061
-1.36485
-1.37849
-1.39078
-1.40094
-1.40938
-1.41784
-1.41841
-1.38114
-1.35971
-1.19454
-1.18335
-1.18247
-1.18681
-1.18951
-1.19462
-1.20013
-1.20657
-1.2133
-1.22015
-1.22691
-1.23337
-1.23891
-1.24316
-1.24284
-1.23051
-1.24981
-1.0482
-1.03852
-1.03196
-1.03282
-1.0291
-1.02949
-1.02973
-1.03075
-1.03188
-1.03305
-1.03438
-1.03529
-1.03363
-1.03016
-1.03189
-1.0424
-1.05405
-0.852897
-0.848995
-0.837505
-0.837718
-0.832999
-0.831544
-0.829846
-0.828813
-0.828039
-0.827441
-0.826825
-0.824409
-0.819795
-0.818812
-0.818721
-0.796588
-0.765759
-0.619089
-0.620533
-0.61023
-0.61048
-0.606282
-0.604826
-0.603838
-0.603586
-0.603855
-0.604438
-0.605321
-0.606372
-0.607964
-0.61132
-0.612705
-0.600851
-0.611255
-0.354536
-0.357663
-0.351317
-0.353583
-0.353254
-0.354126
-0.355321
-0.35701
-0.359127
-0.361519
-0.364573
-0.368296
-0.371353
-0.373876
-0.381038
-0.393161
-0.400418
-0.0654129
-0.0702621
-0.0688282
-0.0729969
-0.0764115
-0.0816622
-0.0874577
-0.0938639
-0.100911
-0.108607
-0.11729
-0.125759
-0.132781
-0.141243
-0.15291
-0.157712
-0.151142
0.250309
0.238359
0.236446
0.225506
0.217166
0.20662
0.195023
0.182769
0.169434
0.15469
0.13928
0.123729
0.105136
0.0835953
0.0637662
0.0471851
0.0286323
0.584707
0.564548
0.557714
0.541399
0.526732
0.510169
0.491915
0.472635
0.45195
0.430038
0.408072
0.384183
0.356671
0.335582
0.314975
0.266654
0.237135
0.92681
0.901206
0.888972
0.867995
0.847258
0.824572
0.799553
0.772774
0.744058
0.713588
0.681694
0.646555
0.610185
0.580891
0.544117
0.486456
0.481936
1.2633
1.23426
1.21704
1.19212
1.16647
1.13868
1.10811
1.07526
1.04013
1.00265
0.962643
0.919386
0.874299
0.828129
0.771561
0.706252
0.673342
1.57821
1.54771
1.52754
1.50008
1.47109
1.43968
1.40499
1.36741
1.32705
1.28379
1.23771
1.18888
1.13752
1.08602
1.03126
0.953712
0.905366
1.85902
1.82859
1.80734
1.7794
1.7493
1.71667
1.68048
1.64087
1.59793
1.55138
1.50099
1.44634
1.38726
1.32966
1.26682
1.17695
1.15285
2.09936
2.0704
2.0493
2.02277
1.99367
1.96207
1.92682
1.8878
1.84495
1.79782
1.74605
1.68912
1.62737
1.56146
1.47854
1.38727
1.34052
2.29278
2.26576
2.24602
2.22127
2.19373
2.16363
2.12984
2.09211
2.05044
2.00441
1.95361
1.89778
1.83737
1.77166
1.69767
1.61422
1.54642
2.44293
2.41784
2.39945
2.37693
2.35174
2.32429
2.29347
2.25877
2.22005
2.17678
2.12831
2.07412
2.01402
1.94855
1.87668
1.78206
1.74473
2.56017
2.53684
2.51993
2.49977
2.47716
2.45254
2.42487
2.39362
2.3586
2.31928
2.2749
2.22485
2.16847
2.10529
2.02754
1.94069
1.90096
2.65244
2.63069
2.61534
2.59757
2.57755
2.55573
2.53116
2.5033
2.47192
2.43643
2.39606
2.35026
2.29853
2.24062
2.17258
2.10485
2.04099
2.72609
2.70565
2.69174
2.67616
2.65864
2.6396
2.61814
2.59365
2.56589
2.53424
2.49789
2.45608
2.40825
2.35364
2.29284
2.21771
2.17794
2.78727
2.76727
2.75413
2.74039
2.72511
2.70857
2.68992
2.66853
2.64414
2.6162
2.58399
2.54679
2.50395
2.45446
2.39557
2.32694
2.29444
2.84194
2.821
2.80719
2.79413
2.78041
2.766
2.74982
2.73119
2.70978
2.68508
2.65646
2.6234
2.58537
2.54247
2.48972
2.43616
2.39627
2.89181
2.86976
2.85504
2.84159
2.82798
2.81474
2.80064
2.7845
2.76579
2.74397
2.71852
2.68902
2.65479
2.61525
2.5702
2.51969
2.4877
2.93638
2.91417
2.89933
2.88561
2.87148
2.85799
2.84469
2.83047
2.81417
2.79502
2.77264
2.74665
2.71652
2.68147
2.63976
2.59027
2.56755
2.97503
2.95342
2.93865
2.92477
2.91038
2.89657
2.88322
2.86982
2.85545
2.83897
2.81965
2.79712
2.77112
2.7416
2.70566
2.66798
2.64948
3.00654
2.98578
2.97169
2.95846
2.94456
2.93107
2.91788
2.90474
2.89139
2.87701
2.8605
2.8411
2.81847
2.79252
2.76223
2.72806
2.71593
3.03258
3.01552
3.00326
2.99125
2.97837
2.9656
2.95294
2.94025
2.9275
2.91435
2.89979
2.88273
2.86273
2.84018
2.81344
2.77952
2.77165
3.05568
3.04093
3.02996
3.01966
3.00806
2.9963
2.98462
2.9728
2.96056
2.94781
2.93433
2.91934
2.90248
2.8847
2.86209
2.83593
2.829
-4.81994
-4.27399
-3.84068
-3.4563
-3.2738
-3.35986
-3.93575
-4.85882
-6.15618
-7.55318
-8.74539
-9.06839
-8.39103
-6.64101
-3.17414
0.0222863
1.25819
0.211193
-1.46574
-2.57957
-5.97787
-5.66604
-5.31741
-4.98561
-4.85454
-5.01359
-5.6112
-6.67407
-7.92715
-9.23187
-10.1898
-10.1158
-9.26117
-7.54158
-4.01748
-0.883714
-0.0838634
-1.30906
-2.79768
-3.59886
-7.44498
-7.45478
-7.23147
-6.91859
-6.80351
-7.15795
-7.86206
-8.76643
-9.88267
-11.0238
-11.5499
-11.1109
-10.0779
-7.99297
-4.44148
-1.83317
-1.83226
-3.18203
-4.31255
-4.75339
-9.34918
-9.69478
-9.76067
-9.57434
-9.42228
-9.73317
-10.2721
-11.0186
-11.996
-12.7964
-12.7379
-11.9867
-10.6957
-8.05729
-4.65228
-2.92561
-3.9393
-5.36741
-5.96363
-6.04257
-11.6465
-12.329
-12.724
-12.7061
-12.385
-12.506
-12.9145
-13.5042
-14.1319
-14.2665
-13.7112
-12.7377
-10.9844
-7.90141
-5.12795
-4.46713
-6.41476
-7.75911
-7.75913
-7.46111
-14.1299
-15.0543
-15.5485
-15.6713
-15.5195
-15.4868
-15.6187
-15.8313
-15.7893
-15.3223
-14.4612
-13.1227
-10.8233
-7.87394
-5.92957
-6.63981
-9.25275
-10.2427
-9.68358
-8.95812
-16.2362
-17.3011
-17.8868
-18.1281
-18.0189
-17.8495
-17.6508
-17.3624
-16.8031
-15.9896
-14.8127
-12.8558
-10.2542
-8.16198
-7.27155
-9.29018
-12.4009
-12.7985
-11.6976
-10.4894
-17.0928
-18.4273
-19.2429
-19.5921
-19.5657
-19.2701
-18.8172
-18.1535
-17.2759
-16.1275
-14.36
-12.0327
-9.97418
-8.82961
-9.44954
-12.4606
-15.6079
-15.3705
-13.7431
-12.0241
-17.0727
-18.5413
-19.5444
-20.075
-20.126
-19.7966
-19.1521
-18.2059
-16.9471
-15.2503
-13.1484
-11.2756
-10.2954
-10.1594
-12.3201
-16.1195
-18.6546
-17.8079
-15.6897
-13.5048
-15.8519
-17.5226
-18.7455
-19.4122
-19.5039
-19.0847
-18.2271
-16.9981
-15.4502
-13.6796
-12.0861
-11.32
-11.1751
-12.54
-15.6185
-19.6657
-21.1997
-19.8468
-17.3851
-14.785
-14.0707
-15.7268
-16.9782
-17.6703
-17.7273
-17.2556
-16.3205
-15.119
-13.7822
-12.6087
-12.0176
-11.9618
-13.0784
-15.5468
-19.0408
-22.5118
-22.9192
-21.2412
-18.6445
-15.7594
-11.8826
-13.3187
-14.4501
-15.0932
-15.1992
-14.8455
-14.1528
-13.3501
-12.6895
-12.3744
-12.524
-13.4869
-15.5138
-18.5487
-21.908
-24.1507
-23.7337
-21.8946
-19.345
-16.4989
-9.51805
-10.6518
-11.5979
-12.1949
-12.4057
-12.4104
-12.2632
-12.2168
-12.338
-12.7014
-13.6574
-15.4535
-18.0492
-21.1711
-23.7835
-24.7163
-23.8987
-22.0378
-19.618
-17.0677
-7.31125
-8.18348
-8.99036
-9.6337
-10.1178
-10.5469
-10.9778
-11.5398
-12.3156
-13.5259
-15.2175
-17.4418
-20.1078
-22.6806
-24.1223
-24.4038
-23.3321
-21.4971
-19.4182
-17.3903
-5.539
-6.25375
-6.99333
-7.73173
-8.48958
-9.33684
-10.3091
-11.3999
-12.7381
-14.4367
-16.4599
-18.7238
-20.9614
-22.6646
-23.4589
-23.489
-22.2406
-20.5191
-18.7787
-17.3084
-4.32088
-5.03447
-5.8026
-6.67582
-7.68669
-8.8287
-10.0921
-11.5159
-13.1687
-15.0137
-16.9574
-18.8725
-20.5967
-21.7475
-22.2157
-22.0833
-20.8763
-19.387
-17.9424
-16.8942
-3.80656
-4.60752
-5.44956
-6.41367
-7.51048
-8.75236
-10.1321
-11.6464
-13.2644
-14.9607
-16.6572
-18.2156
-19.4842
-20.2576
-20.5966
-20.3583
-19.354
-18.2134
-17.0783
-16.2971
-3.89205
-4.78112
-5.70294
-6.70668
-7.80999
-9.01509
-10.3027
-11.6495
-13.0508
-14.4665
-15.8246
-17.0288
-17.9603
-18.5059
-18.7585
-18.5936
-17.9229
-17.152
-16.3431
-15.7281
-4.18136
-5.05667
-6.02984
-7.06019
-8.12485
-9.21653
-10.3377
-11.4848
-12.6247
-13.7387
-14.7836
-15.6977
-16.3842
-16.823
-17.065
-17.0881
-16.7562
-16.3244
-15.8516
-15.4742
-5.14446
-6.25897
-7.25295
-8.14824
-8.99694
-9.82022
-10.6368
-11.4571
-12.2736
-13.0532
-13.7656
-14.373
-14.86
-15.2144
-15.4353
-15.5278
-15.5151
-15.4516
-15.3885
-15.3959
-15.6035
-15.1993
-15.2001
-15.4296
-15.571
-15.496
-15.2894
-14.929
-14.4048
-13.6603
-12.7508
-11.7327
-10.6226
-9.45591
-8.26365
-7.09723
-5.97674
-4.91805
-3.97371
-3.14835
-15.9284
-15.5175
-15.4447
-15.2558
-15.05
-14.7149
-14.2573
-13.6875
-13.0341
-12.2698
-11.4111
-10.4871
-9.51848
-8.53518
-7.56769
-6.62974
-5.73436
-4.89076
-4.10835
-3.41821
-16.5784
-16.1134
-15.8416
-15.2589
-14.7092
-14.1247
-13.4875
-12.7576
-11.9625
-11.1276
-10.2702
-9.40689
-8.55265
-7.71556
-6.90507
-6.12839
-5.392
-4.70126
-4.06372
-3.47924
-17.2529
-17.0253
-16.2329
-15.3445
-14.482
-13.6517
-12.7722
-11.8792
-11.0025
-10.1471
-9.31447
-8.50743
-7.7299
-6.9857
-6.27838
-5.61093
-4.98617
-4.40628
-3.87504
-3.38927
-17.8496
-18.21
-16.7697
-15.4224
-14.188
-13.1163
-12.061
-11.0569
-10.1334
-9.269
-8.45151
-7.68086
-6.9584
-6.28444
-5.65831
-5.07887
-4.54498
-4.05556
-3.6113
-3.20668
-18.4025
-19.1621
-17.2535
-15.354
-13.8199
-12.504
-11.3204
-10.2621
-9.31478
-8.44663
-7.64367
-6.90584
-6.23269
-5.62076
-5.06583
-4.56379
-4.10969
-3.6992
-3.33064
-2.99807
-18.9
-19.336
-17.5159
-15.0316
-13.3106
-11.867
-10.5788
-9.48414
-8.52399
-7.65617
-6.877
-6.18259
-5.56277
-5.00992
-4.51662
-4.08188
-3.698
-3.35862
-3.05894
-2.79103
-19.4921
-19.0326
-17.5611
-14.5884
-12.6885
-11.1768
-9.83974
-8.7111
-7.75063
-6.90718
-6.16722
-5.52439
-4.96182
-4.46819
-4.03546
-3.65708
-3.32717
-3.04529
-2.80338
-2.58973
-20.3174
-18.8638
-17.427
-14.0257
-12.0519
-10.4601
-9.09265
-7.95346
-7.02247
-6.2159
-5.52343
-4.93447
-4.42737
-3.98798
-3.60834
-3.28213
-2.99777
-2.7565
-2.55304
-2.38131
-21.3921
-18.892
-17.2302
-13.4496
-11.3588
-9.74847
-8.371
-7.25022
-6.35903
-5.59616
-4.95317
-4.41463
-3.95682
-3.56499
-3.22849
-2.94119
-2.694
-2.49472
-2.32002
-2.17689
-22.5054
-18.9321
-16.8282
-12.906
-10.6339
-9.05116
-7.70328
-6.6132
-5.76842
-5.05264