/*--------------------------------*- C++ -*----------------------------------*\
  =========                 |
  \\      /  F ield         | OpenFOAM: The Open Source CFD Toolbox
   \\    /   O peration     | Website:  https://openfoam.org
    \\  /    A nd           | Version:  6
     \\/     M anipulation  |
\*---------------------------------------------------------------------------*/
FoamFile
{
    version     2.0;
    format      ascii;
    class       surfaceScalarField;
    location    "3.72";
    object      phi;
}
// * * * * * * * * * * * * * * * * * * * * * * * * * * * * * * * * * * * * * //

dimensions      [0 3 -1 0 0 0 0];

internalField   nonuniform List<scalar> 
8193
(
0.103952
-0.189723
-0.0896686
0.114279
-0.197147
0.121745
-0.200902
0.126886
-0.203172
0.129762
-0.204327
0.130515
-0.204428
0.12936
-0.203835
0.126297
-0.202603
0.121387
-0.200788
0.114698
-0.198445
0.106341
-0.19568
0.0964659
-0.19295
0.0847398
-0.190453
0.0700047
-0.185236
0.0509146
-0.170655
0.0301123
-0.143093
0.0126444
-0.115759
-0.00189246
-0.105433
-0.0178526
-0.110712
-0.036369
-0.117585
-0.0555088
-0.122175
-0.0737832
-0.126758
-0.0908481
-0.132681
-0.106319
-0.141199
-0.119705
-0.151791
-0.130619
-0.162689
-0.139062
-0.172634
-0.145219
-0.181077
-0.14929
-0.187536
-0.151824
-0.19189
-0.153296
-0.194558
-0.153944
-0.196355
-0.153753
-0.197908
-0.152538
-0.199529
-0.150085
-0.201269
-0.146178
-0.20301
-0.140679
-0.204624
-0.133519
-0.206098
-0.124401
-0.207518
-0.112553
-0.20779
-0.203355
-0.0965511
0.125821
-0.205431
-0.114312
0.132817
-0.210147
0.137789
-0.21347
0.140732
-0.215067
0.141575
-0.21523
0.140512
-0.214276
0.137526
-0.212349
0.132598
-0.209506
0.125828
-0.205928
0.117301
-0.201666
0.107172
-0.196908
0.0955262
-0.19206
0.0818293
-0.186718
0.0649535
-0.177355
0.0449858
-0.158565
0.0259536
-0.130694
0.0108715
-0.10596
-0.00217532
-0.0962373
-0.0174337
-0.097814
-0.03514
-0.100714
-0.053954
-0.10266
-0.0727733
-0.105714
-0.0906928
-0.111048
-0.107852
-0.118898
-0.123823
-0.129332
-0.13749
-0.141294
-0.147629
-0.153659
-0.153863
-0.165052
-0.156526
-0.174302
-0.156491
-0.180769
-0.154992
-0.184534
-0.153117
-0.186574
-0.151487
-0.187995
-0.150264
-0.189582
-0.149219
-0.191782
-0.147932
-0.194672
-0.146068
-0.19803
-0.143318
-0.201813
-0.139525
-0.205937
-0.134088
-0.209725
-0.212873
-0.123131
0.142425
-0.218877
-0.134961
0.147656
-0.222863
0.15096
-0.225549
0.152268
-0.226218
0.151507
-0.225144
0.148756
-0.222795
0.144037
-0.219258
0.137456
-0.214679
0.129073
-0.2092
0.119007
-0.202944
0.107423
-0.196158
0.0943214
-0.189098
0.0791438
-0.180822
0.0612801
-0.167768
0.0419032
-0.146335
0.0244789
-0.119179
0.0109353
-0.0970041
-0.00149585
-0.0870074
-0.0156425
-0.085438
-0.0314578
-0.085216
-0.0483264
-0.0846531
-0.065732
-0.0857322
-0.0832726
-0.0895347
-0.100313
-0.0965475
-0.116616
-0.106465
-0.13124
-0.118956
-0.143146
-0.133011
-0.151507
-0.147069
-0.155563
-0.159909
-0.15563
-0.169836
-0.15287
-0.176101
-0.148886
-0.179259
-0.145068
-0.180639
-0.142321
-0.181522
-0.141029
-0.182883
-0.140871
-0.185506
-0.141327
-0.189362
-0.141917
-0.194362
-0.142331
-0.200234
-0.142343
-0.206198
-0.213083
-0.140564
0.15975
-0.231475
-0.154654
0.162964
-0.234771
0.164134
-0.236406
0.163334
-0.23589
0.160577
-0.233431
0.155872
-0.229494
0.1493
-0.224237
0.140916
-0.217792
0.130814
-0.210342
0.119158
-0.202096
0.106114
-0.193314
0.0916136
-0.184037
0.0751919
-0.172938
0.0569064
-0.156996
0.0385791
-0.134393
0.0231718
-0.108944
0.0112211
-0.0889429
1.2864e-06
-0.0783457
-0.0123676
-0.0742646
-0.0259705
-0.0714331
-0.0402394
-0.0688342
-0.0552111
-0.0678646
-0.0709038
-0.0696428
-0.0870721
-0.0749382
-0.102893
-0.0840422
-0.117803
-0.0963816
-0.131102
-0.111105
-0.141889
-0.12687
-0.149083
-0.142655
-0.151783
-0.156601
-0.150316
-0.16675
-0.146075
-0.172603
-0.140821
-0.175134
-0.136097
-0.175853
-0.133344
-0.175839
-0.13296
-0.176921
-0.134523
-0.179888
-0.137448
-0.184806
-0.141182
-0.191354
-0.145307
-0.198599
-0.207452
-0.149297
0.175967
-0.242946
-0.173208
0.17688
-0.245287
0.175842
-0.245678
0.172874
-0.243754
0.168015
-0.239739
0.16129
-0.234083
0.152774
-0.227
0.142568
-0.218652
0.130819
-0.209281
0.117719
-0.199148
0.103409
-0.188479
0.0878082
-0.1771
0.0707458
-0.163614
0.0528091
-0.145773
0.0360769
-0.123265
0.0228814
-0.100173
0.0124894
-0.0817455
0.00297216
-0.0707557
-0.00709331
-0.0648388
-0.017651
-0.0602232
-0.0283962
-0.0561568
-0.0393617
-0.053715
-0.0509036
-0.0537096
-0.0630932
-0.0572112
-0.0758569
-0.0646736
-0.0892748
-0.0753868
-0.103501
-0.0884432
-0.116908
-0.104299
-0.128282
-0.121535
-0.136026
-0.138693
-0.13894
-0.153431
-0.137537
-0.163554
-0.133407
-0.168964
-0.128216
-0.171109
-0.124055
-0.170644
-0.122669
-0.169748
-0.124286
-0.170719
-0.128383
-0.174367
-0.134471
-0.180325
-0.141917
-0.187782
-0.197444
-0.150273
0.190802
-0.252843
-0.190488
0.189323
-0.253996
0.185923
-0.252911
0.180632
-0.249384
0.173541
-0.243692
0.164706
-0.236258
0.154234
-0.227349
0.142281
-0.217181
0.129036
-0.206039
0.114696
-0.194202
0.099379
-0.181828
0.0830432
-0.168593
0.0659199
-0.15339
0.0490501
-0.134792
0.0343712
-0.113396
0.0231888
-0.0926708
0.0147746
-0.0758408
0.00751418
-0.0648095
0.000316401
-0.0577485
-0.0065828
-0.0522274
-0.0130396
-0.0474162
-0.0191617
-0.0441531
-0.0251542
-0.043167
-0.0317505
-0.045015
-0.0397479
-0.0501026
-0.049542
-0.0581366
-0.0612155
-0.0685382
-0.0748022
-0.0818278
-0.0891127
-0.0978254
-0.102315
-0.115731
-0.112091
-0.133699
-0.116698
-0.148975
-0.116742
-0.159119
-0.114822
-0.163595
-0.111611
-0.164986
-0.109878
-0.163378
-0.111181
-0.162274
-0.115853
-0.163702
-0.123394
-0.16811
-0.133063
-0.174916
-0.18442
-0.144498
0.203735
-0.260634
-0.206037
0.1997
-0.260402
0.193783
-0.257653
0.186081
-0.252424
0.176716
-0.245016
0.1658
-0.235847
0.15349
-0.225231
0.139987
-0.213435
0.125502
-0.200759
0.110226
-0.187473
0.094287
-0.173679
0.0778244
-0.159079
0.0612714
-0.142868
0.045899
-0.124469
0.0334343
-0.104948
0.0243414
-0.0865204
0.0181997
-0.0715401
0.013557
-0.0608903
0.0096813
-0.0534748
0.00679065
-0.0478258
0.00509064
-0.0431127
0.00436104
-0.0397607
0.00407481
-0.0382047
0.00352764
-0.0388379
0.00170197
-0.0417662
-0.00236803
-0.0467619
-0.00928837
-0.0536205
-0.0197096
-0.0628321
-0.0333685
-0.0751443
-0.0492279
-0.0905444
-0.0653469
-0.108103
-0.0786325
-0.126229
-0.0865589
-0.141924
-0.0896527
-0.151605
-0.0907603
-0.155539
-0.0915788
-0.15496
-0.0937796
-0.153394
-0.0990454
-0.152847
-0.107524
-0.15529
-0.118676
-0.16081
-0.169315
-0.132333
0.214234
-0.265778
-0.219327
0.207458
-0.263995
0.198952
-0.25954
0.188832
-0.252614
0.17727
-0.243572
0.164429
-0.232823
0.150519
-0.220733
0.135767
-0.20759
0.120387
-0.19369
0.104567
-0.17928
0.0884783
-0.164455
0.0723992
-0.149036
0.0570055
-0.13262
0.0435688
-0.115239
0.0331697
-0.0977769
0.0263052
-0.0818769
0.0224495
-0.0688791
0.0205655
-0.0591662
0.0201044
-0.052141
0.0211303
-0.0469587
0.0238567
-0.042949
0.0280761
-0.0401273
0.0333852
-0.0387441
0.0388621
-0.0386858
0.0433796
-0.0398652
0.0456766
-0.0419337
0.0447032
-0.0449105
0.0394867
-0.049376
0.0295618
-0.0565983
0.0151325
-0.0672456
-0.00277364
-0.081224
-0.022178
-0.0979029
-0.0399513
-0.115442
-0.0524223
-0.130806
-0.0600397
-0.140145
-0.064682
-0.143262
-0.069548
-0.142356
-0.0762233
-0.14104
-0.0858274
-0.141737
-0.0984113
-0.145584
-0.152639
-0.113855
0.221585
-0.267804
-0.22958
0.212055
-0.264445
0.201011
-0.258351
0.188608
-0.249856
0.175069
-0.23938
0.160615
-0.227334
0.145465
-0.214083
0.129855
-0.199938
0.114005
-0.185178
0.0981101
-0.170038
0.0823967
-0.154647
0.0672582
-0.139
0.0534501
-0.123067
0.0420026
-0.107162
0.0337238
-0.0919545
0.0288842
-0.0785594
0.0271034
-0.0676745
0.0277238
-0.0594143
0.0303086
-0.0534113
0.0347704
-0.0491793
0.0411708
-0.0462064
0.0493986
-0.0443452
0.059003
-0.0435163
0.069125
-0.043209
0.0787562
-0.0431975
0.086401
-0.0426576
0.0908829
-0.0419395
0.0911434
-0.0417533
0.0865168
-0.0437717
0.0763851
-0.0487218
0.0610143
-0.0574037
0.041524
-0.0700497
0.020053
-0.0858456
-0.000414041
-0.102606
-0.016616
-0.11676
-0.0280746
-0.125325
-0.0373331
-0.127475
-0.0469813
-0.126766
-0.0585197
-0.126697
-0.0725876
-0.129251
-0.135247
-0.0890413
0.225183
-0.26645
-0.236005
0.213074
-0.261634
0.199728
-0.254072
0.18535
-0.244248
0.170203
-0.23264
0.154544
-0.219651
0.138608
-0.205629
0.122618
-0.190872
0.106791
-0.17566
0.0913347
-0.160223
0.0765228
-0.144759
0.0627842
-0.129427
0.0508213
-0.114477
0.0413839
-0.100275
0.0350454
-0.0873241
0.0319221
-0.0762883
0.0317785
-0.0675213
0.0342493
-0.0610154
0.03903
-0.0564716
0.0459131
-0.0535086
0.0547951
-0.051727
0.0654587
-0.0508741
0.0774296
-0.0506229
0.090055
-0.0502933
0.102542
-0.04953
0.113452
-0.0468737
0.121596
-0.0429341
0.126371
-0.0390191
0.126439
-0.0360761
0.121179
-0.0355622
0.110346
-0.0386588
0.0942952
-0.0462103
0.0742869
-0.0583111
0.0525254
-0.0737253
0.0318226
-0.089489
0.0141126
-0.101742
-0.000148245
-0.108174
-0.0129773
-0.109858
-0.0265261
-0.110146
-0.042108
-0.111842
-0.11676
-0.0600213
0.224711
-0.261763
-0.238002
0.210395
-0.255674
0.195137
-0.246875
0.179252
-0.23608
0.163003
-0.223712
0.146666
-0.210189
0.130455
-0.195797
0.114597
-0.180847
0.0992985
-0.165603
0.0847853
-0.150318
0.0713227
-0.135234
0.0593435
-0.120683
0.0493692
-0.107008
0.0418674
-0.094529
0.0372146
-0.083662
0.0354577
-0.0747487
0.0364411
-0.0679465
0.0399325
-0.0631776
0.0457566
-0.060207
0.0536935
-0.0586156
0.0635404
-0.0580286
0.0749135
-0.05802
0.0873715
-0.0582133
0.100371
-0.0578359
0.113058
-0.0562292
0.124608
-0.051975
0.134388
-0.0458845
0.141592
-0.039102
0.14506
-0.0322296
0.14394
-0.0270441
0.137795
-0.0251495
0.126605
-0.0278159
0.110861
-0.0356506
0.0918539
-0.0482245
0.071698
-0.0633968
0.0526999
-0.0774967
0.0359625
-0.087005
0.0205713
-0.0909673
0.0051034
-0.0922151
-0.0114094
-0.0939902
-0.0985821
-0.0294403
0.220208
-0.254101
-0.235344
0.204278
-0.246935
0.187671
-0.237142
0.170867
-0.225795
0.154102
-0.213072
0.137672
-0.19945
0.121723
-0.185064
0.106503
-0.17033
0.0921741
-0.155431
0.0789665
-0.140684
0.0671714
-0.126402
0.0571486
-0.112986
0.0491628
-0.10069
0.0435017
-0.0898627
0.0403444
-0.0808157
0.039696
-0.0737226
0.0414363
-0.0686209
0.045371
-0.0653645
0.0513704
-0.0637889
0.0592328
-0.0634093
0.0687456
-0.0638467
0.0795977
-0.0645834
0.0911987
-0.0649713
0.102942
-0.0642293
0.114093
-0.0615802
0.124467
-0.0561631
0.133879
-0.0487995
0.14127
-0.0397696
0.145967
-0.0300684
0.147192
-0.0213788
0.144352
-0.0154974
0.137372
-0.0142186
0.126395
-0.0183718
0.11204
-0.0280079
0.0954985
-0.0415594
0.078271
-0.0556604
0.0614903
-0.0664189
0.0458509
-0.0724328
0.0307521
-0.0752256
0.0151965
-0.0776264
-0.082091
-0.00162819
0.212074
-0.243984
-0.228316
0.195227
-0.235937
0.177976
-0.225437
0.160964
-0.213997
0.144316
-0.201273
0.128378
-0.187964
0.113185
-0.173895
0.099041
-0.159748
0.0860265
-0.145487
0.0744445
-0.131655
0.064473
-0.11844
0.0562869
-0.106247
0.0501481
-0.0954189
0.0461558
-0.0861454
0.0443533
-0.0786882
0.0446555
-0.0730966
0.0469674
-0.0694033
0.0511347
-0.0674081
0.0570421
-0.0669906
0.0644431
-0.0675405
0.0731275
-0.0687211
0.0826573
-0.0697934
0.0925327
-0.0700545
0.102244
-0.0687204
0.111237
-0.0649785
0.11939
-0.0584063
0.126409
-0.049665
0.131976
-0.0390161
0.135729
-0.0274236
0.13722
-0.0164888
0.136013
-0.00802944
0.131536
-0.00370965
0.123846
-0.00499321
0.113514
-0.0124468
0.101164
-0.0245553
0.0875629
-0.0380934
0.073682
-0.049368
0.0600203
-0.056495
0.0466223
-0.0605309
0.0330938
-0.0638509
-0.068299
0.0184475
0.20108
-0.231976
-0.217699
0.18408
-0.223315
0.166934
-0.212413
0.150434
-0.201335
0.134494
-0.188862
0.119575
-0.176234
0.105569
-0.162711
0.0928801
-0.149486
0.0814835
-0.136097
0.0716687
-0.123402
0.0634943
-0.111361
0.0571024
-0.100466
0.0525864
-0.0910153
0.0499621
-0.0831244
0.0492021
-0.0770157
0.0502118
-0.0726759
0.0529657
-0.0702109
0.0572732
-0.0692604
0.0630445
-0.0698091
0.0698372
-0.0709
0.0774688
-0.0724611
0.0853129
-0.073316
0.0930091
-0.0730339
0.100112
-0.0707534
0.106262
-0.0657528
0.111563
-0.0580856
0.115847
-0.0481448
0.118936
-0.0361929
0.120465
-0.0230141
0.120367
-0.0105162
0.118481
-0.000428526
0.114626
0.0055966
0.108723
0.00599291
0.100971
-9.07535e-05
0.0920973
-0.0116636
0.0822341
-0.0249044
0.071798
-0.0363977
0.0612918
-0.0443366
0.0508149
-0.0493623
0.0398418
-0.05321
-0.057513
0.0276541
0.188325
-0.218509
-0.204786
0.172078
-0.209897
0.155734
-0.198713
0.14046
-0.188494
0.125669
-0.176266
0.112183
-0.164677
0.0996342
-0.1518
0.088589
-0.139761
0.0788118
-0.127297
0.0706596
-0.115862
0.0641502
-0.10508
0.0593731
-0.0955155
0.0563926
-0.0874458
0.054948
-0.0806651
0.0551597
-0.0757806
0.056851
-0.072486
0.0599571
-0.0710028
0.0642459
-0.0708078
0.0695511
-0.0719563
0.0753128
-0.0731023
0.0813967
-0.0746045
0.0870324
-0.0746563
0.0922671
-0.0736502
0.0964764
-0.0700601
0.100006
-0.0641417
0.102414
-0.0551671
0.103612
-0.0438933
0.103737
-0.0308129
0.102584
-0.0163797
0.100096
-0.00265265
0.0963307
0.00851505
0.0912857
0.0155251
0.0853799
0.0163877
0.0791665
0.010115
0.0726215
-0.00172465
0.065893
-0.015479
0.0586927
-0.0272905
0.0514228
-0.0360335
0.0441659
-0.0420184
0.0366873
-0.0466482
-0.0510468
0.0282595
0.175014
-0.203865
-0.190985
0.160813
-0.196951
0.145731
-0.18479
0.132455
-0.176252
0.119008
-0.163701
0.107293
-0.153665
0.0961919
-0.141193
0.0867981
-0.130628
0.0784929
-0.118995
0.0718288
-0.10892
0.0666171
-0.0992887
0.0629745
-0.090975
0.0609962
-0.0842369
0.0604524
-0.0785473
0.0613108
-0.0747145
0.0635354
-0.0724321
0.0667157
-0.071551
0.070811
-0.0719218
0.0753358
-0.0731595
0.0797188
-0.0738366
0.0840229
-0.0749511
0.0872056
-0.0735961
0.0905365
-0.0724825
0.0918429
-0.0666477
0.0933016
-0.0607042
0.0918952
-0.0487366
0.0905323
-0.0374359
0.0865578
-0.0217383
0.0826527
-0.00744159
0.0769394
0.00794716
0.0711954
0.0189132
0.0645901
0.0264611
0.0577095
0.0271812
0.0529852
0.0182381
0.0472615
0.00678785
0.0442091
-0.0103404
0.0386527
-0.0204374
0.0354225
-0.0323744
0.0308785
-0.0379803
0.0270768
-0.0443405
-0.0482932
0.0218045
0.162893
-0.177238
0.151804
0.138666
0.127815
0.115913
0.106097
0.0963084
0.0884741
0.0813481
0.0760469
0.0718742
0.0690336
0.0675823
0.067278
0.0683505
0.0703097
0.0731204
0.0760834
0.0793439
0.0815999
0.0843146
0.0849024
0.0864739
0.0841902
0.0843476
0.078756
0.0770434
0.0684938
0.0631007
0.0530742
0.0446622
0.0371958
0.0285521
0.0279513
0.0208612
0.0216369
0.0170858
0.018063
0.0159527
0.0155499
0.0127145
0.0553926
0.0094435
0.0588763
0.014956
0.0656991
0.0186097
0.0735795
0.0174618
0.0804622
0.00973414
0.0827009
-0.00526021
0.0787539
-0.026502
0.0695737
-0.0515246
0.0564857
-0.0763759
0.0412599
-0.098857
0.0262026
-0.117376
0.0126865
-0.131021
0.00200222
-0.139627
-0.00437202
-0.143014
-0.00557403
-0.139553
-0.000674709
-0.128358
-0.0977154
0.0591474
0.0048694
0.0620154
0.00806575
0.0671718
0.00988009
0.0731222
0.00837073
0.0783625
0.00176005
0.0807201
-0.00997869
0.0786354
-0.0264465
0.0716905
-0.0463247
0.0611377
-0.0673354
0.0483337
-0.0873874
0.034733
-0.104988
0.0217447
-0.119179
0.0104
-0.129415
0.00178357
-0.135567
-0.00276113
-0.136258
-0.00210536
-0.13038
-0.101335
0.0639842
0.000814374
0.0654684
0.0020775
0.0689561
0.00225531
0.0733264
0.0002187
0.0770971
-0.00545598
0.0789788
-0.014995
0.0777153
-0.0280387
0.0726725
-0.0438957
0.0642127
-0.0612888
0.0533246
-0.078756
0.0411537
-0.0949636
0.028875
-0.108983
0.0175267
-0.120131
0.00799247
-0.128124
0.00155701
-0.131981
-0.00087165
-0.130213
-0.104601
0.067431
-0.00397247
0.0685192
-0.00383096
0.0708676
-0.00462122
0.0739085
-0.00706606
0.076465
-0.0119853
0.07761
-0.0198611
0.0765299
-0.0304519
0.0726519
-0.0433115
0.0659099
-0.0576736
0.0567563
-0.0725975
0.0460201
-0.0871281
0.0346217
-0.10043
0.0234597
-0.111798
0.0133532
-0.120868
0.0053412
-0.126877
0.000429125
-0.128302
-0.107297
0.071111
-0.0084012
0.0714284
-0.0091337
0.0727151
-0.0106686
0.07454
-0.0134314
0.0761161
-0.0178908
0.0766559
-0.0245328
0.0754864
-0.0332346
0.0721622
-0.0437813
0.0665426
-0.0557147
0.0587947
-0.0684047
0.0493818
-0.0811948
0.0389523
-0.0934358
0.0282347
-0.104505
0.0179706
-0.114049
0.00910646
-0.121513
0.00232572
-0.125106
-0.10867
0.0736798
-0.0129955
0.0736836
-0.0141551
0.0743065
-0.0161439
0.0752118
-0.0190258
0.0759651
-0.0231758
0.0758939
-0.028845
0.0745557
-0.0361442
0.0715366
-0.0448903
0.0666295
-0.0548348
0.0598775
-0.0656005
0.0515322
-0.0767415
0.0420142
-0.0877793
0.0318548
-0.0982031
0.0216295
-0.107706
0.0122254
-0.116042
0.00416471
-0.121058
-0.108624
0.0760841
-0.0171955
0.0757112
-0.0187195
0.0756619
-0.0209181
0.0757997
-0.0238734
0.0757954
-0.0277707
0.0751931
-0.0327373
0.0735971
-0.0389468
0.0706794
-0.0462862
0.0662305
-0.0546287
0.0601977
-0.0637556
0.0526914
-0.0733866
0.0439684
-0.0831911
0.0344046
-0.0927791
0.0244148
-0.101883
0.014674
-0.11052
0.00574973
-0.116427
-0.107267
0.0774603
-0.0212513
0.0769242
-0.0229494
0.0764921
-0.0251818
0.0760859
-0.0280915
0.0754828
-0.0317214
0.0744178
-0.0361589
0.0725225
-0.0414764
0.0695832
-0.0477175
0.0653981
-0.0547698
0.0598717
-0.0625227
0.0530246
-0.0708139
0.044986
-0.0794233
0.036001
-0.088078
0.0263587
-0.0965564
0.0165008
-0.105028
0.00698462
-0.111348
-0.10481
0.0783024
-0.0248963
0.0775641
-0.0267363
0.0768072
-0.0289159
0.0759646
-0.0317033
0.0748908
-0.0350649
0.0733948
-0.0390442
0.0712475
-0.0436773
0.0682278
-0.0490176
0.0641842
-0.055024
0.0590106
-0.0616329
0.0526717
-0.0687547
0.0452105
-0.0762491
0.0367679
-0.0839424
0.0275347
-0.0916643
0.0177717
-0.0996558
0.00795629
-0.105989
-0.101393
0.078173
-0.0282693
0.0773004
-0.0300994
0.0763909
-0.0322367
0.0752812
-0.0348154
0.0738872
-0.0378824
0.0720769
-0.0414345
0.0697031
-0.0454941
0.0665854
-0.0500824
0.0626176
-0.0552346
0.0576937
-0.0608883
0.0517483
-0.066996
0.0447707
-0.0734734
0.0368253
-0.0802234
0.0280289
-0.0871291
0.0185141
-0.0944487
0.00863038
-0.100472
-0.0972026
0.0772772
-0.0312704
0.0763329
-0.0330719
0.0752607
-0.0350981
0.0739563
-0.0374576
0.0723411
-0.0402237
0.0703214
-0.0433795
0.0677901
-0.0469347
0.064635
-0.0509067
0.0607252
-0.055313
0.0559909
-0.0601535
0.0503589
-0.0653785
0.0437873
-0.0709361
0.0362944
-0.0767907
0.0279425
-0.0828703
0.0187735
-0.0894139
0.0090168
-0.0948999
-0.0924308
0.0755248
-0.0339945
0.0745336
-0.0356659
0.0733903
-0.0375729
0.0720052
-0.0397189
0.0702757
-0.0421653
0.0681428
-0.0449391
0.0655325
-0.048036
0.0623626
-0.051466
0.0585366
-0.0552332
0.053962
-0.0593423
0.0485848
-0.0637831
0.0423671
-0.0685207
0.0352925
-0.0735419
0.0273788
-0.0788103
0.0186089
-0.0845302
0.00911857
-0.0893343
-0.0872824
0.0729681
-0.0364287
0.0720195
-0.0379726
0.0708441
-0.0396962
0.0694048
-0.0416168
0.0676396
-0.0437708
0.0654792
-0.046179
0.0628683
-0.0488511
0.0597382
-0.0517846
0.0560149
-0.054979
0.0516192
-0.0584341
0.0464899
-0.0621587
0.040598
-0.0661509
0.0339219
-0.0704055
0.0264454
-0.0748923
0.0181109
-0.079775
0.00899084
-0.0838171
-0.0819216
0.0697312
-0.0386468
0.0688248
-0.0400047
0.0676786
-0.0415377
0.0662611
-0.0432305
0.064521
-0.0450997
0.0624026
-0.047162
0.0598443
-0.0494217
0.0567909
-0.0518832
0.0531869
-0.0545458
0.0489811
-0.0574146
0.044119
-0.060495
0.0385581
-0.0637981
0.0322688
-0.067332
0.0252349
-0.0710803
0.0173623
-0.0751298
0.00869792
-0.0783855
-0.0764621
0.0658386
-0.0406776
0.0650499
-0.0418594
0.063983
-0.0431649
0.0626293
-0.0446148
0.0609549
-0.0462008
0.0589119
-0.0479256
0.0564492
-0.0497905
0.0535154
-0.0517997
0.0500702
-0.0539641
0.0460759
-0.0562916
0.0414935
-0.0587867
0.0362819
-0.0614588
0.0303905
-0.0643066
0.0238123
-0.0673582
0.0164248
-0.0705849
0.0082884
-0.0730752
-0.0709809
0.0614636
-0.0425917
0.0607867
-0.0435583
0.05984
-0.0446423
0.0585935
-0.0458331
0.0570181
-0.0471232
0.0550765
-0.0485073
0.052731
-0.0499863
0.0499509
-0.0515716
0.046703
-0.0532715
0.0429513
-0.0550916
0.0386603
-0.0570368
0.0337959
-0.0591182
0.0283196
-0.0613304
0.0222058
-0.0637147
0.0153323
-0.0661459
0.00778962
-0.0679258
-0.0655381
0.0566566
-0.0444234
0.056143
-0.0451837
0.0553406
-0.0460213
0.0542274
-0.0469351
0.0527761
-0.0479121
0.0509618
-0.0489493
0.0487652
-0.0500535
0.0461638
-0.0512326
0.0431309
-0.0524909
0.0396369
-0.0538309
0.0356524
-0.055258
0.0311453
-0.0567807
0.0260869
-0.058397
0.0204403
-0.0601402
0.0141143
-0.0618309
0.00719242
-0.0629461
-0.0602112
0.0515793
-0.0462408
0.0512212
-0.0467598
0.050575
-0.0473425
0.0496118
-0.047963
0.0483096
-0.0486145
0.0466551
-0.049303
0.0446355
-0.0500354
0.0422332
-0.0508148
0.0394274
-0.0516425
0.0361972
-0.0525204
0.0325211
-0.0534537
0.0283751
-0.0544483
0.0237388
-0.0555058
0.0185665
-0.0566343
0.0128045
-0.0576466
0.0065046
-0.0581249
-0.0550766
0.0462989
-0.0480736
0.046128
-0.0483492
0.0456478
-0.048644
0.0448418
-0.0489488
0.0437014
-0.049265
0.04222
-0.0496
0.0403878
-0.0499577
0.0381928
-0.0503387
0.0356225
-0.0507436
0.0326645
-0.0511746
0.0293059
-0.0516361
0.0255303
-0.0521306
0.02132
-0.0526585
0.0166322
-0.0532026
0.0114526
-0.0536045
0.00579897
-0.0534784
-0.0501429
0.0409596
-0.0499831
0.0409648
-0.0499696
0.0406541
-0.0499549
0.0400157
-0.049926
0.0390468
-0.049893
0.0377437
-0.0498625
0.0361001
-0.0498354
0.0341097
-0.0498121
0.031767
-0.0497943
0.0290682
-0.0497854
0.0260095
-0.04979
0.022587
-0.0498107
0.0187893
-0.0498398
0.0145865
-0.0498423
0.00998974
-0.0497007
0.0049744
-0.0489935
-0.0455237
0.0355838
-0.0519809
0.0357862
-0.0516678
0.0356514
-0.0513041
0.0351841
-0.0509176
0.0343888
-0.0505173
0.0332638
-0.0501037
0.0318081
-0.0496783
0.0300231
-0.0492438
0.0279117
-0.0488034
0.0254779
-0.0483615
0.0227261
-0.0479232
0.0196583
-0.0474887
0.0162658
-0.0470399
0.0125445
-0.0465465
0.00851827
-0.045919
0.00415286
-0.0446783
-0.0412135
0.0302894
-0.0541156
0.0306602
-0.0534362
0.0306878
-0.0526966
0.0303792
-0.0519263
0.0297372
-0.0511295
0.0287655
-0.0503078
0.0274716
-0.0494666
0.0258654
-0.0486106
0.0239585
-0.0477452
0.0217643
-0.0468765
0.0192968
-0.0460104
0.0165649
-0.0451424
0.0135748
-0.0442515
0.0103527
-0.0433285
0.00692301
-0.0422819
0.00324992
-0.0405731
-0.0372939
0.0250273
-0.0563787
0.0255823
-0.0553075
0.0257648
-0.0541384
0.0255941
-0.0529415
0.0250787
-0.0517099
0.02423
-0.0504488
0.023066
-0.0491695
0.0216071
-0.0478799
0.0198759
-0.0465875
0.017897
-0.0453009
0.015695
-0.0440266
0.0132911
-0.0427567
0.0107119
-0.0414767
0.00801427
-0.0402079
0.00518993
-0.0387943
0.00235582
-0.0368235
-0.0337591
0.0198428
-0.058797
0.0205406
-0.0572529
0.0208508
-0.0556109
0.0207889
-0.0539392
0.0203676
-0.0522278
0.0196101
-0.0504929
0.018547
-0.0487536
0.0172081
-0.0470174
0.0156292
-0.0452984
0.0138506
-0.0436101
0.0119077
-0.0419549
0.00983796
-0.040328
0.00771794
-0.0387546
0.00558958
-0.0372226
0.00341981
-0.0355019
0.00144571
-0.0334514
-0.0306316
0.0146642
-0.0613373
0.0155108
-0.0592859
0.0159337
-0.0571026
0.0159569
-0.0548952
0.0156135
-0.0526627
0.0149376
-0.0504234
0.0139642
-0.0481977
0.0127377
-0.0460034
0.0113083
-0.043861
0.00972773
-0.0417871
0.00804687
-0.0397839
0.00632928
-0.0378609
0.00465265
-0.0360585
0.00306573
-0.0343372
0.0016095
-0.0324608
0.000468522
-0.0304332
-0.0279893
0.00953475
-0.0640564
0.0105045
-0.061384
0.0110308
-0.0586028
0.0111352
-0.0557997
0.0108555
-0.0529909
0.0102381
-0.0502041
0.00933415
-0.0474657
0.00820259
-0.0448024
0.00690907
-0.042243
0.00552017
-0.0398065
0.00410493
-0.0374992
0.00275014
-0.0353501
0.00154129
-0.0334005
0.000534235
-0.0315829
-0.000197436
-0.0296812
-0.000443604
-0.0278377
-0.0257839
0.00435264
-0.0669255
0.0054686
-0.0635692
0.0060915
-0.0600983
0.00626052
-0.0566252
0.00602508
-0.0531776
0.00544617
-0.0497963
0.00459145
-0.0465159
0.00353772
-0.0433743
0.00236923
-0.0404097
0.00117113
-0.0376443
3.40104e-05
-0.0350921
-0.000936731
-0.0327994
-0.0016516
-0.030794
-0.00204496
-0.0289875
-0.00201304
-0.0272042
-0.00135812
-0.0256837
-0.0240423
-0.000918571
-0.0700067
0.000322834
-0.0658157
0.00102112
-0.0615571
0.00122932
-0.0573301
0.00101055
-0.0531745
0.000442111
-0.0491475
-0.000387876
-0.0452971
-0.00138096
-0.0416738
-0.0024316
-0.038326
-0.00343307
-0.0352799
-0.0042733
-0.0325581
-0.00483119
-0.0302189
-0.00501106
-0.0282683
-0.00473429
-0.0266039
-0.00388409
-0.0250919
-0.00230435
-0.0240142
-0.0228297
-0.00645886
-0.0732293
-0.00509092
-0.0681155
-0.00432898
-0.062952
-0.00410636
-0.0578686
-0.00433863
-0.0529258
-0.00492619
-0.0481989
-0.00575525
-0.0437536
-0.0067009
-0.039655
-0.0076316
-0.035962
-0.00841488
-0.0327055
-0.00891877
-0.0299117
-0.00901245
-0.0276418
-0.00858824
-0.0258826
-0.00756443
-0.0245101
-0.0058335
-0.0234201
-0.00328824
-0.0228982
-0.0222286
-0.0123882
-0.0766486
-0.0109165
-0.0704336
-0.0101191
-0.0642353
-0.00991147
-0.0581856
-0.0101868
-0.0523709
-0.0108175
-0.0468919
-0.0116587
-0.0418359
-0.0125546
-0.0372835
-0.0133457
-0.0333024
-0.013873
-0.0299278
-0.0139848
-0.0271835
-0.0135426
-0.0251228
-0.0124271
-0.023718
-0.0105723
-0.0227964
-0.00789238
-0.0222785
-0.00432316
-0.0224325
-0.022347
-0.018891
-0.0801901
-0.0173207
-0.0727489
-0.0165051
-0.0653662
-0.0163372
-0.058226
-0.0166789
-0.0514511
-0.0173679
-0.0451721
-0.0182226
-0.0395016
-0.0190523
-0.0345354
-0.0196667
-0.0303466
-0.0198816
-0.0269707
-0.0195266
-0.0244238
-0.0184584
-0.0227377
-0.0165621
-0.0218623
-0.0137802
-0.0215726
-0.0100764
-0.0217731
-0.00541642
-0.0227341
-0.0233144
-0.0261049
-0.083919
-0.024453
-0.0750259
-0.0236399
-0.0662968
-0.0235315
-0.0579355
-0.0239545
-0.0501112
-0.0247057
-0.042992
-0.0255615
-0.0367183
-0.026292
-0.0313999
-0.0266742
-0.0271106
-0.0264987
-0.0238796
-0.02558
-0.0217062
-0.023777
-0.0205849
-0.0209966
-0.0204234
-0.0171896
-0.0209589
-0.0123809
-0.0220264
-0.0065777
-0.0239185
-0.0252842
-0.034216
-0.0877523
-0.0324757
-0.0772502
-0.0316702
-0.0669912
-0.0316304
-0.0572663
-0.0321379
-0.0483038
-0.0329408
-0.0403144
-0.0337673
-0.0334679
-0.0343443
-0.0278851
-0.0344141
-0.0236338
-0.0337444
-0.0207259
-0.0321453
-0.0191272
-0.0294862
-0.0187799
-0.0257018
-0.0195333
-0.0207922
-0.0210644
-0.014789
-0.0231817
-0.00779752
-0.0261072
-0.0284151
-0.043342
-0.0917965
-0.041515
-0.0793964
-0.0407192
-0.0674135
-0.0407452
-0.0561794
-0.0413246
-0.0459931
-0.0421495
-0.0371171
-0.0428943
-0.0297511
-0.0432387
-0.024022
-0.042891
-0.0199798
-0.0416016
-0.0176045
-0.039183
-0.016809
-0.0355347
-0.0174563
-0.0306393
-0.019319
-0.0245306
-0.0220281
-0.0172598
-0.025378
-0.00903649
-0.029434
-0.0328403
-0.0536296
-0.0959377
-0.0516865
-0.0814688
-0.0508787
-0.0675492
-0.050949
-0.0546506
-0.0515671
-0.0431604
-0.0523609
-0.0333987
-0.0529451
-0.0255927
-0.0529506
-0.0198669
-0.0520538
-0.0162391
-0.0499981
-0.0146333
-0.0466133
-0.0148859
-0.0418386
-0.0167583
-0.0357051
-0.0199371
-0.0282899
-0.0240109
-0.0197225
-0.0287229
-0.0102445
-0.0340252
-0.0386559
-0.0651228
-0.100375
-0.0630369
-0.0834683
-0.0621864
-0.0673909
-0.0622586
-0.0526744
-0.0628578
-0.0398091
-0.06354
-0.029182
-0.0638557
-0.0210442
-0.0633877
-0.0155042
-0.0617861
-0.0125272
-0.0587976
-0.0119533
-0.0542833
-0.0135144
-0.0482347
-0.0168486
-0.0407509
-0.0215393
-0.0319756
-0.0271317
-0.0220994
-0.0333196
-0.0113928
-0.0399704
-0.0459398
-0.0778803
-0.104936
-0.075582
-0.0854384
-0.0746221
-0.0669661
-0.0746247
-0.0502728
-0.075118
-0.0359693
-0.0755797
-0.0245166
-0.0754919
-0.0161832
-0.0743889
-0.011045
-0.0719006
-0.00898799
-0.0677901
-0.00973239
-0.0619723
-0.012868
-0.0545128
-0.0178879
-0.0455941
-0.0242603
-0.0354327
-0.0314932
-0.0242744
-0.0392446
-0.0124186
-0.0473167
-0.0547151
-0.091818
-0.10996
-0.089244
-0.0874176
-0.0881032
-0.0663075
-0.0879508
-0.0474809
-0.0882302
-0.0316915
-0.0883316
-0.0194819
-0.0876633
-0.0111293
-0.0857158
-0.00664936
-0.0821182
-0.00580843
-0.0766803
-0.0081595
-0.0694023
-0.0131102
-0.0604408
-0.0200005
-0.0500526
-0.0281954
-0.0385197
-0.0371694
-0.0261505
-0.0465404
-0.013276
-0.0560685
-0.064963
-0.106861
-0.115181
-0.103882
-0.0895133
-0.102428
-0.0655104
-0.101972
-0.0443974
-0.101869
-0.0270863
-0.10142
-0.0142076
-0.0999672
-0.00602982
-0.0969748
-0.00247084
-0.0920962
-0.00312897
-0.0852051
-0.00735029
-0.076382
-0.0143412
-0.0658591
-0.0232889
-0.0539699
-0.0334482
-0.0410975
-0.0442278
-0.0276399
-0.0552074
-0.0139449
-0.0661682
-0.0766448
-0.1228
-0.121111
-0.119328
-0.0917947
-0.117461
-0.06464
-0.116592
-0.0410846
-0.115975
-0.0222294
-0.114817
-0.00879435
-0.112393
-0.00101678
-0.108144
0.00132307
-0.101748
-0.00115968
-0.0931454
-0.00755989
-0.0825297
-0.0168326
-0.0702771
-0.0279753
-0.05686
-0.0401287
-0.0427775
-0.0526486
-0.028472
-0.0651359
-0.0142608
-0.0774547
-0.0895522
0.034183
-0.0487242
-0.0308646
0.0361544
-0.0470025
0.0371758
-0.0451311
0.037026
-0.0433101
0.0360701
-0.0418179
0.0341998
-0.0409453
0.0317612
-0.0409669
0.0286984
-0.0421231
0.0253378
-0.044646
0.0216621
-0.0486904
0.0179702
-0.0543692
0.0142561
-0.0617248
0.0107845
-0.0707236
0.00755357
-0.0812994
0.00476895
-0.0932783
0.0024615
-0.106509
0.000745081
-0.120717
-0.000324033
-0.135662
-0.000719166
-0.151088
-0.000329279
-0.166636
0.000754931
-0.182157
0.00270862
-0.197195
0.00532374
-0.211686
0.0087622
-0.225168
0.0128505
-0.237414
0.0176476
-0.248116
0.0230642
-0.256996
0.0288943
-0.263947
0.0353833
-0.268494
0.0419681
-0.270755
0.049213
-0.270181
0.0561736
-0.266974
0.0637324
-0.261079
0.0708678
-0.252672
0.0784808
-0.241925
0.0855948
-0.229143
0.0930611
-0.214722
0.100022
-0.199019
0.107258
-0.182565
0.114059
-0.165692
-0.148906
0.0325543
-0.0493622
-0.0293975
0.0346659
-0.0476202
0.0357525
-0.0457118
0.0358853
-0.0438718
0.0351462
-0.0423755
0.0336404
-0.0415257
0.031483
-0.0415982
0.0288039
-0.0428428
0.0257342
-0.0454892
0.0224099
-0.0496969
0.0189641
-0.0555776
0.0155184
-0.0631656
0.0121995
-0.0724378
0.00910365
-0.0833034
0.00634372
-0.0956128
0.00399178
-0.109181
0.00212975
-0.123752
0.000818004
-0.139069
9.02605e-05
-0.154858
1.06763e-05
-0.1708
0.000557597
-0.186661
0.00179584
-0.202082
0.00366377
-0.216875
0.00617045
-0.230656
0.00927492
-0.243151
0.0129284
-0.254048
0.0171065
-0.263099
0.0216723
-0.270087
0.0266775
-0.27473
0.0318943
-0.27687
0.0373946
-0.276261
0.0429857
-0.272844
0.0486755
-0.266766
0.0543562