/*--------------------------------*- C++ -*----------------------------------*\
  =========                 |
  \\      /  F ield         | OpenFOAM: The Open Source CFD Toolbox
   \\    /   O peration     | Website:  https://openfoam.org
    \\  /    A nd           | Version:  6
     \\/     M anipulation  |
\*---------------------------------------------------------------------------*/
FoamFile
{
    version     2.0;
    format      ascii;
    class       surfaceScalarField;
    location    "3.4";
    object      meshPhi;
}
// * * * * * * * * * * * * * * * * * * * * * * * * * * * * * * * * * * * * * //

dimensions      [0 3 -1 0 0 0 0];

internalField   nonuniform List<scalar> 
19800
(
0.000705318
-0.00311803
0.00165764
-0.0093403
0.00284879
-0.0155213
0.00426674
-0.0216337
0.00589582
-0.0276506
0.00771693
-0.0335458
0.00970781
-0.0392935
0.0118433
-0.0448688
0.014096
-0.050248
0.016436
-0.0554081
0.0188324
-0.0603275
0.0212525
-0.064986
0.0236636
-0.0693645
0.0260322
-0.0734456
0.0283258
-0.0772133
0.0305122
-0.0806534
0.0325608
-0.0837532
0.0344429
-0.0865018
0.0361318
-0.0888898
0.0376037
-0.0909098
0.0388377
-0.0925559
0.0398161
-0.0938241
0.0405252
-0.0947119
0.0409547
-0.0952186
0.0410986
-0.0953451
0.0409547
-0.0950938
0.0405252
-0.0944687
0.0398161
-0.0934752
0.0388377
-0.0921202
0.0376037
-0.0904116
0.0361318
-0.0883589
0.0344429
-0.0859726
0.0325608
-0.0832642
0.0305122
-0.0802464
0.0283258
-0.0769326
0.0260322
-0.0733372
0.0236636
-0.0694753
0.0212525
-0.0653626
0.0188324
-0.0610157
0.016436
-0.0564514
0.014096
-0.0516873
0.0118433
-0.0467411
0.00970781
-0.0416313
0.00771693
-0.0363763
0.00589582
-0.0309949
0.00426674
-0.0255063
0.00284879
-0.0199298
0.00165764
-0.0142846
0.000705318
-0.00859043
-3.50334e-14
-0.00286675
-0.00045404
0.00286675
-0.000656497
0.00859043
-0.000611004
0.0142846
-0.000325051
0.0199298
0.000190159
0.0255063
0.000919915
0.0309949
0.00184626
0.0363763
0.00294828
0.0416313
0.0042025
0.0467411
0.00558323
0.0516873
0.00706303
0.0564514
0.00861313
0.0610157
0.010204
0.0653626
0.0118056
0.0694753
0.0133882
0.0733372
0.0149226
0.0769326
0.0163808
0.0802464
0.0177362
0.0832642
0.0189645
0.0859726
0.0200435
0.0883589
0.0209538
0.0904116
0.0216793
0.0921202
0.0222069
0.0934752
0.0225272
0.0944687
0.0226346
0.0950938
0.0225272
0.0953451
0.0222069
0.0952186
0.0216793
0.0947119
0.0209538
0.0938241
0.0200435
0.0925559
0.0189645
0.0909098
0.0177362
0.0888898
0.0163808
0.0865018
0.0149226
0.0837532
0.0133882
0.0806534
0.0118056
0.0772133
0.010204
0.0734456
0.00861313
0.0693645
0.00706303
0.064986
0.00558323
0.0603275
0.0042025
0.0554081
0.00294828
0.050248
0.00184626
0.0448688
0.000919915
0.0392935
0.000190159
0.0335458
-0.000325051
0.0276506
-0.000611004
0.0216337
-0.000656497
0.0155213
-0.00045404
0.0093403
0.00311803
0.00211169
-0.00647355
0.00496047
-0.0193892
0.00852189
-0.0322106
0.0127601
-0.0448758
0.0176282
-0.0573238
0.0230693
-0.069495
0.0290168
-0.0813318
0.0353958
-0.092779
0.0421241
-0.103784
0.0491131
-0.114296
0.0562697
-0.12427
0.0634972
-0.133662
0.0706971
-0.142433
0.0777703
-0.150548
0.0846189
-0.157975
0.0911475
-0.164687
0.0972646
-0.170662
0.102884
-0.175881
0.107927
-0.180329
0.112322
-0.183997
0.116006
-0.186878
0.118928
-0.188972
0.121045
-0.190279
0.122327
-0.190807
0.122757
-0.190564
0.122327
-0.189563
0.121045
-0.187819
0.118928
-0.185352
0.116006
-0.182183
0.112322
-0.178335
0.107927
-0.173833
0.102884
-0.168706
0.0972646
-0.162981
0.0911475
-0.15669
0.0846189
-0.149863
0.0777703
-0.142532
0.0706971
-0.13473
0.0634972
-0.126489
0.0562697
-0.117844
0.0491131
-0.108827
0.0421241
-0.0994717
0.0353958
-0.0898117
0.0290168
-0.0798798
0.0230693
-0.069709
0.0176282
-0.0593317
0.0127601
-0.0487804
0.00852189
-0.0380871
0.00496047
-0.0272836
0.00211169
-0.0164015
-1.03538e-13
-0.0054724
-0.00136181
0.0054724
-0.00197282
0.0164015
-0.00184383
0.0272836
-0.000997174
0.0380871
0.000533745
0.0487804
0.00270505
0.0593317
0.00546318
0.069709
0.00874576
0.0798798
0.0124827
0.0898117
0.0165975
0.0994717
0.0210081
0.108827
0.0256288
0.117844
0.0303714
0.126489
0.0351464
0.13473
0.039865
0.142532
0.0444402
0.149863
0.0487883
0.15669
0.0528303
0.162981
0.056493
0.168706
0.0597106
0.173833
0.0624253
0.178335
0.0645887
0.182183
0.0661621
0.185352
0.0671175
0.187819
0.0674378
0.189563
0.0671175
0.190564
0.0661621
0.190807
0.0645887
0.190279
0.0624253
0.188972
0.0597106
0.186878
0.056493
0.183997
0.0528303
0.180329
0.0487883
0.175881
0.0444402
0.170662
0.039865
0.164687
0.0351464
0.157975
0.0303714
0.150548
0.0256288
0.142433
0.0210081
0.133662
0.0165975
0.12427
0.0124827
0.114296
0.00874576
0.103784
0.00546318
0.092779
0.00270505
0.0813318
0.000533745
0.069495
-0.000997174
0.0573238
-0.00184383
0.0448758
-0.00197282
0.0322106
-0.00136181
0.0193892
0.00647355
0.00350529
-0.0100489
0.00822606
-0.0300937
0.0141219
-0.0499803
0.0211335
-0.0696046
0.0291837
-0.0888644
0.0381782
-0.107661
0.0480074
-0.125898
0.0585477
-0.143484
0.0696631
-0.160334
0.0812078
-0.176367
0.0930281
-0.191507
0.104964
-0.205688
0.116854
-0.218848
0.128534
-0.230933
0.139842
-0.241898
0.150621
-0.251705
0.160721
-0.260322
0.169999
-0.267727
0.178325
-0.273905
0.18558
-0.278848
0.191662
-0.282557
0.196485
-0.285037
0.19998
-0.286303
0.202097
-0.286374
0.202806
-0.285276
0.202097
-0.283038
0.19998
-0.279696
0.196485
-0.27529
0.191662
-0.269863
0.18558
-0.26346
0.178325
-0.256131
0.169999
-0.247925
0.160721
-0.238894
0.150621
-0.229091
0.139842
-0.218568
0.128534
-0.207379
0.116854
-0.195575
0.104964
-0.183209
0.0930281
-0.17033
0.0812078
-0.156988
0.0696631
-0.14323
0.0585477
-0.129104
0.0480074
-0.114652
0.0381782
-0.0999181
0.0291837
-0.0849436
0.0211335
-0.0697682
0.0141219
-0.0544303
0.00822606
-0.0389673
0.00350529
-0.0234157
-1.68786e-13
-0.00781109
-0.00226865
0.00781109
-0.00329902
0.0234157
-0.00310886
0.0389673
-0.0017349
0.0544303
0.000767851
0.0697682
0.00432714
0.0849436
0.00885469
0.0999181
0.0142478
0.114652
0.0203909
0.129104
0.0271578
0.14323
0.0344134
0.156988
0.0420165
0.17033
0.0498214
0.183209
0.0576809
0.195575
0.0654486
0.207379
0.0729809
0.218568
0.0801398
0.229091
0.0867952
0.238894
0.0928265
0.247925
0.098125
0.256131
0.102596
0.26346
0.106158
0.269863
0.108749
0.27529
0.110323
0.279696
0.11085
0.283038
0.110323
0.285276
0.108749
0.286374
0.106158
0.286303
0.102596
0.285037
0.098125
0.282557
0.0928265
0.278848
0.0867952
0.273905
0.0801398
0.267727
0.0729809
0.260322
0.0654486
0.251705
0.0576809
0.241898
0.0498214
0.230933
0.0420165
0.218848
0.0344134
0.205688
0.0271578
0.191507
0.0203909
0.176367
0.0142478
0.160334
0.00885469
0.143484
0.00432714
0.125898
0.000767851
0.107661
-0.0017349
0.0888644
-0.00310886
0.0696046
-0.00329902
0.0499803
-0.00226865
0.0300937
0.0100489
0.00487774
-0.0138226
0.0114301
-0.0413899
0.019601
-0.0687244
0.0293088
-0.0956729
0.0404469
-0.122086
0.0528852
-0.147818
0.0664724
-0.17273
0.0810381
-0.19669
0.0963948
-0.219574
0.112341
-0.241266
0.128666
-0.26166
0.145148
-0.280663
0.161565
-0.29819
0.177689
-0.314168
0.1933
-0.328539
0.208179
-0.341253
0.222119
-0.352276
0.234925
-0.361583
0.246415
-0.369163
0.256428
-0.375016
0.264822
-0.379151
0.271478
-0.381592
0.2763
-0.382369
0.279222
-0.381522
0.2802
-0.3791
0.279222
-0.375158
0.2763
-0.369759
0.271478
-0.36297
0.264822
-0.354864
0.256428
-0.345515
0.246415
-0.335001
0.234925
-0.323402
0.222119
-0.310797
0.208179
-0.297266
0.1933
-0.282886
0.177689
-0.267736
0.161565
-0.251888
0.145148
-0.235414
0.128666
-0.218383
0.112341
-0.200857
0.0963948
-0.182899
0.0810381
-0.164564
0.0664724
-0.145904
0.0528852
-0.126969
0.0404469
-0.107804
0.0293088
-0.0884492
0.019601
-0.0689445
0.0114301
-0.0493258
0.00487774
-0.029627
-2.30537e-13
-0.00988091
-0.00317384
0.00988091
-0.00464133
0.029627
-0.00442673
0.0493258
-0.00258047
0.0689445
0.000821852
0.0884492
0.00568085
0.107804
0.0118751
0.126969
0.0192632
0.145904
0.0276861
0.164564
0.0369702
0.182899
0.0469295
0.200857
0.0573694
0.218383
0.0680894
0.235414
0.078887
0.251888
0.0895602
0.267736
0.0999116
0.282886
0.109751
0.297266
0.118899
0.310797
0.127191
0.323402
0.134475
0.335001
0.140621
0.345515
0.14552
0.354864
0.149082
0.36297
0.151246
0.369759
0.151971
0.375158
0.151246
0.3791
0.149082
0.381522
0.14552
0.382369
0.140621
0.381592
0.134475
0.379151
0.127191
0.375016
0.118899
0.369163
0.109751
0.361583
0.0999116
0.352276
0.0895602
0.341253
0.078887
0.328539
0.0680894
0.314168
0.0573694
0.29819
0.0469295
0.280663
0.0369702
0.26166
0.0276861
0.241266
0.0192632
0.219574
0.0118751
0.19669
0.00568085
0.17273
0.000821852
0.147818
-0.00258047
0.122086
-0.00442673
0.0956729
-0.00464133
0.0687244
-0.00317384
0.0413899
0.0138226
0.00622087
-0.0177697
0.0145488
-0.0532031
0.0249131
-0.0883191
0.0372105
-0.122909
0.0513065
-0.156771
0.0670372
-0.189706
0.0842119
-0.221528
0.102616
-0.252058
0.122012
-0.281129
0.142149
-0.308589
0.162758
-0.334298
0.183562
-0.358132
0.20428
-0.379985
0.224627
-0.399765
0.244322
-0.417399
0.263094
-0.432831
0.280679
-0.446022
0.296831
-0.45695
0.311324
-0.465611
0.323953
-0.472017
0.33454
-0.476195
0.342934
-0.478187
0.349016
-0.478047
0.3527
-0.475844
0.353934
-0.471656
0.3527
-0.46557
0.349016
-0.457682
0.342934
-0.448096
0.33454
-0.436918
0.323953
-0.42426
0.311324
-0.410235
0.296831
-0.394956
0.280679
-0.378536
0.263094
-0.361086
0.244322
-0.342712
0.224627
-0.323519
0.20428
-0.303605
0.183562
-0.28306
0.162758
-0.261972
0.142149
-0.240418
0.122012
-0.21847
0.102616
-0.196193
0.0842119
-0.173644
0.0670372
-0.150873
0.0513065
-0.127924
0.0372105
-0.104836
0.0249131
-0.0816408
0.0145488
-0.0583676
0.00622087
-0.0350411
-2.88585e-13
-0.0116838
-0.00407658
0.0116838
-0.00600545
0.0350411
-0.00581684
0.0583676
-0.00357387
0.0816408
0.000628628
0.104836
0.0066659
0.127924
0.0143854
0.150873
0.0236096
0.173644
0.0341386
0.196193
0.045754
0.21847
0.0582222
0.240418
0.0712985
0.261972
0.084731
0.28306
0.0982647
0.303605
0.111646
0.323519
0.124627
0.342712
0.136967
0.361086
0.148443
0.378536
0.158844
0.394956
0.167983
0.410235
0.175695
0.42426
0.181841
0.436918
0.186312
0.448096
0.189027
0.457682
0.189937
0.46557
0.189027
0.471656
0.186312
0.475844
0.181841
0.478047
0.175695
0.478187
0.167983
0.476195
0.158844
0.472017
0.148443
0.465611
0.136967
0.45695
0.124627
0.446022
0.111646
0.432831
0.0982647
0.417399
0.084731
0.399765
0.0712985
0.379985
0.0582222
0.358132
0.045754
0.334298
0.0341386
0.308589
0.0236096
0.281129
0.0143854
0.252058
0.0066659
0.221528
0.000628628
0.189706
-0.00357387
0.156771
-0.00581684
0.122909
-0.00600545
0.0883191
-0.00407658
0.0532031
0.0177697
0.00752677
-0.021862
0.0175596
-0.0654488
0.030014
-0.108625
0.0447664
-0.151121
0.0616565
-0.192674
0.0804889
-0.233032
0.101036
-0.271951
0.123042
-0.309204
0.146225
-0.344579
0.170285
-0.377882
0.194901
-0.408937
0.219745
-0.43759
0.24448
-0.46371
0.268768
-0.487187
0.292276
-0.507934
0.314678
-0.525889
0.335661
-0.541012
0.354934
-0.553287
0.372225
-0.562721
0.387292
-0.569342
0.399921
-0.573197
0.409934
-0.574354
0.417189
-0.572899
0.421584
-0.568931
0.423056
-0.562565
0.421584
-0.553928
0.417189
-0.543157
0.409934
-0.530393
0.399921
-0.515788
0.387292
-0.499494
0.372225
-0.481664
0.354934
-0.462452
0.335661
-0.442007
0.314678
-0.420476
0.292276
-0.397998
0.268768
-0.374705
0.24448
-0.350721
0.219745
-0.32616
0.194901
-0.301125
0.170285
-0.275708
0.146225
-0.249991
0.123042
-0.224043
0.101036
-0.197924
0.0804889
-0.171681
0.0616565
-0.145354
0.0447664
-0.118971
0.030014
-0.0925549
0.0175596
-0.0661195
0.00752677
-0.0396744
-3.42774e-13
-0.0132252
-0.00497591
0.0132252
-0.00739638
0.0396744
-0.00729689
0.0661195
-0.00475203
0.0925549
0.000125882
0.118971
0.00718891
0.145354
0.0162561
0.171681
0.0271165
0.197924
0.0395331
0.224043
0.0532463
0.249991
0.0679787
0.275708
0.0834396
0.301125
0.0993296
0.32616
0.115346
0.350721
0.131187
0.374705
0.146557
0.397998
0.161174
0.420476
0.174767
0.442007
0.187091
0.462452
0.19792
0.481664
0.207059
0.499494
0.214343
0.515788
0.219642
0.530393
0.222859
0.543157
0.223938
0.553928
0.222859
0.562565
0.219642
0.568931
0.214343
0.572899
0.207059
0.574354
0.19792
0.573197
0.187091
0.569342
0.174767
0.562721
0.161174
0.553287
0.146557
0.541012
0.131187
0.525889
0.115346
0.507934
0.0993296
0.487187
0.0834396
0.46371
0.0679787
0.43759
0.0532463
0.408937
0.0395331
0.377882
0.0271165
0.344579
0.0162561
0.309204
0.00718891
0.271951
0.000125882
0.233032
-0.00475203
0.192674
-0.00729689
0.151121
-0.00739638
0.108625
-0.00497591
0.0654488
0.021862
0.00878789
-0.0260683
0.0204411
-0.0780337
0.0348621
-0.129487
0.0519091
-0.180094
0.071398
-0.229526
0.0931046
-0.27747
0.116768
-0.323625
0.142095
-0.36771
0.168763
-0.409464
0.196427
-0.448648
0.224721
-0.48505
0.253268
-0.518485
0.281683
-0.548794
0.309579
-0.575849
0.336573
-0.599552
0.362293
-0.619835
0.386382
-0.636661
0.408505
-0.650021
0.428351
-0.659935
0.445642
-0.666452
0.460135
-0.669645
0.471625
-0.669613
0.47995
-0.666475
0.484993
-0.66037
0.486682
-0.651455
0.484993
-0.639901
0.47995
-0.62589
0.471625
-0.609612
0.460135
-0.591265
0.445642
-0.571048
0.428351
-0.54916
0.408505
-0.525798
0.386382
-0.501154
0.362293
-0.475412
0.336573
-0.448747
0.309579
-0.421323
0.281683
-0.39329
0.253268
-0.364784
0.224721
-0.335926
0.196427
-0.306822
0.168763
-0.27756
0.142095
-0.248215
0.116768
-0.218843
0.0931046
-0.189488
0.071398
-0.160178
0.0519091
-0.130929
0.0348621
-0.101746
0.0204411
-0.0726251
0.00878789
-0.0435537
-3.92921e-13
-0.0145142
-0.00587068
0.0145142
-0.00881821
0.0435537
-0.00888245
0.0726251
-0.006148
0.101746
-0.00074262
0.130929
0.00716519
0.160178
0.0173691
0.189488
0.0296287
0.218843
0.0436734
0.248215
0.059207
0.27756
0.0759128
0.306822
0.0934589
0.335926
0.111503
0.364784
0.129701
0.39329
0.147706
0.421323
0.165183
0.448747
0.181807
0.475412
0.197271
0.501154
0.211292
0.525798
0.223616
0.54916
0.234017
0.571048
0.242308
0.591265
0.248339
0.609612
0.252002
0.62589
0.25323
0.639901
0.252002
0.651455
0.248339
0.66037
0.242308
0.666475
0.234017
0.669613
0.223616
0.669645
0.211292
0.666452
0.197271
0.659935
0.181807
0.650021
0.165183
0.636661
0.147706
0.619835
0.129701
0.599552
0.111503
0.575849
0.0934589
0.548794
0.0759128
0.518485
0.059207
0.48505
0.0436734
0.448648
0.0296287
0.409464
0.0173691
0.36771
0.00716519
0.323625
-0.00074262
0.27747
-0.006148
0.229526
-0.00888245
0.180094
-0.00881821
0.129487
-0.00587068
0.0780337
0.0260683
0.00999708
-0.0303546
0.0231731
-0.0908566
0.039419
-0.150739
0.0585764
-0.209596
0.08044
-0.267033
0.10476
-0.32267
0.131246
-0.376146
0.159572
-0.427122
0.189379
-0.475286
0.220282
-0.520353
0.251876
-0.562072
0.283741
-0.600224
0.315449
-0.634625
0.34657
-0.665129
0.376678
-0.691627
0.40536
-0.714045
0.432219
-0.732351
0.456881
-0.746547
0.479004
-0.756669
0.498276
-0.76279
0.514429
-0.765012
0.527234
-0.763469
0.536512
-0.758321
0.542132
-0.749749
0.544014
-0.737957
0.542132
-0.723165
0.536512
-0.705607
0.527234
-0.685525
0.514429
-0.663168
0.498276
-0.638787
0.479004
-0.612631
0.456881
-0.584945
0.432219
-0.555966
0.40536
-0.525919
0.376678
-0.495017
0.34657
-0.463456
0.315449
-0.431416
0.283741
-0.399054
0.251876
-0.366511
0.220282
-0.333902
0.189379
-0.301325
0.159572
-0.268853
0.131246
-0.236541
0.10476
-0.204422
0.08044
-0.172512
0.0585764
-0.140808
0.039419
-0.109295
0.0231731
-0.0779436
0.00999708
-0.046715
-4.38885e-13
-0.015563
-0.00675952
0.015563
-0.010274
0.046715
-0.0105865
0.0779436
-0.00779025
0.109295
-0.00202591
0.140808
0.0065204
0.172512
0.0176206
0.204422
0.0310088
0.236541
0.0463854
0.268853
0.0634227
0.301325
0.0817699
0.333902
0.101059
0.366511
0.120913
0.399054
0.140947
0.431416
0.16078
0.463456
0.180038
0.495017
0.198363
0.525919
0.215415
0.555966
0.230879
0.584945
0.244472
0.612631
0.255948
0.638787
0.265096
0.663168
0.271751
0.685525
0.275793
0.705607
0.277149
0.723165
0.275793
0.737957
0.271751
0.749749
0.265096
0.758321
0.255948
0.763469
0.244472
0.765012
0.230879
0.76279
0.215415
0.756669
0.198363
0.746547
0.180038
0.732351
0.16078
0.714045
0.140947
0.691627
0.120913
0.665129
0.101059
0.634625
0.0817699
0.600224
0.0634227
0.562072
0.0463854
0.520353
0.0310088
0.475286
0.0176206
0.427122
0.0065204
0.376146
-0.00202591
0.32267
-0.00779025
0.267033
-0.0105865
0.209596
-0.010274
0.150739
-0.00675952
0.0908566
0.0303546
0.0111477
-0.034685
0.0257375
-0.10381
0.0436499
-0.172202
0.0647123
-0.239383
0.0887009
-0.304885
0.115344
-0.36826
0.144326
-0.429084
0.175293
-0.486959
0.207853
-0.541518
0.241591
-0.592431
0.276065
-0.639403
0.31082
-0.682183
0.345391
-0.720561
0.379311
-0.754373
0.41212
-0.783499
0.443367
-0.807863
0.472622
-0.827438
0.499481
-0.842237
0.52357
-0.852318
0.544553
-0.85778
0.562139
-0.858758
0.576079
-0.855424
0.586178
-0.84798
0.592295
-0.836658
0.594344
-0.82171
0.592295
-0.803412
0.586178
-0.782051
0.576079
-0.757926
0.562139
-0.731343
0.544553
-0.702607
0.52357
-0.672021
0.499481
-0.639881
0.472622
-0.606472
0.443367
-0.572064
0.41212
-0.536907
0.379311
-0.501233
0.345391
-0.46525
0.31082
-0.429141
0.276065
-0.39306
0.241591
-0.357138
0.207853
-0.321474
0.175293
-0.286144
0.144326
-0.251195
0.115344
-0.216648
0.0887009
-0.182502
0.0647123
-0.148734
0.0436499
-0.115302
0.0257375
-0.0821483
0.0111477
-0.0492031
-4.80547e-13
-0.0163865
-0.00764084
0.0163865
-0.0117654
0.0492031
-0.0124193
0.0821483
-0.00970201
0.115302
-0.00376479
0.148734
0.00519198
0.182502
0.0169225
0.216648
0.0311397
0.251195
0.0475205
0.286144
0.0657108
0.321474
0.0853318
0.357138
0.105986
0.39306
0.127265
0.429141
0.148754
0.46525
0.170041
0.501233
0.190722
0.536907
0.210409
0.572064
0.228733
0.606472
0.245357
0.639881
0.259973
0.672021
0.272314
0.702607
0.282153
0.731343
0.289312
0.757926
0.293661
0.782051
0.295119
0.803412
0.293661
0.82171
0.289312
0.836658
0.282153
0.84798
0.272314
0.855424
0.259973
0.858758
0.245357
0.85778
0.228733
0.852318
0.210409
0.842237
0.190722
0.827438
0.170041
0.807863
0.148754
0.783499
0.127265
0.754373
0.105986
0.720561
0.0853318
0.682183
0.0657108
0.639403
0.0475205
0.592431
0.0311397
0.541518
0.0169225
0.486959
0.00519198
0.429084
-0.00376479
0.36826
-0.00970201
0.304885
-0.0124193
0.239383
-0.0117654
0.172202
-0.00764084
0.10381
0.034685
0.0122335
-0.0390216
0.0281176
-0.116781
0.0475239
-0.19369
0.0702676
-0.269195
0.0961097
-0.342754
0.12476
-0.41385
0.155884
-0.481991
0.189101
-0.546718
0.223998
-0.607611
0.26013
-0.664289
0.297028
-0.716417
0.334208
-0.763711
0.371176
-0.805933
0.407434
-0.842901
0.442493
-0.874486
0.475874
-0.900612
0.507121
-0.921256
0.535803
-0.936447
0.561523
-0.946265
0.583925
-0.950837
0.602696
-0.950336
0.617576
-0.944973
0.628355
-0.934997
0.634884
-0.920691
0.63707
-0.902364
0.634884
-0.880344
0.628355
-0.854981
0.617576
-0.826632
0.602696
-0.795661
0.583925
-0.762433
0.561523
-0.727306
0.535803
-0.690631
0.507121
-0.652742
0.475874
-0.613954
0.442493
-0.574559
0.407434
-0.534825
0.371176
-0.494988
0.334208
-0.455254
0.297028
-0.415797
0.26013
-0.376756
0.223998
-0.338236
0.189101
-0.300309
0.155884
-0.263014
0.12476
-0.226357
0.0961097
-0.190319
0.0702676
-0.154851
0.0475239
-0.119883
0.0281176
-0.0853245
0.0122335
-0.0510699
-5.17851e-13
-0.0170023
-0.00851273
0.0170023
-0.013293
0.0510699
-0.0143877
0.0853245
-0.0119007
0.119883
-0.00599095
0.154851
0.00313046
0.190319
0.0152042
0.226357
0.0299274
0.263014
0.0469583
0.300309
0.0659228
0.338236
0.0864204
0.376756
0.108031
0.415797
0.130321
0.455254
0.152853
0.494988
0.17519
0.534825
0.196905
0.574559
0.217586
0.613954
0.236844
0.652742
0.254321
0.690631
0.269692
0.727306
0.282672
0.762433
0.293023
0.795661
0.300556
0.826632
0.305131
0.854981
0.306665
0.880344
0.305131
0.902364
0.300556
0.920691
0.293023
0.934997
0.282672
0.944973
0.269692
0.950336
0.254321
0.950837
0.236844
0.946265
0.217586
0.936447
0.196905
0.921256
0.17519
0.900612
0.152853
0.874486
0.130321
0.842901
0.108031
0.805933
0.0864204
0.763711
0.0659228
0.716417
0.0469583
0.664289
0.0299274
0.607611
0.0152042
0.546718
0.00313046
0.481991
-0.00599095
0.41385
-0.0119007
0.342754
-0.0143877
0.269195
-0.013293
0.19369
-0.00851273
0.116781
0.0390216
0.0132491
-0.0433252
0.0302992
-0.129652
0.0510145
-0.21501
0.0752005
-0.298765
0.102606
-0.380304
0.132928
-0.459035
0.165814
-0.534401
0.200868
-0.60588
0.237656
-0.672996
0.275714
-0.735319
0.314552
-0.792473
0.353663
-0.844138
0.39253
-0.890052
0.430636
-0.930016
0.467468
-0.96389
0.502527
-0.991599
0.535335
-1.01313
0.565443
-1.02852
0.592438
-1.03788
0.615945
-1.04137
0.635641
-1.0392
0.651252
-1.03161
0.66256
-1.01892
0.669409
-1.00145
0.671702
-0.979577
0.669409
-0.953682
0.66256
-0.924175
0.651252
-0.891479
0.635641
-0.856018
0.615945
-0.818216
0.592438
-0.778492
0.565443
-0.73725
0.535335
-0.694875
0.502527
-0.651731
0.467468
-0.608151
0.430636
-0.564438
0.39253
-0.520859
0.353663
-0.477643
0.314552
-0.43498
0.275714
-0.39302
0.237656
-0.35187
0.200868
-0.311599
0.165814
-0.272234
0.132928
-0.233768
0.102606
-0.196156
0.0752005
-0.159324
0.0510145
-0.12317
0.0302992
-0.087568
0.0132491
-0.0523739
-5.50817e-13
-0.0174298
-0.00937302
0.0174298
-0.0148558
0.0523739
-0.0164952
0.087568
-0.0143975
0.12317
-0.00872626
0.159324
0.000300492
0.196156
0.0124145
0.233768
0.027302
0.272234
0.0446089
0.311599
0.063947
0.35187
0.0849009
0.39302
0.107034
0.43498
0.129898
0.477643
0.153036
0.520859
0.175995
0.564438
0.198333
0.608151
0.21962
0.651731
0.239453
0.694875
0.257458
0.73725
0.273299
0.778492
0.28668
0.818216
0.297354
0.856018
0.305121
0.891479
0.30984
0.924175
0.311422
0.953682
0.30984
0.979577
0.305121
1.00145
0.297354
1.01892
0.28668
1.03161
0.273299
1.0392
0.257458
1.04137
0.239453
1.03788
0.21962
1.02852
0.198333
1.01313
0.175995
0.991599
0.153036
0.96389
0.129898
0.930016
0.107034
0.890052
0.0849009
0.844138
0.063947
0.792473
0.0446089
0.735319
0.027302
0.672996
0.0124145
0.60588
0.000300492
0.534401
-0.00872626
0.459035
-0.0143975
0.380304
-0.0164952
0.298765
-0.0148558
0.21501
-0.00937302
0.129652
0.0433252
0.0141895
-0.0475561
0.0322699
-0.142304
0.0540996
-0.235964
0.0794771
-0.327823
0.108143
-0.417191
0.139784
-0.503406
0.174037
-0.585842
0.210494
-0.663916
0.248708
-0.737095
0.288202
-0.8049
0.328473
-0.866915
0.368998
-0.922785
0.409247
-0.972223
0.448688
-1.01501
0.486794
-1.05101
0.523052
-1.08013
0.556973
-1.10237
0.588093
-1.1178
0.615989
-1.12655
0.640278
-1.12879
0.660625
-1.12479
0.67675
-1.11485
0.688429
-1.09931
0.695503
-1.07856
0.697871
-1.05302
0.695503
-1.02316
0.688429
-0.98943
0.67675
-0.952325
0.660625
-0.91233
0.640278
-0.869933
0.615989
-0.825609
0.588093
-0.779819
0.556973
-0.733001
0.523052
-0.685565
0.486794
-0.637888
0.448688
-0.590308
0.409247
-0.543122
0.368998
-0.496583
0.328473
-0.450895
0.288202
-0.406218
0.248708
-0.362662
0.210494
-0.320288
0.174037
-0.279115
0.139784
-0.239115
0.108143
-0.200222
0.0794771
-0.16233
0.0540996
-0.125305
0.0322699
-0.0889828
0.0141895
-0.0531781
-5.79274e-13
-0.0176904
-0.0102192
0.0176904
-0.0164513
0.0531781
-0.0187417
0.0889828
-0.0171969
0.125305
-0.0119821
0.16233
-0.00331832
0.200222
0.00852211
0.239115
0.0232199
0.279115
0.0404146
0.320288
0.0597108
0.362662
0.0806848
0.406218
0.102892
0.450895
0.125873
0.496583
0.149164
0.543122
0.172302
0.590308
0.194834
0.637888
0.216323
0.685565
0.236357
0.733001
0.254554
0.779819
0.270571
0.825609
0.284104
0.869933
0.294902
0.91233
0.302762
0.952325
0.307537
0.98943
0.309138
1.02316
0.307537
1.05302
0.302762
1.07856
0.294902
1.09931
0.284104
1.11485
0.270571
1.12479
0.254554
1.12879
0.236357
1.12655
0.216323
1.1178
0.194834
1.10237
0.172302
1.08013
0.149164
1.05101
0.125873
1.01501
0.102892
0.972223
0.0806848
0.922785
0.0597108
0.866915
0.0404146
0.8049
0.0232199
0.737095
0.00852211
0.663916
-0.00331832
0.585842
-0.0119821
0.503406
-0.0171969
0.417191
-0.0187417
0.327823
-0.0164513
0.235964
-0.0102192
0.142304
0.0475561
0.0150504
-0.051674
0.0340197
-0.154618
0.0567622
-0.256354
0.0830719
-0.356093
0.112684
-0.453069
0.145281
-0.546548
0.180493
-0.635838
0.217906
-0.720294
0.257069
-0.799327
0.297496
-0.872412
0.338678
-0.939088
0.380087
-0.99897
0.421185
-1.05175
0.461435
-1.09718
0.500302
-1.13512
0.53727
-1.1655
0.571841
-1.18831
0.603548
-1.20363
0.631963
-1.21163
0.656698
-1.21252
0.677416
-1.20659
0.693832
-1.19419
0.705722
-1.17572
0.712922
-1.15162
0.715333
-1.12239
0.712922
-1.08852
0.705722
-1.05056
0.693832
-1.00904
0.677416
-0.964536
0.656698
-0.917578
0.631963
-0.868708
0.603548
-0.818443
0.571841
-0.767271
0.53727
-0.715652
0.500302
-0.664002
0.461435
-0.612697
0.421185
-0.562062
0.380087
-0.512373
0.338678
-0.46385
0.297496
-0.416661
0.257069
-0.370915
0.217906
-0.326671
0.180493
-0.283932
0.145281
-0.242652
0.112684
-0.202739
0.0830719
-0.164059
0.0567622
-0.126439
0.0340197
-0.0896786
0.0150504
-0.0535495
-6.03305e-13
-0.0178065
-0.0110486
0.0178065
-0.0180754
0.0535495
-0.0211233
0.0896786
-0.0202967
0.126439
-0.0157593
0.164059
-0.00773082
0.202739
0.00351677
0.242652
0.0176645
0.283932
0.0343516
0.326671
0.053182
0.370915
0.0737313
0.416661
0.0955532
0.46385
0.118188
0.512373
0.141169
0.562062
0.164032
0.612697
0.186323
0.664002
0.207602
0.715652
0.227455
0.767271
0.2455
0.818443
0.26139
0.868708
0.274822
0.917578
0.285542
0.964536
0.293347
1.00904
0.29809
1.05056
0.29968
1.08852
0.29809
1.12239
0.293347
1.15162
0.285542
1.17572
0.274822
1.19419
0.26139
1.20659
0.2455
1.21252
0.227455
1.21163
0.207602
1.20363
0.186323
1.18831
0.164032
1.1655
0.141169
1.13512
0.118188
1.09718
0.0955532
1.05175
0.0737313
0.99897
0.053182
0.939088
0.0343516
0.872412
0.0176645
0.799327
0.00351677
0.720294
-0.00773082
0.635838
-0.0157593
0.546548
-0.0202967
0.453069
-0.0211233
0.356093
-0.0180754
0.256354
-0.0110486
0.154618
0.051674
0.0158283
-0.055639
0.0355409
-0.166474
0.0589901
-0.275984
0.0859676
-0.383304
0.116208
-0.487595
0.149392
-0.588052
0.185149
-0.683918
0.223067
-0.774487
0.262693
-0.859118
0.303543
-0.937236
0.345109
-1.00834
0.386864
-1.07202
0.428273
-1.12793
0.468798
-1.17583
0.507909
-1.21555
0.545089
-1.24703
0.579843
-1.27027
0.611709
-1.28537
0.640256
-1.29252
0.6651
-1.29198
0.685904
-1.28406
0.702386
-1.26916
0.714323
-1.24775
0.72155
-1.2203
0.72397
-1.18737
0.72155
-1.14954
0.714323
-1.10738
0.702386
-1.06153
0.685904
-1.01259
0.6651
-0.961167
0.640256
-0.907862
0.611709
-0.853244
0.579843
-0.797856
0.545089
-0.742201
0.507909
-0.686739
0.468798
-0.63188
0.428273
-0.577977
0.386864
-0.525328
0.345109
-0.474168
0.303543
-0.424671
0.262693
-0.376949
0.223067
-0.331052
0.185149
-0.286971
0.149392
-0.244639
0.116208
-0.203938
0.0859676
-0.164704
0.0589901
-0.126728
0.0355409
-0.0897693
0.0158283
-0.0535572
-6.22986e-13
-0.0178012
-0.011858
0.0178012
-0.0197224
0.0535572
-0.0236322
0.0897693
-0.0236875
0.126728
-0.0200472
0.164704
-0.012926
0.203938
-0.00259032
0.244639
0.0106466
0.286971
0.02643
0.331052
0.0443702
0.376949
0.0640486
0.424671
0.0850256
0.474168
0.106848
0.525328
0.129054
0.577977
0.151188
0.63188
0.172798
0.686739
0.193453
0.742201
0.212742
0.797856
0.230288
0.853244
0.245749
0.907862
0.258825
0.961167
0.269265
1.01259
0.276868
1.06153
0.281489
1.10738
0.283039
1.14954
0.281489
1.18737
0.276868
1.2203
0.269265
1.24775
0.258825
1.26916
0.245749
1.28406
0.230288
1.29198
0.212742
1.29252
0.193453
1.28537
0.172798
1.27027
0.151188
1.24703
0.129054
1.21555
0.106848
1.17583
0.0850256
1.12793
0.0640486
1.07202
0.0443702
1.00834
0.02643
0.937236
0.0106466
0.859118
-0.00259032
0.774487
-0.012926
0.683918
-0.0200472
0.588052
-0.0236875
0.487595
-0.0236322
0.383304
-0.0197224
0.275984
-0.011858
0.166474
0.055639
0.0165202
-0.0594121
0.0368284
-0.177755
0.0607761
-0.294661
0.088156
-0.40919
0.118705
-0.520432
0.152106
-0.627515
0.187995
-0.729618
0.225965
-0.825979
0.26557
-0.915903
0.306335
-0.99877
0.347758
-1.07404
0.389324
-1.14127
0.430506
-1.2001
0.470776
-1.25027
0.509614
-1.29161
0.546512
-1.32404
0.580986
-1.3476
0.61258
-1.36239
0.640874
-1.36864
0.665491
-1.36661
0.6861
-1.3567
0.702424
-1.33932
0.714244
-1.31498
0.721401
-1.28424
0.723797
-1.2477
0.721401
-1.20599
0.714244
-1.15976
0.702424
-1.10969
0.6861
-1.05646
0.665491
-1.00073
0.640874
-0.943152
0.61258
-0.884358
0.580986
-0.824936
0.546512
-0.765437
0.509614
-0.706358
0.470776
-0.648143
0.430506
-0.591175
0.389324
-0.53577
0.347758
-0.482179
0.306335
-0.430581
0.26557
-0.381087
0.225965
-0.333742
0.187995
-0.288521
0.152106
-0.245339
0.118705
-0.204052
0.088156
-0.164463
0.0607761
-0.12633
0.0368284
-0.08937
0.0165202
-0.0532712
-6.38292e-13
-0.0176981
-0.0126441
0.0176981
-0.0213851
0.0532712
-0.0262569
0.08937
-0.027353
0.12633
-0.0248245
0.164463
-0.018877
0.204052
-0.00976647
0.245339
0.002205
0.288521
0.0166949
0.333742
0.0333263
0.381087
0.0516942
0.430581
0.0713727
0.482179
0.0919219
0.53577
0.112896
0.591175
0.13385
0.648143
0.154347
0.706358
0.173968
0.765437
0.192316
0.824936
0.209021
0.884358
0.223754
0.943152
0.236222
1.00073
0.246181
1.05646
0.253437
1.10969
0.257848
1.15976
0.259327
1.20599
0.257848
1.2477
0.253437
1.28424
0.246181
1.31498
0.236222
1.33932
0.223754
1.3567
0.209021
1.36661
0.192316
1.36864
0.173968
1.36239
0.154347
1.3476
0.13385
1.32404
0.112896
1.29161
0.0919219
1.25027
0.0713727
1.2001
0.0516942
1.14127
0.0333263
1.07404
0.0166949
0.99877
0.002205
0.915903
-0.00976647
0.825979
-0.018877
0.729618
-0.0248245
0.627515
-0.027353
0.520432
-0.0262569
0.40919
-0.0213851
0.294661
-0.0126441
0.177755
0.0594121
0.017124
-0.0629553
0.0378793
-0.188349
0.0621182
-0.312197
0.0896369
-0.433492
0.120178
-0.551254
0.153432
-0.664549
0.189046
-0.772494
0.226623
-0.874272
0.265731
-0.969138
0.30591
-1.05643
0.346674
-1.13558
0.387524
-1.2061
0.427952
-1.26762
0.467446
-1.31985
0.505504
-1.36264
0.541635
-1.3959
0.575373
-1.41967
0.606276
-1.4341
0.633939
-1.4394
0.657999
-1.43591
0.678135
-1.42402
0.694082
-1.40422
0.705626
-1.37705
0.712615
-1.34313
0.714955
-1.30311
0.712615
-1.25767
0.705626
-1.20754
0.694082
-1.15345
0.678135
-1.09613
0.657999
-1.0363
0.633939
-0.974673
0.606276
-0.911927
0.575373
-0.848701
0.541635
-0.785586
0.505504
-0.72312
0.467446
-0.661777
0.427952
-0.601966
0.387524
-0.544024
0.346674
-0.488213
0.30591
-0.434719
0.265731
-0.383652
0.226623
-0.335049
0.189046
-0.288873
0.153432