/*--------------------------------*- C++ -*----------------------------------*\
  =========                 |
  \\      /  F ield         | OpenFOAM: The Open Source CFD Toolbox
   \\    /   O peration     | Website:  https://openfoam.org
    \\  /    A nd           | Version:  6
     \\/     M anipulation  |
\*---------------------------------------------------------------------------*/
FoamFile
{
    version     2.0;
    format      ascii;
    class       volScalarField;
    location    "1.75";
    object      p;
}
// * * * * * * * * * * * * * * * * * * * * * * * * * * * * * * * * * * * * * //

dimensions      [1 -1 -2 0 0 0 0];

internalField   nonuniform List<scalar> 
5625
(
1
1
1
1
1
1
1
1
1
1
1
1
1
1
1
1
1
1
1
1
1
1
1
1
1
1
1
1
1
1
1
1
1
1
1
1
1
1
1
1
1
1
1
1
1
1
1
1
1
1
1
1
1
1
1
1
1
1
1
1
1
1
1
1
1
1
1
1
1
1
1
1
1
1
1
1
1
1
1
1
1
1
1
1
1
1
1
1
1
1
1
1
1
1
1
1
1
1
1
1
1
1
1
1
1
1
1
1
1
1
1
1
1
1
1
1
1
1
1
1
1
1
1
1
1
1
1
1
1
1
1
1
1
1
1
1
1
1
1
1
1
1
1
1
1
1
1
1
1
1
1
1
1
1
1
1
1
1
1
1
1
1
1
1
1
1
1
1
1
1
1
1
1
1
1
1
1
1
1
1
1
1
1
1
1
1
1
1
1
1
1
1
1
1
1
1
1
1
1
1
1
1
1
1
1
1
1
1
1
1
1
1
1
1
1
1
1
1
1
1
1
1
1
1
1
1
1
1
1
1
1
1
1
1
1
1
1
1
1
1
1
1
1
1
1
1
1
1
1
1
1
1
1
1
1
1
1
1
1
1
1
1
1
1
1
1
1
1
1
1
1
1
1
1
1
1
1
1
1
1
1
1
1
1
1
1
1
1
1
1
1
1
1
1
1
1
1
1
1
1
1
1
1
1
1
1
1
1
1
1
1
1
1
1
1
1
1
1
1
1
1
1
1
1
1
1
1
1
1
1
1
1
1
1
1
1
1
1
1
1
1
1
1
1
1
1
1
1
1
1
1
1
1
1
1
1
1
1
1
1
1
1
1
1
1
1
1
1
1
1
1
1
1
1
1
1
1
1
1
1
1
1
1
1
1
1
1
1
1
1
1
1
1
1
1
1
1
1
1
1
1
1
1
1
1
1
1
1
1
1
1
1
1
1
1
1
1
1
1
1
1
1
1
1
1
1
1
1
1
1
1
1
1
1
1
1
1
1
1
1
1
1
1
1
1
1
1
1
1
1
1
1
1
0.999999
0.999999
0.999999
1
1
1
1
1
1
1
1
1
1
1
1
1
1
1
1
1
1
1
1
1
1
1
1
1
1
1
1
1
1
1
1
1
1
1
1
1
1
1
1
1
1
1
1
1
1
1
1
1
1
1
1
1
1
1
1
1
1
1
1
1
1
1
1
1
1
1
1
1
0.999999
0.999999
0.999999
0.999999
0.999999
0.999999
0.999999
1
1
1
1
1
1
1
1
1
1
1
1
1
1
1
1
1
1
1
1
1
1
1
1
1
1
1
1
1
1
1
1
1
1
1
1
1
1
1
1
1
1
1
1
1
1
1
1
1
1
1
1
1
1
1
1
1
1
1
1
1
1
1
1
1
1
1
1
0.999999
0.999999
0.999999
0.999999
0.999999
0.999999
0.999999
0.999999
0.999999
1
1
1
1
1
1
1
1
1
1
1
1
1
1
1
1
1
1
1
1
1
1
1
1
1
1
1
1
1
1
1
1
1
1
1
1
1
1
1
1
1
1
1
1
1
1
1
1
1
1
1
1
1
1
1
1
1
1
1
1
1
1
1
1
1
1
0.999999
0.999999
0.999999
0.999999
0.999999
0.999999
0.999999
0.999999
0.999999
0.999999
1
1
1
1
1
1
1
1
1
1
1
1
1
1
1
1
1
1
1
1
1
1
1
1
1
1
1
1
1
1
1
1
1
1
1
1
1
1
1
1
1
1
1
1
1
1
1
1
1
1
1
1
1
1
1
1
1
1
1
1
1
1
1
1
1
0.999999
0.999998
0.999998
0.999998
0.999998
0.999998
0.999998
0.999999
0.999999
0.999999
1
1
1
1
1
1
1
1
1
1
1
1
1
1
1
1
1
1
1
1
1
1
1
1
1
1
1
1
1
1
1
1
1
1
1
1
1
1
1
1
1
1
1
1
1
1
1
1
1
1
1
1
1
1
1
1
1
1
1
1
1
1
1
1
1
0.999998
0.999997
0.999997
0.999997
0.999997
0.999997
0.999998
0.999998
0.999998
0.999999
0.999999
1
1
1
1
1
1
1
1
1
1
1
1
1
1
1
1
1
1
1
1
1
1
1
1
1
1
1
1
1
1
1
1
1
1
1
1
1
1
1
1
1
1
1
1
1
1
1
1
1
1
1
1
1
1
1
1
1
1
1
1
1
1
1
1
0.999997
0.999996
0.999996
0.999996
0.999996
0.999996
0.999997
0.999997
0.999998
0.999998
0.999999
1
1
1
1
1
1
1
1
1
1
1
1
1
1
1
1
1
1
1
1
1
1
1
1
1
1
1
1
1
1
1
1
1
1
1
1
1
1
1
1
1
1
1
1
1
1
1
1
1
1
1
1
1
1
1
1
1
1
1
1
1
1
1
1
0.999995
0.999995
0.999995
0.999995
0.999995
0.999995
0.999995
0.999996
0.999997
0.999998
0.999999
1
1
1
1
1
1
1.00001
1.00001
1.00001
1.00001
1.00001
1.00001
1
1
1
1
1
1
1
1
1
1
1
1
1
1
1
1
1
1
1
1
1
1
1
1
1
1
1
1
1
1
1
1
1
1
1
1
1
1
1
1
1
1
1
1
1
1
1
1
1
1
1
1
0.999993
0.999993
0.999992
0.999993
0.999993
0.999993
0.999994
0.999995
0.999996
0.999997
0.999999
1
1
1
1
1.00001
1.00001
1.00001
1.00001
1.00001
1.00001
1.00001
1.00001
1.00001
1.00001
1
1
1
1
1
1
1
1
1
1
1
1
1
1
1
1
1
1
1
1
1
1
1
1
1
1
1
1
1
1
1
1
1
1
1
1
1
1
1
1
1
1
1
1
1
1
1
1
1
1
0.999991
0.99999
0.99999
0.99999
0.99999
0.99999
0.999991
0.999993
0.999994
0.999996
0.999998
1
1
1
1.00001
1.00001
1.00001
1.00001
1.00001
1.00001
1.00001
1.00001
1.00001
1.00001
1.00001
1.00001
1.00001
1
1
1
1
1
1
1
1
1
1
1
1
1
1
1
1
1
1
1
1
1
1
1
1
1
1
1
1
1
1
1
1
1
1
1
1
1
1
1
1
1
1
1
1
1
1
1
1
0.999988
0.999987
0.999986
0.999986
0.999987
0.999988
0.999989
0.99999
0.999993
0.999995
0.999998
1
1
1.00001
1.00001
1.00001
1.00001
1.00001
1.00001
1.00001
1.00001
1.00001
1.00001
1.00001
1.00001
1.00001
1.00001
1.00001
1.00001
1
1
1
1
1
1
1
1
1
1
1
1
1
1
1
1
1
1
1
1
1
1
1
1
1
1
1
1
1
1
1
1
1
1
1
1
1
1
1
1
1
1
1
1
1
1
0.999984
0.999983
0.999982
0.999982
0.999983
0.999984
0.999985
0.999987
0.99999
0.999994
0.999997
1
1.00001
1.00001
1.00001
1.00001
1.00002
1.00002
1.00002
1.00002
1.00002
1.00002
1.00002
1.00002
1.00001
1.00001
1.00001
1.00001
1.00001
1.00001
1
1
1
1
1
1
1
1
1
1
1
1
1
1
1
1
1
1
1
1
1
1
1
1
1
1
1
1
1
1
1
1
1
1
1
1
1
1
1
1
1
1
1
1
1
0.999979
0.999978
0.999977
0.999976
0.999977
0.999979
0.999981
0.999984
0.999988
0.999993
0.999997
1
1.00001
1.00001
1.00002
1.00002
1.00002
1.00002
1.00003
1.00003
1.00003
1.00002
1.00002
1.00002
1.00002
1.00002
1.00001
1.00001
1.00001
1.00001
1.00001
1
1
1
1
1
1
1
1
1
1
1
1
1
1
1
1
1
1
1
1
1
1
1
1
1
1
1
1
1
1
1
1
1
1
1
1
1
1
1
1
1
1
1
1
0.999973
0.999971
0.99997
0.99997
0.999971
0.999973
0.999977
0.999981
0.999986
0.999992
0.999998
1
1.00001
1.00002
1.00002
1.00003
1.00003
1.00003
1.00003
1.00003
1.00003
1.00003
1.00003
1.00003
1.00002
1.00002
1.00002
1.00001
1.00001
1.00001
1.00001
1.00001
1
1
1
1
1
1
1
1
1
1
1
1
1
1
1
1
1
1
1
1
1
1
1
1
1
1
1
1
1
1
1
1
1
1
1
1
1
1
1
1
1
1
1
0.999965
0.999963
0.999962
0.999962
0.999964
0.999967
0.999971
0.999977
0.999984
0.999991
1
1.00001
1.00002
1.00002
1.00003
1.00004
1.00004
1.00004
1.00005
1.00005
1.00004
1.00004
1.00004
1.00004
1.00003
1.00003
1.00002
1.00002
1.00002
1.00001
1.00001
1.00001
1.00001
1
1
1
1
1
1
1
1
1
1
1
1
1
1
1
1
1
1
1
1
1
1
1
1
1
1
1
1
1
1
1
1
1
1
1
1
1
1
1
1
1
1
0.999956
0.999955
0.999954
0.999954
0.999956
0.999961
0.999967
0.999975
0.999984
0.999993
1
1.00001
1.00003
1.00003
1.00004
1.00005
1.00006
1.00006
1.00006
1.00006
1.00006
1.00005
1.00005
1.00005
1.00004
1.00003
1.00003
1.00002
1.00002
1.00002
1.00001
1.00001
1.00001
1
1
1
1
1
1
1
1
1
1
1
1
1
1
1
1
1
1
1
1
1
1
1
1
1
1
1
1
1
1
1
1
1
1
1
1
1
1
1
1
1
1
0.999947
0.999945
0.999945
0.999946
0.99995
0.999956
0.999964
0.999974
0.999986
0.999998
1.00001
1.00003
1.00004
1.00005
1.00006
1.00007
1.00008
1.00008
1.00008
1.00008
1.00008
1.00007
1.00007
1.00006
1.00005
1.00004
1.00004
1.00003
1.00003
1.00002
1.00001
1.00001
1.00001
1.00001
1
1
1
1
1
1
1
1
1
1
1
1
1
1
1
1
1
1
1
1
1
1
1
1
1
1
1
1
1
1
1
1
1
1
1
1
1
1
1
1
1
0.999937
0.999935
0.999935
0.999938
0.999944
0.999953
0.999964
0.999978
0.999993
1.00001
1.00003
1.00004
1.00006
1.00008
1.00009
1.0001
1.0001
1.00011
1.00011
1.0001
1.0001
1.00009
1.00009
1.00008
1.00007
1.00006
1.00005
1.00004
1.00003
1.00002
1.00002
1.00001
1.00001
1.00001
1
1
1
1
1
1
0.999999
0.999999
1
1
1
1
1
1
1
1
1
1
1
1
1
1
1
1
1
1
1
1
1
1
1
1
1
1
1
1
1
1
1
1
1
0.999927
0.999926
0.999928
0.999933
0.999942
0.999956
0.999972
0.99999
1.00001
1.00003
1.00005
1.00008
1.00009
1.00011
1.00013
1.00014
1.00014
1.00015
1.00014
1.00014
1.00013
1.00012
1.00011
1.0001
1.00009
1.00007
1.00006
1.00005
1.00004
1.00003
1.00002
1.00002
1.00001
1.00001
1
1
1
1
1
0.999999
0.999999
0.999999
0.999999
0.999999
1
1
1
1
1
1
1
1
1
1
1
1
1
1
1
1
1
1
1
1
1
1
1
1
1
1
1
1
1
1
1
0.99992
0.999921
0.999926
0.999935
0.99995
0.999968
0.999991
1.00002
1.00004
1.00007
1.0001
1.00013
1.00015
1.00017
1.00018
1.00019
1.0002
1.0002
1.00019
1.00019
1.00017
1.00016
1.00014
1.00013
1.00011
1.00009
1.00008
1.00006
1.00005
1.00004
1.00003
1.00002
1.00001
1.00001
1.00001
1
1
1
0.999999
0.999999
0.999999
0.999999
0.999999
0.999999
0.999999
1
1
1
1
1
1
1
1
1
1
1
1
1
1
1
1
1
1
1
1
1
1
1
1
1
1
1
1
1
1
0.999918
0.999923
0.999933
0.999949
0.999971
0.999998
1.00003
1.00006
1.0001
1.00014
1.00017
1.0002
1.00023
1.00025
1.00027
1.00028
1.00028
1.00028
1.00027
1.00025
1.00023
1.00021
1.00019
1.00017
1.00014
1.00012
1.0001
1.00008
1.00006
1.00005
1.00003
1.00002
1.00002
1.00001
1.00001
1
1
0.999999
0.999999
0.999998
0.999998
0.999999
0.999999
0.999999
0.999999
0.999999
1
1
1
1
1
1
1
1
1
1
1
1
1
1
1
1
1
1
1
1
1
1
1
1
1
1
1
1
1
0.999925
0.999936
0.999955
0.999982
1.00002
1.00006
1.0001
1.00015
1.0002
1.00024
1.00029
1.00033
1.00036
1.00038
1.0004
1.0004
1.0004
1.00039
1.00037
1.00034
1.00031
1.00028
1.00025
1.00021
1.00018
1.00015
1.00012
1.0001
1.00008
1.00006
1.00004
1.00003
1.00002
1.00001
1.00001
1
1
0.999998
0.999998
0.999997
0.999998
0.999998
0.999998
0.999998
0.999999
0.999999
0.999999
1
1
1
1
1
1
1
1
1
1
1
1
1
1
1
1
1
1
1
1
1
1
1
1
1
1
1
1
0.999947
0.99997
1
1.00004
1.0001
1.00015
1.00022
1.00028
1.00035
1.00041
1.00047
1.00051
1.00055
1.00057
1.00058
1.00058
1.00057
1.00054
1.00051
1.00047
1.00042
1.00038
1.00033
1.00028
1.00023
1.00019
1.00016
1.00012
1.00009
1.00007
1.00005
1.00003
1.00002
1.00001
1.00001
1
0.999999
0.999997
0.999996
0.999996
0.999996
0.999997
0.999997
0.999998
0.999998
0.999999
0.999999
0.999999
1
1
1
1
1
1
1
1
1
1
1
1
1
1
1
1
1
1
1
1
1
1
1
1
1
1
1
0.999993
1.00004
1.00009
1.00015
1.00023
1.00032
1.00041
1.0005
1.00059
1.00067
1.00074
1.00079
1.00083
1.00086
1.00086
1.00084
1.00081
1.00077
1.00071
1.00065
1.00058
1.00051
1.00044
1.00037
1.00031
1.00025
1.0002
1.00015
1.00012
1.00009
1.00006
1.00004
1.00003
1.00001
1.00001
1
0.999997
0.999995
0.999994
0.999994
0.999995
0.999995
0.999996
0.999997
0.999998
0.999998
0.999999
0.999999
0.999999
1
1
1
1
1
1
1
1
1
1
1
1
1
1
1
1
1
1
1
1
1
1
1
1
1
1
1.00008
1.00015
1.00023
1.00033
1.00044
1.00057
1.0007
1.00082
1.00094
1.00105
1.00114
1.00121
1.00125
1.00126
1.00125
1.00122
1.00116
1.00109
1.001
1.0009
1.0008
1.00069
1.00059
1.00049
1.0004
1.00033
1.00026
1.0002
1.00015
1.00011
1.00007
1.00005
1.00003
1.00002
1.00001
0.999999
0.999995
0.999993
0.999992
0.999992
0.999993
0.999994
0.999995
0.999996
0.999997
0.999998
0.999998
0.999999
0.999999
0.999999
1
1
1
1
1
1
1
1
1
1
1
1
1
1
1
1
1
1
1
1
1
1
1
1
1
1.00022
1.00032
1.00045
1.0006
1.00077
1.00095
1.00112
1.0013
1.00146
1.0016
1.00171
1.0018
1.00184
1.00185
1.00182
1.00175
1.00166
1.00154
1.0014
1.00125
1.0011
1.00094
1.0008
1.00066
1.00054
1.00043
1.00033
1.00025
1.00019
1.00013
1.00009
1.00006
1.00003
1.00002
1
0.999997
0.999992
0.99999
0.999989
0.99999
0.999991
0.999992
0.999994
0.999995
0.999996
0.999997
0.999998
0.999998
0.999999
0.999999
0.999999
1
1
1
1
1
1
1
1
1
1
1
1
1
1
1
1
1
1
1
1
1
1
1
1
1.00043
1.0006
1.00079
1.00101
1.00125
1.0015
1.00175
1.00198
1.0022
1.00239
1.00253
1.00263
1.00267
1.00266
1.0026
1.0025
1.00235
1.00216
1.00196
1.00174
1.00152
1.0013
1.00109
1.0009
1.00072
1.00057
1.00044
1.00033
1.00024
1.00017
1.00011
1.00007
1.00004
1.00002
1
0.999994
0.999988
0.999986
0.999986
0.999986
0.999988
0.99999
0.999992
0.999993
0.999995
0.999996
0.999997
0.999998
0.999999
0.999999
0.999999
1
1
1
1
1
1
1
1
1
1
1
1
1
1
1
1
1
1
1
1
1
1
1
1
1.00075
1.001
1.00128
1.0016
1.00193
1.00228
1.00262
1.00294
1.00323
1.00347
1.00365
1.00377
1.00381
1.00378
1.00368
1.00352
1.00329
1.00303
1.00273
1.00241
1.00209
1.00178
1.00149
1.00122
1.00097
1.00076
1.00058
1.00043
1.00031
1.00022
1.00015
1.00009
1.00005
1.00002
1
0.99999
0.999983
0.999981
0.99998
0.999982
0.999984
0.999986
0.999989
0.999991
0.999993
0.999995
0.999996
0.999997
0.999998
0.999999
0.999999
0.999999
1
1
1
1
1
1
1
1
1
1
1
1
1
1
1
1
1
1
1
1
1
1
1
1.00121
1.00157
1.00198
1.00242
1.00288
1.00336
1.00382
1.00425
1.00463
1.00494
1.00518
1.00531
1.00535
1.00529
1.00514
1.00489
1.00457
1.00419
1.00377
1.00333
1.00288
1.00244
1.00203
1.00165
1.00132
1.00103
1.00078
1.00058
1.00041
1.00029
1.00019
1.00012
1.00006
1.00003
1
0.999986
0.999978
0.999974
0.999974
0.999976
0.999979
0.999982
0.999986
0.999989
0.999991
0.999993
0.999995
0.999997
0.999998
0.999998
0.999999
0.999999
0.999999
1
1
1
1
1
1
1
1
1
1
1
1
1
1
1
1
1
1
1
1
1
1
1.00186
1.00237
1.00293
1.00354
1.00418
1.00481
1.00543
1.00599
1.00649
1.00689
1.00718
1.00735
1.00738
1.00728
1.00706
1.00671
1.00626
1.00574
1.00516
1.00454
1.00393
1.00332
1.00276
1.00224
1.00178
1.00138
1.00105
1.00077
1.00055
1.00038
1.00025
1.00015
1.00008
1.00003
1
0.999982
0.999972
0.999968
0.999968
0.99997
0.999974
0.999978
0.999982
0.999986
0.999989
0.999992
0.999994
0.999996
0.999997
0.999998
0.999999
0.999999
0.999999
1
1
1
1
1
1
1
1
1
1
1
1
1
1
1
1
1
1
1
1
1
1
1.00275
1.00345
1.00422
1.00504
1.00589
1.00673
1.00753
1.00826
1.00889
1.0094
1.00976
1.00995
1.00998
1.00984
1.00952
1.00906
1.00846
1.00775
1.00697
1.00615
1.00531
1.00449
1.00373
1.00302
1.0024
1.00186
1.00141
1.00103
1.00074
1.00051
1.00033
1.0002
1.00011
1.00005
1
0.999979
0.999965
0.99996
0.99996
0.999963
0.999967
0.999972
0.999978
0.999982
0.999986
0.99999
0.999992
0.999994
0.999996
0.999997
0.999998
0.999999
0.999999
0.999999
1
1
1
1
1
1
1
1
1
1
1
1
1
1
1
1
1
1
1
1
1
1.00393
1.00487
1.0059
1.00699
1.00809
1.00917
1.01019
1.01111
1.0119
1.01253
1.01297
1.01321
1.01323
1.01303
1.01262
1.01201
1.01124
1.01031
1.00929
1.0082
1.0071
1.00602
1.00499
1.00405
1.00322
1.00249
1.00189
1.00139
1.00099
1.00068
1.00044
1.00027
1.00015
1.00006
1.00001
0.999976
0.999959
0.999951
0.999951
0.999954
0.99996
0.999966
0.999972
0.999978
0.999983
0.999987
0.999991
0.999993
0.999995
0.999997
0.999998
0.999998
0.999999
0.999999
1
1
1
1
1
1
1
1
1
1
1
1
1
1
1
1
1
1
1
1
1
1.00547
1.00672
1.00806
1.00945
1.01085
1.01221
1.01348
1.01461
1.01557
1.01632
1.01685
1.01713
1.01714
1.01689
1.01638
1.01563
1.01465
1.01349
1.01218
1.01079
1.00937
1.00796
1.00662
1.00539
1.00428
1.00332
1.00252
1.00185
1.00132
1.00091
1.0006
1.00037
1.00021
1.00009
1.00002
0.999977
0.999953
0.999942
0.999941
0.999945
0.999951
0.999958
0.999966
0.999973
0.999979
0.999985
0.999989
0.999992
0.999994
0.999996
0.999997
0.999998
0.999999
0.999999
0.999999
1
1
1
1
1
1
1
1
1
1
1
1
1
1
1
1
1
1
1
1
1.00743
1.00904
1.01074
1.01249
1.01421
1.01587
1.01739
1.01873
1.01986
1.02074
1.02135
1.02167
1.02168
1.02139
1.02079
1.01989
1.01872
1.0173
1.0157
1.01397
1.01218
1.01039
1.00867
1.00708
1.00565
1.00439
1.00333
1.00246
1.00176
1.00122
1.0008
1.0005
1.00029
1.00014
1.00004
0.999982
0.999949
0.999934
0.99993
0.999934
0.999941
0.99995
0.999959
0.999967
0.999975
0.999981
0.999986
0.99999
0.999993
0.999995
0.999997
0.999998
0.999999
0.999999
0.999999
1
1
1
1
1
1
1
1
1
1
1
1
1
1
1
1
1
1
1
1
1.00986
1.01188
1.01399
1.01611
1.01817
1.02011
1.02187
1.0234
1.02466
1.02564
1.02631
1.02666
1.02669
1.02637
1.02571
1.0247
1.02336
1.02172
1.01983
1.01775
1.01556
1.01335
1.0112
1.00919
1.00736
1.00575
1.00438
1.00324
1.00233
1.00162
1.00108
1.00068
1.0004
1.0002
1.00007
0.999993
0.999948
0.999926
0.99992
0.999923
0.999931
0.999941
0.999952
0.999962
0.99997
0.999978
0.999984
0.999988
0.999992
0.999994
0.999996
0.999997
0.999998
0.999999
0.999999
1
1
1
1
1
1
1
1
1
1
1
1
1
1
1
1
1
1
1
1
1.0128
1.01527
1.01779
1.02027
1.02264
1.02481
1.02674
1.02838
1.02971
1.03072
1.03142
1.03179
1.03183
1.03153
1.03087
1.02983
1.02841
1.02661
1.02449
1.02209
1.01951
1.01686
1.01424
1.01175
1.00946
1.00743
1.00568
1.00423
1.00306
1.00214
1.00143
1.00092
1.00054
1.00029
1.00012
1.00001
0.999952
0.999921
0.99991
0.999912
0.99992
0.999931
0.999944
0.999955
0.999965
0.999974
0.999981
0.999986
0.99999
0.999993
0.999995
0.999997
0.999998
0.999999
0.999999
0.999999
1
1
1
1
1
1
1
1
1
1
1
1
1
1
1
1
1
1
1
1.01625
1.01917
1.02208
1.02487
1.02744
1.02973
1.03169
1.0333
1.03456
1.03551
1.03616
1.03652
1.0366
1.03637
1.03581
1.03487
1.0335
1.0317
1.02946
1.02685
1.02395
1.02089
1.01779
1.01479
1.01199
1.00947
1.00729
1.00546
1.00397
1.00279
1.00189
1.00122
1.00074
1.00041
1.00018
1.00004
0.999962
0.999919
0.999902
0.999901
0.999909
0.999921
0.999935
0.999948
0.99996
0.999969
0.999977
0.999984
0.999988
0.999992
0.999994
0.999996
0.999998
0.999998
0.999999
0.999999
1
1
1
1
1
1
1
1
1
1
1
1
1
1
1
1
1
1
1
1.02018
1.0235
1.0267
1.02966
1.03226
1.03446
1.03623
1.03759
1.0386
1.03932
1.03981
1.04011
1.04024
1.04017
1.03985
1.0392
1.03812
1.03654
1.03442
1.03178
1.02871
1.02532
1.02179
1.01828
1.01495
1.0119
1.00923
1.00695
1.00509
1.00361
1.00246
1.00161
1.00099
1.00056
1.00028
1.00009
0.999981
0.999922
0.999896
0.999891
0.999897
0.99991
0.999925
0.99994
0.999953
0.999965
0.999974
0.999981
0.999986
0.999991
0.999994
0.999996
0.999997
0.999998
0.999999
0.999999
1
1
1
1
1
1
1
1
1
1
1
1
1
1
1
1
1
1
1
1.02448
1.02808
1.0314
1.03429
1.03665
1.03845
1.03971
1.04052
1.04099
1.04126
1.04143
1.0416
1.0418
1.042
1.04212
1.04201
1.04153
1.04051
1.03884
1.03648
1.03349
1.02998
1.02614
1.02218
1.01832
1.01472
1.0115
1.00874
1.00644
1.0046
1.00317
1.0021
1.00132
1.00077
1.0004
1.00016
1.00001
0.999931
0.999893
0.999882
0.999887
0.9999
0.999915
0.999932
0.999946
0.999959
0.99997
0.999978
0.999984
0.999989
0.999993
0.999995
0.999997
0.999998
0.999999
0.999999
0.999999
1
1
1
1
1
1
1
1
1
1
1
1
1
1
1
1
1
1
1.02896
1.03265
1.03581
1.03828
1.04
1.04097
1.0413
1.04115
1.04074
1.04027
1.03994
1.0399
1.04019
1.04079
1.04157
1.04234
1.04284
1.04282
1.04206
1.04042
1.03787
1.03454
1.03061
1.02636
1.02204
1.0179
1.01412
1.01082
1.00804
1.00579
1.00403
1.00269
1.00172
1.00102
1.00055
1.00025
1.00006
0.99995
0.999896
0.999877
0.999878
0.99989
0.999906
0.999924
0.99994
0.999954
0.999966
0.999975
0.999982
0.999988
0.999992
0.999994
0.999996
0.999998
0.999998
0.999999
0.999999
1
1
1
1
1
1
1
1
1
1
1
1
1
1
1
1
1
1
1.03337
1.03683
1.03943
1.04102
1.04159
1.0412
1.04008
1.0385
1.03678
1.03526
1.03421
1.03385
1.03425
1.0354
1.03711
1.03913
1.04108
1.04259
1.04329
1.04291
1.04133
1.03861
1.03493
1.03061
1.02598
1.02137
1.01705
1.01319
1.00989
1.00719
1.00505
1.00341
1.0022
1.00134
1.00075
1.00036
1.00012
0.999979
0.999905
0.999875
0.99987
0.999881
0.999897
0.999916
0.999933
0.999949
0.999962
0.999972
0.99998
0.999986
0.99999
0.999994
0.999996
0.999997
0.999998
0.999999
0.999999
1
1
1
1
1
1
1
1
1
1
1
1
1
1
1
1
1
1
1.03737
1.04017
1.0417
1.04183
1.04063
1.03827
1.03509
1.03154
1.02807
1.02514
1.02315
1.02237
1.02293
1.02477
1.0277
1.03137
1.03528
1.0389
1.0417
1.04324
1.04325
1.04169
1.03873
1.03468
1.02997
1.02503
1.02022
1.01582
1.01198
1.00879
1.00623
1.00426
1.00279
1.00173
1.001
1.00051
1.0002
1.00002
0.999922
0.999878
0.999866
0.999873
0.999889
0.999908
0.999927
0.999944
0.999958
0.999969
0.999978
0.999985
0.999989
0.999993
0.999995
0.999997
0.999998
0.999999
0.999999
1
1
1
1
1
1
1
1
1
1
1
1
1
1
1
1
1
1
1.04055
1.04216
1.042
1.04001
1.03634
1.03133
1.02547
1.01938
1.0137
1.00904
1.00589
1.0046
1.00533
1.00804
1.01247
1.01819
1.02457
1.03091
1.03649
1.04067
1.04298
1.04325
1.04156
1.03825
1.03379
1.02874
1.02357
1.01867
1.0143
1.01059
1.00758
1.00523
1.00347
1.00219
1.00129
1.00069
1.00031
1.00008
0.999948
0.999886
0.999865
0.999867
0.999882
0.999901
0.999921
0.999938
0.999954
0.999966
0.999976
0.999983
0.999988
0.999992
0.999995
0.999997
0.999998
0.999999
0.999999
0.999999
1
1
1
1
1
1
1
1
1
1
1
1
1
1
1
1
1
1.04246
1.04227
1.03974
1.0349
1.02804
1.01968
1.01051
1.00136
0.993041
0.986314
0.9818
0.979918
0.980869
0.984597
0.990806
0.998961
1.00832
1.01798
1.02702
1.03457
1.03994
1.04275
1.043
1.04096
1.03718
1.0323
1.02695
1.02166
1.01679
1.01257
1.00909
1.00634
1.00425
1.00272
1.00164
1.00091
1.00044
1.00015
0.999985
0.999901
0.999868
0.999864
0.999876
0.999895
0.999915
0.999934
0.99995
0.999963
0.999974
0.999981
0.999987
0.999992
0.999995
0.999996
0.999998
0.999998
0.999999
0.999999
1
1
1
1
1
1
1
1
1
1
1
1
1
1
1
1
1
1.0427
1.04003
1.03442
1.02599
1.01522
1.00284
0.989782
0.97707
0.965728
0.956667
0.95062
0.948079
0.949279
0.954162
0.96239
0.973333
0.986117
0.999668
1.01282
1.02445
1.03363
1.03975
1.04262
1.04248
1.03986
1.03553
1.03024
1.0247
1.0194
1.0147
1.01074
1.00757
1.00513
1.00333
1.00205
1.00117
1.0006
1.00024
1.00003
0.999924
0.999876
0.999864
0.999873
0.99989
0.99991
0.99993
0.999947
0.999961
0.999972
0.99998
0.999986
0.999991
0.999994
0.999996
0.999997
0.999998
0.999999
0.999999
1
1
1
1
1
1
1
1
1
1
1
1
1
1
1
1
1
1.04089
1.03507
1.02566
1.01295
0.997601
0.980601
0.963128
0.946447
0.93177
0.920158
0.912442
0.909185
0.910653
0.916791
0.927227
0.941253
0.95786
0.975792
0.993645
1.01003
1.02373
1.03388
1.0401
1.04248
1.04158
1.03821
1.03329
1.02768
1.02208
1.01693
1.01251
1.0089
1.0061
1.00401
1.0025
1.00147
1.00078
1.00035
1.00009
0.999955
0.99989
0.999869
0.999872
0.999887
0.999907
0.999926
0.999944
0.999958
0.99997
0.999979
0.999985
0.99999
0.999994
0.999996
0.999997
0.999998
0.999999
0.999999
1
1
1
1
1
1
1
1
1
1
1
1
1
1
1
1
1
1.03677
1.02717
1.0133
0.995656
0.975148
0.953024
0.930732
0.909774
0.891538
0.877225
0.867744
0.863721
0.865453
0.872897
0.885664
0.902979
0.923715
0.946433
0.969489
0.991212
1.01009
1.02496
1.0352
1.04075
1.04211
1.04015
1.03594
1.03051
1.02472
1.01921
1.01436
1.01033
1.00715
1.00475
1.00301
1.0018
1.001
1.00048
1.00017
0.999996
0.999909
0.999876
0.999874
0.999886
0.999904
0.999924
0.999941
0.999957
0.999968
0.999978
0.999985
0.99999
0.999993
0.999996
0.999997
0.999998
0.999999
0.999999
1
1
1
1
1
1
1
1
1
1
1
1
1
1
1
1
1
1.03025
1.01626
0.997364
0.974252
0.948112
0.920486
0.893098
0.867675
0.845767
0.828681
0.817387
0.812559
0.814524
0.823269
0.8384
0.859108
0.884161
0.911947
0.940591
0.96813
0.99273
1.01292
1.0278
1.03713
1.0413
1.04122
1.03807
1.03307
1.02727
1.0215
1.01626
1.01182
1.00827
1.00556
1.00357
1.00218
1.00123
1.00063
1.00026
1.00005
0.999936
0.999889
0.999879
0.999887
0.999904
0.999923
0.99994
0.999955
0.999968
0.999977
0.999984
0.999989
0.999993
0.999995
0.999997
0.999998
0.999999
0.999999
1
1
1
1
1
1
1
1
1
1
1
1
1
1
1
1
1
1.02133
1.00248
0.978087
0.949099
0.916998
0.883645
0.851036
0.821107
0.795538
0.7757
0.762601
0.756946
0.759094
0.769075
0.786517
0.810595
0.840005
0.872989
0.907447
0.941133
0.971884
0.997892
1.01795
1.03158
1.03906
1.0413
1.03957
1.03526
1.02965
1.02372
1.01816
1.01335
1.00943
1.00641
1.00417
1.00258
1.0015
1.00079
1.00036
1.00011
0.999969
0.999907
0.999887
0.99989
0.999905
0.999922
0.99994
0.999955
0.999967
0.999976
0.999984
0.999989
0.999993
0.999995
0.999997
0.999998
0.999999
0.999999
1
1
1
1
1
1
1
1
1
1
1
1
1
1
1
1
1
1.0102
0.98612
0.955902
0.920778
0.882551
0.843417
0.805637
0.771318
0.742231
0.719766
0.704944
0.698472
0.700749
0.711852
0.731455
0.75875
0.792396
0.830522
0.870831
0.91081
0.947964
0.980136
1.00578
1.02417
1.0354
1.04036
1.04038
1.03704
1.03179
1.02584
1.02004
1.01489
1.01062
1.00728
1.00479
1.00301
1.00178
1.00098
1.00047
1.00017
1.00001
0.999929
0.999899
0.999897
0.999908
0.999924
0.99994
0.999954
0.999967
0.999976
0.999984
0.999989
0.999993
0.999995
0.999997
0.999998
0.999999
0.999999
1
1
1
1
1
1
1
1
1
1
1
1
1
1
1
1
1
0.997187
0.967632
0.931411
0.890055
0.845722
0.800934
0.758204
0.719772
0.687445
0.662591
0.646202
0.638972
0.641329
0.653406
0.674942
0.705177
0.742771
0.785787
0.831775
0.877977
0.921589
0.960096
0.9916
1.01506
1.0304
1.03841
1.04049
1.03835
1.03365
1.0278
1.02184
1.0164
1.01182
1.00818
1.00543
1.00345
1.00208
1.00117
1.0006
1.00025
1.00005
0.999956
0.999915
0.999906
0.999912
0.999926
0.999942
0.999956
0.999967
0.999977
0.999984
0.999989
0.999993
0.999995
0.999997
0.999998
0.999999
0.999999
1
1
1
1
1
1
1
1
1
1
1
1
1
1
1
1
1
0.982705
0.947595
0.905356
0.857853
0.807609
0.757474
0.710182
0.668056
0.63289
0.605983
0.588259
0.580379
0.58279
0.595674
0.618849
0.651638
0.692746
0.740218
0.791504
0.843645
0.893552
0.938363
0.975815
1.00454
1.02422
1.03554
1.03992
1.03918
1.0352
1.02958
1.02353
1.01786
1.01299
1.00907
1.00608
1.00391
1.00239
1.00138
1.00073
1.00033
1.00011
0.999987
0.999934
0.999917
0.999919
0.99993
0.999944
0.999957
0.999968
0.999977
0.999984
0.999989
0.999993
0.999995
0.999997
0.999998
0.999999
0.999999
1
1
1
1
1
1
1
1
1
1
1
1
1
1
1
1
1
0.967277
0.926681
0.878581
0.825188
0.769401
0.71438
0.663047
0.61776
0.580248
0.551697
0.532929
0.524551
0.527007
0.540521
0.565001
0.599875
0.643948
0.695304
0.751338
0.808943
0.864777
0.915657
0.958959
0.992967
1.0171
1.03188
1.03872
1.03956
1.03643
1.03114
1.0251
1.01925
1.01412
1.00994
1.00672
1.00436
1.0027
1.00159
1.00086
1.00042
1.00016
1.00002
0.999956
0.999931
0.999928
0.999936
0.999947
0.999959
0.99997
0.999978
0.999985
0.999989
0.999993
0.999995
0.999997
0.999998
0.999999
0.999999
1
1
1
1
1
1
1
1
1
1
1
1
1
1
1
1
1
0.951476
0.905622
0.85198
0.793115
0.732298
0.672969
0.618202
0.570353
0.531033
0.501285
0.481795
0.473092
0.475592
0.489553
0.514976
0.551429
0.59786
0.65244
0.712564
0.775015
0.836245
0.892777
0.941645
0.980788
1.00933
1.02762
1.03702
1.03954
1.03736
1.03249
1.02651
1.02053
1.01519
1.01078
1.00735
1.00481
1.00301
1.0018
1.00101
1.00051
1.00022
1.00006
0.999981
0.999948
0.999939
0.999943
0.999952
0.999963
0.999972
0.99998
0.999985
0.99999
0.999993
0.999996
0.999997
0.999998
0.999999
0.999999
1
1
1
1
1
1
1
1
1
1
1
1
1
1
1
1
1
0.935903
0.885166
0.826457
0.762671
0.697437
0.634453
0.576897
0.527088
0.486495
0.455982
0.436082
0.42722
0.42976
0.443982
0.469987
0.507512
0.555687
0.612818
0.676328
0.742933
0.808913
0.870537
0.924529
0.968496
1.00127
1.02299
1.03494
1.03917
1.038
1.03361
1.02776
1.0217
1.01618
1.01156
1.00794
1.00524
1.00332
1.002
1.00115
1.00061
1.00029
1.0001
1.00001
0.999966
0.999952
0.999952
0.999958
0.999967
0.999975
0.999982
0.999987
0.999991
0.999994
0.999996
0.999997
0.999998
0.999999
0.999999
1
1
1
1
1
1
1
1
1
1
1
1
1
1
1
1
1
0.92115
0.86604
0.80286
0.734813
0.665841
0.599871
0.540152
0.488943
0.447551
0.416651
0.39661
0.387724
0.390288
0.404587
0.430836
0.468962
0.518315
0.577359
0.643577
0.713627
0.783655
0.849717
0.908267
0.95661
0.993289
1.01824
1.03265
1.03856
1.03841
1.03453
1.02884
1.02274
1.01707
1.01228
1.00849
1.00564
1.0036
1.0022
1.00128
1.0007
1.00035
1.00015
1.00004
0.999987
0.999966
0.999961
0.999965
0.999971
0.999978
0.999984
0.999989
0.999992
0.999995
0.999997
0.999998
0.999999
0.999999
0.999999
1
1
1
1
1
1
1
1
1
1
1
1
1
1
1
1
1
0.907771
0.848908
0.781957
0.710379
0.638372
0.570061
0.508743
0.456604
0.414794
0.383797
0.363811
0.354993
0.357547
0.371764
0.397965
0.436291
0.48633
0.546728
0.615031
0.687855
0.761221
0.831014
0.893466
0.945626
0.985779
1.01365
1.03031
1.0378
1.03863
1.03525
1.02975
1.02364
1.01786
1.01292
1.00898
1.006
1.00387
1.00239
1.00141
1.00079
1.00041
1.00019
1.00007
1.00001
0.999981
0.999972
0.999973
0.999977
0.999982
0.999986
0.99999
0.999993
0.999995
0.999997
0.999998
0.999999
0.999999
0.999999
1
1
1
1
1
1
1
1
1
1
1
1
1
1
1
1
1
0.896251
0.83434
0.764382
0.690041
0.615711
0.54565
0.483209
0.430498
0.388532
0.357626
0.337812
0.329105
0.331618
0.345629
0.371565
0.409776
0.4601
0.521381
0.591229
0.666207
0.742225
0.815025
0.880669
0.936003
0.979094
1.00948
1.02811
1.037
1.03871
1.03581
1.03049
1.02439
1.01853
1.01347
1.0094
1.00633
1.0041
1.00256
1.00153
1.00088
1.00047
1.00023
1.0001
1.00003
0.999998
0.999984
0.999981
0.999983
0.999986
0.999989
0.999992
0.999995
0.999996
0.999998
0.999999
0.999999
0.999999
1
1
1
1
1
1
1
1
1
1
1
1
1
1
1
1
1
1
0.886993
0.822789
0.750631
0.674313
0.598344
0.527073
0.463885
0.410846
0.36887
0.338134
0.318534
0.309946
0.312394
0.326134
0.351675
0.389555
0.439863
0.50164
0.572564
0.649136
0.727152
0.802235
0.870327
0.928131
0.973551
1.00596
1.02621
1.03626
1.03872
1.03623
1.03108
1.02499
1.01907
1.01391
1.00976
1.00659
1.0043
1.00271
1.00164
1.00096
1.00053
1.00028
1.00013
1.00005
1.00001
0.999997
0.99999
0.999989
0.99999
0.999992
0.999994
0.999996
0.999997
0.999998
0.999999
0.999999
1
1
1
1
1
1
1
1
1
1
1
1
1
1
1
1
1
1
1
0.880309
0.814581
0.741039
0.66352
0.586573
0.514581
0.450949
0.397733
0.355788
0.325215
0.305802
0.297317
0.299696
0.313161
0.338267
0.375708
0.425792
0.487751
0.559332
0.636977
0.716364
0.793015
0.862797
0.92233
0.96941
1.0033
1.02474
1.03568
1.0387
1.03652
1.0315
1.02543
1.01947
1.01425
1.01003
1.00681
1.00446
1.00283
1.00174
1.00103
1.00058
1.00032
1.00016
1.00008
1.00003
1.00001
0.999999
0.999996
0.999995
0.999996
0.999997
0.999998
0.999998
0.999999
0.999999
1
1
1
1
1
1
1
1
1
1
1
1
1
1
1
1
1
1
1
1
0.876413
0.809917
0.735784
0.657821
0.580526
0.508268
0.444448
0.391143
0.34921
0.318731
0.299436
0.291024
0.293352
0.306593
0.331311
0.368298
0.418033
0.479919
0.551771
0.62998
0.710117
0.787624
0.858331
0.91883
0.96687
1.00164
1.02382
1.0353
1.03869
1.03671
1.03178
1.02572
1.01973
1.01448
1.01021
1.00696
1.00458
1.00293
1.00181
1.00109
1.00063
1.00035
1.00019
1.0001
1.00005
1.00002
1.00001
1
1
0.999999
0.999999
0.999999
0.999999
0.999999
1
1
1
1
1
1
1
1
1
1
1
1
1
1
1
1
1
1
1
1
1
0.875435
0.808892
0.734908
0.65721
0.580171
0.508079
0.444315
0.390998
0.349039
0.31856
0.299304
0.290934
0.293254
0.306367
0.330804
0.367391
0.416721
0.478321
0.550072
0.628328
0.708578
0.786214
0.857072
0.917764
0.966048
1.00109
1.02352
1.0352
1.03871
1.03681
1.0319
1.02585
1.01985
1.01459
1.01031
1.00704
1.00466
1.00299
1.00187
1.00113
1.00067
1.00039
1.00022
1.00012
1.00007
1.00003
1.00002
1.00001
1
1
1
1
1
1
1
1
1
1
1
1
1
1
1
1
1
1
1
1
1
1
1
1
1
1
1
0.877411
0.811512
0.73835
0.66156
0.585344
0.513842
0.450391
0.397159
0.355157
0.324612
0.30533
0.296995
0.299366
0.312473
0.336769
0.373055
0.42196
0.483086
0.554358
0.63212
0.711819
0.788839
0.859059
0.919172
0.966981
1.00167
1.02385
1.03537
1.03878
1.03681
1.03188
1.02582
1.01983
1.01458
1.01031
1.00706
1.00468
1.00302
1.0019
1.00117
1.00071
1.00042
1.00024
1.00014
1.00008
1.00005
1.00003
1.00002
1.00001
1.00001
1
1
1
1
1
1
1
1
1
1
1
1
1
1
1
1
1
1
1
1
1
1
1
1
1
0.882295
0.817707
0.745989
0.670676
0.595791
0.525291
0.462438
0.409441
0.36744
0.336815
0.317494
0.309215
0.311713
0.324932
0.349226
0.385313
0.433784
0.494246
0.56465
0.641349
0.719803
0.795441
0.864236
0.922996
0.969621
1.00335
1.0248
1.0358
1.03888
1.03672
1.0317
1.02562
1.01966
1.01444
1.01023
1.00701
1.00467
1.00303
1.00192
1.00119
1.00073
1.00044
1.00027
1.00016
1.0001
1.00006
1.00004
1.00002
1.00001
1.00001
1.00001
1
1
1
1
1
1
1
1
1
1
1
1
1
1
1
1
1
1
1
1
1
1
1
1
0.889935
0.827331
0.757645
0.68433
0.611235
0.542129
0.480181
0.42763
0.385759
0.355124
0.335814
0.32765
0.330352
0.343777
0.368168
0.404121
0.452119
0.511711
0.580833
0.65587
0.732357
0.805837
0.872428
0.929086
0.973849
1.00603
1.0263
1.03645
1.03899
1.03652
1.03137
1.02526
1.01934
1.01419
1.01005
1.00689
1.0046
1.003
1.00191
1.0012
1.00074
1.00046
1.00028
1.00017
1.00011
1.00007
1.00004
1.00003
1.00002
1.00001
1.00001
1.00001
1
1
1
1
1
1
1
1
1
1
1
1
1
1
1
1
1
1
1
1
1
1
1
0.900068
0.840132
0.773088
0.70228
0.631406
0.564078
0.503368
0.451534
0.409999
0.379514
0.360339
0.352378
0.355345
0.369026
0.393542
0.429346
0.476768
0.535228