/*--------------------------------*- C++ -*----------------------------------*\
  =========                 |
  \\      /  F ield         | OpenFOAM: The Open Source CFD Toolbox
   \\    /   O peration     | Website:  https://openfoam.org
    \\  /    A nd           | Version:  6
     \\/     M anipulation  |
\*---------------------------------------------------------------------------*/
FoamFile
{
    version     2.0;
    format      ascii;
    class       volVectorField;
    location    "1.8e-05";
    object      U;
}
// * * * * * * * * * * * * * * * * * * * * * * * * * * * * * * * * * * * * * //

dimensions      [0 1 -1 0 0 0 0];

internalField   nonuniform List<vector> 
2370
(
(1.63794 0.194137 -0.00534334)
(0.834329 0.506662 -0.00731984)
(0.0238068 0.884074 0.025297)
(0.778353 0.232607 0.0012187)
(0.435545 -0.0580856 -0.00591625)
(1.31087 -0.274945 0.00467415)
(0.386327 0.432505 0.0071465)
(0.748064 0.255267 0.000599605)
(0.845875 0.168881 0.000722231)
(0.839393 0.161795 0.00227032)
(0.7577 0.233725 0.000585705)
(0.871319 0.149641 0.000553008)
(0.914122 0.241326 -9.20618e-05)
(0.712304 0.330332 0.00491845)
(0.566824 0.48266 -0.00115655)
(0.810435 0.231921 0.000317271)
(0.809594 0.222355 0.00526608)
(0.697258 0.197614 0.000844505)
(0.611271 0.410788 0.00207463)
(0.946235 0.334242 -0.00399542)
(0.835805 0.184168 0.0012493)
(0.807792 0.233786 -3.99748e-05)
(0.364766 0.534802 0.00624)
(0.813559 0.163797 -0.00100065)
(0.782494 0.108012 -0.000505785)
(0.860884 0.169186 0.00263164)
(1.03558 -0.0611373 0.00372004)
(1.01146 0.44952 -0.00225112)
(0.918696 0.114204 -0.0348839)
(0.814068 0.144106 -0.000649457)
(0.648213 0.462519 -0.00150169)
(0.93102 0.188067 0.00334745)
(1.00882 0.126001 0.000639515)
(0.617456 0.924429 0.000179322)
(0.853138 0.167862 0.00129903)
(0.454818 0.582588 0.00515602)
(0.783958 0.245924 0.000795464)
(0.750747 0.153567 -0.0020321)
(0.824362 0.252832 -0.00166541)
(1.10829 -0.0761001 0.00878137)
(0.866031 0.12974 0.00256646)
(1.22131 -0.0255898 0.00354172)
(0.886582 0.0654653 0.00283173)
(0.748839 0.249405 0.00190919)
(0.612938 0.461269 0.00531334)
(0.624515 0.33479 0.00223224)
(1.13144 -0.0539044 0.00438062)
(0.623079 0.415355 0.00229772)
(0.90775 0.081363 0.00103951)
(-0.0585619 1.08488 0.0170056)
(1.15077 0.59705 -0.00882552)
(0.855013 0.137985 0.00360129)
(1.27591 -0.318199 0.00802309)
(0.693061 -0.00277381 -0.00309818)
(1.16998 -0.168236 0.00529598)
(0.484871 0.638645 0.00508304)
(0.765133 0.231093 0.00247311)
(0.56074 0.508104 0.00362973)
(1.04548 -0.0643967 0.00380318)
(0.783957 0.240212 0.00199152)
(0.814804 0.19921 0.00172715)
(0.514772 0.532151 0.00265649)
(0.802505 0.227567 0.00135086)
(1.08027 -0.0625501 0.00385759)
(0.648937 0.0283487 -0.00531778)
(0.702129 0.107222 -0.00275693)
(1.0438 0.365376 -0.0061548)
(0.785434 0.196523 -0.00119585)
(1.14747 -0.0530546 0.00444424)
(0.810261 0.235068 -0.00115653)
(0.508518 0.453643 0.00439992)
(1.00367 -0.097445 0.00399804)
(0.580721 0.499144 0.0043724)
(1.09629 -0.0567386 0.00441856)
(0.569896 -0.139352 -0.0031459)
(0.812508 0.231568 -0.00134923)
(0.543032 -0.0178064 -0.0029311)
(1.08854 0.47832 -0.00399384)
(0.781747 0.19608 -0.00149076)
(0.420102 0.545381 0.00662443)
(1.1558 -0.070089 0.0057154)
(0.773538 0.250146 0.0014936)
(0.825284 0.204714 0.00204878)
(0.296469 -0.376198 -0.00897819)
(0.811244 0.209768 0.00146983)
(0.680314 0.42057 0.00165598)
(0.992836 0.0178458 0.0042871)
(1.09256 0.512423 -0.00321486)
(0.54624 0.443424 0.00172552)
(0.891951 0.359526 -0.00336643)
(0.637078 0.056148 -0.0021454)
(0.536169 0.583124 0.00441852)
(0.741924 0.247735 0.00253923)
(1.12841 0.713423 -0.00663047)
(0.514562 0.40781 0.00418767)
(0.71696 0.268092 0.00126822)
(0.953512 0.0901645 0.00140498)
(0.980044 0.399982 -0.00289695)
(0.62061 0.406697 0.00291584)
(0.892862 0.346992 -0.00195468)
(0.561343 -0.0609893 -0.00475345)
(0.916352 0.374443 -0.00221541)
(1.01278 0.540985 -0.00480891)
(0.870724 0.157128 0.0029747)
(1.12718 -0.142429 0.00560524)
(0.988376 0.0240523 0.00402808)
(0.854622 0.157511 0.00039997)
(1.01443 -0.0711271 0.0034392)
(1.05882 -0.16464 0.0040681)
(0.58887 0.408676 0.00332618)
(0.813308 0.199213 0.000814234)
(1.04654 -0.0107202 0.00357144)
(0.608841 0.401598 0.00421223)
(0.665503 0.115902 -0.0019736)
(1.00981 0.386136 -0.00343064)
(0.882641 0.0940169 0.00174141)
(0.768595 0.254951 0.000911798)
(0.657677 0.0493432 -0.00216333)
(0.666958 0.298319 0.00189755)
(1.0013 0.493035 -0.00458759)
(0.980894 0.0718255 0.00264413)
(0.622228 0.290239 0.00123584)
(0.574323 0.377726 0.0028304)
(0.449677 -0.018596 -0.00438945)
(1.12174 -0.233861 0.00281483)
(0.629622 0.379077 0.00357384)
(0.895232 0.0272177 0.00131517)
(0.779852 0.222893 0.001002)
(0.664493 0.0834701 -0.00290691)
(0.937671 0.328875 -0.00274953)
(1.01908 0.429039 -0.00310288)
(0.38519 -0.0532504 -0.00544057)
(0.590143 -0.00896414 -0.00260316)
(0.87518 0.270651 -0.0014893)
(0.441755 0.45246 0.0047014)
(1.49933 0.643932 -0.00986583)
(0.835382 0.261147 -0.00267168)
(1.0447 0.0577091 0.00311849)
(0.56106 -0.00248492 -0.00439191)
(0.677406 0.432937 0.00287736)
(0.904892 0.305361 -0.00318827)
(0.580111 -0.0145624 -0.00306824)
(0.799726 0.216199 -0.000566658)
(0.735539 0.10352 -0.00198975)
(0.813684 0.232705 -0.00144698)
(0.847132 0.18007 0.00121226)
(0.673828 0.0955199 -0.00382256)
(1.07856 0.507293 -0.00319138)
(0.995042 0.396509 -0.00140837)
(0.747969 0.148306 -0.00228813)
(1.05206 0.225214 -0.0133544)
(0.69384 0.00971597 -0.00183935)
(0.680233 0.362884 0.00294331)
(0.640124 0.0253891 -0.00145694)
(1.0022 0.353853 -0.00227211)
(0.956307 0.0576523 0.0034054)
(0.526432 0.380003 -0.0262011)
(0.755254 0.343627 0.00324496)
(0.738919 0.375932 0.000641173)
(0.856434 0.434508 0.00145548)
(-0.525068 0.701262 0.0476708)
(1.26134 0.154236 0.0261517)
(0.690768 0.345077 0.00171457)
(0.328443 0.0911843 -0.00492634)
(0.457219 -0.0420062 -0.00371213)
(0.99396 0.423661 -0.00282097)
(0.773863 0.18064 -0.00172271)
(0.795407 0.205966 -0.00124484)
(0.420532 0.128133 -0.00686559)
(0.761937 0.195629 -0.000912133)
(0.843827 0.184116 0.00135563)
(0.893375 0.332514 -0.00226498)
(0.719357 -0.0514406 -0.00226466)
(0.772514 0.169738 -0.00111262)
(0.950633 0.318396 -0.00121214)
(0.97872 0.394108 -0.0022563)
(0.722455 0.292088 0.00190854)
(0.785342 0.199412 0.000352211)
(0.765596 0.23209 0.000180171)
(0.724359 0.128412 -0.002059)
(0.786917 0.230966 0.00128971)
(0.791416 0.204211 0.000279183)
(0.988186 0.0565037 0.00424732)
(0.783346 0.214841 -6.99594e-05)
(0.784062 0.193683 -0.00138062)
(0.707878 0.192218 0.00124306)
(0.896502 0.125391 -0.00101835)
(0.639912 0.0393806 -0.00517601)
(0.758628 0.271981 0.0018686)
(0.609542 0.398871 -0.0146032)
(0.781666 0.183093 0.00080342)
(0.795773 0.238966 -0.000803933)
(0.665792 0.069445 -0.00386788)
(0.784353 0.288569 -0.000508233)
(0.671985 0.18103 0.00394925)
(0.74587 0.152632 -0.00263325)
(1.298 -0.249723 0.00521868)
(0.951187 0.372735 0.000677303)
(1.05814 0.0107202 0.000295929)
(-0.305168 1.14834 0.0159114)
(0.498343 -0.0979688 -0.00576341)
(0.851045 0.755685 0.00328238)
(0.56688 0.392547 0.00168169)
(0.756339 0.360782 -1.72722e-05)
(1.36833 0.852637 -0.00688739)
(0.800022 0.278603 0.00673406)
(1.0667 0.571165 -0.000701022)
(0.663312 0.450985 0.000290071)
(0.770896 0.213528 -0.00159583)
(1.45048 0.79054 -0.00736709)
(0.499545 0.150398 0.00617822)
(1.74933 1.20023 -0.0160919)
(0.897206 0.299391 -0.00116428)
(0.693659 0.432341 -0.00149093)
(0.501892 -0.073576 0.00504018)
(0.43497 0.2329 -0.0116636)
(0.821608 0.197884 -0.000738651)
(0.78193 0.215148 0.00472995)
(0.931346 -0.0148369 0.00801189)
(0.854339 0.403904 0.0115008)
(0.798242 0.197277 0.000514336)
(0.779774 0.212184 -0.00116096)
(0.69118 0.125159 -0.007262)
(0.788132 0.215953 -0.000722855)
(0.783781 0.312087 0.0224937)
(0.759928 0.205824 0.00385405)
(0.867045 0.250866 -0.00680035)
(0.739878 0.207011 0.00359867)
(0.95168 -0.0827786 -0.00630466)
(0.822559 0.270641 0.00191929)
(0.998389 0.270985 0.0084603)
(1.08811 0.316339 -0.00211368)
(1.38295 0.85395 -0.011432)
(0.785198 0.153476 -0.00110217)
(0.836405 0.214394 -0.00154142)
(0.655246 0.359116 0.00213742)
(0.748747 0.253441 0.000152035)
(0.804316 0.11457 0.00010788)
(0.809103 0.105412 2.72951e-05)
(0.785741 0.206134 0.00127969)
(0.857729 0.261565 -0.00015933)
(0.925736 0.331897 -0.00162186)
(0.784952 0.226274 -1.0231e-05)
(0.718106 0.194083 -0.000336635)
(0.799625 0.236492 -0.000149548)
(0.774706 0.217553 -0.000244129)
(0.720388 0.428066 0.00137254)
(0.922278 0.21223 0.00121762)
(0.702639 0.20847 -3.69625e-05)
(0.999985 -0.0850684 0.0017329)
(0.827142 0.27598 0.00353038)
(0.776608 0.22281 0.000204904)
(1.26217 0.251169 0.00157715)
(0.970357 0.373233 0.00089559)
(0.794525 0.226796 -5.75188e-05)
(0.80477 0.197631 0.00381137)
(0.776401 0.228127 0.00539798)
(0.910463 0.338847 -0.00407204)
(0.724342 0.137107 -0.00348428)
(2.34644 1.76408 -0.0419002)
(-0.276819 -1.04377 -0.022845)
(0.793387 0.21283 -0.00300349)
(0.812128 0.248837 -0.00232708)
(2.1804 1.51106 -0.0406287)
(0.71982 0.138489 -0.00224774)
(1.76836 1.20714 -0.0212583)
(0.728905 0.140869 -0.00495717)
(-0.232609 -0.881766 -0.0253225)
(0.792795 0.208937 -0.00382285)
(0.376799 -0.203863 -0.0073049)
(1.75376 1.18389 -0.0189624)
(0.657119 0.0653054 -0.00513949)
(0.644945 0.0553278 -0.00281482)
(-0.0707868 -0.551084 -0.0153548)
(0.00614288 -0.544356 -0.0169736)
(0.467137 -0.0976771 -0.00579742)
(0.785358 0.276204 -0.000255461)
(0.955486 0.407577 -0.000610207)
(0.827241 0.131472 -3.76768e-05)
(0.800288 0.262666 -0.000386295)
(0.769707 0.121282 -0.000269981)
(0.684389 -0.0153955 -0.00273145)
(0.837869 0.242866 -0.000322585)
(0.721286 0.129772 -0.00300531)
(0.585631 -0.0755347 -0.00964331)
(0.553078 0.282952 -0.000372191)
(0.928165 0.179154 -0.00608696)
(0.797545 0.247208 -0.000311)
(0.805654 0.203214 -0.000312406)
(0.927389 0.564662 -0.00799514)
(1.44118 -0.774251 -0.00470222)
(0.805856 0.24747 -0.000262774)
(0.342559 0.0185223 -0.00221737)
(0.19013 0.724906 -0.00112016)
(0.793266 0.249963 -0.000253239)
(0.788257 0.262378 -0.000223404)
(0.804092 0.236262 -0.00018648)
(0.828469 0.246472 -0.000251728)
(1.57068 -0.469956 -0.0012268)
(1.25793 0.354744 -0.00263896)
(0.813199 0.235924 6.55917e-05)
(1.42292 -0.331422 -0.00192597)
(-0.0386792 0.0320505 -0.00275562)
(0.814101 0.23929 -0.000334869)
(0.799551 0.23878 -0.000553156)
(0.598909 -0.0957767 -0.00894093)
(0.0021115 -0.00120408 -0.00234636)
(0.217125 -0.110137 -0.00917458)
(0.134267 0.189954 -0.00118582)
(0.881197 0.29922 -0.00120036)
(0.552552 0.232065 0.000196737)
(0.867929 0.253205 -0.000357033)
(0.797083 0.270439 7.19779e-05)
(0.798226 0.0596408 -0.00269622)
(1.0144 0.468572 -0.00278477)
(0.827249 0.162876 -0.00139451)
(0.787269 0.23777 0.001029)
(0.936711 0.190435 -0.00137324)
(0.503865 0.490076 0.00175331)
(1.28232 0.594788 -0.0112132)
(0.310781 -0.187476 -0.0126326)
(0.758658 0.229993 3.18231e-05)
(0.763238 0.170245 -0.00288261)
(0.3833 -0.225492 -0.00821036)
(0.229226 -0.381493 -0.00948644)
(0.82892 0.205886 5.01553e-06)
(0.793408 0.147263 0.00143205)
(1.00321 -0.0123221 0.00472889)
(0.527095 0.491643 0.00327735)
(0.674428 0.0883305 -0.0029708)
(1.07469 0.319408 -0.00116319)
(0.78711 0.198681 0.000303512)
(0.60615 0.0374947 -0.00901207)
(0.804671 0.131553 2.98319e-05)
(0.78559 0.168503 -0.00032402)
(0.643701 0.282953 -0.00278672)
(0.811151 0.273611 -0.000422552)
(0.638545 0.143862 -3.70389e-05)
(0.750315 0.230567 0.000877348)
(0.95988 0.0675791 -0.00295214)
(0.687326 0.104459 -0.00299865)
(0.951949 0.446798 -0.000752947)
(1.38321 0.809454 -0.00930957)
(0.857954 0.282935 -0.000209854)
(0.748463 0.0622264 0.000148855)
(1.04842 0.402594 0.00456088)
(0.53135 0.251793 -0.000480988)
(0.969714 0.370225 0.00344403)
(0.610932 0.37184 -0.000132645)
(0.847202 0.250626 0.00343603)
(0.949809 0.184952 -0.00137122)
(0.807317 0.520108 -0.000704741)
(0.8128 0.481007 -0.00187532)
(0.896326 0.228178 0.000288867)
(0.768279 0.170355 -0.000328247)
(0.804241 0.193499 0.00067961)
(0.83124 0.0884181 0.000374585)
(0.836024 0.233118 5.83709e-05)
(0.726546 0.280401 0.000788282)
(1.02707 0.05163 0.00691295)
(0.501934 0.499732 0.00490622)
(0.804997 0.25156 0.000164025)
(0.657031 0.319014 0.000595556)
(0.995703 0.179372 -0.00118468)
(0.836042 0.0797583 0.000456342)
(0.613841 0.192543 -0.00138757)
(0.969763 0.350764 -0.00157267)
(0.98469 0.0239498 0.00363967)
(0.80294 0.154645 0.000572511)
(0.908495 0.185872 0.000288253)
(0.883081 0.151143 -0.000992281)
(0.793142 0.225129 0.000255608)
(1.00829 -0.124593 -0.000131854)
(0.800246 0.223998 -5.22397e-05)
(0.839136 0.339928 0.000424624)
(0.846989 0.252036 0.00175318)
(0.533014 -0.0702449 -0.00482641)
(0.759929 0.152708 0.000391826)
(0.385696 -0.293637 0.0142416)
(0.744741 0.116898 0.00262118)
(0.827854 0.179704 0.00283416)
(1.11976 0.184077 0.00141555)
(0.766511 0.254825 0.00261827)
(0.770184 0.316995 0.00303922)
(0.666485 0.177798 -0.000316638)
(0.857449 0.0591167 -0.00107384)
(0.854849 0.170873 -0.000594602)
(0.761812 0.314257 -0.000254738)
(0.527872 -0.0422979 -0.00433386)
(0.702617 0.180568 -0.000467742)
(0.639428 -0.178975 0.000128145)
(0.825094 0.304677 -0.00232913)
(0.853992 0.278271 -0.000311487)
(0.792178 0.266843 -0.000408614)
(0.838101 0.207323 -0.000510988)
(0.867898 0.263358 0.00309793)
(0.740357 0.131511 -0.00121524)
(1.20531 0.606578 -0.00535553)
(0.749039 0.243217 0.000597843)
(1.14527 -0.777364 0.0109491)
(0.771597 0.155881 0.000240518)
(0.697566 0.101937 0.00217155)
(0.683269 0.217655 0.0292298)
(0.787881 0.215825 0.00129753)
(0.833203 0.237489 0.00247602)
(1.47214 -0.133447 0.0277639)
(0.966906 1.12094 0.0166805)
(0.780348 0.280618 0.00173643)
(0.782314 0.234748 0.00224016)
(0.106792 -0.499372 0.022894)
(0.79915 0.30568 0.00220113)
(0.771567 0.235812 0.00177118)
(0.811718 0.189761 -0.0035051)
(0.75011 0.258204 0.00180517)
(0.0638402 -0.579763 0.0240726)
(0.825941 0.246513 0.0016663)
(0.779561 0.319174 0.000410424)
(0.741678 0.190866 0.000437517)
(0.935686 0.20204 0.000899445)
(0.97528 0.0522188 -0.00115821)
(0.758375 0.193714 -0.000318375)
(0.651702 -0.171784 0.0136821)
(1.04999 -0.198798 0.00904178)
(0.705186 0.121017 -0.00394169)
(0.806522 0.235764 0.00092421)
(0.83281 0.475081 0.00842782)
(0.683939 0.341036 0.000995241)
(0.735785 0.259552 0.00200914)
(0.768761 0.250457 -0.000367501)
(0.79233 0.25183 0.000753565)
(1.11939 0.576707 0.0109009)
(0.838822 0.238095 0.00185629)
(0.837766 0.213149 0.00207852)
(0.83739 0.225605 0.00311669)
(0.84966 0.105043 0.000569716)
(0.807101 0.214727 0.00238652)
(0.926146 0.203297 -0.00229053)
(0.805747 0.255036 0.000295305)
(1.14636 0.175545 0.0101507)
(0.490554 -0.124942 -0.00785358)
(0.752594 0.229691 -0.000309784)
(0.796199 0.358735 0.00627757)
(0.539432 0.295234 -4.90829e-05)
(0.803229 0.205136 0.000117755)
(1.22575 0.587709 0.0108377)
(0.817606 0.227288 -6.63478e-05)
(0.771996 0.185459 -0.000971741)
(0.932191 0.0611588 0.00324825)
(1.02293 0.197497 0.000558686)
(0.663945 0.0721405 -0.00291143)
(0.803354 0.156765 -8.93338e-05)
(0.605514 0.025832 -0.0061935)
(0.80667 0.242304 -0.000194238)
(0.790828 0.309968 -0.000510793)
(1.17064 0.291871 -0.000746008)
(0.986784 0.152397 0.00548793)
(0.849003 0.336421 -0.00774903)
(0.795447 0.193393 0.00235106)
(1.3034 0.735637 0.01477)
(0.82215 0.200312 0.000108508)
(0.667094 -0.0578271 0.000389693)
(0.797082 0.223271 0.000316507)
(0.786644 0.475512 0.00188426)
(0.748439 0.142972 0.000766703)
(0.764507 0.349095 0.000390526)
(1.12201 0.194626 0.00579376)
(1.60647 1.0203 -0.0124504)
(0.86878 0.122111 -0.00277265)
(0.790142 0.135118 5.62421e-05)
(0.877619 0.275897 -0.00177795)
(0.663529 0.25654 0.00217848)
(0.722635 0.0300642 -0.000545565)
(0.833951 0.184445 0.00208949)
(1.25201 0.68385 0.0143744)
(1.25325 0.422771 0.00574729)
(0.902371 0.190444 0.0005252)
(0.786868 0.0107296 0.00121505)
(0.857569 0.235324 -0.000706907)
(0.765747 0.223264 -0.000476943)
(0.785639 0.336184 -0.000336289)
(0.780008 0.201594 -0.000429799)
(0.635738 0.0829689 -0.0022836)
(0.403586 0.644526 0.0128754)
(0.80282 -0.170037 -1.09713e-05)
(0.779553 0.184746 0.00330306)
(0.711124 0.227539 -0.000881923)
(0.832406 0.228743 -0.00310847)
(0.778366 0.126616 0.000719651)
(0.636636 0.208484 0.000164403)
(0.871035 0.21732 0.00102832)
(0.74942 0.272628 0.00381909)
(0.80565 0.234421 0.000428527)
(1.01813 0.122201 0.000922488)
(0.674842 0.25186 0.00230529)
(0.694006 -0.162586 0.00663072)
(0.70053 0.357893 0.00858147)
(1.08324 0.495754 -0.00468508)
(0.491602 -0.0323648 0.00624963)
(0.606411 0.257084 0.00123989)
(0.732534 0.3059 0.000472762)
(0.776091 0.217228 -0.00233334)
(0.630389 0.423724 0.00549436)
(0.942004 0.274952 0.00498508)
(0.639937 0.192738 -0.000723082)
(0.943189 0.386774 -0.000546083)
(0.667867 0.258487 -0.000295427)
(0.403621 -0.149654 -0.00783778)
(0.665305 0.240588 -0.000352313)
(0.808528 0.303609 -0.000797434)
(0.680408 0.166267 -0.00082068)
(0.874911 0.199108 -0.000504256)
(0.80664 0.447515 0.00542631)
(0.659297 0.444203 0.00586053)
(0.919628 0.224694 0.00119423)
(0.71595 0.319737 -0.00224494)
(0.91105 0.237079 -0.000812524)
(0.733594 0.284094 -0.00125677)
(0.741948 0.17996 0.000706432)
(0.747569 0.336856 9.374e-05)
(0.802869 0.15286 0.000699861)
(0.579583 0.2885 0.00113278)
(0.953246 -0.293155 0.00045045)
(0.910595 0.0288632 0.000616424)
(0.919165 0.296593 0.0039667)
(0.772529 0.289239 0.000714128)
(0.696683 0.249172 0.00334354)
(1.11222 -0.0405216 0.00851672)
(0.768518 0.206308 -0.000469549)
(0.969076 0.106089 0.00326944)
(0.838997 -0.0641498 0.007612)
(0.735301 0.22826 -0.00135465)
(0.799596 0.0179578 0.0054447)
(0.746854 0.266067 0.00428082)
(0.657485 0.217878 0.00502098)
(0.849067 0.188066 0.000543123)
(0.896707 0.291013 -0.00179648)
(0.857117 0.190567 -0.000922977)
(0.906695 0.0904283 -0.00212041)
(1.03136 0.30166 -0.00146416)
(0.867391 0.0226453 0.000835982)
(0.97826 0.414194 0.00355002)
(0.74671 0.225823 0.000326746)
(0.90543 0.328376 0.000568477)
(0.898872 0.138448 0.00051106)
(0.823028 0.0498872 -0.000876686)
(0.807764 0.0816306 -0.00251492)
(0.788123 0.13149 0.000417441)
(0.800171 0.210347 9.30288e-05)
(0.846955 0.403326 0.000454898)
(0.936576 0.310978 0.00296243)
(0.793858 0.290081 -0.000397478)
(0.73002 0.2044 -2.94587e-05)
(0.761259 0.269105 -0.00307125)
(0.733843 0.280105 0.0022818)
(0.633808 0.490961 0.00116761)
(0.393402 -0.0401965 0.00574258)
(0.776824 0.219936 0.000118438)
(0.787969 0.136044 0.00055548)
(1.19299 0.708381 -0.0056385)
(0.811143 0.377061 0.00543087)
(0.71629 0.305345 0.000428206)
(0.745565 0.0201907 0.000533266)
(0.725878 0.599741 0.00118987)
(0.870669 0.207795 -0.000329388)
(0.717158 0.232296 0.000349769)
(1.20124 -0.252209 0.0126472)
(0.836982 0.0593355 0.0048229)
(0.700362 0.404631 0.00453444)
(0.999404 -0.137502 0.0126599)
(0.600107 0.0091344 -0.00506934)
(0.788324 0.258064 -0.00064099)
(0.737001 0.28827 -0.00165771)
(0.691079 0.213005 -0.00386278)
(0.893447 0.356476 -0.00226137)
(0.88258 0.123421 0.00505541)
(0.82724 0.164977 0.000628703)
(0.946716 0.216724 -0.00251861)
(0.862262 0.199717 0.00344825)
(0.887977 0.316031 -0.00303635)
(0.843132 0.32684 -0.0030606)
(0.815806 0.231173 0.000533235)
(0.627408 0.319917 -0.000703377)
(0.820137 0.197283 0.00204235)
(0.851115 0.153342 0.000309148)
(0.832569 0.163097 -0.000138166)
(1.13531 0.51041 0.00548908)
(0.598713 0.135825 -0.0033526)
(0.965099 0.0246365 -8.59843e-05)
(0.836547 0.330348 -0.00070957)
(0.807101 0.380441 -0.000139655)
(0.809557 0.259458 0.000449156)
(1.1954 0.219304 -0.00429427)
(0.818158 0.232742 -0.00247782)
(0.816524 0.155883 -0.000227308)
(0.880904 0.188175 0.00397687)
(0.827941 0.22984 0.00193877)
(0.819045 0.222601 0.00190401)
(0.832236 0.216813 -0.00201807)
(0.705742 0.305972 0.00337989)
(0.892452 0.300779 -0.000405456)
(0.79897 0.225997 0.000514234)
(1.2242 0.592768 -0.00788392)
(0.519642 -0.0272188 -0.00666121)
(0.723995 0.200406 -0.000353743)
(0.727087 0.172053 -0.001769)
(0.776374 0.247035 -0.000437348)
(0.768806 0.182604 0.00283708)
(0.854556 0.265987 -0.000429063)
(0.797749 0.307922 0.0024986)
(0.878117 0.322333 0.00309322)
(0.84384 0.264374 0.00097049)
(0.699551 0.188989 0.00376631)
(0.846509 0.0902287 0.00107651)
(1.00962 0.0227742 0.00449633)
(0.586587 0.422445 0.00335817)
(0.777074 0.162915 0.000160158)
(1.06768 0.281222 -0.00107406)
(0.857924 0.0533596 -0.000999289)
(1.02635 0.239179 -0.00094472)
(0.915866 0.505525 -0.00481997)
(0.78858 0.191203 -0.000311122)
(0.783237 0.273326 0.00153813)
(0.570471 0.211124 -0.00128931)
(0.781915 0.109139 0.000290836)
(0.857136 0.110638 0.00370063)
(0.899326 0.218136 0.000988819)
(0.203771 -0.320344 -0.00866998)
(0.950127 0.398078 -0.00315477)
(0.85932 0.21297 0.0019394)
(0.809753 0.206201 0.00261353)
(1.02354 0.208756 -0.000989481)
(0.631512 0.192083 -0.00361943)
(0.802916 0.219897 0.000280013)
(0.888594 -0.0838396 -0.000109885)
(0.852744 0.139895 -0.00149856)
(0.800374 0.236111 0.000522214)
(1.06489 -0.170965 -0.0123747)
(0.919814 0.0792696 0.00272598)
(0.774192 0.257441 -0.000379955)
(0.795143 0.152813 -0.000128051)
(0.847128 0.219349 0.000510373)
(0.736678 0.524995 -0.00265374)
(0.312973 0.113125 -0.00108181)
(0.884855 0.232756 0.000873758)
(0.861596 0.405154 -0.00567268)
(0.620421 0.132659 -0.00528601)
(0.781556 0.158476 -0.000934599)
(1.23675 -0.209682 0.0080509)
(0.895238 0.164287 0.000761372)
(0.798363 0.285317 -0.000577796)
(0.768176 0.232334 0.00273629)
(0.789497 0.127506 2.87213e-05)
(0.65692 0.110238 -0.00393631)
(0.778506 0.244871 -0.000379067)
(0.56922 0.385172 -0.000853068)
(0.919928 0.0939053 -0.0020904)
(0.791309 0.158176 0.000214618)
(0.831182 0.138366 -0.00139001)
(0.526352 0.113389 -0.00454461)
(0.970164 0.05432 -0.00367808)
(0.605252 0.250122 0.000353256)
(0.462553 0.563334 0.00576246)
(0.415699 -0.0344162 -0.0126329)
(0.740163 0.230527 0.00100401)
(0.691566 0.414311 0.00304547)
(0.10953 0.938427 0.0182321)
(1.01491 0.0938643 0.000634571)
(0.998525 0.32312 -0.00398889)
(1.27928 -0.249189 0.00564426)
(0.783904 0.233303 -0.000402984)
(0.811906 0.238554 0.000540201)
(0.841143 0.220069 0.0013228)
(0.750877 0.127677 -0.00017291)
(0.78623 0.216607 -0.000308719)
(0.730498 0.364507 0.000897456)
(0.861143 0.256617 0.00106811)
(0.823799 0.281248 0.000562422)
(0.828274 0.239002 -0.00217788)
(0.783106 0.20234 0.00145282)
(0.77132 0.167943 0.00142702)
(0.843019 0.231713 -0.000244664)
(0.824154 0.237443 -0.000193229)
(0.813546 0.212358 0.000425444)
(0.698623 0.110104 -0.00184529)
(0.809486 0.245584 0.000484754)
(0.82038 0.208701 0.00144521)
(0.80161 0.244593 0.000302417)
(0.598505 -0.0985567 -0.00390487)
(0.809188 0.205111 0.00163937)
(0.78871 0.224554 -0.000316104)
(0.816834 0.239185 -0.00205799)
(0.843076 0.173751 0.00317871)
(1.28029 -0.270576 0.00885392)
(0.60473 0.400805 0.00529408)
(0.758638 0.0354291 -0.00134166)
(0.98333 -0.379357 0.00717101)
(0.83255 0.073862 -0.000983409)
(0.732421 0.327512 0.00127267)
(0.867545 -0.0224538 -0.000847654)
(0.655242 0.329395 -0.000337819)
(1.02551 0.346723 -0.00377171)
(0.810083 0.254132 -0.000146828)
(0.535046 0.405654 -0.0036611)
(0.804028 0.222699 0.000979273)
(0.773965 0.221654 -0.000250841)
(0.799087 0.193059 1.56237e-05)
(0.964905 -0.00616267 0.00525762)
(0.790559 0.236763 -0.000121956)
(0.761018 0.372917 -0.00137246)
(0.797071 0.323402 -7.96663e-05)
(0.623839 0.347115 0.000978973)
(0.804841 0.202146 0.00123626)
(0.880712 0.387329 -0.00159765)
(0.778202 0.228991 0.00111476)
(0.787124 0.205053 0.00228558)
(1.04712 0.528761 0.00592103)
(0.590342 0.267418 -0.00585993)
(0.844743 0.269688 -0.00374058)
(0.873349 0.146725 0.00112432)
(0.832582 0.250847 -0.00175853)
(0.797648 0.245401 -0.000452645)
(0.878223 0.438892 -0.00607655)
(0.793672 0.235585 0.000485738)
(0.875988 0.0561809 0.000904854)
(0.830478 0.26045 -0.00243691)
(0.800986 0.217359 -0.000430644)
(0.800627 0.239054 -0.000154419)
(0.400383 -0.153474 -0.00804954)
(0.960425 0.0704575 0.000367933)
(0.731892 0.14046 -0.000381629)
(0.808063 0.380577 -0.000566659)
(0.943453 0.374975 0.00442817)
(0.812314 0.274585 -0.000558988)
(0.754021 0.0795969 -0.000824513)
(0.73339 0.213366 -0.00377668)
(0.774554 0.325902 -0.000534295)
(0.843396 0.203837 -0.00012892)
(0.414412 0.565105 0.0129901)
(0.904583 0.0655921 0.0038144)
(0.648826 0.200442 -0.00754758)
(0.646989 0.59132 0.00377312)
(0.720909 0.170336 -0.00201463)
(0.662834 -0.0579802 -0.00351)
(0.805382 0.237178 -0.00273928)
(0.939664 0.0626363 0.00248388)
(0.899588 0.027525 0.00177728)
(0.886352 0.313036 0.00200589)
(1.17369 0.541141 -0.00681624)
(0.761521 0.260916 0.00293138)
(0.795425 0.195982 -0.000479721)
(0.588298 0.208538 0.000235186)
(0.947171 0.0231677 0.00301807)
(0.799058 0.0744163 -0.00114009)
(1.01809 0.488573 0.00478831)
(0.898548 0.422286 -0.00120267)
(0.814452 0.29655 0.000874634)
(0.801366 0.231973 -0.00173294)
(0.831807 0.176232 -0.00197686)
(0.793277 0.256877 -0.00517236)
(0.930451 0.321728 0.00172734)
(0.761133 0.152942 0.00238671)
(0.787459 0.227908 0.000553609)
(0.700892 0.107122 -0.00412624)
(0.751716 0.195244 0.000706874)
(0.966078 0.38129 0.00303333)
(0.861471 0.173716 -0.00152887)
(0.797552 0.257508 0.000349844)
(0.920521 0.0346681 0.00222716)
(0.792346 0.29648 -0.000211157)
(0.915376 0.0262565 -0.000533521)
(0.773149 0.0539014 -0.00175265)
(0.808545 0.113617 -1.57189e-05)
(0.896305 0.269347 -0.000825897)
(0.957871 0.0266009 0.00552483)
(0.845351 0.257877 -0.000608986)
(0.760837 0.221787 0.000572017)
(0.5219 0.278058 -0.00033889)
(1.00294 0.2127 -0.00557242)
(0.974843 -0.00256065 0.00525472)
(0.577397 0.0107786 -0.00548348)
(0.750613 0.171525 0.000464961)
(1.13819 0.187853 0.00359706)
(0.780521 0.212337 0.00196731)
(0.710504 0.302578 0.00246973)
(0.810559 0.317082 -0.000977691)
(0.759308 0.218026 -1.12337e-05)
(0.85997 0.239428 -0.00044366)
(0.786928 0.284139 -0.000238735)
(0.857715 0.223805 -0.00415303)
(0.824631 0.330434 -0.000457365)
(0.621729 0.00651027 -0.00501755)
(0.814358 0.341 -0.00100246)
(0.443038 -0.11285 -0.00442923)
(0.840725 0.251167 0.000729796)
(0.623735 0.0260199 -0.00313086)
(0.912354 0.209898 0.00449587)
(0.51808 0.455983 -0.00465565)
(0.882165 0.32428 0.000309888)
(0.9684 0.341174 -0.00039841)
(0.687196 0.526791 -0.00194254)
(0.323634 0.260215 -0.000165318)
(0.659354 0.269797 -0.00354991)
(1.21645 0.321042 -0.00661338)
(0.771719 0.196464 0.00165051)
(0.755576 0.195338 -0.00148607)
(0.93328 0.279009 0.000374945)
(0.880568 0.2734 0.0010021)
(0.576578 0.347034 0.00414912)
(0.830958 0.0816661 -0.00340619)
(0.77247 0.14844 5.42751e-05)
(0.794717 0.234982 -0.000188325)
(0.936548 0.114088 0.00343514)
(0.732605 0.290372 -0.000306137)
(0.736902 0.357197 -0.00386203)
(1.11403 0.347425 -0.00136616)
(0.791912 0.153505 0.000614971)
(0.866964 0.422567 0.000841525)
(0.9154 0.350547 0.000807518)
(0.746985 0.111947 0.000650483)
(0.792396 0.22951 -0.00143934)
(0.582879 0.239845 -0.00490501)
(0.746558 0.172484 -0.00315247)
(0.685995 0.148645 0.00118319)
(0.684563 0.175325 -0.00304056)
(1.24269 -0.0658187 -0.00649931)
(1.12167 -0.0713249 -0.00710266)
(0.535418 0.0766246 -0.00377526)
(0.473427 0.587467 0.00559467)
(0.824521 0.372896 0.000145118)
(0.84394 0.203061 -0.00310156)
(0.806132 0.208522 0.00114409)
(0.746173 0.238863 0.00116682)
(0.834725 0.239614 -0.000461939)
(0.986895 0.0224851 0.00249288)
(0.7606 0.301215 0.00212312)
(0.994763 0.0447932 0.00561236)
(0.846723 0.343854 -0.00061045)
(0.467873 0.533613 0.00493188)
(0.789759 0.215093 -0.000260732)
(0.820408 0.220287 -0.00048135)
(0.960768 0.179666 -0.000844255)
(0.770701 0.354297 0.00402745)
(0.990666 0.225821 0.00301947)
(0.612746 -0.261777 0.00366686)
(0.712632 0.171753 0.000405208)
(0.814543 0.206852 -0.00125158)
(0.835707 -0.0947748 -0.00795339)
(1.25883 0.159708 -0.00828055)
(0.702336 0.323526 0.000923829)
(1.07831 -0.0645683 -0.00625115)
(0.789364 0.208322 -0.00134609)
(1.02512 0.5473 -0.00605328)
(0.822713 -0.176349 0.000952623)
(0.90517 0.297517 0.000898288)
(0.677216 0.352029 0.00402616)
(0.823447 0.239928 -0.000462662)
(0.771332 0.301008 0.000332298)
(0.705643 0.0680293 -0.00413996)
(0.766014 0.409403 -0.000187356)
(0.665364 0.310357 0.00233073)
(0.813325 0.193011 0.000688816)
(0.483396 -0.111177 0.00906583)
(0.920914 0.335217 -0.000486611)
(0.753753 0.112932 0.000436453)
(1.03606 0.496039 0.000243428)
(0.633888 0.162891 0.00119887)
(0.844138 0.180921 0.00233808)
(0.765821 0.0669983 0.000462562)
(0.783839 0.0765427 0.00613781)
(0.994058 0.225851 0.000838866)
(0.799772 0.28121 -0.00047049)
(0.676761 0.466592 -0.00145569)
(0.724165 0.22198 0.000322719)
(0.744057 0.455468 0.000660106)
(0.694175 0.115378 -0.00078862)
(0.83135 0.243711 -0.000663106)
(1.00215 0.0466436 -0.00306498)
(1.28055 -0.227735 0.00768786)
(0.769124 0.282793 0.000618526)
(0.967586 0.248139 -0.00850443)
(0.827002 0.305595 -0.000221943)
(0.606371 0.199411 -0.00902274)
(0.834754 0.244413 9.99965e-05)
(0.756509 0.153 -0.000862793)
(0.773441 0.260938 -0.00366864)
(0.532408 -0.0318844 -0.00257928)
(0.556858 0.260123 0.000825964)
(0.516116 0.0192264 -0.00691723)
(0.97647 0.343556 -0.00114809)
(0.694952 0.337763 0.00382688)
(0.778795 0.272177 0.000558663)
(0.622647 0.188484 -0.00137294)
(0.881114 0.133315 -0.00042629)
(0.779581 0.213267 -0.000250989)
(0.795979 0.105848 -0.00152316)
(0.787624 0.278564 0.000812553)
(0.746311 0.221745 -0.00357555)
(0.821572 0.136245 -0.00053683)
(0.632 0.0439967 -0.00471788)
(0.831925 -0.0900418 0.00169704)
(1.2634 0.451484 -0.00788178)
(0.74171 0.219498 -0.000389318)
(0.792864 0.264037 -0.00255755)
(0.805152 0.243123 -0.00204323)
(0.958921 0.0232488 0.00269394)
(0.756124 0.213453 0.000935562)
(0.671756 0.528313 -0.00768507)
(0.91703 0.233904 -0.000660234)
(0.624465 0.180977 0.00212405)
(0.645753 0.0786414 -0.00629724)
(0.843239 0.258195 0.00289065)
(0.546624 0.182614 -0.00135024)
(0.697972 0.328497 0.00264857)
(0.915442 0.155483 -0.000739586)
(0.737253 0.250406 0.00208886)
(0.759209 0.0195376 0.00121341)
(0.735145 0.232204 0.000342326)
(0.617722 0.2201 -0.000221716)
(1.06778 -0.0589345 0.00201142)
(0.724447 0.296596 0.00219959)
(0.805739 0.269936 -0.00215685)
(0.757533 0.311971 0.00513127)
(0.780512 0.107045 0.000821361)
(1.13676 0.519824 0.00550847)
(0.499725 -0.106943 -0.00288174)
(0.829281 0.18565 0.000136995)