/*--------------------------------*- C++ -*----------------------------------*\
  =========                 |
  \\      /  F ield         | OpenFOAM: The Open Source CFD Toolbox
   \\    /   O peration     | Website:  https://openfoam.org
    \\  /    A nd           | Version:  6
     \\/     M anipulation  |
\*---------------------------------------------------------------------------*/
FoamFile
{
    version     2.0;
    format      ascii;
    class       volScalarField;
    location    "1.78";
    object      p;
}
// * * * * * * * * * * * * * * * * * * * * * * * * * * * * * * * * * * * * * //

dimensions      [1 -1 -2 0 0 0 0];

internalField   nonuniform List<scalar> 
5625
(
1
1
1
1
1
1
1
1
1
1
1
1
1
1
1
1
1
1
1
1
1
1
1
1
1
1
1
1
1
1
1
1
1
1
1
1
1
1
1
1
1
1
1
1
1
1
1
1
1
1
1
1
1
1
1
1
1
1
1
1
1
1
1
1
1
1
1
1
1
1
1
1
1
1
1
1
1
1
1
1
1
1
1
1
1
1
1
1
1
1
1
1
1
1
1
1
1
1
1
1
1
1
1
1
1
1
1
1
1
1
1
1
1
1
1
1
1
1
1
1
1
1
1
1
1
1
1
1
1
1
1
1
1
1
1
1
1
1
1
1
1
1
1
1
1
1
1
1
1
1
1
1
1
1
1
1
1
1
1
1
1
1
1
1
1
1
1
1
1
1
1
1
1
1
1
1
1
1
1
1
1
1
1
1
1
1
1
1
1
1
1
1
1
1
1
1
1
1
1
1
1
1
1
1
1
1
1
1
1
1
1
1
1
1
1
1
1
1
1
1
1
1
1
1
1
1
1
1
1
1
1
1
1
1
1
1
1
1
1
1
1
1
1
1
1
1
1
1
1
1
1
1
1
1
1
1
1
1
1
1
1
1
1
1
1
1
1
1
1
1
1
1
1
1
1
1
1
1
1
1
1
1
1
1
1
1
1
1
1
1
1
1
1
1
1
1
1
1
1
1
1
1
1
1
1
1
1
1
1
1
1
1
1
1
1
1
1
1
1
1
1
1
1
1
1
1
1
1
1
1
1
1
1
1
1
1
1
1
1
1
1
1
1
1
1
1
1
1
1
1
1
1
1
1
1
1
1
1
1
1
1
1
1
1
1
1
1
1
1
1
1
1
1
1
1
1
1
1
1
1
1
1
1
1
1
1
1
1
1
1
1
1
1
1
1
1
1
1
1
1
1
1
1
1
1
1
1
1
1
1
1
1
1
1
1
1
1
1
1
1
1
1
1
1
1
1
1
1
1
1
1
1
1
1
1
1
1
1
1
1
1
1
1
1
1
1
1
1
1
1
1
0.999999
1
0.999999
0.999999
0.999999
0.999999
1
1
1
1
1
1
1
1
1
1
1
1
1
1
1
1
1
1
1
1
1
1
1
1
1
1
1
1
1
1
1
1
1
1
1
1
1
1
1
1
1
1
1
1
1
1
1
1
1
1
1
1
1
1
1
1
1
1
1
1
1
1
1
1
1
1
1
1
0.999999
0.999999
0.999999
0.999999
0.999999
0.999999
0.999999
1
1
1
1
1
1
1
1
1
1
1
1
1
1
1
1
1
1
1
1
1
1
1
1
1
1
1
1
1
1
1
1
1
1
1
1
1
1
1
1
1
1
1
1
1
1
1
1
1
1
1
1
1
1
1
1
1
1
1
1
1
1
1
1
1
1
1
1
0.999999
0.999999
0.999999
0.999999
0.999999
0.999999
0.999999
0.999999
0.999999
0.999999
1
1
1
1
1
1
1
1
1
1
1
1
1
1
1
1
1
1
1
1
1
1
1
1
1
1
1
1
1
1
1
1
1
1
1
1
1
1
1
1
1
1
1
1
1
1
1
1
1
1
1
1
1
1
1
1
1
1
1
1
1
1
1
1
1
0.999999
0.999998
0.999998
0.999998
0.999999
0.999999
0.999999
0.999999
0.999999
0.999999
1
1
1
1
1
1
1
1
1
1
1
1
1
1
1
1
1
1
1
1
1
1
1
1
1
1
1
1
1
1
1
1
1
1
1
1
1
1
1
1
1
1
1
1
1
1
1
1
1
1
1
1
1
1
1
1
1
1
1
1
1
1
1
1
1
0.999998
0.999998
0.999998
0.999998
0.999998
0.999998
0.999998
0.999998
0.999998
0.999999
0.999999
1
1
1
1
1
1
1
1
1
1
1
1
1
1
1
1
1
1
1
1
1
1
1
1
1
1
1
1
1
1
1
1
1
1
1
1
1
1
1
1
1
1
1
1
1
1
1
1
1
1
1
1
1
1
1
1
1
1
1
1
1
1
1
1
0.999997
0.999997
0.999997
0.999997
0.999997
0.999997
0.999997
0.999998
0.999998
0.999999
0.999999
1
1
1
1
1
1
1
1
1
1
1
1
1
1
1
1
1
1
1
1
1
1
1
1
1
1
1
1
1
1
1
1
1
1
1
1
1
1
1
1
1
1
1
1
1
1
1
1
1
1
1
1
1
1
1
1
1
1
1
1
1
1
1
1
0.999996
0.999996
0.999996
0.999996
0.999996
0.999996
0.999996
0.999997
0.999997
0.999998
0.999999
1
1
1
1
1
1
1
1
1
1
1
1
1
1
1
1
1
1
1
1
1
1
1
1
1
1
1
1
1
1
1
1
1
1
1
1
1
1
1
1
1
1
1
1
1
1
1
1
1
1
1
1
1
1
1
1
1
1
1
1
1
1
1
1
0.999995
0.999994
0.999994
0.999994
0.999994
0.999994
0.999995
0.999996
0.999997
0.999997
0.999999
1
1
1
1
1
1.00001
1.00001
1.00001
1.00001
1.00001
1.00001
1.00001
1.00001
1
1
1
1
1
1
1
1
1
1
1
1
1
1
1
1
1
1
1
1
1
1
1
1
1
1
1
1
1
1
1
1
1
1
1
1
1
1
1
1
1
1
1
1
1
1
1
1
1
1
1
0.999993
0.999992
0.999992
0.999992
0.999992
0.999992
0.999993
0.999994
0.999995
0.999997
0.999998
1
1
1
1
1.00001
1.00001
1.00001
1.00001
1.00001
1.00001
1.00001
1.00001
1.00001
1.00001
1.00001
1
1
1
1
1
1
1
1
1
1
1
1
1
1
1
1
1
1
1
1
1
1
1
1
1
1
1
1
1
1
1
1
1
1
1
1
1
1
1
1
1
1
1
1
1
1
1
1
1
0.99999
0.999989
0.999989
0.999989
0.999989
0.999989
0.99999
0.999992
0.999993
0.999995
0.999998
1
1
1
1.00001
1.00001
1.00001
1.00001
1.00001
1.00001
1.00001
1.00001
1.00001
1.00001
1.00001
1.00001
1.00001
1.00001
1
1
1
1
1
1
1
1
1
1
1
1
1
1
1
1
1
1
1
1
1
1
1
1
1
1
1
1
1
1
1
1
1
1
1
1
1
1
1
1
1
1
1
1
1
1
1
0.999987
0.999986
0.999985
0.999985
0.999985
0.999986
0.999987
0.999989
0.999991
0.999994
0.999997
1
1
1.00001
1.00001
1.00001
1.00001
1.00001
1.00002
1.00002
1.00002
1.00002
1.00001
1.00001
1.00001
1.00001
1.00001
1.00001
1.00001
1
1
1
1
1
1
1
1
1
1
1
1
1
1
1
1
1
1
1
1
1
1
1
1
1
1
1
1
1
1
1
1
1
1
1
1
1
1
1
1
1
1
1
1
1
1
0.999982
0.999981
0.99998
0.99998
0.999981
0.999982
0.999984
0.999986
0.999989
0.999993
0.999997
1
1
1.00001
1.00001
1.00002
1.00002
1.00002
1.00002
1.00002
1.00002
1.00002
1.00002
1.00002
1.00002
1.00001
1.00001
1.00001
1.00001
1.00001
1.00001
1
1
1
1
1
1
1
1
1
1
1
1
1
1
1
1
1
1
1
1
1
1
1
1
1
1
1
1
1
1
1
1
1
1
1
1
1
1
1
1
1
1
1
1
0.999977
0.999975
0.999975
0.999974
0.999975
0.999976
0.999979
0.999982
0.999986
0.999991
0.999997
1
1.00001
1.00001
1.00002
1.00002
1.00002
1.00003
1.00003
1.00003
1.00003
1.00003
1.00003
1.00002
1.00002
1.00002
1.00002
1.00001
1.00001
1.00001
1.00001
1.00001
1
1
1
1
1
1
1
1
1
1
1
1
1
1
1
1
1
1
1
1
1
1
1
1
1
1
1
1
1
1
1
1
1
1
1
1
1
1
1
1
1
1
1
0.99997
0.999969
0.999967
0.999967
0.999968
0.999971
0.999974
0.999979
0.999984
0.99999
0.999998
1
1.00001
1.00002
1.00002
1.00003
1.00003
1.00004
1.00004
1.00004
1.00004
1.00004
1.00003
1.00003
1.00003
1.00002
1.00002
1.00002
1.00001
1.00001
1.00001
1.00001
1
1
1
1
1
1
1
1
1
1
1
1
1
1
1
1
1
1
1
1
1
1
1
1
1
1
1
1
1
1
1
1
1
1
1
1
1
1
1
1
1
1
1
0.999962
0.99996
0.999959
0.999959
0.999961
0.999964
0.999969
0.999975
0.999982
0.99999
0.999999
1.00001
1.00002
1.00003
1.00003
1.00004
1.00004
1.00005
1.00005
1.00005
1.00005
1.00005
1.00004
1.00004
1.00004
1.00003
1.00003
1.00002
1.00002
1.00001
1.00001
1.00001
1.00001
1
1
1
1
1
1
1
1
1
1
1
1
1
1
1
1
1
1
1
1
1
1
1
1
1
1
1
1
1
1
1
1
1
1
1
1
1
1
1
1
1
1
0.999953
0.999951
0.99995
0.999951
0.999953
0.999958
0.999964
0.999973
0.999982
0.999993
1
1.00002
1.00003
1.00004
1.00005
1.00006
1.00006
1.00006
1.00007
1.00007
1.00007
1.00006
1.00006
1.00005
1.00005
1.00004
1.00003
1.00003
1.00002
1.00002
1.00001
1.00001
1.00001
1.00001
1
1
1
1
1
1
1
1
1
1
1
1
1
1
1
1
1
1
1
1
1
1
1
1
1
1
1
1
1
1
1
1
1
1
1
1
1
1
1
1
1
0.999944
0.999942
0.999941
0.999943
0.999947
0.999954
0.999962
0.999973
0.999986
1
1.00001
1.00003
1.00004
1.00006
1.00007
1.00008
1.00008
1.00009
1.00009
1.00009
1.00009
1.00008
1.00007
1.00007
1.00006
1.00005
1.00004
1.00004
1.00003
1.00002
1.00002
1.00001
1.00001
1.00001
1
1
1
1
1
1
1
1
1
1
1
1
1
1
1
1
1
1
1
1
1
1
1
1
1
1
1
1
1
1
1
1
1
1
1
1
1
1
1
1
1
0.999934
0.999932
0.999932
0.999936
0.999942
0.999952
0.999964
0.999979
0.999996
1.00001
1.00003
1.00005
1.00007
1.00008
1.0001
1.00011
1.00011
1.00012
1.00012
1.00012
1.00011
1.0001
1.0001
1.00009
1.00008
1.00007
1.00005
1.00005
1.00004
1.00003
1.00002
1.00002
1.00001
1.00001
1
1
1
1
1
1
0.999999
0.999999
0.999999
1
1
1
1
1
1
1
1
1
1
1
1
1
1
1
1
1
1
1
1
1
1
1
1
1
1
1
1
1
1
1
1
0.999926
0.999924
0.999927
0.999933
0.999943
0.999957
0.999975
0.999995
1.00002
1.00004
1.00007
1.00009
1.00011
1.00013
1.00014
1.00015
1.00016
1.00016
1.00016
1.00016
1.00015
1.00014
1.00012
1.00011
1.0001
1.00008
1.00007
1.00006
1.00005
1.00003
1.00003
1.00002
1.00001
1.00001
1.00001
1
1
1
1
0.999999
0.999999
0.999999
0.999999
0.999999
0.999999
1
1
1
1
1
1
1
1
1
1
1
1
1
1
1
1
1
1
1
1
1
1
1
1
1
1
1
1
1
1
0.999919
0.999921
0.999928
0.999938
0.999954
0.999975
0.999999
1.00003
1.00006
1.00009
1.00012
1.00015
1.00017
1.00019
1.00021
1.00022
1.00023
1.00023
1.00022
1.00021
1.0002
1.00018
1.00016
1.00014
1.00013
1.00011
1.00009
1.00007
1.00006
1.00004
1.00003
1.00002
1.00002
1.00001
1.00001
1
1
1
0.999999
0.999999
0.999999
0.999999
0.999999
0.999999
0.999999
0.999999
1
1
1
1
1
1
1
1
1
1
1
1
1
1
1
1
1
1
1
1
1
1
1
1
1
1
1
1
1
0.99992
0.999926
0.999939
0.999957
0.999982
1.00001
1.00005
1.00009
1.00013
1.00017
1.00021
1.00024
1.00027
1.00029
1.00031
1.00032
1.00032
1.00031
1.0003
1.00029
1.00026
1.00024
1.00021
1.00019
1.00016
1.00014
1.00011
1.00009
1.00007
1.00005
1.00004
1.00003
1.00002
1.00001
1.00001
1
1
1
0.999999
0.999998
0.999998
0.999998
0.999998
0.999999
0.999999
0.999999
0.999999
1
1
1
1
1
1
1
1
1
1
1
1
1
1
1
1
1
1
1
1
1
1
1
1
1
1
1
1
0.999931
0.999945
0.999968
0.999998
1.00004
1.00008
1.00013
1.00019
1.00024
1.00029
1.00034
1.00038
1.00042
1.00044
1.00046
1.00046
1.00046
1.00044
1.00042
1.00039
1.00036
1.00032
1.00028
1.00024
1.00021
1.00017
1.00014
1.00011
1.00009
1.00007
1.00005
1.00003
1.00002
1.00001
1.00001
1
1
0.999998
0.999997
0.999997
0.999997
0.999997
0.999998
0.999998
0.999999
0.999999
0.999999
0.999999
1
1
1
1
1
1
1
1
1
1
1
1
1
1
1
1
1
1
1
1
1
1
1
1
1
1
1
0.99996
0.999988
1.00003
1.00007
1.00013
1.0002
1.00027
1.00034
1.00042
1.00049
1.00055
1.0006
1.00064
1.00067
1.00068
1.00067
1.00066
1.00063
1.00059
1.00054
1.00049
1.00043
1.00038
1.00032
1.00027
1.00022
1.00018
1.00014
1.00011
1.00008
1.00006
1.00004
1.00003
1.00002
1.00001
1
0.999999
0.999997
0.999996
0.999996
0.999996
0.999996
0.999997
0.999997
0.999998
0.999998
0.999999
0.999999
0.999999
1
1
1
1
1
1
1
1
1
1
1
1
1
1
1
1
1
1
1
1
1
1
1
1
1
1
1.00002
1.00007
1.00013
1.0002
1.00029
1.00039
1.00049
1.00059
1.00069
1.00078
1.00086
1.00093
1.00097
1.00099
1.001
1.00098
1.00094
1.00089
1.00082
1.00075
1.00067
1.00059
1.00051
1.00043
1.00036
1.00029
1.00023
1.00018
1.00014
1.0001
1.00007
1.00005
1.00003
1.00002
1.00001
1
0.999997
0.999995
0.999994
0.999994
0.999994
0.999995
0.999996
0.999996
0.999997
0.999998
0.999998
0.999999
0.999999
0.999999
1
1
1
1
1
1
1
1
1
1
1
1
1
1
1
1
1
1
1
1
1
1
1
1
1
1.00011
1.00019
1.00029
1.00041
1.00054
1.00067
1.00082
1.00096
1.0011
1.00122
1.00132
1.0014
1.00145
1.00146
1.00145
1.00141
1.00135
1.00126
1.00116
1.00104
1.00092
1.0008
1.00069
1.00058
1.00047
1.00038
1.0003
1.00023
1.00017
1.00013
1.00009
1.00006
1.00004
1.00002
1.00001
1
0.999995
0.999993
0.999992
0.999992
0.999992
0.999993
0.999994
0.999995
0.999996
0.999997
0.999998
0.999998
0.999999
0.999999
0.999999
1
1
1
1
1
1
1
1
1
1
1
1
1
1
1
1
1
1
1
1
1
1
1
1
1.00027
1.0004
1.00055
1.00072
1.0009
1.0011
1.00131
1.0015
1.00169
1.00185
1.00198
1.00207
1.00212
1.00213
1.0021
1.00203
1.00192
1.00178
1.00163
1.00146
1.00128
1.0011
1.00093
1.00078
1.00063
1.00051
1.0004
1.0003
1.00022
1.00016
1.00011
1.00007
1.00004
1.00002
1.00001
0.999998
0.999992
0.999989
0.999988
0.999989
0.99999
0.999991
0.999992
0.999994
0.999995
0.999996
0.999997
0.999998
0.999999
0.999999
0.999999
1
1
1
1
1
1
1
1
1
1
1
1
1
1
1
1
1
1
1
1
1
1
1
1
1.00051
1.0007
1.00092
1.00117
1.00144
1.00172
1.002
1.00227
1.00252
1.00273
1.0029
1.00301
1.00306
1.00306
1.00299
1.00288
1.00271
1.00251
1.00228
1.00203
1.00177
1.00152
1.00128
1.00105
1.00085
1.00068
1.00052
1.0004
1.00029
1.00021
1.00014
1.00009
1.00005
1.00003
1.00001
0.999996
0.999988
0.999985
0.999984
0.999985
0.999986
0.999988
0.99999
0.999992
0.999994
0.999995
0.999997
0.999997
0.999998
0.999999
0.999999
0.999999
1
1
1
1
1
1
1
1
1
1
1
1
1
1
1
1
1
1
1
1
1
1
1
1.00087
1.00115
1.00147
1.00182
1.0022
1.00259
1.00298
1.00334
1.00367
1.00394
1.00416
1.00429
1.00435
1.00432
1.00422
1.00404
1.00379
1.0035
1.00316
1.00281
1.00244
1.00209
1.00175
1.00143
1.00115
1.00091
1.0007
1.00052
1.00038
1.00027
1.00018
1.00011
1.00007
1.00003
1.00001
0.999992
0.999984
0.999979
0.999979
0.99998
0.999982
0.999984
0.999987
0.99999
0.999992
0.999994
0.999996
0.999997
0.999998
0.999998
0.999999
0.999999
0.999999
1
1
1
1
1
1
1
1
1
1
1
1
1
1
1
1
1
1
1
1
1
1
1.00138
1.00178
1.00223
1.00273
1.00325
1.00378
1.0043
1.00478
1.00522
1.00557
1.00584
1.00601
1.00607
1.00601
1.00585
1.00559
1.00525
1.00483
1.00436
1.00386
1.00335
1.00286
1.00238
1.00195
1.00156
1.00122
1.00094
1.0007
1.00051
1.00035
1.00024
1.00015
1.00008
1.00004
1.00001
0.999989
0.999978
0.999973
0.999972
0.999974
0.999977
0.99998
0.999983
0.999987
0.99999
0.999992
0.999994
0.999996
0.999997
0.999998
0.999999
0.999999
0.999999
1
1
1
1
1
1
1
1
1
1
1
1
1
1
1
1
1
1
1
1
1
1
1.00209
1.00265
1.00328
1.00396
1.00466
1.00537
1.00606
1.00669
1.00725
1.00771
1.00805
1.00825
1.00831
1.00822
1.00799
1.00763
1.00715
1.00658
1.00594
1.00526
1.00456
1.00388
1.00324
1.00264
1.00211
1.00165
1.00126
1.00094
1.00068
1.00047
1.00031
1.0002
1.00011
1.00005
1.00001
0.999987
0.999973
0.999966
0.999965
0.999967
0.999971
0.999975
0.999979
0.999983
0.999987
0.99999
0.999993
0.999995
0.999996
0.999997
0.999998
0.999999
0.999999
0.999999
1
1
1
1
1
1
1
1
1
1
1
1
1
1
1
1
1
1
1
1
1
1.00305
1.00382
1.00467
1.00558
1.00651
1.00744
1.00833
1.00915
1.00986
1.01043
1.01085
1.01109
1.01115
1.01103
1.01071
1.01023
1.0096
1.00884
1.00798
1.00708
1.00615
1.00523
1.00436
1.00356
1.00285
1.00222
1.00169
1.00126
1.0009
1.00063
1.00042
1.00026
1.00015
1.00007
1.00002
0.999986
0.999968
0.999959
0.999957
0.999959
0.999964
0.999969
0.999974
0.99998
0.999984
0.999988
0.999991
0.999993
0.999995
0.999997
0.999998
0.999998
0.999999
0.999999
1
1
1
1
1
1
1
1
1
1
1
1
1
1
1
1
1
1
1
1
1
1.00432
1.00536
1.00649
1.00767
1.00888
1.01007
1.01119
1.01221
1.01309
1.0138
1.01431
1.0146
1.01466
1.01449
1.01409
1.01347
1.01266
1.01168
1.01058
1.00939
1.00818
1.00698
1.00583
1.00476
1.00381
1.00297
1.00227
1.00168
1.00121
1.00084
1.00056
1.00035
1.0002
1.0001
1.00003
0.999987
0.999962
0.999951
0.999948
0.99995
0.999955
0.999962
0.999968
0.999975
0.99998
0.999985
0.999989
0.999992
0.999994
0.999996
0.999997
0.999998
0.999999
0.999999
0.999999
1
1
1
1
1
1
1
1
1
1
1
1
1
1
1
1
1
1
1
1
1.00597
1.00733
1.00879
1.0103
1.01182
1.0133
1.01469
1.01593
1.01699
1.01783
1.01844
1.01878
1.01884
1.01863
1.01814
1.01738
1.01638
1.01516
1.01378
1.01228
1.01073
1.00918
1.00769
1.0063
1.00505
1.00395
1.00302
1.00224
1.00162
1.00113
1.00076
1.00048
1.00028
1.00014
1.00005
0.999992
0.999959
0.999943
0.999938
0.99994
0.999946
0.999954
0.999961
0.999969
0.999976
0.999982
0.999987
0.99999
0.999993
0.999995
0.999997
0.999998
0.999999
0.999999
0.999999
1
1
1
1
1
1
1
1
1
1
1
1
1
1
1
1
1
1
1
1
1.00805
1.00979
1.01163
1.01351
1.01537
1.01716
1.0188
1.02026
1.02149
1.02246
1.02315
1.02354
1.02361
1.02337
1.0228
1.02192
1.02074
1.01928
1.01761
1.01578
1.01385
1.01191
1.01002
1.00824
1.00663
1.0052
1.00398
1.00297
1.00215
1.00151
1.00102
1.00065
1.00039
1.0002
1.00008
1
0.999959
0.999936
0.999928
0.99993
0.999936
0.999945
0.999954
0.999963
0.999971
0.999978
0.999984
0.999988
0.999992
0.999994
0.999996
0.999997
0.999998
0.999999
0.999999
0.999999
1
1
1
1
1
1
1
1
1
1
1
1
1
1
1
1
1
1
1
1.01061
1.01278
1.01503
1.0173
1.0195
1.02157
1.02345
1.02508
1.02644
1.02749
1.02824
1.02867
1.02876
1.0285
1.0279
1.02694
1.02563
1.02398
1.02204
1.01988
1.01756
1.01519
1.01286
1.01063
1.00859
1.00677
1.00521
1.0039
1.00284
1.002
1.00135
1.00088
1.00053
1.00029
1.00013
1.00002
0.999963
0.999932
0.999919
0.999919
0.999925
0.999935
0.999946
0.999956
0.999966
0.999974
0.999981
0.999986
0.99999
0.999993
0.999995
0.999997
0.999998
0.999999
0.999999
0.999999
1
1
1
1
1
1
1
1
1
1
1
1
1
1
1
1
1
1
1
1.01369
1.01631
1.01899
1.02162
1.02412
1.0264
1.02842
1.03013
1.03153
1.0326
1.03335
1.03378
1.03389
1.03367
1.0331
1.03214
1.0308
1.02905
1.02693
1.0245
1.02183
1.01903
1.01622
1.0135
1.01098
1.0087
1.00673
1.00506
1.0037
1.00262
1.00179
1.00117
1.00072
1.0004
1.00019
1.00006
0.999974
0.99993
0.999912
0.999908
0.999914
0.999925
0.999937
0.999949
0.99996
0.99997
0.999977
0.999984
0.999988
0.999992
0.999994
0.999996
0.999998
0.999998
0.999999
0.999999
1
1
1
1
1
1
1
1
1
1
1
1
1
1
1
1
1
1
1
1.01727
1.02034
1.0234
1.02632
1.02899
1.03136
1.03336
1.035
1.03628
1.03723
1.0379
1.03829
1.03843
1.03829
1.03785
1.03705
1.03583
1.03416
1.03202
1.02945
1.02652
1.02336
1.02009
1.01687
1.01381
1.01103
1.00858
1.0065
1.00478
1.00341
1.00235
1.00155
1.00097
1.00056
1.00028
1.0001
0.999994
0.999934
0.999906
0.999898
0.999903
0.999914
0.999927
0.999941
0.999954
0.999965
0.999974
0.999981
0.999986
0.99999
0.999993
0.999996
0.999997
0.999998
0.999999
0.999999
1
1
1
1
1
1
1
1
1
1
1
1
1
1
1
1
1
1
1
1.02131
1.02478
1.0281
1.03115
1.0338
1.03601
1.03776
1.03907
1.04001
1.04066
1.0411
1.04139
1.04156
1.04158
1.04142
1.04096
1.04012
1.03878
1.03688
1.03441
1.03141
1.02802
1.02438
1.02068
1.01709
1.01376
1.01078
1.00822
1.00609
1.00438
1.00304
1.00203
1.00129
1.00076
1.0004
1.00017
1.00003
0.999944
0.999904
0.99989
0.999892
0.999903
0.999917
0.999933
0.999947
0.999959
0.99997
0.999978
0.999984
0.999989
0.999992
0.999995
0.999997
0.999998
0.999999
0.999999
0.999999
1
1
1
1
1
1
1
1
1
1
1
1
1
1
1
1
1
1
1.02569
1.02941
1.03281
1.03573
1.03806
1.03977
1.04091
1.04156
1.04186
1.04196
1.04201
1.0421
1.04229
1.04257
1.04286
1.04302
1.04286
1.04222
1.04093
1.0389
1.03615
1.03276
1.02892
1.02484
1.02076
1.01688
1.01335
1.01026
1.00766
1.00555
1.00388
1.00262
1.00168
1.00102
1.00056
1.00026
1.00007
0.999963
0.999907
0.999884
0.999883
0.999893
0.999908
0.999924
0.99994
0.999954
0.999965
0.999975
0.999982
0.999987
0.999991
0.999994
0.999996
0.999997
0.999998
0.999999
0.999999
1
1
1
1
1
1
1
1
1
1
1
1
1
1
1
1
1
1
1.03021
1.03397
1.03714
1.03955
1.04114
1.04192
1.042
1.04156
1.04085
1.04009
1.03952
1.03931
1.03952
1.04017
1.04113
1.04221
1.04314
1.04364
1.04343
1.04232
1.04023
1.03722
1.03345
1.0292
1.02474
1.02035
1.01625
1.01261
1.00949
1.00693
1.0049
1.00333
1.00217
1.00134
1.00076
1.00038
1.00014
0.999993
0.999916
0.999883
0.999875
0.999883
0.999898
0.999916
0.999933
0.999948
0.999961
0.999971
0.999979
0.999985
0.99999
0.999993
0.999996
0.999997
0.999998
0.999999
0.999999
1
1
1
1
1
1
1
1
1
1
1
1
1
1
1
1
1
1
1.0346
1.03806
1.04058
1.04201
1.04233
1.04162
1.0401
1.03809
1.03593
1.03398
1.03257
1.03192
1.03217
1.03329
1.03516
1.03751
1.03997
1.04213
1.04357
1.04395
1.04308
1.04093
1.03764
1.0335
1.02885
1.02407
1.01946
1.01525
1.01159
1.00854
1.00609
1.00419
1.00276
1.00173
1.00101
1.00053
1.00022
1.00004
0.999934
0.999885
0.99987
0.999875
0.99989
0.999908
0.999926
0.999942
0.999956
0.999968
0.999977
0.999984
0.999989
0.999992
0.999995
0.999997
0.999998
0.999999
0.999999
0.999999
1
1
1
1
1
1
1
1
1
1
1
1
1
1
1
1
1
1.03851
1.04123
1.04258
1.04244
1.04086
1.03804
1.03434
1.03021
1.02615
1.02266
1.02017
1.01897
1.01925
1.02098
1.02401
1.02798
1.03244
1.03681
1.04052
1.04306
1.04405
1.04336
1.04106
1.03743
1.0329
1.0279
1.02288
1.01815
1.01394
1.01037
1.00746
1.00518
1.00346
1.0022
1.00132
1.00072
1.00033
1.0001
0.999962
0.999895
0.99987
0.999869
0.999882
0.9999
0.999919
0.999937
0.999952
0.999965
0.999975
0.999982
0.999987
0.999991
0.999994
0.999996
0.999998
0.999998
0.999999
0.999999
1
1
1
1
1
1
1
1
1
1
1
1
1
1
1
1
1
1.04154
1.04298
1.04255
1.04018
1.03602
1.03042
1.02391
1.01712
1.01071
1.00534
1.00154
0.999688
1
1.00248
1.00691
1.01287
1.01979
1.02693
1.03355
1.03893
1.0425
1.04395
1.04324
1.04065
1.03661
1.03168
1.0264
1.02123
1.0165
1.0124
1.00901
1.00632
1.00427
1.00276
1.00168
1.00095
1.00047
1.00017
1
0.999911
0.999873
0.999866
0.999875
0.999893
0.999912
0.999931
0.999948
0.999961
0.999972
0.99998
0.999986
0.999991
0.999994
0.999996
0.999997
0.999998
0.999999
0.999999
1
1
1
1
1
1
1
1
1
1
1
1
1
1
1
1
1
1.04326
1.04282
1.03994
1.03463
1.02719
1.01815
1.00822
0.998249
0.989082
0.981509
0.976193
0.973597
0.97397
0.97731
0.98337
0.991663
1.00148
1.01195
1.0221
1.03101
1.03787
1.04218
1.04375
1.04277
1.0397
1.03518
1.02988
1.02441
1.01922
1.01461
1.01072
1.0076
1.00519
1.00339
1.00211
1.00123
1.00064
1.00027
1.00005
0.999935
0.999881
0.999866
0.999871
0.999888
0.999907
0.999926
0.999944
0.999958
0.999969
0.999978
0.999985
0.99999
0.999993
0.999996
0.999997
0.999998
0.999999
0.999999
1
1
1
1
1
1
1
1
1
1
1
1
1
1
1
1
1
1.04328
1.04032
1.03429
1.02535
1.01395
1.00083
0.986931
0.973308
0.961005
0.950968
0.943966
0.940543
0.940985
0.945292
0.953191
0.964111
0.977233
0.991516
1.00579
1.01888
1.02975
1.03764
1.04219
1.04345
1.04188
1.03818
1.03316
1.02757
1.02202
1.01694
1.01258
1.00901
1.00621
1.00411
1.0026
1.00154
1.00084
1.00039
1.00012
0.999968
0.999895
0.999869
0.99987
0.999883
0.999902
0.999922
0.99994
0.999956
0.999968
0.999977
0.999984
0.999989
0.999993
0.999995
0.999997
0.999998
0.999999
0.999999
1
1
1
1
1
1
1
1
1
1
1
1
1
1
1
1
1
1.04129
1.03515
1.02532
1.01207
0.996083
0.978318
0.959965
0.942302
0.926564
0.913849
0.905024
0.900707
0.901217
0.906566
0.916456
0.930255
0.947024
0.96556
0.98448
1.00236
1.01788
1.03004
1.03825
1.0424
1.0429
1.04048
1.03607
1.0306
1.02484
1.01936
1.01454
1.01052
1.00733
1.00491
1.00314
1.0019
1.00107
1.00053
1.0002
1.00001
0.999916
0.999877
0.999871
0.999882
0.999899
0.999919
0.999937
0.999953
0.999966
0.999975
0.999983
0.999988
0.999992
0.999995
0.999997
0.999998
0.999999
0.999999
1
1
1
1
1
1
1
1
1
1
1
1
1
1
1
1
1
1.03706
1.02715
1.0129
0.994763
0.973638
0.950754
0.927557
0.905559
0.886172
0.870631
0.859887
0.854618
0.85518
0.861602
0.873576
0.89042
0.911096
0.934236
0.958241
0.981426
1.0022
1.01925
1.03175
1.03942
1.04255
1.04189
1.03847
1.03337
1.02757
1.0218
1.01657
1.01212
1.00853
1.00578
1.00375
1.00231
1.00133
1.00069
1.0003
1.00007
0.999944
0.99989
0.999875
0.999882
0.999898
0.999917
0.999935
0.999951
0.999964
0.999974
0.999982
0.999988
0.999992
0.999995
0.999997
0.999998
0.999999
0.999999
0.999999
1
1
1
1
1
1
1
1
1
1
1
1
1
1
1
1
1.03052
1.01631
0.997112
0.97359
0.946891
0.918533
0.890229
0.863717
0.840573
0.822138
0.80943
0.80317
0.803747
0.811224
0.825298
0.845262
0.86999
0.897967
0.927384
0.95629
0.982795
1.00529
1.02266
1.03441
1.0407
1.04226
1.04021
1.03579
1.03014
1.0242
1.01862
1.01377
1.0098
1.0067
1.0044
1.00275
1.00162
1.00087
1.00041
1.00013
0.99998
0.999908
0.999884
0.999885
0.999898
0.999916
0.999934
0.99995
0.999963
0.999974
0.999982
0.999987
0.999992
0.999995
0.999997
0.999998
0.999999
0.999999
0.999999
1
1
1
1
1
1
1
1
1
1
1
1
1
1
1
1
1.02173
1.00278
0.978217
0.948934
0.916357
0.882311
0.848781
0.817717
0.790831
0.769531
0.754873
0.747609
0.748158
0.756626
0.772737
0.79578
0.824573
0.857475
0.892475
0.927371
0.959966
0.988331
1.01105
1.02737
1.0373
1.04153
1.04122
1.03775
1.03247
1.0265
1.02066
1.01545
1.0111
1.00767
1.00509
1.00322
1.00193
1.00108
1.00053
1.00021
1.00002
0.999933
0.999896
0.99989
0.9999
0.999916
0.999934
0.999949
0.999963
0.999973
0.999981
0.999987
0.999991
0.999994
0.999996
0.999998
0.999999
0.999999
0.999999
1
1
1
1
1
1
1
1
1
1
1
1
1
1
1
1
1.0109
0.986879
0.956655
0.921374
0.882765
0.842979
0.804272
0.76877
0.738288
0.714259
0.697747
0.689505
0.689987
0.699345
0.71735
0.743317
0.776037
0.813777
0.854354
0.895325
0.934195
0.96871
0.997125
1.01842
1.0324
1.03968
1.04145
1.03921
1.0345
1.02864
1.02263
1.01711
1.01242
1.00867
1.00581
1.00372
1.00227
1.0013
1.00067
1.00029
1.00007
0.999962
0.999913
0.999899
0.999905
0.999919
0.999935
0.99995
0.999963
0.999973
0.999981
0.999987
0.999991
0.999994
0.999996
0.999998
0.999999
0.999999
0.999999
1
1
1
1
1
1
1
1
1
1
1
1
1
1
1
1
0.998342
0.969052
0.933013
0.89165
0.847029
0.801624
0.757951
0.718287
0.684491
0.657981
0.63979
0.630653
0.631046
0.64117
0.660862
0.689487
0.725848
0.768157
0.814104
0.861031
0.906168
0.946933
0.981245
1.00778
1.02612
1.03677
1.0409
1.04014
1.03619
1.03058
1.0245
1.01873
1.01373
1.00967
1.00654
1.00424
1.00262
1.00153
1.00082
1.00039
1.00013
0.999996
0.999933
0.999911
0.999911
0.999922
0.999937
0.999951
0.999963
0.999974
0.999981
0.999987
0.999991
0.999994
0.999996
0.999998
0.999998
0.999999
0.999999
1
1
1
1
1
1
1
1
1
1
1
1
1
1
1
1
0.984478
0.949856
0.908003
0.860646
0.810198
0.759466
0.711204
0.667788
0.631083
0.602442
0.582827
0.57293
0.573238
0.583995
0.605112
0.636035
0.675615
0.722062
0.772981
0.825545
0.876732
0.92365
0.96388
0.995775
1.01867
1.03289
1.03962
1.04054
1.03753
1.0323
1.02623
1.02028
1.01501
1.01066
1.00727
1.00476
1.00298
1.00177
1.00098
1.00049
1.00019
1.00003
0.999956
0.999925
0.99992
0.999928
0.99994
0.999953
0.999964
0.999974
0.999982
0.999988
0.999992
0.999994
0.999996
0.999998
0.999998
0.999999
0.999999
1
1
1
1
1
1
1
1
1
1
1
1
1
1
1
1
0.969803
0.929934
0.882427
0.829323
0.773403
0.717787
0.665439
0.618799
0.579681
0.54933
0.528602
0.518124
0.518372
0.529624
0.55187
0.584657
0.626937
0.676963
0.732308
0.790015
0.846847
0.899627
0.945612
0.982824
1.01031
1.02824
1.0377
1.04045
1.03851
1.03377
1.02781
1.02173
1.01622
1.01162
1.00799
1.00528
1.00335
1.00202
1.00114
1.00059
1.00026
1.00008
0.999984
0.999943
0.999931
0.999934
0.999944
0.999956
0.999967
0.999976
0.999983
0.999988
0.999992
0.999995
0.999997
0.999998
0.999999
0.999999
0.999999
1
1
1
1
1
1
1
1
1
1
1
1
1
1
1
1
0.954858
0.909974
0.857129
0.798684
0.737784
0.677844
0.622001
0.572728
0.531736
0.500132
0.478631
0.467772
0.467993
0.479595
0.50265
0.536833
0.581238
0.634215
0.693341
0.755577
0.817505
0.875694
0.927095
0.969412
1.0014
1.02302
1.03527
1.03994
1.03916
1.035
1.02921
1.02306
1.01737
1.01253
1.00869
1.00579
1.0037
1.00226
1.00131
1.0007
1.00033
1.00012
1.00001
0.999962
0.999944
0.999943
0.99995
0.99996
0.999969
0.999977
0.999984
0.999989
0.999992
0.999995
0.999997
0.999998
0.999999
0.999999
0.999999
1
1
1
1
1
1
1
1
1
1
1
1
1
1
1
1
0.940206
0.890676
0.832957
0.76971
0.704426
0.640795
0.58209
0.530778
0.488447
0.456031
0.434085
0.423035
0.423257
0.435059
0.458598
0.493707
0.539662
0.594948
0.657184
0.723273
0.789652
0.852672
0.90901
0.956068
0.992325
1.0175
1.0325
1.0391
1.03952
1.03599
1.03042
1.02426
1.01841
1.01338
1.00934
1.00627
1.00405
1.0025
1.00147
1.00081
1.00041
1.00017
1.00005
0.999985
0.999959
0.999953
0.999957
0.999964
0.999972
0.99998
0.999985
0.99999
0.999993
0.999995
0.999997
0.999998
0.999999
0.999999
1
1
1
1
1
1
1
1
1
1
1
1
1
1
1
1
1
0.926397
0.872718
0.810709
0.743306
0.674304
0.607639
0.546692
0.493895
0.4507
0.417855
0.395744
0.38466
0.384894
0.396746
0.420464
0.45606
0.503027
0.56002
0.624723
0.693991
0.764139
0.831332
0.892018
0.943331
0.983482
1.01198
1.02958
1.03804
1.03964
1.03676
1.03146
1.02531
1.01935
1.01415
1.00994
1.00672
1.00437
1.00273
1.00163
1.00092
1.00048
1.00022
1.00008
1.00001
0.999975
0.999965
0.999965
0.99997
0.999976
0.999982
0.999987
0.999991
0.999994
0.999996
0.999997
0.999998
0.999999
0.999999
1
1
1
1
1
1
1
1
1
1
1
1
1
1
1
1
1
0.913942
0.856716
0.791099
0.720263
0.648244
0.579189
0.51656
0.462751
0.419073
0.386093
0.364024
0.353013
0.353251
0.365018
0.388651
0.424358
0.471871
0.530041
0.596625
0.668438
0.741676
0.812352
0.876725
0.931707
0.975277
1.00673
1.02669
1.03687
1.0396
1.03734
1.03231
1.02621
1.02017
1.01483
1.01047
1.00712
1.00466
1.00294
1.00177
1.00102
1.00055
1.00027
1.00012
1.00003
0.999993
0.999977
0.999974
0.999976
0.999981
0.999985
0.999989
0.999992
0.999995
0.999996
0.999998
0.999999
0.999999
0.999999
1
1
1
1
1
1
1
1
1
1
1
1
1
1
1
1
1
0.903289
0.843196
0.774721
0.701215
0.626896
0.556054
0.492229
0.437769
0.393874
0.360949
0.339046
0.328164
0.328389
0.339971
0.363323
0.398847
0.446528
0.505427
0.573383
0.647162
0.722844
0.796304
0.86366
0.921655
0.968077
1.00204
1.02404
1.03572
1.03945
1.03777
1.033
1.02695
1.02085
1.01541
1.01093
1.00747
1.00492
1.00312
1.00191
1.00112
1.00062
1.00032
1.00015
1.00006
1.00001
0.999991
0.999983
0.999983
0.999986
0.999989
0.999992
0.999994
0.999996
0.999997
0.999998
0.999999
0.999999
1
1
1
1
1
1
1
1
1
1
1
1
1
1
1
1
1
1
0.894808
0.832573
0.762031
0.68664
0.610724
0.538657
0.474034
0.419182
0.37522
0.34243
0.320736
0.309995
0.310193
0.321538
0.344498
0.379647
0.427213
0.486473
0.555359
0.630578
0.708089
0.783645
0.853258
0.91356
0.962204
0.998159
1.0218
1.03471
1.03927
1.03807
1.03353
1.02754
1.0214
1.01587
1.0113
1.00775
1.00513
1.00328
1.00203
1.0012
1.00069
1.00037
1.00019
1.00008
1.00003
1
0.999994
0.99999
0.999991
0.999992
0.999994
0.999996
0.999997
0.999998
0.999999
0.999999
1
1
1
1
1
1
1
1
1
1
1
1
1
1
1
1
1
1
1
0.888787
0.825144
0.753331
0.676837
0.600003
0.527238
0.462152
0.407081
0.363104
0.330446
0.30893
0.298311
0.298477
0.309585
0.332131
0.366815
0.41408
0.473408
0.542827
0.618996
0.697746
0.77472
0.845856
0.907731
0.957917
0.995285
1.02012
1.03394
1.03911
1.03828
1.03391
1.02796
1.0218
1.01622
1.01158
1.00798
1.00531
1.00341
1.00213
1.00128
1.00074
1.00041
1.00022
1.00011
1.00005
1.00002
1
0.999998
0.999996
0.999996
0.999997
0.999998
0.999998
0.999999
0.999999
0.999999
1
1
1
1
1
1
1
1
1
1
1
1
1
1
1
1
1
1
1
0.885426
0.821097
0.74878
0.671937
0.594843
0.521871
0.456622
0.401453
0.357461
0.324868
0.303458
0.292921
0.293066
0.303988
0.326173
0.360398
0.407263
0.466429
0.536018
0.612652
0.692051
0.769762
0.841685
0.904384
0.955406
0.993573
1.0191
1.03346
1.03901
1.03841
1.03414
1.02823
1.02205
1.01644
1.01177
1.00813
1.00543
1.00351
1.0022
1.00134
1.00079
1.00045
1.00025
1.00013
1.00007
1.00003
1.00001
1.00001
1
1
0.999999
0.999999
0.999999
0.999999
1
1
1
1
1
1
1
1
1
1
1
1
1
1
1
1
1
1
1
1
1
0.884844
0.820521
0.748412
0.671921
0.595189
0.522481
0.457358
0.402208
0.358189
0.325579
0.304192
0.293696
0.293851
0.304678
0.326615
0.360452
0.406885
0.465706
0.535118
0.611725
0.691162
0.76891
0.840869
0.903634
0.954779
0.993113
1.01882
1.03335
1.03901
1.03847
1.03424
1.02834
1.02215
1.01653
1.01186
1.0082
1.0055
1.00357
1.00226
1.00139
1.00083
1.00049
1.00028
1.00016
1.00009
1.00005
1.00003
1.00001
1.00001
1
1
1
1
1
1
1
1
1
1
1
1
1
1
1
1
1
1
1
1
1
1
1
1
1
1
0.88707
0.823424
0.752173
0.67666
0.600861
0.528872
0.464175
0.409184
0.365153
0.332477
0.311051
0.300581
0.300795
0.311641
0.333472
0.367033
0.413041
0.471358
0.540245
0.616309
0.695143
0.772208
0.843436
0.905507
0.956057
0.993928
1.0193
1.0336
1.03911
1.03848
1.0342
1.02828
1.0221
1.0165
1.01184
1.0082
1.00551
1.0036
1.00229
1.00142
1.00087
1.00052
1.0003
1.00018
1.0001
1.00006
1.00004
1.00002
1.00001
1.00001
1
1
1
1
1
1
1
1
1
1
1
1
1
1
1
1
1
1
1
1
1
1
1
1
1
0.892048
0.829739
0.759954
0.685971
0.611609
0.540765
0.476809
0.422167
0.378203
0.345471
0.324005
0.313582
0.313924
0.324899
0.34676
0.380158
0.425754
0.48341
0.551414
0.626391
0.703949
0.779585
0.849316
0.909933
0.959183
0.995975
1.02051
1.03419
1.0393
1.03842
1.03402
1.02806
1.0219
1.01633
1.01172
1.00813
1.00547
1.00359
1.0023
1.00144
1.00089
1.00054
1.00033
1.0002
1.00012
1.00007
1.00005
1.00003
1.00002
1.00001
1.00001
1
1
1
1
1
1
1
1
1
1
1
1
1
1
1
1
1
1
1
1
1
1
1
1
0.899614
0.839315
0.771587
0.699649
0.627172
0.557865
0.494976
0.440919
0.397184
0.364494
0.343056
0.332749
0.333294
0.344487
0.366471
0.399771
0.444937
0.501755
0.568497
0.641819
0.717399
0.790846
0.858316
0.916747
0.964023
0.999147
1.02236
1.03508
1.03954
1.03828
1.03369
1.02767
1.02154
1.01603
1.0115
1.00798
1.00538
1.00354
1.00228
1.00144
1.0009
1.00056
1.00034