/*--------------------------------*- C++ -*----------------------------------*\
  =========                 |
  \\      /  F ield         | OpenFOAM: The Open Source CFD Toolbox
   \\    /   O peration     | Website:  https://openfoam.org
    \\  /    A nd           | Version:  6
     \\/     M anipulation  |
\*---------------------------------------------------------------------------*/
FoamFile
{
    version     2.0;
    format      ascii;
    class       volVectorField;
    location    "2.64";
    object      U;
}
// * * * * * * * * * * * * * * * * * * * * * * * * * * * * * * * * * * * * * //

dimensions      [0 1 -1 0 0 0 0];

internalField   nonuniform List<vector> 
24166
(
(0.891486 0.448102 0)
(0.877024 0.464581 0)
(0.8944 0.4472 0)
(0.8944 0.4472 0)
(0.8944 0.4472 0)
(0.8944 0.4472 0)
(0.8944 0.4472 0)
(0.8944 0.4472 0)
(0.883545 0.485172 0)
(0.8944 0.4472 0)
(0.89482 0.447464 0)
(0.894091 0.449305 0)
(0.894149 0.446087 0)
(0.895103 0.452211 0)
(0.895136 0.446293 0)
(0.894409 0.447155 0)
(0.895599 0.446083 0)
(0.894282 0.447099 0)
(0.894403 0.447194 0)
(0.894278 0.446797 0)
(0.894472 0.447121 0)
(0.894383 0.447223 0)
(0.8944 0.4472 0)
(0.8944 0.4472 0)
(0.885847 0.483653 0)
(0.894399 0.4472 0)
(0.89441 0.4472 0)
(0.879205 0.465818 0)
(0.894383 0.447197 0)
(0.894401 0.447201 0)
(0.910255 0.38626 0)
(0.8944 0.4472 0)
(0.8944 0.4472 0)
(0.8944 0.4472 0)
(0.8944 0.4472 0)
(0.875721 0.422671 0)
(0.8944 0.4472 0)
(0.834429 0.408028 0)
(0.8944 0.4472 0)
(0.717793 -0.200675 0)
(0.894365 0.447082 0)
(0.8944 0.4472 0)
(0.8944 0.4472 0)
(0.894401 0.447191 0)
(0.894481 0.447099 0)
(0.894401 0.447201 0)
(0.872812 0.461494 0)
(0.912403 0.459171 0)
(0.8944 0.4472 0)
(0.856199 0.410845 0)
(0.8944 0.4472 0)
(0.894613 0.447519 0)
(0.8944 0.4472 0)
(0.893604 0.44811 0)
(0.894391 0.4472 0)
(0.775761 0.523176 0)
(0.825192 0.399286 0)
(0.8944 0.4472 0)
(0.8944 0.4472 0)
(0.894397 0.447185 0)
(1.29556 0.219609 0)
(0.894129 0.446823 0)
(0.8944 0.4472 0)
(0.8944 0.4472 0)
(0.894399 0.4472 0)
(0.8944 0.4472 0)
(0.8944 0.4472 0)
(0.927597 0.4342 0)
(0.770836 0.254252 0)
(0.8944 0.4472 0)
(0.894392 0.44721 0)
(0.894476 0.447249 0)
(0.894401 0.4472 0)
(0.8944 0.4472 0)
(0.8944 0.4472 0)
(0.894418 0.447193 0)
(0.894404 0.44722 0)
(0.851971 0.435664 0)
(0.8944 0.4472 0)
(0.894502 0.447024 0)
(0.682545 0.965273 0)
(0.8944 0.4472 0)
(0.894399 0.4472 0)
(0.478598 0.623699 0)
(0.89473 0.446849 0)
(0.8944 0.4472 0)
(0.893888 0.447928 0)
(0.8944 0.4472 0)
(0.8944 0.4472 0)
(0.894392 0.447176 0)
(0.8944 0.4472 0)
(0.894399 0.4472 0)
(0.894204 0.447347 0)
(0.89436 0.447226 0)
(0.89455 0.44766 0)
(0.893861 0.447287 0)
(0.8944 0.4472 0)
(0.894098 0.44703 0)
(0.894304 0.447253 0)
(0.894403 0.447193 0)
(0.8944 0.4472 0)
(0.8944 0.4472 0)
(0.89387 0.447522 0)
(0.8944 0.4472 0)
(0.8944 0.4472 0)
(0.8944 0.4472 0)
(0.8944 0.4472 0)
(0.894452 0.447268 0)
(0.8944 0.4472 0)
(0.894415 0.447191 0)
(0.8944 0.4472 0)
(0.8944 0.4472 0)
(0.8944 0.4472 0)
(0.901143 0.313658 0)
(0.925774 0.350189 0)
(0.894354 0.447287 0)
(0.8944 0.4472 0)
(0.8944 0.4472 0)
(0.894446 0.447354 0)
(0.8944 0.4472 0)
(0.8944 0.4472 0)
(0.8944 0.4472 0)
(0.899649 0.450037 0)
(0.8944 0.4472 0)
(0.981372 0.600536 0)
(0.894793 0.447286 0)
(0.8944 0.4472 0)
(0.8944 0.4472 0)
(0.8944 0.4472 0)
(0.8944 0.4472 0)
(0.244637 0.774076 0)
(0.891814 0.445543 0)
(0.889972 0.457601 0)
(0.88346 0.609368 0)
(0.894405 0.447206 0)
(0.894377 0.447185 0)
(0.8944 0.4472 0)
(0.692379 1.03043 0)
(0.894399 0.4472 0)
(0.894421 0.4472 0)
(0.775346 0.514778 0)
(0.8944 0.4472 0)
(0.532791 0.617867 0)
(0.8944 0.4472 0)
(0.89433 0.434849 0)
(0.894405 0.447206 0)
(0.8944 0.447201 0)
(0.894353 0.447186 0)
(0.262435 0.779847 0)
(0.8944 0.4472 0)
(0.8944 0.4472 0)
(0.8944 0.4472 0)
(0.894396 0.447206 0)
(0.894344 0.447164 0)
(0.894398 0.447198 0)
(0.8944 0.4472 0)
(0.8944 0.4472 0)
(0.8944 0.4472 0)
(0.8944 0.4472 0)
(0.894409 0.447181 0)
(0.871008 0.428307 0)
(0.901792 0.432471 0)
(0.8944 0.4472 0)
(0.8944 0.447217 0)
(0.894405 0.4472 0)
(0.8944 0.4472 0)
(0.698643 0.0645018 0)
(0.8944 0.4472 0)
(0.8944 0.4472 0)
(0.8944 0.4472 0)
(0.8944 0.4472 0)
(0.8944 0.4472 0)
(0.8944 0.4472 0)
(0.895167 0.447847 0)
(0.8944 0.4472 0)
(0.89096 0.450116 0)
(0.8944 0.4472 0)
(0.8944 0.4472 0)
(0.894029 0.447525 0)
(0.865868 0.436084 0)
(0.894399 0.4472 0)
(0.8944 0.4472 0)
(1.07077 0.538191 0)
(0.8944 0.4472 0)
(0.8944 0.4472 0)
(0.8944 0.4472 0)
(0.8944 0.4472 0)
(0.894399 0.447201 0)
(0.8944 0.4472 0)
(0.8944 0.4472 0)
(0.894398 0.447199 0)
(0.906801 0.56756 0)
(0.894392 0.447187 0)
(0.895222 0.446809 0)
(0.894398 0.447206 0)
(0.894336 0.447229 0)
(0.896538 0.443478 0)
(0.8944 0.4472 0)
(0.897242 0.456659 0)
(0.894301 0.447222 0)
(0.8944 0.447201 0)
(0.8944 0.4472 0)
(0.8944 0.4472 0)
(0.889 0.450448 0)
(0.8944 0.4472 0)
(0.8944 0.4472 0)
(0.8944 0.4472 0)
(0.8944 0.447201 0)
(0.894399 0.447199 0)
(0.575402 0.152767 0)
(0.930772 0.602404 0)
(0.894401 0.447198 0)
(0.889905 0.450716 0)
(0.894382 0.447139 0)
(0.8944 0.4472 0)
(0.894404 0.447211 0)
(0.8944 0.4472 0)
(0.8944 0.4472 0)
(0.963148 0.390063 0)
(0.8944 0.4472 0)
(0.8944 0.4472 0)
(0.895443 0.446889 0)
(0.8944 0.4472 0)
(0.8944 0.4472 0)
(0.97019 0.626901 0)
(0.8944 0.4472 0)
(0.8944 0.4472 0)
(0.8944 0.4472 0)
(0.894288 0.44713 0)
(0.8944 0.4472 0)
(0.89678 0.444152 0)
(0.893969 0.447962 0)
(0.894551 0.447489 0)
(0.8944 0.4472 0)
(0.91439 0.400181 0)
(0.8944 0.4472 0)
(0.894172 0.447624 0)
(0.8944 0.4472 0)
(0.8944 0.4472 0)
(0.8944 0.4472 0)
(0.8944 0.447201 0)
(0.8944 0.4472 0)
(0.8944 0.4472 0)
(0.8944 0.4472 0)
(0.894347 0.447037 0)
(0.894398 0.4472 0)
(0.894365 0.446988 0)
(0.894899 0.447168 0)
(0.893267 0.448216 0)
(0.8944 0.4472 0)
(0.894964 0.447409 0)
(0.894397 0.447209 0)
(0.894434 0.447198 0)
(1.08051 0.551722 0)
(0.8944 0.4472 0)
(0.8944 0.4472 0)
(0.8944 0.4472 0)
(0.893767 0.446842 0)
(0.8944 0.4472 0)
(0.894379 0.44715 0)
(0.8944 0.4472 0)
(0.8944 0.4472 0)
(0.8944 0.4472 0)
(0.893944 0.447134 0)
(0.894401 0.4472 0)
(0.894491 0.447225 0)
(0.894396 0.447208 0)
(0.8944 0.4472 0)
(0.894398 0.4472 0)
(0.8944 0.4472 0)
(0.89363 0.448642 0)
(1.00888 0.185155 0)
(0.8944 0.4472 0)
(0.895894 0.443303 0)
(0.894399 0.4472 0)
(0.894434 0.447217 0)
(0.8944 0.4472 0)
(1.03924 0.601028 0)
(0.894386 0.447187 0)
(0.894399 0.4472 0)
(0.844024 0.553821 0)
(0.8944 0.4472 0)
(0.930171 0.0881932 0)
(0.8944 0.4472 0)
(0.8944 0.4472 0)
(0.8944 0.4472 0)
(0.8944 0.4472 0)
(0.894401 0.4472 0)
(0.894454 0.446585 0)
(0.8944 0.4472 0)
(1.19766 0.989401 0)
(0.8944 0.4472 0)
(0.894402 0.4472 0)
(0.894399 0.447201 0)
(0.894141 0.447821 0)
(1.15542 0.25547 0)
(0.8944 0.4472 0)
(0.8944 0.4472 0)
(0.892407 0.449668 0)
(0.8944 0.4472 0)
(0.8944 0.447201 0)
(0.893871 0.448123 0)
(0.894061 0.446784 0)
(0.8944 0.4472 0)
(0.894401 0.4472 0)
(0.8944 0.4472 0)
(0.8944 0.4472 0)
(0.894409 0.447578 0)
(0.891777 0.437635 0)
(0.8944 0.4472 0)
(0.885456 0.459224 0)
(0.894374 0.447181 0)
(0.8944 0.4472 0)
(1.03998 -0.047912 0)
(0.890845 0.44529 0)
(0.8944 0.4472 0)
(0.894267 0.447456 0)
(0.8944 0.4472 0)
(0.894436 0.447085 0)
(0.896329 0.447322 0)
(0.8944 0.4472 0)
(0.8944 0.4472 0)
(0.776557 0.456096 0)
(0.8944 0.4472 0)
(0.8944 0.4472 0)
(0.894388 0.447234 0)
(0.8944 0.4472 0)
(0.8944 0.4472 0)
(0.8944 0.4472 0)
(0.979309 0.399609 0)
(0.8944 0.4472 0)
(0.894423 0.447289 0)
(0.8944 0.4472 0)
(0.907943 0.464913 0)
(0.8944 0.4472 0)
(0.893772 0.444693 0)
(0.8944 0.4472 0)
(0.8944 0.4472 0)
(0.894945 0.449515 0)
(0.934947 0.476794 0)
(0.8944 0.4472 0)
(0.8944 0.4472 0)
(0.8944 0.4472 0)
(0.8944 0.4472 0)
(0.894402 0.447203 0)
(0.894399 0.447201 0)
(0.894399 0.447194 0)
(0.8944 0.4472 0)
(0.8944 0.4472 0)
(0.8944 0.4472 0)
(0.8944 0.4472 0)
(0.894402 0.4472 0)
(0.8944 0.4472 0)
(0.8944 0.4472 0)
(0.8944 0.4472 0)
(0.8944 0.4472 0)
(0.8944 0.4472 0)
(0.8944 0.4472 0)
(0.769385 0.163047 0)
(0.899113 0.438653 0)
(0.8944 0.4472 0)
(0.8944 0.4472 0)
(0.8944 0.4472 0)
(0.89834 0.447449 0)
(0.8944 0.4472 0)
(0.894399 0.447201 0)
(0.89766 0.462236 0)
(0.8944 0.4472 0)
(0.8944 0.4472 0)
(0.8944 0.4472 0)
(0.913385 0.467743 0)
(0.8944 0.4472 0)
(0.8944 0.4472 0)
(0.894403 0.447204 0)
(0.894401 0.447201 0)
(0.894653 0.447208 0)
(0.8944 0.4472 0)
(0.894526 0.446691 0)
(0.8944 0.4472 0)
(0.8944 0.4472 0)
(0.894472 0.447218 0)
(0.8944 0.4472 0)
(0.8944 0.4472 0)
(0.894363 0.446781 0)
(0.889407 0.476386 0)
(0.8944 0.4472 0)
(0.8944 0.4472 0)
(0.894071 0.445941 0)
(0.8944 0.4472 0)
(1.24569 0.934162 0)
(0.8944 0.4472 0)
(0.894398 0.447199 0)
(0.897072 0.469166 0)
(0.894685 0.418741 0)
(0.842003 0.360404 0)
(0.892053 0.447398 0)
(0.894396 0.447192 0)
(0.8944 0.4472 0)
(0.8944 0.4472 0)
(0.8944 0.4472 0)
(0.8944 0.4472 0)
(0.8944 0.4472 0)
(0.896352 0.466485 0)
(0.895152 0.446462 0)
(0.8944 0.4472 0)
(0.8944 0.4472 0)
(0.8944 0.4472 0)
(0.896676 0.451819 0)
(0.8944 0.447201 0)
(0.894399 0.447197 0)
(0.889765 0.440477 0)
(0.8944 0.4472 0)
(0.894401 0.447201 0)
(0.894403 0.447198 0)
(0.8944 0.4472 0)
(0.889998 0.441998 0)
(0.904111 0.462725 0)
(0.8944 0.4472 0)
(0.894477 0.447178 0)
(0.8944 0.4472 0)
(0.894401 0.447201 0)
(0.851137 0.412539 0)
(0.8944 0.4472 0)
(0.8944 0.4472 0)
(0.894399 0.447197 0)
(0.894403 0.447203 0)
(0.898179 0.448253 0)
(0.8944 0.4472 0)
(0.8944 0.4472 0)
(0.894698 0.449553 0)
(0.894481 0.447331 0)
(0.912776 0.76707 0)
(0.8944 0.4472 0)
(0.894401 0.447206 0)
(0.894529 0.447241 0)
(0.8944 0.4472 0)
(0.8944 0.4472 0)
(0.8944 0.447201 0)
(0.8944 0.4472 0)
(0.894008 0.446261 0)
(0.895337 0.448048 0)
(0.8944 0.4472 0)
(0.698133 0.168321 0)
(0.8944 0.4472 0)
(0.8944 0.4472 0)
(0.894445 0.447158 0)
(0.875112 0.386303 0)
(0.894432 0.447206 0)
(0.835724 0.420047 0)
(1.02541 0.419477 0)
(0.8944 0.4472 0)
(0.8944 0.4472 0)
(0.894401 0.447201 0)
(0.894805 0.451735 0)
(0.917764 0.48568 0)
(0.893949 0.447356 0)
(0.880756 0.446219 0)
(0.8944 0.4472 0)
(0.8944 0.4472 0)
(0.8944 0.447203 0)
(0.23817 0.163194 0)
(0.8944 0.4472 0)
(0.892801 0.443677 0)
(0.916641 0.397255 0)
(0.8944 0.4472 0)
(0.8944 0.4472 0)
(0.894394 0.447205 0)
(0.8944 0.4472 0)
(0.895568 0.447465 0)
(0.8944 0.447201 0)
(0.89438 0.44721 0)
(0.92323 0.489592 0)
(0.8944 0.4472 0)
(0.8944 0.4472 0)
(0.8944 0.4472 0)
(0.891973 0.448641 0)
(0.8944 0.4472 0)
(0.894399 0.4472 0)
(0.8944 0.4472 0)
(0.894115 0.448526 0)
(0.8944 0.447202 0)
(0.886207 0.454007 0)
(0.8944 0.4472 0)
(0.894401 0.447202 0)
(0.791345 0.222174 0)
(0.894401 0.4472 0)
(0.894921 0.446851 0)
(0.894398 0.44721 0)
(0.8944 0.4472 0)
(0.8944 0.4472 0)
(0.8944 0.4472 0)
(0.8944 0.4472 0)
(0.8944 0.4472 0)
(0.8944 0.4472 0)
(0.843864 0.441069 0)
(0.872061 0.453543 0)
(0.8944 0.4472 0)
(0.894427 0.4472 0)
(0.8944 0.4472 0)
(0.879947 0.451402 0)
(0.8944 0.4472 0)
(0.896566 0.447788 0)
(0.846907 0.44065 0)
(0.200596 0.0721223 0)
(0.8944 0.4472 0)
(0.895064 0.447197 0)
(0.894391 0.447183 0)
(0.8944 0.4472 0)
(0.8944 0.4472 0)
(0.896252 0.445105 0)
(0.894396 0.447195 0)
(0.8944 0.4472 0)
(0.894399 0.4472 0)
(0.894435 0.447243 0)
(0.891133 0.448066 0)
(0.923513 0.437923 0)
(0.91637 0.458912 0)
(0.894911 0.448938 0)
(0.894398 0.447205 0)
(0.8944 0.4472 0)
(0.894403 0.447205 0)
(0.894402 0.447203 0)
(0.913054 0.430955 0)
(0.943889 0.418308 0)
(0.894399 0.4472 0)
(0.8944 0.4472 0)
(0.8944 0.4472 0)
(0.8944 0.4472 0)
(0.894401 0.4472 0)
(1.16655 0.841952 0)
(0.8944 0.4472 0)
(0.894128 0.447245 0)
(0.8944 0.4472 0)
(0.89441 0.447197 0)
(0.894399 0.44718 0)
(0.8944 0.447201 0)
(0.287919 0.279125 0)
(0.894388 0.4472 0)
(0.896004 0.444596 0)
(0.894402 0.447199 0)
(0.8944 0.4472 0)
(0.8944 0.4472 0)
(0.870272 0.452307 0)
(0.8944 0.4472 0)
(0.894103 0.441376 0)
(0.894496 0.447205 0)
(0.94129 0.408437 0)
(0.8944 0.4472 0)
(0.896003 0.448347 0)
(0.892557 0.445862 0)
(0.873096 0.453175 0)
(0.8944 0.4472 0)
(0.894316 0.447027 0)
(0.894401 0.447201 0)
(0.8944 0.4472 0)
(0.8944 0.4472 0)
(0.8944 0.447199 0)
(0.95164 0.391209 0)
(0.8944 0.4472 0)
(0.997823 0.24937 0)
(0.584374 0.71862 0)
(0.894399 0.4472 0)
(0.8944 0.4472 0)
(0.893226 0.446815 0)
(0.8944 0.4472 0)
(0.780462 0.452358 0)
(1.29797 0.483409 0)
(0.894462 0.447231 0)
(0.8944 0.4472 0)
(0.894401 0.4472 0)
(0.8944 0.4472 0)
(0.89162 0.590603 0)
(0.894416 0.4472 0)
(0.8944 0.4472 0)
(0.894406 0.447218 0)
(0.8944 0.4472 0)
(0.895863 0.447276 0)
(0.8944 0.4472 0)
(0.894382 0.447213 0)
(0.8944 0.4472 0)
(0.894552 0.447586 0)
(0.8944 0.4472 0)
(0.8944 0.4472 0)
(0.8944 0.4472 0)
(0.894425 0.447207 0)
(0.8944 0.4472 0)
(0.894399 0.447206 0)
(0.880926 0.443212 0)
(0.9015 0.450955 0)
(0.865689 0.398042 0)
(0.8944 0.4472 0)
(0.893896 0.446187 0)
(0.8944 0.447201 0)
(0.8944 0.4472 0)
(0.919234 -0.00768149 0)
(0.894399 0.447202 0)
(0.894398 0.44721 0)
(0.830492 0.406777 0)
(0.8944 0.4472 0)
(0.894401 0.4472 0)
(0.898243 0.446128 0)
(0.8944 0.4472 0)
(0.894401 0.447205 0)
(0.893671 0.446951 0)
(0.8944 0.4472 0)
(0.887506 0.438665 0)
(0.894687 0.448496 0)
(0.894724 0.447596 0)
(0.887498 0.439839 0)
(0.8944 0.4472 0)
(0.900641 0.441084 0)
(0.8944 0.4472 0)
(0.894382 0.447219 0)
(0.8944 0.4472 0)
(0.890478 0.447077 0)
(0.8944 0.4472 0)
(0.8944 0.4472 0)
(0.951581 0.402784 0)
(0.911556 0.458532 0)
(0.8944 0.4472 0)
(0.883686 0.488427 0)
(0.8944 0.4472 0)
(0.892433 0.447975 0)
(0.8944 0.447194 0)
(0.8944 0.4472 0)
(0.894398 0.447201 0)
(0.894188 0.447326 0)
(0.894397 0.447201 0)
(0.936419 0.415165 0)
(0.8944 0.4472 0)
(0.894403 0.4472 0)
(0.792847 0.536399 0)
(0.8944 0.4472 0)
(0.885726 0.45119 0)
(0.8944 0.4472 0)
(0.894398 0.447205 0)
(0.909063 0.418203 0)
(0.8944 0.4472 0)
(0.8944 0.4472 0)
(0.935019 0.622411 0)
(0.8944 0.447198 0)
(0.8944 0.4472 0)
(0.895614 0.448016 0)
(0.893992 0.447331 0)
(1.14673 0.455848 0)
(0.894397 0.447203 0)
(0.894068 0.447427 0)
(0.89402 0.447955 0)
(0.894489 0.447305 0)
(0.894446 0.447216 0)
(0.8944 0.4472 0)
(0.8944 0.4472 0)
(0.8944 0.4472 0)
(0.8944 0.4472 0)
(0.896646 0.448981 0)
(0.894401 0.447203 0)
(0.8944 0.4472 0)
(0.8944 0.4472 0)
(0.8944 0.4472 0)
(0.894409 0.447187 0)
(0.8944 0.4472 0)
(0.894663 0.44739 0)
(0.8944 0.4472 0)
(0.8944 0.4472 0)
(0.8944 0.4472 0)
(0.881439 0.449239 0)
(0.902522 0.457633 0)
(0.8944 0.4472 0)
(0.89453 0.447213 0)
(0.8944 0.4472 0)
(0.8944 0.4472 0)
(1.02124 0.307167 0)
(0.8944 0.4472 0)
(0.8944 0.4472 0)
(0.894386 0.447214 0)
(0.814799 0.103565 0)
(0.894453 0.447273 0)
(0.894401 0.4472 0)
(0.895559 0.448258 0)
(0.894399 0.4472 0)
(0.8944 0.4472 0)
(0.8944 0.4472 0)
(0.8944 0.4472 0)
(0.894421 0.447249 0)
(0.8944 0.4472 0)
(0.894401 0.447205 0)
(0.894399 0.4472 0)
(0.8944 0.4472 0)
(0.894563 0.447176 0)
(0.901113 0.448417 0)
(0.866175 0.469088 0)
(0.894447 0.448634 0)
(0.8944 0.4472 0)
(0.894399 0.447203 0)
(0.894399 0.447199 0)
(0.8944 0.4472 0)
(0.896316 0.448377 0)
(0.894544 0.447234 0)
(0.85074 0.425537 0)
(1.09799 0.445256 0)
(0.8944 0.4472 0)
(0.8944 0.4472 0)
(0.8944 0.4472 0)
(0.894401 0.447201 0)
(0.902817 0.464068 0)
(0.8944 0.4472 0)
(0.894332 0.447194 0)
(1.24271 0.795721 0)
(0.8944 0.4472 0)
(0.8944 0.4472 0)
(0.8944 0.4472 0)
(0.899191 0.449352 0)
(0.8944 0.4472 0)
(0.8944 0.4472 0)
(0.8944 0.4472 0)
(0.8944 0.4472 0)
(0.897261 0.448885 0)
(1.11019 0.896432 0)
(0.894402 0.447203 0)
(0.901491 0.434767 0)
(0.90486 0.449845 0)
(0.83904 0.404795 0)
(0.894403 0.447216 0)
(0.8944 0.4472 0)
(0.894533 0.448137 0)
(0.8944 0.4472 0)
(0.794232 0.427895 0)
(0.8944 0.4472 0)
(0.894397 0.447169 0)
(0.8944 0.4472 0)
(0.894378 0.447338 0)
(0.8944 0.4472 0)
(0.895102 0.445198 0)
(0.866463 0.450499 0)
(0.905489 0.46083 0)
(0.894612 0.449086 0)
(0.89436 0.44757 0)
(0.8944 0.4472 0)
(0.8944 0.4472 0)
(0.8944 0.4472 0)
(0.894508 0.44698 0)
(0.8944 0.4472 0)
(0.894375 0.447293 0)
(0.898734 0.449674 0)
(0.784074 -0.0291581 0)
(0.868744 0.46037 0)
(0.8944 0.4472 0)
(0.8944 0.4472 0)
(0.8944 0.4472 0)
(0.8944 0.4472 0)
(0.894409 0.447202 0)
(0.8944 0.4472 0)
(0.8944 0.4472 0)
(0.8944 0.4472 0)
(0.875703 0.703292 0)
(0.8944 0.4472 0)
(0.894402 0.447201 0)
(0.894416 0.4472 0)
(0.902407 0.44443 0)
(0.8944 0.4472 0)
(0.8944 0.4472 0)
(0.8944 0.4472 0)
(0.8944 0.4472 0)
(0.8944 0.4472 0)
(0.902465 0.79722 0)
(0.8944 0.4472 0)
(0.8944 0.4472 0)
(0.8944 0.4472 0)
(0.894394 0.447202 0)
(0.89426 0.447783 0)
(0.8944 0.4472 0)
(0.894406 0.447195 0)
(0.8944 0.4472 0)
(0.894397 0.447207 0)
(0.8944 0.4472 0)
(0.894393 0.447173 0)
(0.8944 0.4472 0)
(0.8944 0.4472 0)
(0.810646 0.423579 0)
(0.894373 0.447172 0)
(0.894399 0.447203 0)
(0.8944 0.4472 0)
(0.894385 0.447312 0)
(0.8944 0.4472 0)
(0.8944 0.4472 0)
(0.8944 0.4472 0)
(0.894445 0.447206 0)
(0.8944 0.4472 0)
(0.8944 0.4472 0)
(0.8944 0.4472 0)
(0.8944 0.4472 0)
(0.591092 0.378761 0)
(0.894401 0.447202 0)
(0.8944 0.4472 0)
(0.8944 0.4472 0)
(0.894399 0.4472 0)
(0.894395 0.4472 0)
(0.8944 0.447199 0)
(0.8944 0.4472 0)
(0.8944 0.4472 0)
(0.8944 0.4472 0)
(0.807364 0.0278321 0)
(0.783678 0.540086 0)
(0.8944 0.4472 0)
(0.802224 0.411306 0)
(0.894405 0.447216 0)
(0.84104 0.500663 0)
(0.894402 0.447201 0)
(0.8944 0.447201 0)
(0.8944 0.4472 0)
(0.894399 0.447202 0)
(0.8944 0.4472 0)
(0.8944 0.4472 0)
(0.8944 0.4472 0)
(0.8944 0.4472 0)
(0.8944 0.4472 0)
(1.11898 0.24844 0)
(0.894556 0.447041 0)
(0.894353 0.447161 0)
(0.8944 0.4472 0)
(0.8944 0.4472 0)
(0.894405 0.447168 0)
(0.894409 0.447179 0)
(0.8944 0.4472 0)
(0.8944 0.4472 0)
(0.329946 0.252602 0)
(0.894345 0.447177 0)
(0.8944 0.447201 0)
(0.8944 0.4472 0)
(0.8944 0.447203 0)
(0.8944 0.4472 0)
(0.893359 0.446405 0)
(0.8944 0.4472 0)
(0.8944 0.4472 0)
(0.894389 0.447263 0)
(0.8944 0.4472 0)
(0.894363 0.447245 0)
(0.372633 0.306406 0)
(0.8944 0.4472 0)
(0.893735 0.44801 0)
(0.898253 0.450355 0)
(0.897859 0.446649 0)
(0.8944 0.4472 0)
(0.914055 0.453362 0)
(0.8944 0.4472 0)
(0.894421 0.4475 0)
(0.894401 0.4472 0)
(0.8944 0.4472 0)
(0.8944 0.447201 0)
(0.8944 0.4472 0)
(0.8944 0.4472 0)
(0.8944 0.4472 0)
(0.894398 0.447208 0)
(0.896355 0.448877 0)
(0.869223 0.463514 0)
(0.894397 0.4472 0)
(0.891938 0.448059 0)
(0.894403 0.447205 0)
(0.894398 0.447199 0)
(0.8944 0.4472 0)
(0.8944 0.4472 0)
(0.893826 0.447027 0)
(0.8944 0.4472 0)
(0.894399 0.447201 0)
(0.8944 0.4472 0)
(0.894582 0.4453 0)
(0.8944 0.4472 0)
(0.867773 0.428411 0)
(0.8944 0.4472 0)
(0.89375 0.439813 0)
(0.895675 0.448608 0)
(0.8944 0.4472 0)
(0.8944 0.4472 0)
(0.894384 0.446808 0)
(0.704278 0.464268 0)
(0.8944 0.4472 0)
(0.894874 0.447658 0)
(0.894402 0.447201 0)
(0.894805 0.447467 0)
(0.8944 0.4472 0)
(0.8944 0.4472 0)
(0.8944 0.4472 0)
(0.894094 0.447522 0)
(0.8944 0.4472 0)
(0.894408 0.447204 0)
(0.8944 0.4472 0)
(0.8944 0.4472 0)
(0.894405 0.447245 0)
(0.8944 0.4472 0)
(0.883974 0.447814 0)
(0.894399 0.4472 0)
(0.8944 0.4472 0)
(0.943521 0.559331 0)
(0.894402 0.447202 0)
(0.894332 0.446957 0)
(0.895716 0.446034 0)
(0.8944 0.4472 0)
(0.89438 0.447206 0)
(0.894403 0.447202 0)
(0.894396 0.447198 0)
(0.89534 0.448401 0)
(0.8944 0.4472 0)
(0.8944 0.4472 0)
(0.894289 0.447271 0)
(0.8944 0.4472 0)
(0.8944 0.4472 0)
(0.92849 0.457301 0)
(0.668745 0.0691642 0)
(0.8944 0.4472 0)
(0.895095 0.444372 0)
(0.8944 0.4472 0)
(0.8944 0.447202 0)
(0.894399 0.447408 0)
(0.894402 0.447191 0)
(0.8944 0.4472 0)
(0.894396 0.447213 0)
(0.8944 0.4472 0)
(0.894399 0.447199 0)
(0.89437 0.447183 0)
(0.54256 0.73731 0)
(0.8944 0.4472 0)
(0.8944 0.447201 0)
(0.894518 0.447172 0)
(0.894406 0.445579 0)
(1.13634 0.499081 0)
(0.894953 0.447252 0)
(0.892318 0.449157 0)
(0.894394 0.4472 0)
(0.894957 0.448336 0)
(0.894402 0.447198 0)
(0.8944 0.4472 0)
(0.894491 0.447324 0)
(0.8944 0.4472 0)
(0.894389 0.447629 0)
(0.911469 0.446364 0)
(0.894043 0.44737 0)
(0.985095 0.407613 0)
(0.894399 0.4472 0)
(0.894083 0.443407 0)
(0.894391 0.447189 0)
(0.89439 0.447194 0)
(1.12154 0.481301 0)
(0.884194 0.449042 0)
(0.8944 0.4472 0)
(0.894429 0.447253 0)
(0.894406 0.447196 0)
(0.8944 0.4472 0)
(0.8944 0.4472 0)
(0.894441 0.447086 0)
(0.264458 0.0278034 0)
(0.892047 0.447599 0)
(0.9631 0.513078 0)
(0.8944 0.4472 0)
(0.8944 0.4472 0)
(0.895595 0.451043 0)
(0.891247 0.445806 0)
(0.851351 0.494019 0)
(0.8944 0.447202 0)
(0.8944 0.4472 0)
(0.8944 0.4472 0)
(0.894387 0.454067 0)
(0.894399 0.447202 0)
(0.8944 0.4472 0)
(0.8944 0.4472 0)
(0.872104 0.432101 0)
(0.894428 0.447154 0)
(0.8944 0.4472 0)
(0.904666 0.443708 0)
(0.894416 0.447234 0)
(0.8944 0.4472 0)
(0.8944 0.4472 0)
(0.894397 0.4472 0)
(0.894409 0.4471 0)
(0.8944 0.4472 0)
(0.8944 0.4472 0)
(0.8944 0.4472 0)
(0.8944 0.4472 0)
(0.894403 0.44721 0)
(0.907127 0.442161 0)
(0.894337 0.447176 0)
(0.894453 0.446927 0)
(0.8944 0.4472 0)
(0.511997 0.722244 0)
(0.8944 0.4472 0)
(0.8944 0.4472 0)
(0.894399 0.4472 0)
(0.939925 0.32952 0)
(0.8944 0.4472 0)
(0.894399 0.447202 0)
(0.825451 1.08712 0)
(0.894286 0.447216 0)
(0.817132 0.435786 0)
(0.8944 0.4472 0)
(0.8944 0.4472 0)
(0.8944 0.447201 0)
(0.8944 0.4472 0)
(0.8944 0.4472 0)
(0.8944 0.4472 0)
(0.928797 0.468422 0)
(0.89439 0.447203 0)
(0.895765 0.445587 0)
(0.8944 0.4472 0)
(0.896655 0.458479 0)
(0.966886 0.422439 0)
(0.894807 0.447099 0)
(0.8944 0.4472 0)
(0.8944 0.4472 0)
(0.8944 0.4472 0)
(0.894401 0.447201 0)
(0.894401 0.447201 0)
(0.887035 0.409971 0)
(0.894326 0.447216 0)
(0.894544 0.447242 0)
(0.894409 0.447051 0)
(0.893858 0.452447 0)
(0.972359 0.550779 0)
(0.905156 0.430406 0)
(0.8944 0.4472 0)
(0.8944 0.4472 0)
(0.8944 0.4472 0)
(0.89439 0.447198 0)
(0.89294 0.445789 0)
(0.894398 0.447203 0)
(0.894406 0.447205 0)
(0.894436 0.447191 0)
(0.8944 0.4472 0)
(0.891775 0.447702 0)
(0.8948 0.447017 0)
(0.8944 0.4472 0)
(0.894392 0.447208 0)
(1.03452 0.396925 0)
(0.8944 0.4472 0)
(0.894381 0.447218 0)
(0.894388 0.447197 0)
(0.8944 0.4472 0)
(0.8944 0.4472 0)
(0.8944 0.4472 0)
(0.8944 0.4472 0)
(0.8944 0.4472 0)
(0.873671 0.706647 0)
(0.880086 0.43012 0)
(0.8944 0.4472 0)
(0.893836 0.446475 0)
(0.862702 0.400272 0)
(0.894399 0.447201 0)
(0.894404 0.447196 0)
(0.8944 0.4472 0)
(0.929363 0.540216 0)
(0.894397 0.447203 0)
(0.8944 0.4472 0)
(0.894389 0.447204 0)
(0.894383 0.447219 0)
(0.8944 0.4472 0)
(0.894386 0.44718 0)
(0.894412 0.447187 0)
(0.894655 0.447155 0)
(0.894401 0.447199 0)
(0.8944 0.4472 0)
(0.907141 0.452155 0)
(0.894399 0.447201 0)
(0.8944 0.4472 0)
(0.894398 0.447169 0)
(0.894401 0.447201 0)
(0.894395 0.447208 0)
(0.89489 0.44742 0)
(0.875609 0.472841 0)
(0.8944 0.4472 0)
(0.885347 0.491407 0)
(0.910333 0.449401 0)
(0.8944 0.4472 0)
(0.894438 0.447232 0)
(0.894399 0.447205 0)
(0.888913 0.440829 0)
(0.8944 0.4472 0)
(0.898029 0.460676 0)
(0.8944 0.4472 0)
(0.894426 0.447184 0)
(0.8944 0.4472 0)
(1.34782 -0.169401 0)
(0.894382 0.447292 0)
(0.907402 0.438095 0)
(0.8944 0.4472 0)
(0.8944 0.4472 0)
(0.8944 0.4472 0)
(0.894034 0.447139 0)
(0.8944 0.4472 0)
(0.906291 0.44904 0)
(0.89441 0.4472 0)
(0.8944 0.4472 0)
(0.8944 0.4472 0)
(0.894647 0.447552 0)
(0.8944 0.4472 0)
(0.8944 0.447201 0)
(0.8944 0.4472 0)
(0.8944 0.4472 0)
(0.8944 0.4472 0)
(0.894223 0.44741 0)
(0.8944 0.447203 0)
(0.894395 0.447194 0)
(0.8944 0.4472 0)
(0.890407 0.337355 0)
(0.894388 0.44719 0)
(0.896605 0.446481 0)
(0.894447 0.447122 0)
(0.894411 0.447194 0)
(0.894345 0.447188 0)
(0.894408 0.447202 0)
(0.8944 0.4472 0)
(0.894423 0.447226 0)
(0.8944 0.447202 0)
(0.894368 0.447313 0)
(0.89013 0.452801 0)
(0.894166 0.447326 0)
(0.894449 0.44726 0)
(0.894418 0.447218 0)
(0.945411 0.428283 0)
(0.889511 0.44204 0)
(0.894399 0.447199 0)
(0.8944 0.447202 0)
(0.8944 0.4472 0)
(0.8944 0.4472 0)
(0.885377 0.44921 0)
(0.8944 0.4472 0)
(0.8944 0.447201 0)
(0.894401 0.447201 0)
(0.8944 0.4472 0)
(0.8944 0.4472 0)
(0.920166 0.486912 0)
(0.894399 0.4472 0)
(0.837744 0.43878 0)
(0.8944 0.4472 0)
(0.89437 0.447242 0)
(0.8944 0.4472 0)
(0.894147 0.447236 0)
(0.894126 0.447194 0)
(0.894324 0.447279 0)
(0.894843 0.44791 0)
(0.961075 0.418493 0)
(0.89495 0.447089 0)
(0.8944 0.4472 0)
(0.905748 0.579121 0)
(0.8944 0.4472 0)
(0.899653 0.455461 0)
(0.907322 0.441602 0)
(0.8944 0.4472 0)
(0.8944 0.4472 0)
(0.898479 0.448227 0)
(0.8944 0.4472 0)
(0.895414 0.44844 0)
(0.892489 0.427737 0)
(0.894398 0.447199 0)
(0.894199 0.447342 0)
(0.8944 0.4472 0)
(0.894401 0.447204 0)
(0.894407 0.447221 0)
(0.894401 0.4472 0)
(0.831131 0.439615 0)
(0.892838 0.44741 0)
(0.8944 0.4472 0)
(0.8944 0.447203 0)
(0.900105 0.439505 0)
(0.8944 0.4472 0)
(0.8944 0.4472 0)
(0.888036 0.451888 0)
(1.52505 0.0261042 0)
(0.894398 0.447201 0)
(0.8944 0.4472 0)
(0.893097 0.448871 0)
(0.8944 0.4472 0)
(0.894432 0.447148 0)
(0.447334 0.973484 0)
(0.845408 0.463282 0)
(0.8944 0.4472 0)
(0.8944 0.4472 0)
(0.894388 0.447206 0)
(0.89445 0.447183 0)
(0.894397 0.447201 0)
(0.894401 0.447201 0)
(0.894425 0.447296 0)
(0.894418 0.447204 0)
(0.8944 0.447204 0)
(0.8944 0.4472 0)
(0.8944 0.4472 0)
(0.894388 0.44721 0)
(0.895108 0.448722 0)
(0.89358 0.447379 0)
(0.8944 0.4472 0)
(0.894417 0.447205 0)
(0.855246 0.464764 0)
(0.907021 0.448549 0)
(0.8944 0.4472 0)
(0.8944 0.4472 0)
(0.877814 0.439535 0)
(0.8944 0.4472 0)
(0.8944 0.4472 0)
(0.8944 0.4472 0)
(0.8944 0.4472 0)
(0.894409 0.447207 0)
(0.8944 0.4472 0)
(0.8944 0.4472 0)
(0.8944 0.4472 0)
(0.93794 0.484788 0)
(0.8944 0.4472 0)
(0.978461 0.44929 0)
(0.895157 0.448797 0)
(0.894575 0.447224 0)
(0.8944 0.4472 0)
(0.928379 0.546448 0)
(0.8944 0.4472 0)
(0.894394 0.447203 0)
(0.800454 0.388239 0)
(0.8944 0.4472 0)
(0.903594 0.481563 0)
(0.894423 0.447192 0)
(0.922239 0.436044 0)
(0.8944 0.4472 0)
(0.894391 0.447199 0)
(0.8944 0.4472 0)
(0.894403 0.447199 0)
(0.8944 0.4472 0)
(0.8944 0.447183 0)
(0.8944 0.4472 0)
(1.17479 0.253974 0)
(0.8944 0.4472 0)
(0.91244 0.441755 0)
(0.8944 0.4472 0)
(0.8944 0.4472 0)
(0.8944 0.4472 0)
(0.8944 0.4472 0)
(0.8944 0.4472 0)
(0.8944 0.4472 0)
(0.8944 0.4472 0)
(0.8944 0.4472 0)
(0.894401 0.447206 0)
(0.8944 0.4472 0)
(0.910595 0.452552 0)
(0.898576 0.450553 0)
(0.894402 0.447198 0)
(0.775631 0.366421 0)
(0.8944 0.4472 0)
(0.853642 1.07755 0)
(0.894356 0.447372 0)
(0.8944 0.4472 0)
(0.89443 0.447278 0)
(0.8944 0.4472 0)
(0.8944 0.4472 0)
(0.8944 0.4472 0)
(0.894393 0.447266 0)
(0.893368 0.444736 0)
(0.894386 0.447173 0)
(0.890562 0.451219 0)
(0.816911 0.414933 0)
(0.894408 0.447207 0)
(0.894397 0.447196 0)
(0.8944 0.4472 0)
(0.894407 0.447193 0)
(0.894401 0.4472 0)
(0.8944 0.4472 0)
(0.8944 0.4472 0)
(0.8944 0.4472 0)
(0.8944 0.4472 0)
(0.652488 0.286942 0)
(0.882151 0.577435 0)
(1.55103 0.0454752 0)
(0.8944 0.4472 0)
(0.894402 0.447206 0)
(0.904071 0.465587 0)
(0.8944 0.4472 0)
(1.51603 0.0571031 0)
(0.8944 0.4472 0)
(0.895077 0.446992 0)
(0.8944 0.4472 0)
(0.8944 0.4472 0)
(0.894779 0.447142 0)
(1.23773 0.237765 0)
(0.894402 0.447205 0)
(0.8944 0.4472 0)
(0.8944 0.4472 0)
(0.894401 0.447128 0)
(0.892292 0.451335 0)
(0.894402 0.447195 0)
(0.8944 0.4472 0)
(0.894418 0.447237 0)
(0.8944 0.4472 0)
(0.908241 0.453712 0)
(0.8944 0.4472 0)
(0.894404 0.4472 0)
(0.894612 0.447165 0)
(0.904081 0.407449 0)
(0.8944 0.4472 0)
(0.8944 0.4472 0)
(0.918029 0.425423 0)
(0.894401 0.447268 0)
(0.873932 0.427952 0)
(0.894477 0.447245 0)
(0.8944 0.4472 0)
(0.894436 0.447175 0)
(0.8944 0.4472 0)
(0.8944 0.4472 0)
(0.8944 0.4472 0)
(0.894438 0.447225 0)
(0.8944 0.4472 0)
(0.894399 0.4472 0)
(0.8944 0.4472 0)
(0.8944 0.4472 0)
(0.869432 0.609251 0)
(0.8944 0.4472 0)
(0.894382 0.447228 0)
(0.894401 0.4472 0)
(0.8944 0.447201 0)
(0.889393 0.44173 0)
(0.837546 0.394007 0)
(0.8944 0.4472 0)
(0.8944 0.4472 0)
(0.8944 0.4472 0)
(0.894399 0.447199 0)
(0.8944 0.4472 0)
(0.894527 0.447195 0)
(0.8944 0.4472 0)
(0.894427 0.447179 0)
(0.846775 0.434683 0)
(0.894455 0.447111 0)
(0.894514 0.447206 0)
(0.8944 0.4472 0)
(0.8944 0.4472 0)
(1.05259 0.6285 0)
(0.894652 0.447355 0)
(0.894563 0.448068 0)
(0.8944 0.4472 0)
(0.31133 -0.00922473 0)
(0.903101 0.46228 0)
(0.8944 0.4472 0)
(0.8944 0.4472 0)
(0.894398 0.447202 0)
(0.8944 0.4472 0)
(0.8944 0.4472 0)
(0.894397 0.447195 0)
(0.894399 0.447203 0)
(0.8944 0.4472 0)
(0.8944 0.4472 0)
(0.8944 0.4472 0)
(1.06243 0.376003 0)
(0.894459 0.447285 0)
(0.8944 0.4472 0)
(0.894411 0.447158 0)
(0.8944 0.4472 0)
(0.896067 0.452354 0)
(0.894566 0.447835 0)
(0.894438 0.447248 0)
(0.894399 0.447199 0)
(0.849046 0.454213 0)
(0.8944 0.4472 0)
(0.8944 0.4472 0)
(0.8944 0.4472 0)
(0.894399 0.4472 0)
(0.894409 0.447204 0)
(0.8944 0.4472 0)
(0.848427 0.458247 0)
(0.894371 0.447279 0)
(0.8944 0.4472 0)
(0.8944 0.4472 0)
(0.8944 0.4472 0)
(0.894427 0.447271 0)
(0.8944 0.447201 0)
(0.894446 0.447165 0)
(0.908216 0.444313 0)
(0.890442 0.526371 0)
(0.90607 0.464928 0)
(0.8944 0.4472 0)
(0.894303 0.447177 0)
(0.894401 0.447202 0)
(0.899683 0.451376 0)
(0.8944 0.4472 0)
(0.89443 0.447207 0)
(0.894382 0.447156 0)
(0.8944 0.4472 0)
(0.8944 0.4472 0)
(0.894806 0.447208 0)
(0.855359 0.427276 0)
(0.834441 1.03986 0)
(0.8944 0.4472 0)
(0.8944 0.4472 0)
(0.8944 0.4472 0)
(1.05136 0.585033 0)
(0.894413 0.447196 0)
(1.44464 0.0243556 0)
(0.895505 0.447353 0)
(0.8944 0.447201 0)
(0.8944 0.4472 0)
(0.901025 0.442088 0)
(0.895658 0.447511 0)
(0.894397 0.447204 0)
(0.894404 0.447192 0)
(0.894402 0.4472 0)
(0.911238 0.441905 0)
(0.904286 0.413707 0)
(0.8944 0.4472 0)
(0.894385 0.447233 0)
(0.895958 0.446876 0)
(0.89448 0.447168 0)
(0.8944 0.4472 0)
(0.894528 0.44715 0)
(0.901684 0.457486 0)
(0.8944 0.4472 0)
(0.8944 0.4472 0)
(0.894351 0.447103 0)
(0.8944 0.4472 0)
(0.8944 0.4472 0)
(0.894534 0.447224 0)
(0.894401 0.447211 0)
(0.8944 0.4472 0)
(0.894412 0.447201 0)
(0.8944 0.4472 0)
(0.889575 0.449416 0)
(0.8944 0.4472 0)
(0.894401 0.4472 0)
(0.894137 0.446809 0)
(0.866213 0.450315 0)
(0.894503 0.447109 0)
(0.913245 0.436105 0)
(0.894389 0.447196 0)
(0.894607 0.447231 0)
(0.891438 0.447747 0)
(0.951306 0.476477 0)
(0.894387 0.447192 0)
(0.894397 0.447204 0)
(0.983422 0.448066 0)
(0.912692 0.117438 0)
(1.072 0.168508 0)
(0.894401 0.4472 0)
(0.8944 0.4472 0)
(0.8944 0.4472 0)
(0.894402 0.447201 0)
(0.8944 0.4472 0)
(0.894399 0.447204 0)
(0.8944 0.4472 0)
(0.8944 0.4472 0)
(0.894586 0.44705 0)
(0.8944 0.4472 0)
(0.894401 0.447201 0)
(0.520796 0.526998 0)
(0.8944 0.4472 0)
(0.89442 0.447218 0)
(0.8944 0.4472 0)
(0.8944 0.4472 0)
(0.894396 0.447203 0)
(0.894216 0.446947 0)
(0.8944 0.4472 0)
(0.8944 0.4472 0)
(0.894403 0.447207 0)
(0.8944 0.4472 0)
(0.912024 0.444688 0)
(0.894404 0.447209 0)
(0.8944 0.4472 0)
(0.8944 0.4472 0)
(0.894404 0.447192 0)
(0.891932 0.446745 0)