/*--------------------------------*- C++ -*----------------------------------*\
  =========                 |
  \\      /  F ield         | OpenFOAM: The Open Source CFD Toolbox
   \\    /   O peration     | Website:  https://openfoam.org
    \\  /    A nd           | Version:  6
     \\/     M anipulation  |
\*---------------------------------------------------------------------------*/
FoamFile
{
    version     2.0;
    format      ascii;
    class       surfaceScalarField;
    location    "4.45";
    object      phi;
}
// * * * * * * * * * * * * * * * * * * * * * * * * * * * * * * * * * * * * * //

dimensions      [0 3 -1 0 0 0 0];

internalField   nonuniform List<scalar> 
8193
(
0.0920665
-0.19666
-0.0916117
0.0855357
-0.20559
0.0770025
-0.206871
0.0688454
-0.206838
0.061905
-0.207254
0.0562738
-0.207959
0.0519299
-0.208534
0.0488634
-0.208752
0.0470096
-0.208374
0.046201
-0.207126
0.0461752
-0.204681
0.046625
-0.200749
0.047223
-0.195135
0.0476508
-0.187785
0.0475486
-0.178638
0.046563
-0.167765
0.0444669
-0.155493
0.0414381
-0.142468
0.0382554
-0.129033
0.0358947
-0.114574
0.0342979
-0.0981916
0.0322859
-0.0807219
0.0294608
-0.0663788
0.0269592
-0.0598279
0.0251193
-0.061386
0.0231711
-0.0713451
0.0196455
-0.0923082
0.0134394
-0.122472
0.00439127
-0.158455
-0.0065512
-0.195417
-0.0178925
-0.227878
-0.0276872
-0.24793
-0.0355263
-0.252689
-0.0423708
-0.246504
-0.0496727
-0.238303
-0.0579741
-0.232306
-0.0673696
-0.228037
-0.0781884
-0.224644
-0.0902893
-0.222271
-0.101434
-0.22037
-0.212144
-0.108348
0.0879144
-0.195461
-0.0965841
0.0730588
-0.198068
0.0589329
-0.199819
0.0468382
-0.201453
0.0370728
-0.203745
0.0296531
-0.206269
0.0246125
-0.208636
0.0219495
-0.210601
0.0215663
-0.21184
0.0232308
-0.211955
0.0266099
-0.21053
0.0312948
-0.207206
0.0367643
-0.201688
0.0423644
-0.193791
0.0473112
-0.183335
0.0508892
-0.170464
0.052511
-0.155639
0.051954
-0.139875
0.0497673
-0.124293
0.0475661
-0.109351
0.0471004
-0.0942906
0.04803
-0.0778615
0.0482823
-0.0625524
0.0466286
-0.0538788
0.043618
-0.0539418
0.0397724
-0.0630128
0.0343268
-0.0824139
0.026643
-0.110475
0.0167236
-0.144459
0.00527181
-0.180233
-0.00654593
-0.212781
-0.0167217
-0.235038
-0.0246063
-0.242761
-0.0308987
-0.238945
-0.0372592
-0.231551
-0.0445688
-0.225566
-0.0530255
-0.221184
-0.063111
-0.217251
-0.0756131
-0.213584
-0.0905049
-0.210423
-0.205451
-0.103252
0.0689827
-0.187641
-0.0885728
0.0495384
-0.189738
0.0322635
-0.192861
0.0180192
-0.196616
0.00671975
-0.200858
-0.00149508
-0.205412
-0.0064509
-0.209946
-0.00816916
-0.214039
-0.00678917
-0.217267
-0.00254163
-0.219155
0.00426999
-0.219228
0.0131784
-0.216973
0.023384
-0.211771
0.0337806
-0.20314
0.0431524
-0.190793
0.0505174
-0.175116
0.0551743
-0.156852
0.0570399
-0.13764
0.0566155
-0.11919
0.0548871
-0.102448
0.0538579
-0.0876771
0.055082
-0.0731839
0.0574354
-0.058784
0.0582496
-0.0484544
0.0567447
-0.0461912
0.0531254
-0.0532568
0.0472178
-0.0706012
0.038843
-0.0965554
0.0283491
-0.128914
0.0164952
-0.16396
0.00432085
-0.19696
-0.00634943
-0.221632
-0.0144801
-0.232941
-0.020605
-0.232308
-0.026408
-0.226531
-0.0329689
-0.221189
-0.0406466
-0.217174
-0.0497507
-0.213358
-0.060946
-0.209172
-0.0751858
-0.204534
-0.198961
-0.0915498
0.0431611
-0.178572
-0.0677462
0.0210105
-0.181914
0.00184482
-0.186693
-0.0138955
-0.192442
-0.0258986
-0.198921
-0.0339285
-0.205911
-0.0379583
-0.212899
-0.0380123
-0.219435
-0.034189
-0.225043
-0.0266072
-0.229245
-0.0155396
-0.231422
-0.00169451
-0.230641
0.0136167
-0.225684
0.0288153
-0.215811
0.0424002
-0.200815
0.0532952
-0.181512
0.060741
-0.158964
0.0645426
-0.135378
0.0653926
-0.113353
0.0642582
-0.0941132
0.0626484
-0.0784669
0.0627655
-0.0654182
0.0651614
-0.0531376
0.0676385
-0.0428582
0.0681589
-0.0387423
0.0658705
-0.0432448
0.0604627
-0.0578641
0.0520521
-0.0813646
0.0412898
-0.112082
0.0290701
-0.146545
0.0164687
-0.180204
0.00513611
-0.207353
-0.00361654
-0.222614
-0.010001
-0.225875
-0.0155879
-0.222563
-0.0216625
-0.218525
-0.0287436
-0.215397
-0.0371429
-0.212228
-0.0474239
-0.208162
-0.0601512
-0.203076
-0.196601
-0.075729
0.0113426
-0.169708
-0.0388217
-0.012672
-0.174808
-0.032868
-0.181576
-0.0488914
-0.189585
-0.0604683
-0.198556
-0.0674981
-0.208129
-0.069921
-0.217783
-0.0677521
-0.227018
-0.0609328
-0.235453
-0.049482
-0.242548
-0.0338529
-0.247266
-0.0152416
-0.247939
0.00453047
-0.242732
0.0237323
-0.230998
0.0407972
-0.2127
0.0548514
-0.189347
0.0650717
-0.162054
0.0711325
-0.133526
0.0735086
-0.107163
0.0732826
-0.0847995
0.0717445
-0.0674541
0.0708533
-0.0548032
0.0722872
-0.0447411
0.0752375
-0.0360197
0.0775201
-0.0314323
0.0771224
-0.0336125
0.0731299
-0.0451642
0.0656277
-0.0658586
0.0551919
-0.0945284
0.0428824
-0.128192
0.0299158
-0.162458
0.0179138
-0.192027
0.00835828
-0.211376
0.00133762
-0.218992
-0.0044392
-0.21891
-0.0103794
-0.21684
-0.0171607
-0.215124
-0.0250626
-0.213177
-0.0345466
-0.209925
-0.0462396
-0.205033
-0.198216
-0.0606357
-0.0257378
-0.16194
-0.00303302
-0.0502809
-0.169085
-0.0703026
-0.178092
-0.0855365
-0.188553
-0.0958242
-0.200122
-0.101168
-0.212315
-0.101523
-0.224689
-0.0967068
-0.236906
-0.0865626
-0.248581
-0.0712751
-0.258851
-0.0517957
-0.265921
-0.0297851
-0.267425
-0.007014
-0.261423
0.0150208
-0.247544
0.034799
-0.22573
0.0517271
-0.198415
0.0648584
-0.166361
0.0738667
-0.132895
0.0788223
-0.101811
0.0805793
-0.0757284
0.0801894
-0.0558653
0.0792113
-0.0424082
0.0797022
-0.0337541
0.0822251
-0.0271661
0.0855203
-0.023622
0.0870316
-0.0244659
0.0849457
-0.0330529
0.0791635
-0.0508762
0.0698742
-0.0770642
0.0579794
-0.109353
0.0449103
-0.143887
0.0323532
-0.175619
0.0219158
-0.198947
0.0140315
-0.211175
0.00771681
-0.214909
0.00156026
-0.215412
-0.00525246
-0.215597
-0.0130313
-0.215351
-0.0220958
-0.213553
-0.0329957
-0.209591
-0.203196
-0.0462121
-0.0665536
-0.156087
0.0380582
-0.0902637
-0.165416
-0.108939
-0.176791
-0.122458
-0.189718
-0.130817
-0.203778
-0.134032
-0.218498
-0.132014
-0.233578
-0.124526
-0.248844
-0.111454
-0.263817
-0.0933816
-0.276945
-0.0718558
-0.285483
-0.0484816
-0.287013
-0.0242418
-0.28022
-0.000597275
-0.264257
0.0211107
-0.239185
0.040752
-0.208648
0.0573735
-0.172583
0.0702631
-0.134553
0.0787459
-0.0983909
0.0839951
-0.0685628
0.0862518
-0.0453555
0.086652
-0.029853
0.0871394
-0.0212638
0.0891814
-0.0163804
0.0928038
-0.0147458
0.0960138
-0.0156934
0.0962209
-0.0219894
0.0925247
-0.0368258
0.0849587
-0.0602733
0.0741347
-0.0906534
0.061448
-0.124898
0.0486367
-0.158306
0.0374296
-0.185262
0.0285962
-0.202107
0.0215034
-0.21003
0.0148351
-0.213594
0.00769036
-0.216102
-0.000310045
-0.217932
-0.00938403
-0.218083
-0.0199597
-0.215691
-0.210462
-0.0324362
-0.108934
-0.152854
0.0821812
-0.130522
-0.164406
-0.14684
-0.178075
-0.157937
-0.193257
-0.163914
-0.209521
-0.164789
-0.226512
-0.16045
-0.244086
-0.150829
-0.262053
-0.136204
-0.279603
-0.11727
-0.294782
-0.0957803
-0.303796
-0.0724378
-0.305278
-0.047929
-0.297937
-0.0238597
-0.280002
-0.00106787
-0.252301
0.020713
-0.219579
0.0406887
-0.180707
0.0595978
-0.14078
0.0742179
-0.0996661
0.0832968
-0.0638
0.0887682
-0.036655
0.0918197
-0.0185704
0.0935578
-0.00867795
0.0958955
-0.00458176
0.099769
-0.00485533
0.104068
-0.00679348
0.106565
-0.0120561
0.10539
-0.0241994
0.100056
-0.044688
0.0909895
-0.0727661
0.0793366
-0.106088
0.0667701
-0.140485
0.0551062
-0.170484
0.0454197
-0.191678
0.0374611
-0.203923
0.0301038
-0.210886
0.0224016
-0.216027
0.0139105
-0.220198
0.00444708
-0.222619
-0.00626716
-0.222286
-0.218825
-0.0185416
-0.150155
-0.152794
0.126448
-0.168586
-0.166428
-0.181828
-0.18209
-0.190062
-0.19912
-0.193442
-0.217155
-0.192012
-0.23598
-0.185783
-0.255515
-0.174981
-0.275376
-0.160273
-0.294324
-0.142521
-0.310226
-0.122445
-0.319436
-0.100141
-0.321213
-0.0770025
-0.312968
-0.0534929
-0.293861
-0.0300821
-0.264706
-0.00697541
-0.230509
0.0158527
-0.190368
0.0387084
-0.149652
0.060066
-0.106395
0.0764254
-0.0650549
0.0870472
-0.0318651
0.0937009
-0.00967522
0.0978853
0.00264996
0.101744
0.00685577
0.106373
0.00541091
0.111634
0.00224278
0.116014
-0.00294128
0.117442
-0.0131493
0.114804
-0.0308136
0.108098
-0.0563008
0.0981651
-0.0881128
0.0865239
-0.122764
0.0749225
-0.155011
0.0646872
-0.180021
0.0559565
-0.196452
0.0478826
-0.206971
0.0395301
-0.214927
0.0304108
-0.22159
0.0203228
-0.226432
0.00910296
-0.228444
-0.227173
-0.00344222
-0.18715
-0.156152
0.167442
-0.201776
-0.171516
-0.21157
-0.18868
-0.216798
-0.207007
-0.217664
-0.226231
-0.21431
-0.246231
-0.206934
-0.266897
-0.195975
-0.28762
-0.182131
-0.306922
-0.166218
-0.322559
-0.14823
-0.331711
-0.129161
-0.332641
-0.109096
-0.323667
-0.0874082
-0.304655
-0.0640065
-0.275879
-0.0395551
-0.241585
-0.0145966
-0.200985
0.0114944
-0.160612
0.0378934
-0.117044
0.0612658
-0.0722271
0.0790478
-0.033164
0.0909398
-0.00496986
0.0991249
0.0110045
0.105811
0.0164744
0.112068
0.0150386
0.118555
0.0110277
0.124573
0.00549396
0.128507
-0.00366067
0.128799
-0.018941
0.124953
-0.0417826
0.117414
-0.0716361
0.107415
-0.10581
0.096576
-0.13945
0.0863054
-0.167508
0.0771086
-0.18773
0.0684651
-0.201745
0.0595397
-0.212566
0.0498055
-0.221742
0.0390598
-0.229038
0.0271634
-0.233467
-0.234592
0.0140403
-0.216862
-0.162718
0.201591
-0.227533
-0.179268
-0.233915
-0.197346
-0.23632
-0.216351
-0.235048
-0.236065
-0.23038
-0.256413
-0.222666
-0.277242
-0.212406
-0.297809
-0.200204
-0.316545
-0.186656
-0.331225
-0.172081
-0.339306
-0.157062
-0.338791
-0.14035
-0.329824
-0.121415
-0.311548
-0.0995723
-0.284389
-0.0749815
-0.251736
-0.0478498
-0.21275
-0.0194222
-0.172919
0.0104376
-0.130198
0.0393174
-0.0839796
0.0638903
-0.0403519
0.0824098
-0.00601096
0.0961429
0.0146759
0.106942
0.022833
0.115958
0.0227539
0.124339
0.0187609
0.132143
0.0129879
0.138365
0.00438876
0.141611
-0.0091641
0.14095
-0.0295806
0.1364
-0.0572671
0.128783
-0.0903416
0.11948
-0.124514
0.109876
-0.154736
0.100719
-0.17811
0.0918326
-0.195328
0.0825842
-0.208926
0.0724565
-0.220546
0.0611921
-0.230177
0.048711
-0.236973
-0.240444
0.0349249
-0.236858
-0.171788
0.225889
-0.243833
-0.188949
-0.247176
-0.207321
-0.247229
-0.226367
-0.244364
-0.245865
-0.239026
-0.265698
-0.23163
-0.285765
-0.222634
-0.305296
-0.212588
-0.322644
-0.201978
-0.335652
-0.190948
-0.342124
-0.179618
-0.340087
-0.166981
-0.330806
-0.15154
-0.313912
-0.132328
-0.289289
-0.109239
-0.259462
-0.0819147
-0.223834
-0.0521803
-0.185704
-0.0201042
-0.144777
0.0125031
-0.0987013
0.0428201
-0.0525513
0.0680891
-0.0130878
0.0880503
0.012821
0.104123
0.0246143
0.117032
0.0272744
0.128153
0.024462
0.138197
0.0189658
0.146736
0.0108656
0.152831
-0.0014623
0.15549
-0.0198907
0.154354
-0.0454645
0.149804
-0.0770476
0.142849
-0.110985
0.134698
-0.142422
0.126225
-0.168122
0.117599
-0.188061
0.108452
-0.20422
0.0983093
-0.218107
0.0868913
-0.229876
0.0740915
-0.238819
-0.244443
0.0598451
-0.245532
-0.182221
0.238192
-0.24952
-0.199463
-0.250507
-0.217613
-0.248866
-0.23615
-0.245023
-0.254833
-0.239489
-0.273483
-0.232758
-0.292039
-0.225316
-0.309754
-0.21748
-0.325162
-0.209714
-0.335967
-0.201997
-0.340459
-0.194457
-0.336513
-0.186156
-0.32646
-0.174755
-0.311322
-0.159005
-0.289886
-0.138398
-0.263931
-0.112405
-0.232869
-0.0827981
-0.197694
-0.0506698
-0.158784
-0.0158899
-0.115005
0.0183291
-0.0680877
0.0492011
-0.0252197
0.0749162
0.00575184
0.0967758
0.0211494
0.114337
0.0276926
0.129014
0.0271748
0.141852
0.0227457
0.15297
0.0153962
0.161882
0.00409866
0.167919
-0.0128473
0.170488
-0.0365725
0.169569
-0.0665206
0.165697
-0.0995959
0.159776
-0.131308
0.152706
-0.158415
0.144952
-0.180442
0.136429
-0.198807
0.126781
-0.21472
0.115714
-0.228369
0.10307
-0.239145
-0.246614
0.0887909
-0.242355
-0.192619
0.237606
-0.244346
-0.209529
-0.243889
-0.227084
-0.241379
-0.24471
-0.237234
-0.262177
-0.232032
-0.279167
-0.226242
-0.295756
-0.220238
-0.311302
-0.214356
-0.324391
-0.209286
-0.332378
-0.204782
-0.334491
-0.200633
-0.328571
-0.196425
-0.317145
-0.189122
-0.303849
-0.177284
-0.285871
-0.16007
-0.26438
-0.136888
-0.238533
-0.108645
-0.207814
-0.0775615
-0.171284
-0.0430545
-0.13061
-0.00737505
-0.0846842
0.0274362
-0.0409058
0.0580962
-0.00588236
0.084944
0.0130817
0.107508
0.0235094
0.12618
0.0263207
0.142218
0.0237888
0.156195
0.0175807
0.168092
0.00724613
0.17754
-0.00857447
0.184042
-0.0308925
0.187168
-0.0592262
0.18693
-0.090924
0.183876
-0.122031
0.178892
-0.149639
0.172642
-0.173038
0.165349
-0.193189
0.156762
-0.210803
0.146609
-0.22602
0.134688
-0.238264
-0.247263
0.120997
-0.227868
-0.201462
0.224435
-0.229015
-0.217808
-0.228134
-0.234577
-0.225631
-0.251078
-0.221897
-0.267132
-0.217456
-0.282309
-0.21284
-0.296699
-0.208509
-0.309749
-0.20434
-0.320638
-0.201372
-0.325566
-0.199791
-0.324616
-0.198548
-0.316862
-0.197785
-0.303637
-0.19435
-0.291863
-0.186222
-0.277593
-0.173046
-0.260317
-0.154021
-0.239634
-0.129248
-0.214116
-0.0998381
-0.181812
-0.0670393
-0.144243
-0.0321782
-0.100223
0.00428759
-0.0580206
0.0388645
-0.0212097
0.0690255
0.00193364
0.0960395
0.0151294
0.118993
0.0214707
0.138596
0.0215986
0.155719
0.0170058
0.170816
0.00764904
0.183828
-0.00732785
0.194318
-0.0285679
0.201669
-0.0554167
0.205302
-0.0852605
0.205548
-0.115059
0.203145
-0.142299
0.19904
-0.166472
0.193554
-0.187893
0.186552
-0.206797
0.177804
-0.223198
0.16709
-0.236496
-0.246638
0.154448
-0.203642
-0.207357
0.200257
-0.20505
-0.223113
-0.204775
-0.239015
-0.203034
-0.254487
-0.200401
-0.269022
-0.197118
-0.282548
-0.193861
-0.294744
-0.191103
-0.305274
-0.189017
-0.313629
-0.187401
-0.31639
-0.188742
-0.310955
-0.189474
-0.302449
-0.191295
-0.286936
-0.191734
-0.275504
-0.186534
-0.265982
-0.177577
-0.251715
-0.163037
-0.235999
-0.143196
-0.215297
-0.117544
-0.188439
-0.0867017
-0.155811
-0.0539422
-0.113576
-0.0174539
-0.0750856
0.0188717
-0.0382135
0.0516909
-0.0117883
0.0808552
0.00470784
0.10643
0.0141458
0.129293
0.0163423
0.149771
0.0133348
0.168606
0.00464871
0.185736
-0.00977477
0.200447
-0.0299353
0.212087
-0.0552466
0.219297
-0.0823917
0.223161
-0.11077
0.223547
-0.136648
0.222264
-0.161445
0.218946
-0.183284
0.213966
-0.203117
0.206907
-0.220137
0.197738
-0.2341
-0.244953
0.186474
-0.171929
0.16749
-0.174529
-0.175655
-0.17537
-0.174362
-0.172733
-0.170947
-0.169765
-0.169414
-0.169007
-0.172685
-0.175586
-0.179681
-0.183314
-0.18148
-0.17544
-0.163671
-0.147687
-0.127526
-0.100297
-0.0700099
-0.0351835
0.000961632
0.0352337
0.0661426
0.0937513
0.119172
0.142463
0.164367
0.184785
0.202349
0.217467
0.227371
0.235194
0.238389
0.240512
0.239413
0.236623
0.23137
0.223733
0.214045
0.271673
0.188874
0.280764
0.165942
0.282487
0.139069
0.277051
0.110748
0.265363
0.0830278
0.24878
0.0575502
0.228625
0.0351785
0.206135
0.0160597
0.182308
-0.000162725
0.157831
-0.0141771
0.133107
-0.0268715
0.108344
-0.0391506
0.0837129
-0.0517728
0.0596262
-0.0650483
0.0366267
-0.0792251
0.0171703
-0.0914433
-0.0955877
0.274255
0.164366
0.282326
0.145448
0.2838
0.123148
0.27887
0.0993497
0.268151
0.0757488
0.25272
0.0535836
0.2337
0.0337247
0.21217
0.0164113
0.189039
0.00148891
0.164988
-0.0114774
0.140463
-0.023133
0.11573
-0.0342
0.0909384
-0.0453382
0.0662871
-0.0569347
0.0419803
-0.0692823
0.0196924
-0.081042
-0.0850617
0.272502
0.140295
0.279935
0.125023
0.281501
0.106734
0.27725
0.0870044
0.267654
0.067164
0.253497
0.0481854
0.235799
0.0307509
0.215491
0.015227
0.193354
0.00164115
0.170023
-0.010272
0.145945
-0.0209531
0.121407
-0.0309629
0.0965885
-0.0408528
0.0716726
-0.0510323
0.0467617
-0.0617355
0.0226089
-0.0723075
-0.07567
0.267723
0.11736
0.274476
0.105082
0.276031
0.0902861
0.272418
0.0740995
0.263969
0.0575878
0.251262
0.041523
0.235019
0.0264791
0.216041
0.0127764
0.19506
0.000541215
0.172639
-0.0102982
0.149216
-0.0200439
0.125081
-0.0290958
0.100402
-0.0378818
0.0752953
-0.0467642
0.0498966
-0.0560079
0.0244977
-0.0651342
-0.0677006
0.259229
0.0954587
0.265466
0.0857951
0.267182
0.073953
0.264276
0.0608738
0.256981
0.0473218
0.245746
0.0338859
0.231129
0.0210639
0.213693
0.0091962
0.194034
-0.00159526
0.172718
-0.0113308
0.150173
-0.0201588
0.126674
-0.0283127
0.102399
-0.0361138
0.0774447
-0.0438451
0.0519008
-0.051765
0.0258756
-0.0594236
-0.0609158
0.248177
0.0749465
0.253928
0.0674123
0.255666
0.0581453
0.253378
0.0476826
0.24717
0.0366983
0.237333
0.0256225
0.224274
0.0148593
0.208468
0.00471029
0.190367
-0.00466241
0.170394
-0.0132268
0.148915
-0.0210581
0.126248
-0.0283292
0.10259
-0.0352291
0.0780504
-0.0419469
0.0527026
-0.048704
0.0265491
-0.0549807
-0.0552858
0.23455
0.0559831
0.239724
0.0502555
0.241545
0.0430237
0.239859
0.0347605
0.234671
0.0260048
0.226173
0.0170178
0.214646
0.00813617
0.200433
-0.000380983
0.183911
-0.00838496
0.165445
-0.0158154
0.145348
-0.0226796
0.123848
-0.0290523
0.101118
-0.0350551
0.077293
-0.040831
0.0524637
-0.0465518
0.0266163
-0.0515898
-0.0507173
0.218917
0.0385303
0.223737
0.0342768
0.225591
0.0288089
0.22438
0.022404
0.220113
0.0155105
0.212857
0.00834791
0.202797
0.00115329
0.190182
-0.00586434
0.175287
-0.0125662
0.158387
-0.0188753
0.139734
-0.024763
0.119549
-0.0302586
0.0979996
-0.0354217
0.0752137
-0.040343
0.0512321
-0.0451008
0.0260516
-0.0490173
-0.0471927
0.202008
0.0229428
0.206212
0.0198633
0.208016
0.0157032
0.207208
0.0108031
0.203718
0.00548269
0.197578
-0.000128774
0.188901
-0.00586055
0.177836
-0.0115285
0.164574
-0.0170197
0.14932
-0.0222616
0.132274
-0.027206
0.11361
-0.0318462
0.0934726
-0.0362002
0.0719864
-0.0403292
0.0491696
-0.044197
0.0250619
-0.04714
-0.0445495
0.183637
0.00888666
0.1876
0.00671628
0.189403
0.0037308
0.188915
0.000112393
0.186113
-0.0039145
0.180981
-0.0082213
0.17356
-0.0126818
0.163947
-0.0171588
0.152266
-0.0215546
0.138657
-0.0258029
0.123268
-0.0298533
0.106238
-0.0336801
0.0876916
-0.0372746
0.0677335
-0.0406722
0.0463896
-0.0437477
0.0236622
-0.0458066
-0.0426799
0.165245
-0.00327232
0.168562
-0.00472721
0.170205
-0.00691962
0.16997
-0.00957019
0.167739
-0.0125314
0.163478
-0.0157528
0.157192
-0.0191378
0.148924
-0.0225792
0.138746
-0.0260031
0.126752
-0.0293528
0.113045
-0.0325799
0.0977291
-0.0356504
0.0809018
-0.0385425
0.0626448
-0.0412659
0.043005
-0.043653
0.0219665
-0.0449394
-0.0414354
0.145812
-0.0139651
0.148915
-0.0149028
0.150497
-0.0163549
0.150446
-0.0181826
0.148721
-0.0203063
0.145258
-0.0226476
0.140019
-0.0251273
0.133015
-0.027683
0.124285
-0.0302624
0.11388
-0.0328148
0.101866
-0.035297
0.0883163
-0.0376775
0.0733021
-0.0399256
0.0568843
-0.0420327
0.0391115
-0.0438122
0.0200146
-0.0444752
-0.0407011
0.127193
-0.0229034
0.129714
-0.0234762
0.13108
-0.0244548
0.131138
-0.0256859
0.129776
-0.0271308
0.126935
-0.028757
0.122579
-0.0305066
0.116695
-0.0323337
0.109289
-0.0342007
0.100384
-0.0360684
0.0900152
-0.0379025
0.0782294
-0.0396745
0.0650739
-0.0413503
0.0505936
-0.0429126
0.0348298
-0.0441653
0.0178435
-0.0443334
-0.040395
0.10792
-0.0305716
0.110199
-0.0308418
0.111459
-0.0313854
0.111628
-0.0321408
0.110631
-0.0330621
0.108393
-0.0341146
0.104869
-0.0352685
0.100037
-0.0364967
0.0938864
-0.0377692
0.0864215
-0.0390584
0.0776605
-0.0403394
0.0676315
-0.0415895
0.0563666
-0.0427741
0.0438965
-0.0438694
0.0302571
-0.0446804
0.0155174
-0.04446
-0.0404351
0.0897197
-0.0366339
0.0914641
-0.0367745
0.0924739
-0.0370736
0.0926288
-0.0374917
0.0918481
-0.0380211
0.0900726
-0.0386468
0.0872557
-0.0393494
0.083362
-0.0401109
0.0783683
-0.0409108
0.0722648
-0.041732
0.065054
-0.042559
0.0567515
-0.043379
0.0473761
-0.0441568
0.0369449
-0.0448639
0.0254919
-0.045318
0.0130848
-0.044802
-0.0407477
0.0710712
-0.0416874
0.0725888
-0.041656
0.0734746
-0.0417209
0.0736761
-0.0418762
0.0731406
-0.0421129
0.071818
-0.0424171
0.069667
-0.0427773
0.0666557
-0.043183
0.0627611
-0.0436209
0.0579678
-0.0440795
0.0522665
-0.0445473
0.0456612
-0.0450223
0.038166
-0.045477
0.0297907
-0.045876
0.0205779
-0.0460669
0.0105687
-0.0453282
-0.0412843
0.0534568
-0.0453249
0.0544587
-0.0452691
0.0550637
-0.0452446
0.0552018
-0.0452592
0.054814
-0.0453143
0.0538537
-0.0454078
0.0522822
-0.045535
0.050069
-0.0456927
0.0471962
-0.0458792
0.0436436
-0.046079
0.0393993
-0.0462876
0.0344517
-0.0465018
0.0288303
-0.0467331
0.0225316
-0.0469114
0.0155733
-0.0469036
0.00799153
-0.0460042
-0.0420133
0.0354565
-0.0481256
0.0362471
-0.0479827
0.0367242
-0.0478632
0.0368688
-0.047777
0.0366537
-0.0477166
0.0360512
-0.0476792
0.0350359
-0.0476617
0.0335848
-0.0476629
0.0316792
-0.0476844
0.0293088
-0.0477182
0.0264681
-0.0477641
0.0231528
-0.0478184
0.0193713
-0.0479045
0.0151348
-0.047954
0.0104563
-0.0478338
0.00535122
-0.04684
-0.0429357
0.0181916
-0.0496556
0.018501
-0.0495782
0.0187067
-0.0494856
0.0187719
-0.0493965
0.018669
-0.049312
0.0183765
-0.0492352
0.0178766
-0.0491666
0.0171538
-0.0491068
0.0161912
-0.0490555
0.0149829
-0.0490154
0.0135259
-0.0489886
0.0118279
-0.0489813
0.00987339
-0.0489935
0.0076806
-0.0489894
0.00526055
-0.0488281
0.00266749
-0.0478482
-0.0440561
0.000463309
-0.0504418
0.000548084
-0.0503469
0.000612049
-0.0502768
0.000661981
-0.050217
0.000700084
-0.050164
0.000724708
-0.050117
0.000733229
-0.0500754
0.000723326
-0.0500397
0.000693525
-0.0500107
0.000641015
-0.0499893
0.000564927
-0.0499795
0.000466233
-0.0499892
0.000350095
-0.0500223
0.000213855
-0.050035
3.85499e-05
-0.0498699
-2.67558e-05
-0.0490332
-0.0453644
-0.0169009
-0.0500389
-0.0172565
-0.050089
-0.0174403
-0.050146
-0.0174562
-0.050203
-0.0172994
-0.0502647
-0.0169645
-0.0503313
-0.0164453
-0.0504028
-0.0157365
-0.0504791
-0.0148336
-0.0505602
-0.0137322
-0.050647
-0.0124289
-0.0507428
-0.0109219
-0.0508539
-0.00921125
-0.0509829
-0.0072928
-0.0510902
-0.00516805
-0.0510131
-0.00271657
-0.0503802
-0.0468492
-0.0349639
-0.0489046
-0.0355348
-0.0490254
-0.0358442
-0.0492104
-0.0358526
-0.0494214
-0.0355275
-0.0496566
-0.0348436
-0.0499089
-0.0337803
-0.050174
-0.0323213
-0.0504477
-0.0304544
-0.0507266
-0.0281705
-0.0510088
-0.0254634
-0.0512949
-0.0223309
-0.0515885
-0.018773
-0.0518905
-0.0147855
-0.0521661
-0.0103493
-0.0522687
-0.00539947
-0.0518732
-0.0485098
-0.0528979
-0.0465508
-0.0539049
-0.046912
-0.0544441
-0.0473404
-0.0544863
-0.0478042
-0.0539977
-0.0483067
-0.0529475
-0.0488384
-0.0513086
-0.0493915
-0.0490592
-0.0499573
-0.0461837
-0.0505272
-0.0426715
-0.0510949
-0.0385165
-0.0516579
-0.0337181
-0.0522152
-0.0282766
-0.0527683
-0.0221897
-0.0532864
-0.0154624
-0.0536169
-0.00806294
-0.0534733
-0.0503472
-0.0717925
-0.0434167
-0.0730031
-0.043941
-0.073642
-0.0446229
-0.0736299
-0.0453942
-0.0729048
-0.0462414
-0.0714186
-0.047142
-0.0691337
-0.0480786
-0.0660227
-0.0490335
-0.0620674
-0.04999
-0.0572584
-0.0509349
-0.0515933
-0.0518602
-0.0450749
-0.0527615
-0.0377075
-0.0536409
-0.0294982
-0.0544669
-0.0204737
-0.0550697
-0.0106999
-0.055126
-0.0523727
-0.0907744
-0.0388701
-0.0924478
-0.0397987
-0.0932818
-0.0409049
-0.0932297
-0.0421168
-0.0922383
-0.0434287
-0.0902599
-0.0448137
-0.0872569
-0.0462461
-0.0832033
-0.0476982
-0.0780853
-0.0491433
-0.0718996
-0.05056
-0.0646529
-0.0519326
-0.0563594
-0.0532522
-0.0470376
-0.0545193
-0.0367134
-0.0556981
-0.0254298
-0.0566051
-0.0132658
-0.0568843
-0.0545766
-0.110847
-0.033469
-0.112691
-0.0347132
-0.113575
-0.0362641
-0.113383
-0.0380021
-0.112031
-0.039891
-0.109461
-0.0418807
-0.105636
-0.0439283
-0.100534
-0.0459909
-0.0941511
-0.0480289
-0.0864967
-0.0500099
-0.0775929
-0.0519095
-0.0674719
-0.0537125
-0.0561728
-0.0554161
-0.0437422
-0.0569818
-0.0302367
-0.0582196
-0.0157155
-0.0587761
-0.0569344
-0.130995
-0.0264392
-0.133303
-0.0283257
-0.134307
-0.0305591
-0.133945
-0.033005
-0.132156
-0.0356291
-0.128894
-0.0383695
-0.124132
-0.0411668
-0.117864
-0.0439613
-0.110105
-0.0466984
-0.100885
-0.049333
-0.0902506
-0.0518309
-0.0782574
-0.0541707
-0.0649698
-0.0563479
-0.050456
-0.0583248
-0.034785
-0.0599166
-0.0180244
-0.0607768
-0.0594362
-0.152113
-0.0184574
-0.154533
-0.0209229
-0.155484
-0.0238952
-0.154827
-0.0271795
-0.152476
-0.0306949
-0.148388
-0.034341
-0.142552
-0.0380309
-0.134985
-0.041682
-0.12573
-0.0452213
-0.114848
-0.04859
-0.102415
-0.0517441
-0.0885222
-0.0546578
-0.0732621
-0.0573277
-0.0567278
-0.0597246
-0.039
-0.0616825
-0.0201243
-0.0628969
-0.0620516
-0.172978
-0.00868945
-0.175829
-0.0121345
-0.176769
-0.0161698
-0.175746
-0.020534
-0.172715
-0.0251448
-0.167659
-0.0298762
-0.160602
-0.0346128
-0.151597
-0.0392466
-0.140725
-0.0436847
-0.128089
-0.0478543
-0.11381
-0.0517042
-0.0980137
-0.0552083
-0.0808277
-0.0583717
-0.0623689
-0.0611837
-0.0427295
-0.0635114
-0.0219624
-0.0650975
-0.064754
-0.194371
0.00208234
-0.197223
-0.00235282
-0.197952
-0.00754347
-0.196408
-0.0131787
-0.192538
-0.0190904
-0.186353
-0.0250956
-0.177915
-0.0310365
-0.167328
-0.036774
-0.154725
-0.0421938
-0.140264
-0.0472112
-0.124113
-0.0517729
-0.106444
-0.0558605
-0.0874208
-0.0594957
-0.0671871
-0.0626985
-0.0458506
-0.0653814
-0.0234766
-0.0673378
-0.0675185
-0.214837
0.0146603
-0.218041
0.00878372
-0.218555
0.00199819
-0.216379
-0.0052055
-0.211515
-0.0126669
-0.204034
-0.0201488
-0.194058
-0.0274518
-0.181755
-0.0344028
-0.167326
-0.0408673
-0.150994
-0.046754
-0.132984
-0.0520157
-0.113517
-0.0566524
-0.0927968
-0.0607142
-0.0709957
-0.0642628
-0.0482382
-0.067269
-0.0245932
-0.069591
-0.0703168
-0.235006
0.0282167
-0.238061
0.0207534
-0.238165
0.0122466
-0.235188
0.00320794
-0.229167
-0.00605
-0.220225
-0.015216
-0.208562
-0.024032
-0.194428
-0.0322888
-0.178107
-0.0398351
-0.159895
-0.0465813
-0.140084
-0.0524996
-0.118946
-0.0576223
-0.096724
-0.0620421
-0.0736187
-0.0658757
-0.049768
-0.0691652
-0.0252391
-0.0718486
-0.07312
-0.253358
0.0433765
-0.256594
0.0338287
-0.256227
0.0230895
-0.252322
0.0118871
-0.244983
0.000554269
-0.234427
-0.0105034
-0.220947
-0.020971
-0.204896
-0.0306018
-0.186651
-0.0392349
-0.166594
-0.0467962
-0.145087
-0.0532944
-0.122456
-0.058813
-0.0989805
-0.063504
-0.0748826
-0.0675529
-0.0503138
-0.0710825
-0.0253467
-0.0741158
-0.075905
-0.270172
0.0593577
-0.273182
0.0475007
-0.27222
0.0343105
-0.267247
0.0206043
-0.25845
0.00691895
-0.246146
-0.00623786
-0.230748
-0.0184771
-0.212725
-0.0295203
-0.192567
-0.0392096
-0.170747
-0.0475052
-0.147701
-0.054475
-0.123803
-0.0602773
-0.0993647
-0.0651427
-0.0746268
-0.0693357
-0.0497569
-0.0730601
-0.0248573
-0.0764075
-0.0786594
-0.284281
0.0765486
-0.28728
0.0618376
-0.285621
0.0456712
-0.279457
0.029108
-0.269072
0.0127834
-0.254914
-0.00266166
-0.237532
-0.0167653
-0.217531
-0.0292236
-0.195519
-0.0399
-0.172071
-0.0488141
-0.147689
-0.0561221
-0.122796
-0.0620829
-0.0977241
-0.0670247
-0.0727329
-0.0712956
-0.048015
-0.0751673
-0.0237239
-0.0787684
-0.0813863
-0.295567
0.0942929
-0.298328
0.0764189
-0.295922
0.0569392
-0.288479
0.0371341
-0.276421
0.0178907
-0.260344
-1.7523e-05
-0.240958
-0.0160473
-0.219023
-0.029883
-0.195275
-0.0414371
-0.170384
-0.0508248
-0.14492
-0.0583222
-0.119336
-0.0643175
-0.0939855
-0.0692501
-0.0691449
-0.0735463
-0.0450467
-0.0775174
-0.0219211
-0.0812838
-0.0841136
-0.303312
0.112715
-0.305949
0.0911145
-0.302742
0.0678341
-0.293972
0.0444197
-0.280194
0.0219802
-0.262181
0.00145982
-0.240827
-0.0165205
-0.217057
-0.0316544
-0.191745
-0.0439397
-0.165653
-0.0536312
-0.139396
-0.0611694
-0.113453
-0.0670951
-0.0881827
-0.0719657
-0.0638854
-0.0762642
-0.0408559
-0.0802917
-0.0194414
-0.0840937
-0.0868963
-0.307283
0.131311
-0.309767
0.105609
-0.305791
0.0781201
-0.295695
0.0507092
-0.28021
0.0248154
-0.260309
0.0015656
-0.237091
-0.0183467
-0.211658
-0.0346586
-0.185014
-0.0475021
-0.158002
-0.0573236
-0.131272
-0.0647722
-0.105303
-0.0705673
-0.0804567
-0.0753756
-0.0570651
-0.0796961
-0.0355072
-0.083753
-0.0162983
-0.0874167
-0.0898183
-0.307194
0.149954
-0.309643
0.119692
-0.304943
0.0875359
-0.29358
0.0557729
-0.276464
0.0261935
-0.254793
0.00013779
-0.229884
-0.0216459
-0.203019
-0.0389823
-0.175324
-0.0521991
-0.1477
-0.0619958
-0.120811
-0.0692729
-0.0951213
-0.0749447
-0.0709966
-0.0797604
-0.0488174
-0.0841705
-0.0290975
-0.0882192
-0.0125406
-0.0915271
-0.0930044
-0.302987
0.168293
-0.305513
0.133114
-0.300232
0.095888
-0.287733
0.0594287
-0.269138
0.025965
-0.245884
-0.00293694
-0.219517
-0.0264962
-0.191496
-0.0446841
-0.163053
-0.0580985
-0.135125
-0.0677608
-0.108358
-0.0748647
-0.0831942
-0.080516
-0.0600017
-0.0855015
-0.0392429
-0.0901238
-0.0216109
-0.0941249
-0.00814185
-0.0966956
-0.0965192
0.193519
-0.165536
-0.19021
0.193988
-0.173716
0.193185
-0.182042
0.189956
-0.19002
0.185781
-0.197481
0.179658
-0.203829
0.172624
-0.208868
0.164172
-0.21228
0.154767
-0.213838
0.14445
-0.213304
0.133134
-0.210618
0.121303
-0.205618
0.108544
-0.198483
0.0955139
-0.189257
0.0817236
-0.178335
0.0677597
-0.165795
0.053231
-0.152285
0.0385982
-0.13797
0.0235669
-0.123543
0.00849534
-0.109343
-0.00686642
-0.095971
-0.0221992
-0.0839092
-0.0376749
-0.0736169
-0.05304
-0.0655079
-0.0683378
-0.0599564
-0.083366
-0.0572941
-0.098075
-0.0577574
-0.112268
-0.0615163
-0.125813
-0.068614
-0.13852
-0.0789956
-0.150183
-0.0924787
-0.160614
-0.108744
-0.169572
-0.127349
-0.176885
-0.147723
-0.182314
-0.169208
-0.18572
-0.19105
-0.18692
-0.212471
-0.185828
-0.232665
-0.182362
-0.250889
-0.176504
-0.266447
-0.278783
0.217473
-0.158264
-0.215164
0.217423
-0.166895
0.215157
-0.175777
0.210933
-0.184495
0.204889
-0.192728
0.197294
-0.199978
0.18832
-0.20593
0.178131
-0.210244
0.166886
-0.212671
0.154737
-0.212965
0.141795
-0.21102
0.128224
-0.20673
0.114096
-0.20019
0.0995764
-0.191543
0.0846809
-0.181047
0.069608
-0.168971
0.05433
-0.15575
0.0390151
-0.141752
0.0236478
-0.127497
0.00834048
-0.113459
-0.00689272
-0.100144
-0.0219782
-0.0880977
-0.0368763
-0.0777449
-0.0515074
-0.0695375
-0.0657964
-0.0638413
-0.0796453
-0.0610049
-0.0929409
-0.0612729
-0.105561
-0.0648162
-0.117358
-0.0716972
-0.128166
-0.0818692
-0.137809
-0.0951557
-0.146097
-0.111247
-0.152838
-0.129703
-0.157841
-0.149953
-0.160936
-0.171325
-0.161963
-0.193066
-0.160799
-0.214377
-0.157352
-0.234444
-0.151582
-0.252496
-0.143483
-0.267834
-0.279871
0.234498
-0.148975
-0.231771
0.234478
-0.157929
0.231916
-0.167289
0.227067
-0.176651
0.220143
-0.185614
0.211448
-0.193745
0.201201
-0.20062
0.189632
-0.205895
0.17693
-0.209264
0.163297
-0.210494
0.148897
-0.209434
0.133913
-0.206005
0.11848
-0.200258