/*--------------------------------*- C++ -*----------------------------------*\
  =========                 |
  \\      /  F ield         | OpenFOAM: The Open Source CFD Toolbox
   \\    /   O peration     | Website:  https://openfoam.org
    \\  /    A nd           | Version:  6
     \\/     M anipulation  |
\*---------------------------------------------------------------------------*/
FoamFile
{
    version     2.0;
    format      ascii;
    class       volVectorField;
    location    "3.16";
    object      U;
}
// * * * * * * * * * * * * * * * * * * * * * * * * * * * * * * * * * * * * * //

dimensions      [0 1 -1 0 0 0 0];

internalField   nonuniform List<vector> 
22500
(
(0.8944 0.4472 0)
(0.8944 0.4472 0)
(0.8944 0.4472 0)
(0.8944 0.4472 0)
(0.8944 0.4472 0)
(0.8944 0.4472 0)
(0.8944 0.4472 0)
(0.8944 0.4472 0)
(0.8944 0.4472 0)
(0.8944 0.4472 0)
(0.8944 0.4472 0)
(0.8944 0.4472 0)
(0.8944 0.4472 0)
(0.8944 0.4472 0)
(0.8944 0.4472 0)
(0.8944 0.4472 0)
(0.8944 0.4472 0)
(0.8944 0.4472 0)
(0.8944 0.4472 0)
(0.8944 0.4472 0)
(0.8944 0.4472 0)
(0.8944 0.4472 0)
(0.8944 0.4472 0)
(0.8944 0.4472 0)
(0.8944 0.4472 0)
(0.8944 0.4472 0)
(0.8944 0.4472 0)
(0.8944 0.4472 0)
(0.8944 0.4472 0)
(0.8944 0.4472 0)
(0.8944 0.4472 0)
(0.8944 0.4472 0)
(0.8944 0.4472 0)
(0.8944 0.4472 0)
(0.8944 0.4472 0)
(0.8944 0.4472 0)
(0.8944 0.4472 0)
(0.8944 0.4472 0)
(0.8944 0.4472 0)
(0.8944 0.4472 0)
(0.8944 0.4472 0)
(0.8944 0.4472 0)
(0.8944 0.4472 0)
(0.8944 0.4472 0)
(0.8944 0.4472 0)
(0.8944 0.4472 0)
(0.8944 0.4472 0)
(0.8944 0.4472 0)
(0.8944 0.4472 0)
(0.8944 0.4472 0)
(0.8944 0.4472 0)
(0.8944 0.4472 0)
(0.8944 0.4472 0)
(0.8944 0.4472 0)
(0.8944 0.4472 0)
(0.8944 0.4472 0)
(0.8944 0.4472 0)
(0.8944 0.4472 0)
(0.8944 0.4472 0)
(0.8944 0.4472 0)
(0.8944 0.4472 0)
(0.8944 0.4472 0)
(0.8944 0.4472 0)
(0.8944 0.4472 0)
(0.8944 0.4472 0)
(0.8944 0.4472 0)
(0.8944 0.4472 0)
(0.894401 0.4472 0)
(0.8944 0.447199 0)
(0.894401 0.447199 0)
(0.894401 0.447199 0)
(0.894401 0.447199 0)
(0.894402 0.447198 0)
(0.894402 0.447197 0)
(0.894402 0.447196 0)
(0.894403 0.447196 0)
(0.894403 0.447194 0)
(0.894403 0.447193 0)
(0.894404 0.447192 0)
(0.894404 0.44719 0)
(0.894404 0.447189 0)
(0.894403 0.447187 0)
(0.894403 0.447186 0)
(0.894403 0.447185 0)
(0.894402 0.447184 0)
(0.894401 0.447184 0)
(0.8944 0.447184 0)
(0.894399 0.447184 0)
(0.894398 0.447185 0)
(0.894396 0.447186 0)
(0.894395 0.447188 0)
(0.894394 0.44719 0)
(0.894393 0.447193 0)
(0.894393 0.447196 0)
(0.894392 0.447199 0)
(0.894392 0.447202 0)
(0.894392 0.447205 0)
(0.894392 0.447208 0)
(0.894393 0.447211 0)
(0.894394 0.447214 0)
(0.894395 0.447216 0)
(0.894396 0.447217 0)
(0.894397 0.447218 0)
(0.894399 0.447219 0)
(0.8944 0.447219 0)
(0.894401 0.447219 0)
(0.894402 0.447218 0)
(0.894403 0.447217 0)
(0.894403 0.447216 0)
(0.894404 0.447215 0)
(0.894404 0.447213 0)
(0.894404 0.447212 0)
(0.894404 0.44721 0)
(0.894404 0.447209 0)
(0.894403 0.447207 0)
(0.894403 0.447206 0)
(0.894403 0.447205 0)
(0.894402 0.447204 0)
(0.894402 0.447203 0)
(0.894402 0.447202 0)
(0.894401 0.447202 0)
(0.894401 0.447201 0)
(0.894401 0.447201 0)
(0.894401 0.447201 0)
(0.8944 0.4472 0)
(0.8944 0.4472 0)
(0.8944 0.4472 0)
(0.8944 0.4472 0)
(0.8944 0.4472 0)
(0.8944 0.4472 0)
(0.8944 0.4472 0)
(0.8944 0.4472 0)
(0.8944 0.4472 0)
(0.8944 0.4472 0)
(0.8944 0.4472 0)
(0.8944 0.4472 0)
(0.8944 0.4472 0)
(0.8944 0.4472 0)
(0.8944 0.4472 0)
(0.8944 0.4472 0)
(0.8944 0.4472 0)
(0.8944 0.4472 0)
(0.8944 0.4472 0)
(0.8944 0.4472 0)
(0.8944 0.4472 0)
(0.8944 0.4472 0)
(0.8944 0.4472 0)
(0.8944 0.4472 0)
(0.8944 0.4472 0)
(0.8944 0.4472 0)
(0.8944 0.4472 0)
(0.8944 0.4472 0)
(0.8944 0.4472 0)
(0.8944 0.4472 0)
(0.8944 0.4472 0)
(0.8944 0.4472 0)
(0.8944 0.4472 0)
(0.8944 0.4472 0)
(0.8944 0.4472 0)
(0.8944 0.4472 0)
(0.8944 0.4472 0)
(0.8944 0.4472 0)
(0.8944 0.4472 0)
(0.8944 0.4472 0)
(0.8944 0.4472 0)
(0.8944 0.4472 0)
(0.8944 0.4472 0)
(0.8944 0.4472 0)
(0.8944 0.4472 0)
(0.8944 0.4472 0)
(0.8944 0.4472 0)
(0.8944 0.4472 0)
(0.8944 0.4472 0)
(0.8944 0.4472 0)
(0.8944 0.4472 0)
(0.8944 0.4472 0)
(0.8944 0.4472 0)
(0.8944 0.4472 0)
(0.8944 0.4472 0)
(0.8944 0.4472 0)
(0.8944 0.4472 0)
(0.8944 0.4472 0)
(0.8944 0.4472 0)
(0.8944 0.4472 0)
(0.8944 0.4472 0)
(0.8944 0.4472 0)
(0.8944 0.4472 0)
(0.8944 0.4472 0)
(0.8944 0.4472 0)
(0.8944 0.4472 0)
(0.8944 0.4472 0)
(0.8944 0.4472 0)
(0.8944 0.4472 0)
(0.8944 0.4472 0)
(0.8944 0.4472 0)
(0.8944 0.4472 0)
(0.8944 0.4472 0)
(0.8944 0.4472 0)
(0.8944 0.4472 0)
(0.8944 0.4472 0)
(0.8944 0.4472 0)
(0.8944 0.4472 0)
(0.8944 0.4472 0)
(0.8944 0.4472 0)
(0.8944 0.4472 0)
(0.8944 0.4472 0)
(0.8944 0.4472 0)
(0.8944 0.4472 0)
(0.8944 0.4472 0)
(0.8944 0.4472 0)
(0.8944 0.4472 0)
(0.8944 0.4472 0)
(0.8944 0.4472 0)
(0.8944 0.4472 0)
(0.8944 0.4472 0)
(0.8944 0.4472 0)
(0.8944 0.4472 0)
(0.894401 0.4472 0)
(0.894401 0.447199 0)
(0.894401 0.447199 0)
(0.894401 0.447199 0)
(0.894402 0.447198 0)
(0.894402 0.447197 0)
(0.894403 0.447197 0)
(0.894403 0.447196 0)
(0.894404 0.447194 0)
(0.894404 0.447193 0)
(0.894405 0.447191 0)
(0.894405 0.447189 0)
(0.894405 0.447188 0)
(0.894405 0.447186 0)
(0.894405 0.447184 0)
(0.894404 0.447182 0)
(0.894403 0.447181 0)
(0.894403 0.44718 0)
(0.894401 0.44718 0)
(0.8944 0.44718 0)
(0.894398 0.44718 0)
(0.894397 0.447182 0)
(0.894395 0.447184 0)
(0.894393 0.447186 0)
(0.894392 0.447189 0)
(0.894391 0.447193 0)
(0.89439 0.447196 0)
(0.894389 0.4472 0)
(0.894389 0.447205 0)
(0.894389 0.447209 0)
(0.89439 0.447213 0)
(0.894391 0.447216 0)
(0.894392 0.447219 0)
(0.894393 0.447222 0)
(0.894395 0.447224 0)
(0.894397 0.447225 0)
(0.894398 0.447226 0)
(0.8944 0.447226 0)
(0.894401 0.447225 0)
(0.894403 0.447224 0)
(0.894404 0.447223 0)
(0.894404 0.447221 0)
(0.894405 0.447219 0)
(0.894405 0.447217 0)
(0.894405 0.447215 0)
(0.894405 0.447213 0)
(0.894405 0.447211 0)
(0.894404 0.447209 0)
(0.894404 0.447208 0)
(0.894404 0.447206 0)
(0.894403 0.447205 0)
(0.894403 0.447204 0)
(0.894402 0.447203 0)
(0.894402 0.447202 0)
(0.894401 0.447202 0)
(0.894401 0.447201 0)
(0.894401 0.447201 0)
(0.894401 0.4472 0)
(0.8944 0.4472 0)
(0.8944 0.4472 0)
(0.8944 0.4472 0)
(0.8944 0.4472 0)
(0.8944 0.4472 0)
(0.8944 0.4472 0)
(0.8944 0.4472 0)
(0.8944 0.4472 0)
(0.8944 0.4472 0)
(0.8944 0.4472 0)
(0.8944 0.4472 0)
(0.8944 0.4472 0)
(0.8944 0.4472 0)
(0.8944 0.4472 0)
(0.8944 0.4472 0)
(0.8944 0.4472 0)
(0.8944 0.4472 0)
(0.8944 0.4472 0)
(0.8944 0.4472 0)
(0.8944 0.4472 0)
(0.8944 0.4472 0)
(0.8944 0.4472 0)
(0.8944 0.4472 0)
(0.8944 0.4472 0)
(0.8944 0.4472 0)
(0.8944 0.4472 0)
(0.8944 0.4472 0)
(0.8944 0.4472 0)
(0.8944 0.4472 0)
(0.8944 0.4472 0)
(0.8944 0.4472 0)
(0.8944 0.4472 0)
(0.8944 0.4472 0)
(0.8944 0.4472 0)
(0.8944 0.4472 0)
(0.8944 0.4472 0)
(0.8944 0.4472 0)
(0.8944 0.4472 0)
(0.8944 0.4472 0)
(0.8944 0.4472 0)
(0.8944 0.4472 0)
(0.8944 0.4472 0)
(0.8944 0.4472 0)
(0.8944 0.4472 0)
(0.8944 0.4472 0)
(0.8944 0.4472 0)
(0.8944 0.4472 0)
(0.8944 0.4472 0)
(0.8944 0.4472 0)
(0.8944 0.4472 0)
(0.8944 0.4472 0)
(0.8944 0.4472 0)
(0.8944 0.4472 0)
(0.8944 0.4472 0)
(0.8944 0.4472 0)
(0.8944 0.4472 0)
(0.8944 0.4472 0)
(0.8944 0.4472 0)
(0.8944 0.4472 0)
(0.8944 0.4472 0)
(0.8944 0.4472 0)
(0.8944 0.4472 0)
(0.8944 0.4472 0)
(0.8944 0.4472 0)
(0.8944 0.4472 0)
(0.8944 0.4472 0)
(0.8944 0.4472 0)
(0.8944 0.4472 0)
(0.8944 0.4472 0)
(0.8944 0.4472 0)
(0.8944 0.4472 0)
(0.8944 0.4472 0)
(0.8944 0.4472 0)
(0.8944 0.4472 0)
(0.8944 0.4472 0)
(0.8944 0.4472 0)
(0.8944 0.4472 0)
(0.8944 0.4472 0)
(0.8944 0.4472 0)
(0.8944 0.4472 0)
(0.8944 0.4472 0)
(0.8944 0.4472 0)
(0.8944 0.4472 0)
(0.8944 0.4472 0)
(0.8944 0.4472 0)
(0.8944 0.4472 0)
(0.8944 0.4472 0)
(0.8944 0.4472 0)
(0.8944 0.4472 0)
(0.8944 0.4472 0)
(0.8944 0.4472 0)
(0.894401 0.4472 0)
(0.894401 0.4472 0)
(0.894401 0.447199 0)
(0.894401 0.447199 0)
(0.894402 0.447198 0)
(0.894402 0.447198 0)
(0.894403 0.447197 0)
(0.894403 0.447195 0)
(0.894404 0.447194 0)
(0.894405 0.447193 0)
(0.894405 0.447191 0)
(0.894406 0.447189 0)
(0.894406 0.447187 0)
(0.894406 0.447184 0)
(0.894406 0.447182 0)
(0.894406 0.44718 0)
(0.894405 0.447178 0)
(0.894404 0.447176 0)
(0.894403 0.447175 0)
(0.894402 0.447175 0)
(0.8944 0.447175 0)
(0.894397 0.447176 0)
(0.894395 0.447178 0)
(0.894393 0.447181 0)
(0.894391 0.447184 0)
(0.894389 0.447188 0)
(0.894387 0.447193 0)
(0.894386 0.447198 0)
(0.894386 0.447203 0)
(0.894385 0.447209 0)
(0.894386 0.447214 0)
(0.894387 0.447219 0)
(0.894388 0.447223 0)
(0.89439 0.447227 0)
(0.894392 0.44723 0)
(0.894394 0.447232 0)
(0.894396 0.447234 0)
(0.894398 0.447234 0)
(0.8944 0.447234 0)
(0.894402 0.447234 0)
(0.894404 0.447232 0)
(0.894405 0.44723 0)
(0.894406 0.447228 0)
(0.894406 0.447225 0)
(0.894407 0.447223 0)
(0.894407 0.44722 0)
(0.894407 0.447217 0)
(0.894406 0.447215 0)
(0.894406 0.447212 0)
(0.894405 0.44721 0)
(0.894405 0.447208 0)
(0.894404 0.447206 0)
(0.894403 0.447205 0)
(0.894403 0.447204 0)
(0.894402 0.447203 0)
(0.894402 0.447202 0)
(0.894401 0.447201 0)
(0.894401 0.447201 0)
(0.894401 0.447201 0)
(0.8944 0.4472 0)
(0.8944 0.4472 0)
(0.8944 0.4472 0)
(0.8944 0.4472 0)
(0.8944 0.4472 0)
(0.8944 0.4472 0)
(0.8944 0.4472 0)
(0.8944 0.4472 0)
(0.8944 0.4472 0)
(0.8944 0.4472 0)
(0.8944 0.4472 0)
(0.8944 0.4472 0)
(0.8944 0.4472 0)
(0.8944 0.4472 0)
(0.8944 0.4472 0)
(0.8944 0.4472 0)
(0.8944 0.4472 0)
(0.8944 0.4472 0)
(0.8944 0.4472 0)
(0.8944 0.4472 0)
(0.8944 0.4472 0)
(0.8944 0.4472 0)
(0.8944 0.4472 0)
(0.8944 0.4472 0)
(0.8944 0.4472 0)
(0.8944 0.4472 0)
(0.8944 0.4472 0)
(0.8944 0.4472 0)
(0.8944 0.4472 0)
(0.8944 0.4472 0)
(0.8944 0.4472 0)
(0.8944 0.4472 0)
(0.8944 0.4472 0)
(0.8944 0.4472 0)
(0.8944 0.4472 0)
(0.8944 0.4472 0)
(0.8944 0.4472 0)
(0.8944 0.4472 0)
(0.8944 0.4472 0)
(0.8944 0.4472 0)
(0.8944 0.4472 0)
(0.8944 0.4472 0)
(0.8944 0.4472 0)
(0.8944 0.4472 0)
(0.8944 0.4472 0)
(0.8944 0.4472 0)
(0.8944 0.4472 0)
(0.8944 0.4472 0)
(0.8944 0.4472 0)
(0.8944 0.4472 0)
(0.8944 0.4472 0)
(0.8944 0.4472 0)
(0.8944 0.4472 0)
(0.8944 0.4472 0)
(0.8944 0.4472 0)
(0.8944 0.4472 0)
(0.8944 0.4472 0)
(0.8944 0.4472 0)
(0.8944 0.4472 0)
(0.8944 0.4472 0)
(0.8944 0.4472 0)
(0.8944 0.4472 0)
(0.8944 0.4472 0)
(0.8944 0.4472 0)
(0.8944 0.4472 0)
(0.8944 0.4472 0)
(0.8944 0.4472 0)
(0.8944 0.4472 0)
(0.8944 0.4472 0)
(0.8944 0.4472 0)
(0.8944 0.4472 0)
(0.8944 0.4472 0)
(0.8944 0.4472 0)
(0.8944 0.4472 0)
(0.8944 0.4472 0)
(0.8944 0.4472 0)
(0.8944 0.4472 0)
(0.8944 0.4472 0)
(0.8944 0.4472 0)
(0.8944 0.4472 0)
(0.8944 0.4472 0)
(0.8944 0.4472 0)
(0.8944 0.4472 0)
(0.8944 0.4472 0)
(0.8944 0.4472 0)
(0.8944 0.4472 0)
(0.8944 0.4472 0)
(0.8944 0.4472 0)
(0.8944 0.4472 0)
(0.8944 0.4472 0)
(0.8944 0.4472 0)
(0.894401 0.4472 0)
(0.894401 0.4472 0)
(0.894401 0.447199 0)
(0.894402 0.447199 0)
(0.894402 0.447198 0)
(0.894403 0.447197 0)
(0.894404 0.447196 0)
(0.894405 0.447194 0)
(0.894405 0.447193 0)
(0.894406 0.447191 0)
(0.894407 0.447188 0)
(0.894408 0.447186 0)
(0.894408 0.447183 0)
(0.894408 0.44718 0)
(0.894408 0.447178 0)
(0.894408 0.447175 0)
(0.894407 0.447173 0)
(0.894405 0.447172 0)
(0.894404 0.447171 0)
(0.894401 0.447171 0)
(0.894399 0.447171 0)
(0.894396 0.447173 0)
(0.894393 0.447176 0)
(0.89439 0.447179 0)
(0.894387 0.447184 0)
(0.894385 0.44719 0)
(0.894383 0.447196 0)
(0.894382 0.447202 0)
(0.894381 0.447209 0)
(0.894381 0.447216 0)
(0.894381 0.447222 0)
(0.894382 0.447228 0)
(0.894384 0.447234 0)
(0.894386 0.447238 0)
(0.894389 0.447242 0)
(0.894392 0.447244 0)
(0.894395 0.447246 0)
(0.894398 0.447246 0)
(0.8944 0.447246 0)
(0.894403 0.447244 0)
(0.894405 0.447242 0)
(0.894407 0.447239 0)
(0.894408 0.447236 0)
(0.894409 0.447233 0)
(0.894409 0.447229 0)
(0.894409 0.447226 0)
(0.894409 0.447222 0)
(0.894409 0.447219 0)
(0.894408 0.447216 0)
(0.894407 0.447213 0)
(0.894406 0.44721 0)
(0.894405 0.447208 0)
(0.894404 0.447206 0)
(0.894404 0.447205 0)
(0.894403 0.447203 0)
(0.894402 0.447202 0)
(0.894402 0.447202 0)
(0.894401 0.447201 0)
(0.894401 0.447201 0)
(0.894401 0.4472 0)
(0.8944 0.4472 0)
(0.8944 0.4472 0)
(0.8944 0.4472 0)
(0.8944 0.4472 0)
(0.8944 0.4472 0)
(0.8944 0.4472 0)
(0.8944 0.4472 0)
(0.8944 0.4472 0)
(0.8944 0.4472 0)
(0.8944 0.4472 0)
(0.8944 0.4472 0)
(0.8944 0.4472 0)
(0.8944 0.4472 0)
(0.8944 0.4472 0)
(0.8944 0.4472 0)
(0.8944 0.4472 0)
(0.8944 0.4472 0)
(0.8944 0.4472 0)
(0.8944 0.4472 0)
(0.8944 0.4472 0)
(0.8944 0.4472 0)
(0.8944 0.4472 0)
(0.8944 0.4472 0)
(0.8944 0.4472 0)
(0.8944 0.4472 0)
(0.8944 0.4472 0)
(0.8944 0.4472 0)
(0.8944 0.4472 0)
(0.8944 0.4472 0)
(0.8944 0.4472 0)
(0.8944 0.4472 0)
(0.8944 0.4472 0)
(0.8944 0.4472 0)
(0.8944 0.4472 0)
(0.8944 0.4472 0)
(0.8944 0.4472 0)
(0.8944 0.4472 0)
(0.8944 0.4472 0)
(0.8944 0.4472 0)
(0.8944 0.4472 0)
(0.8944 0.4472 0)
(0.8944 0.4472 0)
(0.8944 0.4472 0)
(0.8944 0.4472 0)
(0.8944 0.4472 0)
(0.8944 0.4472 0)
(0.8944 0.4472 0)
(0.8944 0.4472 0)
(0.8944 0.4472 0)
(0.8944 0.4472 0)
(0.8944 0.4472 0)
(0.8944 0.4472 0)
(0.8944 0.4472 0)
(0.8944 0.4472 0)
(0.8944 0.4472 0)
(0.8944 0.4472 0)
(0.8944 0.4472 0)
(0.8944 0.4472 0)
(0.8944 0.4472 0)
(0.8944 0.4472 0)
(0.8944 0.4472 0)
(0.8944 0.4472 0)
(0.8944 0.4472 0)
(0.8944 0.4472 0)
(0.8944 0.4472 0)
(0.8944 0.4472 0)
(0.8944 0.4472 0)
(0.8944 0.4472 0)
(0.8944 0.4472 0)
(0.8944 0.4472 0)
(0.8944 0.4472 0)
(0.8944 0.4472 0)
(0.8944 0.4472 0)
(0.8944 0.4472 0)
(0.8944 0.4472 0)
(0.8944 0.4472 0)
(0.8944 0.4472 0)
(0.8944 0.4472 0)
(0.8944 0.4472 0)
(0.8944 0.4472 0)
(0.8944 0.4472 0)
(0.8944 0.4472 0)
(0.8944 0.4472 0)
(0.8944 0.4472 0)
(0.8944 0.4472 0)
(0.8944 0.4472 0)
(0.8944 0.4472 0)
(0.8944 0.4472 0)
(0.8944 0.4472 0)
(0.8944 0.4472 0)
(0.894401 0.4472 0)
(0.894401 0.447199 0)
(0.894401 0.447199 0)
(0.894402 0.447198 0)
(0.894403 0.447198 0)
(0.894404 0.447196 0)
(0.894405 0.447195 0)
(0.894406 0.447193 0)
(0.894407 0.447191 0)
(0.894408 0.447189 0)
(0.894409 0.447186 0)
(0.89441 0.447183 0)
(0.89441 0.44718 0)
(0.89441 0.447176 0)
(0.89441 0.447173 0)
(0.89441 0.44717 0)
(0.894408 0.447168 0)
(0.894406 0.447166 0)
(0.894404 0.447166 0)
(0.894401 0.447166 0)
(0.894397 0.447168 0)
(0.894394 0.447171 0)
(0.89439 0.447175 0)
(0.894386 0.44718 0)
(0.894383 0.447186 0)
(0.89438 0.447194 0)
(0.894377 0.447202 0)
(0.894376 0.44721 0)
(0.894375 0.447219 0)
(0.894375 0.447227 0)
(0.894376 0.447235 0)
(0.894377 0.447243 0)
(0.89438 0.447249 0)
(0.894383 0.447254 0)
(0.894386 0.447258 0)
(0.89439 0.447261 0)
(0.894394 0.447262 0)
(0.894398 0.447262 0)
(0.894401 0.447261 0)
(0.894404 0.447259 0)
(0.894407 0.447256 0)
(0.894409 0.447252 0)
(0.894411 0.447247 0)
(0.894412 0.447242 0)
(0.894412 0.447238 0)
(0.894412 0.447233 0)
(0.894412 0.447228 0)
(0.894411 0.447224 0)
(0.89441 0.44722 0)
(0.894409 0.447216 0)
(0.894408 0.447213 0)
(0.894407 0.44721 0)
(0.894406 0.447208 0)
(0.894405 0.447206 0)
(0.894404 0.447204 0)
(0.894403 0.447203 0)
(0.894402 0.447202 0)
(0.894402 0.447201 0)
(0.894401 0.447201 0)
(0.894401 0.447201 0)
(0.894401 0.4472 0)
(0.8944 0.4472 0)
(0.8944 0.4472 0)
(0.8944 0.4472 0)
(0.8944 0.4472 0)
(0.8944 0.4472 0)
(0.8944 0.4472 0)
(0.8944 0.4472 0)
(0.8944 0.4472 0)
(0.8944 0.4472 0)
(0.8944 0.4472 0)
(0.8944 0.4472 0)
(0.8944 0.4472 0)
(0.8944 0.4472 0)
(0.8944 0.4472 0)
(0.8944 0.4472 0)
(0.8944 0.4472 0)
(0.8944 0.4472 0)
(0.8944 0.4472 0)
(0.8944 0.4472 0)
(0.8944 0.4472 0)
(0.8944 0.4472 0)
(0.8944 0.4472 0)
(0.8944 0.4472 0)
(0.8944 0.4472 0)
(0.8944 0.4472 0)
(0.8944 0.4472 0)
(0.8944 0.4472 0)
(0.8944 0.4472 0)
(0.8944 0.4472 0)
(0.8944 0.4472 0)
(0.8944 0.4472 0)
(0.8944 0.4472 0)
(0.8944 0.4472 0)
(0.8944 0.4472 0)
(0.8944 0.4472 0)
(0.8944 0.4472 0)
(0.8944 0.4472 0)
(0.8944 0.4472 0)
(0.8944 0.4472 0)
(0.8944 0.4472 0)
(0.8944 0.4472 0)
(0.8944 0.4472 0)
(0.8944 0.4472 0)
(0.8944 0.4472 0)
(0.8944 0.4472 0)
(0.8944 0.4472 0)
(0.8944 0.4472 0)
(0.8944 0.4472 0)
(0.8944 0.4472 0)
(0.8944 0.4472 0)
(0.8944 0.4472 0)
(0.8944 0.4472 0)
(0.8944 0.4472 0)
(0.8944 0.4472 0)
(0.8944 0.4472 0)
(0.8944 0.4472 0)
(0.8944 0.4472 0)
(0.8944 0.4472 0)
(0.8944 0.4472 0)
(0.8944 0.4472 0)
(0.8944 0.4472 0)
(0.8944 0.4472 0)
(0.8944 0.4472 0)
(0.8944 0.4472 0)
(0.8944 0.4472 0)
(0.8944 0.4472 0)
(0.8944 0.4472 0)
(0.8944 0.4472 0)
(0.8944 0.4472 0)
(0.8944 0.4472 0)
(0.8944 0.4472 0)
(0.8944 0.4472 0)
(0.8944 0.4472 0)
(0.8944 0.4472 0)
(0.8944 0.4472 0)
(0.8944 0.4472 0)
(0.8944 0.4472 0)
(0.8944 0.4472 0)
(0.8944 0.4472 0)
(0.8944 0.4472 0)
(0.8944 0.4472 0)
(0.8944 0.4472 0)
(0.8944 0.4472 0)
(0.8944 0.4472 0)
(0.8944 0.4472 0)
(0.8944 0.4472 0)
(0.8944 0.4472 0)
(0.8944 0.4472 0)
(0.894401 0.4472 0)
(0.894401 0.4472 0)
(0.894401 0.4472 0)
(0.894402 0.447199 0)
(0.894403 0.447198 0)
(0.894404 0.447197 0)
(0.894405 0.447196 0)
(0.894406 0.447194 0)
(0.894407 0.447192 0)
(0.894409 0.447189 0)
(0.89441 0.447186 0)
(0.894411 0.447183 0)
(0.894412 0.447179 0)
(0.894413 0.447176 0)
(0.894413 0.447172 0)
(0.894412 0.447168 0)
(0.894411 0.447165 0)
(0.894409 0.447163 0)
(0.894407 0.447162 0)
(0.894403 0.447162 0)
(0.894399 0.447163 0)
(0.894395 0.447166 0)
(0.89439 0.447171 0)
(0.894385 0.447177 0)
(0.89438 0.447184 0)
(0.894376 0.447193 0)
(0.894372 0.447203 0)
(0.894369 0.447214 0)
(0.894368 0.447225 0)
(0.894367 0.447236 0)
(0.894367 0.447247 0)
(0.894368 0.447256 0)
(0.894371 0.447265 0)
(0.894374 0.447273 0)
(0.894378 0.447278 0)
(0.894383 0.447282 0)
(0.894388 0.447285 0)
(0.894393 0.447285 0)
(0.894398 0.447284 0)
(0.894402 0.447282 0)
(0.894406 0.447278 0)
(0.89441 0.447273 0)
(0.894412 0.447268 0)
(0.894415 0.447262 0)
(0.894416 0.447255 0)
(0.894416 0.447249 0)
(0.894416 0.447242 0)
(0.894416 0.447236 0)
(0.894415 0.44723 0)
(0.894414 0.447225 0)
(0.894412 0.44722 0)
(0.894411 0.447216 0)
(0.894409 0.447213 0)
(0.894408 0.44721 0)
(0.894406 0.447207 0)
(0.894405 0.447205 0)
(0.894404 0.447204 0)
(0.894403 0.447202 0)
(0.894402 0.447202 0)
(0.894402 0.447201 0)
(0.894401 0.447201 0)
(0.894401 0.4472 0)
(0.8944 0.4472 0)
(0.8944 0.4472 0)
(0.8944 0.4472 0)
(0.8944 0.4472 0)
(0.8944 0.4472 0)
(0.8944 0.4472 0)
(0.8944 0.4472 0)
(0.8944 0.4472 0)
(0.8944 0.4472 0)
(0.8944 0.4472 0)
(0.8944 0.4472 0)
(0.8944 0.4472 0)
(0.8944 0.4472 0)
(0.8944 0.4472 0)
(0.8944 0.4472 0)
(0.8944 0.4472 0)
(0.8944 0.4472 0)
(0.8944 0.4472 0)
(0.8944 0.4472 0)
(0.8944 0.4472 0)
(0.8944 0.4472 0)
(0.8944 0.4472 0)
(0.8944 0.4472 0)
(0.8944 0.4472 0)
(0.8944 0.4472 0)
(0.8944 0.4472 0)
(0.8944 0.4472 0)
(0.8944 0.4472 0)
(0.8944 0.4472 0)
(0.8944 0.4472 0)
(0.8944 0.4472 0)
(0.8944 0.4472 0)
(0.8944 0.4472 0)
(0.8944 0.4472 0)
(0.8944 0.4472 0)
(0.8944 0.4472 0)
(0.8944 0.4472 0)
(0.8944 0.4472 0)
(0.8944 0.4472 0)
(0.8944 0.4472 0)
(0.8944 0.4472 0)
(0.8944 0.4472 0)
(0.8944 0.4472 0)
(0.8944 0.4472 0)
(0.8944 0.4472 0)
(0.8944 0.4472 0)
(0.8944 0.4472 0)
(0.8944 0.4472 0)
(0.8944 0.4472 0)
(0.8944 0.4472 0)
(0.8944 0.4472 0)
(0.8944 0.4472 0)
(0.8944 0.4472 0)
(0.8944 0.4472 0)
(0.8944 0.4472 0)
(0.8944 0.4472 0)
(0.8944 0.4472 0)
(0.8944 0.4472 0)
(0.8944 0.4472 0)
(0.8944 0.4472 0)
(0.8944 0.4472 0)
(0.8944 0.4472 0)
(0.8944 0.4472 0)
(0.8944 0.4472 0)
(0.8944 0.4472 0)
(0.8944 0.4472 0)
(0.8944 0.4472 0)
(0.8944 0.4472 0)
(0.8944 0.4472 0)
(0.8944 0.4472 0)
(0.8944 0.4472 0)
(0.8944 0.4472 0)
(0.8944 0.4472 0)
(0.8944 0.4472 0)
(0.8944 0.4472 0)
(0.8944 0.4472 0)
(0.8944 0.4472 0)
(0.8944 0.4472 0)
(0.8944 0.4472 0)
(0.8944 0.4472 0)
(0.8944 0.4472 0)
(0.8944 0.4472 0)
(0.8944 0.4472 0)
(0.8944 0.4472 0)
(0.8944 0.4472 0)
(0.8944 0.4472 0)
(0.8944 0.4472 0)
(0.8944 0.4472 0)
(0.894401 0.4472 0)
(0.894401 0.4472 0)
(0.894402 0.4472 0)
(0.894403 0.447199 0)
(0.894403 0.447198 0)
(0.894405 0.447197 0)
(0.894406 0.447195 0)
(0.894408 0.447193 0)
(0.894409 0.44719 0)
(0.894411 0.447187 0)
(0.894413 0.447184 0)
(0.894414 0.44718 0)
(0.894415 0.447175 0)
(0.894416 0.447171 0)
(0.894416 0.447167 0)
(0.894415 0.447163 0)
(0.894413 0.447161 0)
(0.89441 0.447159 0)
(0.894407 0.447159 0)
(0.894402 0.44716 0)
(0.894396 0.447163 0)
(0.894391 0.447168 0)
(0.894384 0.447176 0)
(0.894378 0.447185 0)
(0.894372 0.447196 0)
(0.894366 0.447208 0)
(0.894362 0.447222 0)
(0.894359 0.447236 0)
(0.894357 0.447251 0)
(0.894356 0.447264 0)
(0.894357 0.447278 0)
(0.894359 0.447289 0)
(0.894363 0.447299 0)
(0.894368 0.447308 0)
(0.894373 0.447314 0)
(0.894379 0.447317 0)
(0.894386 0.447318 0)
(0.894392 0.447318 0)
(0.894399 0.447315 0)
(0.894404 0.447311 0)
(0.894409 0.447305 0)
(0.894414 0.447297 0)
(0.894417 0.447289 0)
(0.894419 0.447281 0)
(0.894421 0.447272 0)
(0.894422 0.447263 0)
(0.894422 0.447254 0)
(0.894421 0.447246 0)
(0.89442 0.447238 0)
(0.894418 0.447231 0)
(0.894416 0.447225 0)
(0.894414 0.44722 0)
(0.894412 0.447216 0)
(0.89441 0.447212 0)
(0.894408 0.447209 0)
(0.894407 0.447206 0)
(0.894405 0.447204 0)
(0.894404 0.447203 0)
(0.894403 0.447202 0)
(0.894402 0.447201 0)
(0.894401 0.447201 0)
(0.894401 0.4472 0)
(0.894401 0.4472 0)
(0.8944 0.4472 0)
(0.8944 0.4472 0)
(0.8944 0.4472 0)
(0.8944 0.4472 0)
(0.8944 0.4472 0)
(0.8944 0.4472 0)
(0.8944 0.4472 0)
(0.8944 0.4472 0)
(0.8944 0.4472 0)
(0.8944 0.4472 0)
(0.8944 0.4472 0)
(0.8944 0.4472 0)
(0.8944 0.4472 0)
(0.8944 0.4472 0)
(0.8944 0.4472 0)
(0.8944 0.4472 0)
(0.8944 0.4472 0)
(0.8944 0.4472 0)
(0.8944 0.4472 0)
(0.8944 0.4472 0)
(0.8944 0.4472 0)
(0.8944 0.4472 0)
(0.8944 0.4472 0)
(0.8944 0.4472 0)
(0.8944 0.4472 0)
(0.8944 0.4472 0)
(0.8944 0.4472 0)
(0.8944 0.4472 0)
(0.8944 0.4472 0)
(0.8944 0.4472 0)
(0.8944 0.4472 0)
(0.8944 0.4472 0)
(0.8944 0.4472 0)
(0.8944 0.4472 0)
(0.8944 0.4472 0)
(0.8944 0.4472 0)
(0.8944 0.4472 0)
(0.8944 0.4472 0)
(0.8944 0.4472 0)
(0.8944 0.4472 0)
(0.8944 0.4472 0)
(0.8944 0.4472 0)
(0.8944 0.4472 0)
(0.8944 0.4472 0)
(0.8944 0.4472 0)
(0.8944 0.4472 0)
(0.8944 0.4472 0)
(0.8944 0.4472 0)
(0.8944 0.4472 0)
(0.8944 0.4472 0)
(0.8944 0.4472 0)
(0.8944 0.4472 0)
(0.8944 0.4472 0)
(0.8944 0.4472 0)
(0.8944 0.4472 0)
(0.8944 0.4472 0)
(0.8944 0.4472 0)
(0.8944 0.4472 0)
(0.8944 0.4472 0)
(0.8944 0.4472 0)
(0.8944 0.4472 0)
(0.8944 0.4472 0)
(0.8944 0.4472 0)
(0.8944 0.4472 0)
(0.8944 0.4472 0)
(0.8944 0.4472 0)
(0.8944 0.4472 0)
(0.8944 0.4472 0)
(0.8944 0.4472 0)
(0.8944 0.4472 0)
(0.8944 0.4472 0)
(0.8944 0.4472 0)
(0.8944 0.4472 0)
(0.8944 0.4472 0)
(0.8944 0.4472 0)
(0.8944 0.4472 0)
(0.8944 0.4472 0)
(0.8944 0.4472 0)
(0.8944 0.4472 0)
(0.8944 0.4472 0)
(0.8944 0.4472 0)
(0.8944 0.4472 0)
(0.8944 0.4472 0)
(0.8944 0.4472 0)
(0.8944 0.447201 0)
(0.8944 0.447201 0)
(0.8944 0.447201 0)
(0.894401 0.4472 0)
(0.894401 0.4472 0)
(0.894402 0.4472 0)
(0.894403 0.447199 0)
(0.894404 0.447198 0)
(0.894406 0.447196 0)
(0.894408 0.447195 0)
(0.89441 0.447192 0)
(0.894412 0.447189 0)
(0.894414 0.447185 0)
(0.894416 0.447181 0)
(0.894417 0.447177 0)
(0.894419 0.447172 0)
(0.894419 0.447167 0)
(0.894419 0.447163 0)
(0.894417 0.44716 0)
(0.894414 0.447157 0)
(0.89441 0.447157 0)
(0.894405 0.447159 0)
(0.894399 0.447162 0)
(0.894391 0.447168 0)
(0.894383 0.447177 0)
(0.894375 0.447189 0)
(0.894367 0.447203 0)
(0.89436 0.447218 0)
(0.894353 0.447236 0)
(0.894348 0.447254 0)
(0.894344 0.447273 0)
(0.894343 0.447292 0)
(0.894343 0.44731 0)
(0.894345 0.447326 0)
(0.894348 0.44734 0)
(0.894353 0.447352 0)
(0.89436 0.44736 0)
(0.894368 0.447366 0)
(0.894376 0.447369 0)
(0.894384 0.447368 0)
(0.894393 0.447364 0)
(0.894401 0.447359 0)
(0.894408 0.447351 0)
(0.894414 0.447341 0)
(0.89442 0.44733 0)
(0.894424 0.447318 0)
(0.894427 0.447306 0)
(0.894428 0.447294 0)
(0.894429 0.447281 0)
(0.894428 0.44727 0)
(0.894427 0.447259 0)
(0.894426 0.447249 0)
(0.894423 0.44724 0)
(0.894421 0.447232 0)
(0.894418 0.447225 0)
(0.894415 0.447219 0)
(0.894413 0.447215 0)
(0.894411 0.447211 0)
(0.894408 0.447208 0)
(0.894406 0.447205 0)
(0.894405 0.447203 0)
(0.894404 0.447202 0)
(0.894403 0.447201 0)
(0.894402 0.4472 0)
(0.894401 0.4472 0)
(0.894401 0.4472 0)
(0.8944 0.4472 0)
(0.8944 0.4472 0)
(0.8944 0.4472 0)
(0.8944 0.4472 0)
(0.8944 0.4472 0)
(0.8944 0.4472 0)
(0.8944 0.4472 0)
(0.8944 0.4472 0)
(0.8944 0.4472 0)
(0.8944 0.4472 0)
(0.8944 0.4472 0)
(0.8944 0.4472 0)
(0.8944 0.4472 0)
(0.8944 0.4472 0)
(0.8944 0.4472 0)
(0.8944 0.4472 0)
(0.8944 0.4472 0)
(0.8944 0.4472 0)
(0.8944 0.4472 0)
(0.8944 0.4472 0)
(0.8944 0.4472 0)
(0.8944 0.4472 0)
(0.8944 0.4472 0)
(0.8944 0.4472 0)
(0.8944 0.4472 0)
(0.8944 0.4472 0)
(0.8944 0.4472 0)
(0.8944 0.4472 0)
(0.8944 0.4472 0)
(0.8944 0.4472 0)
(0.8944 0.4472 0)
(0.8944 0.4472 0)
(0.8944 0.4472 0)
(0.8944 0.4472 0)
(0.8944 0.4472 0)
(0.8944 0.4472 0)
(0.8944 0.4472 0)
(0.8944 0.4472 0)
(0.8944 0.4472 0)
(0.8944 0.4472 0)
(0.8944 0.4472 0)
(0.8944 0.4472 0)
(0.8944 0.4472 0)
(0.8944 0.4472 0)
(0.8944 0.4472 0)
(0.8944 0.4472 0)
(0.8944 0.4472 0)
(0.8944 0.4472 0)
(0.8944 0.4472 0)
(0.8944 0.4472 0)
(0.8944 0.4472 0)
(0.8944 0.4472 0)
(0.8944 0.4472 0)
(0.8944 0.4472 0)
(0.8944 0.4472 0)
(0.8944 0.4472 0)
(0.8944 0.4472 0)
(0.8944 0.4472 0)
(0.8944 0.4472 0)
(0.8944 0.4472 0)
(0.8944 0.4472 0)
(0.8944 0.4472 0)
(0.8944 0.4472 0)
(0.8944 0.4472 0)
(0.8944 0.4472 0)
(0.8944 0.4472 0)
(0.8944 0.4472 0)
(0.8944 0.4472 0)
(0.8944 0.4472 0)
(0.8944 0.4472 0)
(0.8944 0.4472 0)
(0.8944 0.4472 0)
(0.8944 0.4472 0)
(0.8944 0.4472 0)
(0.8944 0.4472 0)
(0.8944 0.4472 0)
(0.8944 0.4472 0)
(0.8944 0.4472 0)
(0.8944 0.4472 0)
(0.8944 0.4472 0)
(0.8944 0.4472 0)
(0.8944 0.4472 0)
(0.8944 0.4472 0)
(0.8944 0.447201 0)
(0.8944 0.447201 0)
(0.8944 0.447201 0)
(0.894401 0.447201 0)
(0.894401 0.447201 0)
(0.894402 0.447201 0)
(0.894403 0.4472 0)
(0.894404 0.447199 0)
(0.894405 0.447198 0)
(0.894407 0.447196 0)
(0.89441 0.447194 0)
(0.894412 0.447191 0)
(0.894414 0.447187 0)
(0.894417 0.447183 0)
(0.894419 0.447178 0)
(0.894421 0.447174 0)
(0.894422 0.447169 0)
(0.894422 0.447164 0)
(0.894421 0.447161 0)
(0.894418 0.447158 0)
(0.894414 0.447158 0)
(0.894408 0.447159 0)
(0.894401 0.447164 0)
(0.894393 0.447172 0)
(0.894383 0.447183 0)
(0.894372 0.447197 0)
(0.894362 0.447215 0)
(0.894352 0.447235 0)
(0.894343 0.447258 0)
(0.894335 0.447283 0)
(0.894329 0.447309 0)
(0.894325 0.447334 0)
(0.894324 0.447358 0)
(0.894325 0.447381 0)
(0.894328 0.447401 0)
(0.894334 0.447418 0)
(0.894342 0.44743 0)
(0.894351 0.447439 0)
(0.894362 0.447443 0)
(0.894373 0.447443 0)
(0.894384 0.447439 0)
(0.894395 0.447431 0)
(0.894405 0.44742 0)
(0.894414 0.447407 0)
(0.894422 0.447392 0)
(0.894428 0.447375 0)
(0.894433 0.447357 0)
(0.894436 0.44734 0)
(0.894438 0.447323 0)
(0.894438 0.447306 0)
(0.894438 0.44729 0)
(0.894436 0.447275 0)
(0.894433 0.447262 0)
(0.89443 0.44725 0)
(0.894427 0.44724 0)
(0.894423 0.447231 0)
(0.89442 0.447224 0)
(0.894416 0.447218 0)
(0.894413 0.447213 0)
(0.894411 0.447209 0)
(0.894408 0.447206 0)
(0.894406 0.447204 0)
(0.894404 0.447202 0)
(0.894403 0.447201 0)
(0.894402 0.4472 0)
(0.894401 0.4472 0)
(0.894401 0.4472 0)
(0.8944 0.447199 0)
(0.8944 0.447199 0)
(0.8944 0.447199 0)
(0.8944 0.4472 0)
(0.8944 0.4472 0)
(0.8944 0.4472 0)
(0.8944 0.4472 0)
(0.8944 0.4472 0)
(0.8944 0.4472 0)
(0.8944 0.4472 0)
(0.8944 0.4472 0)
(0.8944 0.4472 0)
(0.8944 0.4472 0)
(0.8944 0.4472 0)
(0.8944 0.4472 0)
(0.8944 0.4472 0)
(0.8944 0.4472 0)
(0.8944 0.4472 0)
(0.8944 0.4472 0)
(0.8944 0.4472 0)
(0.8944 0.4472 0)
(0.8944 0.4472 0)
(0.8944 0.4472 0)
(0.8944 0.4472 0)
(0.8944 0.4472 0)
(0.8944 0.4472 0)
(0.8944 0.4472 0)
(0.8944 0.4472 0)
(0.8944 0.4472 0)
(0.8944 0.4472 0)
(0.8944 0.4472 0)
(0.8944 0.4472 0)
(0.8944 0.4472 0)
(0.8944 0.4472 0)
(0.8944 0.4472 0)
(0.8944 0.4472 0)
(0.8944 0.4472 0)
(0.8944 0.4472 0)
(0.8944 0.4472 0)
(0.8944 0.4472 0)
(0.8944 0.4472 0)
(0.8944 0.4472 0)
(0.8944 0.4472 0)
(0.8944 0.4472 0)
(0.8944 0.4472 0)
(0.8944 0.4472 0)
(0.8944 0.4472 0)
(0.8944 0.4472 0)
(0.8944 0.4472 0)
(0.8944 0.4472 0)
(0.8944 0.4472 0)
(0.8944 0.4472 0)
(0.8944 0.4472 0)
(0.8944 0.4472 0)
(0.8944 0.4472 0)
(0.8944 0.4472 0)
(0.8944 0.4472 0)
(0.8944 0.4472 0)
(0.8944 0.4472 0)
(0.8944 0.4472 0)
(0.8944 0.4472 0)
(0.8944 0.4472 0)
(0.8944 0.4472 0)
(0.8944 0.4472 0)
(0.8944 0.4472 0)
(0.8944 0.4472 0)
(0.8944 0.4472 0)
(0.8944 0.4472 0)
(0.8944 0.4472 0)
(0.8944 0.4472 0)
(0.8944 0.4472 0)
(0.8944 0.4472 0)
(0.8944 0.4472 0)
(0.8944 0.4472 0)
(0.8944 0.4472 0)
(0.8944 0.4472 0)
(0.8944 0.4472 0)
(0.8944 0.4472 0)
(0.8944 0.4472 0)
(0.8944 0.4472 0)
(0.8944 0.4472 0)
(0.8944 0.447201 0)
(0.8944 0.447201 0)
(0.8944 0.447201 0)
(0.8944 0.447201 0)
(0.8944 0.447201 0)
(0.894401 0.447201 0)
(0.894401 0.447201 0)
(0.894402 0.447201 0)
(0.894403 0.4472 0)
(0.894405 0.4472 0)
(0.894407 0.447198 0)
(0.894409 0.447196 0)
(0.894412 0.447193 0)
(0.894415 0.44719 0)
(0.894418 0.447186 0)
(0.89442 0.447182 0)
(0.894423 0.447177 0)
(0.894424 0.447172 0)
(0.894425 0.447167 0)
(0.894424 0.447164 0)
(0.894422 0.447161 0)
(0.894418 0.447161 0)
(0.894411 0.447164 0)
(0.894403 0.447169 0)
(0.894393 0.447179 0)
(0.894381 0.447194 0)
(0.894369 0.447212 0)
(0.894355 0.447235 0)
(0.894342 0.447261 0)
(0.894329 0.447292 0)
(0.894318 0.447325 0)
(0.894308 0.44736 0)
(0.894302 0.447395 0)
(0.894298 0.447429 0)
(0.894298 0.447461 0)
(0.894301 0.44749 0)
(0.894307 0.447515 0)
(0.894316 0.447534 0)
(0.894328 0.447548 0)
(0.894341 0.447555 0)
(0.894356 0.447556 0)
(0.894371 0.447552 0)
(0.894386 0.447542 0)
(0.8944 0.447527 0)
(0.894413 0.447508 0)
(0.894424 0.447486 0)
(0.894434 0.447463 0)
(0.894441 0.447437 0)
(0.894447 0.447412 0)
(0.89445 0.447386 0)
(0.894451 0.447361 0)
(0.894451 0.447338 0)
(0.89445 0.447316 0)
(0.894447 0.447297 0)
(0.894444 0.447279 0)
(0.894439 0.447264 0)
(0.894435 0.44725 0)
(0.89443 0.447239 0)
(0.894425 0.447229 0)
(0.894421 0.447222 0)
(0.894417 0.447215 0)
(0.894413 0.447211 0)
(0.89441 0.447207 0)
(0.894408 0.447204 0)
(0.894406 0.447202 0)
(0.894404 0.447201 0)
(0.894403 0.4472 0)
(0.894402 0.447199 0)
(0.894401 0.447199 0)
(0.894401 0.447199 0)
(0.8944 0.447199 0)
(0.8944 0.447199 0)
(0.8944 0.447199 0)
(0.8944 0.447199 0)
(0.8944 0.4472 0)
(0.8944 0.4472 0)
(0.8944 0.4472 0)
(0.8944 0.4472 0)
(0.8944 0.4472 0)
(0.8944 0.4472 0)
(0.8944 0.4472 0)
(0.8944 0.4472 0)
(0.8944 0.4472 0)
(0.8944 0.4472 0)
(0.8944 0.4472 0)
(0.8944 0.4472 0)
(0.8944 0.4472 0)
(0.8944 0.4472 0)
(0.8944 0.4472 0)
(0.8944 0.4472 0)