/*--------------------------------*- C++ -*----------------------------------*\
  =========                 |
  \\      /  F ield         | OpenFOAM: The Open Source CFD Toolbox
   \\    /   O peration     | Website:  https://openfoam.org
    \\  /    A nd           | Version:  6
     \\/     M anipulation  |
\*---------------------------------------------------------------------------*/
FoamFile
{
    version     2.0;
    format      ascii;
    class       volScalarField;
    location    "2.1";
    object      p;
}
// * * * * * * * * * * * * * * * * * * * * * * * * * * * * * * * * * * * * * //

dimensions      [1 -1 -2 0 0 0 0];

internalField   nonuniform List<scalar> 
5625
(
1
1
1
1
1
1
1
1
1
1
1
1
1
1
1
1
1
1
1
1
1
1
1
1
1
1
1
1
1
1
1
1
1
1
1
1
1
1
1
1
1
1
1
1
1
1
1
1
1
1
1
1
1
1
1
1
1
1
1
1
1
1
1
1
1
1
1
1
1
1
1
1
1
1
1
1
1
1
1
1
1
1
1
1
1
1
1
1
1
1
1
1
1
1
1
1
1
1
1
1
1
1
1
1
1
1
1
1
1
1
1
1
1
1
1
1
1
1
1
1
1
1
1
1
1
1
1
1
1
1
1
1
1
1
1
1
1
1
1
1
1
1
1
1
1
1
1
1
1
1
1
1
1
0.999999
1
1
0.999999
1
1
1
1
1
1
1
1
1
1
1
1
1
1
1
1
1
1
1
1
1
1
1
1
1
1
1
1
1
1
1
1
1
1
1
1
1
1
1
1
1
1
1
1
1
1
1
1
1
1
1
1
1
1
1
1
1
1
1
1
1
1
1
1
1
1
1
1
0.999999
0.999999
0.999999
0.999999
0.999999
0.999999
0.999999
0.999999
0.999999
0.999999
0.999999
1
1
1
1
1
1
1
1
1
1
1
1
1
1
1
1
1
1
1
1
1
1
1
1
1
1
1
1
1
1
1
1
1
1
1
1
1
1
1
1
1
1
1
1
1
1
1
1
1
1
1
1
1
1
1
1
1
1
1
1
1
1
1
1
0.999999
0.999999
0.999999
0.999999
0.999999
0.999999
0.999999
0.999999
0.999999
0.999999
0.999999
0.999999
1
1
1
1
1
1
1
1
1
1
1
1
1
1
1
1
1
1
1
1
1
1
1
1
1
1
1
1
1
1
1
1
1
1
1
1
1
1
1
1
1
1
1
1
1
1
1
1
1
1
1
1
1
1
1
1
1
1
1
1
1
1
1
0.999999
0.999999
0.999999
0.999998
0.999998
0.999998
0.999999
0.999999
0.999999
0.999999
0.999999
0.999999
1
1
1
1
1
1
1
1
1
1
1
1
1
1
1
1
1
1
1
1
1
1
1
1
1
1
1
1
1
1
1
1
1
1
1
1
1
1
1
1
1
1
1
1
1
1
1
1
1
1
1
1
1
1
1
1
1
1
1
1
1
1
1
0.999998
0.999998
0.999998
0.999998
0.999998
0.999998
0.999998
0.999998
0.999998
0.999998
0.999999
0.999999
0.999999
1
1
1
1
1
1
1
1
1
1
1
1
1
1
1
1
1
1
1
1
1
1
1
1
1
1
1
1
1
1
1
1
1
1
1
1
1
1
1
1
1
1
1
1
1
1
1
1
1
1
1
1
1
1
1
1
1
1
1
1
1
1
0.999998
0.999997
0.999997
0.999997
0.999997
0.999997
0.999997
0.999997
0.999997
0.999998
0.999998
0.999998
0.999999
1
1
1
1
1
1
1
1
1
1
1
1
1
1
1
1
1
1
1
1
1
1
1
1
1
1
1
1
1
1
1
1
1
1
1
1
1
1
1
1
1
1
1
1
1
1
1
1
1
1
1
1
1
1
1
1
1
1
1
1
1
1
0.999997
0.999996
0.999996
0.999996
0.999996
0.999996
0.999996
0.999996
0.999996
0.999997
0.999997
0.999998
0.999999
1
1
1
1
1
1
1
1
1
1
1
1
1
1
1
1
1
1
1
1
1
1
1
1
1
1
1
1
1
1
1
1
1
1
1
1
1
1
1
1
1
1
1
1
1
1
1
1
1
1
1
1
1
1
1
1
1
1
1
1
1
1
0.999995
0.999995
0.999994
0.999994
0.999994
0.999994
0.999994
0.999994
0.999995
0.999996
0.999997
0.999997
0.999999
1
1
1
1
1
1
1.00001
1.00001
1.00001
1.00001
1.00001
1.00001
1.00001
1
1
1
1
1
1
1
1
1
1
1
1
1
1
1
1
1
1
1
1
1
1
1
1
1
1
1
1
1
1
1
1
1
1
1
1
1
1
1
1
1
1
1
1
1
1
1
1
1
0.999994
0.999993
0.999993
0.999992
0.999992
0.999992
0.999992
0.999993
0.999993
0.999994
0.999995
0.999997
0.999998
1
1
1
1
1.00001
1.00001
1.00001
1.00001
1.00001
1.00001
1.00001
1.00001
1.00001
1.00001
1.00001
1.00001
1
1
1
1
1
1
1
1
1
1
1
1
1
1
1
1
1
1
1
1
1
1
1
1
1
1
1
1
1
1
1
1
1
1
1
1
1
1
1
1
1
1
1
1
1
1
0.999992
0.999991
0.99999
0.999989
0.999989
0.999989
0.999989
0.99999
0.999991
0.999992
0.999994
0.999996
0.999998
1
1
1
1.00001
1.00001
1.00001
1.00001
1.00001
1.00001
1.00001
1.00001
1.00001
1.00001
1.00001
1.00001
1.00001
1.00001
1
1
1
1
1
1
1
1
1
1
1
1
1
1
1
1
1
1
1
1
1
1
1
1
1
1
1
1
1
1
1
1
1
1
1
1
1
1
1
1
1
1
1
1
1
0.999989
0.999988
0.999987
0.999986
0.999985
0.999985
0.999986
0.999987
0.999988
0.99999
0.999992
0.999994
0.999997
1
1
1.00001
1.00001
1.00001
1.00001
1.00001
1.00001
1.00002
1.00002
1.00002
1.00001
1.00001
1.00001
1.00001
1.00001
1.00001
1.00001
1.00001
1
1
1
1
1
1
1
1
1
1
1
1
1
1
1
1
1
1
1
1
1
1
1
1
1
1
1
1
1
1
1
1
1
1
1
1
1
1
1
1
1
1
1
0.999986
0.999984
0.999983
0.999982
0.999981
0.999981
0.999981
0.999983
0.999984
0.999986
0.99999
0.999993
0.999997
1
1
1.00001
1.00001
1.00001
1.00002
1.00002
1.00002
1.00002
1.00002
1.00002
1.00002
1.00002
1.00002
1.00001
1.00001
1.00001
1.00001
1.00001
1.00001
1
1
1
1
1
1
1
1
1
1
1
1
1
1
1
1
1
1
1
1
1
1
1
1
1
1
1
1
1
1
1
1
1
1
1
1
1
1
1
1
1
1
0.999982
0.999979
0.999978
0.999976
0.999976
0.999975
0.999976
0.999978
0.999981
0.999984
0.999988
0.999992
0.999997
1
1.00001
1.00001
1.00002
1.00002
1.00002
1.00003
1.00003
1.00003
1.00003
1.00003
1.00003
1.00002
1.00002
1.00002
1.00002
1.00001
1.00001
1.00001
1.00001
1.00001
1
1
1
1
1
1
1
1
1
1
1
1
1
1
1
1
1
1
1
1
1
1
1
1
1
1
1
1
1
1
1
1
1
1
1
1
1
1
1
1
1
0.999976
0.999973
0.999971
0.99997
0.999969
0.999969
0.99997
0.999973
0.999976
0.99998
0.999986
0.999992
0.999998
1
1.00001
1.00002
1.00002
1.00003
1.00003
1.00003
1.00004
1.00004
1.00004
1.00004
1.00003
1.00003
1.00003
1.00003
1.00002
1.00002
1.00002
1.00001
1.00001
1.00001
1.00001
1
1
1
1
1
1
1
1
1
1
1
1
1
1
1
1
1
1
1
1
1
1
1
1
1
1
1
1
1
1
1
1
1
1
1
1
1
1
1
1
0.99997
0.999967
0.999964
0.999963
0.999962
0.999963
0.999964
0.999968
0.999973
0.999978
0.999985
0.999993
1
1.00001
1.00002
1.00003
1.00003
1.00004
1.00004
1.00005
1.00005
1.00005
1.00005
1.00005
1.00004
1.00004
1.00004
1.00003
1.00003
1.00002
1.00002
1.00002
1.00001
1.00001
1.00001
1.00001
1
1
1
1
1
1
1
1
1
1
1
1
1
1
1
1
1
1
1
1
1
1
1
1
1
1
1
1
1
1
1
1
1
1
1
1
1
1
1
0.999962
0.999959
0.999956
0.999954
0.999954
0.999956
0.999959
0.999963
0.99997
0.999978
0.999987
0.999996
1.00001
1.00002
1.00003
1.00004
1.00005
1.00005
1.00006
1.00006
1.00006
1.00007
1.00006
1.00006
1.00006
1.00005
1.00005
1.00004
1.00004
1.00003
1.00003
1.00002
1.00002
1.00001
1.00001
1.00001
1.00001
1
1
1
1
1
1
1
1
1
1
1
1
1
1
1
1
1
1
1
1
1
1
1
1
1
1
1
1
1
1
1
1
1
1
1
1
1
1
0.999954
0.99995
0.999947
0.999946
0.999947
0.999949
0.999954
0.999961
0.999969
0.99998
0.999992
1
1.00002
1.00003
1.00005
1.00006
1.00007
1.00007
1.00008
1.00009
1.00009
1.00009
1.00008
1.00008
1.00007
1.00007
1.00006
1.00005
1.00005
1.00004
1.00003
1.00003
1.00002
1.00002
1.00001
1.00001
1.00001
1
1
1
1
1
1
1
1
1
1
1
1
1
1
1
1
1
1
1
1
1
1
1
1
1
1
1
1
1
1
1
1
1
1
1
1
1
1
0.999946
0.999942
0.99994
0.999939
0.999941
0.999946
0.999953
0.999963
0.999975
0.99999
1.00001
1.00002
1.00004
1.00006
1.00007
1.00009
1.0001
1.00011
1.00011
1.00012
1.00012
1.00012
1.00011
1.00011
1.0001
1.00009
1.00008
1.00007
1.00006
1.00005
1.00004
1.00003
1.00003
1.00002
1.00002
1.00001
1.00001
1.00001
1
1
1
1
1
1
1
1
1
1
1
1
1
1
1
1
1
1
1
1
1
1
1
1
1
1
1
1
1
1
1
1
1
1
1
1
1
0.999939
0.999935
0.999933
0.999934
0.999939
0.999947
0.999958
0.999973
0.99999
1.00001
1.00003
1.00005
1.00007
1.0001
1.00011
1.00013
1.00014
1.00015
1.00016
1.00016
1.00016
1.00016
1.00015
1.00014
1.00013
1.00012
1.0001
1.00009
1.00008
1.00006
1.00005
1.00004
1.00003
1.00003
1.00002
1.00001
1.00001
1.00001
1
1
1
1
1
0.999999
0.999999
0.999999
0.999999
1
1
1
1
1
1
1
1
1
1
1
1
1
1
1
1
1
1
1
1
1
1
1
1
1
1
1
1
0.999932
0.99993
0.999931
0.999935
0.999944
0.999958
0.999975
0.999997
1.00002
1.00005
1.00008
1.00011
1.00013
1.00016
1.00018
1.0002
1.00021
1.00022
1.00023
1.00023
1.00022
1.00021
1.0002
1.00018
1.00017
1.00015
1.00013
1.00011
1.0001
1.00008
1.00007
1.00005
1.00004
1.00003
1.00002
1.00002
1.00001
1.00001
1
1
1
1
0.999999
0.999999
0.999999
0.999999
0.999999
0.999999
0.999999
1
1
1
1
1
1
1
1
1
1
1
1
1
1
1
1
1
1
1
1
1
1
1
1
1
1
0.99993
0.999931
0.999936
0.999947
0.999963
0.999984
1.00001
1.00004
1.00008
1.00012
1.00015
1.00019
1.00023
1.00026
1.00028
1.0003
1.00032
1.00032
1.00032
1.00032
1.00031
1.00029
1.00027
1.00025
1.00022
1.0002
1.00017
1.00015
1.00012
1.0001
1.00008
1.00006
1.00005
1.00004
1.00003
1.00002
1.00001
1.00001
1
1
1
0.999999
0.999999
0.999999
0.999999
0.999999
0.999999
0.999999
0.999999
0.999999
1
1
1
1
1
1
1
1
1
1
1
1
1
1
1
1
1
1
1
1
1
1
1
1
1
0.999935
0.999942
0.999955
0.999974
1
1.00004
1.00008
1.00012
1.00017
1.00022
1.00028
1.00032
1.00037
1.00041
1.00044
1.00046
1.00047
1.00047
1.00047
1.00045
1.00043
1.0004
1.00037
1.00033
1.0003
1.00026
1.00022
1.00019
1.00016
1.00013
1.0001
1.00008
1.00006
1.00005
1.00003
1.00002
1.00001
1.00001
1
1
1
0.999999
0.999998
0.999998
0.999998
0.999998
0.999998
0.999999
0.999999
0.999999
0.999999
1
1
1
1
1
1
1
1
1
1
1
1
1
1
1
1
1
1
1
1
1
1
1
1
0.999952
0.999969
0.999993
1.00003
1.00007
1.00013
1.00019
1.00025
1.00032
1.0004
1.00047
1.00053
1.00059
1.00064
1.00067
1.00069
1.0007
1.00069
1.00067
1.00064
1.0006
1.00056
1.00051
1.00045
1.0004
1.00035
1.00029
1.00025
1.0002
1.00016
1.00013
1.0001
1.00008
1.00006
1.00004
1.00003
1.00002
1.00001
1
1
0.999999
0.999997
0.999997
0.999997
0.999997
0.999997
0.999998
0.999998
0.999999
0.999999
0.999999
0.999999
1
1
1
1
1
1
1
1
1
1
1
1
1
1
1
1
1
1
1
1
1
1
1
0.999988
1.00002
1.00006
1.00012
1.00019
1.00027
1.00036
1.00046
1.00056
1.00066
1.00076
1.00084
1.00091
1.00097
1.00101
1.00103
1.00103
1.00101
1.00097
1.00092
1.00085
1.00078
1.0007
1.00062
1.00054
1.00046
1.00039
1.00033
1.00027
1.00021
1.00017
1.00013
1.0001
1.00007
1.00005
1.00003
1.00002
1.00001
1
1
0.999997
0.999996
0.999995
0.999995
0.999996
0.999996
0.999997
0.999997
0.999998
0.999999
0.999999
0.999999
0.999999
1
1
1
1
1
1
1
1
1
1
1
1
1
1
1
1
1
1
1
1
1
1
1.00005
1.00011
1.00018
1.00027
1.00038
1.0005
1.00063
1.00077
1.00091
1.00105
1.00118
1.00129
1.00139
1.00145
1.0015
1.00151
1.0015
1.00146
1.00139
1.00131
1.0012
1.00109
1.00098
1.00086
1.00074
1.00063
1.00053
1.00043
1.00035
1.00028
1.00022
1.00016
1.00012
1.00009
1.00006
1.00004
1.00002
1.00001
1
0.999998
0.999995
0.999994
0.999993
0.999993
0.999994
0.999995
0.999996
0.999997
0.999997
0.999998
0.999999
0.999999
0.999999
0.999999
1
1
1
1
1
1
1
1
1
1
1
1
1
1
1
1
1
1
1
1
1
1.00016
1.00025
1.00036
1.0005
1.00066
1.00084
1.00103
1.00123
1.00142
1.00161
1.00179
1.00194
1.00206
1.00214
1.00219
1.00219
1.00216
1.00209
1.00198
1.00185
1.0017
1.00153
1.00136
1.00119
1.00102
1.00086
1.00071
1.00058
1.00046
1.00036
1.00028
1.00021
1.00015
1.00011
1.00007
1.00005
1.00003
1.00001
1
0.999996
0.999993
0.999991
0.999991
0.999991
0.999992
0.999993
0.999994
0.999996
0.999997
0.999997
0.999998
0.999999
0.999999
0.999999
1
1
1
1
1
1
1
1
1
1
1
1
1
1
1
1
1
1
1
1
1
1.00032
1.00046
1.00064
1.00084
1.00107
1.00133
1.0016
1.00188
1.00215
1.00241
1.00264
1.00284
1.003
1.0031
1.00315
1.00314
1.00308
1.00296
1.0028
1.00261
1.00238
1.00214
1.00189
1.00164
1.0014
1.00117
1.00097
1.00078
1.00062
1.00048
1.00037
1.00027
1.0002
1.00014
1.00009
1.00006
1.00003
1.00001
1
0.999994
0.99999
0.999988
0.999988
0.999989
0.99999
0.999991
0.999993
0.999994
0.999996
0.999997
0.999998
0.999998
0.999999
0.999999
0.999999
1
1
1
1
1
1
1
1
1
1
1
1
1
1
1
1
1
1
1
1
1.00057
1.00078
1.00104
1.00133
1.00166
1.00202
1.0024
1.00278
1.00316
1.00351
1.00382
1.00408
1.00428
1.0044
1.00445
1.00443
1.00432
1.00415
1.00392
1.00364
1.00332
1.00297
1.00262
1.00226
1.00192
1.00161
1.00132
1.00106
1.00084
1.00065
1.00049
1.00036
1.00026
1.00018
1.00012
1.00007
1.00004
1.00002
1
0.999991
0.999986
0.999984
0.999984
0.999985
0.999987
0.999989
0.999991
0.999993
0.999994
0.999996
0.999997
0.999998
0.999998
0.999999
0.999999
0.999999
1
1
1
1
1
1
1
1
1
1
1
1
1
1
1
1
1
1
1
1.00092
1.00123
1.0016
1.00202
1.00249
1.00298
1.0035
1.00402
1.00452
1.00499
1.0054
1.00573
1.00598
1.00614
1.00619
1.00614
1.00599
1.00574
1.00541
1.00502
1.00457
1.00409
1.0036
1.00311
1.00264
1.0022
1.0018
1.00144
1.00113
1.00087
1.00066
1.00048
1.00034
1.00024
1.00015
1.00009
1.00005
1.00002
0.999999
0.999987
0.999981
0.999979
0.999979
0.99998
0.999983
0.999985
0.999988
0.999991
0.999993
0.999994
0.999996
0.999997
0.999998
0.999999
0.999999
0.999999
1
1
1
1
1
1
1
1
1
1
1
1
1
1
1
1
1
1
1
1.00142
1.00186
1.00238
1.00296
1.0036
1.00428
1.00497
1.00566
1.00633
1.00693
1.00746
1.00789
1.00821
1.0084
1.00845
1.00837
1.00816
1.00782
1.00737
1.00683
1.00623
1.00557
1.0049
1.00423
1.00359
1.00299
1.00244
1.00195
1.00153
1.00118
1.00088
1.00065
1.00046
1.00031
1.0002
1.00012
1.00006
1.00003
1
0.999984
0.999976
0.999973
0.999973
0.999975
0.999978
0.999981
0.999985
0.999988
0.999991
0.999993
0.999995
0.999996
0.999997
0.999998
0.999999
0.999999
0.999999
1
1
1
1
1
1
1
1
1
1
1
1
1
1
1
1
1
1
1.00211
1.00272
1.00343
1.00422
1.00508
1.00598
1.0069
1.0078
1.00865
1.00943
1.0101
1.01064
1.01104
1.01127
1.01133
1.01121
1.01092
1.01047
1.00988
1.00917
1.00837
1.0075
1.0066
1.00571
1.00485
1.00404
1.0033
1.00264
1.00207
1.00159
1.00119
1.00087
1.00061
1.00042
1.00027
1.00016
1.00009
1.00004
1
0.999982
0.999971
0.999966
0.999966
0.999969
0.999972
0.999977
0.999981
0.999985
0.999988
0.999991
0.999993
0.999995
0.999997
0.999998
0.999998
0.999999
0.999999
1
1
1
1
1
1
1
1
1
1
1
1
1
1
1
1
1
1
1.00302
1.00386
1.00481
1.00587
1.007
1.00817
1.00935
1.0105
1.01157
1.01255
1.01338
1.01405
1.01453
1.01481
1.01487
1.01471
1.01435
1.01378
1.01302
1.01211
1.01108
1.00995
1.00879
1.00761
1.00648
1.0054
1.00442
1.00354
1.00278
1.00213
1.0016
1.00117
1.00083
1.00056
1.00037
1.00022
1.00012
1.00005
1.00001
0.999981
0.999966
0.99996
0.999959
0.999962
0.999966
0.999971
0.999977
0.999981
0.999986
0.999989
0.999992
0.999994
0.999996
0.999997
0.999998
0.999999
0.999999
0.999999
1
1
1
1
1
1
1
1
1
1
1
1
1
1
1
1
1
1.00423
1.00534
1.0066
1.00797
1.00942
1.01091
1.01239
1.01382
1.01514
1.01633
1.01733
1.01813
1.0187
1.01903
1.0191
1.01891
1.01846
1.01776
1.01684
1.01571
1.01442
1.013
1.01152
1.01002
1.00855
1.00715
1.00587
1.00471
1.0037
1.00285
1.00214
1.00156
1.00111
1.00076
1.0005
1.00031
1.00017
1.00008
1.00002
0.999982
0.999961
0.999952
0.999951
0.999954
0.999959
0.999965
0.999971
0.999977
0.999982
0.999987
0.99999
0.999993
0.999995
0.999996
0.999998
0.999998
0.999999
0.999999
1
1
1
1
1
1
1
1
1
1
1
1
1
1
1
1
1
1.00577
1.00723
1.00885
1.01059
1.01241
1.01425
1.01606
1.01778
1.01936
1.02075
1.02192
1.02285
1.0235
1.02388
1.02395
1.02373
1.02322
1.0224
1.02132
1.01997
1.01842
1.01669
1.01486
1.01299
1.01113
1.00935
1.0077
1.00621
1.0049
1.00378
1.00284
1.00209
1.00149
1.00102
1.00068
1.00042
1.00024
1.00012
1.00004
0.999987
0.999959
0.999946
0.999942
0.999945
0.999951
0.999958
0.999965
0.999972
0.999979
0.999984
0.999988
0.999991
0.999994
0.999996
0.999997
0.999998
0.999999
0.999999
0.999999
1
1
1
1
1
1
1
1
1
1
1
1
1
1
1
1
1.00771
1.00957
1.01161
1.01377
1.01599
1.0182
1.02034
1.02234
1.02414
1.02571
1.02702
1.02804
1.02876
1.02916
1.02925
1.02902
1.02846
1.02757
1.02635
1.02483
1.02304
1.02102
1.01883
1.01656
1.01427
1.01206
1.00998
1.00808
1.0064
1.00496
1.00375
1.00276
1.00198
1.00137
1.00091
1.00058
1.00034
1.00017
1.00007
0.999998
0.999959
0.99994
0.999934
0.999936
0.999942
0.99995
0.999959
0.999967
0.999974
0.999981
0.999986
0.99999
0.999993
0.999995
0.999996
0.999998
0.999998
0.999999
0.999999
1
1
1
1
1
1
1
1
1
1
1
1
1
1
1
1
1.01011
1.01242
1.01492
1.01752
1.02015
1.02271
1.02513
1.02735
1.02932
1.03099
1.03236
1.03342
1.03415
1.03457
1.03467
1.03445
1.03389
1.03299
1.03173
1.03011
1.02815
1.02588
1.02337
1.02071
1.01799
1.0153
1.01274
1.01038
1.00827
1.00643
1.00489
1.00362
1.00261
1.00182
1.00122
1.00078
1.00047
1.00025
1.00011
1.00002
0.999964
0.999937
0.999926
0.999927
0.999933
0.999942
0.999952
0.999961
0.99997
0.999977
0.999983
0.999987
0.999991
0.999994
0.999996
0.999997
0.999998
0.999999
0.999999
0.999999
1
1
1
1
1
1
1
1
1
1
1
1
1
1
1
1.01298
1.01579
1.01877
1.0218
1.02479
1.02764
1.03026
1.03258
1.03458
1.03624
1.03755
1.03854
1.03922
1.03961
1.03972
1.03954
1.03906
1.03824
1.03706
1.03547
1.03348
1.03109
1.02837
1.02538
1.02225
1.01909
1.01601
1.01314
1.01053
1.00825
1.0063
1.00469
1.0034
1.00239
1.00162
1.00105
1.00064
1.00036
1.00017
1.00005
0.999975
0.999936
0.99992
0.999918
0.999923
0.999933
0.999944
0.999955
0.999964
0.999973
0.99998
0.999985
0.999989
0.999993
0.999995
0.999997
0.999998
0.999998
0.999999
0.999999
1
1
1
1
1
1
1
1
1
1
1
1
1
1
1
1.01634
1.01966
1.0231
1.0265
1.02976
1.03275
1.03539
1.03764
1.03948
1.04093
1.04202
1.0428
1.04333
1.04363
1.04374
1.04365
1.04333
1.04274
1.0418
1.04046
1.03864
1.03633
1.03356
1.03039
1.02694
1.02335
1.01978
1.01637
1.01322
1.01043
1.00802
1.00601
1.00439
1.00311
1.00212
1.00139
1.00087
1.0005
1.00025
1.00009
0.999994
0.999941
0.999916
0.999909
0.999914
0.999923
0.999935
0.999948
0.999959
0.999968
0.999976
0.999983
0.999988
0.999991
0.999994
0.999996
0.999997
0.999998
0.999999
0.999999
1
1
1
1
1
1
1
1
1
1
1
1
1
1
1
1.02017
1.02397
1.02778
1.03142
1.03476
1.03768
1.04011
1.04202
1.04345
1.04444
1.04509
1.04549
1.04573
1.04588
1.04597
1.04602
1.04598
1.04577
1.0453
1.04444
1.04308
1.04114
1.03859
1.03546
1.03187
1.02798
1.02398
1.02004
1.01634
1.01299
1.01007
1.00761
1.00559
1.00399
1.00275
1.00183
1.00116
1.00068
1.00036
1.00015
1.00002
0.999951
0.999915
0.999903
0.999905
0.999914
0.999927
0.99994
0.999953
0.999964
0.999973
0.99998
0.999986
0.99999
0.999993
0.999995
0.999997
0.999998
0.999999
0.999999
0.999999
1
1
1
1
1
1
1
1
1
1
1
1
1
1
1.02438
1.02857
1.0326
1.03628
1.03944
1.04199
1.04388
1.04513
1.04582
1.04607
1.04603
1.04585
1.04566
1.04557
1.04563
1.04586
1.04621
1.04658
1.04682
1.04674
1.04618
1.04495
1.04297
1.04021
1.03676
1.03277
1.02847
1.02409
1.01986
1.01594
1.01246
1.00949
1.00703
1.00505
1.00352
1.00236
1.00152
1.00092
1.00051
1.00024
1.00007
0.99997
0.99992
0.999899
0.999897
0.999905
0.999918
0.999932
0.999946
0.999959
0.999969
0.999977
0.999984
0.999988
0.999992
0.999995
0.999996
0.999998
0.999998
0.999999
0.999999
1
1
1
1
1
1
1
1
1
1
1
1
1
1
1.02885
1.03326
1.03728
1.04069
1.04334
1.04514
1.0461
1.04632
1.04592
1.04512
1.04413
1.04315
1.04239
1.04198
1.042
1.04247
1.04333
1.04445
1.04564
1.04666
1.04725
1.04714
1.04615
1.04417
1.04122
1.03744
1.03307
1.02839
1.0237
1.01924
1.01519
1.01167
1.00871
1.00632
1.00444
1.00301
1.00196
1.00121
1.00069
1.00035
1.00013
1
0.99993
0.999899
0.999891
0.999897
0.99991
0.999925
0.99994
0.999953
0.999965
0.999974
0.999981
0.999987
0.999991
0.999994
0.999996
0.999997
0.999998
0.999999
0.999999
1
1
1
1
1
1
1
1
1
1
1
1
1
1
1.03338
1.03776
1.04146
1.04423
1.04595
1.04659
1.04621
1.04498
1.04314
1.04098
1.03877
1.03681
1.03534
1.03454
1.03451
1.03527
1.03675
1.0388
1.04118
1.04359
1.04569
1.04712
1.04757
1.04682
1.04481
1.04163
1.0375
1.03276
1.02775
1.02282
1.01822
1.01413
1.01065
1.00779
1.00553
1.00379
1.0025
1.00157
1.00092
1.00049
1.00021
1.00004
0.999948
0.999903
0.999888
0.999891
0.999903
0.999918
0.999934
0.999948
0.999961
0.999971
0.999979
0.999985
0.99999
0.999993
0.999995
0.999997
0.999998
0.999999
0.999999
1
1
1
1
1
1
1
1
1
1
1
1
1
1
1.03771
1.04175
1.04473
1.04645
1.0468
1.04582
1.04368
1.04063
1.037
1.03317
1.02952
1.0264
1.02411
1.02285
1.02277
1.02387
1.02609
1.02923
1.03302
1.0371
1.04104
1.04438
1.04671
1.04768
1.04709
1.04496
1.04147
1.03696
1.03185
1.02658
1.02149
1.01686
1.01283
1.00948
1.00679
1.0047
1.00314
1.002
1.0012
1.00066
1.00031
1.0001
0.999975
0.999912
0.999888
0.999886
0.999896
0.999911
0.999927
0.999943
0.999957
0.999968
0.999977
0.999983
0.999988
0.999992
0.999995
0.999996
0.999998
0.999998
0.999999
0.999999
1
1
1
1
1
1
1
1
1
1
1
1
1
1.04157
1.04488
1.04672
1.04693
1.04546
1.04244
1.03813
1.03289
1.02716
1.0214
1.01609
1.01165
1.00842
1.00667
1.00653
1.00805
1.01111
1.01551
1.02091
1.02691
1.03298
1.0386
1.04321
1.04634
1.04766
1.04705
1.04463
1.04073
1.03582
1.03039
1.02493
1.0198
1.01523
1.01136
1.00821
1.00574
1.00388
1.00251
1.00154
1.00088
1.00044
1.00017
1.00001
0.999928
0.999891
0.999883
0.99989
0.999905
0.999922
0.999938
0.999953
0.999965
0.999974
0.999982
0.999987
0.999991
0.999994
0.999996
0.999997
0.999998
0.999999
0.999999
1
1
1
1
1
1
1
1
1
1
1
1
1
1.04465
1.04681
1.04709
1.04534
1.04163
1.03618
1.02934
1.02158
1.01344
1.00551
0.998324
0.992396
0.988134
0.985832
0.985663
0.987649
0.991676
0.997495
1.00473
1.01288
1.02138
1.02958
1.03682
1.04252
1.04619
1.04758
1.0467
1.04382
1.03943
1.0341
1.02843
1.02288
1.01781
1.01343
1.0098
1.00692
1.00472
1.00309
1.00193
1.00113
1.0006
1.00026
1.00006
0.999952
0.9999
0.999884
0.999887
0.9999
0.999916
0.999933
0.999949
0.999962
0.999972
0.99998
0.999986
0.999991
0.999994
0.999996
0.999997
0.999998
0.999999
0.999999
1
1
1
1
1
1
1
1
1
1
1
1
1
1.04667
1.04729
1.04557
1.04148
1.03515
1.0269
1.01719
1.00659
0.995776
0.985407
0.97614
0.96856
0.96315
0.960248
0.96005
0.962577
0.967699
0.975119
0.984396
0.994967
1.00616
1.01724
1.02745
1.03607
1.04249
1.04631
1.0474
1.04597
1.04248
1.03754
1.03186
1.02603
1.02053
1.01565
1.01154
1.00823
1.00567
1.00376
1.00238
1.00143
1.00078
1.00037
1.00013
0.999985
0.999915
0.999888
0.999886
0.999896
0.999912
0.999929
0.999945
0.999959
0.99997
0.999978
0.999985
0.99999
0.999993
0.999996
0.999997
0.999998
0.999999
0.999999
1
1
1
1
1
1
1
1
1
1
1
1
1
1.04744
1.04612
1.04205
1.03525
1.02596
1.01459
1.00169
0.987954
0.974154
0.961085
0.949503
0.940093
0.933408
0.92984
0.929612
0.932751
0.9391
0.948315
0.959882
0.973145
0.987331
1.0016
1.01509
1.02696
1.03647
1.0431
1.04658
1.04701
1.04478
1.04055
1.0351
1.02915
1.0233
1.01797
1.0134
1.00965
1.00671
1.0045
1.00289
1.00176
1.001
1.00051
1.0002
1.00003
0.999935
0.999896
0.999887
0.999894
0.999909
0.999926
0.999942
0.999956
0.999968
0.999977
0.999984
0.999989
0.999993
0.999995
0.999997
0.999998
0.999999
0.999999
0.999999
1
1
1
1
1
1
1
1
1
1
1
1
1.0468
1.04322
1.03648
1.02668
1.01413
0.999323
0.982915
0.965722
0.94863
0.932577
0.918437
0.907002
0.898903
0.894596
0.894331
0.898144
0.905855
0.917065
0.931176
0.947425
0.964921
0.982698
0.999777
1.01521
1.02814
1.03792
1.04414
1.04679
1.04619
1.043
1.03803
1.03215
1.02608
1.02037
1.01535
1.01117
1.00785
1.00532
1.00346
1.00214
1.00125
1.00066
1.00029
1.00008
0.999963
0.999908
0.999891
0.999894
0.999907
0.999924
0.99994
0.999954
0.999966
0.999975
0.999983
0.999988
0.999992
0.999995
0.999997
0.999998
0.999999
0.999999
0.999999
1
1
1
1
1
1
1
1
1
1
1
1
1.04473
1.03861
1.02894
1.01588
0.99979
0.981244
0.961007
0.940022
0.919326
0.900001
0.883059
0.869406
0.859759
0.854635
0.854319
0.858859
0.868055
0.881451
0.898358
0.917891
0.939017
0.960632
0.98162
1.00092
1.01756
1.03078
1.04006
1.04526
1.04662
1.04476
1.04055
1.03494
1.02878
1.02277
1.01735
1.01275
1.00905
1.00619
1.00408
1.00256
1.00152
1.00084
1.0004
1.00014
0.999997
0.999926
0.999899
0.999897
0.999907
0.999922
0.999938
0.999953
0.999965
0.999975
0.999982
0.999988
0.999992
0.999994
0.999996
0.999998
0.999998
0.999999
0.999999
1
1
1
1
1
1
1
1
1
1
1
1
1.04127
1.03239
1.01958
1.00302
0.98313
0.960548
0.936162
0.911063
0.886462
0.8636
0.843642
0.827604
0.816289
0.810279
0.809892
0.815197
0.825977
0.841729
0.861664
0.884756
0.909816
0.935578
0.960782
0.984233
1.00486
1.02179
1.03439
1.04242
1.04602
1.04578
1.04258
1.03744
1.03135
1.02514
1.01938
1.01439
1.01031
1.00712
1.00474
1.00302
1.00183
1.00103
1.00052
1.00021
1.00004
0.999948
0.99991
0.999902
0.999909
0.999922
0.999937
0.999952
0.999964
0.999974
0.999981
0.999987
0.999991
0.999994
0.999996
0.999998
0.999998
0.999999
0.999999
1
1
1
1
1
1
1
1
1
1
1
1
1.03651
1.02473
1.0086
0.988343
0.964398
0.9375
0.908667
0.879166
0.850403
0.823799
0.800666
0.782126
0.769064
0.762111
0.761633
0.767721
0.780154
0.798385
0.821528
0.84841
0.877663
0.90784
0.937523
0.965379
0.990225
1.01108
1.02723
1.03832
1.04441
1.04603
1.04406
1.03959
1.03372
1.02742
1.02138
1.01604
1.0116
1.00809
1.00543
1.0035
1.00215
1.00124
1.00066
1.0003
1.00009
0.999976
0.999925
0.999909
0.999912
0.999923
0.999937
0.999951
0.999963
0.999973
0.999981
0.999987
0.999991
0.999994
0.999996
0.999997
0.999998
0.999999
0.999999
1
1
1
1
1
1
1
1
1
1
1
1
1.03064
1.01583
0.996248
0.972117
0.943907
0.912447
0.87892
0.844796
0.811701
0.781234
0.754855
0.733771
0.718933
0.711015
0.71042
0.717278
0.731385
0.752158
0.77862
0.809444
0.843076
0.877871
0.91223
0.944677
0.973915
0.998868
1.01873
1.03306
1.04184
1.04552
1.04498
1.04135
1.03586
1.02957
1.02333
1.01768
1.0129
1.00907
1.00615
1.00401
1.0025
1.00147
1.0008
1.00039
1.00014
1.00001
0.999944
0.999919
0.999917
0.999926
0.999939
0.999952
0.999964
0.999973
0.999981
0.999987
0.999991
0.999994
0.999996
0.999997
0.999998
0.999999
0.999999
1
1
1
1
1
1
1
1
1
1
1
1
1.02385
1.00594
0.982812
0.954673
0.922034
0.885834
0.84745
0.808587
0.771097
0.736765
0.707171
0.683593
0.667017
0.658141
0.657411
0.665001
0.680742
0.704038
0.733831
0.768649
0.806743
0.846259
0.885406
0.92255
0.95628
0.985429
1.00911
1.0268
1.03839
1.04429
1.04534
1.04272
1.03772
1.03156
1.02519
1.01928
1.01419
1.01007
1.00688
1.00453
1.00285
1.00171
1.00096
1.00049
1.0002
1.00005
0.999966
0.999932
0.999924
0.99993
0.999941
0.999953
0.999964
0.999974
0.999981
0.999987
0.999991
0.999994
0.999996
0.999997
0.999998
0.999999
0.999999
1
1
1
1
1
1
1
1
1
1
1
1
1.01637
0.995335
0.968616
0.936397
0.89924
0.858217
0.814922
0.771324
0.729509
0.691439
0.658784
0.632861
0.614657
0.604876
0.603998
0.612254
0.629524
0.655229
0.688249
0.726987
0.7695
0.81372
0.857656
0.899509
0.937742
0.971101
0.99863
1.01972
1.03421
1.04242
1.04518
1.04369
1.0393
1.03336
1.02693
1.02081
1.01545
1.01105
1.00761
1.00505
1.00322
1.00196
1.00112
1.00059
1.00027
1.00009
0.999991
0.999947
0.999934
0.999935
0.999944
0.999955
0.999965
0.999974
0.999982
0.999987
0.999991
0.999994
0.999996
0.999998
0.999998
0.999999
0.999999
1
1
1
1
1
1
1
1
1
1
1
1
1.00845
0.98431
0.954013
0.917722
0.876055
0.830239
0.782117
0.733926
0.687993
0.646438
0.610994
0.582974
0.563326
0.552739
0.551714
0.560542
0.579173
0.607068
0.64309
0.685532
0.732284
0.781063
0.82967
0.876132
0.91878
0.956277
0.987595
1.01207
1.02946
1.04003
1.04457
1.04428
1.0406
1.03495
1.02854
1.02226
1.01666
1.012
1.00833
1.00557
1.00359
1.00221
1.00129
1.0007
1.00034
1.00013
1.00002
0.999965
0.999945
0.999942
0.999949
0.999958
0.999967
0.999976
0.999982
0.999988
0.999992
0.999994
0.999996
0.999998
0.999998
0.999999
0.999999
1
1
1
1
1
1
1
1
1
1
1
1
1.00033
0.973178
0.93939
0.899127
0.853073
0.802631
0.749894
0.697389
0.647673
0.603003
0.565142
0.535356
0.514515
0.503259
0.502097
0.511381
0.531141
0.560911
0.599579
0.645386
0.696068
0.749136
0.802176
0.853034
0.899913
0.941381
0.97635
1.0041
1.02432
1.03723
1.04357
1.04453
1.04161
1.03632
1.02999
1.02359
1.01779
1.0129
1.00902
1.00608
1.00394
1.00246
1.00146
1.00081
1.00041
1.00018
1.00005
0.999985
0.999958
0.999951
0.999954
0.999962
0.99997
0.999977
0.999983
0.999988
0.999992
0.999995
0.999996
0.999998
0.999999
0.999999
0.999999
1
1
1
1
1
1
1
1
1
1
1
1
0.992303
0.96226
0.925146
0.881115
0.830924
0.776153
0.719152
0.66273
0.609666
0.562334
0.522498
0.49133
0.469585
0.457824
0.456547
0.466149
0.48675
0.517995
0.558859
0.607583
0.661782
0.718767
0.775902
0.830847
0.88167
0.926855
0.965253
0.996092
1.01902
1.03418
1.04228
1.04451
1.04238
1.03749
1.03127
1.02481
1.01884
1.01375
1.00967
1.00656
1.00429
1.0027
1.00162
1.00092
1.00049
1.00023
1.00008
1.00001
0.999972
0.999961
0.999961
0.999966
0.999973
0.99998
0.999985
0.999989
0.999993
0.999995
0.999997
0.999998
0.999999
0.999999
0.999999
1
1
1
1
1
1
1
1
1
1
1
1
0.984607
0.951879
0.911684
0.864196
0.810238
0.751562
0.690768
0.630919
0.575013
0.525518
0.484167
0.452012
0.429659
0.417567
0.416196
0.425969
0.447094
0.479364
0.521904
0.573018
0.630252
0.690713
0.751533
0.810174
0.864572
0.913134
0.954661
0.98834
1.01377
1.03105
1.04082
1.04426
1.04292
1.03846
1.03238
1.02589
1.01979
1.01453
1.01027
1.00701
1.00461
1.00293
1.00178
1.00103
1.00056
1.00028
1.00012
1.00003
0.999988
0.999972
0.999968
0.999971
0.999976
0.999982
0.999987
0.99999
0.999993
0.999996
0.999997
0.999998
0.999999
0.999999
0.999999
1
1
1
1
1
1
1
1
1
1
1
1
0.977504
0.942351
0.899393
0.848849
0.791612
0.729573
0.665547
0.602832
0.544617
0.49345
0.45102
0.41824
0.395552
0.383291
0.381852
0.391655
0.412994
0.445831
0.489497
0.542437
0.60217
0.665621
0.729671
0.791564
0.849104
0.900633
0.944921
0.981121
1.00879
1.02798
1.03929
1.04387
1.04328
1.03924
1.03332
1.02682
1.02062
1.01521
1.01081
1.00742
1.00491
1.00314
1.00193
1.00114
1.00063
1.00033
1.00015
1.00005
1.00001
0.999984
0.999977
0.999977
0.99998
0.999985
0.999988
0.999992
0.999994
0.999996
0.999997
0.999998
0.999999
0.999999
1
1
1
1
1
1
1
1
1
1
1
1
1
0.971229
0.933966
0.888631
0.835511
0.77557
0.7108
0.644176
0.579192
0.519196
0.466808
0.42367
0.390559
0.36776
0.355469
0.353987
0.363705
0.384985
0.41797
0.462241
0.516436
0.578111
0.644034
0.710822
0.77549
0.835696
0.889731
0.93635
0.974693
1.00429
1.02514
1.0378
1.0434
1.0435
1.03985
1.0341
1.02761
1.02133
1.01581
1.01128
1.00777
1.00518
1.00333
1.00207
1.00123
1.0007
1.00038
1.00019
1.00008
1.00002
0.999996
0.999986
0.999984
0.999985
0.999988
0.999991
0.999993
0.999995
0.999997
0.999998
0.999999
0.999999
0.999999
1
1
1
1
1
1
1
1
1
1
1
1
1
0.966
0.926988
0.87971
0.824541
0.762532
0.695726
0.627194
0.560551
0.499277
0.446051
0.402487
0.369252
0.346491
0.334266
0.332762
0.342317
0.363337
0.396135
0.440555
0.495478
0.558544
0.626398
0.695408
0.762339
0.824704
0.880746
0.929225
0.969288
1.00045
1.02267
1.03646
1.04292
1.04361
1.0403
1.03471
1.02824
1.02191
1.01629
1.01167
1.00807
1.0054
1.0035
1.00219
1.00132
1.00077
1.00042
1.00022
1.0001
1.00004
1.00001
0.999995
0.999991
0.99999
0.999991
0.999993
0.999995
0.999996
0.999997
0.999998
0.999999
0.999999
1
1
1
1
1
1
1
1
1
1
1
1
1
1
0.961999
0.921644
0.872887
0.816228
0.7528
0.684678
0.614946
0.547265
0.485186
0.43144
0.387641
0.354391
0.331741
0.319625
0.31811
0.327459
0.348098
0.380482
0.424703
0.4799
0.543838
0.613084
0.683773
0.752427
0.816411
0.873932
0.92377
0.965097
0.997426
1.02069
1.03535
1.04249
1.04365
1.04063
1.03517
1.02872
1.02235
1.01667
1.01198
1.00831
1.00558
1.00363
1.00229
1.0014
1.00082
1.00047
1.00025
1.00013
1.00006
1.00002
1.00001
0.999998
0.999995
0.999995
0.999996
0.999997
0.999998
0.999998
0.999999
0.999999
1
1
1
1
1
1
1
1
1
1
1
1
1
1
1
0.959361
0.918117
0.86837
0.810773
0.746558
0.677823
0.60759
0.53948
0.477048
0.423058
0.379146
0.345915
0.323371
0.311356
0.309827
0.318966
0.339186
0.371039
0.414828
0.469937
0.53428
0.604383
0.67619
0.745996
0.811031
0.869474
0.920148
0.962261
0.99534
1.01929
1.03456
1.04217
1.04366
1.04084
1.03547
1.02905
1.02265
1.01693
1.01219
1.00848
1.00572
1.00374
1.00237
1.00146
1.00087
1.00051
1.00028
1.00015
1.00008
1.00004
1.00002
1.00001
1
0.999999
0.999998
0.999998
0.999999
0.999999
0.999999
1
1
1
1
1
1
1
1
1
1
1
1
1
1
1
1
0.958176
0.916531
0.866309
0.80831
0.743894
0.675183
0.605097
0.537143
0.474792
0.420813
0.376887
0.343671
0.321188