/*--------------------------------*- C++ -*----------------------------------*\
  =========                 |
  \\      /  F ield         | OpenFOAM: The Open Source CFD Toolbox
   \\    /   O peration     | Website:  https://openfoam.org
    \\  /    A nd           | Version:  6
     \\/     M anipulation  |
\*---------------------------------------------------------------------------*/
FoamFile
{
    version     2.0;
    format      ascii;
    class       volVectorField;
    location    "2.1";
    object      U;
}
// * * * * * * * * * * * * * * * * * * * * * * * * * * * * * * * * * * * * * //

dimensions      [0 1 -1 0 0 0 0];

internalField   nonuniform List<vector> 
5625
(
(0.8944 0.4472 0)
(0.8944 0.4472 0)
(0.8944 0.4472 0)
(0.8944 0.4472 0)
(0.8944 0.4472 0)
(0.8944 0.4472 0)
(0.8944 0.4472 0)
(0.8944 0.4472 0)
(0.8944 0.4472 0)
(0.8944 0.4472 0)
(0.8944 0.4472 0)
(0.8944 0.4472 0)
(0.8944 0.4472 0)
(0.8944 0.4472 0)
(0.8944 0.4472 0)
(0.8944 0.4472 0)
(0.8944 0.4472 0)
(0.8944 0.4472 0)
(0.8944 0.4472 0)
(0.8944 0.4472 0)
(0.8944 0.4472 0)
(0.8944 0.4472 0)
(0.8944 0.4472 0)
(0.8944 0.4472 0)
(0.8944 0.4472 0)
(0.8944 0.4472 0)
(0.8944 0.4472 0)
(0.8944 0.4472 0)
(0.8944 0.4472 0)
(0.8944 0.4472 0)
(0.8944 0.4472 0)
(0.8944 0.4472 0)
(0.8944 0.4472 0)
(0.8944 0.4472 0)
(0.8944 0.4472 0)
(0.8944 0.4472 0)
(0.8944 0.4472 0)
(0.8944 0.4472 0)
(0.8944 0.4472 0)
(0.8944 0.4472 0)
(0.8944 0.4472 0)
(0.8944 0.4472 0)
(0.8944 0.4472 0)
(0.8944 0.4472 0)
(0.8944 0.4472 0)
(0.8944 0.4472 0)
(0.8944 0.4472 0)
(0.8944 0.4472 0)
(0.8944 0.4472 0)
(0.8944 0.4472 0)
(0.8944 0.4472 0)
(0.8944 0.4472 0)
(0.8944 0.4472 0)
(0.8944 0.4472 0)
(0.8944 0.4472 0)
(0.8944 0.4472 0)
(0.8944 0.4472 0)
(0.8944 0.4472 0)
(0.8944 0.4472 0)
(0.8944 0.4472 0)
(0.8944 0.4472 0)
(0.8944 0.4472 0)
(0.8944 0.4472 0)
(0.8944 0.4472 0)
(0.8944 0.4472 0)
(0.8944 0.4472 0)
(0.8944 0.4472 0)
(0.8944 0.4472 0)
(0.8944 0.4472 0)
(0.8944 0.4472 0)
(0.8944 0.4472 0)
(0.8944 0.4472 0)
(0.8944 0.4472 0)
(0.8944 0.4472 0)
(0.8944 0.4472 0)
(0.8944 0.4472 0)
(0.8944 0.4472 0)
(0.8944 0.4472 0)
(0.8944 0.4472 0)
(0.8944 0.4472 0)
(0.8944 0.4472 0)
(0.8944 0.4472 0)
(0.8944 0.4472 0)
(0.8944 0.4472 0)
(0.8944 0.4472 0)
(0.8944 0.4472 0)
(0.8944 0.4472 0)
(0.8944 0.4472 0)
(0.8944 0.4472 0)
(0.8944 0.4472 0)
(0.8944 0.4472 0)
(0.8944 0.4472 0)
(0.8944 0.4472 0)
(0.8944 0.4472 0)
(0.8944 0.4472 0)
(0.8944 0.4472 0)
(0.8944 0.4472 0)
(0.8944 0.4472 0)
(0.8944 0.4472 0)
(0.8944 0.4472 0)
(0.8944 0.4472 0)
(0.8944 0.4472 0)
(0.8944 0.4472 0)
(0.8944 0.4472 0)
(0.8944 0.4472 0)
(0.8944 0.4472 0)
(0.8944 0.4472 0)
(0.8944 0.4472 0)
(0.8944 0.4472 0)
(0.8944 0.4472 0)
(0.8944 0.4472 0)
(0.8944 0.4472 0)
(0.8944 0.4472 0)
(0.8944 0.4472 0)
(0.8944 0.4472 0)
(0.8944 0.4472 0)
(0.8944 0.4472 0)
(0.8944 0.4472 0)
(0.8944 0.4472 0)
(0.8944 0.4472 0)
(0.8944 0.4472 0)
(0.8944 0.4472 0)
(0.8944 0.4472 0)
(0.8944 0.4472 0)
(0.8944 0.4472 0)
(0.8944 0.4472 0)
(0.8944 0.4472 0)
(0.8944 0.4472 0)
(0.8944 0.4472 0)
(0.8944 0.4472 0)
(0.8944 0.4472 0)
(0.8944 0.4472 0)
(0.8944 0.4472 0)
(0.8944 0.4472 0)
(0.8944 0.4472 0)
(0.8944 0.4472 0)
(0.8944 0.4472 0)
(0.8944 0.4472 0)
(0.8944 0.4472 0)
(0.8944 0.4472 0)
(0.8944 0.4472 0)
(0.8944 0.4472 0)
(0.8944 0.4472 0)
(0.8944 0.4472 0)
(0.8944 0.4472 0)
(0.8944 0.4472 0)
(0.8944 0.4472 0)
(0.8944 0.4472 0)
(0.8944 0.4472 0)
(0.8944 0.4472 0)
(0.8944 0.4472 0)
(0.8944 0.4472 0)
(0.8944 0.4472 0)
(0.8944 0.4472 0)
(0.8944 0.4472 0)
(0.8944 0.4472 0)
(0.8944 0.4472 0)
(0.8944 0.4472 0)
(0.8944 0.4472 0)
(0.8944 0.4472 0)
(0.8944 0.4472 0)
(0.8944 0.4472 0)
(0.8944 0.4472 0)
(0.8944 0.4472 0)
(0.8944 0.4472 0)
(0.8944 0.4472 0)
(0.8944 0.4472 0)
(0.8944 0.4472 0)
(0.8944 0.4472 0)
(0.8944 0.4472 0)
(0.8944 0.4472 0)
(0.8944 0.4472 0)
(0.8944 0.4472 0)
(0.8944 0.4472 0)
(0.8944 0.4472 0)
(0.8944 0.4472 0)
(0.8944 0.4472 0)
(0.8944 0.4472 0)
(0.8944 0.4472 0)
(0.8944 0.4472 0)
(0.8944 0.4472 0)
(0.8944 0.4472 0)
(0.8944 0.4472 0)
(0.8944 0.4472 0)
(0.8944 0.4472 0)
(0.8944 0.4472 0)
(0.8944 0.4472 0)
(0.8944 0.4472 0)
(0.8944 0.4472 0)
(0.8944 0.4472 0)
(0.8944 0.4472 0)
(0.8944 0.4472 0)
(0.8944 0.4472 0)
(0.8944 0.4472 0)
(0.8944 0.4472 0)
(0.8944 0.4472 0)
(0.8944 0.4472 0)
(0.8944 0.4472 0)
(0.8944 0.4472 0)
(0.8944 0.4472 0)
(0.8944 0.4472 0)
(0.8944 0.4472 0)
(0.8944 0.4472 0)
(0.8944 0.4472 0)
(0.8944 0.4472 0)
(0.8944 0.4472 0)
(0.8944 0.4472 0)
(0.8944 0.4472 0)
(0.8944 0.4472 0)
(0.8944 0.4472 0)
(0.8944 0.4472 0)
(0.8944 0.4472 0)
(0.8944 0.4472 0)
(0.8944 0.4472 0)
(0.8944 0.4472 0)
(0.8944 0.4472 0)
(0.8944 0.4472 0)
(0.8944 0.4472 0)
(0.8944 0.4472 0)
(0.8944 0.4472 0)
(0.8944 0.4472 0)
(0.8944 0.4472 0)
(0.8944 0.4472 0)
(0.8944 0.4472 0)
(0.8944 0.4472 0)
(0.8944 0.4472 0)
(0.8944 0.447199 0)
(0.8944 0.447199 0)
(0.8944 0.447199 0)
(0.8944 0.447199 0)
(0.8944 0.447199 0)
(0.8944 0.447199 0)
(0.8944 0.447199 0)
(0.8944 0.447199 0)
(0.8944 0.447199 0)
(0.8944 0.4472 0)
(0.8944 0.4472 0)
(0.8944 0.4472 0)
(0.8944 0.4472 0)
(0.8944 0.4472 0)
(0.8944 0.4472 0)
(0.8944 0.4472 0)
(0.8944 0.447201 0)
(0.8944 0.447201 0)
(0.8944 0.447201 0)
(0.8944 0.447201 0)
(0.8944 0.447201 0)
(0.8944 0.447201 0)
(0.8944 0.447201 0)
(0.8944 0.447201 0)
(0.8944 0.447201 0)
(0.8944 0.447201 0)
(0.8944 0.4472 0)
(0.8944 0.4472 0)
(0.8944 0.4472 0)
(0.8944 0.4472 0)
(0.8944 0.4472 0)
(0.8944 0.4472 0)
(0.8944 0.4472 0)
(0.8944 0.4472 0)
(0.8944 0.4472 0)
(0.8944 0.4472 0)
(0.8944 0.4472 0)
(0.8944 0.4472 0)
(0.8944 0.4472 0)
(0.8944 0.4472 0)
(0.8944 0.4472 0)
(0.8944 0.4472 0)
(0.8944 0.4472 0)
(0.8944 0.4472 0)
(0.8944 0.4472 0)
(0.8944 0.4472 0)
(0.8944 0.4472 0)
(0.8944 0.4472 0)
(0.8944 0.4472 0)
(0.8944 0.4472 0)
(0.8944 0.4472 0)
(0.8944 0.4472 0)
(0.8944 0.4472 0)
(0.8944 0.4472 0)
(0.8944 0.4472 0)
(0.8944 0.4472 0)
(0.8944 0.4472 0)
(0.8944 0.4472 0)
(0.8944 0.4472 0)
(0.8944 0.4472 0)
(0.8944 0.4472 0)
(0.8944 0.4472 0)
(0.8944 0.4472 0)
(0.8944 0.4472 0)
(0.8944 0.4472 0)
(0.8944 0.4472 0)
(0.8944 0.4472 0)
(0.8944 0.4472 0)
(0.8944 0.4472 0)
(0.8944 0.4472 0)
(0.8944 0.4472 0)
(0.8944 0.4472 0)
(0.8944 0.4472 0)
(0.8944 0.4472 0)
(0.8944 0.447199 0)
(0.8944 0.447199 0)
(0.8944 0.447199 0)
(0.8944 0.447199 0)
(0.8944 0.447199 0)
(0.8944 0.447199 0)
(0.8944 0.447199 0)
(0.8944 0.447199 0)
(0.8944 0.447199 0)
(0.8944 0.447199 0)
(0.8944 0.447199 0)
(0.8944 0.4472 0)
(0.8944 0.4472 0)
(0.8944 0.4472 0)
(0.8944 0.4472 0)
(0.8944 0.4472 0)
(0.8944 0.4472 0)
(0.8944 0.447201 0)
(0.8944 0.447201 0)
(0.8944 0.447201 0)
(0.8944 0.447201 0)
(0.8944 0.447201 0)
(0.8944 0.447201 0)
(0.8944 0.447201 0)
(0.8944 0.447201 0)
(0.8944 0.447201 0)
(0.8944 0.447201 0)
(0.8944 0.447201 0)
(0.8944 0.4472 0)
(0.8944 0.4472 0)
(0.8944 0.4472 0)
(0.8944 0.4472 0)
(0.8944 0.4472 0)
(0.8944 0.4472 0)
(0.8944 0.4472 0)
(0.8944 0.4472 0)
(0.8944 0.4472 0)
(0.8944 0.4472 0)
(0.8944 0.4472 0)
(0.8944 0.4472 0)
(0.8944 0.4472 0)
(0.8944 0.4472 0)
(0.8944 0.4472 0)
(0.8944 0.4472 0)
(0.8944 0.4472 0)
(0.8944 0.4472 0)
(0.8944 0.4472 0)
(0.8944 0.4472 0)
(0.8944 0.4472 0)
(0.8944 0.4472 0)
(0.8944 0.4472 0)
(0.8944 0.4472 0)
(0.8944 0.4472 0)
(0.8944 0.4472 0)
(0.8944 0.4472 0)
(0.8944 0.4472 0)
(0.8944 0.4472 0)
(0.8944 0.4472 0)
(0.8944 0.4472 0)
(0.8944 0.4472 0)
(0.8944 0.4472 0)
(0.8944 0.4472 0)
(0.8944 0.4472 0)
(0.8944 0.4472 0)
(0.8944 0.4472 0)
(0.8944 0.4472 0)
(0.8944 0.4472 0)
(0.8944 0.4472 0)
(0.8944 0.4472 0)
(0.8944 0.4472 0)
(0.8944 0.4472 0)
(0.8944 0.4472 0)
(0.8944 0.4472 0)
(0.8944 0.4472 0)
(0.8944 0.4472 0)
(0.8944 0.447199 0)
(0.8944 0.447199 0)
(0.8944 0.447199 0)
(0.8944 0.447199 0)
(0.8944 0.447199 0)
(0.8944 0.447199 0)
(0.8944 0.447199 0)
(0.8944 0.447199 0)
(0.8944 0.447199 0)
(0.8944 0.447199 0)
(0.894399 0.447199 0)
(0.894399 0.447199 0)
(0.894399 0.4472 0)
(0.894399 0.4472 0)
(0.894399 0.4472 0)
(0.894399 0.447201 0)
(0.894399 0.447201 0)
(0.8944 0.447201 0)
(0.8944 0.447201 0)
(0.8944 0.447201 0)
(0.8944 0.447201 0)
(0.8944 0.447201 0)
(0.8944 0.447201 0)
(0.8944 0.447201 0)
(0.8944 0.447201 0)
(0.8944 0.447201 0)
(0.8944 0.447201 0)
(0.8944 0.447201 0)
(0.8944 0.447201 0)
(0.8944 0.447201 0)
(0.8944 0.4472 0)
(0.8944 0.4472 0)
(0.8944 0.4472 0)
(0.8944 0.4472 0)
(0.8944 0.4472 0)
(0.8944 0.4472 0)
(0.8944 0.4472 0)
(0.8944 0.4472 0)
(0.8944 0.4472 0)
(0.8944 0.4472 0)
(0.8944 0.4472 0)
(0.8944 0.4472 0)
(0.8944 0.4472 0)
(0.8944 0.4472 0)
(0.8944 0.4472 0)
(0.8944 0.4472 0)
(0.8944 0.4472 0)
(0.8944 0.4472 0)
(0.8944 0.4472 0)
(0.8944 0.4472 0)
(0.8944 0.4472 0)
(0.8944 0.4472 0)
(0.8944 0.4472 0)
(0.8944 0.4472 0)
(0.8944 0.4472 0)
(0.8944 0.4472 0)
(0.8944 0.4472 0)
(0.8944 0.4472 0)
(0.8944 0.4472 0)
(0.8944 0.4472 0)
(0.8944 0.4472 0)
(0.8944 0.4472 0)
(0.8944 0.4472 0)
(0.8944 0.4472 0)
(0.8944 0.4472 0)
(0.8944 0.4472 0)
(0.8944 0.4472 0)
(0.8944 0.4472 0)
(0.8944 0.4472 0)
(0.8944 0.4472 0)
(0.8944 0.4472 0)
(0.8944 0.4472 0)
(0.8944 0.4472 0)
(0.8944 0.4472 0)
(0.8944 0.4472 0)
(0.8944 0.447199 0)
(0.8944 0.447198 0)
(0.8944 0.447198 0)
(0.8944 0.447198 0)
(0.8944 0.447198 0)
(0.8944 0.447198 0)
(0.8944 0.447198 0)
(0.8944 0.447198 0)
(0.8944 0.447198 0)
(0.894399 0.447198 0)
(0.894399 0.447199 0)
(0.894399 0.447199 0)
(0.894399 0.447199 0)
(0.894399 0.4472 0)
(0.894399 0.4472 0)
(0.894399 0.447201 0)
(0.894399 0.447201 0)
(0.894399 0.447201 0)
(0.8944 0.447202 0)
(0.8944 0.447202 0)
(0.8944 0.447202 0)
(0.8944 0.447202 0)
(0.8944 0.447202 0)
(0.8944 0.447202 0)
(0.8944 0.447202 0)
(0.8944 0.447202 0)
(0.8944 0.447201 0)
(0.8944 0.447201 0)
(0.8944 0.447201 0)
(0.8944 0.447201 0)
(0.8944 0.447201 0)
(0.8944 0.447201 0)
(0.8944 0.4472 0)
(0.8944 0.4472 0)
(0.8944 0.4472 0)
(0.8944 0.4472 0)
(0.8944 0.4472 0)
(0.8944 0.4472 0)
(0.8944 0.4472 0)
(0.8944 0.4472 0)
(0.8944 0.4472 0)
(0.8944 0.4472 0)
(0.8944 0.4472 0)
(0.8944 0.4472 0)
(0.8944 0.4472 0)
(0.8944 0.4472 0)
(0.8944 0.4472 0)
(0.8944 0.4472 0)
(0.8944 0.4472 0)
(0.8944 0.4472 0)
(0.8944 0.4472 0)
(0.8944 0.4472 0)
(0.8944 0.4472 0)
(0.8944 0.4472 0)
(0.8944 0.4472 0)
(0.8944 0.4472 0)
(0.8944 0.4472 0)
(0.8944 0.4472 0)
(0.8944 0.4472 0)
(0.8944 0.4472 0)
(0.8944 0.4472 0)
(0.8944 0.4472 0)
(0.8944 0.4472 0)
(0.8944 0.4472 0)
(0.8944 0.4472 0)
(0.8944 0.4472 0)
(0.8944 0.4472 0)
(0.8944 0.4472 0)
(0.8944 0.4472 0)
(0.8944 0.4472 0)
(0.8944 0.4472 0)
(0.8944 0.4472 0)
(0.8944 0.4472 0)
(0.8944 0.4472 0)
(0.8944 0.4472 0)
(0.8944 0.447198 0)
(0.8944 0.447198 0)
(0.8944 0.447198 0)
(0.8944 0.447197 0)
(0.8944 0.447197 0)
(0.8944 0.447197 0)
(0.8944 0.447197 0)
(0.8944 0.447197 0)
(0.894399 0.447197 0)
(0.894399 0.447198 0)
(0.894399 0.447198 0)
(0.894399 0.447199 0)
(0.894399 0.447199 0)
(0.894399 0.4472 0)
(0.894399 0.4472 0)
(0.894399 0.447201 0)
(0.894399 0.447202 0)
(0.894399 0.447202 0)
(0.894399 0.447202 0)
(0.894399 0.447203 0)
(0.8944 0.447203 0)
(0.8944 0.447203 0)
(0.8944 0.447203 0)
(0.8944 0.447203 0)
(0.8944 0.447203 0)
(0.8944 0.447202 0)
(0.8944 0.447202 0)
(0.894401 0.447202 0)
(0.894401 0.447202 0)
(0.894401 0.447201 0)
(0.8944 0.447201 0)
(0.8944 0.447201 0)
(0.8944 0.447201 0)
(0.8944 0.4472 0)
(0.8944 0.4472 0)
(0.8944 0.4472 0)
(0.8944 0.4472 0)
(0.8944 0.4472 0)
(0.8944 0.4472 0)
(0.8944 0.4472 0)
(0.8944 0.4472 0)
(0.8944 0.4472 0)
(0.8944 0.4472 0)
(0.8944 0.4472 0)
(0.8944 0.4472 0)
(0.8944 0.4472 0)
(0.8944 0.4472 0)
(0.8944 0.4472 0)
(0.8944 0.4472 0)
(0.8944 0.4472 0)
(0.8944 0.4472 0)
(0.8944 0.4472 0)
(0.8944 0.4472 0)
(0.8944 0.4472 0)
(0.8944 0.4472 0)
(0.8944 0.4472 0)
(0.8944 0.4472 0)
(0.8944 0.4472 0)
(0.8944 0.4472 0)
(0.8944 0.4472 0)
(0.8944 0.4472 0)
(0.8944 0.4472 0)
(0.8944 0.4472 0)
(0.8944 0.4472 0)
(0.8944 0.4472 0)
(0.8944 0.4472 0)
(0.8944 0.4472 0)
(0.8944 0.4472 0)
(0.8944 0.4472 0)
(0.8944 0.4472 0)
(0.8944 0.4472 0)
(0.8944 0.4472 0)
(0.8944 0.4472 0)
(0.8944 0.4472 0)
(0.8944 0.4472 0)
(0.894401 0.447197 0)
(0.894401 0.447197 0)
(0.894401 0.447197 0)
(0.8944 0.447196 0)
(0.8944 0.447196 0)
(0.8944 0.447196 0)
(0.8944 0.447196 0)
(0.894399 0.447196 0)
(0.894399 0.447196 0)
(0.894399 0.447197 0)
(0.894398 0.447198 0)
(0.894398 0.447198 0)
(0.894398 0.447199 0)
(0.894398 0.4472 0)
(0.894398 0.447201 0)
(0.894398 0.447201 0)
(0.894398 0.447202 0)
(0.894398 0.447203 0)
(0.894399 0.447203 0)
(0.894399 0.447204 0)
(0.894399 0.447204 0)
(0.8944 0.447204 0)
(0.8944 0.447204 0)
(0.8944 0.447204 0)
(0.8944 0.447204 0)
(0.894401 0.447203 0)
(0.894401 0.447203 0)
(0.894401 0.447203 0)
(0.894401 0.447202 0)
(0.894401 0.447202 0)
(0.894401 0.447202 0)
(0.894401 0.447201 0)
(0.894401 0.447201 0)
(0.8944 0.447201 0)
(0.8944 0.447201 0)
(0.8944 0.4472 0)
(0.8944 0.4472 0)
(0.8944 0.4472 0)
(0.8944 0.4472 0)
(0.8944 0.4472 0)
(0.8944 0.4472 0)
(0.8944 0.4472 0)
(0.8944 0.4472 0)
(0.8944 0.4472 0)
(0.8944 0.4472 0)
(0.8944 0.4472 0)
(0.8944 0.4472 0)
(0.8944 0.4472 0)
(0.8944 0.4472 0)
(0.8944 0.4472 0)
(0.8944 0.4472 0)
(0.8944 0.4472 0)
(0.8944 0.4472 0)
(0.8944 0.4472 0)
(0.8944 0.4472 0)
(0.8944 0.4472 0)
(0.8944 0.4472 0)
(0.8944 0.4472 0)
(0.8944 0.4472 0)
(0.8944 0.4472 0)
(0.8944 0.4472 0)
(0.8944 0.4472 0)
(0.8944 0.4472 0)
(0.8944 0.4472 0)
(0.8944 0.4472 0)
(0.8944 0.4472 0)
(0.8944 0.4472 0)
(0.8944 0.4472 0)
(0.8944 0.4472 0)
(0.8944 0.4472 0)
(0.8944 0.4472 0)
(0.8944 0.4472 0)
(0.8944 0.4472 0)
(0.8944 0.4472 0)
(0.8944 0.4472 0)
(0.894401 0.447196 0)
(0.894401 0.447196 0)
(0.894401 0.447195 0)
(0.8944 0.447195 0)
(0.8944 0.447195 0)
(0.8944 0.447194 0)
(0.894399 0.447194 0)
(0.894398 0.447195 0)
(0.894398 0.447195 0)
(0.894398 0.447196 0)
(0.894397 0.447197 0)
(0.894397 0.447198 0)
(0.894397 0.447199 0)
(0.894397 0.4472 0)
(0.894397 0.447201 0)
(0.894397 0.447202 0)
(0.894397 0.447203 0)
(0.894397 0.447204 0)
(0.894398 0.447205 0)
(0.894398 0.447205 0)
(0.894399 0.447205 0)
(0.894399 0.447206 0)
(0.8944 0.447206 0)
(0.8944 0.447205 0)
(0.8944 0.447205 0)
(0.894401 0.447205 0)
(0.894401 0.447204 0)
(0.894401 0.447204 0)
(0.894401 0.447203 0)
(0.894401 0.447203 0)
(0.894401 0.447202 0)
(0.894401 0.447202 0)
(0.894401 0.447201 0)
(0.894401 0.447201 0)
(0.894401 0.447201 0)
(0.8944 0.447201 0)
(0.8944 0.4472 0)
(0.8944 0.4472 0)
(0.8944 0.4472 0)
(0.8944 0.4472 0)
(0.8944 0.4472 0)
(0.8944 0.4472 0)
(0.8944 0.4472 0)
(0.8944 0.4472 0)
(0.8944 0.4472 0)
(0.8944 0.4472 0)
(0.8944 0.4472 0)
(0.8944 0.4472 0)
(0.8944 0.4472 0)
(0.8944 0.4472 0)
(0.8944 0.4472 0)
(0.8944 0.4472 0)
(0.8944 0.4472 0)
(0.8944 0.4472 0)
(0.8944 0.4472 0)
(0.8944 0.4472 0)
(0.8944 0.4472 0)
(0.8944 0.4472 0)
(0.8944 0.4472 0)
(0.8944 0.4472 0)
(0.8944 0.4472 0)
(0.8944 0.4472 0)
(0.8944 0.4472 0)
(0.8944 0.4472 0)
(0.8944 0.4472 0)
(0.8944 0.4472 0)
(0.8944 0.4472 0)
(0.8944 0.4472 0)
(0.8944 0.4472 0)
(0.8944 0.4472 0)
(0.8944 0.4472 0)
(0.8944 0.4472 0)
(0.8944 0.4472 0)
(0.8944 0.4472 0)
(0.8944 0.4472 0)
(0.894401 0.447195 0)
(0.894401 0.447194 0)
(0.894401 0.447193 0)
(0.8944 0.447193 0)
(0.8944 0.447192 0)
(0.894399 0.447192 0)
(0.894398 0.447192 0)
(0.894397 0.447193 0)
(0.894397 0.447193 0)
(0.894396 0.447194 0)
(0.894396 0.447195 0)
(0.894395 0.447197 0)
(0.894395 0.447198 0)
(0.894395 0.4472 0)
(0.894395 0.447201 0)
(0.894395 0.447203 0)
(0.894395 0.447204 0)
(0.894396 0.447205 0)
(0.894396 0.447206 0)
(0.894397 0.447207 0)
(0.894398 0.447208 0)
(0.894398 0.447208 0)
(0.894399 0.447208 0)
(0.8944 0.447208 0)
(0.8944 0.447207 0)
(0.894401 0.447207 0)
(0.894401 0.447206 0)
(0.894401 0.447205 0)
(0.894401 0.447204 0)
(0.894401 0.447204 0)
(0.894401 0.447203 0)
(0.894401 0.447202 0)
(0.894401 0.447202 0)
(0.894401 0.447202 0)
(0.894401 0.447201 0)
(0.894401 0.447201 0)
(0.8944 0.447201 0)
(0.8944 0.4472 0)
(0.8944 0.4472 0)
(0.8944 0.4472 0)
(0.8944 0.4472 0)
(0.8944 0.4472 0)
(0.8944 0.4472 0)
(0.8944 0.4472 0)
(0.8944 0.4472 0)
(0.8944 0.4472 0)
(0.8944 0.4472 0)
(0.8944 0.4472 0)
(0.8944 0.4472 0)
(0.8944 0.4472 0)
(0.8944 0.4472 0)
(0.8944 0.4472 0)
(0.8944 0.4472 0)
(0.8944 0.4472 0)
(0.8944 0.4472 0)
(0.8944 0.4472 0)
(0.8944 0.4472 0)
(0.8944 0.4472 0)
(0.8944 0.4472 0)
(0.8944 0.4472 0)
(0.8944 0.4472 0)
(0.8944 0.4472 0)
(0.8944 0.4472 0)
(0.8944 0.4472 0)
(0.8944 0.4472 0)
(0.8944 0.4472 0)
(0.8944 0.4472 0)
(0.8944 0.4472 0)
(0.8944 0.4472 0)
(0.8944 0.4472 0)
(0.8944 0.4472 0)
(0.8944 0.4472 0)
(0.8944 0.4472 0)
(0.8944 0.4472 0)
(0.8944 0.4472 0)
(0.894402 0.447193 0)
(0.894401 0.447192 0)
(0.894401 0.447191 0)
(0.8944 0.44719 0)
(0.894399 0.44719 0)
(0.894398 0.44719 0)
(0.894397 0.44719 0)
(0.894396 0.44719 0)
(0.894395 0.447191 0)
(0.894394 0.447192 0)
(0.894393 0.447194 0)
(0.894392 0.447196 0)
(0.894392 0.447198 0)
(0.894392 0.4472 0)
(0.894392 0.447202 0)
(0.894392 0.447204 0)
(0.894393 0.447206 0)
(0.894393 0.447207 0)
(0.894394 0.447209 0)
(0.894395 0.44721 0)
(0.894396 0.44721 0)
(0.894397 0.447211 0)
(0.894398 0.447211 0)
(0.894399 0.44721 0)
(0.8944 0.44721 0)
(0.894401 0.447209 0)
(0.894401 0.447208 0)
(0.894402 0.447207 0)
(0.894402 0.447206 0)
(0.894402 0.447205 0)
(0.894402 0.447204 0)
(0.894402 0.447203 0)
(0.894401 0.447203 0)
(0.894401 0.447202 0)
(0.894401 0.447202 0)
(0.894401 0.447201 0)
(0.894401 0.447201 0)
(0.8944 0.447201 0)
(0.8944 0.4472 0)
(0.8944 0.4472 0)
(0.8944 0.4472 0)
(0.8944 0.4472 0)
(0.8944 0.4472 0)
(0.8944 0.4472 0)
(0.8944 0.4472 0)
(0.8944 0.4472 0)
(0.8944 0.4472 0)
(0.8944 0.4472 0)
(0.8944 0.4472 0)
(0.8944 0.4472 0)
(0.8944 0.4472 0)
(0.8944 0.4472 0)
(0.8944 0.4472 0)
(0.8944 0.4472 0)
(0.8944 0.4472 0)
(0.8944 0.4472 0)
(0.8944 0.4472 0)
(0.8944 0.4472 0)
(0.8944 0.4472 0)
(0.8944 0.4472 0)
(0.8944 0.4472 0)
(0.8944 0.4472 0)
(0.8944 0.4472 0)
(0.8944 0.4472 0)
(0.8944 0.4472 0)
(0.8944 0.4472 0)
(0.8944 0.4472 0)
(0.8944 0.4472 0)
(0.8944 0.4472 0)
(0.8944 0.4472 0)
(0.8944 0.4472 0)
(0.8944 0.4472 0)
(0.8944 0.4472 0)
(0.8944 0.4472 0)
(0.8944 0.4472 0)
(0.894402 0.44719 0)
(0.894401 0.447189 0)
(0.894401 0.447188 0)
(0.894399 0.447187 0)
(0.894398 0.447186 0)
(0.894397 0.447186 0)
(0.894395 0.447186 0)
(0.894394 0.447187 0)
(0.894392 0.447188 0)
(0.894391 0.44719 0)
(0.894389 0.447192 0)
(0.894388 0.447194 0)
(0.894388 0.447197 0)
(0.894387 0.4472 0)
(0.894388 0.447203 0)
(0.894388 0.447206 0)
(0.894389 0.447208 0)
(0.89439 0.44721 0)
(0.894391 0.447212 0)
(0.894393 0.447214 0)
(0.894394 0.447214 0)
(0.894396 0.447215 0)
(0.894397 0.447215 0)
(0.894399 0.447214 0)
(0.8944 0.447213 0)
(0.894401 0.447212 0)
(0.894401 0.447211 0)
(0.894402 0.44721 0)
(0.894402 0.447208 0)
(0.894402 0.447207 0)
(0.894402 0.447206 0)
(0.894402 0.447204 0)
(0.894402 0.447203 0)
(0.894402 0.447203 0)
(0.894401 0.447202 0)
(0.894401 0.447201 0)
(0.894401 0.447201 0)
(0.894401 0.447201 0)
(0.8944 0.4472 0)
(0.8944 0.4472 0)
(0.8944 0.4472 0)
(0.8944 0.4472 0)
(0.8944 0.4472 0)
(0.8944 0.4472 0)
(0.8944 0.4472 0)
(0.8944 0.4472 0)
(0.8944 0.4472 0)
(0.8944 0.4472 0)
(0.8944 0.4472 0)
(0.8944 0.4472 0)
(0.8944 0.4472 0)
(0.8944 0.4472 0)
(0.8944 0.4472 0)
(0.8944 0.4472 0)
(0.8944 0.4472 0)
(0.8944 0.4472 0)
(0.8944 0.4472 0)
(0.8944 0.4472 0)
(0.8944 0.4472 0)
(0.8944 0.4472 0)
(0.8944 0.4472 0)
(0.8944 0.4472 0)
(0.8944 0.4472 0)
(0.8944 0.4472 0)
(0.8944 0.4472 0)
(0.8944 0.4472 0)
(0.8944 0.4472 0)
(0.8944 0.4472 0)
(0.8944 0.4472 0)
(0.8944 0.4472 0)
(0.8944 0.4472 0)
(0.8944 0.4472 0)
(0.8944 0.4472 0)
(0.8944 0.4472 0)
(0.8944 0.4472 0)
(0.894402 0.447187 0)
(0.894401 0.447185 0)
(0.8944 0.447184 0)
(0.894399 0.447183 0)
(0.894397 0.447182 0)
(0.894395 0.447181 0)
(0.894392 0.447181 0)
(0.89439 0.447183 0)
(0.894388 0.447184 0)
(0.894386 0.447186 0)
(0.894384 0.447189 0)
(0.894382 0.447193 0)
(0.894381 0.447197 0)
(0.894381 0.4472 0)
(0.894381 0.447204 0)
(0.894382 0.447208 0)
(0.894383 0.447212 0)
(0.894385 0.447214 0)
(0.894387 0.447217 0)
(0.894389 0.447219 0)
(0.894391 0.44722 0)
(0.894393 0.44722 0)
(0.894395 0.44722 0)
(0.894397 0.447219 0)
(0.894399 0.447218 0)
(0.8944 0.447217 0)
(0.894401 0.447215 0)
(0.894402 0.447213 0)
(0.894403 0.447211 0)
(0.894403 0.447209 0)
(0.894403 0.447208 0)
(0.894403 0.447206 0)
(0.894402 0.447205 0)
(0.894402 0.447203 0)
(0.894402 0.447203 0)
(0.894401 0.447202 0)
(0.894401 0.447201 0)
(0.894401 0.447201 0)
(0.894401 0.447201 0)
(0.8944 0.4472 0)
(0.8944 0.4472 0)
(0.8944 0.4472 0)
(0.8944 0.4472 0)
(0.8944 0.4472 0)
(0.8944 0.4472 0)
(0.8944 0.4472 0)
(0.8944 0.4472 0)
(0.8944 0.4472 0)
(0.8944 0.4472 0)
(0.8944 0.4472 0)
(0.8944 0.4472 0)
(0.8944 0.4472 0)
(0.8944 0.4472 0)
(0.8944 0.4472 0)
(0.8944 0.4472 0)
(0.8944 0.4472 0)
(0.8944 0.4472 0)
(0.8944 0.4472 0)
(0.8944 0.4472 0)
(0.8944 0.4472 0)
(0.8944 0.4472 0)
(0.8944 0.4472 0)
(0.8944 0.4472 0)
(0.8944 0.4472 0)
(0.8944 0.4472 0)
(0.8944 0.4472 0)
(0.8944 0.4472 0)
(0.8944 0.4472 0)
(0.8944 0.4472 0)
(0.8944 0.4472 0)
(0.8944 0.4472 0)
(0.8944 0.4472 0)
(0.8944 0.4472 0)
(0.8944 0.4472 0)
(0.8944 0.4472 0)
(0.894402 0.447183 0)
(0.894401 0.44718 0)
(0.894399 0.447178 0)
(0.894397 0.447177 0)
(0.894394 0.447176 0)
(0.894391 0.447175 0)
(0.894388 0.447175 0)
(0.894385 0.447177 0)
(0.894382 0.447179 0)
(0.894378 0.447182 0)
(0.894376 0.447186 0)
(0.894373 0.447191 0)
(0.894372 0.447196 0)
(0.894371 0.447201 0)
(0.894372 0.447207 0)
(0.894373 0.447212 0)
(0.894374 0.447217 0)
(0.894377 0.44722 0)
(0.89438 0.447224 0)
(0.894383 0.447226 0)
(0.894386 0.447227 0)
(0.894389 0.447228 0)
(0.894393 0.447227 0)
(0.894395 0.447226 0)
(0.894398 0.447225 0)
(0.8944 0.447222 0)
(0.894401 0.44722 0)
(0.894402 0.447217 0)
(0.894403 0.447215 0)
(0.894403 0.447213 0)
(0.894403 0.44721 0)
(0.894403 0.447208 0)
(0.894403 0.447206 0)
(0.894403 0.447205 0)
(0.894402 0.447203 0)
(0.894402 0.447202 0)
(0.894401 0.447202 0)
(0.894401 0.447201 0)
(0.894401 0.447201 0)
(0.894401 0.447201 0)
(0.8944 0.4472 0)
(0.8944 0.4472 0)
(0.8944 0.4472 0)
(0.8944 0.4472 0)
(0.8944 0.4472 0)
(0.8944 0.4472 0)
(0.8944 0.4472 0)
(0.8944 0.4472 0)
(0.8944 0.4472 0)
(0.8944 0.4472 0)
(0.8944 0.4472 0)
(0.8944 0.4472 0)
(0.8944 0.4472 0)
(0.8944 0.4472 0)
(0.8944 0.4472 0)
(0.8944 0.4472 0)
(0.8944 0.4472 0)
(0.8944 0.4472 0)
(0.8944 0.4472 0)
(0.8944 0.4472 0)
(0.8944 0.4472 0)
(0.8944 0.4472 0)
(0.8944 0.4472 0)
(0.8944 0.4472 0)
(0.8944 0.4472 0)
(0.8944 0.4472 0)
(0.8944 0.4472 0)
(0.8944 0.4472 0)
(0.8944 0.4472 0)
(0.8944 0.4472 0)
(0.8944 0.4472 0)
(0.8944 0.4472 0)
(0.8944 0.4472 0)
(0.8944 0.4472 0)
(0.8944 0.4472 0)
(0.894402 0.447178 0)
(0.8944 0.447174 0)
(0.894397 0.447172 0)
(0.894395 0.44717 0)
(0.894391 0.447169 0)
(0.894386 0.447168 0)
(0.894381 0.447168 0)
(0.894376 0.44717 0)
(0.894372 0.447174 0)
(0.894367 0.447178 0)
(0.894363 0.447183 0)
(0.89436 0.44719 0)
(0.894358 0.447196 0)
(0.894357 0.447203 0)
(0.894357 0.44721 0)
(0.894359 0.447217 0)
(0.894361 0.447223 0)
(0.894365 0.447228 0)
(0.894369 0.447232 0)
(0.894374 0.447235 0)
(0.894379 0.447237 0)
(0.894384 0.447237 0)
(0.894388 0.447237 0)
(0.894392 0.447235 0)
(0.894396 0.447233 0)
(0.894399 0.44723 0)
(0.894401 0.447226 0)
(0.894402 0.447223 0)
(0.894403 0.44722 0)
(0.894404 0.447216 0)
(0.894404 0.447213 0)
(0.894404 0.447211 0)
(0.894404 0.447208 0)
(0.894404 0.447206 0)
(0.894403 0.447205 0)
(0.894402 0.447203 0)
(0.894402 0.447202 0)
(0.894401 0.447201 0)
(0.894401 0.447201 0)
(0.894401 0.447201 0)
(0.894401 0.4472 0)
(0.8944 0.4472 0)
(0.8944 0.4472 0)
(0.8944 0.4472 0)
(0.8944 0.4472 0)
(0.8944 0.4472 0)
(0.8944 0.4472 0)
(0.8944 0.4472 0)
(0.8944 0.4472 0)
(0.8944 0.4472 0)
(0.8944 0.4472 0)
(0.8944 0.4472 0)
(0.8944 0.4472 0)
(0.8944 0.4472 0)
(0.8944 0.4472 0)
(0.8944 0.4472 0)
(0.8944 0.4472 0)
(0.8944 0.4472 0)
(0.8944 0.4472 0)
(0.8944 0.4472 0)
(0.8944 0.4472 0)
(0.8944 0.4472 0)
(0.8944 0.4472 0)
(0.8944 0.4472 0)
(0.8944 0.4472 0)
(0.8944 0.4472 0)
(0.8944 0.4472 0)
(0.8944 0.4472 0)
(0.8944 0.4472 0)
(0.8944 0.4472 0)
(0.8944 0.4472 0)
(0.8944 0.4472 0)
(0.8944 0.4472 0)
(0.8944 0.4472 0)
(0.8944 0.4472 0)
(0.894401 0.447171 0)
(0.894399 0.447167 0)
(0.894394 0.447164 0)
(0.89439 0.447161 0)
(0.894384 0.447159 0)
(0.894377 0.447159 0)
(0.89437 0.44716 0)
(0.894363 0.447162 0)
(0.894356 0.447168 0)
(0.89435 0.447173 0)
(0.894344 0.44718 0)
(0.89434 0.447189 0)
(0.894337 0.447198 0)
(0.894336 0.447207 0)
(0.894336 0.447216 0)
(0.894339 0.447225 0)
(0.894342 0.447233 0)
(0.894347 0.44724 0)
(0.894353 0.447245 0)
(0.89436 0.447248 0)
(0.894367 0.44725 0)
(0.894374 0.447251 0)
(0.894381 0.447249 0)
(0.894387 0.447247 0)
(0.894392 0.447244 0)
(0.894396 0.44724 0)
(0.894399 0.447235 0)
(0.894402 0.447231 0)
(0.894403 0.447226 0)
(0.894404 0.447221 0)
(0.894405 0.447217 0)
(0.894405 0.447214 0)
(0.894405 0.447211 0)
(0.894404 0.447208 0)
(0.894404 0.447206 0)
(0.894403 0.447204 0)
(0.894402 0.447203 0)
(0.894402 0.447202 0)
(0.894401 0.447201 0)
(0.894401 0.447201 0)
(0.894401 0.4472 0)
(0.8944 0.4472 0)
(0.8944 0.4472 0)
(0.8944 0.4472 0)
(0.8944 0.4472 0)
(0.8944 0.4472 0)
(0.8944 0.4472 0)
(0.8944 0.4472 0)
(0.8944 0.4472 0)
(0.8944 0.4472 0)
(0.8944 0.4472 0)
(0.8944 0.4472 0)
(0.8944 0.4472 0)
(0.8944 0.4472 0)
(0.8944 0.4472 0)
(0.8944 0.4472 0)
(0.8944 0.4472 0)
(0.8944 0.4472 0)
(0.8944 0.4472 0)
(0.8944 0.4472 0)
(0.8944 0.4472 0)
(0.8944 0.4472 0)
(0.8944 0.4472 0)
(0.8944 0.4472 0)
(0.8944 0.4472 0)
(0.8944 0.4472 0)
(0.8944 0.4472 0)
(0.8944 0.4472 0)
(0.8944 0.4472 0)
(0.8944 0.4472 0)
(0.8944 0.4472 0)
(0.8944 0.4472 0)
(0.8944 0.4472 0)
(0.8944 0.4472 0)
(0.8944 0.4472 0)
(0.8944 0.447163 0)
(0.894395 0.447157 0)
(0.894389 0.447154 0)
(0.894382 0.447151 0)
(0.894373 0.447149 0)
(0.894364 0.447149 0)
(0.894354 0.44715 0)
(0.894343 0.447154 0)
(0.894334 0.44716 0)
(0.894324 0.447169 0)
(0.894316 0.447178 0)
(0.89431 0.447189 0)
(0.894306 0.447201 0)
(0.894305 0.447214 0)
(0.894305 0.447226 0)
(0.894309 0.447238 0)
(0.894314 0.447248 0)
(0.894321 0.447256 0)
(0.89433 0.447263 0)
(0.89434 0.447267 0)
(0.89435 0.447269 0)
(0.89436 0.447269 0)
(0.894369 0.447267 0)
(0.894378 0.447263 0)
(0.894385 0.447259 0)
(0.894392 0.447253 0)
(0.894397 0.447247 0)
(0.894401 0.44724 0)
(0.894403 0.447234 0)
(0.894405 0.447228 0)
(0.894406 0.447223 0)
(0.894406 0.447218 0)
(0.894405 0.447214 0)
(0.894405 0.44721 0)
(0.894405 0.447208 0)
(0.894404 0.447205 0)
(0.894403 0.447204 0)
(0.894402 0.447202 0)
(0.894402 0.447201 0)
(0.894401 0.447201 0)
(0.894401 0.4472 0)
(0.894401 0.4472 0)
(0.8944 0.4472 0)
(0.8944 0.4472 0)
(0.8944 0.4472 0)
(0.8944 0.4472 0)
(0.8944 0.4472 0)
(0.8944 0.4472 0)
(0.8944 0.4472 0)
(0.8944 0.4472 0)
(0.8944 0.4472 0)
(0.8944 0.4472 0)
(0.8944 0.4472 0)
(0.8944 0.4472 0)
(0.8944 0.4472 0)
(0.8944 0.4472 0)
(0.8944 0.4472 0)
(0.8944 0.4472 0)
(0.8944 0.4472 0)
(0.8944 0.4472 0)
(0.8944 0.4472 0)
(0.8944 0.4472 0)
(0.8944 0.4472 0)
(0.8944 0.4472 0)
(0.8944 0.4472 0)
(0.8944 0.4472 0)
(0.8944 0.4472 0)
(0.8944 0.4472 0)
(0.8944 0.4472 0)
(0.8944 0.4472 0)
(0.8944 0.4472 0)
(0.8944 0.4472 0)
(0.8944 0.4472 0)
(0.8944 0.4472 0)
(0.8944 0.4472 0)
(0.894396 0.447153 0)
(0.894388 0.447147 0)
(0.89438 0.447142 0)
(0.894369 0.447138 0)
(0.894356 0.447136 0)
(0.894343 0.447137 0)
(0.894328 0.447139 0)
(0.894313 0.447145 0)
(0.894299 0.447154 0)
(0.894286 0.447165 0)
(0.894274 0.447179 0)
(0.894266 0.447193 0)
(0.89426 0.447209 0)
(0.894258 0.447226 0)
(0.89426 0.447242 0)
(0.894265 0.447256 0)
(0.894272 0.447269 0)
(0.894283 0.44728 0)
(0.894296 0.447288 0)
(0.894309 0.447292 0)
(0.894323 0.447294 0)
(0.894338 0.447294 0)
(0.894352 0.447291 0)
(0.894364 0.447285 0)
(0.894375 0.447278 0)
(0.894384 0.44727 0)
(0.894392 0.447262 0)
(0.894398 0.447253 0)
(0.894402 0.447245 0)
(0.894405 0.447237 0)
(0.894406 0.44723 0)
(0.894406 0.447223 0)
(0.894406 0.447218 0)
(0.894406 0.447213 0)
(0.894405 0.447209 0)
(0.894405 0.447207 0)
(0.894404 0.447204 0)
(0.894403 0.447203 0)
(0.894402 0.447201 0)
(0.894402 0.447201 0)
(0.894401 0.4472 0)
(0.894401 0.4472 0)
(0.8944 0.4472 0)
(0.8944 0.4472 0)
(0.8944 0.4472 0)
(0.8944 0.4472 0)
(0.8944 0.4472 0)
(0.8944 0.4472 0)
(0.8944 0.4472 0)
(0.8944 0.4472 0)
(0.8944 0.4472 0)
(0.8944 0.4472 0)
(0.8944 0.4472 0)
(0.8944 0.4472 0)
(0.8944 0.4472 0)
(0.8944 0.4472 0)
(0.8944 0.4472 0)
(0.8944 0.4472 0)
(0.8944 0.4472 0)
(0.8944 0.4472 0)
(0.8944 0.4472 0)
(0.8944 0.4472 0)
(0.8944 0.4472 0)
(0.8944 0.4472 0)
(0.8944 0.4472 0)
(0.8944 0.4472 0)
(0.8944 0.4472 0)
(0.8944 0.4472 0)
(0.8944 0.4472 0)
(0.8944 0.4472 0)
(0.8944 0.4472 0)
(0.8944 0.4472 0)
(0.8944 0.4472 0)
(0.8944 0.4472 0)
(0.8944 0.4472 0)
(0.894388 0.447141 0)
(0.894378 0.447134 0)
(0.894365 0.447127 0)
(0.894348 0.447123 0)
(0.894331 0.447121 0)
(0.89431 0.447123 0)
(0.894289 0.447128 0)
(0.894268 0.447136 0)
(0.894247 0.447148 0)
(0.894229 0.447164 0)
(0.894213 0.447182 0)
(0.894201 0.447203 0)
(0.894193 0.447224 0)
(0.89419 0.447246 0)
(0.894193 0.447267 0)
(0.8942 0.447285 0)
(0.894211 0.447301 0)
(0.894226 0.447315 0)
(0.894244 0.447324 0)
(0.894264 0.44733 0)
(0.894285 0.447331 0)
(0.894306 0.447328 0)
(0.894326 0.447323 0)
(0.894343 0.447315 0)
(0.894359 0.447306 0)
(0.894373 0.447294 0)
(0.894384 0.447282 0)
(0.894392 0.447271 0)
(0.894399 0.447259 0)
(0.894403 0.447248 0)
(0.894406 0.447239 0)
(0.894407 0.44723 0)
(0.894407 0.447223 0)
(0.894407 0.447217 0)
(0.894406 0.447212 0)
(0.894405 0.447208 0)
(0.894404 0.447205 0)
(0.894403 0.447203 0)
(0.894402 0.447202 0)
(0.894402 0.447201 0)
(0.894401 0.4472 0)
(0.894401 0.4472 0)
(0.8944 0.4472 0)
(0.8944 0.4472 0)
(0.8944 0.4472 0)
(0.8944 0.4472 0)
(0.8944 0.4472 0)
(0.8944 0.4472 0)
(0.8944 0.4472 0)
(0.8944 0.4472 0)
(0.8944 0.4472 0)
(0.8944 0.4472 0)
(0.8944 0.4472 0)
(0.8944 0.4472 0)
(0.8944 0.4472 0)
(0.8944 0.4472 0)
(0.8944 0.4472 0)
(0.8944 0.4472 0)
(0.8944 0.4472 0)
(0.8944 0.4472 0)
(0.8944 0.4472 0)
(0.8944 0.4472 0)
(0.8944 0.4472 0)
(0.8944 0.4472 0)
(0.8944 0.4472 0)
(0.8944 0.4472 0)
(0.8944 0.4472 0)
(0.8944 0.4472 0)
(0.8944 0.4472 0)
(0.8944 0.4472 0)
(0.8944 0.4472 0)
(0.8944 0.4472 0)
(0.8944 0.4472 0)
(0.8944 0.4472 0)
(0.8944 0.4472 0)
(0.894376 0.447127 0)
(0.89436 0.447118 0)
(0.894341 0.447111 0)
(0.894317 0.447106 0)
(0.894291 0.447106 0)
(0.894262 0.447109 0)
(0.894231 0.447116 0)
(0.8942 0.447129 0)
(0.89417 0.447147 0)
(0.894144 0.447168 0)
(0.894122 0.447193 0)
(0.894104 0.447221 0)