/*--------------------------------*- C++ -*----------------------------------*\
  =========                 |
  \\      /  F ield         | OpenFOAM: The Open Source CFD Toolbox
   \\    /   O peration     | Website:  https://openfoam.org
    \\  /    A nd           | Version:  6
     \\/     M anipulation  |
\*---------------------------------------------------------------------------*/
FoamFile
{
    version     2.0;
    format      ascii;
    class       volScalarField;
    location    "4.65";
    object      epsilon;
}
// * * * * * * * * * * * * * * * * * * * * * * * * * * * * * * * * * * * * * //

dimensions      [0 2 -3 0 0 0 0];

internalField   nonuniform List<scalar> 
4214
(
0.021335
0.0103417
0.005435
0.00327277
0.00256907
0.00280605
0.00388161
0.00599508
0.00955873
0.0150493
0.0227978
0.0325068
0.0433656
0.0536025
0.0612409
0.0652274
0.0653149
0.0627159
0.0613249
0.0661289
0.0798901
0.102116
0.129821
0.15775
0.175457
0.18282
0.181037
0.186332
0.227432
0.292114
0.332939
0.316931
0.254653
0.175187
0.104394
0.0531005
0.0231692
0.00968595
0.00579181
0.00749256
0.0151909
0.00900596
0.00495761
0.00314146
0.00256594
0.00290756
0.00419762
0.00678805
0.011325
0.0186068
0.0292442
0.043227
0.0592531
0.0752591
0.0882319
0.0958926
0.0976827
0.094113
0.0871365
0.0798846
0.0763318
0.0801279
0.092288
0.10999
0.129633
0.146413
0.156195
0.159745
0.166616
0.197972
0.262624
0.325394
0.337684
0.292735
0.215984
0.137267
0.0745686
0.0344409
0.0139592
0.00578183
0.00366118
0.00450118
0.00324497
0.00254752
0.00240018
0.00292756
0.00443155
0.00748541
0.0130448
0.0223745
0.0365722
0.055834
0.0788254
0.102078
0.121835
0.134304
0.138099
0.134145
0.123743
0.10977
0.0954689
0.0844259
0.0793494
0.0818067
0.0904039
0.102173
0.115309
0.127681
0.138297
0.150446
0.174307
0.228132
0.299826
0.339999
0.322549
0.256904
0.174313
0.101257
0.0500537
0.0212466
0.00828572
0.00365894
0.0026024
0.00226337
0.0023067
0.00292026
0.00456077
0.00799531
0.0144881
0.0258642
0.0440173
0.069589
0.101138
0.134534
0.16346
0.183286
0.190998
0.187484
0.175438
0.15679
0.135843
0.115072
0.097769
0.0858574
0.0806729
0.0819036
0.0874879
0.0960902
0.106754
0.118696
0.132953
0.154769
0.197725
0.267964
0.329307
0.342162
0.296026
0.215542
0.133753
0.070763
0.0319465
0.0127513
0.00502854
0.00251012
0.00222765
0.0028588
0.0045557
0.00823421
0.0154545
0.0285772
0.0504467
0.0828047
0.124092
0.17004
0.211902
0.241616
0.255814
0.254012
0.24011
0.217984
0.189976
0.161845
0.135683
0.112446
0.094819
0.0838892
0.0793229
0.0798812
0.0843772
0.092104
0.102826
0.116991
0.137673
0.172062
0.232269
0.303664
0.345821
0.327969
0.2582
0.171352
0.0968228
0.046663
0.019577
0.00763575
0.00320719
0.00280829
0.00441207
0.00815599
0.0157943
0.0301761
0.0549988
0.0934471
0.145223
0.205235
0.265411
0.309719
0.333114
0.335514
0.320585
0.29495
0.263288
0.226185
0.188481
0.154567
0.126809
0.105519
0.0904443
0.0814465
0.0777623
0.0784865
0.0829055
0.0911111
0.10344
0.122024
0.151521
0.199887
0.270106
0.333185
0.347433
0.29834
0.212755
0.128244
0.065905
0.0293064
0.0117806
0.00468952
0.00422765
0.00774644
0.0153945
0.0303365
0.0570804
0.10016
0.161328
0.236416
0.315845
0.382366
0.418878
0.426656
0.410101
0.379691
0.344308
0.30743
0.266675
0.222488
0.180334
0.144894
0.118378
0.0997082
0.087289
0.0801012
0.0774169
0.0787279
0.0840042
0.0936668
0.109444
0.134927
0.175358
0.23658
0.308609
0.351406
0.330734
0.25514
0.164277
0.0898498
0.0424263
0.0178636
0.00716195
0.00711396
0.0143144
0.0289437
0.0559094
0.101275
0.169146
0.257113
0.355807
0.444822
0.501988
0.516225
0.494893
0.453915
0.409676
0.37088
0.337697
0.304343
0.262487
0.215351
0.171465
0.137445
0.113337
0.0970671
0.0866312
0.0808818
0.0792777
0.0816438
0.0884562
0.101186
0.122821
0.157951
0.210841
0.280558
0.341745
0.350981
0.294218
0.203024
0.118044
0.059138
0.0262298
0.0108817
0.0125389
0.0255492
0.0505505
0.0943793
0.163428
0.259579
0.374591
0.487566
0.56866
0.595623
0.57055
0.514898
0.452914
0.400821
0.363433
0.33742
0.315893
0.29129
0.256817
0.207418
0.163531
0.132424
0.112327
0.0985354
0.0897086
0.0850595
0.0845954
0.0886196
0.0983614
0.11652
0.147314
0.194962
0.258759
0.325472
0.3582
0.325241
0.241116
0.149036
0.0791035
0.0369949
0.0160324
0.0206923
0.0416147
0.0799084
0.143464
0.237672
0.359538
0.491153
0.599618
0.651977
0.637573
0.574209
0.49315
0.420363
0.36792
0.335612
0.317309
0.305642
0.294527
0.277697
0.248007
0.198556
0.156115
0.131002
0.115532
0.103917
0.0966282
0.0934432
0.0948991
0.102053
0.117349
0.144816
0.188544
0.248308
0.312824
0.356553
0.345126
0.274022
0.180002
0.10111
0.049815
0.0225917
0.0306649
0.0601445
0.11176
0.193535
0.30852
0.447459
0.58252
0.673848
0.692946
0.642932
0.553668
0.459904
0.38442
0.33528
0.30793
0.295746
0.291282
0.288965
0.283702
0.269875
0.240141
0.18905
0.153489
0.136469
0.123047
0.113649
0.108372
0.107719
0.112891
0.126277
0.151818
0.193232
0.249724
0.310577
0.354195
0.354425
0.297404
0.206794
0.122775
0.0636211
0.0301828
0.0396133
0.0757278
0.136911
0.230876
0.358691
0.506084
0.63866
0.714532
0.711355
0.641074
0.538764
0.438989
0.362431
0.314071
0.289499
0.281479
0.282047
0.285975
0.288167
0.284467
0.26917
0.234298
0.185507
0.160705
0.146405
0.135063
0.128721
0.12709
0.131451
0.144586
0.17003
0.210718
0.26435
0.319448
0.357066
0.356892
0.308922
0.224773
0.140575
0.0764162
0.0379315
0.0439733
0.082566
0.147075
0.245362
0.378355
0.530507
0.66521
0.739185
0.730797
0.653315
0.543878
0.437248
0.355057
0.302979
0.277067
0.270855
0.275179
0.284823
0.29388
0.298223
0.293944
0.274509
0.235027
0.197206
0.176071
0.162692
0.155202
0.153926
0.159494
0.174694
0.202453
0.243454
0.293155
0.338842
0.364892
0.355646
0.308051
0.230319
0.150553
0.0853448
0.0444157
0.0420458
0.0783379
0.139489
0.234311
0.366361
0.523016
0.66929
0.75736
0.76072
0.686006
0.572431
0.455203
0.360833
0.298837
0.265647
0.257772
0.26335
0.278114
0.294851
0.308279
0.314934
0.30941
0.288243
0.252663
0.220924
0.203104
0.193627
0.193827
0.202764
0.222046
0.252879
0.292545
0.334161
0.364427
0.373343
0.348593
0.295919
0.220969
0.149706
0.087402
0.0478362
0.0351895
0.0654522
0.117959
0.202276
0.327056
0.485258
0.650412
0.765544
0.79876
0.736284
0.623753
0.493737
0.380973
0.303682
0.255663
0.241911
0.244107
0.260307
0.282976
0.306177
0.32586
0.335099
0.333906
0.315926
0.289514
0.266728
0.256152
0.257145
0.268856
0.29117
0.321317
0.352777
0.37867
0.385699
0.373216
0.328935
0.27145
0.19744
0.136641
0.0807124
0.0466423
0.0267098
0.0491341
0.0906364
0.158432
0.270688
0.419435
0.606919
0.749538
0.83366
0.793351
0.692969
0.555356
0.417621
0.324064
0.251124
0.228243
0.221244
0.233781
0.256778
0.284576
0.317614
0.341751
0.363991
0.368524
0.366422
0.35246
0.343966
0.345812
0.356746
0.375138
0.394961
0.406822
0.409213
0.385218
0.35281
0.28857
0.233138
0.160772
0.11423
0.065083
0.0404774
0.0198891
0.03375
0.0669589
0.111674
0.214015
0.327179
0.545509
0.684714
0.848366
0.843498
0.765285
0.646949
0.466113
0.370301
0.25499
0.22388
0.201629
0.205761
0.224117
0.245633
0.285202
0.314156
0.362013
0.383969
0.416911
0.425004
0.431004
0.435337
0.438658
0.444217
0.442398
0.423586
0.399957
0.342329
0.303392
0.223393
0.18416
0.113776
0.0871627
0.0436535
0.0307205
0.0123525
0.0184033
0.0222691
0.0232654
0.0216616
0.0182987
0.0141743
0.0101508
0.00680144
0.00437031
0.00283205
0.00201622
0.00174079
0.00197141
0.00307711
0.00792785
0.0355596
0.00803244
0.0102424
0.0116615
0.0119122
0.0110563
0.00943914
0.00749377
0.00560137
0.00401881
0.00286041
0.002124
0.00174762
0.00168102
0.00199656
0.00314651
0.00795333
0.032825
0.00355231
0.00453272
0.00530302
0.0055976
0.00538893
0.00480529
0.00403418
0.0032498
0.0025753
0.00207349
0.00175804
0.00162085
0.00167756
0.00205577
0.00325651
0.00824016
0.03094
0.00282293
0.00296813
0.00312039
0.00316211
0.00305117
0.00281267
0.00250595
0.0021937
0.00192401
0.00172489
0.00160964
0.00159204
0.00171837
0.002145
0.0034087
0.00862867
0.0301763
0.00237052
0.00231595
0.00228775
0.00224503
0.00216747
0.00205694
0.00192893
0.00180281
0.00169569
0.00162064
0.0015903
0.00162794
0.00179433
0.00226203
0.00360064
0.00916022
0.0304511
0.00233227
0.0022058
0.00210788
0.00202479
0.0019461
0.00186835
0.00179354
0.00172625
0.00167243
0.00163986
0.00164134
0.00170436
0.00189675
0.00240209
0.00382525
0.0097967
0.0317109
0.00241319
0.00229102
0.00218107
0.00208204
0.00199274
0.00191294
0.00184323
0.00178505
0.00174156
0.00171923
0.00173131
0.00180741
0.00201929
0.00255937
0.00407018
0.0105076
0.0338209
0.00243583
0.0023263
0.00222862
0.00214155
0.00206327
0.0019929
0.00193086
0.0018789
0.00184082
0.00182399
0.00184288
0.00192884
0.00215681
0.0027278
0.00432314
0.0112164
0.0366419
0.00258098
0.00247748
0.00238068
0.0022903
0.00220658
0.00213058
0.00206384
0.00200871
0.00196934
0.00195336
0.00197557
0.00206811
0.00230809
0.00290358
0.0045713
0.0118874
0.0402347
0.00261732
0.00253227
0.00245184
0.00237656
0.00230675
0.00224279
0.00218581
0.00213834
0.00210506
0.00209439
0.00212216
0.00222178
0.00247227
0.00308694
0.0048125
0.0125269
0.0448474
0.00280079
0.00271146
0.00262886
0.00255172
0.0024794
0.0024123
0.00235206
0.00230185
0.00226707
0.00225687
0.00228768
0.00239344
0.00265348
0.0032833
0.00505403
0.0131749
0.0507918
0.00285377
0.00278884
0.00272446
0.00266162
0.00260104
0.0025439
0.00249242
0.00245039
0.00242391
0.00242272
0.0024638
0.00258146
0.00285487
0.00350029
0.00531142
0.0138734
0.0583074
0.00306512
0.00298481
0.0029115
0.00284308
0.00277882
0.00271953
0.00266771
0.0026276
0.0026056
0.00261164
0.00266296
0.00279404
0.00308362
0.00374832
0.00560698
0.0146724
0.0675479
0.0031378
0.00308959
0.00303699
0.00298254
0.00292874
0.0028787
0.00283633
0.00280657
0.00279612
0.00281518
0.00288182
0.0030315
0.00334386
0.00403851
0.00596976
0.0156372
0.0785924
0.00337261
0.00329932
0.00323299
0.0031715
0.00311559
0.00306759
0.00303072
0.00300924
0.0030094
0.00304169
0.00312535
0.00329765
0.00364101
0.00438418
0.00643733
0.0168581
0.0914353
0.00346622
0.00343066
0.00338555
0.00333838
0.00329483
0.00325919
0.00323512
0.00322694
0.00324132
0.00329013
0.00339476
0.00359591
0.00398273
0.00480477
0.00706605
0.0184729
0.105955
0.00371902
0.00364944
0.00359034
0.00354121
0.00350302
0.00347673
0.003464
0.00346852
0.00349765
0.00356497
0.00369468
0.0039329
0.00438166
0.00533007
0.00793271
0.0206323
0.121909
0.00383442
0.00380648
0.00377215
0.00374276
0.00372197
0.00371135
0.00371338
0.0037331
0.00377991
0.00386992
0.00403161
0.00432013
0.00486024
0.00600808
0.00914128
0.0234695
0.138823
0.00409775
0.00403448
0.00399722
0.00397714
0.00396908
0.003972
0.00398855
0.0040252
0.00409329
0.00421223
0.004417
0.00477757
0.00545601
0.00691102
0.0108237
0.0270502
0.15585
0.00424103
0.00423037
0.00422543
0.00422793
0.00423759
0.00425692
0.00429118
0.00434911
0.00444497
0.00460326
0.00486962
0.00533785
0.00622643
0.008135
0.0130961
0.0315752
0.172012
0.00451381
0.0044854
0.00449034
0.00450738
0.00453315
0.00457076
0.00462684
0.0047125
0.00484621
0.00506063
0.00541827
0.00604854
0.00724751
0.00978858
0.0160923
0.0373688
0.186526
0.0047123
0.00474411
0.00477498
0.00481172
0.00485759
0.00491842
0.00500309
0.00512645
0.00531369
0.00561025
0.00610334
0.00697045
0.00860322
0.0119701
0.0199157
0.044624
0.199097
0.00498866
0.00503753
0.00508815
0.0051465
0.0052172
0.00530802
0.00543107
0.00560693
0.00587099
0.00628697
0.00697459
0.00816925
0.0103691
0.014749
0.0246288
0.0535661
0.209926
0.00528537
0.00535533
0.00543055
0.00551611
0.00561821
0.00574769
0.00592146
0.00616806
0.00653611
0.00711122
0.00804879
0.00964342
0.0124955
0.0179718
0.0298351
0.0628331
0.221884
0.00560809
0.00570548
0.00580911
0.005927
0.00606784
0.00624604
0.00648452
0.00682127
0.00731975
0.00808835
0.00931746
0.0113569
0.0148986
0.0214797
0.0352532
0.0719498
0.235267
0.0059616
0.00608889
0.00622792
0.00638577
0.00657437
0.00681264
0.00713036
0.00757568
0.008227
0.00921443
0.0107603
0.013263
0.0174946
0.0251422
0.0407018
0.0807539
0.249367
0.0063504
0.00651591
0.00669558
0.00690085
0.00714635
0.00745577
0.0078657
0.008434
0.00925273
0.0104711
0.0123385
0.0152946
0.020179
0.0288083
0.0459708
0.0889474
0.263016
0.00678048
0.00698862
0.00721803
0.00747939
0.00779131
0.00818176
0.00869349
0.00939269
0.0103825
0.0118272
0.0139972
0.0173634
0.0228176
0.032276
0.0507396
0.095941
0.274551
0.0072638
0.00752269
0.00780658
0.0081313
0.00851734
0.0089962
0.00961459
0.0104446
0.011597
0.0132454
0.0156737
0.0193724
0.0252668
0.0353361
0.0547043
0.10129
0.282097
0.00785731
0.00815496
0.00848665
0.00887171
0.00933532
0.00990662
0.010631
0.0115838
0.0128778
0.0146898
0.0173071
0.0212251
0.0273773
0.0377548
0.0574808
0.104293
0.283848
0.00859436
0.00897129
0.00937335
0.00981667
0.0103268
0.0109497
0.0117533
0.0128122
0.0142169
0.016138
0.018854
0.0228478
0.0290303
0.0393453
0.0587737
0.104433
0.278646
0.00933654
0.00980276
0.010304
0.0108544
0.0114768
0.0122031
0.0130758
0.0141725
0.0156299
0.0176
0.0203173
0.0242331
0.0302047
0.0400698
0.0585384
0.101738
0.266444
0.0101579
0.010732
0.0113434
0.0120068
0.0127417
0.0135772
0.0145553
0.015737
0.017211
0.0191428
0.02178
0.0254868
0.0310386
0.0401141
0.0570423
0.0966669
0.248346
0.011076
0.0117816
0.0125304
0.0133325
0.0142041
0.0151683
0.0162589
0.0175263
0.019047
0.0209418
0.0234356
0.0268679
0.0318792
0.0399419
0.0549041
0.0900883
0.226217
0.0121054
0.0129748
0.0138954
0.0148744
0.0159228
0.0170573
0.018303
0.0196988
0.0213049
0.0232178
0.0256012
0.0288038
0.0333016
0.0403206
0.0531252
0.083269
0.202119
0.0132547
0.0143297
0.0154701
0.0166798
0.0179656
0.019338
0.0208146
0.0224241
0.0242135
0.026263
0.0287166
0.0318737
0.0360931
0.0423201
0.0531304
0.0779578
0.177871
0.0145347
0.015866
0.017287
0.0187993
0.0204065
0.0221154
0.0239396
0.0259041
0.0280533
0.0304658
0.0332834
0.0367695
0.0412097
0.047284
0.0568122
0.0765795
0.154807
0.0159496
0.0176003
0.0193787
0.0212862
0.0233255
0.0255036
0.027836
0.0303533
0.0331114
0.0362084
0.0398184
0.0442713
0.0497534
0.0568241
0.0666227
0.0827036
0.133739
0.0175018
0.0195467
0.0217772
0.0241965
0.0268099
0.0296292
0.0326798
0.0360118
0.0397166
0.0439522
0.0489862
0.0552702
0.0630208
0.0729257
0.0858272
0.101927
0.115061
0.0191855
0.0217143
0.0245128
0.0275904
0.0309599
0.0346437
0.0386873
0.0431787
0.0482812
0.0542884
0.0617221
0.0709598
0.0827555
0.0983014
0.119143
0.144162
0.098874
0.00737611
0.00747781
0.00763299
0.00786799
0.00819306
0.00859723
0.00906253
0.00957282
0.0101244
0.0107185
0.011363
0.0120625
0.012822
0.0136429
0.0145258
0.0154696
0.0164741
0.0175398
0.018668
0.0198618
0.0216611
0.0236298
0.024981
0.026205
0.0273011
0.0282849
0.0291697
0.0299523
0.0306096
0.0311063
0.0314008
0.0314535
0.0312325
0.0307175
0.0299037
0.0288014
0.0274388
0.0258602
0.0241346
0.0223602
0.0206703
0.00809957
0.00819062
0.00835598
0.00862336
0.00899637
0.00945581
0.00997634
0.0105408
0.0111463
0.0117977
0.0125046
0.0132734
0.0141108
0.0150188
0.0160004
0.017056
0.0181878
0.0193986
0.0206915
0.0220722
0.0241002
0.0263193
0.0279434
0.0294636
0.03086
0.0321326
0.0332862
0.0343134
0.0351882
0.0358691
0.0363064
0.0364509
0.0362618
0.0357129
0.0347964
0.0335244
0.0319261
0.0300473
0.0279529
0.0257453
0.0235924
0.00897412
0.00905718
0.00924561
0.00956268
0.00999895
0.0105226
0.011102
0.0117212
0.0123811
0.0130916
0.013864
0.0147078
0.0156297
0.0166346
0.0177266
0.0189091
0.0201865
0.0215643
0.0230478
0.024645
0.0269309
0.0294305
0.0313696
0.0332376
0.0349978
0.0366306
0.0381254
0.0394649
0.0406155
0.0415269
0.0421391
0.0423912
0.0422318
0.0416285
0.0405723
0.03908
0.037189
0.0349506
0.0324252
0.0296997
0.0269498
0.0100335
0.0101201
0.0103555
0.0107471
0.0112629
0.0118565
0.0124939
0.0131651
0.0138784
0.014649
0.0154914
0.0164165
0.0174325
0.0185461
0.0197637
0.0210918
0.0225371
0.0241081
0.0258128
0.0276615
0.0302394
0.033056
0.0353572
0.0376295
0.0398221
0.0418944
0.0438144
0.045547
0.0470439
0.0482413
0.0490644
0.0494381
0.0492989
0.0486073
0.0473552
0.045569
0.0433022
0.0406232
0.0375954
0.0342772
0.0308001
0.0113261
0.0114458
0.0117683
0.0122646
0.0128717
0.0135326
0.0142201
0.014937
0.0157015
0.0165345
0.0174527
0.0184682
0.0195906
0.0208284
0.0221909
0.0236872
0.0253275
0.0271229
0.0290848
0.0312264
0.0341366
0.0373142
0.0400323
0.0427714
0.0454703
0.0480678
0.0505059
0.0527236
0.054649
0.0561961
0.0572697
0.057776
0.0576373
0.0568075
0.0552818
0.0531016
0.050346
0.0471147
0.0434924
0.039513
0.0352028
0.0129305
0.0131462
0.0136135
0.0142403
0.014935
0.0156462
0.0163679
0.0171215
0.017936
0.018836
0.0198389
0.0209575
0.0222024
0.0235844
0.0251153
0.0268078
0.0286752
0.0307323
0.0329943
0.0354777
0.038768
0.0423595
0.0455583
0.0488349
0.0521203
0.0553338
0.0583891
0.0611916
0.0636353
0.0656017
0.066966
0.0676101
0.0674395
0.0664026
0.0645023
0.0618019
0.0584158
0.0544886
0.050149
0.0454337
0.0402238
0.0149881
0.0154151
0.0160887
0.0168446
0.0175935
0.0183206
0.0190548
0.0198374
0.020704
0.0216793
0.0227797
0.0240178
0.0254058
0.0269566
0.0286849
0.0306071
0.0327404
0.0351037
0.0377166
0.0405995
0.0443267
0.0483952
0.0521497
0.0560448
0.0600043
0.0639295
0.0677038
0.0711929
0.0742464
0.0767012
0.0783922
0.079169
0.0789182
0.0775844
0.0751848
0.0718144
0.067633
0.0628412
0.0576309
0.0520837
0.0459498
0.0177708
0.018577
0.0194752
0.0202969
0.0210286
0.0217251
0.0224518
0.0232607
0.0241861
0.0252488
0.0264629
0.0278411
0.0293971
0.0311461
0.0331066
0.0352986
0.0377443
0.040467
0.0434912
0.0468417
0.0510732
0.0556934
0.0600906
0.064696
0.0694257
0.0741623
0.0787566
0.0830298
0.0867775
0.0897807
0.091822
0.092711
0.0923121
0.09057
0.0875257
0.0833169
0.0781607
0.0723227
0.0660687
0.0595624
0.0525135
0.0217964
0.023122
0.0241305
0.0248713
0.0254912
0.026115
0.0268231
0.0276613
0.0286548
0.0298186
0.0311647
0.0327063
0.034459
0.0364413
0.0386752
0.0411853
0.043999
0.0471447
0.0506518
0.0545496
0.0593646
0.064623
0.0697618
0.0751797
0.0807822
0.0864306
0.0919404
0.0970825
0.101591
0.105182
0.107575
0.108533
0.107897
0.105618
0.101769
0.0965442
0.0902305
0.0831662
0.0756925
0.06807
0.0601212
0.0279578
0.0296648
0.0304704
0.0309404
0.0313706
0.0318987
0.0325846
0.0334546
0.0345229
0.0357994
0.0372955
0.0390257
0.0410081
0.0432645
0.0458209
0.0487068
0.0519547
0.0555987
0.0596724
0.0642092
0.0696991
0.0756931
0.0816809
0.0880191
0.0945977
0.101252
0.107758
0.11383
0.119136
0.123319
0.126032
0.126988
0.126007
0.12305
0.118236
0.111825
0.104184
0.095731
0.0868767
0.0779624
0.0690779
0.0374988
0.0388379
0.0390372
0.0391083
0.039316
0.0397353
0.0403875
0.0412806
0.042421
0.0438165
0.0454788
0.0474242
0.0496732
0.0522511
0.055188
0.0585178
0.0622777
0.0665066
0.0712425
0.0765206
0.0827845
0.0896176
0.0965629
0.103924
0.11157
0.119303
0.126852
0.133874
0.139967
0.144698
0.147658
0.148511
0.147064
0.143295
0.137375
0.12964
0.120537
0.11057
0.100202
0.0898305
0.0798079
0.0516151
0.0513953
0.0507958
0.0504447
0.0504032
0.0506752
0.0512556
0.0521428
0.0533393
0.054852
0.0566932
0.0588805
0.0614365
0.0643894
0.0677726
0.0716234
0.0759824
0.0808914
0.0863906
0.0925153
0.0996506
0.107418
0.115413
0.123874
0.132639
0.141474
0.150056
0.15798
0.164777
0.169951
0.173034
0.173659
0.171627
0.166943
0.159831
0.150699
0.140069
0.12853
0.11655
0.104615
0.0933313
0.070796
0.0689237
0.0675902
0.0667666
0.066383
0.0664171
0.0668512
0.0676782
0.0688968
0.0705126
0.0725377
0.0749896
0.0778919
0.0812741
0.0851708
0.0896206
0.0946646
0.100344
0.106698
0.113755
0.121831
0.130589
0.139674
0.14924
0.159094
0.168956
0.178453
0.187124
0.194445
0.199873
0.202908
0.203171
0.20047
0.19484
0.186553
0.176069
0.163973
0.150897
0.137278
0.12414
0.111734
0.0975038
0.094784
0.092566
0.0910754
0.0901795
0.0898328
0.0900077
0.090689
0.0918698
0.0935526
0.0957474
0.0984698
0.101741
0.10559
0.110047
0.115149
0.120931
0.12743
0.134674
0.14268
0.151677
0.161374
0.171457
0.181985
0.192729
0.203366
0.21348
0.222576
0.230101
0.235499
0.238273
0.238061
0.23469
0.228225
0.218964
0.207366
0.1941
0.179627
0.165141
0.150891
0.137262
0.13784
0.134068
0.130987
0.12857
0.126957
0.12605
0.125819
0.126234
0.127278
0.128951
0.131256
0.134202
0.137807
0.142088
0.14707
0.152778
0.159234
0.166458
0.174461
0.183234
0.19291
0.203238
0.213942
0.224981
0.236095
0.246936
0.257075
0.266017
0.273233
0.278203
0.280483
0.279756
0.275885
0.268943
0.259213
0.247091
0.233318
0.21865
0.20358
0.188626
0.174161
0.200722
0.195977
0.191964
0.188767
0.18638
0.184774
0.184014
0.184024
0.184786
0.186291
0.188534
0.191513
0.195231
0.199693
0.204902
0.210864
0.217576
0.225031
0.233208
0.242067
0.251637
0.261712
0.272051
0.282534
0.292899
0.302815
0.311899
0.319723
0.32585
0.329869
0.331439
0.330325
0.326424
0.319799
0.310601
0.299433
0.286722
0.27296
0.258641
0.244214
0.229976
0.302021
0.297503
0.293478
0.290152
0.287547
0.285671
0.284528
0.284117
0.284437
0.285469
0.287195
0.289602
0.292676
0.2964
0.300755
0.305719
0.311263
0.317348
0.323926
0.330934
0.338325
0.345958
0.353655
0.361288
0.36866
0.375545
0.381692
0.386841
0.390735
0.393143
0.393879
0.392819
0.389889
0.385107
0.37869
0.370822
0.36176
0.351789
0.341201
0.330276
0.319104
0.0481181
0.0183716
0.00465699
0.00251993
0.00206404
0.0023037
0.00317578
0.00489004
0.00775522
0.0119986
0.0170141
0.0214051
0.0234454
0.0223108
0.0187332
0.0142968
0.0101464
0.0491604
0.017301
0.00450649
0.00250606
0.00206187
0.00219573
0.00274655
0.00375729
0.00533214
0.00747935
0.00987259
0.0118464
0.0126396
0.0119441
0.0101628
0.00807986
0.00638199
0.047738
0.0160328
0.00438525
0.00250476
0.00206697
0.00211847
0.00245474
0.00304403
0.0039005
0.00497138
0.00607237
0.00690182
0.00716227
0.00678363
0.00600648
0.00525151
0.00495027
0.0460197
0.0147359
0.00429489
0.00251963
0.00208179
0.00207138
0.00226693
0.0026052
0.00306443
0.00359129
0.00408684
0.0044227
0.00450041
0.00432601
0.00402089
0.00373932
0.00352664
0.0443377
0.013557
0.00424223
0.00255395
0.00211162
0.00205537
0.00216064
0.00235296
0.0026002
0.00286287
0.0030916
0.00323719
0.00327496
0.00322522
0.00314621
0.00309604
0.00309513
0.0431917
0.0126171
0.00423248
0.00261065
0.00215942
0.00206892
0.00211719
0.00222713
0.00236617
0.00250765
0.00262818
0.00271149
0.00275613
0.00277925
0.00280911
0.00287111
0.00298005
0.0429246
0.0119407
0.004262
0.00269072
0.00222718
0.00210984
0.00212211
0.00218696
0.00227305
0.00236319
0.00244513
0.00251453
0.00257483
0.0026358
0.00270819
0.00279685
0.00289626
0.0437794
0.0115251
0.00432395
0.00279143
0.00231526
0.00217607
0.00216469
0.00220507
0.00226661
0.00233585
0.00240622
0.00247569
0.00254643
0.00262224
0.0027057
0.00279627
0.00289123
0.0459241
0.0113526
0.00441071
0.00290736
0.00242215
0.00226538
0.00223636
0.00226134
0.00231001
0.00236935
0.0024339
0.00250202
0.00257369
0.00264922
0.00272859
0.00281146
0.00289795
0.0495191
0.0114124
0.00452244
0.00303612
0.00254753
0.00237899
0.00233698
0.00235151
0.00239344
0.00244966
0.00251447
0.00258569
0.00266279
0.00274586
0.00283473
0.00292855
0.0030255
0.0547183
0.0116991
0.00466923
0.00318087
0.00269074
0.00251547
0.00246422
0.00246981
0.00250463
0.00255565
0.00261619
0.00268266
0.00275292
0.00282548
0.00289918
0.00297333
0.00304823
0.0616437
0.0122148
0.00486752
0.00335008
0.00285043
0.00266666
0.00260748
0.00260538
0.0026325
0.00267565
0.00272781
0.00278482
0.0028441
0.00290405
0.00296356
0.0030216
0.00307657
0.0703858
0.0129693
0.00513757
0.00355795
0.00303259
0.00282874
0.002754
0.00274038
0.00275914
0.00279651
0.00284516
0.00290095
0.00296134
0.00302479
0.00309059
0.00315872
0.00322983
0.080947
0.0139862
0.00550476
0.00382102
0.00325199
0.00301723
0.00291917
0.00288755
0.00289163
0.00291621
0.00295306
0.00299749
0.00304654
0.00309825
0.00315136
0.00320568
0.00326275
0.0932483
0.0153162
0.00600415
0.00415456
0.00351695
0.00323862
0.00310985
0.00305567
0.00304243
0.00305294
0.00307785
0.00311184
0.00315162
0.00319461
0.00323801
0.00327832
0.0033106
0.107155
0.0170545
0.00668777
0.00458023
0.00383768
0.00349895
0.00332998
0.00324705
0.00321221
0.00320566
0.00321653
0.00323883
0.00326944
0.00330686
0.00335036
0.00339969
0.00345508
0.122463
0.0193598
0.00763042
0.00513108
0.00422989
0.00380708
0.0035854
0.00346575
0.00340363
0.0033757
0.00336876
0.00337521
0.00339077
0.00341314
0.0034411
0.00347421
0.00351396
0.138706
0.0223671
0.00893236
0.00585719
0.00471847
0.00417658
0.00388438
0.00371751
0.00362111
0.00356697
0.00353911
0.00352811
0.00352836
0.00353658
0.0035505
0.00356704
0.00357898
0.155178
0.0262617
0.0107189
0.00682936
0.00534138
0.00462812
0.00423872
0.00400964
0.00386946
0.00378251
0.00372902
0.00369726
0.0036802
0.00367393
0.00367714
0.00369109
0.00371934
0.171082
0.0312394
0.0131247
0.00813617
0.00615122
0.00519159
0.00466551
0.0043522
0.00415499
0.00402651
0.00394117
0.00388398
0.00384568
0.00382045
0.00380497
0.00379872
0.00380665
0.185255
0.037466
0.0162667
0.00987073
0.00721189
0.00590689
0.00518858
0.00475923
0.00448612
0.00430422
0.00417908
0.00409092
0.00402768
0.00398159
0.00394747
0.00392129
0.00389716
0.197533
0.0451132
0.0202331
0.0121178
0.00859246
0.00682188
0.00583847
0.0052493
0.00487387
0.0046222
0.00444664
0.0043203
0.00422705
0.00415679
0.0041032
0.00406325
0.00404116
0.20815
0.0543651
0.0250882
0.0149381
0.0103504
0.00798166
0.00664693
0.00584314
0.00533103
0.00498803
0.00474827
0.00457464
0.00444506
0.00434602
0.00426877
0.00420783
0.00416358
0.220053
0.0636634
0.0303492
0.0181588
0.0124397
0.00939057
0.00763239
0.00655916
0.00587161
0.00541111
0.00508979
0.00485727
0.00468341
0.00455018
0.00444568
0.00436224
0.00429405
0.233449
0.0728401
0.035734
0.0215989
0.0147426
0.0109793
0.00875825
0.00737921
0.00648671
0.00588668
0.00546825
0.0051662
0.00494116
0.00476888
0.00463376
0.00452581
0.00443798
0.247679
0.0816443
0.0410833
0.025121
0.0171688
0.0126942
0.00999422
0.0082873
0.00716835
0.00641066
0.00588121
0.00549959
0.0052163
0.00500027
0.00483155
0.00469704
0.004588
0.261559
0.0898131
0.0461873
0.0285734
0.0196098
0.0144613
0.0112931
0.00925492
0.00790011
0.00697404
0.00632396
0.00585526
0.00550834
0.00524499
0.00504032
0.00487779
0.00474638
0.273355
0.0967211
0.0507306
0.0317579
0.0219317
0.0161895
0.0125945
0.0102437
0.00865888
0.00756403
0.00679062
0.00623189
0.00581892
0.00550635
0.00526408
0.00507193
0.00491588
0.281034
0.101676
0.0543148
0.0344268
0.0239709
0.0177687
0.0138258
0.0112088
0.00942051
0.00817144
0.00728222
0.00663683
0.00615827
0.00579475
0.00551149
0.00528501
0.00509919
0.282707
0.104094
0.0565611
0.0363286
0.0255567
0.0190831
0.0149154
0.0121204
0.0101909
0.00882539
0.00783663
0.00710515
0.0065524
0.0061256
0.00578875
0.00551696
0.00529318
0.277202
0.103551
0.0571927
0.0372679
0.02655
0.020054
0.0158338
0.0129552
0.0109241
0.00945519
0.00836974
0.00755311
0.00692815
0.00644064
0.0060528
0.00573819
0.0054783
0.264475
0.100022
0.0561523
0.0371764
0.0268962
0.0205928
0.0164292
0.0135465
0.011484
0.00997089
0.00883747
0.00796957
0.0072895
0.00674799
0.00631206
0.0059553
0.00565869
0.245641
0.0939481
0.0536768
0.0361927
0.0266425
0.0207314
0.0167784
0.0139947
0.0119625
0.0104388
0.00927215
0.00836241
0.00764098
0.00705621
0.00657254
0.00617267
0.00583832
0.222601
0.0862448
0.0503143
0.0346736
0.0260779
0.020699
0.0170384
0.0144029
0.0124303
0.0109126
0.00972062
0.00876913
0.00799871
0.00736675
0.0068405
0.00639453
0.00602007
0.197505
0.0781308
0.0469389
0.0332347
0.0256245
0.0207782
0.0173988
0.0148973
0.0129707
0.0114467
0.0102186
0.00921543
0.00838708
0.0076969
0.0071174
0.0066255
0.00620598
0.172294
0.071233
0.0447986
0.0327675
0.0258629
0.0213491
0.0181081
0.0156402
0.0136893
0.0121094
0.0108096
0.00972876
0.00882331
0.00806055
0.00741534
0.00686794
0.0063994
0.148465
0.0677705
0.0455738
0.0344217
0.0274962
0.0228517
0.0194468
0.0168116
0.0147012
0.0129737
0.0115394
0.0103377
0.00932494
0.00846832
0.00774232
0.00712677
0.00660385
0.126972
0.07104
0.0514452
0.0395411
0.0312863
0.0257371
0.021692
0.0185849
0.016116
0.0141089
0.0124519
0.0110696
0.009909
0.00893077
0.00810501
0.00740833
0.0068219
0.10828
0.0862398
0.0652973
0.0497457
0.0382884
0.0305213
0.0251346
0.0211336
0.0180387
0.0155789
0.0135856
0.0119478
0.0105893
0.00945598
0.00850808
0.00771525
0.00705387
0.0925001
0.122736
0.0914713
0.06747
0.0504357
0.0382798
0.0303155
0.0247282
0.0206102
0.017461
0.0149852
0.0129989
0.0113823
0.0100544
0.00895834
0.0080528
0.00730588
0.0187104
0.0611535
0.198919
0.528824
0.872844
0.794419
0.464296
0.237118
0.18388
0.200035
0.251259
0.332363
0.422236
0.454754
0.430804
0.357367
0.247744
0.139736
0.0621562
0.0205172
0.0163645
0.0478412
0.153674
0.45816
0.887313
0.8882
0.533999
0.253548
0.174858
0.171168
0.195913
0.249055
0.322721
0.350671
0.320681
0.25285
0.168803
0.0941948
0.0435461
0.0165825
0.0159151
0.0405458
0.116174
0.375305
0.874986
0.992218
0.633795
0.286702
0.179038
0.158863
0.159764
0.178773
0.213842
0.224989
0.20101
0.15526
0.103582
0.0598145
0.0306834
0.0144371
0.0169068
0.0391287
0.0905932
0.284304
0.812225
1.11604
0.770969
0.341012
0.196718
0.163123
0.148142
0.142478
0.14449
0.136889
0.116709
0.0899222
0.0628135
0.0403168
0.0248263
0.0146724
0.0189259
0.0424144
0.0794829
0.201672
0.684668
1.26412
0.947753
0.421026
0.227727
0.181363
0.156788
0.136804
0.120651
0.100766
0.0799276
0.0622238
0.0473264
0.0351364
0.0258314
0.0176454
0.0218768
0.0489495
0.0812103
0.144085
0.497731
1.32517
1.18292
0.535962
0.273821
0.211506
0.17973
0.153046
0.128779
0.10454
0.0809996
0.063714
0.0512281
0.0414408
0.0331883
0.0238821
0.0264386
0.0579628
0.0915049
0.120319
0.306655
1.19179
1.40327
0.702015
0.340857
0.255257
0.215087
0.182933
0.154526
0.128238
0.103349
0.0835282
0.0689394
0.0574504
0.0473841
0.0346926
0.0326661
0.0702898
0.106926
0.121884
0.193871
0.947216
1.54942
1.0833
0.446818
0.318005
0.266346
0.225947
0.193213
0.16429
0.138065
0.115792
0.0982932
0.0837799
0.0704994
0.0527701
0.0410117
0.0871204
0.127511
0.133403
0.149165
0.678279
1.50532
1.39546
0.765673
0.418556
0.341718
0.290804
0.249281
0.21545
0.18699
0.16136
0.140771
0.123076
0.106191
0.082536
0.0525103
0.110719
0.156182
0.1505
0.142694
0.491842
1.31484
1.38882
1.07768
0.685603
0.465633
0.388275
0.337992
0.295445
0.259664
0.229471
0.204095
0.181562
0.160494
0.130285
0.0687885
0.144058
0.197859
0.173895
0.142027
0.358362
1.08737
1.27212
1.14534
0.937101
0.713451
0.548136
0.472206
0.420164
0.376657