/*--------------------------------*- C++ -*----------------------------------*\
  =========                 |
  \\      /  F ield         | OpenFOAM: The Open Source CFD Toolbox
   \\    /   O peration     | Website:  https://openfoam.org
    \\  /    A nd           | Version:  6
     \\/     M anipulation  |
\*---------------------------------------------------------------------------*/
FoamFile
{
    version     2.0;
    format      ascii;
    class       volScalarField;
    location    "1.6";
    object      T;
}
// * * * * * * * * * * * * * * * * * * * * * * * * * * * * * * * * * * * * * //

dimensions      [0 0 0 1 0 0 0];

internalField   nonuniform List<scalar> 
1600
(
1
1
1
1
1
1
1
1
1
1
1
1
1
1
1
1
1
1
1
1
1
1
1
1
1
1
1
1
1
1
1
1
1
1
1
1
1
1
1
1
1
1
1
1
1
1
1
1
1
1
1
1
1
1
1
1
1
1
1
1
1
1
1
1
1
1
1
1
1
1
1
1
1
1
1
1
1
1
1
1
1
1
1
1
1
1
1
1
1
1
1
1
1
1
1
1
1
1
1
1
1
1
1
1
1
1
1
1
1
1
1
1
1
1
1
1
1
1
1
1
1
1
1
1
1
1
1
1
1
1
1
1
1
1
1
1
1
1
1
1
1
1
0.999999
0.999999
1
1
1
1
1
1
1
1
1
1
1
1
1
1
1
1
1
1
1
1
1
1
1
1
1
1
1
1
1
1
1
1
1
1
1
1
1
0.999999
0.999998
0.999997
0.999996
0.999997
0.999999
1
1
1
1
1
1
1
1
1
1
1
1
1
1
1
1
1
1
1
1
1
1
1
1
1
1
1
1
1
1
1
0.999999
0.999999
0.999999
0.999997
0.999989
0.99998
0.999975
0.999977
0.999986
0.999993
0.999998
1
1
1
1
1
1
1
1
1
1
1
1
1
1
1
1
1
1
1
1
1
1
1
1
1
1
1
1
1
0.999999
0.999999
0.999999
0.999985
0.999946
0.999888
0.999844
0.999844
0.999887
0.999941
0.999982
1
1
1
1
1
1
1
1
1
1
1
1
1
1
1
1
1
1
1
1
1
1
1
1
1
1
1
1
0.999999
0.999998
0.999997
0.999989
0.999926
0.999741
0.999447
0.99918
0.999113
0.999287
0.999575
0.999818
0.999947
0.999992
1
1
1
1
1
1
1
1
1
1
1
1
1
1
1
1
1
1
1
1
1
1
1
1
1
1
1
1
0.999982
0.999932
0.999674
0.998926
0.997685
0.996441
0.995939
0.996495
0.997678
0.998808
0.999526
0.999856
0.999967
0.999994
0.999999
1
1
1
1
1
1
1
1
1
1
1
1
1
1
1
1
1
1
1
1
1
1
0.999997
1
1.00001
0.999898
0.99969
0.998783
0.996268
0.992049
0.98752
0.985282
0.986777
0.990738
0.994849
0.997716
0.999197
0.999778
0.999951
0.999991
0.999999
1
1
1
1
1
1
1
1
1
1
1
1
1
1
1
0.999999
0.999999
1
0.999996
1
0.999996
0.999983
1.00003
1.00003
0.999559
0.998876
0.996156
0.989181
0.97752
0.964128
0.956767
0.960683
0.972108
0.98408
0.992623
0.997241
0.999175
0.999804
0.999963
0.999994
0.999999
1
1
1
1
1
1
1
1
1
1
1
1
1
1
1
1
0.999996
0.999991
0.999997
0.999965
0.999975
1.00013
0.999987
0.998511
0.996598
0.989616
0.973567
0.946536
0.911737
0.891078
0.902965
0.933489
0.962781
0.982697
0.993366
0.997931
0.999481
0.999896
0.999983
0.999998
1
1
1
1
1
1
1
1
1
1
1
1
1
1
1
1
0.999998
1.00002
1.00002
0.999955
1.0001
1.00044
0.999704
0.99601
0.991185
0.975862
0.944848
0.890433
0.802205
0.74746
0.7947
0.872614
0.933076
0.969754
0.988418
0.996317
0.999043
0.9998
0.999967
0.999996
1
1
1
1
1
1
1
1
1
1
1
1
1
1
1
0.999996
1.00001
1.00004
1.00002
1.00003
1.00062
1.00119
0.999
0.991361
0.980511
0.951862
0.901589
0.806047
0.53951
0.420415
0.657697
0.819006
0.911384
0.961218
0.985327
0.995323
0.998766
0.999735
0.999954
0.999994
0.999999
1
1
1
1
1
1
1
1
1
1
1
1
1
0.999998
1
1.00002
0.999995
0.9999
1.00001
1.00155
1.00285
0.998512
0.985188
0.964177
0.9193
0.854422
0.728833
0.812278
0.186448
0.673112
0.834725
0.919368
0.964801
0.986794
0.995838
0.998911
0.999765
0.999959
0.999994
0.999999
1
1
1
1
1
1
1
1
1
1
1
1
1
0.999999
1.00001
1.00001
0.999965
0.999843
0.999609
1.0019
1.00581
1.00071
0.981827
0.947533
0.892779
0.829876
0.721326
0.49976
0.679587
0.812998
0.89726
0.94868
0.977684
0.991836
0.997531
0.999384
0.999873
0.999978
0.999997
1
1
1
1
1
1
1
1
1
1
1
1
1
1
1
1
0.999996
0.999981
1.00003
0.999326
1.00005
1.00824
1.00807
0.987357
0.943335
0.891421
0.830033
0.739108
0.742035
0.828568
0.900105
0.947653
0.975878
0.990546
0.996949
0.999206
0.999833
0.999971
0.999996
0.999999
1
1
1
1
1
1
1
1
1
1
1
1
1
1
1
0.999999
1
0.99995
1.00016
1.00006
0.996861
1.00579
1.01737
1
0.961332
0.911843
0.841303
0.796862
0.837038
0.904107
0.952929
0.980234
0.993265
0.998336
0.999791
1.00004
1.00003
1.00001
1
1
1
1
1
1
1
1
1
1
1
1
1
1
1
1
1
0.999996
1.00001
0.999983
0.999822
1.00135
0.996214
0.999697
1.01542
1.01348
0.991975
0.934187
0.87933
0.884712
0.92818
0.967403
0.988972
0.997829
1.00036
1.00055
1.00027
1.00009
1.00002
1
1
1
1
1
1
1
1
1
1
1
1
1
1
1
1
1
1
1
0.999984
1.00011
0.999521
1.00113
0.999443
0.996716
1.002
1.01814
1.00777
0.959763
0.936399
0.957149
0.98506
0.998526
1.00152
1.00121
1.00054
1.00016
1.00003
1
1
1
1
1
1
1
1
1
1
1
1
1
1
1
1
1
1
1
1
1
0.999986
1.00005
0.999969
0.999584
1.00147
0.998801
0.996923
1.00754
1.00331
0.987033
0.985346
0.99655
1.00517
1.00526
1.00239
1.00067
1.00013
1.00002
1
1
1
1
1
1
1
1
1
1
1
1
1
1
1
1
1
1
1
1
1
0.999993
1.00002
0.999916
1.00023
0.999683
0.999872
1.00076
1.00031
0.99849
0.997971
1.00139
1.00801
1.01048
1.00834
1.00422
1.00131
1.00029
1.00006
1.00001
1
1
1
1
1
1
1
1
1
1
1
1
1
1
1
1
1
1
1
1
0.999997
1
0.999998
1.00001
0.999884
1.00038
0.999514
1.00005
1.0006
0.998944
0.999951
1.00394
1.00671
1.00554
1.00328
1.00191
1.00062
1.00013
1.00001
1
1
1
1
1
1
1
1
1
1
1
1
1
1
1
1
1
1
1
1
1
0.999996
1.00001
0.999979
1.00004
0.999995
0.999836
1.00034
0.99988
0.999532
1.0004
1.00102
1.00049
0.999359
0.999693
1.00034
1.00054
1.00022
0.999999
1.00001
0.999998
1
0.999999
1
1
1
1
1
1
1
1
1
1
1
1
1
1
1
1
1
0.999996
1.00001
0.999991
1.00001
0.999967
1.00006
0.999975
0.99995
1.00002
1.00006
1.00017
0.99972
0.999035
0.999049
0.999358
0.999629
0.999838
1.00002
0.999997
1.00001
1
0.999998
1
1
1
1
1
1
1
1
1
1
1
1
1
1
1
1
0.999999
1
0.999998
1.00001
0.99999
1.00001
1.00003
0.999925
1.00009
0.999946
0.999986
1.0001
0.999855
0.999855
1.00009
1.00008
0.999864
0.999736
0.999827
0.999996
1.00003
0.999996
1
0.999999
1
1
1
1
1
1
1
1
1
1
1
1
1
1
1
1
1
0.999998
1
0.999992
1.00001
0.999999
0.999974
1.00006
0.999935
1.00003
1.00004
0.999922
1.00001
1.00011
1.0001
1.00003
0.999975
0.999991
1.00003
1.00003
1.00001
0.999992
1
1
0.999999
1
1
1
1
1
1
1
1
1
1
1
1
1
1
0.999999
1
0.999998
1
0.999998
1
0.999995
1.00001
0.999978
1.00002
1.00001
0.99997
1.00002
1.00002
0.999972
0.999967
1.00001
1.00005
1.00007
1.00006
1
0.999984
1
1
1
1
1
1
1
1
1
1
1
1
1
1
1
1
1
1
1
0.999999
1
0.999997
1
0.999998
1
1
0.999998
1.00001
0.999989
1.00001
1
0.999988
1
1
1
1.00002
1.00001
0.999988
0.999979
0.999993
1.00001
1
0.999999
1
1
1
1
1
1
1
1
1
1
1
1
1
1
1
1
0.999999
1
0.999999
1
0.999997
1
0.999995
1.00001
0.999994
1
1
0.999996
1
1
1
0.999997
0.999991
0.999984
0.99998
0.999996
1.00001
1
0.999998
1
1
1
1
1
1
1
1
1
1
1
1
1
1
1
1
1
1
0.999999
1
0.999998
1
0.999998
1
0.999998
1
1
0.999998
1
1
0.999999
1
1
0.999997
0.999996
1
1.00001
1
0.999997
0.999999
1
1
1
1
1
1
1
1
1
1
1
1
1
1
1
1
1
1
1
1
1
1
1
1
1
1
0.999999
1
0.999999
1
1
1
1
1
1
1
1
0.999997
0.999998
1
1
1
1
1
1
1
1
1
1
1
1
1
1
1
1
1
1
1
1
1
1
1
1
1
1
1
1
1
1
1
1
1
1
1
1
1
0.999998
0.999999
1
1
1
1
1
1
1
1
1
1
1
1
1
1
1
1
1
1
1
1
1
1
1
1
1
1
1
1
1
1
1
1
1
1
1
1
1
1
1
1
1
1
1
1
1
1
1
1
1
1
1
1
1
1
1
1
1
1
1
1
1
1
1
1
1
1
1
1
1
1
1
1
1
1
1
1
1
1
1
1
1
1
1
1
1
1
1
1
1
1
1
1
1
1
1
1
1
1
1
1
1
1
1
1
1
1
1
1
1
1
1
1
1
1
1
1
1
1
1
1
1
1
1
1
1
1
1
1
1
1
1
1
1
1
1
1
1
1
1
1
1
1
1
1
1
1
1
1
1
1
1
1
1
1
1
1
1
1
1
1
1
1
1
1
1
1
1
1
1
1
1
1
1
1
1
1
1
1
1
1
1
1
1
1
1
1
1
1
1
1
1
1
1
1
1
1
1
1
1
1
1
1
1
1
1
1
1
1
1
1
1
1
1
1
1
1
1
1
1
1
1
1
1
1
1
1
1
1
1
1
1
1
1
1
1
1
1
1
1
1
1
1
1
1
1
1
1
1
1
1
1
1
1
1
1
1
1
1
1
1
1
1
1
1
1
1
1
1
1
1
1
1
1
1
1
1
1
1
1
1
1
1
1
1
1
1
1
1
1
1
1
1
)
;

boundaryField
{
    emptyPatches_empt
    {
        type            empty;
    }
    top_cyc
    {
        type            cyclic;
    }
    bottom_cyc
    {
        type            cyclic;
    }
    inlet_cyc
    {
        type            cyclic;
    }
    outlet_cyc
    {
        type            cyclic;
    }
}


// ************************************************************************* //
