/*--------------------------------*- C++ -*----------------------------------*\
  =========                 |
  \\      /  F ield         | OpenFOAM: The Open Source CFD Toolbox
   \\    /   O peration     | Website:  https://openfoam.org
    \\  /    A nd           | Version:  6
     \\/     M anipulation  |
\*---------------------------------------------------------------------------*/
FoamFile
{
    version     2.0;
    format      ascii;
    class       surfaceScalarField;
    location    "1.11";
    object      meshPhi;
}
// * * * * * * * * * * * * * * * * * * * * * * * * * * * * * * * * * * * * * //

dimensions      [0 3 -1 0 0 0 0];

internalField   nonuniform List<scalar> 
11670
(
-0.171401
-0.0895772
-0.00485247
0.276655
-0.0707577
0.0255129
-0.0332772
0.0593069
-0.410517
-0.0602974
0.00941199
0.441327
-0.506991
-0.24004
-0.0118755
0.784775
-0.209679
-0.0662643
-0.0108506
0.323754
0.00658457
0.00701232
0.000558922
-0.00140464
0.552742
0.0763622
-0.0302802
-0.586289
-0.255913
-0.0668473
0.0146872
0.262987
0.40791
-0.178675
0.196718
-0.408461
-0.317111
0.141555
-0.198187
0.346283
0.750017
0.318553
0.00176495
-1.07596
-0.00303647
-0.0069928
0.00818526
-0.0114319
0.0107218
-0.00704566
0.0179165
-0.00860093
0.000605412
0.00517191
-0.00849157
0.0190113
-0.00888168
0.00818837
-0.02412
0.00874007
-0.00269747
0.00423093
0.0102387
-0.00421625
-0.0042941
0.00252271
-0.00778084
0.0034122
-0.000617974
-0.00283267
0.00343408
-0.00477888
-0.000832473
0.00628129
0.0143642
-0.00902135
-0.000119989
0.00434192
-0.00334207
0.00492524
-0.0041474
0.00299797
-0.00996665
0.00368326
0.000567559
0.00350508
-0.00295772
0.00296185
2.34028e-05
-0.00320793
0.00320616
-0.00466249
-0.0104881
0.00237534
-0.0136886
0.00874781
0.00589726
-0.00439806
0.011321
-0.0041863
-0.0104988
0.0148363
-0.00857347
0.0284641
0.00697589
-0.00812068
0.00903211
-0.0279929
0.0030522
0.00926685
0.0206285
-0.013505
-0.00909305
0.00101734
0.0139559
-0.0220869
0.0199221
-0.018097
-0.0139439
0.0446682
-0.0113311
0.00127905
0.0173712
-0.0276577
0.00369512
0.0114953
0.0253329
-0.0167988
0.024502
-0.0220749
-0.0173447
0.0552211
-0.00484285
-0.0115728
-0.0272921
0.0182721
-0.0244773
0.0220339
0.0188659
-0.0601457
-0.0164464
0.0188941
-0.0188616
0.0602895
0.0218126
-0.00545064
0.0271635
-0.0182679
-0.0100281
0.0148427
0.0402198
-0.0184512
-0.0183022
0.00501625
-0.0270862
0.0180754
0.0167409
-0.0232282
0.0209618
-0.0661284
0.0111623
-0.00157814
0.0252659
-0.0158681
0.00736845
-0.00860875
-0.0434178
0.0153614
0.0254328
-0.0180388
-0.0150803
0.0491758
-0.0190792
0.00180843
0.0143863
-0.0195052
0.000702157
0.00615078
-0.0109686
0.0218178
-0.000486925
-0.00434069
-0.0236976
0.0111014
0.0152833
-0.0100745
0.0263271
-0.0111099
-0.0154141
0.00806677
0.0109603
-0.024046
0.00426671
-0.000549436
0.00979952
-0.00615452
-0.00700279
0.000732843
0.00556683
-0.00686698
0.00977315
-0.00693322
-0.00584897
0.0191797
0.00311927
-0.00362441
-0.0179886
0.00594416
-0.000405618
6.97493e-05
2.7061e-05
-0.000647083
-0.000295545
0.00037766
0.00141914
3.32985e-05
-6.62177e-14
1.04511e-14
0
-1.28724e-13
0.00945373
0.0016693
-0.00532896
0.00455475
-0.00797703
-0.000992877
-0.00658332
0.00545325
0.00638792
-0.00674623
0.0218854
-0.00715877
-0.00264214
0.00459743
0.00622684
-0.0178395
0.00296141
0.00891745
0.0195731
-0.0134705
-0.0157527
0.00251775
0.0124799
-0.0180264
0.0196317
-0.0178084
-0.0139082
0.0450451
0.0116133
-0.014796
-0.0484648
0.0155066
0.00813801
-0.00110629
0.0185371
-0.0116421
0.0192595
-0.0136619
-0.0110641
0.0367331
0.0105345
-0.00952783
-0.041292
0.0119983
-0.0147089
0.00162527
0.0111506
-0.0141056
0.0130409
-0.00210185
-0.0189041
0.0300977
-0.0242852
0.00250466
0.0181167
-0.0237562
0.0164166
-0.0148104
-0.0655243
0.019494
0.0142175
-0.0163134
0.0183427
-0.0594725
-0.0203169
0.00445491
-0.0262938
0.0177654
0.00534316
0.0159169
-0.0176255
0.0232696
0.0255768
-0.0269924
0.0638502
-0.0189654
0.00364524
0.0112841
0.024707
-0.0167783
0.02448
-0.0222221
-0.0173236
0.0556844
-0.00585255
-0.0139685
0.0166391
-0.0215252
-0.0219338
0.0234193
-0.0607274
0.017904
-0.0203249
-0.00280209
-0.0169736
0.01406
0.0158998
9.6914e-05
0.0173026
-0.0126901
0.0231089
-0.0166831
-0.0200158
0.0553577
-0.00656174
0.011603
0.0160545
-0.0459952
-0.0140995
0.0197816
-0.0908218
0.155929
-0.154487
-0.428263
0.0506706
-0.0603564
-0.153629
-0.16753
0.186396
0.54216
0.0361419
-0.0501096
-0.172268
0.00158777
0.00887039
0.00448024
0.117865
-0.112144
-0.294454
0.184479
-0.18824
-0.48156
0.151521
-0.0765383
0.346512
-0.0595731
0.0689931
-0.347113
-0.286365
0.272169
0.75325
-0.269006
0.166535
0.731273
-0.626259
0.0156437
-0.0425736
0.23275
-0.204669
-1.30591e-05
-0.00321656
-0.00175644
0.00208742
0.0152219
0.0289901
-0.0921079
0.0386085
-0.0246191
0.139847
0.0632655
-0.19033
0.0438212
-0.275966
-0.0800305
0.299835
0.0285747
0.0673683
-0.120198
0.0372418
0.0477837
-0.252759
-0.0523514
0.255979
-0.122704
0.731273
-0.589751
-0.00392232
0.0133209
0.0183042
-0.0343278
-0.000767527
-0.0135242
0.00675587
-0.00156308
-0.0137901
-0.032003
0.0902479
-0.0353548
-0.0109321
-0.0129553
0.0133492
0.0269279
-0.021219
0.00414346
-0.0100269
-0.0589739
-0.0182544
0.0726704
-0.0308096
0.0226964
-0.0020815
0.160863
0.0214151
-0.141763
0.0765439
-0.196262
0.084003
0.000895271
-0.00462547
0.000877201
-0.114738
0.236397
-0.0903503
-0.101882
0.224195
-0.0763459
0.057535
0.0186409
-0.070142
-0.0369495
0.11102
0.0752712
-0.168679
0.0403982
0.0804308
-0.177116
-0.000215241
0.0217078
-0.000488129
-0.0453155
-0.069402
-0.000439795
0.0453155
0.0631474
-0.120332
-0.115795
0.198115
-0.070017
-0.116428
0.274727
0.0153189
-0.0338552
0.0519599
-0.0348656
-0.024012
-0.0341644
0.0720532
0.185208
-0.486354
-0.347941
0.639643
-0.170466
-0.325408
0.671636
0.137986
0.163747
0.284892
-0.612528
0.361826
0.281075
-0.530819
-0.0638706
0.116366
0.110721
-0.186592
0.0622162
0.109286
-0.258748
0.0917931
0.0734681
0.178572
-0.318474
0.30764
0.17701
-0.367497
3.01442e-05
-0.0159597
-5.65821e-05
0.0104482
0.00499387
-5.34622e-05
-0.0104482
0.0450378
-0.354978
0.11685
-0.0322978
0.0280068
-0.093189
-0.155888
-0.0188378
0.0814557
0.121677
-0.0890804
0.025512
-0.0237041
0.0777128
-0.12152
-0.0129049
0.0582061
0.0946997
0.116101
0.0121937
-0.057871
-0.0876307
0.0782309
-0.0219536
0.0183394
-0.0660061
-0.0768486
-0.00673304
0.0346455
0.0572347
0.0304899
-0.0115347
0.00802762
-0.0290197
-0.0343082
0.013254
-0.0102548
0.0337152
0.0722397
0.00633312
-0.0339958
-0.0522842
-0.151231
0.0353253
-0.034553
0.123578
0.175493
0.0211656
-0.0849142
-0.144129
-0.363885
-0.0947169
0.149054
0.302818
0.484573
-0.211392
0.095177
-0.383474
-0.37638
0.161324
-0.0670562
0.283817
0.233343
0.0599141
-0.105701
-0.195136
-0.469358
0.172434
-0.0419443
0.323195
0.484898
0.124132
-0.193248
-0.391971
-0.457159
0.223641
-0.0884511
0.34743
-0.234473
-0.0236955
0.0931835
0.155258
-0.109416
0.0534336
-0.0160318
0.0918563
0.652976
-0.422207
-0.00135191
-0.242221
0.644148
-0.270503
-0.0702294
-0.300837
-1.01268
0.412663
-0.211788
0.77956
0.785951
-0.299055
0.064118
-0.508027
-0.563652
0.29626
-0.0635464
0.33817
-0.257293
0.772254
0.0427505
-0.550484
-0.511131
0.217277
-0.00703027
0.288904
-0.447326
0.162585
-0.0748985
0.305124
0.382702
0.0273078
-0.988022
0.582335
1.03905
-0.452945
0.22902
-0.817921
-0.686574
0.23581
-0.0449352
0.473988
0.746981
0.165967
-0.348064
-0.597003
-0.555944
0.0528618
0.25433
0.259816
0.74198
-0.387636
0.0473592
-0.419884
0.217194
0.0654209
-0.127612
-0.218636
-0.202815
0.152979
-0.0589043
0.161165
0.663236
-0.0917733
-0.388631
-0.165906
0.777393
-0.310141
0.174674
-0.584335
-0.697794
0.297232
0.0740189
0.313195
-0.695404
0.252125
-0.127384
0.522608
0.30833
-0.0184355
-0.117115
-0.150987
-0.434934
0.147417
-0.0722002
0.304521
-0.852356
-0.196195
0.383895
0.666422
-0.701962
0.318189
0.049248
0.342991
-0.526842
0.231271
-0.0677223
0.398353
0.0459232
-0.200753
0.526213
-0.400104
0.158937
0.0174733
-0.0980073
-0.109847
0.161344
-0.0461816
0.0374154
-0.114818
-0.0620899
-0.0170119
0.0424141
0.0602327
0.539976
0.126145
-0.24384
-0.47544
-0.479785
-0.124569
0.253544
0.401717
0.211419
0.0600617
-0.118908
-0.21241
0.168842
-0.0783716
-0.0256227
-0.0444069
-0.127468
0.0165191
0.0950632
0.0336201
0.0102002
-0.0415692
0.0240351
3.23217e-19
0.00068816
-0.00281577
0
0.00279771
-0.000670104
0
1.07739e-19
-0.00188724
-0.0446729
0.0264335
-0.0932624
0.0332344
0.320138
-0.229029
-0.259073
-0.019952
0.117098
0.188579
1.9787e-13
-0.00976271
-0.0034109
-1.47291e-13
-9.96939e-14
-0.00166795
-0.00384336
3.90074e-14
-0.0215415
0.000162379
-0.00296072
0.0118778
-0.0611232
0.0219615
-0.00434429
0.0291899
-0.0230716
9.40997e-05
0.00728613
0.0129114
0.0215415
8.68248e-05
-0.00740216
-0.0118768
0.0230731
0.00018039
0.00359085
-0.0129114
-0.00014722
0.00356731
0.00987131
1.88292e-05
-7.39813e-07
-0.00636445
-0.011813
6.18811e-06
6.91855e-06
-0.0168676
-0.00836471
-5.36145e-07
0.0172553
0.00783722
2.83256e-05
-0.000132793
-0.367708
0.11558
-0.0502113
0.269073
0.30795
-0.0755132
-0.025014
-0.18312
0.038322
-0.158556
0.33396
-0.247492
-0.859613
-0.108377
0.315598
0.612932
0.56358
-0.0775702
-0.318
-0.147662
-0.125756
0.0419262
0.0115465
0.0698661
0.663254
0.151061
-0.256013
-0.49921
0.156455
0.0237009
-0.0754301
-0.106499
0.281906
-0.0272425
-0.106145
-0.127275
-0.378547
-0.0644855
0.124368
0.264936
-0.000252258
0.0105176
0.0207534
2.46334e-05
3.4172e-05
0.0241969
0.0134827
-0.000226682
-0.00439612
0.00428857
-0.0160161
-0.00467707
0.299196
-0.144061
0.0486966
-0.224762
0.0467278
-0.0952237
0.260536
-0.199435
-0.311154
0.135648
-0.0336124
0.227674
-0.281784
-0.0752923
0.106852
0.234485
-0.488919
0.319795
0.0666631
0.128194
-0.32383
0.10242
0.695613
-0.515661
0.128374
0.00726627
-0.017816
-0.0637434
-0.41319
0.218531
-0.102728
0.346507
-0.172981
0.0521265
-0.000763999
0.0971865
-0.150062
-0.0205492
0.0872024
0.116331
0.17187
-0.0431933
0.0457768
-0.137327
-0.144988
0.0845751
0.0168039
0.0657471
0.182342
-0.104863
0.0518814
-0.183606
-0.0499426
0.197538
-0.636711
0.455509
0.291047
0.0726257
-0.104705
-0.234872
-0.344645
0.160387
-0.0628881
0.277792
0.504269
0.0763827
-0.176351
-0.376654
-0.486958
-0.0732787
0.166287
0.3668
0.221137
-0.0675424
-0.487263
0.364107
-0.23219
0.0844882
0.545649
-0.433064
0.476566
0.0933557
-0.360286
-0.475065
-0.0604852
0.158437
0.332175
0.110083
-0.258775
0.638918
-0.455133
0.298335
0.0643349
-0.0951992
-0.217573
0.144868
-0.0294681
0.00958623
-0.0756468
0.510197
-0.205251
0.0353392
-0.371373
-0.304707
0.158025
0.252934
0.344394
-0.154099
0.0423282
-0.271121
-0.621695
0.282184
-0.0859067
0.459861
-0.117466
0.0733019
-0.0353219
0.116651
-0.0946551
0.00625593
0.0488115
0.114506
-0.0191919
-0.00357873
-0.0560085
-0.758476
0.33846
-0.127346
0.576054
-0.0991658
0.0192364
-0.00702409
0.0499904
-0.964153
0.436325
-0.208603
0.745978
-0.0806225
0.0174549
0.00392256
0.0371308
0.778013
0.12527
-0.293608
-0.585831
-0.107727
-0.00972266
0.0133198
0.0547725
0.0703034
-0.00656039
-0.0153716
-0.00932078
-0.947077
0.421206
-0.209725
0.733532
1.11917
0.250248
-0.473791
-0.888731
-0.469243
0.100409
0.0621782
0.287468
0.363989
-0.143807
-0.0419334
-0.16455
-0.345023
0.0310434
0.174633
0.155972
0.361724
0.0377808
-0.196307
-0.224099
0.370212
-0.106566
-0.0340849
-0.204581
-0.319827
0.12654
0.0219262
0.151278
0.133372
0.0410068
-0.355073
0.172148
0.361884
-0.0342515
-0.164344
-0.17545
-0.181492
0.100945
0.516897
-0.409632
-0.457969
-0.0597032
0.19532
0.346734
0.0224085
0.010051
-2.53931e-12
2.02046e-12
1.76366e-12
0.00744568
0.0201385
-1.44723e-12
-0.244191
0.0756684
0.0327618
0.123716
0.181616
-0.0140562
-0.0908273
-0.0923314
1.09922
0.243671
-0.475931
-0.873304
-0.842749
0.0779028
0.284887
0.485897
0.163145
0.0200634
-0.0824096
-0.131462
-0.172319
0.0392919
-0.0422272
0.143539
0.311159
0.0508619
-0.0996662
-0.235949
0.155947
-0.0509029
-0.351977
0.279463
0.297368
-0.152235
-0.0436143
-0.07815
0.213176
-0.0252334
-0.133199
-0.0532693
0.174288
-0.0906697
0.0454867
-0.145177
-0.116729
-0.0218513
0.242714
-0.117674
-0.0581891
0.00998369
0.0067296
0.0373131
0.0301934
0.085636
-0.247383
0.119938
-0.259117
0.0314057
0.114621
0.114267
-0.176784
0.0361967
-0.0219933
0.132985
-0.140066
0.0893947
0.024565
0.0349732
0.0141498
-0.0820663
0.161324
-0.122357
-0.123911
-0.0116203
0.0730288
0.0780272
0.142823
-0.103235
-0.0227672
-0.0366293
-0.243018
0.0314886
0.171211
0.0640894
-0.215932
0.0341168
0.103816
0.0556903
0.01358
0.0162741
-0.105471
0.066091
-0.362712
0.189255
-0.0509171
0.217316
-0.365977
0.0428235
0.136361
0.211055
0.165964
-0.00562393
-0.0897035
-0.0925432
0.319704
-0.152018
-0.0314924
-0.140928
-0.015708
0.0861621
-0.152433
0.112895
0.126809
-0.0276625
0.0294029
-0.0970913
0.137909
0.0122371
-0.0681085
-0.106315
0.0355922
-0.0308456
-0.176795
0.139345
0.131651
-0.0354001
0.0314338
-0.10378
-0.120697
-0.0120281
0.0384694
0.0705321
-0.165688
-0.0207305
0.0876352
0.130635
0.0416954
0.000392615
-0.0268229
-0.0177675
0.169476
-0.0380785
0.0252072
-0.125005
-0.10941
-0.0167617
0.0602574
0.0933469
-0.39796
-0.0820745
0.141181
0.294725
-0.130606
0.0151218
0.0138836
0.0821907
0.346715
-0.170223
0.0726596
-0.292138
-0.0465873
0.00836879
-0.00347778
0.0268509
-0.309732
-0.0506446
0.140951
0.21406
0.0933817
-0.0171167
0.00635488
-0.05891
0.14805
-0.0501188
0.0105874
-0.0947308
-0.692307
0.0920605
0.229561
0.387466
0.385136
0.0679856
-0.195898
-0.249269
-0.0352642
0.072803
-0.145798
0.135987
0.19533
-0.022519
-0.074785
-0.137194
0.133176
0.0423679
-0.0734351
-0.13458
-0.219981
-0.0467385
0.128576
0.190502
0.0206786
0.11394
-0.105201
0.23383
-0.069634
-0.161736
-0.218233
0.0615053
0.155065
-0.0167734
-0.105831
0.0915534
0.629923
-0.192156
-0.0718959
-0.345477
-0.182783
-0.0614011
0.109762
0.18349
-0.119341
-0.0135641
0.0770664
0.0745292
0.13051
-0.348176
0.865784
-0.635722
-0.82746
-0.18051
0.355457
0.638975
0.28845
-0.142756
0.071249
-0.266518
-0.867137
0.353654
-0.0733665
0.565813
0.494362
-0.169353
0.059748
-0.335292
-0.691522
0.3355
-0.0919812
0.417165
0.0515093
0.547916
-0.162232
-0.405843
0.277045
-0.0983041
0.0300144
-0.193393
-0.271541
0.105391
-0.0432844
0.189873
-0.345038
-0.0922657
0.150438
0.303183
-0.0720434
0.0119071
-0.0137321
0.052258
0.0343494
0.00703309
-0.021077
-0.0340583
-0.0305079
-0.00650232
0.0212949
0.0286147
-0.215017
-0.0187296
0.0520245
0.144992
0.0786641
-0.013895
0.0179357
-0.0572449
0.197049
0.0299849
-0.0691118
-0.124733
-0.152752
0.422285
-0.977557
0.71531
-0.304548
0.203822
-0.042663
0.178149
-0.463053
-0.0729018
0.194657
0.368128
-0.357084
0.103552
0.0152909
0.211878
0.377487
-0.148946
0.0668983
-0.258628
0.354462
-0.0295465
-0.165253
-0.17896
-0.366034
0.178225
-0.0591261
0.292382
-0.521298
0.262829
-0.130578
0.440313
0.368819
0.0755199
-0.189271
-0.310721
-0.899136
-0.13896
0.488648
0.564016
1.04224
-0.411562
0.103041
-0.752566
-0.268488
-0.0231282
0.0685295
0.180264
0.958516
-0.417806
0.19975
-0.759498
-0.43769
-0.0825133
0.146595
0.32319
-0.90749
0.368985
-0.11494
0.66983
0.583076
-0.253277
-0.485117
0.19908
0.0449003
-0.290607
0.0742491
0.446103
-0.183325
0.0788211
-0.335088
1.08096
-0.433034
0.139733
-0.785984
0.623104
-0.322006
0.0678417
-0.390725
0.423947
0.044471
-0.227224
-0.243331
0.488759
-0.0789868
-0.291563
-0.128388
-0.844139
0.371489
-0.188695
0.687716
-0.664634
-0.0810379
0.271308
0.453832
-0.248618
0.0845012
0.64415
-0.459019
-0.651455
0.239734
-0.103151
0.457162
0.0973784
-0.241098
0.652208
-0.457437
0.588985
0.134294
-0.239631
-0.43449
-0.684412
-0.0732792
0.369916
0.419074
0.783541
-0.360395
0.160515
-0.618969
-0.263885
0.0104658
0.052107
0.164819
0.60236
-0.185572
-0.0505054
-0.384806
0.134639
0.0109299
-0.0624231
-0.104838
-0.205665
0.0539418
-0.0156855
0.140313
-0.112991
-0.023035
0.0632228
0.0790017
-2.08228e-12
-0.0139758
-0.00703834
1.5339e-12
0.00518973
0.0110318
0.00406978
-0.00171296
0.0200213
-0.166753
0.269942
-0.144236
0.00117837
0.00267798
-0.009482
1.04711e-12
-0.00430654
-0.00794122
-1.00513e-12
-0.322699
-0.0309939
0.100446
0.238125
-0.00365115
0.00548016
0.0148496
-0.00434172
0.00129218
0.0050318
-0.0010118
0.000640471
-9.11938e-06
-0.0189604
-0.00938488
7.4951e-07
-0.140911
0.0204339
0.342516
-0.241347
0.20661
-0.140153
-0.024541
-0.051726
0.281533
-0.107662
0.053568
-0.189656
-0.11857
0.0674405
-0.00776536
0.0861093
0.195215
-0.0254097
-0.0758597
-0.115809
-0.167453
0.0300181
0.0923563
0.0419227
-0.257695
0.0260378
0.0814815
0.171777
0.205267
-0.016728
-0.0801138
-0.100511
1.0348e-06
-0.00806357
-0.015052
-8.20442e-06
-9.44957e-13
-0.00644052
-0.00209294
5.3402e-13
0.0984858
0.0103203
-0.0218888
-0.0634323
0.0721274
-0.00259451
-0.0393783
-0.0257133
-0.0839106
0.00883017
0.0128467
0.0472095
-0.068082
0.00169268
0.0254574
0.0378294
-0.308749
-0.106528
0.182591
0.275456
0.353289
-0.143913
-0.170891
-0.0724819
0.806019
-0.246038
-0.0679646
-0.505329
0.43667
-0.0544617
-0.248526
-0.112241
-0.631684
0.232982
-0.0428661
0.40211
-0.833737
-0.142131
0.653832
-0.0321013
-0.11414
0.176907
-0.0442897
-0.210197
0.0460227
0.017267
0.121671
0.257878
0.0204461
-0.0794631
-0.166065
1.05116
0.231456
-0.417565
-0.838605
-0.563361
0.339375
0.0751615
0.147886
0.611286
-0.0947515
-0.361501
-0.15607
-0.0998436
-0.243575
0.799935
-0.43919
-1.00535
-0.21014
0.392533
0.784521
1.00589
0.0242916
-0.422962
-0.598079
-0.327441
0.0533898
0.197176
0.083039
0.546992
-0.239917
0.121844
-0.393822
0.175074
-0.103256
0.0481158
-0.172153
0.159633
0.0333109
-0.265464
0.0664604
0.340972
-0.0857783
-0.032981
-0.213882
-0.554055
0.363066
0.075988
0.141683
-0.414986
0.0496839
0.759986
-0.429577
-0.573011
0.294861
-0.0631817
0.353984
-0.645378
0.401948
0.087282
0.164793
0.402715
-0.25062
-0.0520095
-0.102294
0.355252
-0.0269037
-0.102421
-0.19231
-0.460037
-0.0824274
0.148678
0.331253
0.141817
-0.0796249
0.0360164
-0.140955
-0.173331
0.0955053
-0.0411139
0.161544
-0.755384
0.111944
0.444852
0.196425
0.845108
-0.0803088
-0.276262
-0.483667
-0.0894928
-0.367159
0.639376
-0.163343
0.375915
0.0348085
-0.305574
-0.867441
0.483814
-0.0255227
0.394574
0.741565
-0.451134
-0.109811
-0.19283
-0.365947
-0.0639129
0.108237
0.267407
0.325705
0.0441402
-0.102872
-0.22676
-0.665621
0.300138
-0.138955
0.536918
0.174944
-0.594749
0.452314
-0.661456
0.0566638
0.177101
0.399258
0.787134
0.182439
-0.300705
-0.633324
-0.109928
0.320624
-0.869699
0.626856
0.923441
0.206225
-0.385481
-0.702683
0.17384
-0.378666
1.05046
-0.817318
-1.05617
-0.0822418
0.356942
0.759782
-0.584237
-0.104003
0.217243
0.423504
0.861905
0.115592
-0.315243
-0.624877
-0.71445
0.336439
-0.147894
0.547926
0.566083
-0.261388
-0.0408495
-0.275428
-0.869162
0.261423
0.0689086
0.54835
0.291226
0.0293051
-0.0829267
-0.195533
0.692895
-0.277835
0.0908708
-0.540593
-0.631862
0.316524
-0.159171
0.514654
-0.812346
0.32555
-0.116621
0.629205
-0.338901
0.0659322
0.896135
-0.647721
0.104026
0.386976
-0.67149
0.171964
0.39146
-0.189625
0.0994884
-0.356786
-0.261425
0.014752
0.0460202
0.165022
0.303103
-0.111137
-0.670406
0.5192
0.793039
0.19097
-0.32764
-0.635332
-0.33507
0.119119
0.0272212
0.225398
0.324498
-0.209016
0.0390659
-0.190314
0.659018
-0.410806
-0.0967868
-0.168772
-0.320869
0.756362
-0.544291
-0.41389
0.140282
0.954919
-0.67533
-0.668556
0.284513
-0.133758
0.508442
-0.710974
-0.0825022
0.539932
0.493587
-0.211999
0.0856405
-0.341428
0.622232
-0.376368
-0.0968698
-0.158834
-0.881451
-0.130067
0.365678
0.657546
0.459566
0.111592
-0.212992
-0.373891
0.611105
-0.257157
0.111918
-0.422662
-0.535504
0.20282
-0.0918085
0.387061
-0.614526
0.253245
0.0498845
0.297767
-0.184023
0.0445943
0.010529
0.106411
-0.274242
-0.0712824
0.150912
0.228014
-0.047825
0.209167
-0.644905
0.454419
0.571559
0.0870449
-0.200531
-0.426959
0.358812
0.0930143
-0.172388
-0.327416
-0.340293
-0.0883529
0.192765
0.283026
-0.364522
0.13827
0.0283239
0.176646
-0.520796
0.309127
-0.0860023
0.329726
0.474481
-0.168414
-0.052464
-0.284011
0.191255
-0.00121774
-0.0633605
-0.09767
0.00732785
0.0489976
-0.178238
0.0990371
-0.235161
0.0450638
0.607971
-0.448631
0.252916
-0.100662
-0.589588
0.47399
0.264836
-0.0362194
-0.137415
-0.0662325
-0.367046
-0.0725321
0.126033
0.265695
-0.376915
0.136163
0.0260625
0.245908
0.187831
0.0184456
-0.0501659
-0.120185
-0.176566
0.129876
0.0261348
0.0441427
0.243655
-0.127738
0.0605553
-0.221601
-0.140804
0.540947
0.00347876
-0.0281098
0.0899216
-0.147176
-0.0876124
0.480042
0.149259
-0.859329
0.603022
0.114413
-0.134806
0.124309
-0.666215
-0.0231557
0.128682
-0.0798927
0.126615
0.00811757
-0.017913
0.0143136
-0.127269
-0.0211311
0.0226505
0.0355317
-0.149659
0.0214326
-0.0273286
0.16646
-0.228565
0.437332
-0.0809609
0.00436708
-0.00911725
-0.242127
0.310007
0.136483
-0.0417869
0.151244
-0.211815
0.25757
-0.0823711
0.0467439
-0.158559
-0.0174076
0.0672692
0.0874467
-0.0327862
0.0388883
-0.105134
-0.0846903
0.0343436
0.135885
0.0126288
-0.0471116
-0.0650056
0.0197046
-0.020906
0.0641112
-0.011146
0.0434414
0.0552999
-0.0211154
0.0249188
-0.0703968
0.104395
-0.052598
-0.159535
0.247158
-0.199757
0.464449
-0.247944
0.111388
-0.350675
0.172009
-0.169167
-0.371416
-0.1669
0.20281
-0.404106
-0.0758457
0.042389
-0.212746
-0.0258563
0.082383
0.166329
-0.16632
0.227556
0.404384
0.0068854
-0.00729149
0.024688
-0.0072036
0.008512
-0.0274367
0.0243176
-0.107571
-0.131256
0.109996
-0.0499439
0.168495
-0.0311898
0.0233628
-0.0780183
-0.0998784
0.220611
0.4134
0.0540445
-0.226427
-0.34224
0.250371
-0.256358
-0.520046
0.282688
-0.216583
-0.61209
-0.118633
0.336482
0.5808
0.00443474
-0.0163478
-0.0193843
-0.00377956
0.0149468
0.0166022
-0.0469116
0.0311375
-0.0622772
-0.383503
0.458458
-0.909284
0.619381
-0.289437
-0.998397
0.0599063
-0.0440959
-0.110641
0.0878437
-0.0635795
0.18454
0.455917
-0.470138
0.863889
-0.363727
0.286427
0.766666
-0.412496
0.29912
0.772355
0.0224981
-0.0182377
-0.0382179
0.24891
-0.247582
-0.527904
0.476744
-0.474656
-1.04521
-0.196245
0.254327
-0.576849
-0.0114454
-0.00616223
-2.12542e-13
0.0105231
0.0103975
-0.00157921
-0.00528915
-0.0105714
5.31861e-07
-0.0218063
-0.0171943
0.000388443
0.519943
-0.512556
1.105
0.407818
-0.391195
0.831781
0.0485435
-0.0482963
0.132077
0.370992
-0.309727
-0.820718
0.275424
-0.290872
-0.44039
0.0206282
0.0199765
-0.00364057
-0.0235383
-0.0294229
-0.000390594
0.373488
-0.62407
0.966629
0.625861
-0.356814
-1.02098
-0.191907
0.121909
0.435441
-0.104565
0.194337
0.393919
-0.184933
0.0872157
-0.38859
-0.159384
0.239693
-0.487448
-0.16667
0.106559
-0.370525
0.0280832
-0.046952
-0.120479
-0.13076
0.0932647
-0.261243
-0.00659535
0.00719902
-0.0166035
0.00755664
-0.00865759
0.0193843
0.13441
-0.0503848
0.228623
0.503351
-0.510251
1.0803
0.620742
-0.418663
-1.02153
0.0861516
-0.178783
0.360385
0.0801253
-0.104621
-0.263242
0.0218506
0.0113156
-2.45689e-05
0.085432
-0.114562
0.225369
0.14877
-0.0553477
0.247675
0.213851
-0.201128
-0.454744
0.313635
-0.290012
0.707841
-0.402549
0.37991
-0.89378
-0.265534
0.310701
-0.600569
0.213831
-0.163633
-0.383471
0.141646
-0.175813
-0.403104
0.146364
-0.169956
0.372847
-0.213664
0.241593
0.522235
-0.448545
0.419271
0.946401
-0.318709
0.266942
-0.826295
0.158231
-0.0809159
0.269601
0.0782461
-0.123933
-0.215342
0.102344
-0.0905428
0.277419
-0.0685013
0.0699075
0.121788
0.0896026
-0.0644403
-0.140282
-0.0596222
0.0728881
0.125358
0.217873
-0.284057
0.628756
-0.0497093
0.0314553
-0.127994
-0.463721
0.224447
0.861319
0.054915
-0.0283847
0.0897801
-0.151013
0.0841735
-0.34403
0.170415
-0.158096
0.346641
0.0131312
0.0237067
-1.6492e-12
0.0394826
-0.038823
-0.0721464
0.0890581
-0.116505
-0.284371
-0.179188
0.274266
-0.50227
0.471186
-0.492034
1.04041
-0.157126
0.296317
-0.427239
0.108509
-0.0433995
-0.159853
-0.255624
0.208893
0.4761
0.106163
-0.0570991
-0.103061
-0.0454186
0.0567222
0.105338
0.0680913
-0.090283
0.122743
-0.0042757
0.0160066
0.0274491
0.00393495
-0.0153251
-0.0246837
-0.192326
0.182204
0.416853
-0.115465
0.0598802
0.195229
-0.102724
0.119104
-0.28839
0.119677
-0.079962
0.245295
-0.0421432
0.0397036
0.129959
0.110227
-0.0553629
-0.166937
-0.0491181
0.048045
0.128875
0.0808459
-0.100747
-0.237757
0.132656
-0.188147
-0.388861
-0.228219
0.105742
0.340197
0.124371
-0.0979182
-0.221708
-0.0306987
0.0529006
-0.11856
-0.0272402
0.0672003
0.120602
0.118617
-0.145179
0.312613
-0.0289605
0.0131793
0.0545769
-0.138242
0.192371
-0.308458
0.191241
-0.150148
-0.419742
0.122807
-0.23764
0.41871
-0.139401
0.171019
-0.344621
0.037143
-0.0664679
0.126929
-0.0294735
0.0157074
-0.0476182
-0.0502176
0.0814911
0.122595
-0.033084
0.0423638
-0.083169
0.0772346
-0.0444181
0.145276
0.0666426
-0.0720153
-0.113999
0.0816518
-0.108234
0.20267
0.0309808
-0.0748595
-0.125418
-0.0296834
0.0175018
-0.0634708
-0.0182566
0.0644215
0.0788295
-0.189947
0.172421
0.419799
-0.113544
0.0278232
-0.126718
0.106539
-0.0493447
0.169944
-0.0949471
0.0251902
-0.1464
-0.0350963
0.0509891
0.0787449
-0.232351
0.429748
0.872654
0.0880822
-0.0347555
-0.119692
0.451223
-0.476098
-1.02123
0.0548338
-0.0257104
0.0901304
-0.0381476
0.0232861
-0.0900975
-0.0667003
0.0603295
-0.101803
0.454035
-0.29716
0.857264
-0.107512
0.0489708
-0.208191
-0.0646462
0.106179
0.188937
-0.144491
0.119141
0.307056
-0.0238838
0.0443759
0.0774991
0.0685059
-0.0552016
0.198504
-0.103166
0.109674
-0.237948
0.171752
-0.146913
-0.383726
-0.199583
0.106247
0.39722
0.125861
-0.0903993
0.260781
-0.224036
0.245473
-0.4614
-0.159192
0.218444
-0.560382
0.127147
-0.160843
-0.260485
-0.068153
0.04242
0.12745
-0.00805622
-0.00416824
-8.81058e-13
0.0156387
0.0109508
-0.004439
-0.0167644
-0.0146664
8.26089e-06
0.0659643
-0.0291239
0.0974601
0.0032991
0.0098267
0.00172888
-0.0149522
-0.00795669
1.75352e-12
-0.0146077
-0.0183772
-0.00114284
-0.00684088
-0.0138376
-7.44386e-07
0.0199024
0.00959136
0.00361738
0.0791466
-0.137439
-0.262977
0.0384198
-0.0457664
-0.0762916
-0.150556
0.0963117
0.286275
-0.00494693
-0.00883492
6.90859e-13
-0.0457148
0.0428666
-0.0997693
-0.0527584
0.0269306
0.106703
-0.32421
0.244727
0.582409
-0.241656
0.182675
-0.652499
0.23041
-0.305507
0.72051
-0.0929619
0.16012
-0.36209
-0.0660483
0.112146
0.248074
-0.139885
0.0666693
-0.253194
0.314992
-0.136345
-0.565896
-0.0740541
0.123644
0.253678
-0.133154
0.068715
-0.199227
-0.213948
0.19531
0.498971
-0.28358
0.288295
-0.627891
-0.379776
0.393816
-0.711106
0.321744
-0.365109
-0.760997
-0.393506
0.201873
-0.756646
-0.120837
0.269515
0.594443
-0.312343
0.143026
-0.710083
-0.498745
0.39358
0.870181
0.273284
-0.450918
-0.76251
0.268885
-0.168222
0.478138
0.200512
-0.155827
0.514377
-0.18882
0.188654
0.450279
-0.180001
0.127479
-0.340845
-0.0879457
0.156701
0.34024
-0.181481
0.0939982
-0.341354
0.399311
-0.292116
-0.864581
0.140959
-0.357432
0.613273
-0.301549
0.235677
-0.768521
0.554924
-0.457749
-0.9868
0.459383
-0.339112
-0.980283
-0.58255
0.577761
0.999256
0.174752
-0.160843
0.45529
0.252112
-0.236669
-0.708555
-0.0531689
0.025078
-0.128354
-0.0330283
0.0534395
-0.158998
-0.312153
0.307985
-0.756617
0.41766
-0.611984
1.04282
-0.130244
0.163311
0.347211
-0.0608097
0.125096
0.263726
-0.144719
0.0606049
-0.335403
0.166087
-0.219165
-0.474815
-0.286271
0.209939
0.512006
0.443005
-0.245152
-0.678542
-0.227963
0.213925
-0.606446
-0.351044
0.414522
-0.787712
-0.453278
0.436312
1.09016
-0.521688
0.209696
0.834345
0.159152
-0.281182
-0.566595
0.336983
-0.166896
0.646648
-0.347725
0.409897
-0.907353
-0.235025
0.547188
-0.934858
0.433915
-0.391648
-0.935509
-0.347633
0.387231
0.771718
-0.460176
0.463569
0.965271
-0.207082
0.271297
0.547029
-0.307141
0.338009
-0.702552
0.171291
-0.316384
-0.632567
0.351725
-0.192173
0.74174
-0.303734
0.277128
-0.676971
-0.133951
0.253678
0.528526
-0.233298
0.116943
-0.509098
0.326146
-0.259791
-0.630252
-0.214019
0.189957
0.453419
0.236867
-0.263552
0.549654
0.170347
-0.207226
0.416398
-0.127582
0.163946
0.280184
-0.222948
0.483009
-0.916952
-0.135082
0.149817
-0.271822
-0.128025
0.127332
-0.33839
-0.126572
0.120073
0.255829
-0.107448
0.0707095
-0.194336
-0.107111
0.171242
-0.301481
-0.534268
0.221283
0.926904
0.263673
-0.464455
0.794919
0.388939
-0.403466
-0.836385
0.157591
-0.185042
0.354117
0.129826
-0.172747
-0.375183
0.256049
-0.171983
-0.386223
0.305693
-0.322715
0.680381
0.301872
-0.23419
-0.650457
0.101919
-0.0786209
-0.14463
-0.0871737
0.095409
0.175137
0.124639
-0.119183
0.257494
0.125985
-0.0885091
0.257138
-0.130994
0.091522
-0.240833
-0.324519
0.167506
0.560867
-0.146259
0.269958
-0.550863
0.29671
-0.208149
-0.525016
0.122581
-0.190597
0.349039
-1.28944
-0.345235
0.916912
-0.237105
-0.353988
-0.191636
0.512017
-0.0710459
0.369232
-0.235936
-0.244439
-1.22802
0.32407
0.527523
-0.933432
-0.575322
-0.135986
0.439464
0.0847243
0.199056
1.61608e-18
-0.0173543
0.00681664
0.0173543
-0.0278919
0
3.35609e-14
0.00909824
4.28524e-14
-0.0256103
1.47466
-0.639944
-0.189183
-0.0870624
-0.333848
0.289743
0.131813
-0.240748
0.0285754
0.0676867
-0.156487
-0.151987
-0.109745
1.08701
0.0576842
0.390822
-1.1133
1.37123
-0.815933
-0.0695996
-0.060977
0.30474
-0.0975652
-0.160901
0.296274
-0.929744
0.126679
0.269139
0.252689
-0.73332
-0.805719
0.512485
0.361052
-0.408073
1.08309
-1.38461
-0.222109
-0.392006
0.23921
-0.00952628
-0.0609147
0.490284
-1.37165
0.241691
-1.33354
1.15081
0.72565
0.415201
-1.10723
-0.20838
-0.660261
-0.299313
-0.824661
0.600918
-1.0136
0.204637
0.455841
0.0665869
0.0998595
-0.30777
0.288678
-0.31062
0.167187
-0.159559
0.604525
-0.162899
-0.351393
0.743031
-0.610192
-0.296002
0.421796
0.387753
0.111861
0.314972
-1.24972
0.575554
-1.38638
1.28639
-0.663548
0.84983
0.373471
-0.885825
-0.561485
-0.149542
-0.906134
1.37366
-0.352034
-0.0471619
-0.688317
0.809409
-0.332956
-0.0769541
0.243308
-0.65853
0.0979773
0.383603
0.7531
-0.493195
-0.39616
0.153807
0.324268
-0.347918
-0.20677
-0.263822
-0.0575783
0.13622
-0.0438059
0.0787449
0.123462
-0.178719
-0.278997
0.896379
-0.444365
0.173231
-0.418845
0.0575349
0.250335
-0.580816
0.558608
0.0286289
0.233262
-0.210336
-0.0910017
-0.0550157
-0.320913
0.17173
0.158021
0.105598
0.610501
-0.541553
-0.445013
0.138154
0.168213
-0.0443915
0.0860739
-0.242754
-0.195363
-0.146407
0.445013
-0.330248
-0.00371227
-0.118223
0.440252
-0.0670448
-0.299674
0.17455
0.194787
0.218111
0.26905
-0.122391
-0.0502212
-0.204617
-0.0616036
0.08975