/*--------------------------------*- C++ -*----------------------------------*\
  =========                 |
  \\      /  F ield         | OpenFOAM: The Open Source CFD Toolbox
   \\    /   O peration     | Website:  https://openfoam.org
    \\  /    A nd           | Version:  6
     \\/     M anipulation  |
\*---------------------------------------------------------------------------*/
FoamFile
{
    version     2.0;
    format      ascii;
    class       volScalarField;
    location    "3.4";
    object      mag(U);
}
// * * * * * * * * * * * * * * * * * * * * * * * * * * * * * * * * * * * * * //

dimensions      [0 1 -1 0 0 0 0];

internalField   nonuniform List<scalar> 
10000
(
0.99997
0.99997
0.99997
0.99997
0.99997
0.99997
0.99997
0.99997
0.99997
0.99997
0.99997
0.99997
0.99997
0.99997
0.99997
0.99997
0.99997
0.99997
0.99997
0.99997
0.99997
0.99997
0.99997
0.99997
0.99997
0.99997
0.99997
0.99997
0.99997
0.99997
0.99997
0.99997
0.99997
0.99997
0.99997
0.99997
0.99997
0.99997
0.99997
0.99997
0.99997
0.99997
0.99997
0.99997
0.99997
0.999971
0.999971
0.999972
0.999973
0.999975
0.999974
0.999974
0.999971
0.999969
0.999964
0.999958
0.999951
0.999944
0.999936
0.99993
0.999927
0.999926
0.999928
0.999934
0.999944
0.999956
0.99997
0.999984
0.999997
1.00001
1.00002
1.00002
1.00003
1.00003
1.00002
1.00002
1.00001
1
0.999998
0.999992
0.999985
0.999981
0.999978
0.999975
0.999972
0.999971
0.99997
0.99997
0.99997
0.99997
0.99997
0.99997
0.99997
0.99997
0.99997
0.99997
0.99997
0.99997
0.99997
0.99997
0.99997
0.99997
0.99997
0.99997
0.99997
0.99997
0.99997
0.99997
0.99997
0.99997
0.99997
0.99997
0.99997
0.99997
0.99997
0.99997
0.99997
0.99997
0.99997
0.99997
0.99997
0.99997
0.99997
0.99997
0.99997
0.99997
0.99997
0.99997
0.99997
0.99997
0.99997
0.99997
0.99997
0.99997
0.99997
0.99997
0.99997
0.99997
0.99997
0.99997
0.99997
0.99997
0.99997
0.999971
0.99997
0.999972
0.999973
0.999974
0.999975
0.999976
0.999977
0.999976
0.999974
0.99997
0.999964
0.999955
0.999946
0.999937
0.999927
0.99992
0.999915
0.999915
0.99992
0.999929
0.999943
0.99996
0.999979
0.999999
1.00002
1.00003
1.00004
1.00005
1.00005
1.00005
1.00005
1.00004
1.00003
1.00002
1.00001
1
0.999992
0.999985
0.99998
0.999977
0.999974
0.999972
0.99997
0.99997
0.99997
0.99997
0.99997
0.99997
0.99997
0.99997
0.99997
0.99997
0.99997
0.99997
0.99997
0.99997
0.99997
0.99997
0.99997
0.99997
0.99997
0.99997
0.99997
0.99997
0.99997
0.99997
0.99997
0.99997
0.99997
0.99997
0.99997
0.99997
0.99997
0.99997
0.99997
0.99997
0.99997
0.99997
0.99997
0.99997
0.99997
0.99997
0.99997
0.99997
0.99997
0.99997
0.99997
0.99997
0.99997
0.99997
0.99997
0.99997
0.99997
0.99997
0.99997
0.99997
0.99997
0.99997
0.99997
0.999971
0.999972
0.999973
0.999974
0.999976
0.999978
0.99998
0.999981
0.99998
0.999977
0.999971
0.999964
0.999954
0.999941
0.999929
0.999917
0.999909
0.999906
0.999907
0.999915
0.99993
0.99995
0.999975
1
1.00003
1.00005
1.00007
1.00008
1.00009
1.00009
1.00009
1.00008
1.00007
1.00006
1.00004
1.00003
1.00001
1
0.999992
0.999985
0.999979
0.999975
0.999973
0.999971
0.99997
0.99997
0.99997
0.99997
0.99997
0.99997
0.99997
0.99997
0.99997
0.99997
0.99997
0.99997
0.99997
0.99997
0.99997
0.99997
0.99997
0.99997
0.99997
0.99997
0.99997
0.99997
0.99997
0.99997
0.99997
0.99997
0.99997
0.99997
0.99997
0.99997
0.99997
0.99997
0.99997
0.99997
0.99997
0.99997
0.99997
0.99997
0.99997
0.99997
0.99997
0.99997
0.99997
0.99997
0.99997
0.99997
0.99997
0.99997
0.99997
0.99997
0.99997
0.99997
0.999969
0.99997
0.99997
0.99997
0.999971
0.999972
0.999975
0.999977
0.999979
0.999982
0.999985
0.999986
0.999985
0.999982
0.999975
0.999965
0.999952
0.999937
0.999922
0.99991
0.999902
0.9999
0.999907
0.999922
0.999945
0.999974
1.00001
1.00004
1.00008
1.00011
1.00013
1.00015
1.00016
1.00015
1.00015
1.00013
1.00011
1.00009
1.00007
1.00005
1.00003
1.00001
1
0.999991
0.999983
0.999977
0.999974
0.999971
0.99997
0.999969
0.999969
0.999969
0.99997
0.99997
0.99997
0.99997
0.99997
0.99997
0.99997
0.99997
0.99997
0.99997
0.99997
0.99997
0.99997
0.99997
0.99997
0.99997
0.99997
0.99997
0.99997
0.99997
0.99997
0.99997
0.99997
0.99997
0.99997
0.99997
0.99997
0.99997
0.99997
0.99997
0.99997
0.99997
0.99997
0.99997
0.99997
0.99997
0.99997
0.99997
0.99997
0.99997
0.99997
0.99997
0.99997
0.99997
0.99997
0.99997
0.99997
0.999969
0.999969
0.99997
0.99997
0.99997
0.999972
0.999974
0.999976
0.999979
0.999984
0.999989
0.999992
0.999994
0.999994
0.999989
0.999981
0.999968
0.999953
0.999935
0.999919
0.999907
0.999902
0.999906
0.999922
0.999948
0.999984
1.00003
1.00008
1.00012
1.00017
1.00021
1.00023
1.00025
1.00025
1.00025
1.00023
1.00021
1.00018
1.00014
1.00011
1.00008
1.00005
1.00003
1.00001
0.999997
0.999987
0.99998
0.999975
0.999972
0.99997
0.999969
0.999969
0.999969
0.999969
0.999969
0.99997
0.99997
0.99997
0.99997
0.99997
0.99997
0.99997
0.99997
0.99997
0.99997
0.99997
0.99997
0.99997
0.99997
0.99997
0.99997
0.99997
0.99997
0.99997
0.99997
0.99997
0.99997
0.99997
0.99997
0.99997
0.99997
0.99997
0.99997
0.99997
0.99997
0.99997
0.99997
0.99997
0.99997
0.99997
0.99997
0.99997
0.99997
0.99997
0.99997
0.99997
0.99997
0.99997
0.99997
0.999969
0.999969
0.99997
0.99997
0.99997
0.999971
0.999972
0.999975
0.999979
0.999984
0.99999
0.999996
1
1.00001
1
1
0.999989
0.999974
0.999955
0.999937
0.999922
0.999914
0.999917
0.999933
0.999965
1.00001
1.00007
1.00014
1.0002
1.00027
1.00033
1.00037
1.0004
1.00041
1.00041
1.00039
1.00036
1.00031
1.00027
1.00022
1.00017
1.00012
1.00009
1.00005
1.00003
1.00001
0.999992
0.999982
0.999975
0.999972
0.999969
0.999968
0.999969
0.999968
0.999968
0.999969
0.999969
0.99997
0.99997
0.99997
0.99997
0.99997
0.99997
0.99997
0.99997
0.99997
0.99997
0.99997
0.99997
0.99997
0.99997
0.99997
0.99997
0.99997
0.99997
0.99997
0.99997
0.99997
0.99997
0.99997
0.99997
0.99997
0.99997
0.99997
0.99997
0.99997
0.99997
0.99997
0.99997
0.99997
0.99997
0.99997
0.99997
0.99997
0.99997
0.99997
0.99997
0.99997
0.99997
0.999969
0.999969
0.99997
0.999969
0.99997
0.99997
0.999971
0.999974
0.999977
0.999983
0.99999
0.999998
1.00001
1.00001
1.00002
1.00002
1.00001
0.999999
0.999982
0.999962
0.999945
0.999935
0.999938
0.999957
0.999995
1.00005
1.00013
1.00022
1.00032
1.00042
1.00052
1.00059
1.00064
1.00067
1.00067
1.00065
1.0006
1.00054
1.00047
1.0004
1.00032
1.00025
1.00019
1.00013
1.00008
1.00005
1.00002
0.999999
0.999985
0.999976
0.999971
0.999968
0.999967
0.999967
0.999967
0.999968
0.999968
0.999968
0.999969
0.99997
0.99997
0.99997
0.99997
0.99997
0.99997
0.99997
0.99997
0.99997
0.99997
0.99997
0.99997
0.99997
0.99997
0.99997
0.99997
0.99997
0.99997
0.99997
0.99997
0.99997
0.99997
0.99997
0.99997
0.99997
0.99997
0.99997
0.99997
0.99997
0.99997
0.99997
0.99997
0.99997
0.99997
0.99997
0.99997
0.99997
0.99997
0.99997
0.99997
0.99997
0.999969
0.99997
0.999969
0.999969
0.999969
0.99997
0.999971
0.999975
0.99998
0.999987
0.999996
1.00001
1.00002
1.00003
1.00003
1.00003
1.00003
1.00001
0.999991
0.999973
0.999961
0.999963
0.999985
1.00003
1.00011
1.00021
1.00034
1.00048
1.00064
1.00078
1.00091
1.00101
1.00107
1.0011
1.00108
1.00102
1.00094
1.00083
1.00071
1.00059
1.00048
1.00037
1.00027
1.00019
1.00013
1.00007
1.00003
1.00001
0.999988
0.999977
0.99997
0.999967
0.999966
0.999965
0.999966
0.999966
0.999968
0.999968
0.999968
0.99997
0.99997
0.99997
0.99997
0.99997
0.99997
0.99997
0.99997
0.99997
0.99997
0.99997
0.99997
0.99997
0.99997
0.99997
0.99997
0.99997
0.99997
0.99997
0.99997
0.99997
0.99997
0.99997
0.99997
0.99997
0.99997
0.99997
0.99997
0.99997
0.99997
0.99997
0.99997
0.99997
0.99997
0.99997
0.99997
0.99997
0.99997
0.99997
0.999969
0.999969
0.999969
0.999969
0.999969
0.999968
0.999968
0.999969
0.999971
0.999976
0.999983
0.999993
1
1.00002
1.00003
1.00005
1.00005
1.00005
1.00004
1.00002
1
0.999987
0.999986
1.00001
1.00007
1.00016
1.00029
1.00047
1.00067
1.00089
1.00112
1.00133
1.00152
1.00165
1.00173
1.00174
1.00169
1.00159
1.00144
1.00126
1.00108
1.00088
1.0007
1.00054
1.0004
1.00028
1.00018
1.00011
1.00006
1.00002
0.999993
0.999977
0.999968
0.999964
0.999963
0.999963
0.999964
0.999965
0.999966
0.999968
0.999968
0.999968
0.99997
0.99997
0.99997
0.99997
0.99997
0.99997
0.99997
0.99997
0.99997
0.99997
0.99997
0.99997
0.99997
0.99997
0.99997
0.99997
0.99997
0.99997
0.99997
0.99997
0.99997
0.99997
0.99997
0.99997
0.99997
0.99997
0.99997
0.99997
0.99997
0.99997
0.99997
0.99997
0.99997
0.99997
0.99997
0.99997
0.99997
0.99997
0.999969
0.999969
0.999969
0.999968
0.999967
0.999967
0.999967
0.999968
0.999971
0.999977
0.999986
0.999998
1.00001
1.00003
1.00005
1.00006
1.00007
1.00006
1.00005
1.00002
1
0.999999
1.00002
1.00008
1.00019
1.00035
1.00057
1.00084
1.00115
1.00148
1.00182
1.00213
1.0024
1.00259
1.00269
1.0027
1.00261
1.00243
1.00219
1.00191
1.00161
1.00132
1.00104
1.00079
1.00058
1.00041
1.00027
1.00016
1.00009
1.00003
0.999998
0.999977
0.999966
0.99996
0.999959
0.99996
0.999961
0.999963
0.999965
0.999966
0.999967
0.999968
0.999968
0.99997
0.99997
0.99997
0.99997
0.99997
0.99997
0.99997
0.99997
0.99997
0.99997
0.99997
0.99997
0.99997
0.99997
0.99997
0.99997
0.99997
0.99997
0.99997
0.99997
0.99997
0.99997
0.99997
0.99997
0.99997
0.99997
0.99997
0.99997
0.99997
0.99997
0.99997
0.99997
0.99997
0.99997
0.99997
0.99997
0.999969
0.999969
0.999969
0.999968
0.999967
0.999967
0.999966
0.999965
0.999967
0.99997
0.999978
0.999988
1
1.00002
1.00004
1.00006
1.00007
1.00007
1.00006
1.00004
1.00001
0.999994
1
1.00005
1.00017
1.00035
1.0006
1.00094
1.00134
1.0018
1.00228
1.00277
1.00322
1.00361
1.00389
1.00404
1.00405
1.00392
1.00365
1.00329
1.00286
1.0024
1.00195
1.00153
1.00116
1.00085
1.00059
1.00039
1.00024
1.00013
1.00006
1.00001
0.999977
0.999962
0.999955
0.999953
0.999954
0.999957
0.99996
0.999962
0.999965
0.999966
0.999967
0.999968
0.999968
0.99997
0.99997
0.99997
0.99997
0.99997
0.99997
0.99997
0.99997
0.99997
0.99997
0.99997
0.99997
0.99997
0.99997
0.99997
0.99997
0.99997
0.99997
0.99997
0.99997
0.99997
0.99997
0.99997
0.99997
0.99997
0.99997
0.99997
0.99997
0.99997
0.99997
0.99997
0.99997
0.99997
0.99997
0.99997
0.999969
0.999968
0.999969
0.999967
0.999966
0.999966
0.999963
0.999963
0.999965
0.999968
0.999978
0.999991
1.00001
1.00003
1.00005
1.00007
1.00008
1.00007
1.00004
1
0.999966
0.99995
0.99998
1.00007
1.00025
1.00053
1.00091
1.00139
1.00196
1.0026
1.00328
1.00396
1.0046
1.00516
1.00559
1.00584
1.00588
1.00571
1.00535
1.00483
1.00421
1.00353
1.00287
1.00225
1.0017
1.00123
1.00086
1.00057
1.00035
1.00019
1.00009
1.00002
0.999979
0.999957
0.999948
0.999946
0.999948
0.999952
0.999956
0.999959
0.999962
0.999965
0.999967
0.999968
0.999968
0.999969
0.99997
0.99997
0.99997
0.99997
0.99997
0.99997
0.99997
0.99997
0.99997
0.99997
0.99997
0.99997
0.99997
0.99997
0.99997
0.99997
0.99997
0.99997
0.99997
0.99997
0.99997
0.99997
0.99997
0.99997
0.99997
0.99997
0.99997
0.99997
0.99997
0.99997
0.99997
0.99997
0.99997
0.999969
0.999969
0.999968
0.999968
0.999966
0.999965
0.999962
0.99996
0.99996
0.999961
0.999965
0.999975
0.999991
1.00001
1.00004
1.00006
1.00007
1.00006
1.00003
0.999978
0.999915
0.999863
0.999849
0.999902
1.00005
1.00031
1.0007
1.00122
1.00186
1.00261
1.00346
1.00436
1.00528
1.00618
1.00698
1.00762
1.00804
1.00819
1.00804
1.0076
1.00692
1.00606
1.00512
1.00417
1.00327
1.00247
1.0018
1.00125
1.00083
1.00051
1.00029
1.00014
1.00004
0.999983
0.999952
0.999939
0.999936
0.999939
0.999945
0.99995
0.999955
0.99996
0.999963
0.999966
0.999967
0.999968
0.999968
0.99997
0.99997
0.99997
0.99997
0.99997
0.99997
0.99997
0.99997
0.99997
0.99997
0.99997
0.99997
0.99997
0.99997
0.99997
0.99997
0.99997
0.99997
0.99997
0.99997
0.99997
0.99997
0.99997
0.99997
0.99997
0.99997
0.99997
0.99997
0.99997
0.99997
0.99997
0.99997
0.999969
0.999969
0.999968
0.999968
0.999967
0.999965
0.999962
0.999959
0.999956
0.999955
0.999955
0.999961
0.999971
0.999989
1.00001
1.00003
1.00005
1.00004
1.00001
0.999941
0.999848
0.999746
0.999668
0.99965
0.999728
0.99993
1.00028
1.00077
1.00141
1.0022
1.00312
1.00416
1.0053
1.00649
1.00768
1.00881
1.00978
1.0105
1.01088
1.01086
1.01042
1.00961
1.00852
1.00726
1.00595
1.00469
1.00356
1.0026
1.00182
1.00121
1.00076
1.00043
1.00022
1.00008
0.999992
0.999948
0.999928
0.999924
0.999928
0.999935
0.999943
0.99995
0.999956
0.99996
0.999963
0.999966
0.999967
0.999968
0.999969
0.99997
0.99997
0.99997
0.99997
0.99997
0.99997
0.99997
0.99997
0.99997
0.99997
0.99997
0.99997
0.99997
0.99997
0.99997
0.99997
0.99997
0.99997
0.99997
0.99997
0.99997
0.99997
0.99997
0.99997
0.99997
0.99997
0.99997
0.99997
0.99997
0.99997
0.999969
0.999969
0.999969
0.999968
0.999967
0.999966
0.999963
0.999959
0.999955
0.999951
0.999948
0.999948
0.999953
0.999962
0.99998
1
1.00001
1.00001
0.999977
0.999898
0.999773
0.999613
0.999451
0.999332
0.999298
0.99939
0.99963
1.00003
1.00058
1.00129
1.00215
1.00317
1.00434
1.00566
1.00711
1.00864
1.01018
1.01162
1.01281
1.01363
1.01393
1.01368
1.01286
1.0116
1.01002
1.00831
1.00662
1.00506
1.00371
1.00261
1.00175
1.0011
1.00065
1.00033
1.00013
1.00001
0.999948
0.999919
0.999911
0.999914
0.999924
0.999934
0.999944
0.999951
0.999957
0.999962
0.999965
0.999966
0.999968
0.999968
0.999969
0.99997
0.99997
0.99997
0.99997
0.99997
0.99997
0.99997
0.99997
0.99997
0.99997
0.99997
0.99997
0.99997
0.99997
0.99997
0.99997
0.99997
0.99997
0.99997
0.99997
0.99997
0.99997
0.99997
0.99997
0.99997
0.99997
0.99997
0.99997
0.99997
0.999969
0.999969
0.999968
0.999968
0.999966
0.999964
0.999961
0.999955
0.999949
0.999943
0.999938
0.999936
0.99994
0.999949
0.999964
0.999976
0.999974
0.999939
0.999852
0.999699
0.999482
0.999226
0.998977
0.998791
0.998721
0.998796
0.999023
0.999394
0.999895
1.00052
1.00129
1.00223
1.00338
1.00478
1.00643
1.00831
1.01034
1.0124
1.01431
1.01585
1.0168
1.01702
1.01646
1.01519
1.0134
1.01129
1.00911
1.00705
1.00522
1.0037
1.0025
1.0016
1.00095
1.00051
1.00022
1.00005
0.999955
0.999911
0.999897
0.9999
0.999911
0.999923
0.999935
0.999945
0.999953
0.999958
0.999962
0.999966
0.999967
0.999968
0.999968
0.99997
0.99997
0.99997
0.99997
0.99997
0.99997
0.99997
0.99997
0.99997
0.99997
0.99997
0.99997
0.99997
0.99997
0.99997
0.99997
0.99997
0.99997
0.99997
0.99997
0.99997
0.99997
0.99997
0.99997
0.99997
0.99997
0.99997
0.99997
0.99997
0.999969
0.999969
0.999968
0.999967
0.999964
0.999962
0.999957
0.999949
0.999942
0.999932
0.999926
0.99992
0.999921
0.999927
0.999933
0.99993
0.999896
0.999807
0.999637
0.999372
0.999021
0.998627
0.998257
0.997975
0.997826
0.997818
0.997924
0.998106
0.998337
0.998623
0.999009
0.999589
1.00047
1.00175
1.00349
1.00569
1.00829
1.01115
1.01403
1.01665
1.01868
1.01983
1.01994
1.01902
1.01723
1.01485
1.01221
1.00959
1.0072
1.00517
1.00353
1.00229
1.00139
1.00077
1.00036
1.00012
0.999976
0.999908
0.999883
0.999884
0.999895
0.99991
0.999925
0.999938
0.999948
0.999955
0.999961
0.999964
0.999966
0.999967
0.999968
0.999969
0.99997
0.99997
0.99997
0.99997
0.99997
0.99997
0.99997
0.99997
0.99997
0.99997
0.99997
0.99997
0.99997
0.99997
0.99997
0.99997
0.99997
0.99997
0.99997
0.99997
0.99997
0.99997
0.99997
0.99997
0.99997
0.99997
0.99997
0.999969
0.999969
0.999969
0.999967
0.999966
0.999963
0.999959
0.999952
0.999943
0.999932
0.99992
0.999908
0.9999
0.999896
0.999893
0.999884
0.999852
0.999765
0.999591
0.999294
0.998866
0.998328
0.997751
0.99722
0.996799
0.996503
0.99629
0.996081
0.995801
0.995417
0.994963
0.994555
0.994372
0.994631
0.995524
0.997182
0.999648
1.00287
1.00669
1.01085
1.01495
1.01856
1.02121
1.02258
1.02254
1.02117
1.01881
1.01584
1.01269
1.00969
1.00706
1.00489
1.00322
1.00199
1.00113
1.00057
1.00022
1.00002
0.999914
0.999873
0.999867
0.999878
0.999896
0.999913
0.999929
0.999942
0.999951
0.999958
0.999962
0.999965
0.999967
0.999967
0.999969
0.99997
0.99997
0.99997
0.99997
0.99997
0.99997
0.99997
0.99997
0.99997
0.99997
0.99997
0.99997
0.99997
0.99997
0.99997
0.99997
0.99997
0.99997
0.99997
0.99997
0.99997
0.99997
0.99997
0.99997
0.99997
0.99997
0.99997
0.999969
0.999969
0.999968
0.999967
0.999965
0.999961
0.999954
0.999946
0.999935
0.99992
0.999903
0.999888
0.999873
0.99986
0.999843
0.999808
0.999728
0.99956
0.999255
0.998777
0.998121
0.997341
0.996534
0.995799
0.995175
0.994615
0.993997
0.99317
0.992024
0.990536
0.988806
0.987056
0.985604
0.984808
0.98499
0.986373
0.989045
0.992958
0.99793
1.00364
1.00964
1.01535
1.02014
1.02346
1.02499
1.02467
1.02278
1.0198
1.01627
1.01268
1.0094
1.00663
1.00443
1.0028
1.00164
1.00086
1.00037
1.00009
0.999936
0.999869
0.999852
0.999861
0.99988
0.999901
0.99992
0.999936
0.999947
0.999955
0.99996
0.999964
0.999966
0.999967
0.999968
0.999969
0.99997
0.99997
0.99997
0.99997
0.99997
0.99997
0.99997
0.99997
0.99997
0.99997
0.99997
0.99997
0.99997
0.99997
0.99997
0.99997
0.99997
0.99997
0.99997
0.99997
0.99997
0.99997
0.99997
0.99997
0.99997
0.99997
0.999969
0.999969
0.999968
0.999966
0.999962
0.999958
0.99995
0.99994
0.999924
0.999906
0.999883
0.999861
0.999837
0.999812
0.999773
0.999697
0.999543
0.999251
0.998761
0.998032
0.99708
0.995999
0.99492
0.993936
0.993017
0.99201
0.990686
0.988812
0.986256
0.983041
0.979371
0.975627
0.972316
0.969986
0.96912
0.970052
0.97291
0.977627
0.983967
0.991539
0.999808
1.0081
1.01562
1.02162
1.0255
1.02699
1.02624
1.02373
1.02013
1.0161
1.0122
1.00876
1.00597
1.00384
1.00231
1.00126
1.0006
1.0002
0.999979
0.999877
0.999842
0.999845
0.999864
0.999887
0.999909
0.999927
0.999941
0.999951
0.999958
0.999963
0.999965
0.999966
0.999968
0.999969
0.99997
0.99997
0.99997
0.99997
0.99997
0.99997
0.99997
0.99997
0.99997
0.99997
0.99997
0.99997
0.99997
0.99997
0.99997
0.99997
0.99997
0.99997
0.99997
0.99997
0.99997
0.99997
0.99997
0.99997
0.99997
0.999969
0.999969
0.999969
0.999967
0.999965
0.999961
0.999955
0.999945
0.999931
0.999912
0.999888
0.999859
0.999827
0.999792
0.999746
0.999674
0.999535
0.999272
0.998808
0.998064
0.997004
0.995685
0.994257
0.992879
0.991588
0.990237
0.98852
0.986076
0.982602
0.977967
0.97228
0.965903
0.959432
0.953621
0.949258
0.947031
0.947398
0.950513
0.956254
0.964276
0.974068
0.984989
0.996274
1.00703
1.01631
1.02327
1.02737
1.02854
1.02716
1.02395
1.01977
1.01536
1.01128
1.00784
1.00515
1.00317
1.0018
1.0009
1.00036
1.00005
0.999899
0.99984
0.999832
0.999848
0.999873
0.999898
0.99992
0.999935
0.999948
0.999956
0.999961
0.999965
0.999966
0.999967
0.999969
0.99997
0.99997
0.99997
0.99997
0.99997
0.99997
0.99997
0.99997
0.99997
0.99997
0.99997
0.99997
0.99997
0.99997
0.99997
0.99997
0.99997
0.99997
0.99997
0.99997
0.99997
0.99997
0.99997
0.99997
0.99997
0.99997
0.999969
0.999968
0.999966
0.999964
0.999959
0.999951
0.999939
0.999921
0.999897
0.999866
0.999831
0.999788
0.999735
0.999661
0.999538
0.99931
0.998896
0.998194
0.997113
0.995642
0.993899
0.992104
0.99041
0.988738
0.986756
0.98397
0.979886
0.974148
0.96666
0.957659
0.947721
0.93772
0.928725
0.92184
0.917997
0.917793
0.921387
0.92854
0.938716
0.951207
0.965212
0.979864
0.994208
1.0072
1.0178
1.02521
1.02906
1.02954
1.02733
1.02341
1.01874
1.01411
1.01003
1.00673
1.00424
1.00248
1.00131
1.00058
1.00016
0.999943
0.999849
0.999824
0.999834
0.999859
0.999886
0.99991
0.999929
0.999943
0.999953
0.99996
0.999964
0.999966
0.999967
0.999969
0.999969
0.99997
0.99997
0.99997
0.99997
0.99997
0.99997
0.99997
0.99997
0.99997
0.99997
0.99997
0.99997
0.99997
0.99997
0.99997
0.99997
0.99997
0.99997
0.99997
0.99997
0.99997
0.99997
0.99997
0.99997
0.999969
0.999969
0.999968
0.999966
0.999962
0.999956
0.999947
0.999932
0.99991
0.999881
0.999842
0.999797
0.999739
0.999664
0.999551
0.999358
0.999006
0.998386
0.997369
0.995865
0.993909
0.991717
0.989567
0.987549
0.985387
0.982503
0.9782
0.971862
0.963104
0.951899
0.938657
0.924221
0.90982
0.896931
0.887058
0.881449
0.880841
0.885349
0.894525
0.907538
0.92337
0.940985
0.959387
0.977579
0.994505
1.00906
1.02024
1.02738
1.03041
1.02986
1.02673
1.02215
1.01715
1.01248
1.00856
1.00552
1.00332
1.00183
1.00088
1.00032
1.00001
0.999873
0.999824
0.999825
0.999847
0.999875
0.999901
0.999923
0.999939
0.99995
0.999958
0.999962
0.999964
0.999966
0.999968
0.999969
0.99997
0.99997
0.99997
0.99997
0.99997
0.99997
0.99997
0.99997
0.99997
0.99997
0.99997
0.99997
0.99997
0.99997
0.99997
0.99997
0.99997
0.99997
0.99997
0.99997
0.99997
0.99997
0.99997
0.99997
0.999969
0.999969
0.999967
0.999965
0.999961
0.999954
0.999942
0.999924
0.999898
0.999863
0.999814
0.999757
0.999683
0.999578
0.99941
0.999122
0.998606
0.997714
0.9963
0.994286
0.991801
0.989175
0.986717
0.984359
0.981547
0.977417
0.971072
0.961792
0.949187
0.933332
0.91484
0.894887
0.875152
0.857642
0.844387
0.837024
0.836431
0.842587
0.854689
0.871452
0.89143
0.913274
0.935817
0.958044
0.978964
0.997518
1.01263
1.02342
1.02952
1.03121
1.0294
1.02533
1.02024
1.01512
1.01061
1.007
1.00432
1.00247
1.00126
1.00052
1.00012
0.999914
0.999835
0.999821
0.999838
0.999865
0.999893
0.999916
0.999934
0.999947
0.999956
0.999961
0.999964
0.999966
0.999967
0.999969
0.99997
0.99997
0.99997
0.99997
0.99997
0.99997
0.99997
0.99997
0.99997
0.99997
0.99997
0.99997
0.99997
0.99997
0.99997
0.99997
0.99997
0.99997
0.99997
0.99997
0.99997
0.99997
0.99997
0.99997
0.999969
0.999969
0.999966
0.999964
0.999959
0.99995
0.999937
0.999915
0.999884
0.999843
0.999784
0.999712
0.999617
0.999472
0.999233
0.998821
0.998092
0.996858
0.994956
0.992366
0.989349
0.98636
0.983659
0.980921
0.977239
0.971455
0.962485
0.949526
0.932204
0.910707
0.885895
0.859336
0.833281
0.810445
0.793548
0.784715
0.784932
0.793876
0.810158
0.831822
0.856859
0.883546
0.910558
0.936895
0.961698
0.984062
1.00297
1.01745
1.02686
1.03122
1.03121
1.02808
1.0232
1.01783
1.01283
1.00866
1.00548
1.00322
1.00172
1.00079
1.00026
0.999979
0.999859
0.999824
0.999832
0.999857
0.999885
0.99991
0.999929
0.999944
0.999954
0.99996
0.999963
0.999966
0.999967
0.999969
0.999969
0.99997
0.99997
0.99997
0.99997
0.99997
0.99997
0.99997
0.99997
0.99997
0.99997
0.99997
0.99997
0.99997
0.99997
0.99997
0.99997
0.99997
0.99997
0.99997
0.99997
0.99997
0.99997
0.99997
0.999969
0.999968
0.999966
0.999963
0.999958
0.999947
0.999932
0.999906
0.999869
0.999822
0.999753
0.999662
0.99954
0.999347
0.999016
0.998443
0.997447
0.995795
0.993325
0.990126
0.986631
0.983391
0.980512
0.97731
0.972489
0.964598
0.952391
0.935002
0.912084
0.883945
0.851705
0.817414
0.784049
0.755263
0.734706
0.7251
0.727457
0.740878
0.763021
0.790957
0.82196
0.853943
0.885512
0.915786
0.944126
0.96987
0.992171
1.01007
1.02275
1.02994
1.03207
1.03024
1.02591
1.0205
1.01512
1.01044
1.00676
1.00408
1.00227
1.00111
1.00043
1.00007
0.999898
0.999836
0.999832
0.999853
0.99988
0.999905
0.999926
0.999942
0.999952
0.999959
0.999962
0.999966
0.999967
0.999969
0.999969
0.99997
0.99997
0.99997
0.99997
0.99997
0.99997
0.99997
0.99997
0.99997
0.99997
0.99997
0.99997
0.99997
0.99997
0.99997
0.99997
0.99997
0.99997
0.99997
0.99997
0.99997
0.99997
0.99997
0.999969
0.999968
0.999966
0.999962
0.999956
0.999943
0.999927
0.999898
0.999853
0.999799
0.99972
0.999607
0.999454
0.999202
0.998753
0.997981
0.996662
0.994518
0.991417
0.987618
0.983763
0.980408
0.97739
0.973594
0.967325
0.956861
0.940817
0.918289
0.888951
0.853223
0.812489
0.769362
0.727755
0.692563
0.668681
0.65958
0.666135
0.68642
0.716601
0.752363
0.790111
0.82748
0.863222
0.896799
0.927942
0.956316
0.981321
1.00209
1.01771
1.02764
1.03203
1.03176
1.02824
1.02302
1.01741
1.01231
1.00815
1.00505
1.00289
1.0015
1.00065
1.00019
0.999955
0.99986
0.999839
0.999852
0.999877
0.999902
0.999923
0.999939
0.99995
0.999958
0.999962
0.999966
0.999968
0.999969
0.999969
0.99997
0.99997
0.99997
0.99997
0.99997
0.99997
0.99997
0.99997
0.99997
0.99997
0.99997
0.99997
0.99997
0.99997
0.99997
0.99997
0.99997
0.99997
0.99997
0.99997
0.99997
0.99997
0.99997
0.999969
0.999968
0.999965
0.999961
0.999954
0.99994
0.99992
0.999889
0.999837
0.999776
0.999687
0.999547
0.999355
0.999033
0.998442
0.997428
0.995733
0.99303
0.989266
0.984934
0.980874
0.977541
0.974384
0.969829
0.961794
0.948322
0.92792
0.899659
0.863227
0.819111
0.768964
0.716033
0.665396
0.623566
0.597117
0.590511
0.604228
0.634594
0.675506
0.72077
0.765792
0.808111
0.846974
0.882536
0.915156
0.944959
0.971634
0.994434
1.01239
1.02474
1.0313
1.03268
1.03016
1.02533
1.01964
1.0142
1.00961
1.00608
1.00358
1.00193
1.00091
1.00033
1.00003
0.999895
0.999853
0.999855
0.999876
0.9999
0.99992
0.999937
0.999949
0.999957
0.999962
0.999965
0.999967
0.999969
0.999969
0.99997
0.99997
0.99997
0.99997
0.99997
0.99997
0.99997
0.99997
0.99997
0.99997
0.99997
0.99997
0.99997
0.99997
0.99997
0.99997
0.99997
0.99997
0.99997
0.99997
0.99997
0.99997
0.999969
0.999969
0.999968
0.999964
0.99996
0.999953
0.999936
0.999915
0.999882
0.999822
0.999753
0.999654
0.999485
0.999245
0.998842
0.998086
0.996783
0.994657
0.991357
0.986934
0.982182
0.978091
0.974893
0.971562
0.966064
0.955985
0.939159
0.914028
0.879655
0.835715
0.782721
0.722559
0.659161
0.598924
0.550383
0.52246
0.521093
0.545935
0.590413
0.645144
0.701586
0.75411
0.800401
0.840617
0.876074
0.908125
0.937562
0.96443
0.988101
1.00754
1.02174
1.03018
1.03315
1.03171
1.02739
1.02176
1.01606
1.01109
1.00717
1.00433
1.00241
1.00121
1.0005
1.00012
0.999943
0.999875
0.999865
0.999878
0.999899
0.99992
0.999936
0.999949
0.999956
0.999961
0.999965
0.999967
0.999969
0.999969
0.99997
0.99997
0.99997
0.99997
0.99997
0.99997
0.99997
0.99997
0.99997
0.99997
0.99997
0.99997
0.99997
0.99997
0.99997
0.99997
0.99997
0.99997
0.99997
0.99997
0.99997
0.99997
0.99997
0.999968
0.999967
0.999964
0.999958
0.999953
0.999933
0.999908
0.999877
0.999808
0.999729
0.999626
0.999423
0.999121
0.998632
0.997689
0.996049
0.993449
0.989539
0.984507
0.979464
0.975517
0.972542
0.968972
0.962367
0.950043
0.929683
0.899687
0.859141
0.807696
0.745847
0.675658
0.601661
0.531506
0.476057
0.447728
0.45495
0.495718
0.558731
0.630328
0.699443
0.759496
0.808512
0.847899
0.880587
0.909375
0.936038
0.961122
0.984129
1.00391
1.01917
1.02901
1.03334
1.03294
1.0292
1.02372
1.01786
1.01256
1.00828
1.00511
1.00293
1.00153
1.00069
1.00023
1
0.999906
0.999879
0.999884
0.999902
0.99992
0.999936
0.999948
0.999957
0.999962
0.999965
0.999967
0.999968
0.999969
0.99997
0.99997
0.99997
0.99997
0.99997
0.99997
0.99997
0.99997
0.99997
0.99997
0.99997
0.99997
0.99997
0.99997
0.99997
0.99997
0.99997
0.99997
0.99997
0.99997
0.99997
0.99997
0.99997
0.999968
0.999967
0.999966
0.999957
0.999952
0.999932
0.999902
0.999874
0.9998
0.999705
0.9996
0.999366
0.998985
0.9984
0.997257
0.995237
0.992127
0.987637
0.982078
0.976876
0.97322
0.970529
0.966658
0.958831
0.944207
0.92036
0.885683
0.839327
0.780963
0.711067
0.631794
0.547931
0.467815
0.404649
0.376234
0.395479
0.456992
0.542305
0.633107
0.716108
0.78386
0.834676
0.871289
0.89854
0.92112
0.94221
0.963113
0.983557
1.00226
1.01757
1.02817
1.0335
1.03398
1.03081
1.02552
1.01956
1.01399
1.00938
1.0059
1.00346
1.00188
1.00091
1.00036
1.00007
0.999945
0.9999
0.999894
0.999907
0.999922
0.999937
0.999948
0.999956
0.999962
0.999965
0.999967
0.999968
0.999969
0.99997
0.99997
0.99997
0.99997
0.99997
0.99997
0.99997
0.99997
0.99997
0.99997
0.99997
0.99997
0.99997
0.99997
0.99997
0.99997
0.99997
0.99997
0.99997
0.99997
0.99997
0.99997
0.999969
0.999968
0.999967
0.999965
0.999956
0.999951
0.999934
0.999895
0.999871
0.999799
0.999681
0.999574
0.999319
0.998842
0.998147
0.996809
0.994368
0.990722
0.985715
0.979737
0.974481
0.971224
0.96888
0.964674
0.955596
0.938797
0.911799
0.873011
0.82173
0.75779
0.681738
0.595679
0.504001
0.414486
0.341889
0.311791
0.345157
0.430525
0.540043
0.651307
0.749242
0.825411
0.878048
0.910926
0.930815
0.94462
0.957378
0.971553
0.98731
1.00329
1.01747
1.02802
1.03385
1.03496
1.03225
1.02716
1.02115
1.01536
1.01045
1.00668
1.00401
1.00223
1.00113
1.0005
1.00016
0.999992
0.999926
0.999909
0.999914
0.999926
0.999939
0.999949
0.999956
0.999962
0.999965
0.999967
0.999968
0.999969
0.99997
0.99997
0.99997
0.99997
0.99997
0.99997
0.99997
0.99997
0.99997
0.99997
0.99997
0.99997
0.99997
0.99997
0.99997
0.99997
0.99997
0.99997
0.99997
0.99997
0.99997
0.99997
0.99997
0.999968
0.999967
0.999966
0.999955
0.999949
0.999938
0.99989
0.999867
0.999804
0.999661
0.999546
0.999283
0.998701
0.997873
0.996351
0.993476
0.989272
0.983833
0.977563
0.972319
0.969525
0.967604
0.963091
0.952843
0.9342
0.904716
0.862805
0.808062
0.740752
0.661711
0.572797
0.477156
0.380473
0.296892
0.260256
0.305584
0.414229
0.54759
0.679684
0.793596
0.879497
0.935022
0.964489
0.976318
0.979709
0.981933
0.987049
0.996009
1.00754
1.01929
1.02886
1.03461
1.03601
1.03361
1.02867
1.02262
1.01663
1.01147
1.00745
1.00454
1.00259
1.00137
1.00064
1.00025
1.00005
0.999957
0.999927
0.999924
0.999932
0.999942
0.999951
0.999958
0.999963
0.999966
0.999967
0.999968
0.999969
0.99997
0.99997
0.99997
0.99997
0.99997
0.99997
0.99997
0.99997
0.99997
0.99997
0.99997
0.99997
0.99997
0.99997
0.99997
0.99997
0.99997
0.99997
0.99997
0.99997
0.999969
0.99997
0.99997
0.999968
0.999966
0.999966
0.999956
0.999946
0.999941
0.999891
0.99986
0.999818
0.999652
0.999512
0.999261
0.998573
0.997581
0.995895
0.992601
0.987822
0.982032
0.975609
0.970419
0.968098
0.966694
0.961997
0.950783
0.930832
0.899841
0.856222
0.800026
0.732376
0.654663
0.568249
0.474348
0.375646
0.282952
0.232855
0.280084
0.406151
0.560738
0.713216
0.843939
0.940989
1.00092
1.02818
1.03239
1.02485
1.0152
1.00948
1.00982
1.01528
1.0233
1.03095
1.03595
1.03723
1.03493
1.03006
1.02395
1.0178
1.01242
1.00816
1.00506
1.00295
1.0016
1.00079
1.00034
1.0001
0.999992
0.999948
0.999937
0.99994
0.999946
0.999953
0.999959
0.999964
0.999966
0.999968
0.999969
0.999969
0.99997
0.99997
0.99997
0.99997
0.99997
0.99997
0.99997
0.99997
0.99997
0.99997
0.99997
0.99997
0.99997
0.99997
0.99997
0.99997
0.99997
0.99997
0.99997
0.99997
0.99997
0.999969
0.99997
0.999969
0.999966
0.999967
0.999958
0.999944
0.999946
0.999897
0.999852
0.999835
0.999657
0.999476
0.999247
0.998476
0.997283
0.995444
0.991786
0.986429
0.980337
0.973905
0.968807
0.966908
0.966117
0.961481
0.949644
0.929073
0.897829
0.854282
0.799073
0.734623
0.663117
0.585057
0.499337
0.405692
0.310726
0.24607
0.279033
0.409471
0.579096
0.749864
0.897426
1.00645
1.07186
1.09807
1.09565
1.07755
1.05561
1.03801
1.02837
1.02644
1.02957
1.03438
1.03798
1.03872
1.03626
1.03134
1.02515
1.01885
1.01327
1.00881
1.00553
1.00328
1.00182
1.00094
1.00044
1.00016
1.00003
0.999972
0.999952
0.999948
0.999951
0.999956
0.999961
0.999966