/*--------------------------------*- C++ -*----------------------------------*\
  =========                 |
  \\      /  F ield         | OpenFOAM: The Open Source CFD Toolbox
   \\    /   O peration     | Website:  https://openfoam.org
    \\  /    A nd           | Version:  6
     \\/     M anipulation  |
\*---------------------------------------------------------------------------*/
FoamFile
{
    version     2.0;
    format      ascii;
    class       volScalarField;
    location    "4.76";
    object      p;
}
// * * * * * * * * * * * * * * * * * * * * * * * * * * * * * * * * * * * * * //

dimensions      [1 -1 -2 0 0 0 0];

internalField   nonuniform List<scalar> 
22500
(
0.999995
0.999996
0.999996
0.999997
0.999998
0.999998
0.999999
0.999999
1
0.999999
1
1
1
1
1
1
1
1
1
1
1
1
1
1
1
1
1
1
1
1
1
1
1
1
1
1
1
1
1
1
1
1
1
1
1
1
1
1
1
1
1
1
1
1
1
1
1
1
1
1
1
1
1.00001
1.00001
1.00001
1.00001
1.00001
1.00001
1.00002
1.00002
1.00002
1.00002
1.00002
1.00003
1.00004
1.00006
1.00009
1.00013
1.00019
1.00028
1.00041
1.00058
1.0008
1.00108
1.00144
1.00187
1.00238
1.00298
1.00366
1.00443
1.00526
1.00617
1.00712
1.0081
1.00911
1.01011
1.0111
1.01204
1.01294
1.01376
1.01451
1.01516
1.01571
1.01615
1.01648
1.01669
1.01678
1.01675
1.0166
1.01632
1.01593
1.01543
1.01482
1.01411
1.01331
1.01244
1.01151
1.01054
1.00954
1.00854
1.00756
1.00661
1.00571
1.00487
1.0041
1.00342
1.00281
1.00228
1.00183
1.00145
1.00113
1.00087
1.00066
1.00049
1.00036
1.00026
1.00018
1.00013
1.00008
1.00005
1.00003
1.00001
1
0.999998
0.999994
0.999992
0.999992
0.999992
0.999993
0.999994
0.999993
0.999994
0.999995
0.999996
0.999997
0.999998
0.999998
0.999999
0.999999
0.999999
1
1
1
1
1
1
1
1
1
1
1
1
1
1
1
1
1
1
1
1
1
1
1
1
1
1
1
1
1
1
1
1
0.999999
1
1
0.999999
1
1
1
1
1
1
1
1
1
1
1
1
1
1
1
1.00001
1.00001
1.00001
1.00001
1.00001
1.00002
1.00002
1.00002
1.00002
1.00003
1.00003
1.00004
1.00005
1.00006
1.00009
1.00014
1.0002
1.00029
1.00043
1.00061
1.00085
1.00116
1.00155
1.00203
1.00261
1.00329
1.00408
1.00497
1.00596
1.00702
1.00816
1.00935
1.01056
1.01178
1.01299
1.01416
1.01527
1.01631
1.01726
1.01811
1.01884
1.01946
1.01995
1.02031
1.02054
1.02064
1.02061
1.02045
1.02015
1.01972
1.01917
1.01848
1.01768
1.01676
1.01575
1.01465
1.01349
1.01229
1.01106
1.00984
1.00865
1.00751
1.00644
1.00545
1.00455
1.00376
1.00306
1.00246
1.00195
1.00153
1.00118
1.00089
1.00067
1.00049
1.00036
1.00025
1.00017
1.00011
1.00007
1.00004
1.00002
1.00001
0.999999
0.999994
0.999991
0.99999
0.99999
0.999991
0.999992
0.999991
0.999993
0.999994
0.999996
0.999996
0.999997
0.999998
0.999998
0.999999
0.999999
0.999999
1
1
1
1
1
1
1
1
1
1
1
1
1
1
1
1
1
1
1
1
1
1
1
1
1
1
1
1
1
1
1
1
1
1
1
1
1
1
1
1
1
1
1
1
1
1
1
1
1
1.00001
1.00001
1.00001
1.00001
1.00001
1.00002
1.00002
1.00002
1.00003
1.00003
1.00003
1.00004
1.00005
1.00007
1.0001
1.00014
1.00021
1.0003
1.00044
1.00063
1.00088
1.00121
1.00163
1.00216
1.00281
1.00358
1.00447
1.00549
1.00663
1.00787
1.00921
1.01061
1.01205
1.0135
1.01494
1.01635
1.01769
1.01894
1.02009
1.02113
1.02205
1.02283
1.02348
1.024
1.02438
1.02462
1.02473
1.0247
1.02453
1.02423
1.02379
1.02321
1.02249
1.02163
1.02063
1.01951
1.01827
1.01694
1.01554
1.01409
1.01262
1.01117
1.00975
1.00841
1.00716
1.00601
1.00498
1.00407
1.00328
1.00261
1.00205
1.00159
1.00121
1.00091
1.00067
1.00048
1.00034
1.00024
1.00016
1.0001
1.00006
1.00003
1.00001
1
0.999993
0.999989
0.999988
0.999988
0.999989
0.99999
0.999989
0.999991
0.999993
0.999994
0.999996
0.999996
0.999998
0.999998
0.999999
0.999999
0.999999
1
1
1
1
1
1
1
1
1
1
1
1
1
1
1
1
1
1
1
1
1
1
1
1
1
1
1
1
1
1
1
1
1
1
1
1
1
1
1
1
1
1
1
1
1
1
1
1
1
1.00001
1.00001
1.00001
1.00001
1.00002
1.00002
1.00002
1.00003
1.00003
1.00004
1.00005
1.00006
1.00007
1.0001
1.00014
1.00021
1.0003
1.00044
1.00063
1.0009
1.00124
1.0017
1.00227
1.00297
1.00382
1.00482
1.00597
1.00726
1.00869
1.01023
1.01185
1.01352
1.01522
1.0169
1.01854
1.0201
1.02157
1.02291
1.02412
1.02519
1.02612
1.0269
1.02754
1.02804
1.0284
1.02863
1.02874
1.02872
1.02857
1.02829
1.02787
1.02731
1.02661
1.02575
1.02474
1.02357
1.02225
1.02081
1.01924
1.0176
1.01589
1.01417
1.01247
1.01083
1.00928
1.00784
1.00653
1.00536
1.00435
1.00347
1.00274
1.00212
1.00162
1.00122
1.0009
1.00066
1.00047
1.00032
1.00022
1.00014
1.00009
1.00005
1.00002
1
0.999994
0.999988
0.999986
0.999985
0.999986
0.999988
0.999987
0.999989
0.999991
0.999993
0.999994
0.999996
0.999997
0.999998
0.999998
0.999999
0.999999
0.999999
1
1
1
1
1
1
1
1
1
1
1
1
1
1
1
1
1
1
1
1
1
1
1
1
1
1
1
1
1
1
1
1
1
1
1
1
1
1
1
1
1
1
1
1
1
1
1
1.00001
1.00001
1.00001
1.00001
1.00002
1.00002
1.00002
1.00003
1.00004
1.00004
1.00005
1.00006
1.00008
1.0001
1.00014
1.00021
1.0003
1.00044
1.00063
1.0009
1.00126
1.00173
1.00234
1.00309
1.00401
1.00511
1.00639
1.00784
1.00945
1.01119
1.01304
1.01495
1.01689
1.01881
1.02068
1.02245
1.0241
1.02561
1.02696
1.02814
1.02916
1.03001
1.03071
1.03127
1.0317
1.03201
1.0322
1.03229
1.03228
1.03216
1.03193
1.03159
1.03111
1.0305
1.02973
1.02879
1.02768
1.02638
1.02491
1.02327
1.02149
1.0196
1.01765
1.01567
1.01372
1.01185
1.01008
1.00846
1.00699
1.00569
1.00457
1.00362
1.00282
1.00217
1.00164
1.00122
1.00089
1.00063
1.00044
1.0003
1.0002
1.00012
1.00007
1.00003
1.00001
0.999996
0.999988
0.999984
0.999983
0.999984
0.999985
0.999984
0.999987
0.999989
0.999991
0.999993
0.999995
0.999996
0.999997
0.999998
0.999998
0.999999
0.999999
0.999999
1
1
1
1
1
1
1
1
1
1
1
1
1
1
1
1
1
1
1
1
1
1
1
1
1
1
1
1
1
1
1
1
1
1
1
1
1
1
1
1
1
1
1
1
1
1.00001
1.00001
1.00001
1.00001
1.00002
1.00002
1.00003
1.00003
1.00004
1.00004
1.00005
1.00006
1.00008
1.00011
1.00014
1.0002
1.00029
1.00043
1.00062
1.00088
1.00125
1.00173
1.00237
1.00316
1.00415
1.00534
1.00673
1.00833
1.01012
1.01207
1.01415
1.0163
1.01848
1.02064
1.02271
1.02467
1.02648
1.0281
1.02953
1.03076
1.03179
1.03264
1.03333
1.03386
1.03426
1.03456
1.03476
1.03489
1.03494
1.03494
1.03487
1.03472
1.0345
1.03418
1.03374
1.03316
1.03242
1.03148
1.03034
1.02898
1.02739
1.0256
1.02362
1.02151
1.01931
1.01708
1.01488
1.01278
1.0108
1.00899
1.00737
1.00596
1.00474
1.00372
1.00287
1.00218
1.00163
1.00119
1.00086
1.0006
1.00041
1.00027
1.00017
1.0001
1.00005
1.00002
1
0.999989
0.999983
0.999981
0.999981
0.999982
0.999981
0.999984
0.999987
0.999989
0.999992
0.999993
0.999995
0.999996
0.999997
0.999998
0.999999
0.999999
0.999999
1
1
1
1
1
1
1
1
1
1
1
1
1
1
1
1
1
1
1
1
1
1
1
1
1
1
1
1
1
1
1
1
1
1
0.999999
1
1
1
1
1
1
1
1
1
1.00001
1.00001
1.00001
1.00001
1.00002
1.00002
1.00003
1.00003
1.00004
1.00005
1.00005
1.00007
1.00008
1.00011
1.00014
1.0002
1.00028
1.00041
1.00059
1.00086
1.00122
1.00171
1.00235
1.00318
1.00422
1.00549
1.00699
1.00873
1.01069
1.01284
1.01514
1.01753
1.01995
1.02232
1.02459
1.02671
1.02863
1.03031
1.03176
1.03296
1.03392
1.03468
1.03524
1.03564
1.03591
1.03609
1.03619
1.03624
1.03626
1.03627
1.03627
1.03626
1.03623
1.03617
1.03606
1.03588
1.03559
1.03516
1.03454
1.03371
1.03262
1.03126
1.02962
1.02772
1.02558
1.02326
1.02083
1.01836
1.01592
1.01358
1.01141
1.00943
1.00767
1.00614
1.00484
1.00376
1.00287
1.00216
1.00159
1.00115
1.00081
1.00056
1.00037
1.00024
1.00015
1.00008
1.00004
1.00001
0.999991
0.999982
0.999978
0.999978
0.999979
0.999978
0.999981
0.999984
0.999987
0.99999
0.999992
0.999994
0.999996
0.999997
0.999998
0.999998
0.999999
0.999999
1
0.999999
1
1
1
1
1
1
1
1
1
1
1
1
1
1
1
1
1
1
1
1
1
1
1
1
1
1
1
1
1
1
1
1
1
1
1
1
1
1
1
1
1
1
1.00001
1.00001
1.00001
1.00002
1.00002
1.00002
1.00003
1.00004
1.00005
1.00005
1.00007
1.00008
1.00011
1.00014
1.00019
1.00027
1.00039
1.00056
1.00081
1.00117
1.00166
1.0023
1.00315
1.00422
1.00555
1.00714
1.00901
1.01113
1.01348
1.016
1.01861
1.02125
1.02384
1.02628
1.02852
1.03051
1.0322
1.0336
1.03469
1.0355
1.03605
1.03638
1.03654
1.03657
1.03651
1.03639
1.03624
1.03611
1.03601
1.03595
1.03594
1.03599
1.03609
1.03623
1.03638
1.03651
1.0366
1.03658
1.03641
1.03603
1.0354
1.03446
1.03319
1.03156
1.02959
1.02732
1.02482
1.02217
1.01947
1.0168
1.01425
1.01188
1.00975
1.00787
1.00624
1.00488
1.00375
1.00283
1.0021
1.00153
1.00109
1.00076
1.00051
1.00033
1.00021
1.00012
1.00006
1.00002
0.999997
0.999983
0.999977
0.999975
0.999976
0.999975
0.999978
0.999981
0.999985
0.999988
0.99999
0.999993
0.999995
0.999996
0.999997
0.999998
0.999999
0.999999
0.999999
1
1
1
1
1
1
1
1
1
1
1
1
1
1
1
1
1
1
1
1
1
1
1
1
1
1
1
1
1
1
1
1
1
1
1
1
1
1
1
1
1
1
1.00001
1.00001
1.00001
1.00001
1.00002
1.00002
1.00003
1.00004
1.00005
1.00006
1.00007
1.00008
1.00011
1.00014
1.00018
1.00026
1.00036
1.00053
1.00077
1.0011
1.00158
1.00222
1.00307
1.00416
1.00553
1.00719
1.00917
1.01144
1.01396
1.01668
1.01952
1.02238
1.02516
1.02775
1.03009
1.0321
1.03375
1.03502
1.03593
1.03649
1.03676
1.03678
1.03659
1.03627
1.03586
1.03541
1.03497
1.03456
1.03422
1.03398
1.03384
1.03383
1.03394
1.03417
1.0345
1.03492
1.03539
1.03588
1.03634
1.03671
1.03692
1.03689
1.03656
1.03586
1.03474
1.03318
1.03119
1.02882
1.02616
1.0233
1.02038
1.0175
1.01475
1.01221
1.00994
1.00795
1.00626
1.00484
1.00368
1.00275
1.00201
1.00145
1.00101
1.00069
1.00046
1.00029
1.00017
1.00009
1.00004
1.00001
0.999987
0.999977
0.999973
0.999973
0.999971
0.999974
0.999978
0.999982
0.999985
0.999989
0.999991
0.999994
0.999995
0.999997
0.999997
0.999998
0.999999
0.999999
1
1
1
1
1
1
1
1
1
1
1
1
1
1
1
1
1
1
1
1
1
1
1
1
1
1
1
1
1
1
1
1
1
1
1
1
1
1
1
1
1
1
1.00001
1.00001
1.00001
1.00002
1.00002
1.00003
1.00004
1.00004
1.00005
1.00007
1.00008
1.0001
1.00013
1.00017
1.00024
1.00034
1.00049
1.00071
1.00103
1.00148
1.0021
1.00294
1.00403
1.00542
1.00713
1.00919
1.01158
1.01427
1.01719
1.02024
1.0233
1.02626
1.02899
1.0314
1.0334
1.03496
1.03606
1.03671
1.03697
1.03687
1.03649
1.03589
1.03514
1.03431
1.03345
1.03261
1.03184
1.03117
1.03063
1.03025
1.03004
1.03002
1.03017
1.03051
1.03102
1.03169
1.03248
1.03337
1.03431
1.03524
1.03608
1.03676
1.03717
1.03723
1.03684
1.03593
1.03448
1.0325
1.03005
1.02724
1.02421
1.02108
1.01799
1.01507
1.01239
1.01
1.00793
1.00618
1.00473
1.00356
1.00263
1.0019
1.00134
1.00093
1.00062
1.0004
1.00024
1.00014
1.00007
1.00002
0.999993
0.999978
0.999971
0.99997
0.999968
0.999971
0.999975
0.999979
0.999983
0.999987
0.999989
0.999992
0.999994
0.999996
0.999997
0.999998
0.999998
0.999999
0.999999
0.999999
1
1
1
1
1
1
1
1
1
1
1
1
1
1
1
1
1
1
1
1
1
1
1
1
1
1
1
1
1
1
1
1
1
1
1
1
1
1
1
1.00001
1.00001
1.00001
1.00002
1.00002
1.00003
1.00003
1.00004
1.00005
1.00006
1.00008
1.0001
1.00013
1.00016
1.00022
1.00031
1.00045
1.00065
1.00094
1.00137
1.00196
1.00276
1.00384
1.00522
1.00696
1.00908
1.01157
1.0144
1.01749
1.02074
1.02401
1.02714
1.03
1.03246
1.03442
1.03586
1.03674
1.0371
1.03699
1.03648
1.03565
1.03459
1.03336
1.03206
1.03074
1.02946
1.02827
1.02721
1.02632
1.02561
1.02511
1.02484
1.02479
1.02497
1.0254
1.02604
1.02691
1.02798
1.02921
1.03057
1.03202
1.03347
1.03486
1.03607
1.03698
1.03748
1.03745
1.0368
1.03549
1.03353
1.03102
1.02807
1.02486
1.02154
1.01828
1.0152
1.0124
1.00992
1.00779
1.00601
1.00456
1.00339
1.00247
1.00176
1.00123
1.00083
1.00054
1.00034
1.0002
1.0001
1.00004
1
0.999982
0.999971
0.999967
0.999965
0.999967
0.999971
0.999975
0.99998
0.999984
0.999988
0.999991
0.999993
0.999995
0.999996
0.999997
0.999998
0.999998
0.999999
0.999999
1
1
1
1
1
1
1
1
1
1
1
1
1
1
1
1
1
1
1
1
1
1
1
1
1
1
1
1
1
1
1
1
1
1
1
1
1
1
1
1.00001
1.00001
1.00001
1.00002
1.00002
1.00003
1.00004
1.00005
1.00006
1.00008
1.0001
1.00012
1.00016
1.00021
1.00029
1.0004
1.00058
1.00085
1.00124
1.00179
1.00256
1.00359
1.00495
1.00669
1.00883
1.01139
1.01433
1.01758
1.02102
1.02448
1.02779
1.03077
1.03328
1.0352
1.03649
1.03714
1.03718
1.03668
1.03573
1.03443
1.03287
1.03115
1.02936
1.02757
1.02583
1.02421
1.02275
1.02147
1.0204
1.01956
1.01897
1.01864
1.01857
1.01877
1.01925
1.01999
1.02099
1.02225
1.02374
1.02543
1.02729
1.02926
1.03128
1.03323
1.03501
1.03646
1.03743
1.03778
1.0374
1.03623
1.0343
1.03172
1.02864
1.02525
1.02176
1.01834
1.01514
1.01224
1.00971
1.00756
1.00577
1.00432
1.00318
1.00229
1.00161
1.0011
1.00073
1.00047
1.00028
1.00015
1.00007
1.00002
0.999989
0.999973
0.999966
0.999963
0.999964
0.999967
0.999972
0.999977
0.999982
0.999985
0.999989
0.999992
0.999994
0.999996
0.999997
0.999998
0.999998
0.999999
0.999999
0.999999
1
1
1
1
1
1
1
1
1
1
1
1
0.999999
1
1
1
1
1
1
1
1
1
1
1
1
1
1
1
1
1
1
1
1
1
1
1
1
1.00001
1.00001
1.00001
1.00002
1.00002
1.00003
1.00004
1.00005
1.00006
1.00007
1.00009
1.00011
1.00015
1.00019
1.00026
1.00036
1.00052
1.00076
1.00111
1.00162
1.00233
1.00331
1.00462
1.00632
1.00845
1.01105
1.01407
1.01746
1.02107
1.02472
1.0282
1.03131
1.03388
1.03576
1.03691
1.03732
1.03703
1.03614
1.03474
1.03297
1.03092
1.02872
1.02645
1.0242
1.02202
1.01998
1.01812
1.01646
1.01503
1.01385
1.01293
1.01229
1.01192
1.01183
1.01204
1.01253
1.01332
1.0144
1.01576
1.01741
1.01931
1.02146
1.02381
1.02631
1.02888
1.03141
1.03376
1.03575
1.0372
1.03792
1.03779
1.03675
1.03483
1.03216
1.02894
1.02539
1.02174
1.01819
1.01488
1.01193
1.00937
1.00722
1.00546
1.00404
1.00293
1.00208
1.00144
1.00097
1.00063
1.00039
1.00022
1.00011
1.00004
1
0.999977
0.999966
0.999961
0.999961
0.999964
0.999968
0.999973
0.999979
0.999983
0.999987
0.99999
0.999993
0.999995
0.999996
0.999997
0.999998
0.999999
0.999999
0.999999
1
1
1
1
1
1
1
1
1
1
1
1
1
1
1
1
1
1
1
1
1
1
1
1
1
1
1
1
1
1
1
1
1
1
1
1
1
1.00001
1.00001
1.00001
1.00002
1.00003
1.00003
1.00004
1.00005
1.00007
1.00009
1.00011
1.00014
1.00018
1.00024
1.00033
1.00046
1.00067
1.00098
1.00144
1.00209
1.003
1.00424
1.00587
1.00797
1.01055
1.01362
1.01711
1.02087
1.02471
1.02838
1.03164
1.03428
1.03614
1.03717
1.03735
1.03675
1.03548
1.03365
1.03142
1.02892
1.02625
1.02353
1.02084
1.01826
1.01583
1.0136
1.01159
1.00983
1.00833
1.0071
1.00615
1.00547
1.00509
1.00499
1.00519
1.00568
1.00647
1.00757
1.00897
1.01068
1.01269
1.01499
1.01756
1.02038
1.02338
1.02648
1.02958
1.03248
1.035
1.03689
1.03796
1.03804
1.03708
1.03513
1.03234
1.02897
1.02526
1.02147
1.01781
1.01445
1.01147
1.00892
1.0068
1.00508
1.00372
1.00266
1.00186
1.00127
1.00083
1.00053
1.00031
1.00017
1.00008
1.00002
0.999985
0.999968
0.999962
0.999958
0.99996
0.999965
0.99997
0.999976
0.999981
0.999985
0.999989
0.999991
0.999994
0.999995
0.999997
0.999998
0.999998
0.999999
0.999999
1
1
1
1
1
1
1
1
1
1
1
1
1
1
1
1
1
1
1
1
1
1
1
1
1
1
1
0.999999
1
1
1
1
1
1
1
1
1.00001
1.00001
1.00001
1.00002
1.00002
1.00003
1.00004
1.00005
1.00006
1.00008
1.0001
1.00013
1.00016
1.00021
1.00029
1.00041
1.00059
1.00086
1.00126
1.00184
1.00268
1.00382
1.00537
1.00738
1.00992
1.01299
1.01654
1.02043
1.02444
1.02831
1.03174
1.03449
1.03638
1.03732
1.03731
1.03643
1.0348
1.03258
1.02993
1.02699
1.0239
1.02076
1.01768
1.01473
1.01195
1.00938
1.00707
1.00501
1.00323
1.00172
1.00049
0.999545
0.998877
0.998489
0.998382
0.998561
0.999029
0.999794
1.00086
1.00224
1.00394
1.00597
1.00831
1.01097
1.01394
1.01718
1.02065
1.02427
1.02789
1.03132
1.03432
1.03661
1.03795
1.03818
1.03724
1.0352
1.03228
1.02873
1.02487
1.02096
1.01724
1.01385
1.01089
1.00838
1.00631
1.00466
1.00337
1.00238
1.00164
1.00109
1.0007
1.00043
1.00024
1.00012
1.00004
0.999998
0.999973
0.999964
0.999957
0.999957
0.999961
0.999967
0.999972
0.999978
0.999983
0.999987
0.99999
0.999993
0.999995
0.999996
0.999998
0.999998
0.999999
0.999999
0.999999
1
1
1
1
1
1
1
1
1
1
1
1
1
1
1
1
1
1
1
1
1
1
1
1
1
1
1
1
1
1
1
1
1
1
1
1.00001
1.00001
1.00001
1.00002
1.00003
1.00003
1.00004
1.00006
1.00007
1.00009
1.00012
1.00015
1.00019
1.00026
1.00036
1.00051
1.00074
1.00109
1.0016
1.00235
1.00339
1.00483
1.00673
1.00917
1.0122
1.01576
1.01974
1.02392
1.02798
1.03162
1.03452
1.03648
1.03739
1.03724
1.03613
1.0342
1.03162
1.02859
1.02526
1.02178
1.01827
1.01483
1.01154
1.00845
1.0056
1.00301
1.0007
0.998673
0.996932
0.995473
0.994289
0.993377
0.992732
0.992352
0.992238
0.992392
0.99282
0.993533
0.99454
0.995853
0.997486
0.999449
1.00175
1.00439
1.00738
1.0107
1.01435
1.01826
1.02236
1.02648
1.03039
1.03381
1.03642
1.03796
1.03825
1.03724
1.03506
1.03196
1.02823
1.02423
1.02024
1.01648
1.0131
1.01019
1.00775
1.00578
1.00421
1.003
1.00209
1.00141
1.00092
1.00058
1.00034
1.00018
1.00008
1.00002
0.999982
0.999969
0.999958
0.999956
0.999958
0.999963
0.999969
0.999975
0.99998
0.999985
0.999989
0.999992
0.999994
0.999996
0.999997
0.999998
0.999998
0.999999
0.999999
0.999999
1
1
1
1
1
1
1
1
1
1
1
1
1
1
1
1
1
1
1
1
1
1
1
1
1
1
1
1
1
1
1
1
1
1.00001
1.00001
1.00001
1.00002
1.00002
1.00003
1.00004
1.00005
1.00007
1.00008
1.00011
1.00013
1.00017
1.00023
1.00031
1.00044
1.00063
1.00093
1.00138
1.00203
1.00296
1.00426
1.00603
1.00834
1.01126
1.01479
1.01882
1.02313
1.0274
1.03126
1.03437
1.03646
1.0374
1.03718
1.0359
1.03372
1.03085
1.02748
1.0238
1.01997
1.01612
1.01236
1.00877
1.0054
1.00229
0.999469
0.996944
0.994716
0.992784
0.991137
0.989766
0.988659
0.987806
0.987199
0.986834
0.986711
0.986832
0.987205
0.987841
0.988755
0.989964
0.991485
0.993337
0.995532
0.998084
1.001
1.00429
1.00795
1.01197
1.0163
1.02085
1.02543
1.02977
1.03354
1.03638
1.03801
1.03825
1.03709
1.03471
1.03138
1.02748
1.02335
1.0193
1.01555
1.01223
1.0094
1.00707
1.0052
1.00374
1.00263
1.0018
1.00119
1.00076
1.00046
1.00026
1.00013
1.00004
0.999995
0.999978
0.99996
0.999954
0.999955
0.99996
0.999966
0.999972
0.999978
0.999983
0.999987
0.99999
0.999993
0.999995
0.999996
0.999998
0.999998
0.999999
0.999999
0.999999
1
1
1
1
1
1
1
1
1
1
1
1
1
1
1
1
1
1
1
1
1
1
1
1
1
1
1
1
1
1
1
1
1
1.00001
1.00001
1.00001
1.00002
1.00003
1.00003
1.00005
1.00006
1.00008
1.0001
1.00012
1.00016
1.0002
1.00027
1.00038
1.00054
1.00079
1.00117
1.00173
1.00254
1.0037
1.00531
1.00745
1.01022
1.01365
1.01767
1.02207
1.02654
1.03066
1.03403
1.03633
1.03738
1.03716
1.03579
1.03342
1.0303
1.02665
1.02266
1.01852
1.01437
1.01032
1.00645
1.00283
0.999489
0.99646
0.993749
0.991357
0.989273
0.987485
0.985975
0.984727
0.983722
0.982946
0.982388
0.982041
0.981905
0.981983
0.982283
0.98282
0.983611
0.984679
0.986049
0.987744
0.989784
0.992188
0.99497
0.998142
1.00172
1.0057
1.01009
1.01483
1.01981
1.02481
1.02951
1.03353
1.03649
1.03809
1.03817
1.03677
1.03411
1.03055
1.02648
1.02226
1.01819
1.01449
1.01126
1.00856
1.00636
1.00461
1.00327
1.00226
1.00152
1.00098
1.00061
1.00035
1.00019
1.00008
1.00001
0.999991
0.999965
0.999955
0.999954
0.999957
0.999963
0.999969
0.999975
0.999981
0.999985
0.999989
0.999992
0.999994
0.999996
0.999997
0.999998
0.999999
0.999999
0.999999
1
1
1
1
1
1
1
1
1
1
1
1
1
1
1
1
1
1
1
1
1
1
1
1
1
1
1
1
1
1
1
1
1.00001
1.00001
1.00001
1.00002
1.00002
1.00003
1.00004
1.00005
1.00007
1.00009
1.00011
1.00014
1.00018
1.00024
1.00032
1.00046
1.00066
1.00098
1.00145
1.00215
1.00317
1.00459
1.00654
1.00912
1.01239
1.01632
1.02077
1.0254
1.02979
1.03347
1.03605
1.03731
1.03719
1.0358
1.03333
1.03003
1.02614
1.02189
1.01747
1.01304
1.00871
1.00459
1.00073
0.99718
0.993966
0.991096
0.988567
0.986368
0.984481
0.982882
0.981547
0.980451
0.979572
0.978889
0.978389
0.978063
0.977908
0.977931
0.97814
0.978553
0.97919
0.98008
0.981255
0.982747
0.984583
0.98679
0.989386
0.992387
0.995809
0.999667
1.00398
1.00874
1.01388
1.01927
1.02464
1.02962
1.0338
1.03675
1.03818
1.03797
1.03625
1.03328
1.02947
1.02524
1.02096
1.01693
1.01332
1.01023
1.00767
1.00562
1.00403
1.00281
1.00191
1.00126
1.00079
1.00048
1.00026
1.00012
1.00004
1.00001
0.999974
0.999957
0.999953
0.999954
0.99996
0.999966
0.999973
0.999978
0.999984
0.999988
0.999991
0.999994
0.999995
0.999997
0.999998
0.999998
1
0.999999
1
1
1
1
1
1
1
1
1
1
1
1
1
1
1
1
1
1
1
1
1
1
1
1
1
1
1
1
1
1
1
1
1.00001
1.00001
1.00001
1.00002
1.00002
1.00003
1.00004
1.00006
1.00008
1.0001
1.00012
1.00016
1.00021
1.00028
1.00039
1.00055
1.00081
1.0012
1.00179
1.00266
1.00391
1.00564
1.00799
1.01104
1.01482
1.01923
1.02398
1.02863
1.03266
1.0356
1.03716
1.03724
1.03593
1.03344
1.03003
1.02597
1.02149
1.01683
1.01214
1.00756
1.00319
0.9991
0.995348
0.991959
0.988944
0.986302
0.984019
0.982071
0.980429
0.979063
0.977939
0.977026
0.976296
0.975723
0.975292
0.97499
0.974814
0.97477
0.974869
0.975131
0.975583
0.976255
0.977188
0.978422
0.979998
0.981951
0.984307
0.987087
0.990306
0.993981
0.998135
1.00279
1.00793
1.01348
1.01925
1.02494
1.03011
1.0343
1.03709
1.03822
1.03762
1.03549
1.03218
1.02813
1.02378
1.0195
1.01555
1.01208
1.00915
1.00678
1.0049
1.00345
1.00237
1.00158
1.00102
1.00062
1.00036
1.00018
1.00007
1.00003
0.999986
0.999962
0.999953
0.999953
0.999957
0.999963
0.99997
0.999976
0.999982
0.999986
0.99999
0.999993
0.999995
0.999996
0.999998
0.999998
0.999999
0.999999
0.999999
1
1
1
1
1
1
1
1
1
1
1
1
1
1
1
1
1
1
1
1
1
1
1
1
1
1
1
1
1
1
1
1.00001
1.00001
1.00001
1.00002
1.00003
1.00004
1.00005
1.00007
1.00008
1.00011
1.00014
1.00018
1.00024
1.00033
1.00046
1.00067
1.00099
1.00148
1.0022
1.00327
1.00478
1.00687
1.00966
1.01321
1.0175
1.02229
1.02716
1.03156
1.03493
1.0369
1.03729
1.03617
1.03375
1.03031
1.02613
1.02148
1.0166
1.01167
1.00684
1.00223
0.997922
0.993968
0.990408
0.987257
0.984515
0.982167
0.980189
0.978547
0.977203
0.976114
0.97524
0.974542
0.973987
0.973544
0.973193
0.972921
0.972723
0.972604
0.972576
0.972664
0.972896
0.97331
0.973951
0.97487
0.976119
0.977749
0.979797
0.982293
0.985255
0.988698
0.992642
0.997114
1.00213
1.00767
1.01362
1.01975
1.02568
1.03092
1.03499
1.03746
1.03814
1.03706
1.03448
1.03082
1.02656
1.02214
1.0179
1.01408
1.01079
1.00807
1.00589
1.0042
1.00291
1.00196
1.00128
1.0008
1.00047
1.00026
1.00012
1.00007
1
0.99997
0.999956
0.999952
0.999955
0.999961
0.999967
0.999974
0.99998
0.999985
0.999989
0.999992
0.999994
0.999996
0.999997
0.999998
0.999999
0.999999
0.999999
1
1
1
1
1
1
1
1
1
1
1
1
1
1
1
1
1
1
1
1
1
1
0.999999
1
1
1
1
1
1
1
1.00001
1.00001
1.00001
1.00002
1.00002
1.00003
1.00004
1.00006
1.00007
1.00009
1.00012
1.00016
1.00021
1.00028
1.00038
1.00055
1.0008
1.0012
1.0018
1.00269
1.00398
1.0058
1.00829
1.01156
1.01562
1.02036
1.02538
1.03013
1.03399
1.03645
1.03728
1.03648
1.03423
1.03084
1.02661
1.02184
1.01678
1.01163
1.00657
1.00172
0.997179
0.993018
0.989281
0.985992
0.983155
0.980756
0.97877
0.97716
0.975882
0.974886
0.97412
0.973535
0.973086
0.972733
0.972441
0.972185
0.971951
0.971733
0.971534
0.971369
0.971262
0.971246
0.971364
0.971667
0.972212
0.973065
0.974292
0.975949
0.97808
0.980713
0.983864
0.987547
0.991785
0.996606
1.00202
1.00798
1.01433
1.02075
1.02682
1.03199
1.03577
1.03777
1.03788
1.03623
1.03318
1.0292
1.02478
1.02035
1.01622
1.01258
1.0095
1.00701
1.00504
1.00353
1.00241
1.00159
1.00101
1.00061
1.00035
1.00017
1.00011
1.00003
0.999982
0.99996
0.999953
0.999953
0.999959
0.999965
0.999972
0.999978
0.999983
0.999987
0.999991
0.999993
0.999995
0.999997
0.999998
0.999998
0.999999
0.999999
1
1
1
1
1
1
1
1
1
1
1
1
1
1
1
1
1
1
1
1
1
1
1
1
1
1
1
1
1
1
1.00001
1.00001
1.00001
1.00002
1.00003
1.00003
1.00005
1.00006
1.00008
1.0001
1.00013
1.00018
1.00023
1.00032
1.00045
1.00065
1.00097
1.00145
1.00218
1.00326
1.00482
1.00699
1.00991
1.01368
1.01824
1.02331
1.02836
1.03271
1.03577
1.03714
1.03678
1.03483
1.0316
1.0274
1.02256
1.01736
1.01201
1.00673
1.00163
0.996857
0.992478
0.988553
0.985115
0.982175
0.979727
0.977743
0.976186
0.975008
0.974151
0.973555
0.973157
0.9729
0.972729
0.9726
0.972476
0.972329
0.972142
0.971908
0.971631
0.971324
0.971012
0.97073
0.970525
0.970451
0.970574
0.970967
0.971712
0.972887
0.974557
0.976767
0.979544
0.982899
0.986848
0.991415
0.996626
1.00247
1.00886
1.01557
1.02222
1.0283
1.03323
1.03654
1.03792
1.03736
1.0351
1.03159
1.02733
1.02282
1.01845
1.01449
1.01107
1.00824
1.00599
1.00424
1.00292
1.00195
1.00126
1.00078
1.00046
1.00024
1.00016
1.00006
0.999997
0.999967
0.999955
0.999953
0.999957
0.999963
0.999969
0.999976
0.999981
0.999986
0.99999
0.999993
0.999995
0.999996
0.999998
0.999998
0.999999
0.999999
0.999999
1
1
1
1
1
1
1
1
1
1
1
1
0.999999
1
1
1
1
1
1
1
1
1
1
1
1
1
1
1
1
1.00001
1.00001
1.00001
1.00002
1.00003
1.00004
1.00005
1.00007
1.00009
1.00012
1.00015
1.0002
1.00027
1.00037
1.00053
1.00077
1.00116
1.00174
1.00263
1.00393
1.00578
1.00833
1.01173
1.016
1.02098
1.02623
1.03106
1.03475
1.0368
1.03701
1.03549
1.03252
1.02845
1.02361
1.01831
1.01281
1.0073
1.00197
0.996951
0.992335
0.988202
0.984596
0.981537
0.979025
0.977042
0.975548
0.974489
0.973804
0.973422
0.97327
0.973276
0.973372
0.973498
0.973605
0.973656
0.973622
0.973486
0.973241
0.97289
0.972446
0.971933
0.971384
0.970845
0.970376
0.970044
0.969933
0.970133
0.970742
0.971851
0.973532
0.97583
0.978767
0.982354
0.986607
0.991549
0.997192
1.0035
1.01031
1.01733
1.02409
1.03001
1.03452
1.03718
1.03781
1.03651
1.03364
1.02971
1.02525
1.02073
1.01649
1.01275
1.00959
1.00703
1.00503
1.0035
1.00237
1.00155
1.00098
1.00058
1.00032
1.00022
1.00009
1.00002
0.999977
0.999959
0.999954
0.999955
0.999961
0.999967
0.999974
0.99998
0.999985
0.999989
0.999992
0.999994
0.999996
0.999997
0.999998
0.999999
0.999999
1
1
1
1
1
1
1
1
1
1
1
1
1
1
1
1
1
1
1
1
1
1
1
1
1
1
1
1
1
1
1.00001
1.00001
1.00002
1.00002
1.00003
1.00004
1.00006
1.00007
1.0001
1.00013
1.00017
1.00022
1.0003
1.00042
1.00061
1.00091
1.00138
1.00209
1.00315
1.00469
1.00687
1.00985
1.01374
1.01849
1.02378
1.02899
1.03333
1.03614
1.03707
1.03613
1.03356
1.02972
1.02497
1.01963
1.014
1.0083
1.00273
0.997453
0.992587
0.98822
0.984417
0.981211
0.978613
0.976609
0.975166
0.97423
0.973733
0.973595
0.97373
0.97405
0.974473
0.974924
0.975341
0.975675
0.975887
0.975956
0.975866
0.975611
0.975196
0.97463
0.973934
0.973139
0.972286
0.971431
0.970644
0.970011
0.969631
0.969616
0.970082
0.97113
0.972838
0.975248
0.978377
0.982237
0.986843
0.992212
0.998331
1.00511
1.01231
1.01954
1.02625
1.03183
1.03571
1.03757
1.03735
1.03528
1.03184
1.02757
1.023
1.01856
1.01452
1.01104
1.00818
1.0059
1.00415
1.00284
1.00188
1.0012
1.00073
1.00042
1.00029
1.00013
1.00004
0.99999
0.999965
0.999956
0.999955
0.999959
0.999966
0.999972
0.999978
0.999984
0.999988
0.999991
0.999994
0.999996
0.999997
0.999998
0.999999
0.999999
1
0.999999
1
0.999999
1
1
1
1
1
1
1
1
1
1
1
1
1
1
1
1
1
1
1
1
1
1
1
1
1
1.00001
1.00001
1.00001
1.00002
1.00002
1.00003
1.00005
1.00006
1.00008
1.00011
1.00014
1.00018
1.00025
1.00034
1.00049
1.00072
1.00108
1.00164
1.00248
1.00374
1.00556
1.00811
1.01154
1.01592
1.02108
1.02652
1.03145
1.03507
1.03684
1.03663
1.03461
1.03113
1.02657
1.02127
1.01556
1.0097
1.0039
0.998367
0.993229
0.988603
0.984569
0.981177
0.978454
0.976396
0.974977
0.974147
0.973833
0.973948
0.97439
0.975057
0.975845
0.976664
0.977436
0.978103
0.978619
0.978955
0.979095
0.979033
0.978768
0.978301
0.97764
0.9768
0.975804
0.974687
0.973494
0.972291
0.971161
0.970206
0.969548
0.969322
0.969661
0.970677
0.972446
0.975008
0.978379
0.982568
0.987589
0.993439
1.00007
1.0073
1.01482
1.02213
1.02859
1.0336
1.03667
1.03759
1.03646
1.03366
1.02972
1.02522
1.02064
1.01636
1.01258
1.00942
1.00686
1.00487
1.00336
1.00225
1.00146
1.00091
1.00053
1.00037
1.00019
1.00007
1.00001
0.999973
0.999959
0.999956
0.999958
0.999964
0.99997
0.999977
0.999982
0.999987
0.99999
0.999993
0.999995
0.999996
0.999998
0.999998
0.999999
0.999999
1
1
1
1
1
1
1
1
1
1
1
1
1
1
1
1
1
1
1
1
1
1
1
1
1
1
1
1
1
1.00001
1.00001
1.00002
1.00003
1.00004
1.00005
1.00007
1.00009
1.00012
1.00015
1.0002
1.00028
1.00039
1.00056
1.00084
1.00127
1.00193
1.00294
1.00442
1.00654
1.00949
1.01339
1.01823
1.02369
1.02907
1.03349
1.0362
1.03688
1.03558
1.03261
1.02835
1.02319
1.01747
1.01148
1.00549
0.999693
0.994272
0.989357
0.985053
0.981432
0.978533
0.976372
0.974932
0.97417
0.974014
0.974368
0.975118
0.976139
0.977309
0.978515
0.979661
0.980673
0.981503
0.982122
0.982514
0.982678
0.982615
0.982333
0.981834
0.98112
0.980197
0.979074
0.977774
0.97633
0.974793
0.973238
0.971763
0.970492
0.969573
0.969166
0.969419
0.970452
0.972338
0.975113
0.978791
0.98338
0.988882
0.995265
1.00241
1.01006
1.01777
1.02496
1.03095
1.03517
1.03725
1.03714
1.03511
1.03165
1.02733
1.02272
1.01824
1.0142
1.01073
1.0079
1.00566
1.00394
1.00267
1.00175
1.00111
1.00067
1.00047
1.00025
1.00011
1.00003
0.999985
0.999964
0.999957
0.999958
0.999963
0.999969
0.999975
0.999981
0.999986
0.999989
0.999993
0.999995
0.999996
0.999997
0.999998
0.999999
0.999999
0.999999
1
1
1
1
1
0.999999
1
1
1
1
1
1
1
1
1
1
1
1
1
1
1
1
1
1
1
1
1.00001
1.00001
1.00001
1.00001
1.00002
1.00003
1.00004
1.00005
1.00007
1.0001
1.00013
1.00017
1.00022
1.00031
1.00044
1.00065
1.00097
1.00148
1.00227
1.00345
1.00518
1.00764
1.01101
1.01538
1.02063
1.02623
1.03134
1.03503
1.03673
1.03633
1.03403
1.03023
1.02532
1.01968
1.01363
1.00747
1.00143
0.99572
0.990495
0.985883
0.98198
0.978849
0.976522
0.975
0.974249
0.974203
0.974762
0.975798
0.977166
0.978713
0.980301
0.981814
0.983161
0.984284
0.985153
0.985763
0.986123
0.986248
0.986154
0.985854
0.985352
0.984643
0.983718
0.982569
0.981197
0.97962
0.977872
0.976008
0.974116
0.972313
0.970754
0.969616
0.969082
0.969316
0.970436
0.972514
0.97558
0.979646
0.984715
0.990767
0.997717
1.00536
1.01332
1.02104
1.02787
1.03314
1.03635
1.03732
1.03616
1.03329
1.02928
1.02473
1.02013
1.01585
1.01211
1.009
1.00651
1.00458
1.00313
1.00208
1.00133
1.00082
1.00058
1.00032
1.00015
1.00005
0.999999
0.999971
0.99996
0.999959
0.999962
0.999968
0.999974
0.99998
0.999985
0.999989
0.999992
0.999994
0.999996
0.999997
0.999998
0.999999
0.999999
1
1
1
1
1
1
1
1
1
1
1
1
1
1
1
1
1
1
1
1
1
1
1
1
1
1
1
1
1.00001
1.00001
1.00002
1.00002
1.00003
1.00004
1.00006
1.00008
1.0001
1.00014
1.00018
1.00025
1.00035
1.0005
1.00074
1.00113
1.00173
1.00265
1.00403
1.00603
1.00885
1.01266
1.01748
1.02304
1.02861
1.03322
1.03604
1.03671
1.03528
1.03211
1.02759
1.02214
1.01612
1.00984
1.00359
0.997586
0.992031
0.987078
0.982845
0.979418
0.976853
0.975171
0.974357
0.974354
0.975061
0.976341
0.978026
0.979933
0.981891
0.983751
0.985403
0.986776
0.987839
0.988593
0.989065
0.989293
0.989314
0.989161
0.988852
0.988389
0.98776
0.986935
0.985883
0.98458
0.983017
0.981205
0.979183
0.977016
0.974811
0.972714
0.970912
0.969617
0.969035
0.969334
0.970633
0.972994
0.976446
0.980996
0.98663
0.993286
1.0008
1.00886
1.01697
1.02447
1.03067
1.03496
1.03701
1.03679
1.03463
1.03104
1.02664
1.02199
1.01754
1.01355
1.01016
1.00741
1.00526
1.00364
1.00244
1.00158
1.00098
1.00071
1.0004
1.0002
1.00008
1.00002
0.99998
0.999964
0.99996
0.999962
0.999967
0.999973
0.999979
0.999984
0.999988
0.999991
0.999994
0.999996
0.999997
0.999998
0.999999
0.999999
0.999999
1
1
1
1
1
1
1
1
1
1
1
1
1
1
1
1
1
1
1
1
1
1
1