/*--------------------------------*- C++ -*----------------------------------*\
  =========                 |
  \\      /  F ield         | OpenFOAM: The Open Source CFD Toolbox
   \\    /   O peration     | Website:  https://openfoam.org
    \\  /    A nd           | Version:  6
     \\/     M anipulation  |
\*---------------------------------------------------------------------------*/
FoamFile
{
    version     2.0;
    format      ascii;
    class       volVectorField;
    location    "4.37";
    object      U;
}
// * * * * * * * * * * * * * * * * * * * * * * * * * * * * * * * * * * * * * //

dimensions      [0 1 -1 0 0 0 0];

internalField   nonuniform List<vector> 
5625
(
(0.8944 0.4472 0)
(0.8944 0.4472 0)
(0.8944 0.4472 0)
(0.8944 0.4472 0)
(0.8944 0.4472 0)
(0.8944 0.4472 0)
(0.8944 0.4472 0)
(0.8944 0.4472 0)
(0.8944 0.4472 0)
(0.8944 0.4472 0)
(0.8944 0.4472 0)
(0.8944 0.4472 0)
(0.8944 0.4472 0)
(0.8944 0.4472 0)
(0.8944 0.4472 0)
(0.8944 0.4472 0)
(0.8944 0.4472 0)
(0.8944 0.4472 0)
(0.8944 0.4472 0)
(0.8944 0.4472 0)
(0.8944 0.4472 0)
(0.8944 0.4472 0)
(0.8944 0.4472 0)
(0.8944 0.4472 0)
(0.8944 0.4472 0)
(0.8944 0.4472 0)
(0.8944 0.4472 0)
(0.8944 0.4472 0)
(0.8944 0.4472 0)
(0.8944 0.4472 0)
(0.8944 0.4472 0)
(0.8944 0.4472 0)
(0.8944 0.4472 0)
(0.8944 0.4472 0)
(0.8944 0.4472 0)
(0.8944 0.4472 0)
(0.8944 0.4472 0)
(0.8944 0.4472 0)
(0.8944 0.4472 0)
(0.8944 0.4472 0)
(0.8944 0.4472 0)
(0.8944 0.4472 0)
(0.8944 0.4472 0)
(0.8944 0.4472 0)
(0.8944 0.4472 0)
(0.8944 0.4472 0)
(0.8944 0.4472 0)
(0.8944 0.4472 0)
(0.8944 0.4472 0)
(0.8944 0.4472 0)
(0.8944 0.4472 0)
(0.8944 0.4472 0)
(0.8944 0.4472 0)
(0.8944 0.4472 0)
(0.8944 0.4472 0)
(0.8944 0.4472 0)
(0.8944 0.4472 0)
(0.8944 0.4472 0)
(0.894399 0.4472 0)
(0.8944 0.447201 0)
(0.894399 0.447201 0)
(0.894399 0.447201 0)
(0.894399 0.447202 0)
(0.894399 0.447202 0)
(0.894399 0.447203 0)
(0.894399 0.447203 0)
(0.894399 0.447204 0)
(0.894399 0.447205 0)
(0.8944 0.447205 0)
(0.894401 0.447206 0)
(0.894403 0.447206 0)
(0.894405 0.447206 0)
(0.894407 0.447205 0)
(0.89441 0.447205 0)
(0.894413 0.447205 0)
(0.8944 0.447199 0)
(0.8944 0.4472 0)
(0.8944 0.4472 0)
(0.8944 0.4472 0)
(0.8944 0.4472 0)
(0.8944 0.4472 0)
(0.8944 0.4472 0)
(0.8944 0.4472 0)
(0.8944 0.4472 0)
(0.8944 0.4472 0)
(0.8944 0.4472 0)
(0.8944 0.4472 0)
(0.8944 0.4472 0)
(0.8944 0.4472 0)
(0.8944 0.4472 0)
(0.8944 0.4472 0)
(0.8944 0.4472 0)
(0.8944 0.4472 0)
(0.8944 0.4472 0)
(0.8944 0.4472 0)
(0.8944 0.4472 0)
(0.8944 0.4472 0)
(0.8944 0.4472 0)
(0.8944 0.4472 0)
(0.8944 0.4472 0)
(0.8944 0.4472 0)
(0.8944 0.4472 0)
(0.8944 0.4472 0)
(0.8944 0.4472 0)
(0.8944 0.4472 0)
(0.8944 0.4472 0)
(0.8944 0.4472 0)
(0.8944 0.4472 0)
(0.8944 0.4472 0)
(0.8944 0.4472 0)
(0.8944 0.4472 0)
(0.8944 0.4472 0)
(0.8944 0.4472 0)
(0.8944 0.4472 0)
(0.8944 0.4472 0)
(0.8944 0.4472 0)
(0.8944 0.4472 0)
(0.8944 0.4472 0)
(0.8944 0.4472 0)
(0.8944 0.4472 0)
(0.8944 0.4472 0)
(0.8944 0.4472 0)
(0.8944 0.4472 0)
(0.8944 0.4472 0)
(0.8944 0.4472 0)
(0.8944 0.4472 0)
(0.8944 0.4472 0)
(0.8944 0.4472 0)
(0.8944 0.4472 0)
(0.8944 0.4472 0)
(0.8944 0.4472 0)
(0.8944 0.4472 0)
(0.8944 0.447201 0)
(0.894399 0.447201 0)
(0.894399 0.447201 0)
(0.894399 0.447201 0)
(0.894399 0.447202 0)
(0.894398 0.447202 0)
(0.894398 0.447203 0)
(0.894398 0.447204 0)
(0.894398 0.447204 0)
(0.894398 0.447206 0)
(0.894399 0.447206 0)
(0.8944 0.447207 0)
(0.894401 0.447208 0)
(0.894403 0.447208 0)
(0.894405 0.447209 0)
(0.894407 0.447209 0)
(0.89441 0.447209 0)
(0.894412 0.447211 0)
(0.894399 0.447199 0)
(0.894399 0.447199 0)
(0.8944 0.4472 0)
(0.8944 0.4472 0)
(0.8944 0.4472 0)
(0.8944 0.4472 0)
(0.8944 0.4472 0)
(0.8944 0.4472 0)
(0.8944 0.4472 0)
(0.8944 0.4472 0)
(0.8944 0.4472 0)
(0.8944 0.4472 0)
(0.8944 0.4472 0)
(0.8944 0.4472 0)
(0.8944 0.4472 0)
(0.8944 0.4472 0)
(0.8944 0.4472 0)
(0.8944 0.4472 0)
(0.8944 0.4472 0)
(0.8944 0.4472 0)
(0.8944 0.4472 0)
(0.8944 0.4472 0)
(0.8944 0.4472 0)
(0.8944 0.4472 0)
(0.8944 0.4472 0)
(0.8944 0.4472 0)
(0.8944 0.4472 0)
(0.8944 0.4472 0)
(0.8944 0.4472 0)
(0.8944 0.4472 0)
(0.8944 0.4472 0)
(0.8944 0.4472 0)
(0.8944 0.4472 0)
(0.8944 0.4472 0)
(0.8944 0.4472 0)
(0.8944 0.4472 0)
(0.8944 0.4472 0)
(0.8944 0.4472 0)
(0.8944 0.4472 0)
(0.8944 0.4472 0)
(0.8944 0.4472 0)
(0.8944 0.4472 0)
(0.8944 0.4472 0)
(0.8944 0.4472 0)
(0.8944 0.4472 0)
(0.8944 0.4472 0)
(0.8944 0.4472 0)
(0.8944 0.4472 0)
(0.8944 0.4472 0)
(0.8944 0.4472 0)
(0.8944 0.4472 0)
(0.8944 0.4472 0)
(0.8944 0.4472 0)
(0.8944 0.4472 0)
(0.8944 0.4472 0)
(0.8944 0.4472 0)
(0.8944 0.4472 0)
(0.894399 0.447201 0)
(0.894399 0.447201 0)
(0.894399 0.447201 0)
(0.894399 0.447202 0)
(0.894398 0.447202 0)
(0.894398 0.447203 0)
(0.894398 0.447204 0)
(0.894397 0.447205 0)
(0.894397 0.447206 0)
(0.894398 0.447207 0)
(0.894398 0.447208 0)
(0.894399 0.44721 0)
(0.8944 0.44721 0)
(0.894402 0.447212 0)
(0.894404 0.447213 0)
(0.894407 0.447214 0)
(0.894409 0.447216 0)
(0.89441 0.447219 0)
(0.894399 0.447199 0)
(0.894399 0.447199 0)
(0.894399 0.447199 0)
(0.8944 0.4472 0)
(0.8944 0.4472 0)
(0.8944 0.4472 0)
(0.8944 0.4472 0)
(0.8944 0.4472 0)
(0.8944 0.4472 0)
(0.8944 0.4472 0)
(0.8944 0.4472 0)
(0.8944 0.4472 0)
(0.8944 0.4472 0)
(0.8944 0.4472 0)
(0.8944 0.4472 0)
(0.8944 0.4472 0)
(0.8944 0.4472 0)
(0.8944 0.4472 0)
(0.8944 0.4472 0)
(0.8944 0.4472 0)
(0.8944 0.4472 0)
(0.8944 0.4472 0)
(0.8944 0.4472 0)
(0.8944 0.4472 0)
(0.8944 0.4472 0)
(0.8944 0.4472 0)
(0.8944 0.4472 0)
(0.8944 0.4472 0)
(0.8944 0.4472 0)
(0.8944 0.4472 0)
(0.8944 0.4472 0)
(0.8944 0.4472 0)
(0.8944 0.4472 0)
(0.8944 0.4472 0)
(0.8944 0.4472 0)
(0.8944 0.4472 0)
(0.8944 0.4472 0)
(0.8944 0.4472 0)
(0.8944 0.4472 0)
(0.8944 0.4472 0)
(0.8944 0.4472 0)
(0.8944 0.4472 0)
(0.8944 0.4472 0)
(0.8944 0.4472 0)
(0.8944 0.4472 0)
(0.8944 0.4472 0)
(0.8944 0.4472 0)
(0.8944 0.4472 0)
(0.8944 0.4472 0)
(0.8944 0.4472 0)
(0.8944 0.4472 0)
(0.8944 0.4472 0)
(0.8944 0.4472 0)
(0.8944 0.4472 0)
(0.8944 0.4472 0)
(0.8944 0.4472 0)
(0.8944 0.447201 0)
(0.894399 0.447201 0)
(0.894399 0.447201 0)
(0.894398 0.447202 0)
(0.894398 0.447202 0)
(0.894398 0.447203 0)
(0.894397 0.447204 0)
(0.894397 0.447205 0)
(0.894397 0.447206 0)
(0.894396 0.447208 0)
(0.894397 0.447209 0)
(0.894397 0.447211 0)
(0.894398 0.447212 0)
(0.894399 0.447214 0)
(0.894401 0.447216 0)
(0.894403 0.447218 0)
(0.894405 0.447221 0)
(0.894406 0.447225 0)
(0.894405 0.447232 0)
(0.894399 0.447199 0)
(0.894399 0.447199 0)
(0.894399 0.447199 0)
(0.894399 0.447199 0)
(0.8944 0.4472 0)
(0.8944 0.4472 0)
(0.8944 0.4472 0)
(0.8944 0.4472 0)
(0.8944 0.4472 0)
(0.8944 0.4472 0)
(0.8944 0.4472 0)
(0.8944 0.4472 0)
(0.8944 0.4472 0)
(0.8944 0.4472 0)
(0.8944 0.4472 0)
(0.8944 0.4472 0)
(0.8944 0.4472 0)
(0.8944 0.4472 0)
(0.8944 0.4472 0)
(0.8944 0.4472 0)
(0.8944 0.4472 0)
(0.8944 0.4472 0)
(0.8944 0.4472 0)
(0.8944 0.4472 0)
(0.8944 0.4472 0)
(0.8944 0.4472 0)
(0.8944 0.4472 0)
(0.8944 0.4472 0)
(0.8944 0.4472 0)
(0.8944 0.4472 0)
(0.8944 0.4472 0)
(0.8944 0.4472 0)
(0.8944 0.4472 0)
(0.8944 0.4472 0)
(0.8944 0.4472 0)
(0.8944 0.4472 0)
(0.8944 0.4472 0)
(0.8944 0.4472 0)
(0.8944 0.4472 0)
(0.8944 0.4472 0)
(0.8944 0.4472 0)
(0.8944 0.4472 0)
(0.8944 0.4472 0)
(0.8944 0.4472 0)
(0.8944 0.4472 0)
(0.8944 0.4472 0)
(0.8944 0.4472 0)
(0.8944 0.4472 0)
(0.8944 0.4472 0)
(0.8944 0.4472 0)
(0.8944 0.4472 0)
(0.8944 0.4472 0)
(0.8944 0.4472 0)
(0.8944 0.4472 0)
(0.8944 0.447201 0)
(0.894399 0.4472 0)
(0.894399 0.447201 0)
(0.894399 0.447201 0)
(0.894399 0.447202 0)
(0.894398 0.447202 0)
(0.894398 0.447203 0)
(0.894397 0.447204 0)
(0.894396 0.447205 0)
(0.894396 0.447207 0)
(0.894395 0.447208 0)
(0.894395 0.44721 0)
(0.894395 0.447212 0)
(0.894396 0.447214 0)
(0.894397 0.447216 0)
(0.894398 0.447219 0)
(0.894399 0.447222 0)
(0.8944 0.447225 0)
(0.894402 0.447231 0)
(0.8944 0.447238 0)
(0.894397 0.447249 0)
(0.894399 0.447198 0)
(0.894399 0.447199 0)
(0.894399 0.447199 0)
(0.894399 0.447199 0)
(0.8944 0.4472 0)
(0.8944 0.4472 0)
(0.8944 0.4472 0)
(0.8944 0.4472 0)
(0.8944 0.4472 0)
(0.8944 0.4472 0)
(0.8944 0.4472 0)
(0.8944 0.4472 0)
(0.8944 0.4472 0)
(0.8944 0.4472 0)
(0.8944 0.4472 0)
(0.8944 0.4472 0)
(0.8944 0.4472 0)
(0.8944 0.4472 0)
(0.8944 0.4472 0)
(0.8944 0.4472 0)
(0.8944 0.4472 0)
(0.8944 0.4472 0)
(0.8944 0.4472 0)
(0.8944 0.4472 0)
(0.8944 0.4472 0)
(0.8944 0.4472 0)
(0.8944 0.4472 0)
(0.8944 0.4472 0)
(0.8944 0.4472 0)
(0.8944 0.4472 0)
(0.8944 0.4472 0)
(0.8944 0.4472 0)
(0.8944 0.4472 0)
(0.8944 0.4472 0)
(0.8944 0.4472 0)
(0.8944 0.4472 0)
(0.8944 0.4472 0)
(0.8944 0.4472 0)
(0.8944 0.4472 0)
(0.8944 0.4472 0)
(0.8944 0.4472 0)
(0.8944 0.4472 0)
(0.8944 0.4472 0)
(0.8944 0.4472 0)
(0.8944 0.4472 0)
(0.8944 0.4472 0)
(0.8944 0.4472 0)
(0.8944 0.4472 0)
(0.8944 0.4472 0)
(0.8944 0.4472 0)
(0.8944 0.4472 0)
(0.8944 0.4472 0)
(0.8944 0.4472 0)
(0.8944 0.4472 0)
(0.8944 0.447201 0)
(0.894399 0.447201 0)
(0.894399 0.447201 0)
(0.894399 0.447201 0)
(0.894398 0.447202 0)
(0.894397 0.447203 0)
(0.894397 0.447204 0)
(0.894396 0.447205 0)
(0.894395 0.447206 0)
(0.894395 0.447208 0)
(0.894394 0.44721 0)
(0.894393 0.447212 0)
(0.894393 0.447215 0)
(0.894394 0.447218 0)
(0.894394 0.447221 0)
(0.894395 0.447225 0)
(0.894396 0.447229 0)
(0.894396 0.447235 0)
(0.894395 0.447243 0)
(0.894392 0.447255 0)
(0.894384 0.447274 0)
(0.894398 0.447198 0)
(0.894398 0.447198 0)
(0.894399 0.447199 0)
(0.894399 0.447199 0)
(0.894399 0.447199 0)
(0.8944 0.4472 0)
(0.8944 0.4472 0)
(0.8944 0.4472 0)
(0.8944 0.4472 0)
(0.8944 0.4472 0)
(0.8944 0.4472 0)
(0.8944 0.4472 0)
(0.8944 0.4472 0)
(0.8944 0.4472 0)
(0.8944 0.4472 0)
(0.8944 0.4472 0)
(0.8944 0.4472 0)
(0.8944 0.4472 0)
(0.8944 0.4472 0)
(0.8944 0.4472 0)
(0.8944 0.4472 0)
(0.8944 0.4472 0)
(0.8944 0.4472 0)
(0.8944 0.4472 0)
(0.8944 0.4472 0)
(0.8944 0.4472 0)
(0.8944 0.4472 0)
(0.8944 0.4472 0)
(0.8944 0.4472 0)
(0.8944 0.4472 0)
(0.8944 0.4472 0)
(0.8944 0.4472 0)
(0.8944 0.4472 0)
(0.8944 0.4472 0)
(0.8944 0.4472 0)
(0.8944 0.4472 0)
(0.8944 0.4472 0)
(0.8944 0.4472 0)
(0.8944 0.4472 0)
(0.8944 0.4472 0)
(0.8944 0.4472 0)
(0.8944 0.4472 0)
(0.8944 0.4472 0)
(0.8944 0.4472 0)
(0.8944 0.4472 0)
(0.8944 0.4472 0)
(0.8944 0.4472 0)
(0.8944 0.4472 0)
(0.8944 0.4472 0)
(0.8944 0.4472 0)
(0.8944 0.4472 0)
(0.8944 0.4472 0)
(0.8944 0.447201 0)
(0.8944 0.4472 0)
(0.894399 0.447201 0)
(0.894399 0.447201 0)
(0.894399 0.447201 0)
(0.894398 0.447202 0)
(0.894398 0.447202 0)
(0.894397 0.447203 0)
(0.894396 0.447204 0)
(0.894395 0.447206 0)
(0.894394 0.447208 0)
(0.894393 0.44721 0)
(0.894392 0.447212 0)
(0.894392 0.447215 0)
(0.894391 0.447219 0)
(0.894391 0.447222 0)
(0.894391 0.447227 0)
(0.894392 0.447232 0)
(0.894392 0.447238 0)
(0.89439 0.447247 0)
(0.894386 0.44726 0)
(0.894377 0.447279 0)
(0.894362 0.447307 0)
(0.894398 0.447197 0)
(0.894398 0.447198 0)
(0.894399 0.447199 0)
(0.894399 0.447199 0)
(0.894399 0.447199 0)
(0.894399 0.4472 0)
(0.8944 0.4472 0)
(0.8944 0.4472 0)
(0.8944 0.4472 0)
(0.8944 0.4472 0)
(0.8944 0.4472 0)
(0.8944 0.4472 0)
(0.8944 0.4472 0)
(0.8944 0.4472 0)
(0.8944 0.4472 0)
(0.8944 0.4472 0)
(0.8944 0.4472 0)
(0.8944 0.4472 0)
(0.8944 0.4472 0)
(0.8944 0.4472 0)
(0.8944 0.4472 0)
(0.8944 0.4472 0)
(0.8944 0.4472 0)
(0.8944 0.4472 0)
(0.8944 0.4472 0)
(0.8944 0.4472 0)
(0.8944 0.4472 0)
(0.8944 0.4472 0)
(0.8944 0.4472 0)
(0.8944 0.4472 0)
(0.8944 0.4472 0)
(0.8944 0.4472 0)
(0.8944 0.4472 0)
(0.8944 0.4472 0)
(0.8944 0.4472 0)
(0.8944 0.4472 0)
(0.8944 0.4472 0)
(0.8944 0.4472 0)
(0.8944 0.4472 0)
(0.8944 0.4472 0)
(0.8944 0.4472 0)
(0.8944 0.4472 0)
(0.8944 0.4472 0)
(0.8944 0.4472 0)
(0.8944 0.4472 0)
(0.8944 0.4472 0)
(0.8944 0.4472 0)
(0.8944 0.4472 0)
(0.8944 0.4472 0)
(0.8944 0.4472 0)
(0.8944 0.4472 0)
(0.8944 0.4472 0)
(0.8944 0.447201 0)
(0.894399 0.4472 0)
(0.894399 0.447201 0)
(0.894399 0.447201 0)
(0.894398 0.447201 0)
(0.894398 0.447202 0)
(0.894397 0.447203 0)
(0.894396 0.447204 0)
(0.894395 0.447205 0)
(0.894394 0.447207 0)
(0.894393 0.44721 0)
(0.894391 0.447212 0)
(0.89439 0.447215 0)
(0.894389 0.447219 0)
(0.894388 0.447224 0)
(0.894388 0.447228 0)
(0.894387 0.447234 0)
(0.894386 0.447241 0)
(0.894384 0.44725 0)
(0.89438 0.447264 0)
(0.894372 0.447283 0)
(0.894356 0.447311 0)
(0.89433 0.447352 0)
(0.894397 0.447197 0)
(0.894398 0.447198 0)
(0.894398 0.447198 0)
(0.894399 0.447199 0)
(0.894399 0.447199 0)
(0.894399 0.447199 0)
(0.894399 0.4472 0)
(0.8944 0.4472 0)
(0.8944 0.4472 0)
(0.8944 0.4472 0)
(0.8944 0.4472 0)
(0.8944 0.4472 0)
(0.8944 0.4472 0)
(0.8944 0.4472 0)
(0.8944 0.4472 0)
(0.8944 0.4472 0)
(0.8944 0.4472 0)
(0.8944 0.4472 0)
(0.8944 0.4472 0)
(0.8944 0.4472 0)
(0.8944 0.4472 0)
(0.8944 0.4472 0)
(0.8944 0.4472 0)
(0.8944 0.4472 0)
(0.8944 0.4472 0)
(0.8944 0.4472 0)
(0.8944 0.4472 0)
(0.8944 0.4472 0)
(0.8944 0.4472 0)
(0.8944 0.4472 0)
(0.8944 0.4472 0)
(0.8944 0.4472 0)
(0.8944 0.4472 0)
(0.8944 0.4472 0)
(0.8944 0.4472 0)
(0.8944 0.4472 0)
(0.8944 0.4472 0)
(0.8944 0.4472 0)
(0.8944 0.4472 0)
(0.8944 0.4472 0)
(0.8944 0.4472 0)
(0.8944 0.4472 0)
(0.8944 0.4472 0)
(0.8944 0.4472 0)
(0.8944 0.4472 0)
(0.8944 0.4472 0)
(0.8944 0.4472 0)
(0.8944 0.4472 0)
(0.8944 0.4472 0)
(0.8944 0.4472 0)
(0.8944 0.4472 0)
(0.8944 0.4472 0)
(0.8944 0.447201 0)
(0.894399 0.4472 0)
(0.894398 0.447201 0)
(0.894399 0.447201 0)
(0.894398 0.447202 0)
(0.894397 0.447203 0)
(0.894396 0.447203 0)
(0.894395 0.447205 0)
(0.894394 0.447207 0)
(0.894392 0.447209 0)
(0.89439 0.447212 0)
(0.894389 0.447215 0)
(0.894387 0.447219 0)
(0.894386 0.447224 0)
(0.894384 0.447229 0)
(0.894383 0.447235 0)
(0.894382 0.447243 0)
(0.894379 0.447252 0)
(0.894375 0.447265 0)
(0.894366 0.447285 0)
(0.89435 0.447312 0)
(0.894325 0.447353 0)
(0.894285 0.447414 0)
(0.894396 0.447196 0)
(0.894397 0.447197 0)
(0.894398 0.447198 0)
(0.894398 0.447198 0)
(0.894399 0.447199 0)
(0.894399 0.447199 0)
(0.894399 0.447199 0)
(0.8944 0.4472 0)
(0.8944 0.4472 0)
(0.8944 0.4472 0)
(0.8944 0.4472 0)
(0.8944 0.4472 0)
(0.8944 0.4472 0)
(0.8944 0.4472 0)
(0.8944 0.4472 0)
(0.8944 0.4472 0)
(0.8944 0.4472 0)
(0.8944 0.4472 0)
(0.8944 0.4472 0)
(0.8944 0.4472 0)
(0.8944 0.4472 0)
(0.8944 0.4472 0)
(0.8944 0.4472 0)
(0.8944 0.4472 0)
(0.8944 0.4472 0)
(0.8944 0.4472 0)
(0.8944 0.4472 0)
(0.8944 0.4472 0)
(0.8944 0.4472 0)
(0.8944 0.4472 0)
(0.8944 0.4472 0)
(0.8944 0.4472 0)
(0.8944 0.4472 0)
(0.8944 0.4472 0)
(0.8944 0.4472 0)
(0.8944 0.4472 0)
(0.8944 0.4472 0)
(0.8944 0.4472 0)
(0.8944 0.4472 0)
(0.8944 0.4472 0)
(0.8944 0.4472 0)
(0.8944 0.4472 0)
(0.8944 0.4472 0)
(0.8944 0.4472 0)
(0.8944 0.4472 0)
(0.8944 0.4472 0)
(0.8944 0.4472 0)
(0.8944 0.4472 0)
(0.8944 0.4472 0)
(0.8944 0.4472 0)
(0.8944 0.4472 0)
(0.894399 0.4472 0)
(0.894399 0.447201 0)
(0.8944 0.447201 0)
(0.894398 0.447201 0)
(0.894398 0.447202 0)
(0.894397 0.447202 0)
(0.894397 0.447204 0)
(0.894395 0.447204 0)
(0.894393 0.447206 0)
(0.894392 0.447209 0)
(0.89439 0.447211 0)
(0.894388 0.447214 0)
(0.894386 0.447218 0)
(0.894384 0.447223 0)
(0.894382 0.447229 0)
(0.89438 0.447235 0)
(0.894377 0.447243 0)
(0.894374 0.447253 0)
(0.894369 0.447267 0)
(0.89436 0.447285 0)
(0.894346 0.447312 0)
(0.89432 0.447351 0)
(0.89428 0.447409 0)
(0.89422 0.447494 0)
(0.894395 0.447195 0)
(0.894396 0.447196 0)
(0.894397 0.447197 0)
(0.894398 0.447198 0)
(0.894398 0.447199 0)
(0.894399 0.447199 0)
(0.894399 0.447199 0)
(0.894399 0.447199 0)
(0.8944 0.4472 0)
(0.8944 0.4472 0)
(0.8944 0.4472 0)
(0.8944 0.4472 0)
(0.8944 0.4472 0)
(0.8944 0.4472 0)
(0.8944 0.4472 0)
(0.8944 0.4472 0)
(0.8944 0.4472 0)
(0.8944 0.4472 0)
(0.8944 0.4472 0)
(0.8944 0.4472 0)
(0.8944 0.4472 0)
(0.8944 0.4472 0)
(0.8944 0.4472 0)
(0.8944 0.4472 0)
(0.8944 0.4472 0)
(0.8944 0.4472 0)
(0.8944 0.4472 0)
(0.8944 0.4472 0)
(0.8944 0.4472 0)
(0.8944 0.4472 0)
(0.8944 0.4472 0)
(0.8944 0.4472 0)
(0.8944 0.4472 0)
(0.8944 0.4472 0)
(0.8944 0.4472 0)
(0.8944 0.4472 0)
(0.8944 0.4472 0)
(0.8944 0.4472 0)
(0.8944 0.4472 0)
(0.8944 0.4472 0)
(0.8944 0.4472 0)
(0.8944 0.4472 0)
(0.8944 0.4472 0)
(0.8944 0.4472 0)
(0.8944 0.4472 0)
(0.8944 0.4472 0)
(0.8944 0.4472 0)
(0.8944 0.4472 0)
(0.8944 0.4472 0)
(0.8944 0.4472 0)
(0.8944 0.4472 0)
(0.8944 0.4472 0)
(0.894399 0.4472 0)
(0.894399 0.447201 0)
(0.894398 0.447201 0)
(0.894398 0.447202 0)
(0.894396 0.447203 0)
(0.894396 0.447204 0)
(0.894394 0.447205 0)
(0.894392 0.447207 0)
(0.89439 0.44721 0)
(0.894388 0.447213 0)
(0.894385 0.447217 0)
(0.894382 0.447222 0)
(0.89438 0.447228 0)
(0.894377 0.447234 0)
(0.894373 0.447243 0)
(0.894369 0.447253 0)
(0.894364 0.447266 0)
(0.894355 0.447285 0)
(0.894341 0.44731 0)
(0.894316 0.447347 0)
(0.894277 0.447402 0)
(0.894218 0.447483 0)
(0.89413 0.4476 0)
(0.894394 0.447194 0)
(0.894395 0.447196 0)
(0.894396 0.447197 0)
(0.894397 0.447198 0)
(0.894398 0.447198 0)
(0.894399 0.447199 0)
(0.894399 0.447199 0)
(0.894399 0.447199 0)
(0.8944 0.4472 0)
(0.8944 0.4472 0)
(0.8944 0.4472 0)
(0.8944 0.4472 0)
(0.8944 0.4472 0)
(0.8944 0.4472 0)
(0.8944 0.4472 0)
(0.8944 0.4472 0)
(0.8944 0.4472 0)
(0.8944 0.4472 0)
(0.8944 0.4472 0)
(0.8944 0.4472 0)
(0.8944 0.4472 0)
(0.8944 0.4472 0)
(0.8944 0.4472 0)
(0.8944 0.4472 0)
(0.8944 0.4472 0)
(0.8944 0.4472 0)
(0.8944 0.4472 0)
(0.8944 0.4472 0)
(0.8944 0.4472 0)
(0.8944 0.4472 0)
(0.8944 0.4472 0)
(0.8944 0.4472 0)
(0.8944 0.4472 0)
(0.8944 0.4472 0)
(0.8944 0.4472 0)
(0.8944 0.4472 0)
(0.8944 0.4472 0)
(0.8944 0.4472 0)
(0.8944 0.4472 0)
(0.8944 0.4472 0)
(0.8944 0.4472 0)
(0.8944 0.4472 0)
(0.8944 0.4472 0)
(0.8944 0.4472 0)
(0.8944 0.4472 0)
(0.8944 0.447199 0)
(0.8944 0.4472 0)
(0.8944 0.4472 0)
(0.8944 0.4472 0)
(0.8944 0.4472 0)
(0.8944 0.447201 0)
(0.894399 0.4472 0)
(0.894399 0.447201 0)
(0.894399 0.447201 0)
(0.894398 0.447202 0)
(0.894397 0.447202 0)
(0.894396 0.447203 0)
(0.894395 0.447205 0)
(0.894392 0.447206 0)
(0.89439 0.447209 0)
(0.894388 0.447212 0)
(0.894385 0.447216 0)
(0.894381 0.44722 0)
(0.894378 0.447226 0)
(0.894374 0.447233 0)
(0.894371 0.447242 0)
(0.894366 0.447252 0)
(0.894359 0.447265 0)
(0.894351 0.447282 0)
(0.894336 0.447307 0)
(0.894314 0.447342 0)
(0.894276 0.447393 0)
(0.894218 0.447467 0)
(0.894132 0.447578 0)
(0.894006 0.447738 0)
(0.894393 0.447193 0)
(0.894394 0.447195 0)
(0.894396 0.447196 0)
(0.894397 0.447197 0)
(0.894398 0.447198 0)
(0.894398 0.447199 0)
(0.894399 0.447199 0)
(0.894399 0.447199 0)
(0.894399 0.4472 0)
(0.8944 0.4472 0)
(0.8944 0.4472 0)
(0.8944 0.4472 0)
(0.8944 0.4472 0)
(0.8944 0.4472 0)
(0.8944 0.4472 0)
(0.8944 0.4472 0)
(0.8944 0.4472 0)
(0.8944 0.4472 0)
(0.8944 0.4472 0)
(0.8944 0.4472 0)
(0.8944 0.4472 0)
(0.8944 0.4472 0)
(0.8944 0.4472 0)
(0.8944 0.4472 0)
(0.8944 0.4472 0)
(0.8944 0.4472 0)
(0.8944 0.4472 0)
(0.8944 0.4472 0)
(0.8944 0.4472 0)
(0.8944 0.4472 0)
(0.8944 0.4472 0)
(0.8944 0.4472 0)
(0.8944 0.4472 0)
(0.8944 0.4472 0)
(0.8944 0.4472 0)
(0.8944 0.4472 0)
(0.8944 0.4472 0)
(0.8944 0.4472 0)
(0.8944 0.4472 0)
(0.8944 0.4472 0)
(0.8944 0.4472 0)
(0.8944 0.4472 0)
(0.8944 0.4472 0)
(0.8944 0.4472 0)
(0.8944 0.4472 0)
(0.8944 0.4472 0)
(0.8944 0.4472 0)
(0.8944 0.4472 0)
(0.8944 0.4472 0)
(0.8944 0.4472 0)
(0.8944 0.4472 0)
(0.894399 0.447201 0)
(0.894399 0.447201 0)
(0.894398 0.447201 0)
(0.894398 0.447202 0)
(0.894396 0.447203 0)
(0.894395 0.447204 0)
(0.894393 0.447206 0)
(0.894391 0.447208 0)
(0.894388 0.447211 0)
(0.894385 0.447214 0)
(0.894381 0.447219 0)
(0.894377 0.447224 0)
(0.894373 0.447231 0)
(0.894368 0.447239 0)
(0.894363 0.44725 0)
(0.894356 0.447263 0)
(0.894347 0.447279 0)
(0.894333 0.447301 0)
(0.894311 0.447334 0)
(0.894276 0.447381 0)
(0.894222 0.44745 0)
(0.894138 0.447552 0)
(0.894016 0.447701 0)
(0.89384 0.447914 0)
(0.894391 0.447192 0)
(0.894393 0.447194 0)
(0.894395 0.447195 0)
(0.894396 0.447197 0)
(0.894397 0.447198 0)
(0.894398 0.447198 0)
(0.894398 0.447199 0)
(0.894399 0.447199 0)
(0.894399 0.447199 0)
(0.8944 0.4472 0)
(0.8944 0.4472 0)
(0.8944 0.4472 0)
(0.8944 0.4472 0)
(0.8944 0.4472 0)
(0.8944 0.4472 0)
(0.8944 0.4472 0)
(0.8944 0.4472 0)
(0.8944 0.4472 0)
(0.8944 0.4472 0)
(0.8944 0.4472 0)
(0.8944 0.4472 0)
(0.8944 0.4472 0)
(0.8944 0.4472 0)
(0.8944 0.4472 0)
(0.8944 0.4472 0)
(0.8944 0.4472 0)
(0.8944 0.4472 0)
(0.8944 0.4472 0)
(0.8944 0.4472 0)
(0.8944 0.4472 0)
(0.8944 0.4472 0)
(0.8944 0.4472 0)
(0.8944 0.4472 0)
(0.8944 0.4472 0)
(0.8944 0.4472 0)
(0.8944 0.4472 0)
(0.8944 0.4472 0)
(0.8944 0.4472 0)
(0.8944 0.4472 0)
(0.8944 0.4472 0)
(0.8944 0.4472 0)
(0.8944 0.4472 0)
(0.8944 0.4472 0)
(0.8944 0.4472 0)
(0.8944 0.4472 0)
(0.8944 0.4472 0)
(0.8944 0.4472 0)
(0.8944 0.4472 0)
(0.8944 0.4472 0)
(0.8944 0.4472 0)
(0.894399 0.4472 0)
(0.894399 0.447201 0)
(0.894399 0.447201 0)
(0.894398 0.447201 0)
(0.894397 0.447202 0)
(0.894395 0.447203 0)
(0.894394 0.447205 0)
(0.894391 0.447207 0)
(0.894389 0.44721 0)
(0.894386 0.447213 0)
(0.894381 0.447217 0)
(0.894377 0.447222 0)
(0.894373 0.447229 0)
(0.894367 0.447237 0)
(0.894361 0.447246 0)
(0.894353 0.447259 0)
(0.894344 0.447275 0)
(0.89433 0.447296 0)
(0.894309 0.447325 0)
(0.894277 0.447368 0)
(0.894227 0.447431 0)
(0.894148 0.447523 0)
(0.894031 0.447659 0)
(0.893861 0.447856 0)
(0.89362 0.448137 0)
(0.894389 0.44719 0)
(0.894392 0.447193 0)
(0.894393 0.447195 0)
(0.894395 0.447196 0)
(0.894396 0.447197 0)
(0.894397 0.447198 0)
(0.894398 0.447199 0)
(0.894399 0.447199 0)
(0.894399 0.447199 0)
(0.894399 0.4472 0)
(0.8944 0.4472 0)
(0.8944 0.4472 0)
(0.8944 0.4472 0)
(0.8944 0.4472 0)
(0.8944 0.4472 0)
(0.8944 0.4472 0)
(0.8944 0.4472 0)
(0.8944 0.4472 0)
(0.8944 0.4472 0)
(0.8944 0.4472 0)
(0.8944 0.4472 0)
(0.8944 0.4472 0)
(0.8944 0.4472 0)
(0.8944 0.4472 0)
(0.8944 0.4472 0)
(0.8944 0.4472 0)
(0.8944 0.4472 0)
(0.8944 0.4472 0)
(0.8944 0.4472 0)
(0.8944 0.4472 0)
(0.8944 0.4472 0)
(0.8944 0.4472 0)
(0.8944 0.4472 0)
(0.8944 0.4472 0)
(0.8944 0.4472 0)
(0.8944 0.4472 0)
(0.8944 0.4472 0)
(0.8944 0.4472 0)
(0.8944 0.4472 0)
(0.8944 0.4472 0)
(0.8944 0.4472 0)
(0.8944 0.4472 0)
(0.8944 0.4472 0)
(0.8944 0.4472 0)
(0.8944 0.4472 0)
(0.8944 0.4472 0)
(0.8944 0.4472 0)
(0.8944 0.4472 0)
(0.894399 0.4472 0)
(0.8944 0.4472 0)
(0.894399 0.4472 0)
(0.894399 0.447201 0)
(0.894398 0.447201 0)
(0.894397 0.447202 0)
(0.894396 0.447203 0)
(0.894394 0.447204 0)
(0.894392 0.447206 0)
(0.894389 0.447208 0)
(0.894386 0.447211 0)
(0.894383 0.447215 0)
(0.894377 0.44722 0)
(0.894372 0.447226 0)
(0.894367 0.447234 0)
(0.89436 0.447243 0)
(0.894352 0.447255 0)
(0.894341 0.44727 0)
(0.894328 0.447289 0)
(0.894309 0.447317 0)
(0.894279 0.447355 0)
(0.894232 0.44741 0)
(0.89416 0.447493 0)
(0.894051 0.447615 0)
(0.893889 0.447794 0)
(0.893657 0.448052 0)
(0.893334 0.448417 0)
(0.894387 0.447189 0)
(0.89439 0.447192 0)
(0.894392 0.447194 0)
(0.894394 0.447196 0)
(0.894396 0.447197 0)
(0.894397 0.447198 0)
(0.894398 0.447198 0)
(0.894398 0.447199 0)
(0.894399 0.447199 0)
(0.894399 0.4472 0)
(0.894399 0.4472 0)
(0.8944 0.4472 0)
(0.8944 0.4472 0)
(0.8944 0.4472 0)
(0.8944 0.4472 0)
(0.8944 0.4472 0)
(0.8944 0.4472 0)
(0.8944 0.4472 0)
(0.8944 0.4472 0)
(0.8944 0.4472 0)
(0.8944 0.4472 0)
(0.8944 0.4472 0)
(0.8944 0.4472 0)
(0.8944 0.4472 0)
(0.8944 0.4472 0)
(0.8944 0.4472 0)
(0.8944 0.4472 0)
(0.8944 0.4472 0)
(0.8944 0.4472 0)
(0.8944 0.4472 0)
(0.8944 0.4472 0)
(0.8944 0.4472 0)
(0.8944 0.4472 0)
(0.8944 0.4472 0)
(0.8944 0.4472 0)
(0.8944 0.4472 0)
(0.8944 0.4472 0)
(0.8944 0.4472 0)
(0.8944 0.4472 0)
(0.8944 0.4472 0)
(0.8944 0.4472 0)
(0.8944 0.4472 0)
(0.8944 0.4472 0)
(0.8944 0.4472 0)
(0.8944 0.4472 0)
(0.8944 0.4472 0)
(0.8944 0.4472 0)
(0.8944 0.4472 0)
(0.894399 0.4472 0)
(0.8944 0.4472 0)
(0.894399 0.4472 0)
(0.894398 0.447201 0)
(0.894398 0.447202 0)
(0.894397 0.447202 0)
(0.894395 0.447203 0)
(0.894393 0.447205 0)
(0.894391 0.447207 0)
(0.894387 0.447209 0)
(0.894383 0.447213 0)
(0.894379 0.447218 0)
(0.894373 0.447223 0)
(0.894367 0.44723 0)
(0.894359 0.447239 0)
(0.894351 0.44725 0)
(0.894341 0.447264 0)
(0.894327 0.447282 0)
(0.894308 0.447306 0)
(0.894282 0.447341 0)
(0.894239 0.44739 0)
(0.894173 0.447463 0)
(0.894073 0.447569 0)
(0.893922 0.447729 0)
(0.893703 0.447961 0)
(0.893393 0.448295 0)
(0.892966 0.448764 0)
(0.894385 0.447187 0)
(0.894388 0.44719 0)
(0.894391 0.447193 0)
(0.894393 0.447195 0)
(0.894395 0.447196 0)
(0.894396 0.447197 0)
(0.894397 0.447198 0)
(0.894398 0.447199 0)
(0.894399 0.447199 0)
(0.894399 0.447199 0)
(0.894399 0.4472 0)
(0.8944 0.4472 0)
(0.8944 0.4472 0)
(0.8944 0.4472 0)
(0.8944 0.4472 0)
(0.8944 0.4472 0)
(0.8944 0.4472 0)
(0.8944 0.4472 0)
(0.8944 0.4472 0)
(0.8944 0.4472 0)
(0.8944 0.4472 0)
(0.8944 0.4472 0)
(0.8944 0.4472 0)
(0.8944 0.4472 0)
(0.8944 0.4472 0)
(0.8944 0.4472 0)
(0.8944 0.4472 0)
(0.8944 0.4472 0)
(0.8944 0.4472 0)
(0.8944 0.4472 0)
(0.8944 0.4472 0)
(0.8944 0.4472 0)
(0.8944 0.4472 0)
(0.8944 0.4472 0)
(0.8944 0.4472 0)
(0.8944 0.4472 0)
(0.8944 0.4472 0)
(0.8944 0.4472 0)
(0.8944 0.4472 0)
(0.8944 0.4472 0)
(0.8944 0.4472 0)
(0.8944 0.4472 0)
(0.8944 0.4472 0)
(0.8944 0.4472 0)
(0.8944 0.4472 0)
(0.8944 0.4472 0)
(0.8944 0.4472 0)
(0.8944 0.4472 0)
(0.894399 0.4472 0)
(0.894399 0.447201 0)
(0.894399 0.447201 0)
(0.894398 0.447201 0)
(0.894397 0.447202 0)
(0.894396 0.447203 0)
(0.894394 0.447204 0)
(0.894392 0.447206 0)
(0.894389 0.447208 0)
(0.894385 0.447211 0)
(0.89438 0.447215 0)
(0.894374 0.44722 0)
(0.894368 0.447227 0)
(0.894361 0.447235 0)
(0.894351 0.447245 0)
(0.894341 0.447258 0)
(0.894328 0.447274 0)
(0.89431 0.447296 0)
(0.894284 0.447326 0)
(0.894246 0.447369 0)
(0.894188 0.447432 0)
(0.894097 0.447526 0)
(0.89396 0.447664 0)
(0.893756 0.44787 0)
(0.893464 0.448168 0)
(0.893054 0.448594 0)
(0.892499 0.44919 0)
(0.894382 0.447186 0)
(0.894386 0.447189 0)
(0.894389 0.447192 0)
(0.894391 0.447194 0)
(0.894394 0.447196 0)
(0.894395 0.447197 0)
(0.894397 0.447198 0)
(0.894398 0.447199 0)
(0.894398 0.447199 0)
(0.894399 0.447199 0)
(0.894399 0.447199 0)
(0.8944 0.4472 0)
(0.8944 0.4472 0)
(0.8944 0.4472 0)
(0.8944 0.4472 0)
(0.8944 0.4472 0)
(0.8944 0.4472 0)
(0.8944 0.4472 0)
(0.8944 0.4472 0)
(0.8944 0.4472 0)
(0.8944 0.4472 0)
(0.8944 0.4472 0)
(0.8944 0.4472 0)
(0.8944 0.4472 0)
(0.8944 0.4472 0)
(0.8944 0.4472 0)
(0.8944 0.4472 0)
(0.8944 0.4472 0)
(0.8944 0.4472 0)
(0.8944 0.4472 0)
(0.8944 0.4472 0)
(0.8944 0.4472 0)
(0.8944 0.4472 0)
(0.8944 0.4472 0)
(0.8944 0.4472 0)
(0.8944 0.4472 0)
(0.8944 0.4472 0)
(0.8944 0.4472 0)
(0.8944 0.4472 0)
(0.8944 0.4472 0)
(0.8944 0.4472 0)
(0.8944 0.4472 0)
(0.8944 0.4472 0)
(0.8944 0.4472 0)
(0.8944 0.4472 0)
(0.8944 0.4472 0)
(0.8944 0.4472 0)
(0.8944 0.4472 0)
(0.894399 0.4472 0)
(0.894399 0.447201 0)
(0.894399 0.447201 0)
(0.894397 0.447201 0)
(0.894396 0.447202 0)
(0.894395 0.447203 0)
(0.894393 0.447205 0)
(0.89439 0.447206 0)
(0.894387 0.447208 0)
(0.894382 0.447213 0)
(0.894376 0.447217 0)
(0.89437 0.447223 0)
(0.894362 0.44723 0)
(0.894353 0.44724 0)
(0.894342 0.447251 0)
(0.894329 0.447266 0)
(0.894312 0.447286 0)
(0.894288 0.447312 0)
(0.894254 0.44735 0)
(0.894202 0.447404 0)
(0.894122 0.447483 0)
(0.893999 0.447604 0)
(0.893815 0.447781 0)
(0.893544 0.448043 0)
(0.893159 0.448421 0)
(0.892626 0.448959 0)
(0.891912 0.449703 0)
(0.894379 0.447184 0)
(0.894383 0.447188 0)
(0.894387 0.447191 0)
(0.89439 0.447193 0)
(0.894392 0.447195 0)
(0.894395 0.447196 0)
(0.894396 0.447198 0)
(0.894397 0.447198 0)
(0.894398 0.447199 0)
(0.894399 0.447199 0)
(0.894399 0.447199 0)
(0.894399 0.4472 0)
(0.8944 0.4472 0)
(0.8944 0.4472 0)
(0.8944 0.4472 0)
(0.8944 0.4472 0)
(0.8944 0.4472 0)
(0.8944 0.4472 0)
(0.8944 0.4472 0)
(0.8944 0.4472 0)
(0.8944 0.4472 0)
(0.8944 0.4472 0)
(0.8944 0.4472 0)
(0.8944 0.4472 0)
(0.8944 0.4472 0)
(0.8944 0.4472 0)
(0.8944 0.4472 0)
(0.8944 0.4472 0)
(0.8944 0.4472 0)
(0.8944 0.4472 0)
(0.8944 0.4472 0)
(0.8944 0.4472 0)
(0.8944 0.4472 0)
(0.8944 0.4472 0)
(0.8944 0.4472 0)
(0.8944 0.4472 0)
(0.8944 0.4472 0)
(0.8944 0.4472 0)
(0.8944 0.4472 0)
(0.8944 0.4472 0)
(0.8944 0.4472 0)
(0.8944 0.4472 0)
(0.8944 0.4472 0)
(0.8944 0.4472 0)
(0.8944 0.4472 0)
(0.8944 0.4472 0)
(0.8944 0.4472 0)
(0.8944 0.4472 0)
(0.894399 0.4472 0)
(0.894399 0.447201 0)
(0.894398 0.447201 0)
(0.894397 0.447201 0)
(0.894396 0.447202 0)
(0.894394 0.447203 0)
(0.894392 0.447205 0)
(0.894388 0.447207 0)
(0.894384 0.44721 0)
(0.894379 0.447214 0)
(0.894372 0.44722 0)
(0.894365 0.447226 0)
(0.894355 0.447234 0)
(0.894345 0.447245 0)
(0.894331 0.447258 0)
(0.894314 0.447276 0)
(0.894293 0.447298 0)
(0.894262 0.447331 0)
(0.894217 0.447377 0)
(0.894146 0.447445 0)
(0.894038 0.447545 0)
(0.893874 0.447697 0)
(0.89363 0.447922 0)
(0.893276 0.448253 0)
(0.892776 0.448728 0)
(0.892092 0.449397 0)
(0.891186 0.450316 0)
(0.894376 0.447183 0)
(0.894381 0.447187 0)
(0.894385 0.44719 0)
(0.894388 0.447192 0)
(0.894391 0.447194 0)
(0.894393 0.447196 0)
(0.894395 0.447197 0)
(0.894397 0.447198 0)
(0.894398 0.447199 0)
(0.894398 0.447199 0)
(0.894399 0.447199 0)
(0.894399 0.4472 0)
(0.8944 0.4472 0)
(0.8944 0.4472 0)
(0.8944 0.4472 0)
(0.8944 0.4472 0)
(0.8944 0.4472 0)
(0.8944 0.4472 0)
(0.8944 0.4472 0)
(0.8944 0.4472 0)
(0.8944 0.4472 0)
(0.8944 0.4472 0)
(0.8944 0.4472 0)
(0.8944 0.4472 0)
(0.8944 0.4472 0)
(0.8944 0.4472 0)
(0.8944 0.4472 0)
(0.8944 0.4472 0)
(0.8944 0.4472 0)
(0.8944 0.4472 0)
(0.8944 0.4472 0)
(0.8944 0.4472 0)
(0.8944 0.4472 0)
(0.8944 0.4472 0)
(0.8944 0.4472 0)
(0.8944 0.4472 0)
(0.8944 0.4472 0)
(0.8944 0.4472 0)
(0.8944 0.4472 0)
(0.8944 0.4472 0)
(0.8944 0.4472 0)
(0.8944 0.4472 0)
(0.8944 0.4472 0)
(0.8944 0.4472 0)
(0.8944 0.4472 0)
(0.894399 0.4472 0)
(0.8944 0.4472 0)
(0.8944 0.4472 0)
(0.894399 0.4472 0)
(0.894399 0.447201 0)
(0.894398 0.447201 0)
(0.894397 0.447202 0)
(0.894395 0.447203 0)
(0.894393 0.447204 0)
(0.89439 0.447205 0)
(0.894386 0.447209 0)
(0.894381 0.447211 0)
(0.894375 0.447216 0)
(0.894368 0.447222 0)
(0.894359 0.44723 0)
(0.894348 0.447238 0)
(0.894335 0.44725 0)
(0.894319 0.447266 0)
(0.894298 0.447286 0)
(0.89427 0.447313 0)
(0.89423 0.447352 0)
(0.894169 0.447409 0)
(0.894076 0.447493 0)
(0.893932 0.44762 0)
(0.893716 0.447809 0)
(0.893398 0.448092 0)
(0.89294 0.448504 0)
(0.892301 0.449093 0)
(0.891434 0.449916 0)
(0.890299 0.451037 0)
(0.894373 0.447181 0)
(0.894378 0.447185 0)