/*--------------------------------*- C++ -*----------------------------------*\
  =========                 |
  \\      /  F ield         | OpenFOAM: The Open Source CFD Toolbox
   \\    /   O peration     | Website:  https://openfoam.org
    \\  /    A nd           | Version:  6
     \\/     M anipulation  |
\*---------------------------------------------------------------------------*/
FoamFile
{
    version     2.0;
    format      ascii;
    class       volScalarField;
    location    "3.99";
    object      rho;
}
// * * * * * * * * * * * * * * * * * * * * * * * * * * * * * * * * * * * * * //

dimensions      [1 -3 0 0 0 0 0];

internalField   nonuniform List<scalar> 
5625
(
1.45014
1.4433
1.43456
1.42463
1.41417
1.40371
1.39371
1.38453
1.37647
1.36972
1.36445
1.36076
1.35863
1.3579
1.35823
1.35913
1.36011
1.3608
1.36093
1.36029
1.35869
1.3562
1.35334
1.35058
1.34794
1.34573
1.34464
1.34491
1.34602
1.34746
1.3492
1.35118
1.353
1.35434
1.35514
1.35542
1.35514
1.35447
1.35392
1.35412
1.35549
1.35807
1.36177
1.36659
1.37272
1.38048
1.39006
1.40131
1.41362
1.42594
1.43699
1.4455
1.4506
1.452
1.45001
1.44543
1.43927
1.43251
1.42592
1.42
1.41501
1.41099
1.40789
1.40556
1.40387
1.40267
1.40183
1.40126
1.40086
1.4006
1.40042
1.40029
1.40021
1.40015
1.40011
1.45214
1.44636
1.43844
1.42912
1.41906
1.40879
1.39878
1.38943
1.38103
1.37379
1.36789
1.36345
1.3605
1.35893
1.3585
1.35894
1.35994
1.36113
1.36209
1.36254
1.36238
1.36168
1.36062
1.35931
1.35784
1.35658
1.35593
1.35576
1.35569
1.35569
1.35596
1.35638
1.35663
1.35655
1.35624
1.35574
1.35506
1.35439
1.35424
1.35508
1.35717
1.36046
1.3648
1.37024
1.37699
1.38533
1.39536
1.40683
1.41899
1.43073
1.44078
1.44801
1.45172
1.45183
1.44882
1.44359
1.43713
1.43036
1.42396
1.41833
1.41366
1.40995
1.40711
1.405
1.40348
1.4024
1.40165
1.40114
1.40079
1.40055
1.40039
1.40027
1.4002
1.40014
1.4001
1.45372
1.44914
1.44219
1.4336
1.42404
1.41407
1.40416
1.39472
1.38605
1.37839
1.37194
1.36684
1.36309
1.36063
1.35939
1.35923
1.35987
1.36085
1.3619
1.36287
1.36362
1.36398
1.36394
1.36354
1.36291
1.36228
1.36174
1.36113
1.36038
1.35968
1.35918
1.3587
1.35803
1.35722
1.35642
1.35567
1.35501
1.3547
1.35516
1.35676
1.35959
1.36355
1.3685
1.37452
1.38185
1.39071
1.40111
1.41264
1.42447
1.43543
1.44431
1.45012
1.45238
1.45121
1.44726
1.44147
1.43482
1.42812
1.42197
1.41667
1.41233
1.40894
1.40636
1.40447
1.4031
1.40215
1.40148
1.40102
1.40071
1.4005
1.40035
1.40025
1.40018
1.40013
1.4001
1.4548
1.45154
1.4457
1.43797
1.42904
1.41947
1.40978
1.40036
1.39151
1.38352
1.37661
1.37089
1.36639
1.36313
1.36112
1.36022
1.36011
1.36053
1.36139
1.36249
1.36348
1.36418
1.36461
1.36475
1.36461
1.36428
1.36375
1.36294
1.36196
1.36104
1.36021
1.35926
1.35818
1.35716
1.35633
1.35572
1.35539
1.35564
1.35685
1.35923
1.36279
1.36736
1.37287
1.37943
1.38729
1.39659
1.40722
1.41865
1.42994
1.43992
1.44744
1.45172
1.45251
1.45012
1.44534
1.43911
1.43236
1.42583
1.41997
1.41503
1.41105
1.40797
1.40565
1.40396
1.40275
1.4019
1.40132
1.40092
1.40064
1.40045
1.40032
1.40023
1.40017
1.40013
1.40009
1.45527
1.45344
1.44884
1.44213
1.43396
1.42493
1.41556
1.40626
1.39736
1.38915
1.38186
1.37559
1.37043
1.36647
1.3637
1.36195
1.36101
1.36084
1.3613
1.36204
1.36275
1.36342
1.36402
1.36437
1.3644
1.36417
1.36367
1.36287
1.36193
1.36103
1.36009
1.35902
1.35793
1.35705
1.35649
1.35626
1.35647
1.35742
1.35941
1.36256
1.36677
1.37189
1.3779
1.38496
1.39327
1.40291
1.41363
1.42475
1.43527
1.44404
1.45005
1.45273
1.45206
1.44855
1.44305
1.43652
1.4298
1.4235
1.418
1.41344
1.40982
1.40705
1.40499
1.40349
1.40242
1.40168
1.40117
1.40082
1.40058
1.40041
1.4003
1.40021
1.40016
1.40012
1.40009
1.45504
1.45472
1.45151
1.44596
1.4387
1.43035
1.42143
1.41237
1.40353
1.39522
1.38764
1.38093
1.37523
1.37065
1.36713
1.36454
1.36286
1.36205
1.36185
1.36194
1.36224
1.36275
1.36323
1.36347
1.36346
1.36327
1.36282
1.36213
1.36135
1.36056
1.35968
1.35873
1.3579
1.35741
1.3573
1.3576
1.35845
1.36014
1.3629
1.36674
1.37152
1.37712
1.38358
1.39107
1.39976
1.4096
1.42021
1.43079
1.4403
1.44765
1.45202
1.45306
1.451
1.44649
1.44044
1.43375
1.42716
1.42118
1.41607
1.41191
1.40865
1.40618
1.40436
1.40305
1.40212
1.40148
1.40103
1.40072
1.40051
1.40037
1.40027
1.4002
1.40015
1.40011
1.40008
1.45402
1.45527
1.45356
1.44931
1.44313
1.43561
1.42728
1.4186
1.40994
1.40163
1.39388
1.38687
1.38075
1.3756
1.37139
1.3681
1.36574
1.36421
1.36323
1.3627
1.36259
1.36272
1.36282
1.3628
1.36273
1.36254
1.36212
1.36155
1.36095
1.36033
1.35963
1.35898
1.35859
1.3586
1.35902
1.3599
1.36143
1.36386
1.36732
1.37175
1.377
1.38301
1.38985
1.3977
1.40665
1.41654
1.42681
1.4366
1.44484
1.45059
1.45322
1.45266
1.44932
1.44398
1.43755
1.43085
1.42451
1.41891
1.41422
1.41046
1.40756
1.40538
1.40379
1.40265
1.40185
1.40129
1.4009
1.40064
1.40046
1.40033
1.40024
1.40018
1.40013
1.4001
1.40007
1.45218
1.45498
1.45484
1.45205
1.4471
1.44057
1.43298
1.42482
1.4165
1.40832
1.40052
1.39333
1.38689
1.38128
1.3765
1.37262
1.36963
1.36737
1.36571
1.36461
1.36398
1.36358
1.36325
1.36301
1.36283
1.36256
1.36214
1.36169
1.36128
1.36085
1.36042
1.36017
1.36029
1.36083
1.36178
1.36326
1.36546
1.36858
1.37264
1.37754
1.38317
1.3895
1.39666
1.40478
1.41386
1.42357
1.43325
1.44196
1.44871
1.45269
1.45357
1.45149
1.44705
1.44108
1.43445
1.42788
1.42188
1.4167
1.41246
1.40911
1.40655
1.40465
1.40327
1.40228
1.4016
1.40112
1.40079
1.40056
1.40041
1.4003
1.40022
1.40016
1.40012
1.40009
1.40007
1.4495
1.45375
1.45525
1.45402
1.45046
1.44508
1.4384
1.43093
1.42307
1.41515
1.40745
1.40021
1.39358
1.38761
1.38242
1.37806
1.37449
1.37158
1.36933
1.36768
1.3665
1.36559
1.3649
1.36442
1.36405
1.36364
1.36322
1.36289
1.36265
1.36244
1.36234
1.36253
1.36314
1.36418
1.36566
1.36771
1.37053
1.37423
1.37877
1.38404
1.38994
1.39653
1.40393
1.41221
1.42122
1.43051
1.43931
1.44667
1.45171
1.45385
1.45301
1.44957
1.44424
1.43786
1.43121
1.4249
1.41931
1.4146
1.41081
1.40785
1.40562
1.40398
1.4028
1.40196
1.40137
1.40097
1.40069
1.40049
1.40036
1.40026
1.4002
1.40015
1.40011
1.40008
1.40006
1.44604
1.45158
1.45465
1.45507
1.45303
1.44897
1.44338
1.43675
1.42951
1.42201
1.41456
1.4074
1.40068
1.39452
1.38904
1.38429
1.38022
1.37681
1.37407
1.37193
1.37022
1.36886
1.36786
1.36712
1.36651
1.36597
1.36558
1.36535
1.36525
1.36526
1.36551
1.36614
1.36719
1.36867
1.37063
1.37321
1.37656
1.38073
1.38562
1.39114
1.39725
1.40402
1.41155
1.41983
1.42855
1.43714
1.44475
1.45049
1.45367
1.45396
1.45154
1.44695
1.44097
1.4344
1.42791
1.42198
1.41685
1.41263
1.40928
1.40671
1.40479
1.40338
1.40238
1.40167
1.40117
1.40083
1.4006
1.40043
1.40032
1.40024
1.40018
1.40013
1.4001
1.40008
1.40006
1.44192
1.44847
1.453
1.45506
1.45464
1.45205
1.44771
1.44211
1.43566
1.42875
1.4217
1.41475
1.40808
1.40187
1.39624
1.3912
1.38677
1.38299
1.37985
1.37725
1.3751
1.37339
1.37209
1.37108
1.37025
1.36964
1.36928
1.36913
1.36914
1.36938
1.36996
1.37097
1.3724
1.37426
1.37664
1.37968
1.38346
1.38795
1.39308
1.39875
1.40498
1.41184
1.41938
1.42744
1.4356
1.44316
1.44928
1.4532
1.45446
1.453
1.44919
1.44372
1.43735
1.43081
1.42463
1.41915
1.41454
1.41081
1.40789
1.40568
1.40404
1.40285
1.402
1.40141
1.401
1.40071
1.40051
1.40038
1.40028
1.40021
1.40016
1.40012
1.40009
1.40007
1.40005
1.43732
1.44452
1.45026
1.45388
1.45514
1.45414
1.45122
1.44681
1.44133
1.43518
1.42869
1.42209
1.41565
1.40954
1.40386
1.39866
1.39401
1.38997
1.38651
1.38355
1.38108
1.37909
1.37752
1.37626
1.37528
1.37462
1.37427
1.37416
1.3743
1.37475
1.37562
1.37693
1.37866
1.38085
1.38358
1.38697
1.39106
1.39576
1.401
1.40673
1.413
1.41985
1.42721
1.4348
1.44206
1.44827
1.45265
1.45464
1.45401
1.45097
1.44607
1.44001
1.43352
1.42719
1.42144
1.41649
1.4124
1.40915
1.40664
1.40476
1.40338
1.40238
1.40168
1.40119
1.40085
1.40061
1.40044
1.40033
1.40024
1.40018
1.40014
1.40011
1.40008
1.40006
1.40005
1.43248
1.43989
1.44652
1.45152
1.4544
1.45506
1.45369
1.45064
1.44631
1.44108
1.4353
1.42926
1.42321
1.41732
1.41171
1.4065
1.40179
1.39759
1.3939
1.3907
1.38801
1.38581
1.384
1.38255
1.38148
1.38079
1.38043
1.38035
1.3806
1.38126
1.38235
1.38388
1.38584
1.38828
1.3913
1.39495
1.39921
1.404
1.40926
1.41496
1.42116
1.42782
1.43477
1.44158
1.44762
1.45218
1.45464
1.45468
1.45233
1.44799
1.44231
1.43597
1.4296
1.42365
1.41842
1.41402
1.41045
1.40766
1.40554
1.40396
1.4028
1.40198
1.4014
1.40099
1.40071
1.40052
1.40038
1.40028
1.40021
1.40016
1.40012
1.40009
1.40007
1.40006
1.40004
1.42768
1.43489
1.44194
1.44799
1.45234
1.45465
1.45492
1.45338
1.45037
1.44625
1.44137
1.43604
1.43051
1.42499
1.41963
1.41457
1.4099
1.40565
1.40185
1.39853
1.39571
1.39334
1.39137
1.38982
1.38869
1.38795
1.38757
1.38753
1.3879
1.38871
1.38997
1.39165
1.39377
1.39641
1.39962
1.40341
1.40773
1.41249
1.41767
1.42325
1.42924
1.4355
1.44173
1.44742
1.45191
1.45461
1.4551
1.45331
1.44951
1.44422
1.4381
1.43177
1.42572
1.42027
1.4156
1.41177
1.40871
1.40635
1.40457
1.40325
1.40231
1.40163
1.40116
1.40083
1.4006
1.40044
1.40032
1.40024
1.40019
1.40014
1.40011
1.40008
1.40006
1.40005
1.40004
1.42312
1.4298
1.43682
1.44347
1.44898
1.45281
1.45473
1.45481
1.45327
1.45043
1.44663
1.44217
1.43735
1.43235
1.42739
1.42261
1.4181
1.41393
1.41015
1.40682
1.40393
1.40147
1.39943
1.39783
1.39667
1.39591
1.39552
1.39553
1.39599
1.3969
1.39825
1.40003
1.40227
1.40503
1.40834
1.41216
1.41641
1.42105
1.42604
1.43136
1.43693
1.44252
1.4477
1.45193
1.45463
1.45537
1.45398
1.45063
1.44573
1.43988
1.43365
1.42757
1.42199
1.41712
1.41305
1.40976
1.40717
1.4052
1.40373
1.40265
1.40188
1.40134
1.40095
1.40069
1.4005
1.40037
1.40028
1.40021
1.40016
1.40012
1.4001
1.40007
1.40006
1.40004
1.40003
1.41898
1.42491
1.43152
1.43827
1.44449
1.44955
1.45301
1.45472
1.45476
1.45336
1.45081
1.44742
1.44345
1.43917
1.43476
1.43038
1.42616
1.4222
1.41858
1.41533
1.41246
1.40999
1.40795
1.40636
1.40519
1.40441
1.40404
1.4041
1.40463
1.4056
1.40699
1.40882
1.41113
1.41393
1.41723
1.42095
1.42503
1.42943
1.43411
1.43898
1.44388
1.44846
1.45226
1.45476
1.45554
1.4544
1.45138
1.44683
1.44126
1.4352
1.42916
1.42351
1.41851
1.41425
1.41077
1.40799
1.40584
1.40422
1.40302
1.40215
1.40152
1.40109
1.40078
1.40057
1.40042
1.40031
1.40024
1.40018
1.40014
1.40011
1.40008
1.40006
1.40005
1.40004
1.40003
1.41535
1.42043
1.42635
1.43278
1.43922
1.44505
1.44975
1.45297
1.45461
1.45476
1.45363
1.45148
1.44856
1.44514
1.44144
1.43763
1.43385
1.43023
1.42686
1.42378
1.42103
1.41866
1.41669
1.41514
1.41398
1.41322
1.41289
1.41301
1.41357
1.41455
1.41595
1.41778
1.42008
1.42284
1.42601
1.42953
1.43333
1.43735
1.44153
1.4457
1.44961
1.45285
1.455
1.45565
1.45458
1.45179
1.44753
1.44222
1.43636
1.43042
1.42479
1.41972
1.41534
1.4117
1.40877
1.40646
1.4047
1.40338
1.40242
1.40172
1.40123
1.40088
1.40063
1.40047
1.40035
1.40026
1.4002
1.40015
1.40012
1.40009
1.40007
1.40006
1.40004
1.40003
1.40003
1.41225
1.41648
1.42158
1.4274
1.43359
1.43969
1.44517
1.4496
1.45271
1.45441
1.45478
1.45401
1.45232
1.44995
1.44713
1.44405
1.44087
1.43772
1.4347
1.43191
1.42939
1.42719
1.42535
1.42388
1.42279
1.42209
1.42181
1.42196
1.42253
1.42349
1.42486
1.42666
1.42887
1.43147
1.4344
1.43758
1.44094
1.44441
1.44785
1.45103
1.45364
1.45531
1.45568
1.45454
1.45185
1.44781
1.44274
1.43711
1.43133
1.42577
1.4207
1.41627
1.41253
1.40947
1.40705
1.40517
1.40374
1.40269
1.40192
1.40137
1.40098
1.4007
1.40051
1.40038
1.40029
1.40022
1.40017
1.40013
1.4001
1.40008
1.40006
1.40005
1.40004
1.40003
1.40002
1.40965
1.41311
1.41737
1.4224
1.42802
1.43393
1.43968
1.44487
1.44912
1.4522
1.45404
1.45472
1.45439
1.45324
1.45147
1.44928
1.44684
1.44431
1.4418
1.4394
1.4372
1.43527
1.43362
1.43229
1.43131
1.4307
1.43048
1.43065
1.43119
1.43211
1.43341
1.43509
1.43712
1.43944
1.44199
1.44468
1.44744
1.45012
1.45255
1.45447
1.45557
1.45556
1.45424
1.45157
1.44767
1.44283
1.43742
1.43184
1.42642
1.42142
1.41699
1.41321
1.41008
1.40757
1.40559
1.40408
1.40295
1.40211
1.40151
1.40108
1.40077
1.40056
1.40042
1.40031
1.40024
1.40018
1.40014
1.40011
1.40009
1.40007
1.40005
1.40004
1.40003
1.40003
1.40002
1.4075
1.41029
1.41378
1.41798
1.42285
1.42822
1.4338
1.43923
1.44415
1.44825
1.45137
1.45342
1.45447
1.45462
1.45404
1.4529
1.45137
1.44961
1.44774
1.44587
1.4441
1.4425
1.44112
1.44001
1.43919
1.43869
1.43853
1.4387
1.4392
1.44003
1.44119
1.44266
1.44438
1.4463
1.44832
1.45035
1.45228
1.45396
1.45517
1.45566
1.4552
1.45363
1.45089
1.44708
1.44244
1.43728
1.43194
1.42671
1.42184
1.41748
1.41371
1.41056
1.408
1.40596
1.40438
1.40318
1.40229
1.40164
1.40117
1.40084
1.40061
1.40045
1.40033
1.40025
1.40019
1.40015
1.40012
1.4001
1.40008
1.40006
1.40005
1.40004
1.40003
1.40002
1.40002
1.40577
1.40797
1.41077
1.4142
1.41827
1.42293
1.428
1.43323
1.43833
1.443
1.447
1.45017
1.45245
1.45387
1.45451
1.45452
1.45401
1.45314
1.45205
1.45084
1.44961
1.44845
1.44742
1.44657
1.44595
1.44558
1.44548
1.44565
1.44608
1.44677
1.44771
1.44886
1.45015
1.45151
1.45285
1.45405
1.45499
1.4555
1.45538
1.45446
1.4526
1.44977
1.44603
1.44159
1.43669
1.43161
1.42662
1.42193
1.4177
1.41401
1.41089
1.40832
1.40625
1.40463
1.40339
1.40245
1.40176
1.40126
1.4009
1.40065
1.40048
1.40035
1.40027
1.40021
1.40016
1.40013
1.4001
1.40008
1.40006
1.40005
1.40004
1.40003
1.40003
1.40002
1.40002
1.40438
1.40611
1.40831
1.41105
1.41438
1.41826
1.42264
1.42736
1.43223
1.437
1.44142
1.4453
1.44851
1.451
1.45276
1.45388
1.45443
1.45452
1.45428
1.45381
1.45322
1.45259
1.45199
1.45147
1.45108
1.45086
1.45081
1.45095
1.45128
1.45177
1.45241
1.45314
1.45388
1.45457
1.4551
1.45536
1.45523
1.45455
1.4532
1.45107
1.44815
1.4445
1.44025
1.43562
1.43084
1.42614
1.4217
1.41766
1.4141
1.41105
1.40851
1.40645
1.40482
1.40355
1.40258
1.40186
1.40134
1.40096
1.40069
1.4005
1.40037
1.40028
1.40021
1.40017
1.40013
1.4001
1.40008
1.40007
1.40005
1.40004
1.40003
1.40003
1.40002
1.40002
1.40001
1.40329
1.40463
1.40634
1.4085
1.41114
1.41429
1.41794
1.422
1.42636
1.43084
1.43525
1.4394
1.44313
1.44634
1.44897
1.45101
1.45251
1.45353
1.45414
1.45444
1.45453
1.45446
1.45433
1.45417
1.45405
1.45399
1.454
1.4541
1.45427
1.45451
1.45478
1.45501
1.45514
1.4551
1.45479
1.45412
1.45298
1.45128
1.44896
1.44599
1.44244
1.43843
1.4341
1.42966
1.42529
1.42114
1.41733
1.41395
1.41103
1.40857
1.40655
1.40493
1.40366
1.40268
1.40194
1.4014
1.401
1.40072
1.40052
1.40038
1.40029
1.40022
1.40017
1.40013
1.40011
1.40009
1.40007
1.40006
1.40005
1.40004
1.40003
1.40002
1.40002
1.40002
1.40001
1.40245
1.40346
1.40478
1.40645
1.40852
1.41103
1.41397
1.41733
1.42104
1.425
1.42907
1.43311
1.43695
1.44049
1.44362
1.4463
1.44851
1.45027
1.45162
1.45263
1.45334
1.45383
1.45415
1.45436
1.4545
1.45458
1.45465
1.45469
1.45471
1.45467
1.45453
1.45426
1.45379
1.45307
1.45201
1.45055
1.44862
1.4462
1.44327
1.43989
1.43614
1.43216
1.42809
1.42408
1.42026
1.41673
1.41358
1.41083
1.40849
1.40654
1.40496
1.40371
1.40274
1.40199
1.40144
1.40104
1.40074
1.40054
1.40039
1.40029
1.40022
1.40017
1.40013
1.40011
1.40009
1.40007
1.40006
1.40005
1.40004
1.40003
1.40003
1.40002
1.40002
1.40001
1.40001
1.4018
1.40257
1.40357
1.40485
1.40645
1.40839
1.41072
1.41342
1.41646
1.4198
1.42335
1.427
1.43063
1.43413
1.4374
1.44036
1.44298
1.44522
1.44709
1.44863
1.44984
1.45079
1.4515
1.45203
1.45239
1.45261
1.45271
1.45269
1.45254
1.45224
1.45176
1.45105
1.45009
1.44882
1.44721
1.44521
1.44281
1.44002
1.43687
1.43344
1.42984
1.42617
1.42255
1.4191
1.41589
1.41299
1.41044
1.40826
1.40642
1.40491
1.4037
1.40275
1.40201
1.40146
1.40105
1.40076
1.40054
1.40039
1.40029
1.40022
1.40017
1.40013
1.40011
1.40009
1.40007
1.40006
1.40005
1.40004
1.40003
1.40003
1.40002
1.40002
1.40001
1.40001
1.40001
1.40131
1.40189
1.40264
1.4036
1.40482
1.40631
1.40811
1.41023
1.41266
1.41538
1.41833
1.42145
1.42466
1.42787
1.43098
1.43392
1.43663
1.43907
1.4412
1.44303
1.44457
1.44582
1.44681
1.44755
1.44808
1.4484
1.44853
1.44845
1.44816
1.44766
1.44692
1.44591
1.44462
1.44302
1.4411
1.43885
1.43629
1.43345
1.43039
1.4272
1.42396
1.42076
1.41769
1.41483
1.41222
1.4099
1.40789
1.40619
1.40477
1.40362
1.40271
1.402
1.40146
1.40105
1.40075
1.40054
1.40039
1.40029
1.40021
1.40016
1.40013
1.4001
1.40008
1.40007
1.40006
1.40005
1.40004
1.40003
1.40003
1.40002
1.40002
1.40002
1.40001
1.40001
1.40001
1.40095
1.40137
1.40193
1.40266
1.40357
1.4047
1.40607
1.4077
1.4096
1.41174
1.41412
1.41669
1.41939
1.42215
1.42492
1.42761
1.43017
1.43255
1.43471
1.43662
1.43826
1.43965
1.44077
1.44163
1.44224
1.44261
1.44274
1.44263
1.44226
1.44164
1.44076
1.4396
1.43817
1.43645
1.43446
1.43221
1.42974
1.42709
1.42434
1.42154
1.41877
1.4161
1.41359
1.41128
1.40922
1.40741
1.40585
1.40455
1.40348
1.40262
1.40195
1.40143
1.40103
1.40074
1.40053
1.40038
1.40028
1.40021
1.40016
1.40012
1.4001
1.40008
1.40007
1.40006
1.40005
1.40004
1.40003
1.40003
1.40002
1.40002
1.40002
1.40001
1.40001
1.40001
1.40001
1.40069
1.401
1.40141
1.40194
1.40262
1.40347
1.4045
1.40573
1.40718
1.40884
1.4107
1.41274
1.41493
1.41721
1.41954
1.42186
1.42412
1.42627
1.42827
1.43008
1.43167
1.43304
1.43417
1.43505
1.43568
1.43605
1.43617
1.43603
1.43564
1.43499
1.43407
1.4329
1.43148
1.42982
1.42794
1.42588
1.42366
1.42135
1.41899
1.41665
1.41438
1.41222
1.41023
1.40842
1.40682
1.40544
1.40426
1.40328
1.40249
1.40186
1.40137
1.401
1.40072
1.40051
1.40037
1.40026
1.40019
1.40014
1.40011
1.40009
1.40007
1.40006
1.40005
1.40004
1.40004
1.40003
1.40003
1.40002
1.40002
1.40002
1.40001
1.40001
1.40001
1.40001
1.40001
1.4005
1.40072
1.40102
1.40141
1.40191
1.40253
1.4033
1.40422
1.40531
1.40657
1.408
1.40958
1.41129
1.41311
1.415
1.41691
1.4188
1.42064
1.42237
1.42397
1.4254
1.42665
1.42768
1.4285
1.42909
1.42944
1.42954
1.4294
1.42901
1.42839
1.42754
1.42645
1.42515
1.42366
1.42201
1.42022
1.41834
1.41641
1.41448
1.41259
1.41078
1.40909
1.40755
1.40616
1.40495
1.40391
1.40304
1.40232
1.40174
1.40129
1.40094
1.40067
1.40048
1.40034
1.40024
1.40018
1.40013
1.4001
1.40008
1.40006
1.40005
1.40005
1.40004
1.40004
1.40003
1.40003
1.40002
1.40002
1.40002
1.40001
1.40001
1.40001
1.40001
1.40001
1.40001
1.40036
1.40052
1.40074
1.40102
1.40139
1.40184
1.4024
1.40308
1.40389
1.40483
1.4059
1.4071
1.40842
1.40983
1.4113
1.41282
1.41435
1.41584
1.41727
1.41861
1.41982
1.42089
1.42179
1.42249
1.423
1.4233
1.42339
1.42326
1.42292
1.42236
1.42161
1.42066
1.41954
1.41828
1.41689
1.41542
1.41389
1.41234
1.41081
1.40932
1.40793
1.40663
1.40546
1.40442
1.40352
1.40275
1.40212
1.4016
1.40119
1.40087
1.40063
1.40044
1.40031
1.40022
1.40016
1.40011
1.40009
1.40007
1.40005
1.40005
1.40004
1.40004
1.40003
1.40003
1.40002
1.40002
1.40002
1.40002
1.40001
1.40001
1.40001
1.40001
1.40001
1.40001
1.40001
1.40026
1.40038
1.40053
1.40074
1.401
1.40133
1.40174
1.40224
1.40283
1.40352
1.40432
1.40521
1.40619
1.40726
1.40839
1.40956
1.41075
1.41192
1.41306
1.41414
1.41512
1.41598
1.41672
1.4173
1.41772
1.41797
1.41803
1.41792
1.41763
1.41716
1.41652
1.41574
1.41482
1.41379
1.41267
1.4115
1.41029
1.40908
1.4079
1.40677
1.40571
1.40474
1.40387
1.4031
1.40245
1.40189
1.40144
1.40107
1.40079
1.40056
1.4004
1.40028
1.40019
1.40014
1.4001
1.40007
1.40005
1.40004
1.40004
1.40003
1.40003
1.40003
1.40003
1.40002
1.40002
1.40002
1.40002
1.40001
1.40001
1.40001
1.40001
1.40001
1.40001
1.40001
1.40001
1.40019
1.40028
1.40039
1.40054
1.40073
1.40097
1.40126
1.40162
1.40205
1.40255
1.40313
1.40378
1.40451
1.4053
1.40615
1.40703
1.40793
1.40883
1.4097
1.41053
1.4113
1.41198
1.41256
1.41302
1.41335
1.41354
1.41359
1.41348
1.41324
1.41286
1.41235
1.41172
1.41099
1.41018
1.4093
1.40839
1.40747
1.40655
1.40565
1.40481
1.40402
1.40331
1.40267
1.40212
1.40165
1.40126
1.40095
1.40069
1.4005
1.40035
1.40024
1.40017
1.40011
1.40008
1.40005
1.40004
1.40003
1.40003
1.40003
1.40002
1.40002
1.40002
1.40002
1.40002
1.40002
1.40001
1.40001
1.40001
1.40001
1.40001
1.40001
1.40001
1.40001
1.40001
1.40001
1.40015
1.40021
1.40029
1.4004
1.40053
1.4007
1.40091
1.40117
1.40147
1.40183
1.40225
1.40273
1.40325
1.40383
1.40445
1.4051
1.40577
1.40643
1.40709
1.40772
1.4083
1.40882
1.40926
1.4096
1.40985
1.40999
1.41002
1.40994
1.40974
1.40944
1.40903
1.40855
1.40798
1.40736
1.40669
1.406
1.4053
1.40462
1.40396
1.40334
1.40277
1.40225
1.4018
1.40141
1.40108
1.40081
1.4006
1.40043
1.4003
1.4002
1.40013
1.40009
1.40006
1.40004
1.40003
1.40002
1.40002
1.40002
1.40002
1.40002
1.40002
1.40002
1.40002
1.40001
1.40001
1.40001
1.40001
1.40001
1.40001
1.40001
1.40001
1.40001
1.40001
1.40001
1.40001
1.40011
1.40016
1.40022
1.40029
1.40039
1.40051
1.40066
1.40084
1.40106
1.40132
1.40161
1.40195
1.40233
1.40275
1.40319
1.40366
1.40414
1.40464
1.40512
1.40557
1.406
1.40638
1.4067
1.40696
1.40714
1.40724
1.40725
1.40718
1.40703
1.40679
1.40648
1.40611
1.40568
1.40521
1.40471
1.4042
1.40369
1.40319
1.40271
1.40226
1.40185
1.40149
1.40117
1.4009
1.40068
1.4005
1.40035
1.40024
1.40016
1.4001
1.40006
1.40004
1.40002
1.40001
1.40001
1.40001
1.40001
1.40001
1.40001
1.40001
1.40001
1.40001
1.40001
1.40001
1.40001
1.40001
1.40001
1.40001
1.40001
1.40001
1.40001
1.40001
1.40001
1.40001
1.40001
1.40009
1.40012
1.40017
1.40022
1.40029
1.40038
1.40048
1.40061
1.40076
1.40094
1.40116
1.4014
1.40166
1.40195
1.40227
1.40261
1.40295
1.4033
1.40364
1.40398
1.40428
1.40455
1.40478
1.40496
1.40509
1.40516
1.40516
1.4051
1.40498
1.4048
1.40456
1.40428
1.40396
1.40361
1.40325
1.40287
1.4025
1.40214
1.4018
1.40149
1.4012
1.40095
1.40073
1.40055
1.4004
1.40028
1.40019
1.40012
1.40007
1.40004
1.40002
1.4
1.4
1.4
1.4
1.4
1.4
1.40001
1.40001
1.40001
1.40001
1.40001
1.40001
1.40001
1.40001
1.40001
1.40001
1.40001
1.40001
1.40001
1.40001
1.40001
1.40001
1.40001
1.40001
1.40007
1.4001
1.40013
1.40017
1.40022
1.40028
1.40036
1.40045
1.40056
1.40069
1.40083
1.401
1.40118
1.40139
1.40161
1.40184
1.40209
1.40233
1.40257
1.4028
1.40302
1.40321
1.40337
1.40349
1.40357
1.40361
1.40361
1.40356
1.40346
1.40332
1.40315
1.40294
1.4027
1.40245
1.40219
1.40192
1.40165
1.4014
1.40116
1.40094
1.40075
1.40057
1.40043
1.40031
1.40021
1.40014
1.40008
1.40004
1.40001
1.4
1.39999
1.39999
1.39999
1.39999
1.39999
1.4
1.4
1.4
1.4
1.40001
1.40001
1.40001
1.40001
1.40001
1.40001
1.40001
1.40001
1.40001
1.40001
1.40001
1.40001
1.40001
1.40001
1.40001
1.40001
1.40006
1.40008
1.4001
1.40014
1.40017
1.40022
1.40027
1.40033
1.40041
1.4005
1.4006
1.40072
1.40085
1.40099
1.40114
1.40129
1.40146
1.40163
1.4018
1.40196
1.4021
1.40223
1.40234
1.40242
1.40247
1.40249
1.40248
1.40244
1.40236
1.40226
1.40212
1.40197
1.4018
1.40162
1.40143
1.40124
1.40106
1.40088
1.40071
1.40057
1.40044
1.40032
1.40023
1.40015
1.40009
1.40005
1.40002
1.39999
1.39998
1.39998
1.39997
1.39998
1.39998
1.39998
1.39999
1.39999
1.4
1.4
1.4
1.40001
1.40001
1.40001
1.40001
1.40001
1.40001
1.40001
1.40001
1.40001
1.40001
1.40001
1.40001
1.40001
1.40001
1.40001
1.40001
1.40005
1.40006
1.40008
1.4001
1.40014
1.40017
1.40021
1.40025
1.4003
1.40037
1.40044
1.40052
1.4006
1.4007
1.40081
1.40092
1.40103
1.40114
1.40125
1.40136
1.40145
1.40154
1.4016
1.40165
1.40168
1.40169
1.40168
1.40164
1.40158
1.4015
1.40141
1.4013
1.40117
1.40104
1.40091
1.40078
1.40065
1.40053
1.40042
1.40032
1.40023
1.40016
1.4001
1.40005
1.40002
1.39999
1.39998
1.39997
1.39996
1.39996
1.39997
1.39997
1.39998
1.39998
1.39999
1.39999
1.4
1.4
1.4
1.4
1.4
1.40001
1.40001
1.40001
1.40001
1.40001
1.40001
1.40001
1.40001
1.40001
1.40001
1.40001
1.40001
1.40001
1.40001
1.40004
1.40005
1.40007
1.40008
1.4001
1.40013
1.40016
1.40019
1.40023
1.40027
1.40032
1.40038
1.40044
1.4005
1.40057
1.40064
1.40072
1.4008
1.40087
1.40093
1.40099
1.40105
1.40109
1.40112
1.40113
1.40113
1.40112
1.40109
1.40104
1.40098
1.4009
1.40083
1.40074
1.40065
1.40055
1.40046
1.40037
1.40029
1.40022
1.40016
1.4001
1.40005
1.40002
1.39999
1.39998
1.39996
1.39996
1.39996
1.39996
1.39996
1.39997
1.39997
1.39998
1.39998
1.39999
1.39999
1.4
1.4
1.4
1.4
1.4
1.40001
1.40001
1.40001
1.40001
1.40001
1.40001
1.40001
1.40001
1.40001
1.40001
1.40001
1.40001
1.40001
1.40001
1.40003
1.40004
1.40006
1.40007
1.40009
1.4001
1.40012
1.40015
1.40018
1.40021
1.40024
1.40028
1.40032
1.40037
1.40041
1.40046
1.40051
1.40056
1.4006
1.40065
1.40068
1.40071
1.40073
1.40075
1.40076
1.40075
1.40073
1.4007
1.40067
1.40062
1.40057
1.40051
1.40045
1.40038
1.40032
1.40026
1.4002
1.40014
1.4001
1.40006
1.40002
1.4
1.39998
1.39996
1.39995
1.39995
1.39995
1.39995
1.39996
1.39996
1.39997
1.39997
1.39998
1.39999
1.39999
1.39999
1.4
1.4
1.4
1.4
1.4
1.40001
1.40001
1.40001
1.40001
1.40001
1.40001
1.40001
1.40001
1.40001
1.40001
1.40001
1.40001
1.40001
1.40001
1.40003
1.40004
1.40005
1.40006
1.40007
1.40008
1.4001
1.40012
1.40014
1.40016
1.40019
1.40021
1.40024
1.40027
1.4003
1.40033
1.40036
1.40039
1.40042
1.40045
1.40047
1.40049
1.40049
1.4005
1.4005
1.40049
1.40047
1.40045
1.40042
1.40038
1.40035
1.4003
1.40026
1.40021
1.40017
1.40013
1.40009
1.40005
1.40002
1.4
1.39998
1.39996
1.39995
1.39995
1.39995
1.39995
1.39995
1.39995
1.39996
1.39996
1.39997
1.39998
1.39998
1.39999
1.39999
1.39999
1.4
1.4
1.4
1.4
1.4
1.4
1.40001
1.40001
1.40001
1.40001
1.40001
1.40001
1.40001
1.40001
1.40001
1.40001
1.40001
1.40001
1.40001
1.40003
1.40003
1.40003
1.40004
1.40006
1.40007
1.40008
1.40009
1.40011
1.40013
1.40014
1.40016
1.40018
1.4002
1.40022
1.40024
1.40026
1.40028
1.4003
1.40031
1.40032
1.40033
1.40033
1.40033
1.40033
1.40031
1.4003
1.40028
1.40026
1.40023
1.4002
1.40017
1.40014
1.40011
1.40007
1.40005
1.40002
1.4
1.39998
1.39997
1.39996
1.39995
1.39994
1.39994
1.39994
1.39995
1.39995
1.39996
1.39996
1.39997
1.39998
1.39998
1.39999
1.39999
1.39999
1.4
1.4
1.4
1.4
1.4
1.4
1.4
1.4
1.4
1.40001
1.40001
1.40001
1.40001
1.40001
1.40001
1.40001
1.40001
1.40001
1.40001
1.40001
1.40002
1.40003
1.40004
1.40004
1.40004
1.40006
1.40007
1.40007
1.40008
1.4001
1.40011
1.40012
1.40014
1.40015
1.40017
1.40018
1.40019
1.4002
1.40021
1.40022
1.40022
1.40022
1.40022
1.40022
1.40021
1.4002
1.40019
1.40017
1.40015
1.40013
1.40011
1.40009
1.40006
1.40004
1.40002
1.4
1.39999
1.39997
1.39996
1.39995
1.39995
1.39995
1.39994
1.39995
1.39995
1.39995
1.39996
1.39996
1.39997
1.39997
1.39998
1.39998
1.39999
1.39999
1.4
1.4
1.4
1.4
1.4
1.4
1.4
1.4
1.40001
1.40001
1.4
1.4
1.4
1.40001
1.40001
1.40001
1.40001
1.40001
1.40001
1.40001
1.4
1.40002
1.40002
1.40002
1.40004
1.40004
1.40004
1.40005
1.40006
1.40007
1.40008
1.40009
1.4001
1.40011
1.40012
1.40013
1.40014
1.40014
1.40015
1.40015
1.40016
1.40016
1.40016
1.40015
1.40015
1.40014
1.40013
1.40012
1.4001
1.40009
1.40007
1.40006
1.40004
1.40002
1.40001
1.39999
1.39998
1.39997
1.39996
1.39995
1.39995
1.39995
1.39995
1.39995
1.39995
1.39995
1.39996
1.39996
1.39997
1.39998
1.39998
1.39998
1.39999
1.39999
1.39999
1.4
1.4
1.4
1.4
1.4
1.4
1.4
1.4
1.4
1.40001
1.40001
1.40001
1.40001
1.40001
1.4
1.4
1.4
1.4
1.40001
1.40001
1.40001
1.40002
1.40002
1.40002
1.40002
1.40003
1.40004
1.40004
1.40005
1.40005
1.40006
1.40007
1.40008
1.40008
1.40009
1.4001
1.4001
1.40011
1.40011
1.40011
1.40011
1.40011
1.40011
1.40011
1.4001
1.40009
1.40008
1.40007
1.40006
1.40005
1.40004
1.40002
1.40001
1.4
1.39999
1.39998
1.39997
1.39996
1.39996
1.39995
1.39995
1.39995
1.39995
1.39996
1.39996
1.39996
1.39997
1.39997
1.39998
1.39998
1.39998
1.39999
1.39999
1.39999
1.4
1.4
1.4
1.4
1.4
1.4
1.4
1.4
1.4
1.4
1.4
1.40001
1.40001
1.40001
1.40001
1.40001
1.40001
1.40001
1.40001
1.4
1.40001
1.4
1.40001
1.40001
1.40002
1.40002
1.40002
1.40003
1.40004
1.40004
1.40004
1.40005
1.40006
1.40006
1.40007
1.40007
1.40008
1.40008
1.40008
1.40008
1.40008
1.40008
1.40008
1.40008
1.40007
1.40007
1.40006
1.40006
1.40005
1.40004
1.40003
1.40002
1.40001
1.4
1.39999
1.39998
1.39997
1.39997
1.39996
1.39996
1.39996
1.39996
1.39996
1.39996
1.39996
1.39997
1.39997
1.39997
1.39998
1.39998
1.39998
1.39999
1.39999
1.39999
1.4
1.4
1.4
1.4
1.4
1.4
1.4
1.4
1.4
1.4
1.4
1.4
1.4
1.4
1.4
1.4
1.40001
1.40001
1.40001
1.40001
1.40001
1.40001
1.40001
1.40002
1.40001
1.40001
1.40002
1.40002
1.40003
1.40003
1.40003
1.40004
1.40004
1.40004
1.40005
1.40005
1.40006
1.40006
1.40006
1.40006
1.40006
1.40006
1.40006
1.40006
1.40006
1.40005
1.40005
1.40004
1.40004
1.40003
1.40002
1.40001
1.4
1.4
1.39999
1.39998
1.39998
1.39997
1.39997
1.39997
1.39997
1.39997
1.39996
1.39997
1.39997
1.39997
1.39997
1.39998
1.39998
1.39998
1.39999
1.39999
1.39999
1.39999
1.4
1.4
1.4
1.4
1.4
1.4
1.4
1.4
1.4
1.4
1.4
1.4
1.40001
1.40001
1.40001
1.40001
1.4
1.4
1.4
1.4
1.4
1.40001
1.40001
1.4
1.40001
1.40001
1.40002
1.40001
1.40002
1.40002
1.40003
1.40003
1.40003
1.40003
1.40004
1.40004
1.40004
1.40004
1.40005
1.40005
1.40005
1.40005
1.40005
1.40005
1.40004
1.40004
1.40004
1.40004
1.40003
1.40002
1.40002
1.40001
1.40001
1.4
1.39999
1.39999
1.39998
1.39998
1.39998
1.39997
1.39997
1.39997
1.39997
1.39997
1.39997
1.39998
1.39998
1.39998
1.39998
1.39998
1.39999
1.39999
1.39999
1.39999
1.4
1.4
1.4
1.4
1.4
1.4
1.4
1.4
1.4
1.4
1.4
1.4
1.4
1.4
1.4
1.40001
1.40001
1.40001
1.40001
1.40001
1.40001
1.40001
1.40001
1.40001
1.40001
1.40001
1.40001
1.40001
1.40001
1.40002
1.40002
1.40002
1.40002
1.40002
1.40003
1.40003
1.40003
1.40003
1.40004
1.40004
1.40004
1.40004
1.40004
1.40004
1.40004
1.40004
1.40003
1.40003
1.40002
1.40002
1.40002
1.40001
1.40001
1.4
1.4
1.4
1.39999
1.39999
1.39998
1.39998
1.39998
1.39998
1.39998
1.39998
1.39998
1.39998
1.39998
1.39998
1.39999
1.39999
1.39999
1.39999
1.39999
1.39999
1.4
1.4
1.4
1.4
1.4
1.4
1.4
1.4
1.4
1.4
1.4
1.4
1.4
1.40001
1.40001
1.4
1.4
1.4
1.4
1.4
1.4
1.40001
1.40001
1.40001
1.40001
1.40001
1.40001
1.40001
1.40001
1.40001
1.40001
1.40001
1.40001
1.40002
1.40002
1.40002
1.40002
1.40002
1.40003
1.40003
1.40003
1.40003
1.40003
1.40003
1.40003
1.40003
1.40003
1.40003
1.40002
1.40002
1.40001
1.40001
1.40001
1.40001
1.4
1.4
1.39999
1.39999
1.39999
1.39999
1.39999
1.39998
1.39998
1.39998
1.39998
1.39999
1.39999
1.39999
1.39999
1.39999
1.39999
1.39999
1.39999
1.4
1.4
1.4
1.4
1.4
1.4
1.4
1.4
1.4
1.4
1.4
1.4
1.4
1.4
1.4
1.4
1.40001
1.40001
1.40001
1.40001
1.40001
1.40001
1.40001
1.4
1.40001
1.4
1.40001
1.40001
1.40001
1.40001
1.40001
1.40001
1.40001
1.40001
1.40001
1.40001
1.40001
1.40002
1.40002
1.40002
1.40002
1.40002
1.40002
1.40002
1.40002
1.40002
1.40002
1.40002
1.40002
1.40002
1.40002
1.40002
1.40001
1.40001
1.40001
1.4
1.4
1.4
1.4
1.39999
1.39999
1.39999
1.39999
1.39999
1.39999
1.39999
1.39999
1.39999
1.39999
1.39999
1.39999
1.39999
1.4
1.4
1.4
1.4
1.4
1.4
1.4
1.4
1.4
1.4
1.4
1.4