/*--------------------------------*- C++ -*----------------------------------*\
  =========                 |
  \\      /  F ield         | OpenFOAM: The Open Source CFD Toolbox
   \\    /   O peration     | Website:  https://openfoam.org
    \\  /    A nd           | Version:  6
     \\/     M anipulation  |
\*---------------------------------------------------------------------------*/
FoamFile
{
    version     2.0;
    format      ascii;
    class       volVectorField;
    location    "4";
    object      U;
}
// * * * * * * * * * * * * * * * * * * * * * * * * * * * * * * * * * * * * * //

dimensions      [0 1 -1 0 0 0 0];

internalField   nonuniform List<vector> 
10000
(
(0.8944 0.4472 0)
(0.8944 0.4472 0)
(0.8944 0.4472 0)
(0.8944 0.4472 0)
(0.8944 0.4472 0)
(0.8944 0.4472 0)
(0.8944 0.4472 0)
(0.8944 0.4472 0)
(0.8944 0.4472 0)
(0.8944 0.4472 0)
(0.8944 0.4472 0)
(0.8944 0.4472 0)
(0.8944 0.4472 0)
(0.8944 0.4472 0)
(0.8944 0.4472 0)
(0.8944 0.4472 0)
(0.8944 0.4472 0)
(0.8944 0.4472 0)
(0.8944 0.4472 0)
(0.8944 0.4472 0)
(0.8944 0.4472 0)
(0.8944 0.4472 0)
(0.8944 0.4472 0)
(0.8944 0.4472 0)
(0.8944 0.4472 0)
(0.8944 0.4472 0)
(0.8944 0.4472 0)
(0.8944 0.4472 0)
(0.8944 0.4472 0)
(0.8944 0.4472 0)
(0.8944 0.4472 0)
(0.8944 0.4472 0)
(0.8944 0.4472 0)
(0.8944 0.4472 0)
(0.8944 0.4472 0)
(0.8944 0.4472 0)
(0.8944 0.4472 0)
(0.8944 0.4472 0)
(0.8944 0.4472 0)
(0.894399 0.447201 0)
(0.894399 0.447201 0)
(0.894399 0.447202 0)
(0.894399 0.447203 0)
(0.894399 0.447204 0)
(0.8944 0.447204 0)
(0.894402 0.447204 0)
(0.894405 0.447204 0)
(0.89441 0.447202 0)
(0.894417 0.447197 0)
(0.894426 0.44719 0)
(0.894436 0.44718 0)
(0.894446 0.447167 0)
(0.894454 0.447154 0)
(0.894457 0.447143 0)
(0.894454 0.447137 0)
(0.894443 0.44714 0)
(0.894423 0.447157 0)
(0.894393 0.447192 0)
(0.894355 0.447247 0)
(0.894312 0.447323 0)
(0.894268 0.44742 0)
(0.894227 0.447534 0)
(0.894193 0.44766 0)
(0.894169 0.44779 0)
(0.894159 0.447917 0)
(0.894164 0.448034 0)
(0.894184 0.448132 0)
(0.894217 0.448206 0)
(0.894261 0.44825 0)
(0.894312 0.448264 0)
(0.894365 0.448248 0)
(0.894417 0.448205 0)
(0.894464 0.448138 0)
(0.894503 0.448053 0)
(0.894533 0.447957 0)
(0.894552 0.447855 0)
(0.894561 0.447754 0)
(0.894562 0.447657 0)
(0.894554 0.447567 0)
(0.894541 0.447488 0)
(0.894524 0.447419 0)
(0.894506 0.447362 0)
(0.894486 0.447316 0)
(0.894468 0.447279 0)
(0.894452 0.447252 0)
(0.894438 0.447232 0)
(0.894426 0.447218 0)
(0.894418 0.447209 0)
(0.894411 0.447204 0)
(0.894407 0.4472 0)
(0.894403 0.447199 0)
(0.894402 0.447198 0)
(0.894401 0.447198 0)
(0.8944 0.447198 0)
(0.8944 0.447199 0)
(0.8944 0.447199 0)
(0.8944 0.447199 0)
(0.8944 0.4472 0)
(0.8944 0.4472 0)
(0.8944 0.4472 0)
(0.8944 0.4472 0)
(0.8944 0.4472 0)
(0.8944 0.4472 0)
(0.8944 0.4472 0)
(0.8944 0.4472 0)
(0.8944 0.4472 0)
(0.8944 0.4472 0)
(0.8944 0.4472 0)
(0.8944 0.4472 0)
(0.8944 0.4472 0)
(0.8944 0.4472 0)
(0.8944 0.4472 0)
(0.8944 0.4472 0)
(0.8944 0.4472 0)
(0.8944 0.4472 0)
(0.8944 0.4472 0)
(0.8944 0.4472 0)
(0.8944 0.4472 0)
(0.8944 0.4472 0)
(0.8944 0.4472 0)
(0.8944 0.4472 0)
(0.8944 0.4472 0)
(0.8944 0.4472 0)
(0.8944 0.4472 0)
(0.8944 0.4472 0)
(0.8944 0.4472 0)
(0.8944 0.4472 0)
(0.8944 0.4472 0)
(0.8944 0.4472 0)
(0.8944 0.4472 0)
(0.8944 0.4472 0)
(0.8944 0.4472 0)
(0.8944 0.4472 0)
(0.8944 0.4472 0)
(0.8944 0.4472 0)
(0.8944 0.4472 0)
(0.8944 0.4472 0)
(0.8944 0.4472 0)
(0.894399 0.447201 0)
(0.894399 0.447201 0)
(0.894399 0.447202 0)
(0.894398 0.447203 0)
(0.894398 0.447204 0)
(0.894398 0.447206 0)
(0.894399 0.447207 0)
(0.894402 0.447207 0)
(0.894406 0.447207 0)
(0.894413 0.447205 0)
(0.894422 0.4472 0)
(0.894433 0.447192 0)
(0.894445 0.447181 0)
(0.894455 0.44717 0)
(0.894462 0.44716 0)
(0.894461 0.447155 0)
(0.894451 0.447162 0)
(0.894429 0.447185 0)
(0.894394 0.447231 0)
(0.894347 0.447305 0)
(0.89429 0.447409 0)
(0.894229 0.447543 0)
(0.894169 0.447705 0)
(0.894115 0.447887 0)
(0.894075 0.448082 0)
(0.894052 0.448279 0)
(0.894049 0.448465 0)
(0.894068 0.448629 0)
(0.894109 0.448761 0)
(0.894167 0.448853 0)
(0.894238 0.448899 0)
(0.894317 0.448899 0)
(0.894396 0.448852 0)
(0.894471 0.448765 0)
(0.894536 0.448644 0)
(0.894588 0.448499 0)
(0.894624 0.44834 0)
(0.894645 0.448176 0)
(0.894652 0.448015 0)
(0.894646 0.447864 0)
(0.89463 0.447728 0)
(0.894607 0.447609 0)
(0.89458 0.447508 0)
(0.894551 0.447425 0)
(0.894523 0.447358 0)
(0.894496 0.447307 0)
(0.894472 0.447269 0)
(0.894452 0.447242 0)
(0.894436 0.447223 0)
(0.894424 0.447211 0)
(0.894415 0.447203 0)
(0.894409 0.447199 0)
(0.894404 0.447197 0)
(0.894402 0.447197 0)
(0.8944 0.447197 0)
(0.8944 0.447197 0)
(0.894399 0.447198 0)
(0.894399 0.447198 0)
(0.894399 0.447199 0)
(0.8944 0.447199 0)
(0.8944 0.4472 0)
(0.8944 0.4472 0)
(0.8944 0.4472 0)
(0.8944 0.4472 0)
(0.8944 0.4472 0)
(0.8944 0.4472 0)
(0.8944 0.4472 0)
(0.8944 0.4472 0)
(0.8944 0.4472 0)
(0.8944 0.4472 0)
(0.8944 0.4472 0)
(0.8944 0.4472 0)
(0.8944 0.4472 0)
(0.8944 0.4472 0)
(0.8944 0.4472 0)
(0.8944 0.4472 0)
(0.8944 0.4472 0)
(0.8944 0.4472 0)
(0.8944 0.4472 0)
(0.8944 0.4472 0)
(0.8944 0.4472 0)
(0.8944 0.4472 0)
(0.8944 0.4472 0)
(0.8944 0.4472 0)
(0.8944 0.4472 0)
(0.8944 0.4472 0)
(0.8944 0.4472 0)
(0.8944 0.4472 0)
(0.8944 0.4472 0)
(0.8944 0.4472 0)
(0.8944 0.4472 0)
(0.8944 0.4472 0)
(0.8944 0.4472 0)
(0.8944 0.4472 0)
(0.8944 0.4472 0)
(0.8944 0.4472 0)
(0.8944 0.4472 0)
(0.8944 0.4472 0)
(0.8944 0.4472 0)
(0.894399 0.447201 0)
(0.894399 0.447201 0)
(0.894398 0.447202 0)
(0.894398 0.447203 0)
(0.894397 0.447204 0)
(0.894397 0.447206 0)
(0.894397 0.447209 0)
(0.894398 0.44721 0)
(0.894402 0.447212 0)
(0.894407 0.447212 0)
(0.894416 0.44721 0)
(0.894427 0.447205 0)
(0.89444 0.447198 0)
(0.894453 0.447189 0)
(0.894462 0.447181 0)
(0.894465 0.447179 0)
(0.894456 0.44719 0)
(0.894432 0.447221 0)
(0.894391 0.447281 0)
(0.894332 0.447377 0)
(0.894259 0.447515 0)
(0.894175 0.447697 0)
(0.894089 0.447922 0)
(0.894008 0.448182 0)
(0.89394 0.448467 0)
(0.893895 0.448763 0)
(0.893877 0.449053 0)
(0.89389 0.449321 0)
(0.893935 0.449551 0)
(0.894009 0.449728 0)
(0.894106 0.449843 0)
(0.89422 0.449887 0)
(0.894341 0.449861 0)
(0.89446 0.449767 0)
(0.894568 0.449612 0)
(0.894659 0.449409 0)
(0.894727 0.449173 0)
(0.894772 0.448917 0)
(0.894793 0.448657 0)
(0.894793 0.448406 0)
(0.894776 0.448174 0)
(0.894745 0.447966 0)
(0.894706 0.447787 0)
(0.894662 0.447637 0)
(0.894617 0.447515 0)
(0.894574 0.447419 0)
(0.894535 0.447346 0)
(0.894501 0.447293 0)
(0.894472 0.447255 0)
(0.89445 0.447229 0)
(0.894432 0.447212 0)
(0.89442 0.447202 0)
(0.894411 0.447197 0)
(0.894405 0.447195 0)
(0.894402 0.447194 0)
(0.8944 0.447195 0)
(0.894399 0.447196 0)
(0.894399 0.447197 0)
(0.894399 0.447198 0)
(0.894399 0.447198 0)
(0.894399 0.447199 0)
(0.894399 0.447199 0)
(0.8944 0.4472 0)
(0.8944 0.4472 0)
(0.8944 0.4472 0)
(0.8944 0.4472 0)
(0.8944 0.4472 0)
(0.8944 0.4472 0)
(0.8944 0.4472 0)
(0.8944 0.4472 0)
(0.8944 0.4472 0)
(0.8944 0.4472 0)
(0.8944 0.4472 0)
(0.8944 0.4472 0)
(0.8944 0.4472 0)
(0.8944 0.4472 0)
(0.8944 0.4472 0)
(0.8944 0.4472 0)
(0.8944 0.4472 0)
(0.8944 0.4472 0)
(0.8944 0.4472 0)
(0.8944 0.4472 0)
(0.8944 0.4472 0)
(0.8944 0.4472 0)
(0.8944 0.4472 0)
(0.8944 0.4472 0)
(0.8944 0.4472 0)
(0.8944 0.4472 0)
(0.8944 0.4472 0)
(0.8944 0.4472 0)
(0.8944 0.4472 0)
(0.8944 0.4472 0)
(0.8944 0.4472 0)
(0.8944 0.4472 0)
(0.8944 0.4472 0)
(0.8944 0.4472 0)
(0.8944 0.4472 0)
(0.8944 0.4472 0)
(0.8944 0.4472 0)
(0.8944 0.447201 0)
(0.894399 0.447201 0)
(0.894398 0.447202 0)
(0.894398 0.447203 0)
(0.894397 0.447204 0)
(0.894396 0.447207 0)
(0.894395 0.447209 0)
(0.894395 0.447212 0)
(0.894397 0.447216 0)
(0.894401 0.447218 0)
(0.894408 0.447219 0)
(0.894418 0.447219 0)
(0.894431 0.447215 0)
(0.894445 0.44721 0)
(0.894457 0.447206 0)
(0.894463 0.447208 0)
(0.894455 0.447224 0)
(0.89443 0.447263 0)
(0.894383 0.447337 0)
(0.894311 0.447459 0)
(0.894217 0.447636 0)
(0.894105 0.447876 0)
(0.893983 0.448178 0)
(0.893862 0.448536 0)
(0.893755 0.44894 0)
(0.893673 0.449371 0)
(0.893626 0.449809 0)
(0.893622 0.450229 0)
(0.893664 0.450609 0)
(0.89375 0.450926 0)
(0.893876 0.451162 0)
(0.894034 0.451304 0)
(0.894211 0.451343 0)
(0.894394 0.451278 0)
(0.894571 0.451114 0)
(0.894729 0.450863 0)
(0.894857 0.450541 0)
(0.89495 0.450171 0)
(0.895005 0.449774 0)
(0.895024 0.449373 0)
(0.895011 0.448988 0)
(0.894974 0.448633 0)
(0.894919 0.448318 0)
(0.894853 0.448049 0)
(0.894783 0.447826 0)
(0.894714 0.447647 0)
(0.894649 0.447508 0)
(0.894591 0.447403 0)
(0.894541 0.447326 0)
(0.8945 0.447273 0)
(0.894468 0.447237 0)
(0.894444 0.447214 0)
(0.894426 0.447201 0)
(0.894414 0.447194 0)
(0.894407 0.447192 0)
(0.894402 0.447191 0)
(0.894399 0.447192 0)
(0.894398 0.447194 0)
(0.894398 0.447195 0)
(0.894398 0.447196 0)
(0.894398 0.447197 0)
(0.894399 0.447198 0)
(0.894399 0.447199 0)
(0.894399 0.447199 0)
(0.894399 0.447199 0)
(0.8944 0.4472 0)
(0.8944 0.4472 0)
(0.8944 0.4472 0)
(0.8944 0.4472 0)
(0.8944 0.4472 0)
(0.8944 0.4472 0)
(0.8944 0.4472 0)
(0.8944 0.4472 0)
(0.8944 0.4472 0)
(0.8944 0.4472 0)
(0.8944 0.4472 0)
(0.8944 0.4472 0)
(0.8944 0.4472 0)
(0.8944 0.4472 0)
(0.8944 0.4472 0)
(0.8944 0.4472 0)
(0.8944 0.4472 0)
(0.8944 0.4472 0)
(0.8944 0.4472 0)
(0.8944 0.4472 0)
(0.8944 0.4472 0)
(0.8944 0.4472 0)
(0.8944 0.4472 0)
(0.8944 0.4472 0)
(0.8944 0.4472 0)
(0.8944 0.4472 0)
(0.8944 0.4472 0)
(0.8944 0.4472 0)
(0.8944 0.4472 0)
(0.8944 0.4472 0)
(0.8944 0.4472 0)
(0.8944 0.4472 0)
(0.8944 0.4472 0)
(0.8944 0.4472 0)
(0.894399 0.4472 0)
(0.894399 0.447201 0)
(0.894398 0.447201 0)
(0.894398 0.447202 0)
(0.894396 0.447204 0)
(0.894395 0.447206 0)
(0.894393 0.447209 0)
(0.894392 0.447213 0)
(0.894392 0.447218 0)
(0.894394 0.447223 0)
(0.894399 0.447227 0)
(0.894407 0.44723 0)
(0.894419 0.447231 0)
(0.894433 0.447231 0)
(0.894447 0.447232 0)
(0.894454 0.447239 0)
(0.894449 0.44726 0)
(0.894423 0.447307 0)
(0.89437 0.447396 0)
(0.894284 0.447542 0)
(0.894165 0.447761 0)
(0.894017 0.448064 0)
(0.893849 0.448456 0)
(0.893674 0.448934 0)
(0.89351 0.449484 0)
(0.893371 0.450088 0)
(0.893276 0.45072 0)
(0.893235 0.451348 0)
(0.893257 0.451939 0)
(0.893345 0.452464 0)
(0.893495 0.452893 0)
(0.893699 0.453204 0)
(0.893944 0.453379 0)
(0.894213 0.453408 0)
(0.894488 0.453291 0)
(0.894748 0.453034 0)
(0.894978 0.452653 0)
(0.895161 0.452169 0)
(0.895289 0.451614 0)
(0.895359 0.45102 0)
(0.895374 0.450419 0)
(0.895342 0.449841 0)
(0.895273 0.449309 0)
(0.89518 0.448838 0)
(0.895073 0.448437 0)
(0.894962 0.448106 0)
(0.894855 0.447842 0)
(0.894757 0.447638 0)
(0.894671 0.447486 0)
(0.894598 0.447376 0)
(0.894539 0.4473 0)
(0.894493 0.44725 0)
(0.894459 0.447218 0)
(0.894435 0.4472 0)
(0.894418 0.447191 0)
(0.894408 0.447187 0)
(0.894402 0.447187 0)
(0.894398 0.447188 0)
(0.894397 0.447191 0)
(0.894397 0.447193 0)
(0.894397 0.447195 0)
(0.894398 0.447196 0)
(0.894398 0.447197 0)
(0.894399 0.447198 0)
(0.894399 0.447199 0)
(0.894399 0.447199 0)
(0.894399 0.447199 0)
(0.8944 0.4472 0)
(0.8944 0.4472 0)
(0.8944 0.4472 0)
(0.8944 0.4472 0)
(0.8944 0.4472 0)
(0.8944 0.4472 0)
(0.8944 0.4472 0)
(0.8944 0.4472 0)
(0.8944 0.4472 0)
(0.8944 0.4472 0)
(0.8944 0.4472 0)
(0.8944 0.4472 0)
(0.8944 0.4472 0)
(0.8944 0.4472 0)
(0.8944 0.4472 0)
(0.8944 0.4472 0)
(0.8944 0.4472 0)
(0.8944 0.4472 0)
(0.8944 0.4472 0)
(0.8944 0.4472 0)
(0.8944 0.4472 0)
(0.8944 0.4472 0)
(0.8944 0.4472 0)
(0.8944 0.4472 0)
(0.8944 0.4472 0)
(0.8944 0.4472 0)
(0.8944 0.4472 0)
(0.8944 0.4472 0)
(0.8944 0.4472 0)
(0.8944 0.4472 0)
(0.8944 0.4472 0)
(0.8944 0.4472 0)
(0.8944 0.4472 0)
(0.894399 0.447201 0)
(0.894399 0.447201 0)
(0.894398 0.447202 0)
(0.894396 0.447204 0)
(0.894395 0.447205 0)
(0.894393 0.447209 0)
(0.89439 0.447213 0)
(0.894389 0.447219 0)
(0.894388 0.447225 0)
(0.89439 0.447233 0)
(0.894395 0.44724 0)
(0.894405 0.447245 0)
(0.894418 0.447251 0)
(0.894431 0.447257 0)
(0.89444 0.447269 0)
(0.894437 0.447296 0)
(0.894411 0.44735 0)
(0.894353 0.447451 0)
(0.894253 0.44762 0)
(0.894107 0.447879 0)
(0.893917 0.448247 0)
(0.893691 0.448736 0)
(0.893446 0.449347 0)
(0.893201 0.450069 0)
(0.892981 0.450882 0)
(0.892809 0.451753 0)
(0.892704 0.452644 0)
(0.89268 0.453514 0)
(0.892748 0.454318 0)
(0.892906 0.45502 0)
(0.893148 0.455583 0)
(0.893462 0.455982 0)
(0.893829 0.456196 0)
(0.894226 0.456214 0)
(0.894628 0.456035 0)
(0.895007 0.455664 0)
(0.895339 0.455121 0)
(0.895603 0.454432 0)
(0.895785 0.453638 0)
(0.89588 0.452782 0)
(0.895891 0.451911 0)
(0.895831 0.451068 0)
(0.895717 0.450288 0)
(0.895567 0.449595 0)
(0.895398 0.449004 0)
(0.895226 0.448517 0)
(0.895063 0.44813 0)
(0.894915 0.447832 0)
(0.894787 0.44761 0)
(0.89468 0.447451 0)
(0.894595 0.447342 0)
(0.894529 0.447269 0)
(0.894481 0.447225 0)
(0.894447 0.447199 0)
(0.894424 0.447186 0)
(0.894409 0.447181 0)
(0.894401 0.447181 0)
(0.894397 0.447183 0)
(0.894395 0.447186 0)
(0.894395 0.44719 0)
(0.894396 0.447192 0)
(0.894396 0.447195 0)
(0.894397 0.447196 0)
(0.894398 0.447198 0)
(0.894399 0.447199 0)
(0.894399 0.447199 0)
(0.894399 0.447199 0)
(0.8944 0.4472 0)
(0.8944 0.4472 0)
(0.8944 0.4472 0)
(0.8944 0.4472 0)
(0.8944 0.4472 0)
(0.8944 0.4472 0)
(0.8944 0.4472 0)
(0.8944 0.4472 0)
(0.8944 0.4472 0)
(0.8944 0.4472 0)
(0.8944 0.4472 0)
(0.8944 0.4472 0)
(0.8944 0.4472 0)
(0.8944 0.4472 0)
(0.8944 0.4472 0)
(0.8944 0.4472 0)
(0.8944 0.4472 0)
(0.8944 0.4472 0)
(0.8944 0.4472 0)
(0.8944 0.4472 0)
(0.8944 0.4472 0)
(0.8944 0.4472 0)
(0.8944 0.4472 0)
(0.8944 0.4472 0)
(0.8944 0.4472 0)
(0.8944 0.4472 0)
(0.8944 0.4472 0)
(0.8944 0.4472 0)
(0.8944 0.4472 0)
(0.8944 0.4472 0)
(0.8944 0.4472 0)
(0.8944 0.4472 0)
(0.8944 0.4472 0)
(0.894399 0.447201 0)
(0.894398 0.447202 0)
(0.894397 0.447203 0)
(0.894395 0.447205 0)
(0.894392 0.447208 0)
(0.894389 0.447213 0)
(0.894386 0.447219 0)
(0.894383 0.447226 0)
(0.894382 0.447236 0)
(0.894384 0.447246 0)
(0.894389 0.447257 0)
(0.894399 0.447267 0)
(0.894411 0.447279 0)
(0.89442 0.447296 0)
(0.894418 0.447328 0)
(0.894394 0.447388 0)
(0.894332 0.447498 0)
(0.89422 0.447684 0)
(0.894047 0.447977 0)
(0.893811 0.448406 0)
(0.893518 0.448991 0)
(0.893185 0.449741 0)
(0.892836 0.450653 0)
(0.892504 0.451702 0)
(0.89222 0.452852 0)
(0.892013 0.454057 0)
(0.891908 0.455264 0)
(0.891921 0.456416 0)
(0.892058 0.457465 0)
(0.892316 0.458363 0)
(0.892685 0.459074 0)
(0.893146 0.459568 0)
(0.893675 0.459826 0)
(0.894241 0.459834 0)
(0.894812 0.459588 0)
(0.895353 0.459096 0)
(0.89583 0.458372 0)
(0.896212 0.457448 0)
(0.896477 0.456369 0)
(0.896614 0.45519 0)
(0.896629 0.453974 0)
(0.896536 0.452784 0)
(0.89636 0.451672 0)
(0.89613 0.450677 0)
(0.895873 0.449822 0)
(0.895613 0.449115 0)
(0.895366 0.448552 0)
(0.895144 0.448118 0)
(0.894955 0.447796 0)
(0.894799 0.447565 0)
(0.894675 0.447406 0)
(0.894581 0.447302 0)
(0.894512 0.447237 0)
(0.894464 0.4472 0)
(0.894431 0.447182 0)
(0.894411 0.447174 0)
(0.8944 0.447174 0)
(0.894394 0.447177 0)
(0.894392 0.447181 0)
(0.894392 0.447186 0)
(0.894393 0.447189 0)
(0.894395 0.447193 0)
(0.894396 0.447195 0)
(0.894397 0.447197 0)
(0.894398 0.447198 0)
(0.894398 0.447198 0)
(0.894399 0.447199 0)
(0.894399 0.447199 0)
(0.8944 0.4472 0)
(0.8944 0.4472 0)
(0.8944 0.4472 0)
(0.8944 0.4472 0)
(0.8944 0.4472 0)
(0.8944 0.4472 0)
(0.8944 0.4472 0)
(0.8944 0.4472 0)
(0.8944 0.4472 0)
(0.8944 0.4472 0)
(0.8944 0.4472 0)
(0.8944 0.4472 0)
(0.8944 0.4472 0)
(0.8944 0.4472 0)
(0.8944 0.4472 0)
(0.8944 0.4472 0)
(0.8944 0.4472 0)
(0.8944 0.4472 0)
(0.8944 0.4472 0)
(0.8944 0.4472 0)
(0.8944 0.4472 0)
(0.8944 0.4472 0)
(0.8944 0.4472 0)
(0.8944 0.4472 0)
(0.8944 0.4472 0)
(0.8944 0.4472 0)
(0.8944 0.4472 0)
(0.8944 0.4472 0)
(0.8944 0.4472 0)
(0.8944 0.4472 0)
(0.8944 0.4472 0)
(0.894399 0.447201 0)
(0.894398 0.447201 0)
(0.894397 0.447202 0)
(0.894396 0.447204 0)
(0.894393 0.447207 0)
(0.894389 0.447211 0)
(0.894385 0.447217 0)
(0.89438 0.447225 0)
(0.894376 0.447236 0)
(0.894374 0.447249 0)
(0.894375 0.447263 0)
(0.89438 0.447279 0)
(0.894388 0.447296 0)
(0.894396 0.447319 0)
(0.894394 0.447356 0)
(0.894371 0.447419 0)
(0.894309 0.447534 0)
(0.894188 0.44773 0)
(0.893992 0.448047 0)
(0.893709 0.448524 0)
(0.893342 0.449195 0)
(0.892906 0.450082 0)
(0.89243 0.451185 0)
(0.891952 0.452486 0)
(0.891517 0.453944 0)
(0.891165 0.455501 0)
(0.890933 0.457091 0)
(0.890847 0.458644 0)
(0.890922 0.460095 0)
(0.891159 0.461388 0)
(0.891551 0.462477 0)
(0.892082 0.463327 0)
(0.892727 0.46391 0)
(0.893455 0.46421 0)
(0.894231 0.464213 0)
(0.895018 0.463915 0)
(0.89577 0.463314 0)
(0.896443 0.462422 0)
(0.896993 0.461263 0)
(0.897386 0.459881 0)
(0.897601 0.458341 0)
(0.897638 0.456722 0)
(0.897515 0.455106 0)
(0.897266 0.453572 0)
(0.896932 0.452181 0)
(0.896554 0.450974 0)
(0.896169 0.449967 0)
(0.895804 0.449159 0)
(0.895477 0.448535 0)
(0.895199 0.44807 0)
(0.894971 0.447736 0)
(0.894792 0.447506 0)
(0.894656 0.447355 0)
(0.894557 0.447261 0)
(0.894488 0.447206 0)
(0.894443 0.447178 0)
(0.894415 0.447167 0)
(0.894399 0.447166 0)
(0.894391 0.447169 0)
(0.894389 0.447175 0)
(0.894389 0.44718 0)
(0.89439 0.447185 0)
(0.894392 0.44719 0)
(0.894394 0.447193 0)
(0.894396 0.447195 0)
(0.894397 0.447197 0)
(0.894397 0.447197 0)
(0.894398 0.447199 0)
(0.894399 0.447199 0)
(0.894399 0.4472 0)
(0.8944 0.4472 0)
(0.8944 0.4472 0)
(0.8944 0.4472 0)
(0.8944 0.4472 0)
(0.8944 0.4472 0)
(0.8944 0.4472 0)
(0.8944 0.4472 0)
(0.8944 0.4472 0)
(0.8944 0.4472 0)
(0.8944 0.4472 0)
(0.8944 0.4472 0)
(0.8944 0.4472 0)
(0.8944 0.4472 0)
(0.8944 0.4472 0)
(0.8944 0.4472 0)
(0.8944 0.4472 0)
(0.8944 0.4472 0)
(0.8944 0.4472 0)
(0.8944 0.4472 0)
(0.8944 0.4472 0)
(0.8944 0.4472 0)
(0.8944 0.4472 0)
(0.8944 0.4472 0)
(0.8944 0.4472 0)
(0.8944 0.4472 0)
(0.8944 0.4472 0)
(0.8944 0.4472 0)
(0.8944 0.4472 0)
(0.8944 0.4472 0)
(0.894399 0.447201 0)
(0.894399 0.447201 0)
(0.894398 0.447201 0)
(0.894396 0.447203 0)
(0.894394 0.447205 0)
(0.894389 0.447209 0)
(0.894385 0.447215 0)
(0.894378 0.447223 0)
(0.894372 0.447234 0)
(0.894365 0.447248 0)
(0.894362 0.447265 0)
(0.894361 0.447285 0)
(0.894364 0.447307 0)
(0.894368 0.447336 0)
(0.894367 0.447376 0)
(0.894345 0.447442 0)
(0.894284 0.447557 0)
(0.89416 0.447754 0)
(0.893946 0.448081 0)
(0.893622 0.448588 0)
(0.893181 0.449326 0)
(0.892633 0.450331 0)
(0.892008 0.451618 0)
(0.891354 0.453171 0)
(0.890725 0.454946 0)
(0.89018 0.456876 0)
(0.88977 0.458877 0)
(0.889534 0.460859 0)
(0.889497 0.46274 0)
(0.889667 0.464452 0)
(0.890038 0.46594 0)
(0.890596 0.467168 0)
(0.891317 0.468111 0)
(0.892173 0.468753 0)
(0.893129 0.469085 0)
(0.894149 0.469095 0)
(0.895189 0.468776 0)
(0.896201 0.468118 0)
(0.897129 0.467116 0)
(0.897912 0.465777 0)
(0.898498 0.464134 0)
(0.898849 0.462248 0)
(0.89895 0.460206 0)
(0.898819 0.458116 0)
(0.898497 0.456085 0)
(0.898039 0.454207 0)
(0.897506 0.45255 0)
(0.896955 0.45115 0)
(0.896428 0.450015 0)
(0.895954 0.449131 0)
(0.895549 0.448468 0)
(0.895219 0.44799 0)
(0.89496 0.447658 0)
(0.894764 0.447439 0)
(0.894623 0.447301 0)
(0.894525 0.447221 0)
(0.894461 0.447178 0)
(0.894421 0.44716 0)
(0.894399 0.447156 0)
(0.894388 0.44716 0)
(0.894384 0.447167 0)
(0.894384 0.447174 0)
(0.894386 0.447181 0)
(0.894389 0.447186 0)
(0.894392 0.447191 0)
(0.894394 0.447194 0)
(0.894396 0.447196 0)
(0.894396 0.447197 0)
(0.894398 0.447198 0)
(0.894399 0.447199 0)
(0.894399 0.447199 0)
(0.894399 0.4472 0)
(0.8944 0.4472 0)
(0.8944 0.4472 0)
(0.8944 0.4472 0)
(0.8944 0.4472 0)
(0.8944 0.4472 0)
(0.8944 0.4472 0)
(0.8944 0.4472 0)
(0.8944 0.4472 0)
(0.8944 0.4472 0)
(0.8944 0.4472 0)
(0.8944 0.4472 0)
(0.8944 0.4472 0)
(0.8944 0.4472 0)
(0.8944 0.4472 0)
(0.8944 0.4472 0)
(0.8944 0.4472 0)
(0.8944 0.4472 0)
(0.8944 0.4472 0)
(0.8944 0.4472 0)
(0.8944 0.4472 0)
(0.8944 0.4472 0)
(0.8944 0.4472 0)
(0.8944 0.4472 0)
(0.8944 0.4472 0)
(0.8944 0.4472 0)
(0.8944 0.4472 0)
(0.8944 0.4472 0)
(0.894399 0.4472 0)
(0.894399 0.447201 0)
(0.894398 0.447201 0)
(0.894397 0.447202 0)
(0.894394 0.447204 0)
(0.894391 0.447207 0)
(0.894385 0.447212 0)
(0.894379 0.44722 0)
(0.89437 0.447231 0)
(0.894361 0.447245 0)
(0.894352 0.447263 0)
(0.894346 0.447285 0)
(0.894343 0.447313 0)
(0.894341 0.447345 0)
(0.894336 0.447389 0)
(0.894316 0.447455 0)
(0.894259 0.447567 0)
(0.894137 0.447758 0)
(0.893915 0.448079 0)
(0.893561 0.448594 0)
(0.893053 0.44937 0)
(0.892393 0.450462 0)
(0.891606 0.451905 0)
(0.890746 0.453692 0)
(0.889884 0.455778 0)
(0.889097 0.458082 0)
(0.888457 0.460498 0)
(0.888018 0.462913 0)
(0.887818 0.465219 0)
(0.887872 0.467329 0)
(0.888174 0.469182 0)
(0.888708 0.470743 0)
(0.88945 0.471996 0)
(0.890372 0.472942 0)
(0.891444 0.473584 0)
(0.892634 0.473925 0)
(0.893908 0.473961 0)
(0.895224 0.473679 0)
(0.896533 0.473055 0)
(0.897772 0.472063 0)
(0.898864 0.470678 0)
(0.899731 0.468901 0)
(0.900306 0.466769 0)
(0.90055 0.464368 0)
(0.900466 0.461818 0)
(0.900096 0.459259 0)
(0.899511 0.456828 0)
(0.898798 0.454633 0)
(0.898037 0.452743 0)
(0.897297 0.451188 0)
(0.896624 0.449962 0)
(0.896046 0.449032 0)
(0.895573 0.448356 0)
(0.895202 0.447884 0)
(0.894922 0.447569 0)
(0.89472 0.447369 0)
(0.89458 0.44725 0)
(0.894488 0.447186 0)
(0.894431 0.447156 0)
(0.894399 0.447147 0)
(0.894384 0.44715 0)
(0.894378 0.447157 0)
(0.894378 0.447166 0)
(0.894381 0.447175 0)
(0.894385 0.447182 0)
(0.894389 0.447188 0)
(0.894392 0.447192 0)
(0.894394 0.447195 0)
(0.894395 0.447196 0)
(0.894397 0.447197 0)
(0.894398 0.447198 0)
(0.894399 0.447199 0)
(0.894399 0.447199 0)
(0.8944 0.4472 0)
(0.8944 0.4472 0)
(0.8944 0.4472 0)
(0.8944 0.4472 0)
(0.8944 0.4472 0)
(0.8944 0.4472 0)
(0.8944 0.4472 0)
(0.8944 0.4472 0)
(0.8944 0.4472 0)
(0.8944 0.4472 0)
(0.8944 0.4472 0)
(0.8944 0.4472 0)
(0.8944 0.4472 0)
(0.8944 0.4472 0)
(0.8944 0.4472 0)
(0.8944 0.4472 0)
(0.8944 0.4472 0)
(0.8944 0.4472 0)
(0.8944 0.4472 0)
(0.8944 0.4472 0)
(0.8944 0.4472 0)
(0.8944 0.4472 0)
(0.8944 0.4472 0)
(0.8944 0.4472 0)
(0.8944 0.4472 0)
(0.8944 0.4472 0)
(0.8944 0.4472 0)
(0.894399 0.447201 0)
(0.894399 0.447201 0)
(0.894398 0.447202 0)
(0.894395 0.447203 0)
(0.894392 0.447206 0)
(0.894387 0.44721 0)
(0.89438 0.447216 0)
(0.894371 0.447226 0)
(0.894359 0.44724 0)
(0.894347 0.447258 0)
(0.894335 0.447281 0)
(0.894325 0.44731 0)
(0.894317 0.447346 0)
(0.894307 0.447392 0)
(0.894285 0.447459 0)
(0.894233 0.447564 0)
(0.894117 0.447743 0)
(0.893899 0.448046 0)
(0.893531 0.448545 0)
(0.892975 0.449323 0)
(0.892213 0.450461 0)
(0.891264 0.452014 0)
(0.890181 0.453997 0)
(0.889051 0.456366 0)
(0.887975 0.459026 0)
(0.887051 0.461845 0)
(0.886359 0.464672 0)
(0.88595 0.467368 0)
(0.885844 0.46982 0)
(0.886037 0.471952 0)
(0.886502 0.473733 0)
(0.887208 0.475163 0)
(0.888123 0.476267 0)
(0.889221 0.477082 0)
(0.890477 0.477637 0)
(0.891868 0.477954 0)
(0.89337 0.478036 0)
(0.894953 0.477867 0)
(0.896573 0.47741 0)
(0.898168 0.476606 0)
(0.899647 0.475389 0)
(0.900902 0.473707 0)
(0.901826 0.471549 0)
(0.902337 0.468967 0)
(0.902406 0.466077 0)
(0.902061 0.463046 0)
(0.901383 0.460055 0)
(0.900484 0.457269 0)
(0.899481 0.454809 0)
(0.898477 0.452742 0)
(0.897547 0.451084 0)
(0.896739 0.44981 0)
(0.896071 0.448872 0)
(0.895545 0.44821 0)
(0.895148 0.447763 0)
(0.894861 0.447475 0)
(0.894662 0.447301 0)
(0.894531 0.447205 0)
(0.894449 0.447157 0)
(0.894403 0.44714 0)
(0.89438 0.44714 0)
(0.894371 0.447147 0)
(0.894371 0.447158 0)
(0.894374 0.447168 0)
(0.894379 0.447177 0)
(0.894384 0.447184 0)
(0.894389 0.447189 0)
(0.894392 0.447193 0)
(0.894393 0.447194 0)
(0.894396 0.447197 0)
(0.894397 0.447198 0)
(0.894398 0.447199 0)
(0.894399 0.447199 0)
(0.894399 0.4472 0)
(0.8944 0.4472 0)
(0.8944 0.4472 0)
(0.8944 0.4472 0)
(0.8944 0.4472 0)
(0.8944 0.4472 0)
(0.8944 0.4472 0)
(0.8944 0.4472 0)
(0.8944 0.4472 0)
(0.8944 0.4472 0)
(0.8944 0.4472 0)
(0.8944 0.4472 0)
(0.8944 0.4472 0)
(0.8944 0.4472 0)
(0.8944 0.4472 0)
(0.8944 0.4472 0)
(0.8944 0.4472 0)
(0.8944 0.4472 0)
(0.8944 0.4472 0)
(0.8944 0.4472 0)
(0.8944 0.4472 0)
(0.8944 0.4472 0)
(0.8944 0.4472 0)
(0.8944 0.4472 0)
(0.8944 0.4472 0)
(0.8944 0.4472 0)
(0.894399 0.4472 0)
(0.894399 0.447201 0)
(0.894398 0.447201 0)
(0.894397 0.447202 0)
(0.894394 0.447204 0)
(0.89439 0.447207 0)
(0.894382 0.447212 0)
(0.894374 0.447221 0)
(0.894361 0.447233 0)
(0.894346 0.44725 0)
(0.894329 0.447273 0)
(0.894314 0.447303 0)
(0.894297 0.44734 0)
(0.894281 0.447388 0)
(0.894257 0.447452 0)
(0.894207 0.447551 0)
(0.894103 0.447713 0)
(0.893897 0.447987 0)
(0.893533 0.448449 0)
(0.892954 0.449194 0)
(0.892118 0.450326 0)
(0.891021 0.451932 0)
(0.889713 0.454051 0)
(0.888291 0.456653 0)
(0.886884 0.459633 0)
(0.885627 0.462824 0)
(0.884632 0.466032 0)
(0.883973 0.469068 0)
(0.883678 0.471781 0)
(0.883735 0.474075 0)
(0.884105 0.475916 0)
(0.884736 0.477325 0)
(0.885584 0.478361 0)
(0.886614 0.479102 0)
(0.887811 0.479627 0)
(0.889166 0.48 0)
(0.890676 0.480258 0)
(0.892338 0.480412 0)
(0.894138 0.480445 0)
(0.89605 0.480303 0)
(0.89802 0.4799 0)
(0.899952 0.479121 0)
(0.901711 0.477848 0)
(0.903138 0.475994 0)
(0.904093 0.473542 0)
(0.904485 0.470572 0)
(0.904306 0.467249 0)
(0.903628 0.463795 0)
(0.902584 0.460438 0)
(0.901334 0.457371 0)
(0.900027 0.454721 0)
(0.898783 0.452548 0)
(0.897681 0.450847 0)
(0.896758 0.449575 0)
(0.896025 0.448665 0)
(0.895468 0.448042 0)
(0.895063 0.447635 0)
(0.894782 0.447385 0)
(0.894595 0.447242 0)
(0.894479 0.447168 0)
(0.894412 0.447137 0)
(0.894378 0.447131 0)
(0.894365 0.447137 0)
(0.894363 0.447148 0)
(0.894367 0.44716 0)
(0.894373 0.447171 0)
(0.894379 0.44718 0)
(0.894385 0.447186 0)
(0.89439 0.447191 0)
(0.894391 0.447193 0)
(0.894394 0.447196 0)
(0.894396 0.447197 0)
(0.894398 0.447198 0)
(0.894399 0.447199 0)
(0.894399 0.4472 0)
(0.8944 0.4472 0)
(0.8944 0.4472 0)
(0.8944 0.4472 0)
(0.8944 0.4472 0)
(0.8944 0.4472 0)
(0.8944 0.4472 0)
(0.8944 0.4472 0)
(0.8944 0.4472 0)
(0.8944 0.4472 0)
(0.8944 0.4472 0)
(0.8944 0.4472 0)
(0.8944 0.4472 0)
(0.8944 0.4472 0)
(0.8944 0.4472 0)
(0.8944 0.4472 0)
(0.8944 0.4472 0)
(0.8944 0.4472 0)
(0.8944 0.4472 0)
(0.8944 0.4472 0)
(0.8944 0.4472 0)
(0.8944 0.4472 0)
(0.8944 0.4472 0)
(0.8944 0.4472 0)
(0.8944 0.4472 0)
(0.8944 0.4472 0)
(0.894399 0.4472 0)
(0.894399 0.447201 0)
(0.894397 0.447201 0)
(0.894396 0.447203 0)
(0.894392 0.447205 0)
(0.894386 0.447209 0)
(0.894377 0.447215 0)
(0.894365 0.447227 0)
(0.894349 0.447241 0)
(0.894329 0.447262 0)
(0.894308 0.447291 0)
(0.894286 0.447328 0)
(0.894261 0.447375 0)
(0.894233 0.447438 0)
(0.894184 0.447528 0)
(0.894091 0.447671 0)
(0.893905 0.447912 0)
(0.893564 0.448322 0)
(0.892992 0.449001 0)
(0.892118 0.450075 0)
(0.890911 0.451663 0)
(0.889395 0.453842 0)
(0.887674 0.456607 0)
(0.885906 0.459849 0)
(0.88427 0.46337 0)
(0.882924 0.46692 0)
(0.881978 0.470247 0)
(0.881473 0.473143 0)
(0.881389 0.475478 0)
(0.881661 0.477209 0)
(0.882209 0.478376 0)
(0.882956 0.479078 0)
(0.883848 0.479445 0)
(0.884865 0.479617 0)
(0.886015 0.479715 0)
(0.887324 0.47983 0)
(0.888821 0.480013 0)
(0.89053 0.480275 0)
(0.892463 0.480592 0)
(0.894615 0.480902 0)
(0.896948 0.481097 0)
(0.899375 0.481024 0)
(0.901742 0.480499 0)
(0.903844 0.479344 0)
(0.905462 0.477441 0)
(0.906417 0.474784 0)
(0.906627 0.471497 0)
(0.906126 0.467811 0)
(0.905051 0.464014 0)
(0.903602 0.460382 0)
(0.901986 0.457128 0)
(0.900385 0.45438 0)
(0.898926 0.452179 0)
(0.897683 0.4505 0)
(0.896681 0.449278 0)
(0.895912 0.448429 0)
(0.895349 0.447866 0)
(0.894955 0.447512 0)
(0.894692 0.447305 0)
(0.894527 0.447193 0)
(0.894431 0.447142 0)
(0.89438 0.447126 0)
(0.894358 0.447128 0)
(0.894354 0.447139 0)
(0.894357 0.447152 0)
(0.894365 0.447165 0)
(0.894373 0.447175 0)
(0.89438 0.447183 0)
(0.894386 0.447189 0)
(0.894388 0.447191 0)
(0.894392 0.447195 0)
(0.894395 0.447197 0)
(0.894397 0.447198 0)
(0.894398 0.447199 0)
(0.894399 0.447199 0)
(0.894399 0.4472 0)
(0.8944 0.4472 0)
(0.8944 0.4472 0)
(0.8944 0.4472 0)
(0.8944 0.4472 0)
(0.8944 0.4472 0)
(0.8944 0.4472 0)
(0.8944 0.4472 0)
(0.8944 0.4472 0)
(0.8944 0.4472 0)
(0.8944 0.4472 0)
(0.8944 0.4472 0)
(0.8944 0.4472 0)
(0.8944 0.4472 0)
(0.8944 0.4472 0)
(0.8944 0.4472 0)
(0.8944 0.4472 0)
(0.8944 0.4472 0)
(0.8944 0.4472 0)
(0.8944 0.4472 0)
(0.8944 0.4472 0)
(0.8944 0.4472 0)
(0.8944 0.4472 0)
(0.8944 0.4472 0)
(0.894399 0.4472 0)
(0.894399 0.4472 0)
(0.894399 0.447201 0)
(0.894396 0.447202 0)
(0.894394 0.447203 0)
(0.894389 0.447206 0)
(0.894381 0.447212 0)
(0.89437 0.447219 0)
(0.894355 0.447232 0)
(0.894333 0.44725 0)
(0.894309 0.447276 0)
(0.894281 0.447311 0)
(0.89425 0.447356 0)
(0.894215 0.447415 0)
(0.894166 0.447498 0)
(0.894081 0.447623 0)
(0.89392 0.447827 0)
(0.893614 0.448177 0)
(0.893078 0.44877 0)
(0.892215 0.449739 0)
(0.89095 0.451236 0)
(0.889273 0.453383 0)
(0.887271 0.456218 0)
(0.885126 0.459646 0)
(0.88307 0.463444 0)
(0.881325 0.467298 0)
(0.880052 0.470878 0)
(0.879319 0.473902 0)
(0.879102 0.476186 0)
(0.879303 0.477665 0)
(0.879791 0.478392 0)
(0.880441 0.478509 0)
(0.881161 0.478206 0)
(0.88191 0.477692 0)
(0.8827 0.47716 0)
(0.883586 0.476766 0)
(0.884646 0.476611 0)
(0.885955 0.476745 0)
(0.887571 0.477168 0)
(0.889533 0.477845 0)
(0.891855 0.478703 0)
(0.894521 0.47963 0)
(0.897459 0.480454 0)
(0.900517 0.480949 0)
(0.903452 0.480853 0)
(0.905968 0.479935 0)
(0.907777 0.478062 0)
(0.908683 0.475259 0)
(0.908636 0.471716 0)
(0.907741 0.467745 0)
(0.906222 0.463702 0)
(0.90435 0.459902 0)
(0.902383 0.456569 0)
(0.900521 0.45382 0)
(0.898892 0.451672 0)
(0.897555 0.450076 0)
(0.896514 0.448946 0)
(0.895743 0.448184 0)
(0.895199 0.447696 0)
(0.894833 0.447402 0)
(0.8946 0.447238 0)
(0.894462 0.447157 0)
(0.894388 0.447126 0)
(0.894354 0.447122 0)
(0.894345 0.447131 0)
(0.894347 0.447144 0)
(0.894356 0.447158 0)
(0.894366 0.44717 0)
(0.894375 0.447179 0)
(0.894382 0.447186 0)
(0.894385 0.447189 0)
(0.89439 0.447193 0)
(0.894394 0.447196 0)
(0.894396 0.447198 0)
(0.894398 0.447199 0)
(0.894399 0.447199 0)
(0.894399 0.4472 0)
(0.8944 0.4472 0)
(0.8944 0.4472 0)
(0.8944 0.4472 0)
(0.8944 0.4472 0)
(0.8944 0.4472 0)
(0.8944 0.4472 0)
(0.8944 0.4472 0)
(0.8944 0.4472 0)
(0.8944 0.4472 0)
(0.8944 0.4472 0)
(0.8944 0.4472 0)
(0.8944 0.4472 0)
(0.8944 0.4472 0)
(0.8944 0.4472 0)
(0.8944 0.4472 0)
(0.8944 0.4472 0)
(0.8944 0.4472 0)
(0.8944 0.4472 0)