/*--------------------------------*- C++ -*----------------------------------*\
  =========                 |
  \\      /  F ield         | OpenFOAM: The Open Source CFD Toolbox
   \\    /   O peration     | Website:  https://openfoam.org
    \\  /    A nd           | Version:  6
     \\/     M anipulation  |
\*---------------------------------------------------------------------------*/
FoamFile
{
    version     2.0;
    format      ascii;
    class       volVectorField;
    location    "4.82";
    object      U;
}
// * * * * * * * * * * * * * * * * * * * * * * * * * * * * * * * * * * * * * //

dimensions      [0 1 -1 0 0 0 0];

internalField   nonuniform List<vector> 
4214
(
(5.82886 0.0900895 3.42798e-20)
(6.14718 0.131604 -7.51066e-22)
(6.24496 0.172983 -6.05114e-22)
(6.2815 0.217085 -2.20831e-20)
(6.30931 0.277088 2.03977e-20)
(6.33643 0.348673 -4.54576e-23)
(6.37037 0.436894 -1.54111e-22)
(6.41806 0.554109 -8.54307e-22)
(6.4797 0.716543 -1.97812e-22)
(6.53997 0.930357 -1.64538e-19)
(6.57199 1.19684 1.67877e-19)
(6.55112 1.51357 1.71289e-19)
(6.42928 1.86268 -1.76391e-19)
(6.16527 2.22047 0)
(5.7499 2.56088 -8.50622e-20)
(5.20241 2.85285 1.88103e-19)
(4.57354 3.07682 -1.97461e-19)
(3.92118 3.2234 -1.13001e-19)
(3.29965 3.27303 1.0705e-19)
(2.76049 3.23463 9.39358e-20)
(2.36655 3.10493 0)
(2.14883 2.90547 0)
(2.07192 2.68674 -1.15322e-20)
(2.09167 2.51381 0)
(2.19374 2.44844 0)
(2.38381 2.47742 -1.16593e-20)
(2.6897 2.57228 8.89577e-21)
(3.10403 2.66661 0)
(3.57005 2.67677 -1.71124e-19)
(4.04971 2.55218 1.75917e-19)
(4.55724 2.32217 0)
(5.09868 2.05141 -4.39212e-19)
(5.59058 1.77301 4.31894e-19)
(5.93845 1.48309 -2.58539e-19)
(6.11136 1.18879 2.64295e-19)
(6.18452 0.915128 0)
(6.2151 0.67677 0)
(6.22731 0.471238 0)
(6.22678 0.279633 0)
(6.15895 0.0983508 0)
(5.9423 -0.0484598 0)
(6.29178 0.0563839 -2.05464e-19)
(6.34902 0.159276 2.26997e-19)
(6.37527 0.207574 5.82627e-22)
(6.4006 0.241205 -1.77803e-21)
(6.44687 0.29431 0)
(6.51489 0.369938 4.49617e-23)
(6.60836 0.475932 0)
(6.7362 0.629927 -1.05734e-19)
(6.88959 0.846177 1.08935e-19)
(7.03301 1.12476 0)
(7.11482 1.45448 -4.35745e-20)
(7.07898 1.81622 -7.54492e-20)
(6.8811 2.18416 -6.72351e-19)
(6.50024 2.53135 7.00024e-19)
(5.95067 2.83456 -1.0754e-18)
(5.27915 3.07673 1.22344e-18)
(4.55066 3.25263 0)
(3.8156 3.38942 6.16621e-19)
(3.14225 3.4082 -1.13944e-19)
(2.59257 3.37618 -5.08964e-19)
(2.18765 3.27987 0)
(1.93961 3.10916 -1.09751e-19)
(1.87059 2.88746 6.29005e-20)
(1.94932 2.66512 -3.59703e-20)
(2.1248 2.50122 0)
(2.33909 2.4282 1.23347e-20)
(2.58637 2.428 -9.34844e-21)
(2.87512 2.45649 2.3517e-19)
(3.18921 2.4609 4.03437e-20)
(3.5194 2.39468 3.15921e-19)
(3.89703 2.24234 -5.90144e-19)
(4.37131 2.04525 6.32835e-20)
(4.90797 1.83765 -4.84913e-19)
(5.38304 1.61289 4.0839e-19)
(5.69863 1.36078 -3.29604e-19)
(5.86326 1.09875 3.07298e-19)
(5.94359 0.853938 0)
(5.98685 0.638228 -8.01733e-20)
(6.01693 0.439855 0)
(6.03535 0.262351 4.56597e-19)
(6.03244 0.150911 -2.89671e-19)
(6.3208 0.113082 -5.61586e-19)
(6.35939 0.150718 2.51553e-19)
(6.41051 0.175709 2.31947e-19)
(6.46873 0.208279 -2.30811e-19)
(6.55102 0.261541 -2.08704e-19)
(6.66949 0.343258 2.20526e-19)
(6.8312 0.463045 0)
(7.03254 0.631681 0)
(7.23686 0.854968 0)
(7.38031 1.12362 0)
(7.41068 1.4182 -8.68125e-19)
(7.28802 1.71646 1.12567e-18)
(6.97998 2.00012 -1.93677e-18)
(6.49295 2.25779 1.58359e-18)
(5.86487 2.48109 -6.59528e-19)
(5.15476 2.66987 1.98185e-18)
(4.42181 2.83879 -2.0915e-18)
(3.70445 3.02167 -5.30469e-19)
(3.05131 3.14674 -7.4139e-19)
(2.51199 3.15915 4.37886e-19)
(2.10512 3.08509 -8.89648e-20)
(1.8466 2.95164 2.11663e-19)
(1.75152 2.78901 0)
(1.81472 2.61568 -9.2696e-20)
(1.99844 2.46386 1.36855e-19)
(2.23981 2.36607 -8.49212e-20)
(2.50946 2.32466 0)
(2.79987 2.31163 4.22147e-20)
(3.09696 2.28979 4.05348e-20)
(3.39018 2.21848 -1.01678e-18)
(3.70608 2.08785 9.87141e-19)
(4.10208 1.92659 -4.83213e-20)
(4.58328 1.76484 -1.28161e-19)
(5.06001 1.59333 0)
(5.42451 1.38818 1.861e-19)
(5.64964 1.15426 0)
(5.77465 0.920788 2.68259e-19)
(5.84575 0.710014 -6.99457e-20)
(5.88437 0.519234 1.21689e-18)
(5.89462 0.339823 -8.03748e-21)
(5.87991 0.194465 1.88017e-20)
(6.37415 0.0889391 0)
(6.42819 0.110399 0)
(6.49644 0.126054 -5.53478e-21)
(6.5883 0.150976 -2.93696e-19)
(6.71967 0.193824 5.0361e-20)
(6.90928 0.266395 2.49212e-19)
(7.14969 0.374857 0)
(7.41055 0.521323 1.8525e-20)
(7.61829 0.70093 9.12632e-19)
(7.69141 0.89814 -1.14617e-18)
(7.62734 1.09711 2.03015e-19)
(7.38878 1.28051 -7.83355e-19)
(6.96185 1.4491 2.22495e-18)
(6.39407 1.61489 -2.52793e-18)
(5.72813 1.78031 -2.07056e-19)
(5.01096 1.95518 -1.79317e-18)
(4.29331 2.15822 1.88221e-18)
(3.61825 2.36181 1.0567e-18)
(2.99414 2.53986 7.96178e-19)
(2.44063 2.66982 1.78819e-18)
(2.00745 2.71642 -1.36218e-19)
(1.73213 2.67902 6.76777e-19)
(1.62408 2.58455 0)
(1.68827 2.45966 1.76652e-19)
(1.86813 2.34385 5.80092e-20)
(2.1144 2.25626 -1.25618e-19)
(2.38359 2.19976 1.07318e-19)
(2.65447 2.1595 0)
(2.9181 2.11545 -6.67937e-20)
(3.16713 2.03876 -1.31434e-18)
(3.42469 1.91893 -6.43206e-20)
(3.75406 1.78031 -1.79698e-20)
(4.18866 1.6535 1.14655e-18)
(4.6684 1.53245 2.89035e-19)
(5.08086 1.38183 -1.86073e-19)
(5.36726 1.18798 6.99676e-19)
(5.54477 0.97426 -5.59013e-19)
(5.65602 0.77082 -5.38426e-19)
(5.72841 0.586249 -4.69115e-19)
(5.77436 0.416196 0)
(5.78234 0.283293 0)
(6.42225 0.0401193 1.21842e-20)
(6.49529 0.0428148 0)
(6.58458 0.0345815 3.7795e-19)
(6.71922 0.0369213 -4.81698e-20)
(6.91395 0.0531625 -5.82265e-19)
(7.17395 0.088514 2.54131e-19)
(7.4477 0.145688 -1.69394e-20)
(7.69668 0.218358 -1.89931e-20)
(7.7934 0.295303 1.73712e-19)
(7.77383 0.358299 2.08514e-19)
(7.57623 0.397351 -2.33366e-18)
(7.17538 0.427112 2.47842e-18)
(6.66382 0.476917 6.59582e-19)
(6.08377 0.572124 0)
(5.45264 0.71871 9.71448e-19)
(4.78874 0.917279 1.0771e-18)
(4.13293 1.16087 2.5315e-18)
(3.51925 1.41608 -4.84743e-18)
(2.93733 1.66832 1.24447e-18)
(2.40075 1.90444 -3.05021e-18)
(1.95794 2.0831 0)
(1.65855 2.17621 -5.7404e-19)
(1.53443 2.17922 0)
(1.58138 2.13262 -1.42009e-19)
(1.74261 2.08607 1.29825e-19)
(1.97664 2.04776 -8.4865e-20)
(2.2424 2.0106 9.3425e-21)
(2.51122 1.96728 0)
(2.76665 1.91151 0)
(2.99659 1.8275 1.5682e-18)
(3.21792 1.71112 -1.54062e-18)
(3.49021 1.5864 0)
(3.86519 1.48497 1.58983e-18)
(4.31686 1.40582 -1.61079e-18)
(4.74798 1.30951 -3.05319e-19)
(5.0805 1.16505 -9.01331e-19)
(5.306 0.983971 1.6839e-18)
(5.45488 0.798522 -1.4449e-18)
(5.55688 0.624076 8.77015e-19)
(5.63324 0.458341 0)
(5.66803 0.325872 0)
(6.46804 -0.0483057 4.11299e-19)
(6.55981 -0.070871 -4.30635e-19)
(6.6758 -0.115165 -4.36374e-19)
(6.86018 -0.152879 4.797e-19)
(7.11301 -0.185523 -1.98903e-20)
(7.40338 -0.222216 2.17884e-20)
(7.6326 -0.257868 6.09601e-19)
(7.81744 -0.310683 -1.86987e-18)
(7.78575 -0.400179 -1.29271e-18)
(7.55814 -0.517788 2.35673e-18)
(7.14788 -0.639287 4.71571e-19)
(6.6816 -0.729266 0)
(6.19356 -0.752784 3.72395e-18)
(5.67673 -0.687385 -3.95612e-18)
(5.12721 -0.534753 2.47956e-18)
(4.55147 -0.308507 -5.3217e-18)
(3.98153 -0.0316519 1.4811e-18)
(3.43569 0.275703 1.37863e-18)
(2.90457 0.604562 1.36583e-18)
(2.39817 0.934843 1.85988e-19)
(1.96193 1.22798 -5.41179e-19)
(1.6547 1.43894 -6.4159e-19)
(1.5082 1.56171 1.00693e-18)
(1.53291 1.62742 -7.37435e-19)
(1.65105 1.67229 -1.06135e-19)
(1.85199 1.70824 5.13478e-19)
(2.09546 1.72032 -5.31997e-19)
(2.34997 1.70173 7.56283e-19)
(2.59504 1.65421 -7.30287e-19)
(2.81393 1.57397 0)
(3.01577 1.4631 5.2242e-20)
(3.25235 1.34937 -1.77101e-18)
(3.58041 1.26871 1.64354e-18)
(3.9965 1.22469 0)
(4.42655 1.17815 -9.85188e-19)
(4.78825 1.08601 1.80124e-18)
(5.05454 0.945681 8.25004e-20)
(5.24105 0.787149 3.77895e-19)
(5.37571 0.630853 0)
(5.48309 0.477904 -6.18062e-19)
(5.54394 0.351861 5.5362e-19)
(6.49355 -0.177122 -3.57084e-21)
(6.6006 -0.234676 3.56705e-20)
(6.73882 -0.333546 -4.99878e-19)
(6.95425 -0.437165 4.54508e-19)
(7.21823 -0.545662 -1.64275e-19)
(7.45683 -0.678702 3.49821e-19)
(7.63277 -0.851571 -1.96979e-19)
(7.50756 -1.06005 0)
(7.21051 -1.30327 2.59267e-18)
(6.81522 -1.55896 -2.49555e-18)
(6.41402 -1.77934 3.31183e-18)
(6.03403 -1.93077 -2.50836e-18)
(5.64952 -1.9919 -2.16172e-18)
(5.23431 -1.94984 -4.77024e-19)
(4.7793 -1.80599 7.4229e-18)
(4.2928 -1.5797 7.47741e-20)
(3.80692 -1.2959 -3.66649e-20)
(3.35116 -0.964923 -4.70752e-18)
(2.90639 -0.587016 -4.6849e-18)
(2.47261 -0.193633 -1.79968e-18)
(2.07314 0.176083 7.28629e-20)
(1.76211 0.492267 2.20988e-19)
(1.56657 0.754634 -6.4723e-19)
(1.534 0.951037 -3.297e-19)
(1.61231 1.10311 2.47413e-19)
(1.76202 1.22395 0)
(1.96559 1.30092 -6.49379e-19)
(2.19638 1.32982 6.31867e-19)
(2.42702 1.31256 -9.2645e-19)
(2.63715 1.25115 8.78485e-19)
(2.82927 1.15642 1.99455e-18)
(3.04566 1.06154 1.05454e-19)
(3.3404 1.005 -2.29018e-18)
(3.72194 0.993732 0)
(4.13648 0.991116 0)
(4.5097 0.949627 6.61917e-19)
(4.80413 0.854715 -1.09731e-18)
(5.02218 0.730271 0)
(5.18707 0.598609 -8.95856e-19)
(5.32326 0.464258 -1.02222e-19)
(5.41047 0.349154 5.48097e-19)
(6.47802 -0.344992 1.21965e-18)
(6.59105 -0.449626 -1.30323e-18)
(6.73521 -0.613882 -4.07411e-20)
(6.93223 -0.79594 7.75005e-20)
(7.14411 -1.00448 -1.46648e-19)
(7.1849 -1.24106 3.08729e-20)
(7.02472 -1.52095 5.27909e-19)
(6.69127 -1.84206 -4.90437e-19)
(6.30408 -2.17854 -2.91733e-19)
(5.95319 -2.49781 -1.49814e-18)
(5.65208 -2.76946 -2.12549e-19)
(5.38166 -2.96583 -1.10839e-18)
(5.1076 -3.06752 -5.31584e-18)
(4.79752 -3.06056 3.77436e-18)
(4.4363 -2.94445 2.18194e-18)
(4.03429 -2.74342 2.7603e-18)
(3.62493 -2.4878 -2.94269e-18)
(3.25002 -2.17627 3.24813e-18)
(2.89101 -1.79614 7.57934e-19)
(2.53858 -1.37062 -1.01829e-18)
(2.20458 -0.931794 5.25121e-19)
(1.91087 -0.522602 9.45023e-19)
(1.69569 -0.15716 0)
(1.59803 0.153305 4.48269e-19)
(1.62081 0.406326 2.35705e-19)
(1.71703 0.607111 1.60618e-20)
(1.871 0.750151 0)
(2.0647 0.836285 6.7193e-19)
(2.27173 0.865873 -1.03535e-18)
(2.46942 0.839944 -1.10858e-18)
(2.65637 0.776466 1.0424e-18)
(2.86573 0.715305 2.61227e-19)
(3.14174 0.694374 4.85238e-19)
(3.49594 0.718834 0)
(3.88808 0.7554 -1.67395e-18)
(4.25845 0.759064 7.52303e-19)
(4.56765 0.709831 -6.03446e-19)
(4.80909 0.62403 1.07553e-18)
(4.99987 0.523102 -8.81057e-20)
(5.1608 0.414404 -1.00925e-19)
(5.27253 0.316258 0)
(6.38943 -0.536942 0)
(6.49287 -0.697074 0)
(6.61082 -0.923328 0)
(6.7292 -1.16994 0)
(6.72984 -1.45139 9.03904e-20)
(6.54217 -1.76028 -5.3029e-19)
(6.19464 -2.10079 6.37928e-19)
(5.7957 -2.46888 5.4212e-19)
(5.45199 -2.83539 -2.19518e-19)
(5.19148 -3.17236 0)
(4.9931 -3.45787 8.45564e-19)
(4.81973 -3.67508 1.18353e-18)
(4.63617 -3.81707 0)
(4.41491 -3.861 0)
(4.14145 -3.80065 -1.27947e-19)
(3.82271 -3.6501 -1.58074e-19)
(3.48364 -3.44907 2.4959e-18)
(3.15526 -3.18386 -2.71281e-18)
(2.84969 -2.83793 0)
(2.54831 -2.43146 3.14648e-18)
(2.26467 -1.98289 -1.17948e-18)
(2.01387 -1.5236 1.63044e-18)
(1.81216 -1.09304 1.43906e-18)
(1.69309 -0.709138 6.15304e-19)
(1.67143 -0.383894 -8.88901e-20)
(1.72013 -0.116392 -1.1244e-19)
(1.82653 0.0884565 -1.55986e-19)
(1.97544 0.230443 1.00933e-18)
(2.1486 0.310601 -5.52395e-19)
(2.32716 0.333591 6.38649e-20)
(2.5101 0.320464 -6.64899e-20)
(2.7205 0.311122 -2.66856e-19)
(2.9889 0.339827 2.65328e-19)
(3.32249 0.406422 5.03951e-19)
(3.69053 0.47883 9.31464e-19)
(4.04724 0.52043 1.62183e-18)
(4.35846 0.513395 0)
(4.61348 0.467343 1.19476e-18)
(4.82387 0.400719 -1.09641e-18)
(5.00404 0.323128 8.29685e-19)
(5.13798 0.247787 0)
(6.20665 -0.724555 0)
(6.27477 -0.934235 0)
(6.32457 -1.19559 1.24822e-18)
(6.30832 -1.46878 -9.46583e-19)
(6.11005 -1.77436 1.2175e-18)
(5.74509 -2.10086 -9.27332e-19)
(5.32721 -2.44534 -1.22136e-18)
(4.96594 -2.80897 5.20799e-19)
(4.71336 -3.17028 2.22782e-19)
(4.55708 -3.50352 4.31102e-19)
(4.45461 -3.78848 -1.91225e-18)
(4.363 -4.01537 1.27905e-18)
(4.25349 -4.1708 0)
(4.10769 -4.26433 1.23517e-18)
(3.91555 -4.28353 1.86256e-18)
(3.67716 -4.21976 -4.33853e-18)
(3.40571 -4.08766 -1.45018e-18)
(3.11897 -3.893 2.78828e-19)
(2.84676 -3.62498 2.08774e-18)
(2.58519 -3.27736 -7.23311e-19)
(2.33248 -2.87461 1.26582e-18)
(2.10847 -2.43643 -1.68472e-18)
(1.9318 -1.99248 -1.21039e-18)
(1.81529 -1.57725 -1.01253e-18)
(1.76567 -1.21202 9.1671e-19)
(1.77621 -0.900015 -8.23165e-20)
(1.83977 -0.64669 2.23469e-19)
(1.94412 -0.455689 6.12059e-19)
(2.07818 -0.325725 2.50937e-19)
(2.23354 -0.246919 -1.97969e-18)
(2.41121 -0.194616 1.00455e-18)
(2.62475 -0.135883 -2.73e-19)
(2.89017 -0.0479019 -2.49428e-18)
(3.20659 0.0638499 4.12734e-18)
(3.54968 0.169404 -9.37412e-19)
(3.88557 0.241819 -2.59184e-18)
(4.18861 0.270872 0)
(4.44808 0.262673 0)
(4.67095 0.231556 0)
(4.86345 0.188138 1.90373e-18)
(5.01525 0.140319 -2.64963e-18)
(5.94028 -0.865801 0)
(5.94224 -1.094 -1.86045e-18)
(5.89217 -1.34763 1.12497e-18)
(5.73825 -1.60214 8.58493e-20)
(5.39815 -1.88154 0)
(4.9582 -2.18255 -3.89049e-19)
(4.55974 -2.50498 8.15674e-19)
(4.28074 -2.85507 2.38607e-19)
(4.12828 -3.21205 0)
(4.06536 -3.548 0)
(4.04298 -3.84261 0)
(4.02061 -4.08325 -8.95685e-19)
(3.97135 -4.26018 7.06126e-19)
(3.88242 -4.37294 -1.33258e-18)
(3.75222 -4.42248 -1.53716e-18)
(3.58082 -4.43657 1.02026e-18)
(3.37241 -4.3953 -9.71658e-19)
(3.13744 -4.28244 0)
(2.89865 -4.10901 0)
(2.67244 -3.85611 -2.27142e-18)
(2.45636 -3.53472 0)
(2.25822 -3.16463 -1.72682e-18)
(2.09523 -2.76702 7.61277e-19)
(1.98043 -2.36961 -3.80437e-19)
(1.91426 -1.99998 -1.07437e-19)
(1.89391 -1.67268 -4.84481e-19)
(1.91786 -1.39312 -3.50686e-19)
(1.98284 -1.16511 4.29871e-19)
(2.08258 -0.986959 0)
(2.21595 -0.847173 0)
(2.38587 -0.724459 -2.24664e-18)
(2.59843 -0.59585 2.61152e-18)
(2.85628 -0.450345 1.9896e-18)
(3.15258 -0.298464 -2.58839e-18)
(3.46848 -0.164717 4.91556e-19)
(3.77934 -0.0672221 0)
(4.06736 -0.00948918 0)
(4.32418 0.0153036 -1.37802e-18)
(4.55181 0.0185714 3.64535e-18)
(4.75002 0.0103534 -2.19239e-18)
(4.91475 -0.00630887 9.02673e-19)
(5.62492 -0.904876 -1.49176e-18)
(5.55429 -1.10471 -4.65604e-20)
(5.4034 -1.325 -1.56097e-18)
(5.14148 -1.53429 2.21788e-18)
(4.74229 -1.75417 6.23089e-19)
(4.29764 -2.01054 6.45356e-19)
(3.94491 -2.31037 -1.53921e-18)
(3.73677 -2.66245 8.27693e-19)
(3.65995 -3.03909 8.80902e-19)
(3.66788 -3.40352 -1.15528e-19)
(3.70992 -3.72748 4.78156e-19)
(3.74686 -3.99572 -8.16575e-19)
(3.75371 -4.20109 1.21944e-18)
(3.71993 -4.34307 -9.86657e-19)
(3.6426 -4.42888 2.06946e-18)
(3.52259 -4.46527 2.42052e-18)
(3.36777 -4.46931 -8.10245e-19)
(3.18749 -4.41593 -1.23094e-18)
(2.99275 -4.31706 -1.0369e-18)
(2.80191 -4.1546 3.95365e-18)
(2.62123 -3.9276 0)
(2.45404 -3.6479 -2.79498e-19)
(2.30752 -3.33076 -6.7807e-20)
(2.19215 -2.99498 -2.49384e-19)
(2.11428 -2.66027 2.27655e-19)
(2.07275 -2.34558 5.14748e-19)
(2.06871 -2.06241 0)
(2.10363 -1.81274 5.37968e-19)
(2.17837 -1.59439 -4.2939e-19)
(2.29419 -1.39924 9.72026e-19)
(2.4528 -1.21452 -1.97482e-18)
(2.65418 -1.0295 -1.53034e-18)
(2.89427 -0.843165 8.82591e-20)
(3.16384 -0.665998 -1.13412e-19)
(3.44847 -0.513408 1.45451e-18)
(3.73198 -0.396523 0)
(4.00174 -0.315987 -8.18567e-19)
(4.25115 -0.264233 -7.24914e-19)
(4.47711 -0.230826 0)
(4.6759 -0.206352 -1.12549e-18)
(4.8487 -0.191094 -2.91189e-18)
(5.30195 -0.803891 1.65553e-18)
(5.16972 -0.955596 -1.84837e-20)
(4.9588 -1.11749 0)
(4.63398 -1.27262 -1.26948e-18)
(4.21129 -1.43063 2.83014e-18)
(3.77795 -1.63263 -3.64278e-18)
(3.45168 -1.91857 0)
(3.28099 -2.29086 -5.80755e-19)
(3.24679 -2.71106 -1.34425e-18)
(3.29994 -3.12693 8.65227e-19)
(3.39134 -3.5006 0)
(3.48121 -3.81279 0)
(3.54506 -4.05727 3.2541e-19)
(3.57168 -4.23448 -1.35129e-18)
(3.55683 -4.35103 -1.10034e-18)
(3.49539 -4.42092 0)
(3.39197 -4.44331 -1.30939e-18)
(3.2623 -4.41471 2.27749e-18)
(3.11231 -4.35085 -4.38699e-19)
(2.95669 -4.24159 -1.8761e-18)
(2.80713 -4.0859 0)
(2.6694 -3.88809 1.89094e-19)
(2.54642 -3.65367 3.46423e-19)
(2.44209 -3.3934 -3.47719e-19)
(2.36312 -3.11816 3.94805e-19)
(2.31276 -2.83897 0)
(2.29422 -2.5702 1.20634e-19)
(2.31174 -2.31618 3.31663e-19)
(2.36889 -2.07628 -5.11523e-19)
(2.46817 -1.84747 0)
(2.60932 -1.62614 0)
(2.7893 -1.41114 0)
(3.00177 -1.20659 0)
(3.23874 -1.02103 0)
(3.49045 -0.862846 4.74516e-19)
(3.74579 -0.735379 0)
(3.99633 -0.636901 8.36449e-19)
(4.23535 -0.562414 7.4087e-19)
(4.45593 -0.503005 0)
(4.65283 -0.45076 2.28844e-18)
(4.83032 -0.407841 1.02525e-18)
(5.0441 -0.572638 -1.90839e-18)
(4.86825 -0.682056 2.547e-18)
(4.61984 -0.790501 3.19274e-18)
(4.27327 -0.878732 -2.74546e-18)
(3.83813 -0.962044 -1.5537e-18)
(3.39585 -1.10447 2.42494e-18)
(3.05487 -1.36512 -1.70529e-18)
(2.87304 -1.7493 0)
(2.84141 -2.21387 5.81508e-19)
(2.91295 -2.70117 -1.09996e-18)
(3.03906 -3.1603 7.09477e-19)
(3.17613 -3.55246 0)
(3.29617 -3.86523 -1.01452e-19)
(3.38466 -4.0951 0)
(3.43725 -4.24869 9.13529e-19)
(3.4473 -4.3479 0)
(3.41007 -4.39344 1.93756e-18)
(3.34103 -4.38802 3.88767e-19)
(3.24078 -4.33537 -3.81702e-19)
(3.12526 -4.24055 8.92801e-19)
(3.00799 -4.11598 -9.45114e-20)
(2.89807 -3.96285 2.50848e-19)
(2.80062 -3.78532 0)
(2.7173 -3.58482 0)
(2.65045 -3.36583 -7.72129e-19)
(2.60454 -3.13029 0)
(2.58341 -2.88866 -4.97078e-20)
(2.59248 -2.64719 8.21605e-20)
(2.63585 -2.40987 5.71581e-20)
(2.71703 -2.17723 8.22525e-19)
(2.83528 -1.9513 -1.70106e-18)
(2.98734 -1.73525 6.41735e-19)
(3.16784 -1.53418 -2.04874e-18)
(3.37092 -1.35537 1.86414e-18)
(3.58988 -1.20098 9.73904e-19)
(3.81733 -1.07089 -1.73724e-18)
(4.0489 -0.961269 2.38273e-18)
(4.27608 -0.869427 -2.88891e-18)
(4.4902 -0.788139 1.30765e-18)
(4.68472 -0.71122 1.10051e-18)
(4.86344 -0.642926 -1.16295e-18)
(4.87734 -0.287416 1.25452e-18)
(4.69162 -0.332785 0)
(4.43652 -0.375404 2.02985e-18)
(4.08427 -0.399304 -2.09003e-18)
(3.64113 -0.410102 3.11607e-20)
(3.16804 -0.473172 -1.77709e-18)
(2.77055 -0.670999 0)
(2.52772 -1.03675 -8.16755e-19)
(2.45057 -1.53897 1.10501e-18)
(2.50803 -2.11769 -7.22196e-19)
(2.6505 -2.69179 0)
(2.8276 -3.19754 1.22479e-19)
(3.00102 -3.61087 -7.03296e-19)
(3.1481 -3.92918 0)
(3.25863 -4.14393 -8.06901e-19)
(3.33719 -4.28984 0)
(3.37876 -4.36762 -1.27615e-18)
(3.38193 -4.3888 1.06424e-18)
(3.35218 -4.35299 -1.05744e-18)
(3.29101 -4.26006 7.09631e-19)
(3.21745 -4.14353 0)
(3.13883 -4.00107 5.68852e-19)
(3.06706 -3.84611 1.56285e-19)
(3.00495 -3.67362 0)
(2.95418 -3.48745 5.3834e-19)
(2.91954 -3.28537 0)
(2.90213 -3.07215 -4.69542e-20)
(2.90926 -2.85387 3.01119e-19)
(2.94263 -2.63567 -8.71707e-19)
(3.0066 -2.42166 5.01206e-19)
(3.10112 -2.21278 0)
(3.2246 -2.01568 2.27791e-19)
(3.37455 -1.83201 4.23379e-19)
(3.5464 -1.66868 0)
(3.73683 -1.5226 4.61097e-19)
(3.94031 -1.3942 7.94289e-19)
(4.1541 -1.27845 -1.53299e-18)
(4.36945 -1.17448 0)
(4.57745 -1.07665 0)
(4.7707 -0.978669 0)
(4.9491 -0.885578 2.96802e-18)
(4.83872 0.0366043 2.23589e-18)
(4.64708 0.0487136 0)
(4.39527 0.0627617 0)
(4.05991 0.0919032 0)
(3.60852 0.155562 8.7797e-19)
(3.11186 0.188573 9.52872e-19)
(2.62391 0.0981749 -8.97372e-19)
(2.28553 -0.206079 1.75412e-18)
(2.12214 -0.71753 5.76069e-19)
(2.11595 -1.34528 -9.66842e-19)
(2.26073 -2.04566 2.49658e-19)
(2.46351 -2.68739 5.4916e-20)
(2.68816 -3.23502 3.25307e-19)
(2.90295 -3.69906 7.73704e-19)
(3.07009 -4.01738 8.80406e-19)
(3.19867 -4.22923 0)
(3.30665 -4.36524 3.39031e-19)
(3.36861 -4.41495 -3.54989e-19)
(3.41531 -4.42341 9.3924e-19)
(3.42319 -4.3497 -1.82961e-19)
(3.40912 -4.24508 0)
(3.36674 -4.10222 0)
(3.32451 -3.94321 0)
(3.28079 -3.77802 1.90028e-19)
(3.24387 -3.597 -2.11566e-19)
(3.21989 -3.41726 0)
(3.20834 -3.22154 3.55237e-20)
(3.21596 -3.02979 0)
(3.24416 -2.83056 0)
(3.2957 -2.64098 7.70182e-21)
(3.37366 -2.45476 0)
(3.47717 -2.28115 0)
(3.60578 -2.11946 4.2688e-19)
(3.75756 -1.97039 -1.16503e-18)
(3.92802 -1.83432 1.64688e-18)
(4.11754 -1.70518 -6.63357e-20)
(4.31736 -1.58534 -6.58946e-19)
(4.52641 -1.46785 0)
(4.72739 -1.35424 0)
(4.92411 -1.23442 0)
(5.10278 -1.11492 1.76518e-18)
(4.96275 0.331158 -5.3395e-19)
(4.75719 0.405072 0)
(4.55285 0.437157 0)
(4.21263 0.54632 4.64611e-19)
(3.82544 0.607027 6.74563e-19)
(3.25776 0.764747 0)
(2.7145 0.820656 9.70623e-19)
(2.19749 0.627786 -1.27327e-19)
(1.88356 0.308196 -8.03442e-19)
(1.83623 -0.469782 6.4244e-19)
(1.85224 -1.12146 1.8601e-19)
(2.1678 -2.08927 2.29041e-19)
(2.36772 -2.72404 -4.25235e-19)
(2.6383 -3.33286 -8.49426e-19)
(2.86858 -3.82259 -1.39087e-18)
(3.01127 -4.06054 -7.85089e-19)
(3.20337 -4.327 0)
(3.28732 -4.41197 0)
(3.42495 -4.47971 -9.35896e-19)
(3.46799 -4.45462 -8.15865e-19)
(3.53476 -4.38401 0)
(3.53227 -4.27834 0)
(3.539 -4.10446 0)
(3.51927 -3.97026 0)
(3.50338 -3.76351 2.19154e-19)
(3.49043 -3.61701 -1.43559e-19)
(3.49099 -3.41479 1.08411e-19)
(3.50011 -3.25482 -5.53936e-20)
(3.5347 -3.07031 0)
(3.58321 -2.89878 -6.23175e-19)
(3.65665 -2.7409 5.55835e-19)
(3.75937 -2.56997 -7.21283e-19)
(3.86959 -2.43922 3.76983e-19)
(4.0273 -2.27781 -7.41763e-19)
(4.16995 -2.16374 2.95679e-18)
(4.37645 -2.00914 -1.97423e-18)
(4.54507 -1.8983 -4.77529e-19)
(4.78097 -1.74058 -4.5118e-19)
(4.94889 -1.624 -3.86698e-19)
(5.17949 -1.45303 7.05869e-20)
(5.33011 -1.32692 -2.02164e-18)
(5.53145 -1.14641 5.20119e-19)
(5.28152 -1.0059 -1.01717e-18)
(5.12181 -0.813165 -1.78347e-19)
(5.0336 -0.600677 -2.01943e-18)
(4.99428 -0.392874 2.88008e-18)
(4.99985 -0.202799 1.0866e-18)
(5.045 -0.0417233 0)
(5.11997 0.0874261 1.37544e-18)
(5.21383 0.183319 4.52007e-19)
(5.31694 0.244783 0)
(5.42512 0.275071 0)
(5.53243 0.27818 -1.34308e-18)
(5.6338 0.255627 3.94976e-20)
(5.72534 0.216935 2.37393e-21)
(5.82654 0.133885 2.13172e-19)
(5.89888 0.143383 0)
(5.57507 -0.134592 0)
(5.64189 -1.02387 0)
(5.44243 -0.913393 0)
(5.29016 -0.775707 -9.90509e-19)
(5.1945 -0.612194 0)
(5.13904 -0.445253 -1.03706e-18)
(5.11991 -0.288111 9.25672e-19)
(5.13126 -0.146836 0)
(5.16788 -0.0267651 -9.62028e-19)
(5.22513 0.0698963 0)
(5.29461 0.140014 0)
(5.37217 0.183707 -1.89603e-19)
(5.45531 0.203888 -5.5882e-19)
(5.53834 0.204923 -4.04842e-20)
(5.61674 0.186275 4.11086e-20)
(5.70247 0.129364 -4.54573e-19)
(5.7681 0.119863 6.1026e-19)
(5.47458 -0.0741107 -1.60775e-20)
(5.78108 -0.838825 0)
(5.58463 -0.796938 9.50902e-20)
(5.43446 -0.703271 -1.66751e-18)
(5.33444 -0.580829 0)
(5.27087 -0.449984 -9.44957e-19)
(5.23755 -0.32274 -1.87913e-18)
(5.23077 -0.204651 8.98982e-19)
(5.24438 -0.101413 -1.38239e-20)
(5.27618 -0.015295 0)
(5.32126 0.0516211 4.13586e-19)
(5.37352 0.0980202 -1.22128e-18)
(5.43071 0.125488 1.67982e-19)
(5.49093 0.137716 -1.00768e-19)
(5.55246 0.131015 6.17218e-19)
(5.62198 0.105155 -6.07385e-19)
(5.66762 0.0856742 -5.87666e-19)
(5.36781 -0.0389011 6.04726e-19)
(5.83468 -0.728352 6.12027e-19)
(5.68244 -0.688512 1.33925e-19)
(5.55389 -0.628925 0)
(5.45916 -0.541036 0)
(5.39205 -0.442365 0)
(5.34807 -0.342499 3.29388e-20)
(5.3263 -0.246129 -1.82211e-18)
(5.32153 -0.158136 4.25458e-19)
(5.33113 -0.0822794 4.38904e-19)
(5.35363 -0.0198537 -8.3572e-19)
(5.38501 0.02823 8.24797e-19)
(5.4209 0.0607539 5.95762e-19)
(5.46002 0.079669 -5.73554e-19)
(5.50285 0.0834842 -7.56301e-19)
(5.55586 0.0780148 2.35262e-20)
(5.58737 0.0569303 2.17186e-20)
(5.27511 -0.01108 -6.00057e-19)
(5.90469 -0.5642 -5.65498e-19)
(5.77324 -0.573101 -7.75747e-20)
(5.65699 -0.542825 7.3906e-19)
(5.56565 -0.486308 -7.98432e-19)
(5.49737 -0.416743 8.75233e-19)
(5.44815 -0.342082 -8.06467e-19)
(5.41679 -0.266507 0)
(5.40029 -0.194375 -1.7605e-18)
(5.39523 -0.129921 -1.2798e-18)
(5.40037 -0.074797 1.29143e-18)
(5.41444 -0.0295301 0)
(5.43402 0.00507747 -1.99673e-19)
(5.45599 0.0287242 1.99482e-19)
(5.48073 0.0400556 6.73532e-19)
(5.51695 0.0466812 -6.59523e-19)
(5.54257 0.0336656 0)
(5.19976 0.00704784 0)
(5.92493 -0.478771 1.19162e-18)
(5.82211 -0.475465 -7.66189e-19)
(5.7286 -0.461706 -3.02707e-20)
(5.65058 -0.426221 8.45134e-19)
(5.58682 -0.378858 -8.64265e-19)
(5.53659 -0.325508 1.7131e-18)
(5.49969 -0.268798 8.96055e-19)
(5.47501 -0.211995 8.8198e-19)
(5.46002 -0.158826 8.8639e-19)
(5.45314 -0.111705 0)
(5.45378 -0.0712358 -4.16395e-19)
(5.46018 -0.037868 1.22453e-18)
(5.47002 -0.0115547 8.06763e-19)
(5.48205 0.00579102 -1.64907e-21)
(5.50519 0.0189524 8.64751e-19)
(5.51901 0.0131644 -9.58761e-20)
(5.14563 0.0133491 0)
(5.94795 -0.347696 -9.49968e-19)
(5.86816 -0.37499 -1.83468e-18)
(5.7897 -0.376691 1.91679e-18)
(5.72026 -0.359818 0)
(5.66094 -0.331848 4.1013e-19)
(5.61182 -0.296674 -8.93318e-19)
(5.57306 -0.256481 1.7872e-20)
(5.54364 -0.213846 8.52059e-19)
(5.52218 -0.171871 -8.68386e-19)
(5.50778 -0.13284 0)
(5.49983 -0.0978116 -4.23143e-19)
(5.4968 -0.0673328 3.97523e-19)
(5.49729 -0.0414159 0)
(5.50077 -0.0210943 -8.2762e-21)
(5.51576 -0.00274735 0)
(5.5112 -0.00235943 -4.88801e-20)
(5.11459 0.0151355 4.87996e-20)
(5.94807 -0.287142 2.91538e-19)
(5.88402 -0.297324 3.03879e-19)
(5.82307 -0.303736 1.16434e-18)
(5.7678 -0.297176 -7.98691e-19)
(5.71783 -0.281334 -4.38619e-19)
(5.6735 -0.259566 0)
(5.63566 -0.232866 -8.94584e-19)
(5.60455 -0.202539 8.78357e-19)
(5.57954 -0.171012 0)
(5.56071 -0.14019 4.29822e-19)
(5.54776 -0.110813 -4.25098e-19)
(5.53915 -0.0839491 -4.37082e-19)
(5.53342 -0.0596793 -2.10085e-19)
(5.53082 -0.0390916 -1.03976e-18)
(5.54088 -0.0190935 -1.01856e-19)
(5.51942 -0.0129393 -2.99623e-19)
(5.10421 0.0150729 0)
(5.94264 -0.189588 1.54454e-18)
(5.89851 -0.21798 -1.17526e-18)
(5.85127 -0.23137 4.44149e-19)
(5.80533 -0.233422 -3.81548e-19)
(5.76213 -0.22819 -8.56726e-19)
(5.72249 -0.217345 0)
(5.68705 -0.201544 -9.13377e-19)
(5.65642 -0.181785 8.94196e-19)
(5.63095 -0.1594 4.43481e-19)
(5.61071 -0.13599 -4.56154e-19)
(5.59529 -0.112628 4.49623e-19)
(5.58341 -0.0900748 4.37197e-19)
(5.57402 -0.0684716 -8.54381e-19)
(5.5681 -0.0491695 0)
(5.57487 -0.0294083 0)
(5.54086 -0.0196207 8.25704e-19)
(5.11087 0.0105084 0)
(5.93332 -0.149387 -3.92382e-19)
(5.89584 -0.161421 4.35463e-19)
(5.85947 -0.173072 4.48663e-19)
(5.82432 -0.178779 4.5815e-19)
(5.79027 -0.178913 0)
(5.75755 -0.174587 4.56917e-19)
(5.72693 -0.166332 4.58857e-19)
(5.69928 -0.154579 0)
(5.67557 -0.139927 4.63651e-19)
(5.65614 -0.123184 -1.38019e-18)
(5.64021 -0.105419 4.53393e-19)
(5.62664 -0.0874448 4.43519e-19)
(5.61538 -0.0696102 4.48855e-19)
(5.60811 -0.0526784 -4.31493e-19)
(5.61281 -0.0347838 6.41657e-19)
(5.56961 -0.0230891 -1.13757e-19)
(5.13126 0.00665054 -1.05271e-19)
(5.91396 -0.0791862 -4.69713e-19)
(5.89082 -0.102745 9.83e-19)
(5.86467 -0.117688 -1.93886e-18)
(5.83724 -0.126387 1.44265e-18)
(5.80957 -0.130893 0)
(5.78247 -0.131788 -9.43016e-21)
(5.75678 -0.129337 -9.78771e-19)
(5.73342 -0.123674 0)
(5.71296 -0.115187 0)
(5.69527 -0.10447 0)
(5.67978 -0.0920892 -4.75876e-19)
(5.66594 -0.0787304 -4.69588e-19)
(5.65454 -0.064851 4.60251e-19)
(5.64745 -0.0507509 4.53475e-19)
(5.65067 -0.0359033 -6.66649e-19)
(5.60063 -0.0238909 -1.09317e-18)
(5.15925 0.00352239 4.29369e-19)
(5.89994 -0.0530838 0)
(5.87797 -0.063638 0)
(5.85777 -0.0745139 -8.1182e-19)
(5.8374 -0.0834412 2.48796e-19)
(5.81663 -0.0897104 0)
(5.79615 -0.0932744 -7.88139e-19)
(5.77672 -0.0941711 5.23541e-19)
(5.75876 -0.0924643 1.03767e-18)
(5.74225 -0.0883582 -7.5551e-19)
(5.72675 -0.0823649 5.05992e-19)
(5.71222 -0.074762 -4.92458e-19)
(5.69919 -0.0659535 2.51638e-19)
(5.68899 -0.0559334 0)
(5.68325 -0.045175 -7.10942e-19)
(5.6851 -0.0335048 6.96694e-19)
(5.63005 -0.0227783 4.58052e-19)
(5.18958 0.00145299 -4.53099e-19)
(5.87367 -0.00260375 1.25724e-18)
(5.86169 -0.0209975 -8.99588e-19)
(5.8479 -0.0342386 -5.99771e-19)
(5.83305 -0.0440578 -8.95033e-19)
(5.81794 -0.0516349 -2.07828e-20)
(5.80329 -0.0571714 2.84704e-18)
(5.78937 -0.0605505 -1.11065e-18)
(5.77592 -0.0618649 0)
(5.76252 -0.0613372 -2.72902e-19)
(5.74916 -0.0591902 0)
(5.73649 -0.0554933 -2.61463e-19)
(5.72538 -0.0508325 -5.13549e-19)
(5.71717 -0.0443227 5.0217e-19)
(5.71346 -0.0375661 0)
(5.71343 -0.028832 0)
(5.65545 -0.0207107 -2.35366e-19)
(5.2184 0.000186487 0)
(5.85724 0.0141645 0)
(5.84317 0.00520769 1.05266e-18)
(5.83152 -0.00393422 -2.36439e-18)
(5.82069 -0.0127483 1.30696e-18)
(5.81079 -0.0204394 0)
(5.80168 -0.0266107 6.32904e-21)
(5.79266 -0.0312525 -3.10619e-19)
(5.783 -0.0344463 0)
(5.77254 -0.0362876 0)
(5.76181 -0.036915 0)
(5.75182 -0.0362704 -2.82664e-19)
(5.7434 -0.0348416 2.71569e-19)
(5.73749 -0.0314309 -3.16702e-21)
(5.73601 -0.0292401 -2.55778e-21)
(5.7322 -0.0223239 5.12445e-19)
(5.67497 -0.0183224 2.51611e-19)
(5.24243 -0.000212557 0)
(5.82686 0.0522049 1.84994e-18)
(5.82054 0.037046 -2.02626e-19)
(5.81331 0.0254918 0)
(5.80645 0.0157654 1.49374e-18)
(5.80048 0.00729389 -1.43506e-18)
(5.79476 0.000272719 -1.75394e-18)
(5.78832 -0.00540065 1.69347e-18)
(5.78083 -0.00992648 -1.33194e-18)
(5.77269 -0.0134618 1.28647e-18)
(5.76466 -0.0161041 1.59259e-19)
(5.75743 -0.0178392 0)
(5.75164 -0.0190795 0)
(5.74804 -0.0185448 -1.47058e-19)
(5.74802 -0.0201227 -1.30931e-21)
(5.74299 -0.0139577 -2.76678e-19)
(5.68631 -0.0158667 4.03912e-19)
(5.25782 0.00128933 -2.63837e-19)
(5.80793 0.0627977 -2.29952e-19)
(5.79808 0.0544916 2.21532e-19)
(5.79235 0.0462526 2.23245e-19)
(5.78887 0.0378494 0)
(5.78591 0.0299616 0)
(5.78196 0.0229333 1.77733e-18)
(5.77661 0.0166453 -1.51685e-18)
(5.77044 0.0110405 0)
(5.76425 0.00614139 7.1833e-19)
(5.75855 0.00195098 -1.5634e-18)
(5.75361 -0.00159516 6.7469e-19)
(5.75002 -0.00470088 6.58906e-19)
(5.74871 -0.00659719 -4.80325e-19)
(5.75121 -0.0105213 0)
(5.74862 -0.00549998 1.49316e-19)
(5.68672 -0.0129951 -2.94902e-19)
(5.26147 0.00415474 -3.20742e-21)
(5.77372 0.091671 1.08546e-18)
(5.77137 0.0783734 -2.06939e-18)
(5.76968 0.0677712 7.47044e-19)
(5.76884 0.058467 7.10919e-19)
(5.76722 0.0501381 -9.14855e-19)
(5.76379 0.0426348 -2.16701e-19)
(5.7591 0.0356827 0)
(5.75417 0.0292285 8.29084e-19)
(5.74957 0.0232831 -9.02286e-19)
(5.74548 0.0178228 -9.9435e-20)
(5.74213 0.0127408 0)
(5.74024 0.00810816 0)
(5.74104 0.00407739 0)
(5.74862 -0.00145301 0)
(5.74816 0.00105463 1.66108e-19)
(5.67461 -0.0111737 0)
(5.25416 0.00686114 1.57517e-19)
(5.75248 0.0959828 -1.22522e-18)
(5.74626 0.0897484 -1.5903e-19)
(5.74507 0.0821872 1.11565e-18)
(5.74481 0.0737612 1.34019e-18)
(5.74293 0.0657116 -8.98605e-19)
(5.73939 0.0581262 9.99482e-19)
(5.73531 0.0508188 3.88946e-21)
(5.73145 0.0438098 -9.29505e-19)
(5.72796 0.0370917 1.10195e-19)
(5.72496 0.0306247 1.06876e-19)
(5.72288 0.0243221 -8.4937e-19)
(5.72269 0.018371 -1.50849e-21)
(5.7256 0.0126313 8.00777e-19)
(5.72996 0.00622627 0)