/*--------------------------------*- C++ -*----------------------------------*\
  =========                 |
  \\      /  F ield         | OpenFOAM: The Open Source CFD Toolbox
   \\    /   O peration     | Website:  https://openfoam.org
    \\  /    A nd           | Version:  6
     \\/     M anipulation  |
\*---------------------------------------------------------------------------*/
FoamFile
{
    version     2.0;
    format      ascii;
    class       volVectorField;
    location    "3.59";
    object      U;
}
// * * * * * * * * * * * * * * * * * * * * * * * * * * * * * * * * * * * * * //

dimensions      [0 1 -1 0 0 0 0];

internalField   nonuniform List<vector> 
5625
(
(0.868059 0.425074 0)
(0.873962 0.42298 0)
(0.881706 0.420182 0)
(0.891221 0.416191 0)
(0.902609 0.410504 0)
(0.916051 0.402705 0)
(0.93173 0.392518 0)
(0.949858 0.379803 0)
(0.970754 0.364518 0)
(0.99485 0.346774 0)
(1.02264 0.326924 0)
(1.05451 0.305668 0)
(1.0906 0.284199 0)
(1.13064 0.264223 0)
(1.17394 0.247754 0)
(1.21929 0.236702 0)
(1.26508 0.232621 0)
(1.30972 0.236786 0)
(1.35175 0.250079 0)
(1.3895 0.272481 0)
(1.42126 0.303084 0)
(1.44587 0.340746 0)
(1.46264 0.384088 0)
(1.47073 0.430951 0)
(1.46929 0.478683 0)
(1.45829 0.524979 0)
(1.43861 0.568048 0)
(1.4112 0.606188 0)
(1.37673 0.637601 0)
(1.3361 0.660701 0)
(1.29094 0.674628 0)
(1.24335 0.679509 0)
(1.19546 0.676304 0)
(1.1491 0.666408 0)
(1.10587 0.651304 0)
(1.06694 0.632433 0)
(1.03302 0.611178 0)
(1.00428 0.588816 0)
(0.980592 0.566425 0)
(0.961777 0.544822 0)
(0.947638 0.524563 0)
(0.937926 0.506013 0)
(0.932194 0.489425 0)
(0.929717 0.474996 0)
(0.929503 0.462892 0)
(0.930412 0.453226 0)
(0.931355 0.446017 0)
(0.931481 0.441155 0)
(0.930313 0.438378 0)
(0.927778 0.437301 0)
(0.924133 0.437469 0)
(0.919818 0.438427 0)
(0.915311 0.439782 0)
(0.911013 0.441238 0)
(0.907193 0.442604 0)
(0.903985 0.443779 0)
(0.901413 0.44473 0)
(0.899429 0.445463 0)
(0.897946 0.446006 0)
(0.896869 0.446395 0)
(0.896103 0.446667 0)
(0.895569 0.446851 0)
(0.895202 0.446974 0)
(0.894952 0.447055 0)
(0.894782 0.447107 0)
(0.894666 0.447141 0)
(0.894587 0.447162 0)
(0.894533 0.447175 0)
(0.894495 0.447184 0)
(0.894468 0.447189 0)
(0.894448 0.447193 0)
(0.894434 0.447195 0)
(0.894424 0.447197 0)
(0.894417 0.447198 0)
(0.894412 0.447199 0)
(0.866943 0.424907 0)
(0.872042 0.423128 0)
(0.879008 0.420909 0)
(0.88772 0.41783 0)
(0.898195 0.413452 0)
(0.910574 0.407372 0)
(0.92505 0.399303 0)
(0.941836 0.389086 0)
(0.961182 0.376698 0)
(0.983373 0.36228 0)
(1.00874 0.346138 0)
(1.0376 0.328847 0)
(1.07013 0.311372 0)
(1.10619 0.295067 0)
(1.14521 0.281492 0)
(1.18616 0.272191 0)
(1.22776 0.268627 0)
(1.26864 0.272082 0)
(1.30723 0.283266 0)
(1.34183 0.30208 0)
(1.371 0.327976 0)
(1.39372 0.360163 0)
(1.40909 0.397249 0)
(1.41615 0.437187 0)
(1.4144 0.477901 0)
(1.40418 0.517658 0)
(1.38621 0.554794 0)
(1.36102 0.587519 0)
(1.32915 0.614126 0)
(1.29169 0.633346 0)
(1.25037 0.64464 0)
(1.20719 0.648275 0)
(1.164 0.64511 0)
(1.12241 0.63628 0)
(1.08379 0.622976 0)
(1.04915 0.606392 0)
(1.01905 0.587713 0)
(0.993597 0.568055 0)
(0.972715 0.548354 0)
(0.956263 0.529309 0)
(0.944095 0.511397 0)
(0.935965 0.494948 0)
(0.931407 0.480217 0)
(0.929675 0.467428 0)
(0.929779 0.456781 0)
(0.930634 0.448414 0)
(0.931248 0.442359 0)
(0.930901 0.4385 0)
(0.929254 0.436563 0)
(0.926341 0.43615 0)
(0.922479 0.43681 0)
(0.91812 0.438104 0)
(0.913711 0.439668 0)
(0.909605 0.441239 0)
(0.906022 0.442658 0)
(0.903055 0.443848 0)
(0.900703 0.444794 0)
(0.898904 0.445514 0)
(0.897571 0.446042 0)
(0.896607 0.446419 0)
(0.895924 0.44668 0)
(0.89545 0.446858 0)
(0.895123 0.446977 0)
(0.894901 0.447055 0)
(0.894749 0.447105 0)
(0.894645 0.447138 0)
(0.894574 0.447159 0)
(0.894524 0.447173 0)
(0.894489 0.447182 0)
(0.894464 0.447188 0)
(0.894446 0.447192 0)
(0.894433 0.447194 0)
(0.894423 0.447196 0)
(0.894416 0.447197 0)
(0.894411 0.447198 0)
(0.866083 0.424682 0)
(0.87033 0.423097 0)
(0.876452 0.421318 0)
(0.884307 0.418974 0)
(0.893854 0.415679 0)
(0.905162 0.411071 0)
(0.918387 0.404863 0)
(0.933739 0.396879 0)
(0.951434 0.38708 0)
(0.971674 0.375585 0)
(0.99469 0.362669 0)
(1.02072 0.348833 0)
(1.04987 0.334871 0)
(1.08201 0.321828 0)
(1.11668 0.310905 0)
(1.15311 0.303411 0)
(1.1903 0.300664 0)
(1.22697 0.303727 0)
(1.26159 0.313104 0)
(1.29272 0.328835 0)
(1.31913 0.350691 0)
(1.33974 0.377958 0)
(1.35351 0.409267 0)
(1.35968 0.442956 0)
(1.35808 0.477498 0)
(1.34899 0.511402 0)
(1.3328 0.542984 0)
(1.30982 0.570522 0)
(1.28069 0.59259 0)
(1.24669 0.608265 0)
(1.20954 0.617243 0)
(1.17102 0.619823 0)
(1.13269 0.616717 0)
(1.09594 0.60882 0)
(1.06196 0.597086 0)
(1.03159 0.582515 0)
(1.00527 0.566135 0)
(0.983087 0.548904 0)
(0.964987 0.531625 0)
(0.950887 0.514887 0)
(0.940672 0.4991 0)
(0.934091 0.484569 0)
(0.930652 0.471555 0)
(0.929588 0.460309 0)
(0.929927 0.45106 0)
(0.930652 0.443962 0)
(0.930885 0.439043 0)
(0.930051 0.436168 0)
(0.927944 0.435043 0)
(0.9247 0.435258 0)
(0.920682 0.436367 0)
(0.916336 0.437951 0)
(0.912073 0.439682 0)
(0.908192 0.441333 0)
(0.904864 0.442776 0)
(0.902147 0.443961 0)
(0.900016 0.444888 0)
(0.898402 0.445585 0)
(0.897212 0.446092 0)
(0.896357 0.446451 0)
(0.895754 0.4467 0)
(0.895336 0.446869 0)
(0.895048 0.446982 0)
(0.894852 0.447056 0)
(0.894717 0.447105 0)
(0.894625 0.447137 0)
(0.894561 0.447158 0)
(0.894515 0.447171 0)
(0.894483 0.447181 0)
(0.89446 0.447187 0)
(0.894443 0.447191 0)
(0.894431 0.447194 0)
(0.894422 0.447196 0)
(0.894416 0.447197 0)
(0.894411 0.447198 0)
(0.86553 0.424462 0)
(0.868895 0.42294 0)
(0.874125 0.421455 0)
(0.881075 0.419673 0)
(0.889667 0.417249 0)
(0.899903 0.413863 0)
(0.911885 0.40924 0)
(0.925783 0.403191 0)
(0.941779 0.395661 0)
(0.960045 0.386731 0)
(0.980767 0.376632 0)
(1.0041 0.365788 0)
(1.03006 0.354842 0)
(1.05848 0.344614 0)
(1.08904 0.336082 0)
(1.12117 0.330344 0)
(1.15399 0.328468 0)
(1.1863 0.331256 0)
(1.21687 0.339167 0)
(1.24449 0.352409 0)
(1.26802 0.370833 0)
(1.2863 0.393708 0)
(1.29844 0.419876 0)
(1.30393 0.448137 0)
(1.30262 0.477268 0)
(1.29459 0.505813 0)
(1.27997 0.532164 0)
(1.25912 0.55487 0)
(1.23286 0.572839 0)
(1.20254 0.58541 0)
(1.16973 0.592406 0)
(1.13592 0.594098 0)
(1.10242 0.591048 0)
(1.07043 0.583949 0)
(1.04097 0.57357 0)
(1.01474 0.560764 0)
(0.992076 0.546416 0)
(0.973051 0.53135 0)
(0.95765 0.516233 0)
(0.945834 0.50156 0)
(0.937503 0.487683 0)
(0.932389 0.474893 0)
(0.929969 0.463467 0)
(0.929463 0.453681 0)
(0.92993 0.445781 0)
(0.93044 0.439924 0)
(0.930245 0.436119 0)
(0.928919 0.4342 0)
(0.926388 0.433846 0)
(0.922872 0.434639 0)
(0.918764 0.43614 0)
(0.914492 0.437964 0)
(0.910419 0.439817 0)
(0.906792 0.441511 0)
(0.903734 0.442952 0)
(0.901271 0.444112 0)
(0.89936 0.445006 0)
(0.897924 0.445671 0)
(0.896874 0.446152 0)
(0.896123 0.446491 0)
(0.895595 0.446724 0)
(0.895229 0.446882 0)
(0.894977 0.446988 0)
(0.894805 0.447059 0)
(0.894687 0.447105 0)
(0.894605 0.447136 0)
(0.894548 0.447157 0)
(0.894507 0.44717 0)
(0.894478 0.44718 0)
(0.894456 0.447186 0)
(0.894441 0.44719 0)
(0.894429 0.447193 0)
(0.894421 0.447195 0)
(0.894414 0.447197 0)
(0.89441 0.447198 0)
(0.865324 0.424313 0)
(0.867791 0.422725 0)
(0.872105 0.421384 0)
(0.878119 0.419992 0)
(0.885724 0.418238 0)
(0.894885 0.41583 0)
(0.905648 0.41251 0)
(0.918124 0.408095 0)
(0.932449 0.402507 0)
(0.948778 0.395794 0)
(0.967265 0.388132 0)
(0.987984 0.379859 0)
(1.0109 0.371491 0)
(1.0359 0.363692 0)
(1.06272 0.357263 0)
(1.09084 0.353084 0)
(1.11945 0.351982 0)
(1.14759 0.354606 0)
(1.17431 0.361422 0)
(1.19852 0.372656 0)
(1.21909 0.388106 0)
(1.23503 0.407127 0)
(1.24565 0.428887 0)
(1.25051 0.452482 0)
(1.24936 0.476778 0)
(1.24212 0.500391 0)
(1.22892 0.521954 0)
(1.21023 0.540354 0)
(1.18698 0.554773 0)
(1.16045 0.564702 0)
(1.13197 0.570023 0)
(1.10275 0.570962 0)
(1.0739 0.56795 0)
(1.04647 0.561524 0)
(1.02131 0.552313 0)
(0.998985 0.541047 0)
(0.979768 0.528492 0)
(0.963731 0.51534 0)
(0.950892 0.502141 0)
(0.941242 0.489303 0)
(0.93468 0.477138 0)
(0.930908 0.465932 0)
(0.92937 0.455983 0)
(0.929284 0.447587 0)
(0.929759 0.440997 0)
(0.929968 0.436354 0)
(0.929309 0.433632 0)
(0.927504 0.432628 0)
(0.924598 0.432992 0)
(0.920881 0.434298 0)
(0.916755 0.436129 0)
(0.912616 0.438133 0)
(0.908775 0.440061 0)
(0.905425 0.441763 0)
(0.902647 0.443176 0)
(0.900438 0.444293 0)
(0.898741 0.445143 0)
(0.897477 0.44577 0)
(0.896558 0.446219 0)
(0.895904 0.446534 0)
(0.895446 0.446751 0)
(0.895129 0.446899 0)
(0.894911 0.446997 0)
(0.894761 0.447063 0)
(0.894658 0.447107 0)
(0.894586 0.447136 0)
(0.894535 0.447156 0)
(0.894498 0.44717 0)
(0.894472 0.447179 0)
(0.894452 0.447185 0)
(0.894438 0.44719 0)
(0.894427 0.447193 0)
(0.894419 0.447195 0)
(0.894414 0.447197 0)
(0.894409 0.447198 0)
(0.86551 0.424302 0)
(0.867073 0.422537 0)
(0.870453 0.42119 0)
(0.875512 0.420013 0)
(0.882121 0.418729 0)
(0.890209 0.417068 0)
(0.899774 0.414787 0)
(0.910876 0.41171 0)
(0.923607 0.407745 0)
(0.938086 0.402901 0)
(0.954415 0.397299 0)
(0.972634 0.39121 0)
(0.992718 0.385042 0)
(1.01458 0.379323 0)
(1.03795 0.374686 0)
(1.06232 0.371833 0)
(1.08703 0.371425 0)
(1.11139 0.374008 0)
(1.13453 0.379982 0)
(1.15545 0.389501 0)
(1.17315 0.402372 0)
(1.1869 0.418125 0)
(1.1961 0.43616 0)
(1.20025 0.455683 0)
(1.19906 0.475626 0)
(1.19246 0.494806 0)
(1.18067 0.512176 0)
(1.16425 0.526894 0)
(1.1441 0.538309 0)
(1.12132 0.546015 0)
(1.09699 0.549925 0)
(1.07211 0.55022 0)
(1.04763 0.547226 0)
(1.02445 0.541362 0)
(1.00328 0.533158 0)
(0.984585 0.523241 0)
(0.968562 0.512263 0)
(0.955299 0.500796 0)
(0.944845 0.489288 0)
(0.937205 0.478076 0)
(0.932257 0.467445 0)
(0.929663 0.457691 0)
(0.928841 0.44913 0)
(0.929019 0.442071 0)
(0.929376 0.436759 0)
(0.929208 0.4333 0)
(0.928064 0.431622 0)
(0.92581 0.431476 0)
(0.922597 0.432487 0)
(0.918758 0.434233 0)
(0.914687 0.436322 0)
(0.910738 0.438447 0)
(0.907165 0.440401 0)
(0.904109 0.442077 0)
(0.901614 0.443438 0)
(0.899655 0.444498 0)
(0.898165 0.445295 0)
(0.897063 0.445878 0)
(0.896267 0.446292 0)
(0.895703 0.446582 0)
(0.89531 0.446781 0)
(0.895037 0.446917 0)
(0.89485 0.447008 0)
(0.89472 0.447069 0)
(0.894631 0.44711 0)
(0.894567 0.447138 0)
(0.894522 0.447157 0)
(0.89449 0.447169 0)
(0.894466 0.447179 0)
(0.894448 0.447185 0)
(0.894435 0.447189 0)
(0.894425 0.447193 0)
(0.894418 0.447195 0)
(0.894413 0.447197 0)
(0.894409 0.447198 0)
(0.866122 0.424495 0)
(0.866786 0.422458 0)
(0.869226 0.420968 0)
(0.873321 0.419839 0)
(0.878932 0.418831 0)
(0.885959 0.417694 0)
(0.894359 0.416202 0)
(0.904144 0.41418 0)
(0.915367 0.411527 0)
(0.928098 0.408212 0)
(0.942402 0.404319 0)
(0.958303 0.400057 0)
(0.975788 0.39574 0)
(0.994746 0.391761 0)
(1.0149 0.388626 0)
(1.03583 0.386904 0)
(1.05707 0.387116 0)
(1.07799 0.389692 0)
(1.0978 0.394949 0)
(1.11561 0.402999 0)
(1.13071 0.413701 0)
(1.14247 0.426726 0)
(1.15028 0.441575 0)
(1.15365 0.457511 0)
(1.15237 0.47361 0)
(1.14645 0.488965 0)
(1.13617 0.502794 0)
(1.12207 0.514427 0)
(1.10496 0.523323 0)
(1.08574 0.529164 0)
(1.06527 0.531892 0)
(1.04438 0.531639 0)
(1.02391 0.52865 0)
(1.00463 0.523266 0)
(0.987114 0.515937 0)
(0.97171 0.507206 0)
(0.958594 0.497615 0)
(0.947863 0.487628 0)
(0.939588 0.477602 0)
(0.933767 0.467829 0)
(0.930243 0.458585 0)
(0.928635 0.450179 0)
(0.92834 0.442941 0)
(0.928618 0.437183 0)
(0.928736 0.43312 0)
(0.92813 0.430809 0)
(0.926504 0.43012 0)
(0.923857 0.430757 0)
(0.920418 0.43233 0)
(0.916542 0.434429 0)
(0.912599 0.436701 0)
(0.908889 0.438884 0)
(0.905612 0.440821 0)
(0.902861 0.442439 0)
(0.900647 0.443729 0)
(0.898929 0.44472 0)
(0.897635 0.445457 0)
(0.896685 0.44599 0)
(0.896003 0.446369 0)
(0.895521 0.446632 0)
(0.895186 0.446813 0)
(0.894954 0.446936 0)
(0.894794 0.447019 0)
(0.894683 0.447075 0)
(0.894605 0.447113 0)
(0.89455 0.447139 0)
(0.89451 0.447157 0)
(0.894481 0.44717 0)
(0.89446 0.447179 0)
(0.894444 0.447185 0)
(0.894432 0.447189 0)
(0.894423 0.447193 0)
(0.894416 0.447195 0)
(0.894412 0.447197 0)
(0.894408 0.447198 0)
(0.867169 0.424947 0)
(0.866974 0.422569 0)
(0.868478 0.420821 0)
(0.871605 0.419587 0)
(0.876222 0.418669 0)
(0.882208 0.417842 0)
(0.889483 0.416897 0)
(0.898014 0.415666 0)
(0.907817 0.414024 0)
(0.918927 0.411924 0)
(0.93137 0.40942 0)
(0.945155 0.406654 0)
(0.960253 0.403838 0)
(0.976539 0.401285 0)
(0.993782 0.399403 0)
(1.01167 0.398627 0)
(1.02978 0.399345 0)
(1.04755 0.401896 0)
(1.06429 0.406544 0)
(1.07935 0.413375 0)
(1.09213 0.422279 0)
(1.10204 0.432992 0)
(1.1085 0.445078 0)
(1.11117 0.457898 0)
(1.1099 0.47073 0)
(1.10477 0.4829 0)
(1.09605 0.493798 0)
(1.08422 0.502865 0)
(1.06996 0.509659 0)
(1.05399 0.513945 0)
(1.03701 0.515687 0)
(1.01975 0.514978 0)
(1.00291 0.511998 0)
(0.987144 0.507032 0)
(0.972894 0.500477 0)
(0.960438 0.492794 0)
(0.949928 0.484422 0)
(0.941473 0.475729 0)
(0.935148 0.467007 0)
(0.930929 0.458519 0)
(0.928611 0.450546 0)
(0.927772 0.443413 0)
(0.927802 0.437459 0)
(0.928015 0.432976 0)
(0.927793 0.430132 0)
(0.926718 0.428918 0)
(0.924643 0.429142 0)
(0.921676 0.430469 0)
(0.918103 0.432504 0)
(0.914278 0.434863 0)
(0.910529 0.437239 0)
(0.907101 0.439423 0)
(0.904138 0.441301 0)
(0.901693 0.442836 0)
(0.899754 0.444039 0)
(0.898264 0.44495 0)
(0.897153 0.445622 0)
(0.896342 0.446105 0)
(0.895764 0.446446 0)
(0.895357 0.446683 0)
(0.895074 0.446845 0)
(0.894878 0.446956 0)
(0.894743 0.447031 0)
(0.894648 0.447082 0)
(0.894582 0.447117 0)
(0.894534 0.447142 0)
(0.894499 0.447159 0)
(0.894474 0.447171 0)
(0.894454 0.447179 0)
(0.89444 0.447185 0)
(0.894429 0.44719 0)
(0.894421 0.447193 0)
(0.894415 0.447195 0)
(0.89441 0.447197 0)
(0.894407 0.447198 0)
(0.868642 0.425706 0)
(0.867652 0.422952 0)
(0.868251 0.420855 0)
(0.87042 0.419378 0)
(0.874051 0.418378 0)
(0.879015 0.417662 0)
(0.885204 0.41704 0)
(0.892552 0.416342 0)
(0.901039 0.415439 0)
(0.910657 0.414269 0)
(0.921403 0.41285 0)
(0.933268 0.411251 0)
(0.946208 0.409624 0)
(0.960105 0.408223 0)
(0.974771 0.40736 0)
(0.989941 0.407331 0)
(1.00524 0.40843 0)
(1.02018 0.410952 0)
(1.03422 0.415097 0)
(1.04687 0.420908 0)
(1.05758 0.42829 0)
(1.0658 0.437028 0)
(1.07109 0.446757 0)
(1.07322 0.456967 0)
(1.07211 0.467108 0)
(1.06783 0.476668 0)
(1.06061 0.485149 0)
(1.05089 0.492088 0)
(1.03921 0.497144 0)
(1.02615 0.500151 0)
(1.0123 0.501086 0)
(0.998265 0.500008 0)
(0.984662 0.497054 0)
(0.972001 0.492473 0)
(0.960631 0.486612 0)
(0.950772 0.479855 0)
(0.942566 0.472555 0)
(0.936123 0.464998 0)
(0.931505 0.457433 0)
(0.928648 0.450112 0)
(0.927296 0.443332 0)
(0.926995 0.43743 0)
(0.927151 0.432737 0)
(0.927154 0.429506 0)
(0.926515 0.427839 0)
(0.92497 0.427652 0)
(0.922504 0.42869 0)
(0.919312 0.430595 0)
(0.915704 0.43298 0)
(0.912013 0.435503 0)
(0.908515 0.437909 0)
(0.905399 0.440039 0)
(0.90276 0.441823 0)
(0.900617 0.443252 0)
(0.898939 0.444356 0)
(0.897664 0.445183 0)
(0.89672 0.445787 0)
(0.896037 0.446219 0)
(0.895551 0.446523 0)
(0.895211 0.446733 0)
(0.894975 0.446877 0)
(0.894811 0.446976 0)
(0.894697 0.447043 0)
(0.894617 0.44709 0)
(0.89456 0.447122 0)
(0.894519 0.447144 0)
(0.894489 0.44716 0)
(0.894466 0.447171 0)
(0.894449 0.44718 0)
(0.894436 0.447186 0)
(0.894426 0.44719 0)
(0.894419 0.447193 0)
(0.894414 0.447195 0)
(0.89441 0.447197 0)
(0.894407 0.447198 0)
(0.870505 0.426794 0)
(0.868821 0.423668 0)
(0.868568 0.421166 0)
(0.869805 0.419335 0)
(0.872466 0.4181 0)
(0.876432 0.417315 0)
(0.881579 0.416806 0)
(0.887814 0.416408 0)
(0.895076 0.415992 0)
(0.903327 0.415482 0)
(0.912541 0.414851 0)
(0.922693 0.414128 0)
(0.933719 0.413427 0)
(0.945509 0.412928 0)
(0.957904 0.412838 0)
(0.970672 0.413366 0)
(0.983491 0.41476 0)
(0.995972 0.417246 0)
(1.0077 0.420948 0)
(1.01824 0.425877 0)
(1.02711 0.43197 0)
(1.03387 0.43906 0)
(1.03823 0.446838 0)
(1.04001 0.454905 0)
(1.03916 0.462854 0)
(1.0357 0.470282 0)
(1.02987 0.476777 0)
(1.02204 0.481972 0)
(1.01265 0.485618 0)
(1.00216 0.4876 0)
(0.991046 0.487892 0)
(0.979851 0.486529 0)
(0.969081 0.483629 0)
(0.959131 0.479414 0)
(0.950265 0.474184 0)
(0.942661 0.468254 0)
(0.936456 0.461899 0)
(0.931758 0.455349 0)
(0.928592 0.448828 0)
(0.926842 0.442596 0)
(0.926203 0.436966 0)
(0.926206 0.432278 0)
(0.926299 0.428835 0)
(0.925973 0.426827 0)
(0.924882 0.426274 0)
(0.922904 0.427014 0)
(0.920134 0.428746 0)
(0.916822 0.431101 0)
(0.913278 0.43372 0)
(0.909794 0.436311 0)
(0.906592 0.438676 0)
(0.903807 0.440706 0)
(0.901492 0.442368 0)
(0.899641 0.443676 0)
(0.898207 0.444673 0)
(0.897129 0.445412 0)
(0.896337 0.445948 0)
(0.895767 0.44633 0)
(0.895364 0.446597 0)
(0.895082 0.446781 0)
(0.894886 0.446909 0)
(0.89475 0.446996 0)
(0.894656 0.447056 0)
(0.894588 0.447098 0)
(0.89454 0.447127 0)
(0.894505 0.447147 0)
(0.894479 0.447162 0)
(0.894459 0.447173 0)
(0.894444 0.44718 0)
(0.894432 0.447186 0)
(0.894424 0.44719 0)
(0.894417 0.447193 0)
(0.894412 0.447195 0)
(0.894408 0.447197 0)
(0.894406 0.447198 0)
(0.872696 0.428208 0)
(0.870452 0.424758 0)
(0.86943 0.421834 0)
(0.869787 0.419577 0)
(0.871509 0.417986 0)
(0.8745 0.416968 0)
(0.878643 0.41638 0)
(0.883826 0.416071 0)
(0.889956 0.415912 0)
(0.896964 0.415806 0)
(0.904808 0.415699 0)
(0.913441 0.415601 0)
(0.922782 0.41558 0)
(0.93273 0.415736 0)
(0.943149 0.416194 0)
(0.953842 0.417129 0)
(0.964537 0.418732 0)
(0.97492 0.421145 0)
(0.984654 0.424429 0)
(0.993367 0.428606 0)
(1.00068 0.433639 0)
(1.00627 0.439376 0)
(1.00992 0.44556 0)
(1.01148 0.451893 0)
(1.01089 0.458071 0)
(1.0082 0.463768 0)
(1.00362 0.468647 0)
(0.997469 0.472434 0)
(0.990072 0.474958 0)
(0.981802 0.476135 0)
(0.97308 0.475928 0)
(0.964353 0.474364 0)
(0.956024 0.471554 0)
(0.948395 0.467701 0)
(0.941669 0.463057 0)
(0.935997 0.457869 0)
(0.931507 0.452354 0)
(0.928281 0.446712 0)
(0.9263 0.441164 0)
(0.925391 0.435985 0)
(0.925209 0.431496 0)
(0.925295 0.428023 0)
(0.925166 0.425814 0)
(0.924436 0.424977 0)
(0.9229 0.425444 0)
(0.920562 0.426984 0)
(0.917595 0.429267 0)
(0.914273 0.431934 0)
(0.910883 0.43467 0)
(0.907667 0.437241 0)
(0.904792 0.439505 0)
(0.902345 0.441397 0)
(0.900344 0.442916 0)
(0.898767 0.444094 0)
(0.897559 0.444981 0)
(0.896659 0.445633 0)
(0.896002 0.446102 0)
(0.895532 0.446435 0)
(0.895201 0.446667 0)
(0.89497 0.446828 0)
(0.894809 0.446939 0)
(0.894698 0.447015 0)
(0.894619 0.447069 0)
(0.894563 0.447106 0)
(0.894522 0.447132 0)
(0.894492 0.447151 0)
(0.894469 0.447164 0)
(0.894452 0.447174 0)
(0.894439 0.447181 0)
(0.894429 0.447187 0)
(0.894421 0.447191 0)
(0.894415 0.447194 0)
(0.894411 0.447196 0)
(0.894408 0.447197 0)
(0.894405 0.447198 0)
(0.875115 0.429907 0)
(0.872487 0.426234 0)
(0.870822 0.422922 0)
(0.870369 0.420206 0)
(0.871196 0.418172 0)
(0.873253 0.416787 0)
(0.876431 0.415951 0)
(0.880613 0.415539 0)
(0.885692 0.415425 0)
(0.89158 0.415499 0)
(0.898204 0.415691 0)
(0.905489 0.415984 0)
(0.913358 0.416398 0)
(0.921722 0.416977 0)
(0.930456 0.417808 0)
(0.939378 0.419019 0)
(0.948265 0.420732 0)
(0.956872 0.423019 0)
(0.964926 0.425925 0)
(0.972121 0.42948 0)
(0.978164 0.433641 0)
(0.982825 0.438265 0)
(0.985924 0.443154 0)
(0.987334 0.448094 0)
(0.987009 0.452852 0)
(0.985024 0.457158 0)
(0.981561 0.460748 0)
(0.976855 0.463426 0)
(0.971171 0.465077 0)
(0.964817 0.465631 0)
(0.958153 0.465053 0)
(0.951541 0.463371 0)
(0.945286 0.460695 0)
(0.939614 0.457206 0)
(0.934689 0.45311 0)
(0.930644 0.4486 0)
(0.927586 0.443854 0)
(0.925559 0.439062 0)
(0.924488 0.434457 0)
(0.924149 0.430328 0)
(0.92418 0.426993 0)
(0.924156 0.424734 0)
(0.923693 0.423723 0)
(0.922533 0.423973 0)
(0.920604 0.425331 0)
(0.918006 0.427516 0)
(0.91496 0.43019 0)
(0.911734 0.43303 0)
(0.908575 0.435774 0)
(0.905671 0.438249 0)
(0.903139 0.440362 0)
(0.901024 0.442091 0)
(0.899322 0.443454 0)
(0.897996 0.444496 0)
(0.896992 0.445274 0)
(0.896249 0.445841 0)
(0.895712 0.446247 0)
(0.895329 0.446533 0)
(0.89506 0.446733 0)
(0.894873 0.446871 0)
(0.894743 0.446967 0)
(0.894651 0.447034 0)
(0.894587 0.447081 0)
(0.89454 0.447114 0)
(0.894506 0.447137 0)
(0.89448 0.447154 0)
(0.894461 0.447167 0)
(0.894446 0.447176 0)
(0.894434 0.447183 0)
(0.894425 0.447188 0)
(0.894419 0.447191 0)
(0.894413 0.447194 0)
(0.894409 0.447196 0)
(0.894407 0.447197 0)
(0.894405 0.447198 0)
(0.877642 0.431806 0)
(0.874824 0.42806 0)
(0.872687 0.42446 0)
(0.871535 0.421306 0)
(0.871535 0.418778 0)
(0.872702 0.416927 0)
(0.87496 0.415708 0)
(0.878194 0.415025 0)
(0.882295 0.414765 0)
(0.887158 0.41482 0)
(0.892687 0.415105 0)
(0.898793 0.415572 0)
(0.905398 0.416205 0)
(0.91241 0.41702 0)
(0.919703 0.41807 0)
(0.927124 0.419423 0)
(0.9345 0.421137 0)
(0.941638 0.423262 0)
(0.948307 0.425837 0)
(0.954263 0.42887 0)
(0.959291 0.432298 0)
(0.963213 0.436006 0)
(0.965883 0.439856 0)
(0.967198 0.443692 0)
(0.967143 0.447316 0)
(0.965799 0.450514 0)
(0.963303 0.453095 0)
(0.959833 0.454924 0)
(0.955604 0.455913 0)
(0.950883 0.456003 0)
(0.945968 0.455167 0)
(0.941137 0.453444 0)
(0.936614 0.450946 0)
(0.932568 0.447827 0)
(0.929136 0.444253 0)
(0.926431 0.44038 0)
(0.924531 0.436367 0)
(0.923428 0.432408 0)
(0.922992 0.428755 0)
(0.92296 0.425702 0)
(0.922984 0.423538 0)
(0.922705 0.422473 0)
(0.921849 0.422587 0)
(0.920288 0.423796 0)
(0.918057 0.42588 0)
(0.915321 0.428533 0)
(0.912313 0.431437 0)
(0.909273 0.434317 0)
(0.906403 0.436974 0)
(0.903838 0.43929 0)
(0.901648 0.441218 0)
(0.899851 0.442765 0)
(0.898425 0.443967 0)
(0.897327 0.444875 0)
(0.896503 0.445547 0)
(0.895898 0.446033 0)
(0.895464 0.446379 0)
(0.895156 0.446623 0)
(0.89494 0.446793 0)
(0.89479 0.446912 0)
(0.894685 0.446994 0)
(0.894611 0.447052 0)
(0.894559 0.447092 0)
(0.89452 0.447121 0)
(0.894492 0.447142 0)
(0.89447 0.447158 0)
(0.894453 0.447169 0)
(0.89444 0.447178 0)
(0.89443 0.447184 0)
(0.894422 0.447189 0)
(0.894416 0.447192 0)
(0.894412 0.447194 0)
(0.894408 0.447196 0)
(0.894406 0.447197 0)
(0.894404 0.447198 0)
(0.880152 0.433807 0)
(0.877329 0.430145 0)
(0.874911 0.426407 0)
(0.873231 0.422908 0)
(0.872511 0.419904 0)
(0.872851 0.417535 0)
(0.874236 0.415829 0)
(0.876576 0.414739 0)
(0.879761 0.41417 0)
(0.883679 0.414023 0)
(0.888226 0.414211 0)
(0.8933 0.414664 0)
(0.89881 0.415338 0)
(0.904661 0.416226 0)
(0.91074 0.417341 0)
(0.916918 0.418704 0)
(0.923055 0.420338 0)
(0.928984 0.422276 0)
(0.934519 0.424539 0)
(0.939479 0.427108 0)
(0.9437 0.429919 0)
(0.947041 0.432887 0)
(0.949382 0.435916 0)
(0.950659 0.438874 0)
(0.950875 0.441599 0)
(0.950098 0.443929 0)
(0.948429 0.445737 0)
(0.946002 0.446929 0)
(0.943002 0.447432 0)
(0.939655 0.447192 0)
(0.936196 0.446202 0)
(0.932834 0.444516 0)
(0.929731 0.442238 0)
(0.927015 0.439502 0)
(0.924797 0.436439 0)
(0.923166 0.433186 0)
(0.922154 0.429904 0)
(0.921701 0.426804 0)
(0.92163 0.424145 0)
(0.921671 0.422202 0)
(0.921515 0.421204 0)
(0.920894 0.421273 0)
(0.919649 0.422388 0)
(0.917763 0.424385 0)
(0.915348 0.427001 0)
(0.912597 0.429937 0)
(0.909732 0.432915 0)
(0.906952 0.43572 0)
(0.904407 0.438212 0)
(0.902187 0.440324 0)
(0.900329 0.442046 0)
(0.898827 0.443404 0)
(0.89765 0.444445 0)
(0.896754 0.445225 0)
(0.896087 0.445796 0)
(0.895601 0.446208 0)
(0.895254 0.4465 0)
(0.895009 0.446705 0)
(0.894838 0.446849 0)
(0.894719 0.446949 0)
(0.894636 0.447019 0)
(0.894577 0.447068 0)
(0.894534 0.447104 0)
(0.894503 0.447129 0)
(0.894479 0.447148 0)
(0.89446 0.447161 0)
(0.894446 0.447172 0)
(0.894435 0.447179 0)
(0.894426 0.447185 0)
(0.894419 0.447189 0)
(0.894414 0.447193 0)
(0.89441 0.447195 0)
(0.894407 0.447196 0)
(0.894405 0.447198 0)
(0.894403 0.447198 0)
(0.882531 0.435795 0)
(0.879864 0.432366 0)
(0.877363 0.428669 0)
(0.875342 0.424982 0)
(0.874059 0.421595 0)
(0.873679 0.418725 0)
(0.874257 0.416481 0)
(0.875754 0.414876 0)
(0.87808 0.413863 0)
(0.881122 0.413361 0)
(0.884774 0.413286 0)
(0.888932 0.413557 0)
(0.893496 0.414112 0)
(0.89836 0.414917 0)
(0.903421 0.415957 0)
(0.908573 0.417222 0)
(0.913691 0.418711 0)
(0.918633 0.420432 0)
(0.923254 0.422382 0)
(0.92742 0.424529 0)
(0.931007 0.426818 0)
(0.933901 0.429189 0)
(0.936011 0.43156 0)
(0.937292 0.433821 0)
(0.93776 0.435843 0)
(0.937467 0.437512 0)
(0.936491 0.438743 0)
(0.934943 0.439465 0)
(0.932975 0.439619 0)
(0.930767 0.439169 0)
(0.928499 0.438126 0)
(0.926321 0.436551 0)
(0.924354 0.434542 0)
(0.922699 0.43221 0)
(0.921438 0.42967 0)
(0.920622 0.427056 0)
(0.920235 0.424543 0)
(0.92017 0.422352 0)
(0.920226 0.420733 0)
(0.920152 0.419909 0)
(0.919707 0.420028 0)
(0.918725 0.421113 0)
(0.917152 0.423053 0)
(0.915052 0.425631 0)
(0.91258 0.428574 0)
(0.90993 0.431614 0)
(0.907292 0.43453 0)
(0.904819 0.437165 0)
(0.902614 0.439436 0)
(0.900732 0.441317 0)
(0.899182 0.442823 0)
(0.897948 0.443994 0)
(0.896991 0.444882 0)
(0.89627 0.445541 0)
(0.895737 0.44602 0)
(0.895353 0.446364 0)
(0.895079 0.446608 0)
(0.894887 0.446779 0)
(0.894753 0.446898 0)
(0.89466 0.446982 0)
(0.894594 0.447042 0)
(0.894547 0.447084 0)
(0.894513 0.447114 0)
(0.894487 0.447137 0)
(0.894467 0.447153 0)
(0.894452 0.447165 0)
(0.89444 0.447174 0)
(0.89443 0.447181 0)
(0.894423 0.447186 0)
(0.894417 0.44719 0)
(0.894412 0.447193 0)
(0.894409 0.447195 0)
(0.894406 0.447197 0)
(0.894404 0.447198 0)
(0.894403 0.447198 0)
(0.884687 0.437675 0)
(0.882295 0.434589 0)
(0.879884 0.431101 0)
(0.877721 0.427422 0)
(0.876063 0.423817 0)
(0.875113 0.420541 0)
(0.874987 0.417778 0)
(0.875709 0.415615 0)
(0.877232 0.414065 0)
(0.879463 0.413085 0)
(0.882295 0.412603 0)
(0.885628 0.412542 0)
(0.889356 0.412831 0)
(0.893375 0.413416 0)
(0.897583 0.414257 0)
(0.901882 0.415324 0)
(0.906162 0.4166 0)
(0.910306 0.418067 0)
(0.914203 0.419698 0)
(0.917749 0.421457 0)
(0.920842 0.423305 0)
(0.923391 0.425186 0)
(0.925334 0.427024 0)
(0.92665 0.428727 0)
(0.927351 0.430206 0)
(0.92747 0.431382 0)
(0.927069 0.432192 0)
(0.926244 0.432581 0)
(0.925122 0.432506 0)
(0.923841 0.431953 0)
(0.922527 0.430949 0)
(0.921286 0.42956 0)
(0.920206 0.427873 0)
(0.919364 0.425985 0)
(0.918814 0.424008 0)
(0.918564 0.422086 0)
(0.918551 0.420404 0)
(0.918637 0.419176 0)
(0.918627 0.418613 0)
(0.918318 0.418867 0)
(0.91755 0.419989 0)
(0.916252 0.421909 0)
(0.914453 0.424455 0)
(0.912268 0.427388 0)
(0.90986 0.430459 0)
(0.907404 0.433447 0)
(0.905048 0.436191 0)
(0.902905 0.438591 0)
(0.901038 0.440607 0)
(0.899472 0.442245 0)
(0.898203 0.443536 0)
(0.897204 0.444529 0)
(0.896438 0.445274 0)
(0.895866 0.445822 0)
(0.895447 0.446219 0)
(0.895147 0.446503 0)
(0.894935 0.446703 0)
(0.894786 0.446844 0)
(0.894683 0.446943 0)
(0.89461 0.447013 0)
(0.894559 0.447062 0)
(0.894522 0.447098 0)
(0.894494 0.447124 0)
(0.894473 0.447143 0)
(0.894457 0.447158 0)
(0.894444 0.447169 0)
(0.894434 0.447177 0)
(0.894426 0.447183 0)
(0.894419 0.447188 0)
(0.894414 0.447191 0)
(0.89441 0.447194 0)
(0.894408 0.447196 0)
(0.894405 0.447197 0)
(0.894404 0.447198 0)
(0.894403 0.447199 0)
(0.886578 0.439388 0)
(0.884514 0.436701 0)
(0.882324 0.433545 0)
(0.880194 0.430056 0)
(0.878357 0.42644 0)
(0.877023 0.422935 0)
(0.876343 0.419761 0)
(0.876397 0.417077 0)
(0.877191 0.414962 0)
(0.878671 0.413425 0)
(0.880752 0.412426 0)
(0.883333 0.411907 0)
(0.886312 0.411801 0)
(0.889591 0.412045 0)
(0.893071 0.412576 0)
(0.896654 0.413355 0)
(0.900243 0.414345 0)
(0.903745 0.415511 0)
(0.907067 0.416813 0)
(0.91012 0.41821 0)
(0.912825 0.419666 0)
(0.915113 0.421128 0)
(0.916947 0.422528 0)
(0.918313 0.423793 0)
(0.919215 0.424861 0)
(0.919675 0.425679 0)
(0.919745 0.426197 0)
(0.919507 0.426371 0)
(0.919063 0.426176 0)
(0.918512 0.425619 0)
(0.917939 0.424742 0)
(0.917416 0.423611 0)
(0.917005 0.422306 0)
(0.916755 0.42092 0)
(0.916685 0.419571 0)
(0.916763 0.41841 0)
(0.916898 0.417618 0)
(0.916948 0.417378 0)
(0.916746 0.417832 0)
(0.916154 0.419047 0)
(0.915095 0.420984 0)
(0.913575 0.42351 0)
(0.911673 0.426422 0)
(0.909525 0.429494 0)
(0.907282 0.432516 0)
(0.905084 0.435327 0)
(0.903043 0.437819 0)
(0.90123 0.439943 0)
(0.899681 0.441692 0)
(0.898404 0.443089 0)
(0.897381 0.444176 0)
(0.896586 0.445003 0)
(0.895982 0.445618 0)
(0.895535 0.446068 0)
(0.895211 0.446392 0)
(0.89498 0.446623 0)
(0.894817 0.446786 0)
(0.894704 0.446901 0)
(0.894624 0.446982 0)
(0.894569 0.44704 0)
(0.894529 0.447081 0)
(0.8945 0.447111 0)
(0.894478 0.447133 0)
(0.894461 0.44715 0)
(0.894448 0.447162 0)
(0.894437 0.447172 0)
(0.894429 0.447179 0)
(0.894422 0.447185 0)
(0.894417 0.447189 0)
(0.894412 0.447192 0)
(0.894409 0.447195 0)
(0.894406 0.447196 0)
(0.894405 0.447197 0)
(0.894403 0.447198 0)
(0.894402 0.447199 0)
(0.888191 0.440892 0)
(0.88646 0.43862 0)
(0.88456 0.435874 0)
(0.882606 0.432713 0)
(0.880765 0.429272 0)
(0.879235 0.42575 0)
(0.87818 0.422358 0)
(0.877713 0.419282 0)
(0.877887 0.416658 0)
(0.878695 0.414557 0)
(0.880087 0.412991 0)
(0.881981 0.411931 0)
(0.884283 0.411327 0)
(0.886902 0.411119 0)
(0.889745 0.411244 0)
(0.892717 0.411648 0)
(0.89573 0.412281 0)
(0.898702 0.413098 0)
(0.901556 0.414053 0)
(0.904219 0.415103 0)
(0.906623 0.416199 0)
(0.908719 0.417293 0)
(0.910478 0.418328 0)
(0.911886 0.419251 0)
(0.912947 0.420013 0)
(0.913682 0.420576 0)
(0.914133 0.420902 0)
(0.914363 0.420963 0)
(0.914444 0.420752 0)
(0.914443 0.420294 0)
(0.914417 0.419634 0)
(0.914414 0.418838 0)
(0.914471 0.417985 0)
(0.914607 0.417171 0)
(0.914809 0.416517 0)
(0.915017 0.416171 0)
(0.915128 0.416284 0)
(0.915017 0.416983 0)
(0.914572 0.418333 0)
(0.913719 0.420318 0)
(0.912451 0.422834 0)
(0.910824 0.425714 0)
(0.908942 0.428758 0)
(0.906933 0.431777 0)
(0.904923 0.434613 0)
(0.903019 0.437159 0)
(0.901294 0.439356 0)
(0.899795 0.441188 0)
(0.898536 0.442671 0)
(0.897511 0.443839 0)
(0.896702 0.444738 0)
(0.896079 0.445415 0)
(0.89561 0.445916 0)
(0.895267 0.44628 0)
(0.895019 0.446541 0)
(0.894844 0.446727 0)
(0.894721 0.446858 0)
(0.894636 0.44695 0)
(0.894577 0.447016 0)
(0.894535 0.447063 0)
(0.894505 0.447098 0)
(0.894482 0.447123 0)
(0.894465 0.447142 0)
(0.894451 0.447156 0)
(0.89444 0.447167 0)
(0.894431 0.447175 0)
(0.894424 0.447182 0)
(0.894419 0.447187 0)
(0.894414 0.44719 0)
(0.89441 0.447193 0)
(0.894408 0.447195 0)
(0.894405 0.447197 0)
(0.894404 0.447198 0)
(0.894403 0.447198 0)
(0.894402 0.447199 0)
(0.889536 0.442184 0)
(0.888119 0.440304 0)
(0.886523 0.437983 0)
(0.884819 0.435232 0)