/*--------------------------------*- C++ -*----------------------------------*\
  =========                 |
  \\      /  F ield         | OpenFOAM: The Open Source CFD Toolbox
   \\    /   O peration     | Website:  https://openfoam.org
    \\  /    A nd           | Version:  6
     \\/     M anipulation  |
\*---------------------------------------------------------------------------*/
FoamFile
{
    version     2.0;
    format      ascii;
    class       surfaceScalarField;
    location    "2.32";
    object      meshPhi;
}
// * * * * * * * * * * * * * * * * * * * * * * * * * * * * * * * * * * * * * //

dimensions      [0 3 -1 0 0 0 0];

internalField   nonuniform List<scalar> 
8193
(
0.00111931
0.00170404
-0.000334671
0.00205804
0.00326751
0.00307211
0.00472747
0.00408286
0.00606161
0.00501773
0.00724738
0.00581516
0.00826303
0.00642788
0.00908884
0.00682482
0.00970823
0.00699143
0.0101088
0.00692891
0.0102828
0.00665226
0.0102282
0.00618776
0.00994807
0.00557
0.00945082
0.0048388
0.00874979
0.00403621
0.00786265
0.00320377
0.00681076
0.00238023
0.00561845
0.00159956
0.00431236
0.000889561
0.00292084
0.000270828
0.00147334
-0.000243835
9.93523e-15
-0.000649603
-0.00146883
-0.000949447
-0.00290295
-0.00115358
-0.0042727
-0.00127855
-0.0055494
-0.0013459
-0.0067058
-0.00138053
-0.00771661
-0.00140863
-0.00855917
-0.00145521
-0.009214
-0.00154154
-0.00966555
-0.00168225
-0.00990277
-0.00188259
-0.0099196
-0.00213596
-0.00971534
-0.00242193
-0.00929466
-0.00270518
-0.00866743
-0.00293552
-0.00784821
-0.00304931
-0.00685536
-0.00297244
-0.00571003
-0.00262488
-0.00443486
-0.00192669
-0.00305278
-0.00158576
-0.000805232
0.00476179
0.00438281
-0.00205992
0.00774485
0.00702982
0.0107914
0.00958978
0.013695
0.0120179
0.0162743
0.0142605
0.0183824
0.0162588
0.0199137
0.0179539
0.020806
0.0192908
0.0210405
0.0202227
0.0206376
0.0207139
0.0196515
0.0207419
0.0181633
0.0202987
0.0162728
0.0193907
0.014091
0.018038
0.0117324
0.0162736
0.00930843
0.0141409
0.00692186
0.0116926
0.00466221
0.00898805
0.00260238
0.00609201
0.00079641
0.00307261
-0.000721861
0
-0.0019391
-0.00305501
-0.00286196
-0.00602219
-0.00351571
-0.00883314
-0.00394192
-0.0114226
-0.00419541
-0.0137299
-0.00434008
-0.0157006
-0.004444
-0.0172884
-0.00457351
-0.0184567
-0.00478667
-0.0191806
-0.00512628
-0.0194484
-0.00561283
-0.0192626
-0.00623794
-0.0186406
-0.00695894
-0.0176141
-0.00769532
-0.0162276
-0.00832763
-0.0145363
-0.00869963
-0.0126022
-0.00862401
-0.0104903
-0.00789198
-0.0082633
-0.00628659
-0.00597727
-0.00367687
-0.00359922
0.0111208
0.00750806
-0.00626038
0.0161354
0.0109831
0.0209938
0.014477
0.0254167
0.0179115
0.0291708
0.021188
0.0320786
0.0241961
0.0340239
0.0268223
0.0349527
0.028959
0.0348694
0.0305118
0.033831
0.0314059
0.0319379
0.0315899
0.0293232
0.0310381
0.0261426
0.0297511
0.022563
0.0277544
0.0187529
0.0250962
0.0148738
0.0218444
0.011073
0.0180832
0.00747778
0.0139092
0.00419132
0.00942848
0.00129004
0.00475346
-0.00117792
0
-0.00319287
-0.00471493
-0.00476281
-0.00927557
-0.00592147
-0.0135697
-0.00672536
-0.0174908
-0.00724964
-0.0209414
-0.00758291
-0.0238352
-0.00782068
-0.026101
-0.00805778
-0.0276855
-0.00837973
-0.028557
-0.00885343
-0.0287079
-0.00951762
-0.0281566
-0.0103738
-0.0269484
-0.0113782
-0.0251543
-0.0124359
-0.0228682
-0.0133981
-0.0202023
-0.0140628
-0.0172804
-0.01418
-0.0142292
-0.0134621
-0.0111695
-0.011599
-0.00820598
-0.00541884
-0.00827712
0.0203953
0.0108283
-0.0134871
0.0271356
0.0150612
0.0333621
0.0194641
0.038779
0.0239125
0.0431531
0.0282514
0.0463212
0.0323088
0.0481923
0.0359089
0.048746
0.038885
0.0480264
0.041091
0.0461333
0.0424098
0.0432115
0.0427598
0.0394381
0.0420973
0.0350107
0.0404176
0.0301357
0.0377527
0.0250171
0.0341681
0.0198477
0.0297582
0.0148015
0.0246409
0.0100278
0.0189524
0.00564726
0.0128428
0.00174916
0.00647073
-0.00160986
-1.58819e-20
-0.00440569
-0.00640424
-0.00664575
-0.0125788
-0.00836674
-0.018366
-0.0096314
-0.0236167
-0.0105241
-0.0281948
-0.011145
-0.0319813
-0.0116036
-0.0348794
-0.0120101
-0.0368188
-0.0124664
-0.0377613
-0.0130558
-0.0377044
-0.0138328
-0.0366842
-0.0148127
-0.0347769
-0.0159623
-0.0320971
-0.0171927
-0.028794
-0.0183548
-0.025044
-0.0192382
-0.0210415
-0.0195749
-0.016986
-0.0190478
-0.0130683
-0.0173041
-0.0094559
-0.00627928
-0.0139733
0.0324145
0.0143541
-0.023892
0.0403365
0.0193949
0.0473306
0.0247571
0.0531327
0.0302614
0.0575496
0.0356913
0.0604631
0.0408105
0.0618291
0.0453803
0.0616738
0.0491768
0.0600856
0.0520043
0.0572048
0.0537072
0.0532122
0.0541767
0.0483167
0.0533547
0.0427426
0.0512344
0.0367184
0.0478571
0.0304662
0.0433075
0.0241933
0.0377079
0.018085
0.031211
0.0122993
0.0239931
0.00696344
0.0162478
0.00217167
0.00817977
-0.00201565
0
-0.00557168
-0.00807919
-0.00850181
-0.0158483
-0.0108413
-0.0231049
-0.0126521
-0.0296585
-0.0140183
-0.0353351
-0.0150408
-0.0399835
-0.0158307
-0.0434812
-0.0165013
-0.0457407
-0.0171592
-0.0467166
-0.0178948
-0.0464102
-0.0187716
-0.0448742
-0.0198168
-0.0422137
-0.0210114
-0.0385855
-0.0222827
-0.0341924
-0.0234989
-0.0292751
-0.0244671
-0.0240989
-0.0249349
-0.0189384
-0.0245963
-0.0140594
-0.0231028
-0.00969958
-0.00605022
-0.0200773
0.0466252
0.0182954
-0.0371647
0.0550338
0.0242387
0.0621234
0.0306202
0.0676939
0.0372039
0.0716164
0.0437134
0.0738332
0.0498524
0.0743556
0.055326
0.0732574
0.0598596
0.0706668
0.0632159
0.0667557
0.0652074
0.0617289
0.0657049
0.0558121
0.0646414
0.0492408
0.0620118
0.0422497
0.0578694
0.0350634
0.05232
0.0278893
0.0455141
0.0209111
0.0376387
0.0142847
0.0289086
0.00813538
0.0195589
0.00255593
0.0098377
-0.0023934
1.05479e-14
-0.00668443
-0.00969781
-0.0103195
-0.0190031
-0.0133293
-0.0276722
-0.0157693
-0.0354756
-0.0177161
-0.0422044
-0.0192624
-0.0476767
-0.0205108
-0.0517457
-0.0215667
-0.054307
-0.0225307
-0.0553068
-0.0234898
-0.0547486
-0.0245084
-0.0526981
-0.025619
-0.0492854
-0.0268143
-0.0447038
-0.0280395
-0.0392041
-0.0291877
-0.0330843
-0.0300972
-0.0266753
-0.0305514
-0.0203219
-0.0302839
-0.0143615
-0.028985
-0.00910198
-0.00479862
-0.0263139
0.0621284
0.0229631
-0.0525335
0.0702834
0.0298804
0.0768151
0.0372976
0.0816027
0.0449272
0.0845895
0.0524404
0.0857803
0.0594909
0.0852379
0.0657375
0.0830763
0.070866
0.0794526
0.0746073
0.0745576
0.0767513
0.0686056
0.0771556
0.0618247
0.0757498
0.0544465
0.0725347
0.0466981
0.0675778
0.0387938
0.0610066
0.0309293
0.052999
0.0232768
0.0437741
0.0159818
0.0335824
0.00916083
0.0226968
0.00290073
0.0114045
-0.00274137
-1.0577e-14
-0.0077371
-0.0112211
-0.0120853
-0.0219678
-0.0158095
-0.0319598
-0.0189552
-0.0409331
-0.0215862
-0.0486473
-0.02378
-0.0548934
-0.0256229
-0.0595021
-0.0272038
-0.0623532
-0.0286079
-0.0633844
-0.0299094
-0.0625992
-0.0311639
-0.0600727
-0.0324014
-0.0559544
-0.0336194
-0.0504672
-0.0347771
-0.0439011
-0.0357912
-0.036602
-0.0365341
-0.0289558
-0.0368335
-0.0213676
-0.0364756
-0.0142375
-0.0352109
-0.0079362
-0.00277894
-0.0327614
0.0777621
0.0286572
-0.0688334
0.0849861
0.036548
0.0904102
0.0449412
0.093992
0.0535073
0.095741
0.0618768
0.0957157
0.0696656
0.0940185
0.0764989
0.0907903
0.0820349
0.0862031
0.0859831
0.0804518
0.0881197
0.0737465
0.0882964
0.0663038
0.0864444
0.0583395
0.0825733
0.0500614
0.0767661
0.0416634
0.0691712
0.0333211
0.059992
0.025188
0.0494767
0.017393
0.0379072
0.0100396
0.0255893
0.0032053
0.0128441
-0.00305799
0
-0.00872264
-0.0126139
-0.0137836
-0.0246741
-0.0182563
-0.0358691
-0.0221737
-0.0459057
-0.0255832
-0.054517
-0.0285428
-0.0614705
-0.0311171
-0.0665778
-0.0333719
-0.0697046
-0.0353699
-0.0707805
-0.0371644
-0.0698074
-0.0387941
-0.0668667
-0.0402777
-0.0621222
-0.041609
-0.0558186
-0.0427534
-0.048276
-0.0436446
-0.0398772
-0.0441841
-0.0310509
-0.0442417
-0.0222494
-0.0436578
-0.0139232
-0.0422478
-0.00649374
-0.000326667
-0.0398082
0.0922215
0.0355598
-0.0846324
0.0979941
0.0443299
0.101932
0.0535541
0.104058
0.0628728
0.104433
0.0718888
0.103153
0.080193
0.100343
0.0873895
0.096157
0.0931198
0.0907655
0.0970823
0.0843546
0.099047
0.0771173
0.0988656
0.0692482
0.0964745
0.0609371
0.0918942
0.0523647
0.0852228
0.0436977
0.076628
0.0350855
0.0663359
0.0266584
0.0546195
0.0185252
0.0417874
0.0107735
0.0281729
0.00346929
0.0141251
-0.0033419
1.07451e-14
-0.00963388
-0.0138459
-0.0153979
-0.0270627
-0.0206407
-0.0393138
-0.0253815
-0.0502825
-0.0296496
-0.0596805
-0.0334814
-0.0672566
-0.0369161
-0.072807
-0.0399931
-0.0761858
-0.0427473
-0.0773154
-0.0452056
-0.076196
-0.0473831
-0.0729127
-0.0492796
-0.0676388
-0.0508771
-0.0606348
-0.0521378
-0.0522415
-0.0530031
-0.0428683
-0.0533944
-0.0329743
-0.053214
-0.0230457
-0.0523487
-0.0135694
-0.0506729
-0.00500424
0.00224663
-0.0480536
0.104202
0.0436539
-0.0984
0.108227
0.0531205
0.110513
0.0629588
0.111129
0.0727909
0.110166
0.0822034
0.107739
0.090774
0.103982
0.0980966
0.099043
0.103806
0.09308
0.107596
0.0862583
0.109238
0.0787444
0.108587
0.0707029
0.105588
0.0622915
0.100271
0.0536586
0.0927501
0.0449394
0.0832086
0.0362548
0.0718918
0.0277089
0.0590931
0.0193892
0.0451423
0.0113659
0.0303948
0.00369272
0.0152214
-0.00359195
9.14796e-18
-0.0104638
-0.014892
-0.0169108
-0.0290846
-0.0229308
-0.042222
-0.0285296
-0.0539697
-0.0337181
-0.0640236
-0.03851
-0.0721185
-0.0429189
-0.0780391
-0.0469553
-0.0816311
-0.0506245
-0.0828116
-0.0539236
-0.0815793
-0.0568397
-0.0780216
-0.0593486
-0.072318
-0.0614134
-0.0647392
-0.062985
-0.05564
-0.0640028
-0.0454464
-0.0643968
-0.0346373
-0.0640901
-0.0237207
-0.0630023
-0.0132065
-0.0610535
-0.00357771
0.00473784
-0.0581682
0.112546
0.0526807
-0.108696
0.114782
0.0626011
0.115476
0.0727952
0.114719
0.0828763
0.112615
0.092425
0.109281
0.101015
0.104842
0.108239
0.0994299
0.113731
0.0931803
0.117189
0.0862294
0.118387
0.0787113
0.117188
0.070756
0.113544
0.0624861
0.107497
0.0540152
0.0991726
0.0454465
0.0887681
0.0368708
0.0765435
0.0283665
0.0628079
0.0199991
0.0479073
0.0118218
0.0322134
0.00387602
0.0161131
-0.00380724
1.02636e-14
-0.0112058
-0.0157333
-0.0183046
-0.0307024
-0.0250935
-0.044538
-0.0315654
-0.0568938
-0.0377137
-0.0674547
-0.0435306
-0.0759463
-0.049004
-0.0821461
-0.0541168
-0.0858944
-0.058844
-0.0871056
-0.0631525
-0.0857777
-0.0669997
-0.0819999
-0.0703341
-0.0759559
-0.0730957
-0.0679226
-0.075218
-0.0582628
-0.0766304
-0.0474124
-0.0772615
-0.0358608
-0.077043
-0.0241275
-0.0759134
-0.0127345
-0.0738226
-0.00217759
0.00710226
-0.0707348
0.116379
0.0621436
-0.114353
0.117034
0.0722571
0.116401
0.0825461
0.114575
0.0926226
0.111658
0.102069
0.107753
0.110461
0.102969
0.117397
0.0974124
0.122517
0.0911892
0.125523
0.0844029
0.126199
0.0771529
0.124413
0.069533
0.120127
0.0616306
0.113393
0.0535254
0.104344
0.0452888
0.09319
0.0369833
0.0802009
0.0286627
0.0656969
0.0203718
0.0500355
0.0121476
0.0335992
0.00401993
0.0167861
-0.00398713
0
-0.0118536
-0.0163566
-0.019562
-0.0318903
-0.0270952
-0.0462237
-0.0344343
-0.0590032
-0.0415571
-0.0699077
-0.0484358
-0.0786583
-0.0550354
-0.085029
-0.0613123
-0.0888582
-0.0672137
-0.0900597
-0.0726772
-0.0886325
-0.0776314
-0.0846676
-0.0819969
-0.078352
-0.0856891
-0.069966
-0.0886208
-0.0598767
-0.0907061
-0.0485239
-0.0918651
-0.0364011
-0.092028
-0.0240314
-0.0911404
-0.0119406
-0.089167
-0.000627836
0.00946159
-0.0860954
0.115216
0.0713573
-0.114631
0.1147
0.08143
0.113164
0.0915892
0.110695
0.101452
0.10738
0.110606
0.103303
0.118637
0.0985469
0.12515
0.0931912
0.129795
0.0873102
0.132284
0.080974
0.132407
0.0742475
0.130042
0.0671902
0.125159
0.0598563
0.117816
0.0522939
0.108154
0.0445456
0.0963907
0.0366481
0.0828024
0.0286328
0.0677168
0.0205262
0.051498
0.0123506
0.0345353
0.00412551
0.0172327
-0.00413125
-5.12438e-15
-0.0124019
-0.0167552
-0.0206669
-0.0326351
-0.0289031
-0.0472586
-0.0370819
-0.0602695
-0.0451673
-0.0713447
-0.0531141
-0.0802046
-0.0608671
-0.0866235
-0.0683599
-0.0904408
-0.0755146
-0.0915722
-0.0822427
-0.0900192
-0.0884461
-0.0858756
-0.0940198
-0.0793307
-0.0988551
-0.0706672
-0.102843
-0.0602534
-0.105882
-0.0485294
-0.107877
-0.035988
-0.108753
-0.0231504
-0.108452
-0.0105395
-0.106944
0.0013484
0.0120702
-0.104226
0.10902
0.0795343
-0.10932
0.107876
0.0893955
0.105956
0.0992669
0.103332
0.108774
0.10007
0.117516
0.0962344
0.125088
0.0918804
0.13111
0.0870589
0.13524
0.0818146
0.137202
0.0761862
0.136795
0.0702074
0.133904
0.0639069
0.128507
0.0573093
0.120668
0.0504352
0.110532
0.0433022
0.0983212
0.0359245
0.0843165
0.0283144
0.0688485
0.0204825
0.0522847
0.0124389
0.0350168
0.00419411
0.0174514
-0.00423952
0
-0.0128461
-0.0169285
-0.0216045
-0.0329356
-0.0304867
-0.0476405
-0.0394558
-0.0606877
-0.0484645
-0.0717561
-0.0574533
-0.0805685
-0.0663501
-0.0869026
-0.075069
-0.0906016
-0.0835113
-0.0915853
-0.0915659
-0.0898591
-0.0991123
-0.0855204
-0.106023
-0.0787611
-0.112167
-0.0698653
-0.117417
-0.0592009
-0.121653
-0.0472057
-0.124767
-0.0343685
-0.126674
-0.0212046
-0.127308
-0.00823005
-0.126638
0.00406614
0.0152479
-0.124662
0.0982195
0.085893
-0.0987728
0.0970308
0.0954557
0.0952633
0.104964
0.0929701
0.114054
0.0901988
0.122339
0.0869899
0.129429
0.0833759
0.134956
0.0793817
0.138592
0.0750254
0.140073
0.0703187
0.139206
0.0652684
0.135885
0.0598772
0.130092
0.054145
0.121897
0.0480693
0.111448
0.0416469
0.0989689
0.0348737
0.0847413
0.0277462
0.0690969
0.0202622
0.0524029
0.0124214
0.0350509
0.0042273
0.0174465
-0.00431218
4.94174e-15
-0.0131827
-0.0168816
-0.022362
-0.0328022
-0.031818
-0.0473841
-0.0415073
-0.0602759
-0.0513734
-0.071161
-0.0613455
-0.0797678
-0.0713376
-0.0858794
-0.0812485
-0.0893453
-0.0909622
-0.0900913
-0.10035
-0.088128
-0.109272
-0.0835573
-0.117583
-0.0765742
-0.125134
-0.0674635
-0.131781
-0.0565918
-0.137387
-0.0443933
-0.141833
-0.0313504
-0.145021
-0.0179704
-0.14688
-0.00475951
-0.147369
0.0078035
0.0192923
-0.146483
0.0836616
0.0897712
-0.0838777
0.0829638
0.0990321
0.081827
0.108181
0.0802884
0.116869
0.0783775
0.124724
0.0761155
0.131374
0.0735141
0.136465
0.0705768
0.139683
0.0672995
0.140774
0.0636718
0.139558
0.0596787
0.135936
0.0553019
0.129893
0.0505215
0.121503
0.0453169
0.110917
0.0396681
0.0983568
0.0335568
0.0841044
0.0269671
0.0684895
0.0198865
0.0518769
0.0123072
0.0346556
0.0042269
0.0172277
-0.00434976
0
-0.0134095
-0.0166249
-0.0229291
-0.0322558
-0.0328733
-0.0465205
-0.0431935
-0.0590738
-0.0538259
-0.0696062
-0.0646909
-0.0778533
-0.0756916
-0.0836062
-0.0867149
-0.0867223
-0.0976314
-0.0871347
-0.108298
-0.084861
-0.118561
-0.0800081
-0.128259
-0.0727742
-0.137229
-0.0634453
-0.145314
-0.0523863
-0.152363
-0.0400267
-0.158245
-0.0268417
-0.162852
-0.0133289
-0.166101
1.6451e-05
-0.167944
0.0127273
0.0243887
-0.168367
0.0665265
-0.0659522
0.0667246
0.0665753
0.0661012
0.0653158
0.0642235
0.0628189
0.0610877
0.059008
0.0565519
0.0536874
0.0503799
0.0465941
0.0422955
0.0374516
0.0320331
0.0260148
0.0193769
0.0121057
0.00419489
-0.00435312
-0.0135257
-0.0232985
-0.0336336
-0.0444783
-0.0557632
-0.0674015
-0.0792881
-0.0913004
-0.103299
-0.115129
-0.126625
-0.137614
-0.147922
-0.157378
-0.165821
-0.173107
-0.179116
-0.183755
-0.186962
-0.18871
-0.0519098
-0.173168
-0.0587759
-0.155643
-0.0624561
-0.136735
-0.0631519
-0.117723
-0.061327
-0.0996817
-0.0575967
-0.0833919
-0.0526088
-0.0692977
-0.0469371
-0.0575064
-0.0410061
-0.0478321
-0.0350605
-0.0398756
-0.029184
-0.0331287
-0.0233626
-0.0270876
-0.01758
-0.021361
-0.0119251
-0.0157572
-0.00668991
-0.010338
-0.00243405
-0.00543255
-0.00160879
-0.0602772
-0.157568
-0.0666201
-0.142653
-0.0699961
-0.126487
-0.0705689
-0.110081
-0.0687217
-0.0943027
-0.0649731
-0.0798072
-0.0598854
-0.0670052
-0.053979
-0.0560536
-0.047668
-0.0468794
-0.0412264
-0.039228
-0.0347894
-0.0327318
-0.0283904
-0.0269886
-0.0220259
-0.0216418
-0.0157364
-0.0164505
-0.00968915
-0.0113428
-0.0042456
-0.00644442
-0.00207963
-0.0667715
-0.142105
-0.0726743
-0.129566
-0.0758437
-0.115893
-0.0764036
-0.101878
-0.0746608
-0.0882142
-0.071042
-0.0754469
-0.0660239
-0.0639443
-0.060066
-0.0538879
-0.0535563
-0.045282
-0.0467771
-0.0379818
-0.0398972
-0.0317364
-0.0329887
-0.026241
-0.0260683
-0.0211938
-0.0191548
-0.0163493
-0.0123339
-0.0115646
-0.00581937
-0.00683126
-0.00229101
-0.0713144
-0.126966
-0.0768403
-0.116556
-0.0798738
-0.105119
-0.0805001
-0.0932711
-0.078956
-0.0815615
-0.0755832
-0.0704374
-0.070776
-0.0602216
-0.0649291
-0.0511009
-0.0583932
-0.0431291
-0.0514431
-0.0362413
-0.0442642
-0.0302793
-0.0369567
-0.0250254
-0.029559
-0.0202399
-0.0220854
-0.015701
-0.0145736
-0.0112398
-0.00713505
-0.00677108
-0.0023127
-0.0739224
-0.112323
-0.0791142
-0.10379
-0.0820561
-0.0943336
-0.082798
-0.0844277
-0.0815142
-0.0745027
-0.0784702
-0.0649209
-0.0739832
-0.0559585
-0.0683832
-0.0477952
-0.0619764
-0.0405129
-0.0550183
-0.0341014
-0.0476969
-0.0284734
-0.0401294
-0.0234839
-0.0323733
-0.0189549
-0.024448
-0.0147023
-0.0163679
-0.0105623
-0.00817952
-0.00641544
-0.0022064
-0.0746966
-0.0983304
-0.0795782
-0.0914282
-0.0824488
-0.0837035
-0.0833276
-0.0755169
-0.0823352
-0.0672021
-0.0796701
-0.0590484
-0.07558
-0.051287
-0.0703324
-0.0440824
-0.0641866
-0.0375286
-0.0573703
-0.0316508
-0.0500632
-0.0264125
-0.0423897
-0.0217267
-0.0344206
-0.0174705
-0.0261853
-0.0135029
-0.0176907
-0.00968252
-0.00894762
-0.00588576
-0.00202308
-0.0738061
-0.0851197
-0.0783859
-0.0796144
-0.0811855
-0.0733848
-0.0821989
-0.0667023
-0.0815022
-0.0598225
-0.0792365
-0.052973
-0.0755884
-0.0463435
-0.0707681
-0.0400784
-0.0649878
-0.0342731
-0.058443
-0.0289727
-0.0512973
-0.0241755
-0.0436735
-0.0198378
-0.0356502
-0.0158827
-0.0272666
-0.0122106
-0.018532
-0.00871063
-0.00944225
-0.00527322
-0.00180205
-0.0714689
-0.072799
-0.0757435
-0.0684727
-0.0784573
-0.0635175
-0.0795849
-0.0581348
-0.0791661
-0.0525179
-0.0772951
-0.046843
-0.0741061
-0.0412625
-0.0697584
-0.0358991
-0.0644197
-0.0308423
-0.0582516
-0.0261462
-0.051397
-0.0218303
-0.0439703
-0.0178816
-0.0360524
-0.014259
-0.0276898
-0.0108988
-0.0188989
-0.00772185
-0.00967404
-0.00464142
-0.00157135
-0.0679311
-0.0614483
-0.0718897
-0.0581031
-0.074493
-0.0542202
-0.0757013
-0.049947
-0.0755268
-0.0454274
-0.0740258
-0.0407956
-0.0712896
-0.0361715
-0.0674334
-0.0316562
-0.0625849
-0.027329
-0.0568727
-0.0232453
-0.0504165
-0.019436
-0.0433181
-0.0159079
-0.0356554
-0.0126457
-0.0274795
-0.0096143
-0.0188145
-0.00676321
-0.00966038
-0.00403071
-0.00134911
-0.0634468
-0.0511196
-0.0670753
-0.0485792
-0.0695379
-0.0455869
-0.0707863
-0.0422489
-0.070812
-0.0386704
-0.0696425
-0.0349519
-0.0673345
-0.0311856
-0.0639668
-0.0274524
-0.0596323
-0.0238195
-0.0544295
-0.0203385
-0.0484545
-0.0170446
-0.041794
-0.0139558
-0.0345195
-0.0110738
-0.0266831
-0.00838454
-0.018315
-0.00586065
-0.00942414
-0.00346333
-0.00114543
-0.0582602
-0.0418372
-0.0615442
-0.0399475
-0.0638353
-0.0376851
-0.0650805
-0.0351252
-0.0652574
-0.0323434
-0.0643722
-0.0294132
-0.0624552
-0.0264039
-0.0595562
-0.0233783
-0.055739
-0.0203912
-0.0510756
-0.0174875
-0.0456402
-0.0147017
-0.0395037
-0.0120568
-0.0327286
-0.00956414
-0.0253648
-0.00722388
-0.0174468
-0.00502539
-0.00899195
-0.00294842
-0.000964449
-0.0525909
-0.0335999
-0.0555187
-0.0322284
-0.0576097
-0.0305562
-0.0588097
-0.0286352
-0.0590884
-0.0265187
-0.0584369
-0.024259
-0.0568664
-0.0219069
-0.0544045
-0.0195097
-0.0510918
-0.0171103
-0.0469783
-0.0147456
-0.0421187
-0.0124465
-0.0365686
-0.0102363
-0.0303804
-0.00813093
-0.0235997
-0.0061385
-0.0162625
-0.00425939
-0.0083925
-0.0024866
-0.000806293
-0.0466237
-0.0263843
-0.0491875
-0.0254189
-0.0510542
-0.024217
-0.0521718
-0.0228134
-0.0525057
-0.0212445
-0.0520382
-0.0195467
-0.0507671
-0.0177558
-0.0487041
-0.0159064
-0.0458722
-0.0140304
-0.0423038
-0.0121569
-0.0380373
-0.0103114
-0.0331145
-0.00851488
-0.0275777
-0.00678388
-0.0214667
-0.00512992
-0.0148165
-0.00355939
-0.00765471
-0.00207356
-0.000668687
-0.0405017
-0.0201491
-0.0426986
-0.0194964
-0.0443229
-0.0186632
-0.0453267
-0.0176721
-0.0456751
-0.0165471
-0.0453458
-0.0153124
-0.0443285
-0.0139925
-0.0426241
-0.0126114
-0.0402431
-0.0111919
-0.0372046
-0.00975558
-0.033534
-0.008322
-0.0292615
-0.00690846
-0.0244199
-0.00552959
-0.0190426
-0.00419714
-0.0131618
-0.00291973
-0.00680625
-0.00170273
-0.000548215
-0.034324
-0.01484
-0.0361558
-0.0144229
-0.0375257
-0.0138732
-0.0383918
-0.0132051
-0.0387213
-0.0124334
-0.0384909
-0.0115736
-0.0376863
-0.0106413
-0.0363019
-0.00965233
-0.0343401
-0.00862216
-0.0318105
-0.00756563
-0.0287289
-0.00649673
-0.025116
-0.00542836
-0.0209966
-0.00437207
-0.0163975
-0.00333786
-0.0113468
-0.00233402
-0.00587229
-0.00136697
-0.000441168
-0.0281463
-0.010395
-0.029619
-0.0101502
-0.0307288
-0.00981315
-0.0314406
-0.00939191
-0.0317261
-0.00889504
-0.0315632
-0.00833161
-0.030937
-0.00771099
-0.0298388
-0.00704275
-0.0282663
-0.00633643
-0.0262233
-0.00560142
-0.0237186
-0.00484683
-0.020766
-0.00408131
-0.0173832
-0.0033129
-0.0135913
-0.00254894
-0.00941353
-0.00179594
-0.00487466
-0.00105946
-0.000344034
-0.0219839
-0.00674905
-0.0231067
-0.00662464
-0.0239561
-0.00644093
-0.0245047
-0.00620191
-0.0247293
-0.00591194
-0.0246116
-0.00557569
-0.0241378
-0.00519809
-0.0232992
-0.00478422
-0.0220915
-0.00433925
-0.020515
-0.00386838
-0.0185743
-0.00337676
-0.0162782
-0.00286939
-0.0136391
-0.00235108
-0.0106723
-0.00182637
-0.00739625
-0.00129944
-0.00383144
-0.000774115
-0.000253731
-0.0158166
-0.00383875
-0.0166014
-0.00379155
-0.017195
-0.00371107
-0.0175779
-0.00359882
-0.0177334
-0.00345652
-0.0176477
-0.00328605
-0.0173101
-0.00308941
-0.0167134
-0.00286872
-0.0158533
-0.0026262
-0.0147289
-0.0023641
-0.0133425
-0.00208469
-0.0116991
-0.00179024
-0.00980693
-0.00148298
-0.0076767
-0.00116508
-0.00532159
-0.000838621
-0.00275696
-0.000505544
-0.000167659
-0.00959523
-0.00160585
-0.0100552
-0.00159888
-0.0104017
-0.00157822
-0.0106231
-0.00154415
-0.0107094
-0.00149699
-0.010652
-0.0014371
-0.0104446
-0.00136492
-0.0100823
-0.00128092
-0.00956234
-0.0011856
-0.00888373
-0.0010795
-0.00804747
-0.00096319
-0.00705637
-0.000837245
-0.0059151
-0.000702257
-0.00463003
-0.00055882
-0.00320922
-0.000407524
-0.00166222
-0.00024895
-8.36655e-05
-0.00324779
-2.12437e-18
-0.00339736
-1.68468e-18
-0.00350907
-1.80558e-18
-0.0035791
-1.75701e-18
-0.00360413
-1.36759e-18
-0.00358141
-1.30162e-18
-0.00350877
-1.23868e-18
-0.00338463
-9.28403e-19
-0.00320805
-6.45914e-19
-0.00297869
-4.60792e-19
-0.00269689
-2.60445e-19
-0.00236358
-2.61783e-19
-0.00198034
-3.25362e-19
-0.00154934
-2.28058e-19
-0.00107333
-1.16451e-19
-0.000555618
-4.66794e-20
-9.34098e-21
0.00331272
0.0010196
0.0034584
0.00104452
0.00356572
0.00106126
0.00363095
0.00106915
0.00365088
0.00106752
0.00362286
0.00105571
0.00354481
0.00103303
0.00341528
0.000998863
0.0032334
0.000952574
0.00299897
0.000893574
0.00271242
0.000821311
0.00237481
0.000735275
0.00198781
0.000635009
0.0015537
0.000520116
0.00107534
0.000390261
0.000556135
0.000245183
8.46978e-05
0.0101809
0.00148362
0.0106057
0.00156634
0.0109126
0.00163781
0.0110907
0.00169572
0.0111308
0.00173769
0.0110256
0.0017613
0.0107694
0.00176414
0.0103583
0.0017438
0.00979064
0.00169793
0.0090663
0.00162428
0.00818727
0.00152069
0.00715737
0.00138514
0.00598221
0.00121581
0.00466916
0.00101104
0.00322722
0.000769437
0.00166687
0.000489827
0.000171332
0.017451
0.00141304
0.0181372
0.00158976
0.0186197
0.0017569
0.0188814
0.00190934
0.0189079
0.00204183
0.0186882
0.00214901
0.0182143
0.00222552
0.0174814
0.00226603
0.0164882
0.00226538
0.0152363
0.0022186
0.0137307
0.00212101
0.0119794
0.0019683
0.00999302
0.00175655
0.00778511
0.0014824
0.0053714
0.00114299
0.00276981
0.000736106
0.000260198
0.0252082
0.000820578
0.0261355
0.00113314
0.0267645
0.00144211
0.0270726
0.00173814
0.0270419
0.00201164
0.026659
0.0022529
0.0259155
0.00245226
0.024808
0.00260024
0.0233374
0.00268773
0.0215097
0.00270613
0.0193347
0.0026475
0.0168265
0.0025047
0.0140027
0.00227154
0.0108838
0.00194288
0.00749332
0.00151477
0.00385645
0.000984508
0.000350751
0.0335197
-0.000287116
0.034664
0.000211104
0.0354039
0.00071552
0.0357125
0.00121071
0.03557
0.0016809
0.0349632
0.00211031
0.033886
0.00248337
0.0323388
0.00278512
0.0303283
0.0030014
0.0278672
0.0031192
0.0249734
0.0031269
0.0216693
0.00301451
0.0179813
0.00277391
0.0139387
0.002399
0.00957263
0.0018859
0.00491558
0.00123305
0.000441318
0.0424257
-0.00190668
0.0437579
-0.00116271
0.0445652
-0.000399605
0.0448183
0.000358642
0.044498
0.00108774
0.0435944
0.00176364
0.042107
0.00236309
0.040044
0.0028641
0.0374216
0.00324651
0.034263
0.00349239
0.0305974
0.00358651
0.0264585
0.00351668
0.0218835
0.00327407
0.0169114
0.00285347
0.0115816
0.00225345
0.00593253
0.00147644
0.000528808
0.0519302
-0.00403491
0.0534148
-0.00297255
0.0542369
-0.00187591
0.0543677
-0.000780841
0.0537916
0.000276809
0.0525061
0.00126209
0.0505208
0.00214187
0.0478565
0.00288569
0.0445435
0.00346651
0.0406199
0.00386152
0.03613
0.00405264
0.031122
0.00402711
0.0256458
0.00377782
0.019751
0.00330357
0.0134844
0.00260915
0.00688875
0.00170529
0.000608498
0.0619926
-0.00666557
0.0635866
-0.00519752
0.0643615
-0.00367914
0.0642917
-0.00216244
0.0633699
-0.000698713
0.0616061
0.000662945
0.0590256
0.0018771
0.0556674
0.00290332
0.0515816
0.00370735
0.0468265
0.00426215
0.0414654
0.00454872
0.035564
0.00455662
0.0291865
0.00428437
0.0223931
0.0037395
0.0152369
0.00293836
0.00776178
0.0019057
0.000673982
0.0725212
-0.00978653
0.0741739
-0.00780892
0.0748293
-0.00576579
0.0744698
-0.00373089
0.0731016
-0.00177586
0.0707533
3.21671e-05
0.0674731
0.00163279
0.0633252
0.00297438
0.0583856
0.00401573
0.0527384
0.00472745
0.0464702
0.00509288
0.0396667
0.00510859
0.0324073
0.00478443
0.0247619
0.00414317
0.0167876
0.00321963
0.0085256
0.00205943
0.00071741
0.0833689
-0.0133774
0.0850219
-0.0107683
0.0854768
-0.00808161
0.0847286
-0.00542002
0.0828041
-0.00288158
0.0797585
-0.000556086
0.0756708
0.00147836
0.0706383
0.00315819
0.0647704
0.00443663
0.0581822
0.00528535
0.0509878
0.0056953
0.0432946
0.00567679
0.0351972
0.00525887
0.0267733
0.00448783
0.0180798
0.00342516
0.00915146
0.00214483
0.000730094
0.0943325
-0.0174082
0.0959214
-0.0140266
0.0960873
-0.0105613
0.0948443
-0.00715305
0.0922481
-0.0039338
0.0883894
-0.00102124
0.0833878
0.00148613
0.0773825
0.00351297
0.0705238
0.00500993
0.0629636
0.00595531
0.0548466
0.00635541
0.0463024
0.00624361
0.0374392
0.00567813
0.0283388
0.00473879
0.0190542
0.00352266
0.00960912
0.00213899
0.000703581
0.105157
-0.021839
0.106613
-0.0175245
0.106398
-0.0131296
0.10455
-0.00884438
0.101166
-0.00484384
0.0963805
-0.00127948
0.0903657
0.00172758
0.0833124
0.00409178
0.0754192
0.00576643
0.0668796
0.00674489
0.0578708
0.00705961
0.0485441
0.00677911
0.0390176
0.0060031
0.0293726
0.00485592
0.019653
0.00347873
0.00986842
0.00202096
0.0006312
0.115542
-0.0266209
0.116799
-0.0211944
0.116109
-0.0157038
0.11355
-0.0104028
0.109264
-0.00552039
0.103447
-0.00124821
0.0963343
0.00226852
0.0881771
0.00493769
0.0792303
0.00672355
0.069733
0.00764652
0.0598949
0.0077796
0.0498856
0.00724159
0.039828
0.00618768
0.0297971
0.00479787
0.0198234
0.00326401
0.00990098
0.00177631
0.000510027
0.125158
-0.0316983
0.126153
-0.0249635
0.124903
-0.0181977
0.121532
-0.0117363
0.116243
-0.00587474
0.109306
-0.00085171
0.10103
0.00316342
0.0917391
0.00607855
0.0817503
0.00788111
0.0713499
0.008635
0.0607779
0.00847218
0.0502167
0.00757974
0.039787
0.0061834
0.0295509
0.00452849
0.0195222
0.00285993
0.0096821
0.00140255
0.00034312
0.133663
-0.0370124
0.134344
-0.0287581
0.132461
-0.0205273
0.128192
-0.0127579
0.121817
-0.00582703
0.113693
-2.74453e-05
0.104217
0.00444944
0.0937947
0.00752191
0.0828102
0.00921785
0.0715965
0.00966621
0.0604185
0.00908068
0.0494634
0.00773705
0.0388408
0.00594622
0.028594
0.00402494
0.0187192
0.00226668
0.00919246
0.000915041
0.00014175
0.140722
-0.0425046
0.141056
-0.0325094
0.138485
-0.0226162
0.133254
-0.0133919
0.125736
-0.005313
0.116387
0.00126743
0.105708
0.0061406
0.094194
0.00925056
0.0822975
0.010689
0.0703952
0.0106775
0.0587684
0.00953851
0.047598
0.00765826
0.0369729
0.00544523
0.0269126
0.00328722
0.0173998
0.00151171
0.00841954
0.00035272
-7.27129e-05
0.146032
-0.0481216
0.146008
-0.0361585
0.142721
-0.0244026
0.136495
-0.0135814
0.127807
-0.00429051
0.117233
0.00305001
0.105385
0.00822283
0.092858
0.0112194
0.0801711
0.0122259
0.0677368
0.0115904
0.055841
0.0097749
0.0446449
0.00729799
0.0342071
0.00467286
0.0245216
0.00234825
0.0155668
0.000657711
0.00735863
-0.000217426
-0.000267671
0.149343
-0.0538185
0.148979
-0.039662
0.144981
-0.0258451
0.13776
-0.0132933
0.127914
-0.00274544
0.116153
0.00530668
0.103214
0.0106505
0.0897916
0.0133542
0.0764706
0.0137372
0.0636873
0.0123148
0.0517157
0.00972277
0.0406828
0.00663082
0.0306084
0.0036557
0.0214638
0.00128331
0.0132399
-0.000191133
0.00601334
-0.000697995
-0.000399342
0.150478
-0.059562
0.149827
-0.0429963
0.145159
-0.0269274
0.136983
-0.0125242
0.126032
-0.000695843
0.113163
0.00798998
0.0992499
0.013345
0.0850889
0.0155522
0.0713203
0.0151127
0.0583879
0.0127567
0.0465354
0.0093284
0.0358401
0.00566235
0.0262776
0.0024649
0.017806
0.000217635
0.0104538
-0.000885905
0.00439553
-0.000961976
-0.000414336
0.149349
-0.0653313
0.148499
-0.0461598
0.143241
-0.0276614
0.13419
-0.0113027
0.122228
0.00180578
0.108373
0.0110177
0.0936431
0.0161957
0.078932
0.0176859
0.0649231
0.01623
0.0520477
0.0128264
0.0404975
0.00856222
0.0302855
0.00444015
0.0213431
0.00122489
0.0136329
-0.000669303
0.00725524
-0.001234
0.00252478
-0.000857484
-0.000252972
-0.185069
-0.0258283
0.189331
-0.179498
-0.022662
-0.172761
-0.0186511
-0.165009
-0.0139947
-0.156399
-0.00893297
-0.147081
-0.00373013
-0.137204
0.00134444
-0.126904
0.00603487
-0.11631
0.0101159
-0.105536
0.0134066
-0.0946834
0.0157806
-0.0838412
0.017171
-0.0730854
0.0175718
-0.0624798
0.0170345
-0.0520771
0.0156625
-0.0419199
0.0136024
-0.0320418
0.0110354
-0.0224695
0.008167
-0.0132232
0.00521882
-0.00431928
0.00241994
0.00422872
0
0.0124082
-0.00181712
0.0202059
-0.00281904
0.0276066
-0.00281057
0.0345915
-0.0016197
0.0411377
0.00089579
0.0472172
0.00484105
0.0527968
0.0102763
0.057839
0.0172093
0.0623026
0.0255876
0.0661446
0.0352941
0.0693226
0.0461436
0.0717976
0.0578841
0.0735374