/*--------------------------------*- C++ -*----------------------------------*\
  =========                 |
  \\      /  F ield         | OpenFOAM: The Open Source CFD Toolbox
   \\    /   O peration     | Website:  https://openfoam.org
    \\  /    A nd           | Version:  6
     \\/     M anipulation  |
\*---------------------------------------------------------------------------*/
FoamFile
{
    version     2.0;
    format      ascii;
    class       surfaceScalarField;
    location    "1.66";
    object      meshPhi;
}
// * * * * * * * * * * * * * * * * * * * * * * * * * * * * * * * * * * * * * //

dimensions      [0 3 -1 0 0 0 0];

internalField   nonuniform List<scalar> 
8193
(
0.000980619
0.0020802
-0.00044281
0.00120866
0.00388329
0.00120023
0.00544602
0.00103312
0.00674555
0.000782421
0.00777126
0.000514594
0.00852341
0.000283078
0.00901124
0.000125653
0.00925095
6.34344e-05
0.00926364
0.000101315
0.00907338
0.000229602
0.00870553
0.000426505
0.00818538
0.000661163
0.00753718
0.000896902
0.00678342
0.00109448
0.00594448
0.00121511
0.0050385
0.00122319
0.00408147
0.00108858
0.00308739
0.000788478
0.00206861
0.000308853
0.00103613
-0.000354509
-1.11978e-14
-0.00119539
-0.00103031
-0.00219689
-0.00204555
-0.00333162
-0.00303627
-0.00456226
-0.00399247
-0.00584265
-0.00490321
-0.00711936
-0.00575625
-0.00833377
-0.00653772
-0.00942472
-0.00723194
-0.0103316
-0.00782123
-0.0109978
-0.00828603
-0.0113745
-0.00860519
-0.0114241
-0.00875656
-0.0111237
-0.00871789
-0.0104675
-0.00846807
-0.00946873
-0.00798873
-0.00815971
-0.00726598
-0.00659074
-0.00629238
-0.00482727
-0.00506888
-0.00294545
-0.00360651
-0.00192774
-0.00102644
0.00276323
0.00704461
-0.00174784
0.00304894
0.0106814
0.00281082
0.0136803
0.00225446
0.0160129
0.00156896
0.0176831
0.0009143
0.0187216
0.000412583
0.01918
0.000143496
0.0191242
0.000143517
0.0186282
0.000408442
0.0177684
0.00089849
0.0166191
0.0015452
0.0152491
0.00225938
0.0137189
0.00293937
0.0120799
0.00347913
0.0103737
0.00377564
0.0086326
0.0037355
0.00688019
0.00328044
0.00513278
0.00235179
0.00340055
0.000914
0.00168893
-0.00104294
4.85279e-21
-0.00350184
-0.00166625
-0.00641766
-0.00331055
-0.00971774
-0.00493311
-0.0133031
-0.00653219
-0.0170506
-0.00810281
-0.0208169
-0.00963526
-0.024443
-0.0111137
-0.0277608
-0.0125151
-0.0306005
-0.0138079
-0.0327993
-0.0149518
-0.0342107
-0.0158977
-0.0347142
-0.016589
-0.0342242
-0.0169631
-0.032698
-0.016955
-0.0301411
-0.0165014
-0.0266106
-0.0155457
-0.0222141
-0.0140439
-0.0171058
-0.0119705
-0.0114773
-0.00932472
-0.00613471
-0.00554636
0.00417982
0.0152731
-0.00339452
0.00410217
0.020454
0.00345975
0.0245007
0.00253403
0.0274055
0.00157131
0.0292135
0.000769226
0.0300128
0.000268308
0.0299222
0.000148722
0.0290798
0.000431604
0.0276317
0.00108425
0.0257219
0.00202823
0.0234852
0.00314945
0.0210408
0.00430919
0.0184893
0.00535524
0.0159108
0.00613267
0.013365
0.00649348
0.0108926
0.00630512
0.00851706
0.00545757
0.00624725
0.00386912
0.00408025
0.00149083
0.00200402
-0.00169017
0
-0.00564855
-0.00195435
-0.0103196
-0.00388316
-0.0155995
-0.00580964
-0.0213462
-0.00775359
-0.0273826
-0.00972871
-0.0335005
-0.0117397
-0.039467
-0.0137797
-0.0450319
-0.0158269
-0.0499381
-0.0178428
-0.0539328
-0.0197705
-0.0567799
-0.0215339
-0.0582737
-0.0230387
-0.0582516
-0.0241758
-0.0566066
-0.0248256
-0.0532968
-0.0248651
-0.0483521
-0.0241769
-0.0418766
-0.0226593
-0.0340469
-0.0202376
-0.0251044
-0.0168746
-0.0125802
-0.0153432
0.00473931
0.0267013
-0.00453309
0.00418664
0.032889
0.00320987
0.0374177
0.00210938
0.0403249
0.00113491
0.0417185
0.000474503
0.0417616
0.00024862
0.0406543
0.000509446
0.0386177
0.00124458
0.0358768
0.00238438
0.0326478
0.00381199
0.0291272
0.00537502
0.0254844
0.00689788
0.0218572
0.00819408
0.0183503
0.00907777
0.0150366
0.0093741
0.0119588
0.00892822
0.00913338
0.00761279
0.00655482
0.00533405
0.00419957
0.00203662
0.00203033
-0.00229289
9.20499e-15
-0.00762346
-0.00194463
-0.0138782
-0.00385936
-0.0209339
-0.00579891
-0.0286222
-0.00781327
-0.0367321
-0.00994361
-0.0450137
-0.012218
-0.0531845
-0.0146469
-0.0609378
-0.0172186
-0.0679526
-0.0198957
-0.0739059
-0.0226112
-0.0784872
-0.0252679
-0.0814129
-0.0277385
-0.0824418
-0.0298686
-0.0813902
-0.0314837
-0.0781442
-0.0323978
-0.0726704
-0.0324255
-0.0650219
-0.0313971
-0.0553403
-0.0291739
-0.0438524
-0.0256642
-0.020838
-0.0308612
0.00428831
0.0408477
-0.00466146
0.00341623
0.0473598
0.00236084
0.0517263
0.00139135
0.0540463
0.000718481
0.0545022
0.000487049
0.0533387
0.000773212
0.0508407
0.00158608
0.0473115
0.00287314
0.043053
0.00452868
0.0383491
0.00640437
0.0334528
0.0083211
0.0285775
0.0100812
0.023892
0.0114803
0.0195198
0.0123187
0.0155408
0.0124108
0.0119943
0.011594
0.00888497
0.00973582
0.00618794
0.00673948
0.00385469
0.00254881
0.00181859
-0.00284834
1.48398e-17
-0.00941736
-0.00168895
-0.0170752
-0.0033398
-0.0256898
-0.00504318
-0.0350801
-0.00688395
-0.0450184
-0.00893598
-0.0552334
-0.0112564
-0.0654155
-0.0138796
-0.0752245
-0.016811
-0.0842992
-0.0200214
-0.092269
-0.0234425
-0.0987679
-0.026964
-0.103449
-0.0304336
-0.106002
-0.0336601
-0.106166
-0.0364203
-0.103747
-0.0384705
-0.098629
-0.0395604
-0.0907839
-0.0394518
-0.0802773
-0.0379377
-0.0672693
-0.0348633
-0.0301446
-0.0520117
0.00303699
0.0569003
-0.0037086
0.00218849
0.0630219
0.0014156
0.0666006
0.00092092
0.0678034
0.000849523
0.0668877
0.00128497
0.0641766
0.00224902
0.0600332
0.00370468
0.0548351
0.00556229
0.0489514
0.00768784
0.042724
0.00991292
0.0364526
0.0120455
0.030386
0.0138809
0.0247163
0.0152125
0.0195792
0.0158413
0.0150559
0.015585
0.0111785
0.0142851
0.00793635
0.0118136
0.0052829
0.00807779
0.00314308
0.00302501
0.00141978
-0.00335431
4.85279e-21
-0.0110238
-0.00123948
-0.0198995
-0.00242674
-0.0298481
-0.00368928
-0.0406875
-0.00514834
-0.0521875
-0.00691257
-0.064072
-0.00907113
-0.0760237
-0.0116862
-0.08769
-0.0147854
-0.0986914
-0.0183543
-0.108632
-0.0223307
-0.117111
-0.0266004
-0.12374
-0.0309961
-0.128151
-0.0353004
-0.130021
-0.0392533
-0.129079
-0.0425638
-0.125124
-0.0449269
-0.118035
-0.0460437
-0.10778
-0.0456444
-0.094419
-0.0435117
-0.039504
-0.0781106
0.00153073
0.0738449
-0.0020476
0.00113401
0.0789317
0.00102107
0.0811974
0.00131053
0.0808726
0.00207188
0.0782815
0.00332402
0.0738149
0.00503631
0.0679014
0.0071321
0.0609791
0.00949429
0.0534711
0.0119726
0.0457645
0.0143921
0.0381948
0.0165618
0.0310363
0.0182841
0.0244968
0.0193633
0.0187179
0.0196139
0.0137782
0.0188672
0.00969963
0.0169783
0.00645485
0.0138306
0.00397559
0.00934093
0.00216068
0.00346308
0.000883742
-0.00380916
-2.4264e-21
-0.0124392
-0.000647327
-0.0223458
-0.00122108
-0.033401
-0.00188412
-0.0454301
-0.00279296
-0.0582114
-0.00409062
-0.0714777
-0.0058987
-0.0849194
-0.00830884
-0.0981893
-0.0113737
-0.110909
-0.0150983
-0.122677
-0.0194327
-0.133082
-0.024267
-0.14171
-0.0294289
-0.148162
-0.0346866
-0.152065
-0.0397559
-0.15309
-0.0443129
-0.150959
-0.0480116
-0.145463
-0.050506
-0.13647
-0.0514747
-0.123932
-0.0506473
-0.047829
-0.107891
0.000571269
0.0906144
-0.000436346
0.00103276
0.094171
0.00188943
0.0947538
0.00317565
0.0926458
0.0048899
0.0882245
0.00699459
0.0819331
0.00941749
0.0742493
0.0120548
0.0656565
0.0147753
0.0566168
0.0174264
0.0475496
0.0198397
0.038815
0.0218383
0.0307038
0.0232435
0.0234326
0.0238812
0.0171444
0.0235883
0.0119124
0.022218
0.0077472
0.0196449
0.0046051
0.0157693
0.00239742
0.0105207
0.000999267
0.00386109
0.000257863
-0.00421182
0
-0.0136625
3.88358e-05
-0.024415
0.000180291
-0.0363515
0.000229483
-0.0493107
-2.38024e-06
-0.0630876
-0.00069029
-0.0774337
-0.00198678
-0.0920593
-0.00401243
-0.106636
-0.00684587
-0.120803
-0.0105141
-0.134172
-0.014984
-0.146337
-0.0201561
-0.156882
-0.0258619
-0.165396
-0.0318658
-0.171482
-0.0378721
-0.174768
-0.0435382
-0.174923
-0.0484923
-0.171667
-0.0523568
-0.16478
-0.0547738
-0.154112
-0.0554332
-0.0540984
-0.139594
0.00109734
0.106233
0.000105832
0.0027075
0.107957
0.00470846
0.106667
0.00706337
0.102685
0.00971438
0.0964251
0.012583
0.0883665
0.0155709
0.0790199
0.0185624
0.0688983
0.0214266
0.0584892
0.0240212
0.0482322
0.0261964
0.0385022
0.0277997
0.0295992
0.0286799
0.0217435
0.0286922
0.0150762
0.027702
0.00966369
0.0255894
0.00550568
0.0222525
0.00254385
0.0176109
0.000671737
0.0116087
-0.000255833
0.0042174
-0.000413992
-0.0045617
-2.89699e-15
-0.0146948
0.000773839
-0.0261135
0.00168683
-0.0387125
0.0025166
-0.0523481
0.00304628
-0.0668372
0.00307264
-0.081957
0.00241528
-0.0974456
0.00092677
-0.113004
-0.00149664
-0.1283
-0.0049045
-0.142972
-0.00928278
-0.156637
-0.014547
-0.168894
-0.0205388
-0.179341
-0.0270275
-0.187575
-0.0337168
-0.193209
-0.0402578
-0.195881
-0.0462671
-0.195263
-0.0513507
-0.191073
-0.0551297
-0.183083
-0.0572689
-0.0575033
-0.171128
0.00404054
0.119934
-0.00153211
0.0069069
0.119723
0.0100509
0.116547
0.0133851
0.110751
0.0168151
0.10277
0.0202399
0.0931056
0.0235519
0.0822856
0.026638
0.0708394
0.0293803
0.0592681
0.0316578
0.0480218
0.0333481
0.0374828
0.0343299
0.0279545
0.0344854
0.0196572
0.0337033
0.0127287
0.0318808
0.00722899
0.028927
0.00314803
0.0247653
0.000415513
0.0193355
-0.00108928
0.012597
-0.00152764
0.00453063
-0.00109242
-0.00485876
-2.97961e-15
-0.0155398
0.00151698
-0.0274524
0.00321638
-0.0405055
0.00485342
-0.0545752
0.00618809
-0.0695029
0.00699347
-0.0850951
0.00706531
-0.101123
0.00623256
-0.117323
0.00436863
-0.133399
0.00140246
-0.149026
-0.0026716
-0.163855
-0.00778628
-0.177517
-0.0137976
-0.189631
-0.0204858
-0.199811
-0.0275623
-0.207675
-0.0346818
-0.212854
-0.0414613
-0.214999
-0.0475028
-0.213794
-0.05242
-0.208961
-0.0558661
-0.0575607
-0.200273
0.0101754
0.131235
-0.00636119
0.0141925
0.129165
0.0182927
0.124237
0.0223604
0.116806
0.0262847
0.107318
0.0299592
0.0962797
0.0332818
0.0842274
0.0361542
0.0716959
0.038481
0.0591906
0.0401695
0.0471647
0.0411303
0.0360023
0.0412772
0.0260068
0.040528
0.0173968
0.0388061
0.0103064
0.0360413
0.00478992
0.0321719
0.000830306
0.0271459
-0.0016517
0.0209233
-0.00278717
0.013478
-0.00274908
0.00479974
-0.00174321
-0.00510341
5.57561e-15
-0.0162029
0.00223275
-0.0284473
0.00469672
-0.04176
0.00712998
-0.0560372
0.00927447
-0.0711459
0.0108845
-0.0869231
0.0117364
-0.103174
0.0116395
-0.119674
0.0104476
-0.136168
0.00807017
-0.152372
0.00448294
-0.167979
-0.000264494
-0.182659
-0.00604454
-0.196066
-0.0126523
-0.207846
-0.0198122
-0.217639
-0.0271898
-0.225088
-0.0344108
-0.22985
-0.041083
-0.231599
-0.0468231
-0.23004
-0.0512835
-0.0541788
-0.224911
0.0199836
0.139957
-0.0151065
0.0248436
0.136239
0.0295497
0.129798
0.0339777
0.120992
0.0380166
0.110266
0.0415685
0.0981258
0.0445474
0.0851053
0.0468776
0.0717374
0.0484919
0.0585256
0.0493298
0.0459216
0.0493364
0.0343074
0.048461
0.0239847
0.0466571
0.0151696
0.0438813
0.00799318
0.0400946
0.00250632
0.0352626
-0.00131276
0.0293565
-0.00354874
0.0223548
-0.00433906
0.0142447
-0.00386406
0.005024
-0.00233781
-0.0052965
9.70559e-21
-0.0166912
0.00289136
-0.0291169
0.00606678
-0.0425112
0.00925218
-0.0567894
0.0121764
-0.0718433
0.0145798
-0.0875391
0.016224
-0.103717
0.0169027
-0.120189
0.0164537
-0.136741
0.0147701
-0.153135
0.0118109
-0.169105
0.0076087
-0.184368
0.00227448
-0.198619
-0.0040035
-0.211543
-0.0109656
-0.222815
-0.018293
-0.232108
-0.0256253
-0.239099
-0.0325831
-0.243477
-0.0387928
-0.24495
-0.0439138
-0.0476629
-0.243256
0.0335509
0.146197
-0.0280547
0.0387916
0.141123
0.0436395
0.133468
0.0479756
0.123585
0.0517004
0.111913
0.0547329
0.0989497
0.0570089
0.0852221
0.0584793
0.0712557
0.0591066
0.0575482
0.0588627
0.0445464
0.0577262
0.0326287
0.0556799
0.0220941
0.0527098
0.0131567
0.0488033
0.005946
0.0439492
0.000511216
0.0381375
-0.00317112
0.0313601
-0.0051878
0.0236116
-0.00567893
0.0148909
-0.00482817
0.00520304
-0.00285367
-0.00543931
-1.99396e-15
-0.0170132
0.00346906
-0.0294832
0.00727735
-0.0427995
0.0111432
-0.056895
0.0147869
-0.071684
0.0179393
-0.0870597
0.0203514
-0.102894
0.0218058
-0.119034
0.0221278
-0.135306
0.0211971
-0.151511
0.0189584
-0.16743
0.0154293
-0.182822
0.0107047
-0.197427
0.00495588
-0.210974
-0.00157488
-0.223178
-0.00858646
-0.233748
-0.0157359
-0.242394
-0.0226602
-0.248834
-0.0290005
-0.252797
-0.0344273
-0.0386649
-0.254036
0.0505116
0.150252
-0.0449572
0.0555931
0.144147
0.0600741
0.135593
0.0638489
0.124935
0.0668348
0.112602
0.0689712
0.0990807
0.0702178
0.0848859
0.0705518
0.0705338
0.0699642
0.0565138
0.0684566
0.0432662
0.0660377
0.0311653
0.06272
0.0205074
0.0585178
0.0115054
0.053445
0.00428874
0.0475145
-0.00109274
0.0407369
-0.00466155
0.0331216
-0.00650356
0.024677
-0.00675821
0.0154118
-0.00560893
0.00533686
-0.00327428
-0.00553346
2.26254e-15
-0.0171786
0.00394821
-0.02957
0.0082914
-0.0426686
0.0127442
-0.0564227
0.0170223
-0.0707659
0.0208509
-0.0856152
0.0239746
-0.10087
0.0261679
-0.11641
0.0272473
-0.132094
0.0270822
-0.147763
0.0256058
-0.163237
0.0228223
-0.178316
0.0188118
-0.192784
0.0137293
-0.20641
0.00779931
-0.21895
0.00130434
-0.230154
-0.00543185
-0.239768
-0.0120649
-0.247541
-0.0182531
-0.253235
-0.0236817
-0.0280851
-0.256627
0.0700476
0.152518
-0.0650055
0.0744452
0.145704
0.0780846
0.136555
0.0808764
0.125406
0.0827563
0.112672
0.0836842
0.0988273
0.0836423
0.0843743
0.0826316
0.0698172
0.0806683
0.0556363
0.0777794
0.042265
0.073999
0.030073
0.0693647
0.0193547
0.0639141
0.010323
0.0576832
0.00310881
0.0507043
-0.00223535
0.0430052
-0.00572869
0.0346095
-0.00745349
0.0255367
-0.00754569
0.0158037
-0.00618559
0.00542583
-0.0035891
-0.00558092
9.70559e-21
-0.0171981
0.00431722
-0.0294026
0.009084
-0.0421644
0.0140145
-0.0554442
0.0188231
-0.0691919
0.0232326
-0.0833443
0.0269841
-0.0978235
0.0298477
-0.112536
0.0316336
-0.127371
0.0322039
-0.1422
0.0314822
-0.156878
0.0294616
-0.171241
0.0262085
-0.185111
0.0218627
-0.198294
0.0166311
-0.210585
0.0107773
-0.221768
0.00460497
-0.231624
-0.00156147
-0.239938
-0.00739941
-0.246498
-0.0126106
-0.0169424
-0.25111
0.0909466
0.153378
-0.0868841
0.0942431
0.146158
0.0966756
0.136693
0.0981715
0.125307
0.0986843
0.112402
0.0981931
0.0984377
0.0966996
0.083903
0.0942255
0.0692904
0.0908079
0.0550705
0.0864947
0.0416701
0.0813409
0.0294549
0.0754037
0.0187181
0.06874
0.00967358
0.0614027
0.00245546
0.0534399
-0.00287936
0.0448928
-0.00634475
0.0357964
-0.00801723
0.0261791
-0.00802696
0.0160641
-0.00654866
0.00547072
-0.00379323
-0.00558395
1.54758e-15
-0.0170829
0.00457023
-0.029007
0.0096418
-0.0413334
0.014931
-0.0540325
0.0201533
-0.067067
0.0250319
-0.080389
0.0293069
-0.0939393
0.0327462
-0.107645
0.0351566
-0.12142
0.0363946
-0.135162
0.0363766
-0.148752
0.0350857
-0.162059
0.0325764
-0.174933
0.0289737
-0.187212
0.0244676
-0.198723
0.0193023
-0.20928
0.0137614
-0.218697
0.00814808
-0.226783
0.00276476
-0.233354
-0.00210868
-0.00623439
-0.238241
0.111711
-0.108895
0.113674
0.114705
0.114748
0.113776
0.111783
0.108791
0.104838
0.0999793
0.094279
0.0878091
0.0806426
0.072851
0.064501
0.0556527
0.046358
0.0366606
0.026596
0.0161925
0.00547267
-0.00554506
-0.0168445
-0.0284094
-0.0402218
-0.0522595
-0.0644942
-0.0768902
-0.0894018
-0.101973
-0.114534
-0.127004
-0.139287
-0.151273
-0.162838
-0.173844
-0.184142
-0.193573
-0.201973
-0.209175
-0.215017
-0.219345
-0.0124025
-0.200489
-0.026502
-0.216959
-0.0413712
-0.228435
-0.0557782
-0.233857
-0.0684033
-0.232584
-0.0780112
-0.224478
-0.083622
-0.20993
-0.0846542
-0.18983
-0.0810176
-0.165489
-0.0731406
-0.138512
-0.0619254
-0.110646
-0.0486398
-0.0836146
-0.034758
-0.0589596
-0.0217774
-0.0379087
-0.0110373
-0.0212826
-0.00356907
-0.00945214
-0.00234756
-0.00958501
-0.181281
-0.0229893
-0.195518
-0.0371314
-0.20566
-0.0509503
-0.210859
-0.0633073
-0.210578
-0.0731184
-0.204646
-0.0794877
-0.193282
-0.0818236
-0.177089
-0.0799209
-0.157005
-0.0739968
-0.13422
-0.0646756
-0.110078
-0.0529218
-0.0859615
-0.0399326
-0.063175
-0.0270016
-0.0428396
-0.0153745
-0.0258103
-0.0061148
-0.0126221
-0.00347001
-0.00763093
-0.162159
-0.0201931
-0.174359
-0.0334455
-0.183234
-0.0464838
-0.188111
-0.0583347
-0.18854
-0.0680561
-0.184335
-0.0748408
-0.175598
-0.0781095
-0.162718
-0.077581
-0.146344
-0.0733121
-0.127339
-0.0657001
-0.106711
-0.055447
-0.0855387
-0.0434908
-0.0648904
-0.0309095
-0.0457415
-0.0188117
-0.0289085
-0.00822537
-0.0149949
-0.00435986
-0.0065387
-0.143498
-0.0181537
-0.153859
-0.0303992
-0.161544
-0.0425121
-0.166024
-0.0536677
-0.166925
-0.0630555
-0.164061
-0.0699582
-0.157454
-0.073825
-0.147339
-0.0743312
-0.134147
-0.0714165
-0.118487
-0.0652986
-0.101093
-0.0564591
-0.0827868
-0.0456022
-0.0644118
-0.0335927
-0.0467826
-0.0213765
-0.0306301
-0.00989476
-0.0165558
-0.00499812
-0.00624002
-0.125609
-0.016844
-0.134322
-0.02801
-0.140904
-0.0391
-0.144939
-0.0494216
-0.146118
-0.0582841
-0.144266
-0.0650584
-0.139354
-0.0692338
-0.131509
-0.0704668
-0.121004
-0.0686169
-0.108252
-0.0637647
-0.0937735
-0.0562118
-0.0781717
-0.0464598
-0.0620939
-0.0351728
-0.0461931
-0.0231239
-0.0310896
-0.0111328
-0.0173348
-0.00538163
-0.00661098
-0.108734
-0.0161777
-0.115986
-0.0262326
-0.121556
-0.0362471
-0.125119
-0.0456446
-0.126424
-0.0538423
-0.125311
-0.0602949
-0.121723
-0.0645388
-0.115712
-0.0662309
-0.107441
-0.06518
-0.0971757
-0.0613665
-0.0852723
-0.0549501
-0.0721595
-0.0462625
-0.0583159
-0.0357873
-0.0442449
-0.0241273
-0.0304483
-0.0119621
-0.0174
-0.00552214
-0.00748732
-0.0930474
-0.0160228
-0.0990173
-0.0249708
-0.10367
-0.0338968
-0.106756
-0.0423247
-0.108072
-0.0497669
-0.107477
-0.0557564
-0.104901
-0.0598797
-0.100349
-0.0618079
-0.0939072
-0.0613224
-0.0857359
-0.0583344
-0.0760675
-0.0528959
-0.065195
-0.045201
-0.0534585
-0.0355779
-0.0412308
-0.0244708
-0.0288994
-0.0124142
-0.016849
-0.00544402
-0.00868167
-0.0786649
-0.0162178
-0.0835195
-0.024092
-0.0873528
-0.0319497
-0.0899725
-0.0394007
-0.0912177
-0.0460405
-0.0909675
-0.0514732
-0.0891482
-0.0553362
-0.0857385
-0.0573237
-0.0807722
-0.0572075
-0.0743383
-0.0548547
-0.0665788
-0.0502393
-0.0576838
-0.0434484
-0.0478848
-0.0346815
-0.0374455
-0.0242427
-0.0266512
-0.012527
-0.0157982
-0.00518107
-0.010001
-0.0656467
-0.0165889
-0.0695411
-0.0234441
-0.0726503
-0.0302794
-0.0748284
-0.0367772
-0.075949
-0.0426044
-0.0759113
-0.0474289
-0.0746452
-0.0509372
-0.0721155
-0.0528519
-0.0683243
-0.0529483
-0.0633126
-0.051069
-0.0571594
-0.0471351
-0.0499805
-0.0411542
-0.0419245
-0.0332237
-0.0331688
-0.0235297
-0.023913
-0.0123413
-0.014373
-0.00477284
-0.0112624
-0.0540068
-0.0169656
-0.057083
-0.0228714
-0.0595612
-0.0287484
-0.0613318
-0.0343399
-0.0622971
-0.0393736
-0.0623751
-0.0435736
-0.0615033
-0.0466721
-0.0596415
-0.048423
-0.0567744
-0.0486139
-0.0529126
-0.0470778
-0.0480935
-0.0437034
-0.0423808
-0.0384424
-0.0358636
-0.0313153
-0.0286534
-0.0224137
-0.0208822
-0.0118993
-0.012698
-0.00426102
-0.0123056
-0.0437223
-0.0171941
-0.0461087
-0.0222282
-0.0480442
-0.0272224
-0.0494478
-0.0319705
-0.0502451
-0.0362515
-0.0503713
-0.0398381
-0.0497732
-0.0425045
-0.0484115
-0.0440363
-0.0462628
-0.044239
-0.0433207
-0.0429474
-0.0395965
-0.0400331
-0.0351197
-0.0354124
-0.029938
-0.0290511
-0.0241162
-0.020969
-0.017735
-0.0112416
-0.0108893
-0.00368625
-0.0130017
-0.0347413
-0.0171474
-0.0365528
-0.02139
-0.0380282
-0.0255821
-0.0391088
-0.0295588
-0.0397392
-0.0331423
-0.0398693
-0.0361467
-0.039456
-0.0383843
-0.0384645
-0.0396712
-0.0368693
-0.0398342
-0.0346558
-0.0387173
-0.0318207
-0.0361876
-0.0283727
-0.0321416
-0.0243328
-0.0265099
-0.0197339
-0.0192615
-0.0146208
-0.0104069
-0.00904944
-0.00308569
-0.0132578
-0.0269919
-0.0167301
-0.02833
-0.0202601
-0.0294214
-0.0237309
-0.0302241
-0.0270119
-0.0306982
-0.0299609
-0.0308063
-0.0324279
-0.0305149
-0.0342584
-0.0297949
-0.0352976
-0.0286231
-0.0353949
-0.0269824
-0.0344086
-0.0248627
-0.0322101
-0.0222613
-0.0286888
-0.0191836
-0.0237557
-0.0156425
-0.0173477
-0.0116595
-0.00943013
-0.00726351
-0.00249128
-0.0130174
-0.0203892
-0.0158812
-0.0213433
-0.0187723
-0.0221195
-0.0215991
-0.0226892
-0.0242589
-0.0230243
-0.0266396
-0.023098
-0.0286212
-0.0228855
-0.0300786
-0.0223643
-0.0308839
-0.021515
-0.0309094
-0.0203218
-0.0300307
-0.0187729
-0.0281297
-0.0168607
-0.0250981
-0.0145824
-0.02084
-0.0119402
-0.0152753
-0.00894149
-0.00834227
-0.00559855
-0.00192902
-0.012258
-0.0148427
-0.0145714
-0.0154906
-0.0168904
-0.0160138
-0.0191443
-0.0163936
-0.0212534
-0.016611
-0.0231305
-0.0166479
-0.0246813
-0.0164869
-0.0258065
-0.0161119
-0.0264026
-0.0155082
-0.0263645
-0.0146631
-0.0255866
-0.0135658
-0.0239656
-0.0122081
-0.0214021
-0.0105844
-0.017803
-0.0086918
-0.0130836
-0.00653061
-0.00716986
-0.0041041
-0.00141878
-0.0109856
-0.0102613
-0.0127996
-0.0106711
-0.0146054
-0.0109971
-0.0163495
-0.0112277
-0.0179717
-0.0113511
-0.0194056
-0.0113558
-0.0205791
-0.0112306
-0.0214154
-0.010965
-0.0218334
-0.010549
-0.0217492
-0.00997342
-0.0210772
-0.00923037
-0.0197309
-0.00831301
-0.017625
-0.00721586
-0.014676
-0.00593498
-0.0108043
-0.00446798
-0.00593499
-0.00281421
-0.000974807
-0.0092292
-0.0065586
-0.010587
-0.00679022
-0.0119299
-0.00696914
-0.0132188
-0.0070889
-0.0144101
-0.00714301
-0.0154551
-0.00712498
-0.0163009
-0.00702849
-0.0168906
-0.00684738
-0.0171636
-0.00657581
-0.0170562
-0.0062083
-0.0165025
-0.00573983
-0.0154348
-0.00516595
-0.0137845
-0.00448281
-0.0114828
-0.00368726
-0.00846189
-0.00277692
-0.00465548
-0.00175025
-0.000606581
-0.00703388
-0.00365651
-0.00797144
-0.00376325
-0.00889319
-0.00384072
-0.00977275
-0.003886
-0.0105805
-0.00389615
-0.0112834
-0.00386825
-0.0118455
-0.00379939
-0.0122277
-0.00368678
-0.0123881
-0.0035277
-0.0122823
-0.00331958
-0.0118637
-0.00306004
-0.0110841
-0.00274689
-0.00989342
-0.00237822
-0.00824095
-0.00195235
-0.00607534
-0.00146794
-0.00334527
-0.000923964
-0.000319774
-0.00445495
-0.00148818
-0.00500129
-0.00151865
-0.00553564
-0.00153707
-0.00604284
-0.00154266
-0.0065058
-0.00153458
-0.00690552
-0.00151206
-0.00722113
-0.00147431
-0.00742992
-0.00142059
-0.00750741
-0.00135016
-0.00742753
-0.00126237
-0.00716268
-0.00115657
-0.00668391
-0.00103222
-0.00596115
-0.000888804
-0.00496334
-0.000725899
-0.00365873
-0.000543164
-0.00201509
-0.000340341
-0.000117272
-0.00155289
-1.88968e-18
-0.0017306
-1.49856e-18
-0.00190368
-1.60611e-18
-0.00206722
-1.5629e-18
-0.00221568
-1.21651e-18
-0.00234291
-1.15782e-18
-0.00244211
-1.10184e-18
-0.00250588
-8.25837e-19
-0.00252623
-5.74555e-19
-0.0024946
-4.09886e-19
-0.00240188
-2.31672e-19
-0.00223852
-2.32862e-19
-0.0019945
-2.89417e-19
-0.00165944
-2.02863e-19
-0.00122265
-1.03586e-19
-0.000673197
-4.15224e-20
-8.30902e-21
0.00161065
0.000847227
0.00178489
0.000832719
0.00195407
0.000810808
0.00211334
0.00078194
0.00225727
0.000746607
0.00237978
0.000705344
0.00247417
0.00065872
0.00253314
0.00060733
0.00254878
0.00055179
0.00251263
0.00049273
0.0024157
0.000430781
0.00224851
0.000366574
0.00200114
0.000300727
0.00166332
0.000233839
0.00122443
0.000166485
0.000673658
9.92024e-05
3.24913e-05
0.00497595
0.00107787
0.00549099
0.00100272
0.00599004
0.000917238
0.00645871
0.000823623
0.0068807
0.000724224
0.00723782
0.00062149
0.00751003
0.000517947
0.00767545
0.000416165
0.00771049
0.000318724
0.00758993
0.000228179
0.00728704
0.000147028
0.00677375
7.76804e-05
0.00602085
2.24181e-05
0.00499815
-1.66321e-05
0.00367474
-3.75313e-05
0.00201923
-3.85578e-05
-1.82344e-05
0.00848769
0.000701772
0.00933758
0.000516678
0.0101605
0.000323016
0.0109322
0.000126244
0.0116253
-6.79402e-05
0.0122091
-0.000253674
0.0126498
-0.000425013
0.0129109
-0.000576017
0.0129528
-0.000700831
0.0127336
-0.000793776
0.0122091
-0.000849431
0.0113334
-0.000862715
0.010059
-0.00082897
0.00833739
-0.000744036
0.00611965
-0.000604323
0.00335671
-0.000406875
-0.000149429
0.0120973
-0.000284789
0.0132811
-0.000634345
0.0144279
-0.000985319
0.0155031
-0.00132724
0.0164672
-0.00164931
0.0172763
-0.0019406
0.0178823
-0.00219018
0.0182327
-0.00238734
0.0182719
-0.00252176
0.017941
-0.00258366
0.0171789
-0.00256399
0.0159225
-0.0024546
0.0141079
-0.00224838
0.011671
-0.00193939
0.00854824
-0.00152302
0.00467773
-0.000996052
-0.00035678
0.0157653
-0.00189755
0.0172872
-0.0024733
0.018764
-0.00303678
0.0201494
-0.00357032
0.021391
-0.00405596
0.02243
-0.00447578
0.0232024
-0.00481225
0.0236392
-0.00504852
0.0236676
-0.0051688
0.0232115
-0.00515866
0.0221933
-0.00500533
0.0205345
-0.00469794
0.018157
-0.00422784
0.014985
-0.00358873
0.0109458
-0.0027769
0.00597139
-0.00179132
-0.000633784
0.0194646
-0.00416217
0.0213337
-0.00503502
0.0231522
-0.00587364
0.0248608
-0.00665042
0.0263919
-0.00733772
0.0276701
-0.00790849
0.0286136
-0.0083368
0.0291352
-0.00859849
0.0291437
-0.00867172
0.0285461
-0.00853746
0.0272487
-0.00817997
0.0251598
-0.00758725
0.0221911
-0.00675133
0.0182602
-0.00566857
0.0132925
-0.00433983
0.00722344
-0.00277061
-0.000970982
0.0231833
-0.00711151
0.0254135
-0.00836343
0.027591
-0.00954846
0.0296413
-0.0106256
0.0314788
-0.0115545
0.0330089
-0.0122965
0.0341295
-0.0128154
0.034733
-0.0130789
0.0347091
-0.0130592
0.0339473
-0.0127336
0.0323398
-0.0120855
0.0297846
-0.0111049
0.0261885
-0.00978868
0.02147
-0.00814075
0.0155623
-0.00617243
0.00841565
-0.00390214
-0.0013552
0.0269288
-0.0107825
0.0295385
-0.0125082
0.0320972
-0.0141205
0.0345118
-0.0155606
0.0366759
-0.0167717
0.0384718
-0.0177006
0.0397741
-0.0182996
0.0404525
-0.0185275
0.0403762
-0.0183515
0.0394179
-0.0177479
0.0374579
-0.016703
0.034389
-0.0152141
0.0301198
-0.0132891
0.0245797
-0.0109472
0.0177216
-0.00821825
0.00952538
-0.00514239
-0.00176895
0.0307301
-0.0152124
0.0337415
-0.0175207
0.0367073
-0.0196512
0.0395121
-0.0215218
0.0420239
-0.0230546
0.044098
-0.024179
0.0455817
-0.0248339
0.0463195
-0.0249702
0.0461592
-0.0245523
0.0449579
-0.02356
0.042588
-0.0219887
0.0389434
-0.0198507
0.0339445
-0.0171746
0.0275437
-0.0140049
0.0197286
-0.0104008
0.0105253
-0.00643473
-0.0021902
0.0346404
-0.0204342
0.0380781
-0.0234493
0.0414788
-0.0261993
0.0446999
-0.0285717
0.0475787
-0.0304621
0.049938
-0.0317792
0.0515937
-0.0324479
0.0523623
-0.0324127
0.05207
-0.0316399
0.0505605
-0.0301195
0.0477042
-0.0278658
0.0434052
-0.0249172
0.0376083
-0.0213353
0.030304
-0.0172031
0.0215321
-0.0126222
0.0113835
-0.00770937
-0.0025927
0.0387359
-0.0264719
0.0426249
-0.0303339
0.0464877
-0.0338147
0.0501486
-0.0367621
0.0534077
-0.0390395
0.0560495
-0.040531
0.0578534
-0.0411479
0.0586057
-0.0408317
0.0581112
-0.0395581
0.0562052
-0.037338
0.0527637
-0.0342174
0.0477137
-0.0302762
0.0410395
-0.0256251
0.0327882
-0.0204014
0.0230713
-0.0147635
0.0120638
-0.00888491
-0.00294693
0.0431139
-0.0333348
0.0474764
-0.0381999
0.0518241
-0.0425316
0.0559414
-0.0461275
0.0595835
-0.0488105
0.0624894
-0.0504377
0.0643975
-0.0509075
0.0650619
-0.0501657
0.0642683
-0.0482079
0.0618496
-0.0450809
0.0576998
-0.0408805
0.0517838
-0.0357475
0.0441449
-0.0298612
0.0349076
-0.0234313
0.0242756
-0.0166881
0.0125264
-0.00987188
-0.00322185
0.0478854
-0.0410112
0.0527375
-0.0470514
0.0575843
-0.0523618
0.0621623
-0.0566765
0.0661733
-0.0597693
0.0693037
-0.0614671
0.0712456
-0.0616596
0.0717201
-0.0603066
0.0704981
-0.0574397
0.0674205
-0.0531622
0.0624138
-0.0476427
0.0555011
-0.0411072
0.0468069
-0.0338264
0.036556
-0.0261014
0.0250651
-0.0182477
0.0127288
-0.0105783
-0.00338737
0.053166
-0.0494629
0.0585127
-0.0568643
0.0638589
-0.0632871
0.0688841
-0.0683847
0.0732275
-0.0718721
0.0765145
-0.0735438
0.0783871
-0.0732879
0.0785339
-0.0710926
0.0767185
-0.067048
0.0728034
-0.0613405
0.0667676
-0.0542416
0.0587162
-0.0460908
0.0488808
-0.0372752
0.0376099
-0.0282056
0.0253517
-0.0192915
0.0126276
-0.0109169
-0.00341734
0.0590629
-0.0586182
0.0648933
-0.0675796
0.0707197
-0.0752517
0.0761547
-0.0811868
0.0807646
-0.0850295
0.0841063
-0.0865418
0.0857679
-0.0856201
0.0854091
-0.0823028
0.082797
-0.0767678
0.0778344
-0.0693196
0.0705778
-0.0603682
0.0612424
-0.0503999
0.0501944
-0.0399438
0.0379299
-0.0295348
0.0250422
-0.0196779
0.0121799
-0.0108141
-0.0032929
0.0656598
-0.0683673
0.0719425
-0.0790973
0.0782046
-0.0881559
0.083982
-0.0949699
0.0887577
-0.0991005
0.0920123
-0.100278
0.0932783
-0.0984236
0.0921932
-0.0936545
0.0885429
-0.0862749
0.082295
-0.0767513
0.0736131
-0.0656746
0.0628552
-0.053714
0.0505513
-0.0415642
0.0373651
-0.0298922
0.0240418
-0.0192873
0.0113464
-0.010219
-0.0030056
0.0730017
-0.078558
0.0796799
-0.091271
0.0863032
-0.101851
0.0923208
-0.109569
0.0971218
-0.113888
0.100104
-0.11451
0.100744
-0.111404
0.0986684
-0.104804
0.0937031
-0.0951897
0.0859101
-0.0832432
0.0755965
-0.0697853
0.0632979
-0.055705
0.0497369
-0.0418813
0.0357598
-0.0291096
0.02226
-0.0180364
0.0100936
-0.00911171
-0.00256005
0.0810799
-0.0889936
0.0880683
-0.103906
0.0949447
-0.116137
0.101062
-0.124764
0.105705
-0.129136
0.108183
-0.128935
0.107922
-0.124205
0.104551
-0.115349
0.0979638
-0.103085
0.0883541
-0.088371
0.0762129
-0.0723134
0.0622911
-0.0560562
0.0475293
-0.0406722
0.0329633
-0.0270649
0.0196175
-0.0158907
0.00839791
-0.00751057
-0.00197535
0.0898204
-0.0994335
0.0970041
-0.116757
0.10399
-0.130759
0.110027
-0.14028
0.114286
-0.144534
0.115984
-0.143192
0.114503
-0.136417
0.109497
-0.124843
0.10096
-0.109498
0.0892624
-0.091694
0.075124
-0.0728793
0.0595485
-0.0544828
0.0437146
-0.0377659
0.0288425
-0.0236987
0.0160547
-0.0128748
0.00624817
-0.00547546
-0.00128506
0.0990771
-0.109597
0.106313
-0.129534
0.113231
-0.145416
0.118969
-0.155792
0.122577
-0.159718
0.123178
-0.156872
0.120123
-0.147585
0.113114
-0.132799
0.102292
-0.113946
0.0882511
-0.0927748
0.071989
-0.0711327
0.0547979
-0.0507541
0.0381054
-0.0330629
0.0232965
-0.019027
0.0115402
-0.0090782
0.00364977
-0.00310752
-0.000535192
-0.217157
0.0505494
0.218643
-0.213988
0.0379085
-0.209159
0.0238734
-0.20273
0.00890093
-0.194796
-0.00648924
-0.185487
-0.0217408
-0.174958
-0.0362895
-0.163384
-0.0495924
-0.150951
-0.0611532
-0.137851
-0.0705448
-0.124276
-0.0774259
-0.110407
-0.0815511
-0.0964156
-0.082776
-0.0824554
-0.0810553
-0.0686624
-0.0764379
-0.0551525
-0.0690579
-0.0420217
-0.059124
-0.0293468
-0.046908
-0.0171865
-0.0327334
-0.00558332
-0.0169651
0.00543441
3.15548e-16
0.0158504
0.0177421
0.0256586
0.0358265
0.0348606
0.053812