/*--------------------------------*- C++ -*----------------------------------*\
  =========                 |
  \\      /  F ield         | OpenFOAM: The Open Source CFD Toolbox
   \\    /   O peration     | Website:  https://openfoam.org
    \\  /    A nd           | Version:  6
     \\/     M anipulation  |
\*---------------------------------------------------------------------------*/
FoamFile
{
    version     2.0;
    format      ascii;
    class       surfaceVectorField;
    location    "1.36";
    object      Uf;
}
// * * * * * * * * * * * * * * * * * * * * * * * * * * * * * * * * * * * * * //

dimensions      [0 1 -1 0 0 0 0];

internalField   nonuniform List<vector> 
1540
(
(13.1216 3.67648 0)
(-8.81071 0.894162 0)
(13.9949 2.742 0)
(8.89397 -0.0552096 0)
(15.8695 2.61141 0)
(13.8992 -0.1185 0)
(17.9624 2.52805 0)
(2.53777 -0.132301 0)
(15.9049 2.21304 0)
(8.69172 0.130067 0)
(17.5216 2.09276 0)
(3.00873 -0.1022 0)
(15.1107 1.76411 0)
(8.24659 0.152406 0)
(18.251 0.976496 0)
(17.2837 -0.198518 0)
(22.5986 1.59254 0)
(14.149 -0.274822 0)
(20.6565 2.56774 0)
(1.27659 0.122766 0)
(25.0925 1.93795 0)
(20.1739 -0.277255 0)
(23.6431 1.36161 0)
(8.32549 0.0905878 0)
(24.4652 1.59311 0)
(16.7076 -0.0513858 0)
(11.6677 0.860494 0)
(25.3472 0.799847 0)
(-1.56604 -0.60787 0)
(4.10563 0.827106 0)
(1.32011 -1.12272 0)
(10.5609 -0.180382 0)
(2.03122 -0.422109 0)
(6.0111 -0.0444442 0)
(6.25394 -1.0064 0)
(17.2835 -0.263918 0)
(-0.724444 -1.9559 0)
(0.919712 0.43615 0)
(6.90313 -0.0452752 0)
(-8.89219 -3.2243 0)
(-9.40882 1.41206 0)
(6.21047 -2.28991 0)
(-4.10703 -1.0099 0)
(-1.15833 -2.34964 0)
(4.50539 0.347305 0)
(-5.01927 -1.53125 0)
(0.367867 0.11176 0)
(-5.219 -2.2302 0)
(3.64308 0.142694 0)
(-4.70275 -2.09027 0)
(1.80038 -0.134834 0)
(5.56112 -1.14448 0)
(4.27387 -0.496408 0)
(15.2524 -1.54504 0)
(14.4074 -0.811139 0)
(-1.63612 -3.04616 0)
(7.81454 0.792759 0)
(-4.31835 -3.08529 0)
(-0.111378 0.292317 0)
(2.79253 -0.959512 0)
(13.9949 -0.721687 0)
(6.37037 -1.09813 0)
(12.0154 -0.133027 0)
(14.1725 -0.888243 0)
(16.1448 -0.539022 0)
(17.5295 0.837079 0)
(13.1641 0.590036 0)
(19.3983 0.879619 0)
(14.1386 0.710303 0)
(14.7902 1.28638 0)
(11.5439 0.107625 0)
(19.6143 -0.151535 0)
(3.29533 -0.345949 0)
(15.4088 1.1711 0)
(23.3398 -0.00106917 0)
(1.20144 2.78311 0)
(2.80155 1.32411 0)
(2.50779 0.0298172 0)
(-0.636096 3.20361 0)
(-8.25809 1.40808 0)
(-5.62327 0.941775 0)
(4.04832 -0.694646 0)
(3.44978 1.65856 0)
(-9.70387 -0.226233 0)
(11.6688 1.33416 0)
(4.78402 -0.407792 0)
(10.2834 2.48901 0)
(-3.9227 0.23027 0)
(12.0891 1.8485 0)
(7.26298 -0.248979 0)
(8.39741 0.298722 0)
(-4.96182 -0.263041 0)
(9.16031 1.287 0)
(16.0504 -0.859368 0)
(14.8548 3.44339 0)
(-1.26924 0.43279 0)
(12.8712 1.90302 0)
(8.32861 0.417706 0)
(23.2823 -0.461459 0)
(23.3355 -1.37238 0)
(26.7973 1.13635 0)
(17.2286 -0.352716 0)
(11.2983 1.53349 0)
(6.44493 0.429664 0)
(9.51377 -0.10312 0)
(8.82418 0.701566 0)
(9.64626 0.139253 0)
(16.2959 0.702022 0)
(-0.698233 -1.51178 0)
(5.27376 0.754157 0)
(5.23274 0.0985639 0)
(11.0858 -0.716635 0)
(13.0949 0.367428 0)
(12.2307 -0.492452 0)
(-1.94626 -2.13104 0)
(3.99792 2.26418 0)
(1.60619 -0.0918214 0)
(-0.280155 -1.66426 0)
(-7.69237 1.38159 0)
(1.11661 -1.87821 0)
(4.20472 -0.782943 0)
(-11.0053 -1.55444 0)
(-2.09157 0.54003 0)
(-8.28342 -1.40394 0)
(0.170444 -0.579851 0)
(-8.69479 -2.93364 0)
(-0.979552 0.256276 0)
(-7.62951 -2.25842 0)
(4.60696 -0.316319 0)
(-1.56934 -1.4576 0)
(-7.82643 -0.646125 0)
(8.06815 -2.20742 0)
(14.1663 -1.46859 0)
(-4.09488 -2.07274 0)
(-6.80003 1.20166 0)
(15.5685 -1.82792 0)
(11.9093 -0.825282 0)
(17.3875 -1.43696 0)
(12.1973 -1.48607 0)
(1.61067 -2.03221 0)
(-0.885915 0.633333 0)
(-0.692886 -0.418794 0)
(10.0238 0.573632 0)
(15.3759 2.24859 0)
(5.26274 -0.302733 0)
(15.3432 0.836188 0)
(4.9817 0.704065 0)
(16.1172 1.03869 0)
(8.10469 0.705782 0)
(16.3458 -1.33497 0)
(19.1941 -0.730919 0)
(4.87798 0.92007 0)
(1.80669 0.224288 0)
(2.60172 4.33734 0)
(2.50946 2.40645 0)
(8.55802 0.0707888 0)
(-0.0615247 2.27823 0)
(-6.79273 1.34128 0)
(1.86772 1.36586 0)
(-1.01171 -0.904897 0)
(6.62867 0.823098 0)
(-6.01161 0.239075 0)
(10.0127 0.981743 0)
(3.5438 -0.793769 0)
(9.54967 2.80983 0)
(-3.84308 0.285549 0)
(7.09902 0.754046 0)
(9.96628 -0.161405 0)
(4.38508 -0.986551 0)
(-6.63427 -0.474568 0)
(1.75263 1.83773 0)
(10.894 -1.30219 0)
(11.6828 2.90561 0)
(-14.5483 0.573938 0)
(5.77176 -0.0796481 0)
(18.0069 -0.451627 0)
(-6.01621 0.0116462 0)
(-3.48957 -0.749319 0)
(11.8425 3.02589 0)
(7.5881 -0.482837 0)
(12.456 0.0640846 0)
(14.7969 0.535285 0)
(-5.89963 -2.79577 0)
(7.488 0.844494 0)
(1.49949 0.50833 0)
(-3.93741 0.24162 0)
(9.84551 -0.152312 0)
(8.86247 0.184158 0)
(3.09886 1.15851 0)
(11.6099 -0.309253 0)
(1.51744 1.04376 0)
(-5.25477 0.323128 0)
(3.28588 -1.40617 0)
(0.765361 2.29592 0)
(4.5098 0.276159 0)
(-4.86467 -1.76315 0)
(-6.90227 1.60459 0)
(-8.537 -1.87485 0)
(1.44324 -0.672759 0)
(-10.8343 -1.2584 0)
(-0.956565 0.384294 0)
(-8.33692 -1.5647 0)
(1.27826 -0.951639 0)
(-6.90577 -2.17755 0)
(2.26732 0.195083 0)
(-0.660878 -0.711694 0)
(8.35403 -0.556165 0)
(-2.75948 -0.623027 0)
(-0.76835 -0.341909 0)
(-3.57774 -2.15929 0)
(11.8419 -1.25046 0)
(-5.83565 -3.03486 0)
(-8.17772 0.716668 0)
(5.21416 -2.30757 0)
(8.51873 -1.15012 0)
(10.1978 -1.72115 0)
(6.28564 -1.0608 0)
(13.641 -1.95753 0)
(-3.57722 -0.698035 0)
(8.13982 2.24733 0)
(8.18293 0.879105 0)
(7.48391 4.24428 0)
(7.91962 0.885488 0)
(8.53527 0.922605 0)
(-9.26666 0.175909 0)
(8.61391 -0.475938 0)
(7.19739 0.179245 0)
(1.36723 -1.43902 0)
(8.33036 0.143664 0)
(-3.90189 2.51637 0)
(-6.01695 0.65245 0)
(-3.23909 3.33174 0)
(-0.792418 2.2545 0)
(1.9846 0.0737187 0)
(1.95601 1.87744 0)
(-6.94043 1.43675 0)
(8.80418 1.25874 0)
(3.95468 -1.10565 0)
(10.248 0.581969 0)
(0.158928 0.293027 0)
(13.3482 0.491407 0)
(3.30277 -1.14761 0)
(12.967 1.87837 0)
(-0.517261 0.21918 0)
(11.7944 0.508191 0)
(6.22925 -0.482042 0)
(11.6197 -0.592773 0)
(-7.35518 -0.330863 0)
(8.89078 1.77925 0)
(11.5606 -1.07796 0)
(8.40499 2.62375 0)
(-8.59048 0.747376 0)
(5.89435 0.870125 0)
(7.20974 -0.991419 0)
(-5.60877 1.12267 0)
(-4.54261 -0.341858 0)
(-5.62654 1.05006 0)
(-4.95018 -0.696925 0)
(6.8067 -1.11575 0)
(6.25002 0.102025 0)
(-11.0724 -2.0319 0)
(3.82319 2.00293 0)
(-5.40272 -0.421295 0)
(-11.9813 -0.178448 0)
(5.02751 0.99774 0)
(-0.118765 -0.472642 0)
(-0.629943 2.17123 0)
(6.29819 0.497255 0)
(-0.95806 0.311456 0)
(-7.19593 0.672958 0)
(-0.803197 -0.0231109 0)
(-1.24376 2.24482 0)
(0.471742 0.0235213 0)
(-2.35811 -1.23174 0)
(-7.01 1.54161 0)
(-5.37195 -1.76757 0)
(4.50135 -0.915141 0)
(-7.28013 -1.04032 0)
(-1.59656 0.413649 0)
(-9.24359 -1.10366 0)
(2.52284 -1.0235 0)
(-12.4639 -1.56362 0)
(-2.28754 0.422746 0)
(-8.81837 -1.62928 0)
(2.83577 -0.712487 0)
(-9.3588 -1.71972 0)
(-7.55835 -0.2967 0)
(-4.59656 -2.45974 0)
(8.08304 -1.379 0)
(-8.28448 -2.89797 0)
(-9.85814 0.980502 0)
(-6.24271 -3.10282 0)
(1.948 -1.12049 0)
(-0.836623 -2.69101 0)
(-10.9671 -0.67974 0)
(10.04 -0.335216 0)
(0.00379751 -1.37671 0)
(2.60311 3.18742 0)
(1.85449 0.566827 0)
(0.503769 2.49892 0)
(3.48282 2.13414 0)
(-1.21202 -0.581237 0)
(-6.80266 -0.0712113 0)
(-0.493913 -0.758448 0)
(-5.47767 -0.517521 0)
(-1.55316 -0.569265 0)
(8.43943 0.563457 0)
(-5.75672 2.30107 0)
(-4.99674 0.935683 0)
(-5.07739 1.54724 0)
(-3.39375 2.20236 0)
(-2.42817 -0.293812 0)
(2.44432 1.93076 0)
(-7.47029 1.3429 0)
(7.07866 1.17329 0)
(4.4813 -1.20809 0)
(7.96398 0.0531387 0)
(-1.13649 0.357686 0)
(10.6495 -0.0762339 0)
(3.67883 -1.19326 0)
(7.51805 0.403375 0)
(-1.00743 0.620698 0)
(8.31692 1.07845 0)
(4.51614 -0.762986 0)
(7.90961 0.968086 0)
(-7.23576 -0.270953 0)
(4.38303 2.18055 0)
(8.01851 -1.15608 0)
(1.98526 3.36247 0)
(-5.05448 1.13207 0)
(-5.89372 2.03391 0)
(2.9375 -0.622433 0)
(-7.77151 0.201552 0)
(-12.9728 -0.56238 0)
(-6.10584 -0.808861 0)
(-2.27584 -1.48082 0)
(2.46737 0.363848 0)
(0.931693 0.0309983 0)
(-6.28134 -0.0918677 0)
(3.45098 2.68094 0)
(-5.45257 -0.543769 0)
(-9.57322 -0.123009 0)
(1.97405 0.504495 0)
(-3.5786 -0.981683 0)
(3.9188 2.00934 0)
(8.99496 0.44191 0)
(-1.4803 1.39768 0)
(0.202872 1.27313 0)
(-5.38264 0.848579 0)
(-3.02196 2.44626 0)
(-0.531675 -0.630225 0)
(-2.82757 -1.68251 0)
(-7.5462 1.47744 0)
(-5.16811 -2.05911 0)
(4.7652 -1.06014 0)
(-5.37188 -0.767002 0)
(0.353823 0.370566 0)
(-6.98741 -0.00643335 0)
(3.61157 -1.09114 0)
(-9.2453 0.18679 0)
(-1.07371 0.763428 0)
(-7.12552 -2.64917 0)
(5.2699 -0.896984 0)
(-8.92512 -3.37301 0)
(-2.20448 -0.157195 0)
(0.145405 -2.12482 0)
(3.48301 -1.72946 0)
(-2.17549 -3.21961 0)
(-6.3814 1.27879 0)
(-8.25268 -3.94237 0)
(9.21704 -0.238276 0)
(-5.0462 -2.00167 0)
(-0.689088 -0.762788 0)
(5.58097 -0.246691 0)
(-4.99205 -2.14502 0)
(1.84541 2.0945 0)
(-0.528851 0.264467 0)
(-2.17105 2.52894 0)
(2.54967 2.93196 0)
(-2.37996 -0.576691 0)
(-1.60752 -0.109953 0)
(1.94809 -1.17892 0)
(-2.67406 -1.25218 0)
(4.17749 -0.1205 0)
(5.72258 0.302573 0)
(-0.510831 1.77353 0)
(2.03663 1.56615 0)
(-2.50799 0.368501 0)
(-3.96127 2.57108 0)
(1.91533 -0.786971 0)
(2.59525 1.86623 0)
(-8.23911 1.26919 0)
(8.64495 1.56591 0)
(5.7999 -1.44256 0)
(9.6623 0.148367 0)
(-0.381068 0.306257 0)
(10.2571 -0.658639 0)
(3.38923 -1.12874 0)
(9.30911 -1.2207 0)
(-2.13963 0.823357 0)
(13.0348 1.30066 0)
(8.09958 -1.1325 0)
(8.55987 2.64304 0)
(-1.70814 0.125681 0)
(-1.37655 2.544 0)
(0.0861484 -1.10135 0)
(7.76997 4.12704 0)
(-9.72741 0.700604 0)
(10.901 4.00089 0)
(10.4446 -0.436202 0)
(2.20114 0.331848 0)
(7.87088 -0.219046 0)
(-10.6819 -1.86406 0)
(-1.35132 -1.33983 0)
(0.249794 1.06197 0)
(-4.58012 -0.418765 0)
(0.766629 1.11826 0)
(4.09185 2.89966 0)
(3.13422 -0.103501 0)
(-10.0134 -0.257927 0)
(-0.410288 0.18789 0)
(0.767342 -1.03065 0)
(2.46761 1.70896 0)
(-0.540892 0.122704 0)
(-0.682127 2.69839 0)
(3.68113 1.76301 0)
(-3.50074 1.84989 0)
(-2.94723 2.74725 0)
(2.63502 -1.00577 0)
(-2.50007 -1.5833 0)
(-8.08947 1.38303 0)
(-5.05569 -2.58573 0)
(5.87295 -1.28101 0)
(-6.03806 -1.19655 0)
(3.99587 0.368355 0)
(-8.49705 0.390065 0)
(3.95924 -0.973298 0)
(-6.65787 1.51286 0)
(1.20146 0.707097 0)
(-4.53201 -1.54314 0)
(8.97892 -1.26688 0)
(-11.7503 -3.04701 0)
(-5.16099 0.581973 0)
(-6.17782 -3.37482 0)
(-3.7386 -1.45361 0)
(-5.2126 -4.16566 0)
(5.35191 0.639589 0)
(1.07463 -5.08623 0)
(1.81776 -0.833641 0)
(7.02504 -2.77899 0)
(3.1264 -0.590949 0)
(5.25946 0.594514 0)
(1.77643 -1.22948 0)
(-0.693865 1.95551 0)
(-5.84076 -0.0466865 0)
(-8.77947 0.744657 0)
(1.91282 3.40501 0)
(-8.23724 -2.58676 0)
(1.94953 -0.291817 0)
(-0.567649 -1.70703 0)
(-0.226885 -1.51 0)
(-0.309687 0.0707937 0)
(-6.32696 0.106582 0)
(2.04935 1.30123 0)
(4.21116 1.61557 0)
(-0.400518 -0.36353 0)
(-3.29836 2.90036 0)
(3.32031 -1.03079 0)
(2.6895 1.02563 0)
(-8.80078 1.16882 0)
(13.2114 1.47891 0)
(9.00368 -1.94613 0)
(14.7798 0.931229 0)
(2.58915 0.269213 0)
(13.9926 -0.571509 0)
(3.27867 -0.923536 0)
(14.2763 -2.12191 0)
(-1.28005 0.689162 0)
(9.74196 0.184444 0)
(5.99913 -0.980248 0)
(1.85626 0.771332 0)
(1.61961 1.08045 0)
(9.46496 2.33006 0)
(-0.819403 -1.93458 0)
(13.2859 3.98217 0)
(10.5936 0.398056 0)
(-1.81556 3.004 0)
(7.42862 0.12097 0)
(0.170181 0.345342 0)
(4.10463 -0.71506 0)
(-8.7378 -2.84565 0)
(-5.00009 -0.672733 0)
(-3.12525 0.728357 0)
(-11.1639 -0.397473 0)
(10.8855 2.77508 0)
(-0.2145 2.52934 0)
(12.9956 2.42996 0)
(3.24879 -0.423703 0)
(-6.5447 1.02644 0)
(-1.15956 -0.288725 0)
(-2.92471 1.31763 0)
(-11.4608 -0.119668 0)
(-0.497772 3.59414 0)
(3.81079 1.46389 0)
(-2.85296 2.4818 0)
(-3.51357 3.04756 0)
(4.23707 -1.2091 0)
(0.107756 -1.34213 0)
(-9.06359 1.11781 0)
(-3.39651 -3.01097 0)
(9.50138 -1.72462 0)
(-7.91802 -1.56983 0)
(-0.0988999 0.555032 0)
(-11.9723 0.640687 0)
(4.14576 -0.667251 0)
(-11.0381 1.50992 0)
(0.0513835 0.63011 0)
(-1.94899 -0.384818 0)
(0.581401 -1.5548 0)
(-1.3491 -1.02853 0)
(1.33953 1.04253 0)
(1.39784 -4.02945 0)
(-1.03092 -2.10823 0)
(5.95796 -2.56768 0)
(12.04 0.109796 0)
(8.70178 -1.97946 0)
(0.487872 -0.0524783 0)
(0.573336 -0.614461 0)
(3.6261 -0.207034 0)
(-6.57858 3.03999 0)
(-1.38524 -0.225739 0)
(-8.16475 1.93292 0)
(-13.053 -0.298342 0)
(-9.41252 -0.431692 0)
(-1.43685 2.60733 0)
(-7.78107 -3.77879 0)
(0.386145 -0.525668 0)
(-6.50148 -1.62086 0)
(-2.56521 -0.368698 0)
(-6.17975 0.541311 0)
(-9.57309 -0.139776 0)
(1.52971 0.702026 0)
(2.39359 0.982047 0)
(0.512801 -0.82738 0)
(-4.07815 3.11112 0)
(4.73558 -1.17705 0)
(3.15461 0.531033 0)
(-10.1146 0.874205 0)
(11.1026 1.75657 0)
(10.0653 -2.22704 0)
(13.0809 1.60487 0)
(1.15179 0.42998 0)
(15.9642 -0.12837 0)
(7.91766 -0.849513 0)
(10.7527 -1.50615 0)
(4.61351 0.959546 0)
(3.3771 0.423076 0)
(-0.531037 -1.08856 0)
(1.80917 -0.485328 0)
(2.72806 1.14165 0)
(10.5303 1.78766 0)
(0.558865 -2.65952 0)
(7.3664 2.06144 0)
(9.63323 0.309795 0)
(-7.97954 0.641827 0)
(1.57436 0.917588 0)
(2.66864 -0.565642 0)
(-1.19794 -0.872547 0)
(-6.90839 -3.74821 0)
(-4.97915 0.372825 0)
(-6.16201 0.450352 0)
(-18.4355 -0.344992 0)
(6.91278 1.92069 0)
(-2.86236 1.79015 0)
(8.87339 2.22634 0)
(-5.49089 -0.648206 0)
(-6.23471 0.852111 0)
(1.89247 0.575561 0)
(-3.15926 0.532204 0)
(-5.93814 -0.331992 0)
(-2.15605 3.74747 0)
(-2.10658 0.919348 0)
(-2.69949 2.91642 0)
(-4.56081 3.14509 0)
(5.13201 -1.34577 0)
(-0.192048 -1.52794 0)
(-9.95792 0.842147 0)
(-1.53298 -3.34493 0)
(9.06445 -2.14227 0)
(-2.60224 -2.34536 0)
(3.22196 0.497572 0)
(-3.9745 -0.585847 0)
(7.82498 -0.762769 0)
(-7.18811 0.626353 0)
(2.79555 1.16269 0)
(-2.5051 -0.434023 0)
(-1.55931 -1.38459 0)
(2.08145 -0.541461 0)
(5.63009 0.851716 0)
(0.309163 -3.42338 0)
(0.86254 -2.54749 0)
(4.49641 -0.850307 0)
(6.9032 0.045104 0)
(5.77196 -0.652089 0)
(1.76843 0.836955 0)
(-7.97949 0.0847851 0)
(-0.556923 -0.0130838 0)
(-15.6789 2.89952 0)
(-11.1923 0.854037 0)
(-15.0803 0.880623 0)
(-14.8664 -0.382407 0)
(-16.2696 -0.227129 0)
(-7.46964 1.86448 0)
(-9.90057 -1.63701 0)
(-14.6398 -1.04627 0)
(1.60586 -0.23718 0)
(-1.52316 -0.143588 0)
(-7.75778 0.440488 0)
(-3.82812 0.253236 0)
(-3.07587 0.756741 0)
(6.56747 0.62673 0)
(0.641091 -1.2347 0)
(-4.44472 2.91278 0)
(5.44107 -1.3057 0)
(2.5214 -0.152721 0)
(-10.873 0.638566 0)
(12.2387 1.63162 0)
(9.36173 -2.75654 0)
(15.0811 2.56493 0)
(4.04951 0.317899 0)
(14.0797 1.42304 0)
(5.29694 -0.699468 0)
(8.06348 -0.512459 0)
(5.64183 1.543 0)
(4.78958 0.12657 0)
(-0.144747 -1.17764 0)
(5.26939 -1.40907 0)
(8.01259 0.821386 0)
(8.07291 0.313013 0)
(1.01635 -2.72471 0)
(4.63051 1.66107 0)
(5.15081 0.262711 0)
(-6.58716 1.58405 0)
(1.33083 1.54606 0)
(-2.99456 1.20931 0)
(-0.0239452 -0.237623 0)
(-9.64159 -1.35774 0)
(-9.08887 1.26948 0)
(-7.30611 0.686871 0)
(-17.4058 -0.528376 0)
(-6.4076 0.294487 0)
(-6.19496 1.80833 0)
(-4.63002 0.107372 0)
(-2.84387 -1.15737 0)
(-7.23377 -0.395913 0)
(-10.591 0.019147 0)
(7.45492 -1.15591 0)
(-7.30051 -0.664807 0)
(6.65798 2.05905 0)
(0.881155 0.676539 0)
(-2.13069 2.94325 0)
(-3.82614 3.46207 0)
(5.55595 -1.43886 0)
(-0.671526 -1.59853 0)
(-10.2998 0.636817 0)
(-0.18883 -4.06805 0)
(7.36205 -2.78705 0)
(-4.29859 -3.2422 0)
(3.03048 0.577691 0)
(-3.59974 -0.767661 0)
(1.62821 -0.743645 0)
(-2.77016 0.596975 0)
(6.13992 1.49056 0)
(0.89109 -0.560764 0)
(0.638563 -1.40908 0)
(4.73319 -0.0740283 0)
(10.9917 0.578514 0)
(-1.14618 -2.44199 0)
(1.27009 -2.35306 0)
(2.03363 -0.212502 0)
(1.17447 0.0617035 0)
(6.32149 -0.370549 0)
(1.29508 1.27501 0)
(-5.4465 -0.098883 0)
(-0.707102 0.497875 0)
(-16.2186 1.62778 0)
(-12.4026 1.94273 0)
(-16.2014 0.0105388 0)
(-15.9922 -0.529457 0)
(-3.4103 0.628888 0)
(0.465319 1.00888 0)
(-6.69245 -0.907484 0)
(-8.99539 -0.952236 0)
(-11.2203 0.296937 0)
(-10.4576 0.302138 0)
(-16.0691 2.5021 0)
(-10.0642 -0.361757 0)
(-8.40599 2.48738 0)
(3.09588 0.197598 0)
(1.51257 -1.12603 0)
(-3.08148 2.84216 0)
(5.77901 -1.34432 0)
(1.34201 -0.752278 0)
(-10.3776 0.507789 0)
(9.32112 1.46698 0)
(6.58258 -3.29143 0)
(10.413 2.90636 0)
(8.57327 0.508672 0)
(10.8983 1.77115 0)
(1.71725 -0.774321 0)
(9.42023 -0.251543 0)
(7.33532 1.58399 0)
(8.40668 -0.32449 0)
(2.42441 -1.34501 0)
(8.48997 -2.08778 0)
(9.99568 0.57325 0)
(4.6553 -0.14141 0)
(0.185994 -2.11066 0)
(0.358182 1.90153 0)
(-1.07973 0.333339 0)
(-7.09142 2.09642 0)
(0.980543 1.74592 0)
(-6.99313 1.91698 0)
(-3.37276 0.491731 0)
(-11.5054 -0.0880738 0)
(-11.5679 2.22475 0)
(0.742605 1.50795 0)
(-9.42171 -1.29496 0)
(-6.12386 -0.290799 0)
(0.351604 1.43804 0)
(-10.0051 -0.307133 0)
(-1.67838 -0.70966 0)
(-10.3631 -0.923465 0)
(-10.3896 0.324512 0)
(8.50449 -3.69328 0)
(-6.62655 -1.54098 0)
(9.24051 0.279776 0)
(3.07188 0.151598 0)
(-1.17293 2.97725 0)
(-0.906093 3.493 0)
(6.09602 -1.41763 0)
(-1.44009 -1.98333 0)
(-9.32408 0.554624 0)
(4.80116 -3.85637 0)
(4.56806 -3.68596 0)
(1.22884 -2.74078 0)
(9.19164 0.73449 0)
(-2.27532 -1.06299 0)
(-0.186772 -0.552812 0)
(0.359598 0.291947 0)
(7.95167 1.41743 0)
(1.45356 -0.413412 0)
(4.5744 -1.41416 0)
(2.58031 1.07096 0)
(9.89907 0.502024 0)
(-4.08677 -1.43502 0)
(0.784457 -1.68921 0)
(-0.772475 -0.335789 0)
(-4.18414 0.123831 0)
(3.54219 0.314199 0)
(2.09876 1.47318 0)
(-7.24171 1.2729 0)
(-1.9249 1.16572 0)
(-8.73106 0.917856 0)
(-10.5035 2.31783 0)
(-10.1376 -2.24752 0)
(-8.30788 -1.20705 0)
(3.97979 0.397619 0)
(7.17387 0.555698 0)
(0.525127 0.288192 0)
(4.94402 -0.493743 0)
(-7.61757 0.342288 0)
(-3.19403 0.833433 0)
(-11.8829 2.97846 0)
(-7.20738 -1.2744 0)
(-6.53249 3.2881 0)
(5.02767 -0.182799 0)
(3.97985 -1.13432 0)
(-1.5022 2.83598 0)
(6.7217 -1.16889 0)
(0.523882 -1.29285 0)
(-8.71395 0.477313 0)
(8.0554 0.146773 0)
(3.49235 -4.16206 0)
(9.22293 1.86682 0)
(3.09462 0.660689 0)
(9.41835 1.67233 0)
(0.274308 -0.565165 0)
(12.264 0.00744673 0)
(5.69712 1.23755 0)
(10.3304 -0.510539 0)
(6.1015 -1.29193 0)
(8.84203 -2.80951 0)
(8.05121 0.596106 0)
(2.78097 -0.254847 0)
(0.00472787 -1.30607 0)
(-1.87708 2.46725 0)
(-5.46005 0.418283 0)
(-4.32112 2.27488 0)
(2.68844 1.62767 0)
(-4.52758 1.85754 0)
(-3.71498 1.17863 0)
(-9.39537 -0.310456 0)
(-9.78207 2.62207 0)
(7.87369 1.66636 0)
(-3.48971 -2.28636 0)
(7.84465 0.45303 0)
(5.16465 0.557513 0)
(3.91741 0.046652 0)
(-2.00072 -0.248291 0)
(-3.73206 -1.19387 0)
(-6.28125 1.31153 0)
(10.0638 -4.28757 0)
(-2.34271 -2.13663 0)
(10.4694 -0.0521537 0)
(2.07324 -0.208149 0)
(-1.30228 2.88718 0)
(0.518371 3.57171 0)
(6.88323 -1.25028 0)
(-1.79534 -2.35343 0)
(-7.64324 0.546604 0)
(-2.2757 -3.19536 0)
(2.04452 -4.13169 0)
(-4.58912 -0.866852 0)
(0.548429 0.806928 0)
(-4.11762 -0.54037 0)
(0.864611 -0.594971 0)
(-0.275372 -0.297221 0)
(5.16468 0.994669 0)
(0.944512 -0.291111 0)
(7.88223 -1.36904 0)
(-0.13921 2.44191 0)
(4.73007 0.664611 0)
(-5.34953 -0.644575 0)
(0.182742 -0.976715 0)
(-1.65215 -0.923174 0)
(-6.36612 0.18456 0)
(2.64543 0.538789 0)
(3.68904 1.356 0)
(-8.43191 2.15775 0)
(-2.4866 1.87096 0)
(-3.1537 1.07834 0)
(-8.00074 2.29218 0)
(-7.9334 -2.85577 0)
(-3.78019 -1.98763 0)
(-4.43343 -0.456082 0)
(5.52141 0.338765 0)
(-9.73094 0.437936 0)
(-1.95503 0.0828031 0)
(-5.8166 0.142151 0)
(-0.595258 1.06688 0)
(-9.7121 1.44617 0)
(-2.15638 -1.89317 0)
(-7.60425 2.45699 0)
(-0.0817555 -0.339888 0)
(6.00555 -0.704751 0)
(-1.23302 2.7211 0)
(7.97033 -0.874928 0)
(0.237706 -1.28505 0)
(-6.60511 0.487383 0)
(4.10506 -0.493176 0)
(0.847241 -4.37616 0)
(7.22276 0.398781 0)
(-6.67887 0.609851 0)
(9.31682 0.75964 0)
(3.83848 -0.727344 0)
(13.587 0.413343 0)
(-0.4423 0.724739 0)
(8.68082 -0.0925044 0)
(8.21281 -1.0589 0)
(5.7269 -2.93401 0)
(5.99808 0.851338 0)
(2.64466 -0.116451 0)
(1.55908 -0.78188 0)
(-2.04634 3.0506 0)
(-5.47935 0.481095 0)
(-1.85997 2.81847 0)
(4.39824 1.34422 0)
(-1.65664 1.98838 0)
(-3.33525 1.85825 0)
(-7.87053 -1.16063 0)
(-7.77797 2.68055 0)
(7.61419 0.262517 0)
(-3.49552 -2.95543 0)
(8.63096 1.00852 0)
(4.7597 0.275218 0)
(9.40904 1.12379 0)
(2.23534 0.0341726 0)
(2.14424 -1.00676 0)
(0.768347 1.52093 0)
(8.22174 -3.27273 0)
(1.15923 -2.27301 0)
(6.53594 0.849806 0)
(-2.97437 -0.234524 0)
(-2.07685 2.66941 0)
(-1.12688 3.2594 0)
(7.42471 -1.00473 0)
(-1.97906 -2.45556 0)
(-6.06247 0.568289 0)
(-10.6452 -2.92573 0)
(1.21878 -3.82834 0)
(-8.9618 -0.265747 0)
(-6.42696 0.503436 0)
(-6.71597 -0.718889 0)
(2.28935 -0.869311 0)
(-5.53682 -1.27323 0)
(-1.28049 0.650203 0)
(2.57295 -0.534706 0)
(5.97437 -1.57155 0)
(2.75519 3.04465 0)
(2.23314 0.839818 0)
(-2.91035 -0.352442 0)
(0.486687 -0.423746 0)
(-0.342142 -1.79849 0)
(-4.50633 0.31875 0)
(2.69548 0.20571 0)
(3.77066 1.1522 0)
(-9.14782 2.5902 0)
(-2.58725 2.59845 0)
(-2.69906 1.2627 0)
(-4.3259 2.2775 0)
(-8.46054 -2.3544 0)
(-6.24597 -2.59534 0)
(-0.797401 -1.12157 0)
(1.59039 -0.203728 0)
(-4.09674 0.188517 0)
(-2.33456 0.240381 0)
(-1.249 0.337167 0)
(0.37569 1.34295 0)
(-9.25384 0.695258 0)
(1.59701 -1.77271 0)
(-10.3854 1.73812 0)
(-5.6596 -0.163798 0)
(5.50209 -0.412624 0)
(-2.86555 2.26643 0)
(8.81995 -0.660847 0)
(1.21385 -0.993503 0)
(-5.31091 0.447363 0)
(4.63426 -0.188205 0)
(0.453943 -4.04455 0)
(5.92498 0.0564123 0)
(-7.49804 0.421847 0)
(7.03618 0.308796 0)
(1.916 -0.939554 0)
(10.4563 0.989886 0)
(-5.12804 0.434007 0)
(2.60679 0.181634 0)
(3.75762 -1.07535 0)
(1.14758 -2.50147 0)
(2.00442 0.932059 0)
(2.68572 0.524026 0)
(-2.65901 -0.520981 0)
(-2.02618 3.75781 0)
(-0.494619 0.616607 0)
(-1.55993 3.79172 0)
(3.72415 1.12273 0)
(2.48801 2.34985 0)
(-2.52385 2.34546 0)
(-7.20065 -1.73555 0)
(-6.22201 2.88304 0)
(1.75293 -1.06016 0)
(-6.55526 -3.15493 0)
(0.995394 1.25655 0)
(1.14177 -0.156382 0)
(4.45578 1.23005 0)
(-5.80277 0.0241064 0)
(2.0377 -0.906161 0)
(2.35947 1.49408 0)
(6.03876 -2.34535 0)
(6.69869 -2.02277 0)
(2.23384 0.956016 0)
(-4.84605 0.0740106 0)
(-2.61289 2.0847 0)
(-4.07101 2.56935 0)
(7.92575 -0.824152 0)
(-1.90588 -2.42021 0)
(-5.04997 0.523643 0)
(-12.6148 -3.41077 0)
(1.79536 -3.36761 0)
(-10.4135 -0.743766 0)
(-8.51459 0.282694 0)
(-10.6494 -0.680975 0)
(2.32268 -0.924637 0)
(-11.8319 -1.99228 0)
(-8.54957 0.508757 0)
(0.344216 -0.817854 0)
(-1.49312 -1.84505 0)
(-0.243823 2.7474 0)
(1.33135 0.969231 0)
(-2.16857 -0.527675 0)
(1.50016 -0.399314 0)
(3.63388 -2.51566 0)
(4.43831 0.249815 0)
(2.79395 -0.53623 0)
(2.77341 1.17582 0)
(-10.9673 2.74065 0)
(-3.18991 3.20554 0)
(-5.02475 1.42097 0)
(-1.87888 2.51163 0)
(-9.07923 -2.09071 0)
(-7.25296 -2.90153 0)
(-4.65233 -1.66483 0)
(-4.71249 -0.433063 0)
(-5.58625 0.598005 0)
(-11.0561 0.082476 0)
(5.73865 0.405297 0)
(1.71765 0.786274 0)
(-3.36769 0.292358 0)
(2.87349 -1.45363 0)
(-10.6343 1.45922 0)
(-7.81713 0.528176 0)
(3.23184 -0.32945 0)
(-6.05518 1.70271 0)
(9.38287 -0.62216 0)
(2.96791 -0.512143 0)
(-5.99013 0.291836 0)
(4.7677 0.585966 0)
(0.955575 -3.48137 0)
(5.46054 0.578126 0)
(-3.77969 0.2389 0)
(4.1884 -0.128266 0)
(0.356994 -0.844222 0)
(1.55657 0.464188 0)
(-1.97787 0.675126 0)
(-3.38446 -0.0319127 0)
(-1.92001 -1.53271 0)
(5.23682 -2.17794 0)
(-4.77113 0.424252 0)
(11.229 0.667821 0)
(0.474076 -0.7781 0)
(2.20987 4.37001 0)
(5.21715 0.819944 0)
(-3.17863 4.87026 0)
(2.56942 1.51645 0)
(6.20939 2.90526 0)
(-2.5 2.61878 0)
(-3.71602 -1.66571 0)
(-2.98934 3.13197 0)
(-4.64381 -1.13844 0)
(-5.85633 -2.84354 0)
(-9.98328 1.51026 0)
(-8.46224 -0.0993456 0)
(-1.46854 0.150949 0)
(-15.0917 -0.449696 0)
(-2.54443 -0.503009 0)
(-0.148573 0.853518 0)
(-0.850111 -0.950264 0)
(8.19318 -1.55952 0)
(-2.44138 0.814847 0)
(-6.77606 0.627631 0)
(-3.48175 1.32786 0)
(-7.52696 1.76774 0)
(8.66216 -0.839768 0)
(-3.47988 -2.53623 0)
(-5.2692 0.467614 0)
(-8.94268 -3.62831 0)
(0.759223 -3.13605 0)
(-7.42306 -1.10625 0)
(-4.34659 0.142841 0)
(-5.97247 0.107138 0)
(-0.96359 -0.935918 0)
(-5.94092 -1.20767 0)
(-3.69096 0.673133 0)
(-6.41232 -0.614061 0)
(0.393805 -1.50291 0)
(-6.4859 1.8519 0)
(-10.0991 0.428903 0)
(-3.28566 -1.33755 0)
(0.583046 -0.980401 0)
(4.81584 -2.65097 0)
(-0.136273 0.307821 0)
(3.23599 -0.712531 0)
(0.622491 1.61631 0)
(-11.3562 2.9857 0)
(-3.81356 3.5308 0)
(-4.84737 1.731 0)
(-0.858327 2.72517 0)
(-11.3928 -1.19918 0)
(-4.94138 -2.43445 0)
(-12.0679 -2.12296 0)
(-6.61968 -0.0571534 0)
(-12.1655 -0.446329 0)
(-5.33245 -0.443596 0)
(9.43059 -0.893118 0)
(-12.2741 -0.496235 0)
(2.80976 -0.0648926 0)
(5.69806 -1.14572 0)
(-10.701 1.82374 0)
(-5.45331 1.47206 0)
(0.488364 -0.410667 0)
(-6.81599 1.0684 0)
(9.38744 -0.809244 0)
(3.66212 -0.243358 0)
(-6.94834 0.191925 0)
(3.8959 0.254197 0)
(0.327365 -3.15083 0)
(3.52139 0.309351 0)
(-0.793066 0.166517 0)
(1.04545 -0.00198075 0)
(-4.23156 -0.779407 0)
(2.16946 0.478672 0)
(-5.46788 0.602083 0)
(-7.06987 -0.60381 0)
(0.2964 -0.91886 0)
(0.866967 -2.24173 0)
(-13.7729 -0.0728109 0)
(4.93763 1.28395 0)
(-2.39582 -1.23772 0)
(-4.49599 5.23753 0)
(-1.16659 0.904154 0)
(-6.47847 5.76252 0)
(1.7335 1.74163 0)
(7.05519 3.02634 0)
(-3.131 2.68494 0)
(-0.731594 -1.06871 0)
(-1.39626 3.21184 0)
(-1.83929 -1.83578 0)
(-5.57135 -2.36522 0)
(1.63583 1.99514 0)
(-7.33662 -0.274348 0)
(-4.42316 0.857653 0)
(-8.55457 -0.0649102 0)
(-16.7358 -0.336787 0)
(-12.8105 0.273305 0)
(-2.32092 -0.0553238 0)
(1.61785 -2.04665 0)
(-0.153024 0.386752 0)
(-5.89161 1.33656 0)
(-2.63625 0.689856 0)
(-3.6388 1.2236 0)
(10.7859 -0.974009 0)
(-5.4904 -2.62691 0)
(-5.39332 0.494795 0)
(-5.86979 -2.94339 0)
(-1.13283 -3.12685 0)
(-7.24414 -0.668607 0)
(-4.90569 0.253395 0)
(-11.0296 -0.403174 0)
(-1.2675 -0.540113 0)
(-7.82049 -0.989143 0)
(-2.80251 0.399224 0)
(-10.6475 -0.428062 0)
(5.43284 -0.740158 0)
(-13.0604 0.222011 0)
(-11.76 0.0797209 0)
(-8.27941 -2.03621 0)
(-11.3632 -1.53995 0)
(5.40518 -2.55817 0)
(-3.57969 0.0391056 0)
(5.03748 -1.1131 0)
(0.0161608 1.76488 0)
(-11.2384 3.34411 0)
(-4.17129 3.70218 0)
(-6.03865 1.54793 0)
(-0.134443 2.88686 0)
(-12.5864 -0.580496 0)
(-2.27962 -1.95599 0)
(-16.1166 -2.61573 0)
(-8.78601 -0.0537098 0)
(-16.1462 -1.88539 0)
(-6.48559 -0.0630604 0)
(4.99294 -1.6044 0)
(-14.877 -1.04789 0)
(-1.91071 0.11739 0)
(4.34591 -1.61517 0)
(-7.64065 2.4629 0)
(-5.26918 1.69469 0)
(4.41554 -0.547623 0)
(-3.80131 0.470091 0)
(12.7034 -0.698036 0)
(3.83135 -0.147933 0)
(-5.93234 0.208408 0)
(-1.67958 -0.236527 0)
(-1.35465 -2.77848 0)
(2.05677 -0.182953 0)
(-5.282 0.0172094 0)
(6.85868 0.248061 0)
(-1.00586 -0.843658 0)
(9.9851 0.76742 0)
(-2.57562 0.201594 0)
(0.0862569 -0.422195 0)
(1.75129 -0.114419 0)
(-6.57035 -1.1621 0)
(-6.9554 0.500507 0)
(-6.45188 1.28368 0)
(-7.47987 -1.54744 0)
(-8.66876 4.37772 0)
(-7.11496 0.179245 0)
(-9.24683 6.02107 0)
(0.735507 1.80142 0)
(7.25513 2.66501 0)
(-3.58505 2.67081 0)
(3.79807 -0.279624 0)
(-0.218153 3.10293 0)
(0.167009 -1.75083 0)
(-1.27567 -1.72905 0)
(2.39385 1.63818 0)
(-5.94275 -0.192887 0)
(-5.07648 1.13736 0)
(0.627811 0.403834 0)
(-15.6813 -1.259 0)
(-8.41082 -0.385089 0)
(0.756694 -1.00894 0)
(1.80604 -2.64254 0)
(0.623088 -0.355472 0)
(-6.23808 1.70304 0)
(-1.63175 1.02802 0)
(-0.933367 0.611019 0)
(15.5408 -0.80002 0)
(-6.20083 -2.27061 0)
(-4.88805 0.556187 0)
(-6.4832 -2.27523 0)
(-2.94999 -2.76063 0)
(-7.54775 -0.169514 0)
(-6.06264 0.0845045 0)
(-10.7256 -0.58903 0)
(-3.32742 -0.642776 0)
(-11.1743 -0.22206 0)
(-3.13204 0.229962 0)
(-9.32424 0.927054 0)
(-6.01384 -0.231369 0)
(-4.82013 -0.582829 0)
(1.55313 0.215787 0)
(-7.38949 -2.99569 0)
(-16.3888 -1.38502 0)
(2.28897 -2.04942 0)
(-4.18972 -0.432562 0)
(6.38807 -0.936432 0)
(-1.95918 1.5423 0)
(-10.7586 3.67997 0)
(-4.48481 3.74248 0)
(-5.104 1.28111 0)
(1.65334 2.74952 0)
(-8.63143 -0.14341 0)
(1.08914 -1.50858 0)
(-5.92045 -0.512536 0)
(-4.44455 -0.362323 0)
(-2.89578 -1.30379 0)
(-6.20553 0.214792 0)
(8.93684 -1.71834 0)
(9.8459 -1.12463 0)
(-5.4594 0.945405 0)
(3.66389 -1.74278 0)
(-5.56499 2.50596 0)
(-8.6252 1.70964 0)
(9.502 -0.943188 0)
(3.75831 -0.330667 0)
(22.2092 -0.206144 0)
(3.36048 -0.19238 0)
(-2.63509 0.299565 0)
(-4.1368 -0.295841 0)
(-2.82413 -2.2867 0)
(-0.947777 -0.624003 0)
(-11.2812 -0.117082 0)
(3.97494 -0.453488 0)
(-2.92484 -0.953958 0)
(1.64332 -0.66259 0)
(0.295441 0.377354 0)
(1.2057 -1.19423 0)
(-11.0695 -0.203705 0)
(-7.49468 0.161349 0)
(2.77672 0.765766 0)
(-12.1652 1.292 0)
(-14.4817 -1.08979 0)
(-8.67288 2.40632 0)
(-4.73986 -0.653319 0)
(-12.7711 5.36472 0)
(-5.2854 1.80136 0)
(8.18709 2.17199 0)
(-3.42507 2.43259 0)
(8.03723 0.207956 0)
(2.28189 2.75888 0)
(4.10279 -1.22184 0)
(4.29999 -1.26268 0)
(-2.42499 0.0664696 0)
(-4.36425 0.0456637 0)
(6.37007 0.521075 0)
(-2.17054 -0.334899 0)
(4.14991 -1.12474 0)
(12.8761 -0.985866 0)
(0.319397 -1.64581 0)
(-5.87457 -1.50337 0)
(2.62803 -1.55659 0)
(-3.8192 1.56535 0)
(10.2627 -1.307 0)
(1.04104 -0.807835 0)
(6.15037 0.435277 0)
(-3.574 -1.29676 0)
(-2.52139 0.481293 0)
(-11.7443 -1.90496 0)
(-2.35553 -1.77023 0)
(-12.4041 -0.770428 0)
(-1.9816 -0.075371 0)
(-6.65561 -0.142655 0)
(-8.12727 -1.31734 0)
(-12.8444 1.51726 0)
(-6.4892 0.768569 0)
(-12.6266 1.69322 0)
(-6.21486 -0.217472 0)
(-2.41627 -0.976334 0)
(7.6236 0.120336 0)
(-5.5585 -2.75463 0)
(-8.00258 -0.891161 0)
(-2.42116 -0.385895 0)
(-7.26549 -0.85164 0)
(4.28175 -0.118622 0)
(-5.83741 1.37765 0)
(-9.0886 3.59438 0)
(-5.45655 3.26824 0)
(-1.15698 1.33535 0)
(6.00171 2.26316 0)
(-5.50463 -0.0208848 0)
(4.18666 -0.99095 0)
(-1.4684 0.100685 0)
(-1.63087 -0.2066 0)
(3.91906 -1.86487 0)
(0.732329 -0.671616 0)
(2.30576 -1.28027 0)
(15.1814 -0.885034 0)
(-10.0886 2.18135 0)
(-4.73902 -0.728727 0)
(-3.23882 2.18834 0)
(-0.126641 1.13724 0)
(-9.57823 2.60518 0)
(-5.95295 -0.411621 0)
(10.5369 -0.163362 0)
(4.61548 -0.349896 0)
(-0.758356 0.145339 0)
(5.04412 -0.313391 0)
(-2.16303 -1.79732 0)
(2.98435 -0.487776 0)
(1.47995 0.0548355 0)
(-8.00557 -0.285093 0)
(-12.3008 -0.622634 0)
(-0.170318 -1.06968 0)
(-14.8557 0.27328 0)
(11.124 -1.58219 0)
(1.98521 -0.931424 0)
(3.6022 -0.137176 0)
(8.08514 0.595815 0)
(-8.07858 0.411769 0)
(-9.90848 -0.152784 0)
(-11.8466 0.325585 0)
(-3.20075 -0.613447 0)
(-15.2464 3.88804 0)
(-16.4512 1.59256 0)
(9.83463 1.46149 0)
(-3.37385 1.70067 0)
(11.8752 -0.159073 0)
(8.07499 2.13562 0)
(6.76612 -1.20828 0)
(14.1707 -0.67163 0)
(3.13246 -1.37376 0)
(0.600988 0.0205035 0)
(11.3048 -0.123872 0)
(3.40659 -1.18239 0)
(7.56379 0.379486 0)
(7.56114 -0.65122 0)
(5.41809 -1.04185 0)
(11.9726 -0.59462 0)
(0.125746 -0.499176 0)
(0.205576 1.46801 0)
(7.03062 -3.56968 0)
(7.69749 -0.843175 0)
(10.4189 0.276052 0)