/*--------------------------------*- C++ -*----------------------------------*\
  =========                 |
  \\      /  F ield         | OpenFOAM: The Open Source CFD Toolbox
   \\    /   O peration     | Website:  https://openfoam.org
    \\  /    A nd           | Version:  6
     \\/     M anipulation  |
\*---------------------------------------------------------------------------*/
FoamFile
{
    version     2.0;
    format      ascii;
    class       volScalarField;
    location    "1.61";
    object      epsilon;
}
// * * * * * * * * * * * * * * * * * * * * * * * * * * * * * * * * * * * * * //

dimensions      [0 2 -3 0 0 0 0];

internalField   nonuniform List<scalar> 
4214
(
0.0221337
0.012251
0.00820678
0.00652716
0.00585791
0.00562582
0.00558892
0.0056529
0.00578721
0.00598673
0.0062579
0.00661388
0.0070752
0.00767342
0.00845777
0.00950744
0.0109607
0.0130662
0.0162465
0.0208938
0.0270312
0.0277616
0.0228311
0.0178924
0.0141265
0.0113725
0.00943539
0.0080684
0.0071163
0.00646291
0.00602548
0.00574133
0.00556471
0.00546377
0.00541997
0.00544164
0.00560969
0.00618598
0.00779077
0.0117374
0.0212028
0.00940847
0.00726686
0.00623675
0.00577584
0.00560467
0.00558124
0.00564195
0.00576564
0.00595009
0.00620148
0.00653185
0.00695902
0.00750931
0.00822259
0.00916091
0.0104253
0.0121929
0.0147801
0.0187004
0.0243944
0.0319507
0.0333373
0.0274999
0.0214675
0.0168391
0.0133956
0.0109427
0.00918035
0.00792489
0.00703982
0.00642891
0.00601768
0.00574977
0.00558254
0.00548626
0.00544107
0.00545003
0.00557711
0.00600577
0.00704045
0.00908864
0.00689775
0.00613061
0.00575576
0.0056063
0.00558403
0.00563971
0.00575503
0.00592762
0.0061632
0.00647236
0.00687053
0.00737997
0.00803356
0.00888077
0.00999821
0.0115117
0.0136432
0.0167817
0.0215297
0.0283591
0.0374548
0.0397872
0.0330806
0.0258401
0.0202441
0.0159946
0.0129224
0.0106787
0.00904558
0.00786238
0.00701948
0.00643154
0.00603217
0.00576957
0.00560421
0.0055074
0.00546048
0.00546661
0.0055904
0.00597258
0.00670922
0.00602337
0.0057382
0.00561336
0.00559314
0.00564489
0.00575418
0.00591876
0.00614295
0.00643584
0.0068107
0.00728657
0.00789093
0.00866414
0.00966654
0.0109916
0.0127932
0.0153413
0.0190954
0.0247366
0.0327532
0.0435068
0.0471286
0.0397005
0.0311721
0.0245125
0.0193325
0.015519
0.0126885
0.0105879
0.00902701
0.00788046
0.0070527
0.00646832
0.00606644
0.00579877
0.00562861
0.00552867
0.00547986
0.00548608
0.00561153
0.00589353
0.00570305
0.00561579
0.00560409
0.00565486
0.0057614
0.00592202
0.00614032
0.00642303
0.00678143
0.00723158
0.00779688
0.00851084
0.00942224
0.0106034
0.0121664
0.0142953
0.0173083
0.0217291
0.0283046
0.0375128
0.0501366
0.0554016
0.0475272
0.0376684
0.0298532
0.0236203
0.0189224
0.015369
0.0126834
0.0106454
0.00910784
0.00796228
0.00712458
0.00652623
0.00611053
0.00583149
0.00565329
0.0055482
0.0054966
0.00550879
0.00560122
0.00561332
0.00561555
0.00566903
0.0057754
0.00593688
0.00615491
0.00643498
0.00678482
0.00721825
0.00775476
0.00842307
0.00926354
0.0103343
0.0117207
0.0135547
0.0160514
0.0195731
0.0246958
0.0322219
0.0426258
0.0573872
0.0645993
0.0567236
0.0456263
0.0365383
0.0290763
0.0233147
0.0188786
0.0154732
0.0128447
0.010818
0.00926606
0.00809432
0.00722701
0.00660073
0.00616174
0.00586562
0.00567686
0.00556563
0.00551751
0.00551823
0.00562887
0.00568597
0.00579561
0.00596107
0.00618648
0.00647173
0.00682357
0.00725037
0.00776969
0.00840522
0.00919212
0.0101784
0.0114322
0.0130533
0.0151938
0.0180976
0.0221667
0.0280125
0.0364903
0.0481357
0.0653471
0.0747389
0.0674583
0.0552506
0.0447686
0.0358929
0.0288744
0.0233781
0.0191026
0.0157591
0.0131386
0.0110869
0.00949361
0.00827439
0.0073608
0.00669399
0.00622304
0.00590455
0.0057009
0.00558602
0.00552784
0.00571072
0.00581984
0.00599475
0.00623155
0.00653447
0.00689882
0.00733397
0.00784868
0.00846624
0.0092151
0.0101383
0.0112924
0.012756
0.014643
0.017131
0.0204775
0.0251081
0.0316964
0.0411788
0.0541192
0.0740613
0.0859141
0.0797833
0.0667128
0.0547485
0.0442441
0.0357497
0.0289974
0.0236922
0.0195073
0.0161927
0.0135548
0.0114574
0.00980219
0.00851585
0.00753786
0.00681565
0.00630173
0.00595241
0.00573189
0.00560066
0.00585783
0.00603218
0.00629175
0.00661695
0.00701468
0.00747172
0.00800366
0.00861835
0.00934817
0.0102267
0.011306
0.0126517
0.0143591
0.0165433
0.0193944
0.0232154
0.0284667
0.0358494
0.0463798
0.0607051
0.0836024
0.0982186
0.0937581
0.0801336
0.066644
0.0542649
0.0440467
0.0358256
0.0293304
0.0241884
0.0200984
0.0168105
0.0141476
0.0119848
0.0102412
0.00885702
0.00778587
0.00698417
0.00640875
0.00601802
0.00576686
0.00609031
0.00635318
0.00672499
0.00715906
0.00767343
0.00823861
0.00888378
0.00961236
0.0104702
0.0114964
0.0127583
0.014316
0.0162766
0.018789
0.0220681
0.0264305
0.0323583
0.0405866
0.0522184
0.0680958
0.0940686
0.111841
0.109485
0.0955894
0.0805802
0.0660476
0.053832
0.0439162
0.0360814
0.0298941
0.0249881
0.0210311
0.0177832
0.0150706
0.012798
0.0109053
0.0093633
0.00814569
0.00722302
0.00655827
0.00610393
0.0064452
0.00682769
0.00734857
0.00791484
0.00857452
0.00926599
0.0100452
0.0109046
0.0119122
0.0130974
0.0145466
0.0163433
0.0186101
0.0215107
0.0252807
0.0302554
0.036933
0.0460759
0.0588726
0.0765397
0.105591
0.127075
0.127164
0.113156
0.0966495
0.0796398
0.0651417
0.0532998
0.0440037
0.0367357
0.0310444
0.0264759
0.0226955
0.0194408
0.0165938
0.0140833
0.0119174
0.0101037
0.008652
0.00754734
0.0067513
0.00697965
0.00751808
0.00823794
0.00896224
0.00980598
0.0106478
0.0115895
0.0125903
0.0137587
0.0151281
0.0168054
0.0188831
0.0215083
0.0248619
0.0292008
0.0348772
0.0424009
0.0525522
0.0665785
0.086313
0.118336
0.144307
0.147125
0.132932
0.114934
0.0950446
0.0779953
0.0639983
0.0531741
0.0448783
0.0385447
0.0335476
0.0294022
0.0256886
0.0222635
0.0190083
0.0160186
0.0133469
0.0110936
0.00928893
0.007929
0.00777913
0.00850936
0.00949769
0.0104107
0.0114896
0.0124984
0.013642
0.0148165
0.0161911
0.0177758
0.0197245
0.0221328
0.0251818
0.0290676
0.0340702
0.0405589
0.0490488
0.0603373
0.0756412
0.0976988
0.132552
0.164078
0.169811
0.15501
0.135526
0.112192
0.0924156
0.0760421
0.0637183
0.0545839
0.0479134
0.0428652
0.0386915
0.0347071
0.0307631
0.0265799
0.022494
0.0185588
0.0151
0.0121933
0.00993209
0.00896745
0.0099197
0.0112689
0.0123847
0.0137845
0.0150014
0.0164284
0.017813
0.0194597
0.0213024
0.0235876
0.026389
0.0299437
0.0344564
0.0402324
0.0476671
0.0572583
0.0698584
0.0864281
0.110972
0.148551
0.187114
0.195754
0.179466
0.158564
0.130927
0.108483
0.0894818
0.0758592
0.0662678
0.0597686
0.0553467
0.0516899
0.0477663
0.0434581
0.0380093
0.0324711
0.0265849
0.0213494
0.0167129
0.0130774
0.0107094
0.0118706
0.0137454
0.0150822
0.0169569
0.0184045
0.0202534
0.0218878
0.0239289
0.0260834
0.0288103
0.0320801
0.0362427
0.0414932
0.0481525
0.0566991
0.0675034
0.0817135
0.099389
0.126482
0.166573
0.214396
0.225459
0.206234
0.184278
0.150946
0.12644
0.104395
0.0900055
0.0805497
0.0749249
0.0722741
0.0698334
0.0665306
0.0621409
0.0547347
0.047406
0.0382846
0.0306047
0.0231856
0.0176183
0.0132368
0.0145453
0.0172555
0.0187408
0.02137
0.0230087
0.0255446
0.0274327
0.0301064
0.0326168
0.0359731
0.0397965
0.0446933
0.050829
0.0584255
0.0683343
0.0802675
0.0966012
0.115058
0.145009
0.186701
0.247322
0.259032
0.234888
0.212898
0.171521
0.146758
0.120695
0.106844
0.0982346
0.0943348
0.0952438
0.0945925
0.0928856
0.0888289
0.078093
0.0690837
0.0541371
0.0437706
0.0315241
0.0237457
0.0169749
0.0181174
0.0222866
0.0236057
0.0275611
0.0291291
0.032902
0.0348711
0.0386814
0.0414908
0.0458473
0.0503211
0.0560787
0.0634189
0.0717441
0.0836329
0.0958649
0.115067
0.133117
0.167216
0.208373
0.288689
0.29583
0.264832
0.244683
0.191198
0.170365
0.137656
0.127369
0.119928
0.118861
0.125671
0.126832
0.128402
0.12513
0.108778
0.0996351
0.0734822
0.0623149
0.0405541
0.0319657
0.019795
0.0169344
0.0136891
0.0108996
0.00880877
0.00739332
0.00651203
0.00600019
0.00572017
0.00557735
0.00551867
0.00553883
0.00571077
0.00628144
0.00791511
0.0130957
0.0456652
0.0152776
0.0129398
0.0109185
0.00919797
0.00785508
0.00689834
0.00627069
0.00588724
0.00566812
0.0055546
0.0055148
0.00555744
0.00576753
0.00640155
0.00814513
0.0135589
0.0445509
0.0106051
0.00987117
0.00888171
0.00791354
0.00709855
0.00648225
0.00605498
0.00577997
0.00561631
0.00553104
0.00550918
0.00557233
0.00581812
0.00651592
0.00837894
0.0140723
0.0437296
0.00896862
0.00826487
0.00762997
0.00704822
0.00655122
0.00616113
0.00587754
0.00568593
0.00556758
0.00550721
0.00550367
0.00558914
0.00587127
0.00663629
0.00862796
0.0146241
0.04354
0.00739444
0.00714203
0.00681189
0.00647642
0.00617548
0.00592951
0.00574251
0.00561023
0.00552593
0.00548622
0.00550007
0.00560828
0.00592941
0.00676821
0.00889783
0.0152218
0.0440311
0.00690165
0.00661975
0.0063685
0.00614018
0.00594086
0.00577648
0.00564813
0.00555407
0.00549324
0.00546953
0.00549947
0.00563249
0.00599831
0.00691873
0.009193
0.0158648
0.0452707
0.00644462
0.00627589
0.00610425
0.00594312
0.00580082
0.00568166
0.00558678
0.00551573
0.00547055
0.00545955
0.0055057
0.00566672
0.0060831
0.00709074
0.0095081
0.0165383
0.0473675
0.00632979
0.0061479
0.00598951
0.00585127
0.00573253
0.00563373
0.00555474
0.00549585
0.00546058
0.00546044
0.00552374
0.0057155
0.00618519
0.00727546
0.0098163
0.0172049
0.0504633
0.00621423
0.00607241
0.00593874
0.00581757
0.00571144
0.0056218
0.00554938
0.00549596
0.00546723
0.00547734
0.00555812
0.00577966
0.00629454
0.0074427
0.010067
0.017813
0.0546994
0.00621017
0.00607111
0.00594315
0.00582788
0.00572648
0.00564007
0.00557002
0.00551945
0.00549606
0.00551572
0.00561161
0.00585362
0.00638951
0.00755326
0.0102133
0.0183266
0.0601601
0.00623813
0.0061199
0.00600501
0.00589636
0.00579685
0.00570944
0.00563766
0.00558654
0.00556535
0.00559031
0.00569229
0.00593648
0.00646364
0.00760416
0.010261
0.0187644
0.0668943
0.00627306
0.00617173
0.00607251
0.00597768
0.00588943
0.00581073
0.0057455
0.00569955
0.00568228
0.00570891
0.00580825
0.00604179
0.00654427
0.00764014
0.0102674
0.0191925
0.0749633
0.00636294
0.00627211
0.006182
0.00609425
0.0060116
0.005938
0.0058781
0.00583775
0.00582565
0.00585581
0.00595525
0.00618157
0.00666147
0.00770925
0.0102979
0.0196895
0.0843097
0.00641318
0.00634509
0.00627401
0.00620324
0.0061365
0.00607786
0.00603158
0.00600312
0.00600083
0.0060386
0.00614292
0.00636823
0.00683361
0.00784402
0.0104113
0.0203429
0.0947075
0.00652626
0.0064623
0.00640028
0.00634162
0.00628887
0.00624472
0.00621235
0.00619676
0.00620613
0.00625475
0.00636891
0.00660111
0.00706509
0.00806232
0.0106591
0.0212675
0.106006
0.00658625
0.00655122
0.006514
0.00647842
0.00644708
0.00642234
0.00640752
0.00640811
0.00643289
0.00649688
0.00662683
0.00687485
0.00735434
0.00837631
0.011092
0.0225944
0.117806
0.00670274
0.00667218
0.00664809
0.00662924
0.00661552
0.00660846
0.00661158
0.00663048
0.00667439
0.00675843
0.00691041
0.00718376
0.00769935
0.0087965
0.0117575
0.0244672
0.129544
0.00676918
0.0067706
0.00677176
0.00677437
0.00678026
0.0067926
0.00681607
0.0068569
0.00692436
0.00703404
0.00721452
0.00752477
0.00810253
0.00933711
0.0126949
0.026978
0.140411
0.00687861
0.00688641
0.00689963
0.00691661
0.00693923
0.00697096
0.00701653
0.00708233
0.00717774
0.00731851
0.00753585
0.00789928
0.00857366
0.0100218
0.0139558
0.0300834
0.149674
0.00694955
0.00698333
0.00701354
0.00704636
0.00708674
0.00713904
0.00720838
0.00730149
0.00742836
0.00760624
0.00787217
0.0083129
0.00913134
0.0108906
0.0156026
0.0333952
0.156264
0.00704403
0.00708043
0.00711894
0.0071647
0.00722185
0.00729432
0.00738758
0.00750924
0.00767088
0.00789356
0.00822498
0.00877703
0.00980594
0.0119993
0.0176337
0.0369372
0.159338
0.00711172
0.00716083
0.00721068
0.00727026
0.00734378
0.00743576
0.00755273
0.00770415
0.00790517
0.00818515
0.00860984
0.00932552
0.0106584
0.0134532
0.0203198
0.0423931
0.15952
0.00718171
0.00723353
0.0072931
0.00736561
0.0074549
0.00756662
0.0077093
0.00789578
0.00814859
0.00851237
0.00907976
0.0100423
0.0118182
0.0154538
0.0240974
0.0504791
0.158156
0.00723762
0.00729747
0.00736807
0.007454
0.00756006
0.00769407
0.00786805
0.00810153
0.008429
0.00891529
0.00968446
0.0109808
0.013322
0.0179463
0.0283566
0.0567762
0.158282
0.00728761
0.00735649
0.00743805
0.00753859
0.00766471
0.00782763
0.00804505
0.00834604
0.00878019
0.0094347
0.0104671
0.012176
0.0151698
0.0208363
0.0329105
0.0636445
0.160508
0.00733368
0.00741167
0.00750639
0.00762511
0.00777766
0.00798015
0.0082577
0.00865039
0.00922362
0.010087
0.0114315
0.0136099
0.0173233
0.0241358
0.0381278
0.0719335
0.165607
0.00737741
0.00746686
0.0075772
0.00771896
0.00790575
0.00815915
0.00851183
0.00901419
0.00974593
0.0108374
0.0125118
0.0151755
0.0196264
0.0276184
0.0435972
0.0806804
0.17401
0.00742128
0.00752346
0.00765302
0.00782249
0.00804946
0.00836005
0.00879267
0.00940533
0.0102885
0.0115884
0.0135524
0.0166254
0.0216729
0.0305748
0.048023
0.087621
0.185024
0.00746596
0.00758356
0.00773434
0.00793375
0.00820161
0.00856608
0.00906769
0.00976768
0.0107621
0.0122068
0.0143585
0.0176721
0.0230269
0.032317
0.0502549
0.0907226
0.196577
0.00751215
0.00764656
0.00782083
0.00805024
0.00835517
0.00876276
0.00931269
0.0100674
0.0111228
0.0126304
0.0148441
0.0182123
0.0235859
0.0327661
0.0502668
0.089956
0.205602
0.00755034
0.0076996
0.00789216
0.00814307
0.00846926
0.00889826
0.00947207
0.0102516
0.0113297
0.0128535
0.0150642
0.0183816
0.0235973
0.0323925
0.0489966
0.0869727
0.209293
0.00758626
0.00775034
0.00796097
0.00823061
0.00857845
0.0090311
0.0096267
0.0104218
0.0115032
0.0130073
0.0151577
0.0183449
0.0233081
0.0316173
0.0471889
0.0829952
0.206505
0.00762316
0.00780531
0.00803702
0.00833256
0.00870962
0.00919242
0.00981606
0.0106326
0.0117203
0.013202
0.0152799
0.0183101
0.0229734
0.0307249
0.0452031
0.0785203
0.197875
0.00766591
0.00786981
0.00813049
0.00846132
0.00887885
0.00940615
0.0100759
0.010935
0.0120528
0.0135363
0.0155623
0.0184438
0.0227844
0.0298901
0.0430834
0.0734089
0.184893
0.00771548
0.00794858
0.00824754
0.00862578
0.00910047
0.0096946
0.0104394
0.0113775
0.0125696
0.0141079
0.0161432
0.0189408
0.0230158
0.0294986
0.0413326
0.0682404
0.169177
0.00777533
0.00804515
0.00839292
0.00883404
0.00938753
0.0100781
0.0109373
0.0120056
0.0133388
0.0150193
0.0171793
0.0200482
0.0240667
0.0302058
0.0409131
0.0642549
0.152201
0.00784643
0.00816124
0.00857035
0.00909275
0.00975142
0.0105749
0.0115975
0.0128622
0.0144274
0.0163782
0.0188477
0.022061
0.02644
0.0328939
0.0432127
0.0633925
0.135126
0.00793039
0.00829962
0.00878441
0.0094096
0.0102041
0.0112025
0.0124463
0.0139888
0.0159031
0.0182979
0.0213415
0.0253153
0.0307375
0.0386954
0.0501372
0.0686161
0.11879
0.0080285
0.00846193
0.00903833
0.00979006
0.0107545
0.0119761
0.0135102
0.0154299
0.0178444
0.0209185
0.0249114
0.030256
0.0377593
0.0491452
0.0644874
0.08505
0.103799
0.00814274
0.00865239
0.00933929
0.0102459
0.0114204
0.0129216
0.0148272
0.0172505
0.0203667
0.0244585
0.0300065
0.037882
0.0498035
0.0667159
0.0906536
0.122088
0.0905309
0.0216107
0.0234672
0.0254014
0.0272672
0.0289656
0.0304261
0.0315999
0.0324528
0.0329699
0.0331536
0.0330253
0.0326204
0.0319841
0.0311647
0.0302049
0.0291353
0.0279675
0.0266949
0.0253063
0.0238033
0.0216942
0.0197264
0.0184375
0.0172312
0.016103
0.0150514
0.0140758
0.0131771
0.0123558
0.0116131
0.0109489
0.0103606
0.00984482
0.00939611
0.00901292
0.00869489
0.00844828
0.0082783
0.00818309
0.00814762
0.00814329
0.0247179
0.0270857
0.0294826
0.0317416
0.0337661
0.035488
0.0368525
0.0378199
0.0383713
0.0385119
0.0382699
0.0376918
0.0368354
0.0357598
0.0345166
0.0331416
0.0316514
0.0300481
0.0283352
0.0265338
0.0241396
0.021933
0.0204438
0.0190617
0.0177793
0.0165925
0.0154975
0.0144913
0.0135727
0.0127404
0.0119934
0.0113272
0.0107372
0.0102159
0.00975925
0.00936762
0.00905028
0.00882034
0.00868504
0.00863358
0.00863503
0.028285
0.0312937
0.0342338
0.0369542
0.0393765
0.0414298
0.0430454
0.0441707
0.0447793
0.0448775
0.0445019
0.0437125
0.0425822
0.0411845
0.0395829
0.0378233
0.0359329
0.0339295
0.0318362
0.0296912
0.0269811
0.0245049
0.0227846
0.0212002
0.0197418
0.0184022
0.0171738
0.0160504
0.0150272
0.0141011
0.0132684
0.0125237
0.0118596
0.0112668
0.010737
0.0102681
0.00987011
0.00956383
0.00936991
0.00928977
0.00929507
0.0323596
0.0361243
0.0396809
0.0429483
0.0458679
0.0483516
0.0503045
0.0516516
0.0523548
0.0524198
0.0518926
0.0508492
0.0493818
0.047583
0.045534
0.0432978
0.0409209
0.0384425
0.0359077
0.033369
0.0303057
0.0275236
0.0255357
0.0237178
0.0220569
0.0205422
0.0191628
0.0179085
0.0167713
0.015745
0.0148234
0.0139992
0.0132631
0.0126026
0.0120045
0.0114607
0.0109769
0.010578
0.0103007
0.0101685
0.0101675
0.036982
0.0415855
0.0458354
0.0497642
0.0533141
0.0563588
0.0587625
0.0604192
0.0612727
0.0613255
0.0606329
0.0592901
0.0574137
0.0551228
0.0525251
0.0497106
0.0467534
0.0437198
0.0406761
0.037686
0.034225
0.0310942
0.0287958
0.0267071
0.0248117
0.0230949
0.0215417
0.0201385
0.0188736
0.0177375
0.0167214
0.0158158
0.0150094
0.0142874
0.013631
0.0130231
0.0124582
0.0119565
0.0115664
0.0113431
0.0113079
0.0421893
0.047677
0.0527165
0.0574547
0.0617984
0.0655626
0.0685586
0.0706388
0.0717203
0.0717974
0.0709334
0.0692462
0.0668837
0.0640017
0.0607461
0.0572451
0.0536088
0.0499336
0.0463058
0.0427972
0.0388849
0.0353548
0.0326953
0.0302918
0.0281235
0.0261714
0.0244161
0.0228404
0.0214289
0.0201688
0.0190483
0.0180559
0.017179
0.0164011
0.0156997
0.0150477
0.0144222
0.0138241
0.013297
0.0129262
0.0127962
0.0480334
0.0544248
0.0603803
0.0661012
0.0714222
0.0760867
0.0798418
0.0824858
0.0838977
0.084055
0.083027
0.0809569
0.078033
0.0744599
0.0704355
0.0661375
0.0617189
0.0573084
0.0530114
0.048906
0.0444786
0.0404899
0.0374094
0.0346386
0.0321518
0.0299243
0.0279322
0.0261541
0.0245712
0.0231669
0.0219267
0.020837
0.0198845
0.0190525
0.0183179
0.0176473
0.0169996
0.0163418
0.0156818
0.0151032
0.0147662
0.0546132
0.0619237
0.0689485
0.075834
0.0823227
0.0880808
0.0927809
0.0961526
0.098022
0.0983388
0.0971736
0.0946976
0.091149
0.0867941
0.0818959
0.0766923
0.0713855
0.0661389
0.0610769
0.0562844
0.0512667
0.0467493
0.0431777
0.0399773
0.0371171
0.0345661
0.0322953
0.0302785
0.0284931
0.0269187
0.0255376
0.0243345
0.0232951
0.0224042
0.0216414
0.0209749
0.0203538
0.0197104
0.0189835
0.0181803
0.0174714
0.0621141
0.0703827
0.0786407
0.0868634
0.0947026
0.101747
0.107585
0.111862
0.114337
0.114917
0.113668
0.11079
0.106579
0.101373
0.0955116
0.0893025
0.0830029
0.0768138
0.0708816
0.0653004
0.0596057
0.0544783
0.0503335
0.0466301
0.043331
0.0403988
0.0377991
0.0355005
0.0334756
0.0316999
0.0301525
0.0288157
0.0276744
0.0267147
0.0259208
0.0252693
0.0247165
0.0241822
0.0235361
0.0226217
0.0213974
0.0708358
0.0801775
0.0898202
0.099528
0.108877
0.117381
0.124536
0.129895
0.133131
0.134101
0.132854
0.129617
0.124744
0.118655
0.111771
0.104476
0.0970885
0.0898526
0.0829408
0.0764612
0.069993
0.0641631
0.0593511
0.0550589
0.0512433
0.0478614
0.044873
0.0422414
0.0399339
0.0379216
0.0361798
0.0346885
0.0334311
0.0323941
0.0315654
0.0309317
0.0304685
0.0301179
0.02974
0.0290236
0.0273958
0.0811947
0.0919138
0.103066
0.114363
0.125338
0.135427
0.144038
0.150624
0.154771
0.156268
0.155143
0.151638
0.146162
0.139211
0.131294
0.122871
0.114328
0.105958
0.0979646
0.0904777
0.083136
0.0765031
0.0709203
0.0659419
0.0615203
0.0576085
0.0541612
0.0511368
0.0484971
0.0462088
0.0442437
0.0425791
0.0411967
0.0400829
0.0392272
0.0386229
0.0382629
0.0381278
0.0381431
0.0380256
0.0366924
0.0946809
0.106491
0.119288
0.132199
0.144852
0.156564
0.166689
0.174583
0.179746
0.181901
0.181042
0.177414
0.171466
0.163759
0.154875
0.145353
0.135644
0.126094
0.11695
0.108367
0.100062
0.0925299
0.0860709
0.0803029
0.0751781
0.0706472
0.0666621
0.0631769
0.0601493
0.0575424
0.0553251
0.0534722
0.0519645
0.0507879
0.0499333
0.0493972
0.0491816
0.0492925
0.0497263
0.0504087
0.050555
0.112768
0.125926
0.139863
0.154339
0.168587
0.18183
0.193388
0.202545
0.208743
0.211645
0.211203
0.207652
0.201454
0.193206
0.183544
0.173069
0.162291
0.151612
0.141323
0.131615
0.122303
0.113805
0.106385
0.0997366
0.0938174
0.0885806
0.0839782
0.079963
0.0764913
0.0735246
0.0710303
0.0689822
0.0673611
0.066154
0.0653536
0.0649597
0.0649808
0.0654353
0.0663427
0.0677703
0.0697449
0.137935
0.152332
0.167494
0.183006
0.198311
0.212827
0.22549
0.235667
0.242758
0.246393
0.246493
0.243261
0.237139
0.22872
0.218654
0.207568
0.196014
0.184437
0.173173
0.162453
0.152201
0.142766
0.134377
0.126816
0.120057
0.114063
0.10879
0.104197
0.100243
0.0968922
0.0941134
0.0918826
0.0901827
0.0890037
0.0883414
0.0882021
0.0886008
0.089572
0.0911455
0.093466
0.0963471
0.174466
0.189687
0.205527
0.221587
0.237303
0.252018
0.265039
0.27569
0.28325
0.287422
0.288103
0.285452
0.279853
0.27184
0.262015
0.25098
0.239282
0.227379
0.215636
0.204317
0.193461
0.183355
0.174196
0.165869
0.158374
0.151694
0.145802
0.14067
0.136268
0.132569
0.129552
0.127197
0.125495
0.124441
0.124036
0.124297
0.125247
0.126935
0.129444
0.132658
0.136605
0.229967
0.244887
0.2601
0.27528
0.289939
0.303528
0.315477
0.325244
0.332392
0.336595
0.337713
0.335882
0.331384
0.324633
0.316104
0.306293
0.295668
0.284641
0.273558
0.262688
0.252162
0.24221
0.233002
0.224526
0.216817
0.209889
0.203746
0.198385
0.193797
0.189975
0.186914
0.18461
0.183063
0.182278
0.182264
0.183051
0.184685
0.187137
0.190436
0.194592
0.199533
0.318924
0.330589
0.342055
0.353218
0.36377
0.373385
0.381744
0.388554
0.393581
0.396669
0.39776
0.396888
0.394209
0.389953
0.384388
0.377801
0.370481
0.362693
0.354677
0.346633
0.338709
0.331061
0.323816
0.317031
0.310766
0.305066
0.299966
0.295491
0.291664
0.288501
0.286018
0.28423
0.283151
0.282803
0.283195
0.284335
0.28623
0.288886
0.292297
0.29645
0.301147
0.047897
0.0138478
0.00836455
0.00656324
0.00588732
0.0056556
0.00560578
0.00564399
0.005746
0.00591875
0.00618492
0.00657754
0.00713882
0.00792058
0.00898642
0.0103623
0.011957
0.0465817
0.0143668
0.00861398
0.00669029
0.00595201
0.00568783
0.00561914
0.005641
0.00572087
0.00585801
0.0060668
0.0063708
0.00680241
0.00740628
0.00824819
0.00940788
0.0110021
0.0455032
0.0148863
0.00885784
0.00681947
0.00601867
0.00571939
0.00563072
0.00563822
0.0057025
0.00581856
0.00599909
0.00626875
0.00666389
0.00723483
0.0080495
0.00920246
0.0108641
0.0450288
0.0153906
0.00909509
0.00694962
0.00608671
0.00574977
0.00563761
0.00562669
0.00566924
0.00575138
0.00587462
0.00604731
0.00627993
0.00658219
0.00696011
0.00740082
0.00783293
0.0451987
0.0158719
0.0093203
0.00707782
0.00615531
0.00577985
0.00564256
0.00561271
0.00563603
0.00569254
0.00577795
0.00589507
0.00604947
0.00624828
0.0065019
0.00682451
0.00722623
0.0460747
0.0163254
0.00952517
0.00719801
0.00622164
0.0058099
0.00564931
0.00560441
0.00561657
0.0056623
0.00573506
0.00583707
0.0059752
0.00615915
0.00640325
0.00672992
0.00716612
0.0477355
0.0167494
0.00969897
0.0073016
0.00627982
0.00583507
0.00565169
0.00559163
0.00559261
0.00562669
0.0056824
0.0057561
0.00584738
0.00595663
0.00608387
0.00623002
0.00639837
0.0502951
0.0171514
0.00983578
0.00738499
0.00633017
0.00585897
0.00565512
0.00557976
0.00556889
0.00559215
0.0056356
0.00569376
0.00576515
0.0058509
0.00595459
0.00607974
0.00623358
0.0538765
0.0175463
0.00993615
0.00744965
0.00637711
0.00588978
0.00567341
0.00559029
0.00557574
0.00559776
0.00564036
0.00569655
0.00576436
0.0058441
0.00594136
0.00606971
0.00623278
0.0585843
0.0179607
0.0100082
0.00750177
0.00642559
0.00592961
0.00570403
0.00561503
0.00559947
0.00562511
0.00567418
0.00573667
0.00580785
0.00588559
0.00596887
0.00606069
0.00616586
0.0645183
0.0184491
0.010076
0.0075608
0.00649335
0.0059946
0.00575956
0.00565924
0.0056332
0.00565029
0.00569315
0.00575094
0.00581756
0.0058906
0.00597
0.00605601
0.00614975
0.0717239
0.0190807
0.0101673
0.00764497
0.00659511
0.00610075
0.00586199
0.00575529
0.00572308
0.00573514
0.00577454
0.00582949
0.00589234
0.00595919
0.00602922
0.00610238
0.00617737
0.0801865
0.0199147
0.0103149
0.00777045
0.00673779
0.00624873
0.00600664
0.00589365
0.00585573
0.00586485
0.00590581
0.00596726
0.00604036
0.0061185
0.00619806
0.00627864
0.00636108
0.0898363
0.0210534
0.0105625
0.00795892
0.00693367
0.0064473
0.0062
0.00607653
0.00602441
0.0060169
0.00604038
0.00608656
0.00614769
0.00621634
0.00628629
0.00635531
0.00642626
0.100484
0.0226423
0.0109591
0.00822527
0.00718726
0.00669822
0.00644657
0.00631632
0.0062549
0.00623504
0.00624246
0.00627079
0.00631518
0.00636901
0.00642319
0.00646795
0.00649591
0.111826
0.0248198
0.0115452
0.00858126
0.007497
0.0069939
0.00673462
0.00659718
0.00652762
0.00649853
0.00649435
0.00650762
0.00653796
0.0065834
0.00663833
0.00669547
0.00674886
0.123403
0.0277239
0.0123638
0.00904127
0.0078631
0.00732812
0.00705491
0.0069075
0.00682699
0.00678497
0.00676615
0.00676221
0.00676925
0.00678587
0.00681109
0.00684294
0.00688103
0.134506
0.0313393
0.0134526
0.00962295
0.00828825
0.00769534
0.0073979
0.00723662
0.0071434
0.00708723
0.00705273
0.00703127
0.00701811
0.0070112
0.0070087
0.0070046
0.00698516
0.144189
0.035112
0.0148878
0.0103533
0.00878287
0.00809404
0.00775481
0.00757143
0.00746119
0.00738862
0.00733762
0.00729981
0.0072706
0.00724838
0.00723418
0.0072277
0.00722148
0.151364
0.0377257
0.0166179
0.0112746
0.00936775
0.00852975
0.00812115
0.00790152
0.00776708
0.00767446
0.0076052
0.00755026
0.00750456
0.00746499
0.0074312
0.00740653
0.00738902
0.155473
0.0398081
0.018634
0.0124436
0.0100789
0.00902056
0.00850244
0.00822456
0.00805514
0.00793804
0.00784969
0.00777879
0.00771902
0.00766613
0.00761775
0.00757582
0.00751818
0.156638
0.0448533
0.0213721
0.0139824
0.0109949
0.00961832
0.0089305
0.00855843
0.00833469
0.00818408
0.0080732
0.00798595
0.00791324
0.0078499
0.0077919
0.00774508
0.00768745
0.155867
0.0537041
0.0253576
0.0161228
0.0122763
0.0104392
0.00948742
0.00896007
0.0086447
0.00843942
0.00829458
0.00818494
0.00809631
0.00802086
0.00795284
0.00789517
0.00783053
0.155846
0.0587542
0.0296166
0.0187829
0.0139626
0.0115476
0.01024
0.00948962
0.00903467
0.00874245
0.00854286
0.00839768
0.008285
0.00819222
0.00811115
0.00803854
0.00796875
0.157288
0.06403
0.033825
0.0217271
0.015983
0.0129431
0.0112174
0.0101872
0.00954605
0.00913057
0.00884936
0.00864941
0.00849911
0.00837959
0.00827832
0.00819062
0.00810808
0.161443
0.0712524
0.0386227
0.0249379
0.0182045
0.0145189
0.0123565
0.0110252
0.0101748
0.00961344
0.00923011
0.00895799
0.00875584
0.00859798
0.00846768
0.00835758
0.00825605
0.169342
0.0793633
0.043497
0.0280984
0.0203968
0.0161066
0.0135395
0.0119266
0.0108753
0.0101684
0.00967794
0.00932573
0.00906272
0.00885757
0.00869006
0.00854692
0.0084197
0.180877
0.0856803
0.0472069
0.0306174
0.0222461
0.0175214
0.0146511
0.0128181
0.0116024
0.0107695
0.0101808
0.00975031
0.00942362
0.00916557
0.00895352
0.00877192
0.0086126
0.193927
0.0879832
0.0489416
0.0321816
0.0236084
0.0186898
0.015653
0.0136811
0.0123497
0.0114195
0.0107473
0.0102439
0.00985288
0.0095376
0.00927403
0.00904649
0.00884605
0.20464
0.0862828
0.0491389
0.0330326
0.0246078
0.0196844
0.0165956
0.0145568
0.0131541
0.0121519
0.0114087
0.0108364
0.0103834
0.0100186
0.00971243
0.00944456
0.00920152
0.209597
0.0849692
0.0491807
0.0336593
0.0254755
0.02065
0.0175878
0.015534
0.0140904
0.013031
0.0122267
0.011607
0.0111056
0.0106763
0.0102976
0.00995486
0.00963993
0.207618
0.0831551
0.0488337
0.0340695
0.0262941
0.0216877
0.0187288
0.0167038
0.0152401
0.0141478
0.0133043
0.012611
0.012019
0.0114967
0.0110243
0.0105891
0.0101839
0.199661
0.0803155
0.0481209
0.0344429
0.027261
0.0229731
0.0201664
0.0181885
0.0167253
0.015596
0.0146689
0.0138743
0.0131699
0.0125292
0.0119361
0.0113809
0.0108588
0.187438
0.0765413
0.0473811
0.0351342
0.0286774
0.0247474
0.0220903
0.0201418
0.0186617
0.0174436
0.0163951
0.0154604
0.0146054
0.0138094
0.0130606
0.012353
0.0116843
0.172636
0.0728287
0.047387
0.0367274
0.030978
0.0273341
0.0247429
0.0227716
0.0211688
0.0197929
0.0185619
0.0174297
0.0163701
0.0153689
0.0144189
0.0135178
0.0126655
0.156644
0.0706312
0.0492823
0.0400516
0.034757
0.0311628
0.0284388
0.0262697
0.0244208
0.0227753
0.021265
0.0198514
0.0185136
0.0172419
0.0160326
0.0148858
0.0138049
0.140473
0.0720308
0.0546525
0.0462036
0.0407769
0.0367755
0.0335706
0.0309252
0.0286222
0.026543
0.0246182
0.0228089
0.021095
0.0194679
0.0179262
0.0164716
0.0151086
0.124825
0.0803574
0.0657291
0.0566232
0.0500023
0.0448409
0.0406167
0.037083
0.0340267
0.0312846
0.0287617
0.0264047
0.0241861
0.0220943
0.0201269
0.0182863
0.0165771
0.110183
0.101142
0.0857123
0.0732427
0.063688
0.0562187
0.050188
0.0451773
0.0409549
0.0372394
0.0338724
0.0307661
0.0278743
0.0251759
0.0226643
0.0203398
0.0182049
0.0968514
0.144289
0.119377
0.0988479
0.0836365
0.0721455
0.0631624
0.0558238
0.0498529
0.0447304
0.0401815
0.0360536
0.0322647
0.0287753
0.0255689
0.0226402
0.019987
0.0226434
0.0298162
0.036954
0.0444965
0.0532617
0.0646906
0.0809555
0.105127
0.140138
0.193777
0.344339
0.296879
0.208496
0.154392
0.145974
0.16456
0.173886
0.146434
0.0934748
0.0466012
0.0279232
0.0367868
0.0457737
0.0555667
0.0671547
0.0821926
0.103213
0.133353
0.174307
0.229326
0.399546
0.341278
0.236352
0.177152
0.174176
0.203187
0.219131
0.186791
0.118284
0.0572435
0.0346948
0.0456603
0.0569434
0.0696425
0.0850058
0.104964
0.132449
0.170269
0.218534
0.275433
0.468288
0.391528
0.266097
0.202768
0.20719
0.247982
0.271824
0.234342
0.148137
0.0703048
0.0434416
0.0569336
0.0709612
0.0872809
0.107591
0.134303
0.170705
0.21843
0.275305
0.336437
0.543451
0.446449
0.297604
0.230581
0.24522
0.299071
0.332437
0.289663
0.183779
0.0866303
0.0548334
0.0712929
0.08845
0.109109
0.135776
0.171722
0.220593
0.282136
0.347211
0.412515
0.627357
0.508493
0.33128
0.260568
0.291989
0.356833
0.402398
0.354679
0.226212
0.107429
0.0699054
0.0897701
0.110321
0.136034
0.170812
0.219363
0.285298
0.364374
0.435305
0.503474
0.715445
0.581748
0.368692
0.296668
0.346905
0.424046
0.484899
0.433572
0.277014
0.134709
0.0903034
0.113995
0.138094
0.169684
0.214937
0.280782
0.37011
0.468195
0.540092
0.618927
0.816152
0.65878
0.417176
0.34687
0.393133
0.498026
0.582113
0.52877
0.339821
0.17142
0.118641
0.146549
0.174411
0.213086
0.272195
0.361465