/*--------------------------------*- C++ -*----------------------------------*\
  =========                 |
  \\      /  F ield         | OpenFOAM: The Open Source CFD Toolbox
   \\    /   O peration     | Website:  https://openfoam.org
    \\  /    A nd           | Version:  6
     \\/     M anipulation  |
\*---------------------------------------------------------------------------*/
FoamFile
{
    version     2.0;
    format      ascii;
    class       surfaceScalarField;
    location    "4.1e-05";
    object      phi;
}
// * * * * * * * * * * * * * * * * * * * * * * * * * * * * * * * * * * * * * //

dimensions      [0 3 -1 0 0 0 0];

internalField   nonuniform List<scalar> 
4070
(
0.099388
-0.0611109
0.0667814
-0.105058
-0.0712264
0.0630102
-0.0820533
0.0902695
-0.092523
0.100742
-0.00821905
-0.0842256
0.114391
-0.0301657
-0.161124
0.0932187
0.0679055
-0.000229722
-0.0705466
0.0707763
-0.0975256
0.115066
-0.0175409
0.0730655
0.030133
-0.103199
-0.0317538
0.104819
0.0644806
0.0362498
-0.10073
0.105946
-0.0414651
-0.0580713
-0.0348985
0.0929698
-0.211192
0.0500683
-0.0829803
0.113954
-0.0309736
-0.0287569
0.0285272
0.0638508
0.0380613
-0.101912
0.0266756
-0.110901
-0.145107
0.0475817
-0.086493
-0.0229103
0.109403
0.100934
-0.00447949
-0.0964548
-0.0317262
0.095577
0.0475405
-0.105612
-0.069544
0.100151
-0.0306069
-0.0135084
0.114443
-0.0571236
-0.0293694
0.031123
-0.114103
-0.0812673
0.0117233
0.0902275
-0.0204216
-0.0698059
0.0953335
-9.38211e-05
-0.0952396
-0.0500578
0.140285
0.0280269
0.0673066
0.0849906
0.0252588
0.00261075
-0.11286
0.0753133
0.0265627
-0.00866693
-0.0932091
-0.000978948
0.0327748
-0.00376899
-0.0614211
-0.0296206
0.0910417
-0.105822
0.128062
-0.0222403
0.0311881
-0.0926092
-0.114153
0.0275796
0.086573
-0.0308395
-0.0833131
-0.080116
-0.012407
0.0612939
0.0265919
-0.0878858
-0.124906
0.0190842
0.0802808
0.0109803
-0.0912611
-0.0208727
0.0821666
-0.0238285
0.104109
-0.0435357
0.0732763
-0.0297405
-0.0691505
0.0256148
-0.0821594
-0.0107829
0.0929423
0.017876
-0.100035
-0.109466
0.131661
-0.0221951
0.090982
-0.011483
-0.079499
0.0601657
0.0248321
-0.0849978
0.0153395
0.0595528
-0.0748923
0.00862424
0.0823577
-0.0794409
-0.0300248
-0.0978736
-0.015957
0.113831
-0.0681684
0.0879057
-0.0197373
-0.0778867
0.0932262
0.0230342
-0.120908
-0.0272194
0.0873851
-0.0898106
0.0216422
-0.0710925
0.111326
-0.0402339
0.0748377
0.0319439
-0.106782
0.0866035
-0.0885984
0.00199495
-0.123134
0.107031
0.0161039
-0.123448
0.0265878
0.09686
-0.110732
-0.0124024
0.11273
-0.0224324
-0.0902977
-0.0892877
0.0181952
0.0254772
0.087253
-0.0711647
-0.0193274
0.0904921
0.0199663
-0.091131
-0.0841992
-0.0146201
0.0988193
0.0433204
-0.12752
-0.132231
0.0161039
0.116127
0.125734
-0.0943074
-0.0314268
-0.112389
0.0947367
0.017652
-0.108794
-0.00359424
0.0990311
0.026703
-0.0811937
0.121368
-0.0401741
-0.131289
0.0500951
0.074947
-0.105353
0.030406
0.106711
-0.0317635
-0.130557
0.138974
-0.00841764
-0.028839
0.103677
-0.0690898
0.11482
-0.04573
0.0303072
0.0278962
-0.0582034
-0.0417556
-0.090475
-0.0818736
-0.00386753
0.0857411
-0.0357277
-0.08772
-0.120734
0.0941674
0.0265665
-0.0729293
-0.0425756
0.115505
-0.0759929
0.0979747
-0.0219818
0.124901
-0.0306458
-0.0942553
0.0810074
0.00559604
-0.0663216
-0.0178399
0.0841615
-0.0922969
0.0232071
-0.0864332
-0.0343007
-0.0745743
-0.0315291
0.106103
0.126652
-0.0852698
-0.0413825
-0.117618
0.0983002
0.0193178
0.123706
-0.0330653
-0.0906405
0.118513
-0.0765868
-0.0419262
-0.110358
0.0343655
0.0820392
-0.1008
0.0187608
0.0773762
0.0257959
-0.103172
0.018669
0.0259403
-0.100515
0.0244868
-0.097416
-0.0693751
0.103724
-0.0343492
0.0743374
-0.102196
0.0278584
0.067857
-0.108238
0.0403807
-0.0139773
0.0913536
0.0929131
0.0337393
-0.085521
-0.032097
0.0760318
-0.0959795
0.0199477
0.0665975
-0.0949439
0.0283464
0.0266254
0.0970804
0.103167
-0.0271352
0.120568
-0.0208938
-0.0996741
0.0734383
-0.095451
0.0220127
-0.0676704
-0.00776832
0.0754387
0.0937419
-0.0258848
0.0929988
0.0255143
0.0017874
-0.083661
0.0830535
-0.0527464
0.00764292
0.0983217
-0.0239843
-0.122201
0.0950002
0.0272012
-0.0911256
-0.0310757
0.112903
-0.0690778
-0.0438253
0.0549158
0.0699852
-0.130104
0.115825
0.0142792
0.125705
-0.0229023
-0.102803
0.0940685
-0.0120293
-0.140351
0.009794
0.123139
-0.0253378
-0.0978013
-0.111079
0.0417036
0.0362304
0.0843376
0.119331
-0.0458924
0.122557
-0.0173861
-0.105171
0.0684341
0.0444689
-0.121998
0.021265
0.100733
0.0196182
0.106087
-0.0919134
-0.0300842
0.0906642
-0.0240667
0.0285279
0.0940295
-0.0958151
-0.0342891
0.122784
-0.0099022
-0.112881
0.0250491
0.09809
0.0631786
0.0912098
-0.154388
-0.127267
0.0244596
0.102807
-0.0788877
-0.0191422
0.0980299
0.0210728
0.101711
-0.0171798
-0.110087
0.0282467
-0.107134
0.224192
-0.161014
-0.0209867
0.0284056
-0.0096123
0.0284066
0.13422
0.0565977
-0.0996082
0.208405
0.150008
-0.0388882
0.0378155
-0.0498714
0.0711405
-0.0212692
0.0199914
-0.0222118
0.00222046
0.00863565
0.029853
-0.0384886
-0.0603127
-0.165802
0.226114
0.0246512
0.10093
-0.125581
0.107834
0.0267021
-0.134536
0.0177136
-0.00166938
-0.0160442
-0.0300183
-0.100106
0.130124
0.0269479
-0.12649
0.0995418
-0.0507843
-0.1397
0.190485
0.100898
-0.0422278
-0.0586707
0.0193336
0.101939
-0.121272
-0.0399538
-0.145459
0.185412
-0.128943
-0.0727504
0.201693
0.0941195
-0.117832
0.023713
0.105394
-0.0112747
-0.144016
0.0955011
0.0485154
-0.106671
-0.037345
0.0805702
-0.108249
0.0276783
0.10374
-0.0231696
0.0279464
-0.0674312
0.0394847
-0.123825
0.093494
0.0303306
-0.0943393
-0.0294853
-0.0258942
0.0538406
0.167147
-0.0196802
-0.147466
0.0416673
0.125479
-0.0835904
-0.0198169
0.103407
0.158344
0.0129573
-0.171302
-0.0934817
0.00989134
0.145927
-0.104705
-0.0412215
-0.180654
0.139007
0.0416477
-0.108595
-0.0720593
-0.0971359
0.0312086
0.0659273
0.105993
0.0399335
-0.0819442
-0.0533181
0.135262
0.0790222
-0.160966
0.0260211
0.100835
-0.126856
-0.389856
0.180066
0.20979
-0.230481
0.186989
0.0434917
0.0445144
-0.0975663
0.0530519
0.0348255
0.030282
-0.0651075
-0.116729
-0.113752
-0.011465
0.0374861
-0.0251268
0.0984524
-0.0733256
0.00919903
-0.399055
0.102774
0.00567232
-0.108446
0.0935429
-0.0208239
-0.072719
0.140065
-0.10524
-0.0957447
0.0371445
0.0586001
0.0386085
0.0641651
4.79984e-05
0.0934949
0.229859
-0.09602
-0.133839
0.19195
0.037909
0.0560642
0.104269
0.0316168
0.0202438
-0.101419
0.10244
0.048698
0.077483
-0.0202353
0.141852
-0.0879317
-0.12409
0.0701697
-0.0941287
-0.193443
0.258815
0.117083
0.0315694
-0.121977
0.0290154
-0.0728817
-0.0620403
0.105907
-0.101622
-0.0469401
0.166535
-0.0179727
0.0340701
-0.0853044
-0.0553034
0.106538
-0.0748716
-0.168054
0.207761
0.0351645
0.0397572
0.0682106
-0.0027514
-0.105216
0.0545394
-0.145711
0.00966766
0.0815042
0.0501178
0.0448026
0.0167614
-0.111682
0.125207
-0.110741
-0.0856921
-0.0245372
0.0399729
0.0975908
-0.113026
0.143413
0.0634639
0.0990909
0.119619
0.0366798
0.0624111
0.189118
-0.0647112
0.271795
-0.20941
0.0323878
0.177022
-0.0777937
0.244983
0.134409
-0.0316026
-0.160823
-0.0628648
-0.190823
-0.0781803
-0.222425
0.111589
-0.051786
-0.0307878
-0.054958
-0.134864
0.0881996
0.119513
-0.0512939
-0.034149
-0.0839611
0.161275
-0.0375565
0.0527976
-0.120701
-0.00696776
0.161699
0.0224776
-0.129637
-0.0646085
0.17373
-0.0590037
0.295942
-0.0288824
0.0597115
-0.117176
0.0329275
0.17803
-0.0849041
-0.0444283
0.0527581
-0.251431
-0.178725
0.041284
0.0433122
0.214805
0.0125228
-0.110244
0.108542
-0.0972358
0.0818668
-0.0662444
0.168786
0.0594112
-0.228197
0.21824
0.0895185
-0.307759
0.248688
-0.0532137
-0.195474
0.0222264
0.410713
-0.432939
0.19442
0.0715569
-0.265977
0.188633
0.0737771
-0.26241
0.19912
0.0238658
-0.222986
0.0887053
0.211956
-0.300662
0.0410274
-0.023468
-0.0175594
0.213897
0.082572
-0.296469
0.152208
0.241366
-0.393574
0.199581
0.0678617
-0.267442
0.151844
0.271037
-0.422881
-0.0354557
0.0478641
-0.0124084
0.223629
0.104423
-0.328053
0.233454
0.097698
-0.331152
0.171547
0.177959
-0.349506
0.293981
0.223376
-0.517356
0.154408
0.252022
-0.40643
0.0634294
-0.0589886
0.209456
0.176622
-0.190582
0.165804
0.241288
0.0740661
-0.160946
0.0614055
-0.0831061
0.190487
0.204783
-0.205416
-0.186071
0.300516
0.053455
-0.0558602
0.220645
0.213076
0.0738013
-0.286877
0.0858675
0.311402
-0.39727
0.104008
0.190613
-0.023584
0.00165508
0.169149
0.0778835
-0.0652816
0.0615721
0.19813
0.222389
-0.199755
0.0489228
-0.256718
-0.0772236
0.280727
0.297421
-0.257442
-0.0177527
0.209278
-0.192262
0.0725021
0.190309
0.269165
-0.0487617
-0.0309442
-0.00486134
0.234926
0.0623058
-0.0671479
0.193475
0.208448
0.0613169
-0.195988
0.207969
0.0685657
-0.18783
0.0514404
-0.0575879
0.218104
0.15753
0.08174
-0.215404
-0.0261169
0.192958
-0.0614459
0.0536706
0.207356
0.329992
0.0532054
-0.230989
0.173181
0.0823589
-0.197452
0.210711
0.0693125
0.050972
0.213976
-0.0413183
0.178764
0.267356
-0.446119
0.210847
0.111434
0.177469
0.239378
-0.416847
0.0128283
0.167154
0.113998
0.0527049
0.17586
-0.228565
-0.00796155
-0.256285
0.167897
0.0963488
0.0466464
0.23888
-0.0520722
-0.200855
0.195099
0.0736177
-0.0955385
0.122978
-0.0628955
0.132546
0.230658
-0.185245
0.201704
0.0685885
-0.184425
-0.0725774
-0.108659
0.181236
0.210202
-0.131442
0.144616
0.0157122
0.265916
-0.281628
0.0172247
-0.137736
0.120512
0.148894
0.315794
-0.464688
0.0675172
0.197237
-0.0516787
0.213125
0.070013
-0.283138
0.123835
0.294193
-0.418028
0.16115
0.27878
-0.43993
0.206157
0.062777
-0.195132
0.041314
0.110868
-0.15957
0.00738775
0.163575
0.0130467
-0.0145812
0.261995
-0.247414
0.0756873
0.217072
-0.29276
0.0337782
0.322331
-0.0447074
0.197673
-0.159729
-0.0222315
0.233923
-0.0503991
-0.183524
0.203573
-0.212239
0.200013
0.0568214
-0.181147
-0.247049
0.0228638
0.27205
-0.188871
0.20364
0.0896549
0.207644
0.0825872
-0.112762
-0.0663235
-0.113277
0.1796
-0.260882
0.252921
0.210553
0.0873039
-0.297857
-0.205281
0.22244
0.161605
0.0227007
-0.0855087
0.062808
0.199813
0.0930949
-0.19521
-0.0217129
0.22522
0.0624088
0.267584
0.123204
0.16955
-0.0253983
0.0988296
0.142458
-0.0494586
0.0924834
0.196353
-0.149265
0.212695
0.450768
-0.379198
-0.0715692
-0.162064
0.26615
-0.0868612
0.123991
0.190105
-0.165203
0.193613
-0.18661
-0.0215841
0.00748266
-0.165333
0.15785
0.168619
-0.208737
0.0401186
0.303221
-0.0373644
-0.265857
0.0454414
0.201212
-0.0707931
-0.0684077
-0.113695
0.182103
0.171503
0.0302014
0.0022134
-0.258498
0.165057
0.0591178
-0.0478467
-0.176328
-0.0962692
-0.0627549
0.159024
-0.203564
-0.0230944
0.0889223
0.145825
-0.200488
-0.0745328
0.186763
0.268876
-0.0712032
0.092628
0.0724289
0.286847
-0.0192633
0.273097
-0.0838256
0.0727236
0.198198
-0.165109
0.0907454
-0.059261
-0.137863
0.197124
0.283223
0.0397741
-0.161847
0.0607911
-0.0541934
0.206528
0.221688
-0.0669345
0.0530928
-0.146896
0.214413
0.0788695
0.243283
-0.322152
0.112635
-0.176509
-0.14741
0.145439
0.206845
-0.455812
-0.116418
0.57223
-0.143997
0.103762
-0.153873
0.0501115
-0.29505
0.146159
-0.194701
0.297192
0.192986
-0.180792
0.0666754
-0.114303
0.124277
-0.163847
-0.409353
0.12587
-0.130871
0.00500054
-0.0257213
0.0792747
0.258151
-0.199033
0.0419667
-0.0586322
0.233738
-0.186764
-0.08535
0.186066
0.0860477
-0.0458236
0.0324418
0.223935
-0.224572
0.0546286
0.169943
-0.102675
0.188454
0.0619875
-0.147766
-0.129479
0.0288874
0.100592
-0.0622517
0.161081
0.173527
-0.174743
0.11029
-0.130684
-0.340624
0.471309
-0.255062
-0.248659
0.196789
0.0518702
-0.089581
0.25873
0.137449
0.0709989
-0.139283
-0.161629
0.268988
-0.211341
-0.0576473
-0.140821
-0.0040983
-0.0771718
-0.0998824
0.177054
-0.0637786
0.145683
-0.081904
0.294426
-0.290619
-0.00380758
0.247163
-0.200223
0.0305593
0.169664
0.145374
0.21017
0.0748493
-0.285019
0.0558365
0.152485
-0.208322
0.111089
0.0733481
0.0469335
0.151299
-0.198232
-0.144797
0.0756208
0.191734
-0.18005
0.0708177
0.124213
-0.195031
0.318555
0.055216
0.350538
-0.0641253
-0.286413
-0.147882
0.201553
0.243555
-0.0499416
-0.0472162
-0.170318
0.217534
0.155626
0.0545757
-0.367567
0.264892
-0.176578
0.017785
0.158793
0.114022
0.172735
-0.0347353
0.174128
0.0402846
0.322781
0.205387
-0.198472
0.0630977
0.0576432
0.249597
0.163242
0.0297436
-0.329587
0.340836
-0.011249
0.225368
-0.310718
-0.186494
0.121747
0.104068
0.224223
-0.328291
0.300303
-0.221411
-0.0788921
0.0619561
0.216268
-0.0680535
0.0109026
0.132467
-0.228878
0.150641
0.0475572
0.245481
-0.204167
0.200215
0.129777
-0.132813
-0.00432432
0.137137
-0.0371177
0.105803
0.207111
-0.154976
-0.0521351
-0.0151938
0.304088
-0.0549714
0.141052
-0.117398
-0.0502435
0.167642
0.19115
0.0312902
-0.186839
0.0727612
0.114078
-0.0271894
0.248878
-0.174113
0.0490174
0.217724
-0.0493259
0.257322
-0.207996
-0.140243
-0.0226197
0.162862
0.196117
0.314353
-0.00853072
-0.0974549
0.368585
-0.27113
-0.241578
0.324854
-0.0832759
-0.172497
0.0693976
0.207167
0.385579
-0.138416
-0.200593
0.173403
0.24756
-0.262754
0.110695
-0.0578643
-0.0158503
0.186609
-0.170759
-0.101743
0.110631
-0.138367
-0.280777
0.237062
0.0437152
-0.237103
-0.0103114
-0.0187401
-0.23998
0.0779279
-0.187502
0.175713
-0.14778
0.198752
-0.0561243
-0.149055
0.205179
-0.34041
0.376789
-0.0363785
-0.140055
0.0328949
-0.194959
-0.0268017
-0.149776
-0.121598
-0.117705
-0.00386236
0.121568
0.169144
-0.0963546
-0.0727897
0.252522
-0.0575382
-0.126388
-0.0615582
-0.188327
0.0619391
-0.241346
-0.00921019
-0.168274
-0.1882
0.168147
0.0805014
-0.0465834
0.190305
-0.40962
0.0803348
0.195425
-0.0324771
-0.210437
-0.0422137
0.225849
-0.0932642
0.0693585
0.241295
-0.0385468
0.0899383
0.182422
0.347248
0.0840373
-0.207636
-0.0634681
0.276393
-0.00528895
0.153783
-0.0952768
0.104356
0.139398
0.00302268
-0.14242
0.208743
0.0187464
-0.22749
0.0762178
0.0527712
-0.128989
-0.362453
-0.0726101
0.37055
-0.29794
-0.153321
0.233822
-0.0950778
0.167507
-0.152066
-0.0583708
0.218053
-0.231877
0.0503637
-0.0298276
-0.24533
-0.268851
0.21089
0.0579601
0.155559
0.043825
-0.199384
0.1072
-0.0520772
0.22253
-0.240489
0.0179592
-0.0372595
0.256803
-0.219543
-0.221912
-0.0355161
0.232066
-0.250807
-0.270836
0.00198559
-0.0684179
0.353873
-0.285455
0.25648
-0.0479431
0.167761
-0.138565
0.368697
0.27744
-0.00235861
-0.275081
-0.270865
0.24975
0.0500021
0.188009
-0.243324
-0.00687082
0.23422
-0.227349
-0.0722272
0.161903
-0.0896755
-0.147125
-0.0371575
0.184283
0.243577
0.353392
-0.117721
-0.235671
0.21669
0.127746
-0.19861
0.266635
-0.142225
-0.224667
0.14593
0.0787371
-0.0922773
-0.0799421
0.172219
0.266804
-0.0103235
-0.0751629
-0.0482004
0.123363
0.208284
0.150462
-0.0438321
-0.10663
-0.0497266
0.293304
-0.242035
0.14126
0.100774
0.341762
-0.086117
-0.255645
-0.044205
0.157407
0.0768345
0.0340339
0.15576
0.0588578
-0.214618
0.241049
-0.0852892
0.1382
-0.233739
0.0929769
-0.211256
0.1847
0.0726212
-0.27094
0.115529
0.155411
0.262803
-0.0500338
-0.21277
-0.148248
0.197266
-0.253015
0.249017
0.00399768
-0.150319
-0.159523
0.123003
0.0448153
0.273116
-0.317932
0.24324
-0.0922381
-0.151001
-0.208332
0.0580469
0.150285
-0.114714
-0.0852993
0.12485
-0.0924836
0.0652929
0.238081
0.221395
-0.0927748
-0.186267
0.15041
0.102108
0.141131
-0.183784
-0.0466995
0.347482
-0.237569
-0.109913
0.392251
-0.14931
-0.242941
0.0738138
0.125145
-0.198959
0.282571
0.0320924
-0.314664
-0.271728
0.077874
0.193854
0.222436
0.0571507
0.0538465
-0.147541
0.0578458
0.253688
-0.20193
-0.0517585
-0.137139
0.343294
-0.121164
0.0366644
0.185073
-0.221738
-0.158029
0.0945611
0.230055
-0.325332
0.126137
-0.129232
0.00309522
0.20886
-0.0900859
-0.0516492
-0.163166
0.214815
-0.1078
-0.254803
0.362603
0.127091
0.085297
-0.0834355
0.0934056
0.227092
0.150938
0.0366358
-0.187574
-0.258661
-0.0341928
0.292854
-0.0174501
0.251895
-0.23798
-0.0139149
0.172819
-0.217125
0.103163
0.0376671
-0.0419484
-0.199493
-0.280023
0.09745
0.182573
-0.209333
0.0549515
-0.0444413
0.198823
-0.144254
-0.0650794
0.189007
0.274004
-0.032448
-0.241556
0.0585135
0.277269
-0.284775
0.00750579
-0.352896
0.202128
0.150769
-0.178669
-0.0822133
-0.0548575
-0.162327
-0.101222
-0.296047
0.242347
-0.175671
-0.148596
-0.0533549
0.201951
-0.289549
0.195912
-0.258809
-0.167257
-0.0457829
0.21304
-0.188832
0.237925
-0.143466
0.0361299
-0.211221
-0.0576662
-0.278421
0.214249
-0.225929
0.182309
0.0436204
0.0912417
0.133978
0.146906
0.0621372
0.141036
-0.0131476
0.249056
0.207594
0.0414625
-0.0783912
0.0585701
0.166691
-0.0256547
0.277467
0.096817
-0.20008
0.0651591
-0.0641548
-0.141885
-0.0581947
-0.0486941
0.183781
-0.0426677
0.210372
-0.167704
-0.183301
0.0548609
0.193129
-0.0646889
-0.209388
0.189806
-0.0286187
-0.233022
-0.0905897
0.216658
-0.253707
0.191133
0.22748
-0.158695
-0.0687846
0.0183563
-0.268252
0.249896
-0.280689
0.110845
-0.0034204
0.112453
0.125471
0.289886
-0.273408
-0.0164785
-0.326016
0.252454
0.186015
0.175729
-0.20246
0.10891
-0.200541
-0.0677114
0.138611
-0.0546973
0.250865
-0.175038
-0.0467344
0.221773
-0.147227
0.202308
-0.0550811
-0.0696101
0.205288
-0.196224
-0.245161
0.0512015
0.193959
-0.245601
0.157733
0.226479
-0.216837
-0.173174
-0.0307874
-0.190209
0.0504003
-0.194654
0.14735
-0.187165
0.0398149
0.0731327
0.19916
-0.0699846
-0.204154
0.0643451
0.259944
0.19253
-0.125947
-0.0687068
-0.203925
0.148844
-0.205247
-0.0665823
0.0676752
-0.232368
-0.0132332
-0.0565748
0.242675
-0.0513936
-0.191282
0.168356
-0.0772306
-0.0911258
-0.0737693
-0.15711
0.123458
-0.0610468
-0.143824
0.118169
0.252759
0.0586437
-0.160634
-0.268863
-0.0399877
0.276199
-0.0367126
-0.239486
-0.189031
0.200132
-0.183763
0.102398
0.249722
-0.246315
0.0504546
-0.295121
0.333715
-0.0385936
-0.166321
0.202185
-0.0554461
0.0537352
-0.200474
-0.159724
-0.0618334
0.0805022
-0.146157
-0.0561646
0.202322
0.43559
-0.155403
-0.280187
0.0560274
0.0570131
-0.198898
-0.126502
-0.263203
0.0794395
-0.181156
0.0531674
-0.157526
0.187229
-0.192527
0.0683846
-0.210035
-0.212861
-0.0398599
-0.182565
-0.0651069
0.196172
0.166727
-0.208912
0.0324566
0.00873891
0.155069
-0.163808
-0.159317
0.232052
-0.129654
0.29767
-0.0805419
-0.217128
0.132228
0.180352
-0.229912
0.0495599
-0.20877
0.0621816
-0.0650188
0.211608
-0.108849
0.138398
-0.240141
0.267903
-0.199314
0.218598
-0.213253
0.229932
-0.0166791
0.0598527
-0.243154
0.159175
-0.168735
0.00955976
0.141453
0.140033
-0.198228
-0.0864488
-0.261082
-0.00562327
0.184492
0.156838
-0.178326
0.0214883
0.143413
-0.022901
0.126258
-0.303083
0.048753
0.254187
-0.0561148
-0.198072
0.0424322
0.205412
-0.115986
-0.0894258
-0.0779277
0.186819
-0.152375
-0.0344439
0.195997
-0.1878
0.0308283
-0.0390256
0.00115045
-0.0954003
0.252238
-0.0445597
-0.14126
0.204626
-0.0633663
-0.158366
0.152288
0.0060784
0.0439322
-0.0653498
0.208237
-0.149596
-0.258173
-0.199392
0.0104209
0.268844
0.20597
-0.0481118
-0.216769
0.380733
-0.276042
-0.104691
0.162806
0.025648
0.332451
-0.238852
-0.0935998
-0.120701
0.182382
-0.0616806
-0.240229
0.173941
-0.0291124
0.246434
-0.194076
-0.0523571
-0.166408
-0.0329765
0.102595
0.143838
0.23723
-0.232914
-0.00431554
-0.203343
-0.0647029
0.268046
-0.14394
0.1988
-0.223732
-0.0691324
-0.0769798
0.190674
-0.199954
0.201379
-0.243593
-0.140504
0.133623
-0.171445
-0.14031
-0.222881
0.0748262
0.239677
-0.157604
-0.0640752
0.240422
-0.114195
-0.126228
-0.156195
0.257395
-0.133859
-0.293288
0.427148
-0.226742
0.144711
0.140954
-0.00688444
0.234199
-0.0907864
-0.338459
0.0353762
-0.0699258
0.193352
-0.198571
-0.235371
-0.135037
-0.0743508
0.0554043
-0.265414
0.21001
-0.057
0.184566
-0.0574983
0.191138
-0.194999
0.0613589
-0.121659
-0.154875
0.174976
-0.123788
-0.0224055
0.174804
0.0414556
-0.0772066
0.0463569
0.221155
-0.144845
0.00849447
-0.166367
0.193622
0.0605655
0.0608723
0.17955
-0.235845
0.19296
0.0428844
-0.100617
0.423398
0.191531
-0.280805
0.297841
-0.0170363
-0.218005
0.221121
-0.160248
0.263656
0.0103483
-0.181113
0.246157
-0.0501598
0.144667
-0.202165
-0.00465066
0.130908
0.0700634
0.204012
-0.199226
0.107164
-0.0545154
0.195968
-0.16386
-0.0507573
-0.0806427
0.0226926
-0.283775
-0.194584
-0.04857
-0.220139
0.198626
0.115642
-0.183317
0.0676742
0.152779
-0.219367
0.0665886
-0.224339
0.542894
0.164711
-0.0233276
-0.252335
0.200625
0.0517097
-0.286554
0.0731557
0.213399
-0.0449168
-0.241638
0.0394329
0.11263
-0.152063
-0.265778
0.286698
-0.0209202
-0.058835
-0.1935
-0.159777
-0.106002
-0.129891
0.108772
0.23623
-0.183137
-0.0600477
0.189836
0.0663614
-0.196149
0.216141
0.0854963
-0.260131
0.174635
0.41288
-0.159959
-0.0131823
0.16547
0.211417
-0.135218
-0.279848
0.41347
0.147526
0.134254
-0.127406
0.0690515
0.14738
-0.207428
0.0715958
-0.129604
0.237558
0.047979
0.149287
0.314849
-0.325296
0.0959436
-0.21181
-0.1006
0.169854
-0.0692538
0.303065
-0.0640662
0.280756
-0.120239
-0.247328
-0.263645
0.258021
-0.281756
0.112589
0.0966194
0.207469
0.180477
-0.105793
0.113682
-0.188366
0.195082
0.224257
-0.0724104
0.11281
0.231733
0.0893794
-0.247869
0.220822
-0.173357
-0.0474658
0.0216198
-0.0527752
0.190912
-0.0631664
-0.0937591
-0.287226
0.0156686
-0.261209
-0.00926265
0.216557
-0.0313957
0.1987
-0.256788
-0.310952
0.236341
-0.0519996
-0.183845
0.00196649
0.221588
0.15452
0.0965385
-0.251059
0.200022
-0.208553
-0.306818
0.261901
-0.00286415
0.259551
-0.0664223
0.188876
-0.250784
0.0619078
0.160847
-0.184233
0.0233859
0.189999
-0.173629
0.0202663
0.25998
-0.115523
-0.144458
-0.262651
-0.0303789
0.158692
-0.180923
-0.315444
0.106673
0.211775
-0.149819
-0.0869809
-0.27892
-0.0261744
0.178953
0.159779
0.103913
0.240266
-0.0298838
-0.236566
-0.065661
0.0876499
0.214577
-0.0328047
-0.257755
0.185345
-0.138658
0.0448989
-0.119433
-0.198195
0.0765423
0.241086
0.235844
0.0090686
-0.244913
-0.249009
-0.0266316
-0.0398844
-0.12756
-0.0907642
0.251611
0.168562
-0.0751561
-0.0553523
-0.0318314
0.0826081
-0.0950166
0.257413
-0.17633
0.241715
-0.0653856
0.189111
-0.00307227
-0.186039
0.0152924
0.153982
0.0264953
-0.141667
0.157335
0.258632
-0.201185
-0.0574468
0.248569
-0.182615
-0.0459498
-0.243727
0.0550484
0.188678
-0.0440338
0.087093
-0.272395
0.229336
-0.0144931
-0.229234
-0.309817
0.192327
0.11749
-0.125519
-0.146432
0.068608
-0.0850762
0.197021
-0.0403551
0.200596
0.0610775
-0.246671
0.0588446
0.187826
-0.231379
0.0410149
-0.0521103
-0.190834
-0.254935
0.0597097
0.195225
-0.0553121
0.0602818
-0.0984733
0.0855174
-0.170361
-0.247878
0.0346246
0.15968
0.0277964
-0.187476
-0.0916387
0.251318
-0.126401
0.221663
0.190179
-0.0148159
-0.254071
0.124244
0.255116
-0.198899
-0.0562171
0.199638
0.055478
0.245912
-0.0711077
0.221155
0.0388252
0.141822
-0.229822
-0.256889
0.212855
0.0201378
-0.00971687
-0.227785
0.179673
0.0523507
-0.0322129
-0.258805
0.252224
0.00658145
-0.213075
-0.214218
0.169482
0.0447361
-0.0425584
-0.185226
0.197751
-0.146385
-0.0513665
-0.192417
0.0911899
0.101227
-0.260848
0.191572
-0.245819
0.204394
-0.197731
0.0574243
-0.182943
0.11449
-0.347538
0.147831
-0.167371
0.28336
-0.260496
-0.217238
0.0663315
-0.0593365
-0.169426
0.255617
-0.176766
-0.0788517
0.15298
-0.0676827
-0.327241
0.0508546
-0.20323
0.0463771
0.165398
-0.154893
0.392234
-0.237341
-0.0573067
0.183647
-0.190051
0.247202
0.00676021
-0.269514
-0.0953455
-0.220098
-0.199518
0.0578514
0.0805538
0.125654
0.224247
-0.180315
-0.128555
0.165908
0.192228
-0.10474
-0.0700067
-0.215013
0.288611
-0.27064
0.0773384
0.156756
-0.234094
0.257774
-0.152622
-0.267427
0.219593
0.106679
0.315946
-0.294904
-0.0210426
-0.066531
0.204028
-0.176552
0.189162
-0.0398755
-0.199877
-0.0550581
-0.137738
-0.313384
0.188576
-0.0208353
-0.244615
0.076874
-0.0548715
0.24601
0.0225237
0.174171
0.22929
-0.335083
0.000663801
-0.241206
-0.0456576
0.235493
-0.0603027
-0.07762
-0.330316
0.316611
0.14886
-0.207
0.0581397
-0.209634
0.0569336
0.209825
-0.0614164
-0.0881755
0.24736
-0.159185
-0.207567
-0.00291494
-0.192559
0.0609297
-0.196148
-0.0529618
0.21403
-0.0666505
0.148395
-0.0775394
-0.144129
0.206311
0.39198
-0.103369
0.230353
-0.278183
0.0478295
0.185863
-0.263087
-0.179274
0.0630485
-0.242323
-0.193845
-0.202018
0.263335
-0.105735
-0.170125
0.248009
0.00736728
-0.162758
-0.059787
0.198369
0.0620428
-0.253575
0.0515561
-0.113393
0.105538
-0.152238
-0.20564
-0.110258
-0.200099
-0.0534758
0.0480506
0.211028
0.253441
-0.191246
-0.0621952
0.111612
-0.114527
-0.12873
0.21928
-0.0905495
0.173815
-0.120609
0.0595967
0.281513
-0.0652453
0.11559
0.16094
-0.0552556
-0.251966
0.0554404
0.196526
-0.195827
-0.056139
-0.235401
-0.0957511
-0.282768
0.178165
-0.264744
0.114425
-0.103656
0.233926
0.254852
-0.00749191
-0.150924
-0.0891723
-0.019605
-0.10895
-0.253722
0.0563786
0.197343
-0.195344
-0.0583778
-0.0616841
-0.0792639
0.140948
-0.0739481
0.200585
0.252953
-0.0427905
-0.210162
-0.0314697
0.293901
0.201062
-0.269315
-0.0758233
0.216945
-0.0789325
-0.176212
-0.0839196
0.231483
-0.248162
-0.00593657
0.227091
-0.405901
0.27717
0.247314
-0.20443
0.0155325
-0.13628
-0.179377
0.0604128
0.264104
-0.236876
0.0783491
0.223764
-0.1906
-0.0884028
0.0710075
-0.308282
0.300104
0.0147452
-0.0551556
-0.0169319
-0.309285
-0.0160113
-0.0434263
0.257402
0.150933
-0.0439946
0.240381
-0.0894482
-0.0612292
0.0619493
0.198918
0.198211
-0.246373
0.0945326
-0.417141
0.322608
0.0402739
-0.250894
0.22018
0.0264192
-0.298815
-0.252612
0.0469727
-0.263396
0.111034
0.208842
-0.150701
0.139471
0.0885687
-0.00376628
-0.0783632
0.154891
-0.241825
0.0512247
-0.191065
-0.059994
0.189417
-0.0625714
0.340906
-0.0420587
-0.298847
0.22801
-0.197182
-0.0569606
0.0466634
0.0102972
-0.255589
0.189928
-0.0571264
0.205987
0.043056
0.167098
-0.0415927
-0.0800003
-0.257802
0.0596067
0.187643
-0.190083
0.0472035
-0.221781
0.276829
-0.160945
0.0307598
-0.278638
-0.157833
0.179806
-0.0822717
0.164721
0.07262
0.0183481
0.0733665
-0.162361
-0.172862
-0.284559
0.0491575
-0.111793
-0.178861
0.210287
-0.171833
0.0682202
0.00954808
0.215143
-0.254072
0.13168
0.122392
-0.311892
0.116695
-0.39456
-0.256334
0.282126
-0.0257922
-0.19454
-0.054733
0.0501093
-0.140347
0.132624
-0.147688
0.187962
-0.266314
0.238197
0.0281168
0.163516
-0.0431442
-0.223169
-0.14756
-0.15067
0.0912303
0.0661571
0.0525736
-0.252133
0.199559
0.247372
-0.0864313
0.177186
-0.140484
0.144312
0.146817
-0.178601
-0.156638
0.392125
-0.134104
0.0270258
0.169765
0.142845
-0.0405637
-0.166227
-0.0612161
0.197283
-0.0066321
0.209709
-0.201861
-0.146859
0.110734
-0.172428
-0.196896
0.195648
0.00314119
-0.184443
0.0185268
0.165916
0.113205
0.144837
0.0725279
0.142974
-0.225246
-0.0458741
0.214247
0.310297
0.121808
-0.179152
-0.251722
0.193156
0.058566
-0.262248
0.066099
0.24521
-0.191714
-0.053496
-0.1471
-0.25933
-0.222276
0.218509
0.199073
-0.274896
0.225912
-0.205646
-0.0458507
0.202007
0.141323
-0.107289
-0.0570467
0.190058
0.170432
-0.119219
-0.0682083
-0.0718989
0.307028
-0.0239669
-0.237886
-0.103363
0.0986675
0.130832
-0.140449
0.231648
0.0974794
-0.0448042
-0.0282432
-0.187673
0.0399856
-0.00506233
-0.126138
0.0892312
0.189643
0.269725
0.21514
0.0670245
0.0751489
0.0585176
0.107713
-0.0309495
-0.111708
0.0813702
0.187902
0.113682
-0.1665
0.255562
0.19462
0.0513897
-0.0182817
0.243113
0.198617
-0.198226
0.0570773
0.056039
-0.257224
-0.0993574
-0.235726
0.244674
0.231626
0.0656816
0.0463935
-0.0166025
0.0659254
0.181446
-0.0417911
0.0688137
-0.206111
-0.255575
0.23474
-0.212554
0.235078
-0.15409
0.269337
-0.259829
0.286747
-0.0189261
-0.178771
-0.00807979
-0.0075779
0.049489
-0.18959
0.0688802
-0.139667
-0.161193
0.00209871
-0.284638
0.282539
0.255307
-0.212251
0.205947
-0.0393573
0.152708
-0.256071
-0.105636
0.232447
0.151553
-0.193399
0.289049
-0.207363
0.204425
0.158646
0.054049
-0.270284
-0.180226
0.210411
0.0398308
-0.0826744
-0.193959
0.195279
-0.103324
0.0133671
-0.185556
0.260798
-0.0728959
-0.10191
-0.47032
-0.365672
0.0544149
-0.202301
0.0920116
-0.257733
-0.251204
0.409632
0.072921
-0.202202
0.0838698
0.0656534
-0.201063
-0.201974
0.237598
-0.189867
0.106434
0.0377685
-0.128874
-0.103212
-0.0449715
0.270882
-0.348421
-0.107495
0.262386
0.159999
-0.278669
0.25035
0.171546
0.214926
-0.129009
-0.0688524
-0.381915
0.248711
0.21195
-0.255377
0.227624
0.241641
-0.0071242
-0.152577
0.159702
-0.349487
0.244747
-0.0355024
0.0271193
-0.0672429
-0.260386
0.256548
-0.250775
0.0910264
0.214076
-0.118177
-0.0725991
0.212683
-0.243337
0.333045
0.222458
0.0616807
-0.217881
0.208774
0.181258
-0.203502
-0.0486309
0.126338
-0.00833516
-0.124639
0.213622
-0.205022
0.109686
0.114456
-0.165092
0.0459239
-0.0444817
-0.19778
0.308794
0.141756
0.0597967
0.102203
-0.0345014
0.0990151
-0.00877056
-0.0686499
0.208023
0.0937063
0.235188
0.15242
-0.247437
0.181927
-0.189989
-0.0718696
-0.112756
0.0637492
-0.034056
-0.13031
-0.207618
0.0617958
0.258749
-0.132411
-0.00405419
-0.15158
-0.157391
0.102076
-0.224904
0.265665
-0.201916
-0.210133
0.244239
-0.35021
0.0910566
-0.201397
-0.243853
-0.105634
-0.202573
-0.0581937
0.0594569
0.201309
0.0910304
-0.123519
-0.211791
-0.195544
-0.250681
0.0481087
0.1853
-0.0209628
-0.202874
-0.0527015
0.0664984
0.203737
-0.11268
-0.0757055
-0.265957
0.0537057
0.193703
-0.0155498
0.0295424
0.198041
-0.0212155
-0.190429
-0.0426584
-0.0121695
0.0681364
-0.016029
0.0813143
0.177435
-0.0108226
0.183745
-0.215406
0.0625486
-0.173624
0.10659
0.278512
0.178895
-0.0419534
0.226428
0.133399
0.175116
-0.0145624
0.0164956
0.0831272
-0.0592355
-0.0532819
0.336494
-0.0658615
0.222
0.419375
0.072578
-0.178713
-0.0668102
0.0983795
-0.126188
-0.067255
0.131583
-0.0749854
-0.091937
-0.116989
-0.0577049
-0.0663855
-0.0131905
-0.147583
0.153255
0.0387565
0.0387265
-0.0919501
0.250294
0.10469
-0.125514
0.12967
0.0149431
-0.123538
-0.0547252
-0.0334039
-0.063732
0.0439779
0.00663267
-0.123361
-0.00373714
-0.0920075
0.0241502
-0.128855
0.0348067
-0.017185
0.0962072
-0.112346
0.0864518
0.0410655
-0.0364708
-0.163845
0.018134
-0.0449976
0.0253173
-0.0767282
0.0939159
-0.0171877
-0.0919376
0.0369473
0.0684469
0.0342694
0.0694704
0.113738
0.0356963
0.00427661
0.102611
-0.00710991
0.0297293
-0.0603238
0.0284334
0.0869746
-0.0710118
-0.163429
0.102595
-0.105327
-0.0384895
-0.0547276
0.0541839
-0.0518343
0.06039
0.0343322
0.0966334
-0.0755382
0.0485025
0.126358
-0.118701
0.106769
0.00130271
-0.199985
-0.114861
0.0245994
0.0724552
0.0224727
0.0933294
0.0422116
0.0788794
-0.0804603
-0.127493
0.114428
-0.134079
0.131824
0.0881464
0.0800093
-0.0847071
0.0422459
0.0687198