/*--------------------------------*- C++ -*----------------------------------*\
  =========                 |
  \\      /  F ield         | OpenFOAM: The Open Source CFD Toolbox
   \\    /   O peration     | Website:  https://openfoam.org
    \\  /    A nd           | Version:  6
     \\/     M anipulation  |
\*---------------------------------------------------------------------------*/
FoamFile
{
    version     2.0;
    format      ascii;
    class       volScalarField;
    location    "2.9";
    object      T;
}
// * * * * * * * * * * * * * * * * * * * * * * * * * * * * * * * * * * * * * //

dimensions      [0 0 0 1 0 0 0];

internalField   nonuniform List<scalar> 
5625
(
1
1
1
1
1
1
1
1
1
1
1
1
1
1
1
1
1
1
1
1
1
1
1
1
1
1
1
1
1
1
1
1
1
1
1
1
1
1
1
1
1
1
1
1
1
1
1
1
1
1
1
1
1
1
1
1
1
1
1
1
1
1
1
1
1
1
1
1
1
1
1
1
1
1
1
1
1
1
1
1
1
1
1
1
1
1
1
1
1
1
1
1
1
1
1
1
1
1
1
1
1
1
1
1
1
1
1
1
1
1
1
1
1
1
1
1
1
1
1
1
1
1
1
1
1
1
1
1
1
1
1
1
1
1
1
1
1
1
1
1
1
1
1
1
1
1
1
1
1
1
1
1
1
1
1
1
1
1
1
1
1
1
1
1
1
1
1
1
1
1
1
1
1
1
1
1
1
1
1
1
1
1
1
1
1
1
1
1
1
1
1
1
1
1
1
1
1
1
1
1
1
1
1
1
1
1
1
1
1
1
1
1
1
1
1
1
1
1
1
1
1
1
1
1
1
1
1
1
1
1
1
1
1
1
1
1
1
1
1
1
1
1
1
1
1
1
1
1
1
1
1
1
1
1
1
1
1
1
1
1
1
1
1
1
1
1
1
1
1
1
1
1
1
1
1
1
1
1
1
1
1
1
1
1
1
1
1
1
1
1
1
1
1
1
1
1
1
1
1
1
1
1
1
1
1
1
1
1
1
1
1
1
1
1
1
1
1
1
1
1
1
1
1
1
1
1
1
1
1
1
1
1
1
1
1
1
1
1
1
1
1
1
1
1
1
1
1
1
1
1
1
1
1
1
1
1
1
1
1
1
1
1
1
1
1
1
1
1
1
1
1
1
1
1
1
1
1
1
1
1
1
1
1
1
1
1
1
1
1
1
1
1
1
1
1
1
1
1
1
1
1
1
1
1
1
1
1
1
1
1
1
1
1
1
1
1
1
1
1
1
1
1
1
1
1
1
1
1
1
1
1
1
1
1
1
1
1
1
1
1
1
1
1
1
1
1
1
1
1
1
1
1
1
1
1
1
1
1
1
1
1
1
1
1
1
1
1
1
1
1
1
1
1
1
1
1
1
1
1
1
1
1
1
1
1
1
1
1
1
1
1
1
1
1
1
1
1
1
1
1
1
1
1
1
1
1
1
1
1
1
1
1
1
1
1
1
1
1
1
1
1
1
1
1
1
1
1
1
1
1
1
1
1
1
1
1
1
1
1
1
1
1
1
1
1
1
1
1
1
1
1
1
1
1
1
1
1
1
1
1
1
1
1
1
1
1
1
1
1
1
1
1
1
1
1
1
1
1
1
1
1
1
1
1
1
1
1
1
1
1
1
1
1
1
1
1
1
1
1
1
1
1
1
1
1
1
1
1
1
1
1
1
1
1
1
1
1
1
1
1
1
1
1
1
1
1
1
1
1
1
1
1
1
1
1
1
1
1
1
1
1
1
1
1
1
1
1
1
1
1
1
1
1
1
1
1
1
1
1
1
1
1
1
1
1
1
1
1
1
1
1
1
1
1
1
1
1
1
1
1
1
1
1
1
1
1
1
1
1
1
1
1
1
1
1
1
1
1
1
1
1
1
1
1
1
1
1
1
1
1
1
1
1
1
1
1
1
1
1
1
1
1
1
1
1
1
1
1
1
1
1
1
1
1
1
1
1
1
1
1
1
1
1
1
1
1
1
1
1
1
1
1
1
1
1
1
1
1
1
1
1
1
1
1
1
1
1
1
1
1
1
1
1
1
1
1
1
1
1
1
1
1
1
1
1
1
1
1
1
1
1
1
1
1
1
1
1
1
1
1
1
1
1
1
1
1
1
1
1
1
1
1
1
1
1
1
1
1
1
1
1
1
1
1
1
1
1
1
1
1
1
1
1
1
1
1
1
1
1
1
1
1
1
1
1
1
1
1
1
1
1
1
1
1
1
1
1
1
1
1
1
1
1
1
1
1
1
1
1
1
1
1
1
1
1
1
1
1
1
1
1
1
1
1
1
1
1
1
1
1
1
1
1
1
1
1
1
1
1
1
1
1
1
1
1
1
1
1
1
1
1
1
1
1
1
1
1
1
1
1
1
1
1
1
1
1
1
1
1
1
1
1
1
1
1
1
1
1
1
1
1
1
1
1
1
1
1
1
1
1
1
1
1
1
1
1
1
1
1
1
1
1
1
1
1
1
1
1
1
1
1
1
1
1
1
1
1
1
1
1
1
1
1
1
1
1
1
1
1
1
1
1
1
1
1
1
1
1
1
1
1
1
1
1
1
1
1
1
1
1
1
1
1
1
1
1
1
1
1
1
1
1
1
1
1
1
1
1
1
1
1
1
1
1
1
1
1
1
1
1
1
1
1
1
1
1
1
1
1
1
1
1
1
1
1
1
1
1
1
1
1
1
1
1
1
1
1
1
1
1
1
1
1
1
1
1
1
1
1
1
1
1
1
1
1
1
1
1
1
1
1
1
1
1
1
1
1
1
1
1
1
1
1
1
1
1
1
1
1
1
1
1
1
1
1
1
1
1
1
1
1
1
1
1
1
1
1
1
1
1
1
1
1
1
1
1
1
1
1
1
1
1
1
1
1
1
1
1
1
1
1
1
1
1
1
1
1
1
1
1
1
1
1
1
1
1
1
1
1
1
1
1
1
1
1
1
1
1
1
1
1
1
1
1
1
1
1
1
1
1
1
1
1
1
1
1
1
1
1
1
1
1
1
1
1
1
1
1
1
1
1
1
1
1
1
1
1
1
1
1
1
1
1
1
1
1
1
1
1
1
1
1
1
1
1
1
1
1
1
1
1
1
1
1
1
1
1
1
1
1
1
1
1
1
1
1
1
1
1
1
1
1
1
1
1
1
1
1
1
1
1
1
1
1
1
1
1
1
1
1
1
1
1
1
1
1
1
1
1
1
1
1
1
1
1
1
1
1
1
1
1
1
1
1
1
1
1
1
1
1
1
1
1
1
1
1
1
1
1
1
1
1
1
1
1
1
1
1
1
1
1
1
1
1
1
1
1
1
1
1
1
1
1
1
1
1
1
1
1
1
1
1
1
1
1
1
1
1
1
1
1
1
1
1
1
1
1
1
1
1
1
1
1
1
1
1
1
1
1
1
1
1
1
1
1
1
1
1
1
1
1
1
1
1
1
1
1
1
1
1
1
1
1
1
1
1
1
1
1
1
1
1
1
1
1
1
1
1
1
1
1
1
1
1
1
1
1
1
1
1
1
1
1
1
1
1
1
1
1
1
1
1
1
1
1
1
1
1
1
1
1
1
1
1
1
1
1
1
1
1
1
1
1
1
1
1
1
1
1
1
1
1
1
1
1
1
1
1
1
1
1
1
1
1
1
1
1
1
1
1
1
1
1
1
1
1
1
1
1
1
1
1
1
1
1
1
1
1
1
1
1
1
1
1
1
1
1
1
1
1
1
1
1
1
1
1
1
1
1
1
1
1
1
1
1
1
1
1
1
1
1
1
1
1
1
1
1
1
1
1
1
1
1
1
1
1
1
1
1
1
1
1
1
1
1
1
1
1
1
1
1
1
1
1
1
1
1
1
1
1
1
1
1
1
1
1
1
1
1
1.00001
1.00001
1.00001
1.00001
1.00001
1.00001
1.00001
1.00001
1.00001
1.00001
1.00001
1
1
1
1
1
1
1
1
1
1
1
1
1
1
1
1
1
1
1
1
1
1
1
1
1
1
1
1
1
1
1
1
1
1
1
1
1
1
1
1
1
1
1
1
1
1
1
1
1
1
1
1
1
1
1
1
1
1
1
1
1
1.00001
1.00001
1.00001
1.00001
1.00001
1.00001
1.00001
1.00001
1.00001
1.00001
1.00001
1.00001
1.00001
1.00001
1.00001
1.00001
1.00001
1
1
1
1
1
1
1
1
1
1
1
1
1
1
1
1
1
1
1
1
1
1
1
1
1
1
1
1
1
1
1
1
1
1
1
1
1
1
1
1
1
1
1
1
1
1
1
1
1
1
1
1
1
1
1
1
1.00001
1.00001
1.00001
1.00001
1.00001
1.00001
1.00001
1.00001
1.00001
1.00001
1.00001
1.00001
1.00001
1.00001
1.00001
1.00001
1.00001
1.00001
1.00001
1.00001
1.00001
1
1
1
1
1
1
1
1
1
1
1
1
1
1
1
1
1
1
1
1
1
1
1
1
1
1
1
1
1
1
1
1
1
1
1
1
1
1
1
1
1
1
1
1
1
1
1
1
1
1
1
1
1.00001
1.00001
1.00001
1.00001
1.00001
1.00001
1.00001
1.00001
1.00001
1.00001
1.00001
1.00001
1.00001
1.00001
1.00001
1.00001
1.00001
1.00001
1.00001
1.00001
1.00001
1.00001
1.00001
1.00001
1.00001
1
1
1
1
1
1
1
1
1
1
1
1
1
1
1
1
1
1
1
1
1
1
1
1
1
1
1
1
1
1
1
1
1
1
1
1
1
1
1
1
1
1
1
1
1
1
1
1
1.00001
1.00001
1.00001
1.00001
1.00001
1.00001
1.00001
1.00001
1.00001
1.00001
1.00001
1.00002
1.00002
1.00002
1.00002
1.00002
1.00002
1.00002
1.00001
1.00001
1.00001
1.00001
1.00001
1.00001
1.00001
1.00001
1.00001
1.00001
1.00001
1
1
1
1
1
1
1
1
1
1
1
1
1
1
1
1
1
1
1
1
1
1
1
1
1
1
1
1
1
1
1
1
1
1
1
1
1
1
1
1
1
1
1
1
1
1.00001
1.00001
1.00001
1.00001
1.00001
1.00001
1.00001
1.00001
1.00002
1.00002
1.00002
1.00002
1.00002
1.00002
1.00002
1.00002
1.00002
1.00002
1.00002
1.00002
1.00002
1.00002
1.00002
1.00001
1.00001
1.00001
1.00001
1.00001
1.00001
1.00001
1.00001
1
1
1
1
1
1
1
1
1
1
1
1
1
1
1
1
1
1
1
1
1
1
1
1
1
1
1
1
1
1
1
1
1
1
1
1
1
1
1
1
1
1
1
1.00001
1.00001
1.00001
1.00001
1.00001
1.00001
1.00002
1.00002
1.00002
1.00002
1.00002
1.00002
1.00002
1.00002
1.00002
1.00002
1.00002
1.00002
1.00002
1.00002
1.00002
1.00002
1.00002
1.00002
1.00002
1.00002
1.00001
1.00001
1.00001
1.00001
1.00001
1.00001
1.00001
1
1
1
1
1
1
1
1
1
1
1
1
1
1
1
1
1
1
1
1
1
1
1
1
1
1
1
1
1
1
1
1
1
1
1
1
1
1
1
1
1
1.00001
1.00001
1.00001
1.00001
1.00001
1.00001
1.00002
1.00002
1.00002
1.00002
1.00002
1.00002
1.00002
1.00002
1.00002
1.00002
1.00002
1.00002
1.00002
1.00002
1.00002
1.00002
1.00002
1.00002
1.00002
1.00002
1.00002
1.00002
1.00002
1.00001
1.00001
1.00001
1.00001
1.00001
1.00001
1
1
1
1
1
1
1
1
1
1
1
1
1
1
1
1
1
1
1
1
1
1
1
1
1
1
1
1
1
1
1
1
1
1
1
1
1
1
1.00001
1.00001
1.00001
1.00001
1.00001
1.00001
1.00002
1.00002
1.00002
1.00002
1.00002
1.00002
1.00002
1.00002
1.00002
1.00002
1.00002
1.00002
1.00002
1.00002
1.00002
1.00002
1.00002
1.00002
1.00002
1.00002
1.00002
1.00002
1.00002
1.00002
1.00002
1.00002
1.00001
1.00001
1.00001
1.00001
1.00001
1.00001
1
1
1
1
1
1
1
1
1
1
1
1
1
1
1
1
1
1
1
1
1
1
1
1
1
1
1
1
1
1
1
1
1
1
1
1
1
1.00001
1.00001
1.00001
1.00001
1.00001
1.00002
1.00002
1.00002
1.00002
1.00002
1.00002
1.00002
1.00002
1.00002
1.00002
1.00001
1.00001
1.00001
1.00001
1.00001
1.00001
1.00001
1.00001
1.00001
1.00002
1.00002
1.00002
1.00002
1.00002
1.00002
1.00002
1.00002
1.00002
1.00002
1.00001
1.00001
1.00001
1.00001
1.00001
1
1
1
1
1
1
1
1
1
1
1
1
1
1
1
1
1
1
1
1
1
1
1
1
1
1
1
1
1
1
1
1
1
1
1
1
1.00001
1.00001
1.00001
1.00002
1.00002
1.00002
1.00002
1.00002
1.00002
1.00002
1.00002
1.00002
1.00001
1.00001
1
1
0.999996
0.999993
0.999991
0.999991
0.999992
0.999994
0.999998
1
1.00001
1.00001
1.00002
1.00002
1.00002
1.00002
1.00002
1.00002
1.00002
1.00002
1.00002
1.00001
1.00001
1.00001
1.00001
1.00001
1
1
1
1
1
1
1
1
1
1
1
1
1
1
1
1
1
1
1
1
1
1
1
1
1
1
1
1
1
1
1
1
1
1
1
1.00001
1.00001
1.00001
1.00002
1.00002
1.00002
1.00002
1.00002
1.00002
1.00002
1.00001
1.00001
1
0.999992
0.999983
0.999975
0.999967
0.999961
0.999958
0.999957
0.999959
0.999964
0.999971
0.999979
0.999987
0.999996
1
1.00001
1.00002
1.00002
1.00002
1.00002
1.00002
1.00002
1.00002
1.00002
1.00001
1.00001
1.00001
1.00001
1.00001
1
1
1
1
1
1
1
1
1
1
1
1
1
1
1
1
1
1
1
1
1
1
1
1
1
1
1
1
1
1
1
1
1
1
1.00001
1.00002
1.00002
1.00002
1.00002
1.00002
1.00002
1.00002
1.00002
1.00001
1
0.99999
0.999976
0.999961
0.999945
0.99993
0.999917
0.999907
0.999901
0.999899
0.999903
0.999911
0.999923
0.999937
0.999952
0.999967
0.999981
0.999994
1
1.00001
1.00002
1.00002
1.00002
1.00002
1.00002
1.00002
1.00002
1.00001
1.00001
1.00001
1.00001
1
1
1
1
1
1
1
1
1
1
1
1
1
1
1
1
1
1
1
1
1
1
1
1
1
1
1
1
1
1
1
1
1
1
1.00001
1.00002
1.00002
1.00002
1.00002
1.00002
1.00002
1.00002
1.00001
0.999996
0.99998
0.999959
0.999935
0.999909
0.999882
0.999856
0.999833
0.999816
0.999805
0.999803
0.999809
0.999823
0.999842
0.999866
0.999892
0.999918
0.999943
0.999965
0.999983
0.999997
1.00001
1.00001
1.00002
1.00002
1.00002
1.00002
1.00002
1.00002
1.00001
1.00001
1.00001
1.00001
1
1
1
1
1
1
1
1
1
1
1
1
1
1
1
1
1
1
1
1
1
1
1
1
1
1
1
1
1
1
1
1
1
1.00002
1.00002
1.00002
1.00002
1.00002
1.00002
1.00002
1.00001
0.999992
0.999971
0.999943
0.999908
0.999868
0.999824
0.999779
0.999735
0.999698
0.999669
0.999651
0.999647
0.999657
0.999679
0.999712
0.999751
0.999795
0.999838
0.999879
0.999916
0.999947
0.999972
0.999991
1
1.00001
1.00002
1.00002
1.00002
1.00002
1.00002
1.00001
1.00001
1.00001
1.00001
1.00001
1
1
1
1
1
1
1
1
1
1
1
1
1
1
1
1
1
1
1
1
1
1
1
1
1
1
1
1
1
1
1
1
1.00002
1.00002
1.00002
1.00003
1.00002
1.00002
1.00001
0.99999
0.999964
0.999928
0.999882
0.999826
0.999761
0.99969
0.999616
0.999546
0.999484
0.999437
0.999409
0.999402
0.999417
0.999453
0.999505
0.999569
0.999639
0.99971
0.999778
0.999838
0.999889
0.99993
0.999962
0.999986
1
1.00001
1.00002
1.00002
1.00002
1.00002
1.00002
1.00001
1.00001
1.00001
1.00001
1
1
1
1
1
1
1
1
1
1
1
1
1
1
1
1
1
1
1
1
1
1
1
1
1
1
1
1
1
1
1
1
1.00002
1.00002
1.00003
1.00002
1.00002
1.00001
0.99999
0.999961
0.999919
0.999861
0.999788
0.999698
0.999595
0.999482
0.999365
0.999253
0.999155
0.99908
0.999034
0.999022
0.999045
0.999102
0.999186
0.999288
0.999399
0.999512
0.99962
0.999716
0.999798
0.999865
0.999917
0.999955
0.999983
1
1.00001
1.00002
1.00002
1.00002
1.00002
1.00002
1.00001
1.00001
1.00001
1.00001
1
1
1
1
1
1
1
1
1
1
1
1
1
1
1
1
1
1
1
1
1
1
1
1
1
1
1
1
1
1
1
1.00002
1.00003
1.00003
1.00002
1.00001
0.999994
0.999963
0.999917
0.99985
0.99976
0.999644
0.999505
0.999344
0.999168
0.998986
0.998812
0.998658
0.99854
0.998467
0.998448
0.998484
0.998572
0.998702
0.998861
0.999036
0.999212
0.99938
0.99953
0.999659
0.999764
0.999846
0.999908
0.999952
0.999982
1
1.00001
1.00002
1.00002
1.00002
1.00002
1.00001
1.00001
1.00001
1.00001
1
1
1
1
1
1
1
1
1
1
1
1
1
1
1
1
1
1
1
1
1
1
1
1
1
1
1
1
1
1
1
1.00003
1.00003
1.00003
1.00002
1
0.999971
0.999922
0.99985
0.999746
0.999607
0.999431
0.999217
0.998971
0.998702
0.998425
0.998158
0.997923
0.997741
0.99763
0.9976
0.997655
0.997789
0.997986
0.99823
0.998497
0.998768
0.999025
0.999255
0.999452
0.999613
0.99974
0.999835
0.999904
0.999952
0.999983
1
1.00001
1.00002
1.00002
1.00002
1.00002
1.00001
1.00001
1.00001
1.00001
1
1
1
1
1
1
1
1
1
1
1
1
1
1
1
1
1
1
1
1
1
1
1
1
1
1
1
1
1
1
1.00003
1.00003
1.00002
1.00001
0.999982
0.999935
0.999861
0.99975
0.999593
0.999384
0.999119
0.9988
0.998431
0.998028
0.997613
0.997213
0.996861
0.996588
0.996421
0.996377
0.996459
0.996658
0.996955
0.997319
0.997719
0.998124
0.998509
0.998855
0.999152
0.999394
0.999585
0.999729
0.999834
0.999907
0.999956
0.999987
1.00001
1.00001
1.00002
1.00002
1.00002
1.00001
1.00001
1.00001
1.00001
1
1
1
1
1
1
1
1
1
1
1
1
1
1
1
1
1
1
1
1
1
1
1
1
1
1
1
1
1
1
1.00003
1.00003
1.00002
0.999994
0.999953
0.999883
0.999771
0.999605
0.999373
0.999064
0.998675
0.998204
0.997663
0.997071
0.996461
0.995873
0.995356
0.994957
0.994714
0.99465
0.994772
0.995066
0.995501
0.996034
0.996621
0.997215
0.997781
0.998289
0.998725
0.999083
0.999364
0.999577
0.999733
0.999842
0.999916
0.999963
0.999992
1.00001
1.00002
1.00002
1.00002
1.00002
1.00001
1.00001
1.00001
1.00001
1
1
1
1
1
1
1
1
1
1
1
1
1
1
1
1
1
1
1
1
1
1
1
1
1
1
1
1
1
1.00003
1.00002
1.00001
0.999974
0.999913
0.999809
0.999644
0.999401
0.999063
0.998617
0.998054
0.997375
0.996595
0.995741
0.99486
0.994015
0.993273
0.992701
0.992356
0.992269
0.992448
0.992873
0.993498
0.994265
0.995107
0.995961
0.996773
0.997505
0.998134
0.99865
0.999057
0.999366
0.999591
0.99975
0.999858
0.999929
0.999972
0.999998
1.00001
1.00002
1.00002
1.00002
1.00001
1.00001
1.00001
1.00001
1
1
1
1
1
1
1
1
1
1
1
1
1
1
1
1
1
1
1
1
1
1
1
1
1
1
1
1
1
1.00003
1.00002
0.999993
0.999945
0.999856
0.999704
0.999466
0.999118
0.998637
0.998004
0.997205
0.996244
0.995138
0.993929
0.992685
0.991493
0.990451
0.989653
0.989174
0.98906
0.989318
0.989919
0.990801
0.991881
0.993067
0.994269
0.995413
0.996445
0.997332
0.998062
0.998638
0.999076
0.999397
0.999624
0.999779
0.99988
0.999944
0.999983
1
1.00001
1.00002
1.00002
1.00002
1.00001
1.00001
1.00001
1.00001
1
1
1
1
1
1
1
1
1
1
1
1
1
1
1
1
1
1
1
1
1
1
1
1
1
1
1
1
1.00002
1.00001
0.999975
0.999905
0.999777
0.99956
0.999224
0.998735
0.998063
0.997181
0.99607
0.994732
0.993194
0.991516
0.989793
0.988148
0.986716
0.985624
0.984975
0.984826
0.985189
0.986022
0.987242
0.988734
0.990371
0.992032
0.993613
0.99504
0.996268
0.99728
0.99808
0.99869
0.999137
0.999455
0.999672
0.999815
0.999906
0.999961
0.999992
1.00001
1.00002
1.00002
1.00002
1.00001
1.00001
1.00001
1.00001
1
1
1
1
1
1
1
1
1
1
1
1
1
1
1
1
1
1
1
1
1
1
1
1
1
1
1
1
1.00002
0.999999
0.999951
0.999852
0.99967
0.999367
0.998902
0.998228
0.997307
0.9961
0.994582
0.992754
0.990655
0.98837
0.986032
0.983809
0.98188
0.980416
0.979547
0.979353
0.979848
0.980979
0.982633
0.984656
0.986877
0.989131
0.991278
0.993217
0.994886
0.996263
0.997353
0.998185
0.998797
0.999232
0.99953
0.999728
0.999854
0.999932
0.999977
1
1.00001
1.00002
1.00002
1.00001
1.00001
1.00001
1.00001
1
1
1
1
1
1
1
1
1
1
1
1
1
1
1
1
1
1
1
1
1
1
1
1
1
1
1
1
1.00002
0.999987
0.999919
0.999781
0.999529
0.999115
0.998482
0.997574
0.996334
0.994713
0.992674
0.990222
0.987412
0.984362
0.981253
0.978307
0.975756
0.973819
0.972667
0.972407
0.973061
0.974562
0.976763
0.979459
0.982423
0.985433
0.988302
0.990893
0.993124
0.994965
0.996425
0.99754
0.998361
0.998946
0.999348
0.999616
0.999787
0.999893
0.999955
0.99999
1.00001
1.00002
1.00002
1.00002
1.00001
1.00001
1.00001
1.00001
1
1
1
1
1
1
1
1
1
1
1
1
1
1
1
1
1
1
1
1
1
1
1
1
1
1
1
1.00001
0.99997
0.999878
0.999689
0.999349
0.998792
0.997949
0.996747
0.995111
0.99297
0.990282
0.987053
0.983362
0.979371
0.975318
0.971483
0.96816
0.965624
0.964102
0.963741
0.964579
0.966533
0.969413
0.97295
0.976844
0.980801
0.984575
0.987983
0.990919
0.993341
0.995263
0.996731
0.997814
0.998587
0.999119
0.999474
0.999702
0.999844
0.999928
0.999976
1
1.00001
1.00002
1.00002
1.00001
1.00001
1.00001
1.00001
1
1
1
1
1
1
1
1
1
1
1
1
1
1
1
1
1
1
1
1
1
1
1
1
1
1
1
1
0.999949
0.999826
0.999574
0.999122
0.998389
0.997289
0.995728
0.993606
0.990832
0.987351
0.983178
0.978425
0.973305
0.968114
0.9632
0.958921
0.95563
0.953629
0.953122
0.954171
0.956674
0.960385
0.964955
0.969991
0.975112
0.979996
0.984409
0.988211
0.991348
0.993836
0.995738
0.997142
0.998144
0.998836
0.999298
0.999597
0.999782
0.999894
0.999957
0.999992
1.00001
1.00001
1.00002
1.00001
1.00001
1.00001
1.00001
1
1
1
1
1
1
1
1
1
1
1
1
1
1
1
1
1
1
1
1
1
1
1
1
1
1
1
0.999994
0.999925
0.999763
0.999431
0.998843
0.9979
0.996493
0.994502
0.991799
0.988267
0.983843
0.978553
0.972551
0.966103
0.959566
0.953351
0.947901
0.943671
0.941067
0.940371
0.941673
0.944841
0.949556
0.955366
0.961768
0.968282
0.974497
0.980114
0.984954
0.98895
0.992119
0.994543
0.996333
0.997611
0.998495
0.999086
0.999469
0.999708
0.999852
0.999935
0.99998
1
1.00001
1.00002
1.00001
1.00001
1.00001
1.00001
1.00001
1
1
1
1
1
1
1
1
1
1
1
1
1
1
1
1
1
1
1
1
1
1
1
1
1
1
0.999984
0.999897
0.999686
0.999261
0.998513
0.997322
0.995556
0.993063
0.989682
0.985268
0.979748
0.973172
0.965735
0.957757
0.949648
0.941888
0.935031
0.929668
0.926347
0.925443
0.927066
0.931037
0.936938
0.944198
0.952189
0.960313
0.968068
0.975082
0.981133
0.986131
0.990099
0.993135
0.995379
0.996982
0.998092
0.998835
0.999317
0.999619
0.999801
0.999908
0.999966
0.999996
1.00001
1.00001
1.00002
1.00001
1.00001
1.00001
1.00001
1
1
1
1
1
1
1
1
1
1
1
1
1
1
1
1
1
1
1
1
1
1
1
1
1
1
0.999974
0.999865
0.999599
0.999064
0.998131
0.996658
0.994483
0.991419
0.987264
0.981847
0.975092
0.967072
0.958026
0.948315
0.9384
0.928846
0.920351
0.913692
0.909584
0.908495
0.910536
0.915458
0.922726
0.93163
0.941402
0.951324
0.960794
0.969368
0.976777
0.982908
0.987783
0.991519
0.994282
0.996258
0.997627
0.998545
0.999141
0.999516
0.999743
0.999876
0.99995
0.999988
1.00001
1.00001
1.00002
1.00001
1.00001
1.00001
1.00001
1
1
1
1
1
1
1
1
1
1
1
1
1
1
1
1
1
1
1
1
1
1
1
1
1
1
0.999964
0.99983
0.9995
0.998843
0.997704
0.995917
0.993288
0.989589
0.984576
0.978052
0.969941
0.960344
0.949534
0.937903
0.925962
0.91439
0.904076
0.896024
0.891119
0.889902
0.892464
0.898471
0.90726
0.91797
0.929683
0.941546
0.952856
0.963104
0.971975
0.979336
0.985205
0.989712
0.993052
0.995445
0.997104
0.998219
0.998943
0.999399
0.999677
0.999839
0.99993
0.999979
1
1.00001
1.00001
1.00001
1.00001
1.00001
1.00001
1
1
1
1
1
1
1
1
1
1
1
1
1
1
1
1
1
1
1
1
1
1
1
1
1
1
0.999954
0.999792
0.999396
0.998604
0.997242
0.995115
0.991996
0.987611
0.981673
0.973962
0.964404
0.95313
0.940433
0.926729
0.912588
0.898845
0.886622
0.87716
0.871492
0.870199
0.873339
0.880503
0.890915
0.903561
0.917348
0.931268
0.944507
0.956492
0.966879
0.975519
0.982431
0.987757
0.991715
0.994558
0.996532
0.997861
0.998726
0.999271
0.999604
0.999799
0.999909
0.999968
0.999997
1.00001
1.00001
1.00001
1.00001
1.00001
1.00001
1
1
1
1
1
1
1
1
1
1
1
1
1
1
1
1
1
1
1
1
1
1
1
1
1
1
0.999945
0.999757
0.999289
0.998357
0.996759
0.994277
0.990643
0.985539
0.978635
0.969688
0.958636
0.945626
0.930967
0.915096
0.898666
0.882703
0.868585
0.857761
0.851356
0.849962
0.853626
0.861916
0.873984
0.888665
0.904659
0.920757
0.936005
0.949764
0.961675
0.971597
0.979559
0.985717
0.990311
0.99362
0.995925
0.99748
0.998494
0.999134
0.999525
0.999756
0.999886
0.999956
0.999992
1.00001
1.00001
1.00001
1.00001
1.00001
1.00001
1.00001
1
1
1
1
1
1
1
1
1
1
1
1
1
1
1
1
1
1
1
1
1
1
1
1
1
0.999938
0.999724
0.999184
0.998111
0.996277
0.993433
0.989277
0.983444
0.975563
0.965373
0.952823
0.938075
0.921444
0.903396
0.884696
0.866585
0.850676
0.838556
0.83138
0.829744
0.833746
0.843012
0.856682
0.873453
0.891784
0.910201
0.927559
0.943132
0.956558
0.967728
0.976705
0.983673
0.988891
0.992666
0.995304
0.997087
0.998254
0.998992
0.999444
0.999711
0.999862
0.999944
0.999986
1.00001
1.00001
1.00001
1.00001
1.00001
1.00001
1.00001
1
1
1
1
1
1
1
1
1
1
1
1
1
1
1
1
1
1
1
1
1
1
1
1
1
0.999932
0.999697
0.999091
0.997881
0.995817
0.99262
0.987953
0.981407
0.972573
0.961181
0.947184
0.930756
0.91222
0.892086
0.871256
0.851177
0.83364
0.820282
0.812243
0.810152
0.814225
0.824225
0.839341
0.858166
0.878903
0.899762
0.919337
0.936772
0.951699
0.964065
0.973994
0.981716
0.98752
0.991736
0.994694
0.9967
0.998016
0.998851
0.999363
0.999666
0.999838
0.999932
0.99998
1
1.00001
1.00001
1.00001
1.00001
1.00001
1.00001
1
1
1
1
1
1
1
1
1
1
1
1
1
1
1
1
1
1
1
1
1
1
1
1
1
0.999929
0.999678
0.999017
0.997683
0.995404
0.991878
0.986732
0.979519
0.969799
0.957288
0.941949
0.923967
0.903679
0.881655
0.858937
0.837154
0.818191
0.80367
0.7947
0.791981
0.795883
0.806337
0.822633
0.843323
0.866385
0.889694
0.911527
0.930846
0.94725
0.960745
0.971542
0.979936
0.986262
0.990874
0.994123
0.996335
0.99779
0.998716
0.999285
0.999622
0.999815
0.99992
0.999974
1
1.00001
1.00001
1.00001
1.00001
1.00001
1.00001
1
1
1
1
1
1
1
1
1
1
1
1
1
1
1
1
1
1
1
1
1
1
1
1
1
0.999928
0.99967
0.998967
0.997531
0.995066
0.991248
0.985677
0.977872
0.967366
0.95387
0.937352
0.918007
0.896199
0.872572
0.848298
0.825132
0.804988
0.789441
0.779596
0.77623
0.779839
0.790491
0.807606
0.829779
0.85486
0.880425
0.904411
0.925548
0.943357
0.95789
0.969451
0.978417
0.98518
0.990124
0.99362
0.99601
0.997588
0.998594
0.999215
0.999583
0.999794
0.999909
0.999969
0.999998
1.00001
1.00001
1.00001
1.00001
1.00001
1.00001
1
1
1
1
1
1
1
1
1
1
1
1
1
1
1
1
1
1
1
1
1
1
1
1
1
0.999929
0.999675
0.99895
0.997438
0.994826
0.990768
0.984846
0.976553
0.965402
0.951095
0.933607
0.913153
0.890129
0.865254
0.839813
0.815628
0.794601
0.778269
0.767762
0.763911
0.767251
0.777907
0.79543
0.818552
0.845126
0.872523
0.898367
0.921117
0.940177
0.955613
0.967808
0.977228
0.984326
0.989525
0.993213
0.995743
0.99742
0.998492
0.999155
0.999549
0.999776
0.9999
0.999964
0.999996
1.00001
1.00001
1.00001
1.00001
1.00001
1.00001
1
1
1
1
1
1
1
1
1
1
1
1
1
1
1
1
1
1
1
1
1
1
1
1
1
0.99993
0.999691
0.998966
0.997417
0.994705
0.990473
0.98429
0.975636
0.964009
0.949104
0.930904
0.909641
0.885758
0.860044
0.833857
0.809041
0.787469
0.770673
0.759823
0.755761
0.758967
0.769525
0.787073
0.81055
0.83795
0.866575
0.893798
0.917816
0.937875
0.954018
0.966685
0.976423
0.983744
0.989109
0.992924
0.99555
0.997295
0.998416
0.99911
0.999524
0.999762
0.999893
0.999961
0.999994
1.00001
1.00001
1.00001
1.00001
1.00001
1.00001
1
1
1
1
1
1
1
1
1
1
1
1
1
1
1
1
1
1
1
1
1
1
1
1
1
0.999931
0.999716
0.999018
0.997471
0.994716
0.990387
0.984048
0.975178
0.963266
0.948005
0.92938
0.907648
0.883297
0.857175
0.830679
0.805636
0.783878
0.766955
0.756081
0.752088
0.755342
0.765791
0.783085
0.806375
0.833907
0.863058
0.89106
0.915879
0.936595
0.953191
0.966137
0.976038
0.983462
0.988898
0.992769
0.995441
0.997223
0.99837
0.999082
0.999508
0.999753
0.999888
0.999959
0.999994
1.00001
1.00001
1.00001
1.00001
1.00001
1.00001
1
1
1
1
1
1
1
1
1
1
1
1
1
1
1
1
1
1
1
1
1
1
1
1
1
0.999926
0.999748
0.999102
0.997603
0.994869
0.990525
0.984143
0.975212
0.963223
0.947863
0.929121
0.907277
0.882861
0.85677
0.8304
0.805527
0.783935
0.767179
0.75652
0.752793
0.756249
0.766642
0.783534
0.806232
0.833281
0.862261
0.890389
0.915475
0.93644
0.953191
0.966196
0.976094
0.98349
0.988901
0.992757
0.995423
0.997206
0.998357
0.999074
0.999503
0.99975
0.999887
0.999958
0.999993
1.00001
1.00001
1.00001
1.00001
1.00001
1.00001
1
1
1
1
1
1
1
1
1
1
1
1
1
1
1
1
1
1
1
1
1
1
1
1
1
0.999916
0.999778
0.99921
0.997805
0.995158
0.99089
0.984583
0.975747
0.96389
0.948694
0.930148
0.908548
0.884468
0.858828
0.832999
0.808677
0.787569
0.771213
0.760906
0.757524
0.761248
0.771632
0.788069
0.809926
0.836029
0.864236
0.89187
0.916674
0.937453
0.954036
0.966864
0.976587
0.983828
0.989117
0.992887
0.995498
0.997247
0.998379
0.999085
0.999509
0.999753
0.999888
0.999959
0.999993
1.00001
1.00001
1.00001
1.00001
1.00001
1.00001
1
1
1
1
1
1
1
1
1
1
1
1
1
1
1
1
1
1
1
1
1
1
1
1
1
0.9999
0.999802
0.999329
0.998063
0.995574
0.991471
0.985354
0.976766
0.96524
0.950464
0.932418
0.911407
0.888033
0.863226
0.838315
0.814891
0.794555
0.778784
0.7689
0.765842
0.769796
0.780156
0.796103
0.816979
0.841828
0.868803
0.895412
0.919431
0.939606
0.955698
0.968115
0.977493
0.984457
0.989534
0.993152
0.99566
0.997342
0.998433
0.999115
0.999525
0.999762
0.999892
0.999961
0.999994
1.00001
1.00001
1.00001
1.00001
1.00001
1.00001
1
1
1
1
1
1
1
1
1
1
1
1
1
1
1
1
1
1
1
1
1
1
1
1
1
0.99988
0.999813
0.999444
0.998354
0.996089
0.992243
0.986428
0.978228
0.967217
0.953093
0.935828
0.915723
0.893385
0.869744
0.84607
0.823843
0.804532
0.78952
0.78011
0.777321
0.781396
0.791636
0.807024
0.826818
0.850208
0.875621
0.90079
0.923596
0.942792
0.958101
0.969888
0.978767
0.985343
0.990128
0.993536
0.995899
0.997487
0.998518
0.999163
0.999551
0.999776
0.9999
0.999964
0.999996
1.00001
1.00001
1.00001
1.00001
1.00001
1.00001
1
1
1
1
1
1
1
1
1
1
1
1
1
1
1
1
1
1
1
1
1
1
1
1
1
0.999859
0.999807
0.99954
0.998652
0.996671
0.993166
0.987758
0.980073
0.969732
0.95646
0.940221
0.921295
0.90028
0.878082
0.855904
0.835116
0.817051
0.802962
0.794097
0.791533
0.795604
0.805577
0.820285
0.838889
0.860668
0.88428
0.907694
0.928948
0.946854
0.961127
0.9721
0.980345
0.98644
0.990868
0.994019
0.996204
0.997673
0.998628
0.999226
0.999586
0.999794
0.999909
0.999969
0.999998
1.00001
1.00001
1.00001
1.00001
1.00001
1.00001
1
1
1
1
1
1
1
1
1
1
1
1
1
1
1
1
1
1
1
1
1
1
1
1
1
0.999845
0.999789
0.999605
0.998926
0.997272
0.994186
0.989285
0.982224
0.97268
0.960415
0.945395
0.927874
0.908416
0.887877
0.867392
0.848228
0.831592
0.818586
0.810351
0.808
0.811962
0.821511
0.83538
0.852663
0.8727
0.894333
0.915764
0.935213
0.951589
0.964632
0.974644
0.982154
0.987695
0.991716
0.994576
0.996557
0.99789
0.998757
0.9993
0.999627
0.999816
0.99992
0.999974
1
1.00001
1.00001
1.00001
1.00001
1.00001
1.00001
1
1
1
1
1
1
1
1
1
1
1
1
1
1
1
1
1
1
1
1
1
1
1
1
1
0.999845
0.999766
0.999635
0.999147
0.997841
0.995236
0.990928
0.984589
0.975943
0.964798
0.951132
0.935179
0.917448
0.89873
0.880075
0.862664
0.847594
0.835797
0.828283
0.826169
0.82996
0.838938
0.851794
0.867609
0.885786
0.905318
0.924612
0.942085
0.956772
0.96845
0.977402
0.984109
0.98905
0.992632
0.995178
0.996941
0.998127
0.998899
0.999382
0.999673
0.999841
0.999933
0.999981
1
1.00001
1.00001
1.00001
1.00001
1.00001
1.00001
1
1
1
1
1
1
1
1
1
1
1
1
1
1
1
1
1
1
1
1
1
1
1
1
1
0.999864
0.999752
0.999637
0.9993
0.998328
0.996236
0.99259
0.987058
0.979394
0.969445
0.957216
0.942924
0.927026
0.910226
0.893479
0.877895
0.864469
0.85396
0.847243
0.845422
0.849017
0.857302
0.86898
0.883191
0.899419
0.916777
0.933853
0.94926
0.962171
0.972414
0.980256
0.986125
0.990447
0.993577
0.9958
0.997338
0.998373
0.999045
0.999466
0.99972
0.999866
0.999946
0.999987
1.00001
1.00001
1.00001
1.00001
1.00001
1.00001
1.00001
1
1
1
1
1
1
1
1
1
1
1
1
1
1
1
1
1
1
1
1
1
1
1
1
1
0.999901
0.99976
0.999628
0.999385
0.9987
0.997112
0.994165
0.989504
0.982889
0.974191
0.963439
0.950847
0.936822
0.921973
0.907158
0.893423
0.881659
0.872459
0.866589
0.865123
0.868519
0.876005
0.886363
0.898869
0.913106
0.928278
0.943125
0.956449
0.967567
0.976365
0.983092
0.988125
0.99183
0.994513
0.996416
0.997732
0.998617
0.999191
0.99955
0.999767
0.999891
0.999958
0.999993
1.00001
1.00001
1.00001
1.00001
1.00001
1.00001
1.00001
1
1
1
1
1
1
1
1
1
1
1
1
1
1
1
1
1
1
1
1
1
1
1
1
1
0.999947
0.999796
0.999634
0.999425
0.998949
0.997804
0.995544
0.991786
0.986266
0.978857
0.969599
0.958707
0.946546
0.933625
0.920718
0.908812
0.898673
0.890746
0.885745
0.884678
0.88785
0.894434
0.903369
0.91413
0.926396
0.939429
0.9521
0.963393
0.972766
0.980161
0.985811
0.99004
0.993153
0.995406
0.997004
0.998109
0.99885
0.999331
0.999631
0.999811
0.999915
0.999971
0.999998
1.00001
1.00001
1.00001
1.00001
1.00001
1.00001
1.00001
1
1
1
1
1
1
1
1
1
1
1
1
1
1
1
1
1
1
1
1
1
1
1
1
1
0.999986
0.999854
0.999671
0.999457
0.999098
0.998296
0.99665
0.993766
0.989348
0.983241
0.975479
0.966271
0.955927
0.944874
0.933826
0.923694
0.91509
0.908364
0.904219
0.903541
0.906415
0.911995
0.919463
0.928519
0.938902
0.949902
0.960506
0.969875
0.977606
0.98369
0.988335
0.991814
0.994378
0.996234
0.997549
0.998457
0.999066
0.99946
0.999706
0.999853
0.999937
0.999982
1
1.00001
1.00001
1.00001
1.00001
1.00001
1.00001
1
1
1
1
1
1
1
1
1
1
1
1
1
1
1
1
1
1
1
1
1
1
1
1
1
1
1.00001
0.999914
0.999739
0.999513
0.9992
0.99862
0.997457
0.995348
0.991971
0.987137
0.98085
0.973286
0.96469
0.955425
0.946171
0.937722
0.930527
0.924905
0.921566
0.921197
0.923649
0.928157
0.934204
0.94168
0.950327
0.959443
0.968137
0.975739
0.981972
0.986867
0.990606
0.993409
0.995478
0.996976
0.998037
0.998769
0.999259
0.999576
0.999772
0.99989
0.999956
0.999991
1.00001
1.00001
1.00002
1.00001
1.00001
1.00001
1.00001
1
1
1
1
1
1
1
1
1
1
1
1
1
1
1
1
1
1
1
1
1
1
1
1
1
1
1.00001
0.999958
0.999819
0.999602
0.999306
0.998843
0.99801
0.996511
0.994035
0.990369
0.985482
0.979486
0.972541
0.964974
0.957427
0.950534
0.944601
0.93998
0.937354
0.937152
0.93906
0.942508
0.947285
0.953379
0.96048
0.967891
0.974858
0.980883
0.985792
0.989642
0.992588
0.994802
0.996438
0.997623
0.998463
0.999041
0.999427
0.999676
0.99983
0.999922
0.999973
1
1.00001
1.00002
1.00002
1.00001
1.00001
1.00001
1.00001
1
1
1
1
1
1
1
1
1
1
1
1
1
1
1
1
1
1
1
1
1
1
1
1
1
1
)
;

boundaryField
{
    emptyPatches_empt
    {
        type            empty;
    }
    top_cyc
    {
        type            cyclic;
    }
    bottom_cyc
    {
        type            cyclic;
    }
    inlet_cyc
    {
        type            cyclic;
    }
    outlet_cyc
    {
        type            cyclic;
    }
    procBoundary3to1
    {
        type            processor;
        value           nonuniform List<scalar> 
75
(
1.00001
0.999981
0.999887
0.999706
0.999434
0.999037
0.998404
0.997326
0.995548
0.99287
0.989228
0.984644
0.979205
0.973226
0.967266
0.961758
0.956935
0.953214
0.951177
0.950988
0.952306
0.954831
0.958577
0.963518
0.969263
0.97516
0.980608
0.985263
0.989039
0.992001
0.994273
0.995986
0.997254
0.998173
0.998823
0.999271
0.999569
0.99976
0.999879
0.999948
0.999986
1.00001
1.00001
1.00002
1.00001
1.00001
1.00001
1.00001
1.00001
1
1
1
1
1
1
1
1
1
1
1
1
1
1
1
1
1
1
1
1
1
1
1
1
1
1
)
;
    }
    procBoundary3to1throughtop_cyc
    {
        type            processorCyclic;
        value           nonuniform List<scalar> 
75
(
1
1
1
1
1
1
1
1
1
1
1
1
1
1
1
1
1
1
1
1
1
1
1
1
1
1
1
1
1
1
1
1
1
1
1
1
1
1
1
1
1
1
1
1
1
1
1
1
1
1
1
1
1
1
1
1
1
1
1
1
1
1
1
1
1
1
1
1
1
1
1
1
1
1
1
)
;
    }
    procBoundary3to2
    {
        type            processor;
        value           nonuniform List<scalar> 
75
(
1
1
1
1
1
1
1
1
1
1
1
1
1
1
1
1
1
1
1
1
1
1
1
1
1
1
1
1
1
1
1.00001
1.00001
1.00001
1.00001
1.00001
1.00001
1.00002
1.00002
1.00002
1.00002
1.00003
1.00003
1.00003
1.00003
1.00003
1.00003
1.00003
1.00002
1.00002
1.00002
1.00001
1.00001
1.00001
1
1
0.999996
0.999993
0.999989
0.999985
0.999978
0.99997
0.999959
0.999947
0.999934
0.999922
0.999914
0.999916
0.99993
0.999954
0.999984
1.00001
1.00003
1.00003
1.00003
1.00002
)
;
    }
    procBoundary3to2throughoutlet_cyc
    {
        type            processorCyclic;
        value           nonuniform List<scalar> 
75
(
1
1
1
1
1
1
1
1
1
1
1
1
1
1
1
1
1
1
1
1
1
1
1
1
1
1
1
1
1
1
1
1
1
1
1
1
1
1
1
1
1
1
1
1
1
1
1
1
1
1
1
1
1
1
1
1
1
1
1
1
1
1
1
1
1
1
1
1
1
1
1
1
1
1
1
)
;
    }
}


// ************************************************************************* //
