/*--------------------------------*- C++ -*----------------------------------*\
  =========                 |
  \\      /  F ield         | OpenFOAM: The Open Source CFD Toolbox
   \\    /   O peration     | Website:  https://openfoam.org
    \\  /    A nd           | Version:  6
     \\/     M anipulation  |
\*---------------------------------------------------------------------------*/
FoamFile
{
    version     2.0;
    format      ascii;
    class       volScalarField;
    location    "200";
    object      epsilon;
}
// * * * * * * * * * * * * * * * * * * * * * * * * * * * * * * * * * * * * * //

dimensions      [0 2 -3 0 0 0 0];

internalField   nonuniform List<scalar> 
1600
(
8.73256e-05
0.000102734
0.000124048
0.000139496
0.000155933
0.000166744
0.000180607
0.000197849
0.000222234
0.000249172
0.000279937
0.000310355
0.000340265
0.000364137
0.000383633
0.000397264
0.000409712
0.000421353
0.000436352
0.000452827
0.000473938
0.000494778
0.00051877
0.000540553
0.000563482
0.00058403
0.000601659
0.000617928
0.000629767
0.000641924
0.000650913
0.000656181
0.000659166
0.000661826
0.000668348
0.000684984
0.000795379
0.00131445
0.00199986
0.00249639
0.00293119
0.00322134
0.00342512
0.00360062
0.0037504
0.00393058
0.00398332
0.00402361
0.00402525
0.00403428
8.76323e-05
0.000102149
0.000122938
0.000138882
0.000154914
0.000165797
0.00017933
0.000197006
0.000221621
0.000249152
0.000280607
0.000311129
0.000339995
0.000362893
0.000382265
0.000395859
0.000408307
0.000420406
0.000435661
0.000452224
0.000473372
0.000494282
0.000518323
0.000540121
0.000562938
0.000583049
0.000600777
0.000616907
0.000628501
0.000640829
0.000649923
0.00065509
0.000658148
0.000660896
0.000667431
0.000684792
0.000809089
0.00129448
0.00197527
0.0024886
0.00293565
0.00321538
0.00342368
0.00359847
0.0037465
0.00392753
0.0039668
0.00401591
0.00401851
0.00402655
8.76883e-05
0.000101959
0.00012197
0.00013864
0.00015477
0.000165972
0.000179586
0.000196808
0.000221372
0.000248094
0.000279714
0.000311045
0.000340628
0.000363602
0.000382558
0.000395786
0.000407916
0.000419846
0.000435166
0.000451851
0.000473066
0.000494041
0.000518156
0.000540047
0.000563033
0.00058339
0.000600758
0.000616802
0.000628349
0.000640425
0.00064963
0.000654558
0.000657527
0.000660543
0.00066791
0.000684628
0.000811766
0.00128026
0.0019494
0.00247722
0.00293765
0.00321406
0.00342003
0.00359444
0.00374058
0.00392357
0.00395353
0.00400752
0.00401137
0.00401939
8.7591e-05
0.000102754
0.000121118
0.000137122
0.000153711
0.000164735
0.000178508
0.000195513
0.000221041
0.000248003
0.000279157
0.000310572
0.000339595
0.000363013
0.000381861
0.000395103
0.000407153
0.000418867
0.00043415
0.000450784
0.000471918
0.00049279
0.000516868
0.00053878
0.000561857
0.00058239
0.000599828
0.000615866
0.000627444
0.000638943
0.000648973
0.000654034
0.000656853
0.000659497
0.00066595
0.000684477
0.000805079
0.00129654
0.00193893
0.00246281
0.00291158
0.00320312
0.0034102
0.00358574
0.00373225
0.00391624
0.00395134
0.00400116
0.00400548
0.00401446
8.72408e-05
0.000103193
0.000123208
0.000137468
0.00015382
0.000164299
0.000177644
0.000194012
0.000218729
0.000246639
0.000278104
0.000309994
0.000340085
0.000363022
0.000381839
0.000394904
0.000406793
0.000418141
0.000433318
0.000450013
0.000471081
0.000491855
0.000515846
0.000537685
0.000560832
0.00058141
0.000598891
0.000615144
0.000627149
0.000638939
0.000649132
0.000654279
0.000657083
0.000659834
0.0006664
0.000685289
0.000804102
0.0013203
0.00198718
0.00248173
0.00290931
0.00320467
0.00341294
0.00359027
0.00373961
0.00392202
0.00397316
0.00401313
0.00401541
0.00402558
8.64865e-05
8.753e-05
9.02467e-05
9.66951e-05
0.000105306
0.000110594
0.000113548
0.0001194
0.000126766
0.00013412
0.000144096
0.000159124
0.000174019
0.000190007
0.000211761
0.00023213
0.000257255
0.000281525
0.000310758
0.000341644
0.000375206
0.000406385
0.000438227
0.000470456
0.000501737
0.000534975
0.000565224
0.000594704
0.000620358
0.000645646
0.00066691
0.000688585
0.000706591
0.00072238
0.000733972
0.000744676
0.000772357
0.000833022
0.000976524
0.00119224
0.00140899
0.00164238
0.00182274
0.00199408
0.00214554
0.00228329
0.00239638
0.00242155
0.00249465
0.00258962
8.64801e-05
8.7207e-05
8.97667e-05
9.40697e-05
0.000100213
0.000106652
0.00011364
0.000120402
0.000130756
0.000137379
0.000145301
0.000154648
0.000173525
0.000190948
0.00021203
0.000233498
0.000260215
0.000284721
0.000312095
0.00034046
0.000373435
0.000406399
0.000439282
0.000470933
0.000501565
0.00053335
0.000562729
0.000593676
0.000621503
0.000648016
0.000669672
0.000691659
0.000707921
0.000723142
0.00073567
0.000747432
0.000766278
0.000807909
0.000949656
0.00117302
0.00138727
0.00161281
0.00183374
0.00200064
0.00215024
0.00228458
0.00239495
0.00242319
0.00249743
0.00258192
8.64636e-05
8.72291e-05
8.98909e-05
9.42577e-05
9.99508e-05
0.000107664
0.000114039
0.000118895
0.000126381
0.000135824
0.000146606
0.000155983
0.000169494
0.000186429
0.000209154
0.000231815
0.000258856
0.000283985
0.000312281
0.000340564
0.000372201
0.000404329
0.000437543
0.000470367
0.000501344
0.000533011
0.000561439
0.000590724
0.000617611
0.000644168
0.000666617
0.00068898
0.000706826
0.000721976
0.000734589
0.000745986
0.000768264
0.000825178
0.000944435
0.00116682
0.00139975
0.00163254
0.00185075
0.00201847
0.00213798
0.00229412
0.00239428
0.00242144
0.00250216
0.00258901
8.65228e-05
8.7463e-05
9.04365e-05
9.48832e-05
9.89923e-05
0.000104269
0.00011534
0.000124585
0.000128914
0.000138017
0.00014811
0.000158354
0.000172606
0.000187945
0.000208493
0.000229658
0.00025692
0.000285651
0.000315917
0.00034521
0.000377179
0.000408872
0.000442552
0.000476205
0.000508178
0.000539933
0.000567738
0.000595972
0.000621856
0.000647951
0.000671073
0.00069292
0.000712284
0.00072601
0.000738269
0.000750898
0.000783561
0.000819267
0.000971767
0.00119141
0.00141727
0.00160989
0.00183058
0.00200718
0.00213693
0.00229794
0.00239994
0.00241865
0.00249977
0.00258738
8.64665e-05
8.74239e-05
9.15654e-05
9.82728e-05
0.000102708
0.000106876
0.000112334
0.000120053
0.00012714
0.00013387
0.00014763
0.000158268
0.000172983
0.000188119
0.000208514
0.000229735
0.000255738
0.000282487
0.000313988
0.000342917
0.000373935
0.000404834
0.000437088
0.000469889
0.00050154
0.000533961
0.00056273
0.000591406
0.000616964
0.000642155
0.000664655
0.000686289
0.000705016
0.000720293
0.000732368
0.000743131
0.000766511
0.000816859
0.000964827
0.00117648
0.00139956
0.00160767
0.00184195
0.00200651
0.00214014
0.00228578
0.00239708
0.00243175
0.00249935
0.00258915
0.000106978
0.000116361
0.00014126
0.000180338
0.000214763
0.000245624
0.000280788
0.000356793
0.000429523
0.000513763
0.000602011
0.000726952
0.000891557
0.00109364
0.00123858
0.00134023
0.00144154
0.00153774
0.00163792
0.00175137
0.00185201
0.00192651
0.00197606
0.0020177
0.00205745
0.00209274
0.00211716
0.00213217
0.00212663
0.00211497
0.00209022
0.00207343
0.00204181
0.00202241
0.00198518
0.00195675
0.00191474
0.00189488
0.00185684
0.00186482
0.00187438
0.00186724
0.00189042
0.00193391
0.00196833
0.00203922
0.00211146
0.00216367
0.00217717
0.00223219
0.000106072
0.000112674
0.000127771
0.000164636
0.000206687
0.000249336
0.00028635
0.000347153
0.000434141
0.000527505
0.000616039
0.000714807
0.000826758
0.000980345
0.00117935
0.00134577
0.00146382
0.00155795
0.00163901
0.00171686
0.0018044
0.00189214
0.00196103
0.00200566
0.00203227
0.00205587
0.00207255
0.00209092
0.00210514
0.00210329
0.00209034
0.00207364
0.0020391
0.00201566
0.00197582
0.00194051
0.00189957
0.00186408
0.00184468
0.00182878
0.00183928
0.00187597
0.00191603
0.00196699
0.00199596
0.00208308
0.00209854
0.00213507
0.00213742
0.00219084
0.000106421
0.00011285
0.000124847
0.000149688
0.000200303
0.000249875
0.000283666
0.000335381
0.000396554
0.000514054
0.000620593
0.000742224
0.000848612
0.000959172
0.0010918
0.00125677
0.00140365
0.00152532
0.00162626
0.00171041
0.0017834
0.00185698
0.00192529
0.00198197
0.00201842
0.0020421
0.00205313
0.00205711
0.00206202
0.00206046
0.00205264
0.00204214
0.00201822
0.0019993
0.00196648
0.00193528
0.00189828
0.00186434
0.00182993
0.00181953
0.00180953
0.00182947
0.00186809
0.00191622
0.00196105
0.00202162
0.00208704
0.00215088
0.00216702
0.00221633
0.00010604
0.000113551
0.000126227
0.000143608
0.000173951
0.000239766
0.000301972
0.000372155
0.000413676
0.000500999
0.000623797
0.000771983
0.000912113
0.00101473
0.00110564
0.00123497
0.00138147
0.00153244
0.00165442
0.0017497
0.00181887
0.00187885
0.00193802
0.00199634
0.00203895
0.002065
0.00207759
0.00207524
0.00206992
0.00206401
0.00205337
0.00204273
0.00202067
0.00200261
0.00196967
0.00194276
0.00190845
0.00188351
0.00184602
0.00183854
0.00183209
0.00185108
0.00189583
0.00194503
0.00200376
0.00206554
0.00210396
0.00211324
0.00213385
0.00218952
0.000106184
0.000115458
0.000132808
0.000152641
0.000169762
0.000205084
0.000254033
0.000333098
0.000395279
0.00047408
0.000569427
0.000704459
0.000849091
0.00099936
0.00110847
0.00121771
0.00132738
0.0014488
0.00156974
0.00167878
0.00176756
0.00183736
0.00189358
0.00194563
0.00198968
0.00202411
0.00204578
0.00205568
0.00205216
0.00204458
0.00202846
0.00201563
0.00198948
0.00197213
0.00193818
0.00191195
0.00187535
0.00185328
0.00181973
0.00182004
0.0018173
0.00182321
0.00185861
0.00190934
0.0019589
0.00203379
0.00208282
0.00211903
0.00214082
0.00219565
0.000165934
0.000295618
0.000437196
0.000649422
0.000955248
0.0013047
0.00170754
0.0021713
0.00268515
0.00320319
0.00363962
0.00399329
0.00433643
0.0046176
0.00482229
0.00494842
0.00501209
0.00506501
0.00511604
0.00518207
0.00522071
0.00522859
0.00521052
0.00517038
0.00510506
0.00501967
0.00492245
0.00481561
0.00470395
0.00459052
0.00447861
0.00436891
0.00425995
0.00415086
0.00404502
0.00393532
0.00383174
0.00373118
0.00362954
0.00353018
0.00343878
0.0033505
0.00326855
0.00320117
0.00314868
0.00310975
0.00307234
0.0030295
0.00297727
0.00290137
0.00022021
0.000411555
0.000751561
0.0010475
0.00137101
0.00176895
0.0022096
0.00264347
0.00315782
0.00359464
0.00408379
0.00439623
0.00465632
0.00490531
0.00517752
0.00538875
0.00549515
0.0055381
0.0055422
0.00555067
0.00555279
0.00554268
0.00551809
0.00548058
0.00542685
0.00535223
0.00525803
0.00515008
0.00502938
0.00490657
0.00478245
0.00465657
0.00453124
0.00440608
0.00428671
0.00416432
0.00404997
0.00394147
0.00383382
0.00373346
0.00364511
0.00357532
0.00351387
0.00345876
0.00340001
0.00335381
0.00331093
0.00326321
0.00320242
0.00303803
0.000229556
0.000355512
0.000643755
0.000958634
0.00129079
0.00166143
0.00209575
0.00254092
0.00301701
0.00353561
0.00398259
0.0043719
0.00465975
0.00485669
0.00502717
0.00519944
0.00535082
0.00545323
0.00549463
0.00551052
0.00550481
0.00548648
0.00544588
0.00538912
0.00531872
0.00523919
0.00514691
0.00505032
0.00494271
0.00483184
0.0047179
0.00460348
0.00448871
0.00437582
0.00426499
0.00414978
0.00403662
0.00392503
0.00381273
0.00370081
0.00359983
0.00350718
0.00343548
0.00337385
0.00332186
0.00327659
0.00322983
0.00318778
0.00313037
0.00296314
0.000232119
0.000326121
0.000516717
0.000877007
0.00125046
0.00168943
0.00220584
0.00270623
0.00317361
0.0036542
0.00409739
0.00448601
0.00478318
0.00498527
0.00513852
0.00527012
0.0054165
0.00554378
0.00559381
0.00560433
0.00560034
0.0055841
0.00554038
0.00546996
0.00538366
0.0052907
0.00518734
0.00508645
0.00497746
0.00486409
0.00474885
0.00463229
0.00451875
0.00440252
0.00429514
0.00418285
0.00407312
0.00396366
0.00384953
0.00373891
0.00363308
0.00352766
0.00344835
0.00338306
0.00333427
0.00329169
0.0032444
0.00319881
0.00313958
0.00296553
0.000240412
0.000336242
0.000470932
0.0007445
0.00109531
0.00147156
0.00191521
0.00243733
0.00297037
0.00349539
0.00392773
0.00434515
0.00469393
0.00492235
0.00507558
0.00518095
0.00526189
0.00538237
0.0054924
0.00554967
0.00556265
0.00555759
0.00553621
0.00548443
0.00539287
0.00529147
0.00517379
0.00505672
0.00493937
0.00482685
0.00471298
0.00460488
0.00448371
0.00437988
0.00426506
0.00415883
0.00405522
0.00395409
0.0038486
0.00374197
0.00363641
0.00353089
0.00343522
0.00336782
0.0033064
0.00326541
0.00321735
0.00317456
0.00311965
0.00294343
0.00476302
0.00494878
0.0051059
0.00516373
0.00519011
0.00523925
0.00535477
0.00552467
0.00570346
0.00594086
0.00623829
0.00645255
0.00662457
0.00668552
0.00673137
0.00682268
0.00694735
0.00715063
0.00730601
0.0074163
0.00748056
0.00752427
0.00754407
0.00754109
0.00752522
0.00749085
0.00742684
0.00736785
0.00729489
0.00723363
0.00715126
0.00708101
0.00699294
0.00691381
0.00682316
0.00673212
0.00663311
0.00653791
0.00643331
0.00633228
0.00622827
0.0061364
0.00604873
0.00598266
0.005913
0.00586812
0.00581355
0.00578381
0.00572654
0.0057444
0.00477294
0.00492188
0.00502855
0.00513784
0.00519155
0.00521812
0.00528202
0.0054199
0.00555431
0.00575093
0.00598804
0.00628485
0.00656178
0.0067838
0.00687471
0.00693149
0.00693698
0.00698984
0.00710992
0.0072427
0.00733082
0.00739307
0.00743211
0.00745411
0.00745224
0.00743668
0.00739282
0.00732873
0.00723876
0.00716617
0.00707686
0.00700035
0.00690831
0.00682754
0.00674198
0.00665656
0.00656923
0.00648558
0.00639548
0.00630632
0.00620858
0.00611914
0.0060247
0.005952
0.00587717
0.0058269
0.00576885
0.00574082
0.00568738
0.00570978
0.00477705
0.00494013
0.00503124
0.00512514
0.00519728
0.00524623
0.00528276
0.00536743
0.00547167
0.00562733
0.00581883
0.00606475
0.00632072
0.00657924
0.00678936
0.00691074
0.0069939
0.00699941
0.00703131
0.00710618
0.00718294
0.00724837
0.00729076
0.00732218
0.00732517
0.0073188
0.00730089
0.00726811
0.0072001
0.00713104
0.00704108
0.00695554
0.00685826
0.00677192
0.00668289
0.00659535
0.00650495
0.00642346
0.00633365
0.00625554
0.00616699
0.0060919
0.00600484
0.0059367
0.0058618
0.00580932
0.00574752
0.00572044
0.00565721
0.00567853
0.00477467
0.00494985
0.00504324
0.00510605
0.00516963
0.0052453
0.00527505
0.005342
0.00545085
0.00562067
0.00573684
0.00592031
0.0061374
0.0063668
0.0065985
0.00678697
0.0069514
0.00703302
0.0070394
0.00705896
0.00709448
0.00713946
0.00717164
0.00720225
0.00720928
0.00720558
0.00719204
0.00716768
0.00711667
0.00706023
0.00698145
0.00690928
0.00681584
0.00672631
0.00663421
0.00654605
0.00645234
0.00637098
0.00627994
0.00620299
0.00611637
0.00604517
0.0059644
0.0059025
0.00583325
0.00578337
0.00572317
0.00569705
0.00563044
0.00564996
0.00478157
0.00496086
0.00506382
0.00512619
0.00516171
0.00522848
0.00532013
0.00534968
0.00541042
0.00555337
0.00567104
0.00571758
0.00579223
0.00592601
0.00616875
0.00637671
0.00665017
0.0068553
0.00695712
0.00699245
0.00699932
0.0070098
0.00701045
0.00700893
0.00699919
0.00697642
0.00695255
0.00693617
0.00690938
0.00688072
0.00682672
0.00677877
0.00670459
0.00663379
0.00654409
0.00645675
0.00635884
0.00626824
0.00616995
0.00608518
0.00599948
0.00593198
0.00586598
0.00581442
0.00576122
0.00572346
0.00567528
0.00565312
0.00559217
0.00560945
0.000202738
0.000138447
0.000160269
0.000206087
0.000264341
0.00023371
0.000609921
0.000331002
0.000206837
0.000277882
0.000396818
0.000501762
0.000740022
0.00108434
0.000472677
0.000326742
0.000407238
0.000637256
0.000677706
0.0013129
0.0015263
0.000712138
0.00048428
0.000628279
0.00087125
0.000928006
0.00168072
0.00177028
0.00103189
0.000743771
0.000929152
0.00119328
0.00125495
0.00197366
0.00211346
0.00138731
0.00106214
0.00125609
0.00156679
0.00166017
0.00235647
0.00250768
0.00180384
0.00140985
0.00163015
0.00204415
0.00214894
0.00281771
0.00301414
0.00228473
0.00180821
0.00207834
0.0025841
0.00270763
0.00331284
0.00357569
0.00281059
0.00227448
0.0025779
0.00314999
0.0032711
0.0038255
0.00409903
0.00331725
0.00277363
0.00305518
0.00369415
0.00380312
0.00433738
0.00457592
0.00373
0.00321837
0.00344501
0.00415381
0.00423806
0.00477351
0.00496698
0.00407953
0.00357418
0.00377312
0.00454816
0.00463187
0.00512687
0.00529068
0.00441823
0.00390126
0.00409892
0.00489972
0.00497062
0.0054354
0.00559648
0.00468558
0.00419834
0.00436845
0.00515126
0.00519869
0.00569458
0.0058187
0.0048727
0.00444015
0.00456551
0.00531381
0.00534344
0.0058544
0.00592362
0.00496753
0.00460665
0.00466422
0.00541679
0.00543306
0.00593492
0.0059634
0.00502688
0.00468399
0.0047243
0.00548557
0.00549832
0.00597161
0.00599635
0.00507473
0.0047438
0.00476313
0.00556533
0.00558143
0.00599826
0.00600831
0.00513758
0.00477834
0.00481256
0.00565161
0.00566985
0.00603205
0.00606125
0.00521116
0.00483147
0.0048783
0.0057152
0.00572797
0.0060884
0.00611896
0.00523471
0.00488474
0.00490488
0.00573563
0.00573644
0.00612837
0.00613237
0.00522746
0.00490288
0.00490224
0.00572987
0.00572518
0.0061308
0.00612182
0.00520333
0.00489412
0.00488107
0.00570737
0.00569927
0.00611408
0.006095
0.00515717
0.00486324
0.00483894
0.0056625
0.00564797
0.00607811
0.00604667
0.005085
0.00481225
0.00477517
0.00558429
0.00556166
0.00601319
0.00596948
0.00499658
0.00474131
0.00469713
0.00548286
0.00545726
0.00591778
0.00586373
0.0048958
0.00465836
0.00460762
0.00536678
0.00533708
0.00580308
0.00574155
0.00478719
0.00456507
0.00451002
0.00524192
0.0052116
0.00567392
0.00560602
0.00467387
0.0044652
0.00440525
0.00511592
0.00508491
0.00553942
0.00546716
0.00456186
0.0043593
0.00430015
0.0049934
0.00496474
0.00540497
0.00533807
0.00444903
0.00425455
0.00419318
0.00487294
0.00484338
0.00527746
0.00520845
0.00434095
0.00414869
0.00409036
0.00475692
0.00472943
0.00515282
0.00508863
0.00422975
0.00404585
0.00398497
0.00463857
0.00460813
0.00503531
0.00496915
0.00412318
0.00394134
0.00388388
0.00452371
0.0044972
0.0049143
0.00485146
0.00401504
0.00384139
0.00378012
0.00441161
0.00438244
0.00480254
0.00473819
0.00390706
0.00373627
0.00367709
0.00429816
0.00427141
0.00468367
0.00462023
0.00380448
0.00363552
0.00357867
0.00419246
0.00416654
0.00457197
0.00451491
0.00370502
0.00353892
0.00348429
0.00408859
0.00406315
0.00446614
0.0044109
0.003603
0.00344246
0.00338886
0.00398361
0.00395786
0.00436082
0.00430849
0.00350587
0.00334994
0.0033026
0.00387657
0.00385104
0.00425742
0.00420799
0.00341509
0.00326655
0.00322431
0.00377212
0.00374666
0.00415835
0.00411102
0.00332744
0.00319004
0.00315142
0.00366743
0.00364195
0.00405942
0.00401346
0.00324796
0.00312059
0.00308605
0.00357063
0.00354789
0.00396545
0.00392099
0.0031861
0.00306106
0.00303473
0.0034919
0.00347523
0.00387724
0.00383831
0.00313648
0.00301353
0.00299339
0.00342883
0.00341557
0.00380652
0.00377838
0.00309682
0.00297906
0.00296531
0.0033802
0.00336619
0.00375092
0.00372708
0.00305792
0.00295061
0.00293338
0.0033364
0.00332054
0.00370079
0.00367384
0.0030141
0.00291674
0.0028948
0.00329071
0.0032717
0.00364766
0.00361537
0.00295536
0.00287542
0.00283722
0.00323879
0.00321713
0.00358788
0.00352807
0.00281033
0.00283348
0.00271872
0.00314252
0.00304557
0.00349752
0.00334978
)
;

boundaryField
{
    inlet
    {
        type            turbulentMixingLengthDissipationRateInlet;
        mixingLength    0.5;
        phi             phi;
        k               k;
        value           nonuniform List<scalar> 
28
(
7.7439e-05
7.7439e-05
7.7439e-05
7.7439e-05
7.7439e-05
8.64043e-05
8.64044e-05
8.64044e-05
8.64044e-05
8.64043e-05
0.000105523
0.000105523
0.000105523
0.000105523
0.000105523
0.000127423
0.000136503
0.000136503
0.000136503
0.000136503
0.000181748
0.000181748
0.000181748
0.000181748
0.000181748
0.000146411
0.000146411
0.000127423
)
;
    }
    outlet
    {
        type            inletOutlet;
        inletValue      uniform 1;
        value           nonuniform List<scalar> 
28
(
0.00403428
0.00402655
0.00401939
0.00401446
0.00402558
0.00258962
0.00258192
0.00258901
0.00258738
0.00258915
0.00223219
0.00219084
0.00221633
0.00218952
0.00219565
0.00281033
0.00303803
0.00296314
0.00296553
0.00294343
0.0057444
0.00570978
0.00567853
0.00564996
0.00560945
0.00271872
0.00334978
0.00304557
)
;
    }
    side1
    {
        type            cyclicAMI;
        value           nonuniform List<scalar> 
400
(
8.72832e-05
8.64765e-05
0.000106581
0.000189647
0.00477229
0.000102964
8.7477e-05
0.000115909
0.000308552
0.00495482
0.000123628
9.0906e-05
0.000137034
0.000447937
0.00508486
0.000138482
9.7484e-05
0.000166489
0.000679694
0.00514496
0.000154877
0.000104007
0.000192263
0.000999843
0.00517591
0.000165522
0.000108735
0.000225354
0.00135782
0.00523386
0.000179126
0.000112941
0.000267411
0.00177366
0.00533745
0.00019593
0.000119726
0.000344945
0.002256
0.00543717
0.000220481
0.000126953
0.000412401
0.00277596
0.00555694
0.000247906
0.000133995
0.000493922
0.00329622
0.00574711
0.00027902
0.000145863
0.000585719
0.00373135
0.00595467
0.000310175
0.000158696
0.000715706
0.00410532
0.00608506
0.000340175
0.000173501
0.000870324
0.00445026
0.0062084
0.000363579
0.000189063
0.0010465
0.00471463
0.00630576
0.000382736
0.000210137
0.00117352
0.00490294
0.00645006
0.000396084
0.000230933
0.00127897
0.00502245
0.0065997
0.000408253
0.000256497
0.00138446
0.00509162
0.00679876
0.000419747
0.000282006
0.00149327
0.00516606
0.00700296
0.000434835
0.000312373
0.00160383
0.00523587
0.00713157
0.00045142
0.00034228
0.00171507
0.00529912
0.00720437
0.00047251
0.00037457
0.00180979
0.00532958
0.00723994
0.000493316
0.00040561
0.00188193
0.00533334
0.00726704
0.000517308
0.000437658
0.00193482
0.00531422
0.00727726
0.000539119
0.000470172
0.00198167
0.00527037
0.00727501
0.000562157
0.000501638
0.00202356
0.00519669
0.00726221
0.00058272
0.000534468
0.00205842
0.00510621
0.00723364
0.000600275
0.000563977
0.00208147
0.00500248
0.00718969
0.000616536
0.000593055
0.00209393
0.00489238
0.00715201
0.000628458
0.000618661
0.0020894
0.00477891
0.00710214
0.000640431
0.0006439
0.00207977
0.00466577
0.00705718
0.000650022
0.000665783
0.00205934
0.00455323
0.00698899
0.00065523
0.000687437
0.00204453
0.00444404
0.00692989
0.000658124
0.000705803
0.00201565
0.0043312
0.00684877
0.00066083
0.000721336
0.00199727
0.00422378
0.0067738
0.000667374
0.00073317
0.00196168
0.00411508
0.00668362
0.000685137
0.000743903
0.00193435
0.00400649
0.00659443
0.00079974
0.000769434
0.00189504
0.00390289
0.00649597
0.00131738
0.00082494
0.00187408
0.00380216
0.00640308
0.00199352
0.000970675
0.00183828
0.00369929
0.00630163
0.00248906
0.00118436
0.00184243
0.00359761
0.00620873
0.00292025
0.00140427
0.00184584
0.0035017
0.00611387
0.00321301
0.00162503
0.00184523
0.00340793
0.00603419
0.00341903
0.00183235
0.00187452
0.00332162
0.00595735
0.00359545
0.00200029
0.00192163
0.00325423
0.00589854
0.003745
0.00214284
0.00196362
0.00319889
0.00583711
0.0039263
0.00228454
0.00203651
0.00315931
0.00579579
0.00397824
0.00239673
0.00209714
0.00311851
0.00574442
0.00401837
0.00242665
0.00214135
0.00307569
0.00571847
0.00402033
0.002497
0.00215899
0.0030226
0.00565935
0.00402993
0.00258938
0.00221392
0.00291476
0.00567692
0.000214733
0.000256053
0.000217976
0.00033267
0.000444432
0.000375837
0.000472121
0.000606088
0.000579648
0.000722442
0.000864447
0.000827349
0.00105208
0.00119966
0.00115935
0.00141413
0.00159484
0.00153381
0.0018393
0.00206798
0.00199949
0.00233332
0.00261401
0.00253327
0.00286147
0.00316694
0.00308778
0.00337397
0.00369654
0.00362531
0.00379295
0.00413057
0.0040755
0.0041641
0.00453256
0.00447785
0.00450601
0.00487479
0.00482844
0.00476097
0.00510298
0.00507198
0.0049373
0.00525067
0.00523129
0.00503548
0.00534574
0.0053351
0.00510171
0.00541643
0.0054081
0.00517268
0.00551249
0.00550196
0.00525055
0.00560839
0.00559647
0.00531894
0.00566622
0.00565787
0.00533912
0.00567624
0.00567572
0.00533257
0.00566713
0.0056702
0.00530931
0.00564279
0.00564809
0.00526137
0.00559133
0.00560082
0.00518303
0.0055032
0.00551799
0.00509047
0.00539984
0.00541657
0.00498431
0.00528052
0.00529993
0.004873
0.00515796
0.00517777
0.00475841
0.0050345
0.00505477
0.00464623
0.00491698
0.00493571
0.00453307
0.00479821
0.00481753
0.00442498
0.00468629
0.00470426
0.00431061
0.00456504
0.00458493
0.00420491
0.00445657
0.0044739
0.00409465
0.00434178
0.00436085
0.00398722
0.00423242
0.0042499
0.00388432
0.00412798
0.00414492
0.00378432
0.00402538
0.00404201
0.0036812
0.00392002
0.00393685
0.00358104
0.00381326
0.00382995
0.00348555
0.00370847
0.00372511
0.00339221
0.00360348
0.00362013
0.00330758
0.00350887
0.00352373
0.00324396
0.00343802
0.00344892
0.00319058
0.00337775
0.00338642
0.0031505
0.00333128
0.00334044
0.00310868
0.0032848
0.00329516
0.00306519
0.00323805
0.00325048
0.00300767
0.00318337
0.00319753
0.00285271
0.00301019
0.00307356
)
;
    }
    side2
    {
        type            cyclicAMI;
        value           nonuniform List<scalar> 
250
(
8.72832e-05
8.64765e-05
0.000106581
0.000219967
0.00477229
0.000102964
8.7477e-05
0.000115909
0.00036631
0.00495482
0.000123628
9.0906e-05
0.000137034
0.00052784
0.00508486
0.000138482
9.7484e-05
0.000166489
0.000775
0.00514496
0.000154877
0.000104007
0.000192263
0.00110434
0.00517591
0.000165522
0.000108735
0.000225354
0.00147702
0.00523386
0.000179126
0.000112941
0.000267411
0.00192249
0.00533745
0.00019593
0.000119726
0.000344945
0.00243707
0.00543717
0.000220481
0.000126953
0.000412401
0.00297627
0.00555694
0.000247906
0.000133995
0.000493922
0.00350142
0.00574711
0.00027902
0.000145863
0.000585719
0.00393617
0.00595467
0.000310175
0.000158696
0.000715706
0.00432384
0.00608506
0.000340175
0.000173501
0.000870324
0.00466879
0.0062084
0.000363579
0.000189063
0.0010465
0.0049163
0.00630576
0.000382736
0.000210137
0.00117352
0.00508391
0.00645006
0.000396084
0.000230933
0.00127897
0.00518796
0.0065997
0.000408253
0.000256497
0.00138446
0.00525777
0.00679876
0.000419747
0.000282006
0.00149327
0.00534183
0.00700296
0.000434835
0.000312373
0.00160383
0.00542658
0.00713157
0.00045142
0.00034228
0.00171507
0.00548923
0.00720437
0.00047251
0.00037457
0.00180979
0.00550874
0.00723994
0.000493316
0.00040561
0.00188193
0.00550433
0.00726704
0.000517308
0.000437658
0.00193482
0.0054821
0.00727726
0.000539119
0.000470172
0.00198167
0.00543443
0.00727501
0.000562157
0.000501638
0.00202356
0.00535359
0.00726221
0.00058272
0.000534468
0.00205842
0.00525652
0.00723364
0.000600275
0.000563977
0.00208147
0.00514492
0.00718969
0.000616536
0.000593055
0.00209393
0.00502826
0.00715201
0.000628458
0.000618661
0.0020894
0.00490954
0.00710214
0.000640431
0.0006439
0.00207977
0.00479401
0.00705718
0.000650022
0.000665783
0.00205934
0.00467828
0.00698899
0.00065523
0.000687437
0.00204453
0.00456762
0.00692989
0.000658124
0.000705803
0.00201565
0.0044506
0.00684877
0.00066083
0.000721336
0.00199727
0.00434242
0.0067738
0.000667374
0.00073317
0.00196168
0.00423067
0.00668362
0.000685137
0.000743903
0.00193435
0.00412157
0.00659443
0.00079974
0.000769434
0.00189504
0.00401757
0.00649597
0.00131738
0.00082494
0.00187408
0.00391598
0.00640308
0.00199352
0.000970675
0.00183828
0.00381183
0.00630163
0.00248906
0.00118436
0.00184243
0.0037079
0.00620873
0.00292025
0.00140427
0.00184584
0.00360755
0.00611387
0.00321301
0.00162503
0.00184523
0.00350816
0.00603419
0.00341903
0.00183235
0.00187452
0.00341756
0.00595735
0.00359545
0.00200029
0.00192163
0.00334832
0.00589854
0.003745
0.00214284
0.00196362
0.00329038
0.00583711
0.0039263
0.00228454
0.00203651
0.00324728
0.00579579
0.00397824
0.00239673
0.00209714
0.00320363
0.00574442
0.00401837
0.00242665
0.00214135
0.00315917
0.00571847
0.00402033
0.002497
0.00215899
0.00310463
0.00565935
0.00402993
0.00258938
0.00221392
0.00296446
0.00567692
)
;
    }
    walls
    {
        type            epsilonWallFunction;
        Cmu             0.09;
        kappa           0.41;
        E               9.8;
        value           nonuniform List<scalar> 
250
(
0.00476302
0.00477294
0.00477705
0.00477467
0.00478157
0.00494878
0.00492188
0.00494013
0.00494985
0.00496086
0.0051059
0.00502855
0.00503124
0.00504324
0.00506382
0.00516373
0.00513784
0.00512514
0.00510605
0.00512619
0.00519011
0.00519155
0.00519728
0.00516963
0.00516171
0.00523925
0.00521812
0.00524623
0.0052453
0.00522848
0.00535477
0.00528202
0.00528276
0.00527505
0.00532013
0.00552467
0.0054199
0.00536743
0.005342
0.00534968
0.00570346
0.00555431
0.00547167
0.00545085
0.00541042
0.00594086
0.00575093
0.00562733
0.00562067
0.00555337
0.00623829
0.00598804
0.00581883
0.00573684
0.00567104
0.00645255
0.00628485
0.00606475
0.00592031
0.00571758
0.00662457
0.00656178
0.00632072
0.0061374
0.00579223
0.00668552
0.0067838
0.00657924
0.0063668
0.00592601
0.00673137
0.00687471
0.00678936
0.0065985
0.00616875
0.00682268
0.00693149
0.00691074
0.00678697
0.00637671
0.00694735
0.00693698
0.0069939
0.0069514
0.00665017
0.00715063
0.00698984
0.00699941
0.00703302
0.0068553
0.00730601
0.00710992
0.00703131
0.0070394
0.00695712
0.0074163
0.0072427
0.00710618
0.00705896
0.00699245
0.00748056
0.00733082
0.00718294
0.00709448
0.00699932
0.00752427
0.00739307
0.00724837
0.00713946
0.0070098
0.00754407
0.00743211
0.00729076
0.00717164
0.00701045
0.00754109
0.00745411
0.00732218
0.00720225
0.00700893
0.00752522
0.00745224
0.00732517
0.00720928
0.00699919
0.00749085
0.00743668
0.0073188
0.00720558
0.00697642
0.00742684
0.00739282
0.00730089
0.00719204
0.00695255
0.00736785
0.00732873
0.00726811
0.00716768
0.00693617
0.00729489
0.00723876
0.0072001
0.00711667
0.00690938
0.00723363
0.00716617
0.00713104
0.00706023
0.00688072
0.00715126
0.00707686
0.00704108
0.00698145
0.00682672
0.00708101
0.00700035
0.00695554
0.00690928
0.00677877
0.00699294
0.00690831
0.00685826
0.00681584
0.00670459
0.00691381
0.00682754
0.00677192
0.00672631
0.00663379
0.00682316
0.00674198
0.00668289
0.00663421
0.00654409
0.00673212
0.00665656
0.00659535
0.00654605
0.00645675
0.00663311
0.00656923
0.00650495
0.00645234
0.00635884
0.00653791
0.00648558
0.00642346
0.00637098
0.00626824
0.00643331
0.00639548
0.00633365
0.00627994
0.00616995
0.00633228
0.00630632
0.00625554
0.00620299
0.00608518
0.00622827
0.00620858
0.00616699
0.00611637
0.00599948
0.0061364
0.00611914
0.0060919
0.00604517
0.00593198
0.00604873
0.0060247
0.00600484
0.0059644
0.00586598
0.00598266
0.005952
0.0059367
0.0059025
0.00581442
0.005913
0.00587717
0.0058618
0.00583325
0.00576122
0.00586812
0.0058269
0.00580932
0.00578337
0.00572346
0.00581355
0.00576885
0.00574752
0.00572317
0.00567528
0.00578381
0.00574082
0.00572044
0.00569705
0.00565312
0.00572654
0.00568738
0.00565721