/*--------------------------------*- C++ -*----------------------------------*\
  =========                 |
  \\      /  F ield         | OpenFOAM: The Open Source CFD Toolbox
   \\    /   O peration     | Website:  https://openfoam.org
    \\  /    A nd           | Version:  6
     \\/     M anipulation  |
\*---------------------------------------------------------------------------*/
FoamFile
{
    version     2.0;
    format      ascii;
    class       volVectorField;
    location    "3.21";
    object      U;
}
// * * * * * * * * * * * * * * * * * * * * * * * * * * * * * * * * * * * * * //

dimensions      [0 1 -1 0 0 0 0];

internalField   nonuniform List<vector> 
10000
(
(0.8944 0.4472 0)
(0.8944 0.4472 0)
(0.8944 0.4472 0)
(0.8944 0.4472 0)
(0.8944 0.4472 0)
(0.8944 0.4472 0)
(0.8944 0.4472 0)
(0.8944 0.4472 0)
(0.8944 0.4472 0)
(0.8944 0.4472 0)
(0.8944 0.4472 0)
(0.8944 0.4472 0)
(0.8944 0.4472 0)
(0.8944 0.4472 0)
(0.8944 0.4472 0)
(0.8944 0.4472 0)
(0.8944 0.4472 0)
(0.8944 0.4472 0)
(0.8944 0.4472 0)
(0.8944 0.4472 0)
(0.8944 0.4472 0)
(0.8944 0.4472 0)
(0.8944 0.4472 0)
(0.8944 0.4472 0)
(0.8944 0.4472 0)
(0.8944 0.4472 0)
(0.8944 0.4472 0)
(0.8944 0.4472 0)
(0.8944 0.4472 0)
(0.8944 0.4472 0)
(0.8944 0.4472 0)
(0.8944 0.4472 0)
(0.8944 0.4472 0)
(0.8944 0.4472 0)
(0.8944 0.4472 0)
(0.8944 0.4472 0)
(0.8944 0.4472 0)
(0.8944 0.4472 0)
(0.8944 0.4472 0)
(0.8944 0.4472 0)
(0.8944 0.4472 0)
(0.8944 0.4472 0)
(0.8944 0.4472 0)
(0.8944 0.4472 0)
(0.894401 0.4472 0)
(0.894401 0.447199 0)
(0.894402 0.447198 0)
(0.894403 0.447197 0)
(0.894405 0.447195 0)
(0.894407 0.447191 0)
(0.894409 0.447187 0)
(0.89441 0.447182 0)
(0.894412 0.447176 0)
(0.894412 0.447169 0)
(0.894411 0.447163 0)
(0.89441 0.447158 0)
(0.894406 0.447154 0)
(0.894401 0.447153 0)
(0.894396 0.447155 0)
(0.89439 0.44716 0)
(0.894384 0.447168 0)
(0.894379 0.447179 0)
(0.894375 0.447192 0)
(0.894374 0.447206 0)
(0.894374 0.44722 0)
(0.894377 0.447233 0)
(0.894381 0.447244 0)
(0.894387 0.447252 0)
(0.894393 0.447257 0)
(0.894398 0.447259 0)
(0.894403 0.447258 0)
(0.894407 0.447254 0)
(0.89441 0.447248 0)
(0.894412 0.447242 0)
(0.894412 0.447235 0)
(0.894412 0.447228 0)
(0.89441 0.447221 0)
(0.894409 0.447216 0)
(0.894407 0.447211 0)
(0.894405 0.447208 0)
(0.894404 0.447205 0)
(0.894403 0.447203 0)
(0.894402 0.447202 0)
(0.894401 0.447201 0)
(0.894401 0.447201 0)
(0.8944 0.4472 0)
(0.8944 0.4472 0)
(0.8944 0.4472 0)
(0.8944 0.4472 0)
(0.8944 0.4472 0)
(0.8944 0.4472 0)
(0.8944 0.4472 0)
(0.8944 0.4472 0)
(0.8944 0.4472 0)
(0.8944 0.4472 0)
(0.8944 0.4472 0)
(0.8944 0.4472 0)
(0.8944 0.4472 0)
(0.8944 0.4472 0)
(0.8944 0.4472 0)
(0.8944 0.4472 0)
(0.8944 0.4472 0)
(0.8944 0.4472 0)
(0.8944 0.4472 0)
(0.8944 0.4472 0)
(0.8944 0.4472 0)
(0.8944 0.4472 0)
(0.8944 0.4472 0)
(0.8944 0.4472 0)
(0.8944 0.4472 0)
(0.8944 0.4472 0)
(0.8944 0.4472 0)
(0.8944 0.4472 0)
(0.8944 0.4472 0)
(0.8944 0.4472 0)
(0.8944 0.4472 0)
(0.8944 0.4472 0)
(0.8944 0.4472 0)
(0.8944 0.4472 0)
(0.8944 0.4472 0)
(0.8944 0.4472 0)
(0.8944 0.4472 0)
(0.8944 0.4472 0)
(0.8944 0.4472 0)
(0.8944 0.4472 0)
(0.8944 0.4472 0)
(0.8944 0.4472 0)
(0.8944 0.4472 0)
(0.8944 0.4472 0)
(0.8944 0.4472 0)
(0.8944 0.4472 0)
(0.8944 0.4472 0)
(0.8944 0.4472 0)
(0.8944 0.4472 0)
(0.8944 0.4472 0)
(0.8944 0.4472 0)
(0.8944 0.4472 0)
(0.8944 0.4472 0)
(0.8944 0.4472 0)
(0.8944 0.4472 0)
(0.8944 0.4472 0)
(0.8944 0.4472 0)
(0.8944 0.4472 0)
(0.8944 0.4472 0)
(0.894401 0.4472 0)
(0.894402 0.447199 0)
(0.894403 0.447198 0)
(0.894405 0.447196 0)
(0.894407 0.447192 0)
(0.89441 0.447188 0)
(0.894413 0.447182 0)
(0.894415 0.447174 0)
(0.894417 0.447166 0)
(0.894418 0.447157 0)
(0.894416 0.447149 0)
(0.894413 0.447142 0)
(0.894408 0.447138 0)
(0.894401 0.447137 0)
(0.894392 0.447141 0)
(0.894383 0.447149 0)
(0.894375 0.447162 0)
(0.894368 0.447178 0)
(0.894363 0.447197 0)
(0.894361 0.447217 0)
(0.894362 0.447237 0)
(0.894366 0.447255 0)
(0.894373 0.447269 0)
(0.894381 0.44728 0)
(0.89439 0.447286 0)
(0.894398 0.447288 0)
(0.894406 0.447285 0)
(0.894412 0.447279 0)
(0.894416 0.447271 0)
(0.894418 0.447261 0)
(0.894418 0.44725 0)
(0.894417 0.44724 0)
(0.894416 0.447231 0)
(0.894413 0.447223 0)
(0.894411 0.447216 0)
(0.894408 0.447211 0)
(0.894406 0.447207 0)
(0.894404 0.447205 0)
(0.894403 0.447203 0)
(0.894402 0.447201 0)
(0.894401 0.447201 0)
(0.894401 0.4472 0)
(0.8944 0.4472 0)
(0.8944 0.4472 0)
(0.8944 0.4472 0)
(0.8944 0.4472 0)
(0.8944 0.4472 0)
(0.8944 0.4472 0)
(0.8944 0.4472 0)
(0.8944 0.4472 0)
(0.8944 0.4472 0)
(0.8944 0.4472 0)
(0.8944 0.4472 0)
(0.8944 0.4472 0)
(0.8944 0.4472 0)
(0.8944 0.4472 0)
(0.8944 0.4472 0)
(0.8944 0.4472 0)
(0.8944 0.4472 0)
(0.8944 0.4472 0)
(0.8944 0.4472 0)
(0.8944 0.4472 0)
(0.8944 0.4472 0)
(0.8944 0.4472 0)
(0.8944 0.4472 0)
(0.8944 0.4472 0)
(0.8944 0.4472 0)
(0.8944 0.4472 0)
(0.8944 0.4472 0)
(0.8944 0.4472 0)
(0.8944 0.4472 0)
(0.8944 0.4472 0)
(0.8944 0.4472 0)
(0.8944 0.4472 0)
(0.8944 0.4472 0)
(0.8944 0.4472 0)
(0.8944 0.4472 0)
(0.8944 0.4472 0)
(0.8944 0.4472 0)
(0.8944 0.4472 0)
(0.8944 0.4472 0)
(0.8944 0.4472 0)
(0.8944 0.4472 0)
(0.8944 0.4472 0)
(0.8944 0.4472 0)
(0.8944 0.4472 0)
(0.8944 0.4472 0)
(0.8944 0.4472 0)
(0.8944 0.4472 0)
(0.8944 0.4472 0)
(0.8944 0.4472 0)
(0.8944 0.4472 0)
(0.8944 0.4472 0)
(0.8944 0.4472 0)
(0.8944 0.4472 0)
(0.8944 0.4472 0)
(0.8944 0.447201 0)
(0.8944 0.4472 0)
(0.8944 0.447201 0)
(0.894401 0.4472 0)
(0.894401 0.4472 0)
(0.894403 0.447199 0)
(0.894405 0.447197 0)
(0.894408 0.447194 0)
(0.894411 0.44719 0)
(0.894415 0.447183 0)
(0.894419 0.447175 0)
(0.894422 0.447165 0)
(0.894424 0.447154 0)
(0.894425 0.447142 0)
(0.894423 0.447132 0)
(0.894417 0.447124 0)
(0.894409 0.44712 0)
(0.894399 0.447121 0)
(0.894386 0.447128 0)
(0.894373 0.447142 0)
(0.894361 0.447161 0)
(0.894351 0.447185 0)
(0.894345 0.447212 0)
(0.894343 0.44724 0)
(0.894345 0.447267 0)
(0.894351 0.447291 0)
(0.894361 0.44731 0)
(0.894373 0.447323 0)
(0.894386 0.44733 0)
(0.894399 0.44733 0)
(0.894409 0.447325 0)
(0.894418 0.447315 0)
(0.894424 0.447302 0)
(0.894427 0.447287 0)
(0.894428 0.447272 0)
(0.894426 0.447257 0)
(0.894423 0.447244 0)
(0.89442 0.447232 0)
(0.894416 0.447223 0)
(0.894412 0.447215 0)
(0.894409 0.44721 0)
(0.894406 0.447206 0)
(0.894404 0.447203 0)
(0.894403 0.447202 0)
(0.894402 0.447201 0)
(0.894401 0.4472 0)
(0.8944 0.4472 0)
(0.8944 0.4472 0)
(0.8944 0.4472 0)
(0.8944 0.4472 0)
(0.8944 0.4472 0)
(0.8944 0.4472 0)
(0.8944 0.4472 0)
(0.8944 0.4472 0)
(0.8944 0.4472 0)
(0.8944 0.4472 0)
(0.8944 0.4472 0)
(0.8944 0.4472 0)
(0.8944 0.4472 0)
(0.8944 0.4472 0)
(0.8944 0.4472 0)
(0.8944 0.4472 0)
(0.8944 0.4472 0)
(0.8944 0.4472 0)
(0.8944 0.4472 0)
(0.8944 0.4472 0)
(0.8944 0.4472 0)
(0.8944 0.4472 0)
(0.8944 0.4472 0)
(0.8944 0.4472 0)
(0.8944 0.4472 0)
(0.8944 0.4472 0)
(0.8944 0.4472 0)
(0.8944 0.4472 0)
(0.8944 0.4472 0)
(0.8944 0.4472 0)
(0.8944 0.4472 0)
(0.8944 0.4472 0)
(0.8944 0.4472 0)
(0.8944 0.4472 0)
(0.8944 0.4472 0)
(0.8944 0.4472 0)
(0.8944 0.4472 0)
(0.8944 0.4472 0)
(0.8944 0.4472 0)
(0.8944 0.4472 0)
(0.8944 0.4472 0)
(0.8944 0.4472 0)
(0.8944 0.4472 0)
(0.8944 0.4472 0)
(0.8944 0.4472 0)
(0.8944 0.4472 0)
(0.8944 0.4472 0)
(0.8944 0.4472 0)
(0.8944 0.4472 0)
(0.8944 0.4472 0)
(0.8944 0.4472 0)
(0.8944 0.4472 0)
(0.8944 0.4472 0)
(0.8944 0.447201 0)
(0.8944 0.447201 0)
(0.8944 0.447201 0)
(0.8944 0.447201 0)
(0.894401 0.447201 0)
(0.894402 0.4472 0)
(0.894404 0.447199 0)
(0.894407 0.447197 0)
(0.894411 0.447193 0)
(0.894416 0.447186 0)
(0.894421 0.447178 0)
(0.894427 0.447167 0)
(0.894431 0.447154 0)
(0.894434 0.44714 0)
(0.894434 0.447126 0)
(0.89443 0.447114 0)
(0.894422 0.447105 0)
(0.89441 0.447103 0)
(0.894393 0.447108 0)
(0.894375 0.447121 0)
(0.894357 0.447143 0)
(0.894341 0.447173 0)
(0.894328 0.447208 0)
(0.894319 0.447246 0)
(0.894317 0.447285 0)
(0.894322 0.447321 0)
(0.894332 0.447352 0)
(0.894346 0.447376 0)
(0.894364 0.447391 0)
(0.894383 0.447397 0)
(0.894401 0.447394 0)
(0.894416 0.447383 0)
(0.894428 0.447367 0)
(0.894436 0.447347 0)
(0.89444 0.447324 0)
(0.894441 0.447302 0)
(0.894438 0.44728 0)
(0.894434 0.447261 0)
(0.894429 0.447245 0)
(0.894423 0.447231 0)
(0.894418 0.447221 0)
(0.894413 0.447213 0)
(0.894409 0.447208 0)
(0.894406 0.447204 0)
(0.894404 0.447202 0)
(0.894402 0.447201 0)
(0.894401 0.4472 0)
(0.894401 0.4472 0)
(0.8944 0.4472 0)
(0.8944 0.4472 0)
(0.8944 0.4472 0)
(0.8944 0.4472 0)
(0.8944 0.4472 0)
(0.8944 0.4472 0)
(0.8944 0.4472 0)
(0.8944 0.4472 0)
(0.8944 0.4472 0)
(0.8944 0.4472 0)
(0.8944 0.4472 0)
(0.8944 0.4472 0)
(0.8944 0.4472 0)
(0.8944 0.4472 0)
(0.8944 0.4472 0)
(0.8944 0.4472 0)
(0.8944 0.4472 0)
(0.8944 0.4472 0)
(0.8944 0.4472 0)
(0.8944 0.4472 0)
(0.8944 0.4472 0)
(0.8944 0.4472 0)
(0.8944 0.4472 0)
(0.8944 0.4472 0)
(0.8944 0.4472 0)
(0.8944 0.4472 0)
(0.8944 0.4472 0)
(0.8944 0.4472 0)
(0.8944 0.4472 0)
(0.8944 0.4472 0)
(0.8944 0.4472 0)
(0.8944 0.4472 0)
(0.8944 0.4472 0)
(0.8944 0.4472 0)
(0.8944 0.4472 0)
(0.8944 0.4472 0)
(0.8944 0.4472 0)
(0.8944 0.4472 0)
(0.8944 0.4472 0)
(0.8944 0.4472 0)
(0.8944 0.4472 0)
(0.8944 0.4472 0)
(0.8944 0.4472 0)
(0.8944 0.4472 0)
(0.8944 0.4472 0)
(0.8944 0.4472 0)
(0.8944 0.4472 0)
(0.8944 0.4472 0)
(0.8944 0.4472 0)
(0.8944 0.4472 0)
(0.8944 0.4472 0)
(0.8944 0.447201 0)
(0.8944 0.447201 0)
(0.8944 0.447201 0)
(0.8944 0.447201 0)
(0.8944 0.447202 0)
(0.894401 0.447202 0)
(0.894403 0.447201 0)
(0.894406 0.447199 0)
(0.89441 0.447197 0)
(0.894415 0.447191 0)
(0.894422 0.447183 0)
(0.894429 0.447172 0)
(0.894437 0.447158 0)
(0.894442 0.447142 0)
(0.894445 0.447125 0)
(0.894444 0.447109 0)
(0.894437 0.447096 0)
(0.894424 0.44709 0)
(0.894406 0.447093 0)
(0.894383 0.447106 0)
(0.894357 0.447131 0)
(0.894332 0.447166 0)
(0.894309 0.447211 0)
(0.894292 0.447263 0)
(0.894283 0.447317 0)
(0.894282 0.447369 0)
(0.89429 0.447417 0)
(0.894306 0.447455 0)
(0.894328 0.447483 0)
(0.894354 0.447497 0)
(0.89438 0.447499 0)
(0.894406 0.447489 0)
(0.894427 0.447469 0)
(0.894444 0.447442 0)
(0.894454 0.44741 0)
(0.89446 0.447376 0)
(0.89446 0.447343 0)
(0.894456 0.447312 0)
(0.89445 0.447284 0)
(0.894442 0.447261 0)
(0.894434 0.447242 0)
(0.894426 0.447228 0)
(0.894419 0.447218 0)
(0.894413 0.44721 0)
(0.894409 0.447205 0)
(0.894405 0.447202 0)
(0.894403 0.447201 0)
(0.894402 0.4472 0)
(0.894401 0.447199 0)
(0.8944 0.447199 0)
(0.8944 0.447199 0)
(0.8944 0.4472 0)
(0.8944 0.4472 0)
(0.8944 0.4472 0)
(0.8944 0.4472 0)
(0.8944 0.4472 0)
(0.8944 0.4472 0)
(0.8944 0.4472 0)
(0.8944 0.4472 0)
(0.8944 0.4472 0)
(0.8944 0.4472 0)
(0.8944 0.4472 0)
(0.8944 0.4472 0)
(0.8944 0.4472 0)
(0.8944 0.4472 0)
(0.8944 0.4472 0)
(0.8944 0.4472 0)
(0.8944 0.4472 0)
(0.8944 0.4472 0)
(0.8944 0.4472 0)
(0.8944 0.4472 0)
(0.8944 0.4472 0)
(0.8944 0.4472 0)
(0.8944 0.4472 0)
(0.8944 0.4472 0)
(0.8944 0.4472 0)
(0.8944 0.4472 0)
(0.8944 0.4472 0)
(0.8944 0.4472 0)
(0.8944 0.4472 0)
(0.8944 0.4472 0)
(0.8944 0.4472 0)
(0.8944 0.4472 0)
(0.8944 0.4472 0)
(0.8944 0.4472 0)
(0.8944 0.4472 0)
(0.8944 0.4472 0)
(0.8944 0.4472 0)
(0.8944 0.4472 0)
(0.8944 0.4472 0)
(0.8944 0.4472 0)
(0.8944 0.4472 0)
(0.8944 0.4472 0)
(0.8944 0.4472 0)
(0.8944 0.4472 0)
(0.8944 0.4472 0)
(0.8944 0.4472 0)
(0.8944 0.4472 0)
(0.8944 0.4472 0)
(0.8944 0.4472 0)
(0.8944 0.447201 0)
(0.894399 0.447201 0)
(0.894399 0.447201 0)
(0.894399 0.447202 0)
(0.8944 0.447203 0)
(0.894401 0.447203 0)
(0.894404 0.447202 0)
(0.894408 0.447201 0)
(0.894413 0.447197 0)
(0.894421 0.44719 0)
(0.89443 0.44718 0)
(0.89444 0.447167 0)
(0.894449 0.447149 0)
(0.894456 0.44713 0)
(0.894458 0.447111 0)
(0.894454 0.447096 0)
(0.894442 0.447086 0)
(0.894422 0.447087 0)
(0.894394 0.447101 0)
(0.894361 0.447129 0)
(0.894325 0.447173 0)
(0.89429 0.447231 0)
(0.894261 0.4473 0)
(0.89424 0.447375 0)
(0.89423 0.447451 0)
(0.894233 0.447522 0)
(0.894248 0.447583 0)
(0.894273 0.447628 0)
(0.894306 0.447657 0)
(0.894344 0.447666 0)
(0.894382 0.447658 0)
(0.894417 0.447633 0)
(0.894447 0.447597 0)
(0.894469 0.447551 0)
(0.894482 0.447501 0)
(0.894488 0.44745 0)
(0.894488 0.4474 0)
(0.894481 0.447355 0)
(0.894472 0.447316 0)
(0.89446 0.447283 0)
(0.894448 0.447257 0)
(0.894436 0.447237 0)
(0.894427 0.447222 0)
(0.894418 0.447212 0)
(0.894412 0.447206 0)
(0.894407 0.447202 0)
(0.894404 0.4472 0)
(0.894402 0.447199 0)
(0.894401 0.447199 0)
(0.8944 0.447199 0)
(0.8944 0.447199 0)
(0.8944 0.447199 0)
(0.8944 0.447199 0)
(0.8944 0.4472 0)
(0.8944 0.4472 0)
(0.8944 0.4472 0)
(0.8944 0.4472 0)
(0.8944 0.4472 0)
(0.8944 0.4472 0)
(0.8944 0.4472 0)
(0.8944 0.4472 0)
(0.8944 0.4472 0)
(0.8944 0.4472 0)
(0.8944 0.4472 0)
(0.8944 0.4472 0)
(0.8944 0.4472 0)
(0.8944 0.4472 0)
(0.8944 0.4472 0)
(0.8944 0.4472 0)
(0.8944 0.4472 0)
(0.8944 0.4472 0)
(0.8944 0.4472 0)
(0.8944 0.4472 0)
(0.8944 0.4472 0)
(0.8944 0.4472 0)
(0.8944 0.4472 0)
(0.8944 0.4472 0)
(0.8944 0.4472 0)
(0.8944 0.4472 0)
(0.8944 0.4472 0)
(0.8944 0.4472 0)
(0.8944 0.4472 0)
(0.8944 0.4472 0)
(0.8944 0.4472 0)
(0.8944 0.4472 0)
(0.8944 0.4472 0)
(0.8944 0.4472 0)
(0.8944 0.4472 0)
(0.8944 0.4472 0)
(0.8944 0.4472 0)
(0.8944 0.4472 0)
(0.8944 0.4472 0)
(0.8944 0.4472 0)
(0.8944 0.4472 0)
(0.8944 0.4472 0)
(0.8944 0.4472 0)
(0.8944 0.4472 0)
(0.8944 0.4472 0)
(0.8944 0.4472 0)
(0.894399 0.447201 0)
(0.894399 0.447201 0)
(0.894399 0.447202 0)
(0.894399 0.447203 0)
(0.894399 0.447203 0)
(0.8944 0.447205 0)
(0.894401 0.447205 0)
(0.894405 0.447205 0)
(0.89441 0.447203 0)
(0.894418 0.447199 0)
(0.894428 0.447191 0)
(0.89444 0.447179 0)
(0.894452 0.447162 0)
(0.894464 0.447143 0)
(0.89447 0.447123 0)
(0.89447 0.447105 0)
(0.894461 0.447093 0)
(0.89444 0.447093 0)
(0.894409 0.447109 0)
(0.894368 0.447144 0)
(0.89432 0.4472 0)
(0.89427 0.447276 0)
(0.894224 0.44737 0)
(0.894186 0.447475 0)
(0.894162 0.447585 0)
(0.894154 0.447691 0)
(0.894164 0.447786 0)
(0.894191 0.447862 0)
(0.894232 0.447914 0)
(0.894283 0.447938 0)
(0.894338 0.447935 0)
(0.894392 0.447906 0)
(0.89444 0.447855 0)
(0.89448 0.447789 0)
(0.894508 0.447714 0)
(0.894525 0.447634 0)
(0.894531 0.447555 0)
(0.894528 0.447481 0)
(0.894518 0.447415 0)
(0.894503 0.447358 0)
(0.894485 0.447312 0)
(0.894468 0.447275 0)
(0.894451 0.447248 0)
(0.894437 0.447228 0)
(0.894425 0.447215 0)
(0.894416 0.447206 0)
(0.89441 0.447201 0)
(0.894405 0.447199 0)
(0.894403 0.447198 0)
(0.894401 0.447198 0)
(0.8944 0.447198 0)
(0.8944 0.447198 0)
(0.8944 0.447199 0)
(0.8944 0.447199 0)
(0.8944 0.447199 0)
(0.8944 0.4472 0)
(0.8944 0.4472 0)
(0.8944 0.4472 0)
(0.8944 0.4472 0)
(0.8944 0.4472 0)
(0.8944 0.4472 0)
(0.8944 0.4472 0)
(0.8944 0.4472 0)
(0.8944 0.4472 0)
(0.8944 0.4472 0)
(0.8944 0.4472 0)
(0.8944 0.4472 0)
(0.8944 0.4472 0)
(0.8944 0.4472 0)
(0.8944 0.4472 0)
(0.8944 0.4472 0)
(0.8944 0.4472 0)
(0.8944 0.4472 0)
(0.8944 0.4472 0)
(0.8944 0.4472 0)
(0.8944 0.4472 0)
(0.8944 0.4472 0)
(0.8944 0.4472 0)
(0.8944 0.4472 0)
(0.8944 0.4472 0)
(0.8944 0.4472 0)
(0.8944 0.4472 0)
(0.8944 0.4472 0)
(0.8944 0.4472 0)
(0.8944 0.4472 0)
(0.8944 0.4472 0)
(0.8944 0.4472 0)
(0.8944 0.4472 0)
(0.8944 0.4472 0)
(0.8944 0.4472 0)
(0.8944 0.4472 0)
(0.8944 0.4472 0)
(0.8944 0.4472 0)
(0.8944 0.4472 0)
(0.8944 0.4472 0)
(0.8944 0.4472 0)
(0.8944 0.4472 0)
(0.8944 0.4472 0)
(0.8944 0.4472 0)
(0.894399 0.447201 0)
(0.894399 0.447201 0)
(0.894399 0.447202 0)
(0.894398 0.447203 0)
(0.894398 0.447204 0)
(0.894398 0.447206 0)
(0.894399 0.447207 0)
(0.894401 0.447209 0)
(0.894405 0.447209 0)
(0.894412 0.447207 0)
(0.894423 0.447202 0)
(0.894436 0.447193 0)
(0.894451 0.44718 0)
(0.894466 0.447162 0)
(0.894478 0.447142 0)
(0.894483 0.447124 0)
(0.894478 0.447113 0)
(0.894459 0.447114 0)
(0.894424 0.447134 0)
(0.894375 0.447179 0)
(0.894314 0.447252 0)
(0.894246 0.447354 0)
(0.894178 0.447482 0)
(0.894117 0.447632 0)
(0.894071 0.447792 0)
(0.894045 0.447953 0)
(0.894044 0.448102 0)
(0.894068 0.448228 0)
(0.894116 0.448322 0)
(0.894181 0.448376 0)
(0.894258 0.448388 0)
(0.894339 0.448358 0)
(0.894416 0.448292 0)
(0.894483 0.448197 0)
(0.894536 0.448082 0)
(0.894572 0.447956 0)
(0.894591 0.447829 0)
(0.894595 0.447707 0)
(0.894587 0.447596 0)
(0.89457 0.447498 0)
(0.894546 0.447417 0)
(0.894521 0.447351 0)
(0.894495 0.4473 0)
(0.894471 0.447262 0)
(0.894451 0.447235 0)
(0.894435 0.447217 0)
(0.894422 0.447206 0)
(0.894413 0.4472 0)
(0.894407 0.447197 0)
(0.894403 0.447196 0)
(0.894401 0.447196 0)
(0.8944 0.447196 0)
(0.894399 0.447197 0)
(0.894399 0.447198 0)
(0.894399 0.447199 0)
(0.894399 0.447199 0)
(0.8944 0.447199 0)
(0.8944 0.4472 0)
(0.8944 0.4472 0)
(0.8944 0.4472 0)
(0.8944 0.4472 0)
(0.8944 0.4472 0)
(0.8944 0.4472 0)
(0.8944 0.4472 0)
(0.8944 0.4472 0)
(0.8944 0.4472 0)
(0.8944 0.4472 0)
(0.8944 0.4472 0)
(0.8944 0.4472 0)
(0.8944 0.4472 0)
(0.8944 0.4472 0)
(0.8944 0.4472 0)
(0.8944 0.4472 0)
(0.8944 0.4472 0)
(0.8944 0.4472 0)
(0.8944 0.4472 0)
(0.8944 0.4472 0)
(0.8944 0.4472 0)
(0.8944 0.4472 0)
(0.8944 0.4472 0)
(0.8944 0.4472 0)
(0.8944 0.4472 0)
(0.8944 0.4472 0)
(0.8944 0.4472 0)
(0.8944 0.4472 0)
(0.8944 0.4472 0)
(0.8944 0.4472 0)
(0.8944 0.4472 0)
(0.8944 0.4472 0)
(0.8944 0.4472 0)
(0.8944 0.4472 0)
(0.8944 0.4472 0)
(0.8944 0.4472 0)
(0.8944 0.4472 0)
(0.8944 0.4472 0)
(0.8944 0.4472 0)
(0.8944 0.4472 0)
(0.8944 0.4472 0)
(0.8944 0.4472 0)
(0.894399 0.4472 0)
(0.894399 0.447201 0)
(0.894399 0.447202 0)
(0.894398 0.447203 0)
(0.894397 0.447204 0)
(0.894396 0.447206 0)
(0.894396 0.447208 0)
(0.894397 0.447211 0)
(0.8944 0.447214 0)
(0.894406 0.447215 0)
(0.894415 0.447213 0)
(0.894428 0.447209 0)
(0.894445 0.447199 0)
(0.894463 0.447186 0)
(0.894479 0.447169 0)
(0.89449 0.447154 0)
(0.89449 0.447144 0)
(0.894473 0.447149 0)
(0.894437 0.447176 0)
(0.89438 0.447235 0)
(0.894304 0.447331 0)
(0.894213 0.447468 0)
(0.894117 0.447644 0)
(0.894024 0.447854 0)
(0.893946 0.448087 0)
(0.893891 0.448329 0)
(0.893869 0.448563 0)
(0.893882 0.448773 0)
(0.893932 0.44894 0)
(0.894012 0.449054 0)
(0.894117 0.449106 0)
(0.894235 0.449092 0)
(0.894354 0.449017 0)
(0.894465 0.448889 0)
(0.894557 0.44872 0)
(0.894627 0.448527 0)
(0.894672 0.448323 0)
(0.894692 0.448121 0)
(0.894692 0.447932 0)
(0.894674 0.447763 0)
(0.894645 0.447619 0)
(0.894608 0.447499 0)
(0.89457 0.447405 0)
(0.894532 0.447333 0)
(0.894499 0.44728 0)
(0.89447 0.447243 0)
(0.894447 0.44722 0)
(0.894429 0.447205 0)
(0.894417 0.447197 0)
(0.894409 0.447193 0)
(0.894403 0.447192 0)
(0.8944 0.447193 0)
(0.894399 0.447194 0)
(0.894398 0.447195 0)
(0.894398 0.447197 0)
(0.894399 0.447198 0)
(0.894399 0.447198 0)
(0.894399 0.447199 0)
(0.8944 0.447199 0)
(0.8944 0.4472 0)
(0.8944 0.4472 0)
(0.8944 0.4472 0)
(0.8944 0.4472 0)
(0.8944 0.4472 0)
(0.8944 0.4472 0)
(0.8944 0.4472 0)
(0.8944 0.4472 0)
(0.8944 0.4472 0)
(0.8944 0.4472 0)
(0.8944 0.4472 0)
(0.8944 0.4472 0)
(0.8944 0.4472 0)
(0.8944 0.4472 0)
(0.8944 0.4472 0)
(0.8944 0.4472 0)
(0.8944 0.4472 0)
(0.8944 0.4472 0)
(0.8944 0.4472 0)
(0.8944 0.4472 0)
(0.8944 0.4472 0)
(0.8944 0.4472 0)
(0.8944 0.4472 0)
(0.8944 0.4472 0)
(0.8944 0.4472 0)
(0.8944 0.4472 0)
(0.8944 0.4472 0)
(0.8944 0.4472 0)
(0.8944 0.4472 0)
(0.8944 0.4472 0)
(0.8944 0.4472 0)
(0.8944 0.4472 0)
(0.8944 0.4472 0)
(0.8944 0.4472 0)
(0.8944 0.4472 0)
(0.8944 0.4472 0)
(0.8944 0.4472 0)
(0.8944 0.4472 0)
(0.8944 0.4472 0)
(0.8944 0.4472 0)
(0.8944 0.447201 0)
(0.894399 0.447201 0)
(0.894399 0.447201 0)
(0.894398 0.447202 0)
(0.894397 0.447204 0)
(0.894396 0.447206 0)
(0.894394 0.447209 0)
(0.894394 0.447213 0)
(0.894395 0.447217 0)
(0.894399 0.447221 0)
(0.894405 0.447223 0)
(0.894417 0.447223 0)
(0.894433 0.44722 0)
(0.894453 0.447212 0)
(0.894473 0.447201 0)
(0.894488 0.44719 0)
(0.894494 0.447185 0)
(0.894481 0.447196 0)
(0.894445 0.447233 0)
(0.89438 0.447309 0)
(0.894287 0.447434 0)
(0.894169 0.447614 0)
(0.894036 0.447853 0)
(0.8939 0.448144 0)
(0.893774 0.448477 0)
(0.893675 0.448834 0)
(0.893613 0.449194 0)
(0.8936 0.449532 0)
(0.89364 0.449823 0)
(0.893731 0.450047 0)
(0.893866 0.450185 0)
(0.894031 0.450226 0)
(0.894211 0.45017 0)
(0.894389 0.450022 0)
(0.894549 0.449797 0)
(0.894679 0.449515 0)
(0.894773 0.4492 0)
(0.894828 0.448874 0)
(0.894847 0.448558 0)
(0.894837 0.448267 0)
(0.894803 0.448011 0)
(0.894754 0.447795 0)
(0.894698 0.447619 0)
(0.89464 0.447482 0)
(0.894585 0.447379 0)
(0.894536 0.447305 0)
(0.894495 0.447255 0)
(0.894463 0.447222 0)
(0.894439 0.447203 0)
(0.894421 0.447193 0)
(0.89441 0.447188 0)
(0.894403 0.447188 0)
(0.8944 0.447189 0)
(0.894398 0.447191 0)
(0.894397 0.447193 0)
(0.894397 0.447195 0)
(0.894398 0.447197 0)
(0.894398 0.447198 0)
(0.894399 0.447199 0)
(0.894399 0.447199 0)
(0.8944 0.447199 0)
(0.8944 0.4472 0)
(0.8944 0.4472 0)
(0.8944 0.4472 0)
(0.8944 0.4472 0)
(0.8944 0.4472 0)
(0.8944 0.4472 0)
(0.8944 0.4472 0)
(0.8944 0.4472 0)
(0.8944 0.4472 0)
(0.8944 0.4472 0)
(0.8944 0.4472 0)
(0.8944 0.4472 0)
(0.8944 0.4472 0)
(0.8944 0.4472 0)
(0.8944 0.4472 0)
(0.8944 0.4472 0)
(0.8944 0.4472 0)
(0.8944 0.4472 0)
(0.8944 0.4472 0)
(0.8944 0.4472 0)
(0.8944 0.4472 0)
(0.8944 0.4472 0)
(0.8944 0.4472 0)
(0.8944 0.4472 0)
(0.8944 0.4472 0)
(0.8944 0.4472 0)
(0.8944 0.4472 0)
(0.8944 0.4472 0)
(0.8944 0.4472 0)
(0.8944 0.4472 0)
(0.8944 0.4472 0)
(0.8944 0.4472 0)
(0.8944 0.4472 0)
(0.8944 0.4472 0)
(0.8944 0.4472 0)
(0.8944 0.4472 0)
(0.8944 0.4472 0)
(0.8944 0.4472 0)
(0.8944 0.4472 0)
(0.894399 0.447201 0)
(0.894399 0.447201 0)
(0.894398 0.447202 0)
(0.894397 0.447203 0)
(0.894395 0.447206 0)
(0.894393 0.447209 0)
(0.894391 0.447213 0)
(0.894391 0.447219 0)
(0.894391 0.447225 0)
(0.894396 0.447231 0)
(0.894404 0.447236 0)
(0.894418 0.447238 0)
(0.894436 0.447238 0)
(0.894458 0.447234 0)
(0.894477 0.44723 0)
(0.894488 0.447232 0)
(0.894479 0.447251 0)
(0.894444 0.4473 0)
(0.894372 0.447395 0)
(0.894261 0.447552 0)
(0.894112 0.447784 0)
(0.893933 0.448098 0)
(0.893738 0.44849 0)
(0.893546 0.448952 0)
(0.893377 0.449463 0)
(0.893251 0.449996 0)
(0.893186 0.45052 0)
(0.893193 0.451 0)
(0.893276 0.451403 0)
(0.893432 0.4517 0)
(0.893648 0.451868 0)
(0.893906 0.451892 0)
(0.894181 0.451772 0)
(0.894447 0.451517 0)
(0.894682 0.45115 0)
(0.894868 0.4507 0)
(0.894996 0.450205 0)
(0.895065 0.449698 0)
(0.895081 0.44921 0)
(0.895053 0.448766 0)
(0.894993 0.448378 0)
(0.894914 0.448055 0)
(0.894826 0.447795 0)
(0.894739 0.447595 0)
(0.894658 0.447447 0)
(0.894588 0.447342 0)
(0.89453 0.447271 0)
(0.894484 0.447226 0)
(0.894451 0.4472 0)
(0.894427 0.447187 0)
(0.894412 0.447182 0)
(0.894403 0.447181 0)
(0.894398 0.447184 0)
(0.894396 0.447187 0)
(0.894395 0.44719 0)
(0.894396 0.447193 0)
(0.894397 0.447195 0)
(0.894398 0.447197 0)
(0.894398 0.447198 0)
(0.894399 0.447199 0)
(0.894399 0.447199 0)
(0.8944 0.4472 0)
(0.8944 0.4472 0)
(0.8944 0.4472 0)
(0.8944 0.4472 0)
(0.8944 0.4472 0)
(0.8944 0.4472 0)
(0.8944 0.4472 0)
(0.8944 0.4472 0)
(0.8944 0.4472 0)
(0.8944 0.4472 0)
(0.8944 0.4472 0)
(0.8944 0.4472 0)
(0.8944 0.4472 0)
(0.8944 0.4472 0)
(0.8944 0.4472 0)
(0.8944 0.4472 0)
(0.8944 0.4472 0)
(0.8944 0.4472 0)
(0.8944 0.4472 0)
(0.8944 0.4472 0)
(0.8944 0.4472 0)
(0.8944 0.4472 0)
(0.8944 0.4472 0)
(0.8944 0.4472 0)
(0.8944 0.4472 0)
(0.8944 0.4472 0)
(0.8944 0.4472 0)
(0.8944 0.4472 0)
(0.8944 0.4472 0)
(0.8944 0.4472 0)
(0.8944 0.4472 0)
(0.8944 0.4472 0)
(0.8944 0.4472 0)
(0.8944 0.4472 0)
(0.8944 0.4472 0)
(0.8944 0.4472 0)
(0.8944 0.4472 0)
(0.8944 0.4472 0)
(0.894399 0.4472 0)
(0.894399 0.447201 0)
(0.894398 0.447202 0)
(0.894397 0.447203 0)
(0.894395 0.447205 0)
(0.894393 0.447208 0)
(0.89439 0.447212 0)
(0.894387 0.447219 0)
(0.894386 0.447226 0)
(0.894386 0.447236 0)
(0.894391 0.447245 0)
(0.8944 0.447253 0)
(0.894416 0.44726 0)
(0.894436 0.447265 0)
(0.894457 0.44727 0)
(0.89447 0.447281 0)
(0.894467 0.447309 0)
(0.894433 0.44737 0)
(0.894355 0.447485 0)
(0.894225 0.447675 0)
(0.89404 0.447962 0)
(0.893807 0.448358 0)
(0.893538 0.448869 0)
(0.893257 0.449485 0)
(0.892988 0.450187 0)
(0.892761 0.450942 0)
(0.892603 0.451714 0)
(0.892537 0.452457 0)
(0.892575 0.453125 0)
(0.892724 0.453675 0)
(0.892976 0.454068 0)
(0.893313 0.454275 0)
(0.893707 0.454277 0)
(0.894123 0.454072 0)
(0.894522 0.453673 0)
(0.894871 0.45311 0)
(0.895143 0.452426 0)
(0.895325 0.451675 0)
(0.895416 0.450908 0)
(0.895426 0.450172 0)
(0.895372 0.449503 0)
(0.895272 0.448922 0)
(0.895147 0.448441 0)
(0.895012 0.448057 0)
(0.894881 0.447764 0)
(0.894762 0.447549 0)
(0.89466 0.447398 0)
(0.894577 0.447297 0)
(0.894514 0.447234 0)
(0.894467 0.447198 0)
(0.894435 0.44718 0)
(0.894414 0.447173 0)
(0.894402 0.447173 0)
(0.894395 0.447176 0)
(0.894393 0.447181 0)
(0.894393 0.447186 0)
(0.894394 0.44719 0)
(0.894395 0.447193 0)
(0.894396 0.447195 0)
(0.894397 0.447197 0)
(0.894398 0.447198 0)
(0.894399 0.447199 0)
(0.894399 0.447199 0)
(0.8944 0.4472 0)
(0.8944 0.4472 0)
(0.8944 0.4472 0)
(0.8944 0.4472 0)
(0.8944 0.4472 0)
(0.8944 0.4472 0)
(0.8944 0.4472 0)
(0.8944 0.4472 0)
(0.8944 0.4472 0)
(0.8944 0.4472 0)
(0.8944 0.4472 0)
(0.8944 0.4472 0)
(0.8944 0.4472 0)
(0.8944 0.4472 0)
(0.8944 0.4472 0)
(0.8944 0.4472 0)
(0.8944 0.4472 0)
(0.8944 0.4472 0)
(0.8944 0.4472 0)
(0.8944 0.4472 0)
(0.8944 0.4472 0)
(0.8944 0.4472 0)
(0.8944 0.4472 0)
(0.8944 0.4472 0)
(0.8944 0.4472 0)
(0.8944 0.4472 0)
(0.8944 0.4472 0)
(0.8944 0.4472 0)
(0.8944 0.4472 0)
(0.8944 0.4472 0)
(0.8944 0.4472 0)
(0.8944 0.4472 0)
(0.8944 0.4472 0)
(0.8944 0.4472 0)
(0.8944 0.4472 0)
(0.8944 0.4472 0)
(0.894399 0.4472 0)
(0.894399 0.447201 0)
(0.894399 0.447201 0)
(0.894397 0.447202 0)
(0.894395 0.447204 0)
(0.894393 0.447207 0)
(0.894389 0.447211 0)
(0.894385 0.447217 0)
(0.894381 0.447226 0)
(0.894378 0.447237 0)
(0.894378 0.447249 0)
(0.894382 0.447263 0)
(0.894392 0.447277 0)
(0.894408 0.447291 0)
(0.894428 0.447305 0)
(0.894443 0.447326 0)
(0.894442 0.447364 0)
(0.894411 0.447437 0)
(0.89433 0.447569 0)
(0.894183 0.44779 0)
(0.893961 0.448128 0)
(0.893665 0.448609 0)
(0.893307 0.449246 0)
(0.89291 0.450034 0)
(0.892507 0.450956 0)
(0.892134 0.451978 0)
(0.891831 0.453054 0)
(0.891631 0.45413 0)
(0.891564 0.455148 0)
(0.891647 0.456051 0)
(0.891887 0.456784 0)
(0.892272 0.4573 0)
(0.89278 0.457561 0)
(0.893369 0.457543 0)
(0.89399 0.45724 0)
(0.894587 0.456664 0)
(0.895109 0.455852 0)
(0.895516 0.454864 0)
(0.895785 0.45377 0)
(0.895916 0.452647 0)
(0.895924 0.451564 0)
(0.895834 0.450577 0)
(0.895677 0.44972 0)
(0.895485 0.44901 0)
(0.895281 0.448446 0)
(0.895086 0.448016 0)
(0.894911 0.447703 0)
(0.894763 0.447485 0)
(0.894644 0.447339 0)
(0.894554 0.447249 0)
(0.894489 0.447197 0)
(0.894444 0.447171 0)
(0.894416 0.447162 0)
(0.8944 0.447162 0)
(0.894392 0.447167 0)
(0.894389 0.447173 0)
(0.894389 0.44718 0)
(0.89439 0.447185 0)
(0.894392 0.44719 0)
(0.894394 0.447193 0)
(0.894396 0.447196 0)
(0.894397 0.447197 0)
(0.894398 0.447198 0)
(0.894399 0.447199 0)
(0.894399 0.447199 0)
(0.8944 0.4472 0)
(0.8944 0.4472 0)
(0.8944 0.4472 0)
(0.8944 0.4472 0)
(0.8944 0.4472 0)
(0.8944 0.4472 0)
(0.8944 0.4472 0)
(0.8944 0.4472 0)
(0.8944 0.4472 0)
(0.8944 0.4472 0)
(0.8944 0.4472 0)
(0.8944 0.4472 0)
(0.8944 0.4472 0)
(0.8944 0.4472 0)
(0.8944 0.4472 0)
(0.8944 0.4472 0)
(0.8944 0.4472 0)
(0.8944 0.4472 0)
(0.8944 0.4472 0)
(0.8944 0.4472 0)
(0.8944 0.4472 0)
(0.8944 0.4472 0)
(0.8944 0.4472 0)
(0.8944 0.4472 0)
(0.8944 0.4472 0)
(0.8944 0.4472 0)
(0.8944 0.4472 0)
(0.8944 0.4472 0)
(0.8944 0.4472 0)
(0.8944 0.4472 0)
(0.8944 0.4472 0)
(0.8944 0.4472 0)
(0.8944 0.4472 0)
(0.8944 0.4472 0)
(0.8944 0.4472 0)
(0.894399 0.447201 0)
(0.894399 0.447201 0)
(0.894398 0.447202 0)
(0.894396 0.447203 0)
(0.894393 0.447205 0)
(0.89439 0.447209 0)
(0.894385 0.447215 0)
(0.894378 0.447223 0)
(0.894373 0.447236 0)
(0.894368 0.44725 0)
(0.894366 0.447268 0)
(0.89437 0.447287 0)
(0.894379 0.447309 0)
(0.894393 0.447333 0)
(0.894407 0.447364 0)
(0.894408 0.447411 0)
(0.894378 0.447494 0)
(0.894296 0.447639 0)
(0.894136 0.447882 0)
(0.89388 0.448264 0)
(0.893518 0.448821 0)
(0.893059 0.44958 0)
(0.892524 0.450547 0)
(0.89195 0.451707 0)
(0.891382 0.453023 0)
(0.89087 0.454445 0)
(0.890463 0.455908 0)
(0.890205 0.457343 0)
(0.890133 0.458681 0)
(0.89027 0.459854 0)
(0.890623 0.460802 0)
(0.891182 0.461469 0)
(0.891915 0.461808 0)
(0.892771 0.461788 0)
(0.893681 0.461391 0)
(0.894568 0.460627 0)
(0.895352 0.459532 0)
(0.895972 0.458176 0)
(0.896389 0.456654 0)
(0.896597 0.45507 0)
(0.896616 0.453527 0)
(0.896486 0.452107 0)
(0.896254 0.450868 0)
(0.895968 0.449836 0)
(0.895666 0.449016 0)
(0.895379 0.448391 0)
(0.895123 0.447936 0)
(0.894909 0.447618 0)
(0.89474 0.447408 0)
(0.894612 0.447277 0)
(0.89452 0.447202 0)
(0.894458 0.447164 0)
(0.89442 0.44715 0)
(0.894397 0.447149 0)
(0.894387 0.447155 0)
(0.894383 0.447164 0)
(0.894384 0.447173 0)
(0.894386 0.44718 0)
(0.894389 0.447186 0)
(0.894392 0.447191 0)
(0.894394 0.447194 0)
(0.894396 0.447196 0)
(0.894398 0.447198 0)
(0.894398 0.447199 0)
(0.894399 0.447199 0)
(0.894399 0.4472 0)
(0.8944 0.4472 0)
(0.8944 0.4472 0)
(0.8944 0.4472 0)
(0.8944 0.4472 0)
(0.8944 0.4472 0)
(0.8944 0.4472 0)
(0.8944 0.4472 0)
(0.8944 0.4472 0)
(0.8944 0.4472 0)
(0.8944 0.4472 0)
(0.8944 0.4472 0)
(0.8944 0.4472 0)
(0.8944 0.4472 0)
(0.8944 0.4472 0)
(0.8944 0.4472 0)
(0.8944 0.4472 0)
(0.8944 0.4472 0)
(0.8944 0.4472 0)
(0.8944 0.4472 0)
(0.8944 0.4472 0)
(0.8944 0.4472 0)
(0.8944 0.4472 0)
(0.8944 0.4472 0)
(0.8944 0.4472 0)
(0.8944 0.4472 0)
(0.8944 0.4472 0)
(0.8944 0.4472 0)
(0.894401 0.4472 0)
(0.8944 0.4472 0)
(0.8944 0.4472 0)
(0.8944 0.4472 0)
(0.8944 0.4472 0)
(0.8944 0.4472 0)
(0.8944 0.4472 0)
(0.894399 0.447201 0)
(0.894398 0.447201 0)
(0.894397 0.447202 0)
(0.894394 0.447204 0)
(0.894391 0.447207 0)
(0.894385 0.447213 0)
(0.894379 0.44722 0)
(0.89437 0.447232 0)
(0.894362 0.447247 0)
(0.894354 0.447266 0)
(0.89435 0.447291 0)
(0.894351 0.447318 0)
(0.894358 0.44735 0)
(0.894365 0.44739 0)
(0.894366 0.447447 0)
(0.894338 0.447536 0)
(0.894257 0.447689 0)
(0.894089 0.447945 0)
(0.893806 0.448354 0)
(0.893383 0.44897 0)
(0.892817 0.449834 0)
(0.892127 0.450968 0)
(0.89135 0.452365 0)
(0.890538 0.453987 0)
(0.889753 0.455774 0)
(0.889056 0.457651 0)
(0.88851 0.459535 0)
(0.888165 0.461348 0)
(0.888069 0.463015 0)
(0.888253 0.464468 0)
(0.88873 0.465645 0)
(0.889492 0.466486 0)