/*--------------------------------*- C++ -*----------------------------------*\
  =========                 |
  \\      /  F ield         | OpenFOAM: The Open Source CFD Toolbox
   \\    /   O peration     | Website:  https://openfoam.org
    \\  /    A nd           | Version:  6
     \\/     M anipulation  |
\*---------------------------------------------------------------------------*/
FoamFile
{
    version     2.0;
    format      ascii;
    class       volVectorField;
    location    "1.34";
    object      U;
}
// * * * * * * * * * * * * * * * * * * * * * * * * * * * * * * * * * * * * * //

dimensions      [0 1 -1 0 0 0 0];

internalField   nonuniform List<vector> 
4214
(
(9.65898 -0.221857 0)
(9.8569 -0.0941487 -2.84705e-19)
(9.91352 0.0171456 7.05027e-20)
(9.93583 0.111703 2.21583e-19)
(9.95977 0.199796 1.2627e-19)
(9.99377 0.284283 -1.41132e-20)
(10.0384 0.362298 -1.31324e-19)
(10.082 0.429979 -5.0408e-20)
(10.1151 0.485351 5.1531e-20)
(10.1321 0.528194 0)
(10.1338 0.55904 2.22623e-21)
(10.1236 0.579081 6.42625e-21)
(10.1027 0.586877 -7.7828e-21)
(10.0744 0.579739 0)
(10.0486 0.558441 1.69077e-20)
(10.0679 0.525805 -1.71182e-20)
(10.1675 0.49393 3.21867e-21)
(10.3228 0.448122 4.03032e-21)
(10.2871 0.378085 0)
(9.82371 0.191009 -1.46774e-21)
(9.50156 -0.108115 0)
(9.88863 -0.336348 1.46669e-21)
(10.1363 -0.469405 0)
(10.0551 -0.540021 -3.7599e-21)
(9.91962 -0.592788 -2.90535e-21)
(9.88206 -0.632115 -1.55934e-20)
(9.92059 -0.663261 1.5393e-20)
(9.97715 -0.678143 0)
(10.0247 -0.675466 -1.08825e-20)
(10.0613 -0.657436 1.19004e-20)
(10.088 -0.628288 -2.50188e-21)
(10.1024 -0.588627 0)
(10.0995 -0.537287 5.29987e-20)
(10.0776 -0.473596 -5.18405e-20)
(10.0417 -0.39775 -1.33788e-19)
(10.0033 -0.312349 -1.41787e-20)
(9.97273 -0.221704 1.54168e-19)
(9.95093 -0.128493 1.94777e-19)
(9.9299 -0.0293111 7.079e-20)
(9.87409 0.0869499 -2.48468e-19)
(9.67527 0.219495 0)
(10.048 -0.0620721 0)
(10.0669 0.0246953 1.98587e-20)
(10.0734 0.118798 -5.57554e-20)
(10.0777 0.198325 -2.94097e-19)
(10.0945 0.27697 3.44009e-19)
(10.1236 0.356376 0)
(10.1539 0.430199 0)
(10.1755 0.493021 8.96294e-20)
(10.1825 0.543167 -9.16675e-20)
(10.1758 0.58087 -5.63637e-20)
(10.1589 0.606734 5.52616e-20)
(10.1311 0.622413 4.54014e-21)
(10.0933 0.625652 7.73588e-23)
(10.0484 0.612875 0)
(10.0145 0.586416 0)
(10.0416 0.549455 0)
(10.1447 0.512633 -4.65026e-20)
(10.2599 0.464688 -3.13382e-20)
(10.1375 0.373273 2.39799e-20)
(9.53417 0.150165 3.54088e-20)
(9.21477 -0.160436 1.66026e-20)
(9.68093 -0.397299 9.73652e-21)
(10.0199 -0.536519 2.06576e-20)
(10.0011 -0.606603 8.10515e-21)
(9.88177 -0.658024 -3.63896e-20)
(9.84141 -0.693727 0)
(9.88215 -0.725172 0)
(9.95463 -0.742647 0)
(10.0216 -0.742459 3.14501e-22)
(10.0758 -0.725909 -6.59272e-21)
(10.1185 -0.697868 6.63672e-20)
(10.1519 -0.659967 -6.25129e-20)
(10.1731 -0.61079 -9.59179e-20)
(10.1777 -0.549432 9.37803e-20)
(10.1649 -0.475758 0)
(10.1398 -0.392294 0)
(10.1138 -0.304999 2.2992e-19)
(10.0988 -0.220365 -2.6601e-19)
(10.0962 -0.136237 5.62263e-20)
(10.0913 -0.0372461 -1.99909e-20)
(10.0736 0.0555006 1.0333e-18)
(10.1131 -0.021605 -1.40475e-18)
(10.1061 0.0648939 -5.4195e-19)
(10.1228 0.159713 6.13319e-19)
(10.1377 0.243241 0)
(10.1561 0.321864 3.9117e-19)
(10.1786 0.398249 -4.97745e-20)
(10.1977 0.467946 -4.07942e-19)
(10.2067 0.526764 0)
(10.2036 0.573831 -8.39864e-20)
(10.189 0.609536 1.2839e-19)
(10.1633 0.634769 -5.30746e-20)
(10.1271 0.650092 5.06853e-20)
(10.0814 0.652088 0)
(10.0305 0.637836 0)
(9.99624 0.61004 6.23184e-20)
(10.0251 0.572138 -8.42414e-20)
(10.1281 0.531586 4.12071e-20)
(10.2135 0.476426 1.66685e-20)
(10.032 0.367011 3.07047e-20)
(9.3702 0.126502 -1.11344e-20)
(9.06331 -0.18714 0)
(9.56844 -0.43185 1.12928e-20)
(9.96299 -0.583555 -3.0314e-20)
(9.96875 -0.657952 -1.56091e-20)
(9.86569 -0.708112 -3.72518e-20)
(9.82472 -0.741065 -7.20631e-20)
(9.86327 -0.769821 8.82448e-20)
(9.93987 -0.786288 0)
(10.0159 -0.785918 0)
(10.079 -0.768483 7.57854e-20)
(10.1294 -0.738869 -9.53641e-20)
(10.1694 -0.700213 1.39738e-19)
(10.1988 -0.651667 -1.81584e-19)
(10.2147 -0.592341 0)
(10.2149 -0.521673 -4.1904e-19)
(10.2012 -0.441193 -4.71021e-20)
(10.1809 -0.355589 4.91092e-19)
(10.1628 -0.26978 1.51494e-19)
(10.1482 -0.181011 5.03209e-19)
(10.133 -0.0812898 -5.45787e-19)
(10.1425 0.0106986 1.41082e-18)
(10.1917 0.0570621 -1.60541e-18)
(10.1973 0.125913 2.05561e-19)
(10.2162 0.219868 0)
(10.2295 0.302707 6.57272e-19)
(10.242 0.377433 -6.74501e-19)
(10.2538 0.448801 -5.48062e-19)
(10.2588 0.513946 5.6178e-19)
(10.2531 0.569302 -3.42566e-19)
(10.2364 0.61414 1.73503e-19)
(10.2093 0.649131 -1.2253e-19)
(10.1718 0.674847 1.25159e-19)
(10.1241 0.689833 -2.80538e-23)
(10.0666 0.690462 2.8584e-23)
(10.0071 0.674789 0)
(9.97128 0.645194 1.45437e-19)
(10.0025 0.606149 -1.25703e-19)
(10.1016 0.561227 -4.21604e-20)
(10.1444 0.495519 -6.2155e-20)
(9.87748 0.36854 2.69762e-20)
(9.1477 0.107884 5.44759e-20)
(8.85538 -0.21872 0)
(9.40718 -0.477937 1.00566e-19)
(9.86421 -0.648671 8.50063e-20)
(9.92362 -0.730061 -1.96087e-19)
(9.84445 -0.777737 3.81024e-20)
(9.80321 -0.806902 -1.06751e-19)
(9.83964 -0.8319 8.78166e-20)
(9.92193 -0.846467 0)
(10.0097 -0.845077 2.91747e-20)
(10.0855 -0.826683 -2.86319e-20)
(10.1475 -0.795122 1.73809e-19)
(10.198 -0.754349 -1.44041e-19)
(10.2387 -0.705315 2.76412e-19)
(10.2683 -0.647279 -8.57779e-20)
(10.2841 -0.579284 5.80308e-19)
(10.2852 -0.502438 -5.66144e-19)
(10.2756 -0.420694 -6.85236e-19)
(10.2623 -0.337257 5.13444e-19)
(10.2474 -0.247668 0)
(10.2284 -0.147923 -2.06412e-19)
(10.2257 -0.0734737 1.61176e-18)
(10.282 0.105394 -4.79818e-19)
(10.285 0.184501 -1.13513e-18)
(10.2996 0.277526 1.20824e-18)
(10.3092 0.35704 -8.44557e-19)
(10.3148 0.427572 8.6694e-19)
(10.3154 0.494691 9.18866e-19)
(10.3077 0.556303 -7.28367e-19)
(10.2901 0.609675 4.06228e-19)
(10.2628 0.654609 -2.78447e-19)
(10.2254 0.691407 0)
(10.1772 0.718973 0)
(10.1185 0.734705 0)
(10.0496 0.735281 -3.71056e-20)
(9.98305 0.719422 1.64935e-19)
(9.94715 0.689648 5.88109e-20)
(9.97921 0.650201 -1.72374e-19)
(10.0657 0.600616 -7.5176e-20)
(10.0575 0.522692 -1.04211e-19)
(9.7151 0.374935 2.40731e-19)
(8.92046 0.0929325 5.20995e-20)
(8.64397 -0.248659 -5.57728e-20)
(9.23947 -0.526494 3.64681e-21)
(9.77471 -0.720531 1.72722e-19)
(9.87646 -0.813765 3.45756e-20)
(9.82644 -0.860408 -2.04157e-19)
(9.78788 -0.884833 -1.45211e-19)
(9.82085 -0.90416 1.21506e-19)
(9.90564 -0.914829 1.17146e-19)
(10.003 -0.911058 -3.66411e-20)
(10.0912 -0.890838 0)
(10.1642 -0.856532 0)
(10.2241 -0.812191 0)
(10.2736 -0.760486 -3.00131e-19)
(10.3133 -0.701994 1.5073e-19)
(10.3415 -0.6358 -7.55614e-19)
(10.3565 -0.562071 5.21178e-19)
(10.3589 -0.48391 8.84021e-19)
(10.3524 -0.403368 -8.61257e-19)
(10.3395 -0.315194 6.97621e-19)
(10.3221 -0.214534 -7.22519e-19)
(10.3207 -0.128965 4.79748e-19)
(10.3748 0.171705 2.69583e-19)
(10.3757 0.243844 -1.75415e-18)
(10.3854 0.33079 5.89028e-19)
(10.3885 0.405495 2.95189e-19)
(10.3851 0.471953 0)
(10.3748 0.536185 4.11999e-20)
(10.3561 0.596535 0)
(10.3284 0.650878 -1.32676e-19)
(10.2911 0.698638 6.06235e-19)
(10.2433 0.739065 -4.52889e-19)
(10.1835 0.76956 1.86348e-19)
(10.1123 0.787216 -2.29035e-20)
(10.0319 0.789064 5.7035e-21)
(9.95905 0.774473 0)
(9.92313 0.746223 0)
(9.95448 0.707174 0)
(10.0182 0.654404 -7.79549e-20)
(9.95951 0.561173 -1.20129e-19)
(9.52361 0.386967 -1.97105e-19)
(8.67011 0.081631 0)
(8.40959 -0.278726 0)
(9.04432 -0.581683 0)
(9.64471 -0.80111 1.31717e-19)
(9.81936 -0.909454 1.09124e-19)
(9.80724 -0.958404 6.92298e-20)
(9.77655 -0.978197 0)
(9.8066 -0.990416 1.52032e-20)
(9.89197 -0.994996 0)
(9.99744 -0.987049 -2.66495e-20)
(10.0986 -0.9639 3.09908e-20)
(10.1841 -0.926181 2.29475e-19)
(10.2544 -0.877197 -5.31811e-19)
(10.3124 -0.820715 6.7255e-19)
(10.3607 -0.75882 -5.80202e-19)
(10.399 -0.691702 0)
(10.426 -0.619351 -4.39376e-20)
(10.4408 -0.543907 0)
(10.4446 -0.466804 -3.01413e-19)
(10.4382 -0.381864 1.75161e-18)
(10.4237 -0.285085 -5.11907e-19)
(10.422 -0.20433 -9.0998e-19)
(10.4638 0.220366 0)
(10.46 0.290417 2.7983e-20)
(10.4646 0.372759 1.70207e-18)
(10.4618 0.443893 -3.01199e-19)
(10.4502 0.508689 1.15289e-18)
(10.431 0.573278 -6.89482e-19)
(10.4039 0.635744 -1.08397e-18)
(10.368 0.693925 4.34548e-19)
(10.3216 0.746665 -2.12613e-19)
(10.2633 0.792234 0)
(10.1911 0.826974 -9.84212e-20)
(10.1062 0.847757 6.46608e-20)
(10.0147 0.852248 3.65833e-20)
(9.93732 0.841054 -7.41942e-20)
(9.90133 0.816401 3.97655e-19)
(9.92761 0.779101 -9.99953e-20)
(9.95951 0.723248 0)
(9.84222 0.610292 -3.10926e-19)
(9.3049 0.406151 4.35839e-19)
(8.39501 0.0771034 0)
(8.15166 -0.306038 0)
(8.82653 -0.641304 0)
(9.49669 -0.889238 1.36356e-19)
(9.74998 -1.01749 -3.80624e-19)
(9.78557 -1.07341 0)
(9.77196 -1.08904 -3.81855e-19)
(9.79999 -1.09251 4.64794e-20)
(9.88346 -1.08811 5.12829e-20)
(9.99449 -1.07366 -3.46645e-20)
(10.1086 -1.04592 1.99306e-19)
(10.2076 -1.00338 -1.61862e-19)
(10.289 -0.948397 0)
(10.3554 -0.885224 -6.73473e-19)
(10.4108 -0.817274 4.01009e-19)
(10.4566 -0.745659 -1.13786e-18)
(10.4924 -0.671 4.68555e-19)
(10.5173 -0.595336 1.19455e-18)
(10.5311 -0.519995 3.07494e-19)
(10.5325 -0.438054 1.08245e-18)
(10.5238 -0.344766 -2.75331e-18)
(10.5257 -0.26421 6.52814e-19)
(10.5439 0.257116 -8.81819e-19)
(10.5412 0.324387 -1.62171e-18)
(10.5429 0.404549 -8.55396e-19)
(10.5346 0.475434 0)
(10.516 0.542444 0)
(10.49 0.610617 3.09393e-19)
(10.4563 0.677874 0)
(10.4128 0.74196 2.29292e-19)
(10.3572 0.801067 -6.88031e-19)
(10.2876 0.85294 -8.05728e-20)
(10.2016 0.893082 2.61009e-19)
(10.1027 0.918024 -4.69306e-20)
(10.0003 0.926757 4.78877e-20)
(9.92015 0.92152 4.71043e-19)
(9.88261 0.902785 -1.59797e-20)
(9.89697 0.867969 -5.18771e-19)
(9.88604 0.805421 -7.61733e-21)
(9.67824 0.671287 9.44738e-20)
(9.05472 0.439631 3.53126e-19)
(8.09453 0.0828849 5.96826e-20)
(7.86316 -0.327787 1.04746e-19)
(8.57647 -0.701332 -1.60063e-19)
(9.32423 -0.985357 3.27271e-19)
(9.67045 -1.14073 -6.00339e-20)
(9.7593 -1.20829 -5.08321e-19)
(9.77281 -1.22026 -1.22218e-19)
(9.80371 -1.21306 2.07594e-19)
(9.8836 -1.19634 -9.22838e-21)
(9.99777 -1.17266 -4.45447e-20)
(10.1234 -1.13811 4.36544e-20)
(10.2364 -1.08853 3.34293e-19)
(10.3303 -1.02593 -5.38915e-19)
(10.406 -0.954353 -3.11681e-19)
(10.4683 -0.877956 7.92295e-19)
(10.5197 -0.798719 0)
(10.5615 -0.717966 -3.23254e-19)
(10.5936 -0.637953 7.97097e-19)
(10.6154 -0.560402 0)
(10.6241 -0.478942 8.70138e-19)
(10.621 -0.388346 7.62144e-19)
(10.624 -0.310757 8.88428e-19)
(10.6269 0.281022 -1.18423e-19)
(10.6279 0.353011 -1.96942e-18)
(10.6269 0.436263 1.77922e-18)
(10.6123 0.510375 0)
(10.5878 0.582134 0)
(10.5563 0.65587 0)
(10.5165 0.729275 0)
(10.4652 0.800005 0)
(10.3992 0.865796 4.43348e-19)
(10.317 0.924368 -8.41324e-19)
(10.2165 0.970509 0)
(10.1041 1.00115 0)
(9.9914 1.01596 1.35376e-19)
(9.90976 1.0192 -3.19653e-19)
(9.86855 1.00898 7.39789e-19)
(9.86098 0.97694 -9.42006e-19)
(9.79307 0.904817 -7.41593e-20)
(9.49322 0.748348 -4.14996e-19)
(8.77613 0.48903 0)
(7.76181 0.099913 -3.18204e-19)
(7.53844 -0.343227 -1.24328e-19)
(8.28577 -0.761544 4.28149e-19)
(9.11138 -1.0897 2.26087e-19)
(9.55392 -1.27782 0)
(9.72666 -1.36282 1.01342e-18)
(9.7796 -1.37426 -7.8787e-19)
(9.82006 -1.35502 5.29059e-20)
(9.89689 -1.323 4.91147e-20)
(10.0125 -1.28652 7.24426e-20)
(10.1464 -1.24167 0)
(10.2719 -1.18251 0)
(10.3797 -1.11074 -6.11209e-20)
(10.4664 -1.02952 2.03801e-19)
(10.5363 -0.943188 0)
(10.593 -0.85424 0)
(10.639 -0.764683 0)
(10.6755 -0.676908 -8.14204e-19)
(10.7025 -0.593053 0)
(10.717 -0.507995 2.05346e-18)
(10.7186 -0.415419 -8.5691e-19)
(10.7204 -0.334974 1.21887e-19)
(10.7302 0.31811 -6.99858e-18)
(10.7307 0.397195 3.25046e-18)
(10.7239 0.485365 1.01543e-18)
(10.702 0.563443 1.98395e-18)
(10.6714 0.639972 -3.90201e-18)
(10.6344 0.719115 9.36419e-19)
(10.5876 0.798192 -8.94062e-19)
(10.5269 0.874858 0)
(10.449 0.94664 -1.1889e-18)
(10.3528 1.01138 6.38135e-19)
(10.2377 1.0638 3.78095e-19)
(10.1139 1.10234 -9.42033e-20)
(9.99308 1.12499 1.98497e-19)
(9.90895 1.13867 -1.54979e-19)
(9.8588 1.1389 4.98018e-19)
(9.81845 1.10973 1.69914e-19)
(9.67709 1.02693 -3.00806e-19)
(9.27431 0.845698 9.11823e-19)
(8.46009 0.554065 -2.76483e-19)
(7.39131 0.128526 7.08928e-19)
(7.17051 -0.351022 0)
(7.94676 -0.820474 -1.45995e-19)
(8.8581 -1.20113 -4.94175e-19)
(9.41032 -1.42868 -4.32737e-19)
(9.67741 -1.53761 -8.41305e-19)
(9.78941 -1.55318 1.65816e-19)
(9.8505 -1.52208 3.41468e-19)
(9.92964 -1.47287 -7.31405e-20)
(10.0442 -1.41963 -3.12042e-20)
(10.1818 -1.35945 2.25779e-19)
(10.3174 -1.28805 4.92966e-19)
(10.4393 -1.20603 -1.0178e-19)
(10.5386 -1.11458 4.60095e-19)
(10.6179 -1.01813 0)
(10.6807 -0.919146 0)
(10.731 -0.820165 3.04401e-18)
(10.7709 -0.723564 -4.06846e-18)
(10.8016 -0.631922 2.0564e-18)
(10.8211 -0.54097 -1.03513e-18)
(10.8263 -0.442924 1.21125e-18)
(10.8271 -0.356262 -2.0581e-18)
(10.8615 0.394646 -4.17217e-18)
(10.8535 0.477689 0)
(10.8379 0.568454 -1.33115e-18)
(10.8079 0.648364 0)
(10.771 0.727533 0)
(10.7271 0.810181 9.99515e-19)
(10.6714 0.893135 9.14442e-19)
(10.5994 0.974098 -9.40361e-19)
(10.508 1.05046 1.47236e-18)
(10.3971 1.12058 3.62247e-19)
(10.268 1.17921 0)
(10.1361 1.2273 3.28679e-20)
(10.0113 1.26074 8.6529e-20)
(9.92251 1.2868 -5.75735e-19)
(9.85447 1.29678 4.52939e-19)
(9.76661 1.26999 -1.58656e-18)
(9.53357 1.17453 1.21266e-18)
(9.01606 0.965617 -9.89523e-19)
(8.10115 0.638071 9.07345e-19)
(6.97681 0.171083 1.88466e-20)
(6.75213 -0.349151 0)
(7.54959 -0.875109 -1.74248e-20)
(8.55005 -1.31688 2.23557e-19)
(9.22487 -1.5932 -9.82394e-19)
(9.60728 -1.73387 1.0287e-18)
(9.79856 -1.7585 -7.60169e-19)
(9.89671 -1.71904 6.24623e-19)
(9.98858 -1.65162 -9.71018e-20)
(10.099 -1.57712 -1.29101e-19)
(10.2361 -1.49747 3.38699e-20)
(10.3775 -1.41094 0)
(10.512 -1.31774 0)
(10.6245 -1.21627 -1.70085e-18)
(10.7153 -1.1109 1.04632e-18)
(10.786 -1.00336 -1.14509e-18)
(10.8417 -0.896668 -1.05859e-18)
(10.8856 -0.79309 0)
(10.9206 -0.695655 0)
(10.9452 -0.600066 1.36485e-18)
(10.9546 -0.497204 0)
(10.958 -0.405353 -1.20786e-18)
(11.0158 0.523598 -6.10458e-18)
(10.9954 0.604358 -2.8508e-18)
(10.9706 0.693798 5.83609e-18)
(10.9331 0.772945 -4.18948e-18)
(10.8886 0.852268 1.33496e-18)
(10.8358 0.93615 1.35675e-18)
(10.7691 1.02103 0)
(10.684 1.10468 -1.68892e-19)
(10.578 1.18435 -8.15521e-19)
(10.4528 1.25942 -1.98851e-18)
(10.3116 1.3243 5.21956e-20)
(10.1756 1.3832 3.91793e-20)
(10.0489 1.43041 1.72165e-23)
(9.95513 1.47051 3.38288e-19)
(9.8537 1.48812 1.05369e-19)
(9.70144 1.46202 -3.46384e-19)
(9.35867 1.35101 1.87508e-18)
(8.71538 1.11106 -1.75585e-18)
(7.69515 0.744006 -3.33977e-19)
(6.513 0.22973 3.93386e-19)
(6.27822 -0.335786 0)
(7.08607 -0.923339 3.33847e-19)
(8.17763 -1.4348 -3.73234e-19)
(8.98643 -1.76856 5.8904e-19)
(9.50411 -1.95019 1.14525e-18)
(9.80073 -1.99115 -1.94289e-18)
(9.95963 -1.94965 7.55271e-19)
(10.0756 -1.86502 -2.58844e-19)
(10.1831 -1.76529 -3.5915e-19)
(10.3175 -1.66413 1.7481e-20)
(10.4586 -1.55966 1.51187e-18)
(10.6021 -1.45444 2.05528e-19)
(10.7266 -1.34347 2.06987e-18)
(10.83 -1.2312 -1.07072e-18)
(10.9108 -1.11778 -1.95947e-19)
(10.9738 -1.00654 -1.44567e-18)
(11.0235 -0.899625 4.3897e-18)
(11.0642 -0.800607 -2.80556e-18)
(11.0949 -0.704475 1.7691e-20)
(11.1098 -0.601044 -2.91542e-18)
(11.1194 -0.509946 6.1644e-18)
(11.1875 0.695289 -1.77493e-18)
(11.1548 0.772022 0)
(11.1224 0.8587 -1.57729e-18)
(11.0782 0.936669 1.53145e-18)
(11.0247 1.0153 1.46546e-18)
(10.9609 1.09943 1.45042e-18)
(10.8814 1.18542 -1.40912e-18)
(10.7823 1.27116 2.31314e-18)
(10.6616 1.35396 1.39806e-20)
(10.5239 1.43444 7.94975e-19)
(10.374 1.50674 5.52668e-19)
(10.2377 1.57868 -3.27928e-19)
(10.1065 1.63976 1.72948e-19)
(10.0043 1.69625 -6.14473e-19)
(9.85026 1.71968 8.57025e-19)
(9.6149 1.68993 -7.48822e-19)
(9.14234 1.55855 3.87152e-20)
(8.36437 1.28408 1.38731e-18)
(7.23622 0.873475 -1.54817e-18)
(5.99613 0.305668 6.6478e-19)
(5.74774 -0.308753 0)
(6.54967 -0.961533 1.64662e-19)
(7.73011 -1.55103 -6.99094e-19)
(8.68117 -1.95042 8.34825e-20)
(9.35247 -2.18316 -4.45914e-19)
(9.78317 -2.25206 5.77026e-19)
(10.0286 -2.21428 1.98844e-19)
(10.1877 -2.11623 -9.37904e-20)
(10.3002 -1.99216 6.66714e-19)
(10.4333 -1.86868 1.83418e-19)
(10.5678 -1.74344 -7.62616e-19)
(10.7147 -1.62509 -9.78077e-19)
(10.8477 -1.50476 -3.88871e-18)
(10.9633 -1.38723 1.31125e-18)
(11.0554 -1.27045 -3.38464e-18)
(11.1277 -1.15769 4.53408e-18)
(11.1848 -1.05078 -1.53833e-18)
(11.2325 -0.953686 0)
(11.2699 -0.860312 1.62104e-18)
(11.2921 -0.760433 0)
(11.3115 -0.674238 1.79727e-18)
(11.3743 0.890117 -6.22385e-18)
(11.3314 0.96605 -3.8368e-18)
(11.292 1.05159 3.94879e-18)
(11.2416 1.1307 0)
(11.1779 1.21046 0)
(11.1025 1.29614 0)
(11.0096 1.38445 -3.37274e-18)
(10.8969 1.47338 1.68507e-18)
(10.7633 1.56121 -2.44629e-18)
(10.6168 1.64914 1.24911e-18)
(10.4627 1.73181 0)
(10.3292 1.8202 5.07022e-19)
(10.187 1.89535 9.48153e-20)
(10.0654 1.96999 8.75082e-20)
(9.83666 1.99392 1.13992e-18)
(9.49883 1.95673 -1.67188e-18)
(8.87332 1.79686 1.7048e-18)
(7.95433 1.48495 -6.77804e-19)
(6.71431 1.02542 0)
(5.41631 0.398127 -5.87765e-19)
(5.1552 -0.265947 2.39677e-19)
(5.92991 -0.983916 3.25625e-19)
(7.19368 -1.65837 0)
(8.29303 -2.13147 -5.5755e-19)
(9.13407 -2.42451 1.3158e-18)
(9.73048 -2.53548 -1.19745e-18)
(10.0864 -2.51071 2.03011e-19)
(10.3209 -2.40861 1.42582e-19)
(10.4507 -2.26256 -2.67422e-19)
(10.5907 -2.11779 -8.28417e-19)
(10.714 -1.96907 0)
(10.8578 -1.83506 1.47861e-18)
(10.9927 -1.70425 -1.82166e-20)
(11.1172 -1.58081 -1.87867e-18)
(11.2198 -1.46168 3.66918e-18)
(11.3022 -1.34822 0)
(11.367 -1.24228 0)
(11.4216 -1.14736 0)
(11.4645 -1.05702 4.04736e-18)
(11.4958 -0.961682 -3.93306e-18)
(11.527 -0.880653 6.29378e-18)
(11.5766 1.08502 -2.45494e-18)
(11.5276 1.16509 0)
(11.4794 1.25281 0)
(11.4235 1.33657 0)
(11.3497 1.42272 0)
(11.2647 1.51345 4.10886e-18)
(11.1586 1.60852 -2.35693e-18)
(11.0348 1.70346 -3.49559e-18)
(10.8925 1.80167 -1.04064e-19)
(10.7427 1.90038 -1.6672e-18)
(10.5903 1.99952 -1.37141e-18)
(10.4611 2.10776 2.11083e-19)
(10.2983 2.19836 -5.36464e-19)
(10.1447 2.29128 -1.83997e-19)
(9.81037 2.30862 -4.90179e-19)
(9.3564 2.26565 -1.03566e-18)
(8.54652 2.06464 1.15429e-18)
(7.4793 1.71707 -7.26225e-19)
(6.11115 1.19896 4.92567e-19)
(4.74449 0.508091 -1.3212e-19)
(4.4716 -0.206866 2.62019e-19)
(5.20092 -0.988206 -1.27535e-19)
(6.54983 -1.74993 0)
(7.81021 -2.30715 -5.75588e-19)
(8.83477 -2.66391 1.78862e-18)
(9.63292 -2.83312 -7.35267e-19)
(10.1239 -2.82747 2.37216e-19)
(10.4752 -2.73755 -4.36182e-20)
(10.6375 -2.57306 -9.59518e-19)
(10.7986 -2.40929 3.64841e-20)
(10.9094 -2.23597 1.7495e-18)
(11.0434 -2.0804 1.99073e-18)
(11.1712 -1.9373 4.25289e-18)
(11.2972 -1.80241 -7.63188e-20)
(11.4061 -1.67985 -6.58724e-18)
(11.4975 -1.56159 4.42408e-18)
(11.5681 -1.45464 0)
(11.6291 -1.3565 2.54737e-18)
(11.6743 -1.26667 0)
(11.714 -1.17165 0)
(11.7529 -1.08961 2.47192e-18)
(11.8002 1.25047 5.45397e-18)
(11.7501 1.33569 0)
(11.6907 1.43538 0)
(11.6321 1.52525 -8.28506e-18)
(11.547 1.63099 5.48326e-18)
(11.4575 1.72886 0)
(11.3368 1.84238 0)
(11.2084 1.94503 0)
(11.0618 2.06554 6.49902e-18)
(10.9162 2.17586 -3.8297e-19)
(10.7711 2.3029 5.82231e-21)
(10.6457 2.42975 3.89538e-18)
(10.4486 2.54094 -1.19346e-18)
(10.2532 2.65302 8.39918e-20)
(9.77138 2.65666 2.75646e-19)
(9.20019 2.61868 9.68887e-19)
(8.16003 2.36392 2.65529e-19)
(6.94766 2.00022 -7.29908e-19)
(5.41253 1.40406 -1.04943e-18)
(3.94675 0.656253 5.51582e-19)
(3.66205 -0.133403 0)
(4.33151 -0.993244 4.94519e-19)
(5.7828 -1.82942 -4.82878e-19)
(7.23388 -2.48903 -5.41742e-19)
(8.44254 -2.89021 -4.13104e-19)
(9.4918 -3.14077 5.93724e-19)
(10.1293 -3.14805 3.44093e-20)
(10.6523 -3.08574 7.16516e-19)
(10.8611 -2.90802 -2.0199e-18)
(11.0641 -2.72372 2.78053e-18)
(11.1649 -2.53351 -3.64054e-18)
(11.2845 -2.34357 -4.46553e-18)
(11.396 -2.19104 1.10836e-19)
(11.5135 -2.02944 2.92279e-18)
(11.6196 -1.90413 0)
(11.7184 -1.7669 0)
(11.7908 -1.65858 5.70748e-18)
(11.8594 -1.54133 -5.09117e-18)
(11.9023 -1.44914 0)
(11.9454 -1.34207 0)
(11.9835 -1.2542 -5.47425e-18)
(12.0343 1.36578 -3.01329e-18)
(11.996 1.44102 0)
(11.9223 1.589 0)
(11.8735 1.66877 -5.44563e-19)
(11.7655 1.82873 0)
(11.6888 1.9169 6.31641e-18)
(11.5395 2.08105 -6.50694e-18)
(11.4298 2.17718 0)
(11.2702 2.34914 -5.66855e-18)
(11.1478 2.45631 0)
(10.9968 2.63802 2.5209e-18)
(10.8797 2.76555 -2.16094e-18)
(10.6057 2.91966 -2.13833e-18)
(10.377 3.04209 5.15505e-19)
(9.66896 3.03734 1.25374e-19)
(9.02757 3.02389 -1.06041e-18)
(7.67141 2.69911 2.33873e-19)
(6.38282 2.36751 0)
(4.63182 1.65815 0)
(3.05321 0.899149 -5.43832e-19)
(2.82413 -0.047592 0)
(3.34811 -1.0484 4.8775e-19)
(4.90023 -1.90772 7.48988e-19)
(6.58331 -2.71087 0)
(7.90659 -3.09721 6.66604e-19)
(9.29777 -3.45479 -1.38719e-19)
(10.0284 -3.45749 -4.21836e-19)
(10.8236 -3.43164 8.91406e-19)
(11.0745 -3.25523 -3.16954e-18)
(11.3733 -3.02645 7.18117e-18)
(11.4651 -2.8502 -3.0866e-18)
(11.5848 -2.59598 0)
(11.6682 -2.45668 3.49983e-18)
(11.7754 -2.23192 -2.99567e-18)
(11.8587 -2.12227 -6.90691e-18)
(11.9697 -1.92932 6.70784e-18)
(12.03 -1.83796 0)
(12.1113 -1.66397 5.3348e-19)
(12.1427 -1.58273 0)
(12.1874 -1.42334 0)
(12.2127 -1.35029 3.01685e-18)
(12.2498 -1.2086 -3.44812e-18)
(12.0431 -1.18529 0)
(11.8222 -1.05698 0)
(11.5946 -0.864763 -4.11236e-18)
(11.3696 -0.660301 -1.92423e-18)
(11.165 -0.489168 -3.29394e-18)
(10.9927 -0.375426 -1.7507e-19)
(10.857 -0.32356 -1.54832e-18)
(10.7538 -0.304505 -1.23946e-18)
(10.6646 -0.286781 1.23705e-18)
(10.5714 -0.244552 0)
(10.47 -0.197673 0)
(10.3727 -0.119796 1.75088e-18)
(10.285 -0.0923577 -2.68478e-18)
(10.2207 0.0368199 -2.57038e-18)
(10.0448 0.0225313 -1.75001e-18)
(9.37167 0.303341 1.06999e-19)
(12.2656 -1.1403 -7.01226e-18)
(12.095 -1.12286 0)
(11.9064 -1.03603 0)
(11.701 -0.879346 -7.76918e-18)
(11.4848 -0.688603 -2.42086e-18)
(11.2743 -0.502896 -4.29851e-18)
(11.0877 -0.356711 1.80742e-18)
(10.9368 -0.273716 -1.80337e-18)
(10.8268 -0.24323 1.48703e-18)
(10.744 -0.237831 -1.48277e-18)
(10.6641 -0.217251 -2.71848e-18)
(10.5756 -0.190626 0)
(10.4817 -0.119265 -1.85052e-18)
(10.3982 -0.1009 1.98205e-18)
(10.3259 0.0385125 1.33152e-18)
(10.1512 -0.0469996 -1.55512e-18)
(9.36208 0.264547 0)
(12.2806 -0.990647 1.49892e-17)
(12.1381 -1.03816 3.30631e-18)
(11.9741 -0.993126 0)
(11.7878 -0.874706 5.57257e-18)
(11.5829 -0.710453 0)
(11.3716 -0.529375 4.58113e-18)
(11.176 -0.368095 -2.09072e-18)
(11.0124 -0.256344 2.08396e-18)
(10.8919 -0.199979 0)
(10.8067 -0.184713 1.61113e-18)
(10.7341 -0.17238 -1.92389e-19)
(10.6575 -0.162507 1.31025e-19)
(10.5748 -0.109442 1.93008e-18)
(10.4987 -0.100758 -3.22879e-18)
(10.4288 0.0364677 5.32287e-19)
(10.2304 -0.0709607 1.84703e-18)
(9.35447 0.282923 -2.07097e-19)
(12.2795 -0.920573 -3.79366e-18)
(12.1635 -0.956946 -7.39563e-18)
(12.0298 -0.943913 -6.91973e-18)
(11.8688 -0.86602 -6.42132e-18)
(11.6814 -0.733964 2.80215e-18)
(11.4765 -0.568656 -8.29896e-18)
(11.2752 -0.401443 -2.39845e-18)
(11.0986 -0.2647 2.38785e-18)
(10.9628 -0.177964 0)
(10.8678 -0.141916 0)
(10.7967 -0.125289 -5.61219e-18)
(10.7292 -0.125244 3.37058e-18)
(10.6605 -0.0883718 -1.61036e-18)
(10.5959 -0.0950312 0)
(10.5313 0.0357087 0)
(10.3125 -0.0842382 0)
(9.36343 0.288437 -2.20551e-18)
(12.2697 -0.764581 1.70493e-17)
(12.1811 -0.857731 3.88115e-18)
(12.0733 -0.88072 3.57965e-18)
(11.9368 -0.8417 6.89151e-18)
(11.7705 -0.747674 0)
(11.5801 -0.611072 1.2066e-17)
(11.3804 -0.45215 0)
(11.1943 -0.302298 -5.42273e-18)
(11.0409 -0.186979 2.39122e-18)
(10.9276 -0.122217 -9.40473e-18)
(10.8464 -0.0865937 6.30975e-18)
(10.7798 -0.0854745 4.21754e-18)
(10.7207 -0.0551895 0)
(10.6705 -0.0819914 8.28302e-19)
(10.6095 0.0371092 -8.23325e-19)
(10.3882 -0.0913886 -1.73118e-19)
(9.38287 0.287312 -3.15825e-19)
(12.2559 -0.695592 -9.15948e-18)
(12.1803 -0.762554 0)
(12.0973 -0.804549 -3.96997e-18)
(11.9886 -0.801113 3.94087e-18)
(11.8489 -0.746713 0)
(11.6801 -0.645438 -6.61629e-18)
(11.4901 -0.508677 3.08336e-18)
(11.2997 -0.362156 5.63656e-18)
(11.1299 -0.229346 -2.88301e-18)
(10.9938 -0.13625 2.52446e-18)
(10.8914 -0.0741392 2.56145e-18)
(10.814 -0.0585107 -3.33773e-18)
(10.7526 -0.0239837 -1.13056e-18)
(10.7103 -0.0601395 0)
(10.6585 0.0383849 0)
(10.4494 -0.0938445 2.14714e-19)
(9.41156 0.276716 2.75164e-18)
(12.227 -0.535389 4.89118e-18)
(12.1721 -0.647363 4.56056e-18)
(12.1065 -0.715041 -4.30653e-18)
(12.023 -0.740953 8.36404e-18)
(11.9127 -0.723814 -3.94145e-18)
(11.7714 -0.661152 3.70759e-18)
(11.6002 -0.558074 -3.48476e-18)
(11.4133 -0.430137 3.57331e-18)
(11.2326 -0.296176 6.35181e-18)
(11.0737 -0.183935 -3.07823e-18)
(10.9435 -0.0952873 -2.79688e-18)
(10.8422 -0.0542617 5.58273e-18)
(10.7641 -0.0110369 2.66999e-18)
(10.714 -0.0416845 1.3642e-18)
(10.6764 0.0410595 4.12157e-18)
(10.4892 -0.0911998 1.48883e-18)
(9.44653 0.257742 2.37202e-18)
(12.2028 -0.468753 -1.03249e-17)
(12.1505 -0.544418 4.91048e-18)
(12.0987 -0.614019 -4.64271e-18)
(12.0379 -0.660938 4.58857e-18)
(11.9586 -0.675171 -8.63857e-18)
(11.8487 -0.650018 8.1386e-18)
(11.7039 -0.584712 -4.02061e-18)
(11.5316 -0.487685 -3.67279e-18)
(11.3498 -0.370403 0)
(11.175 -0.255471 3.46573e-18)
(11.0178 -0.148708 0)
(10.8842 -0.0833225 1.96874e-19)
(10.7752 -0.0161847 2.13609e-19)
(10.6973 -0.0335008 2.27314e-19)
(10.6702 0.04378 -1.87243e-18)
(10.5079 -0.0865149 -3.96843e-19)
(9.48355 0.23349 -2.2238e-18)
(12.1598 -0.312419 0)
(12.1238 -0.420911 -1.13351e-19)
(12.083 -0.503238 4.983e-18)
(12.0389 -0.563747 -9.61054e-18)
(11.9848 -0.600925 1.4049e-17)
(11.9061 -0.607059 -4.43432e-18)
(11.7926 -0.57804 4.29383e-18)
(11.6465 -0.516889 -4.08972e-18)
(11.4779 -0.428588 4.00074e-18)
(11.2999 -0.329866 -3.69336e-18)
(11.1242 -0.221415 0)
(10.9599 -0.140741 -6.93267e-18)
(10.8119 -0.0521701 -3.22511e-18)
(10.6916 -0.0434916 -3.08877e-18)
(10.6429 0.0393231 7.5539e-19)
(10.5125 -0.0810986 -3.20818e-18)
(9.52142 0.204048 -3.55982e-19)
(12.13 -0.253251 1.16173e-17)
(12.0899 -0.321041 -1.67278e-17)
(12.0578 -0.390988 5.29205e-18)
(12.0292 -0.454326 5.2061e-18)
(11.9948 -0.50476 -9.96434e-18)
(11.9412 -0.53397 4.86927e-18)
(11.859 -0.535006 4.64293e-18)
(11.7463 -0.507493 -4.45713e-18)
(11.6056 -0.451986 -4.26944e-18)
(11.4424 -0.380174 0)
(11.2642 -0.28576 1.97554e-18)
(11.0814 -0.206529 1.82195e-18)
(10.8973 -0.104916 -1.9392e-18)
(10.7304 -0.0761799 -9.23522e-19)
(10.6223 0.0205501 -8.72209e-19)
(10.5177 -0.0713873 -3.84715e-18)
(9.56522 0.163754 4.05982e-19)
(12.0798 -0.112638 -6.00682e-18)
(12.0542 -0.20477 -5.82202e-18)
(12.0312 -0.278262 -2.84959e-20)
(12.0134 -0.340628 0)
(11.9927 -0.39485 0)
(11.9577 -0.436852 -5.09669e-18)
(11.9016 -0.460278 5.0014e-18)
(11.8218 -0.459943 0)
(11.7164 -0.43413 0)
(11.5847 -0.389853 0)
(11.4266 -0.319944 0)
(11.247 -0.256518 -4.24063e-18)
(11.0433 -0.152639 6.00468e-18)
(10.8389 -0.113716 -2.95831e-18)
(10.6685 -0.00247644 9.60412e-19)
(10.535 -0.0630682 3.60848e-18)
(9.61538 0.117427 0)
(12.0478 -0.0670871 3.38974e-18)
(12.0176 -0.121975 0)
(12.0016 -0.1774 -2.94671e-18)
(11.9926 -0.231161 2.90347e-18)
(11.9808 -0.282692 -5.62709e-18)
(11.959 -0.328083 -2.67901e-18)
(11.9236 -0.36187 -2.59836e-18)
(11.8717 -0.380555 -2.52258e-18)
(11.8 -0.380701 3.96468e-21)
(11.7056 -0.362426 -2.40441e-18)
(11.5844 -0.317359 -4.65067e-18)
(11.433 -0.270021 4.46523e-18)
(11.2396 -0.181147 -2.19926e-18)
(11.019 -0.141916 -2.13739e-18)
(10.79 -0.0239498 -2.08025e-18)
(10.5659 -0.0561154 -2.03147e-18)
(9.66715 0.0743011 -1.98872e-18)
(11.9939 0.0461499 6.82111e-18)
(11.9799 -0.0270071 -6.42202e-18)
(11.9724 -0.0820854 3.20414e-18)
(11.9684 -0.129332 3.09378e-18)
(11.9611 -0.17557 5.42792e-20)
(11.9477 -0.219252 3.9442e-20)
(11.9273 -0.256701 5.52787e-18)
(11.8973 -0.284734 4.78895e-20)
(11.8541 -0.29996 2.59826e-18)
(11.7942 -0.301987 5.02035e-18)
(11.7133 -0.282538 -4.95843e-22)
(11.6046 -0.25705 2.37322e-18)
(11.45 -0.189685 -2.30324e-18)
(11.2406 -0.154079 -1.13239e-18)
(10.9665 -0.0402073 3.27462e-18)
(10.6208 -0.0552902 2.1206e-18)
(9.7221 0.0391716 2.07178e-18)
(11.9594 0.0763244 -6.98164e-18)
(11.9418 0.0336006 6.8609e-18)
(11.9385 -0.00530962 0)
(11.9373 -0.0434469 3.14447e-18)
(11.9328 -0.0827161 -2.94835e-18)
(11.9252 -0.12123 0)
(11.9149 -0.156692 -2.80168e-18)
(11.9 -0.187329 2.79063e-18)
(11.8781 -0.210675 -2.67671e-18)
(11.8463 -0.225875 2.6081e-18)
(11.8016 -0.225038 2.53082e-18)
(11.7361 -0.221293 -2.46851e-18)
(11.6324 -0.178425 2.40901e-18)
(11.4568 -0.157604 3.51842e-18)
(11.1655 -0.0569855 -1.14472e-18)
(10.7095 -0.0606638 0)
(9.78837 0.0153592 0)
(11.9038 0.161252 3.7354e-18)
(11.9022 0.10396 0)
(11.9024 0.0638786 0)
(11.9005 0.0301348 0)
(11.8965 -0.00402384 3.1792e-18)
(11.8921 -0.0379466 3.00963e-18)
(11.8875 -0.0703367 2.958e-18)
(11.8815 -0.100576 -2.82465e-18)
(11.873 -0.126803 -2.73733e-18)
(11.8606 -0.148327 2.66007e-18)
(11.8416 -0.158358 1.29319e-18)
(11.8116 -0.170012 -1.25842e-18)
(11.7551 -0.143585 0)
(11.6265 -0.150077 -1.19954e-18)
(11.3524 -0.0632711 1.1701e-18)
(10.835 -0.0702927 0)
(9.87125 0.00302144 0)
(11.8675 0.178848 0)
(11.8607 0.145015 3.56109e-18)
(11.8596 0.116349 -1.76146e-18)
(11.8567 0.0880939 0)
(11.8531 0.0587168 0)
(11.8502 0.0293269 0)
(11.8479 0.000571618 -2.93098e-18)
(11.8457 -0.0274243 2.83516e-18)
(11.8433 -0.0528265 1.33476e-18)
(11.8421 -0.0755671 -1.33235e-18)
(11.841 -0.0919558 2.58758e-18)
(11.8324 -0.112002 -1.25732e-18)
(11.8075 -0.100193 0)
(11.7264 -0.125603 5.99698e-19)
(11.4963 -0.0565824 5.53573e-19)
(10.9744 -0.0800677 -2.87603e-19)
(9.96512 -0.00354366 2.8155e-19)
(11.8109 0.242974 1.82442e-18)
(11.815 0.19593 5.14529e-20)
(11.8123 0.164438 -1.80905e-18)
(11.8077 0.137404 1.63072e-18)
(11.8036 0.110555 -5.24643e-20)
(11.8006 0.0839279 -2.95652e-18)
(11.7985 0.0578772 2.84647e-18)
(11.7971 0.0323085 0)
(11.7962 0.00809383 -2.73524e-18)
(11.7969 -0.0145038 -2.00209e-21)
(11.8015 -0.0336497 1.26476e-18)
(11.8119 -0.0576847 0)
(11.8061 -0.058045 0)
(11.7581 -0.0943647 0)
(11.5785 -0.0369184 -8.82649e-19)
(11.0942 -0.0872921 -4.17509e-19)
(10.0577 0.00215862 1.36856e-19)
(11.7687 0.254476 -1.02871e-18)
(11.7631 0.224303 1.81948e-18)
(11.7571 0.2018 -1.72955e-18)
(11.7517 0.176881 -1.5929e-18)
(11.747 0.152354 -1.57128e-18)
(11.7432 0.127861 2.96856e-18)