/*--------------------------------*- C++ -*----------------------------------*\
  =========                 |
  \\      /  F ield         | OpenFOAM: The Open Source CFD Toolbox
   \\    /   O peration     | Website:  https://openfoam.org
    \\  /    A nd           | Version:  6
     \\/     M anipulation  |
\*---------------------------------------------------------------------------*/
FoamFile
{
    version     2.0;
    format      ascii;
    class       volScalarField;
    location    "2.01";
    object      rho;
}
// * * * * * * * * * * * * * * * * * * * * * * * * * * * * * * * * * * * * * //

dimensions      [1 -3 0 0 0 0 0];

internalField   nonuniform List<scalar> 
5625
(
1.40972
1.37693
1.33726
1.29155
1.24108
1.18753
1.13304
1.08
1.0309
0.988274
0.954265
0.930085
0.916025
0.91215
0.918606
0.935275
0.961571
0.996705
1.0398
1.08951
1.14363
1.19927
1.25358
1.3043
1.34979
1.38876
1.42008
1.44287
1.45692
1.46284
1.46208
1.45661
1.44846
1.4394
1.43067
1.42301
1.41672
1.41183
1.40819
1.40556
1.40373
1.40248
1.40164
1.40109
1.40073
1.40049
1.40034
1.40024
1.40017
1.40012
1.40008
1.40006
1.40004
1.40003
1.40002
1.40002
1.40001
1.40001
1.40001
1.40001
1.40001
1.40001
1.40001
1.40001
1.40001
1.40001
1.40001
1.40001
1.40001
1.40001
1.40001
1.40001
1.40001
1.40001
1.40001
1.42132
1.39273
1.35771
1.31709
1.27204
1.22408
1.17514
1.12736
1.08304
1.04449
1.01361
0.991457
0.978422
0.974783
0.980777
0.996217
1.02043
1.05259
1.0918
1.13676
1.18539
1.23511
1.28345
1.32849
1.36875
1.40296
1.42998
1.44901
1.45992
1.46342
1.46101
1.4546
1.4461
1.43709
1.42864
1.42135
1.41545
1.4109
1.40754
1.40512
1.40344
1.4023
1.40154
1.40103
1.4007
1.40048
1.40033
1.40023
1.40017
1.40012
1.40009
1.40006
1.40004
1.40003
1.40002
1.40002
1.40001
1.40001
1.40001
1.40001
1.40001
1.40001
1.40001
1.40001
1.40001
1.40001
1.40001
1.40001
1.40001
1.40001
1.40001
1.40001
1.40001
1.40001
1.40001
1.43226
1.40799
1.37772
1.34227
1.3027
1.26043
1.21714
1.17476
1.13535
1.10096
1.07323
1.05312
1.04116
1.03781
1.04328
1.05731
1.07919
1.10814
1.14328
1.18335
1.22642
1.27023
1.31267
1.35208
1.38711
1.41653
1.43921
1.45444
1.46221
1.46335
1.4594
1.45218
1.44344
1.43457
1.42647
1.41962
1.41414
1.40995
1.40687
1.40468
1.40315
1.40212
1.40143
1.40097
1.40066
1.40046
1.40032
1.40023
1.40017
1.40012
1.40009
1.40006
1.40004
1.40003
1.40002
1.40002
1.40001
1.40001
1.40001
1.40001
1.40001
1.40001
1.40001
1.40001
1.40001
1.40001
1.40001
1.40001
1.40001
1.40001
1.40001
1.40001
1.40001
1.40001
1.40001
1.44216
1.42218
1.39667
1.36636
1.33227
1.29563
1.25796
1.22097
1.18646
1.15619
1.13156
1.11354
1.10276
1.09973
1.10461
1.11707
1.13645
1.16206
1.19306
1.22823
1.26581
1.30384
1.34055
1.37448
1.40439
1.42905
1.44742
1.45888
1.46361
1.46254
1.45721
1.44934
1.44051
1.43189
1.42422
1.41784
1.4128
1.40899
1.4062
1.40423
1.40286
1.40194
1.40131
1.4009
1.40062
1.40044
1.40031
1.40022
1.40016
1.40012
1.40008
1.40006
1.40004
1.40003
1.40002
1.40002
1.40001
1.40001
1.40001
1.40001
1.40001
1.40001
1.40001
1.40001
1.40001
1.40001
1.40001
1.40001
1.40001
1.40001
1.40001
1.40001
1.40001
1.40001
1.40001
1.45069
1.43489
1.414
1.38872
1.35994
1.32879
1.2966
1.26483
1.23505
1.20877
1.18723
1.17134
1.1618
1.1591
1.16331
1.17411
1.19093
1.21318
1.2401
1.2705
1.30279
1.33529
1.36652
1.3952
1.42014
1.44015
1.45429
1.46212
1.46397
1.46091
1.45442
1.44611
1.43735
1.42909
1.42192
1.41605
1.41147
1.40804
1.40555
1.40379
1.40258
1.40175
1.4012
1.40083
1.40058
1.40041
1.4003
1.40022
1.40016
1.40011
1.40008
1.40006
1.40004
1.40003
1.40002
1.40002
1.40001
1.40001
1.40001
1.40001
1.40001
1.40001
1.40001
1.40001
1.40001
1.40001
1.40001
1.40001
1.40001
1.40001
1.40001
1.40001
1.40001
1.40001
1.40001
1.45757
1.44575
1.42929
1.40879
1.38507
1.35913
1.33213
1.30532
1.28005
1.2576
1.23907
1.22532
1.21702
1.2146
1.21812
1.22725
1.24157
1.26058
1.28358
1.30943
1.33672
1.36403
1.3901
1.41379
1.43396
1.44948
1.45956
1.46397
1.46322
1.45845
1.45109
1.44256
1.43401
1.42623
1.41961
1.41428
1.41017
1.40711
1.40491
1.40336
1.4023
1.40158
1.40109
1.40076
1.40054
1.40039
1.40028
1.40021
1.40015
1.40011
1.40008
1.40006
1.40004
1.40003
1.40002
1.40002
1.40001
1.40001
1.40001
1.40001
1.40001
1.40001
1.40001
1.40001
1.40001
1.40001
1.40001
1.40001
1.40001
1.40001
1.40001
1.40001
1.40001
1.40001
1.40001
1.46262
1.45452
1.44219
1.42617
1.40717
1.38608
1.36389
1.3417
1.32064
1.3018
1.28615
1.27447
1.26737
1.2652
1.26802
1.27558
1.28758
1.30358
1.32289
1.34449
1.36713
1.38963
1.4109
1.42988
1.44549
1.45674
1.46302
1.46433
1.46134
1.4552
1.44726
1.43875
1.43058
1.42335
1.41733
1.41255
1.40891
1.40623
1.4043
1.40296
1.40203
1.4014
1.40098
1.40069
1.4005
1.40036
1.40026
1.40019
1.40014
1.4001
1.40008
1.40006
1.40004
1.40003
1.40002
1.40002
1.40001
1.40001
1.40001
1.40001
1.40001
1.40001
1.40001
1.40001
1.40001
1.40001
1.40001
1.40001
1.40001
1.40001
1.40001
1.40001
1.40001
1.40001
1.40001
1.46572
1.46102
1.4525
1.44059
1.42593
1.40927
1.39148
1.37351
1.35631
1.34082
1.32785
1.31812
1.31214
1.31022
1.3124
1.31856
1.32846
1.34171
1.35764
1.37531
1.39368
1.41176
1.42858
1.44315
1.45447
1.46173
1.46456
1.46317
1.45837
1.45127
1.44306
1.43477
1.42713
1.42053
1.41513
1.41091
1.40772
1.40539
1.40373
1.40257
1.40178
1.40124
1.40088
1.40063
1.40046
1.40033
1.40025
1.40018
1.40013
1.4001
1.40007
1.40005
1.40004
1.40003
1.40002
1.40002
1.40001
1.40001
1.40001
1.40001
1.40001
1.40001
1.40001
1.40001
1.40001
1.40001
1.40001
1.40001
1.40001
1.40001
1.40001
1.40001
1.40001
1.40001
1.40001
1.46679
1.46515
1.46009
1.45193
1.44119
1.42853
1.41472
1.40055
1.38684
1.37437
1.36386
1.35591
1.35097
1.34929
1.35096
1.35592
1.36396
1.37472
1.38756
1.40167
1.41615
1.43018
1.44289
1.45335
1.46071
1.46436
1.46418
1.46059
1.45444
1.44677
1.43861
1.43075
1.42373
1.41781
1.41305
1.40937
1.40662
1.40462
1.4032
1.40222
1.40155
1.40109
1.40078
1.40056
1.40041
1.40031
1.40023
1.40017
1.40013
1.40009
1.40007
1.40005
1.40004
1.40003
1.40002
1.40001
1.40001
1.40001
1.40001
1.40001
1.40001
1.40001
1.40001
1.40001
1.40001
1.40001
1.40001
1.40001
1.40001
1.40001
1.40001
1.40001
1.40001
1.40001
1.40001
1.46586
1.46688
1.4649
1.4601
1.45289
1.44384
1.43358
1.42279
1.41219
1.40243
1.39412
1.38779
1.3838
1.3824
1.38368
1.38759
1.39399
1.40251
1.41255
1.42342
1.43439
1.44472
1.45364
1.46033
1.46412
1.46464
1.46201
1.45676
1.44975
1.44191
1.43405
1.42678
1.42046
1.41524
1.4111
1.40794
1.4056
1.40391
1.40273
1.4019
1.40134
1.40095
1.40069
1.4005
1.40037
1.40028
1.40021
1.40016
1.40012
1.40009
1.40006
1.40005
1.40003
1.40003
1.40002
1.40001
1.40001
1.40001
1.40001
1.40001
1.40001
1.40001
1.40001
1.40001
1.40001
1.40001
1.40001
1.40001
1.40001
1.40001
1.40001
1.40001
1.40001
1.40001
1.40001
1.46306
1.46628
1.46695
1.46511
1.46104
1.45519
1.44808
1.44031
1.43247
1.42512
1.41878
1.41388
1.41077
1.40965
1.41062
1.41365
1.41858
1.42505
1.43255
1.44051
1.4483
1.45528
1.46076
1.46408
1.46478
1.46275
1.45827
1.45194
1.44454
1.43687
1.42953
1.42296
1.41739
1.41286
1.40933
1.40665
1.40469
1.40328
1.4023
1.40161
1.40114
1.40082
1.4006
1.40045
1.40033
1.40025
1.40019
1.40014
1.40011
1.40008
1.40006
1.40004
1.40003
1.40002
1.40002
1.40001
1.40001
1.40001
1.40001
1.40001
1.40001
1.40001
1.40001
1.40001
1.40001
1.40001
1.40001
1.40001
1.40001
1.40001
1.40001
1.40001
1.40001
1.40001
1.40001
1.45867
1.46353
1.46635
1.46703
1.4657
1.46266
1.45835
1.45324
1.44783
1.44261
1.43801
1.4344
1.43208
1.43124
1.43194
1.43418
1.43776
1.44238
1.4476
1.45293
1.45786
1.46184
1.46429
1.46474
1.46295
1.45901
1.45329
1.44642
1.43906
1.43183
1.42518
1.41938
1.41456
1.41071
1.40773
1.4055
1.40388
1.40272
1.40191
1.40136
1.40097
1.40071
1.40052
1.40039
1.4003
1.40022
1.40017
1.40013
1.4001
1.40007
1.40005
1.40004
1.40003
1.40002
1.40002
1.40001
1.40001
1.40001
1.40001
1.40001
1.40001
1.40001
1.40001
1.40001
1.40001
1.40001
1.40001
1.40001
1.40001
1.40001
1.40001
1.40001
1.40001
1.40001
1.40001
1.45305
1.45897
1.46338
1.46607
1.46701
1.46639
1.4645
1.46172
1.45845
1.45509
1.45203
1.44957
1.44795
1.44733
1.44779
1.44929
1.45165
1.45459
1.45777
1.46079
1.46321
1.46459
1.4645
1.46267
1.45904
1.45383
1.44749
1.44055
1.43357
1.42698
1.42111
1.4161
1.41201
1.40878
1.40632
1.40449
1.40317
1.40223
1.40158
1.40113
1.40082
1.40061
1.40045
1.40034
1.40026
1.4002
1.40015
1.40012
1.40009
1.40007
1.40005
1.40004
1.40003
1.40002
1.40002
1.40001
1.40001
1.40001
1.40001
1.40001
1.40001
1.40001
1.40001
1.40001
1.40001
1.40001
1.40001
1.40001
1.40001
1.40001
1.40001
1.40001
1.40001
1.40001
1.40001
1.44667
1.45307
1.45848
1.4626
1.4653
1.46664
1.46677
1.46596
1.46453
1.4628
1.46105
1.45957
1.45856
1.45813
1.45835
1.45917
1.46043
1.46189
1.4633
1.46433
1.46464
1.4639
1.46185
1.45838
1.45358
1.44774
1.44128
1.43465
1.42827
1.42245
1.41739
1.41316
1.40976
1.4071
1.4051
1.40362
1.40256
1.40181
1.40129
1.40094
1.40069
1.40051
1.40039
1.4003
1.40023
1.40018
1.40014
1.4001
1.40008
1.40006
1.40004
1.40003
1.40002
1.40002
1.40001
1.40001
1.40001
1.40001
1.40001
1.40001
1.40001
1.40001
1.40001
1.40001
1.40001
1.40001
1.40001
1.40001
1.40001
1.40001
1.40001
1.40001
1.40001
1.40001
1.40001
1.43999
1.44638
1.45222
1.45719
1.46109
1.46387
1.46557
1.46634
1.46642
1.46603
1.4654
1.46475
1.46422
1.46393
1.46391
1.46413
1.46443
1.46466
1.4646
1.46402
1.46269
1.46038
1.45698
1.45251
1.44715
1.4412
1.43502
1.42897
1.42335
1.41835
1.41409
1.41059
1.4078
1.40566
1.40405
1.40288
1.40205
1.40146
1.40105
1.40077
1.40057
1.40043
1.40033
1.40026
1.4002
1.40015
1.40012
1.40009
1.40007
1.40005
1.40004
1.40003
1.40002
1.40002
1.40001
1.40001
1.40001
1.40001
1.40001
1.40001
1.40001
1.40001
1.40001
1.40001
1.40001
1.40001
1.40001
1.40001
1.40001
1.40001
1.40001
1.40001
1.40001
1.40001
1.40001
1.43346
1.43944
1.44523
1.4505
1.45504
1.45872
1.4615
1.46345
1.46466
1.46531
1.46556
1.46556
1.46542
1.46523
1.46501
1.46471
1.46425
1.4635
1.46234
1.46058
1.4581
1.45478
1.45063
1.44574
1.44032
1.43466
1.42904
1.42372
1.41891
1.41472
1.41122
1.40838
1.40614
1.40444
1.40318
1.40226
1.40161
1.40116
1.40084
1.40063
1.40047
1.40036
1.40028
1.40022
1.40017
1.40014
1.40011
1.40008
1.40006
1.40005
1.40004
1.40003
1.40002
1.40002
1.40001
1.40001
1.40001
1.40001
1.40001
1.40001
1.40001
1.40001
1.40001
1.40001
1.40001
1.40001
1.40001
1.40001
1.40001
1.40001
1.40001
1.40001
1.40001
1.40001
1.40001
1.42738
1.43273
1.43809
1.44323
1.44792
1.452
1.45538
1.45804
1.46002
1.4614
1.46227
1.46274
1.46288
1.46276
1.46237
1.4617
1.46069
1.45928
1.45736
1.45487
1.45173
1.44792
1.44352
1.43867
1.43357
1.42846
1.42355
1.41903
1.41503
1.4116
1.40878
1.40651
1.40476
1.40343
1.40245
1.40175
1.40126
1.40091
1.40067
1.40051
1.40039
1.4003
1.40024
1.40019
1.40015
1.40012
1.40009
1.40007
1.40005
1.40004
1.40003
1.40002
1.40002
1.40001
1.40001
1.40001
1.40001
1.40001
1.40001
1.40001
1.40001
1.40001
1.40001
1.40001
1.40001
1.40001
1.40001
1.40001
1.40001
1.40001
1.40001
1.40001
1.40001
1.40001
1.40001
1.42197
1.42655
1.43128
1.43597
1.44043
1.44451
1.44806
1.45104
1.45342
1.45521
1.45646
1.45723
1.45755
1.45747
1.45698
1.45608
1.45475
1.45295
1.45064
1.4478
1.44443
1.44056
1.43631
1.43182
1.42726
1.42284
1.4187
1.41496
1.41171
1.40898
1.40674
1.40498
1.40362
1.40261
1.40186
1.40134
1.40097
1.40071
1.40053
1.40041
1.40032
1.40025
1.4002
1.40016
1.40013
1.4001
1.40008
1.40006
1.40005
1.40004
1.40003
1.40002
1.40002
1.40001
1.40001
1.40001
1.40001
1.40001
1.40001
1.40001
1.40001
1.40001
1.40001
1.40001
1.40001
1.40001
1.40001
1.40001
1.40001
1.40001
1.40001
1.40001
1.40001
1.40001
1.40001
1.41731
1.4211
1.42511
1.42919
1.43319
1.43696
1.44037
1.44334
1.4458
1.44774
1.44916
1.45006
1.45047
1.45041
1.44989
1.44889
1.44743
1.4455
1.4431
1.44023
1.43694
1.43332
1.42946
1.42552
1.42163
1.41793
1.41454
1.41153
1.40895
1.40681
1.40508
1.40373
1.40271
1.40194
1.40139
1.401
1.40073
1.40055
1.40042
1.40032
1.40026
1.40021
1.40017
1.40013
1.40011
1.40009
1.40007
1.40005
1.40004
1.40003
1.40002
1.40002
1.40001
1.40001
1.40001
1.40001
1.40001
1.40001
1.40001
1.40001
1.40001
1.40001
1.40001
1.40001
1.40001
1.40001
1.40001
1.40001
1.40001
1.40001
1.40001
1.40001
1.40001
1.40001
1.40001
1.41342
1.41648
1.41976
1.42317
1.42659
1.42987
1.43293
1.43567
1.438
1.43988
1.44129
1.44221
1.44265
1.4426
1.44208
1.4411
1.43966
1.43778
1.43548
1.43281
1.42983
1.42663
1.4233
1.41997
1.41677
1.41377
1.41107
1.4087
1.4067
1.40506
1.40375
1.40274
1.40198
1.40142
1.40102
1.40074
1.40055
1.40041
1.40032
1.40025
1.40021
1.40017
1.40014
1.40011
1.40009
1.40007
1.40006
1.40004
1.40003
1.40003
1.40002
1.40002
1.40001
1.40001
1.40001
1.40001
1.40001
1.40001
1.40001
1.40001
1.40001
1.40001
1.40001
1.40001
1.40001
1.40001
1.40001
1.40001
1.40001
1.40001
1.40001
1.40001
1.40001
1.40001
1.40001
1.41025
1.41266
1.41528
1.41804
1.42084
1.42359
1.42619
1.42856
1.43062
1.43232
1.43361
1.43446
1.43487
1.43483
1.43435
1.43344
1.43212
1.43042
1.42837
1.42602
1.42345
1.42074
1.41799
1.41528
1.41271
1.41035
1.40824
1.40643
1.40491
1.40368
1.40271
1.40197
1.40142
1.40102
1.40074
1.40054
1.4004
1.40031
1.40025
1.4002
1.40016
1.40014
1.40011
1.40009
1.40008
1.40006
1.40005
1.40004
1.40003
1.40002
1.40002
1.40001
1.40001
1.40001
1.40001
1.40001
1.40001
1.40001
1.40001
1.40001
1.40001
1.40001
1.40001
1.40001
1.40001
1.40001
1.40001
1.40001
1.40001
1.40001
1.40001
1.40001
1.40001
1.40001
1.40001
1.40774
1.4096
1.41163
1.41379
1.41603
1.41824
1.42038
1.42234
1.42407
1.4255
1.4266
1.42734
1.42769
1.42766
1.42723
1.42643
1.42529
1.42382
1.42207
1.4201
1.41798
1.41577
1.41356
1.41143
1.40942
1.4076
1.406
1.40464
1.40351
1.40261
1.40191
1.40138
1.40099
1.40071
1.40052
1.40038
1.40029
1.40023
1.40019
1.40016
1.40013
1.40011
1.40009
1.40008
1.40006
1.40005
1.40004
1.40003
1.40003
1.40002
1.40002
1.40001
1.40001
1.40001
1.40001
1.40001
1.40001
1.40001
1.40001
1.40001
1.40001
1.40001
1.40001
1.40001
1.40001
1.40001
1.40001
1.40001
1.40001
1.40001
1.40001
1.40001
1.40001
1.40001
1.40001
1.40577
1.40718
1.40873
1.41039
1.41212
1.41386
1.41553
1.4171
1.41849
1.41965
1.42055
1.42115
1.42143
1.42139
1.42103
1.42036
1.4194
1.41818
1.41675
1.41515
1.41345
1.41171
1.40999
1.40834
1.40682
1.40545
1.40426
1.40326
1.40244
1.4018
1.4013
1.40093
1.40067
1.40048
1.40035
1.40027
1.40021
1.40017
1.40014
1.40012
1.4001
1.40009
1.40007
1.40006
1.40005
1.40004
1.40003
1.40003
1.40002
1.40002
1.40001
1.40001
1.40001
1.40001
1.40001
1.40001
1.40001
1.40001
1.40001
1.40001
1.40001
1.40001
1.40001
1.40001
1.40001
1.40001
1.40001
1.40001
1.40001
1.40001
1.40001
1.40001
1.40001
1.40001
1.40001
1.40427
1.40531
1.40647
1.40772
1.40903
1.41035
1.41165
1.41285
1.41392
1.41483
1.41553
1.416
1.41621
1.41616
1.41586
1.41531
1.41453
1.41355
1.41241
1.41115
1.40983
1.40849
1.40718
1.40594
1.40481
1.40381
1.40295
1.40223
1.40165
1.4012
1.40086
1.40061
1.40043
1.40031
1.40023
1.40018
1.40014
1.40012
1.4001
1.40009
1.40008
1.40007
1.40006
1.40005
1.40004
1.40003
1.40003
1.40002
1.40002
1.40001
1.40001
1.40001
1.40001
1.40001
1.40001
1.40001
1.40001
1.40001
1.40001
1.40001
1.40001
1.40001
1.40001
1.40001
1.40001
1.40001
1.40001
1.40001
1.40001
1.40001
1.40001
1.40001
1.40001
1.40001
1.40001
1.40313
1.4039
1.40475
1.40568
1.40664
1.40763
1.40859
1.4095
1.4103
1.41098
1.4115
1.41185
1.412
1.41195
1.41169
1.41124
1.41063
1.40986
1.40898
1.40802
1.40701
1.40601
1.40503
1.40412
1.4033
1.40257
1.40196
1.40146
1.40106
1.40076
1.40053
1.40037
1.40026
1.40019
1.40014
1.40011
1.4001
1.40008
1.40008
1.40007
1.40006
1.40005
1.40005
1.40004
1.40003
1.40003
1.40002
1.40002
1.40002
1.40001
1.40001
1.40001
1.40001
1.40001
1.40001
1.40001
1.40001
1.40001
1.40001
1.40001
1.40001
1.40001
1.40001
1.40001
1.40001
1.40001
1.40001
1.40001
1.40001
1.40001
1.40001
1.40001
1.40001
1.40001
1.40001
1.40229
1.40284
1.40346
1.40413
1.40484
1.40555
1.40625
1.40691
1.4075
1.408
1.40837
1.40861
1.40871
1.40865
1.40844
1.40808
1.4076
1.40701
1.40634
1.40562
1.40488
1.40414
1.40342
1.40277
1.40219
1.40168
1.40126
1.40091
1.40065
1.40045
1.40031
1.40021
1.40014
1.4001
1.40008
1.40007
1.40006
1.40006
1.40005
1.40005
1.40005
1.40004
1.40004
1.40003
1.40003
1.40002
1.40002
1.40002
1.40001
1.40001
1.40001
1.40001
1.40001
1.40001
1.40001
1.40001
1.40001
1.40001
1.40001
1.40001
1.40001
1.40001
1.40001
1.40001
1.40001
1.40001
1.40001
1.40001
1.40001
1.40001
1.40001
1.40001
1.40001
1.40001
1.40001
1.40167
1.40207
1.40251
1.40299
1.40349
1.404
1.4045
1.40497
1.40538
1.40573
1.40599
1.40615
1.4062
1.40614
1.40596
1.40568
1.40532
1.40487
1.40437
1.40384
1.40329
1.40276
1.40225
1.40179
1.40139
1.40104
1.40076
1.40053
1.40036
1.40024
1.40015
1.4001
1.40006
1.40005
1.40004
1.40004
1.40004
1.40004
1.40004
1.40004
1.40004
1.40003
1.40003
1.40003
1.40002
1.40002
1.40002
1.40001
1.40001
1.40001
1.40001
1.40001
1.40001
1.40001
1.40001
1.40001
1.40001
1.40001
1.40001
1.40001
1.40001
1.40001
1.40001
1.40001
1.40001
1.40001
1.40001
1.40001
1.40001
1.40001
1.40001
1.40001
1.40001
1.40001
1.40001
1.40122
1.4015
1.40181
1.40215
1.40251
1.40286
1.4032
1.40353
1.40382
1.40405
1.40422
1.40432
1.40434
1.40427
1.40413
1.40391
1.40363
1.4033
1.40293
1.40254
1.40215
1.40178
1.40142
1.4011
1.40083
1.4006
1.40041
1.40027
1.40017
1.4001
1.40005
1.40003
1.40001
1.40001
1.40001
1.40002
1.40002
1.40002
1.40003
1.40003
1.40003
1.40003
1.40002
1.40002
1.40002
1.40002
1.40001
1.40001
1.40001
1.40001
1.40001
1.40001
1.40001
1.40001
1.40001
1.40001
1.40001
1.40001
1.40001
1.40001
1.40001
1.40001
1.40001
1.40001
1.40001
1.40001
1.40001
1.40001
1.40001
1.40001
1.40001
1.40001
1.40001
1.40001
1.40001
1.40089
1.40109
1.40131
1.40155
1.40179
1.40204
1.40227
1.40248
1.40267
1.40283
1.40294
1.40298
1.40298
1.40292
1.4028
1.40263
1.40242
1.40217
1.40191
1.40163
1.40135
1.40109
1.40085
1.40063
1.40045
1.4003
1.40019
1.4001
1.40004
1.40001
1.39999
1.39998
1.39998
1.39999
1.4
1.4
1.40001
1.40001
1.40002
1.40002
1.40002
1.40002
1.40002
1.40002
1.40001
1.40001
1.40001
1.40001
1.40001
1.40001
1.40001
1.40001
1.40001
1.40001
1.40001
1.40001
1.40001
1.40001
1.40001
1.40001
1.40001
1.40001
1.40001
1.40001
1.40001
1.40001
1.40001
1.40001
1.40001
1.40001
1.40001
1.40001
1.40001
1.40001
1.40001
1.40066
1.4008
1.40095
1.40111
1.40128
1.40144
1.4016
1.40174
1.40186
1.40195
1.40201
1.40204
1.40202
1.40196
1.40186
1.40173
1.40157
1.40139
1.40119
1.401
1.40081
1.40063
1.40046
1.40032
1.4002
1.40011
1.40005
1.4
1.39997
1.39996
1.39995
1.39996
1.39996
1.39997
1.39998
1.39999
1.4
1.40001
1.40001
1.40001
1.40002
1.40002
1.40001
1.40001
1.40001
1.40001
1.40001
1.40001
1.40001
1.40001
1.40001
1.40001
1.40001
1.40001
1.40001
1.40001
1.40001
1.40001
1.40001
1.40001
1.40001
1.40001
1.40001
1.40001
1.40001
1.40001
1.40001
1.40001
1.40001
1.40001
1.40001
1.40001
1.40001
1.40001
1.40001
1.4005
1.4006
1.4007
1.40081
1.40092
1.40103
1.40113
1.40122
1.40129
1.40134
1.40137
1.40137
1.40134
1.40129
1.40121
1.4011
1.40098
1.40085
1.40071
1.40058
1.40044
1.40032
1.40021
1.40013
1.40005
1.4
1.39996
1.39994
1.39993
1.39993
1.39993
1.39994
1.39996
1.39997
1.39998
1.39999
1.4
1.4
1.40001
1.40001
1.40001
1.40001
1.40001
1.40001
1.40001
1.40001
1.40001
1.40001
1.40001
1.40001
1.40001
1.40001
1.40001
1.40001
1.40001
1.40001
1.40001
1.40001
1.40001
1.40001
1.40001
1.40001
1.40001
1.40001
1.40001
1.40001
1.40001
1.40001
1.40001
1.40001
1.40001
1.40001
1.40001
1.40001
1.40001
1.40037
1.40044
1.40052
1.40059
1.40066
1.40073
1.4008
1.40085
1.40089
1.40092
1.40092
1.40091
1.40088
1.40083
1.40077
1.40069
1.4006
1.4005
1.4004
1.4003
1.40021
1.40013
1.40006
1.4
1.39996
1.39994
1.39992
1.39991
1.39991
1.39992
1.39993
1.39994
1.39995
1.39997
1.39998
1.39999
1.4
1.4
1.40001
1.40001
1.40001
1.40001
1.40001
1.40001
1.40001
1.40001
1.40001
1.40001
1.40001
1.40001
1.40001
1.40001
1.40001
1.40001
1.40001
1.40001
1.40001
1.40001
1.40001
1.40001
1.40001
1.40001
1.40001
1.40001
1.40001
1.40001
1.40001
1.40001
1.40001
1.40001
1.40001
1.40001
1.40001
1.40001
1.40001
1.40029
1.40034
1.40038
1.40044
1.40048
1.40053
1.40056
1.4006
1.40062
1.40062
1.40062
1.4006
1.40057
1.40053
1.40047
1.40041
1.40034
1.40027
1.4002
1.40013
1.40007
1.40002
1.39998
1.39994
1.39992
1.3999
1.3999
1.3999
1.39991
1.39992
1.39993
1.39994
1.39996
1.39997
1.39998
1.39999
1.39999
1.4
1.4
1.40001
1.40001
1.40001
1.40001
1.40001
1.40001
1.40001
1.40001
1.40001
1.40001
1.40001
1.40001
1.40001
1.40001
1.40001
1.40001
1.40001
1.40001
1.40001
1.40001
1.40001
1.40001
1.40001
1.40001
1.40001
1.40001
1.40001
1.40001
1.40001
1.40001
1.40001
1.40001
1.40001
1.40001
1.40001
1.40001
1.40022
1.40026
1.40029
1.40032
1.40035
1.40038
1.40041
1.40042
1.40043
1.40043
1.40042
1.4004
1.40037
1.40033
1.40029
1.40024
1.40018
1.40013
1.40008
1.40003
1.39999
1.39995
1.39993
1.39991
1.3999
1.3999
1.3999
1.3999
1.39991
1.39992
1.39994
1.39995
1.39996
1.39997
1.39998
1.39999
1.39999
1.4
1.4
1.4
1.40001
1.40001
1.40001
1.40001
1.40001
1.40001
1.40001
1.40001
1.40001
1.40001
1.40001
1.40001
1.40001
1.40001
1.40001
1.4
1.4
1.40001
1.40001
1.40001
1.40001
1.40001
1.40001
1.40001
1.40001
1.40001
1.40001
1.40001
1.40001
1.40001
1.40001
1.40001
1.40001
1.40001
1.40001
1.40017
1.4002
1.40022
1.40025
1.40027
1.40028
1.40029
1.4003
1.4003
1.40029
1.40028
1.40026
1.40023
1.4002
1.40017
1.40013
1.40009
1.40005
1.40001
1.39998
1.39995
1.39993
1.39991
1.3999
1.3999
1.3999
1.3999
1.39991
1.39992
1.39993
1.39994
1.39996
1.39997
1.39997
1.39998
1.39999
1.4
1.4
1.4
1.4
1.40001
1.40001
1.40001
1.40001
1.40001
1.40001
1.40001
1.40001
1.40001
1.40001
1.40001
1.40001
1.40001
1.40001
1.40001
1.40001
1.40001
1.40001
1.40001
1.40001
1.40001
1.40001
1.40001
1.40001
1.40001
1.40001
1.40001
1.40001
1.40001
1.40001
1.40001
1.40001
1.40001
1.40001
1.40001
1.40014
1.40015
1.40017
1.40019
1.4002
1.40021
1.40022
1.40022
1.40021
1.4002
1.40019
1.40017
1.40015
1.40012
1.40009
1.40006
1.40003
1.4
1.39998
1.39995
1.39993
1.39992
1.39991
1.3999
1.3999
1.39991
1.39991
1.39992
1.39993
1.39994
1.39995
1.39996
1.39997
1.39998
1.39999
1.39999
1.4
1.4
1.4
1.4
1.40001
1.40001
1.40001
1.40001
1.40001
1.40001
1.40001
1.40001
1.40001
1.40001
1.40001
1.40001
1.40001
1.40001
1.4
1.4
1.40001
1.40001
1.40001
1.40001
1.40001
1.40001
1.40001
1.40001
1.40001
1.40001
1.40001
1.40001
1.40001
1.40001
1.40001
1.40001
1.40001
1.40001
1.40001
1.40011
1.40012
1.40013
1.40014
1.40015
1.40016
1.40016
1.40016
1.40015
1.40014
1.40013
1.40011
1.40009
1.40007
1.40005
1.40003
1.4
1.39998
1.39996
1.39994
1.39993
1.39992
1.39991
1.39991
1.39992
1.39992
1.39993
1.39993
1.39994
1.39995
1.39996
1.39997
1.39998
1.39998
1.39999
1.39999
1.4
1.4
1.4
1.4
1.4
1.4
1.40001
1.40001
1.40001
1.40001
1.40001
1.40001
1.40001
1.40001
1.40001
1.40001
1.40001
1.40001
1.40001
1.40001
1.40001
1.40001
1.40001
1.40001
1.40001
1.40001
1.40001
1.40001
1.40001
1.40001
1.40001
1.40001
1.40001
1.40001
1.40001
1.40001
1.40001
1.40001
1.40001
1.40008
1.40009
1.4001
1.40011
1.40012
1.40012
1.40012
1.40012
1.40011
1.40011
1.40009
1.40008
1.40006
1.40004
1.40002
1.40001
1.39999
1.39997
1.39996
1.39994
1.39994
1.39993
1.39993
1.39993
1.39993
1.39993
1.39994
1.39995
1.39995
1.39996
1.39997
1.39998
1.39998
1.39999
1.39999
1.4
1.4
1.4
1.4
1.4
1.4
1.4
1.4
1.40001
1.40001
1.40001
1.40001
1.40001
1.40001
1.40001
1.40001
1.40001
1.40001
1.40001
1.40001
1.40001
1.40001
1.40001
1.40001
1.40001
1.40001
1.40001
1.40001
1.40001
1.40001
1.40001
1.40001
1.40001
1.40001
1.40001
1.40001
1.40001
1.40001
1.40001
1.40001
1.40007
1.40008
1.40008
1.40009
1.40009
1.40009
1.40009
1.40009
1.40008
1.40008
1.40006
1.40005
1.40004
1.40003
1.40001
1.4
1.39998
1.39997
1.39996
1.39995
1.39994
1.39994
1.39994
1.39994
1.39994
1.39995
1.39995
1.39996
1.39996
1.39997
1.39998
1.39998
1.39999
1.39999
1.39999
1.4
1.4
1.4
1.4
1.4
1.4
1.4
1.4
1.40001
1.40001
1.40001
1.40001
1.40001
1.40001
1.40001
1.40001
1.40001
1.40001
1.40001
1.40001
1.40001
1.40001
1.40001
1.40001
1.40001
1.40001
1.40001
1.40001
1.40001
1.40001
1.40001
1.40001
1.40001
1.40001
1.40001
1.40001
1.40001
1.40001
1.40001
1.40001
1.40005
1.40006
1.40006
1.40007
1.40007
1.40007
1.40007
1.40007
1.40006
1.40006
1.40005
1.40004
1.40003
1.40002
1.4
1.39999
1.39998
1.39997
1.39996
1.39996
1.39995
1.39995
1.39995
1.39995
1.39995
1.39996
1.39996
1.39997
1.39997
1.39998
1.39998
1.39999
1.39999
1.39999
1.4
1.4
1.4
1.4
1.4
1.4
1.4
1.4
1.40001
1.40001
1.40001
1.40001
1.4
1.4
1.40001
1.40001
1.40001
1.40001
1.40001
1.40001
1.40001
1.40001
1.40001
1.40001
1.40001
1.40001
1.40001
1.40001
1.40001
1.40001
1.40001
1.40001
1.40001
1.40001
1.40001
1.40001
1.40001
1.40001
1.40001
1.40001
1.40001
1.40004
1.40005
1.40005
1.40005
1.40006
1.40005
1.40005
1.40005
1.40005
1.40004
1.40004
1.40003
1.40002
1.40001
1.4
1.39999
1.39999
1.39998
1.39997
1.39997
1.39996
1.39996
1.39996
1.39996
1.39996
1.39997
1.39997
1.39998
1.39998
1.39998
1.39999
1.39999
1.39999
1.4
1.4
1.4
1.4
1.4
1.4
1.4
1.4
1.4
1.4
1.40001
1.40001
1.40001
1.40001
1.40001
1.40001
1.40001
1.40001
1.40001
1.4
1.4
1.40001
1.40001
1.40001
1.40001
1.40001
1.40001
1.40001
1.40001
1.40001
1.40001
1.40001
1.40001
1.40001
1.40001
1.40001
1.40001
1.40001
1.40001
1.40001
1.40001
1.40001
1.40003
1.40004
1.40004
1.40004
1.40004
1.40004
1.40004
1.40004
1.40004
1.40003
1.40003
1.40002
1.40001
1.40001
1.4
1.39999
1.39999
1.39998
1.39998
1.39998
1.39997
1.39997
1.39997
1.39997
1.39997
1.39998
1.39998
1.39998
1.39999
1.39999
1.39999
1.39999
1.4
1.4
1.4
1.4
1.4
1.4
1.4
1.4
1.4
1.4
1.4
1.4
1.4
1.4
1.40001
1.40001
1.40001
1.40001
1.40001
1.40001
1.40001
1.40001
1.40001
1.40001
1.40001
1.40001
1.4
1.4
1.40001
1.40001
1.40001
1.40001
1.40001
1.40001
1.40001
1.40001
1.40001
1.40001
1.40001
1.40001
1.40001
1.40001
1.40001
1.40003
1.40003
1.40003
1.40003
1.40003
1.40003
1.40003
1.40003
1.40003
1.40002
1.40002
1.40002
1.40001
1.40001
1.4
1.4
1.39999
1.39999
1.39998
1.39998
1.39998
1.39998
1.39998
1.39998
1.39998
1.39998
1.39999
1.39999
1.39999
1.39999
1.39999
1.4
1.4
1.4
1.4
1.4
1.4
1.4
1.4
1.4
1.4
1.4
1.40001
1.40001
1.40001
1.4
1.4
1.4
1.40001
1.40001
1.40001
1.4
1.4
1.4
1.4
1.40001
1.40001
1.40001
1.40001
1.40001
1.40001
1.40001
1.40001
1.40001
1.40001
1.40001
1.40001
1.40001
1.40001
1.40001
1.40001
1.40001
1.40001
1.40001
1.40001
1.40002
1.40002
1.40002
1.40002
1.40003
1.40003
1.40002
1.40002
1.40002
1.40002
1.40002
1.40001
1.40001
1.40001
1.4
1.4
1.4
1.39999
1.39999
1.39999
1.39999
1.39999
1.39999
1.39999
1.39999
1.39999
1.39999
1.39999
1.39999
1.4
1.4
1.4
1.4
1.4
1.4
1.4
1.4
1.4
1.4
1.4
1.4
1.4
1.4
1.40001
1.40001
1.40001
1.40001
1.40001
1.4
1.4
1.40001
1.40001
1.40001
1.40001
1.40001
1.40001
1.4
1.4
1.4
1.4
1.40001
1.40001
1.40001
1.40001
1.40001
1.40001
1.40001
1.40001
1.40001
1.40001
1.40001
1.40001
1.40001
1.40001
1.40001
1.40002
1.40002
1.40002
1.40002
1.40002
1.40002
1.40002
1.40002
1.40002
1.40002
1.40001
1.40001
1.40001
1.4
1.4
1.4
1.4
1.4
1.39999
1.39999
1.39999
1.39999
1.39999
1.39999
1.39999
1.39999
1.39999
1.4
1.4
1.4
1.4
1.4
1.4
1.4
1.4
1.4
1.4
1.4
1.4
1.4
1.40001
1.40001
1.40001
1.40001
1.4
1.40001
1.40001
1.40001
1.40001
1.40001
1.40001
1.4
1.4
1.4
1.40001
1.40001
1.40001
1.40001
1.40001
1.40001
1.40001
1.40001
1.40001
1.40001
1.40001
1.40001
1.40001
1.40001
1.40001
1.40001
1.40001
1.40001
1.40001
1.40001
1.40001
1.40001
1.40001
1.40002
1.40002
1.40002
1.40002
1.40002
1.40001
1.40001
1.40001
1.40001
1.40001
1.40001
1.40001
1.4
1.4
1.4
1.4
1.4
1.4
1.39999
1.39999
1.39999
1.39999
1.4
1.4
1.4
1.4
1.4
1.4
1.4
1.4
1.4
1.4
1.4
1.4
1.4
1.4
1.4
1.40001
1.40001
1.40001
1.40001
1.40001
1.40001
1.4
1.4
1.4
1.4
1.40001
1.40001
1.40001
1.40001
1.40001
1.40001
1.4
1.4
1.4
1.4
1.40001
1.40001
1.40001
1.40001
1.40001
1.40001
1.40001
1.40001
1.40001
1.40001
1.40001
1.40001
1.40001
1.40001
1.40001
1.40001
1.40001
1.40001
1.40001
1.40001
1.40001
1.40001
1.40001
1.40001
1.40001
1.40001
1.40001
1.40001
1.40001
1.4
1.4
1.4
1.4
1.4
1.4
1.4
1.4
1.4
1.4
1.4
1.4
1.4
1.4
1.4
1.4
1.4
1.4
1.4
1.4
1.4
1.4
1.4
1.4
1.4
1.4
1.4
1.40001
1.40001
1.40001
1.4
1.4
1.40001
1.40001
1.40001
1.40001
1.4
1.4
1.4
1.40001
1.40001
1.40001
1.40001
1.40001
1.40001
1.40001
1.40001
1.40001
1.40001
1.40001
1.40001
1.40001
1.40001
1.40001
1.40001
1.40001
1.40001
1.40001
1.40001
1.40001
1.40001
1.40001
1.40001
1.40001
1.40001
1.40001
1.40001
1.40001
1.40001
1.40001
1.40001
1.40001
1.40001
1.40001
1.40001
1.4
1.4
1.4
1.4
1.4
1.4
1.4
1.4
1.4
1.4
1.4
1.4
1.4
1.4
1.4
1.4
1.4
1.4
1.4
1.4
1.4
1.4
1.4
1.4
1.4
1.40001
1.40001
1.4
1.4
1.4
1.4
1.40001
1.40001
1.40001
1.40001
1.40001
1.40001
1.40001
1.40001
1.40001
1.4
1.4
1.4
1.4
1.4
1.40001
1.40001
1.40001
1.40001
1.40001
1.40001
1.40001
1.40001
1.40001
1.40001
1.40001
1.40001
1.40001
1.40001
1.40001
1.40001
1.40001
1.40001
1.40001
1.40001
1.40001
1.40001
1.40001
1.40001
1.40001
1.40001
1.40001
1.40001
1.40001
1.40001
1.40001
1.4
1.4
1.4
1.4
1.4
1.4
1.4
1.4
1.4
1.4
1.4
1.4
1.4
1.4
1.4
1.4
1.4
1.4
1.4
1.4
1.4
1.4
1.4
1.4
1.4
1.40001
1.40001
1.4
1.4
1.4
1.4
1.4
1.40001
1.40001
1.40001
1.40001
1.40001
1.40001
1.40001
1.40001
1.40001
1.40001
1.40001
1.40001
1.40001
1.40001
1.40001
1.40001
1.40001
1.40001
1.40001
1.40001
1.40001
1.40001
1.40001
1.40001
1.40001
1.40001
1.40001
1.40001
1.40001
1.40001
1.40001
1.40001
1.40001
1.40001
1.40001
1.40001
1.40001
1.40001
1.40001
1.40001
1.40001
1.40001
1.4
1.4
1.4
1.4
1.4
1.4
1.4
1.4
1.4
1.4
1.4
1.4
1.4
1.4
1.4
1.4
1.4
1.4
1.4
1.4
1.4
1.4
1.4
1.4
1.4
1.4
1.4
1.4
1.4
1.40001
1.40001
1.40001
1.40001
1.40001
1.40001
1.40001
1.40001
1.40001
1.40001
1.4
1.4
1.4
1.4
1.40001
1.40001
1.40001
1.40001
1.40001
1.40001
1.40001
1.40001
1.40001
1.40001
1.40001
1.40001
1.40001
1.40001
1.40001
1.40001
1.40001
1.40001
1.40001
1.40001
1.40001
1.40001
1.40001
1.40001
1.40001
1.40001
1.40001
1.40001
1.40001
1.40001
1.40001
1.40001
1.40001
1.4
1.4
1.4
1.4
1.4
1.4
1.4
1.4
1.4
1.4
1.4
1.4
1.4
1.4
1.4
1.4
1.4
1.4
1.4
1.4
1.4
1.40001
1.40001
1.4
1.4
1.4
1.4
1.4
1.4
1.40001
1.40001
1.40001
1.40001
1.40001
1.40001
1.40001
1.40001
1.40001
1.40001
1.40001
1.40001
1.40001
1.40001
1.40001
1.40001
1.40001
1.40001
1.40001
1.40001
1.40001
1.40001
1.40001
1.40001
1.40001
1.40001
1.40001
1.40001
1.40001
1.40001
1.40001
1.40001
1.40001
1.40001
1.40001
1.40001
1.40001
1.40001
1.40001
1.40001
1.40001
1.40001
1.40001
1.40001
1.40001
1.4
1.4
1.4
1.4
1.4
1.4
1.4
1.4
1.4
1.4
1.4
1.4
1.4
1.4
1.4
1.4
1.4
1.4
1.4
1.4
1.4
1.4
1.40001
1.40001
1.4
1.4
1.4
1.40001
1.40001
1.40001
1.40001
1.40001