/*--------------------------------*- C++ -*----------------------------------*\
  =========                 |
  \\      /  F ield         | OpenFOAM: The Open Source CFD Toolbox
   \\    /   O peration     | Website:  https://openfoam.org
    \\  /    A nd           | Version:  6
     \\/     M anipulation  |
\*---------------------------------------------------------------------------*/
FoamFile
{
    version     2.0;
    format      ascii;
    class       volVectorField;
    location    "4.66";
    object      U;
}
// * * * * * * * * * * * * * * * * * * * * * * * * * * * * * * * * * * * * * //

dimensions      [0 1 -1 0 0 0 0];

internalField   nonuniform List<vector> 
10000
(
(0.894397 0.447194 0)
(0.894397 0.447196 0)
(0.894398 0.447197 0)
(0.894399 0.447198 0)
(0.894399 0.447199 0)
(0.894399 0.447199 0)
(0.8944 0.4472 0)
(0.8944 0.4472 0)
(0.8944 0.4472 0)
(0.8944 0.4472 0)
(0.8944 0.4472 0)
(0.8944 0.4472 0)
(0.8944 0.4472 0)
(0.8944 0.4472 0)
(0.8944 0.4472 0)
(0.8944 0.4472 0)
(0.8944 0.4472 0)
(0.8944 0.4472 0)
(0.8944 0.4472 0)
(0.8944 0.4472 0)
(0.8944 0.4472 0)
(0.8944 0.4472 0)
(0.8944 0.4472 0)
(0.8944 0.4472 0)
(0.8944 0.4472 0)
(0.8944 0.4472 0)
(0.8944 0.4472 0)
(0.8944 0.4472 0)
(0.8944 0.4472 0)
(0.8944 0.4472 0)
(0.8944 0.4472 0)
(0.8944 0.4472 0)
(0.8944 0.4472 0)
(0.8944 0.4472 0)
(0.8944 0.4472 0)
(0.8944 0.4472 0)
(0.8944 0.447201 0)
(0.894399 0.447201 0)
(0.894398 0.447202 0)
(0.894397 0.447203 0)
(0.894396 0.447205 0)
(0.894394 0.447207 0)
(0.894392 0.447211 0)
(0.894391 0.447216 0)
(0.89439 0.447221 0)
(0.894391 0.447227 0)
(0.894394 0.447232 0)
(0.894401 0.447238 0)
(0.89441 0.447243 0)
(0.894419 0.447249 0)
(0.894424 0.44726 0)
(0.894419 0.447285 0)
(0.894393 0.447336 0)
(0.894339 0.447428 0)
(0.894246 0.447582 0)
(0.894107 0.447821 0)
(0.893924 0.448166 0)
(0.8937 0.448631 0)
(0.893446 0.449224 0)
(0.893181 0.449944 0)
(0.892926 0.450776 0)
(0.892703 0.451695 0)
(0.892534 0.452669 0)
(0.892436 0.453658 0)
(0.892422 0.454624 0)
(0.892498 0.455525 0)
(0.892663 0.456327 0)
(0.892911 0.456999 0)
(0.89323 0.457516 0)
(0.893604 0.45786 0)
(0.894015 0.45802 0)
(0.894441 0.45799 0)
(0.894862 0.45777 0)
(0.895256 0.457366 0)
(0.895602 0.456793 0)
(0.89588 0.456071 0)
(0.896079 0.45523 0)
(0.896191 0.454307 0)
(0.896217 0.453345 0)
(0.896165 0.452386 0)
(0.89605 0.45147 0)
(0.89589 0.450627 0)
(0.895702 0.449882 0)
(0.895504 0.449244 0)
(0.89531 0.448716 0)
(0.89513 0.448292 0)
(0.894969 0.447962 0)
(0.894831 0.447713 0)
(0.894717 0.447531 0)
(0.894626 0.447402 0)
(0.894554 0.447314 0)
(0.894501 0.447256 0)
(0.894462 0.447221 0)
(0.894436 0.4472 0)
(0.894418 0.44719 0)
(0.894407 0.447186 0)
(0.894401 0.447186 0)
(0.894397 0.447187 0)
(0.894396 0.44719 0)
(0.894396 0.447192 0)
(0.894395 0.447192 0)
(0.894396 0.447194 0)
(0.894397 0.447196 0)
(0.894398 0.447197 0)
(0.894398 0.447198 0)
(0.894399 0.447199 0)
(0.894399 0.447199 0)
(0.8944 0.4472 0)
(0.8944 0.4472 0)
(0.8944 0.4472 0)
(0.8944 0.4472 0)
(0.8944 0.4472 0)
(0.8944 0.4472 0)
(0.8944 0.4472 0)
(0.8944 0.4472 0)
(0.8944 0.4472 0)
(0.8944 0.4472 0)
(0.8944 0.4472 0)
(0.8944 0.4472 0)
(0.8944 0.4472 0)
(0.8944 0.4472 0)
(0.8944 0.4472 0)
(0.8944 0.4472 0)
(0.8944 0.4472 0)
(0.8944 0.4472 0)
(0.8944 0.4472 0)
(0.8944 0.4472 0)
(0.8944 0.4472 0)
(0.8944 0.4472 0)
(0.8944 0.4472 0)
(0.8944 0.4472 0)
(0.8944 0.4472 0)
(0.8944 0.4472 0)
(0.8944 0.4472 0)
(0.8944 0.4472 0)
(0.894399 0.4472 0)
(0.894399 0.447201 0)
(0.894398 0.447201 0)
(0.894397 0.447203 0)
(0.894396 0.447204 0)
(0.894394 0.447207 0)
(0.894391 0.44721 0)
(0.894388 0.447215 0)
(0.894386 0.447222 0)
(0.894385 0.447229 0)
(0.894386 0.447237 0)
(0.894389 0.447246 0)
(0.894396 0.447255 0)
(0.894404 0.447265 0)
(0.894409 0.447281 0)
(0.894404 0.447308 0)
(0.894379 0.447361 0)
(0.894322 0.447458 0)
(0.894219 0.447624 0)
(0.894059 0.447886 0)
(0.893835 0.448276 0)
(0.893552 0.448816 0)
(0.893218 0.449524 0)
(0.892856 0.450402 0)
(0.892491 0.451438 0)
(0.892154 0.452605 0)
(0.891876 0.453865 0)
(0.891683 0.455168 0)
(0.891595 0.456463 0)
(0.891624 0.4577 0)
(0.891774 0.458832 0)
(0.892039 0.459821 0)
(0.892408 0.460636 0)
(0.892865 0.461253 0)
(0.893388 0.461658 0)
(0.893955 0.461839 0)
(0.89454 0.461793 0)
(0.895118 0.461518 0)
(0.895662 0.461019 0)
(0.896145 0.460305 0)
(0.896541 0.459395 0)
(0.896831 0.458318 0)
(0.897001 0.457116 0)
(0.897048 0.455838 0)
(0.896982 0.454543 0)
(0.89682 0.453284 0)
(0.896588 0.452112 0)
(0.896313 0.451061 0)
(0.896021 0.450153 0)
(0.895733 0.449396 0)
(0.895464 0.448785 0)
(0.895226 0.448308 0)
(0.895023 0.447948 0)
(0.894855 0.447683 0)
(0.894722 0.447496 0)
(0.894619 0.447368 0)
(0.894542 0.447284 0)
(0.894487 0.447232 0)
(0.894449 0.447203 0)
(0.894424 0.447187 0)
(0.894409 0.447181 0)
(0.8944 0.447181 0)
(0.894396 0.447182 0)
(0.894394 0.447186 0)
(0.894394 0.447189 0)
(0.894393 0.447189 0)
(0.894394 0.447192 0)
(0.894395 0.447194 0)
(0.894397 0.447196 0)
(0.894398 0.447198 0)
(0.894398 0.447198 0)
(0.894399 0.447199 0)
(0.894399 0.447199 0)
(0.8944 0.4472 0)
(0.8944 0.4472 0)
(0.8944 0.4472 0)
(0.8944 0.4472 0)
(0.8944 0.4472 0)
(0.8944 0.4472 0)
(0.8944 0.4472 0)
(0.8944 0.4472 0)
(0.8944 0.4472 0)
(0.8944 0.4472 0)
(0.8944 0.4472 0)
(0.8944 0.4472 0)
(0.8944 0.4472 0)
(0.8944 0.4472 0)
(0.8944 0.4472 0)
(0.8944 0.4472 0)
(0.8944 0.4472 0)
(0.8944 0.4472 0)
(0.8944 0.4472 0)
(0.8944 0.4472 0)
(0.8944 0.4472 0)
(0.8944 0.4472 0)
(0.8944 0.4472 0)
(0.8944 0.4472 0)
(0.8944 0.4472 0)
(0.8944 0.4472 0)
(0.8944 0.4472 0)
(0.894399 0.4472 0)
(0.894399 0.447201 0)
(0.894398 0.447202 0)
(0.894396 0.447203 0)
(0.894394 0.447206 0)
(0.894391 0.447209 0)
(0.894387 0.447214 0)
(0.894383 0.447221 0)
(0.89438 0.447229 0)
(0.894378 0.44724 0)
(0.894378 0.447251 0)
(0.894381 0.447264 0)
(0.894387 0.447278 0)
(0.894391 0.447297 0)
(0.894387 0.447328 0)
(0.894364 0.447382 0)
(0.894306 0.44748 0)
(0.894196 0.44765 0)
(0.894018 0.447927 0)
(0.893757 0.448349 0)
(0.89341 0.448953 0)
(0.892987 0.449766 0)
(0.89251 0.4508 0)
(0.892009 0.452046 0)
(0.891526 0.453477 0)
(0.891102 0.455045 0)
(0.890775 0.456691 0)
(0.890577 0.45835 0)
(0.890526 0.459956 0)
(0.890631 0.46145 0)
(0.890889 0.462786 0)
(0.891289 0.463927 0)
(0.891812 0.464849 0)
(0.892436 0.465536 0)
(0.893135 0.465979 0)
(0.893883 0.466173 0)
(0.894653 0.466117 0)
(0.895416 0.465807 0)
(0.896141 0.465243 0)
(0.896798 0.464427 0)
(0.897352 0.463365 0)
(0.897774 0.46208 0)
(0.898039 0.460609 0)
(0.898137 0.459005 0)
(0.898074 0.457338 0)
(0.897868 0.455682 0)
(0.897554 0.454107 0)
(0.897169 0.452671 0)
(0.896752 0.451413 0)
(0.896335 0.450351 0)
(0.895945 0.449487 0)
(0.895597 0.448806 0)
(0.8953 0.448289 0)
(0.895056 0.447908 0)
(0.894862 0.447637 0)
(0.894713 0.447451 0)
(0.894603 0.447329 0)
(0.894524 0.447253 0)
(0.894469 0.447209 0)
(0.894434 0.447186 0)
(0.894412 0.447177 0)
(0.8944 0.447175 0)
(0.894394 0.447177 0)
(0.894391 0.44718 0)
(0.894391 0.447185 0)
(0.894389 0.447185 0)
(0.894392 0.447189 0)
(0.894394 0.447192 0)
(0.894395 0.447195 0)
(0.894397 0.447197 0)
(0.894398 0.447198 0)
(0.894399 0.447199 0)
(0.894399 0.447199 0)
(0.894399 0.447199 0)
(0.8944 0.4472 0)
(0.8944 0.4472 0)
(0.8944 0.4472 0)
(0.8944 0.4472 0)
(0.8944 0.4472 0)
(0.8944 0.4472 0)
(0.8944 0.4472 0)
(0.8944 0.4472 0)
(0.8944 0.4472 0)
(0.8944 0.4472 0)
(0.8944 0.4472 0)
(0.8944 0.4472 0)
(0.8944 0.4472 0)
(0.8944 0.4472 0)
(0.8944 0.4472 0)
(0.8944 0.4472 0)
(0.8944 0.4472 0)
(0.8944 0.4472 0)
(0.8944 0.4472 0)
(0.8944 0.4472 0)
(0.8944 0.4472 0)
(0.8944 0.4472 0)
(0.8944 0.4472 0)
(0.8944 0.4472 0)
(0.8944 0.4472 0)
(0.8944 0.447201 0)
(0.894399 0.447201 0)
(0.894398 0.447202 0)
(0.894397 0.447203 0)
(0.894395 0.447205 0)
(0.894392 0.447208 0)
(0.894387 0.447213 0)
(0.894382 0.447219 0)
(0.894377 0.447228 0)
(0.894372 0.447239 0)
(0.894369 0.447253 0)
(0.894368 0.447269 0)
(0.894369 0.447287 0)
(0.894371 0.447309 0)
(0.894367 0.447343 0)
(0.894345 0.447397 0)
(0.89429 0.447492 0)
(0.894179 0.44766 0)
(0.893987 0.447939 0)
(0.893695 0.448379 0)
(0.893289 0.449028 0)
(0.892772 0.449928 0)
(0.892166 0.451103 0)
(0.891507 0.452552 0)
(0.890845 0.454248 0)
(0.890237 0.456135 0)
(0.889736 0.458139 0)
(0.889386 0.460176 0)
(0.889218 0.462162 0)
(0.889248 0.464023 0)
(0.889473 0.4657 0)
(0.889881 0.467153 0)
(0.89045 0.468357 0)
(0.891154 0.469305 0)
(0.891964 0.469995 0)
(0.892854 0.470433 0)
(0.893794 0.470622 0)
(0.894759 0.470564 0)
(0.895721 0.470257 0)
(0.89665 0.46969 0)
(0.897511 0.468853 0)
(0.898265 0.467734 0)
(0.898869 0.466333 0)
(0.899284 0.464671 0)
(0.899483 0.462794 0)
(0.899461 0.460776 0)
(0.899234 0.458707 0)
(0.898839 0.456684 0)
(0.898329 0.454795 0)
(0.897758 0.453105 0)
(0.897176 0.451656 0)
(0.896622 0.450459 0)
(0.896124 0.449507 0)
(0.895696 0.448776 0)
(0.895344 0.448234 0)
(0.895064 0.447846 0)
(0.89485 0.447578 0)
(0.894691 0.447401 0)
(0.894577 0.447289 0)
(0.8945 0.447224 0)
(0.894449 0.447189 0)
(0.894418 0.447173 0)
(0.8944 0.447168 0)
(0.894391 0.44717 0)
(0.894388 0.447174 0)
(0.894388 0.44718 0)
(0.894386 0.44718 0)
(0.894388 0.447186 0)
(0.894391 0.44719 0)
(0.894394 0.447193 0)
(0.894396 0.447195 0)
(0.894397 0.447197 0)
(0.894398 0.447198 0)
(0.894399 0.447199 0)
(0.894399 0.447199 0)
(0.8944 0.4472 0)
(0.8944 0.4472 0)
(0.8944 0.4472 0)
(0.8944 0.4472 0)
(0.8944 0.4472 0)
(0.8944 0.4472 0)
(0.8944 0.4472 0)
(0.8944 0.4472 0)
(0.8944 0.4472 0)
(0.8944 0.4472 0)
(0.8944 0.4472 0)
(0.8944 0.4472 0)
(0.8944 0.4472 0)
(0.8944 0.4472 0)
(0.8944 0.4472 0)
(0.8944 0.4472 0)
(0.8944 0.4472 0)
(0.8944 0.4472 0)
(0.8944 0.4472 0)
(0.8944 0.4472 0)
(0.8944 0.4472 0)
(0.8944 0.4472 0)
(0.8944 0.4472 0)
(0.8944 0.4472 0)
(0.8944 0.4472 0)
(0.894399 0.447201 0)
(0.894398 0.447201 0)
(0.894397 0.447202 0)
(0.894395 0.447203 0)
(0.894392 0.447206 0)
(0.894388 0.447211 0)
(0.894383 0.447217 0)
(0.894376 0.447225 0)
(0.894368 0.447238 0)
(0.894362 0.447252 0)
(0.894356 0.44727 0)
(0.894353 0.447291 0)
(0.894351 0.447317 0)
(0.894345 0.447352 0)
(0.894325 0.447405 0)
(0.894274 0.447496 0)
(0.894166 0.447655 0)
(0.893971 0.447926 0)
(0.893657 0.448364 0)
(0.893201 0.449034 0)
(0.892594 0.449992 0)
(0.891853 0.451282 0)
(0.891018 0.452913 0)
(0.890148 0.45486 0)
(0.889317 0.457059 0)
(0.888599 0.45942 0)
(0.888057 0.461833 0)
(0.887737 0.464189 0)
(0.887661 0.466392 0)
(0.887831 0.468368 0)
(0.88823 0.470072 0)
(0.88883 0.471482 0)
(0.889595 0.4726 0)
(0.890492 0.473444 0)
(0.89149 0.474036 0)
(0.89256 0.474401 0)
(0.893678 0.474555 0)
(0.894823 0.474507 0)
(0.895973 0.474253 0)
(0.897104 0.473776 0)
(0.898186 0.473045 0)
(0.899175 0.472024 0)
(0.900015 0.470679 0)
(0.900649 0.468995 0)
(0.901025 0.466991 0)
(0.901114 0.464729 0)
(0.900919 0.462308 0)
(0.900475 0.459848 0)
(0.899844 0.457475 0)
(0.8991 0.455294 0)
(0.898316 0.453379 0)
(0.897554 0.451768 0)
(0.896858 0.450467 0)
(0.896254 0.449454 0)
(0.895753 0.448696 0)
(0.895354 0.448147 0)
(0.895047 0.447766 0)
(0.894819 0.447511 0)
(0.894656 0.447348 0)
(0.894545 0.447251 0)
(0.894472 0.447197 0)
(0.894427 0.447171 0)
(0.894402 0.447162 0)
(0.894389 0.447163 0)
(0.894384 0.447168 0)
(0.894384 0.447174 0)
(0.894381 0.447175 0)
(0.894384 0.447181 0)
(0.894388 0.447187 0)
(0.894391 0.447191 0)
(0.894394 0.447194 0)
(0.894396 0.447196 0)
(0.894397 0.447198 0)
(0.894398 0.447199 0)
(0.894399 0.447199 0)
(0.894399 0.4472 0)
(0.8944 0.4472 0)
(0.8944 0.4472 0)
(0.8944 0.4472 0)
(0.8944 0.4472 0)
(0.8944 0.4472 0)
(0.8944 0.4472 0)
(0.8944 0.4472 0)
(0.8944 0.4472 0)
(0.8944 0.4472 0)
(0.8944 0.4472 0)
(0.8944 0.4472 0)
(0.8944 0.4472 0)
(0.8944 0.4472 0)
(0.8944 0.4472 0)
(0.8944 0.4472 0)
(0.8944 0.4472 0)
(0.8944 0.4472 0)
(0.8944 0.4472 0)
(0.8944 0.4472 0)
(0.8944 0.4472 0)
(0.8944 0.4472 0)
(0.8944 0.4472 0)
(0.8944 0.4472 0)
(0.894399 0.4472 0)
(0.894399 0.447201 0)
(0.894398 0.447201 0)
(0.894396 0.447203 0)
(0.894393 0.447205 0)
(0.894389 0.447209 0)
(0.894384 0.447214 0)
(0.894376 0.447222 0)
(0.894367 0.447233 0)
(0.894357 0.447248 0)
(0.894348 0.447267 0)
(0.894339 0.44729 0)
(0.894333 0.447318 0)
(0.894324 0.447355 0)
(0.894305 0.447408 0)
(0.894258 0.447493 0)
(0.894158 0.447638 0)
(0.893968 0.44789 0)
(0.893648 0.448309 0)
(0.893157 0.448971 0)
(0.892473 0.449953 0)
(0.891602 0.451318 0)
(0.89058 0.453094 0)
(0.889479 0.455263 0)
(0.888391 0.457754 0)
(0.887415 0.460455 0)
(0.88664 0.463226 0)
(0.886133 0.465925 0)
(0.885927 0.468425 0)
(0.886028 0.47063 0)
(0.886411 0.472487 0)
(0.887038 0.473979 0)
(0.887861 0.475122 0)
(0.888831 0.475955 0)
(0.889909 0.476528 0)
(0.891063 0.476896 0)
(0.892271 0.477104 0)
(0.893518 0.477186 0)
(0.894793 0.477156 0)
(0.896087 0.477013 0)
(0.897389 0.476731 0)
(0.898679 0.476263 0)
(0.899916 0.475542 0)
(0.901039 0.474491 0)
(0.901968 0.473044 0)
(0.902619 0.471169 0)
(0.902926 0.468889 0)
(0.90286 0.466286 0)
(0.90244 0.463497 0)
(0.901729 0.460683 0)
(0.900819 0.457997 0)
(0.899813 0.455566 0)
(0.898802 0.45347 0)
(0.897857 0.451741 0)
(0.897023 0.450373 0)
(0.896324 0.449333 0)
(0.895761 0.448572 0)
(0.895327 0.448036 0)
(0.895004 0.447674 0)
(0.894772 0.44744 0)
(0.894613 0.447297 0)
(0.894508 0.447216 0)
(0.894444 0.447175 0)
(0.894406 0.447158 0)
(0.894387 0.447156 0)
(0.89438 0.44716 0)
(0.894379 0.447167 0)
(0.894375 0.447169 0)
(0.894379 0.447177 0)
(0.894384 0.447183 0)
(0.894388 0.447189 0)
(0.894392 0.447192 0)
(0.894394 0.447195 0)
(0.894396 0.447197 0)
(0.894398 0.447198 0)
(0.894399 0.447199 0)
(0.894399 0.447199 0)
(0.8944 0.4472 0)
(0.8944 0.4472 0)
(0.8944 0.4472 0)
(0.8944 0.4472 0)
(0.8944 0.4472 0)
(0.8944 0.4472 0)
(0.8944 0.4472 0)
(0.8944 0.4472 0)
(0.8944 0.4472 0)
(0.8944 0.4472 0)
(0.8944 0.4472 0)
(0.8944 0.4472 0)
(0.8944 0.4472 0)
(0.8944 0.4472 0)
(0.8944 0.4472 0)
(0.8944 0.4472 0)
(0.8944 0.4472 0)
(0.8944 0.4472 0)
(0.8944 0.4472 0)
(0.8944 0.4472 0)
(0.8944 0.4472 0)
(0.8944 0.4472 0)
(0.894399 0.4472 0)
(0.894399 0.4472 0)
(0.894398 0.447201 0)
(0.894397 0.447202 0)
(0.894395 0.447204 0)
(0.894391 0.447206 0)
(0.894386 0.447211 0)
(0.894378 0.447218 0)
(0.894368 0.447228 0)
(0.894356 0.447243 0)
(0.894343 0.447262 0)
(0.89433 0.447286 0)
(0.894317 0.447315 0)
(0.894305 0.447353 0)
(0.894284 0.447404 0)
(0.894242 0.447482 0)
(0.894152 0.447613 0)
(0.893976 0.447838 0)
(0.893664 0.448222 0)
(0.893161 0.448848 0)
(0.892424 0.449813 0)
(0.89144 0.451204 0)
(0.890237 0.453075 0)
(0.888892 0.45542 0)
(0.887517 0.458166 0)
(0.886244 0.461179 0)
(0.885195 0.464282 0)
(0.884467 0.467287 0)
(0.884111 0.470028 0)
(0.884137 0.472381 0)
(0.884512 0.474277 0)
(0.88518 0.475704 0)
(0.886074 0.476694 0)
(0.887125 0.477312 0)
(0.888276 0.477643 0)
(0.889485 0.477776 0)
(0.890727 0.477794 0)
(0.891993 0.477764 0)
(0.893284 0.477735 0)
(0.894604 0.47773 0)
(0.895963 0.477746 0)
(0.897367 0.477755 0)
(0.898813 0.477699 0)
(0.900278 0.477486 0)
(0.901702 0.476997 0)
(0.902992 0.476104 0)
(0.904028 0.474702 0)
(0.904691 0.472742 0)
(0.9049 0.47026 0)
(0.904634 0.467375 0)
(0.903939 0.464271 0)
(0.902918 0.461153 0)
(0.901699 0.458213 0)
(0.900415 0.455591 0)
(0.899176 0.453371 0)
(0.898057 0.451575 0)
(0.897102 0.450185 0)
(0.896325 0.449152 0)
(0.89572 0.448415 0)
(0.895266 0.447909 0)
(0.894939 0.447578 0)
(0.894713 0.447371 0)
(0.894564 0.447251 0)
(0.89447 0.447187 0)
(0.894416 0.447158 0)
(0.894388 0.44715 0)
(0.894375 0.447153 0)
(0.894373 0.44716 0)
(0.894368 0.447162 0)
(0.894373 0.447171 0)
(0.894379 0.447179 0)
(0.894384 0.447186 0)
(0.894389 0.44719 0)
(0.894392 0.447194 0)
(0.894395 0.447196 0)
(0.894397 0.447198 0)
(0.894398 0.447199 0)
(0.894399 0.447199 0)
(0.894399 0.447199 0)
(0.8944 0.4472 0)
(0.8944 0.4472 0)
(0.8944 0.4472 0)
(0.8944 0.4472 0)
(0.8944 0.4472 0)
(0.8944 0.4472 0)
(0.8944 0.4472 0)
(0.8944 0.4472 0)
(0.8944 0.4472 0)
(0.8944 0.4472 0)
(0.8944 0.4472 0)
(0.8944 0.4472 0)
(0.8944 0.4472 0)
(0.8944 0.4472 0)
(0.8944 0.4472 0)
(0.8944 0.4472 0)
(0.8944 0.4472 0)
(0.8944 0.4472 0)
(0.8944 0.4472 0)
(0.8944 0.4472 0)
(0.8944 0.4472 0)
(0.894399 0.447201 0)
(0.894399 0.4472 0)
(0.894398 0.447202 0)
(0.894396 0.447202 0)
(0.894393 0.447205 0)
(0.894388 0.447208 0)
(0.89438 0.447214 0)
(0.894371 0.447223 0)
(0.894357 0.447236 0)
(0.894342 0.447254 0)
(0.894325 0.447277 0)
(0.894308 0.447307 0)
(0.894289 0.447345 0)
(0.894266 0.447394 0)
(0.894226 0.447466 0)
(0.894148 0.447581 0)
(0.893991 0.447777 0)
(0.893701 0.448115 0)
(0.893211 0.448682 0)
(0.892454 0.449589 0)
(0.891389 0.45095 0)
(0.890026 0.452851 0)
(0.888438 0.45531 0)
(0.886757 0.458261 0)
(0.88515 0.461547 0)
(0.883787 0.464948 0)
(0.882802 0.468224 0)
(0.882277 0.471155 0)
(0.882228 0.473579 0)
(0.882613 0.475408 0)
(0.883353 0.476628 0)
(0.884352 0.477292 0)
(0.885513 0.477494 0)
(0.886755 0.477357 0)
(0.888017 0.477008 0)
(0.889266 0.47657 0)
(0.890491 0.476148 0)
(0.891702 0.475827 0)
(0.892921 0.475663 0)
(0.894174 0.475682 0)
(0.89549 0.475886 0)
(0.896895 0.476246 0)
(0.898412 0.476702 0)
(0.900042 0.477152 0)
(0.901745 0.47745 0)
(0.903425 0.477412 0)
(0.904937 0.476851 0)
(0.906105 0.475623 0)
(0.906775 0.47367 0)
(0.906854 0.471055 0)
(0.906342 0.467946 0)
(0.905328 0.464587 0)
(0.903962 0.461234 0)
(0.902419 0.45811 0)
(0.90086 0.455369 0)
(0.899407 0.453091 0)
(0.898138 0.451286 0)
(0.897088 0.449919 0)
(0.896258 0.448927 0)
(0.895631 0.448236 0)
(0.895175 0.447775 0)
(0.894858 0.447483 0)
(0.894647 0.447308 0)
(0.894513 0.447211 0)
(0.894434 0.447165 0)
(0.894391 0.447147 0)
(0.894372 0.447146 0)
(0.894367 0.447153 0)
(0.894361 0.447156 0)
(0.894366 0.447166 0)
(0.894373 0.447175 0)
(0.89438 0.447182 0)
(0.894386 0.447188 0)
(0.89439 0.447192 0)
(0.894393 0.447195 0)
(0.894396 0.447197 0)
(0.894397 0.447198 0)
(0.894398 0.447199 0)
(0.894399 0.447199 0)
(0.894399 0.4472 0)
(0.8944 0.4472 0)
(0.8944 0.4472 0)
(0.8944 0.4472 0)
(0.8944 0.4472 0)
(0.8944 0.4472 0)
(0.8944 0.4472 0)
(0.8944 0.4472 0)
(0.8944 0.4472 0)
(0.8944 0.4472 0)
(0.8944 0.4472 0)
(0.8944 0.4472 0)
(0.8944 0.4472 0)
(0.8944 0.4472 0)
(0.8944 0.4472 0)
(0.8944 0.4472 0)
(0.8944 0.4472 0)
(0.8944 0.4472 0)
(0.8944 0.4472 0)
(0.8944 0.4472 0)
(0.8944 0.4472 0)
(0.894399 0.4472 0)
(0.894398 0.447201 0)
(0.894397 0.447202 0)
(0.894394 0.447203 0)
(0.89439 0.447206 0)
(0.894384 0.447211 0)
(0.894374 0.447218 0)
(0.894362 0.447229 0)
(0.894344 0.447245 0)
(0.894325 0.447267 0)
(0.894303 0.447295 0)
(0.89428 0.447332 0)
(0.894252 0.44738 0)
(0.894213 0.447445 0)
(0.894144 0.447545 0)
(0.894009 0.447712 0)
(0.893752 0.447998 0)
(0.893298 0.448491 0)
(0.892558 0.449307 0)
(0.891459 0.450581 0)
(0.889978 0.452438 0)
(0.888169 0.454935 0)
(0.886176 0.458021 0)
(0.884207 0.461528 0)
(0.882486 0.465194 0)
(0.881204 0.468712 0)
(0.880483 0.471798 0)
(0.880355 0.47424 0)
(0.880771 0.475922 0)
(0.881625 0.47683 0)
(0.882781 0.477032 0)
(0.884102 0.476657 0)
(0.885474 0.475867 0)
(0.886813 0.474833 0)
(0.888067 0.473715 0)
(0.889223 0.472657 0)
(0.890293 0.471774 0)
(0.891313 0.471155 0)
(0.892331 0.470856 0)
(0.893395 0.470904 0)
(0.894552 0.471299 0)
(0.895849 0.472017 0)
(0.897329 0.473005 0)
(0.899027 0.474171 0)
(0.900935 0.475366 0)
(0.902982 0.476379 0)
(0.905013 0.476955 0)
(0.906809 0.476845 0)
(0.908132 0.475869 0)
(0.908791 0.473978 0)
(0.908697 0.471274 0)
(0.90789 0.467992 0)
(0.906517 0.464441 0)
(0.904788 0.460928 0)
(0.902924 0.457702 0)
(0.90111 0.454922 0)
(0.899476 0.452656 0)
(0.898092 0.450898 0)
(0.896981 0.449597 0)
(0.896129 0.448674 0)
(0.895503 0.448048 0)
(0.895063 0.447643 0)
(0.894767 0.447395 0)
(0.894578 0.447254 0)
(0.894464 0.447181 0)
(0.894401 0.44715 0)
(0.894371 0.447142 0)
(0.894361 0.447146 0)
(0.894354 0.44715 0)
(0.894359 0.44716 0)
(0.894366 0.44717 0)
(0.894375 0.447179 0)
(0.894382 0.447186 0)
(0.894387 0.44719 0)
(0.894391 0.447194 0)
(0.894395 0.447196 0)
(0.894396 0.447198 0)
(0.894398 0.447199 0)
(0.894399 0.447199 0)
(0.894399 0.4472 0)
(0.8944 0.4472 0)
(0.8944 0.4472 0)
(0.8944 0.4472 0)
(0.8944 0.4472 0)
(0.8944 0.4472 0)
(0.8944 0.4472 0)
(0.8944 0.4472 0)
(0.8944 0.4472 0)
(0.8944 0.4472 0)
(0.8944 0.4472 0)
(0.8944 0.4472 0)
(0.8944 0.4472 0)
(0.8944 0.4472 0)
(0.8944 0.4472 0)
(0.8944 0.4472 0)
(0.8944 0.4472 0)
(0.8944 0.4472 0)
(0.8944 0.4472 0)
(0.8944 0.4472 0)
(0.894399 0.4472 0)
(0.894399 0.447201 0)
(0.894398 0.447201 0)
(0.894396 0.447202 0)
(0.894393 0.447204 0)
(0.894387 0.447208 0)
(0.894379 0.447213 0)
(0.894367 0.447222 0)
(0.89435 0.447236 0)
(0.894329 0.447255 0)
(0.894304 0.447281 0)
(0.894276 0.447316 0)
(0.894244 0.44736 0)
(0.894204 0.44742 0)
(0.894142 0.447507 0)
(0.894027 0.447646 0)
(0.893808 0.447882 0)
(0.893406 0.448294 0)
(0.89272 0.448994 0)
(0.891643 0.450135 0)
(0.890105 0.451872 0)
(0.888124 0.454315 0)
(0.885837 0.457452 0)
(0.883487 0.461117 0)
(0.881364 0.465007 0)
(0.879734 0.468748 0)
(0.878778 0.471978 0)
(0.878557 0.47442 0)
(0.879018 0.475922 0)
(0.880025 0.476462 0)
(0.881396 0.476127 0)
(0.882942 0.47508 0)
(0.884502 0.473523 0)
(0.885957 0.471673 0)
(0.887237 0.469733 0)
(0.888318 0.467879 0)
(0.889215 0.466255 0)
(0.889974 0.464974 0)
(0.890661 0.464112 0)
(0.891351 0.463717 0)
(0.892115 0.463806 0)
(0.893015 0.464377 0)
(0.894108 0.465409 0)
(0.895455 0.466866 0)
(0.897116 0.468678 0)
(0.899126 0.470726 0)
(0.901457 0.472809 0)
(0.903981 0.474645 0)
(0.906462 0.475902 0)
(0.908592 0.476274 0)
(0.910065 0.475558 0)
(0.91067 0.47373 0)
(0.910345 0.470953 0)
(0.909191 0.467539 0)
(0.90743 0.46386 0)
(0.905338 0.460268 0)
(0.903176 0.457026 0)
(0.901146 0.454286 0)
(0.899377 0.4521 0)
(0.897924 0.450441 0)
(0.896791 0.449241 0)
(0.895947 0.448412 0)
(0.895347 0.447865 0)
(0.894938 0.447522 0)
(0.894674 0.44732 0)
(0.894512 0.447211 0)
(0.894421 0.447159 0)
(0.894375 0.447142 0)
(0.894356 0.447142 0)
(0.894347 0.447145 0)
(0.894351 0.447155 0)
(0.894359 0.447166 0)
(0.894368 0.447175 0)
(0.894377 0.447183 0)
(0.894384 0.447189 0)
(0.894389 0.447193 0)
(0.894393 0.447195 0)
(0.894395 0.447197 0)
(0.894397 0.447198 0)
(0.894398 0.447199 0)
(0.894399 0.4472 0)
(0.8944 0.4472 0)
(0.8944 0.4472 0)
(0.8944 0.4472 0)
(0.8944 0.4472 0)
(0.8944 0.4472 0)
(0.8944 0.4472 0)
(0.8944 0.4472 0)
(0.8944 0.4472 0)
(0.8944 0.4472 0)
(0.8944 0.4472 0)
(0.8944 0.4472 0)
(0.8944 0.4472 0)
(0.8944 0.4472 0)
(0.8944 0.4472 0)
(0.8944 0.4472 0)
(0.8944 0.4472 0)
(0.8944 0.4472 0)
(0.8944 0.4472 0)
(0.8944 0.4472 0)
(0.894399 0.447201 0)
(0.894399 0.4472 0)
(0.894397 0.447202 0)
(0.894395 0.447203 0)
(0.89439 0.447205 0)
(0.894383 0.447209 0)
(0.894373 0.447216 0)
(0.894358 0.447227 0)
(0.894337 0.447244 0)
(0.894311 0.447266 0)
(0.894279 0.447297 0)
(0.894244 0.447338 0)
(0.894201 0.447392 0)
(0.894142 0.447467 0)
(0.894044 0.447583 0)
(0.893863 0.447773 0)
(0.893523 0.448105 0)
(0.892918 0.448682 0)
(0.891916 0.449655 0)
(0.890399 0.451206 0)
(0.888323 0.453498 0)
(0.885792 0.456582 0)
(0.883064 0.460322 0)
(0.8805 0.46439 0)
(0.878459 0.468342 0)
(0.877207 0.471727 0)
(0.876854 0.47419 0)
(0.877355 0.47553 0)
(0.878542 0.47571 0)
(0.880179 0.474834 0)
(0.882019 0.473096 0)
(0.883838 0.47074 0)
(0.885467 0.468027 0)
(0.886806 0.465204 0)
(0.887818 0.462485 0)
(0.888521 0.460045 0)
(0.888971 0.458012 0)
(0.889255 0.456475 0)
(0.889475 0.455486 0)
(0.889734 0.455071 0)
(0.89012 0.455234 0)
(0.890704 0.455962 0)
(0.891545 0.457237 0)
(0.892703 0.459036 0)
(0.894252 0.461327 0)
(0.896264 0.464038 0)
(0.898768 0.467018 0)
(0.901692 0.470011 0)
(0.904828 0.472659 0)
(0.907833 0.474555 0)
(0.910303 0.475343 0)
(0.911879 0.474821 0)
(0.912353 0.47301 0)
(0.911719 0.470152 0)
(0.910167 0.466637 0)
(0.908005 0.462897 0)
(0.905569 0.459309 0)
(0.903155 0.456136 0)
(0.900967 0.453513 0)
(0.89912 0.451466 0)
(0.897648 0.449949 0)
(0.896534 0.448878 0)
(0.89573 0.448157 0)
(0.895175 0.447696 0)
(0.894811 0.447416 0)
(0.894584 0.447259 0)
(0.894453 0.44718 0)
(0.894385 0.447147 0)
(0.894355 0.44714 0)
(0.894342 0.447142 0)
(0.894343 0.447151 0)
(0.894351 0.447161 0)
(0.894362 0.447172 0)
(0.894372 0.44718 0)
(0.89438 0.447187 0)
(0.894386 0.447191 0)
(0.894391 0.447195 0)
(0.894394 0.447197 0)
(0.894397 0.447198 0)
(0.894398 0.447199 0)
(0.894399 0.447199 0)
(0.894399 0.4472 0)
(0.8944 0.4472 0)
(0.8944 0.4472 0)
(0.8944 0.4472 0)
(0.8944 0.4472 0)
(0.8944 0.4472 0)
(0.8944 0.4472 0)
(0.8944 0.4472 0)
(0.8944 0.4472 0)
(0.8944 0.4472 0)
(0.8944 0.4472 0)
(0.8944 0.4472 0)
(0.8944 0.4472 0)
(0.8944 0.4472 0)
(0.8944 0.4472 0)
(0.8944 0.4472 0)
(0.8944 0.4472 0)
(0.8944 0.4472 0)
(0.8944 0.4472 0)
(0.894399 0.447201 0)
(0.894398 0.447201 0)
(0.894396 0.447202 0)
(0.894393 0.447203 0)
(0.894388 0.447206 0)
(0.894379 0.447212 0)
(0.894365 0.44722 0)
(0.894347 0.447232 0)
(0.894321 0.447252 0)
(0.894289 0.447279 0)
(0.89425 0.447314 0)
(0.894205 0.447363 0)
(0.894147 0.447428 0)
(0.894062 0.447522 0)
(0.893913 0.447674 0)
(0.893635 0.447934 0)
(0.893127 0.448391 0)
(0.892244 0.449184 0)
(0.890827 0.450502 0)
(0.88876 0.452553 0)
(0.886072 0.455466 0)
(0.883004 0.459174 0)
(0.879975 0.463357 0)
(0.877454 0.467507 0)
(0.87582 0.471077 0)
(0.875263 0.473616 0)
(0.875765 0.474862 0)
(0.877133 0.474753 0)
(0.879073 0.4734 0)
(0.881267 0.471026 0)
(0.88342 0.467916 0)
(0.885298 0.46437 0)
(0.886751 0.460678 0)
(0.887713 0.457096 0)
(0.888201 0.453834 0)
(0.888288 0.451045 0)
(0.888087 0.448829 0)
(0.887734 0.447239 0)
(0.88737 0.44629 0)
(0.887124 0.445973 0)
(0.8871 0.446267 0)
(0.887368 0.447146 0)
(0.887973 0.448588 0)
(0.88896 0.450585 0)
(0.890392 0.453137 0)
(0.892359 0.456228 0)
(0.89494 0.459788 0)
(0.898143 0.463634 0)
(0.901826 0.467445 0)
(0.905672 0.470782 0)
(0.909219 0.473169 0)
(0.911972 0.474224 0)
(0.913547 0.473769 0)
(0.913776 0.471897 0)
(0.912749 0.468938 0)
(0.910758 0.465354 0)
(0.908201 0.461621 0)
(0.905467 0.458121 0)
(0.902865 0.455098 0)
(0.900588 0.452657 0)
(0.898727 0.450798 0)
(0.897289 0.449454 0)
(0.896233 0.44853 0)
(0.895494 0.447924 0)
(0.895001 0.447549 0)
(0.894689 0.44733 0)
(0.894505 0.447214 0)
(0.894405 0.44716 0)
(0.894358 0.447142 0)
(0.89434 0.447143 0)
(0.894336 0.447148 0)
(0.894343 0.447158 0)
(0.894354 0.447168 0)
(0.894366 0.447178 0)
(0.894376 0.447185 0)
(0.894383 0.44719 0)
(0.894389 0.447194 0)
(0.894393 0.447196 0)
(0.894396 0.447198 0)
(0.894397 0.447199 0)
(0.894398 0.447199 0)
(0.894399 0.4472 0)
(0.8944 0.4472 0)
(0.8944 0.4472 0)
(0.8944 0.4472 0)
(0.8944 0.4472 0)
(0.8944 0.4472 0)
(0.8944 0.4472 0)
(0.8944 0.4472 0)
(0.8944 0.4472 0)
(0.8944 0.4472 0)
(0.8944 0.4472 0)
(0.8944 0.4472 0)
(0.8944 0.4472 0)
(0.8944 0.4472 0)
(0.8944 0.4472 0)
(0.8944 0.4472 0)
(0.8944 0.4472 0)
(0.8944 0.4472 0)
(0.894399 0.4472 0)
(0.894399 0.447201 0)
(0.894398 0.447201 0)
(0.894396 0.447202 0)
(0.894391 0.447204 0)
(0.894384 0.447208 0)
(0.894374 0.447214 0)
(0.894357 0.447224 0)
(0.894334 0.447238 0)
(0.894302 0.447261 0)
(0.894263 0.447291 0)
(0.894217 0.447332 0)
(0.894159 0.447388 0)
(0.894081 0.447466 0)
(0.893958 0.447586 0)
(0.893736 0.447786 0)
(0.893325 0.448136 0)
(0.892585 0.448755 0)
(0.891334 0.449821 0)
(0.88939 0.451562 0)
(0.886676 0.454186 0)
(0.883357 0.457731 0)
(0.87987 0.461935 0)
(0.876803 0.466257 0)
(0.87468 0.470048 0)
(0.873809 0.472745 0)
(0.874227 0.474005 0)
(0.875735 0.473729 0)
(0.877988 0.472024 0)
(0.880583 0.469135 0)
(0.883141 0.465379 0)
(0.885353 0.461092 0)
(0.886999 0.456601 0)
(0.887964 0.452201 0)
(0.888237 0.448144 0)
(0.887902 0.444624 0)
(0.887106 0.441768 0)
(0.886032 0.439638 0)
(0.884878 0.43824 0)
(0.883829 0.437536 0)
(0.883043 0.437472 0)
(0.882629 0.437987 0)
(0.882647 0.439034 0)
(0.883115 0.440586 0)
(0.884038 0.442645 0)
(0.885445 0.44524 0)
(0.887413 0.448412 0)
(0.890051 0.452171 0)
(0.893439 0.456441 0)
(0.897537 0.460995 0)
(0.902103 0.465439 0)
(0.906688 0.469251 0)
(0.910711 0.471906 0)
(0.913614 0.47302 0)
(0.915028 0.472476 0)
(0.914876 0.470457 0)
(0.91337 0.467381 0)
(0.910921 0.46377 0)
(0.908004 0.460116 0)
(0.905041 0.456784 0)
(0.902331 0.453981 0)
(0.900043 0.451775 0)
(0.898232 0.450138 0)
(0.896876 0.448985 0)
(0.89591 0.448213 0)
(0.895256 0.447722 0)
(0.894835 0.447428 0)
(0.894581 0.447265 0)
(0.894439 0.447183 0)
(0.894368 0.44715 0)
(0.894344 0.447147 0)
(0.894332 0.447148 0)
(0.894336 0.447156 0)
(0.894347 0.447166 0)
(0.894359 0.447175 0)
(0.894371 0.447183 0)
(0.89438 0.447189 0)
(0.894387 0.447193 0)
(0.894391 0.447195 0)
(0.894395 0.447197 0)
(0.894397 0.447198 0)
(0.894398 0.447199 0)
(0.894399 0.447199 0)
(0.8944 0.4472 0)
(0.8944 0.4472 0)
(0.8944 0.4472 0)
(0.8944 0.4472 0)
(0.8944 0.4472 0)
(0.8944 0.4472 0)
(0.8944 0.4472 0)
(0.8944 0.4472 0)
(0.8944 0.4472 0)
(0.8944 0.4472 0)
(0.8944 0.4472 0)
(0.8944 0.4472 0)
(0.8944 0.4472 0)
(0.8944 0.4472 0)
(0.8944 0.4472 0)
(0.8944 0.4472 0)
(0.8944 0.4472 0)
(0.894399 0.4472 0)
(0.894399 0.447201 0)
(0.894397 0.447201 0)
(0.894394 0.447202 0)
(0.894389 0.447205 0)
(0.89438 0.447209 0)
(0.894367 0.447216 0)
(0.894347 0.447227 0)
(0.894319 0.447245 0)
(0.894281 0.447269 0)
(0.894234 0.447304 0)
(0.894178 0.447351 0)
(0.894104 0.447415 0)
(0.893999 0.447509 0)
(0.893822 0.447661 0)
(0.893501 0.447921 0)
(0.892908 0.448387 0)
(0.891862 0.449211 0)
(0.890139 0.450612 0)
(0.887553 0.45285 0)
(0.884134 0.456084 0)
(0.880259 0.460176 0)
(0.876603 0.46461 0)
(0.873871 0.468647 0)
(0.872539 0.471594 0)
(0.87274 0.473003 0)
(0.874296 0.472718 0)
(0.876821 0.470833 0)
(0.879836 0.467602 0)
(0.882867 0.463361 0)
(0.885506 0.45847 0)
(0.887449 0.453286 0)
(0.88851 0.448139 0)
(0.88862 0.443323 0)
(0.887841 0.439084 0)
(0.886337 0.4356 0)
(0.884349 0.43297 0)
(0.882153 0.431212 0)
(0.880021 0.430275 0)
(0.878197 0.430059 0)
(0.876867 0.43044 0)
(0.876139 0.431305 0)
(0.876048 0.432571 0)
(0.876563 0.434202 0)
(0.87763 0.436213 0)
(0.879215 0.438662 0)
(0.88135 0.441639 0)
(0.884139 0.445233 0)
(0.887711 0.449475 0)
(0.892128 0.454266 0)
(0.897269 0.459315 0)
(0.902765 0.464144 0)
(0.908022 0.468161 0)
(0.912358 0.470815 0)
(0.9152 0.471763 0)
(0.916253 0.470976 0)
(0.915578 0.46874 0)
(0.913533 0.465553 0)
(0.910639 0.461971 0)
(0.907428 0.458472 0)
(0.904323 0.455379 0)
(0.901597 0.452852 0)
(0.899376 0.450918 0)
(0.897674 0.449521 0)
(0.896439 0.448563 0)
(0.895588 0.447939 0)
(0.895032 0.447556 0)
(0.894688 0.447335 0)
(0.894491 0.447219 0)