/*--------------------------------*- C++ -*----------------------------------*\
  =========                 |
  \\      /  F ield         | OpenFOAM: The Open Source CFD Toolbox
   \\    /   O peration     | Website:  https://openfoam.org
    \\  /    A nd           | Version:  6
     \\/     M anipulation  |
\*---------------------------------------------------------------------------*/
FoamFile
{
    version     2.0;
    format      ascii;
    class       volScalarField;
    location    "2.79";
    object      p;
}
// * * * * * * * * * * * * * * * * * * * * * * * * * * * * * * * * * * * * * //

dimensions      [0 2 -2 0 0 0 0];

internalField   nonuniform List<scalar> 
4214
(
-0.337416
-0.315374
-0.255785
-0.197254
-0.16928
-0.156457
-0.144098
-0.128603
-0.110711
-0.0920138
-0.0758179
-0.0667207
-0.0672198
-0.0751036
-0.0845226
-0.0585421
-0.0323196
0.0119433
0.127254
0.194858
0.223532
0.172795
0.14535
0.121527
0.0866874
0.0545146
0.0279193
0.0141363
-0.000558954
-0.0152632
-0.029223
-0.0424755
-0.0554578
-0.0688097
-0.0828429
-0.0949288
-0.108308
-0.138859
-0.212983
-0.305016
-0.353266
-0.220628
-0.303968
-0.355184
-0.309197
-0.270793
-0.248338
-0.223859
-0.192643
-0.157911
-0.121057
-0.0842382
-0.0499806
-0.0169252
0.0141051
0.0256513
0.0327414
0.0360742
0.038596
0.0836183
0.147611
0.282593
0.274246
0.208054
0.15293
0.0988824
0.0490073
0.00534934
-0.0231849
-0.051813
-0.0746378
-0.0929365
-0.107237
-0.119401
-0.131541
-0.143718
-0.153514
-0.169326
-0.212202
-0.270533
-0.260672
-0.203465
-0.484378
-0.496504
-0.571482
-0.531483
-0.478385
-0.436033
-0.390641
-0.336482
-0.277601
-0.216623
-0.158319
-0.103616
-0.0548872
-0.0149719
0.0246058
0.0554026
0.0972552
0.159552
0.246675
0.346888
0.455202
0.435422
0.360268
0.274443
0.188207
0.110981
0.0433586
-0.0115701
-0.0571534
-0.0971057
-0.134446
-0.165449
-0.192825
-0.218341
-0.242544
-0.266021
-0.298039
-0.350336
-0.400897
-0.39738
-0.395762
-0.714973
-0.69188
-0.750331
-0.708942
-0.640968
-0.576774
-0.509346
-0.434257
-0.354583
-0.274502
-0.200171
-0.13226
-0.0721392
-0.0209043
0.0394912
0.11188
0.192514
0.287864
0.397607
0.512912
0.589056
0.56201
0.479615
0.372057
0.263046
0.160287
0.0701762
-0.00572445
-0.0652078
-0.117224
-0.165394
-0.210371
-0.250381
-0.28703
-0.321246
-0.355302
-0.397806
-0.454065
-0.501088
-0.504516
-0.534609
-0.949037
-0.917202
-0.935255
-0.885564
-0.805013
-0.720887
-0.631809
-0.53515
-0.435817
-0.339527
-0.252837
-0.169332
-0.0935095
-0.0238453
0.0587865
0.169359
0.298317
0.435956
0.570242
0.685402
0.723968
0.687883
0.597846
0.474855
0.35007
0.227492
0.115567
0.0179629
-0.0635632
-0.131337
-0.192725
-0.248792
-0.302041
-0.352092
-0.398767
-0.44483
-0.498114
-0.561468
-0.612414
-0.622195
-0.656223
-1.17579
-1.13386
-1.12159
-1.0538
-0.957505
-0.853961
-0.742337
-0.623856
-0.506551
-0.395293
-0.296177
-0.195097
-0.109543
-0.0180818
0.106449
0.264377
0.438899
0.603208
0.743601
0.834755
0.850189
0.800161
0.701001
0.570532
0.433396
0.296022
0.166488
0.0500807
-0.0513404
-0.138628
-0.214132
-0.283762
-0.347979
-0.409451
-0.467467
-0.524904
-0.589014
-0.661985
-0.719411
-0.735383
-0.774305
-1.39626
-1.34645
-1.31561
-1.22589
-1.10935
-0.981348
-0.842243
-0.696078
-0.551727
-0.41881
-0.307849
-0.205504
-0.105099
0.0257297
0.196887
0.39932
0.601753
0.773006
0.902241
0.961536
0.962059
0.897562
0.791273
0.654124
0.509751
0.362725
0.220736
0.0888679
-0.0302593
-0.136371
-0.229404
-0.314696
-0.392654
-0.465661
-0.535835
-0.605397
-0.681001
-0.762626
-0.827946
-0.850505
-0.893846
-1.62052
-1.56181
-1.51655
-1.40557
-1.2604
-1.10178
-0.9295
-0.749063
-0.568803
-0.416098
-0.284478
-0.178411
-0.0446588
0.125421
0.334624
0.558741
0.760546
0.915402
1.01783
1.05373
1.04215
0.978223
0.865186
0.724514
0.573158
0.418809
0.268659
0.125949
-0.00701083
-0.129559
-0.240865
-0.342422
-0.436226
-0.523056
-0.605686
-0.687638
-0.775053
-0.867338
-0.941225
-0.970103
-1.01542
-1.86064
-1.78909
-1.72915
-1.59246
-1.40962
-1.21216
-1.00018
-0.783465
-0.569757
-0.373605
-0.215632
-0.0773333
0.0867494
0.286077
0.506214
0.714743
0.882528
0.998247
1.06636
1.08877
1.07414
1.01634
0.913709
0.780373
0.626338
0.465947
0.308462
0.156798
0.0124742
-0.124061
-0.252083
-0.370275
-0.480707
-0.584219
-0.680577
-0.775168
-0.87554
-0.981233
-1.06496
-1.09723
-1.13931
-2.12718
-2.03789
-1.96206
-1.79301
-1.56494
-1.31492
-1.0451
-0.76874
-0.496469
-0.24908
-0.0533719
0.121404
0.303531
0.498746
0.687093
0.841565
0.948941
1.01868
1.05627
1.05818
1.0388
0.987898
0.900332
0.784813
0.647378
0.495071
0.336953
0.179233
0.0254887
-0.123783
-0.267605
-0.402473
-0.530171
-0.651351
-0.764858
-0.873767
-0.989156
-1.11016
-1.20651
-1.23819
-1.27256
-2.43165
-2.32512
-2.2304
-2.02399
-1.74457
-1.42833
-1.07794
-0.708412
-0.349093
-0.03862
0.206312
0.402683
0.575556
0.72803
0.845714
0.917775
0.955622
0.963059
0.961265
0.951222
0.930599
0.890988
0.82473
0.733397
0.616749
0.47841
0.327593
0.171318
0.0138009
-0.143528
-0.297765
-0.447851
-0.593147
-0.733928
-0.867286
-0.993674
-1.12556
-1.26713
-1.37671
-1.40571
-1.43216
-2.80469
-2.68291
-2.56933
-2.31677
-1.97719
-1.58503
-1.14038
-0.660366
-0.193915
0.207151
0.506571
0.709581
0.841169
0.919072
0.946929
0.916226
0.869933
0.819763
0.782833
0.758238
0.737418
0.711609
0.672233
0.610931
0.520102
0.405439
0.272394
0.122572
-0.0342161
-0.194841
-0.357793
-0.522379
-0.686281
-0.849073
-1.00351
-1.14941
-1.3001
-1.46538
-1.59191
-1.62287
-1.64555
-3.30636
-3.16882
-3.03673
-2.73507
-2.32015
-1.83418
-1.27946
-0.687066
-0.114717
0.389688
0.755892
0.963612
1.0411
1.02678
0.932133
0.810563
0.691666
0.58479
0.512359
0.47716
0.459695
0.44732
0.429643
0.398313
0.343139
0.260694
0.147076
0.0119334
-0.136893
-0.298519
-0.467921
-0.646144
-0.82766
-1.01098
-1.18888
-1.35926
-1.5316
-1.72303
-1.87467
-1.91819
-1.9534
-3.98614
-3.8448
-3.70338
-3.35951
-2.87281
-2.29116
-1.60919
-0.875102
-0.154522
0.439916
0.857617
1.07135
1.09021
0.97955
0.802255
0.600405
0.416914
0.256695
0.149498
0.106532
0.0933056
0.0928444
0.0979378
0.0928595
0.0703781
0.0187248
-0.0602574
-0.172912
-0.311661
-0.469808
-0.64143
-0.828903
-1.02318
-1.22957
-1.43221
-1.63116
-1.82831
-2.04761
-2.22833
-2.29101
-2.34282
-4.90559
-4.78514
-4.63923
-4.27252
-3.72503
-3.05726
-2.24409
-1.37254
-0.513059
0.210235
0.705377
0.958023
0.939066
0.797388
0.556533
0.286569
0.0437419
-0.162412
-0.306053
-0.364064
-0.373974
-0.365904
-0.329054
-0.327602
-0.293832
-0.329158
-0.374531
-0.468711
-0.589438
-0.74681
-0.913296
-1.10542
-1.31592
-1.54001
-1.77169
-1.99503
-2.22077
-2.45819
-2.66212
-2.74552
-2.82383
-6.11086
-6.05803
-5.94261
-5.6108
-5.03194
-4.2865
-3.33519
-2.30309
-1.30157
-0.426616
0.152136
0.543182
0.545948
0.445
0.17175
-0.149986
-0.433782
-0.672417
-0.855704
-0.950294
-0.930942
-0.946489
-0.84479
-0.894298
-0.790229
-0.845159
-0.840178
-0.933801
-1.04085
-1.20431
-1.38828
-1.57309
-1.83403
-2.04956
-2.35578
-2.56797
-2.88739
-3.09411
-3.4025
-3.45525
-3.69271
-7.55631
-7.63185
-7.72392
-7.48027
-7.18913
-6.25979
-5.40694
-3.95996
-2.72531
-1.52228
-0.896111
-0.19101
-0.213698
-0.0703157
-0.372817
-0.693086
-0.978532
-1.2691
-1.45893
-1.63316
-1.58088
-1.66536
-1.45091
-1.60334
-1.45184
-1.57612
-1.49772
-1.61867
-1.72023
-1.88575
-2.12572
-2.29078
-2.66446
-2.83698
-3.30933
-3.48722
-4.04467
-4.13837
-4.73747
-4.64039
-5.24004
-5.09352
-3.96277
-3.21122
-2.74149
-2.35109
-2.01961
-1.76169
-1.56015
-1.39952
-1.26237
-1.13766
-1.02198
-0.905502
-0.798494
-0.657393
-0.588131
-0.563032
-5.48738
-4.32868
-3.47975
-2.96108
-2.56244
-2.2267
-1.95895
-1.74748
-1.57629
-1.43702
-1.3116
-1.19473
-1.07951
-0.978561
-0.836348
-0.777428
-0.659234
-5.20052
-4.33679
-3.69139
-3.21288
-2.80991
-2.46784
-2.18966
-1.96574
-1.78069
-1.63331
-1.50855
-1.39352
-1.28219
-1.18154
-1.04803
-0.997304
-0.829926
-5.20045
-4.48622
-3.87219
-3.40561
-3.01948
-2.68515
-2.40629
-2.17793
-1.98729
-1.82842
-1.70114
-1.58915
-1.48237
-1.38396
-1.26422
-1.20699
-1.04008
-4.8717
-4.37961
-3.93275
-3.54824
-3.19984
-2.88786
-2.61661
-2.38727
-2.19486
-2.03119
-1.89689
-1.78669
-1.68547
-1.59252
-1.48417
-1.42455
-1.27332
-4.70954
-4.32177
-3.95751
-3.63145
-3.32754
-3.04831
-2.79875
-2.58065
-2.39214
-2.23106
-2.09234
-1.98018
-1.88392
-1.79558
-1.70214
-1.6457
-1.51321
-4.39237
-4.13747
-3.88624
-3.64561
-3.40358
-3.16577
-2.94545
-2.74746
-2.57169
-2.41648
-2.28214
-2.16692
-2.07373
-1.99414
-1.9114
-1.85785
-1.74815
-4.17802
-3.99056
-3.80299
-3.61041
-3.42169
-3.23216
-3.04691
-2.87426
-2.71708
-2.57577
-2.44971
-2.33981
-2.24698
-2.17224
-2.10447
-2.05756
-1.96743
-3.89855
-3.7832
-3.65606
-3.52336
-3.38513
-3.2446
-3.10109
-2.95877
-2.82386
-2.69945
-2.58697
-2.48642
-2.39972
-2.32627
-2.27131
-2.23032
-2.16368
-3.67472
-3.59398
-3.5188
-3.42023
-3.31382
-3.20706
-3.10191
-2.99617
-2.8896
-2.78649
-2.69007
-2.60244
-2.52494
-2.4573
-2.41006
-2.3718
-2.3292
-3.44854
-3.39417
-3.34198
-3.28394
-3.21186
-3.13567
-3.05916
-2.98367
-2.90906
-2.83348
-2.75881
-2.68804
-2.62305
-2.56533
-2.52216
-2.4849
-2.46438
-3.24025
-3.20084
-3.17616
-3.14037
-3.09516
-3.04131
-2.98463
-2.9293
-2.87601
-2.82543
-2.77655
-2.72911
-2.68313
-2.64007
-2.60506
-2.57198
-2.56711
-3.04034
-3.01613
-2.99756
-2.97653
-2.94956
-2.91802
-2.88407
-2.84662
-2.80834
-2.77126
-2.73671
-2.70598
-2.67993
-2.65852
-2.63974
-2.61937
-2.61941
-2.84214
-2.82105
-2.82064
-2.8102
-2.79376
-2.77475
-2.75413
-2.73211
-2.70947
-2.68722
-2.66616
-2.64614
-2.62796
-2.61519
-2.60836
-2.60354
-2.60889
-2.64946
-2.64131
-2.63714
-2.63052
-2.62164
-2.61187
-2.60126
-2.58979
-2.57791
-2.5662
-2.55507
-2.54529
-2.53616
-2.52918
-2.52364
-2.52455
-2.53479
-2.4487
-2.43473
-2.44717
-2.44581
-2.43991
-2.43465
-2.42919
-2.4234
-2.41768
-2.41229
-2.4075
-2.40377
-2.40065
-2.40071
-2.39664
-2.40184
-2.41245
-2.23806
-2.24388
-2.24393
-2.24165
-2.23939
-2.23733
-2.23477
-2.23198
-2.22947
-2.22745
-2.22617
-2.22587
-2.22584
-2.22981
-2.22964
-2.23795
-2.24592
-2.03399
-2.02479
-2.03207
-2.02918
-2.02512
-2.02265
-2.02031
-2.01794
-2.01594
-2.01448
-2.01371
-2.0136
-2.01453
-2.01843
-2.01878
-2.02891
-2.03276
-1.81246
-1.81771
-1.81068
-1.80347
-1.79773
-1.7931
-1.78856
-1.78424
-1.78042
-1.77727
-1.77487
-1.77317
-1.77225
-1.77262
-1.77129
-1.77816
-1.77675
-1.61147
-1.59539
-1.58745
-1.57634
-1.56466
-1.55356
-1.5438
-1.53486
-1.52641
-1.51869
-1.51188
-1.50586
-1.50074
-1.49733
-1.49392
-1.49468
-1.49117
-1.39193
-1.38879
-1.35947
-1.33957
-1.32375
-1.30582
-1.2889
-1.27338
-1.25853
-1.24453
-1.23159
-1.2195
-1.20834
-1.19915
-1.18828
-1.18454
-1.17387
-1.19505
-1.16613
-1.12855
-1.10279
-1.07783
-1.05007
-1.02486
-1.00141
-0.978524
-0.95682
-0.936452
-0.917142
-0.899256
-0.883239
-0.865973
-0.856678
-0.836396
-0.962856
-0.955862
-0.893619
-0.854915
-0.824087
-0.78756
-0.752297
-0.719767
-0.688396
-0.658434
-0.630142
-0.603386
-0.57859
-0.55576
-0.532594
-0.517361
-0.489884
-0.764281
-0.725551
-0.658838
-0.609718
-0.565428
-0.518566
-0.473958
-0.432001
-0.391882
-0.353824
-0.317894
-0.284069
-0.252738
-0.223686
-0.195279
-0.174572
-0.142279
-0.523337
-0.502113
-0.414572
-0.355598
-0.304152
-0.248101
-0.194419
-0.144065
-0.0961271
-0.0508414
-0.00830233
0.0314468
0.0680691
0.10189
0.134261
0.159364
0.194681
-0.316431
-0.265626
-0.175794
-0.105301
-0.0419925
0.0224289
0.0831225
0.139704
0.192875
0.24253
0.288797
0.331723
0.371144
0.407563
0.441892
0.469016
0.504773
-0.0784595
-0.0401967
0.0661355
0.1444
0.211765
0.280772
0.346002
0.406385
0.462635
0.514801
0.563026
0.607294
0.647427
0.684073
0.717871
0.745075
0.779093
0.115721
0.177871
0.280763
0.366749
0.441163
0.512946
0.579863
0.641248
0.697658
0.749399
0.796788
0.839875
0.878691
0.914039
0.946248
0.972306
1.00436
0.322234
0.372593
0.486518
0.573048
0.646607
0.718214
0.784327
0.844322
0.898898
0.948491
0.993532
1.03417
1.07064
1.10382
1.13377
1.15821
1.18797
0.487893
0.553276
0.659242
0.749481
0.825154
0.895357
0.959327
1.01678
1.06846
1.11503
1.15704
1.19469
1.2283
1.25884
1.2862
1.3086
1.33603
0.656149
0.709277
0.82253
0.908834
0.980584
1.04781
1.10844
1.16232
1.21036
1.25332
1.29186
1.32622
1.35674
1.38437
1.40891
1.42905
1.4543
0.793325
0.853426
0.954267
1.04229
1.11347
1.17727
1.23413
1.28414
1.32825
1.36738
1.40226
1.43313
1.46038
1.48499
1.50669
1.52465
1.54813
0.9251
0.97576
1.08045
1.16123
1.22761
1.2874
1.33997
1.38574
1.4258
1.46107
1.49227
1.51966
1.54363
1.56516
1.58401
1.59996
1.62201
1.03572
1.08702
1.17947
1.26074
1.32461
1.38011
1.42842
1.47007
1.50617
1.53769
1.56533
1.58934
1.61016
1.62878
1.64506
1.65937
1.6802
1.13754
1.18242
1.27615
1.34894
1.40767
1.45885
1.5028
1.54046
1.57285
1.60078
1.62496
1.64567
1.66341
1.6792
1.69327
1.70654
1.72666
1.22585
1.26648
1.35088
1.42339
1.4787
1.52566
1.56561
1.59955
1.6285
1.65311
1.67401
1.69169
1.70671
1.72011
1.73252
1.74541
1.7655
1.31033
1.34314
1.42451
1.489
1.53904
1.58161
1.61746
1.64761
1.67309
1.69449
1.71235
1.72732
1.74034
1.75283
1.76527
1.77861
1.79846
1.38558
1.41337
1.48248
1.5442
1.58998
1.62807
1.65975
1.68621
1.70839
1.72691
1.74222
1.75518
1.76728
1.77968
1.79199
1.80521
1.82461
1.45793
1.48088
1.54316
1.59658
1.63784
1.67254
1.70056
1.7234
1.74233
1.75796
1.77102
1.78285
1.79457
1.80651
1.81795
1.82975
1.84584
1.52087
1.54394
1.59838
1.64453
1.67906
1.70945
1.73366
1.75283
1.76863
1.78267
1.795
1.80655
1.81787
1.82915
1.8393
1.85032
1.86538
-0.658009
-0.555124
-0.397391
-0.287223
-0.099882
0.0344305
0.2623
0.427438
0.69046
0.887577
1.18711
1.41301
1.69587
1.91836
2.15677
2.34341
2.49564
2.59952
2.66083
2.69654
2.69902
2.68571
2.63831
2.58203
2.51342
2.43874
2.36867
2.29433
2.22911
2.16083
2.1013
2.03935
1.98547
1.92888
1.88013
1.82805
1.7829
1.731
1.68361
1.62893
1.57849
-0.39208
-0.297623
-0.194196
-0.0781594
0.0539667
0.201416
0.368578
0.548718
0.750515
0.963651
1.19687
1.4297
1.66799
1.8843
2.09226
2.26703
2.40966
2.50668
2.56953
2.60333
2.61188
2.60117
2.56332
2.51395
2.45396
2.38901
2.32483
2.25952
2.19819
2.13806
2.08124
2.0271
1.9759
1.92754
1.88097
1.83574
1.79076
1.74441
1.6979
1.64845
1.59778
-0.144229
-0.0704302
0.0131388
0.108856
0.219572
0.347019
0.490351
0.651082
0.828106
1.02293
1.22766
1.44018
1.65157
1.85188
2.03751
2.2003
2.33309
2.42589
2.48745
2.52203
2.53443
2.52758
2.49788
2.45555
2.40353
2.3468
2.28877
2.23015
2.17354
2.11867
2.06609
2.01645
1.96953
1.92531
1.88365
1.8434
1.80426
1.76534
1.72716
1.6871
1.64489
0.0687342
0.125263
0.194502
0.273753
0.36817
0.477948
0.603487
0.745512
0.903622
1.07755
1.26122
1.45175
1.64248
1.82494
1.99343
2.14292
2.26663
2.35544
2.41535
2.45115
2.46623
2.46361
2.44062
2.40515
2.36036
2.31078
2.25871
2.20567
2.15372
2.10325
2.05482
2.00906
1.96602
1.92566
1.88777
1.85141
1.81674
1.78345
1.75066
1.71712
1.68094
0.253451
0.296691
0.355428
0.421965
0.502847
0.598002
0.708324
0.834066
0.975173
1.13035
1.29541
1.46608
1.63774
1.8031
1.95628
2.09339
2.20843
2.29385
2.35193
2.38899
2.40653
2.40782
2.39087
2.36174
2.32354
2.28027
2.23354
2.18543
2.13768
2.0911
2.04634
2.00397
1.96417
1.9269
1.89207
1.85903
1.82795
1.79809
1.76872
1.73889
1.70711
0.411456
0.444485
0.495603
0.552561
0.622695
0.706061
0.803624
0.915531
1.04158
1.18035
1.32851
1.48177
1.63623
1.78578
1.92519
2.05083
2.15775
2.23994
2.29653
2.33457
2.35446
2.35921
2.34773
2.32438
2.29215
2.25451
2.21246
2.16876
2.12483
2.08172
2.04014
2.00063
1.96347
1.92907
1.89647
1.86629
1.83781
1.81035
1.78338
1.75642
1.72878
0.546235
0.571862
0.617263
0.667031
0.728725
0.80253
0.889426
0.989497
1.10245
1.2269
1.36001
1.49781
1.63687
1.77211
1.89918
2.01439
2.11375
2.19266
2.24831
2.28708
2.3093
2.31693
2.31038
2.29233
2.26547
2.23274
2.19493
2.15515
2.11468
2.0746
2.0357
1.99862
1.9638
1.93126
1.90103
1.87295
1.84642
1.82093
1.79589
1.7716
1.74814
0.660305
0.681136
0.72192
0.766338
0.821488
0.887613
0.965639
1.05565
1.15736
1.26944
1.38931
1.5134
1.63867
1.76131
1.87754
1.98335
2.07578
2.15113
2.20656
2.24587
2.27018
2.28049
2.27813
2.26492
2.24289
2.2143
2.18046
2.14417
2.10675
2.0693
2.03272
1.99771
1.96476
1.93399
1.90539
1.87891
1.85397
1.83031
1.80777
1.78604
1.7654
0.755873
0.774386
0.811135
0.851628
0.901725
0.96173
1.03243
1.11397
1.20613
1.30757
1.41588
1.52793
1.64125
1.7528
1.85931
1.95701
2.04329
2.11509
2.17033
2.21021
2.23644
2.24932
2.25052
2.24154
2.22385
2.19881
2.16859
2.13542
2.1007
2.06557
2.03102
1.99778
1.9664
1.93691
1.90932
1.88417
1.86104
1.83946
1.81914
1.79947
1.78073
0.834783
0.853122
0.886292
0.923986
0.970178
1.02532
1.09003
1.1645
1.24859
1.34099
1.43945
1.54131
1.64439
1.74634
1.84431
1.93493
2.01587
2.08445
2.13908
2.17949
2.20747
2.22296
2.22704
2.22175
2.20781
2.18602
2.15902
2.12866
2.09636
2.06331
2.03051
1.99868
1.96848
1.9398
1.91311
1.88913
1.86757
1.84793
1.82969
1.81181
1.79445
0.898795
0.918437
0.948748
0.984528
1.02773
1.07899
1.13881
1.20748
1.2849
1.36988
1.46029
1.5537
1.64791
1.74165
1.83228
1.91684
1.99315
2.05887
2.11247
2.1536
2.18278
2.20058
2.20743
2.20516
2.19437
2.1756
2.15149
2.1237
2.09359
2.06235
2.03095
2.00027
1.97091
1.94287
1.91679
1.89335
1.87311
1.85548
1.83916
1.82279
1.80676
0.94925
0.971054
0.999582
1.03409
1.07508
1.12332
1.17931
1.24342
1.3156
1.39474
1.47843
1.56455
1.6513
1.73822
1.82275
1.90228
1.97467
2.03788
2.09048
2.1319
2.16229
2.18178
2.19123
2.19123
2.18317
2.16719
2.14566
2.12018
2.092
2.0622
2.03183
2.00192
1.9732
1.94583
1.92023
1.89728
1.8779
1.86201
1.84698
1.83186
1.81873
0.986223
1.01066
1.03859
1.07239
1.11202
1.15822
1.21165
1.27265
1.34099
1.41533
1.49313
1.57283
1.65418
1.73566
1.81523
1.89055
1.95976
2.02089
2.07259
2.11412
2.14537
2.16648
2.17787
2.18007
2.174
2.16056
2.14135
2.11779
2.09118
2.06249
2.03288
2.00344
1.97506
1.94817
1.92312
1.90077
1.88218
1.86729
1.85302
1.84022
1.82986
1.0088
1.03517
1.06357
1.09755
1.13714
1.18298
1.23562
1.29521
1.36111
1.43144
1.50474
1.58011
1.65737
1.7347
1.81019
1.88191
1.94825
2.00759
2.05843
2.09996
2.13186
2.15417
2.16716
2.17131
2.16719
2.15593
2.13874
2.11682
2.09135
2.06346
2.03438
2.00514
1.97668
1.94974
1.925
1.90333
1.88537
1.8709
1.8585
1.84756
1.839
1.02015
1.04549
1.07408
1.10882
1.15004
1.19782
1.25165
1.31128
1.37589
1.44384
1.51454
1.58714
1.66181
1.73635
1.80894
1.87775
1.94116
1.99853
2.04829
2.0895
2.12171
2.14486
2.15911
2.16483
2.16265
2.15336
2.13795
2.1175
2.09286
2.0654
2.0365
2.0072
1.97821
1.95063
1.92549
1.90396
1.88656
1.87297
1.86263
1.85351
1.8467
1.02853
1.05044
1.07846
1.1138
1.15649
1.20584
1.26077
1.32051
1.38449
1.45189
1.52178
1.59379
1.66694
1.73972
1.81054
1.87764
1.93924
1.99451
2.04283
2.08325
2.11528
2.13877
2.15378
2.16046
2.1598
2.15192
2.13776
2.11831
2.09439
2.06725
2.03816
2.00833
1.97872
1.95055
1.92499
1.90321
1.8859
1.87272
1.8641
1.85811
1.85606
1.04396
1.05602
1.08158
1.1165
1.15915
1.20853
1.26418
1.32488
1.38933
1.45673
1.52658
1.59818
1.67049
1.74237
1.81233
1.87869
1.9398
1.99427
2.0415
2.0811
2.11271
2.13611
2.15129
2.15859
2.15782
2.15017
2.13627
2.1169
2.09314
2.06605
2.03682
2.00675
1.97732
1.94959
1.92457
1.90304
1.88533
1.87167
1.86278
1.86056
1.86919
-0.504677
-0.592802
-0.747046
-0.973708
-1.17713
-1.41134
-1.64013
-1.87655
-2.12784
-2.40459
-2.71952
-3.10229
-3.62606
-4.30583
-5.18672
-6.25007
-7.30747
-0.633801
-0.866059
-0.997524
-1.24467
-1.44332
-1.66937
-1.89916
-2.13703
-2.3942
-2.68079
-3.01178
-3.424
-3.96923
-4.64428
-5.46776
-6.36502
-7.25653
-0.851651
-1.14701
-1.27274
-1.51559
-1.71772
-1.93272
-2.16215
-2.40215
-2.66447
-2.95522
-3.29503
-3.73149
-4.26393
-4.88932
-5.58847
-6.31518
-7.16678
-1.11294
-1.43104
-1.55851
-1.79335
-1.99834
-2.20959
-2.43505
-2.67564
-2.93869
-3.23226
-3.5818
-4.01631
-4.51009
-5.05923
-5.63777
-6.21624
-6.78743
-1.40524
-1.72728
-1.85818
-2.0797
-2.27892
-2.48486
-2.70406
-2.94126
-3.19954
-3.49148
-3.84941
-4.25255
-4.69481
-5.16528
-5.64216
-6.13336
-6.58759
-1.71934
-2.02956
-2.16163
-2.3724
-2.55915
-2.75678
-2.9669
-3.19479
-3.44478
-3.73658
-4.07229
-4.43259
-4.81007
-5.1951
-5.58738
-6.00424
-6.45411
-2.04995
-2.34422
-2.46625
-2.65624
-2.83035
-3.01606
-3.21451
-3.42938
-3.67024
-3.9491
-4.24576
-4.55427
-4.86693
-5.1793
-5.5048
-5.82563
-6.11763
-2.3844
-2.65291
-2.76311
-2.92791
-3.08754
-3.25781
-3.44126
-3.64196
-3.87289
-4.12007
-4.37577
-4.63568
-4.89479
-5.15348
-5.42815
-5.68118
-5.88928
-2.71176
-2.93869
-3.0391
-3.17947
-3.32395
-3.47765
-3.64483
-3.83247
-4.03837
-4.24975
-4.46399
-4.67628
-4.88251
-5.09758
-5.32112
-5.53316
-5.75928
-3.01922
-3.19696
-3.29162
-3.40912
-3.53703
-3.67312
-3.82378
-3.99343
-4.16719
-4.34263
-4.51675
-4.68576
-4.85117
-5.02371
-5.1959
-5.35354
-5.49354
-3.30122
-3.43154
-3.51981
-3.61676
-3.72647
-3.84452
-3.97936
-4.12161
-4.26422
-4.40551
-4.54274
-4.67383
-4.80841
-4.94965
-5.08987
-5.19746
-5.28175
-3.55785
-3.64465
-3.72187
-3.79842
-3.88993
-3.99113
-4.1041
-4.21679
-4.3279
-4.43551
-4.53832
-4.64097
-4.74786
-4.85972
-4.97095
-5.06506
-5.1726
-3.78241
-3.83095
-3.89448
-3.95142
-4.02552
-4.10784
-4.19304
-4.27634
-4.35678
-4.43403
-4.51096
-4.59068
-4.67308
-4.75714
-4.83556
-4.90654
-4.96974
-3.96018
-3.97898
-4.02818
-4.06944
-4.12575
-4.18334
-4.24054
-4.29626
-4.35061
-4.40658
-4.46571
-4.52744
-4.59192
-4.65806
-4.71738
-4.75612
-4.78528
-4.07675
-4.07649
-4.11043
-4.13891
-4.17198
-4.20642
-4.24073
-4.27666
-4.3158
-4.35812
-4.40332
-4.45153
-4.50111
-4.55077
-4.59762
-4.636
-4.68635
-4.13056
-4.12524
-4.13928
-4.15146
-4.16634
-4.18561
-4.20714
-4.23274
-4.26175
-4.29363
-4.32746
-4.36157
-4.39568
-4.42937
-4.4618
-4.49325
-4.52156
-4.13203
-4.12043
-4.12102
-4.12541
-4.13092
-4.14136
-4.15488
-4.17176
-4.19111
-4.21261
-4.23569
-4.25955
-4.28416
-4.3096
-4.33232
-4.34664
-4.35549
-4.07494
-4.06001
-4.05036
-4.05549
-4.05768
-4.06429
-4.07285
-4.08372
-4.09674
-4.11162
-4.12806
-4.14516
-4.16312
-4.18309
-4.20431
-4.22312
-4.2512
-3.94696
-3.95026
-3.93842
-3.94353
-3.94595
-3.9516
-3.95825
-3.96636
-3.97609
-3.98653
-3.99815
-4.0116
-4.02594
-4.04147
-4.0614
-4.08596
-4.10494
-3.7757
-3.78882
-3.78162
-3.78805
-3.79152
-3.79814
-3.80583
-3.81524
-3.82633
-3.83898
-3.85358
-3.86964
-3.88623
-3.90499
-3.92889
-3.94686
-3.95082
-3.54887
-3.58516
-3.58442
-3.60406
-3.61156
-3.6246
-3.63748
-3.65101
-3.66604
-3.68257
-3.70045
-3.7198
-3.74078
-3.76382
-3.79139
-3.81874
-3.84091
-3.25785
-3.33269
-3.3456
-3.38913
-3.41415
-3.44005
-3.46408
-3.48623
-3.5079
-3.52921
-3.55026
-3.57288
-3.59709
-3.61933
-3.64585
-3.68314
-3.70173
-2.81286
-2.94274
-2.99508
-3.07651
-3.14079
-3.1994
-3.25072
-3.29424
-3.33171
-3.36442
-3.39433
-3.42418
-3.45334
-3.48028
-3.51577
-3.55842
-3.56561
-2.23565
-2.39985
-2.49106
-2.60854
-2.71362
-2.81396
-2.90803
-2.99342
-3.06945
-3.13595
-3.19314
-3.2425
-3.28586
-3.32516
-3.36917
-3.4175
-3.4468
-1.64101
-1.81205
-1.9245
-2.06488
-2.19982
-2.33305
-2.46324
-2.58702
-2.70292
-2.8102
-2.90754
-2.99446
-3.07204
-3.13616
-3.19449
-3.26062
-3.2928
-1.10103
-1.26573
-1.38544
-1.53271
-1.68267
-1.83564
-1.9903
-2.14281
-2.29067
-2.4316
-2.56334
-2.68657
-2.80066
-2.89897
-2.99149
-3.09062
-3.12971
-0.646036
-0.796737
-0.91334
-1.05677
-1.20917
-1.36894
-1.53537
-1.7049
-1.87444
-2.04088
-2.2017
-2.3552
-2.49798
-2.6278
-2.75384
-2.87904
-2.95884
-0.275629
-0.408524
-0.517186
-0.651379
-0.797768
-0.954838
-1.12273
-1.29864
-1.47951
-1.66239
-1.84398
-2.02083
-2.19153
-2.3507
-2.49695
-2.6512
-2.75577
0.0198093
-0.0952849
-0.193444
-0.314924
-0.450713
-0.599053
-0.761188
-0.935353
-1.11913
-1.30988
-1.50388
-1.69821
-1.89043
-2.06962
-2.24333
-2.4356
-2.55254
0.252787
0.153701
0.0671895
-0.0402339
-0.163361
-0.299551
-0.451263
-0.617921
-0.798038
-0.989536
-1.1894
-1.39491
-1.6008
-1.79868
-1.99698
-2.19932
-2.35165
0.435159
0.350189
0.274929
0.181453
0.0721856
-0.0505496
-0.189346
-0.344827
-0.516523
-0.70335
-0.903322
-1.11353
-1.32915
-1.54402
-1.75433
-1.97063
-2.14052
0.577269
0.504468
0.439709
0.359376
0.263856
0.15485
0.0299482
-0.11233
-0.272522
-0.450696
-0.645876
-0.855775
-1.07647
-1.30043
-1.52494
-1.76526
-1.92868
0.687859
0.625423
0.570022
0.501489
0.419113
0.323475
0.212354
0.0839237
-0.0631424
-0.229956
-0.416628
-0.621927
-0.84216
-1.0717
-1.30826
-1.54994
-1.74732
0.774043
0.720499
0.672907
0.614512
0.543804
0.460477
0.362269
0.247309
0.113707
-0.0404373
-0.216294
-0.413795
-0.630677
-0.864338
-1.10603
-1.35492
-1.58643
0.843421
0.796361
0.753997
0.70367
0.642716
0.570117
0.483649
0.38121
0.260495
0.119118
-0.0449608
-0.232929
-0.444534
-0.67765
-0.923495
-1.18838
-1.40122
0.902418
0.860663
0.822327
0.777452
0.723028
0.658375
0.581526
0.49003
0.38115
0.252066
0.0999926
-0.0773653
-0.281168
-0.510647
-0.759609
-1.0243
-1.27219
0.951029
0.915445
0.882033
0.842579
0.7936
0.73441
0.663474
0.578941
0.478391
0.358704
0.216239
0.0474572
-0.149542
-0.375631
-0.623447
-0.886323
-1.16981
0.988181
0.95972
0.932015
0.89847
0.855513
0.802137
0.736661
0.657424
0.562681
0.45002
0.316108
0.156961
-0.0306625
-0.249868
-0.493898
-0.765612
-0.995555
1.016
0.995724
0.975594
0.950247
0.916576
0.873233
0.818318
0.749969
0.666444
0.56567
0.444751
0.299604
0.125618
-0.0826311
-0.324624
-0.608544
-0.874596
1.0364
1.02095
1.00849
0.991955
0.967093
0.93229
0.885742
0.825487
0.749485
0.655752
0.542083
0.405284
0.240966
0.0436745
-0.190778
-0.470372
-0.796963
-8.95965
-9.21547
-8.74328
-6.92661
-3.76546
-1.62316
-0.967628
-1.38631
-1.89266
-2.33562
-2.48645
-2.29614
-2.25983
-2.34165
-2.61823
-3.13856
-3.82152
-4.69751
-5.46795
-5.92492
-10.111
-10.7966
-10.8498
-9.3691
-5.71821
-3.09566
-2.06709
-2.33601
-2.82526
-3.30709
-3.55315
-3.38964
-3.32407
-3.45498
-3.7908
-4.36656
-4.98515
-5.83597
-6.66383
-7.01697
-11.3419
-12.5645
-13.1732
-12.0598
-8.17427
-5.04538
-3.51729
-3.50327
-3.94856
-4.41396
-4.75807
-4.75532
-4.66536
-4.83732
-5.24522
-5.93181
-6.61301
-7.4119
-8.19157
-8.35219
-12.6146
-14.4091
-15.5689
-15.0808
-11.2682
-7.42365
-5.36757
-4.89454
-5.22107
-5.65927
-6.10949
-6.31789
-6.3145
-6.5258
-6.98342
-7.66563
-8.48072
-9.41357
-10.1478
-10.0136
-13.8776
-16.1969
-18.037
-18.2883
-14.6147
-10.2442
-7.63644
-6.51784
-6.64598
-7.03044
-7.51958
-7.96676
-8.18509
-8.49027
-9.0432
-9.82085
-10.7001
-11.5524
-12.1782
-11.9181
-15.0538
-17.7522
-20.3262
-21.1038
-18.035
-13.488
-10.272
-8.45166
-8.1329
-8.45306
-8.93561
-9.52007
-10.0387
-10.5055
-11.1304
-11.992
-12.8952
-13.7611
-14.2309
-13.8971
-16.0142
-18.9817
-21.9617
-23.2167
-21.1462
-16.8308
-13.2113
-10.7631
-9.6807
-9.82615
-10.2557
-10.8394
-11.5282
-12.2003
-12.9306
-13.8377
-14.7457
-15.5321
-15.8724
-15.5501
-16.6764
-19.7405
-22.7424
-24.4538
-23.5225
-19.8453
-16.1565
-13.3987
-11.5754
-11.1048
-11.3636
-11.8781
-12.5275
-13.3279
-14.214
-15.1409
-16.0151
-16.6435
-16.7619
-16.3572
-17.0521
-20.0942
-23.0143
-24.877
-24.9774
-22.3748
-18.9618
-15.9861
-13.8595
-12.5837
-12.4034
-12.7033
-13.2248
-13.9749
-14.8649
-15.782
-16.5709
-17.0023
-16.9378
-16.4244
-17.1859
-20.1575
-22.8938
-24.897
-25.513
-24.1706
-21.3754
-18.4907
-16.1596
-14.5057
-13.5883
-13.4828
-13.7314
-14.2618
-14.9953
-15.7423
-16.3548
-16.5897
-16.3742
-15.6279
-17.1103
-19.6684
-22.2325
-24.2803
-25.3822
-24.9175
-23.1437
-20.647
-18.3134
-16.4638
-15.1083
-14.333
-14.1424
-14.2826
-14.638
-15.0954
-15.4381
-15.5369
-15.1895
-14.3373
-16.8889
-18.9761
-21.2902
-23.3717
-24.748
-24.686
-23.8007
-22.0444
-19.9805
-18.0903
-16.5343
-15.3513
-14.593
-14.2131
-14.096
-14.0908
-14.1154
-13.9805
-13.5185
-12.6699
-16.5568
-18.1974
-20.2426
-22.2222
-23.7091
-24.0426
-23.5344
-22.3957
-20.8223
-19.1256
-17.5213
-16.0817
-14.8886
-14.013
-13.4181
-12.9826
-12.596
-12.1629
-11.5897
-10.8092
-15.9976
-17.3366
-19.1245
-20.9129
-22.392
-23
-22.7644
-22.0015
-20.7899
-19.347
-17.8231
-16.2892
-14.8651
-13.6653
-12.6575
-11.806
-11.0768
-10.4125
-9.7532
-9.03234
-15.2572
-16.4014
-17.9454
-19.4652
-20.8444
-21.6117
-21.5467
-21.0471
-20.1839
-18.9737
-17.5671
-16.0577
-14.5546
-13.1618
-11.8936
-10.7635
-9.7988
-8.97142
-8.24754
-7.55994
-14.4766
-15.4772
-16.75
-17.9591
-19.1193
-19.9056
-19.9832
-19.6603
-18.9917
-18.0003
-16.7523
-15.3502
-13.8945
-12.482
-11.155
-9.94061
-8.88078
-7.97556
-7.20883
-6.51503
-13.7478
-14.6223
-15.6043
-16.5059
-17.3605
-18.0252
-18.1208
-17.8768
-17.3526
-16.5745
-15.5046
-14.2794
-12.9922
-11.7182
-10.5049
-9.38218
-8.36358
-7.464
-6.6828
-5.95936
-13.3038
-13.9519
-14.6335
-15.2334
-15.7724
-16.1993
-16.1809
-15.9408
-15.5019
-14.8911
-14.066
-13.0945
-12.0595
-11.0156
-10.0009
-9.03783
-8.13941
-7.31421
-6.55415
-5.82109
-13.2492
-13.5699
-13.9268
-14.2426
-14.5031
-14.62
-14.5053
-14.2377
-13.8517
-13.3333
-12.7002
-11.9759
-11.205
-10.4159
-9.62496
-8.82904
-8.03688
-7.25673
-6.50539
-5.83102
-13.386
-13.1494
-13.0598
-13.0599
-13.0566
-12.9872
-12.8407
-12.6069
-12.2925
-11.9198
-11.5076
-11.0633
-10.5859
-10.0915
-9.59188
-9.09229
-8.56988
-8.00294
-7.35517
-6.52848
-5.46171
-5.39117
-5.16428
-5.18653
-5.65404
-6.56547
-7.82356
-9.3358
-10.9794
-12.4981
-13.673
-14.3621
-14.2581
-13.5566
-12.2646
-10.8602
-9.47098
-8.10533
-6.99073
-6.06864
-5.00497
-5.02004
-4.60786
-4.37301
-4.54057
-5.24316
-6.31159
-7.62176
-9.03864
-10.4408
-11.4483
-11.9588
-11.7631
-11.1676
-10.2607
-9.21436
-8.16408
-7.22292
-6.42607
-5.69824
-4.96039
-4.96984
-4.36754
-3.87943
-3.72655
-4.17649
-5.04409
-6.08659
-7.18154
-8.23567
-8.86297
-9.0492
-8.92788
-8.5278
-7.9958
-7.37417
-6.75615
-6.16962
-5.63436
-5.10837
-5.2441
-5.37306
-4.51321
-3.75639
-3.41127
-3.57745
-4.12354
-4.85197
-5.58256
-6.18432
-6.73507
-6.77857
-6.70936
-6.60656
-6.38036
-6.0265
-5.64178
-5.25339
-4.88265
-4.50475
-5.71931
-5.89674
-4.985
-4.02207
-3.58844
-3.62769
-3.93553
-4.30727
-4.73874
-5.01897
-5.19551
-5.45388
-5.45529
-5.37066
-5.20787
-4.98575
-4.73584
-4.47301
-4.21535
-3.94721
-6.24635
-6.30744
-5.33372
-4.4648
-4.03844
-3.96539
-4.0285
-4.16899
-4.36384
-4.5555
-4.59743
-4.60998
-4.58115
-4.49948
-4.37205
-4.21334
-4.03602
-3.84685
-3.65968
-3.46392
-6.67976
-6.72698
-5.67703
-4.9389
-4.52812
-4.31969
-4.20253
-4.15302
-4.13653
-4.11919
-4.08093
-4.02738
-3.95447
-3.85753
-3.74029
-3.60817
-3.46665
-3.31989
-3.17798
-3.0309
-7.01567
-7.31421
-6.18687
-5.3433
-4.85123
-4.51349
-4.2494
-4.05821
-3.91896
-3.80155
-3.68805
-3.57335
-3.45739
-3.33835
-3.21592
-3.09184
-2.96727
-2.84524
-2.73027
-2.61361
-7.31974
-7.79799
-6.66527