/*--------------------------------*- C++ -*----------------------------------*\
  =========                 |
  \\      /  F ield         | OpenFOAM: The Open Source CFD Toolbox
   \\    /   O peration     | Website:  https://openfoam.org
    \\  /    A nd           | Version:  6
     \\/     M anipulation  |
\*---------------------------------------------------------------------------*/
FoamFile
{
    version     2.0;
    format      ascii;
    class       surfaceScalarField;
    location    "2.68";
    object      meshPhi;
}
// * * * * * * * * * * * * * * * * * * * * * * * * * * * * * * * * * * * * * //

dimensions      [0 3 -1 0 0 0 0];

internalField   nonuniform List<scalar> 
8193
(
0.00258214
-0.00210374
-0.000900295
0.00422947
-0.00394394
0.00577081
-0.00555713
0.00713914
-0.0069186
0.00827693
-0.008015
0.00914012
-0.00884308
0.00970065
-0.00940819
0.00994749
-0.00972241
0.0098864
-0.00980277
0.00953846
-0.0096695
0.00893773
-0.0093446
0.00812833
-0.00885052
0.00716117
-0.00820932
0.00609067
-0.00744199
0.00497169
-0.0065681
0.00385673
-0.00560567
0.00279355
-0.00457119
0.00182335
-0.00347976
0.000979282
-0.0023454
0.00028554
-0.00118126
-0.000243221
-4.85279e-21
-0.000602043
0.00118589
-0.000795479
0.00236378
-0.000837055
0.00352051
-0.000748371
0.00464213
-0.00055784
0.00571352
-0.00029903
0.00671814
-8.62407e-06
0.00763783
0.000275999
0.00845263
0.000519483
0.00914078
0.00069142
0.00967897
0.000769297
0.0100427
0.00074126
0.010207
0.000608417
0.0101473
0.000386386
0.00984115
0.000105815
0.00926927
-0.000188394
0.00841775
-0.000439312
0.00727982
-0.000581727
0.00585775
-0.000547294
0.00416456
0.00222526
-0.000270833
0.0100763
-0.00660528
-0.00487285
0.0150061
-0.0100785
0.0194709
-0.0129977
0.0233022
-0.0153302
0.0263652
-0.0170711
0.0285661
-0.0182396
0.0298563
-0.0188733
0.0302329
-0.0190228
0.0297361
-0.0187465
0.028444
-0.0181055
0.0264657
-0.0171599
0.0239333
-0.0159657
0.0209932
-0.0145729
0.0177979
-0.0130243
0.0144983
-0.0113551
0.0112367
-0.00959355
0.00814135
-0.00776138
0.00532207
-0.00587504
0.00286684
-0.0039468
0.000839778
-0.00198593
-0.000720082
-1.044e-14
-0.00179904
0.00200402
-0.0024082
0.00401853
-0.00258212
0.0060342
-0.00237663
0.00803876
-0.00186582
0.0100158
-0.00113806
0.0119437
-0.000291137
0.0137944
0.000573642
0.0155325
0.00135809
0.0171145
0.0019744
0.0184889
0.00235268
0.0195965
0.00244816
0.0203719
0.00224757
0.0207455
0.00177399
0.0206469
0.00108934
0.0200093
0.000294149
0.0187748
-0.000476258
0.0168997
-0.00105903
0.0143605
-0.00127472
0.0111598
0.00733055
-0.000941306
0.0220658
-0.0134301
-0.0134982
0.0298976
-0.0181117
0.0367357
-0.0218613
0.0423687
-0.0246604
0.0466434
-0.0265358
0.0494705
-0.0275503
0.0508269
-0.0277933
0.0507534
-0.0273706
0.0493485
-0.026395
0.04676
-0.0249784
0.0431739
-0.0232247
0.0388029
-0.0212261
0.0338747
-0.0190591
0.0286201
-0.0167844
0.0232634
-0.0144466
0.0180134
-0.0120754
0.0130562
-0.00968796
0.00854997
-0.00729068
0.00462083
-0.00488212
0.00136047
-0.00245529
-0.00117508
9.70559e-21
-0.00296563
0.00249488
-0.00402592
0.00503922
-0.00440381
0.00763949
-0.00417745
0.0102965
-0.0034514
0.0130032
-0.00235158
0.0157421
-0.00101896
0.0184831
0.000397962
0.0211813
0.00175188
0.0237751
0.00290629
0.0261857
0.00374563
0.0283166
0.00418534
0.030056
0.00418114
0.0312795
0.00373664
0.0318558
0.00290845
0.0316535
0.00180784
0.0305505
0.000598432
0.0284436
-0.000510687
0.0252594
-0.00127644
0.0209649
0.0155765
-0.00143753
0.03858
-0.0221482
-0.027179
0.0486337
-0.0274653
0.0570753
-0.0314772
0.0637083
-0.0342007
0.0684116
-0.0357106
0.0711429
-0.0361272
0.0719368
-0.0356013
0.0708992
-0.0343004
0.068198
-0.032395
0.064052
-0.030048
0.0587173
-0.0274056
0.0524739
-0.0245916
0.0456123
-0.0217041
0.0384208
-0.0188149
0.0311747
-0.0159703
0.0241271
-0.0131937
0.0175015
-0.0104891
0.0114863
-0.00784465
0.00623129
-0.0052368
0.00184495
-0.00263394
-0.00160608
-9.0821e-15
-0.00409704
0.00270224
-0.00564392
0.00550798
-0.00630132
0.00844718
-0.00615946
0.0115413
-0.00533998
0.0148
-0.00399069
0.018217
-0.00227891
0.0217669
-0.00038353
0.0254014
0.00151431
0.0290463
0.00324156
0.0325995
0.00464439
0.0359305
0.00559951
0.038882
0.00602489
0.0412742
0.00588919
0.0429111
0.00521881
0.043591
0.00410189
0.0431181
0.00268828
0.0413169
0.00118518
0.0380483
-0.000152048
0.0332242
0.0268218
-0.00103354
0.0592228
-0.0320199
-0.0458434
0.0705888
-0.0373417
0.0797239
-0.0410413
0.0864919
-0.0431832
0.0908409
-0.043899
0.0928021
-0.0433701
0.0924847
-0.0418095
0.0900672
-0.0394436
0.0857863
-0.036496
0.0799239
-0.0331745
0.072793
-0.0296599
0.0647236
-0.0261004
0.0560488
-0.0226077
0.0470935
-0.019257
0.038163
-0.0160893
0.0295346
-0.0131148
0.0214513
-0.0103182
0.0141163
-0.00766387
0.00769072
-0.00510087
0.00229097
-0.00256836
-0.00201105
-8.44558e-15
-0.00518777
0.0026717
-0.00725454
0.00551128
-0.00826738
0.00857634
-0.00832005
0.0119132
-0.00754002
0.0155525
-0.00608346
0.0195043
-0.00412895
0.0237528
-0.00186998
0.0282519
0.000493948
0.0329204
0.00276722
0.0376391
0.00476898
0.0422495
0.00634427
0.0465549
0.00737498
0.050325
0.00778979
0.0533039
0.00757228
0.0552215
0.00676643
0.055809
0.0054789
0.0548164
0.00387736
0.052032
0.0021848
0.0473026
0.0405513
0.000669632
0.0831663
-0.0420906
-0.0688885
0.0948083
-0.0468233
0.103683
-0.0497086
0.109742
-0.0508627
0.113023
-0.0504731
0.11364
-0.048778
0.11178
-0.0460452
0.107689
-0.0425512
0.101663
-0.0385627
0.0940326
-0.0343219
0.0851499
-0.0300345
0.0753756
-0.0258635
0.0650663
-0.0219258
0.0545629
-0.0182931
0.0441822
-0.0149946
0.0342088
-0.0120226
0.0248898
-0.00933867
0.0164308
-0.00687999
0.00899403
-0.00456625
0.00269681
-0.00230556
-0.00238809
-7.84102e-15
-0.00623173
0.00244928
-0.00884741
0.00513724
-0.0102885
0.00815025
-0.0106456
0.011561
-0.010043
0.015423
-0.00863414
0.0197651
-0.006596
0.0245846
-0.00412275
0.0298417
-0.00141777
0.0354538
0.00131503
0.0412909
0.00388091
0.0471738
0.0061043
0.0528748
0.00783889
0.0581221
0.00897697
0.0626088
0.00945748
0.0660055
0.00927218
0.0679779
0.00846918
0.0682072
0.00715358
0.0664126
0.00548486
0.0623747
0.0559571
0.00367104
0.109196
-0.0513208
-0.0951916
0.120071
-0.0549888
0.127787
-0.0566925
0.132397
-0.0565955
0.134026
-0.0549332
0.132869
-0.0519903
0.129179
-0.0480772
0.123259
-0.0435079
0.115445
-0.0385796
0.1061
-0.0335567
0.0955955
-0.0286594
0.0843044
-0.0240561
0.0725876
-0.0198615
0.0607853
-0.0161373
0.0492097
-0.012897
0.0381386
-0.0101117
0.0278113
-0.00771794
0.0184261
-0.00562535
0.0101385
-0.00372405
0.00306117
-0.00189176
-0.00273547
9.70559e-21
-0.00722233
0.0020802
-0.0104098
0.00447301
-0.0123456
0.00729244
-0.0131123
0.0106368
-0.0128242
0.0145826
-0.0116233
0.0191776
-0.0096751
0.0244343
-0.00716273
0.0303218
-0.00428094
0.0367602
-0.00122869
0.0436145
0.00179873
0.0506922
0.00461803
0.0577434
0.00706636
0.0644654
0.00900923
0.0705118
0.0103477
0.0755061
0.011024
0.0790611
0.0110258
0.0808004
0.0103876
0.0803842
0.00919063
0.0775341
0.0720578
0.00756037
0.135806
-0.0587283
-0.123191
0.144983
-0.0610292
0.150795
-0.0613544
0.153385
-0.0599052
0.152955
-0.0569528
0.149766
-0.0528145
0.14412
-0.0478297
0.136355
-0.0423356
0.126831
-0.0366471
0.115922
-0.0310396
0.104001
-0.0257373
0.0914366
-0.0209066
0.0785771
-0.0166534
0.0657483
-0.0130256
0.0532451
-0.0100181
0.041328
-0.00757988
0.0302198
-0.00562262
0.0201037
-0.00402922
0.0111235
-0.00266218
0.00338323
-0.00137122
-0.00305162
-4.85279e-21
-0.00815267
0.00160771
-0.0119269
0.0036024
-0.0144146
0.0061231
-0.0156869
0.00929141
-0.0158435
0.0132049
-0.0150091
0.0179298
-0.0133299
0.023493
-0.0109695
0.0298745
-0.008104
0.0369996
-0.00491616
0.0447328
-0.00158974
0.0528747
0.00169702
0.0611616
0.00477779
0.0692699
0.00750424
0.0768257
0.00975164
0.0834188
0.0114235
0.088623
0.0124551
0.0920193
0.0128156
0.0932221
0.0125091
0.0919068
0.0878349
0.0115737
0.16133
-0.0635221
-0.151028
0.168095
-0.0643487
0.171481
-0.063276
0.171699
-0.0605306
0.169012
-0.056406
0.163718
-0.0512388
0.156151
-0.045383
0.146661
-0.0391868
0.135614
-0.0329707
0.123375
-0.0270115
0.110305
-0.0215295
0.0967512
-0.0166826
0.0830393
-0.0125641
0.0694688
-0.00920562
0.0563089
-0.00658257
0.043795
-0.00462236
0.0321273
-0.00321336
0.0214698
-0.00221433
0.0119506
-0.00146321
0.00366258
-0.000785221
-0.00333518
-5.90407e-15
-0.00901573
0.00107205
-0.0133825
0.00260385
-0.0164673
0.00475573
-0.0183283
0.00766921
-0.0190476
0.0114601
-0.0187288
0.0162106
-0.0174944
0.0219614
-0.0154825
0.0287028
-0.012843
0.0363666
-0.00973446
0.0448201
-0.00631915
0.0538617
-0.00275914
0.0632207
0.000788182
0.0725617
0.00417421
0.0814938
0.00726285
0.0895859
0.00993376
0.0963866
0.0120848
0.101449
0.0136342
0.104356
0.0145211
0.104752
0.102364
0.014707
0.184095
-0.0652061
-0.176728
0.188025
-0.0646351
0.188733
-0.0623019
0.186474
-0.0584471
0.181542
-0.0533744
0.174255
-0.0474269
0.164951
-0.0409622
0.153977
-0.0343285
0.141684
-0.0278432
0.128416
-0.0217764
0.114509
-0.0163391
0.100278
-0.0116766
0.0860161
-0.00786755
0.0719911
-0.00492629
0.0584402
-0.00280965
0.0455698
-0.00142514
0.033554
-0.0006406
0.0225349
-0.000293975
0.0126231
-0.000202533
0.00389924
-0.00017122
-0.00358498
2.88225e-15
-0.00980452
0.00050963
-0.0147594
0.00154861
-0.0184728
0.00329434
-0.0209891
0.00590428
-0.0223719
0.00950886
-0.0227022
0.0142035
-0.0220762
0.0200402
-0.0206033
0.0270184
-0.0184036
0.0350768
-0.0156054
0.0440868
-0.0123429
0.0538479
-0.00875342
0.0640875
-0.00497529
0.074465
-0.00114535
0.0845818
0.00260291
0.0939961
0.006141
0.102243
0.00934685
0.108861
0.012106
0.113417
0.0143126
0.115535
0.114923
0.0158709
0.202586
-0.0636398
-0.198412
0.203583
-0.061892
0.201644
-0.0585517
0.197045
-0.0538637
0.190084
-0.0481325
0.181077
-0.0416984
0.170348
-0.0349138
0.158226
-0.0281189
0.145034
-0.0216216
0.131085
-0.0156803
0.116678
-0.0104931
0.102092
-0.00619081
0.0875838
-0.0028365
0.0733835
-0.000428288
0.059695
0.00109401
0.0466935
0.00184006
0.0345263
0.00195922
0.0233129
0.00163049
0.0131461
0.00105307
0.00409361
0.000437849
-0.00380012
2.27711e-15
-0.0105124
-4.7641e-05
-0.01604
0.000499384
-0.020398
0.00183113
-0.0236172
0.00411683
-0.0257432
0.00749771
-0.0268342
0.012079
-0.0269603
0.0179212
-0.0262011
0.0250311
-0.0246453
0.0333533
-0.0223888
0.0427635
-0.0195339
0.0530642
-0.0161881
0.0639839
-0.0124634
0.0751821
-0.00847592
0.0862588
-0.00434519
0.0967694
-0.000194047
0.106246
0.00385168
0.114222
0.00766366
0.120258
0.0111119
0.123971
0.12506
0.014066
0.21559
-0.0590453
-0.214492
0.213873
-0.0564286
0.209585
-0.0523972
0.202995
-0.0471936
0.19439
-0.041116
0.184066
-0.0344958
0.172323
-0.0276738
0.159456
-0.0209777
0.145754
-0.0147013
0.131494
-0.00908898
0.116933
-0.00432376
0.102312
-0.000521787
0.0878478
0.00226886
0.0737347
0.00406482
0.0601424
0.00494072
0.0472158
0.00502034
0.0350761
0.00446662
0.0238208
0.00347153
0.0135257
0.00224653
0.00424645
0.00101405
-0.00397994
2.45819e-15
-0.011133
-0.000572818
-0.017207
-0.000490756
-0.0222091
0.000444682
-0.0261581
0.00241043
-0.0290825
0.00555471
-0.0310195
0.00998905
-0.0320139
0.0157795
-0.0321175
0.0229378
-0.031388
0.0314129
-0.0298891
0.0410843
-0.0276905
0.0517576
-0.0248678
0.0631646
-0.0215035
0.0749678
-0.0176871
0.08677
-0.0135169
0.0981299
-0.00909993
0.108582
-0.00455318
0.117664
-3.46088e-06
0.124937
0.0044131
0.13002
0.132612
0.00855253
0.222317
-0.0519639
-0.223842
0.218375
-0.048811
0.212247
-0.0444125
0.204182
-0.0390044
0.194442
-0.0328745
0.183294
-0.0263411
0.171003
-0.0197301
0.15783
-0.0133534
0.144024
-0.00748911
0.129823
-0.00236565
0.115444
0.00184889
0.101089
0.00505275
0.0869376
0.00721136
0.0731494
0.00835397
0.0598623
0.008567
0.0471933
0.00798511
0.0352392
0.00678129
0.0240779
0.0051567
0.0137697
0.00333119
0.00435886
0.00153474
-0.00412407
2.70218e-15
-0.0116608
-0.00104421
-0.0182435
-0.00137897
-0.0238728
-0.000801186
-0.0285564
0.000870069
-0.032308
0.00378646
-0.035146
0.00806247
-0.0370927
0.0137668
-0.0381743
0.0209136
-0.0384204
0.0294543
-0.0378649
0.0392708
-0.0365463
0.0501718
-0.0345094
0.061893
-0.0318065
0.0741011
-0.0284993
0.0864046
-0.0246609
0.0983689
-0.0203771
0.109536
-0.0157481
0.11945
-0.0108889
0.127682
-0.00592881
0.133857
0.137677
-0.00101027
0.222468
-0.0431692
-0.225916
0.216983
-0.0397815
0.209668
-0.0353008
0.200745
-0.0299539
0.190447
-0.0240157
0.179006
-0.0177888
0.166654
-0.0115824
0.153614
-0.0056912
0.140099
-0.0003763
0.126307
0.00414966
0.112419
0.0077333
0.0986016
0.0102861
0.0850005
0.0117853
0.0717439
0.0122706
0.0589419
0.0118375
0.0466869
0.0106285
0.0350545
0.00882346
0.0241054
0.00662942
0.0138864
0.00427113
0.00443221
0.00198267
-0.00423244
2.12466e-15
-0.0120912
-0.00144548
-0.0191344
-0.00213295
-0.0253572
-0.00185803
-0.0307583
-0.00043905
-0.0353384
0.00227595
-0.0391
0.00640149
-0.0420462
0.0120062
-0.0441812
0.0191041
-0.0455101
0.0276472
-0.0460406
0.0375185
-0.0457838
0.048529
-0.0447563
0.0604177
-0.0429828
0.0728567
-0.0404982
0.0854611
-0.0373502
0.0978049
-0.033602
0.10944
-0.0293336
0.119922
-0.024643
0.128831
-0.019646
0.135803
0.140548
-0.0144744
0.21626
-0.0335521
-0.220795
0.210006
-0.0301602
0.202216
-0.0258109
0.193084
-0.0207197
0.182812
-0.0151467
0.171604
-0.00937758
0.159657
-0.00370359
0.147161
0.00159862
0.134295
0.00628494
0.121223
0.0101584
0.108096
0.0130797
0.0950476
0.0149721
0.0821956
0.0158231
0.069642
0.0156808
0.057473
0.0146473
0.0457604
0.0128706
0.0345625
0.0105345
0.0239254
0.00784905
0.013885
0.00504109
0.00446815
0.00234593
-0.00430524
9.70559e-21
-0.0124205
-0.00176555
-0.0198663
-0.00273079
-0.0266334
-0.0026928
-0.0327129
-0.00147187
-0.0380954
0.00108164
-0.04277
0.00507973
-0.0467242
0.0105885
-0.0499439
0.0176201
-0.0524142
0.0261249
-0.0541207
0.0359855
-0.0550514
0.0470142
-0.0551993
0.0589529
-0.0545648
0.0714787
-0.0531592
0.0842142
-0.0510076
0.0967426
-0.0481515
0.108627
-0.0446509
0.119435
-0.0405858
0.12876
-0.0360557
0.136248
0.141619
-0.0311785
0.204388
-0.0239956
-0.209162
0.19813
-0.0207416
0.190551
-0.0166522
0.18182
-0.01193
0.172116
-0.00681886
0.161612
-0.00158643
0.150481
0.00349476
0.138883
0.00816633
0.126969
0.0122013
0.114877
0.0154179
0.102729
0.01769
0.090634
0.0189519
0.0786875
0.0191996
0.0669697
0.0184878
0.0555481
0.0169235
0.044478
0.0146579
0.0338039
0.0118766
0.0235606
0.00879049
0.0137752
0.0056261
0.00446857
0.00261772
-0.00434302
1.83544e-15
-0.012646
-0.00199838
-0.0204279
-0.00316058
-0.0276757
-0.00328734
-0.0343746
-0.00220306
-0.0405069
0.000237456
-0.0460514
0.00414162
-0.0509829
0.00957117
-0.0552729
0.0165342
-0.0588905
0.0249781
-0.0618037
0.0347838
-0.063982
0.0457635
-0.0653989
0.0576614
-0.0660351
0.0701592
-0.065882
0.0828866
-0.0649453
0.0954361
-0.0632474
0.107383
-0.0608303
0.118306
-0.0577567
0.127813
-0.05411
0.135562
0.141283
-0.0499927
0.18794
-0.192209
0.182342
0.175559
0.167745
0.159054
0.149642
0.139655
0.129233
0.118505
0.107585
0.0965772
0.0855699
0.0746401
0.0638519
0.0532586
0.042903
0.0328192
0.0230335
0.0135669
0.00443553
-0.00434662
-0.0127666
-0.0208108
-0.0284632
-0.0357042
-0.0425096
-0.0488499
-0.0546904
-0.0599913
-0.064709
-0.0687979
-0.0722127
-0.0749114
-0.0768588
-0.0780299
-0.0784136
-0.078016
-0.0768623
-0.0749987
-0.0724921
-0.0694288
-0.151156
-0.0633142
-0.150469
-0.0465213
-0.145309
-0.0301811
-0.13629
-0.0154798
-0.124296
-0.00334194
-0.110354
0.00565223
-0.0954901
0.0113053
-0.0806086
0.0137947
-0.0664021
0.0136194
-0.0533108
0.0115095
-0.0415343
0.00831061
-0.0310937
0.0048586
-0.0219289
0.00186003
-0.0140126
-0.00020539
-0.0074579
-0.00114855
-0.00259485
-0.00109281
-0.000451207
-0.152374
-0.0572226
-0.151878
-0.0428737
-0.147303
-0.0288264
-0.13916
-0.0160197
-0.128183
-0.00520486
-0.115235
0.00311599
-0.101199
0.0087225
-0.0868769
0.0116776
-0.0729189
0.0122982
-0.0597766
0.011099
-0.0477009
0.00871619
-0.0367761
0.0058207
-0.0269853
0.00302988
-0.0182948
0.000829035
-0.0107431
-0.000488945
-0.00451699
-0.000858755
-0.000448725
-0.151295
-0.0511802
-0.151078
-0.0390563
-0.14717
-0.0271069
-0.139984
-0.0160699
-0.130119
-0.0065509
-0.118288
0.00102176
-0.105236
0.00642408
-0.0916632
0.0096429
-0.0781626
0.0108616
-0.0651768
0.0104271
-0.0529866
0.00880165
-0.0417252
0.00650435
-0.0314186
0.00404914
-0.0220448
0.00188487
-0.0136028
0.000344128
-0.00617875
-0.000394093
-0.000324166
-0.148006
-0.045225
-0.14812
-0.0350972
-0.144922
-0.0250434
-0.138733
-0.0156384
-0.130032
-0.00736644
-0.119398
-0.000587411
-0.107449
0.00448442
-0.0947831
0.00778902
-0.0819274
0.00941542
-0.0692998
0.00958373
-0.0571918
0.00861605
-0.0457702
0.00689899
-0.0350987
0.00484156
-0.025177
0.00283196
-0.0159897
0.00119751
-0.00756014
0.000171204
-0.000132023
-0.142686
-0.0394062
-0.14315
-0.0310442
-0.140665
-0.0226816
-0.135474
-0.0147625
-0.127949
-0.00767003
-0.11855
-0.00170225
-0.107781
0.00294487
-0.096141
0.00618609
-0.0840878
0.00804682
-0.0720027
0.00865451
-0.060172
0.00822218
-0.0487812
0.00702561
-0.0379238
0.00537606
-0.0276237
0.0035907
-0.0178686
0.00196323
-0.0086491
0.000737027
8.28852e-05
-0.135585
-0.0337809
-0.13639
-0.0269598
-0.13459
-0.0200873
-0.130362
-0.0135033
-0.123987
-0.00750794
-0.115822
-0.00234405
-0.106267
0.00181535
-0.0957323
0.00487519
-0.0846037
0.00682068
-0.0732191
0.00771423
-0.0618473
0.00768696
-0.0506794
0.00692572
-0.0398286
0.00565632
-0.0293421
0.00412444
-0.0192198
0.00257535
-0.00944209
0.00123402
0.000287041
-0.127012
-0.0284108
-0.128122
-0.0229163
-0.126953
-0.0173403
-0.123624
-0.0119402
-0.11834
-0.00694831
-0.111372
-0.00255954
-0.103028
0.00107799
-0.0936371
0.00386975
-0.0835175
0.00577807
-0.072959
0.00682197
-0.0622049
0.00707354
-0.0514405
0.00665116
-0.0407897
0.00570995
-0.0303176
0.00443006
-0.0200409
0.00300368
-0.00994407
0.00162128
0.000458298
-0.117304
-0.0233571
-0.118668
-0.0189899
-0.118055
-0.0145277
-0.115539
-0.0101633
-0.111263
-0.00607437
-0.105423
-0.00241476
-0.0982532
0.000692145
-0.090008
0.00315882
-0.0809438
0.00493697
-0.071302
0.0060187
-0.0612946
0.00643558
-0.0510937
0.0062556
-0.0408248
0.00557824
-0.030565
0.00452785
-0.0203473
0.00324583
-0.010168
0.00188183
0.000584755
-0.106807
-0.0186772
-0.108363
-0.0152553
-0.10822
-0.0117379
-0.106416
-0.00826736
-0.103045
-0.00497771
-0.098243
-0.00198843
-0.0921813
0.000600276
-0.0850518
0.00271152
-0.0770544
0.00429464
-0.0683841
0.00532686
-0.05922
0.00581367
-0.049715
0.00578787
-0.0399892
0.00530739
-0.0301256
0.00445194
-0.0201701
0.00331863
-0.0101339
0.00201692
0.000662872
-0.0958575
-0.0144211
-0.097537
-0.0117818
-0.0977704
-0.00905529
-0.0965699
-0.00634552
-0.0939897
-0.00375191
-0.0901201
-0.0013656
-0.0850803
0.000734031
-0.0790099
0.00248222
-0.0720598
0.00383118
-0.0643828
0.00475166
-0.0561249
0.0052339
-0.0474169
0.00528769
-0.0383685
0.0049417
-0.0290627
0.00424203
-0.0195539
0.00325013
-0.0098671
0.00204005
0.000695209
-0.0847573
-0.010629
-0.0864922
-0.00862931
-0.0870092
-0.00655636
-0.0863016
-0.00448484
-0.0843947
-0.00248736
-0.0813429
-0.000631999
-0.0772245
0.0010199
-0.072137
0.00241582
-0.0661897
0.00351376
-0.0594985
0.00428362
-0.0521781
0.00470812
-0.0443366
0.00478336
-0.0360696
0.00451883
-0.0274557
0.00393706
-0.0185529
0.00307273
-0.00939677
0.00197147
0.000688184
-0.073766
-0.00733091
-0.0754917
-0.00584709
-0.0762035
-0.00430689
-0.0758818
-0.00276296
-0.0745317
-0.00126726
-0.0721807
0.000130454
-0.0688764
0.00138407
-0.0646824
0.00245252
-0.0596749
0.00330094
-0.0539379
0.00390175
-0.0475585
0.00423545
-0.0406226
0.00429122
-0.0332104
0.00406723
-0.0253925
0.00357076
-0.0172263
0.002818
-0.0087539
0.00183363
0.000650078
-0.0630899
-0.00454659
-0.064748
-0.00347331
-0.0655728
-0.00236115
-0.0655376
-0.00124636
-0.0646335
-0.000165256
-0.0628695
0.000846767
-0.0602703
0.00175611
-0.0568741
0.00253186
-0.0527309
0.00314657
-0.0478987
0.00357698
-0.042441
0.00380467
-0.0364235
0.00381654
-0.0299108
0.00360521
-0.0229634
0.00316923
-0.0156349
0.00251323
-0.00796952
0.00164783
0.00058947
-0.0528785
-0.00228726
-0.0544181
-0.00153603
-0.0552838
-0.000762257
-0.0554452
9.77962e-06
-0.0548856
0.000755507
-0.0536016
0.00145058
-0.051602
0.00207144
-0.0489068
0.00259579
-0.0455459
0.00300317
-0.0415573
0.00327536
-0.036985
0.00339687
-0.0318771
0.00335525
-0.0262838
0.00314146
-0.0202546
0.00275008
-0.0138368
0.00217953
-0.0070731
0.00143213
0.000514146
-0.0432252
-0.000557979
-0.0446036
-5.51843e-05
-0.0454476
0.000456202
-0.0457271
0.000960592
-0.0454215
0.00144205
-0.0445203
0.00188459
-0.0430221
0.00227247
-0.0409344
0.00259052
-0.038273
0.00282438
-0.0350606
0.00296086
-0.0313263
0.00298815
-0.0271036
0.00289609
-0.0224297
0.00267638
-0.0173435
0.0023228
-0.0118845
0.00183132
-0.00609132
0.0012003
0.000430476
-0.0341717
0.000639329
-0.0353534
0.000954545
-0.0361233
0.00126775
-0.0364536
0.00156951
-0.0363236
0.00185015
-0.0357194
0.00209984
-0.0346341
0.00230881
-0.0330676
0.00246746
-0.0310262
0.00256657
-0.028522
0.00259741
-0.0255727
0.00255193
-0.0222006
0.00242289
-0.0184319
0.00220397
-0.0142957
0.00188994
-0.00982331
0.00147676
-0.00504722
0.00096164
0.000343173
-0.0257143
0.00130259
-0.0266703
0.00148064
-0.0273225
0.00165007
-0.0276475
0.00180573
-0.0276267
0.00194229
-0.0272461
0.00205436
-0.0264968
0.0021365
-0.0253748
0.00218335
-0.0238807
0.00218966
-0.02202
0.00215041
-0.0198024
0.00206085
-0.0172416
0.00191659
-0.0143551
0.00171369
-0.0111635
0.00144869
-0.00768991
0.0011187
-0.00395981
0.000721446
0.000255327
-0.0178125
0.00142634
-0.018519
0.00150956
-0.0190179
0.00158203
-0.0192916
0.00164142
-0.0193252
0.00168532
-0.0191073
0.00171129
-0.0186294
0.00171691
-0.0178864
0.00169973
-0.0168766
0.00165739
-0.0156014
0.0015876
-0.0140655
0.00148816
-0.0122768
0.00135706
-0.0102458
0.00119241
-0.0079858
0.000992547
-0.00551262
0.00075604
-0.00284411
0.0004817
0.000168619
-0.0103984
0.000998883
-0.0108352
0.00102388
-0.0111518
0.00104087
-0.011337
0.00104919
-0.0113814
0.00104816
-0.0112773
0.0010371
-0.0110186
0.00101535
-0.0106016
0.000982251
-0.010024
0.000937185
-0.0092857
0.000879551
-0.00838857
0.000808788
-0.00733625
0.00072438
-0.00613428
0.000625863
-0.00478997
0.000512831
-0.00331225
0.000384943
-0.00171164
0.000241932
8.3604e-05
-0.0033856
2.10325e-18
-0.00353526
1.66793e-18
-0.00364578
1.78763e-18
-0.00371336
1.73954e-18
-0.00373467
1.35399e-18
-0.00370697
1.28868e-18
-0.00362811
1.22637e-18
-0.00349654
9.19172e-19
-0.00331134
6.39491e-19
-0.00307226
4.5621e-19
-0.00277966
2.57855e-19
-0.00243455
2.5918e-19
-0.0020386
3.22127e-19
-0.00159405
2.25791e-19
-0.00110374
1.15293e-19
-0.000571089
4.62152e-20
9.2481e-21
0.00332132
-0.00160047
0.00347483
-0.00159324
0.00358971
-0.00157237
0.00366202
-0.00153813
0.00368838
-0.00149085
0.00366594
-0.00143092
0.00359243
-0.00135876
0.0034662
-0.00127486
0.00328624
-0.00117972
0.00305218
-0.0010739
0.00276428
-0.000957969
0.00242344
-0.000832504
0.00203121
-0.000698107
0.00158974
-0.000555376
0.00110176
-0.000404908
0.000570576
-0.000247288
-8.30852e-05
0.00981849
-0.00384311
0.0102902
-0.00379505
0.010646
-0.00371366
0.0108741
-0.00360048
0.0109641
-0.00345725
0.0109074
-0.00328587
0.0106971
-0.00308838
0.0103283
-0.00286693
0.00979794
-0.00262375
0.00910495
-0.00236113
0.00825015
-0.00208136
0.00723625
-0.00178675
0.00606783
-0.00147955
0.00475122
-0.00116194
0.00329444
-0.000836028
0.00170703
-0.000503774
-0.000167001
0.0161944
-0.00677834
0.0169984
-0.00665208
0.0176074
-0.00646624
0.0180011
-0.00622487
0.0181624
-0.00593239
0.0180771
-0.00559354
0.0177342
-0.00521329
0.017126
-0.0047968
0.016248
-0.0043493
0.0150991
-0.00387605
0.0136812
-0.00338226
0.0119993
-0.00287299
0.0100615
-0.0023531
0.00787846
-0.00182717
0.0054633
-0.00129944
0.00283139
-0.000773758
-0.000253491
0.022522
-0.0104647
0.0236716
-0.0102166
0.0245421
-0.0098756
0.0251051
-0.00944986
0.0253371
-0.00894807
0.025219
-0.00837941
0.0247368
-0.00775338
0.023881
-0.00707964
0.0226471
-0.00636785
0.0210352
-0.00562753
0.0190496
-0.00486788
0.0166988
-0.00409763
0.0139951
-0.00332494
0.010954
-0.00255722
0.0075938
-0.00180104
0.00393504
-0.00106201
-0.000344703
0.0288518
-0.0149662
0.0303585
-0.0145436
0.0314946
-0.0139875
0.0322242
-0.0133119
0.0325179
-0.0125319
0.0323532
-0.0116632
0.0317144
-0.0107217
0.0305925
-0.00972326
0.0289847
-0.0086836
0.0268944
-0.00761772
0.0243304
-0.00653979
0.0213063
-0.00546284
0.0178397
-0.00439854
0.0139518
-0.00335702
0.0096658
-0.00234663
0.00500672
-0.00137387
-0.000443235
0.0352041
-0.0203483
0.0370771
-0.0196874
0.0384782
-0.0188442
0.0393645
-0.0178417
0.0397023
-0.016704
0.0394676
-0.0154557
0.0386453
-0.0141216
0.0372295
-0.0127258
0.0352221
-0.0112917
0.0326325
-0.00984087
0.0294764
-0.00839323
0.0257745
-0.00696622
0.0215516
-0.00557467
0.0168346
-0.00423042
0.011652
-0.0029422
0.00603169
-0.00171543
-0.000552169
0.0415636
-0.0266738
0.0438085
-0.0256965
0.0454683
-0.0244801
0.0464941
-0.0230599
0.0468498
-0.0214726
0.0465125
-0.0197551
0.0454712
-0.0179437
0.0437264
-0.0160733
0.0412883
-0.0141763
0.038176
-0.0122822
0.0344148
-0.0104165
0.0300352
-0.00860073
0.0250701
-0.00685148
0.0195533
-0.0051804
0.0135173
-0.00359397
0.00699142
-0.00209344
-0.000675015
0.0478738
-0.0339975
0.050492
-0.0326092
0.0523979
-0.0309167
0.0535382
-0.0289725
0.0538773
-0.0268305
0.0533967
-0.0245437
0.0520939
-0.0221635
0.04998
-0.0197377
0.0470783
-0.0173097
0.043421
-0.014917
0.039047
-0.0125907
0.0339984
-0.0103546
0.028318
-0.00822462
0.0220463
-0.00620902
0.0152187
-0.00430818
0.00786351
-0.002515
-0.000815478
0.0540339
-0.042361
0.057022
-0.0404483
0.059155
-0.0381583
0.0603774
-0.035567
0.0606578
-0.032751
0.0599868
-0.0297846
0.0583751
-0.026738
0.0558504
-0.0236748
0.0524536
-0.0206504
0.0482351
-0.0177105
0.0432503
-0.0148897
0.0375554
-0.0122113
0.0312038
-0.00968706
0.0242418
-0.00731697
0.0167064
-0.00509031
0.00862212
-0.00298658
-0.000976952
0.0598983
-0.051788
0.063248
-0.0492168
0.065583
-0.0461877
0.0668488
-0.0428082
0.0670225
-0.0391849
0.0661095
-0.0354194
0.0641403
-0.0316051
0.061165
-0.027824
0.0572481
-0.024144
0.0524626
-0.0206174
0.0468836
-0.0172799
0.0405834
-0.0141497
0.0336255
-0.0112285
0.0260612
-0.00850234
0.0179262
-0.00594334
0.00923885
-0.00351235
-0.00116166
0.0652789
-0.0622794
0.0689777
-0.0588936
0.071485
-0.0549626
0.0727511
-0.0506358
0.0727669
-0.0460587
0.0715596
-0.0413673
0.0691866
-0.0366829
0.0657276
-0.0321079
0.0612766
-0.0277227
0.0559335
-0.0235834
0.0497963
-0.0197213
0.0429534
-0.0161434
0.0354779
-0.0128342
0.0274234
-0.00975844
0.018822
-0.00686496
0.00968395
-0.00409143
-0.00136941
0.0699522
-0.0738104
0.073985
-0.0694314
0.0766325
-0.0644145
0.0778539
-0.0589637
0.077661
-0.0532744
0.0761106
-0.0475252
0.0732949
-0.0418705
0.0693308
-0.0364344
0.0643477
-0.0313077
0.0584768
-0.0265453
0.0518398
-0.0221671
0.0445409
-0.0181599
0.0366604
-0.0144824
0.0282514
-0.0110702
0.0193399
-0.00784338
0.00992793
-0.0047143
-0.00159589
0.0736691
-0.086328
0.078021
-0.0807554
0.0807775
-0.0744478
0.081912
-0.0676799
0.0814647
-0.0607105
0.0795306
-0.05377
0.076246
-0.0470506
0.0717724
-0.0406987
0.0662804
-0.0348109
0.0599347
-0.0294332
0.0528812
-0.0245638
0.0452373
-0.0201589
0.0370867
-0.016141
0.0284787
-0.0124093
0.019432
-0.0088519
0.00994335
-0.00535815
-0.00183079
0.0761706
-0.0997504
0.08083
-0.0927637
0.0836694
-0.0849418
0.0846822
-0.0766497
0.083945
-0.0682255
0.0816011
-0.0599621
0.0778398
-0.0520937
0.0728746
-0.044787
0.0669217
-0.0381375
0.0601805
-0.032171
0.0528186
-0.0268509
0.0449623
-0.0220893
0.0366941
-0.0177624
0.028056
-0.0137277
0.0190605
-0.00984238
0.00970661
-0.00598182
-0.00205563
0.0772054
-0.113968
0.0821682
-0.10533
0.0850746
-0.095754
0.0859437
-0.0857196
0.0848976
-0.0756628
0.0821376
-0.0659505
0.0779154
-0.0568624
0.0725032
-0.048581
0.0661653
-0.0411894
0.0591344
-0.0346779
0.051595
-0.0289585
0.0436759
-0.0238849
0.0354524
-0.0192775
0.0269573
-0.0149503
0.0182015
-0.0107382
0.00919968
-0.00652057
-0.00224192
0.0765503
-0.128847
0.0818243
-0.118308
0.0847972
-0.106726
0.0855192
-0.0947233
0.084167
-0.0828568
0.0810102
-0.0715793
0.0763716
-0.0612179
0.0705868
-0.0519623
0.0639687
-0.0438676
0.0567787
-0.0368685
0.0492105
-0.0308058
0.0413869
-0.0254596
0.0333699
-0.0205882
0.0251836
-0.0159674
0.016847
-0.0114272
0.00841147
-0.00688176
-0.00234974
0.0740317
-0.144229
0.0796406
-0.131535
0.0826996
-0.117687
0.0832949
-0.103489
0.0816668
-0.0896401
0.0781626
-0.0766946
0.0731835
-0.0650255
0.0671319
-0.0548171
0.060366
-0.0460745
0.0531681
-0.0386521
0.0457301
-0.0322968
0.0381584
-0.0267012
0.0304968
-0.0215603
0.022765
-0.0166268
0.0150064
-0.0117566
0.00733878
-0.00694216
-0.00232739
0.0695449
-0.15994
0.0755314
-0.14484
0.0787205
-0.128467
0.0792378
-0.111845
0.0773948
-0.0958517
0.0736255
-0.0811516
0.0684155
-0.068161
0.0622333
-0.05704
0.0554761
-0.0477156
0.0484348
-0.0399313
0.0412857
-0.0333162
0.0341076
-0.0274645
0.0269236
-0.0220161
0.0197589
-0.0167284
0.0127059
-0.0115297
0.00598672
-0.00654804
-0.0021123
0.0630704
-0.175791
0.0694982
-0.158048
0.0728882
-0.138897
0.0734067
-0.119633
0.0714431
-0.101344
0.0675251
-0.084821
0.0622256
-0.0705156
0.0560763
-0.0585374
0.0495019
-0.0486995
0.0427857
-0.0405995
0.0360716
-0.0337243
0.0294005
-0.0275657
0.0227758
-0.021729
0.0162458
-0.0160214
0.00998603
-0.0105066
0.00436855
-0.00551893
-0.00163379
0.0546854
-0.191581
0.0616383
-0.170985
0.0653273
-0.148818
0.0659575
-0.126706
0.0640003
-0.105988
0.0600822
-0.0875949
0.0548638
-0.072
0.0489318
-0.059229
0.0427229
-0.0489375
0.0364925
-0.0405375
0.0303333
-0.0333523
0.0242397
-0.0267772
0.0182032
-0.0204208
0.0123218
-0.0142052
0.00689819
-0.00841062
0.00250502
-0.00365578
-0.000817601
-0.0705762
0.0904544
0.0700573
-0.0706899
0.0997423
-0.0704296
0.108919
-0.0698198
0.117632
-0.068877
0.125509
-0.0676079
0.132174
-0.0660098
0.137271
-0.0640712
0.140485
-0.0617726
0.14156
-0.0590885
0.140315
-0.0559889
0.13665
-0.0524413
0.130553
-0.0484121
0.122098
-0.0438683
0.111437
-0.0387785
0.0987956
-0.0331146
0.0844589
-0.0268521
0.0687595
-0.0199718
0.0520658
-0.0124605
0.0347702
-0.00431237
0.0172783
0.00446978
0
0.013873
-0.0166589
0.0238726
-0.0323046
0.0344303
-0.0465627
0.0454927
-0.0590859
0.0569896
-0.0695635
0.0688335