/*--------------------------------*- C++ -*----------------------------------*\
  =========                 |
  \\      /  F ield         | OpenFOAM: The Open Source CFD Toolbox
   \\    /   O peration     | Website:  https://openfoam.org
    \\  /    A nd           | Version:  6
     \\/     M anipulation  |
\*---------------------------------------------------------------------------*/
FoamFile
{
    version     2.0;
    format      ascii;
    class       volScalarField;
    location    "2.68";
    object      p;
}
// * * * * * * * * * * * * * * * * * * * * * * * * * * * * * * * * * * * * * //

dimensions      [0 2 -2 0 0 0 0];

internalField   nonuniform List<scalar> 
4214
(
-1.00625
-1.41594
-1.05728
-0.715978
-0.602417
-0.635915
-0.709788
-0.779905
-0.928225
-1.2094
-1.61002
-2.10901
-2.56009
-2.89056
-3.13063
-3.27559
-3.20949
-3.07234
-2.86827
-2.48623
-1.93623
-1.21627
-0.655505
-0.119038
0.380322
0.75268
1.37783
1.90846
2.14006
2.10995
1.78858
1.40364
0.99855
0.708346
0.516928
0.39291
0.353112
0.371187
0.0528958
-0.209957
-0.0631175
0.749691
-0.101893
-0.361194
-0.193352
-0.189446
-0.416643
-0.628768
-0.94095
-1.47368
-2.19232
-3.1508
-4.42686
-5.97413
-7.43226
-8.69575
-9.58932
-9.68622
-9.26276
-8.39423
-7.11846
-5.62309
-4.07275
-2.61752
-1.22068
-0.0182117
0.977139
1.84795
2.34542
2.34307
1.94588
1.58559
1.37745
1.20028
0.938712
0.701675
0.519339
0.452385
0.474351
0.276884
0.326229
0.805003
-0.060323
-0.518539
-0.908956
-0.881786
-1.0924
-1.61069
-2.22879
-3.14614
-4.52629
-6.36353
-8.62608
-10.9618
-13.7133
-16.0561
-17.1555
-17.2498
-16.8281
-15.6782
-13.7998
-11.5594
-9.17371
-6.74773
-4.40943
-2.25569
-0.387372
1.12522
2.36243
3.31745
3.80555
3.68315
3.18965
2.76043
2.43648
2.01724
1.60442
1.24913
1.01473
0.864223
0.566112
0.37717
0.535526
-0.526113
-0.665842
-1.17064
-1.44805
-1.94369
-2.87513
-4.14971
-6.06625
-8.67817
-11.8884
-15.6393
-19.5269
-22.3991
-24.2222
-25.0121
-24.5492
-23.3156
-21.1574
-18.4256
-15.3985
-12.2539
-9.12934
-6.15872
-3.46534
-1.04214
0.967441
2.52989
3.74723
4.44255
4.63833
4.36385
3.91146
3.50304
3.034
2.50951
2.01566
1.62642
1.35027
1.05945
0.744786
0.630423
-0.969088
-1.13882
-1.76961
-2.46105
-3.44499
-5.01532
-7.28136
-10.4776
-14.3353
-18.9239
-23.6393
-27.8337
-30.6351
-31.9057
-31.6122
-30.342
-28.1125
-25.1788
-21.8159
-18.2352
-14.6272
-11.1377
-7.79557
-4.6492
-1.82553
0.576863
2.52706
3.98021
4.90031
5.37546
5.41114
5.09593
4.65598
4.14159
3.53968
2.92339
2.37189
1.9315
1.5391
1.08431
0.846888
-1.39617
-1.61496
-2.41249
-3.54263
-5.12322
-7.44918
-10.766
-14.958
-20.3184
-25.7467
-30.4569
-33.8945
-35.7309
-36.0174
-35.0312
-33.1186
-30.4932
-27.3317
-23.8363
-20.1547
-16.4033
-12.6687
-9.0776
-5.70839
-2.65221
0.00463166
2.23384
3.98391
5.14158
5.79334
6.0989
6.06977
5.73138
5.22795
4.5941
3.89993
3.21987
2.6274
2.11175
1.53095
1.14556
-1.85675
-2.2492
-3.16981
-4.60061
-6.63091
-9.33036
-13.8905
-19.4545
-24.9374
-29.5791
-33.0944
-35.2859
-36.192
-35.9809
-34.8184
-32.8268
-30.1753
-27.0869
-23.7477
-20.2945
-16.7946
-13.293
-9.8224
-6.49047
-3.39847
-0.634985
1.76596
3.74569
5.17727
6.05894
6.53179
6.74426
6.64463
6.23787
5.62341
4.89634
4.12283
3.39337
2.76443
2.06672
1.5291
-1.86715
-2.33853
-3.34159
-4.99134
-7.52461
-11.4013
-15.5466
-20.2362
-24.5825
-28.0741
-30.5429
-32.0763
-32.8296
-32.7512
-32.0033
-30.5011
-28.3816
-25.7383
-22.7974
-19.6685
-16.4454
-13.1955
-10.0094
-6.90941
-3.95287
-1.22858
1.21878
3.31851
4.97477
6.10698
6.79883
7.17232
7.28778
7.08497
6.55087
5.84456
5.03552
4.22603
3.4895
2.661
1.98341
-1.36249
-1.76991
-2.67675
-4.49633
-6.87441
-10.3558
-14.2034
-17.5397
-20.2742
-22.6111
-24.593
-26.2266
-27.5272
-28.2865
-28.0746
-27.2228
-25.8362
-23.8649
-21.4073
-18.6646
-15.7785
-12.8308
-9.89008
-7.02799
-4.29728
-1.70209
0.696801
2.8299
4.59983
5.93528
6.86223
7.41999
7.67442
7.68677
7.30161
6.66504
5.86892
5.03432
4.15497
3.23792
2.4813
-0.215625
-0.460878
-1.03867
-2.42011
-4.71176
-7.04445
-9.20943
-11.1491
-13.151
-15.394
-17.8378
-20.294
-22.5316
-24.2752
-25.0098
-24.7582
-23.888
-22.3647
-20.2351
-17.7485
-15.0989
-12.3885
-9.68573
-7.03703
-4.47671
-2.03303
0.254138
2.32586
4.1166
5.57808
6.72154
7.47562
7.84843
7.9857
7.8198
7.30348
6.56539
5.71163
4.756
3.78429
2.97656
1.69691
1.70411
1.4955
0.729053
-0.408191
-1.55974
-2.65363
-4.0816
-6.21174
-9.12651
-12.6008
-16.1576
-19.3066
-21.7831
-23.4067
-23.7882
-23.109
-21.7454
-19.7588
-17.3456
-14.7655
-12.1536
-9.57607
-7.05961
-4.64842
-2.36381
-0.208448
1.78016
3.54944
5.07837
6.34429
7.26114
7.81109
8.04443
8.01582
7.69304
7.07711
6.25916
5.26488
4.2858
3.42652
3.81778
4.32084
4.54525
4.50248
4.27817
3.89986
3.27629
1.68676
-1.12534
-5.01725
-9.46539
-14.0163
-18.2606
-21.5818
-23.6069
-24.1964
-23.7101
-22.1371
-20.0229
-17.535
-14.8725
-12.2342
-9.69545
-7.26773
-4.95328
-2.76981
-0.711516
1.18995
2.90988
4.44728
5.75951
6.76601
7.4491
7.84987
7.87556
7.63732
7.13954
6.40294
5.42687
4.48269
3.57925
5.52408
6.51022
7.4165
7.99742
8.37424
8.4199
7.66104
5.48806
1.88799
-2.86908
-8.44465
-14.1298
-19.1311
-22.9777
-25.1366
-25.9241
-25.8316
-24.1464
-21.6297
-18.826
-15.8954
-13.0223
-10.2889
-7.75063
-5.39025
-3.22839
-1.21741
0.623503
2.3007
3.80467
5.10394
6.1355
6.862
7.3311
7.434
7.2807
6.86386
6.16498
5.21275
4.3023
3.37479
6.59483
7.84868
9.14919
10.3473
11.3115
11.4688
10.3141
7.62019
3.2657
-2.44224
-8.8763
-15.2864
-21.0065
-25.3691
-27.774
-28.7481
-28.7902
-27.1963
-24.5299
-21.3849
-17.9214
-14.5892
-11.4498
-8.68669
-6.15923
-3.94507
-1.91585
-0.100791
1.53832
2.97083
4.20074
5.17237
5.88095
6.39091
6.60699
6.51834
6.23824
5.6484
4.75054
3.89813
2.98102
6.15111
7.55591
9.19744
10.978
12.3446
12.7697
11.3683
8.33687
3.31748
-2.94719
-9.91789
-16.9174
-23.257
-28.1587
-31.0693
-32.3807
-32.5019
-31.5122
-28.697
-25.2586
-21.2832
-17.6742
-14.131
-11.2466
-8.37423
-5.93195
-3.70955
-1.79986
-0.0913718
1.37339
2.64829
3.68589
4.45796
5.06949
5.36006
5.33389
5.10654
4.61223
3.74568
3.00787
2.08607
3.96683
5.43682
7.0038
9.11098
10.7264
12.1031
10.4246
7.74498
2.40072
-4.25421
-11.5055
-19.1214
-25.9171
-31.882
-35.1965
-37.3148
-37.2057
-37.3192
-33.4676
-30.9215
-26.254
-22.4006
-18.2251
-14.7993
-11.3592
-8.48772
-5.98766
-3.83133
-1.95274
-0.327605
0.989001
2.05309
2.77161
3.35158
3.43869
3.45582
3.0212
2.61416
1.52586
0.956867
-0.300269
0.485735
1.80003
3.10386
5.15094
7.1228
9.54245
7.76496
6.17554
-0.042583
-6.57687
-14.3746
-22.5826
-29.807
-36.9088
-39.8017
-42.9312
-42.4532
-43.5552
-38.3994
-37.9631
-30.8922
-27.0796
-21.1316
-17.7575
-13.4435
-10.3534
-7.62619
-5.26455
-3.50334
-1.88342
-1.01912
-0.0447159
0.260538
0.644748
0.429188
0.473797
-0.419433
-0.698041
-2.21111
-2.51185
-4.33169
-4.8461
-1.50216
0.620184
1.53754
2.01165
2.4025
2.46007
2.31308
2.06564
1.77259
1.47017
1.19906
1.00177
0.841156
0.783431
0.724707
0.33594
-6.81562
-3.45501
-0.889955
0.304766
0.930059
1.40243
1.60407
1.58418
1.48233
1.33017
1.15297
0.97971
0.840757
0.732677
0.707272
0.64876
0.613392
-6.70331
-4.01162
-2.06121
-0.913373
-0.210859
0.331298
0.680075
0.817993
0.840392
0.816238
0.756536
0.68155
0.623385
0.576793
0.589997
0.538922
0.650108
-8.04107
-5.68395
-3.53751
-2.20052
-1.36684
-0.7269
-0.26297
-0.0013174
0.141155
0.220473
0.251125
0.256627
0.263624
0.259485
0.336715
0.304198
0.527822
-7.78712
-5.84943
-4.26415
-3.17997
-2.37072
-1.71885
-1.19675
-0.839554
-0.602872
-0.434693
-0.319205
-0.24471
-0.177707
-0.145509
-0.0332201
-0.0500186
0.242597
-8.379
-6.8833
-5.37688
-4.23742
-3.36683
-2.66765
-2.10461
-1.66911
-1.35757
-1.12535
-0.946483
-0.813064
-0.699795
-0.622059
-0.491364
-0.475738
-0.179468
-7.99164
-6.77265
-5.67811
-4.826
-4.09371
-3.44074
-2.89492
-2.45273
-2.0946
-1.8147
-1.59422
-1.4192
-1.27048
-1.15694
-1.01765
-0.969389
-0.698884
-7.9904
-7.13751
-6.2602
-5.47772
-4.7876
-4.16495
-3.61865
-3.16507
-2.79228
-2.48291
-2.22775
-2.0276
-1.85923
-1.72363
-1.57874
-1.51113
-1.27634
-7.53377
-6.8745
-6.21677
-5.66302
-5.13647
-4.62602
-4.15697
-3.74167
-3.38643
-3.08443
-2.82589
-2.60598
-2.42854
-2.28545
-2.14493
-2.06468
-1.87462
-7.30915
-6.80766
-6.33437
-5.88353
-5.43379
-4.99481
-4.58542
-4.21344
-3.88024
-3.59
-3.34184
-3.12897
-2.94647
-2.80042
-2.67384
-2.5889
-2.44471
-6.75121
-6.40225
-6.07048
-5.76575
-5.45681
-5.13617
-4.81369
-4.50699
-4.22381
-3.96775
-3.74117
-3.54724
-3.38092
-3.2406
-3.12469
-3.04607
-2.9439
-6.39791
-6.11109
-5.8592
-5.6114
-5.35984
-5.11101
-4.8721
-4.64175
-4.42005
-4.21076
-4.01875
-3.84748
-3.69975
-3.57752
-3.47637
-3.40227
-3.33893
-5.69022
-5.50926
-5.35793
-5.21849
-5.05942
-4.88909
-4.71897
-4.55348
-4.39543
-4.24685
-4.10846
-3.9826
-3.86846
-3.77082
-3.68841
-3.62604
-3.59314
-5.25822
-5.08862
-4.95938
-4.83869
-4.71412
-4.58372
-4.4511
-4.32284
-4.20119
-4.08802
-3.98475
-3.89334
-3.81389
-3.7523
-3.70097
-3.66424
-3.65942
-4.42393
-4.32551
-4.25926
-4.20526
-4.14145
-4.06723
-3.98796
-3.90781
-3.82973
-3.75622
-3.68926
-3.63038
-3.57997
-3.54176
-3.51094
-3.49462
-3.50298
-3.84693
-3.73133
-3.66453
-3.60378
-3.54133
-3.479
-3.41841
-3.36031
-3.30529
-3.2541
-3.20768
-3.16715
-3.13259
-3.10741
-3.08687
-3.08648
-3.11441
-2.88025
-2.84068
-2.80835
-2.78151
-2.75072
-2.71585
-2.67928
-2.643
-2.60831
-2.57618
-2.54757
-2.52341
-2.50365
-2.49143
-2.47895
-2.49269
-2.52006
-2.16339
-2.07881
-2.02514
-1.97314
-1.92527
-1.88213
-1.84302
-1.80778
-1.77628
-1.7487
-1.72542
-1.70679
-1.6922
-1.68442
-1.67638
-1.69281
-1.70273
-1.03985
-1.02551
-0.983312
-0.948029
-0.914668
-0.879689
-0.845602
-0.814719
-0.786302
-0.760332
-0.737262
-0.718065
-0.701681
-0.690383
-0.678475
-0.683298
-0.676446
-0.243062
-0.113561
-0.0228706
0.044162
0.107683
0.171007
0.228913
0.281103
0.328457
0.370967
0.408347
0.440275
0.468046
0.487046
0.506592
0.510532
0.527142
0.880514
0.892535
1.04368
1.14975
1.23999
1.33299
1.41815
1.49613
1.5686
1.63486
1.69432
1.74777
1.79649
1.83303
1.87735
1.88963
1.93101
1.75273
1.99443
2.18716
2.31798
2.45361
2.58908
2.71025
2.82114
2.92419
3.01858
3.10397
3.18223
3.25272
3.31133
3.37581
3.40096
3.4734
3.06601
3.15151
3.40613
3.602
3.77372
3.94053
4.09399
4.23416
4.36347
4.48207
4.59034
4.69014
4.77925
4.85754
4.93877
4.97957
5.07834
4.13286
4.43605
4.7068
4.9277
5.13005
5.31982
5.49544
5.65743
5.8066
5.94326
6.06875
6.1844
6.28754
6.38184
6.47615
6.53203
6.64897
5.54006
5.70829
5.9792
6.22807
6.45444
6.66219
6.85257
7.02733
7.1875
7.33399
7.46895
7.59312
7.70452
7.80963
7.91205
7.98073
8.11261
6.56297
6.93132
7.22649
7.48176
7.71505
7.92982
8.12722
8.30855
8.47467
8.62719
8.76868
8.89906
9.01773
9.13323
9.24213
9.32106
9.46632
7.85941
8.07961
8.3629
8.63465
8.884
9.11082
9.31743
9.50618
9.6787
9.83771
9.98573
10.1215
10.2467
10.3706
10.4822
10.5689
10.7259
8.69571
9.11329
9.44329
9.72588
9.97926
10.2096
10.42
10.6124
10.7886
10.9521
11.1045
11.2437
11.3746
11.5057
11.6202
11.7158
11.8797
9.87178
10.1444
10.4464
10.7293
10.987
11.2199
11.4316
11.6246
11.8018
11.9666
12.1193
12.2587
12.3918
12.5236
12.6342
12.7333
12.9005
10.6023
11.0249
11.3612
11.6463
11.8997
12.128
12.3351
12.5234
12.6961
12.8567
13.0049
13.1402
13.2712
13.4011
13.508
13.6091
13.777
11.6044
11.8968
12.1957
12.4679
12.7123
12.9317
13.1297
13.3092
13.4737
13.6268
13.7679
13.8973
14.0245
14.15
14.2525
14.3558
14.5233
12.2419
12.634
12.9441
13.2053
13.4357
13.6414
13.8266
13.9944
14.1484
14.2922
14.4248
14.5472
14.6692
14.7894
14.8876
14.9915
15.1572
13.0474
13.3406
13.6129
13.8569
14.0719
14.2627
14.4337
14.5885
14.7311
14.8645
14.988
15.1031
15.2192
15.3336
15.4275
15.5307
15.6938
13.5943
13.9446
14.216
14.4395
14.6337
14.8064
14.9615
15.1025
15.233
15.3557
15.4701
15.578
15.6878
15.7961
15.8865
15.989
16.147
14.2378
14.5182
14.7513
14.953
15.126
15.2793
15.4185
15.5459
15.6644
15.7766
15.8821
15.9827
16.0856
16.1875
16.274
16.3754
16.5259
14.6886
15.0034
15.2303
15.402
15.5546
15.6905
15.8147
15.9293
16.0365
16.1386
16.2355
16.3287
16.4243
16.5203
16.6026
16.697
16.8342
15.2058
15.454
15.6375
15.7924
15.9265
16.0472
16.1576
16.2597
16.3555
16.447
16.5349
16.6204
16.7081
16.7973
16.876
16.9612
17.0812
15.6041
15.8441
16.0051
16.1333
16.2491
16.3544
16.451
16.5405
16.6249
16.7061
16.7851
16.8631
16.9429
17.0232
17.0937
17.1661
17.2676
16.0213
16.1907
16.3188
16.4293
16.5307
16.624
16.7088
16.7886
16.8646
16.9379
17.0096
17.0805
17.1516
17.2205
17.2792
17.3331
17.4069
16.3553
16.5039
16.6132
16.7059
16.7949
16.8769
16.9513
17.02
17.0859
17.1494
17.2109
17.2713
17.3295
17.38
17.4175
17.4574
17.5142
11.5857
11.9321
12.4593
12.915
13.5906
14.1881
15.0718
15.8255
16.9248
17.8291
19.0749
20.0212
21.1029
21.92
22.7113
23.2462
23.5805
23.7822
23.8077
23.7731
23.4769
23.1734
22.7509
22.3246
21.8668
21.4125
20.9799
20.5484
20.1593
19.7713
19.4294
19.087
18.7895
18.4865
18.226
17.9484
17.7124
17.4458
17.2163
16.9335
16.6768
12.5339
12.8225
13.2194
13.6687
14.1848
14.7881
15.4801
16.2533
17.1327
18.0658
19.0531
19.9637
20.8738
21.6428
22.3326
22.8199
23.1454
23.3261
23.3745
23.3251
23.0841
22.8018
22.4294
22.035
21.6114
21.1904
20.7814
20.3858
20.0129
19.659
19.3293
19.0193
18.7303
18.4587
18.2008
17.955
17.7175
17.4855
17.2505
17.0141
16.767
13.4268
13.6261
13.9522
14.3341
14.7778
15.3058
15.9119
16.6089
17.3791
18.2164
19.0597
19.8884
20.6794
21.3847
21.9936
22.4433
22.7494
22.9229
22.9806
22.9328
22.7352
22.4787
22.1495
21.7846
21.3951
21.0035
20.6211
20.2518
19.8994
19.5675
19.2546
18.9634
18.6897
18.4342
18.1904
17.9624
17.7382
17.5204
17.3006
17.0822
16.8542
14.1816
14.3264
14.5927
14.9209
15.3066
15.7668
16.3043
16.9209
17.5998
18.3284
19.0726
19.8117
20.5166
21.1515
21.6977
22.1091
22.3968
22.5643
22.6276
22.5886
22.4242
22.1966
21.9031
21.5673
21.2098
20.8468
20.4907
20.1449
19.8134
19.4992
19.2029
18.9258
18.6658
18.4207
18.1914
17.9736
17.762
17.5547
17.3492
17.1437
16.9333
14.8092
14.9243
15.1464
15.434
15.7722
16.176
16.6503
17.1927
17.7892
18.4277
19.0858
19.744
20.3726
20.9441
21.4343
21.8124
22.0814
22.2447
22.3123
22.2852
22.1495
21.9502
21.6878
21.3803
21.0524
20.716
20.3835
20.0582
19.7446
19.4456
19.1632
18.8979
18.6474
18.4141
18.1971
17.9873
17.7868
17.5914
17.3971
17.2045
17.0088
15.3233
15.4249
15.6168
15.8739
16.1745
16.5314
16.9506
17.4282
17.954
18.5166
19.0988
19.684
20.2454
20.759
21.2008
21.5488
21.8007
21.9602
22.0321
22.0177
21.9073
21.7349
21.4994
21.22
20.9192
20.6072
20.2959
19.9889
19.6907
19.4052
19.1344
18.8771
18.6362
18.4149
18.2036
18.0026
17.8116
17.6266
17.4422
17.2602
17.0778
15.7548
15.8459
16.0173
16.2488
16.5183
16.8365
17.2085
17.6309
18.0962
18.5942
19.1099
19.6304
20.132
20.5937
20.9936
21.3149
21.5512
21.7076
21.7838
21.7824
21.6948
21.547
21.3354
21.0831
20.8071
20.5175
20.2248
19.9338
19.6495
19.3756
19.1125
18.8628
18.6344
18.4172
18.2114
18.0181
17.8353
17.6595
17.4854
17.3118
17.1404
16.1128
16.1974
16.3559
16.5652
16.8088
17.095
17.4274
17.8033
18.2171
18.6598
19.1181
19.5819
20.031
20.4472
20.8106
21.1083
21.3303
21.4845
21.5648
21.5757
21.5092
21.3834
21.1934
20.9666
20.7134
20.4439
20.1674
19.8915
19.6194
19.3536
19.0973
18.8598
18.634
18.4199
18.2199
18.033
17.8571
17.6893
17.5244
17.3609
17.1981
16.4002
16.4852
16.6367
16.8281
17.051
17.3113
17.6111
17.948
18.3183
18.7139
19.123
19.5379
19.9415
20.3179
20.6498
20.9265
21.1364
21.2886
21.3731
21.3953
21.3479
21.241
21.0723
20.8681
20.6358
20.3847
20.1233
19.8603
19.5973
19.3382
19.0924
18.8584
18.6343
18.4241
18.2284
18.0465
17.8764
17.7154
17.5588
17.4047
17.2517
16.6173
16.7144
16.8639
17.0427
17.2502
17.4899
17.7631
18.0679
18.4017
18.7573
19.125
19.4981
19.8627
20.205
20.5099
20.7677
20.9684
21.1174
21.2068
21.2389
21.2087
21.1179
20.9699
20.7859
20.5726
20.3381
20.0904
19.8374
19.5818
19.3321
19.0916
18.8584
18.6369
18.4293
18.2366
18.0581
17.8927
17.7375
17.5886
17.4441
17.3028
16.7847
16.8977
17.0455
17.2162
17.4122
17.6354
17.8868
18.1654
18.4689
18.7913
19.1244
19.4627
19.7945
20.108
20.3901
20.6319
20.8251
20.9694
21.0642
21.1052
21.0899
21.0126
20.8842
20.7185
20.5223
20.3027
20.0669
19.8222
19.5748
19.3322
19.0928
18.8614
18.6413
18.4351
18.244
18.0679
17.906
17.7558
17.6141
17.4796
17.3499
16.9192
17.0404
17.1858
17.3523
17.5404
17.7511
17.9854
18.243
18.5221
18.8172
19.1221
19.4319
19.7369
20.0265
20.2896
20.5179
20.7045
20.8455
20.9428
20.9926
20.9899
20.9243
20.8137
20.6642
20.483
20.2765
20.0513
19.815
19.5756
19.3349
19.0972
18.8666
18.6468
18.4407
18.2501
18.0758
17.917
17.7712
17.6364
17.5118
17.393
17.0193
17.144
17.2859
17.45
17.6345
17.8377
18.0605
18.303
18.5629
18.835
19.1185
19.406
19.6892
19.9595
20.207
20.4244
20.6053
20.7451
20.8419
20.8987
20.907
20.8523
20.7565
20.6212
20.4529
20.258
20.0423
19.8137
19.5786
19.3402
19.1035
18.8728
18.6523
18.4453
18.2541
18.0806
17.9248
17.7834
17.6556
17.5399
17.431
17.0876
17.2139
17.3534
17.5129
17.6929
17.8933
18.1117
18.3455
18.5916
18.8486
19.1154
19.3856
19.6519
19.9069
20.1418
20.3501
20.526
20.6647
20.7632
20.8222
20.8395
20.7957
20.7119
20.5887
20.4317
20.247
20.0391
19.816
19.5847
19.348
19.1114
18.8796
18.6572
18.448
18.2548
18.0803
17.9255
17.7878
17.6672
17.559
17.4599
17.1291
17.2529
17.3913
17.5489
17.7273
17.9257
18.1419
18.3703
18.6097
18.8594
19.116
19.3742
19.6284
19.8719
20.0972
20.2972
20.4682
20.6054
20.7051
20.7657
20.7872
20.7541
20.6804
20.5678
20.4208
20.2428
20.0427
19.825
19.5961
19.3604
19.1229
18.8885
18.6621
18.4482
18.2506
18.0725
17.9145
17.7766
17.662
17.563
17.4788
17.1627
17.2741
17.4085
17.5658
17.7452
17.9442
18.1597
18.3876
18.6243
18.8705
19.122
19.3742
19.6212
19.8573
20.076
20.2702
20.4362
20.5704
20.6694
20.731
20.7532
20.7285
20.6629
20.5593
20.4196
20.2501
20.0559
19.8419
19.6145
19.3786
19.1388
18.9003
18.6678
18.4468
18.2424
18.0578
17.8942
17.758
17.6496
17.565
17.5071
17.21
17.2934
17.4207
17.5772
17.7562
17.9539
18.1675
18.3964
18.6353
18.8805
19.1296
19.3789
19.6233
19.8567
20.0728
20.2653
20.4286
20.5598
20.6568
20.7175
20.7395
20.7187
20.6575
20.558
20.4242
20.26
20.0697
19.8587
19.6321
19.3947
19.1519
18.9091
18.6719
18.4454
18.235
18.0446
17.8814
17.7464
17.6413
17.5711
17.5525
-1.24684
-0.892592
-0.829335
-1.03782
-1.13253
-1.1929
-1.17175
-0.796175
-0.0614895
1.04611
2.60525
4.02397
4.96527
5.50625
4.89762
2.73566
-0.445118
-0.932542
-0.941027
-0.848349
-0.911218
-0.877036
-0.777364
-0.540819
-0.042278
0.726295
1.78097
2.96739
3.79356
4.3282
4.49217
3.55287
1.40096
-1.39966
-0.868081
-0.892312
-0.740665
-0.679843
-0.519938
-0.270928
0.120642
0.705024
1.41849
2.28319
2.99972
3.49078
3.71326
3.60181
2.55803
0.597408
-1.86062
-0.736258
-0.640655
-0.469343
-0.298539
-0.0599566
0.278219
0.715384
1.24729
1.86534
2.46473
2.86536
3.11531
3.16326
2.80388
1.77389
0.126675
-1.80702
-0.515881
-0.275995
-0.11699
0.140594
0.420964
0.782773
1.18961
1.64435
2.10886
2.44063
2.66093
2.7508
2.63161
2.05711
1.04525
-0.345439
-1.8744
-0.191353
0.142204
0.265786
0.589898
0.85898
1.19751
1.53915
1.89931
2.17383
2.34806
2.44108
2.42378
2.15266
1.53694
0.647533
-0.483282
-1.77446
0.18947
0.587095
0.672113
0.99502
1.22577
1.50802
1.77168
1.99655
2.13022
2.21099
2.22621
2.10796
1.73081
1.12884
0.369755
-0.49311
-1.42494
0.582004
0.97114
1.05314
1.32141
1.50794
1.72126
1.89322
2.00021
2.06792
2.08577
2.01508
1.79107
1.37132
0.797639
0.155332
-0.478537
-1.21172
0.951547
1.27196
1.35554
1.56535
1.7008
1.83836
1.91962
1.96732
1.98591
1.9399
1.79279
1.51499
1.13944
0.687095
0.198825
-0.30329
-0.913198
1.25737
1.50484
1.57507
1.72731
1.81214
1.87762
1.90782
1.92134
1.88641
1.77271
1.57339
1.30898
0.994938
0.649997
0.263176
-0.150775
-0.546193
1.50423
1.68564
1.72819
1.81719
1.85481
1.87714
1.88293
1.85268
1.7666
1.63195
1.45556
1.24831
1.0078
0.713175
0.384014
0.0711152
-0.243314
1.67749
1.79969
1.81829
1.86016
1.86887
1.87252
1.8457
1.78838
1.70028
1.58401
1.44389
1.27851
1.0791
0.838717
0.585213
0.380639
0.110702
1.77293
1.85232
1.86131
1.88318
1.88446
1.87486
1.84537
1.79396
1.72043
1.62411
1.505
1.36386
1.19658
0.997777
0.784735
0.5927
0.442942
1.82816
1.8894
1.89475
1.9155
1.91771
1.91494
1.89703
1.85612
1.79479
1.71456
1.61691
1.5004
1.36186
1.20244
1.04201
0.913849
0.79928
1.88208
1.94676
1.96238
1.98374
1.99165
1.98745
1.97462
1.94674
1.90269
1.8416
1.76533
1.67475
1.56977
1.45205
1.34269
1.26968
1.14822
1.98241
2.0573
2.09364
2.11317
2.13158
2.12906
2.12165
2.10178
2.06973
2.02432
1.96682
1.89816
1.81888
1.72881
1.6286
1.53428
1.47026
2.18834
2.26004
2.31543
2.32501
2.35053
2.34908
2.34491
2.3298
2.30505
2.27007
2.22582
2.17308
2.11152
2.04209
1.96762
1.91328
1.87518
2.53472
2.55434
2.62387
2.62455
2.65225
2.64855
2.64213
2.62701
2.60442
2.57404
2.53661
2.4931
2.44562
2.39096
2.33757
2.30157
2.22499
3.00833
2.98655
3.05021
3.04109
3.05153
3.04061
3.02714
3.00783
2.98306
2.95257
2.9174
2.87413
2.8253
2.7702
2.70045
2.61436
2.54351
3.62496
3.57405
3.61319
3.59131
3.58222
3.55884
3.53242
3.49862
3.45831
3.41191
3.35879
3.29956
3.23545
3.16346
3.07405
2.98176
2.94855
4.45584
4.31269
4.31797
4.23974
4.20441
4.1483
4.09448
4.03704
3.9723
3.90146
3.82514
3.74435
3.65715
3.56177
3.46392
3.37906
3.28479
5.5456
5.26318
5.21571
5.05152
4.95145
4.83745
4.72509
4.62056
4.51773
4.41583
4.31483
4.20996
4.09643
3.98205
3.86321
3.71218
3.59596
7.10873
6.67264
6.51601
6.23715
6.00046
5.77924
5.56685
5.37374
5.19701
5.03368
4.88134
4.73348
4.58678
4.44371
4.28582
4.0902
3.96482
8.87293
8.3765
8.13249
7.79051
7.46048
7.13783
6.81338
6.49848
6.19877
5.91625
5.65381
5.41508
5.19892
4.99724
4.80024
4.58852
4.39682
10.3895
9.90019
9.63433
9.28264
8.92118
8.55901
8.18208
7.79767
7.41442
7.03737
6.6731
6.32754
6.00113
5.69659
5.42589
5.14393
4.91854
11.6498
11.1775
10.8912
10.5436
10.1742
9.80326
9.41643
9.01099
8.59235
8.16563
7.73769
7.31675
6.90868
6.52215
6.15151
5.75936
5.47768
12.6719
12.2349
11.9466
11.614
11.2452
10.8657
10.4683
10.0486
9.61103
9.15842
8.6946
8.22718
7.76586
7.31724
6.88082
6.45666
6.07567
13.4957
13.1001
12.8232
12.5131
12.1565
11.7834
11.3885
10.9648
10.5152
10.0425
9.54908
9.0422
8.53353
8.03084
7.54701
7.07482
6.63472
14.1608
13.8074
13.5459
13.2613
12.926
12.5674
12.1847
11.7684
11.3192
10.8391
10.328
9.79124
9.24116
8.6904
8.15463
7.61595
7.15832
14.704
14.389
14.1444
13.8865
13.5752
13.2361
12.871
12.4689
12.029
11.5518
11.0343
10.4783
9.89531
9.30143
8.71529
8.14072
7.5996
15.1538
14.8718
14.6454
14.4126
14.126
13.809
13.4641
13.0799
12.6546
12.1877
11.673
11.108
10.5012
9.86908
9.23616
8.62094
8.0298
15.5327
15.2777
15.07
14.8605
14.5984
14.3041
13.9806
13.6159
13.2079
12.7559
12.2509
11.6855
11.0639
10.4003
9.72319
9.04937
8.44385
15.8561
15.6243
15.4366
15.248
15.0084
14.7368
14.4351
14.0902
13.7009
13.2665
12.7758
12.2171
11.5887
10.901
10.1832
9.46329
8.78329
16.1352
15.9257
15.7582
15.5866
15.368
15.1194
14.8388
14.5138
14.144
13.7284
13.2552
12.709
12.0814
11.3769
10.6231
9.86229
9.11822
16.3777
16.1906
16.0419
15.8859
15.6877
15.461
15.2009
14.8957
14.5451
14.1488
13.695
13.166
12.5469
11.8337
11.0497
10.2372
9.48863
16.5885
16.4251
16.2947
16.1538
15.9754
15.7697
15.5295
15.2437
14.9115
14.5329
14.0986
13.5894
12.9841
12.27
11.4642
10.611
9.77624
16.7705
16.6312
16.5184
16.3928
16.2343
16.0492
15.8294
15.5643
15.2502
14.8873
14.47
13.9817
13.3955
12.6908
11.8751
10.9965
10.0838
16.9209
16.8072
16.7133
16.6045
16.466
16.3009
16.1013
15.8588
15.5658
15.2197
14.8199
14.3555
13.7943
13.1044
12.281
11.3563
10.4791
17.0487
16.9646
16.8928
16.8039
16.6874
16.5424
16.3622
16.139
15.8622
15.5258
15.1325
14.6761
14.1338
13.4743
12.6736
11.7354
10.7967
17.153
17.0951
17.0468
16.9847
16.8938
16.7727
16.6181
16.4275
16.1857
15.8744
15.4969
15.0524
14.536
13.9182
13.1516
12.2115
11.1723
-1.54681
1.39671
6.51586
5.39651
-3.96914
-18.7177
-33.8005
-44.0586
-47.7227
-44.7761
-36.3082
-26.6448
-18.0147
-11.3821
-6.75366
-4.20181
-3.08416
-3.12382
-4.33513
-5.93321
-4.17431
-1.749
3.0259
2.4915
-6.41698
-21.2838
-35.9692
-46.6471
-51.749
-51.6346
-44.4001
-34.6166
-25.3328
-17.5463
-12.2149
-9.02003
-7.40084
-7.05272
-7.79657
-8.86694
-7.08567
-5.31889
-1.0002
-1.09782
-8.64862
-22.4827
-37.3033
-48.3263
-54.5562
-56.8266
-52.6586
-43.8871
-34.7601
-26.3305
-19.7331
-15.4242
-13.0866
-12.1694
-12.0204
-12.3626
-10.2897
-9.28684
-5.53079
-5.1988
-10.9611
-22.6553
-37.692
-49.1491
-56.36
-59.9351
-59.6575
-53.4613
-44.961
-36.9851
-30.2203
-24.4166
-20.7466
-18.7498
-17.3301
-16.6083
-13.8076
-13.5398
-10.4868
-9.83299
-13.6318
-22.0678
-35.8216
-49.0089
-57.0803
-61.7287
-63.7691
-61.4128
-55.3311
-48.3794
-41.8423
-35.6122
-30.5246
-26.8521
-23.8019
-21.5749
-17.5747
-18.0544
-15.8782
-15.0281
-16.7963
-22.1803
-32.4202
-46.215
-56.6254
-62.367
-65.415
-66.2667
-63.459
-58.7126
-53.0992
-47.1071
-41.4414
-36.2202
-31.521
-27.5354
-21.5124
-22.7927
-21.6627
-20.7608
-20.6555
-23.2476
-29.7458
-41.6215
-53.5696
-61.439
-65.937
-68.0062
-68.2761
-65.9369
-61.8314
-57.0157
-51.6916
-45.847
-39.6551
-34.28
-25.6562
-27.7122
-27.786
-27.0657
-25.2538
-25.1123
-28.7939
-37.1339
-48.3953
-57.9433
-64.3037
-68.2226
-69.8046
-69.6663
-67.2586
-63.6345
-59.1528
-53.5793
-46.862
-39.6768
-30.0618
-32.9353
-34.1339
-33.8275
-30.7278
-27.7708
-29.2211
-33.9318
-42.7393
-52.203
-59.8753
-65.3687
-68.9836
-70.0358
-69.1911
-66.7063
-62.7194
-57.4761
-50.8942
-43.1431
-34.6139
-38.471
-40.6763
-40.8748
-36.7412
-31.302
-30.2484
-32.2747
-37.9458
-45.6156
-53.3101
-59.7179
-64.6083
-67.3072
-67.3529
-66.0056
-62.7829
-58.1785
-52.136
-45.1144
-39.0562
-44.1817
-47.3065
-47.9138
-43.1232
-35.9603
-32.1195
-32.2653
-34.7377
-39.7426
-45.9231
-52.0388
-57.1323
-60.8037
-62.1197
-61.5564
-59.2207
-55.1425
-49.976
-44.756
-43.5361
-49.7261
-53.6304
-54.4834
-49.4867
-41.5001
-35.3209
-32.7233
-32.9076
-35.4219
-39.2519
-43.7905
-48.1155
-51.7297
-53.6993
-53.6316
-52.4071
-49.1956
-44.7154
-40.2472
-48.2866
-54.555
-58.9145
-59.8299
-55.1567
-46.7614
-39.1555
-34.5789
-32.7198
-32.7176
-34.1431
-36.5257
-39.4219
-41.9805
-43.6494
-43.9333
-43.3616
-41.1994
-37.7841
-34.3398
-52.9272
-58.0717
-62.1848
-62.9849
-59.0851
-51.4026
-43.5729
-37.5665
-33.8643
-32.1935
-31.7211
-31.7683
-32.6085
-33.6092
-34.3789
-34.4836
-34.0897
-32.7195
-30.3699
-27.9215
-56.4478
-59.7192
-62.8346
-63.1625
-60.0206
-54.1529
-47.1713
-40.9015
-36.0709
-32.8407
-30.9029
-29.6118
-28.7533
-28.1773
-27.7782
-27.3394
-26.7029
-25.545
-23.8884
-22.1006
-57.5816
-59.274
-61.4975
-61.4556
-58.9428
-54.3707
-48.9825
-43.438
-38.5018
-34.555
-31.562
-29.2748
-27.4616
-25.9633
-24.6511
-23.4328
-22.1943
-20.8566
-19.4184
-17.8865
-56.6561
-57.6547
-59.1143
-58.8098
-56.9255
-53.3697
-49.1158
-44.7547
-40.5496
-36.7338
-33.4629
-30.7037
-28.2741
-26.1007
-24.2044
-22.4793
-20.8298
-19.1982
-17.5913
-15.9317
-55.4232
-56.1907
-56.7027
-56.0903
-54.4392
-51.7045
-48.3969
-44.978
-41.707
-38.5399
-35.6226
-32.999
-30.5822
-28.317
-26.1954
-24.1855
-22.2294
-20.2759
-18.2824
-16.3647
-55.2283
-55.3137
-54.8595
-53.7472
-52.0585
-49.8122
-47.1344
-44.3546
-41.6613
-39.1762
-36.8724
-34.7087
-32.6845
-30.7695
-28.938
-27.1553
-25.3867
-23.5969
-21.729
-19.9101
-55.5441
-54.1011
-52.7392
-51.2236
-49.4794
-47.5117
-45.352
-43.0592
-40.7958
-38.6971
-36.8092
-35.1533
-33.6937
-32.3426
-31.059
-29.8711
-28.7876
-27.7822
-26.8118
-26.0686
-26.193
-18.9129
-15.0424
-13.91
-15.1344
-18.508
-23.5491
-29.0241
-33.22
-35.5543
-35.3827
-34.2048
-32.1028
-28.7491
-24.3626
-20.2122
-16.4644
-13.098
-10.1851
-7.70237
-26.0912
-19.3294
-14.8074
-13.1041
-13.3094
-15.4708
-18.9987
-22.7995
-25.9196
-27.2422
-27.6701
-27.3566
-26.1537
-24.126
-21.215
-18.2482
-15.4675
-12.8908
-10.6589
-8.64009
-28.7507
-22.5645
-17.212
-13.8826
-13.4992
-14.363
-16.1528
-18.6646
-20.7792
-21.9653
-22.1471
-21.9228
-21.1821
-19.9196
-18.0653
-16.0614
-14.1015
-12.2136
-10.5044
-8.90611
-32.1751
-27.1904
-21.2989
-16.5239
-15.1129
-15.1912
-15.6728
-16.6226
-17.7498
-18.3737
-18.4467
-18.1969
-17.6029
-16.6373
-15.3515
-13.9364
-12.5019
-11.0933
-9.80677
-8.56994
-34.8345
-31.613
-25.8193
-20.4055
-17.7474
-16.8374
-16.3593
-16.2783
-16.3339
-16.2726
-16.0373
-15.6145
-14.9793
-14.1356
-13.1454
-12.0704
-10.9713
-9.88347
-8.87714
-7.87928
-36.588
-35.3807
-29.9601
-24.2666
-20.6297
-18.7182
-17.3972
-16.4641
-15.7705
-15.1593
-14.5305
-13.8441
-13.0861
-12.2546
-11.3655
-10.4458
-9.52838
-8.62851
-7.79667
-6.96848
-38.1078
-38.1744
-33.2391
-27.4086
-22.9264
-20.2249
-18.2351
-16.5907
-15.3365
-14.2707
-13.2903
-12.3625
-11.4625
-10.576
-9.70245
-8.84917
-8.02755
-7.2401
-6.52453
-5.81816
-39.4509
-39.8372
-35.5666
-29.404
-24.3218
-20.8968
-18.2551
-16.1908
-14.5115
-13.0911
-11.8486
-10.7359
-9.72092
-8.78247
-7.90923
-7.09728
-6.34287
-5.64806
-5.03214
-4.42843
-40.8169
-40.9163
-36.8782
-29.8159
-24.341
-20.4629
-17.3632
-14.9262
-12.9623
-11.3164
-9.90924
-8.69138
-7.62308
-6.67529
-5.8291
-5.07134
-4.38885
-3.79331
-3.25713
-2.74663
-42.5887
-41.9174
-37.1961
-28.6772
-22.9636
-18.8208
-15.4368
-12.7722
-10.6477
-8.89381
-7.42369
-6.18025
-5.11862
-4.20728
-3.4215
-2.73769
-2.14458
-1.65503
-1.17306
-0.79072
-44.991
-42.5443
-36.2781
-26.4903
-20.6209
-16.2049
-12.6495
-9.88473
-7.70153
-5.92667
-4.46893
-3.2577
-2.24358
-1.39472
-0.696048
-0.11391
0.352998
0.738083
1.17199
1.21137
-47.5444
-42.6913
-33.8678
-23.2974
-17.3343
-12.8298
-9.20238
-6.41622
-4.23655
-2.48227
-1.1171
-0.0262942
0.853423
1.56182
2.13385
2.5778
2.90447
3.21403
3.47661
3.38397
-49.3622
-42.0302
-31.1454
-19.5178
-13.2977
-8.81805
-5.17363
-2.4514
-0.449499
1.10351
2.28511
3.1902
3.89116
4.43931
4.8612
5.15979
5.39441
5.62637
5.67868
5.57037
-50.361
-39.2768
-27.0984
-15.6573
-8.71361
-4.25887
-0.870529
1.56908
3.27421
4.53337
5.45765
6.13539
6.64037
7.02011
7.28906
7.47108
7.64545
7.79161
7.76089
7.65944
-51.1496
-33.7716
-20.6988
-11.0191
-3.68669
0.48746
3.34826
5.3172
6.63239
7.54394
8.18149
8.63036
8.96123
9.20776
9.37853
9.51001
9.66025
9.74116
9.66883
9.57488
-53.5394
-29.0089
-13.7331
-5.06663
1.35179
4.95054
7.16387
8.54661
9.44053
10.0269
10.433
10.7156
10.9216
11.0728
11.1784
11.2766
11.4034
11.4349
11.3414
11.259
-61.0675
-26.6193
-8.56711
1.24835
6.27427
8.8008
10.3675
11.204
11.7522
12.0839
12.3046
12.4523
12.5582
12.6368
12.696
12.7668
12.8662
12.874
12.7772
12.7014
-78.6473
-12.1815
-1.28756
6.77363
10.6987
11.9803
12.9835
13.3964
13.6576
13.7862