/*--------------------------------*- C++ -*----------------------------------*\
  =========                 |
  \\      /  F ield         | OpenFOAM: The Open Source CFD Toolbox
   \\    /   O peration     | Website:  https://openfoam.org
    \\  /    A nd           | Version:  6
     \\/     M anipulation  |
\*---------------------------------------------------------------------------*/
FoamFile
{
    version     2.0;
    format      ascii;
    class       surfaceVectorField;
    location    "3.24";
    object      Uf;
}
// * * * * * * * * * * * * * * * * * * * * * * * * * * * * * * * * * * * * * //

dimensions      [0 1 -1 0 0 0 0];

internalField   nonuniform List<vector> 
8193
(
(12.6433 -0.169676 6.23347e-19)
(12.3392 -0.0798769 1.25353e-19)
(12.0824 0.266768 2.43344e-18)
(12.9016 -0.681972 0)
(12.5723 -0.496843 3.47178e-19)
(12.9399 -1.23113 6.8763e-20)
(12.5697 -1.01691 -3.79521e-19)
(12.9148 -1.81387 1.2411e-19)
(12.5546 -1.5185 -4.91746e-19)
(12.8592 -2.47254 3.347e-19)
(12.5101 -2.07646 -4.25712e-19)
(12.5806 -3.21007 -6.01162e-20)
(12.4139 -2.74542 2.41149e-19)
(11.7653 -3.88063 5.14041e-20)
(12.0141 -3.47489 3.3351e-20)
(10.4605 -4.40541 5.05674e-20)
(11.0015 -4.04715 -3.42105e-19)
(9.08086 -4.90877 0)
(9.61645 -4.48032 0)
(7.90965 -5.46579 0)
(8.32025 -4.97072 1.01694e-19)
(6.94238 -5.98762 0)
(7.30062 -5.5318 0)
(6.07151 -6.35984 -4.02483e-20)
(6.46312 -6.02601 -1.46536e-19)
(5.25892 -6.58332 6.43581e-19)
(5.66591 -6.35588 -1.87983e-20)
(4.56147 -6.74618 7.94145e-20)
(4.8883 -6.56639 2.57783e-19)
(4.07266 -6.90281 1.38015e-21)
(4.23615 -6.75725 6.25675e-20)
(3.87276 -7.05631 -3.28246e-21)
(3.83879 -6.96076 1.33556e-20)
(4.02649 -7.20913 0)
(3.76902 -7.16258 1.41664e-19)
(4.54373 -7.31014 1.16312e-19)
(4.11775 -7.31662 -7.01664e-19)
(5.38077 -7.3085 9.0873e-21)
(4.86105 -7.37073 9.97705e-20)
(6.47717 -7.17324 -1.53134e-19)
(5.94071 -7.31145 -1.82335e-20)
(7.75359 -6.87052 -2.08284e-19)
(7.27993 -7.04059 3.62624e-20)
(9.06914 -6.39963 -2.12491e-19)
(8.76986 -6.62738 2.30273e-19)
(10.2654 -5.82012 -1.74445e-19)
(10.169 -6.08225 0)
(11.2329 -5.14817 -3.79641e-19)
(11.3766 -5.46103 -1.75845e-19)
(11.9013 -4.41097 -5.86756e-21)
(12.2769 -4.76461 1.67473e-19)
(12.2648 -3.65416 -1.11907e-19)
(12.815 -4.0098 3.2086e-19)
(12.3871 -2.93787 1.65881e-19)
(13.0074 -3.24461 3.07131e-19)
(12.3675 -2.32676 1.66989e-20)
(12.9507 -2.53386 -5.54449e-19)
(12.3003 -1.85923 -4.40775e-20)
(12.7649 -1.96255 -4.37146e-20)
(12.2316 -1.50427 0)
(12.6038 -1.5566 0)
(12.1587 -1.22294 0)
(12.4721 -1.25235 1.05324e-20)
(12.0825 -0.994539 1.1219e-21)
(12.3504 -1.01415 0)
(12.0105 -0.807781 1.74354e-21)
(12.2383 -0.822863 4.65161e-20)
(11.9482 -0.653966 6.2029e-22)
(12.1413 -0.668931 1.73189e-20)
(11.8976 -0.524839 -2.24498e-21)
(12.0624 -0.543312 8.01566e-21)
(11.8599 -0.413735 -8.61273e-21)
(12.0008 -0.438736 -1.30218e-21)
(11.8361 -0.316099 -1.7311e-20)
(11.9557 -0.347639 2.26391e-21)
(11.8179 -0.229387 -5.67439e-20)
(11.9263 -0.267714 1.35266e-20)
(11.7569 -0.151754 6.74991e-19)
(11.9122 -0.212308 1.2e-19)
(11.4983 -0.0947675 -6.40593e-20)
(11.8749 -0.158049 2.93696e-21)
(11.6318 -0.0558374 -8.53505e-20)
(10.8696 -0.0626099 -2.29015e-19)
(12.2988 -0.518578 -1.14185e-19)
(12.1053 -0.361491 3.29138e-19)
(12.1194 -0.205965 -2.96865e-18)
(12.3287 -0.936692 1.15524e-18)
(12.2252 -0.720054 3.17036e-19)
(12.3208 -1.37123 -4.95603e-19)
(12.2404 -1.14825 -2.31558e-20)
(12.2903 -1.85247 -3.06798e-19)
(12.23 -1.57633 -7.11254e-19)
(12.2132 -2.39995 -1.662e-19)
(12.1783 -2.06372 8.63536e-20)
(11.9832 -3.03894 3.22868e-19)
(12.0641 -2.64258 3.1706e-19)
(11.3492 -3.64571 -2.40725e-19)
(11.722 -3.29369 8.67003e-20)
(10.2228 -4.09288 -2.63959e-19)
(10.8452 -3.82061 -1.9012e-19)
(8.9052 -4.48442 1.01187e-19)
(9.53915 -4.17091 0)
(7.7423 -4.95043 1.0187e-19)
(8.22949 -4.54044 2.52168e-19)
(6.82222 -5.46936 -1.46483e-19)
(7.17962 -5.02421 -4.91266e-19)
(6.03039 -5.92376 4.21133e-19)
(6.35886 -5.53399 -1.37431e-19)
(5.26151 -6.26668 5.05606e-19)
(5.60234 -5.94261 2.49315e-19)
(4.54452 -6.55033 2.41551e-19)
(4.8366 -6.23924 -1.73691e-21)
(3.99628 -6.8142 5.15069e-20)
(4.16573 -6.50942 6.05862e-20)
(3.74242 -7.06663 1.58462e-19)
(3.73626 -6.78085 1.04099e-19)
(3.88124 -7.27631 -4.80555e-19)
(3.64909 -7.02828 -2.87392e-19)
(4.44824 -7.39295 -7.76845e-19)
(4.01625 -7.17984 -2.42418e-19)
(5.41878 -7.38199 9.00615e-20)
(4.81536 -7.16992 -1.20804e-18)
(6.7243 -7.16217 1.67841e-19)
(6.02116 -6.97757 3.59463e-19)
(8.2349 -6.75153 2.40886e-19)
(7.50469 -6.58337 3.65089e-20)
(9.75799 -6.26208 2.07861e-19)
(9.08831 -6.10266 2.0639e-19)
(11.1296 -5.69619 0)
(10.5817 -5.53261 0)
(12.2405 -5.06772 0)
(11.8732 -4.97072 0)
(12.9958 -4.36646 -6.80474e-20)
(12.8571 -4.38187 1.13871e-18)
(13.3638 -3.60995 1.44025e-19)
(13.4551 -3.73414 -5.48667e-19)
(13.3952 -2.85156 7.06935e-20)
(13.6573 -3.0367 -1.26076e-19)
(13.2014 -2.17191 -1.55265e-19)
(13.5387 -2.34123 -6.13053e-19)
(12.9456 -1.66443 0)
(13.2092 -1.75022 2.11441e-20)
(12.739 -1.30727 1.0486e-20)
(12.9262 -1.34252 1.82551e-21)
(12.5729 -1.04617 1.04725e-20)
(12.7169 -1.06192 -1.25701e-19)
(12.4278 -0.844973 -8.83104e-21)
(12.5468 -0.852423 0)
(12.3021 -0.686049 -1.54987e-20)
(12.4009 -0.689307 4.05148e-20)
(12.1977 -0.558637 8.29363e-22)
(12.2787 -0.561468 -2.60181e-20)
(12.1146 -0.4553 8.90239e-21)
(12.1802 -0.460033 2.93859e-20)
(12.0503 -0.36961 9.31719e-22)
(12.1036 -0.377058 -3.58352e-21)
(12.0026 -0.298305 -3.62291e-20)
(12.0449 -0.307091 5.67433e-21)
(11.9706 -0.239205 1.73821e-19)
(12.002 -0.248838 1.41172e-20)
(11.9502 -0.190137 4.11023e-20)
(11.9754 -0.20845 1.21179e-19)
(11.9203 -0.136118 -2.32351e-20)
(11.9474 -0.168027 -1.58159e-19)
(11.8944 -0.07752 1.76873e-19)
(11.7523 0.0296472 -1.974e-20)
(12.015 -0.618202 5.18358e-19)
(11.8392 -0.489147 -4.65536e-19)
(11.8803 -0.304671 4.60503e-19)
(12.0899 -0.980972 3.15555e-19)
(11.9284 -0.802304 -9.50396e-19)
(12.1045 -1.36787 1.54513e-19)
(11.9465 -1.16802 3.00269e-19)
(12.0694 -1.80362 6.18404e-19)
(11.9314 -1.55191 -1.03847e-18)
(11.9801 -2.31143 5.58734e-19)
(11.8674 -1.99231 -1.08005e-18)
(11.7598 -2.89362 -2.62478e-19)
(11.7454 -2.513 2.80151e-19)
(11.1898 -3.45894 1.59928e-19)
(11.4537 -3.11128 -1.9091e-20)
(10.1477 -3.86773 1.32479e-19)
(10.708 -3.6173 2.03777e-19)
(8.85539 -4.1776 1.43757e-19)
(9.49668 -3.92068 0)
(7.65653 -4.54231 -7.85131e-19)
(8.17918 -4.18286 1.45881e-19)
(6.70526 -5.007 -2.08421e-20)
(7.07308 -4.55843 -4.99794e-19)
(5.92403 -5.48023 5.83842e-19)
(6.23008 -5.02362 1.1814e-20)
(5.18151 -5.87719 9.55843e-20)
(5.49434 -5.45756 2.32733e-19)
(4.46546 -6.18697 -1.40564e-19)
(4.75281 -5.79732 -1.40665e-19)
(3.89583 -6.47223 8.69527e-20)
(4.06617 -6.08973 -5.92676e-20)
(3.62292 -6.72404 -2.41613e-19)
(3.6134 -6.35476 2.08328e-20)
(3.77071 -6.91119 7.82166e-21)
(3.51516 -6.56018 -4.08541e-20)
(4.38267 -6.94516 -6.84867e-19)
(3.92369 -6.61313 -1.19763e-18)
(5.4396 -6.75713 -9.82342e-19)
(4.81837 -6.43155 -2.71272e-18)
(6.84157 -6.35724 2.1238e-19)
(6.1403 -6.02535 2.11314e-19)
(8.41585 -5.84592 0)
(7.71481 -5.51613 0)
(9.98425 -5.32477 0)
(9.33858 -4.94802 2.71685e-18)
(11.409 -4.80441 0)
(10.8681 -4.36657 0)
(12.5828 -4.29194 1.12959e-18)
(12.1933 -3.89335 0)
(13.4101 -3.75778 6.63513e-19)
(13.2283 -3.47554 -9.73737e-20)
(13.8379 -3.15965 -8.25924e-19)
(13.9036 -3.03806 1.30118e-18)
(13.8748 -2.52798 -4.73903e-19)
(14.1501 -2.52055 2.38021e-20)
(13.6044 -1.90644 -5.42732e-20)
(14.0353 -1.9547 -3.07499e-19)
(13.2348 -1.42093 2.28243e-20)
(13.6032 -1.43863 -1.10083e-19)
(12.9414 -1.09271 -4.38843e-20)
(13.2003 -1.07064 -8.77169e-20)
(12.7233 -0.865574 -2.64331e-20)
(12.9159 -0.834132 5.81334e-21)
(12.5475 -0.695878 7.88036e-21)
(12.7049 -0.666207 -6.31403e-20)
(12.4008 -0.565085 -1.1618e-20)
(12.5316 -0.538819 7.79385e-21)
(12.2812 -0.462572 9.54397e-21)
(12.3898 -0.440802 -1.91769e-20)
(12.1868 -0.380116 2.80182e-20)
(12.2776 -0.364497 5.87436e-20)
(12.1142 -0.312772 4.77787e-21)
(12.1901 -0.302212 1.07095e-20)
(12.0594 -0.255452 8.31421e-20)
(12.1242 -0.250504 -2.48925e-20)
(12.0176 -0.205906 6.15597e-20)
(12.0749 -0.207531 1.8788e-19)
(11.9847 -0.169526 -2.24097e-19)
(12.0338 -0.171415 -3.10067e-20)
(11.965 -0.137119 -1.32452e-19)
(11.9995 -0.140902 -4.20913e-19)
(11.9855 -0.102011 2.61869e-19)
(11.9567 -0.0711977 4.19514e-19)
(11.753 -0.719965 -1.8274e-18)
(11.6003 -0.587243 -1.97336e-18)
(11.6379 -0.457528 -8.49297e-19)
(11.8003 -1.01651 -9.05011e-19)
(11.6745 -0.851707 1.39538e-18)
(11.7965 -1.35621 -7.88981e-19)
(11.6843 -1.16877 0)
(11.7521 -1.74865 -2.56845e-18)
(11.6633 -1.51162 -1.01841e-18)
(11.6549 -2.20015 -1.20847e-18)
(11.5938 -1.90571 -6.3819e-19)
(11.4571 -2.7243 5.12736e-19)
(11.4627 -2.36796 -9.51972e-21)
(10.9839 -3.25565 1.7724e-20)
(11.2042 -2.90927 5.84665e-19)
(10.0664 -3.63941 7.29932e-20)
(10.5776 -3.39728 9.35334e-19)
(8.82851 -3.88111 0)
(9.47609 -3.67431 0)
(7.59832 -4.13628 0)
(8.16822 -3.84112 2.02663e-19)
(6.59393 -4.50512 0)
(6.9968 -4.08654 3.81085e-19)
(5.79779 -4.95163 0)
(6.09406 -4.45612 -3.73066e-19)
(5.07086 -5.36445 0)
(5.35394 -4.86862 0)
(4.35874 -5.68952 -5.91918e-20)
(4.63501 -5.22252 -6.18053e-19)
(3.77413 -5.96435 -1.29361e-19)
(3.94335 -5.50281 -6.08717e-20)
(3.49259 -6.15919 1.9611e-19)
(3.48603 -5.71016 4.69772e-20)
(3.67202 -6.23127 -1.19593e-18)
(3.39826 -5.80137 1.6005e-18)
(4.3672 -6.07238 -3.10335e-18)
(3.87753 -5.6701 -1.52552e-19)
(5.52803 -5.68392 -1.44438e-18)
(4.86248 -5.26554 3.03991e-19)
(7.01997 -5.13725 0)
(6.26625 -4.6793 0)
(8.64389 -4.52722 2.69813e-18)
(7.89444 -4.04553 0)
(10.2319 -3.96335 2.7375e-18)
(9.51594 -3.39831 3.02568e-19)
(11.6641 -3.47258 0)
(11.0296 -2.81903 0)
(12.8497 -3.09757 -1.39433e-18)
(12.313 -2.44538 0)
(13.7284 -2.77822 5.28276e-19)
(13.3466 -2.21957 -1.39481e-18)
(14.2201 -2.40588 2.24986e-18)
(14.0994 -2.04458 6.40853e-19)
(14.3063 -1.96102 8.66291e-20)
(14.432 -1.77086 3.85916e-19)
(14.0137 -1.48312 -2.21277e-19)
(14.3629 -1.39407 -1.20105e-19)
(13.5465 -1.08027 2.25448e-20)
(13.8885 -1.02434 9.05952e-20)
(13.163 -0.809583 4.72872e-20)
(13.3958 -0.73927 -1.76774e-20)
(12.8884 -0.633464 -3.13666e-20)
(13.0481 -0.564005 1.00857e-19)
(12.6807 -0.508745 -6.22586e-20)
(12.8061 -0.449162 3.45207e-20)
(12.513 -0.415469 0)
(12.6152 -0.364871 0)
(12.3793 -0.343063 2.10691e-20)
(12.4632 -0.301923 1.92616e-20)
(12.2747 -0.285778 3.2363e-20)
(12.3438 -0.253597 -3.8097e-20)
(12.1947 -0.2393 -2.42198e-20)
(12.2513 -0.213868 7.25534e-20)
(12.1348 -0.200232 7.21797e-20)
(12.1819 -0.181375 -4.41523e-20)
(12.0878 -0.166175 -4.74695e-20)
(12.1307 -0.153872 9.49123e-20)
(12.0482 -0.135812 -3.7622e-19)
(12.0885 -0.128531 -1.11432e-19)
(12.0221 -0.106808 1.54119e-19)
(12.0531 -0.108467 -2.22142e-19)
(12.0354 -0.0872897 2.40776e-19)
(12.0207 -0.0759386 -2.59502e-19)
(11.5251 -0.748728 7.20568e-19)
(11.392 -0.631394 -1.00359e-18)
(11.4231 -0.5208 2.6082e-18)
(11.5656 -1.00969 2.14649e-18)
(11.4534 -0.858277 6.19376e-19)
(11.557 -1.31053 -1.66822e-19)
(11.4566 -1.13441 -3.61488e-19)
(11.5061 -1.66313 9.90597e-19)
(11.4263 -1.44233 -1.16367e-19)
(11.4011 -2.06978 5.70591e-19)
(11.3501 -1.79749 2.83442e-18)
(11.2098 -2.54098 2.62532e-20)
(11.21 -2.2089 -5.2796e-19)
(10.8022 -3.0376 1.5229e-18)
(10.9688 -2.69322 -9.66824e-20)
(9.99818 -3.40746 8.78335e-19)
(10.4426 -3.16071 1.98465e-19)
(8.83019 -3.59847 2.01697e-19)
(9.4628 -3.42859 3.43288e-19)
(7.57849 -3.74375 5.8842e-19)
(8.19168 -3.5197 -2.10305e-19)
(6.50262 -3.98363 -1.87048e-19)
(6.96368 -3.6266 3.88605e-19)
(5.65758 -4.34578 -3.85027e-19)
(5.97608 -3.85446 3.05559e-20)
(4.92785 -4.72251 -6.17267e-19)
(5.20177 -4.1812 -2.01004e-19)
(4.22464 -5.02685 -6.36795e-19)
(4.493 -4.49975 -1.99469e-19)
(3.64877 -5.23743 1.67459e-20)
(3.81228 -4.72301 -6.76077e-19)
(3.38245 -5.30064 1.16062e-18)
(3.3781 -4.81822 -2.29851e-20)
(3.60841 -5.1986 3.01006e-18)
(3.31503 -4.73708 3.4987e-19)
(4.38254 -4.82022 3.91602e-18)
(3.88057 -4.38411 -2.92205e-19)
(5.61461 -4.23544 2.06851e-18)
(4.93908 -3.76493 2.06024e-18)
(7.15384 -3.54209 0)
(6.39091 -3.01106 3.33317e-18)
(8.78083 -2.84947 -2.68581e-18)
(8.0264 -2.25835 -5.1458e-20)
(10.3293 -2.25446 -2.72071e-18)
(9.61102 -1.57329 -2.65614e-18)
(11.6867 -1.81961 0)
(11.052 -1.0357 0)
(12.8041 -1.59395 0)
(12.2307 -0.785249 -3.72394e-18)
(13.6948 -1.51319 -8.5975e-19)
(13.2025 -0.761543 2.86114e-19)
(14.267 -1.43178 -8.61219e-19)
(13.9983 -0.860328 -1.30195e-18)
(14.4444 -1.21871 1.09212e-19)
(14.474 -0.880969 -3.13748e-19)
(14.2097 -0.939594 1.63735e-19)
(14.4855 -0.736971 -5.67706e-19)
(13.7244 -0.673258 4.97663e-20)
(14.0256 -0.544539 7.27487e-20)
(13.2792 -0.488007 6.90621e-20)
(13.4911 -0.374152 -2.30138e-20)
(12.966 -0.377239 1.2976e-19)
(13.1021 -0.275602 6.80653e-20)
(12.7406 -0.305095 8.01825e-20)
(12.8433 -0.22045 3.91225e-21)
(12.565 -0.253037 1.93708e-20)
(12.6475 -0.183509 -6.20344e-20)
(12.4274 -0.212808 -3.51361e-20)
(12.4952 -0.157691 -5.57542e-20)
(12.3203 -0.181141 6.2119e-21)
(12.376 -0.137256 -1.39245e-19)
(12.2388 -0.155231 4.67522e-20)
(12.2844 -0.119757 -2.70407e-20)
(12.1781 -0.133555 -1.79411e-20)
(12.2156 -0.105232 1.16601e-23)
(12.1318 -0.114751 -7.86161e-21)
(12.1653 -0.0921037 -8.00102e-21)
(12.0938 -0.0967943 3.36606e-20)
(12.126 -0.0788182 -5.84456e-21)
(12.0651 -0.0786234 3.21588e-20)
(12.0937 -0.0704305 3.29301e-20)
(12.0706 -0.0614774 3.6252e-19)
(12.0547 -0.0622022 -5.23615e-19)
(11.3245 -0.748084 -1.39567e-18)
(11.2101 -0.643327 0)
(11.244 -0.550236 -7.94242e-18)
(11.3532 -0.979131 -1.75981e-18)
(11.2597 -0.840772 9.33737e-19)
(11.3351 -1.24907 -2.37525e-19)
(11.2563 -1.08047 -2.85713e-18)
(11.2761 -1.56555 1.70276e-18)
(11.2168 -1.35743 1.82319e-18)
(11.1631 -1.93121 1.76872e-18)
(11.1323 -1.67762 -1.91124e-18)
(10.9732 -2.35174 -6.51885e-19)
(10.9832 -2.0436 8.328e-20)
(10.6169 -2.80807 -1.42751e-18)
(10.7468 -2.4699 -1.67448e-18)
(9.92259 -3.16812 -3.47484e-19)
(10.2968 -2.90705 -6.88082e-19)
(8.84533 -3.32626 -6.09032e-20)
(9.44354 -3.17536 -8.51599e-20)
(7.59703 -3.37218 -3.888e-19)
(8.24022 -3.21556 -3.12642e-19)
(6.452 -3.4632 4.48708e-19)
(6.98084 -3.19129 -1.18673e-19)
(5.53246 -3.67801 2.5966e-19)
(5.90589 -3.2478 6.53279e-19)
(4.77537 -3.96004 2.60689e-19)
(5.06513 -3.41901 -1.30694e-18)
(4.08343 -4.19165 -2.35644e-19)
(4.34707 -3.62995 3.35893e-19)
(3.54611 -4.28247 -7.80619e-19)
(3.69361 -3.7518 1.79173e-19)
(3.31613 -4.18249 -9.93322e-19)
(3.30075 -3.69907 -8.06189e-19)
(3.58976 -3.8671 -3.02935e-18)
(3.28329 -3.41389 -9.73695e-19)
(4.43902 -3.27103 -2.09942e-18)
(3.93189 -2.82416 -2.6236e-18)
(5.71946 -2.50869 3.31483e-18)
(5.04123 -2.01734 0)
(7.26452 -1.69435 3.32022e-18)
(6.50554 -1.12254 6.87097e-18)
(8.85285 -0.969698 1.66372e-21)
(8.09438 -0.299172 -1.02515e-19)
(10.3183 -0.382105 4.92393e-20)
(9.62008 0.362155 9.72765e-20)
(11.5559 -0.0443965 -3.69958e-18)
(10.9391 0.786658 4.49351e-18)
(12.5654 0.0102287 -3.43651e-18)
(11.9704 0.867793 1.37111e-18)
(13.4267 -0.142643 -1.98373e-19)
(12.8374 0.68869 1.01315e-19)
(14.1196 -0.352406 -6.61764e-19)
(13.6312 0.354131 -3.71189e-19)
(14.4477 -0.418173 -3.81249e-19)
(14.2572 0.0539151 1.74488e-20)
(14.2658 -0.344397 -6.64708e-20)
(14.4116 -0.061214 -8.92505e-20)
(13.7791 -0.239504 -2.49938e-20)
(14.0044 -0.0555147 2.27635e-20)
(13.3088 -0.155264 -2.26496e-20)
(13.4815 -0.00738909 2.32304e-19)
(12.9755 -0.117939 -8.82679e-20)
(13.0759 0.007039 3.14125e-20)
(12.7464 -0.101841 -1.48621e-19)
(12.8166 3.77322e-05 -1.18204e-19)
(12.5742 -0.0911249 -1.30113e-19)
(12.6299 -0.0106996 -2.27863e-19)
(12.4408 -0.0828111 -1.59554e-19)
(12.4862 -0.0203095 -7.5396e-20)
(12.3375 -0.0758008 -1.72119e-19)
(12.3741 -0.0257495 2.05853e-20)
(12.2592 -0.0693031 -7.43527e-20)
(12.2888 -0.0286907 -3.51727e-20)
(12.2012 -0.0633526 1.01243e-20)
(12.2245 -0.0299419 -9.40245e-20)
(12.1586 -0.0574458 -5.97684e-21)
(12.1782 -0.0296301 1.0787e-19)
(12.1248 -0.0503598 -5.67994e-21)
(12.1444 -0.0279261 3.5936e-22)
(12.0966 -0.0424183 3.7351e-19)
(12.1171 -0.028383 -6.60727e-21)
(12.0932 -0.0258638 1.83669e-19)
(12.0785 -0.0354262 7.2851e-19)
(11.1499 -0.717998 2.29145e-18)
(11.0559 -0.623791 -1.79389e-18)
(11.096 -0.544005 7.69009e-18)
(11.1661 -0.927991 -2.55781e-19)
(11.0884 -0.801853 2.28429e-18)
(11.141 -1.17336 -7.36938e-19)
(11.0781 -1.01177 -1.24085e-18)
(11.0747 -1.45848 -1.70009e-18)
(11.0299 -1.26026 2.24758e-18)
(10.954 -1.78504 -3.65006e-18)
(10.9371 -1.54812 -1.61735e-18)
(10.7596 -2.15447 -9.09715e-19)
(10.7802 -1.87325 1.42575e-18)
(10.4337 -2.56254 -9.47495e-19)
(10.54 -2.24268 1.98577e-19)
(9.8333 -2.90825 -4.38744e-19)
(10.1404 -2.6369 9.89642e-19)
(8.86161 -3.05321 -3.39206e-19)
(9.40615 -2.90538 -4.53257e-19)
(7.6495 -3.02173 9.55409e-21)
(8.30064 -2.92053 -1.67274e-19)
(6.45688 -2.96061 1.03986e-19)
(7.04881 -2.78613 -8.85595e-20)
(5.4547 -2.9846 -8.29449e-19)
(5.90644 -2.66456 1.14349e-19)
(4.6453 -3.0995 -1.28412e-18)
(4.98283 -2.62784 7.65792e-19)
(3.96108 -3.19182 7.1026e-19)
(4.23149 -2.64767 1.44775e-18)
(3.48502 -3.1262 1.08914e-18)
(3.60683 -2.61708 8.72552e-19)
(3.32429 -2.83962 4.8861e-20)
(3.2687 -2.39581 7.82552e-20)
(3.66119 -2.28597 -5.0933e-20)
(3.32267 -1.89778 -2.82889e-20)
(4.56275 -1.49521 -5.2027e-20)
(4.03001 -1.0725 4.56902e-18)
(5.84318 -0.59475 3.29503e-18)
(5.16027 -0.113152 0)
(7.33535 0.291308 3.2967e-18)
(6.60101 0.869071 -2.87469e-18)
(8.84477 1.00129 6.96071e-21)
(8.0991 1.6849 -5.10065e-20)
(10.2027 1.48462 4.51368e-18)
(9.52187 2.2364 -2.78109e-20)
(11.301 1.64978 8.35986e-18)
(10.688 2.47158 -6.33069e-19)
(12.1855 1.51166 3.66574e-18)
(11.5655 2.34406 3.93526e-18)
(12.9841 1.15609 -1.12454e-19)
(12.3197 1.96762 -2.55081e-19)
(13.7172 0.723527 -1.60171e-19)
(13.0878 1.44259 6.85001e-20)
(14.1902 0.386902 -2.06766e-19)
(13.8143 0.930896 1.05567e-18)
(14.139 0.232965 0)
(14.1391 0.592759 0)
(13.7026 0.182476 2.54703e-19)
(13.8447 0.411301 0)
(13.2451 0.160445 2.81854e-19)
(13.3741 0.332701 7.05975e-19)
(12.9133 0.122105 3.56115e-21)
(12.9758 0.263085 6.02507e-20)
(12.6968 0.0856039 -1.90361e-19)
(12.7354 0.194184 -3.97735e-20)
(12.5388 0.057148 -1.56621e-19)
(12.5684 0.140101 -2.24998e-19)
(12.417 0.0360472 1.0927e-19)
(12.441 0.0997357 -1.8079e-21)
(12.3234 0.0210305 1.59442e-19)
(12.3423 0.071758 1.07972e-19)
(12.2526 0.0106685 -5.5572e-20)
(12.2676 0.051486 5.11956e-20)
(12.2004 0.00342417 8.67765e-21)
(12.2112 0.0372318 -1.02753e-19)
(12.1634 -0.00151157 1.10506e-19)
(12.1708 0.0270692 4.52571e-20)
(12.1356 -0.00397552 -9.07301e-22)
(12.1434 0.0195349 -2.1863e-19)
(12.1112 -0.00459051 -1.9161e-19)
(12.1221 0.012699 2.35625e-19)
(12.1008 0.0104166 -2.07797e-19)
(12.0912 -0.00480015 -6.23613e-19)
(11.003 -0.67977 -1.78208e-18)
(10.9361 -0.586879 1.64159e-19)
(10.9734 -0.536767 -6.23692e-18)
(11.0014 -0.866873 1.25387e-18)
(10.9415 -0.744942 -1.86343e-18)
(10.9667 -1.08818 1.74511e-18)
(10.9196 -0.932375 1.28709e-18)
(10.893 -1.34282 2.4149e-18)
(10.8626 -1.15524 -1.42944e-18)
(10.765 -1.63137 3.46931e-18)
(10.7615 -1.41187 3.93928e-18)
(10.5637 -1.95393 2.59523e-18)
(10.5967 -1.69811 -3.86163e-19)
(10.2534 -2.30888 2.16546e-18)
(10.3496 -2.01367 1.42946e-18)
(9.72816 -2.6293 1.03517e-18)
(9.97856 -2.35365 -1.87151e-19)
(8.86884 -2.76725 -2.85843e-19)
(9.34751 -2.6117 5.23066e-19)
(7.72688 -2.68236 -2.72999e-19)
(8.36088 -2.62297 2.0922e-19)
(6.52316 -2.48815 -8.53975e-20)
(7.15908 -2.40944 -2.28603e-19)
(5.45473 -2.3099 1.73905e-18)
(5.98732 -2.1252 -5.63545e-19)
(4.58638 -2.19548 3.54574e-18)
(4.99412 -1.86589 9.57269e-19)
(3.90856 -2.07426 1.6005e-18)
(4.1955 -1.63884 -3.25675e-19)
(3.48631 -1.82384 -4.77063e-20)
(3.57883 -1.38969 8.99516e-19)
(3.41453 -1.33941 1.19197e-19)
(3.29981 -0.972774 3.01144e-20)
(3.82269 -0.547846 5.96307e-18)
(3.4483 -0.265817 -3.42913e-20)
(4.71711 0.403146 6.11381e-18)
(4.17975 0.755587 2.14302e-18)
(5.94962 1.38835 -6.45617e-18)
(5.29577 1.80945 0)
(7.35417 2.26289 -6.55083e-18)
(6.66874 2.79511 -1.22201e-18)
(8.74913 2.87295 -7.55945e-20)
(8.03595 3.51806 -2.67134e-21)
(9.97364 3.17208 -4.41515e-18)
(9.31948 3.87495 -7.58849e-20)
(10.9185 3.12084 -4.31164e-18)
(10.3205 3.87863 -4.37125e-18)
(11.6714 2.77365 -1.05482e-20)
(11.0509 3.53299 8.1285e-20)
(12.3999 2.23385 -7.4103e-20)
(11.7046 2.97527 -7.55574e-20)
(13.1611 1.62718 5.50911e-19)
(12.4434 2.29913 2.53716e-19)
(13.7458 1.11032 5.46918e-19)
(13.2494 1.64246 5.45477e-19)
(13.8378 0.769533 0)
(13.7237 1.15759 0)
(13.5109 0.567823 4.15982e-19)
(13.5645 0.825242 -1.17777e-20)
(13.0992 0.435378 4.37925e-19)
(13.1778 0.620183 7.44963e-19)
(12.7936 0.326808 2.27763e-20)
(12.8169 0.473054 4.00604e-21)
(12.6037 0.243462 -5.2613e-20)
(12.6124 0.348546 -8.58742e-21)
(12.4676 0.180392 -4.26993e-20)
(12.4724 0.25975 5.46269e-19)
(12.3637 0.134532 0)
(12.3682 0.19442 3.46246e-19)
(12.2843 0.101383 0)
(12.2874 0.148327 7.96609e-20)
(12.2243 0.0774951 0)
(12.2267 0.114525 0)
(12.1802 0.0600264 -6.24472e-20)
(12.1805 0.0902219 1.37545e-19)
(12.1499 0.0469559 -2.88915e-19)
(12.1474 0.07221 1.30627e-19)
(12.129 0.0374765 4.55631e-20)
(12.1263 0.0581767 -4.64695e-19)
(12.1108 0.0310677 2.0405e-19)
(12.1119 0.0467963 4.94774e-19)
(12.0971 0.0398432 2.11704e-19)
(12.0935 0.0271402 -3.4393e-19)
(10.88 -0.637278 3.16082e-20)
(10.83 -0.528869 9.1643e-19)
(10.8742 -0.500628 -3.08937e-18)
(10.8603 -0.799983 -1.90608e-18)
(10.8188 -0.674639 2.7921e-18)
(10.8134 -0.993818 -1.86413e-18)
(10.7817 -0.843878 0)
(10.73 -1.21803 -6.07613e-20)
(10.7132 -1.0426 -1.42677e-19)
(10.5939 -1.47166 1.42708e-19)
(10.602 -1.26836 1.52841e-19)
(10.3856 -1.75011 -1.67609e-18)
(10.4298 -1.5167 -1.93186e-18)
(10.0809 -2.04971 -9.30174e-19)
(10.1767 -1.78205 2.74873e-18)
(9.61075 -2.33164 -7.41048e-19)
(9.81907 -2.06141 -3.28867e-18)
(8.8613 -2.46405 1.05398e-18)
(9.26879 -2.29143 5.322e-21)
(7.81917 -2.35056 2.72605e-19)
(8.41068 -2.30958 2.76571e-19)
(6.64768 -2.05233 -7.12997e-19)
(7.30016 -2.05366 -1.72229e-20)
(5.5498 -1.69003 -1.39259e-18)
(6.14534 -1.64007 3.28626e-20)
(4.6423 -1.32917 -2.46078e-18)
(5.11976 -1.18151 -9.78423e-19)
(3.96812 -0.954629 -5.53731e-19)
(4.28061 -0.708985 -1.60712e-18)
(3.58178 -0.455449 1.00193e-18)
(3.6679 -0.194381 -3.3086e-18)
(3.56744 0.245297 -5.49715e-21)
(3.42975 0.456937 -3.55061e-20)
(3.99824 1.20985 -7.34519e-18)
(3.65546 1.35961 -5.60368e-21)
(4.85117 2.25863 -7.46854e-18)
(4.38708 2.48965 -5.82184e-18)
(6.02186 3.23745 5.27191e-18)
(5.44773 3.54685 3.97252e-18)
(7.32414 4.00307 5.33885e-18)
(6.70786 4.45735 8.21094e-18)
(8.5753 4.46374 -2.68442e-21)
(7.93158 5.02134 -1.16995e-20)
(9.63841 4.53367 -5.5641e-21)
(9.04066 5.12949 3.20064e-18)
(10.4314 4.25431 1.45631e-21)
(9.87673 4.90482 1.84666e-20)
(11.069 3.71384 3.66001e-21)
(10.4756 4.36986 1.21344e-18)
(11.7381 3.02692 2.5091e-19)
(11.0481 3.67265 -3.3874e-19)
(12.5243 2.30008 2.51378e-19)
(11.7605 2.8957 -2.22132e-19)
(13.2202 1.66726 1.14342e-22)
(12.6311 2.15528 7.13576e-19)
(13.4442 1.20856 -1.17589e-20)
(13.2417 1.57914 -1.05366e-18)
(13.2257 0.878321 1.98775e-19)
(13.1981 1.14804 1.12324e-18)
(12.89 0.650197 1.85625e-19)
(12.9174 0.834379 -6.36748e-19)
(12.6325 0.484925 -2.42563e-20)
(12.6207 0.624442 -1.36036e-19)
(12.4782 0.361833 6.17597e-19)
(12.4601 0.457091 1.12553e-19)
(12.3704 0.271709 9.46913e-19)
(12.3542 0.3433 -1.49851e-19)
(12.2893 0.2069 4.17848e-19)
(12.278 0.259185 -5.18616e-19)
(12.2274 0.160156 7.69366e-20)
(12.2181 0.199917 4.08378e-19)
(12.1807 0.126242 1.39934e-19)
(12.1731 0.15651 1.47223e-19)
(12.146 0.101296 3.30741e-19)
(12.1383 0.125247 1.3211e-19)
(12.1227 0.0823612 -6.27249e-20)
(12.1128 0.102125 4.84714e-20)
(12.1085 0.0678171 3.66968e-20)
(12.0974 0.0839284 -4.93612e-19)
(12.0976 0.0570438 4.90688e-19)
(12.0892 0.0692192 8.34349e-19)
(12.0814 0.0589207 3.47842e-20)
(12.0849 0.0493773 -9.73783e-20)
(10.7784 -0.569826 3.58788e-18)
(10.7368 -0.460325 -9.60955e-19)
(10.7886 -0.445036 2.64199e-18)
(10.7425 -0.716848 4.73992e-18)
(10.7102 -0.591868 1.7236e-18)
(10.6804 -0.888985 1.81235e-18)
(10.6589 -0.743443 -3.56627e-20)
(10.5841 -1.08546 7.02034e-20)
(10.5787 -0.919475 2.78524e-18)
(10.4386 -1.30491 -1.91962e-18)
(10.4572 -1.11566 -1.03799e-18)
(10.2241 -1.54093 2.49378e-18)
(10.2782 -1.32688 2.78457e-18)
(9.92084 -1.78587 6.07859e-19)
(10.0216 -1.54506 2.6331e-18)
(9.48789 -2.01733 -2.70232e-18)
(9.6707 -1.763 -1.64709e-18)
(8.8368 -2.13642 -8.10219e-19)
(9.17763 -1.9469 -6.34908e-20)
(7.91588 -2.01581 -1.23858e-20)
(8.44328 -1.969 -7.98637e-19)
(6.82223 -1.65177 7.54113e-19)
(7.45773 -1.70695 7.77448e-19)
(5.74317 -1.14366 5.07411e-19)
(6.36877 -1.21158 5.08603e-19)
(4.82601 -0.577005 -7.81473e-20)
(5.35145 -0.599127 -9.08454e-19)
(4.14612 0.0523828 -1.9273e-18)
(4.50836 0.078462 -1.56916e-18)
(3.77285 0.806882 -1.94592e-18)
(3.91025 0.835815 1.58063e-18)
(3.77913 1.72363 -3.62477e-20)
(3.69961 1.71885 2.62077e-19)
(4.20229 2.7959 3.46924e-18)
(3.95808 2.77501 1.71091e-20)
(5.0178 3.85426 7.52255e-18)
(4.6583 3.92108 3.51943e-18)
(6.10832 4.75877 7.54437e-18)
(5.6346 4.90429 2.70644e-18)
(7.27851 5.36341 3.55586e-18)
(6.74238 5.69256 -6.29346e-18)
(8.36293 5.62038 3.17306e-18)
(7.81279 6.03498 -9.02028e-21)
(9.25208 5.46252 3.23369e-18)
(8.72979 5.91335 -4.82887e-19)
(9.90471 4.9921 1.22523e-18)
(9.4117 5.51144 2.38655e-20)
(10.4453 4.30982 8.66745e-19)
(9.89554 4.848 -1.84265e-19)
(11.0659 3.53128 -6.01083e-19)
(10.4025 4.07154 1.63055e-19)
(11.8669 2.74286 4.47975e-19)
(11.0917 3.24412 -2.7839e-19)
(12.6545 2.0477 -3.46951e-19)
(12.0068 2.47619 -4.55677e-20)
(12.9937 1.51439 9.97873e-20)
(12.7359 1.85049 -1.76925e-19)
(12.8864 1.092 2.1164e-19)
(12.7866 1.36095 3.71054e-19)
(12.6446 0.800301 -9.9384e-19)
(12.628 0.968353 -1.17222e-18)
(12.4456 0.589425 7.30556e-22)
(12.4024 0.71517 1.14462e-18)
(12.3335 0.437004 -6.78121e-19)
(12.2927 0.518775 1.10184e-19)
(12.2594 0.328376 -1.65106e-18)
(12.2262 0.388617 -5.72686e-19)
(12.2048 0.250724 -5.16905e-19)
(12.1801 0.292065 -2.67628e-19)
(12.1627 0.194855 4.67611e-19)
(12.1423 0.224913 -2.40943e-20)
(12.1305 0.154509 1.44471e-19)
(12.1138 0.176431 -5.48079e-19)
(12.1055 0.125082 -1.35179e-19)
(12.0912 0.14192 -1.64087e-19)
(12.088 0.102786 -3.90002e-19)
(12.0733 0.116586 1.37591e-19)
(12.0785 0.0852373 3.60414e-19)
(12.0624 0.0965823 -6.6527e-19)
(12.073 0.0713564 3.46687e-19)
(12.0581 0.0804283 3.74934e-19)
(12.0552 0.0683567 -5.50869e-20)
(12.0649 0.0603252 1.5196e-19)
(10.6886 -0.492735 -2.65668e-18)
(10.6548 -0.383215 6.55391e-20)
(10.7126 -0.380603 0)
(10.6399 -0.622953 -2.80996e-18)
(10.6141 -0.49943 -6.07964e-18)
(10.5646 -0.773181 8.35289e-19)
(10.5498 -0.63169 -3.81112e-20)
(10.4552 -0.943606 1.8222e-18)
(10.4576 -0.783562 2.63429e-18)
(10.2994 -1.12905 3.74282e-18)
(10.3276 -0.950663 -2.67022e-18)
(10.0793 -1.32313 2.98266e-18)
(10.1429 -1.12546 1.12617e-18)
(9.77689 -1.5158 5.19994e-19)
(9.88509 -1.29876 -9.25433e-19)
(9.36867 -1.68971 9.28023e-19)
(9.5409 -1.45865 1.40427e-18)
(8.79825 -1.7815 -2.50175e-20)
(9.08644 -1.58458 3.00239e-18)
(8.00643 -1.66619 -9.6171e-20)
(8.45794 -1.59565 -8.14364e-19)
(7.03178 -1.27832 5.32645e-19)
(7.61655 -1.35373 5.34761e-19)
(6.02177 -0.680001 -9.09348e-19)
(6.63697 -0.831936 4.91368e-19)
(5.12869 0.0437493 -2.42494e-18)
(5.67504 -0.122089 -5.24009e-20)
(4.4517 0.868123 -5.75929e-19)
(4.86265 0.703176 2.19592e-18)
(4.08085 1.81885 1.27367e-18)
(4.29927 1.63211 8.44094e-19)
(4.08903 2.88928 1.55978e-19)
(4.11458 2.67469 -2.60133e-18)
(4.49802 4.01124 1.73802e-20)
(4.37187 3.80813 -5.10842e-19)
(5.26161 5.01571 -7.15693e-19)
(5.00256 4.90687 0)
(6.23508 5.79292 -9.46548e-18)
(5.86459 5.77802 -4.42751e-18)
(7.24723 6.21948 -8.80177e-18)
(6.80274 6.40133 -8.85296e-18)
(8.15611 6.25679 -3.22198e-18)
(7.7039 6.50282 0)
(8.87252 5.93638 -3.24011e-18)
(8.43737 6.25108 -3.22471e-18)
(9.39371 5.34862 -1.18939e-18)
(8.9752 5.74565 -4.3272e-20)
(9.84889 4.59044 -8.85314e-19)
(9.35389 5.01826 -1.14122e-18)
(10.4276 3.77639 3.26707e-19)
(9.8048 4.21819 -3.62914e-19)
(11.2345 2.97466 -8.75279e-19)
(10.4715 3.37708 -2.74663e-19)
(12.0923 2.25892 9.51469e-20)
(11.408 2.62508 -6.9281e-19)
(12.5294 1.68483 1.3772e-19)
(12.2364 1.97712 -6.75145e-19)
(12.5291 1.21471 -1.00529e-18)
(12.3704 1.46476 -7.88926e-19)
(12.3835 0.881079 9.94968e-19)
(12.3303 1.02475 1.12489e-18)
(12.2475 0.639576 1.22229e-18)
(12.1769 0.749509 1.51752e-19)
(12.1837 0.469656 2.16006e-19)
(12.1235 0.534158 -8.14979e-19)
(12.1471 0.350048 7.91334e-19)
(12.0981 0.395952 -3.43966e-20)
(12.1201 0.265704 2.08832e-19)
(12.0831 0.2946 9.89358e-19)
(12.0974 0.206013 -9.6084e-19)
(12.0679 0.226253 5.32632e-19)
(12.0788 0.163636 -7.2979e-19)
(12.0561 0.177608 -6.03384e-19)
(12.0627 0.133042 1.51317e-19)
(12.0455 0.143383 2.48357e-19)
(12.0502 0.110052 -1.6801e-19)
(12.0352 0.117997 -2.768e-19)
(12.0434 0.091689 -5.93397e-19)
(12.0275 0.0980131 1.79145e-20)
(12.0408 0.0763388 -5.06392e-20)
(12.0241 0.0820643 1.827e-19)
(12.0232 0.0693766 1.66247e-19)
(12.037 0.0633101 1.25242e-19)
(10.6077 -0.404226 -3.34422e-18)
(10.5854 -0.296113 7.1158e-20)
(10.6461 -0.306582 2.22138e-18)
(10.547 -0.517206 -3.46079e-18)
(10.5304 -0.396166 1.72588e-19)
(10.4608 -0.645695 1.72694e-18)
(10.4544 -0.507969 0)
(10.3413 -0.787835 -1.71661e-18)
(10.3521 -0.634625 1.42533e-18)
(10.1767 -0.940029 -5.47806e-18)
(10.2138 -0.77101 -1.86138e-18)
(9.95243 -1.09332 -2.83179e-18)
(10.0254 -0.9096 -1.28293e-19)
(9.65252 -1.23665 -1.37582e-19)
(9.76873 -1.03951 -4.57068e-18)
(9.26294 -1.35167 3.36867e-18)
(9.4352 -1.14647 9.74812e-19)
(8.75466 -1.40229 2.3436e-18)
(9.00872 -1.21233 6.88116e-19)
(8.08355 -1.29153 -2.68612e-19)
(8.46166 -1.19312 -1.80154e-20)
(7.25107 -0.919055 4.92723e-19)
(7.76214 -0.976636 9.91145e-19)
(6.3523 -0.287372 9.83775e-19)
(6.92706 -0.477083 -9.86366e-19)
(5.52443 0.530062 2.59175e-18)
(6.06605 0.262794 1.35225e-18)
(4.88168 1.47648 2.12289e-18)
(5.31574 1.16588 2.21751e-18)
(4.52563 2.5386 -1.10247e-18)
(4.80236 2.18574 -1.34072e-19)
(4.52894 3.67038 -1.29617e-18)
(4.64174 3.29392 5.76027e-19)
(4.90364 4.77242 -5.35783e-19)
(4.87673 4.424 -3.92734e-19)
(5.57764 5.68897 -3.06227e-18)
(5.41301 5.43724 -1.35373e-18)
(6.39807 6.30321 -3.29295e-18)
(6.12418 6.18144 -4.79932e-18)
(7.23631 6.53804 -8.99654e-20)
(6.87687 6.6446 -2.13606e-18)
(7.97857 6.43098 0)