/*--------------------------------*- C++ -*----------------------------------*\
  =========                 |
  \\      /  F ield         | OpenFOAM: The Open Source CFD Toolbox
   \\    /   O peration     | Website:  https://openfoam.org
    \\  /    A nd           | Version:  6
     \\/     M anipulation  |
\*---------------------------------------------------------------------------*/
FoamFile
{
    version     2.0;
    format      ascii;
    class       volScalarField;
    location    "2.56";
    object      p;
}
// * * * * * * * * * * * * * * * * * * * * * * * * * * * * * * * * * * * * * //

dimensions      [1 -1 -2 0 0 0 0];

internalField   nonuniform List<scalar> 
10000
(
1
1
1
1
1
1
1
1
1
1
1
1
1
1
1
1
1
1
1
1
1
1
1
1
1
1
1
1
1
1
1
1
1
1
1
1
1
1
1
1
1
1
1
1
1
0.999999
0.999999
0.999999
0.999998
0.999997
0.999997
0.999996
0.999995
0.999994
0.999994
0.999994
0.999994
0.999995
0.999996
0.999997
0.999999
1
1
1
1
1.00001
1.00001
1.00001
1.00001
1.00001
1
1
1
1
1
1
1
1
1
1
1
1
1
1
1
1
1
1
1
1
1
1
1
1
1
1
1
1
1
1
1
1
1
1
1
1
1
1
1
1
1
1
1
1
1
1
1
1
1
1
1
1
1
1
1
1
1
1
1
1
1
1
1
1
1
1
1
1
1
1
1
1
1
1
1
0.999999
0.999999
0.999998
0.999997
0.999996
0.999995
0.999994
0.999992
0.999991
0.99999
0.99999
0.999991
0.999992
0.999993
0.999996
0.999998
1
1
1.00001
1.00001
1.00001
1.00001
1.00001
1.00001
1.00001
1.00001
1.00001
1
1
1
1
1
1
1
1
1
1
1
1
1
1
1
1
1
1
1
1
1
1
1
1
1
1
1
1
1
1
1
1
1
1
1
1
1
1
1
1
1
1
1
1
1
1
1
1
1
1
1
1
1
1
1
1
1
1
1
1
1
1
1
1
1
1
1
1
1
1
1
0.999999
0.999999
0.999999
0.999998
0.999997
0.999996
0.999994
0.999992
0.99999
0.999988
0.999986
0.999985
0.999985
0.999985
0.999987
0.99999
0.999993
0.999998
1
1.00001
1.00001
1.00001
1.00001
1.00002
1.00002
1.00001
1.00001
1.00001
1.00001
1.00001
1.00001
1
1
1
1
1
1
1
1
1
1
1
1
1
1
1
1
1
1
1
1
1
1
1
1
1
1
1
1
1
1
1
1
1
1
1
1
1
1
1
1
1
1
1
1
1
1
1
1
1
1
1
1
1
1
1
1
1
1
1
1
1
1
1
1
1
1
1
1
1
0.999999
0.999999
0.999998
0.999997
0.999995
0.999993
0.99999
0.999987
0.999984
0.999981
0.999979
0.999977
0.999977
0.999978
0.999981
0.999985
0.999991
0.999997
1
1.00001
1.00002
1.00002
1.00002
1.00002
1.00002
1.00002
1.00002
1.00002
1.00001
1.00001
1.00001
1.00001
1
1
1
1
1
1
1
1
1
1
1
1
1
1
1
1
1
1
1
1
1
1
1
1
1
1
1
1
1
1
1
1
1
1
1
1
1
1
1
1
1
1
1
1
1
1
1
1
1
1
1
1
1
1
1
1
1
1
1
1
1
1
1
1
1
1
1
1
0.999999
0.999999
0.999997
0.999995
0.999993
0.999989
0.999985
0.999981
0.999976
0.999972
0.999968
0.999966
0.999966
0.999968
0.999972
0.999979
0.999987
0.999997
1.00001
1.00002
1.00002
1.00003
1.00003
1.00004
1.00004
1.00003
1.00003
1.00003
1.00002
1.00002
1.00001
1.00001
1.00001
1
1
1
1
1
1
1
1
1
1
1
1
1
1
1
1
1
1
1
1
1
1
1
1
1
1
1
1
1
1
1
1
1
1
1
1
1
1
1
1
1
1
1
1
1
1
1
1
1
1
1
1
1
1
1
1
1
1
1
1
1
1
1
1
1
1
1
0.999999
0.999998
0.999996
0.999993
0.999989
0.999984
0.999978
0.999972
0.999965
0.999959
0.999954
0.999951
0.999951
0.999955
0.999961
0.999971
0.999984
0.999998
1.00001
1.00003
1.00004
1.00005
1.00005
1.00006
1.00005
1.00005
1.00005
1.00004
1.00003
1.00003
1.00002
1.00001
1.00001
1.00001
1
1
1
1
1
1
1
1
1
1
1
1
1
1
1
1
1
1
1
1
1
1
1
1
1
1
1
1
1
1
1
1
1
1
1
1
1
1
1
1
1
1
1
1
1
1
1
1
1
1
1
1
1
1
1
1
1
1
1
1
1
1
1
1
1
1
0.999999
0.999997
0.999994
0.99999
0.999984
0.999977
0.999969
0.99996
0.99995
0.999942
0.999935
0.999932
0.999933
0.999939
0.99995
0.999964
0.999983
1
1.00002
1.00004
1.00006
1.00007
1.00008
1.00008
1.00008
1.00008
1.00007
1.00006
1.00005
1.00004
1.00003
1.00002
1.00001
1.00001
1.00001
1
1
1
1
1
1
1
1
1
1
1
1
1
1
1
1
1
1
1
1
1
1
1
1
1
1
1
1
1
1
1
1
1
1
1
1
1
1
1
1
1
1
1
1
1
1
1
1
1
1
1
1
1
1
1
1
1
1
1
1
1
1
1
1
1
0.999998
0.999996
0.999992
0.999986
0.999978
0.999968
0.999956
0.999944
0.999931
0.99992
0.999912
0.999909
0.999912
0.999922
0.999938
0.99996
0.999986
1.00002
1.00004
1.00007
1.00009
1.00011
1.00012
1.00012
1.00012
1.00011
1.0001
1.00008
1.00007
1.00005
1.00004
1.00003
1.00002
1.00001
1.00001
1.00001
1
1
1
1
1
1
1
1
1
1
1
1
1
1
1
1
1
1
1
1
1
1
1
1
1
1
1
1
1
1
1
1
1
1
1
1
1
1
1
1
1
1
1
1
1
1
1
1
1
1
1
1
1
1
1
1
1
1
1
1
1
1
1
1
0.999998
0.999994
0.999989
0.999981
0.99997
0.999956
0.999941
0.999924
0.999908
0.999894
0.999886
0.999885
0.999892
0.999909
0.999934
0.999967
1
1.00004
1.00008
1.00012
1.00015
1.00017
1.00018
1.00018
1.00017
1.00016
1.00014
1.00012
1.0001
1.00008
1.00006
1.00004
1.00003
1.00002
1.00001
1.00001
1
1
1
1
1
1
1
1
1
1
1
1
1
1
1
1
1
1
1
1
1
1
1
1
1
1
1
1
1
1
1
1
1
1
1
1
1
1
1
1
1
1
1
1
1
1
1
1
1
1
1
1
1
1
1
1
1
1
1
1
1
1
1
1
0.999998
0.999993
0.999986
0.999975
0.999961
0.999943
0.999922
0.999901
0.999881
0.999867
0.999861
0.999864
0.99988
0.999908
0.999947
0.999995
1.00005
1.0001
1.00015
1.0002
1.00023
1.00026
1.00027
1.00026
1.00025
1.00023
1.0002
1.00017
1.00014
1.00011
1.00008
1.00006
1.00004
1.00003
1.00002
1.00001
1
1
1
1
0.999999
0.999999
1
1
1
1
1
1
1
1
1
1
1
1
1
1
1
1
1
1
1
1
1
1
1
1
1
1
1
1
1
1
1
1
1
1
1
1
1
1
1
1
1
1
1
1
1
1
1
1
1
1
1
1
1
1
1
1
1
1
0.999998
0.999993
0.999983
0.999968
0.999949
0.999927
0.999901
0.999877
0.999856
0.999844
0.999844
0.999858
0.99989
0.999937
0.999998
1.00007
1.00014
1.00022
1.00028
1.00034
1.00038
1.0004
1.0004
1.00039
1.00036
1.00033
1.00028
1.00024
1.00019
1.00015
1.00011
1.00008
1.00005
1.00003
1.00002
1.00001
1
1
1
0.999999
0.999999
0.999999
0.999999
0.999999
1
1
1
1
1
1
1
1
1
1
1
1
1
1
1
1
1
1
1
1
1
1
1
1
1
1
1
1
1
1
1
1
1
1
1
1
1
1
1
1
1
1
1
1
1
1
1
1
1
1
1
1
1
1
1
1
1
0.999993
0.99998
0.999962
0.999938
0.999911
0.999882
0.999856
0.999839
0.999835
0.999849
0.999886
0.999945
1.00002
1.00012
1.00022
1.00033
1.00043
1.00051
1.00057
1.00061
1.00063
1.00061
1.00058
1.00053
1.00047
1.0004
1.00033
1.00027
1.0002
1.00015
1.00011
1.00007
1.00004
1.00002
1.00001
1
1
0.999998
0.999998
0.999998
0.999998
0.999998
0.999999
0.999999
1
1
1
1
1
1
1
1
1
1
1
1
1
1
1
1
1
1
1
1
1
1
1
1
1
1
1
1
1
1
1
1
1
1
1
1
1
1
1
1
1
1
1
1
1
1
1
1
1
1
1
1.00001
1.00001
1.00001
1.00001
1
0.999994
0.999978
0.999957
0.999929
0.999899
0.999869
0.999848
0.999841
0.999858
0.999903
0.999979
1.00008
1.00021
1.00036
1.00052
1.00066
1.00079
1.0009
1.00097
1.001
1.00099
1.00095
1.00088
1.00079
1.00068
1.00057
1.00047
1.00037
1.00028
1.0002
1.00014
1.00009
1.00006
1.00003
1.00001
1
0.999998
0.999996
0.999995
0.999996
0.999997
0.999997
0.999998
0.999999
0.999999
1
1
1
1
1
1
1
1
1
1
1
1
1
1
1
1
1
1
1
1
1
1
1
1
1
1
1
1
1
1
1
1
1
1
1
1
1
1
1
1
1
1
1
1
1
1
1
1
1
1.00001
1.00001
1.00001
1.00001
1.00001
1.00001
0.999998
0.99998
0.999955
0.999926
0.999896
0.999872
0.999866
0.999886
0.999943
1.00004
1.00019
1.00037
1.00058
1.00081
1.00104
1.00124
1.00142
1.00154
1.00161
1.00161
1.00157
1.00147
1.00133
1.00117
1.001
1.00083
1.00066
1.00051
1.00038
1.00027
1.00019
1.00012
1.00007
1.00004
1.00001
1
0.999995
0.999992
0.999992
0.999993
0.999995
0.999996
0.999997
0.999998
0.999999
0.999999
1
1
1
1
1
1
1
1
1
1
1
1
1
1
1
1
1
1
1
1
1
1
1
1
1
1
1
1
1
1
1
1
1
1
1
1
1
1
1
1
1
1
1
1
1
1
1
1.00001
1.00001
1.00001
1.00002
1.00002
1.00002
1.00002
1.00001
0.999987
0.999961
0.999934
0.999912
0.999907
0.999933
1.00001
1.00014
1.00033
1.00058
1.00089
1.00122
1.00157
1.0019
1.00219
1.00242
1.00257
1.00262
1.00259
1.00247
1.00228
1.00204
1.00176
1.00148
1.00121
1.00095
1.00073
1.00053
1.00037
1.00025
1.00016
1.00009
1.00004
1.00001
0.999998
0.99999
0.999987
0.999987
0.999989
0.999992
0.999994
0.999996
0.999997
0.999998
0.999999
0.999999
1
1
1
1
1
1
1
1
1
1
1
1
1
1
1
1
1
1
1
1
1
1
1
1
1
1
1
1
1
1
1
1
1
1
1
1
1
1
1
1
1
1
1
1
1
1.00001
1.00001
1.00002
1.00002
1.00003
1.00003
1.00004
1.00003
1.00002
1
0.999981
0.999963
0.999962
0.999996
1.00009
1.00025
1.0005
1.00084
1.00127
1.00176
1.00228
1.0028
1.00328
1.00369
1.00399
1.00416
1.00419
1.00408
1.00385
1.00351
1.00311
1.00266
1.00221
1.00177
1.00138
1.00104
1.00075
1.00052
1.00034
1.00021
1.00012
1.00005
1.00001
0.999992
0.999982
0.999979
0.99998
0.999984
0.999987
0.999991
0.999994
0.999996
0.999997
0.999998
0.999999
0.999999
1
1
1
1
1
1
1
1
1
1
1
1
1
1
1
1
1
1
1
1
1
1
1
1
1
1
1
1
1
1
1
1
1
1
1
1
1
1
1
1
1
1
1
1.00001
1.00001
1.00002
1.00002
1.00003
1.00004
1.00005
1.00005
1.00005
1.00005
1.00003
1.00002
1.00003
1.00007
1.00018
1.00037
1.00069
1.00114
1.00171
1.00239
1.00315
1.00393
1.00469
1.00537
1.00593
1.00632
1.00651
1.0065
1.00629
1.0059
1.00535
1.0047
1.004
1.00329
1.00262
1.00202
1.0015
1.00107
1.00073
1.00048
1.00029
1.00015
1.00007
1.00001
0.999984
0.999971
0.999968
0.999971
0.999976
0.999981
0.999987
0.999991
0.999994
0.999996
0.999998
0.999999
0.999999
1
1
1
1
1
1
1
1
1
1
1
1
1
1
1
1
1
1
1
1
1
1
1
1
1
1
1
1
1
1
1
1
1
1
1
1
1
1
1
1
1
1
1
1.00001
1.00001
1.00002
1.00003
1.00005
1.00006
1.00007
1.00008
1.00008
1.00008
1.00008
1.0001
1.00015
1.00027
1.0005
1.00087
1.00142
1.00216
1.00307
1.00411
1.00524
1.00637
1.00745
1.00839
1.00913
1.00963
1.00986
1.00979
1.00944
1.00883
1.008
1.00702
1.00596
1.00489
1.00388
1.00297
1.00219
1.00155
1.00105
1.00067
1.0004
1.00021
1.00009
1.00001
0.999975
0.999957
0.999954
0.999958
0.999966
0.999974
0.999981
0.999987
0.999991
0.999994
0.999996
0.999998
0.999999
0.999999
1
1
1
1
1
1
1
1
1
1
1
1
1
1
1
1
1
1
1
1
1
1
1
1
1
1
1
1
1
1
1
1
1
1
1
1
1
1
1
1
1
1.00001
1.00001
1.00002
1.00003
1.00004
1.00006
1.00008
1.0001
1.00012
1.00013
1.00014
1.00017
1.00022
1.00035
1.0006
1.00102
1.00167
1.00257
1.00372
1.0051
1.00663
1.00824
1.00982
1.01127
1.01252
1.01348
1.01411
1.01436
1.01424
1.01373
1.01286
1.01168
1.01027
1.00873
1.00717
1.00569
1.00435
1.0032
1.00226
1.00153
1.00097
1.00058
1.0003
1.00013
1.00002
0.999965
0.999941
0.999936
0.999942
0.999952
0.999963
0.999973
0.999981
0.999988
0.999992
0.999995
0.999997
0.999998
0.999999
1
1
1
1
1
1
1
1
1
1
1
1
1
1
1
1
1
1
1
1
1
1
1
1
1
1
1
1
1
1
1
1
1
1
1
1
1
1
1
1
1.00001
1.00001
1.00002
1.00003
1.00004
1.00006
1.00008
1.00011
1.00014
1.00017
1.00019
1.00023
1.00029
1.00043
1.00068
1.00113
1.00185
1.00289
1.00428
1.00601
1.00799
1.01014
1.01232
1.01441
1.01628
1.01785
1.01903
1.01978
1.02006
1.01988
1.01921
1.01807
1.01652
1.01462
1.01251
1.01034
1.00823
1.00631
1.00465
1.00329
1.00222
1.00142
1.00084
1.00045
1.00019
1.00004
0.99996
0.999923
0.999915
0.999922
0.999935
0.99995
0.999964
0.999975
0.999983
0.999989
0.999993
0.999996
0.999998
0.999999
0.999999
1
1
1
1
1
1
1
1
1
1
1
1
1
1
1
1
1
1
1
1
1
1
1
1
1
1
1
1
1
1
1
1
1
1
1
1
1
1
1
1.00001
1.00001
1.00002
1.00004
1.00005
1.00008
1.00011
1.00015
1.00019
1.00023
1.00028
1.00035
1.00049
1.00074
1.00119
1.00194
1.00308
1.00467
1.00673
1.00918
1.01191
1.01476
1.01756
1.02016
1.02242
1.02425
1.02559
1.02641
1.02672
1.02649
1.02572
1.02438
1.0225
1.02014
1.01742
1.01453
1.01167
1.00901
1.00668
1.00475
1.00322
1.00207
1.00124
1.00067
1.00031
1.00008
0.999962
0.999907
0.999892
0.999898
0.999915
0.999934
0.999952
0.999966
0.999977
0.999985
0.999991
0.999994
0.999997
0.999998
0.999999
1
1
1
1
1
1
1
1
1
1
1
1
1
1
1
1
1
1
1
1
1
1
1
1
1
1
1
1
1
1
1
1
1
1
1
1
1
1
1.00001
1.00001
1.00002
1.00003
1.00005
1.00007
1.00011
1.00015
1.0002
1.00025
1.00031
1.00039
1.00053
1.00077
1.0012
1.00194
1.00312
1.00484
1.00716
1.01005
1.01337
1.01692
1.02049
1.02385
1.02683
1.02931
1.03123
1.03258
1.03338
1.03366
1.03344
1.03268
1.03132
1.0293
1.02663
1.02339
1.0198
1.01611
1.01258
1.00942
1.00676
1.00462
1.003
1.00182
1.00101
1.00048
1.00016
0.999981
0.999896
0.999869
0.999872
0.999891
0.999915
0.999937
0.999956
0.99997
0.999981
0.999988
0.999993
0.999996
0.999998
0.999999
0.999999
1
1
1
1
1
1
1
1
1
1
1
1
1
1
1
1
1
1
1
1
1
1
1
1
1
1
1
1
1
1
1
1
1
1
1
1
1
1.00001
1.00001
1.00002
1.00004
1.00006
1.00009
1.00014
1.00019
1.00025
1.00032
1.00042
1.00055
1.00077
1.00116
1.00186
1.00301
1.00477
1.00726
1.0105
1.01436
1.01862
1.02296
1.02709
1.03078
1.03383
1.0362
1.03789
1.03898
1.03956
1.03975
1.03958
1.03902
1.03795
1.03617
1.03355
1.0301
1.02599
1.02153
1.01709
1.01298
1.00942
1.00652
1.00428
1.00264
1.0015
1.00075
1.00029
1.00003
0.999897
0.999849
0.999846
0.999866
0.999893
0.99992
0.999944
0.999962
0.999975
0.999985
0.999991
0.999994
0.999997
0.999998
0.999999
1
1
1
1
1
1
1
1
1
1
1
1
1
1
1
1
1
1
1
1
1
1
1
1
1
1
1
1
1
1
1
1
1
1
1
1
1
1.00001
1.00002
1.00003
1.00005
1.00008
1.00012
1.00017
1.00024
1.00032
1.00042
1.00055
1.00075
1.0011
1.00172
1.00278
1.00448
1.00701
1.01046
1.01476
1.01966
1.02477
1.02967
1.03401
1.03755
1.04016
1.04188
1.04286
1.0433
1.04342
1.04341
1.04336
1.04324
1.04286
1.04186
1.03991
1.03682
1.03264
1.0277
1.02245
1.01736
1.0128
1.00899
1.006
1.00377
1.00219
1.00115
1.00049
1.00011
0.999918
0.999837
0.999821
0.999839
0.999869
0.999902
0.99993
0.999952
0.999969
0.99998
0.999988
0.999993
0.999996
0.999998
0.999999
0.999999
1
1
1
1
1
1
1
1
1
1
1
1
1
1
1
1
1
1
1
1
1
1
1
1
1
1
1
1
1
1
1
1
1
1
1
1.00001
1.00001
1.00002
1.00004
1.00006
1.00009
1.00014
1.00021
1.00029
1.00039
1.00053
1.00071
1.00102
1.00155
1.00248
1.00403
1.00645
1.00994
1.0145
1.01993
1.02575
1.03142
1.03641
1.04034
1.04302
1.04446
1.04486
1.04455
1.04391
1.04328
1.04295
1.04307
1.04364
1.04439
1.04483
1.04434
1.04244
1.03895
1.03409
1.02839
1.02247
1.0169
1.01209
1.0082
1.00525
1.00313
1.0017
1.00079
1.00025
0.999968
0.999839
0.999802
0.999813
0.999844
0.999881
0.999914
0.999941
0.999962
0.999976
0.999985
0.999991
0.999995
0.999997
0.999999
0.999999
1
1
1
1
1
1
1
1
1
1
1
1
1
1
1
1
1
1
1
1
1
1
1
1
1
1
1
1
1
1
1
1
1
1
1
1.00001
1.00001
1.00002
1.00004
1.00007
1.00011
1.00017
1.00025
1.00035
1.00048
1.00066
1.00092
1.00136
1.00214
1.00347
1.00566
1.00899
1.01359
1.01936
1.02581
1.03223
1.0379
1.04223
1.0449
1.04586
1.0453
1.04367
1.04151
1.03938
1.03774
1.03697
1.0373
1.03876
1.04105
1.04354
1.04536
1.04563
1.04383
1.03992
1.03439
1.02802
1.0216
1.01578
1.01091
1.00712
1.00435
1.00245
1.00121
1.00047
1.00006
0.999861
0.999792
0.99979
0.99982
0.99986
0.999898
0.99993
0.999954
0.999971
0.999982
0.999989
0.999994
0.999997
0.999998
0.999999
1
1
1
1
1
1
1
1
1
1
1
1
1
1
1
1
1
1
1
1
1
1
1
1
1
1
1
1
1
1
1
1
1
1
1
1.00001
1.00002
1.00003
1.00005
1.00009
1.00014
1.00021
1.0003
1.00042
1.00058
1.00081
1.00118
1.0018
1.0029
1.00476
1.00775
1.01214
1.01797
1.02486
1.03201
1.03844
1.04329
1.04603
1.04648
1.04481
1.04149
1.03721
1.03275
1.02883
1.02603
1.02477
1.02535
1.02783
1.03194
1.03695
1.04178
1.04517
1.04612
1.04422
1.03975
1.03355
1.02664
1.01995
1.0141
1.0094
1.00588
1.00341
1.00178
1.00077
1.0002
0.999913
0.999797
0.999775
0.999799
0.99984
0.999881
0.999917
0.999945
0.999965
0.999978
0.999987
0.999993
0.999996
0.999998
0.999999
0.999999
1
1
1
1
1
1
1
1
1
1
1
1
1
1
1
1
1
1
1
1
1
1
1
1
1
1
1
1
1
1
1
1
1
1.00001
1.00001
1.00002
1.00004
1.00006
1.0001
1.00016
1.00024
1.00035
1.0005
1.0007
1.001
1.00149
1.00235
1.00386
1.00638
1.01031
1.01589
1.02294
1.03069
1.03795
1.04354
1.04661
1.04678
1.04412
1.03906
1.03238
1.02502
1.01798
1.01212
1.00808
1.00634
1.00721
1.01083
1.01693
1.02475
1.03304
1.04025
1.04489
1.04607
1.04369
1.03849
1.03164
1.02439
1.01767
1.01206
1.00772
1.0046
1.0025
1.00118
1.00041
1
0.999821
0.99977
0.999782
0.999821
0.999865
0.999905
0.999936
0.999959
0.999975
0.999985
0.999991
0.999995
0.999997
0.999999
0.999999
1
1
1
1
1
1
1
1
1
1
1
1
1
1
1
1
1
1
1
1
1
1
1
1
1
1
1
1
1
1
1
1
1
1.00001
1.00001
1.00002
1.00004
1.00007
1.00012
1.00018
1.00028
1.0004
1.00058
1.00083
1.00121
1.00187
1.00303
1.00504
1.00834
1.01334
1.02016
1.02824
1.03634
1.04291
1.0467
1.04704
1.04382
1.03734
1.02837
1.01794
1.00725
0.997466
0.989566
0.98426
0.982057
0.983324
0.988204
0.996453
1.00727
1.0193
1.03073
1.03973
1.04485
1.04554
1.04225
1.03618
1.02882
1.02147
1.015
1.00983
1.00602
1.00339
1.00169
1.00068
1.00013
0.999871
0.999778
0.999773
0.999806
0.999851
0.999893
0.999928
0.999953
0.999971
0.999983
0.99999
0.999994
0.999997
0.999998
0.999999
1
1
1
1
1
1
1
1
1
1
1
1
1
1
1
1
1
1
1
1
1
1
1
1
1
1
1
1
1
1
1
1
1
1.00001
1.00001
1.00003
1.00005
1.00008
1.00013
1.00021
1.00031
1.00046
1.00066
1.00096
1.00146
1.00232
1.00384
1.00645
1.01065
1.0168
1.02477
1.0335
1.04123
1.04621
1.04731
1.04418
1.03696
1.02624
1.01303
0.998604
0.984353
0.971625
0.961527
0.954859
0.952199
0.953968
0.960333
0.97101
0.985097
1.00109
1.01701
1.03072
1.04038
1.04492
1.04438
1.03984
1.03292
1.02528
1.01813
1.01217
1.00763
1.00443
1.00232
1.00103
1.00031
0.99995
0.999804
0.999773
0.999797
0.99984
0.999883
0.99992
0.999948
0.999967
0.99998
0.999989
0.999994
0.999996
0.999998
0.999999
1
1
1
1
1
1
1
1
1
1
1
1
1
1
1
1
1
1
1
1
1
1
1
1
1
1
1
1
1
1
1
1
1
1.00001
1.00002
1.00003
1.00005
1.00009
1.00015
1.00023
1.00035
1.00051
1.00074
1.00112
1.00174
1.00284
1.00479
1.0081
1.01327
1.02057
1.02945
1.03828
1.04484
1.04738
1.04512
1.03805
1.02653
1.01134
0.993658
0.974922
0.95673
0.940656
0.928004
0.919724
0.916522
0.918925
0.927119
0.9407
0.958554
0.978927
0.999635
1.01833
1.03287
1.04176
1.04464
1.04231
1.03643
1.02889
1.02129
1.01464
1.00941
1.00561
1.00306
1.00146
1.00054
1.00006
0.999849
0.999785
0.999794
0.999832
0.999875
0.999913
0.999943
0.999964
0.999978
0.999987
0.999993
0.999996
0.999998
0.999999
0.999999
1
1
1
1
1
1
1
1
1
1
1
1
1
1
1
1
1
1
1
1
1
1
1
1
1
1
1
1
1
1
1
1
1.00001
1.00002
1.00003
1.00006
1.0001
1.00016
1.00025
1.00037
1.00056
1.00083
1.00128
1.00206
1.00344
1.00588
1.00994
1.01614
1.02447
1.03389
1.04216
1.04679
1.04628
1.0403
1.02909
1.01317
0.993341
0.970849
0.947269
0.92446
0.904343
0.88852
0.87818
0.874257
0.877451
0.88796
0.905162
0.927564
0.953016
0.979028
1.00304
1.02272
1.0363
1.04304
1.04346
1.03913
1.03213
1.02435
1.01716
1.01128
1.0069
1.00389
1.00196
1.00082
1.00021
0.999916
0.999811
0.9998
0.99983
0.999871
0.999909
0.999939
0.999961
0.999977
0.999986
0.999992
0.999996
0.999998
0.999999
0.999999
1
1
1
1
1
1
1
1
1
1
1
1
1
1
1
1
1
1
1
1
1
1
1
1
1
1
1
1
1
1
1
1
1.00001
1.00002
1.00003
1.00006
1.0001
1.00017
1.00026
1.0004
1.0006
1.00091
1.00145
1.00241
1.0041
1.00707
1.01196
1.01914
1.0283
1.03779
1.04485
1.047
1.04311
1.0333
1.01798
0.997618
0.972909
0.945045
0.915766
0.887341
0.862186
0.842337
0.829332
0.824442
0.828645
0.842131
0.863902
0.891876
0.923337
0.955381
0.985211
1.01034
1.02885
1.03975
1.04331
1.04096
1.03486
1.02718
1.01963
1.0132
1.00826
1.00478
1.00252
1.00114
1.00038
1
0.999852
0.999816
0.999834
0.99987
0.999907
0.999937
0.99996
0.999975
0.999985
0.999992
0.999995
0.999998
0.999999
0.999999
1
1
1
1
1
1
1
1
1
1
1
1
1
1
1
1
1
1
1
1
1
1
1
1
1
1
1
1
1
1
1
1
1.00001
1.00002
1.00004
1.00006
1.0001
1.00017
1.00027
1.00042
1.00064
1.00099
1.00163
1.00278
1.00482
1.00836
1.01406
1.02216
1.03185
1.0409
1.04628
1.04563
1.03831
1.02475
1.00544
0.980584
0.950597
0.916546
0.880437
0.845142
0.81377
0.788912
0.772565
0.76647
0.772005
0.789328
0.816831
0.851557
0.890048
0.92892
0.965129
0.996073
1.01975
1.03502
1.04197
1.0419
1.03702
1.02971
1.02197
1.01509
1.00965
1.00573
1.00311
1.0015
1.00059
1.00011
0.999907
0.999841
0.999844
0.999873
0.999907
0.999937
0.999959
0.999975
0.999985
0.999991
0.999995
0.999997
0.999999
0.999999
1
1
1
1
1
1
1
1
1
1
1
1
1
1
1
1
1
1
1
1
1
1
1
1
1
1
1
1
1
1
1
1
1.00001
1.00002
1.00004
1.00006
1.00011
1.00017
1.00027
1.00042
1.00067
1.00107
1.0018
1.00318
1.00558
1.00967
1.01619
1.02506
1.03494
1.04313
1.04653
1.04305
1.03239
1.01528
0.992114
0.96268
0.926897
0.885694
0.841496
0.798006
0.75921
0.728394
0.708078
0.700596
0.70789
0.730082
0.764639
0.807358
0.85384
0.900216
0.943257
0.980306
1.00933
1.02912
1.03962
1.04204
1.0386
1.03187
1.02411
1.01689
1.01101
1.00668
1.00374
1.00189
1.00081
1.00024
0.999976
0.999877
0.999862
0.999881
0.999911
0.999938
0.99996
0.999975
0.999985
0.999991
0.999995
0.999997
0.999999
0.999999
1
1
1
1
1
1
1
1
1
1
1
1
1
1
1
1
1
1
1
1
1
1
1
1
1
1
1
1
1
1
1
1
1.00001
1.00002
1.00003
1.00006
1.0001
1.00017
1.00027
1.00042
1.00069
1.00114
1.00196
1.00357
1.00635
1.01098
1.01823
1.02773
1.03749
1.04451
1.04586
1.03969
1.02592
1.00546
0.978578
0.94447
0.902387
0.853115
0.799664
0.746794
0.699574
0.662073
0.637329
0.628337
0.637838
0.665938
0.708859
0.760731
0.815994
0.87031
0.92038
0.963611
0.998007
1.02234
1.03646
1.04148
1.03964
1.03365
1.02601
1.01856
1.01232
1.00762
1.00437
1.00229
1.00106
1.00039
1.00006
0.999922
0.999886
0.999895
0.999918
0.999942
0.999961
0.999976
0.999985
0.999992
0.999995
0.999997
0.999999
0.999999
1
1
1
1
1
1
1
1
1
1
1
1
1
1
1
1
1
1
1
1
1
1
1
1
1
1
1
1
1
1
1
1
1.00001
1.00002
1.00003
1.00006
1.0001
1.00016
1.00026
1.00041
1.0007
1.0012
1.00211
1.00394
1.00711
1.01224
1.0201
1.03007
1.03948
1.04518
1.04455
1.03596
1.01935
0.995749
0.965316
0.92654
0.877863
0.819904
0.756394
0.693364
0.637175
0.592709
0.563376
0.55286
0.564868
0.599558
0.651754
0.713605
0.778146
0.840541
0.897547
0.946764
0.986339
1.01507
1.03273
1.04037
1.0402
1.03505
1.02765
1.02007
1.01353
1.00851
1.00498
1.00269
1.00131
1.00054
1.00015
0.999976
0.999917
0.999912
0.999928
0.999947
0.999964
0.999977
0.999986
0.999992
0.999996
0.999998
0.999999
0.999999
1
1
1
1
1
1
1
1
1
1
1
1
1
1
1
1
1
1
1
1
1
1
1
1
1
1
1
1
1
1
1
1
1.00001
1.00002
1.00003
1.00005
1.00009
1.00015
1.00025
1.00038
1.00069
1.00125
1.00224
1.00427
1.00782
1.01339
1.02174
1.03204
1.041
1.0453
1.04288
1.03224
1.01311
0.986565
0.952762
0.909533
0.854388
0.787695
0.713949
0.640654
0.575665
0.524606
0.49103
0.479184
0.493607
0.534669
0.596147
0.668163
0.742045
0.812322
0.875874
0.930625
0.974954
1.00774
1.02873
1.03888
1.04036
1.03611
1.02902
1.02139
1.01462
1.00933
1.00556
1.00307
1.00156
1.0007
1.00025
1.00004
0.999954
0.999934
0.999941
0.999955
0.999969
0.99998
0.999988
0.999993
0.999996
0.999998
0.999999
0.999999
1
1
1
1
1
1
1
1
1
1
1
1
1
1
1
1
1
1
1
1
1
1
1
1
1
0.999999
1
1
1
1
1
1
1.00001
1.00001
1.00002
1.00005
1.00007
1.00013
1.00022
1.00035
1.00066
1.00128
1.00234
1.00453
1.00845
1.0144
1.02308
1.03361
1.04212
1.04509
1.04107
1.02882
1.00757
0.978273
0.94132
0.894109
0.8332
0.758524
0.675252
0.592483
0.519712
0.463166
0.426331
0.413533
0.429606
0.475556
0.545084
0.626618
0.709406
0.787012
0.856428
0.916017
0.964481
1.00082
1.02477
1.03719
1.04023
1.03686
1.03012
1.02249
1.01556
1.01005
1.00608
1.00343
1.0018
1.00085
1.00035
1.0001
0.999995
0.99996
0.999957
0.999965
0.999975
0.999984
0.99999
0.999994
0.999997
0.999998
0.999999
0.999999
1
1
1
1
1
1
1
1
1
1
1
1
1
1
1
1
1
1
1
1
1
1
1
1
1
1
1
1
1
1
1
1
1.00001
1.00001
1.00002
1.00004
1.00006
1.0001
1.00019
1.00032
1.00061
1.00128
1.00243
1.00471
1.00895
1.01526
1.02412
1.03476
1.04295
1.04474
1.03931
1.02587
1.00302
0.971256
0.931383
0.880863
0.81548
0.734485
0.64343
0.552948
0.474125
0.413728
0.37503
0.361627
0.377999
0.426306
0.501482
0.591013
0.681781
0.765854
0.840184
0.903682
0.955479
0.994734
1.02115
1.03552
1.03992
1.03734
1.03095
1.02337
1.01633
1.01066
1.00653
1.00375
1.00202
1.001
1.00045
1.00017
1.00004
0.999989
0.999975
0.999976
0.999982
0.999988
0.999992
0.999995
0.999997
0.999999
0.999999
1
1
1
1
1
1
1
1
1
1
1
1
1
1
1
1
1
1
1
1
1
1
1
1
1
1
1
1
1
0.999999
1
1
1
1
1.00001
1.00001
1.00003
1.00004
1.00007
1.00015
1.00028
1.00054
1.00124
1.00248
1.00482
1.00927
1.01593
1.02486
1.03549
1.04354
1.04446
1.03778
1.02351
0.999683
0.965925
0.923376
0.870243
0.802047
0.717187
0.62109
0.52548
0.442717
0.380181
0.340921
0.327162
0.342474
0.390358
0.468046
0.563203
0.660464
0.749862
0.827967
0.894266
0.948432
0.989832
1.01814
1.03404
1.03954
1.03763
1.03154
1.02402
1.01692
1.01114
1.00689
1.00402
1.00221
1.00114
1.00054
1.00023
1.00009
1.00002
0.999995
0.999989
0.99999
0.999992
0.999995
0.999997
0.999998
0.999999
0.999999
1
1
1
1
1
1
1
1
1
1
1
1
1
1
1
1
1
1
1
1
1
1
1
1
1
1
1
1
1
1
1
1
1
1
1
1.00001
1.00001
1.00002
1.00004
1.0001
1.00023
1.00048
1.00116
1.00249
1.00486
1.0094
1.01636
1.02536
1.03584
1.0439
1.04438
1.03666
1.02176
0.997657
0.962668
0.917823
0.86262
0.793193
0.707236
0.609491
0.511889
0.427397
0.364122
0.325178
0.311358
0.324879
0.370157
0.44716
0.544926
0.646531
0.739744
0.820334
0.888232
0.943712
0.986401
1.01594
1.03291
1.03919
1.03775
1.03189
1.02445
1.01732
1.01147
1.00716
1.00423
1.00237
1.00126
1.00063
1.0003
1.00013
1.00005
1.00002
1
0.999998
0.999998
0.999998
0.999999
0.999999
1
1
1
1
1
1
1
1
1
1
1
1
1
1
1
1
1
1
1
1
1
1
1
1
1
1
1
1
1
1
1
1
1
1
1
0.999999
1
0.999999
1
1.00001
1.00001
1.00005
1.00017
1.00041
1.00105
1.00243
1.00483
1.00934
1.01649
1.0256
1.03588
1.044
1.04455
1.03615
1.02068
0.996852
0.961708
0.915332
0.858484
0.788867
0.704152
0.608095
0.511742
0.427716
0.364795
0.326658
0.313171
0.324956
0.366527
0.440314
0.537576
0.640872
0.735966
0.817562
0.885807
0.94153
0.984626
1.01471
1.03221
1.03892
1.03775
1.03204
1.02464
1.01752
1.01166
1.00732
1.00437
1.00249
1.00136
1.00071
1.00036
1.00017
1.00008
1.00004
1.00002
1.00001
1
1
1
1
1
1
1
1
1
1
1
1
1
1
1
1
1
1
1
1
1
1
1
1
1
1
1
1
1
1
1
1
1
1
1
1
1
1
0.999999
0.999998
0.999997
0.999992
0.999987
0.999985
0.999982
1
1.0001
1.00033
1.00092
1.00228
1.00473
1.00913
1.0163
1.02557
1.03568
1.04383
1.04486
1.03639
1.02044
0.997102
0.96293
0.916371
0.858582
0.78925
0.707041
0.615027
0.522597
0.441125
0.379712
0.342867
0.330132
0.340721
0.378549
0.447684
0.541829
0.64405
0.738785
0.819713
0.887014
0.941933
0.984578
1.01452
1.03202
1.03878
1.03765
1.03197
1.02461
1.01752
1.01169
1.00738
1.00444
1.00257
1.00143
1.00077
1.00041
1.00021
1.00011
1.00006
1.00003
1.00002
1.00001
1
1
1
1
1
1
1
1
1
1
1
1
1
1
1
1
1
1
1
1
1
1
1
1
1
1
1
1
1
1
1
1
1
1
1
0.999999
0.999999
0.999999
0.999995
0.999993
0.999985
0.999976
0.999964
0.999952
0.999957
1.00002
1.00024
1.00079
1.00207
1.00452
1.0088
1.01581
1.02519
1.0353
1.04345
1.04517
1.03734
1.02127
0.998373
0.965911
0.920878
0.863598
0.795101
0.715722
0.628634
0.541613
0.464451
0.406099
0.371493
0.360027
0.370061
0.404748
0.46877
0.557819
0.656277
0.748232
0.826679
0.89172
0.944835
0.986223
1.01535
1.03235
1.03877
1.03746
1.0317
1.02434
1.01731
1.01156
1.00733
1.00445
1.0026
1.00148
1.00082
1.00045
1.00025
1.00014
1.00007
1.00004
1.00002
1.00001
1.00001
1
1
1
1
1
1
1
1
1
1
1
1
1
1
1
1
1
1
1
1
1
1
1
1
1
1
1
1
1
1
1
1
1
1
0.999999
0.999999
0.999997
0.999994
0.999989
0.99998
0.999965
0.999947
0.999921
0.999915
0.999954
1.00014
1.00065
1.00183
1.00419
1.00835
1.01508
1.0244
1.03467
1.04298
1.0454
1.03873
1.02326
1.00086
0.970262
0.928146
0.873452
0.807211
0.731074
0.648903
0.56766
0.496104
0.442587
0.411495
0.401855
0.411816
0.444046
0.502979
0.585403
0.677477
0.764094
0.838161
0.899656
0.950045
0.989448
1.01716
1.03314
1.03888
1.03715
1.03121
1.02385
1.01691
1.01129
1.00717
1.00438
1.00259
1.0015
1.00086
1.00049
1.00028
1.00016
1.00009
1.00005
1.00003
1.00002
1.00001
1.00001
1
1
1
1
1
1
1
1
1
1
1
1
1
1
1
1
1
1
1
1
1
1
1
1
1
1
1
1
1
1
0.999999
1
1
0.999999
0.999998
0.999997
0.999993
0.999986
0.999975
0.999956
0.999932
0.999896
0.999873
0.999892
1.00003
1.00049
1.00156
1.00376
1.00774
1.01418
1.02324
1.03367
1.04239
1.04557
1.04029
1.02618
1.00478
0.975973
0.937336
0.887064
0.825282
0.753795
0.676899
0.601688
0.536832
0.489529
0.462615
0.454808
0.464717
0.494815
0.548719
0.623408
0.706843
0.78572
0.853606
0.910395
0.957273
0.994063
1.01981
1.03433
1.03903
1.0367
1.0305
1.02313
1.01632
1.01087
1.00691
1.00424
1.00254
1.00149
1.00087
1.00051
1.0003
1.00018
1.0001
1.00006
1.00004
1.00002
1.00001
1.00001
1
1
1
1
1
1
1
1
1
1
1
1
1
1
1
1
1
1
1
1
1
1
1
1
1
1
1
1
1
1
0.999999
1
0.999999
1
0.999998
0.999995
0.999992
0.999984
0.999971
0.999947
0.999919
0.999874
0.999836
0.999837
0.999937
1.00033
1.00129
1.00328
1.00699
1.0131
1.0218
1.03221
1.04153
1.04572
1.0419
1.0296
1.00993
0.983196
0.94808
0.903113
0.8477
0.782876
0.712636
0.644637
0.587671
0.546969
0.523668
0.516917
0.526315
0.554129
0.602832
0.669064
0.742381
0.811801
0.872156
0.923369
0.966146
0.999821
1.02313
1.03577
1.03916
1.03605
1.02954
1.02218
1.01555
1.01032
1.00657
1.00405
1.00244
1.00146
1.00087
1.00052
1.00031
1.00019
1.00011
1.00007
1.00004
1.00002
1.00001
1.00001
1
1
1
1
1
1
1
1
1
1
1
1
1
1
1
1
1
1
1
1
1
1
1
1
1
1
1
1
1
1
1
1
1
0.999999
0.999999
0.999995
0.999991
0.999983
0.999968
0.999942
0.999909
0.999858
0.999805
0.999787
0.999853
1.00016
1.00101
1.00277
1.00614
1.01184
1.02012
1.03035
1.04021
1.04569
1.04355
1.03323
1.01581
0.991703
0.960293
0.920831
0.872616
0.815897
0.754133
0.695283
0.647025
0.612142
0.591264
0.584831
0.593322
0.618507
0.661621
0.718903
0.781398
0.840556
0.892729
0.937929
0.976246
1.00642
1.02689
1.03731
1.03915
1.03516
1.02833
1.02101
1.01461
1.00966
1.00614
1.0038
1.00232
1.00141
1.00085
1.00052
1.00032
1.0002
1.00012
1.00007
1.00004
1.00003
1.00002
1.00001
1
1
1
1
1
1
1
1
1
1
1
1
1
1
1
1
1
1
1
1
1
1
1
1
1
1
1
1
1
1
0.999999
1
0.999999
0.999999
0.999999
0.999994
0.99999
0.999982
0.999966
0.999939
0.999902
0.999847
0.999784
0.999745
0.999779
1.00001
1.00072
1.00226
1.00523
1.01043
1.01822
1.02814
1.03836
1.04522
1.04507
1.03694
1.02197
1.00087
0.97352
0.939655
0.898686
0.850576
0.79865
0.750176
0.710149
0.679772
0.6607
0.654627
0.66219
0.684421
0.721542
0.769623
0.821232
0.870168
0.91422
0.953407
0.987129
1.01353
1.03084
1.03875
1.03888
1.03395
1.02683
1.01963
1.01352
1.00889
1.00565
1.00352
1.00217
1.00133
1.00082
1.00051
1.00032
1.0002
1.00013
1.00008
1.00005
1.00003
1.00002
1.00001
1
1
1
1
1
1
1
1
1
1
1
1
1
1
1
1
1
1
1
1
1
1
1
1
1
1
1
1
1
1
1
0.999999
0.999999
1
0.999998
0.999996
0.99999
0.999981
0.999965
0.999938
0.999897
0.999842
0.999771
0.999715
0.999716
0.99989
1.00045
1.00176
1.00433
1.00893
1.0161
1.0256
1.036
1.0441
1.04614
1.04055
1.0282
1.01014
0.986921
0.95859
0.924682
0.885271
0.843588
0.804882
0.77154
0.744963
0.728126
0.722921
0.729537
0.748465
0.779336
0.81835
0.859632
0.899092
0.935664
0.969187
0.998341
1.02077
1.03464
1.03987
1.0382
1.03239
1.02506
1.01806
1.01231
1.00805
1.00512
1.0032
1.00199
1.00124
1.00078
1.0005
1.00032
1.0002
1.00013
1.00008
1.00005
1.00003
1.00002
1.00001
1.00001
1
1
1
1
1
1
1
1
1
1
1
1
1
1
1
1
1
1
1
1
1
1
1
1
1
1
1
1
1
0.999999
1
1
0.999999
0.999999
0.999995
0.99999
0.999982
0.999965
0.999939
0.999898
0.99984
0.999765
0.999698
0.999673
0.99978
1.00022
1.00128
1.00345
1.00742
1.01385
1.02275
1.03313
1.04225
1.04641
1.04365
1.0342
1.01922
0.999816
0.976548
0.949283
0.918239
0.88589
0.855134
0.827354
0.80493
0.791063
0.786908
0.79231
0.807676
0.832361
0.862913
0.89499
0.926258
0.956361
0.984747
1.00942
1.02772
1.03797
1.04041
1.037
1.03042
1.02302
1.01632
1.01102
1.00717
1.00456
1.00287
1.0018
1.00114
1.00073
1.00047
1.0003
1.00019
1.00012
1.00008
1.00005
1.00003
1.00002
1.00001
1
1
1
1
1
1
1
1
1
1
1
1
1
1
1
1
1
1
1
1
1
1
1
1
1
1
1
1
1
1
0.999999
1
0.999999
0.999999
0.999998
0.999995
0.999991
0.999983
0.999967
0.999941
0.999901
0.999842
0.999768
0.999692
0.999641
0.999699
1.00003
1.00087
1.00263