/*--------------------------------*- C++ -*----------------------------------*\
  =========                 |
  \\      /  F ield         | OpenFOAM: The Open Source CFD Toolbox
   \\    /   O peration     | Website:  https://openfoam.org
    \\  /    A nd           | Version:  6
     \\/     M anipulation  |
\*---------------------------------------------------------------------------*/
FoamFile
{
    version     2.0;
    format      ascii;
    class       volVectorField;
    location    "4.74";
    object      U;
}
// * * * * * * * * * * * * * * * * * * * * * * * * * * * * * * * * * * * * * //

dimensions      [0 1 -1 0 0 0 0];

internalField   nonuniform List<vector> 
10000
(
(0.894392 0.447193 0)
(0.894395 0.447195 0)
(0.894396 0.447197 0)
(0.894397 0.447198 0)
(0.894399 0.447199 0)
(0.894399 0.447199 0)
(0.894399 0.4472 0)
(0.8944 0.4472 0)
(0.8944 0.447199 0)
(0.8944 0.447201 0)
(0.8944 0.447199 0)
(0.8944 0.447201 0)
(0.8944 0.447199 0)
(0.8944 0.4472 0)
(0.8944 0.4472 0)
(0.8944 0.4472 0)
(0.8944 0.4472 0)
(0.8944 0.4472 0)
(0.8944 0.4472 0)
(0.8944 0.4472 0)
(0.8944 0.447201 0)
(0.8944 0.447199 0)
(0.8944 0.4472 0)
(0.8944 0.447201 0)
(0.8944 0.4472 0)
(0.8944 0.447199 0)
(0.8944 0.447201 0)
(0.8944 0.4472 0)
(0.8944 0.4472 0)
(0.8944 0.4472 0)
(0.8944 0.4472 0)
(0.894399 0.4472 0)
(0.8944 0.447201 0)
(0.894401 0.4472 0)
(0.8944 0.4472 0)
(0.894399 0.447199 0)
(0.8944 0.4472 0)
(0.894399 0.447201 0)
(0.894398 0.447201 0)
(0.894397 0.447202 0)
(0.894396 0.447204 0)
(0.894392 0.447207 0)
(0.894388 0.447213 0)
(0.894382 0.447221 0)
(0.894376 0.447232 0)
(0.894372 0.447246 0)
(0.89437 0.447261 0)
(0.894372 0.447276 0)
(0.894378 0.447289 0)
(0.894384 0.447304 0)
(0.894384 0.447326 0)
(0.894371 0.447366 0)
(0.894335 0.44744 0)
(0.894266 0.447569 0)
(0.894157 0.447775 0)
(0.894008 0.44808 0)
(0.893822 0.448498 0)
(0.893607 0.449041 0)
(0.893379 0.449708 0)
(0.893151 0.450487 0)
(0.892942 0.451364 0)
(0.892768 0.452311 0)
(0.892642 0.4533 0)
(0.89258 0.454297 0)
(0.89259 0.455267 0)
(0.892675 0.456173 0)
(0.892838 0.456977 0)
(0.893072 0.457652 0)
(0.893369 0.458169 0)
(0.89372 0.458505 0)
(0.894109 0.458649 0)
(0.894515 0.458585 0)
(0.894919 0.458313 0)
(0.895301 0.457845 0)
(0.895638 0.457194 0)
(0.895909 0.456387 0)
(0.896103 0.455468 0)
(0.896217 0.454484 0)
(0.896251 0.453478 0)
(0.896211 0.452494 0)
(0.896109 0.451568 0)
(0.895963 0.450726 0)
(0.895786 0.44998 0)
(0.89559 0.449337 0)
(0.89539 0.448799 0)
(0.895196 0.448361 0)
(0.895018 0.448014 0)
(0.89486 0.447746 0)
(0.894726 0.447547 0)
(0.894618 0.447405 0)
(0.894535 0.447308 0)
(0.894474 0.447245 0)
(0.894432 0.447207 0)
(0.894406 0.447187 0)
(0.894392 0.447179 0)
(0.894385 0.447177 0)
(0.894383 0.447179 0)
(0.894384 0.447182 0)
(0.894387 0.447186 0)
(0.89439 0.44719 0)
(0.89439 0.447191 0)
(0.894393 0.447194 0)
(0.894395 0.447196 0)
(0.894397 0.447197 0)
(0.894398 0.447198 0)
(0.894399 0.447199 0)
(0.894399 0.447199 0)
(0.8944 0.4472 0)
(0.8944 0.4472 0)
(0.8944 0.4472 0)
(0.8944 0.4472 0)
(0.8944 0.4472 0)
(0.8944 0.4472 0)
(0.8944 0.4472 0)
(0.894401 0.4472 0)
(0.894399 0.4472 0)
(0.8944 0.4472 0)
(0.8944 0.447201 0)
(0.8944 0.447198 0)
(0.8944 0.4472 0)
(0.8944 0.447202 0)
(0.8944 0.447198 0)
(0.8944 0.4472 0)
(0.8944 0.447202 0)
(0.8944 0.447199 0)
(0.8944 0.447199 0)
(0.8944 0.447201 0)
(0.8944 0.4472 0)
(0.8944 0.4472 0)
(0.8944 0.447199 0)
(0.894401 0.4472 0)
(0.8944 0.4472 0)
(0.894399 0.4472 0)
(0.8944 0.4472 0)
(0.8944 0.4472 0)
(0.8944 0.4472 0)
(0.894399 0.4472 0)
(0.894399 0.4472 0)
(0.894399 0.447201 0)
(0.894397 0.447202 0)
(0.894395 0.447204 0)
(0.894391 0.447209 0)
(0.894385 0.447215 0)
(0.894378 0.447226 0)
(0.89437 0.447239 0)
(0.894362 0.447257 0)
(0.894359 0.447277 0)
(0.894362 0.447297 0)
(0.894366 0.447316 0)
(0.894367 0.447342 0)
(0.894355 0.447384 0)
(0.894312 0.447466 0)
(0.894223 0.447618 0)
(0.894073 0.447877 0)
(0.893854 0.448282 0)
(0.893564 0.448869 0)
(0.893218 0.449658 0)
(0.892833 0.450657 0)
(0.892439 0.451855 0)
(0.892066 0.453226 0)
(0.891741 0.454731 0)
(0.891493 0.45632 0)
(0.891345 0.457942 0)
(0.891313 0.45954 0)
(0.89141 0.461058 0)
(0.891638 0.462442 0)
(0.891991 0.463649 0)
(0.89246 0.464635 0)
(0.893026 0.465374 0)
(0.893663 0.46584 0)
(0.894352 0.466016 0)
(0.895064 0.465891 0)
(0.895764 0.465448 0)
(0.896412 0.464681 0)
(0.896966 0.463607 0)
(0.897395 0.462263 0)
(0.897676 0.460705 0)
(0.897796 0.459017 0)
(0.897763 0.457293 0)
(0.897604 0.455618 0)
(0.89735 0.454058 0)
(0.897031 0.452658 0)
(0.896676 0.451443 0)
(0.896312 0.450422 0)
(0.895961 0.449584 0)
(0.895636 0.448915 0)
(0.895347 0.448395 0)
(0.895098 0.448001 0)
(0.894894 0.447712 0)
(0.894731 0.447507 0)
(0.894607 0.447367 0)
(0.894518 0.447277 0)
(0.894457 0.447223 0)
(0.894418 0.447193 0)
(0.894395 0.447179 0)
(0.894384 0.447175 0)
(0.894381 0.447176 0)
(0.894381 0.447179 0)
(0.894384 0.447184 0)
(0.894387 0.447187 0)
(0.894387 0.447189 0)
(0.894391 0.447192 0)
(0.894393 0.447194 0)
(0.894396 0.447197 0)
(0.894397 0.447197 0)
(0.894398 0.447199 0)
(0.894399 0.447199 0)
(0.8944 0.4472 0)
(0.894399 0.4472 0)
(0.8944 0.4472 0)
(0.894399 0.4472 0)
(0.8944 0.447199 0)
(0.894401 0.447201 0)
(0.894399 0.447199 0)
(0.894402 0.4472 0)
(0.894399 0.447202 0)
(0.894399 0.447197 0)
(0.894402 0.447202 0)
(0.894399 0.447202 0)
(0.894399 0.447195 0)
(0.894402 0.447204 0)
(0.894399 0.447201 0)
(0.8944 0.447196 0)
(0.894401 0.447202 0)
(0.8944 0.447201 0)
(0.8944 0.447199 0)
(0.8944 0.447199 0)
(0.894401 0.447201 0)
(0.8944 0.4472 0)
(0.8944 0.447199 0)
(0.894401 0.4472 0)
(0.8944 0.447201 0)
(0.894399 0.4472 0)
(0.8944 0.4472 0)
(0.894401 0.4472 0)
(0.8944 0.4472 0)
(0.894399 0.4472 0)
(0.894399 0.447201 0)
(0.894398 0.447202 0)
(0.894397 0.447202 0)
(0.894394 0.447205 0)
(0.894389 0.447209 0)
(0.894382 0.447218 0)
(0.894372 0.44723 0)
(0.894362 0.447248 0)
(0.894352 0.44727 0)
(0.894347 0.447296 0)
(0.894348 0.447322 0)
(0.89435 0.447351 0)
(0.89434 0.447391 0)
(0.894299 0.447469 0)
(0.894202 0.447623 0)
(0.894018 0.447909 0)
(0.893726 0.44839 0)
(0.893318 0.449127 0)
(0.892801 0.450168 0)
(0.892205 0.451535 0)
(0.891572 0.453217 0)
(0.890951 0.455174 0)
(0.890394 0.457345 0)
(0.889947 0.459652 0)
(0.889644 0.46201 0)
(0.889517 0.464334 0)
(0.889586 0.466546 0)
(0.889855 0.468576 0)
(0.890319 0.470368 0)
(0.890965 0.47188 0)
(0.89176 0.473092 0)
(0.892676 0.473995 0)
(0.893686 0.474583 0)
(0.89476 0.474853 0)
(0.895872 0.474779 0)
(0.896979 0.474331 0)
(0.898028 0.473459 0)
(0.898953 0.472119 0)
(0.899677 0.470303 0)
(0.900135 0.468064 0)
(0.900297 0.465521 0)
(0.900181 0.462836 0)
(0.899832 0.460176 0)
(0.899313 0.457686 0)
(0.898698 0.455462 0)
(0.898047 0.453552 0)
(0.897407 0.451966 0)
(0.896811 0.450688 0)
(0.896279 0.449687 0)
(0.895821 0.448922 0)
(0.895439 0.448351 0)
(0.895131 0.447938 0)
(0.894891 0.447647 0)
(0.89471 0.44745 0)
(0.89458 0.447323 0)
(0.894492 0.447245 0)
(0.894436 0.447202 0)
(0.894403 0.447181 0)
(0.894385 0.447173 0)
(0.894379 0.447173 0)
(0.894378 0.447176 0)
(0.89438 0.44718 0)
(0.894384 0.447185 0)
(0.894385 0.447186 0)
(0.894388 0.44719 0)
(0.894392 0.447193 0)
(0.894394 0.447196 0)
(0.894396 0.447197 0)
(0.894398 0.447198 0)
(0.894398 0.447199 0)
(0.894399 0.447199 0)
(0.894399 0.447201 0)
(0.8944 0.447198 0)
(0.8944 0.447203 0)
(0.894399 0.447198 0)
(0.894402 0.4472 0)
(0.894398 0.447203 0)
(0.8944 0.447195 0)
(0.894404 0.447202 0)
(0.894395 0.447205 0)
(0.894401 0.447192 0)
(0.894404 0.447205 0)
(0.894394 0.447202 0)
(0.894402 0.447195 0)
(0.894404 0.447203 0)
(0.894396 0.447201 0)
(0.8944 0.447197 0)
(0.894402 0.447202 0)
(0.894399 0.447201 0)
(0.894399 0.447198 0)
(0.894401 0.4472 0)
(0.8944 0.447201 0)
(0.894399 0.447199 0)
(0.8944 0.447199 0)
(0.894401 0.447201 0)
(0.894399 0.447201 0)
(0.894399 0.447199 0)
(0.8944 0.4472 0)
(0.894401 0.4472 0)
(0.894399 0.4472 0)
(0.894399 0.4472 0)
(0.894398 0.447201 0)
(0.894397 0.447203 0)
(0.894393 0.447205 0)
(0.894387 0.44721 0)
(0.894378 0.44722 0)
(0.894366 0.447236 0)
(0.894352 0.447258 0)
(0.894339 0.447286 0)
(0.894332 0.447318 0)
(0.894331 0.447351 0)
(0.894325 0.44739 0)
(0.894295 0.447457 0)
(0.894204 0.447592 0)
(0.894008 0.447867 0)
(0.893664 0.448371 0)
(0.89314 0.449206 0)
(0.892436 0.450459 0)
(0.891582 0.452176 0)
(0.890638 0.454352 0)
(0.889686 0.456931 0)
(0.888808 0.459808 0)
(0.888078 0.462859 0)
(0.887556 0.465946 0)
(0.887285 0.468941 0)
(0.887288 0.471726 0)
(0.887574 0.474218 0)
(0.888134 0.476356 0)
(0.888938 0.478123 0)
(0.889939 0.479527 0)
(0.891088 0.480614 0)
(0.892351 0.481433 0)
(0.893699 0.482038 0)
(0.895118 0.482464 0)
(0.896607 0.482707 0)
(0.898163 0.482698 0)
(0.899745 0.482299 0)
(0.901247 0.481338 0)
(0.902526 0.479659 0)
(0.903429 0.477198 0)
(0.90384 0.474026 0)
(0.90373 0.470361 0)
(0.903166 0.466519 0)
(0.902283 0.462804 0)
(0.901224 0.459434 0)
(0.900111 0.456533 0)
(0.899035 0.454137 0)
(0.898057 0.452227 0)
(0.897208 0.450751 0)
(0.896496 0.44964 0)
(0.895918 0.448826 0)
(0.895462 0.448243 0)
(0.895112 0.447838 0)
(0.894853 0.447564 0)
(0.894669 0.447387 0)
(0.894543 0.447278 0)
(0.894462 0.447215 0)
(0.894414 0.447184 0)
(0.894388 0.447171 0)
(0.894377 0.447169 0)
(0.894375 0.447172 0)
(0.894376 0.447176 0)
(0.89438 0.447182 0)
(0.894381 0.447183 0)
(0.894386 0.447188 0)
(0.894389 0.447191 0)
(0.894393 0.447194 0)
(0.894395 0.447196 0)
(0.894397 0.447198 0)
(0.894398 0.447198 0)
(0.894398 0.447199 0)
(0.8944 0.4472 0)
(0.894399 0.447199 0)
(0.894401 0.447199 0)
(0.894399 0.447202 0)
(0.894398 0.447198 0)
(0.894405 0.447197 0)
(0.894394 0.44721 0)
(0.894402 0.447187 0)
(0.894406 0.447205 0)
(0.894388 0.447207 0)
(0.89441 0.447186 0)
(0.894401 0.447208 0)
(0.89439 0.447203 0)
(0.894409 0.447192 0)
(0.8944 0.447204 0)
(0.894394 0.447201 0)
(0.894403 0.447196 0)
(0.894402 0.447202 0)
(0.894397 0.447199 0)
(0.8944 0.447199 0)
(0.894402 0.447201 0)
(0.8944 0.4472 0)
(0.894399 0.447199 0)
(0.8944 0.4472 0)
(0.8944 0.447201 0)
(0.8944 0.447199 0)
(0.8944 0.447199 0)
(0.894401 0.4472 0)
(0.8944 0.447201 0)
(0.894399 0.4472 0)
(0.894398 0.447201 0)
(0.894397 0.447203 0)
(0.894393 0.447206 0)
(0.894385 0.447212 0)
(0.894374 0.447223 0)
(0.894358 0.447242 0)
(0.89434 0.44727 0)
(0.894324 0.447305 0)
(0.894314 0.447343 0)
(0.894309 0.447384 0)
(0.894291 0.447438 0)
(0.894222 0.447543 0)
(0.894045 0.447771 0)
(0.893687 0.448236 0)
(0.893086 0.449081 0)
(0.892209 0.45045 0)
(0.891078 0.452439 0)
(0.889771 0.45506 0)
(0.88841 0.45823 0)
(0.887129 0.461783 0)
(0.886048 0.465511 0)
(0.885257 0.469201 0)
(0.884817 0.472648 0)
(0.884757 0.475685 0)
(0.885078 0.478195 0)
(0.885751 0.480126 0)
(0.88672 0.481488 0)
(0.887908 0.482363 0)
(0.889228 0.482879 0)
(0.890617 0.483196 0)
(0.892039 0.483461 0)
(0.893481 0.483828 0)
(0.894985 0.484399 0)
(0.896619 0.485231 0)
(0.898463 0.486256 0)
(0.900546 0.487241 0)
(0.902786 0.487833 0)
(0.904983 0.487612 0)
(0.906833 0.486216 0)
(0.908022 0.483471 0)
(0.908331 0.479491 0)
(0.907761 0.474696 0)
(0.906514 0.469648 0)
(0.904876 0.464862 0)
(0.90311 0.460654 0)
(0.901402 0.457155 0)
(0.899859 0.454367 0)
(0.898536 0.452224 0)
(0.897449 0.450629 0)
(0.896586 0.449474 0)
(0.895919 0.448659 0)
(0.895417 0.448097 0)
(0.895051 0.447721 0)
(0.894792 0.447478 0)
(0.894615 0.447326 0)
(0.894501 0.447238 0)
(0.894432 0.447192 0)
(0.894395 0.447171 0)
(0.894377 0.447165 0)
(0.894371 0.447167 0)
(0.894372 0.447172 0)
(0.894376 0.447178 0)
(0.894377 0.447179 0)
(0.894382 0.447185 0)
(0.894387 0.44719 0)
(0.894391 0.447192 0)
(0.894393 0.447195 0)
(0.894396 0.447196 0)
(0.894398 0.447198 0)
(0.894397 0.447199 0)
(0.894399 0.4472 0)
(0.8944 0.447196 0)
(0.894396 0.447207 0)
(0.894404 0.447187 0)
(0.894399 0.447216 0)
(0.894393 0.447189 0)
(0.894415 0.447198 0)
(0.894383 0.447216 0)
(0.89441 0.447179 0)
(0.894403 0.447215 0)
(0.894385 0.447198 0)
(0.894417 0.44719 0)
(0.894393 0.447212 0)
(0.894395 0.447195 0)
(0.894411 0.447196 0)
(0.894395 0.447207 0)
(0.894397 0.447197 0)
(0.894406 0.447199 0)
(0.894399 0.447202 0)
(0.894397 0.447199 0)
(0.894402 0.447201 0)
(0.894401 0.4472 0)
(0.894399 0.447199 0)
(0.894399 0.4472 0)
(0.8944 0.447201 0)
(0.894401 0.4472 0)
(0.894399 0.447199 0)
(0.8944 0.4472 0)
(0.8944 0.447201 0)
(0.894399 0.4472 0)
(0.894398 0.447201 0)
(0.894397 0.447203 0)
(0.894392 0.447206 0)
(0.894383 0.447212 0)
(0.894369 0.447226 0)
(0.89435 0.447248 0)
(0.894326 0.447283 0)
(0.894306 0.447325 0)
(0.894293 0.44737 0)
(0.894282 0.447419 0)
(0.894241 0.447495 0)
(0.894108 0.447659 0)
(0.89379 0.44803 0)
(0.893179 0.448785 0)
(0.892193 0.450133 0)
(0.890814 0.452252 0)
(0.889125 0.455201 0)
(0.887298 0.458875 0)
(0.885541 0.463026 0)
(0.88405 0.467321 0)
(0.882968 0.47142 0)
(0.882373 0.475022 0)
(0.882297 0.477891 0)
(0.882727 0.479862 0)
(0.883601 0.480878 0)
(0.884818 0.480996 0)
(0.886241 0.480386 0)
(0.887721 0.479288 0)
(0.88914 0.478005 0)
(0.890451 0.476829 0)
(0.891632 0.476022 0)
(0.892729 0.475792 0)
(0.893841 0.476317 0)
(0.895123 0.477773 0)
(0.89681 0.480188 0)
(0.899089 0.483358 0)
(0.902002 0.486746 0)
(0.905351 0.489613 0)
(0.908698 0.491202 0)
(0.911477 0.490886 0)
(0.913104 0.488357 0)
(0.913257 0.483832 0)
(0.912032 0.478019 0)
(0.909869 0.471861 0)
(0.907302 0.466124 0)
(0.904736 0.461229 0)
(0.902405 0.457291 0)
(0.900415 0.454254 0)
(0.898792 0.451995 0)
(0.897518 0.450367 0)
(0.89655 0.449227 0)
(0.895834 0.44845 0)
(0.895319 0.447935 0)
(0.894959 0.447603 0)
(0.894716 0.447396 0)
(0.894558 0.447274 0)
(0.894461 0.447206 0)
(0.894406 0.447174 0)
(0.894379 0.447162 0)
(0.894369 0.447162 0)
(0.894368 0.447166 0)
(0.894372 0.447173 0)
(0.894372 0.447175 0)
(0.894378 0.447181 0)
(0.894384 0.447187 0)
(0.894389 0.44719 0)
(0.894391 0.447195 0)
(0.894395 0.447194 0)
(0.894397 0.4472 0)
(0.894396 0.447194 0)
(0.894403 0.447206 0)
(0.894392 0.447191 0)
(0.894412 0.447204 0)
(0.89438 0.447207 0)
(0.894422 0.447176 0)
(0.894385 0.447233 0)
(0.894397 0.447175 0)
(0.894423 0.447207 0)
(0.894368 0.447208 0)
(0.894425 0.447186 0)
(0.894394 0.447213 0)
(0.894388 0.447191 0)
(0.894418 0.447202 0)
(0.894388 0.447206 0)
(0.8944 0.447192 0)
(0.894408 0.447204 0)
(0.894393 0.447202 0)
(0.8944 0.447196 0)
(0.894405 0.447201 0)
(0.894397 0.4472 0)
(0.894398 0.447199 0)
(0.894403 0.447201 0)
(0.894401 0.447199 0)
(0.894398 0.4472 0)
(0.8944 0.447201 0)
(0.894402 0.4472 0)
(0.8944 0.447199 0)
(0.894399 0.447199 0)
(0.8944 0.447202 0)
(0.8944 0.447201 0)
(0.894397 0.4472 0)
(0.894397 0.447203 0)
(0.894391 0.447207 0)
(0.894381 0.447214 0)
(0.894364 0.44723 0)
(0.894339 0.447257 0)
(0.89431 0.447297 0)
(0.894286 0.447346 0)
(0.894269 0.447398 0)
(0.894248 0.447458 0)
(0.894169 0.447564 0)
(0.893933 0.447817 0)
(0.893397 0.4484 0)
(0.892409 0.449577 0)
(0.890878 0.451629 0)
(0.888848 0.454718 0)
(0.886527 0.458762 0)
(0.884228 0.463417 0)
(0.88227 0.46818 0)
(0.880877 0.472528 0)
(0.880163 0.47603 0)
(0.880152 0.478366 0)
(0.880803 0.479335 0)
(0.882019 0.47886 0)
(0.883627 0.477046 0)
(0.885405 0.474155 0)
(0.887119 0.470595 0)
(0.888571 0.466799 0)
(0.889646 0.46321 0)
(0.890353 0.460214 0)
(0.890784 0.458129 0)
(0.89106 0.457078 0)
(0.891266 0.457229 0)
(0.891621 0.458867 0)
(0.892499 0.46229 0)
(0.894361 0.467591 0)
(0.897537 0.474277 0)
(0.901931 0.481331 0)
(0.907029 0.487536 0)
(0.912059 0.491765 0)
(0.916095 0.493171 0)
(0.918276 0.4913 0)
(0.918167 0.486511 0)
(0.916079 0.479919 0)
(0.912829 0.472888 0)
(0.90925 0.466464 0)
(0.905892 0.461135 0)
(0.903004 0.456974 0)
(0.900651 0.453858 0)
(0.898813 0.451604 0)
(0.897425 0.450023 0)
(0.896411 0.448947 0)
(0.895688 0.448235 0)
(0.895189 0.447779 0)
(0.894854 0.447495 0)
(0.894637 0.447327 0)
(0.894503 0.447232 0)
(0.894425 0.447183 0)
(0.894385 0.447162 0)
(0.894367 0.447158 0)
(0.894363 0.447161 0)
(0.894366 0.447167 0)
(0.894367 0.44717 0)
(0.894372 0.447176 0)
(0.89438 0.447184 0)
(0.894384 0.447187 0)
(0.894391 0.447192 0)
(0.894391 0.447196 0)
(0.8944 0.447191 0)
(0.894388 0.44721 0)
(0.894411 0.447176 0)
(0.894387 0.447234 0)
(0.894399 0.447156 0)
(0.894423 0.447236 0)
(0.894354 0.44719 0)
(0.894457 0.447175 0)
(0.894351 0.447248 0)
(0.894423 0.447153 0)
(0.894408 0.447228 0)
(0.894367 0.447194 0)
(0.894439 0.447193 0)
(0.894376 0.447211 0)
(0.8944 0.447191 0)
(0.894417 0.447206 0)
(0.894384 0.447198 0)
(0.894405 0.447198 0)
(0.894405 0.447205 0)
(0.894393 0.447197 0)
(0.894403 0.447199 0)
(0.894403 0.447203 0)
(0.894396 0.447199 0)
(0.894401 0.4472 0)
(0.894403 0.4472 0)
(0.894398 0.4472 0)
(0.894398 0.4472 0)
(0.894402 0.4472 0)
(0.894401 0.447199 0)
(0.894399 0.4472 0)
(0.894399 0.447201 0)
(0.8944 0.447201 0)
(0.894398 0.447201 0)
(0.894396 0.447202 0)
(0.89439 0.447207 0)
(0.894378 0.447216 0)
(0.894357 0.447234 0)
(0.894327 0.447266 0)
(0.894292 0.447312 0)
(0.894263 0.447369 0)
(0.894242 0.447427 0)
(0.894204 0.447499 0)
(0.894064 0.44765 0)
(0.89367 0.448032 0)
(0.892811 0.448923 0)
(0.89129 0.450691 0)
(0.889044 0.453662 0)
(0.886263 0.457872 0)
(0.883369 0.462927 0)
(0.880855 0.468114 0)
(0.879103 0.472664 0)
(0.87829 0.475955 0)
(0.878416 0.477587 0)
(0.879397 0.477343 0)
(0.881089 0.475147 0)
(0.883243 0.471122 0)
(0.885523 0.465653 0)
(0.887553 0.459317 0)
(0.889042 0.452776 0)
(0.889848 0.446615 0)
(0.889946 0.441252 0)
(0.889449 0.437016 0)
(0.888699 0.43414 0)
(0.887909 0.432546 0)
(0.887057 0.432146 0)
(0.886214 0.433099 0)
(0.885743 0.436103 0)
(0.886424 0.441924 0)
(0.889037 0.450741 0)
(0.89388 0.461636 0)
(0.900574 0.472891 0)
(0.908053 0.482711 0)
(0.91513 0.489784 0)
(0.92052 0.493031 0)
(0.923104 0.491995 0)
(0.922516 0.487191 0)
(0.919401 0.480144 0)
(0.915013 0.472625 0)
(0.910488 0.465881 0)
(0.906462 0.46043 0)
(0.903157 0.456283 0)
(0.900573 0.453252 0)
(0.898626 0.451108 0)
(0.897206 0.449639 0)
(0.8962 0.448662 0)
(0.895508 0.448032 0)
(0.895046 0.44764 0)
(0.894748 0.447405 0)
(0.894563 0.447271 0)
(0.894455 0.4472 0)
(0.894396 0.447167 0)
(0.894369 0.447156 0)
(0.89436 0.447156 0)
(0.894361 0.447162 0)
(0.894361 0.447164 0)
(0.894366 0.447172 0)
(0.894376 0.447179 0)
(0.894381 0.447185 0)
(0.894386 0.447188 0)
(0.894395 0.447198 0)
(0.894384 0.447184 0)
(0.894417 0.447213 0)
(0.89436 0.447187 0)
(0.894455 0.447189 0)
(0.894329 0.447245 0)
(0.894458 0.447121 0)
(0.89438 0.447288 0)
(0.894367 0.447131 0)
(0.894472 0.447234 0)
(0.894321 0.447201 0)
(0.89446 0.447175 0)
(0.894372 0.447235 0)
(0.894395 0.447169 0)
(0.89443 0.447216 0)
(0.894365 0.447199 0)
(0.89442 0.447194 0)
(0.894402 0.447207 0)
(0.894385 0.447195 0)
(0.894412 0.447203 0)
(0.894399 0.4472 0)
(0.894393 0.447196 0)
(0.894405 0.447203 0)
(0.894399 0.4472 0)
(0.894396 0.447198 0)
(0.894403 0.447201 0)
(0.894401 0.447201 0)
(0.894397 0.4472 0)
(0.894401 0.4472 0)
(0.894402 0.447199 0)
(0.894399 0.4472 0)
(0.894398 0.447201 0)
(0.894399 0.447201 0)
(0.894399 0.447201 0)
(0.894396 0.447203 0)
(0.894387 0.447207 0)
(0.894375 0.447218 0)
(0.894351 0.44724 0)
(0.894314 0.447276 0)
(0.894272 0.447328 0)
(0.894238 0.447391 0)
(0.894211 0.447456 0)
(0.894146 0.447545 0)
(0.893913 0.447759 0)
(0.893286 0.448327 0)
(0.891967 0.449646 0)
(0.889732 0.452203 0)
(0.886633 0.456274 0)
(0.883129 0.46157 0)
(0.879942 0.467192 0)
(0.877705 0.472032 0)
(0.876736 0.475203 0)
(0.877033 0.476202 0)
(0.878414 0.474833 0)
(0.880652 0.471069 0)
(0.88345 0.465048 0)
(0.886331 0.457231 0)
(0.888728 0.448419 0)
(0.890173 0.439569 0)
(0.89046 0.431505 0)
(0.889693 0.424805 0)
(0.888148 0.419577 0)
(0.886093 0.415761 0)
(0.884021 0.413345 0)
(0.882356 0.412154 0)
(0.881032 0.411605 0)
(0.879522 0.411344 0)
(0.877824 0.412109 0)
(0.876811 0.415307 0)
(0.877801 0.422668 0)
(0.881933 0.434528 0)
(0.889384 0.449233 0)
(0.899024 0.464123 0)
(0.909195 0.476902 0)
(0.918217 0.486177 0)
(0.924611 0.490891 0)
(0.927193 0.490516 0)
(0.925795 0.485837 0)
(0.921561 0.478705 0)
(0.916157 0.471151 0)
(0.910899 0.464509 0)
(0.906431 0.459251 0)
(0.902899 0.45533 0)
(0.900229 0.452518 0)
(0.898282 0.450566 0)
(0.896902 0.449253 0)
(0.895952 0.448395 0)
(0.895317 0.447853 0)
(0.894906 0.447523 0)
(0.894651 0.447333 0)
(0.8945 0.447229 0)
(0.894416 0.447179 0)
(0.894375 0.447157 0)
(0.894358 0.447153 0)
(0.894356 0.447157 0)
(0.894354 0.447158 0)
(0.894361 0.447168 0)
(0.89437 0.447174 0)
(0.894378 0.447179 0)
(0.894379 0.447196 0)
(0.894399 0.44717 0)
(0.894374 0.447232 0)
(0.894412 0.447138 0)
(0.894398 0.447275 0)
(0.894354 0.447114 0)
(0.894502 0.447262 0)
(0.894246 0.447193 0)
(0.894565 0.447139 0)
(0.894269 0.447304 0)
(0.894459 0.447096 0)
(0.894417 0.447275 0)
(0.894334 0.447154 0)
(0.894475 0.447225 0)
(0.894344 0.447193 0)
(0.894427 0.447187 0)
(0.894399 0.447224 0)
(0.89438 0.447181 0)
(0.894426 0.447204 0)
(0.894386 0.4472 0)
(0.894396 0.447201 0)
(0.894413 0.447203 0)
(0.894392 0.447195 0)
(0.894399 0.447202 0)
(0.894405 0.447203 0)
(0.894397 0.447197 0)
(0.894399 0.447199 0)
(0.894402 0.447202 0)
(0.894398 0.4472 0)
(0.894399 0.447199 0)
(0.894402 0.4472 0)
(0.8944 0.447201 0)
(0.894398 0.4472 0)
(0.894399 0.4472 0)
(0.8944 0.447202 0)
(0.894396 0.447204 0)
(0.894386 0.447207 0)
(0.89437 0.447219 0)
(0.894342 0.447245 0)
(0.894299 0.447287 0)
(0.89425 0.447345 0)
(0.89421 0.447413 0)
(0.894175 0.447484 0)
(0.894069 0.447596 0)
(0.893699 0.447899 0)
(0.892737 0.448727 0)
(0.890793 0.450628 0)
(0.887666 0.454173 0)
(0.883672 0.459403 0)
(0.879691 0.465435 0)
(0.876743 0.470769 0)
(0.875441 0.4741 0)
(0.875832 0.474752 0)
(0.87762 0.472588 0)
(0.880426 0.467694 0)
(0.883865 0.460241 0)
(0.887381 0.450684 0)
(0.890158 0.44001 0)
(0.8914 0.429555 0)
(0.890749 0.420609 0)
(0.88839 0.413909 0)
(0.884963 0.409676 0)
(0.881317 0.40742 0)
(0.877919 0.406293 0)
(0.875021 0.405826 0)
(0.873248 0.406045 0)
(0.872657 0.406204 0)
(0.871983 0.40544 0)
(0.870333 0.403693 0)
(0.868053 0.402136 0)
(0.866923 0.403377 0)
(0.869041 0.410272 0)
(0.875424 0.423381 0)
(0.885932 0.440422 0)
(0.898623 0.457364 0)
(0.911162 0.471733 0)
(0.921568 0.482072 0)
(0.928234 0.487386 0)
(0.930144 0.487301 0)
(0.927638 0.482778 0)
(0.922328 0.475899 0)
(0.916173 0.468749 0)
(0.910511 0.46258 0)
(0.905874 0.457774 0)
(0.902317 0.454238 0)
(0.899701 0.451735 0)
(0.89784 0.450023 0)
(0.896556 0.448886 0)
(0.895694 0.448155 0)
(0.895132 0.4477 0)
(0.89478 0.447429 0)
(0.894568 0.447278 0)
(0.894449 0.4472 0)
(0.894387 0.447164 0)
(0.89436 0.447152 0)
(0.894352 0.447153 0)
(0.894348 0.447153 0)
(0.894355 0.447165 0)
(0.894366 0.447165 0)
(0.894363 0.447185 0)
(0.894397 0.447175 0)
(0.894352 0.447198 0)
(0.894444 0.447178 0)
(0.894309 0.44723 0)
(0.894503 0.447116 0)
(0.894289 0.447336 0)
(0.894473 0.447016 0)
(0.894393 0.447401 0)
(0.894317 0.447018 0)
(0.894559 0.44732 0)
(0.894206 0.447163 0)
(0.89457 0.44717 0)
(0.894299 0.447256 0)
(0.894419 0.447149 0)
(0.894439 0.447245 0)
(0.894342 0.447161 0)
(0.894448 0.447221 0)
(0.894377 0.447195 0)
(0.894401 0.447197 0)
(0.894412 0.447213 0)
(0.894382 0.447188 0)
(0.894412 0.447202 0)
(0.894403 0.447201 0)
(0.89439 0.4472 0)
(0.894404 0.447202 0)
(0.894403 0.447198 0)
(0.894397 0.447198 0)
(0.894401 0.447203 0)
(0.894401 0.447201 0)
(0.894399 0.447198 0)
(0.894401 0.447199 0)
(0.894401 0.447203 0)
(0.894398 0.447201 0)
(0.894398 0.447199 0)
(0.894399 0.447201 0)
(0.894395 0.447205 0)
(0.894386 0.447208 0)
(0.894366 0.447221 0)
(0.894332 0.447249 0)
(0.894281 0.447297 0)
(0.894226 0.447362 0)
(0.894181 0.447435 0)
(0.894133 0.447511 0)
(0.893965 0.447655 0)
(0.893398 0.448083 0)
(0.891974 0.449264 0)
(0.889218 0.451925 0)
(0.88507 0.456607 0)
(0.880318 0.462819 0)
(0.876372 0.468854 0)
(0.874384 0.472778 0)
(0.87464 0.47354 0)
(0.876746 0.471032 0)
(0.880088 0.465555 0)
(0.884126 0.457386 0)
(0.888258 0.446852 0)
(0.891449 0.434927 0)
(0.892434 0.423377 0)
(0.890386 0.414088 0)
(0.88549 0.408342 0)
(0.878772 0.406362 0)
(0.871725 0.407569 0)
(0.865906 0.410766 0)
(0.862071 0.414085 0)
(0.859836 0.416312 0)
(0.859387 0.417783 0)
(0.8609 0.418564 0)
(0.863093 0.418106 0)
(0.86376 0.415606 0)
(0.86205 0.411557 0)
(0.859608 0.406553 0)
(0.859271 0.403973 0)
(0.863078 0.40805 0)
(0.872125 0.420119 0)
(0.885329 0.437017 0)
(0.900374 0.454031 0)
(0.914354 0.468138 0)
(0.925065 0.478224 0)
(0.931062 0.48322 0)
(0.931691 0.48296 0)
(0.927888 0.478599 0)
(0.921719 0.472238 0)
(0.915185 0.465807 0)
(0.909462 0.460368 0)
(0.904923 0.456178 0)
(0.901519 0.453119 0)
(0.899067 0.45097 0)
(0.897359 0.449513 0)
(0.896205 0.448557 0)
(0.895447 0.447948 0)
(0.894965 0.447575 0)
(0.894671 0.447357 0)
(0.894501 0.447237 0)
(0.894409 0.44718 0)
(0.894366 0.447155 0)
(0.894351 0.447151 0)
(0.894341 0.447152 0)
(0.894354 0.447157 0)
(0.894348 0.447161 0)
(0.894373 0.447186 0)
(0.894368 0.44715 0)
(0.894394 0.447243 0)
(0.894348 0.447108 0)
(0.894476 0.44729 0)
(0.894236 0.447098 0)
(0.894654 0.447267 0)
(0.894049 0.447208 0)
(0.894765 0.447079 0)
(0.894109 0.447403 0)
(0.894557 0.446967 0)
(0.894374 0.447425 0)
(0.894323 0.447011 0)
(0.894537 0.447333 0)
(0.89425 0.447131 0)
(0.894518 0.447213 0)
(0.89435 0.447207 0)
(0.894388 0.447194 0)
(0.894432 0.447227 0)
(0.894367 0.447161 0)
(0.894427 0.447211 0)
(0.894395 0.447208 0)
(0.894387 0.4472 0)
(0.894414 0.447201 0)
(0.894395 0.447193 0)
(0.894396 0.447204 0)
(0.894407 0.447202 0)
(0.894398 0.447196 0)
(0.894397 0.447201 0)
(0.894402 0.447202 0)
(0.894401 0.447199 0)
(0.894399 0.447198 0)
(0.894399 0.447202 0)
(0.8944 0.447201 0)
(0.894401 0.447199 0)
(0.894398 0.447202 0)
(0.894394 0.447205 0)
(0.894384 0.447209 0)
(0.894362 0.447223 0)
(0.894321 0.447254 0)
(0.894262 0.447308 0)
(0.8942 0.44738 0)
(0.89415 0.447455 0)
(0.894082 0.447537 0)
(0.893825 0.447725 0)
(0.892982 0.448325 0)
(0.89094 0.449976 0)
(0.887185 0.453581 0)
(0.882007 0.459418 0)
(0.876886 0.4661 0)
(0.873707 0.47111 0)
(0.873384 0.472586 0)
(0.875561 0.470255 0)
(0.879361 0.464706 0)
(0.883963 0.456454 0)
(0.888658 0.445746 0)
(0.892404 0.433154 0)
(0.89338 0.42058 0)
(0.889876 0.410743 0)
(0.881612 0.405756 0)
(0.870002 0.40616 0)
(0.857327 0.411136 0)
(0.84606 0.419179 0)
(0.838396 0.428576 0)
(0.835412 0.436637 0)
(0.836025 0.441286 0)
(0.838982 0.442579 0)
(0.844164 0.441888 0)
(0.850963 0.439788 0)
(0.856192 0.436485 0)
(0.857968 0.432974 0)
(0.856529 0.428367 0)
(0.854696 0.42153 0)
(0.856274 0.415611 0)
(0.862496 0.415569 0)
(0.873754 0.424652 0)
(0.888637 0.439162 0)
(0.904602 0.454033 0)
(0.918517 0.46641 0)
(0.928346 0.47496 0)
(0.93271 0.478875 0)
(0.931669 0.47813 0)
(0.926679 0.473934 0)
(0.919987 0.468258 0)
(0.913451 0.462723 0)
(0.907971 0.458121 0)
(0.903731 0.454607 0)
(0.90061 0.45205 0)
(0.898397 0.450263 0)
(0.896881 0.449058 0)
(0.895874 0.448271 0)
(0.895224 0.447775 0)
(0.894821 0.447474 0)
(0.894581 0.447301 0)
(0.894449 0.44721 0)
(0.89438 0.447167 0)
(0.894354 0.447151 0)
(0.894342 0.447157 0)
(0.894349 0.447141 0)
(0.894333 0.447184 0)
(0.894392 0.447125 0)
(0.894318 0.447249 0)
(0.894443 0.447077 0)
(0.894297 0.447333 0)
(0.894483 0.446975 0)
(0.894341 0.447502 0)
(0.894361 0.446836 0)
(0.894506 0.447558 0)
(0.89421 0.44687 0)
(0.894695 0.447459 0)
(0.894011 0.447045 0)
(0.89478 0.447256 0)
(0.89413 0.447205 0)
(0.894536 0.447143 0)
(0.894375 0.447292 0)
(0.894346 0.447114 0)
(0.894483 0.447276 0)
(0.894314 0.447137 0)
(0.894472 0.447215 0)
(0.894384 0.447207 0)
(0.89437 0.447212 0)
(0.894423 0.447207 0)
(0.894389 0.447167 0)
(0.894408 0.447211 0)
(0.894404 0.447212 0)
(0.894386 0.447195 0)
(0.894406 0.447197 0)
(0.894406 0.447199 0)
(0.894393 0.447202 0)
(0.894399 0.447201 0)
(0.894405 0.447199 0)
(0.894401 0.447199 0)
(0.894397 0.447202 0)
(0.894399 0.4472 0)
(0.894401 0.447198 0)
(0.894397 0.447201 0)
(0.894393 0.447204 0)
(0.894384 0.447212 0)
(0.894358 0.447227 0)
(0.894308 0.447258 0)
(0.89424 0.447318 0)
(0.894171 0.447396 0)
(0.894116 0.447472 0)
(0.89402 0.447561 0)
(0.893635 0.447813 0)
(0.892415 0.44864 0)
(0.889578 0.450904 0)
(0.884682 0.455601 0)
(0.87865 0.462379 0)
(0.873809 0.468694 0)
(0.872183 0.471634 0)
(0.873972 0.470116 0)
(0.878034 0.464913 0)
(0.883157 0.457035 0)
(0.888438 0.446789 0)
(0.892838 0.434265 0)
(0.894393 0.420711 0)
(0.890212 0.409489 0)
(0.878603 0.40399 0)
(0.860847 0.405562 0)
(0.840294 0.413213 0)
(0.820571 0.424908 0)
(0.804766 0.43888 0)
(0.795625 0.453447 0)
(0.79441 0.465712 0)
(0.799774 0.472775 0)
(0.808662 0.473495 0)
(0.819625 0.469533 0)
(0.832021 0.462172 0)
(0.843321 0.453722 0)
(0.850939 0.446496 0)
(0.853902 0.443942 0)
(0.853546 0.44258 0)
(0.854326 0.437991 0)
(0.858616 0.431105 0)
(0.867685 0.428464 0)
(0.880342 0.433897 0)
(0.895527 0.445067 0)
(0.910836 0.456507 0)
(0.923175 0.466017 0)
(0.930816 0.472269 0)
(0.932958 0.474661 0)
(0.93017 0.473268 0)
(0.924295 0.469314 0)
(0.917509 0.464408 0)
(0.911291 0.4598 0)
(0.906256 0.45603 0)
(0.902444 0.453164 0)
(0.899677 0.451086 0)
(0.897742 0.449637 0)
(0.896433 0.448663 0)
(0.895576 0.448031 0)
(0.895033 0.447633 0)
(0.894701 0.447395 0)
(0.894511 0.447259 0)
(0.894409 0.447191 0)
(0.894361 0.447156 0)
(0.894363 0.447152 0)
(0.894313 0.447158 0)
(0.894386 0.447144 0)
(0.894291 0.447177 0)
(0.894448 0.447174 0)
(0.894233 0.447151 0)
(0.894597 0.447204 0)
(0.894096 0.447213 0)
(0.894768 0.447148 0)
(0.893878 0.447272 0)
(0.89499 0.44701 0)
(0.893877 0.447529 0)
(0.894759 0.446754 0)
(0.894203 0.447696 0)
(0.89442 0.446727 0)
(0.894571 0.447579 0)
(0.894096 0.446941 0)
(0.894682 0.447387 0)
(0.894219 0.447057 0)
(0.894514 0.44724 0)
(0.894372 0.447232 0)
(0.894346 0.447196 0)
(0.894447 0.447215 0)
(0.894368 0.447134 0)
(0.894439 0.447226 0)
(0.894395 0.447224 0)
(0.894369 0.447196 0)
(0.894421 0.447196 0)
(0.894401 0.447186 0)
(0.894393 0.447209 0)
(0.894407 0.447207 0)
(0.894396 0.447193 0)
(0.894397 0.4472 0)
(0.894403 0.447201 0)
(0.894401 0.447198 0)
(0.894398 0.447201 0)
(0.894402 0.447202 0)
(0.894403 0.447202 0)
(0.894394 0.447199 0)
(0.894389 0.4472 0)
(0.89438 0.447211 0)
(0.894353 0.44723 0)
(0.894296 0.447265 0)
(0.894217 0.447329 0)
(0.894141 0.447409 0)
(0.89408 0.447483 0)
(0.893941 0.447587 0)
(0.893379 0.447924 0)
(0.891658 0.449049 0)
(0.887838 0.452089 0)
(0.881756 0.457924 0)
(0.87529 0.465127 0)
(0.871535 0.470081 0)
(0.872073 0.470255 0)
(0.876008 0.46589 0)
(0.881563 0.4586 0)
(0.887452 0.4492 0)
(0.892611 0.43749 0)
(0.895272 0.423597 0)