/*--------------------------------*- C++ -*----------------------------------*\
  =========                 |
  \\      /  F ield         | OpenFOAM: The Open Source CFD Toolbox
   \\    /   O peration     | Website:  https://openfoam.org
    \\  /    A nd           | Version:  6
     \\/     M anipulation  |
\*---------------------------------------------------------------------------*/
FoamFile
{
    version     2.0;
    format      ascii;
    class       volScalarField;
    location    "4.67";
    object      rho;
}
// * * * * * * * * * * * * * * * * * * * * * * * * * * * * * * * * * * * * * //

dimensions      [1 -3 0 0 0 0 0];

internalField   nonuniform List<scalar> 
10000
(
1.39999
1.4
1.4
1.4
1.4
1.4
1.4
1.4
1.4
1.4
1.4
1.40001
1.4
1.40001
1.4
1.40001
1.4
1.40001
1.4
1.40001
1.4
1.40001
1.4
1.40001
1.40001
1.4
1.40001
1.40001
1.4
1.40001
1.40001
1.4
1.40001
1.40001
1.40001
1.40001
1.40001
1.40001
1.40001
1.40001
1.40002
1.40002
1.40003
1.40003
1.40004
1.40005
1.40005
1.40005
1.40005
1.40005
1.40007
1.40011
1.40022
1.40041
1.40073
1.40121
1.40188
1.40276
1.40385
1.40513
1.40657
1.40813
1.40974
1.41134
1.41286
1.41425
1.41546
1.41644
1.41718
1.41765
1.41784
1.41775
1.41739
1.41676
1.41588
1.41478
1.41349
1.41206
1.41056
1.40904
1.40756
1.40618
1.40494
1.40386
1.40294
1.40219
1.40158
1.40112
1.40076
1.4005
1.40032
1.40019
1.4001
1.40005
1.40001
1.4
1.39999
1.39999
1.39999
1.39999
1.39999
1.39999
1.4
1.4
1.4
1.4
1.4
1.4
1.4
1.4
1.4
1.4
1.40001
1.4
1.40001
1.40001
1.4
1.40001
1.4
1.40001
1.4
1.40001
1.4
1.40001
1.4
1.40001
1.4
1.40001
1.4
1.40001
1.4
1.40001
1.40001
1.40001
1.40001
1.40001
1.40001
1.40001
1.40001
1.40001
1.40002
1.40003
1.40004
1.40005
1.40006
1.40006
1.40007
1.40007
1.40008
1.4001
1.40015
1.40026
1.40046
1.4008
1.40133
1.4021
1.40314
1.40445
1.40604
1.40787
1.40987
1.41197
1.41409
1.41615
1.41807
1.41979
1.42124
1.42241
1.42327
1.4238
1.42401
1.42389
1.42344
1.42268
1.42162
1.42026
1.41865
1.41682
1.41485
1.41282
1.41081
1.4089
1.40714
1.4056
1.40427
1.40318
1.40231
1.40163
1.40111
1.40073
1.40046
1.40027
1.40014
1.40007
1.40002
1.39999
1.39998
1.39998
1.39998
1.39998
1.39998
1.39999
1.39999
1.4
1.4
1.4
1.4
1.4
1.4
1.4
1.4
1.4
1.4
1.40001
1.4
1.40001
1.4
1.40001
1.4
1.40001
1.40001
1.40001
1.4
1.40001
1.4
1.4
1.40001
1.4
1.4
1.40001
1.40001
1.4
1.40001
1.40001
1.40001
1.40001
1.40001
1.40001
1.40001
1.40002
1.40003
1.40004
1.40005
1.40006
1.40007
1.40009
1.4001
1.40011
1.40013
1.40018
1.40029
1.40049
1.40084
1.40141
1.40225
1.40343
1.40497
1.40688
1.40911
1.41159
1.41425
1.41696
1.41962
1.42212
1.42439
1.42635
1.42798
1.42925
1.43016
1.43071
1.4309
1.43076
1.43027
1.42944
1.42827
1.42674
1.42488
1.4227
1.42029
1.41772
1.4151
1.41255
1.41016
1.40801
1.40616
1.40461
1.40335
1.40237
1.40162
1.40107
1.40067
1.4004
1.40022
1.4001
1.40003
1.39999
1.39998
1.39997
1.39997
1.39998
1.39998
1.39998
1.39999
1.39999
1.4
1.4
1.4
1.4
1.4
1.4
1.4
1.4
1.40001
1.4
1.40001
1.4
1.40001
1.4
1.40001
1.40001
1.4
1.40001
1.4
1.40001
1.40001
1.4
1.4
1.40001
1.4
1.4
1.40001
1.40001
1.4
1.40001
1.40001
1.40001
1.40001
1.40001
1.40002
1.40002
1.40003
1.40005
1.40006
1.40008
1.4001
1.40012
1.40014
1.40016
1.40021
1.40031
1.4005
1.40085
1.40143
1.40233
1.40362
1.40537
1.40757
1.41021
1.41321
1.41645
1.41979
1.42308
1.4262
1.42902
1.43147
1.43352
1.43514
1.43635
1.43719
1.43766
1.43781
1.43765
1.43718
1.4364
1.43526
1.43374
1.43182
1.42947
1.42674
1.42371
1.4205
1.41726
1.41414
1.41127
1.40874
1.40659
1.40483
1.40343
1.40236
1.40156
1.40099
1.40059
1.40033
1.40016
1.40006
1.4
1.39997
1.39996
1.39996
1.39997
1.39997
1.39997
1.39998
1.39999
1.39999
1.4
1.4
1.4
1.4
1.4
1.4
1.4
1.40001
1.4
1.40001
1.40001
1.40001
1.40001
1.40001
1.4
1.40001
1.4
1.40001
1.40001
1.4
1.40001
1.4
1.4
1.40001
1.4
1.40001
1.40001
1.40001
1.40001
1.40001
1.40001
1.40001
1.40001
1.40002
1.40003
1.40004
1.40006
1.40008
1.40011
1.40013
1.40016
1.40019
1.40024
1.40033
1.40051
1.40084
1.40141
1.40232
1.40369
1.40559
1.40806
1.4111
1.41461
1.41845
1.42244
1.42639
1.4301
1.43344
1.4363
1.43864
1.44047
1.44181
1.44274
1.44331
1.44359
1.44363
1.44346
1.44309
1.44249
1.44162
1.44039
1.43872
1.43652
1.43379
1.43054
1.4269
1.42305
1.41918
1.4155
1.41217
1.40927
1.40685
1.40491
1.40341
1.40228
1.40146
1.40089
1.4005
1.40025
1.4001
1.40001
1.39997
1.39995
1.39995
1.39996
1.39995
1.39997
1.39998
1.39998
1.39999
1.4
1.4
1.4
1.4
1.4
1.4
1.4
1.4
1.4
1.40001
1.4
1.40001
1.4
1.40001
1.4
1.40001
1.40001
1.4
1.4
1.40001
1.4
1.4
1.40001
1.4
1.4
1.40001
1.40001
1.40001
1.40001
1.40001
1.40001
1.40001
1.40002
1.40003
1.40004
1.40006
1.40008
1.40011
1.40014
1.40017
1.40021
1.40026
1.40035
1.40051
1.40081
1.40134
1.40223
1.40362
1.40562
1.40831
1.4117
1.4157
1.42014
1.42479
1.42937
1.43366
1.43744
1.44059
1.44305
1.44485
1.44606
1.44677
1.44711
1.4472
1.44714
1.447
1.44683
1.44663
1.44639
1.44602
1.44542
1.44442
1.44286
1.44061
1.4376
1.43391
1.4297
1.42522
1.42075
1.41654
1.41277
1.40956
1.40692
1.40485
1.40328
1.40213
1.40131
1.40076
1.4004
1.40017
1.40004
1.39997
1.39995
1.39994
1.39994
1.39994
1.39995
1.39997
1.39998
1.39999
1.39999
1.4
1.4
1.4
1.4
1.4
1.4
1.4
1.4
1.4
1.4
1.40001
1.4
1.40001
1.40001
1.4
1.40001
1.40001
1.4
1.40001
1.40001
1.4
1.40001
1.40001
1.4
1.40001
1.40001
1.40001
1.40001
1.40001
1.40001
1.40002
1.40002
1.40003
1.40005
1.40007
1.4001
1.40014
1.40018
1.40022
1.40028
1.40036
1.4005
1.40077
1.40125
1.40208
1.40342
1.40545
1.40828
1.41195
1.4164
1.42141
1.4267
1.43192
1.43673
1.44087
1.44417
1.44655
1.44806
1.44881
1.44896
1.44868
1.44816
1.44757
1.44702
1.44663
1.44645
1.44649
1.44673
1.44709
1.44743
1.44754
1.44716
1.44602
1.44391
1.44077
1.4367
1.43196
1.42689
1.42186
1.41717
1.41304
1.40958
1.4068
1.40466
1.40306
1.40192
1.40114
1.40062
1.40029
1.4001
1.39999
1.39994
1.39993
1.39993
1.39993
1.39994
1.39996
1.39997
1.39998
1.39999
1.39999
1.4
1.4
1.4
1.4
1.4
1.4
1.4
1.4
1.40001
1.4
1.40001
1.4
1.40001
1.4
1.40001
1.4
1.40001
1.40001
1.40001
1.4
1.40001
1.40001
1.4
1.40001
1.40001
1.40001
1.40001
1.40001
1.40001
1.40002
1.40003
1.40004
1.40007
1.40009
1.40013
1.40018
1.40023
1.40029
1.40037
1.40049
1.40072
1.40113
1.40188
1.40313
1.4051
1.40796
1.41182
1.41663
1.42217
1.42809
1.43393
1.43924
1.44367
1.44698
1.44909
1.45005
1.45004
1.44928
1.44802
1.44649
1.44493
1.44352
1.44241
1.44173
1.44152
1.4418
1.44257
1.44376
1.44523
1.44677
1.44803
1.44863
1.44817
1.44639
1.44321
1.43881
1.43358
1.42797
1.42244
1.41737
1.41297
1.40934
1.40649
1.40433
1.40277
1.40168
1.40094
1.40047
1.40019
1.40003
1.39995
1.39992
1.39992
1.39991
1.39993
1.39995
1.39996
1.39997
1.39998
1.39999
1.4
1.4
1.4
1.4
1.4
1.4
1.4
1.4
1.4
1.4
1.40001
1.4
1.40001
1.4
1.40001
1.4
1.40001
1.40001
1.40001
1.4
1.4
1.40001
1.4
1.40001
1.40001
1.40001
1.40001
1.40001
1.40002
1.40002
1.40004
1.40006
1.40008
1.40012
1.40016
1.40022
1.40028
1.40036
1.40048
1.40067
1.40102
1.40166
1.40277
1.4046
1.40738
1.4113
1.41636
1.42236
1.42887
1.43532
1.44113
1.44581
1.44905
1.45074
1.45097
1.44996
1.44802
1.44547
1.44263
1.43978
1.43715
1.43494
1.43328
1.43229
1.43204
1.43253
1.43377
1.43573
1.43832
1.44134
1.44448
1.44725
1.44909
1.44949
1.4481
1.4449
1.4402
1.4345
1.42841
1.42248
1.41711
1.41254
1.40885
1.40601
1.40391
1.40242
1.4014
1.40074
1.40033
1.4001
1.39997
1.39992
1.39991
1.3999
1.39991
1.39993
1.39995
1.39997
1.39998
1.39999
1.39999
1.4
1.4
1.4
1.4
1.4
1.4
1.4
1.40001
1.4
1.40001
1.4
1.40001
1.40001
1.4
1.40001
1.40001
1.4
1.40001
1.4
1.4
1.40001
1.40001
1.40001
1.40001
1.40001
1.40001
1.40001
1.40002
1.40003
1.40005
1.40007
1.4001
1.40015
1.4002
1.40027
1.40035
1.40046
1.40063
1.40091
1.40144
1.40239
1.40401
1.4066
1.41043
1.41559
1.42193
1.42897
1.43604
1.44238
1.44733
1.45048
1.45169
1.45107
1.44893
1.44564
1.44164
1.43731
1.433
1.42898
1.42546
1.42259
1.42049
1.41925
1.41892
1.41955
1.42112
1.42364
1.4271
1.43139
1.43627
1.44127
1.44574
1.44893
1.45018
1.44915
1.44588
1.44084
1.43469
1.42819
1.42195
1.41642
1.4118
1.40815
1.4054
1.40341
1.40203
1.40112
1.40054
1.4002
1.40002
1.39993
1.3999
1.39989
1.3999
1.39992
1.39994
1.39996
1.39997
1.39998
1.39999
1.4
1.4
1.4
1.4
1.4
1.4
1.4
1.40001
1.4
1.40001
1.4
1.4
1.40001
1.4
1.40001
1.40001
1.4
1.4
1.40001
1.4
1.40001
1.40001
1.40001
1.40001
1.40001
1.40001
1.40001
1.40002
1.40004
1.40006
1.40009
1.40013
1.40018
1.40025
1.40033
1.40044
1.40058
1.40082
1.40124
1.40202
1.40339
1.40569
1.40927
1.41434
1.42086
1.42836
1.43604
1.44297
1.44828
1.45141
1.45217
1.4507
1.44737
1.4427
1.43721
1.43137
1.42558
1.42016
1.41532
1.41122
1.40794
1.40557
1.40417
1.40378
1.40443
1.40613
1.40893
1.41286
1.41795
1.4241
1.43096
1.43792
1.4441
1.44854
1.4505
1.44965
1.44618
1.44072
1.43416
1.42733
1.42092
1.41534
1.4108
1.40729
1.40469
1.40287
1.40164
1.40085
1.40037
1.40009
1.39996
1.3999
1.39988
1.39989
1.39991
1.39993
1.39995
1.39997
1.39998
1.39999
1.39999
1.4
1.4
1.4
1.4
1.4
1.4
1.4
1.40001
1.4
1.40001
1.4
1.40001
1.40001
1.40001
1.40001
1.40001
1.4
1.40001
1.4
1.40001
1.40001
1.40001
1.40001
1.40001
1.40001
1.40002
1.40003
1.40004
1.40007
1.40011
1.40016
1.40022
1.4003
1.4004
1.40053
1.40073
1.40107
1.40168
1.4028
1.40475
1.40793
1.4127
1.41917
1.42699
1.43527
1.44286
1.44868
1.45195
1.4524
1.45017
1.44575
1.43975
1.43283
1.42555
1.41838
1.41167
1.40565
1.40046
1.39617
1.39281
1.39038
1.38893
1.38847
1.38904
1.39067
1.39342
1.3974
1.40272
1.40945
1.41747
1.42632
1.43515
1.44284
1.44827
1.45062
1.44967
1.4458
1.43988
1.43292
1.42588
1.41943
1.41396
1.4096
1.40631
1.40395
1.40232
1.40126
1.4006
1.40021
1.40001
1.39991
1.39989
1.39988
1.39989
1.39992
1.39994
1.39996
1.39997
1.39998
1.39999
1.4
1.4
1.4
1.4
1.4
1.4
1.4
1.40001
1.4
1.40001
1.40001
1.40001
1.4
1.40001
1.40001
1.4
1.4
1.40001
1.4
1.40001
1.40001
1.40001
1.40001
1.40001
1.40001
1.40002
1.40003
1.40005
1.40008
1.40013
1.40019
1.40027
1.40036
1.40048
1.40065
1.40092
1.40139
1.40227
1.40384
1.40654
1.41081
1.41698
1.42487
1.43366
1.44201
1.44852
1.45218
1.45254
1.44977
1.44442
1.43725
1.42902
1.42044
1.41205
1.40422
1.39722
1.39117
1.38613
1.38205
1.3789
1.37663
1.37523
1.3747
1.37508
1.37644
1.37886
1.38248
1.3875
1.39412
1.40246
1.41231
1.42301
1.43346
1.44231
1.44828
1.4506
1.44921
1.44476
1.43832
1.43105
1.42392
1.41758
1.41235
1.40829
1.4053
1.4032
1.4018
1.40091
1.40038
1.40009
1.39994
1.3999
1.39988
1.39988
1.3999
1.39993
1.39995
1.39997
1.39998
1.39999
1.39999
1.4
1.4
1.4
1.4
1.4
1.4
1.40001
1.4
1.4
1.40001
1.4
1.40001
1.40001
1.4
1.40001
1.4
1.40001
1.4
1.40001
1.40001
1.40001
1.40001
1.40001
1.40002
1.40002
1.40004
1.40006
1.4001
1.40015
1.40022
1.40031
1.40043
1.40058
1.40079
1.40116
1.40182
1.40304
1.40521
1.40884
1.41443
1.42209
1.43119
1.44031
1.44773
1.45208
1.45271
1.44969
1.44367
1.43553
1.42618
1.41645
1.40698
1.39821
1.39043
1.38376
1.37823
1.37378
1.37029
1.36762
1.36567
1.36439
1.36377
1.36387
1.36478
1.3666
1.36952
1.37379
1.37973
1.38762
1.39753
1.40911
1.42144
1.43315
1.44263
1.44859
1.45038
1.44823
1.44305
1.43611
1.42864
1.42158
1.41549
1.41062
1.40693
1.40429
1.4025
1.40133
1.40062
1.40021
1.4
1.39993
1.39988
1.39988
1.39989
1.39992
1.39994
1.39996
1.39997
1.39999
1.39999
1.4
1.4
1.4
1.4
1.4
1.4
1.40001
1.4
1.4
1.40001
1.4
1.4
1.40001
1.4
1.40001
1.4
1.40001
1.40001
1.40001
1.40001
1.40001
1.40001
1.40001
1.40002
1.40003
1.40005
1.40008
1.40012
1.40018
1.40026
1.40037
1.4005
1.40068
1.40096
1.40146
1.40237
1.40405
1.40697
1.41175
1.41881
1.42789
1.43768
1.44618
1.45158
1.45287
1.45001
1.44365
1.4348
1.42455
1.41383
1.4034
1.3938
1.38538
1.37827
1.3725
1.36797
1.3645
1.36188
1.3599
1.3584
1.35728
1.35654
1.35623
1.35648
1.35747
1.3594
1.36259
1.3674
1.37425
1.38344
1.39493
1.40812
1.42177
1.4342
1.4437
1.44903
1.44982
1.44663
1.44066
1.4333
1.42578
1.41896
1.41328
1.40886
1.40561
1.40336
1.40186
1.40093
1.40037
1.40008
1.39998
1.3999
1.39988
1.39989
1.39991
1.39993
1.39995
1.39997
1.39998
1.39999
1.4
1.4
1.4
1.4
1.4
1.4
1.40001
1.4
1.4
1.4
1.40001
1.4
1.40001
1.4
1.40001
1.4
1.40001
1.40001
1.40001
1.40001
1.40001
1.40001
1.40001
1.40002
1.40003
1.40006
1.40009
1.40014
1.40021
1.4003
1.40042
1.40058
1.40081
1.40117
1.40184
1.40308
1.40533
1.40919
1.41531
1.4239
1.43405
1.44368
1.45047
1.45291
1.45068
1.4444
1.43518
1.42424
1.41269
1.4014
1.39104
1.38201
1.37455
1.36868
1.36428
1.36113
1.35895
1.35742
1.35626
1.35526
1.35432
1.35341
1.35259
1.35201
1.3519
1.35256
1.35436
1.35772
1.36313
1.37104
1.38167
1.39475
1.40935
1.42388
1.43641
1.44523
1.44933
1.44873
1.44435
1.43763
1.43001
1.42263
1.41621
1.41105
1.40716
1.40439
1.40252
1.40132
1.40059
1.40019
1.40006
1.39993
1.39988
1.39988
1.3999
1.39992
1.39995
1.39997
1.39998
1.39999
1.39999
1.4
1.4
1.4
1.4
1.4
1.40001
1.4
1.4
1.4
1.40001
1.40001
1.40001
1.4
1.40001
1.4
1.40001
1.40001
1.40001
1.40001
1.40001
1.40001
1.40002
1.40002
1.40004
1.40007
1.4001
1.40016
1.40024
1.40035
1.40048
1.40067
1.40095
1.40143
1.40232
1.40397
1.40693
1.41191
1.41952
1.4295
1.44006
1.44848
1.45257
1.45153
1.44584
1.43665
1.4253
1.41307
1.401
1.38987
1.38021
1.37236
1.3664
1.36224
1.35961
1.35815
1.35745
1.35712
1.35684
1.35636
1.35558
1.35447
1.35307
1.35152
1.35011
1.34921
1.34931
1.3509
1.35456
1.36081
1.37004
1.38228
1.39692
1.41261
1.42744
1.43935
1.44679
1.44915
1.44691
1.44136
1.43404
1.42637
1.41934
1.41347
1.40891
1.40559
1.4033
1.4018
1.40087
1.40034
1.40016
1.39997
1.3999
1.39988
1.3999
1.39992
1.39994
1.39996
1.39998
1.39999
1.39999
1.4
1.4
1.4
1.4
1.4
1.4
1.4
1.4
1.40001
1.4
1.40001
1.40001
1.4
1.40001
1.4
1.40001
1.40001
1.4
1.40001
1.40001
1.40001
1.40002
1.40003
1.40004
1.40008
1.40012
1.40018
1.40028
1.4004
1.40054
1.40077
1.40112
1.40174
1.40291
1.40508
1.4089
1.41517
1.42429
1.43524
1.44529
1.45148
1.45225
1.44773
1.43905
1.42765
1.41495
1.40216
1.39023
1.37986
1.37149
1.36533
1.36134
1.35928
1.35871
1.35911
1.35998
1.36085
1.36139
1.36138
1.36075
1.35946
1.35753
1.35504
1.35222
1.34953
1.34759
1.34707
1.34863
1.3529
1.36036
1.37124
1.38522
1.40125
1.41755
1.43195
1.44247
1.44791
1.44818
1.44426
1.43768
1.43003
1.42257
1.41606
1.41085
1.40696
1.40421
1.40238
1.40122
1.40053
1.40028
1.40003
1.39992
1.39989
1.39989
1.39991
1.39994
1.39996
1.39997
1.39998
1.39999
1.4
1.4
1.4
1.4
1.4
1.4
1.4
1.40001
1.40001
1.4
1.40001
1.40001
1.4
1.40001
1.4
1.40001
1.40001
1.4
1.40001
1.40001
1.40001
1.40002
1.40003
1.40005
1.40009
1.40014
1.4002
1.40031
1.40044
1.40061
1.40088
1.40133
1.40213
1.40364
1.40643
1.41127
1.41894
1.42942
1.44065
1.44919
1.4524
1.44972
1.44213
1.43113
1.41824
1.40485
1.3921
1.38088
1.37179
1.3652
1.36119
1.35958
1.3599
1.36152
1.36379
1.36611
1.368
1.36917
1.36949
1.36897
1.36762
1.36539
1.36221
1.35817
1.35367
1.34947
1.34645
1.3455
1.3474
1.35275
1.36187
1.37467
1.39036
1.40739
1.42361
1.43678
1.44517
1.44814
1.44622
1.44077
1.43346
1.42578
1.41876
1.41294
1.40847
1.40524
1.40305
1.40163
1.40077
1.40044
1.40012
1.39996
1.3999
1.3999
1.39991
1.39993
1.39995
1.39997
1.39998
1.39999
1.4
1.4
1.4
1.4
1.4
1.4
1.4
1.40001
1.4
1.4
1.40001
1.40001
1.4
1.40001
1.4
1.4
1.40001
1.4
1.40001
1.40001
1.40001
1.40002
1.40004
1.40005
1.4001
1.40016
1.40022
1.40034
1.40049
1.40068
1.40099
1.40156
1.40259
1.40451
1.40804
1.41403
1.42315
1.43458
1.44523
1.4514
1.45133
1.4455
1.43544
1.42278
1.40902
1.39548
1.38326
1.37322
1.36589
1.36153
1.36008
1.36111
1.36393
1.36766
1.37152
1.37487
1.37733
1.37871
1.37906
1.37856
1.37731
1.37522
1.37197
1.36733
1.36146
1.35509
1.34935
1.34549
1.34456
1.34735
1.35431
1.3655
1.38032
1.39744
1.41484
1.43013
1.44121
1.44688
1.44718
1.44318
1.43653
1.42887
1.42149
1.41513
1.4101
1.40639
1.4038
1.40211
1.40106
1.40063
1.40022
1.40001
1.39993
1.3999
1.39991
1.39993
1.39995
1.39997
1.39998
1.39999
1.39999
1.4
1.4
1.4
1.4
1.4
1.4
1.40001
1.4
1.40001
1.4
1.40001
1.4
1.40001
1.40001
1.4
1.40001
1.4
1.40001
1.40001
1.40001
1.40002
1.40005
1.40006
1.4001
1.40018
1.40025
1.40036
1.40055
1.40076
1.40113
1.40184
1.40314
1.40555
1.40991
1.41718
1.42763
1.43939
1.44858
1.4519
1.44867
1.4402
1.42826
1.4145
1.40034
1.38709
1.37585
1.36742
1.36229
1.36056
1.36194
1.36571
1.37085
1.37624
1.38101
1.38458
1.38675
1.3876
1.38745
1.38673
1.38572
1.38432
1.38197
1.37794
1.37183
1.36407
1.35588
1.34891
1.3447
1.34443
1.34877
1.35788
1.37136
1.38805
1.40603
1.42291
1.43631
1.44456
1.44718
1.44487
1.43915
1.43176
1.42417
1.41736
1.41181
1.40762
1.40464
1.40264
1.40138
1.40085
1.40034
1.40008
1.39996
1.39992
1.39991
1.39993
1.39995
1.39996
1.39998
1.39999
1.39999
1.4
1.4
1.4
1.4
1.4
1.4
1.40001
1.4
1.40001
1.4
1.40001
1.4
1.40001
1.40001
1.4
1.40001
1.4
1.4
1.40002
1.40001
1.40002
1.40005
1.40006
1.40011
1.4002
1.40027
1.40038
1.40059
1.40085
1.40127
1.40215
1.4038
1.40676
1.41204
1.42063
1.43212
1.44349
1.45055
1.45091
1.44492
1.43433
1.42102
1.40659
1.39243
1.37987
1.36999
1.36358
1.36102
1.36221
1.3665
1.3728
1.37968
1.38581
1.39029
1.39276
1.39337
1.39259
1.39112
1.38975
1.389
1.38886
1.38856
1.3868
1.38235
1.37488
1.36535
1.35569
1.34808
1.34432
1.3455
1.35206
1.36371
1.37946
1.39751
1.41547
1.43078
1.44138
1.4463
1.44583
1.44127
1.43436
1.42674
1.41959
1.41357
1.40891
1.40554
1.40324
1.40175
1.4011
1.40049
1.40016
1.4
1.39993
1.39992
1.39993
1.39995
1.39996
1.39998
1.39999
1.39999
1.4
1.4
1.4
1.4
1.4
1.4
1.4
1.4
1.40001
1.4
1.40001
1.4
1.4
1.40001
1.4
1.40001
1.40001
1.4
1.40002
1.40002
1.40001
1.40006
1.40007
1.4001
1.40022
1.4003
1.40039
1.40064
1.40096
1.40144
1.4025
1.40455
1.40814
1.41441
1.42427
1.43636
1.44664
1.4512
1.44883
1.44054
1.42828
1.41397
1.39923
1.38543
1.37389
1.36573
1.36171
1.362
1.3662
1.37321
1.38139
1.38892
1.39428
1.39674
1.39636
1.39381
1.39009
1.38638
1.38384
1.38328
1.38484
1.38764
1.3899
1.38942
1.38472
1.37595
1.36495
1.35446
1.34711
1.34475
1.34825
1.35759
1.3719
1.38952
1.40807
1.42488
1.43755
1.44468
1.4461
1.44286
1.43662
1.42913
1.42175
1.41534
1.41025
1.40649
1.40387
1.40216
1.40137
1.40065
1.40025
1.40005
1.39996
1.39993
1.39993
1.39995
1.39996
1.39998
1.39999
1.39999
1.4
1.4
1.4
1.4
1.4
1.4
1.4
1.4
1.40001
1.4
1.40001
1.4
1.4
1.40001
1.4
1.40001
1.40001
1.39999
1.40002
1.40002
1.40001
1.40007
1.40009
1.40009
1.40022
1.40034
1.4004
1.40066
1.40108
1.40163
1.40289
1.4054
1.4097
1.41697
1.42792
1.44012
1.44879
1.45079
1.44601
1.43586
1.42227
1.40727
1.39254
1.37942
1.36921
1.36308
1.3617
1.36498
1.37203
1.38114
1.39008
1.39661
1.39923
1.3976
1.39245
1.38516
1.37732
1.37059
1.36647
1.36606
1.36962
1.37627
1.3839
1.38951
1.3903
1.38506
1.37494
1.36291
1.3525
1.34652
1.3466
1.35317
1.36558
1.38229
1.40097
1.41885
1.43328
1.44244
1.44576
1.44393
1.43852
1.4313
1.42382
1.41709
1.4116
1.40747
1.40455
1.4026
1.40166
1.40082
1.40035
1.4001
1.39999
1.39995
1.39994
1.39995
1.39996
1.39998
1.39999
1.39999
1.4
1.4
1.4
1.4
1.4
1.4
1.4
1.4
1.40001
1.4
1.40001
1.40001
1.4
1.40001
1.4
1.4
1.40002
1.39999
1.40001
1.40004
1.4
1.40006
1.40012
1.40008
1.40021
1.40038
1.40041
1.40067
1.40121
1.40187
1.40329
1.40632
1.41141
1.41964
1.43138
1.44324
1.45005
1.44959
1.44274
1.43111
1.41648
1.40103
1.38659
1.37445
1.36582
1.36193
1.36334
1.36953
1.37894
1.38911
1.39717
1.40067
1.39838
1.39065
1.37909
1.36585
1.35309
1.34285
1.33695
1.33676
1.34265
1.35369
1.36754
1.38066
1.38911
1.39013
1.38355
1.37202
1.35968
1.35047
1.34705
1.35052
1.36063
1.376
1.39437
1.41291
1.42877
1.43975
1.44488
1.44452
1.44003
1.43323
1.42574
1.41877
1.41294
1.40846
1.40524
1.40306
1.40197
1.40101
1.40046
1.40017
1.40002
1.39997
1.39995
1.39995
1.39997
1.39998
1.39999
1.39999
1.4
1.4
1.4
1.4
1.4
1.4
1.4
1.4
1.40001
1.4
1.4
1.40001
1.4
1.40001
1.40001
1.39999
1.40003
1.39999
1.4
1.40006
1.4
1.40004
1.40015
1.40009
1.40018
1.40042
1.40044
1.40065
1.40134
1.40216
1.40373
1.40728
1.41325
1.42236
1.4345
1.44569
1.45062
1.44786
1.43921
1.42643
1.41105
1.39535
1.38143
1.37051
1.36364
1.36211
1.3663
1.37507
1.38597
1.39573
1.401
1.39944
1.39038
1.37503
1.35589
1.33585
1.31754
1.30331
1.29537
1.29551
1.30429
1.3205
1.34136
1.36287
1.38035
1.38966
1.38908
1.3803
1.36763
1.35601
1.34931
1.34956
1.35707
1.37075
1.38842
1.40725
1.42419
1.43676
1.44358
1.44467
1.44119
1.43488
1.4275
1.42036
1.41424
1.40944
1.40593
1.40353
1.40228
1.40121
1.40058
1.40024
1.40006
1.39999
1.39996
1.39996
1.39997
1.39998
1.39999
1.39999
1.4
1.4
1.4
1.4
1.4
1.4
1.4
1.4
1.40001
1.40001
1.4
1.40001
1.4
1.40001
1.40001
1.39999
1.40003
1.40001
1.39998
1.40007
1.40001
1.4
1.40017
1.40011
1.40012
1.40044
1.40051
1.40062
1.40143
1.40251
1.40421
1.40823
1.41517
1.42504
1.43719
1.44749
1.45068
1.44581
1.43553
1.42193
1.4061
1.39028
1.37703
1.36754
1.36256
1.36335
1.37012
1.38089
1.3921
1.39974
1.40043
1.39226
1.37522
1.3512
1.32347
1.29559
1.27067
1.25143
1.24073
1.24118
1.25376
1.27671
1.30611
1.33712
1.36454
1.38343
1.39067
1.38668
1.3754
1.36247
1.35298
1.35008
1.35484
1.36655
1.38322
1.40199
1.41971
1.43361
1.44197
1.44446
1.442
1.43627
1.42906
1.42183
1.41547
1.41039
1.40662
1.404
1.40259
1.40141
1.40071
1.40031
1.40011
1.40001
1.39998
1.39997
1.39997
1.39998
1.39999
1.39999
1.4
1.4
1.4
1.4
1.4
1.4
1.4
1.4
1.40001
1.40001
1.4
1.40001
1.4
1.4
1.40002
1.39998
1.40002
1.40002
1.39996
1.40006
1.40005
1.39996
1.40017
1.40017
1.40006
1.40043
1.40061
1.40059
1.40147
1.40289
1.40475
1.40914
1.41706
1.42763
1.43943
1.44869
1.4504
1.44365
1.43184
1.41768
1.40173
1.38587
1.37333
1.36543
1.36239
1.36532
1.37429
1.38627
1.39643
1.40036
1.39522
1.37967
1.35394
1.32019
1.2823
1.2447
1.2112
1.18516
1.17043
1.17101
1.1887
1.22089
1.26158
1.30411
1.34262
1.37193
1.38819
1.39058
1.38228
1.36924
1.35762
1.35182
1.3538
1.36338
1.3788
1.39724
1.41545
1.43044
1.44016
1.44395
1.4425
1.43739
1.43043
1.42316
1.41662
1.41129
1.40729
1.40447
1.4029
1.40161
1.40083
1.40039
1.40016
1.40004
1.39999
1.39998
1.39998
1.39998
1.39999
1.39999
1.4
1.4
1.4
1.4
1.4
1.4
1.4
1.4
1.40001
1.40001
1.4
1.40001
1.40001
1.4
1.40002
1.39999
1.40001
1.40004
1.39996
1.40004
1.40009
1.39994
1.40013
1.40024
1.40002
1.40035
1.40071
1.40062
1.40144
1.40326
1.40539
1.41001
1.41882
1.43009
1.44131
1.44934
1.44986
1.44157
1.42826
1.41367
1.39798
1.38218
1.37022
1.36402
1.36295
1.36767
1.37826
1.39058
1.39843
1.39753
1.38605
1.36297
1.3279
1.28269
1.23205
1.18191
1.13733
1.10255
1.08256
1.0832
1.10749
1.15185
1.20729
1.26421
1.31546
1.35599
1.38194
1.39177
1.38777
1.3758
1.36283
1.35449
1.35377
1.36115
1.37514
1.39303
1.41149
1.42734
1.43823
1.44322
1.44275
1.43827
1.43159
1.42435
1.41767
1.41214
1.40792
1.40492
1.40319
1.4018
1.40096
1.40047
1.40021
1.40007
1.40001
1.39999
1.39998
1.39999
1.39999
1.39999
1.4
1.4
1.4
1.4
1.4
1.4
1.40001
1.4
1.40001
1.40001
1.4
1.40001
1.40001
1.39999
1.40002
1.4
1.39999
1.40006
1.39997
1.4
1.40012
1.39994
1.40006
1.4003
1.40003
1.40023
1.4008
1.40071
1.40137
1.40356
1.40612
1.41085
1.42034
1.43235
1.44293
1.44954
1.44908
1.43974
1.42496
1.40985
1.3948
1.37927
1.36762
1.36309
1.36402
1.37008
1.38156
1.39346
1.39815
1.39186
1.37412
1.34358
1.29818
1.23906
1.17248
1.10691
1.04935
1.00486
0.979388
0.980604
1.01279
1.07138
1.1443
1.21831
1.28416
1.33666
1.37259
1.39036
1.39157
1.38168
1.36818
1.35777
1.35455
1.35973
1.37221
1.38939
1.40791
1.4244
1.43629
1.44235
1.44278
1.43892
1.43255
1.42537
1.4186
1.4129
1.40851
1.40534
1.40346
1.40199
1.40108
1.40055
1.40026
1.4001
1.40003
1.4
1.39999
1.39999
1.39999
1.4
1.4
1.4
1.4
1.4
1.4
1.4
1.40001
1.4
1.40001
1.40001
1.4
1.4
1.40001
1.39999
1.40002
1.40001
1.39997
1.40006
1.39999
1.39996
1.40014
1.39999
1.39997
1.40032
1.40009
1.40009
1.4008
1.40088
1.40131
1.40373
1.40688
1.41172
1.42156
1.43431
1.44441
1.44944
1.44804
1.43822
1.42217
1.40622
1.39204
1.3772
1.36551
1.36234
1.3654
1.3723
1.38384
1.39482
1.39608
1.3843
1.36056
1.32266
1.26581
1.1904
1.10522
1.02254
0.95173
0.898447
0.86909
0.872338
0.912954
0.985724
1.07645
1.16864
1.25023
1.31524
1.36112
1.38682
1.39364
1.38657
1.37328
1.36134
1.3559
1.35898
1.36994
1.38631
1.40473
1.42169
1.43441
1.44139
1.44265
1.43937
1.43332
1.42624
1.41941
1.41358
1.40903
1.40573
1.40371
1.40216
1.4012
1.40063
1.40031
1.40014
1.40005
1.40001
1.4
1.4
1.4
1.4
1.4
1.4
1.4
1.4
1.4
1.4
1.40001
1.4
1.40001
1.40001
1.4
1.4
1.40001
1.4
1.40001
1.40002
1.39997
1.40004
1.40003
1.39994
1.40011
1.40005
1.39991
1.40027
1.40019
1.39998
1.4007
1.40108
1.40134
1.40374
1.40756
1.41267
1.42251
1.43582
1.4458
1.44928
1.44676
1.43692
1.4201
1.40288
1.38944
1.37595
1.36397
1.3615
1.36681
1.37429
1.38493
1.3948
1.39302
1.37587
1.34621
1.3011
1.23248
1.13977
1.03506
0.935343
0.852776
0.793514
0.763734
0.771274
0.819842
0.904209
1.01003
1.11885
1.21573
1.29309
1.34857
1.38181
1.39419
1.39032
1.37781
1.36487
1.35757
1.35875
1.36823
1.38376
1.40198
1.41926
1.43264
1.44042
1.44239
1.43965
1.43391
1.42694
1.42008
1.41416
1.40949
1.40607
1.40392
1.40231
1.4013
1.4007
1.40035
1.40017
1.40007
1.40003
1.40001
1.4
1.4
1.4
1.4
1.4
1.4
1.4
1.4
1.4
1.40001
1.4
1.40001
1.4
1.40001
1.4
1.40001
1.4
1.4
1.40002
1.39998
1.40001
1.40005
1.39994
1.40006
1.4001
1.3999
1.40017
1.40028
1.39997
1.40052
1.40121
1.40149
1.40367
1.40803
1.41366
1.42332
1.43682
1.44701
1.44932
1.44536
1.43561
1.41884
1.40015
1.38675
1.37526
1.36324
1.36041
1.36789
1.37613
1.38498
1.39355
1.3897
1.36755
1.33171
1.27981
1.20073
1.09226
0.969473
0.854416
0.762503
0.701017
0.675164
0.689181
0.744065
0.835683
0.951733
1.0734
1.18331
1.27175
1.33592
1.37599
1.39355
1.39293
1.38159
1.3681
1.35933
1.35885
1.36699
1.38171
1.39966
1.41715
1.43105
1.43947
1.44207
1.43979
1.43434
1.42748
1.42063
1.41464
1.40988
1.40636
1.4041
1.40244
1.4014
1.40076
1.4004
1.4002
1.40009
1.40004
1.40002
1.40001
1.4
1.4
1.4
1.4
1.4
1.4
1.40001
1.4
1.40001
1.4
1.40001
1.4
1.4
1.40001
1.40001
1.40001
1.4
1.40002
1.4
1.4
1.40005
1.39997
1.40001
1.40011
1.39994
1.40006
1.40029
1.40004
1.40034
1.4012
1.40173
1.40363
1.40822
1.41457
1.42412
1.43735
1.44787
1.44967
1.44417
1.43411
1.41819
1.39846
1.38397
1.37463
1.3635
1.35921
1.36815
1.37791
1.38442
1.39115
1.38658
1.3604
1.31784
1.25954
1.17309
1.05344
0.916793
0.789403
0.690571
0.630061
0.611462
0.63276
0.691299
0.785232
0.906056
1.03595
1.15558
1.2529
1.32421
1.36996
1.39203
1.39448
1.3845
1.37084
1.36097
1.35913
1.36611
1.38009
1.39777
1.41538
1.42967
1.43861
1.4417
1.43981
1.43461
1.42787
1.42103
1.41501
1.41018
1.4066
1.40424
1.40255
1.40148
1.40082
1.40044
1.40023
1.40011
1.40005
1.40002
1.40001
1.40001
1.4
1.4
1.4
1.4
1.4
1.40001
1.4
1.40001
1.4
1.40001
1.40001
1.4
1.40001
1.4
1.4
1.4
1.40001
1.4
1.4
1.40003
1.4
1.39999
1.40008
1.4
1.39999
1.40021
1.40013
1.40024
1.40105
1.40194
1.40371
1.40818
1.4152
1.42494
1.43762
1.44823
1.45023
1.44355
1.43251
1.41767
1.39802
1.38154
1.37342
1.36462
1.35846
1.36717
1.3794
1.38402
1.38773
1.3835
1.35543
1.30603
1.24106
1.15062
1.02665
0.883221
0.748098
0.644568
0.586257
0.575083
0.602291
0.661632
0.753732
0.874554
1.00825
1.13417
1.23785
1.31441
1.3644
1.38998
1.39506
1.38646
1.37293
1.36233
1.35945
1.3655
1.37887
1.3963
1.41397
1.42854
1.43785
1.44132
1.43974
1.43474
1.4281
1.4213
1.41526
1.41041
1.40678
1.40434
1.40263
1.40154
1.40087
1.40048
1.40025
1.40013
1.40007
1.40003
1.40002
1.40001
1.40001
1.40001
1.4
1.40001
1.40001
1.4
1.4
1.40001
1.4
1.4
1.40001
1.4
1.40001
1.40001
1.4
1.40001
1.4
1.4
1.40001
1.40001
1.40001
1.4
1.40002
1.40002
1.39999
1.40009
1.40016
1.40025
1.40085
1.40199
1.4039
1.40806
1.41541
1.42567
1.43787
1.44813
1.45066
1.44368
1.43124
1.41683
1.39855
1.38026
1.37142
1.36581
1.35891
1.36511
1.37981
1.38451
1.38404
1.37978
1.353
1.29852
1.2259
1.13265
1.0105
0.86872
0.732408
0.627117
0.570214
0.563036
0.593033
0.651389
0.73974
0.857486
0.991229
1.11998
1.22738
1.30718
1.35983
1.38778
1.39485
1.38748
1.37427
1.36328
1.35971
1.36509
1.37801
1.39523
1.41293
1.42768
1.43724
1.44096
1.4396
1.43474
1.4282
1.42144
1.41541
1.41054
1.4069
1.4044
1.40268
1.40159
1.40091
1.40051
1.40028
1.40015
1.40008
1.40004
1.40002
1.40001
1.40001
1.40001
1.40001
1.40001
1.40001
1.40001
1.40001
1.40001
1.40001
1.4
1.40001
1.4
1.40001
1.40001
1.4
1.40001
1.40001
1.39999
1.40002
1.4
1.39999
1.40002
1.39999
1.4
1.40003
1.40001
1.40011
1.40031
1.40071
1.40187
1.40407
1.40802
1.41525
1.42603
1.43821
1.44787
1.45071
1.44432
1.43087
1.41574
1.39919
1.38063
1.36932
1.36592
1.36068
1.3631
1.37823
1.3857
1.38164
1.37509
1.35189
1.29705
1.21749
1.11971
1.00066
0.866076
0.735623
0.633534
0.577817
0.570423
0.599851
0.65673
0.741658
0.855166
0.986073
1.11418
1.22225
1.30299
1.35662
1.38573
1.39403
1.38763
1.37482
1.36375
1.35982
1.36482
1.37747
1.39457
1.41227
1.4271
1.43679
1.44064
1.43939
1.43463
1.42815
1.42144
1.41544
1.41059
1.40696
1.40441
1.40271
1.40162
1.40094
1.40053
1.4003
1.40016
1.40009
1.40005
1.40003
1.40002
1.40001
1.40001
1.40001
1.40001
1.40001
1.40001
1.4
1.40001
1.4
1.4
1.40001
1.4
1.4
1.40001
1.4
1.40001
1.40001
1.39999
1.40001
1.40001
1.39997
1.40003
1.4
1.39995
1.40004
1.39999
1.39999
1.40032
1.40068
1.40165
1.40405
1.40804
1.41492
1.42588
1.43846
1.44776
1.45045
1.44494
1.43159
1.41512
1.39923
1.38216
1.36844
1.36451
1.36262
1.36267
1.37482
1.386
1.38184
1.37092
1.35008
1.30039
1.21931
1.11651
0.997393
0.869537
0.749355
0.65656
0.604397
0.595059
0.621767
0.676872
0.758912
0.867578
0.99335
1.11761
1.22321
1.30236
1.35509
1.38404
1.39278
1.38698
1.37461
1.36371
1.35976
1.36468
1.37725
1.39432
1.412
1.42683
1.43651
1.44037
1.43914
1.43441
1.42798
1.42131
1.41536
1.41055
1.40695
1.40438
1.40271
1.40163
1.40096
1.40055
1.40032
1.40018
1.4001
1.40006
1.40003
1.40002
1.40001
1.40001
1.40001
1.40001
1.40001
1.40001
1.4
1.40001
1.4
1.4
1.40001
1.4
1.4
1.40001
1.4
1.4
1.40001
1.39999
1.4
1.40002
1.39997
1.40001
1.40002
1.39992
1.4
1.40002
1.39991
1.40022
1.40069
1.40148
1.40382
1.40799
1.41459
1.4253
1.43832
1.44788
1.45027
1.44523
1.43291
1.41577
1.39894
1.38352
1.36948
1.36275
1.36293
1.36405
1.37165
1.38369
1.38359
1.37015
1.34781
1.30453
1.22992
1.12784
1.00827
0.884978
0.776498
0.696498
0.649615
0.637926
0.660679
0.712939
0.791179
0.893598
1.012
1.12965
1.23008
1.30535
1.35539
1.3829
1.39122
1.38564
1.3737
1.36319
1.35954
1.36466
1.37736
1.39448
1.41213
1.42686
1.43642
1.44015
1.43884
1.43408
1.42767
1.42106
1.41517
1.41043
1.40688
1.40432
1.40268
1.40162
1.40096
1.40056
1.40033
1.40019
1.40011
1.40006
1.40004
1.40002
1.40002
1.40001
1.40001
1.40001
1.40001
1.40001
1.40001
1.40001
1.4
1.40001
1.40001
1.4
1.40001
1.40001
1.4
1.4
1.40001
1.4
1.39999
1.40002
1.39998
1.39998
1.40002
1.39993
1.39993
1.40001
1.3999
1.40008
1.40065
1.4014
1.40349
1.40771