/*--------------------------------*- C++ -*----------------------------------*\
  =========                 |
  \\      /  F ield         | OpenFOAM: The Open Source CFD Toolbox
   \\    /   O peration     | Website:  https://openfoam.org
    \\  /    A nd           | Version:  6
     \\/     M anipulation  |
\*---------------------------------------------------------------------------*/
FoamFile
{
    version     2.0;
    format      ascii;
    class       volSymmTensorField;
    location    "120";
    object      sigma;
}
// * * * * * * * * * * * * * * * * * * * * * * * * * * * * * * * * * * * * * //

dimensions      [1 -1 -2 0 0 0 0];

internalField   nonuniform List<symmTensor> 
1000
(
(2577.77 -13581.3 1.37133e-13 11835.9 -4.7726e-14 3326.23)
(8459.91 -11714.1 -3.18008e-14 7327.06 7.26951e-14 3643.15)
(11775.6 -10138.5 1.7466e-13 4706.41 3.28177e-14 3803.53)
(13796.6 -8767.88 7.49691e-14 3172.41 -2.44117e-14 3915.92)
(15049.1 -7594.6 1.29821e-13 2256.58 2.84484e-14 3993.63)
(15825.8 -6598.27 -3.7924e-14 1708.08 6.70081e-15 4046.27)
(16301.7 -5753.2 -9.97572e-14 1380.71 -2.08646e-14 4080.55)
(16586.3 -5032.29 -1.27652e-13 1183.67 -1.90487e-14 4100.75)
(16773.6 -4397.41 0 1063.88 0 4116.35)
(16705.6 -3651.45 1.40518e-14 910.186 -8.39963e-15 4065.19)
(7101.23 -15817.8 -1.44701e-13 12091.7 9.14001e-14 4429.13)
(12465.9 -12601.4 -1.32951e-13 7566.75 4.71485e-14 4622.92)
(15319 -10206.2 9.69509e-14 4975.24 1.81454e-14 4683.28)
(16921.9 -8329.77 7.99434e-14 3492.89 -2.29467e-14 4711.11)
(17809.4 -6848.27 -1.32642e-13 2636.3 -3.49142e-14 4718.23)
(18276.7 -5671.11 -7.05317e-14 2145.18 1.47119e-14 4712.74)
(18498.6 -4726.13 7.61421e-14 1867.86 2.78221e-14 4699.96)
(18583.2 -3954.2 -8.91568e-14 1710.82 -1.75873e-14 4683.24)
(18615.9 -3299.48 -2.35351e-14 1626.29 1.36625e-14 4671.29)
(18443.5 -2614.25 -1.4313e-14 1539.32 -1.30085e-14 4611.43)
(12353.7 -17704.4 -2.03359e-13 11796.9 6.29853e-14 5573.23)
(16853.8 -13171.8 -7.29138e-14 7586.03 2.0137e-14 5639.95)
(19003.2 -9987.31 -1.49962e-15 5233.73 3.84213e-16 5593.14)
(20019.9 -7641.4 -4.16349e-14 3940.13 1.02911e-14 5529.25)
(20428.8 -5893.42 -1.39584e-13 3228.79 -3.90802e-14 5459.45)
(20515.1 -4578.9 -8.55881e-14 2844.16 -4.29236e-14 5390.61)
(20441.7 -3577.13 -6.49852e-14 2640.43 -1.08668e-14 5326.65)
(20303.7 -2798.78 4.49674e-14 2531.3 1.2391e-14 5269.61)
(20169.7 -2173.11 -1.89493e-14 2476.78 4.27172e-15 5226.11)
(19901.6 -1561.84 -9.62686e-15 2431.8 -1.03757e-14 5153.86)
(18273 -19079.2 -2.14876e-15 11001.9 -4.76304e-15 6755.76)
(21569.6 -13330.3 -1.11285e-13 7420.83 -2.58609e-14 6690.09)
(22762.5 -9437.28 4.29041e-15 5516.33 -8.31304e-16 6525.88)
(23014.3 -6702.14 0 4547.48 0 6360.42)
(22828.5 -4765.88 8.79291e-14 4061.61 5.61473e-14 6205.42)
(22466 -3385.01 -4.49143e-14 3823.31 1.50107e-14 6066.76)
(22062.7 -2387.35 -1.02775e-13 3706.63 -3.19394e-14 5946.76)
(21687.9 -1652.08 8.12431e-14 3643.24 2.03843e-14 5845.64)
(21384.2 -1090.78 -2.1141e-14 3606.72 -1.26469e-15 5767.14)
(21023.6 -574.255 7.14488e-14 3578.11 1.82228e-14 5677.32)
(24783.3 -19794.5 -4.48185e-13 9800.93 1.03886e-13 7980.97)
(26542.1 -12976.4 -3.08069e-13 7141.58 -4.74698e-14 7773.15)
(26504.7 -8509.65 4.7934e-14 5886.94 -6.3236e-15 7474.99)
(25805.3 -5519.5 3.41473e-14 5367.01 -6.08733e-15 7193.61)
(24917.6 -3516.48 0 5166.22 0 6942.41)
(24055.8 -2168.07 2.07605e-13 5090.78 9.1096e-14 6726.14)
(23307.2 -1248.34 1.51513e-13 5053.82 4.94876e-14 6544.84)
(22698.9 -607.468 8.06264e-14 5017.92 1.80072e-14 6396.19)
(22238.3 -144.077 -6.25978e-14 4976.66 -1.90689e-14 6280.38)
(21806.5 256.981 -7.64209e-14 4933.98 -1.97764e-14 6170.88)
(31822.8 -19718.2 -7.15358e-14 8334.55 -8.81457e-16 9267.08)
(31669.3 -12002.5 3.21024e-13 6871.92 2.34292e-14 8894.14)
(30088.1 -7167.68 1.9246e-13 6456.74 2.30126e-14 8433.42)
(28256.3 -4128.84 0 6473.34 0 8014.54)
(26592.8 -2228.57 -9.34856e-14 6568.91 -6.00266e-14 7652.71)
(25221 -1033.13 1.97867e-16 6629.35 -1.48563e-16 7350.08)
(24145.2 -268.452 1.92228e-13 6632.96 7.97574e-14 7102.66)
(23331.7 232.75 9.15267e-14 6585.95 3.4622e-14 6904.06)
(22744.2 573.781 1.11689e-14 6506 7.24541e-15 6750.06)
(22270.2 850.363 -7.00583e-14 6415.49 -1.94583e-14 6619.77)
(39390.3 -18729.7 1.14043e-13 6804.14 -1.729e-14 10660.3)
(36774.4 -10306.2 3.23357e-13 6828.04 6.70016e-14 10062.1)
(33284 -5425.67 0 7399.6 0 9388.52)
(30191 -2633.97 -2.08665e-13 7945.55 -4.18937e-14 8800.73)
(27757.2 -1041.49 -4.38487e-16 8258.03 2.24639e-16 8311.21)
(25930.2 -117.836 -1.90329e-13 8365.66 -1.08545e-13 7914.43)
(24589 432.547 1.56867e-15 8336.59 -2.11944e-14 7598.21)
(23623.7 770.121 9.28266e-15 8224.47 2.07615e-14 7349.58)
(22952.6 984.166 5.70076e-14 8067.83 2.98177e-14 7158.57)
(22466.8 1145.48 -4.95994e-16 7898.89 -3.3423e-16 7007.47)
(47604 -16713.7 4.11902e-13 5508.4 -2.58099e-14 12256.7)
(41507.5 -7867.63 1.55597e-13 7359.96 2.14989e-14 11277.1)
(35755.6 -3444.23 -1.61518e-13 8915.05 -2.64749e-14 10308.6)
(31434.6 -1260.23 -1.52252e-13 9786.66 -4.44909e-14 9512.6)
(28371.6 -159.069 3.01062e-16 10113.4 -2.80217e-16 8881.16)
(26221.6 423.732 -8.97368e-17 10127 2.35328e-16 8388.15)
(24712.8 747.715 -9.14454e-14 9979.29 -4.77696e-14 8005.87)
(23662.8 933.71 -8.10633e-14 9752.61 -1.80024e-14 7711.26)
(22953.4 1042.16 7.99293e-15 9492.11 1.36783e-14 7487.42)
(22480.2 1116.63 8.70909e-15 9228.06 1.5117e-15 7317.29)
(56777.2 -13603.1 5.8343e-13 4879.06 -1.27453e-14 14228.4)
(45234.1 -4973.65 2.20781e-13 8848.38 4.21807e-14 12480.6)
(37158 -1659.12 -4.11407e-14 11009 3.92225e-15 11115.5)
(31948 -363.4 1.35143e-13 11743 3.83157e-14 10082.5)
(28535.8 195.777 1.09324e-14 11817.5 -2.26178e-14 9312.29)
(26234.8 471.74 1.05357e-13 11616.7 -9.6753e-15 8734.95)
(24657.2 621.026 0 11303.6 0 8298.64)
(23579.2 704.299 0 10948.8 0 7968)
(22864.1 750.019 -3.62252e-14 10585.8 -4.88356e-15 7719.19)
(22414.4 778.852 4.03236e-14 10233.7 4.91167e-14 7534.18)
(71483 -9672.07 1.10906e-13 5726.44 2.22189e-14 17817.6)
(46813.7 -2529.49 2.5882e-13 10866.2 1.42967e-14 13310.7)
(37060.8 -759.926 7.8255e-14 12794.6 1.34516e-14 11505.1)
(31725.5 -299.358 1.40586e-13 13013.1 5.89767e-15 10324.3)
(28332 -119.42 1.15094e-13 12783.6 4.09331e-15 9488.21)
(26045.7 -16.1662 0 12410.2 0 8874.44)
(24481.4 52.5716 0 11988.1 0 8416.04)
(23420.7 100.673 1.05058e-15 11557 1.70481e-14 8071.77)
(22727.5 135.705 -3.5635e-14 11135.7 -1.1825e-15 7814.59)
(22312.1 163.255 -1.59974e-15 10733.6 6.52209e-16 7625.94)
(-10142 141.423 -1.57423e-14 -3915.62 1.5198e-15 -3244.06)
(-9286.55 -94.1831 -4.7663e-14 -102.555 2.12516e-14 -2166.72)
(-8161.7 -306.324 0 2103.62 0 -1398.02)
(-6758.34 -438.285 3.99722e-15 3343.62 -2.68653e-14 -788.013)
(-5291.82 -509.924 4.44946e-14 3979.04 -2.74164e-14 -302.949)
(-3865.94 -544.597 2.93048e-14 4231.4 2.34065e-14 84.3359)
(-2526.27 -557.524 -3.05985e-14 4234.96 1.98658e-14 394.314)
(-1289.23 -557.752 -2.79126e-14 4073.16 -2.4025e-15 642.444)
(-157.336 -550.422 4.94377e-15 3799.7 -2.13059e-14 840.546)
(872.955 -540.218 3.10235e-15 3453.05 -1.15889e-14 998.309)
(-10210.2 109.112 -3.03531e-14 -3595.75 2.7801e-14 -3186)
(-9064.59 -1202.51 -1.82422e-15 169.077 7.2875e-16 -2052.81)
(-7791.44 -1888.86 8.1596e-14 2155.21 -1.41461e-14 -1300.67)
(-6313.89 -2230.56 4.74491e-14 3253.23 -8.22881e-15 -706.308)
(-4819.14 -2378.8 -3.89522e-14 3810.98 3.82488e-15 -232.651)
(-3389.27 -2415.5 -5.71362e-14 4024.3 2.2906e-14 146.544)
(-2058.8 -2388.37 -2.09267e-14 4011.87 1.93013e-14 450.709)
(-838.805 -2325.56 1.47941e-15 3848.68 2.1231e-14 694.587)
(269.622 -2242.67 1.07051e-14 3584.16 7.32333e-15 889.335)
(1269.12 -2159.05 6.24972e-16 3259.04 -1.07012e-14 1044.96)
(-10206.9 -76.7727 -9.41868e-15 -2412.21 -2.50814e-15 -2912.1)
(-8549.13 -2183.79 3.28196e-14 669.447 2.64668e-15 -1818.39)
(-7005.76 -3251.33 -7.26072e-16 2292.19 2.90919e-16 -1087.75)
(-5391.96 -3760.81 -7.41397e-14 3173.49 3.845e-14 -511.953)
(-3839.23 -3966.66 -8.70818e-14 3602.75 4.34526e-14 -54.5724)
(-2398.06 -4000.69 -3.77897e-14 3743.78 1.97571e-14 310.55)
(-1083.97 -3937.13 -7.80728e-14 3695.26 2.25905e-14 602.604)
(102.977 -3819.26 -9.54034e-15 3519.64 -3.85668e-15 835.988)
(1166.63 -3671.1 -3.10346e-14 3258.53 2.8902e-14 1021.19)
(2112.41 -3525.02 -2.88586e-14 2954.8 3.38649e-14 1169.36)
(-10093.9 -556.731 1.89777e-15 -697.519 -3.23386e-14 -2490.34)
(-7728.07 -3192.26 2.87524e-14 1399.48 -2.04292e-14 -1460.44)
(-5824.67 -4512.77 -9.11867e-14 2491.67 3.47234e-14 -769.154)
(-4039.3 -5121.56 -5.27889e-14 3068.03 1.79574e-14 -224.14)
(-2417.55 -5345.82 -2.63486e-15 3319.42 5.3108e-16 208.124)
(-967.211 -5355.4 -2.00784e-14 3360.51 9.82643e-16 552.3)
(320.337 -5244.75 -2.0249e-14 3261.79 1.86392e-14 826.646)
(1459.34 -5068.25 5.9683e-14 3068.46 -2.36489e-15 1044.88)
(2460.17 -4856.16 1.86411e-14 2811.22 -4.82262e-15 1216.47)
(3330.95 -4654.71 3.92033e-14 2535.74 -9.90984e-15 1353.85)
(-9780.97 -1417.07 2.28266e-14 1367.62 -4.4695e-14 -1941.54)
(-6589.31 -4279.02 -8.55618e-14 2304.25 2.85095e-14 -988.86)
(-4267.62 -5688.82 -9.25771e-14 2750.99 9.98786e-15 -349.994)
(-2290.2 -6306.41 1.38924e-13 2956.58 -3.38899e-14 153.78)
(-598.775 -6497.43 7.6422e-14 2993.98 -1.31023e-14 552.738)
(851.6 -6453.19 3.01344e-14 2916.09 -9.53744e-15 869.466)
(2098.65 -6279.87 8.90518e-14 2758.28 -1.55424e-14 1120.83)
(3173.41 -6037.98 1.7141e-14 2544.67 1.15045e-14 1319.56)
(4093.67 -5761.35 7.71616e-14 2292.83 7.03414e-15 1473.81)
(4869.85 -5511.24 -3.2897e-14 2050.92 -5.95463e-15 1597.1)
(-9151.71 -2695.52 7.57681e-14 3609.75 -1.93708e-14 -1278.91)
(-5105.9 -5458.42 -1.02032e-13 3310.91 3.06774e-14 -414.229)
(-2355.95 -6772.41 1.45e-13 3058.31 -2.33654e-14 162.083)
(-190.27 -7293.16 5.68467e-14 2859.51 -2.34996e-14 615.978)
(1558.52 -7390.48 8.71887e-14 2664.32 -6.49108e-15 974.503)
(2992.56 -7258.58 -7.7418e-14 2458.67 6.53611e-15 1257.98)
(4181.43 -7005.04 6.98949e-14 2238.94 -5.81915e-15 1481.62)
(5174.46 -6690.48 1.66984e-14 2005.74 1.31549e-14 1656.97)
(5997.34 -6348.89 -9.21254e-15 1761.82 -3.01495e-14 1790.57)
(6662.59 -6057.76 -7.02467e-14 1556.21 -3.47971e-14 1896.65)
(-8083.14 -4382.71 -7.68416e-14 5853.88 1.37548e-13 -514.445)
(-3244.77 -6720.16 -8.34242e-14 4341.26 5.92314e-14 253.038)
(-109.517 -7749.16 2.90316e-13 3396.39 -1.45127e-14 758.509)
(2210.6 -8062.71 6.42025e-14 2795.7 -2.69314e-14 1155.3)
(3987.89 -8002.43 -5.0727e-14 2370.42 1.40513e-14 1467.3)
(5380.31 -7747.33 -1.2559e-13 2040.51 4.27126e-15 1712.5)
(6488.98 -7395.8 2.58841e-14 1763.18 5.2068e-15 1904.34)
(7381.31 -7002.16 0 1514.91 0 2052.97)
(8090.68 -6596.63 -6.11212e-14 1282.71 2.87971e-16 2163.09)
(8631.99 -6273.6 7.52836e-14 1113.4 -1.34667e-14 2248.94)
(-6459.42 -6424.52 -1.40009e-13 7932.14 9.99267e-14 339.858)
(-974.81 -8033.21 1.80681e-13 5319.31 -6.05356e-14 1002.58)
(2451.64 -8599.91 -2.6312e-14 3746.04 -2.84635e-14 1430.23)
(4861.47 -8601.61 5.78856e-14 2781.54 3.60917e-14 1763.77)
(6620.28 -8322.85 -3.84793e-13 2150.52 -5.41652e-15 2024.03)
(7935.88 -7910.93 9.82544e-14 1713.05 5.41057e-15 2226.68)
(8937.58 -7445.19 2.50069e-14 1390.27 4.69514e-15 2383.35)
(9708.82 -6967.76 0 1135.96 0 2502.64)
(10289 -6501.62 -3.83182e-16 921.373 -1.04836e-14 2587)
(10694.9 -6157.58 4.89541e-15 786.775 -1.41538e-14 2649.62)
(-4182.93 -8726.87 0 9695.41 0 1272.11)
(1727.46 -9348.45 -5.1594e-14 6176.76 3.00857e-14 1824.05)
(5305.09 -9301.06 -2.16262e-13 4089.25 -8.00833e-14 2167.92)
(7711.09 -8901.51 -1.09461e-13 2831.12 4.26545e-14 2432.82)
(9386.81 -8352.93 -5.46177e-14 2039.02 1.54342e-14 2636.73)
(10580.5 -7756.78 1.81686e-13 1523.13 1.82646e-15 2793.16)
(11444.5 -7164.42 0 1174.39 0 2912.06)
(12075.1 -6600.27 0 927.56 0 3000.61)
(12515.5 -6077.46 0 739.312 0 3058.79)
(12778.9 -5724.87 1.01143e-13 637.871 -3.04914e-14 3096.19)
(-1183.09 -11162.7 -6.66965e-14 11024 5.84171e-14 2270.97)
(4873.55 -10601.1 -1.2665e-13 6858.47 6.44686e-14 2707.39)
(8424.02 -9824.67 -3.23464e-14 4411.85 -3.44703e-14 2962.12)
(10707.4 -8957.76 -7.4354e-14 2957.09 -4.90268e-14 3153.34)
(12219.2 -8103.92 2.5597e-13 2065.7 4.13287e-14 3296.5)
(13236.6 -7307.53 0 1510.52 0 3403.17)
(13928.3 -6584.28 -9.62235e-14 1160.19 -1.55454e-14 3481.97)
(14402 -5934.86 0 936.713 0 3539.69)
(14711.9 -5354.49 3.55525e-15 786.873 -8.52896e-15 3576.64)
(14888.1 -4984.97 -3.10607e-14 716.352 -5.14018e-15 3601.03)
(1784.3 -512.816 1.23902e-14 3041.53 -1.10124e-14 1113.65)
(2628.34 -472.733 2.8537e-15 2602.7 -6.38591e-15 1207.16)
(3401.03 -438.15 -3.42901e-14 2129.33 6.88637e-15 1276.24)
(4111.1 -406.633 -5.08283e-17 1634.17 7.69794e-18 1325.83)
(4765.21 -378.134 -2.44864e-15 1125.23 -9.52001e-16 1359.33)
(5369.53 -352.289 -2.11507e-14 608.76 2.14128e-15 1379.61)
(5929.4 -328.656 0 90.1709 0 1389.13)
(6449.24 -306.771 0 -425.504 0 1390.09)
(6932.62 -286.158 -5.55601e-14 -933.284 1.44091e-14 1384.46)
(7382.22 -266.339 9.09852e-14 -1427.99 -1.82721e-14 1374.05)
(7799.88 -246.833 1.02906e-13 -1904.06 1.78457e-14 1360.57)
(8186.6 -227.15 -7.02884e-14 -2355.38 3.03614e-15 1345.67)
(8542.51 -206.786 -3.58779e-14 -2775.12 1.10443e-14 1330.93)
(8866.86 -185.213 -1.14845e-13 -3155.62 3.5534e-15 1317.98)
(9157.97 -161.87 3.78677e-14 -3488.18 -2.38684e-14 1308.41)
(9413.14 -136.151 8.23274e-14 -3762.96 1.0632e-14 1303.89)
(9628.53 -107.466 9.01997e-16 -3968.87 2.54543e-14 1306.08)
(9799 -75.53 4.26313e-14 -4093.61 1.2903e-14 1316.63)
(9917.8 -41.2342 -4.1331e-14 -4124.47 3.98678e-14 1336.92)
(9994.47 -7.19622 -1.41867e-14 -4043.92 -3.03897e-16 1373.2)
(2127.37 -2016.49 3.41461e-14 2874.55 -3.11375e-14 1154.29)
(2922.68 -1832.42 2.65419e-14 2470.2 -1.56959e-14 1244.51)
(3646.91 -1675.73 -7.08857e-15 2023.27 4.6672e-15 1308.5)
(4317.19 -1534.44 4.1629e-14 1549.84 -1.4798e-14 1353.93)
(4937.85 -1408.49 1.31433e-15 1058.07 -4.13619e-16 1383.67)
(5513.76 -1296.27 -6.94575e-14 554.645 1.7316e-14 1400.4)
(6049.3 -1195.81 7.9504e-15 45.3491 5.68804e-15 1406.46)
(6548.18 -1105.06 -5.34876e-14 -464.463 1.16918e-14 1403.93)
(7013.4 -1022.02 -1.52198e-15 -969.528 1.64303e-16 1394.74)
(7447.21 -944.723 5.75177e-14 -1464.43 -2.35859e-14 1380.64)
(7851.12 -871.268 4.01513e-14 -1943.41 1.79779e-14 1363.32)
(8225.85 -799.766 -5.35455e-15 -2400.17 -1.74964e-14 1344.39)
(8571.35 -728.326 -3.73426e-14 -2827.76 4.04886e-15 1325.44)
(8886.75 -655.019 0 -3218.39 0 1308.08)
(9170.33 -577.847 -3.27998e-15 -3563.3 -2.31314e-14 1293.93)
(9419.47 -494.706 -8.13717e-14 -3852.57 4.55166e-15 1284.67)
(9630.62 -403.333 -2.57593e-15 -4074.93 -1.32341e-14 1282.08)
(9798.97 -301.023 1.47585e-15 -4217.07 1.3359e-14 1288.13)
(9917.17 -183.105 4.36543e-16 -4261.92 1.33815e-14 1305.06)
(9995.67 -36.8465 2.79907e-14 -4173.75 -1.11714e-14 1343.52)
(2876.23 -3289.92 -7.14433e-15 2596.79 3.67627e-15 1263.01)
(3574.39 -2997.21 3.41659e-14 2236.35 -2.35566e-14 1340.94)
(4196.06 -2746.64 -3.07166e-14 1827.33 2.1385e-14 1390.01)
(4778.94 -2519.23 7.87551e-15 1387.59 -8.89408e-15 1423.04)
(5325.16 -2315.43 7.56422e-14 923.914 -2.98559e-14 1442.09)
(5837.63 -2133.15 -7.50319e-14 442.885 2.85022e-14 1449.35)
(6318.96 -1969.57 -2.70074e-14 -49.4796 1.03284e-14 1446.8)
(6771.41 -1821.58 5.5046e-14 -547.495 -1.90061e-14 1436.29)
(7196.76 -1686.07 1.49517e-15 -1045.57 -2.1401e-16 1419.51)
(7596.32 -1559.91 -5.1897e-15 -1537.98 -6.45923e-15 1398.08)
(7970.82 -1440.03 9.98203e-14 -2018.72 -2.42017e-14 1373.56)
(8320.38 -1323.35 2.78666e-14 -2481.28 -2.51697e-14 1347.49)
(8644.48 -1206.77 -1.09221e-13 -2918.51 2.03729e-14 1321.38)
(8941.86 -1087.1 -3.80657e-14 -3322.5 5.96353e-15 1296.78)
(9210.55 -961.042 3.58028e-14 -3684.37 -1.7003e-14 1275.27)
(9447.7 -825.097 3.77715e-14 -3994.07 -1.66339e-14 1258.53)
(9649.48 -675.336 -4.53099e-14 -4240.11 -2.3783e-14 1248.32)
(9810.61 -506.681 -4.40546e-14 -4408.85 -1.27153e-14 1246.56)
(9922.94 -310.183 3.66138e-14 -4483.31 -4.23299e-14 1255.3)
(9994.92 -63.1222 1.40812e-14 -4429.27 2.12213e-15 1284.38)
(3965.09 -4343.86 -4.98783e-14 2213.36 9.1378e-15 1425.8)
(4525.67 -3972.47 -1.43865e-14 1909.53 2.77616e-15 1485.05)
(5003.55 -3654.1 1.94543e-14 1551.97 -1.40846e-14 1512.81)
(5461.78 -3363.23 -2.10484e-14 1158.58 3.13334e-16 1527.78)
(5900.66 -3100.74 1.08164e-14 734.302 2.65759e-16 1531.14)
(6320.83 -2864.53 -1.46746e-14 285.2 1.47519e-14 1524.47)
(6722.73 -2651.46 -7.0304e-14 -182.666 -5.7249e-16 1509.25)
(7106.72 -2457.9 -5.66613e-14 -663.357 2.53464e-14 1486.93)
(7473.01 -2280.05 2.03449e-14 -1150.96 -1.69259e-14 1458.93)
(7821.59 -2113.95 6.48564e-14 -1639.43 -2.3557e-14 1426.65)
(8152.14 -1955.63 7.97289e-14 -2122.44 -6.51678e-15 1391.47)
(8463.9 -1801.01 1.84432e-14 -2593.25 2.68236e-14 1354.77)
(8755.66 -1645.9 -9.36192e-14 -3044.48 5.86323e-14 1317.96)
(9025.6 -1486 3.76174e-14 -3468.05 -8.28512e-15 1282.51)
(9271.26 -1316.74 3.49661e-14 -3854.91 -1.93587e-14 1249.93)
(9489.39 -1133.22 -3.57633e-14 -4194.93 1.90981e-14 1221.8)
(9675.76 -929.82 3.00736e-15 -4476.52 1.40027e-14 1199.83)
(9824.83 -699.215 3.86109e-14 -4686.21 -1.67709e-14 1185.84)
(9928.34 -428.794 -4.87923e-14 -4807.9 -4.57173e-14 1181.64)
(9992.71 -87.4777 -1.3319e-14 -4807.64 1.27567e-14 1196.55)
(5347.35 -5142 3.9802e-14 1771.31 -4.38555e-14 1642.77)
(5735.4 -4726.05 -7.5067e-14 1527.52 2.11402e-14 1676.06)
(6037.12 -4369.08 -7.28177e-15 1228.99 1.46548e-14 1676.8)
(6340.77 -4040.35 1.3971e-14 889.287 -1.99715e-16 1668.47)
(6645.43 -3741.01 4.02909e-14 511.487 1.13795e-15 1651.6)
(6949.17 -3469.43 9.12895e-14 100.715 -4.58953e-14 1626.9)
(7250.06 -3222.73 2.70203e-14 -337.302 3.50408e-15 1595.25)
(7546.34 -2997.3 -5.92769e-14 -796.635 3.0964e-14 1557.62)
(7836.45 -2789.1 -4.53235e-14 -1271.22 -2.5771e-14 1515.05)
(8118.87 -2593.75 -8.86951e-14 -1754.82 4.95946e-14 1468.63)
(8392.05 -2406.64 1.41382e-14 -2240.89 1.56929e-14 1419.5)
(8654.21 -2222.91 2.00818e-14 -2722.47 2.71194e-14 1368.86)
(8903.28 -2037.46 -2.23241e-14 -3192.02 -3.15814e-14 1317.98)
(9136.77 -1844.93 1.05648e-13 -3641.29 -4.3601e-14 1268.19)
(9351.64 -1639.56 1.66693e-14 -4061.17 3.90921e-14 1220.88)
(9544.19 -1415.05 -3.4967e-14 -4441.47 2.13803e-14 1177.55)
(9709.85 -1164.17 4.844e-14 -4770.75 2.48057e-14 1139.79)
(9842.97 -877.465 1.25516e-13 -5035.88 6.28206e-15 1109.33)
(9935.31 -539.06 -3.75783e-14 -5221.6 1.76824e-14 1087.78)
(9989.72 -110.26 -4.19964e-14 -5293.89 -2.38377e-14 1083.65)
(6967.64 -5648.92 1.6552e-14 1322.63 3.14711e-15 1913.14)
(7156.84 -5226.78 -7.42668e-16 1131.05 1.22668e-14 1912.59)
(7261.01 -4863.21 -8.1507e-14 892.124 4.98236e-14 1881.49)
(7388.65 -4524.75 -5.48098e-14 607.483 3.41922e-14 1845.26)
(7538.99 -4212.59 -3.42704e-15 278.739 1.48229e-15 1804.09)
(7707.5 -3926.2 4.27222e-16 -90.5879 -2.61916e-16 1757.75)
(7889.88 -3663.59 3.45652e-14 -495.676 9.29919e-15 1706.35)
(8082.31 -3421.73 1.52847e-13 -931.076 -8.73543e-14 1650.28)
(8281.44 -3196.82 1.47877e-14 -1390.95 3.89799e-15 1590.11)
(8484.24 -2984.47 -1.62893e-13 -1869.12 8.32705e-14 1526.57)
(8687.88 -2779.74 -1.97433e-14 -2359.06 -1.52168e-14 1460.5)
(8889.51 -2577.24 1.73045e-13 -2853.76 -7.56304e-14 1392.87)
(9086.2 -2371.12 1.68182e-14 -3345.66 -4.57866e-14 1324.74)
(9274.72 -2155.04 -1.82366e-13 -3826.5 6.42236e-14 1257.28)
(9451.44 -1922.13 -4.00453e-14 -4287.18 1.04115e-14 1191.75)
(9612.23 -1664.74 -1.63458e-14 -4717.62 -4.52083e-14 1129.53)
(9752.23 -1374.06 -1.52709e-14 -5106.61 -4.96184e-14 1072.07)
(9865.68 -1038.67 8.34338e-14 -5441.48 7.62647e-15 1020.97)
(9944.38 -639.624 4.88193e-14 -5707.73 5.14299e-14 977.689)
(9985.92 -131.242 1.28616e-14 -5872.58 -1.61257e-14 949.231)
(8760.44 -5844.15 -9.34943e-15 923.918 -2.76047e-15 2234.85)
(8735.95 -5455.56 -3.85462e-14 763.726 1.71301e-14 2192.23)
(8634.17 -5117.66 0 576.775 0 2125.6)
(8574.44 -4798.08 0 341.932 0 2057.62)
(8558.19 -4497.81 -5.54461e-14 59.8738 -1.83216e-15 1988.78)
(8578.71 -4217.97 0 -268.443 0 1917.75)
(8629.75 -3958.02 -2.92882e-14 -639.943 -5.04736e-15 1843.8)
(8705.74 -3716.06 -4.4591e-14 -1050.34 -9.40821e-15 1766.63)
(8801.76 -3489.06 3.59606e-14 -1494.58 1.45573e-14 1686.27)
(8913.44 -3272.95 2.44586e-14 -1967.02 1.19239e-14 1603.02)
(9036.77 -3062.84 -1.95199e-14 -2461.5 -1.5353e-14 1517.37)
(9167.97 -2853.02 3.41786e-14 -2971.3 -1.70904e-14 1430)
(9303.26 -2637.06 2.47288e-14 -3489.08 3.24967e-14 1341.73)
(9438.77 -2407.77 6.81222e-15 -4006.79 1.24822e-14 1253.53)
(9570.35 -2157.2 7.81024e-14 -4515.54 -1.10788e-13 1166.49)
(9693.44 -1876.41 7.12349e-14 -5005.55 -3.74907e-14 1081.82)
(9802.96 -1555.03 -1.22159e-13 -5465.96 -5.17438e-15 1000.85)
(9893.04 -1179.71 -1.17053e-13 -5884.63 1.87931e-14 925.019)
(9955.65 -728.672 3.95556e-14 -6247.88 -2.7834e-15 855.639)
(9981.19 -149.98 1.32904e-14 -6526.56 9.79886e-16 797.221)
(10651.9 -5723.3 1.07131e-14 632.175 -2.30818e-14 2604.02)
(10413.1 -5404.62 -2.75394e-14 468.93 1.09789e-14 2511.24)
(10110.9 -5121.65 -1.07134e-13 317.815 4.63591e-14 2406.64)
(9863.33 -4847.94 9.2542e-15 121.002 -1.6608e-14 2304.08)
(9676.67 -4583.55 2.71822e-15 -121.685 -9.8519e-16 2205)
(9543.13 -4331.48 -3.31755e-14 -413.084 1.89214e-14 2106.93)
(9455.23 -4092.97 4.15857e-14 -752.891 -6.2705e-14 2008.23)
(9406.22 -3867.67 4.04253e-14 -1138.82 3.1357e-15 1907.86)
(9390.06 -3653.68 -1.33097e-13 -1567.32 1.07251e-13 1805.25)
(9401.38 -3447.73 -1.74349e-14 -2033.9 -4.60711e-15 1700.19)
(9435.31 -3245.22 3.01659e-14 -2533.32 -6.07034e-14 1592.77)
(9487.31 -3040.39 0 -3059.59 0 1483.32)
(9553 -2826.38 8.39603e-15 -3606.03 1.09312e-14 1372.38)
(9627.99 -2595.27 1.21551e-13 -4165.1 -2.42175e-14 1260.67)
(9707.73 -2338.06 4.48527e-14 -4728.45 4.50928e-16 1149.06)
(9787.4 -2044.52 -9.3013e-14 -5286.78 9.03359e-14 1038.6)
(9861.73 -1702.74 -2.44998e-14 -5829.8 6.58151e-14 930.446)
(9924.84 -1297.5 0 -6346.01 0 825.882)
(9969.03 -804.313 3.62611e-14 -6822.7 -2.64412e-14 726.076)
(9975.44 -165.946 1.41106e-14 -7237.17 6.82019e-14 631.91)
(12567.5 -5281.25 1.66103e-14 506.122 -1.32665e-14 3016.99)
(12130.5 -5058.38 -3.42673e-14 296.694 3.9297e-14 2867.82)
(11644.1 -4855.6 8.08463e-15 157.556 -1.40304e-14 2723.45)
(11217.2 -4653.46 -2.44347e-14 -19.9574 -1.2798e-15 2583.97)
(10863.9 -4449.3 3.7559e-14 -237.318 1.87565e-14 2452.3)
(10576.7 -4247.33 1.49708e-13 -501.763 -5.33656e-14 2324.99)
(10347.6 -4050.5 -5.87895e-14 -816.376 3.51512e-14 2199.52)
(10169.4 -3860.18 -1.41506e-13 -1181.67 1.07852e-13 2074.08)
(10035.4 -3675.95 4.41278e-14 -1596.39 -6.98716e-14 1947.46)
(9939.8 -3495.6 1.40472e-13 -2057.98 -1.13786e-13 1818.88)
(9877.32 -3315.16 -6.67057e-14 -2562.83 -1.32997e-15 1687.96)
(9843.01 -3129.02 -7.68786e-14 -3106.42 7.8091e-14 1554.6)
(9832.12 -2930.09 -6.69173e-14 -3683.26 3.88079e-14 1418.97)
(9839.98 -2709.8 -2.46149e-15 -4286.94 -4.24745e-16 1281.47)
(9861.84 -2458.18 8.06474e-14 -4910.08 -4.51068e-15 1142.71)
(9892.76 -2163.74 4.88128e-15 -5544.29 1.74067e-14 1003.49)
(9927.5 -1813.03 0 -6180.13 0 864.778)
(9960.33 -1388.97 3.40196e-14 -6807.03 -3.26933e-14 727.685)
(9984.2 -864.609 -7.51608e-14 -7413.13 1.4156e-14 593.323)
(9968.65 -178.523 -3.81259e-14 -7984.97 3.0445e-14 457.773)
(14453.4 -4459.31 6.46083e-14 569.927 2.21983e-14 3466.93)
(13859.3 -4348.2 1.17046e-14 336.27 -1.48017e-14 3275.89)
(13207.2 -4255.11 4.17589e-14 193.38 -7.79767e-15 3092.44)
(12616.2 -4153.24 -9.21231e-14 8.56191 4.60618e-14 2913.41)
(12107.2 -4037.4 -1.10408e-13 -212.352 3.92397e-14 2744.95)
(11673.5 -3911.95 5.65088e-14 -475.202 -4.81529e-14 2584.22)
(11307.1 -3781.42 1.47163e-13 -785.306 -5.6742e-14 2428.11)
(11000.5 -3649.05 6.34628e-14 -1146.39 -5.88045e-14 2274.03)
(10746.9 -3516.14 -7.24464e-14 -1560.34 2.59143e-14 2119.98)
(10540.4 -3381.84 2.05573e-15 -2027.38 -3.75087e-15 1964.55)
(10375.6 -3243.04 -3.76687e-14 -2546.21 7.3921e-14 1806.79)
(10247.8 -3094.44 -9.97558e-14 -3114.22 4.22284e-14 1646.22)
(10152.5 -2928.74 6.5555e-14 -3727.57 -4.13543e-14 1482.66)
(10085.1 -2736.67 1.46631e-14 -4381.36 -6.33458e-14 1316.24)
(10041.2 -2507.17 -2.14066e-15 -5069.57 3.58627e-15 1147.3)
(10016.1 -2227.31 -3.62238e-14 -5785.29 -4.34324e-15 976.348)
(10004.8 -1881.96 3.48292e-14 -6520.69 -1.54154e-14 804.03)
(10001.9 -1452.05 -1.28201e-15 -7267.11 3.33622e-15 631.112)
(10001.5 -908.364 -3.67128e-14 -8014.66 3.48035e-14 458.508)
(9960.96 -187.295 1.1887e-15 -8759.68 -5.54101e-14 277.22)
(16465.5 -3580.16 -2.88445e-14 542.729 -1.65866e-14 3924.97)
(15469.6 -3586.63 -3.39228e-14 479.941 -8.42887e-15 3680.65)
(14613.6 -3614.64 -2.54133e-14 274.195 5.0583e-15 3435.65)
(13887.5 -3603.3 2.6064e-14 60.2917 6.82031e-15 3218.72)
(13254.6 -3564.33 -2.10231e-14 -178.878 -3.73593e-14 3017.48)
(12701.4 -3506.3 -1.4107e-14 -452.339 -2.33891e-14 2826.71)
(12218.6 -3435.8 -4.94115e-14 -767.988 9.73448e-15 2642.44)
(11799 -3357.45 -1.8955e-14 -1132.2 2.55474e-14 2461.58)
(11436.9 -3273.63 6.46704e-14 -1549.63 6.43087e-15 2281.68)
(11127.2 -3184.3 -6.58511e-15 -2023.22 4.59687e-15 2100.92)
(10865.6 -3086.94 1.95119e-14 -2554.35 1.80176e-14 1917.97)
(10647.9 -2976.55 -1.54151e-14 -3142.92 -2.17251e-14 1731.93)
(10470.5 -2845.78 0 -3787.44 0 1542.25)
(10329.6 -2684.99 -2.2195e-15 -4485.09 -1.68807e-14 1348.73)
(10221.1 -2482.48 1.01529e-15 -5231.76 1.91136e-14 1151.39)
(10140.9 -2224.47 -2.90657e-15 -6022.12 2.74476e-15 950.488)
(10084.4 -1894.86 -3.23976e-14 -6849.86 1.66145e-14 746.433)
(10046.8 -1473.48 1.79945e-15 -7707.75 -2.40484e-15 539.785)
(10023 -929.157 4.37847e-15 -8587.78 -3.0944e-14 331.213)
(9955.55 -193.4 1.63481e-15 -9496.63 -3.33324e-14 105.906)
(17041.1 -2841.91 4.94587e-14 652.888 1.87248e-15 4083.22)
(16237.8 -2910.96 0 477.151 0 3857.29)
(15409.7 -3003.97 -4.09353e-14 237.571 8.3934e-15 3610.91)
(14668.2 -3054.1 6.95546e-28 5.55445 -1.45337e-28 3386.24)
(13999.8 -3069.05 -1.14414e-29 -241.959 1.0514e-28 3174.89)
(13397.8 -3059.76 3.35897e-28 -517.678 5.22967e-29 2972.35)
(12857 -3034.58 5.12622e-28 -831.76 -1.51318e-28 2775.05)
(12373.2 -2999.07 -3.39766e-14 -1192.72 1.86264e-14 2580.11)
(11943.3 -2956.12 0 -1607.46 0 2385.19)
(11564.6 -2905.99 3.25299e-14 -2081.34 -2.09706e-14 2188.43)
(11234.5 -2846.34 -3.39052e-28 -2618.15 2.86844e-28 1988.39)
(10950.9 -2772.17 -3.18041e-14 -3220.2 2.22801e-14 1784.01)
(10711.4 -2675.94 3.16998e-14 -3888.3 -2.24736e-14 1574.56)
(10513.4 -2547.72 1.86868e-28 -4621.71 -1.09298e-29 1359.63)
(10354 -2375.35 -3.19709e-14 -5418.15 2.1696e-14 1139.05)
(10229.9 -2144.58 -2.21426e-28 -6273.89 1.38728e-28 912.923)
(10137.1 -1838.85 3.28058e-14 -7183.94 -1.89202e-14 681.509)
(10071.7 -1437.72 3.33987e-14 -8142.46 -1.65597e-14 445.212)
(10029.8 -910.218 -2.59914e-28 -9143.71 2.10472e-28 204.482)
(9946.59 -189.782 -8.87012e-29 -10203.6 1.89723e-28 -59.3045)
(17731.3 -2030.39 3.56268e-14 936.003 -1.48419e-14 4307.84)
(16998 -2141.66 -9.17723e-15 662.442 -1.18414e-14 4075.49)
(16206.6 -2281.75 -5.03192e-14 351.665 -3.55278e-15 3821.14)
(15461.5 -2384.68 0 70.9576 0 3584.4)
(14764.5 -2452.29 3.60634e-14 -208.545 -2.58867e-14 3359.06)
(14117.8 -2493.81 3.47882e-14 -505.157 -4.09603e-14 3141.37)
(13521.2 -2517.69 -3.66448e-14 -832.726 4.52923e-15 2928.1)
(12974.2 -2529.87 -3.21409e-14 -1202.64 -7.91633e-15 2716.51)
(12476.4 -2533.58 3.45977e-14 -1624.52 -2.07618e-14 2504.28)
(12027.4 -2529.31 8.93758e-15 -2106.42 -3.05025e-14 2289.45)
(11626.9 -2514.79 5.58183e-15 -2654.91 -1.63944e-14 2070.46)
(11274.6 -2484.93 1.30506e-14 -3275.02 -3.55346e-14 1846.06)
(10969.8 -2431.93 1.46224e-14 -3970.15 -3.87569e-14 1615.31)
(10711.6 -2345.38 7.95854e-15 -4741.97 -2.12315e-14 1377.6)
(10498.2 -2212.52 1.69846e-14 -5590.35 -4.66497e-14 1132.57)
(10327.3 -2018.42 1.78852e-14 -6513.37 -5.13028e-14 880.136)
(10196 -1745.96 -3.32219e-14 -7507.57 2.14585e-14 620.397)
(10100.9 -1374.54 9.73219e-15 -8568.63 -3.09552e-14 353.594)
(10039.5 -874.212 1.0149e-14 -9692.82 -3.39063e-14 79.992)
(9938.68 -182.464 3.54864e-15 -10902.8 -3.70547e-14 -222.488)
(18332.7 -1259.2 1.92143e-13 1199.62 1.36113e-15 4507.46)
(17645.4 -1380.34 3.51736e-15 860.971 1.18298e-14 4270.69)
(16892.2 -1540.75 -9.13173e-14 497.046 5.2854e-15 4012.89)
(16157.8 -1675.32 1.45366e-27 173.202 -2.54197e-28 3768.7)
(15448.3 -1780.83 8.40845e-14 -136.938 -4.02641e-14 3533.4)
(14771.3 -1863.35 0 -453.904 0 3304.01)
(14131.2 -1929.92 -4.65241e-15 -794.434 1.34342e-14 3077.71)
(13531.2 -1986.01 -7.4102e-14 -1172.68 3.9806e-14 2851.96)
(12973.8 -2034.76 1.38053e-27 -1600.96 -6.8954e-28 2624.5)
(12461.3 -2076.63 6.98603e-14 -2090.12 -4.60808e-14 2393.34)
(11995.7 -2109.26 9.64667e-15 -2649.61 -1.66755e-14 2156.78)
(11578.8 -2127.34 -2.33863e-28 -3287.33 1.79567e-28 1913.41)
(11212.1 -2122.65 -1.36569e-27 -4009.54 1.06911e-27 1662.13)
(10896.3 -2084.15 -1.17832e-14 -4820.52 2.15891e-14 1402.11)
(10631.5 -1998.22 -6.79172e-28 -5722.43 5.38225e-28 1132.86)
(10416.4 -1849.03 -6.63518e-14 -6715.18 5.09437e-14 854.133)
(10249.2 -1618.71 3.58331e-28 -7796.73 -1.23412e-28 565.948)
(10127.2 -1286.47 8.17482e-14 -8963.74 -7.65636e-14 268.485)
(10048.6 -823.617 1.37251e-14 -10213.3 -3.53027e-14 -38.0012)
(9931.19 -172.376 4.73215e-15 -11571.9 -3.88344e-14 -378.623)
(18884.7 -539.691 -1.27434e-15 1444.52 2.25295e-14 4691.37)
(18230.8 -652.59 4.5749e-14 1058.68 5.18485e-15 4451.41)
(17510 -811.919 -6.99022e-15 658.483 2.45237e-14 4192.72)
(16788.8 -957.512 3.14067e-28 302.209 -1.21034e-28 3944.09)
(16074 -1083.59 2.98171e-14 -32.6494 1.18406e-14 3701.84)
(15375.1 -1193.48 -4.94025e-14 -366.367 2.96452e-14 3463.55)
(14699.8 -1292.43 -4.93397e-14 -717.159 3.21859e-14 3226.76)
(14054.2 -1384.95 -2.17882e-14 -1101.34 2.83833e-14 2989.13)
(13443.6 -1473.73 3.71063e-14 -1533.73 -2.23537e-14 2748.43)
(12872.6 -1559.02 2.27612e-14 -2027.91 -8.31644e-15 2502.63)
(12345.9 -1638.3 -2.83045e-14 -2596.29 3.36273e-14 2249.91)
(11867.5 -1705.95 -4.92067e-14 -3249.89 4.49449e-14 1988.68)
(11441.3 -1753.21 -6.48678e-14 -3998.04 6.73922e-14 1717.67)
(11070 -1768.17 -1.60703e-14 -4847.95 2.18014e-14 1435.87)
(10755.6 -1736.11 4.11191e-16 -5804.29 1.96869e-14 1142.62)
(10498.5 -1639.92 -1.67988e-14 -6868.9 2.67373e-14 837.592)
(10297.6 -1460.59 7.53177e-30 -8040.88 -6.04581e-30 520.774)
(10151 -1176.82 -2.35139e-16 -9317.26 4.04277e-14 192.403)
(10057.1 -760.943 -3.54774e-14 -10694.7 7.31887e-14 -147.142)
(9923.77 -160.058 -1.21172e-14 -12201.9 8.10199e-14 -525.726)
(19420.2 132.463 5.65953e-14 1656.65 -1.63012e-14 4863.89)