/*--------------------------------*- C++ -*----------------------------------*\
  =========                 |
  \\      /  F ield         | OpenFOAM: The Open Source CFD Toolbox
   \\    /   O peration     | Website:  https://openfoam.org
    \\  /    A nd           | Version:  6
     \\/     M anipulation  |
\*---------------------------------------------------------------------------*/
FoamFile
{
    version     2.0;
    format      ascii;
    class       volScalarField;
    location    "1.5";
    object      p;
}
// * * * * * * * * * * * * * * * * * * * * * * * * * * * * * * * * * * * * * //

dimensions      [1 -1 -2 0 0 0 0];

internalField   nonuniform List<scalar> 
10000
(
1
1
1
1
1
1
1
1
1
1
1
1
1
1
1
1
1
1
1
1
1
1
1
1
1
1
1
1
1
1
1
1
1
1
1
1
1
1
1
1
1
1
1
1
1
1
1
1
1
1
1
1
1
1
1
1
1
1
1
1
1
1
1
1
1
1
1
1
1
1
1
1
1
1
1
1
1
1
1
1
1
1
1
1
1
1
1
1
1
1
1
1
1
1
1
1
1
1
1
1
1
1
1
1
1
1
1
1
1
1
1
1
1
1
1
1
1
1
1
1
1
1
1
1
1
1
1
1
1
1
1
1
1
1
1
1
1
1
1
1
1
1
1
1
1
1
1
1
1
1
1
1
1
1
1
1
1
1
1
1
1
1
1
1
1
1
1
1
1
1
1
1
1
1
1
1
1
1
1
1
1
1
1
1
1
1
1
1
1
1
1
1
1
1
1
1
1
1
1
1
1
1
1
1
1
1
1
1
1
1
1
1
1
1
1
1
1
1
1
1
1
1
1
1
1
1
1
1
1
1
1
1
1
1
1
1
1
1
1
1
1
1
1
1
1
1
1
1
1
1
1
1
1
1
1
1
1
1
1
1
1
1
1
1
1
1
1
1
1
1
1
1
1
1
1
1
1
1
1
1
1
1
1
1
1
1
1
1
1
1
1
1
1
1
1
1
1
1
1
1
1
1
1
1
1
1
1
1
1
1
1
1
1
1
1
1
1
1
1
1
1
1
1
1
1
1
1
1
1
1
1
1
1
1
1
1
1
1
1
1
1
1
1
1
1
1
1
1
1
1
1
1
1
1
1
1
1
1
1
1
1
1
1
1
1
1
1
1
1
1
1
1
1
1
1
1
1
1
1
1
1
1
1
1
1
1
1
1
1
1
1
1
1
1
1
1
1
1
1
1
1
1
1
1
1
1
1
1
1
1
1
1
1
1
1
1
1
1
1
1
1
1
1
1
1
1
1
1
1
1
1
1
1
1
1
1
1
1
1
1
1
1
1
1
1
1
1
1
1
1
1
1
1
1
1
1
1
1
1
1
1
1
1
1
1
1
1
1
1
1
1
1
1
1
1
1
1
1
1
1
1
1
1
1
1
1
1
1
1
1
1
1
1
1
1
1
1
1
1
1
1
1
1
1
1
1
1
1
1
1
1
1
1
1
1
1
1
1
1
1
1
1
1
1
1
1
1
1
1
1
1
1
1
1
1
1
1
1
1
1
1
1
1
1
1
1
1
1
0.999999
0.999999
0.999999
0.999999
0.999999
1
1
1
1
1
1
1
1
1
1
1
1
1
1
1
1
1
1
1
1
1
1
1
1
1
1
1
1
1
1
1
1
1
1
1
1
1
1
1
1
1
1
1
1
1
1
1
1
1
1
1
1
1
1
1
1
1
1
1
1
1
1
1
1
1
1
1
1
1
1
1
1
1
1
1
1
1
1
1
1
1
1
1
1
1
1
1
1
1
1
1
1
0.999999
0.999999
0.999999
0.999999
0.999999
0.999999
0.999999
0.999999
0.999999
0.999999
1
1
1
1
1
1
1
1
1
1
1
1
1
1
1
1
1
1
1
1
1
1
1
1
1
1
1
1
1
1
1
1
1
1
1
1
1
1
1
1
1
1
1
1
1
1
1
1
1
1
1
1
1
1
1
1
1
1
1
1
1
1
1
1
1
1
1
1
1
1
1
1
1
1
1
1
1
1
1
1
1
1
1
1
1
1
1
1
0.999999
1
0.999999
0.999999
0.999999
0.999998
0.999998
0.999998
0.999998
0.999998
0.999998
0.999999
0.999999
1
1
1
1
1
1
1
1
1
1
1
1
1
1
1
1
1
1
1
1
1
1
1
1
1
1
1
1
1
1
1
1
1
1
1
1
1
1
1
1
1
1
1
1
1
1
1
1
1
1
1
1
1
1
1
1
1
1
1
1
1
1
1
1
1
1
1
1
1
1
1
1
1
1
1
1
1
1
1
1
1
1
1
1
1
1
1
0.999999
0.999999
0.999999
0.999998
0.999998
0.999997
0.999997
0.999996
0.999996
0.999997
0.999997
0.999998
0.999999
1
1
1
1
1
1
1
1
1
1
1
1
1
1
1
1
1
1
1
1
1
1
1
1
1
1
1
1
1
1
1
1
1
1
1
1
1
1
1
1
1
1
1
1
1
1
1
1
1
1
1
1
1
1
1
1
1
1
1
1
1
1
1
1
1
1
1
1
1
1
1
1
1
1
1
1
1
1
1
1
1
1
1
1
1
0.999999
0.999999
0.999999
0.999999
0.999998
0.999997
0.999996
0.999995
0.999994
0.999994
0.999994
0.999994
0.999995
0.999996
0.999998
1
1
1
1.00001
1.00001
1.00001
1.00001
1.00001
1
1
1
1
1
1
1
1
1
1
1
1
1
1
1
1
1
1
1
1
1
1
1
1
1
1
1
1
1
1
1
1
1
1
1
1
1
1
1
1
1
1
1
1
1
1
1
1
1
1
1
1
1
1
1
1
1
1
1
1
1
1
1
1
1
1
1
1
1
1
1
1
1
1
1
1
1
0.999999
0.999999
0.999999
0.999998
0.999996
0.999995
0.999994
0.999992
0.999991
0.99999
0.99999
0.99999
0.999992
0.999994
0.999997
1
1
1.00001
1.00001
1.00001
1.00001
1.00001
1.00001
1.00001
1.00001
1
1
1
1
1
1
1
1
1
1
1
1
1
1
1
1
1
1
1
1
1
1
1
1
1
1
1
1
1
1
1
1
1
1
1
1
1
1
1
1
1
1
1
1
1
1
1
1
1
1
1
1
1
1
1
1
1
1
1
1
1
1
1
1
1
1
1
1
1
1
1
1
1
1
1
0.999999
0.999999
0.999998
0.999996
0.999994
0.999992
0.999989
0.999987
0.999985
0.999983
0.999983
0.999984
0.999986
0.99999
0.999995
1
1.00001
1.00001
1.00001
1.00002
1.00002
1.00002
1.00002
1.00001
1.00001
1.00001
1.00001
1
1
1
1
1
1
1
1
1
1
1
1
1
1
1
1
1
1
1
1
1
1
1
1
1
1
1
1
1
1
1
1
1
1
1
1
1
1
1
1
1
1
1
1
1
1
1
1
1
1
1
1
1
1
1
1
1
1
1
1
1
1
1
1
1
1
1
1
1
1
1
1
1
0.999999
0.999998
0.999996
0.999994
0.999991
0.999988
0.999984
0.99998
0.999977
0.999974
0.999974
0.999975
0.999979
0.999985
0.999992
1
1.00001
1.00002
1.00002
1.00002
1.00003
1.00003
1.00002
1.00002
1.00002
1.00001
1.00001
1.00001
1
1
1
1
1
1
1
1
1
1
1
1
1
1
1
1
1
1
1
1
1
1
1
1
1
1
1
1
1
1
1
1
1
1
1
1
1
1
1
1
1
1
1
1
1
1
1
1
1
1
1
1
1
1
1
1
1
1
1
1
1
1
1
1
1
1
1
1
1
1
1
0.999999
0.999998
0.999997
0.999994
0.999991
0.999986
0.999981
0.999975
0.999969
0.999964
0.999961
0.99996
0.999962
0.999968
0.999977
0.999989
1
1.00001
1.00003
1.00003
1.00004
1.00004
1.00004
1.00004
1.00003
1.00003
1.00002
1.00001
1.00001
1.00001
1
1
1
1
1
1
1
1
1
1
1
1
1
1
1
1
1
1
1
1
1
1
1
1
1
1
1
1
1
1
1
1
1
1
1
1
1
1
1
1
1
1
1
1
1
1
1
1
1
1
1
1
1
1
1
1
1
1
1
1
1
1
1
1
1
1
1
1
1
1
0.999999
0.999997
0.999996
0.999992
0.999986
0.99998
0.999972
0.999962
0.999954
0.999946
0.999941
0.99994
0.999944
0.999953
0.999967
0.999984
1
1.00002
1.00004
1.00005
1.00006
1.00006
1.00006
1.00006
1.00005
1.00004
1.00003
1.00002
1.00002
1.00001
1.00001
1
1
1
1
1
1
1
1
1
1
1
1
1
1
1
1
1
1
1
1
1
1
1
1
1
1
1
1
1
1
1
1
1
1
1
1
1
1
1
1
1
1
1
1
1
1
1
1
1
1
1
1
1
1
1
1
1
1
1
1
1
1
1
1
1
1
1
1
1
0.999999
0.999997
0.999994
0.999988
0.999981
0.999971
0.999959
0.999945
0.999932
0.999921
0.999914
0.999913
0.999919
0.999933
0.999954
0.99998
1.00001
1.00004
1.00006
1.00008
1.00009
1.00009
1.00009
1.00008
1.00007
1.00006
1.00004
1.00003
1.00002
1.00001
1.00001
1.00001
1
1
1
1
1
1
1
1
1
1
1
1
1
1
1
1
1
1
1
1
1
1
1
1
1
1
1
1
1
1
1
1
1
1
1
1
1
1
1
1
1
1
1
1
1
1
1
1
1
1
1
1
1
1
1
1
1
1
1
1
1
1
1
1
1
1
1
1
0.999999
0.999996
0.999992
0.999984
0.999973
0.999958
0.999941
0.999922
0.999904
0.999888
0.999879
0.999878
0.999888
0.99991
0.99994
0.999979
1.00002
1.00006
1.00009
1.00012
1.00014
1.00014
1.00014
1.00012
1.0001
1.00008
1.00006
1.00005
1.00003
1.00002
1.00001
1.00001
1
1
1
1
1
1
1
1
1
1
1
1
1
1
1
1
1
1
1
1
1
1
1
1
1
1
1
1
1
1
1
1
1
1
1
1
1
1
1
1
1
1
1
1
1
1
1
1
1
1
1
1
1
1
1
1
1
1
1
1
1
1
1
1
1
1
1
1
1
0.999996
0.999989
0.999979
0.999963
0.999943
0.999919
0.999892
0.999867
0.999847
0.999836
0.999837
0.999854
0.999886
0.999931
0.999986
1.00004
1.0001
1.00015
1.00018
1.0002
1.00021
1.0002
1.00018
1.00015
1.00012
1.00009
1.00007
1.00004
1.00003
1.00002
1.00001
1
1
1
0.999999
0.999999
0.999999
0.999999
1
1
1
1
1
1
1
1
1
1
1
1
1
1
1
1
1
1
1
1
1
1
1
1
1
1
1
1
1
1
1
1
1
1
1
1
1
1
1
1
1
1
1
1
1
1
1
1
1
1
1
1
1
1
1
1
1
1
1
1
1
1
0.999996
0.999987
0.999973
0.999952
0.999924
0.999892
0.999857
0.999825
0.9998
0.999788
0.999794
0.999822
0.99987
0.999936
1.00001
1.0001
1.00017
1.00024
1.00028
1.0003
1.0003
1.00028
1.00025
1.00021
1.00017
1.00013
1.00009
1.00006
1.00004
1.00002
1.00001
1
1
0.999998
0.999998
0.999998
0.999999
0.999999
0.999999
1
1
1
1
1
1
1
1
1
1
1
1
1
1
1
1
1
1
1
1
1
1
1
1
1
1
1
1
1
1
1
1
1
1
1
1
1
1
1
1
1
1
1
1
1
1
1
1
1
1
1
1
1
1
1
1
1
1.00001
1.00001
1.00001
1
0.999997
0.999986
0.999968
0.99994
0.999903
0.999862
0.999818
0.999779
0.999751
0.999742
0.99976
0.999805
0.99988
0.999975
1.00008
1.00019
1.0003
1.00038
1.00043
1.00045
1.00044
1.00041
1.00036
1.0003
1.00023
1.00017
1.00012
1.00008
1.00005
1.00003
1.00001
1
0.999998
0.999996
0.999996
0.999997
0.999998
0.999998
0.999999
0.999999
1
1
1
1
1
1
1
1
1
1
1
1
1
1
1
1
1
1
1
1
1
1
1
1
1
1
1
1
1
1
1
1
1
1
1
1
1
1
1
1
1
1
1
1
1
1
1
1
1
1
1
1
1
1
1
1.00001
1.00001
1.00001
1.00001
1.00001
1
0.999987
0.999963
0.999929
0.999884
0.999832
0.99978
0.999736
0.999712
0.999715
0.999755
0.999833
0.999945
1.00008
1.00023
1.00038
1.00051
1.00061
1.00066
1.00067
1.00065
1.00059
1.0005
1.00041
1.00032
1.00023
1.00016
1.0001
1.00006
1.00003
1.00001
0.999999
0.999995
0.999993
0.999994
0.999995
0.999996
0.999997
0.999998
0.999999
0.999999
1
1
1
1
1
1
1
1
1
1
1
1
1
1
1
1
1
1
1
1
1
1
1
1
1
1
1
1
1
1
1
1
1
1
1
1
1
1
1
1
1
1
1
1
1
1
1
1
1
1
1
1
1
1.00001
1.00001
1.00001
1.00002
1.00002
1.00002
1.00001
0.999992
0.999964
0.999922
0.999868
0.999809
0.999753
0.999713
0.999703
0.999735
0.999816
0.999947
1.00012
1.00032
1.00053
1.00072
1.00088
1.00099
1.00104
1.00102
1.00095
1.00085
1.00071
1.00057
1.00044
1.00031
1.00021
1.00013
1.00007
1.00003
1.00001
0.999994
0.999989
0.999988
0.999989
0.999991
0.999994
0.999996
0.999997
0.999998
0.999999
0.999999
1
1
1
1
1
1
1
1
1
1
1
1
1
1
1
1
1
1
1
1
1
1
1
1
1
1
1
1
1
1
1
1
1
1
1
1
1
1
1
1
1
1
1
1
1
1
1
1
1
1
1
1.00001
1.00001
1.00001
1.00002
1.00002
1.00003
1.00003
1.00002
1
0.999971
0.999924
0.999865
0.999804
0.999755
0.999735
0.999762
0.99985
1.00001
1.00022
1.00049
1.00078
1.00107
1.00132
1.00151
1.00162
1.00163
1.00156
1.00142
1.00123
1.00102
1.0008
1.0006
1.00042
1.00027
1.00016
1.00008
1.00003
1
0.999985
0.999979
0.99998
0.999983
0.999987
0.99999
0.999993
0.999996
0.999997
0.999998
0.999999
1
1
1
1
1
1
1
1
1
1
1
1
1
1
1
1
1
1
1
1
1
1
1
1
1
1
1
1
1
1
1
1
1
1
1
1
1
1
1
1
1
1
1
1
1
1
1
1
1
1
1
1.00001
1.00001
1.00002
1.00003
1.00004
1.00005
1.00005
1.00004
1.00003
0.999991
0.999942
0.999886
0.999837
0.999814
0.999843
0.999944
1.00013
1.00041
1.00077
1.00117
1.00159
1.00199
1.00231
1.00253
1.00262
1.00257
1.0024
1.00214
1.00181
1.00146
1.00113
1.00082
1.00056
1.00036
1.0002
1.0001
1.00003
0.99999
0.999971
0.999965
0.999968
0.999973
0.99998
0.999985
0.99999
0.999994
0.999996
0.999998
0.999999
0.999999
1
1
1
1
1
1
1
1
1
1
1
1
1
1
1
1
1
1
1
1
1
1
1
1
1
1
1
1
1
1
1
1
1
1
1
1
1
1
1
1
1
1
1
1
1
1
1
1
1
1.00001
1.00001
1.00002
1.00003
1.00004
1.00006
1.00007
1.00008
1.00008
1.00006
1.00003
0.999989
0.999949
0.999934
0.999973
1.0001
1.00033
1.00069
1.00117
1.00174
1.00234
1.00295
1.00348
1.00389
1.00413
1.00417
1.00402
1.00368
1.00322
1.00268
1.00213
1.00161
1.00115
1.00077
1.00048
1.00026
1.00012
1.00002
0.999973
0.999951
0.999946
0.999951
0.99996
0.99997
0.999979
0.999986
0.999991
0.999994
0.999997
0.999998
0.999999
1
1
1
1
1
1
1
1
1
1
1
1
1
1
1
1
1
1
1
1
1
1
1
1
1
1
1
1
1
1
1
1
1
1
1
1
1
1
1
1
1
1
1
1
1
1
1
1
1
1.00001
1.00002
1.00003
1.00004
1.00006
1.00008
1.0001
1.00012
1.00012
1.00012
1.0001
1.00008
1.00008
1.00014
1.00029
1.00059
1.00105
1.00167
1.00245
1.00331
1.00421
1.00505
1.00577
1.00628
1.00654
1.0065
1.00618
1.00559
1.00483
1.00397
1.00311
1.00231
1.00163
1.00107
1.00065
1.00034
1.00014
1.00002
0.999951
0.999924
0.99992
0.999929
0.999943
0.999957
0.99997
0.99998
0.999987
0.999992
0.999995
0.999997
0.999999
0.999999
1
1
1
1
1
1
1
1
1
1
1
1
1
1
1
1
1
1
1
1
1
1
1
1
1
1
1
1
1
1
1
1
1
1
1
1
1
1
1
1
1
1
1
1
1
1
1
1.00001
1.00001
1.00002
1.00004
1.00006
1.00008
1.00011
1.00014
1.00017
1.00019
1.0002
1.00021
1.00024
1.00032
1.00051
1.00086
1.00143
1.00223
1.00325
1.00444
1.00572
1.00698
1.00813
1.00906
1.0097
1.00998
1.00983
1.00928
1.00835
1.00717
1.00586
1.00455
1.00335
1.00232
1.00151
1.0009
1.00047
1.00018
1.00001
0.999924
0.999889
0.999886
0.9999
0.99992
0.999941
0.999958
0.999972
0.999982
0.999989
0.999993
0.999996
0.999998
0.999999
1
1
1
1
1
1
1
1
1
1
1
1
1
1
1
1
1
1
1
1
1
1
1
1
1
1
1
1
1
1
1
1
1
1
1
1
1
1
1
1
1
1
1
1
1
1
1.00001
1.00001
1.00002
1.00003
1.00005
1.00007
1.00011
1.00015
1.0002
1.00024
1.00028
1.00033
1.00038
1.00049
1.00072
1.00112
1.00179
1.00276
1.00406
1.00562
1.00736
1.00914
1.01083
1.01232
1.0135
1.01428
1.01457
1.01432
1.0135
1.01216
1.01043
1.00851
1.00659
1.00483
1.00334
1.00215
1.00127
1.00065
1.00025
1.00002
0.999896
0.999848
0.999845
0.999864
0.999892
0.99992
0.999944
0.999963
0.999976
0.999985
0.999991
0.999995
0.999997
0.999999
0.999999
1
1
1
1
1
1
1
1
1
1
1
1
1
1
1
1
1
1
1
1
1
1
1
1
1
1
1
1
1
1
1
1
1
1
1
1
1
1
1
1
1
1
1
1
1
1.00001
1.00001
1.00002
1.00004
1.00006
1.0001
1.00014
1.0002
1.00026
1.00033
1.00041
1.0005
1.00064
1.00089
1.00133
1.00206
1.00319
1.00475
1.0067
1.00895
1.01132
1.01364
1.01575
1.01755
1.01894
1.01985
1.0202
1.01988
1.01884
1.01708
1.01476
1.01211
1.00941
1.00691
1.00478
1.00308
1.00182
1.00094
1.00038
1.00004
0.999872
0.999804
0.999798
0.999822
0.999858
0.999895
0.999926
0.999951
0.999969
0.999981
0.999989
0.999994
0.999996
0.999998
0.999999
1
1
1
1
1
1
1
1
1
1
1
1
1
1
1
1
1
1
1
1
1
1
1
1
1
1
1
1
1
1
1
1
1
1
1
1
1
1
1
1
1
1
1
1
1
1.00001
1.00002
1.00003
1.00005
1.00008
1.00013
1.00019
1.00026
1.00035
1.00045
1.00057
1.00074
1.001
1.00146
1.00223
1.00344
1.00521
1.00753
1.0103
1.01331
1.0163
1.01904
1.0214
1.0233
1.02476
1.02574
1.0262
1.02599
1.02493
1.02293
1.02009
1.01669
1.0131
1.0097
1.00675
1.00438
1.00261
1.00138
1.00058
1.00011
0.999862
0.999761
0.999746
0.999775
0.999819
0.999866
0.999906
0.999937
0.99996
0.999976
0.999986
0.999992
0.999995
0.999998
0.999999
0.999999
1
1
1
1
1
1
1
1
1
1
1
1
1
1
1
1
1
1
1
1
1
1
1
1
1
1
1
1
1
1
1
1
1
1
1
1
1
1
1
1
1
1
1
1.00001
1.00001
1.00002
1.00004
1.00006
1.0001
1.00016
1.00023
1.00033
1.00044
1.00059
1.00078
1.00105
1.0015
1.00226
1.00349
1.00537
1.00796
1.01121
1.01487
1.01858
1.02194
1.02471
1.02682
1.02837
1.02952
1.03043
1.03109
1.03131
1.03073
1.029
1.02603
1.0221
1.01766
1.01327
1.00935
1.00614
1.00371
1.002
1.00089
1.00023
0.999877
0.999727
0.999695
0.999723
0.999777
0.999833
0.999882
0.999921
0.99995
0.999969
0.999982
0.99999
0.999994
0.999997
0.999998
0.999999
1
1
1
1
1
1
1
1
1
1
1
1
1
1
1
1
1
1
1
1
1
1
1
1
1
1
1
1
1
1
1
1
1
1
1
1
1
1
1
1
1
1
1
1.00001
1.00001
1.00003
1.00004
1.00008
1.00012
1.00019
1.00029
1.00041
1.00056
1.00076
1.00104
1.00146
1.00217
1.00335
1.0052
1.00792
1.01152
1.01579
1.02024
1.02427
1.02737
1.02931
1.03023
1.03053
1.0307
1.03121
1.03221
1.03346
1.03425
1.0338
1.03162
1.02777
1.02283
1.01754
1.01258
1.0084
1.00517
1.00286
1.00135
1.00043
0.999934
0.999711
0.999651
0.999674
0.999732
0.999798
0.999857
0.999904
0.999939
0.999963
0.999978
0.999987
0.999993
0.999996
0.999998
0.999999
1
1
1
1
1
1
1
1
1
1
1
1
1
1
1
1
1
1
1
1
1
1
1
1
1
1
1
1
1
1
1
1
1
1
1
1
1
1
1
1
1
1
1
1.00001
1.00002
1.00003
1.00005
1.00009
1.00015
1.00023
1.00034
1.00049
1.00069
1.00096
1.00135
1.00199
1.00304
1.00476
1.00741
1.01114
1.01586
1.02105
1.02588
1.02943
1.03106
1.0307
1.02884
1.02644
1.02456
1.02415
1.02567
1.02881
1.03241
1.03493
1.03513
1.03264
1.02801
1.02223
1.01636
1.01117
1.00702
1.004
1.00198
1.00074
1.00005
0.999724
0.999618
0.999628
0.999689
0.999763
0.999831
0.999886
0.999927
0.999955
0.999973
0.999985
0.999992
0.999996
0.999998
0.999999
0.999999
1
1
1
1
1
1
1
1
1
1
1
1
1
1
1
1
1
1
1
1
1
1
1
1
1
1
1
1
1
1
1
1
1
1
1
1
1
1
1
1
1
1
1.00001
1.00002
1.00003
1.00006
1.00011
1.00017
1.00027
1.0004
1.00058
1.00083
1.00119
1.00174
1.00264
1.00413
1.00653
1.01013
1.01501
1.0208
1.02656
1.03092
1.03256
1.0308
1.02589
1.019
1.01189
1.00651
1.0045
1.00674
1.0129
1.02125
1.02914
1.03414
1.03507
1.0322
1.02681
1.02044
1.01435
1.00926
1.00543
1.00281
1.00117
1.00024
0.999778
0.999608
0.999593
0.99965
0.99973
0.999806
0.999869
0.999915
0.999948
0.999969
0.999983
0.99999
0.999995
0.999997
0.999999
0.999999
1
1
1
1
1
1
1
1
1
1
1
1
1
1
1
1
1
1
1
1
1
1
1
1
1
1
1
1
1
1
1
1
1
1
0.999999
1
1
1
1
1
1
1.00001
1.00001
1.00002
1.00004
1.00007
1.00012
1.0002
1.00031
1.00046
1.00068
1.00099
1.00145
1.00219
1.00342
1.00545
1.00866
1.01333
1.01938
1.026
1.03157
1.03404
1.03166
1.02385
1.01148
0.99674
0.982587
0.972082
0.967718
0.970895
0.981327
0.996644
1.01284
1.02581
1.03298
1.03405
1.03047
1.02439
1.01774
1.01179
1.00714
1.00385
1.00174
1.00051
0.999884
0.999627
0.999575
0.999621
0.999702
0.999784
0.999853
0.999905
0.999941
0.999965
0.99998
0.999989
0.999994
0.999997
0.999998
0.999999
1
1
1
1
1
1
1
1
1
1
1
1
1
1
1
1
1
1
1
1
1
1
1
1
1
1
1
1
1
1
1
1
1
1
1
1
1
1
1
1
1
1.00001
1.00001
1.00002
1.00004
1.00008
1.00013
1.00022
1.00034
1.00052
1.00077
1.00115
1.00173
1.0027
1.00432
1.00699
1.01112
1.01691
1.02399
1.0309
1.03512
1.03371
1.02458
1.00751
0.984408
0.958921
0.935514
0.918463
0.911099
0.915355
0.931128
0.955525
0.983063
1.0075
1.0243
1.03208
1.03225
1.02764
1.02105
1.01449
1.00906
1.00508
1.00245
1.00088
1.00005
0.999683
0.999579
0.999605
0.999681
0.999765
0.999839
0.999895
0.999935
0.999961
0.999978
0.999988
0.999994
0.999997
0.999998
0.999999
1
1
1
1
1
1
1
1
1
1
1
1
1
1
1
1
1
1
1
1
1
1
1
1
1
1
1
1
1
1
1
1
1
1
1
1
1
1
1
1
1
1.00001
1.00001
1.00003
1.00005
1.00008
1.00014
1.00023
1.00037
1.00057
1.00086
1.00131
1.00204
1.00326
1.00534
1.00871
1.01381
1.02069
1.02848
1.03486
1.03614
1.02844
1.00951
0.979877
0.943044
0.904524
0.87039
0.845962
0.835178
0.840482
0.862157
0.897091
0.938444
0.977592
1.00747
1.02502
1.03126
1.02962
1.02392
1.01716
1.0111
1.00645
1.00329
1.00134
1.00028
0.999781
0.99961
0.999606
0.999671
0.999754
0.99983
0.999889
0.999931
0.999959
0.999976
0.999987
0.999993
0.999997
0.999998
0.999999
1
1
1
1
1
1
1
1
1
1
1
1
1
1
1
1
1
1
1
1
1
1
1
1
1
1
1
1
1
1
1
1
1
1
1
1
1
1
1
1
1
1.00001
1.00001
1.00003
1.00005
1.00009
1.00015
1.00025
1.00039
1.0006
1.00093
1.00146
1.00235
1.00386
1.00643
1.01056
1.01662
1.02442
1.03243
1.03721
1.03375
1.01727
0.985629
0.940721
0.888165
0.835587
0.790454
0.758641
0.744336
0.750415
0.777803
0.82361
0.880055
0.936195
0.982032
1.0122
1.02686
1.02983
1.02604
1.0196
1.01315
1.00792
1.00422
1.00189
1.00057
0.999923
0.999671
0.999627
0.999676
0.999752
0.999826
0.999885
0.999928
0.999957
0.999976
0.999986
0.999993
0.999996
0.999998
0.999999
1
1
1
1
1
1
1
1
1
1
1
1
1
1
1
1
1
1
1
1
1
1
1
1
1
1
1
1
1
1
1
1
1
1
1
1
1
1
1
1
1
1.00001
1.00001
1.00003
1.00005
1.00009
1.00015
1.00025
1.0004
1.00063
1.00099
1.0016
1.00265
1.00447
1.00755
1.01244
1.0194
1.02784
1.03544
1.03749
1.02758
1.00015
0.953649
0.891944
0.82322
0.757145
0.702038
0.663702
0.646158
0.652589
0.684715
0.740374
0.811531
0.885382
0.948891
0.99385
1.01893
1.02806
1.02718
1.02165
1.01509
1.0094
1.00522
1.0025
1.00092
1.00011
0.999763
0.99967
0.999694
0.999759
0.999828
0.999886
0.999928
0.999957
0.999975
0.999986
0.999992
0.999996
0.999998
0.999999
1
1
1
1
1
1
1
1
1
1
1
1
1
1
1
1
1
1
1
1
1
1
1
1
1
1
1
1
1
1
1
1
1
1
1
1
1
1
1
1
1
1.00001
1.00001
1.00003
1.00005
1.00009
1.00015
1.00024
1.00039
1.00063
1.00103
1.00171
1.00293
1.00506
1.00865
1.01426
1.02199
1.03073
1.03727
1.03559
1.01791
0.978158
0.915859
0.837389
0.753688
0.676085
0.613064
0.5698
0.549762
0.556151
0.591455
0.654704
0.738473
0.828918
0.910248
0.971048
1.00791
1.02439
1.02728
1.02319
1.01684
1.01085
1.00624
1.00316
1.00131
1.00033
0.999887
0.999737
0.999729
0.999777
0.999838
0.999891
0.999931
0.999958
0.999976
0.999987
0.999993
0.999996
0.999998
0.999999
1
1
1
1
1
1
1
1
1
1
1
1
1
1
1
1
1
1
1
1
1
1
1
1
1
1
1
1
1
1
1
1
1
1
1
1
1
1
1
1
1
1.00001
1.00001
1.00002
1.00004
1.00008
1.00014
1.00023
1.00038
1.00062
1.00104
1.00179
1.00317
1.0056
1.00966
1.01591
1.02424
1.03294
1.03788
1.0318
1.00574
0.953385
0.875735
0.781998
0.685757
0.599435
0.531105
0.484952
0.463533
0.469639
0.506328
0.574177
0.667215
0.77154
0.869225
0.945619
0.994731
1.01923
1.02647
1.02424
1.01835
1.01219
1.00724
1.00383
1.00174
1.00059
1.00004
0.999825
0.99978
0.999808
0.999856
0.999901
0.999937
0.999961
0.999978
0.999988
0.999993
0.999997
0.999998
0.999999
1
1
1
1
1
1
1
1
1
1
1
1
1
1
1
1
1
1
1
1
1
1
1
1
1
1
1
1
1
1
1
1
1
1
1
1
1
1
1
1
1
1.00001
1.00001
1.00002
1.00004
1.00007
1.00012
1.0002
1.00034
1.00058
1.00102
1.00183
1.00336
1.00605
1.01052
1.01732
1.02607
1.03446
1.03744
1.02678
0.992567
0.928478
0.837191
0.73074
0.624971
0.532867
0.461762
0.41471
0.393063
0.398781
0.43525
0.504758
0.603387
0.718006
0.829336
0.919822
0.980674
1.01322
1.02502
1.02485
1.01959
1.0134
1.00818
1.00449
1.00217
1.00086
1.00021
0.99993
0.999847
0.999849
0.999881
0.999916
0.999946
0.999967
0.999981
0.999989
0.999994
0.999997
0.999998
0.999999
1
1
1
1
1
1
1
1
1
1
1
1
1
1
1
1
1
1
1
1
1
1
1
1
1
1
1
1
1
1
1
1
1
1
1
1
1
1
1
1
1
1
1.00001
1.00002
1.00003
1.00006
1.0001
1.00017
1.0003
1.00052
1.00097
1.00182
1.00346
1.00638
1.01119
1.0184
1.02743
1.03535
1.03633
1.02138
0.980047
0.906115
0.803839
0.687731
0.575386
0.479952
0.407986
0.361444
0.340374
0.345676
0.380842
0.449804
0.550892
0.672245
0.793912
0.896036
0.967194
1.00713
1.02327
1.02516
1.0206
1.01444
1.00903
1.0051
1.00259
1.00114
1.00039
1.00005
0.999924
0.999898
0.999912
0.999935
0.999957
0.999974
0.999985
0.999991
0.999995
0.999998
0.999999
0.999999
1
1
1
1
1
1
1
1
1
1
1
1
1
1
1
1
1
1
1
1
1
1
1
1
1
1
1
1
1
1
1
1
1
1
1
1
1
1
1
1
1
1
1.00001
1.00001
1.00002
1.00004
1.00007
1.00013
1.00024
1.00045
1.00088
1.00176
1.00348
1.00657
1.01163
1.01912
1.02832
1.03578
1.03496
1.01648
0.969665
0.888526
0.778482
0.655855
0.539414
0.442319
0.370512
0.325063
0.30486
0.309772
0.343203
0.410407
0.511811
0.636951
0.765663
0.876447
0.955741
1.00178
1.02162
1.02531
1.02139
1.01531
1.00976
1.00565
1.00298
1.00142
1.00058
1.00018
1.00001
0.999956
0.999949
0.999958
0.999971
0.999982
0.999989
0.999994
0.999997
0.999998
0.999999
1
1
1
1
1
1
1
1
1
1
1
1
1
1
1
1
1
1
1
1
1
1
1
1
1
1
1
1
1
1
1
1
1
1
1
1
1
1
1
1
1
1
1
1
1.00001
1.00001
1.00002
1.00004
1.00008
1.00017
1.00035
1.00077
1.00164
1.0034
1.0066
1.01182
1.01946
1.02875
1.03591
1.03379
1.0128
0.962522
0.877218
0.762882
0.636752
0.518198
0.420382
0.348959
0.30449
0.285058
0.289687
0.321523
0.38664
0.487109
0.613772
0.746523
0.862804
0.947577
0.997898
1.02043
1.02545
1.022
1.01599
1.01035
1.00612
1.00333
1.00167
1.00077
1.00031
1.0001
1.00002
0.999989
0.999984
0.999987
0.999991
0.999994
0.999997
0.999998
0.999999
0.999999
1
1
1
1
1
1
1
1
1
1
1
1
1
1
1
1
1
1
1
1
1
1
1
1
1
1
1
1
1
1
1
1
1
1
1
1
1
1
1
1
1
1
1
1
1
1
1
1.00001
1.00003
1.00009
1.00024
1.00063
1.00148
1.00322
1.00646
1.01176
1.01943
1.02875
1.03585
1.03315
1.01092
0.959272
0.872888
0.757744
0.631006
0.51202
0.414019
0.342765
0.298811
0.279906
0.28449
0.315296
0.378607
0.477464
0.603783
0.737754
0.856314
0.943628
0.996067
1.01996
1.02567
1.02246
1.01647
1.01077
1.00647
1.00361
1.0019
1.00094
1.00044
1.00019
1.00008
1.00003
1.00001
1
1
1
1
1
1
1
1
1
1
1
1
1
1
1
1
1
1
1
1
1
1
1
1
1
1
1
1
1
1
1
1
1
1
1
1
1
1
1
1
1
1
1
1
1
1
1
0.999999
1
0.999998
0.999997
0.999994
0.99999
0.999984
0.999977
0.99998
1.00001
1.00013
1.00047
1.00127
1.00296
1.00615
1.01144
1.01906
1.02834
1.03563
1.0332
1.01115
0.960173
0.875539
0.762833
0.638265
0.520522
0.422856
0.351523
0.307619
0.28905
0.293952
0.324518
0.386632
0.483499
0.607725
0.740074
0.857609
0.944383
0.996586
1.02038
1.02601
1.02275
1.01672
1.01101
1.00669
1.00382
1.00208
1.00109
1.00055
1.00028
1.00014
1.00007
1.00004
1.00002
1.00001
1.00001
1
1
1
1
1
1
1
1
1
1
1
1
1
1
1
1
1
1
1
1
1
1
1
1
1
1
1
1
1
1
1
1
1
1
1
1
1
1
1
1
1
1
0.999999
1
0.999999
0.999998
0.999997
0.999995
0.999988
0.999979
0.999966
0.999946
0.999928
0.999933
1.00001
1.0003
1.00103
1.00262
1.00569
1.01087
1.01838
1.02756
1.03522
1.03389
1.01353
0.96519
0.884729
0.777237
0.657419
0.542738
0.446252
0.374935
0.330896
0.312661
0.31828
0.349344
0.410857
0.505401
0.625789
0.75359
0.866716
0.949834
0.999435
1.02164
1.02645
1.02285
1.01674
1.01105
1.00678
1.00394
1.0022
1.00121
1.00065
1.00036
1.0002
1.00011
1.00006
1.00004
1.00002
1.00001
1.00001
1
1
1
1
1
1
1
1
1
1
1
1
1
1
1
1
1
1
1
1
1
1
1
1
1
1
1
1
1
1
1
1
1
1
1
1
1
1
1
1
1
1
1
0.999999
0.999998
0.999996
0.999991
0.999984
0.99997
0.999949
0.999918
0.999881
0.99986
0.999901
1.00013
1.00077
1.00223
1.00511
1.01006
1.01739
1.02646
1.03455
1.03493
1.01771
0.973959
0.89979
0.79978
0.686967
0.577253
0.483233
0.412621
0.368796
0.351169
0.357854
0.389819
0.450916
0.542547
0.657253
0.777574
0.882969
0.959459
1.00426
1.02354
1.02687
1.0227
1.01648
1.01087
1.00671
1.00396
1.00227
1.00129
1.00073
1.00042
1.00024
1.00014
1.00008
1.00005
1.00003
1.00002
1.00001
1
1
1
1
1
1
1
1
1
1
1
1
1
1
1
1
1
1
1
1
1
1
1
1
1
1
1
1
1
1
1
1
1
1
1
1
1
1
1
1
1
0.999999
1
0.999999
0.999998
0.999994
0.99999
0.99998
0.999961
0.999935
0.999894
0.999842
0.999795
0.999799
0.999964
1.00051
1.0018
1.00443
1.00906
1.01609
1.02504
1.03356
1.03594
1.02297
0.985642
0.919801
0.829241
0.725402
0.622554
0.532658
0.464063
0.421398
0.404915
0.412844
0.445599
0.50579
0.593358
0.700324
0.810327
0.904961
0.972229
1.01041
1.02572
1.0271
1.02224
1.01594
1.01048
1.0065
1.00389
1.00228
1.00134
1.00079
1.00047
1.00028
1.00017
1.0001
1.00006
1.00003
1.00002
1.00001
1.00001
1
1
1
1
1
1
1
1
1
1
1
1
1
1
1
1
1
1
1
1
1
1
1
1
1
1
1
1
1
1
1
1
1
1
1
1
1
1
1
1
1
0.999999
0.999999
0.999998
0.999994
0.999988
0.999976
0.999957
0.999923
0.999876
0.999811
0.999742
0.999712
0.999817
1.00025
1.00136
1.0037
1.00791
1.01452
1.02325
1.03218
1.03658
1.02839
0.998872
0.943271
0.864124
0.771187
0.67716
0.593325
0.528531
0.48834
0.473565
0.482589
0.515426
0.57348
0.655213
0.752144
0.849225
0.930607
0.986697
1.01701
1.02771
1.02694
1.02139
1.0151
1.00988
1.00616
1.00373
1.00223
1.00134
1.00082
1.0005
1.00031
1.00019
1.00012
1.00007
1.00004
1.00002
1.00001
1.00001
1
1
1
1
1
1
1
1
1
1
1
1
1
1
1
1
1
1
1
1
1
1
1
1
1
1
1
1
1
1
1
1
1
1
1
1
1
1
1
1
1
0.999999
0.999998
0.999998
0.999994
0.999987
0.999975
0.999952
0.999917
0.999862
0.999789
0.999705
0.999644
0.999691
1.00002
1.00095
1.00295
1.00668
1.01273
1.02108
1.03031
1.03656
1.03312
1.01202
0.968027
0.902143
0.822154
0.739072
0.663487
0.604515
0.568086
0.555278
0.564792
0.596459
0.65058
0.724298
0.808898
0.89093
0.957366
1.00118
1.0231
1.02907
1.02622
1.02012
1.01397
1.0091
1.00569
1.00349
1.00213
1.00132
1.00082
1.00052
1.00033
1.0002
1.00012
1.00007
1.00004
1.00002
1.00001
1.00001
1
1
1
1
1
1
1
1
1
1
1
1
1
1
1
1
1
1
1
1
1
1
1
1
1
1
1
1
1
1
1
1
1
1
1
1
1
1
1
1
1
1
0.999998
0.999998
0.999993
0.999987
0.999973
0.99995
0.999914
0.999855
0.999777
0.99968
0.999596
0.999595
0.99983
1.00056
1.00223
1.00544
1.0108
1.01858
1.02785
1.03562
1.03648
1.02358
0.991601
0.940157
0.874895
0.804904
0.739851
0.688592
0.65684
0.645874
0.65499
0.683975
0.73216
0.795704
0.866082
0.931744
0.982576
1.01401
1.02778
1.0294
1.02482
1.01843
1.0126
1.00816
1.00513
1.00319
1.00199
1.00125
1.0008
1.00051
1.00033
1.00021
1.00013
1.00008
1.00005
1.00003
1.00001
1.00001
1
1
1
1
1
1
1
1
1
1
1
1
1
1
1
1
1
1
1
1
1
1
1
1
1
1
1
1
1
1
1
1
1
1
1
1
1
1
1
1
1
0.999999
0.999998
0.999997
0.999994
0.999986
0.999973
0.99995
0.999913
0.999855
0.999772
0.999671
0.99957
0.999529
0.999674
1.00023
1.00157
1.00425
1.00885
1.01583
1.02479
1.03357
1.03798
1.03237
1.01176
0.974774
0.925089
0.869726
0.816986
0.774732
0.748116
0.738786
0.746739
0.771696
0.812218
0.863949
0.919053
0.968125
1.00386
1.02383
1.03043
1.0285
1.02275
1.0164
1.01105
1.00713
1.00451
1.00284
1.00181
1.00117
1.00076
1.0005
1.00032
1.00021
1.00013
1.00008
1.00005
1.00003
1.00001
1.00001
1
1
1
1
1
1
1
1
1
1
1
1
1
1
1
1
1
1
1
1
1
1
1
1
1
1
1
1
1
1
1
1
1
1
1
1
1
1
1
1
0.999999
1
0.999998
0.999998
0.999993
0.999987
0.999975
0.999952
0.999917
0.999859
0.999778
0.999675
0.999564
0.999493
0.999565
0.999969
1.00101
1.00316
1.00699
1.01301
1.02125
1.03038
1.03735
1.03767
1.02689
1.00316
0.968545
0.928051
0.888158
0.855301
0.834033
0.826369
0.832763
0.852794
0.884586
0.923815
0.963762
0.997262
1.01954
1.02984
1.0308
1.02638
1.0201
1.01412
1.0094
1.00606
1.00387
1.00248
1.00161
1.00106
1.0007
1.00047
1.00031
1.0002
1.00012
1.00007
1.00004
1.00002
1.00001
1.00001
1
1
1
1
1
1
1
1
1
1
1
1
1
1
1
1
1
1
1
1
1
1
1
1
1
1
1
1
1
1
1
1
1
1
1
1
1
1
1
1
1
0.999999
0.999999
0.999997
0.999994
0.999988
0.999977
0.999956
0.999921
0.999868
0.999789
0.99969
0.999575
0.999486
0.999503
0.999772
1.00055
1.00223
1.00531
1.0103
1.0175
1.02628
1.03463
1.03919
1.03619
1.02358
1.00222
0.975293
0.947405
0.92357
0.907711
0.901872
0.906586
0.921329
0.944197
0.97136
0.997494
1.01758
1.02894
1.03193
1.02903
1.02328
1.01707
1.01175
1.00775
1.00501
1.00323
1.00211
1.0014
1.00094
1.00064
1.00043
1.00028
1.00018
1.00011
1.00007
1.00004
1.00002
1.00001
1.00001
1
1
1
1
1
1
1
1
1
1
1
1
1
1
1
1
1
1
1
1
1
1
1
1
1
1
1
1
1
1
1
1
1
1
1
1
1
1
1
1
0.999999
1
0.999999
0.999998
0.999994
0.99999
0.999978
0.99996
0.999929
0.999879
0.999807
0.999714
0.999602
0.999503
0.99948
0.999647
1.00021
1.00147
1.00387
1.00786
1.01385
1.02169
1.03028
1.03727
1.0397
1.03554
1.02474
1.00898
0.99136
0.975629
0.964885
0.960789
0.963786
0.973425
0.988085
1.00469
1.01938
1.02902
1.03247
1.03065
1.02563
1.01956
1.01392
1.00942
1.00619
1.00402
1.00263
1.00175
1.00119
1.00082
1.00056
1.00038
1.00025
1.00016
1.0001
1.00006
1.00004
1.00002
1.00001
1.00001
1
1
1
1
1
1
1
1
1
1
1
1
1
1
1
1
1
1
1
1
1
1
1
1
1
1
1
1
1
1
1
1
1
1
1
1
1
1
1
1
1
1
0.999999
0.999998
0.999995
0.99999
0.999981
0.999965
0.999937
0.999893
0.999828
0.999744
0.999638
0.999539
0.999492
0.999578
0.999965
1.00089
1.0027
1.00578
1.01055
1.01712
1.02501
1.0328
1.03832
1.03978
1.03651
1.02915
1.01965
1.01059
1.0041
1.00134
1.00272
1.00799
1.01591
1.02422
1.03043
1.03287
1.03138
1.027
1.02131
1.01566
1.01088
1.00728
1.00478
1.00313
1.00209
1.00142
1.00099
1.00069
1.00048
1.00033
1.00022
1.00014
1.00009
1.00006
1.00003
1.00002
1.00001
1.00001
1
1
1
1
1
1
1
1
1
1
1
1
1
1
1
1
1
1
1
1
1
1
1
1
1
1
1
1
1
1
1
1
1
1
1
1
1
1
1
1
1
1
0.999999
0.999998
0.999996
0.999992
0.999984
0.999969
0.999947
0.999907
0.999853
0.999776
0.999682
0.999589
0.999524
0.999562
0.999819
1.00047
1.00179
1.0041
1.00775
1.01297
1.01963
1.02698
1.03362
1.03809
1.03947
1.0378
1.0341
1.02989
1.02645
1.02459
1.02473
1.02674
1.02977
1.03233
1.03305
1.03128
1.02732
1.02212
1.01672
1.01194
1.00815
1.00541
1.00356
1.00237
1.00162
1.00113
1.00081
1.00058
1.00041
1.00028
1.00019
1.00012
1.00008
1.00005
1.00003
1.00002
1.00001
1
1
1
1
1
1
1
1
1
1
1
1
1
1
1
1
1
1
1
1
1
1
1
1
1
1
1
1
1
1
1
1
1
1
1
1
1
1
1
1
1
1
1
0.999999
0.999998
0.999997
0.999993
0.999986
0.999975
0.999954
0.999923
0.999875
0.99981
0.99973
0.999643
0.999578
0.999581
0.999742
1.0002
1.00114
1.00281
1.00552
1.00947
1.01474
1.02096
1.02733
1.0328
1.03647
1.03804
1.03788
1.03672
1.03524
1.034
1.03338
1.03332
1.03328
1.03244
1.03022
1.02655
1.0219
1.01697
1.01242
1.00866
1.00584
1.00386
1.00256
1.00174
1.00122
1.00088
1.00064
1.00047
1.00033
1.00023
1.00016
1.0001
1.00007
1.00004
1.00002
1.00001
1.00001
1
1
1
1
1
1
1
1
1
1
1
1
1
1
1
1
1
1
1
1
1
1
1
1
1
1
1
1
1
1
1
1
1
1
1
1
1
1
1
1
1
1
1
0.999999
0.999999
0.999997
0.999994
0.999989
0.999979
0.999964
0.999936
0.999898
0.999845
0.999774
0.999702
0.999641
0.999625
0.999724
1.00003
1.00069
1.00188
1.00382
1.00671
1.01066
1.01554
1.02091
1.02608
1.03034
1.03327
1.03484
1.03528
1.03493
1.03415
1.03319
1.03204
1.03043
1.02802
1.0247
1.02066
1.01635
1.01225
1.00873
1.00597
1.00398
1.00264
1.00177
1.00124
1.00089
1.00066
1.0005
1.00037
1.00027
1.00019
1.00013
1.00008
1.00005
1.00003
1.00002
1.00001
1.00001
1
1
1
1
1
1
1
1
1
1
1
1
1
1
1
1
1
1
1
1
1
1
1
1
1
1
1
1
1
1
1
1
1
1
1
1
1
1
1
1
1
1
1
0.999999
0.999999
0.999998
0.999995
0.999991
0.999983
0.99997
0.99995
0.999918
0.999875
0.99982
0.999757