/*--------------------------------*- C++ -*----------------------------------*\
  =========                 |
  \\      /  F ield         | OpenFOAM: The Open Source CFD Toolbox
   \\    /   O peration     | Website:  https://openfoam.org
    \\  /    A nd           | Version:  6
     \\/     M anipulation  |
\*---------------------------------------------------------------------------*/
FoamFile
{
    version     2.0;
    format      ascii;
    class       volVectorField;
    location    "160";
    object      D;
}
// * * * * * * * * * * * * * * * * * * * * * * * * * * * * * * * * * * * * * //

dimensions      [0 1 0 0 0 0 0];

internalField   nonuniform List<vector> 
1000
(
(9.5293e-08 -4.6482e-09 0)
(8.74136e-08 -1.055e-09 0)
(8.1763e-08 1.19006e-09 0)
(7.77333e-08 2.58279e-09 0)
(7.49381e-08 3.3986e-09 0)
(7.3111e-08 3.80254e-09 0)
(7.20616e-08 3.89769e-09 0)
(7.1651e-08 3.75004e-09 0)
(7.17782e-08 3.40145e-09 0)
(7.23882e-08 2.87869e-09 0)
(8.80299e-08 -5.52391e-09 0)
(7.96563e-08 -2.41948e-09 0)
(7.37555e-08 -4.73789e-10 0)
(6.96276e-08 7.53416e-10 0)
(6.68289e-08 1.5013e-09 0)
(6.50565e-08 1.90934e-09 0)
(6.40974e-08 2.06187e-09 0)
(6.38008e-08 2.01054e-09 0)
(6.40619e-08 1.78597e-09 0)
(6.48195e-08 1.40943e-09 0)
(8.02102e-08 -6.51356e-09 0)
(7.14755e-08 -4.01745e-09 0)
(6.54309e-08 -2.44399e-09 0)
(6.12885e-08 -1.42086e-09 0)
(5.85478e-08 -7.55039e-10 0)
(5.68707e-08 -3.40557e-10 0)
(5.60229e-08 -1.17928e-10 0)
(5.58421e-08 -5.38457e-11 0)
(5.62165e-08 -1.30847e-10 0)
(5.70764e-08 -3.36442e-10 0)
(7.1837e-08 -7.62702e-09 0)
(6.29019e-08 -5.83554e-09 0)
(5.68472e-08 -4.68798e-09 0)
(5.27955e-08 -3.89044e-09 0)
(5.01883e-08 -3.30671e-09 0)
(4.86521e-08 -2.8732e-09 0)
(4.79343e-08 -2.56134e-09 0)
(4.78635e-08 -2.35974e-09 0)
(4.83241e-08 -2.26591e-09 0)
(4.92436e-08 -2.2774e-09 0)
(6.29029e-08 -8.87644e-09 0)
(5.39577e-08 -7.8584e-09 0)
(4.80594e-08 -7.16353e-09 0)
(4.42292e-08 -6.58783e-09 0)
(4.18448e-08 -6.06595e-09 0)
(4.04994e-08 -5.58706e-09 0)
(3.99274e-08 -5.15931e-09 0)
(3.99551e-08 -4.79567e-09 0)
(4.0469e-08 -4.50916e-09 0)
(4.13985e-08 -4.30765e-09 0)
(5.33837e-08 -1.02796e-08 0)
(4.46578e-08 -1.00695e-08 0)
(3.91266e-08 -9.81362e-09 0)
(3.56774e-08 -9.41897e-09 0)
(3.36159e-08 -8.91229e-09 0)
(3.251e-08 -8.34699e-09 0)
(3.20931e-08 -7.77153e-09 0)
(3.21997e-08 -7.22282e-09 0)
(3.27262e-08 -6.72766e-09 0)
(3.36091e-08 -6.30266e-09 0)
(4.32283e-08 -1.18633e-08 0)
(3.50183e-08 -1.2445e-08 0)
(3.01256e-08 -1.25492e-08 0)
(2.72423e-08 -1.22444e-08 0)
(2.56026e-08 -1.16789e-08 0)
(2.47723e-08 -1.09775e-08 0)
(2.45058e-08 -1.02255e-08 0)
(2.46608e-08 -9.4781e-09 0)
(2.51519e-08 -8.77113e-09 0)
(2.59273e-08 -8.12639e-09 0)
(3.23434e-08 -1.36538e-08 0)
(2.50814e-08 -1.49206e-08 0)
(2.11709e-08 -1.5206e-08 0)
(1.90402e-08 -1.48478e-08 0)
(1.78943e-08 -1.41383e-08 0)
(1.73476e-08 -1.32607e-08 0)
(1.72073e-08 -1.23214e-08 0)
(1.73693e-08 -1.13825e-08 0)
(1.77728e-08 -1.04815e-08 0)
(1.83811e-08 -9.64123e-09 0)
(2.05739e-08 -1.56014e-08 0)
(1.49622e-08 -1.72826e-08 0)
(1.24226e-08 -1.74635e-08 0)
(1.11741e-08 -1.69038e-08 0)
(1.05334e-08 -1.60004e-08 0)
(1.02416e-08 -1.49479e-08 0)
(1.01862e-08 -1.38471e-08 0)
(1.03091e-08 -1.27548e-08 0)
(1.05761e-08 -1.17048e-08 0)
(1.0966e-08 -1.07177e-08 0)
(7.65202e-09 -1.72674e-08 0)
(4.8837e-09 -1.8909e-08 0)
(4.02341e-09 -1.87579e-08 0)
(3.65236e-09 -1.79816e-08 0)
(3.46191e-09 -1.69384e-08 0)
(3.3758e-09 -1.57811e-08 0)
(3.36449e-09 -1.45918e-08 0)
(3.41143e-09 -1.3419e-08 0)
(3.50623e-09 -1.2293e-08 0)
(3.64225e-09 -1.12327e-08 0)
(1.33511e-07 -7.83437e-11 0)
(1.3115e-07 3.02461e-10 0)
(1.28803e-07 5.62208e-10 0)
(1.26671e-07 7.18587e-10 0)
(1.24843e-07 8.00707e-10 0)
(1.23355e-07 8.29359e-10 0)
(1.22209e-07 8.17956e-10 0)
(1.21396e-07 7.75247e-10 0)
(1.20899e-07 7.07163e-10 0)
(1.20699e-07 6.18273e-10 0)
(1.3288e-07 -3.23046e-10 0)
(1.30356e-07 8.92885e-10 0)
(1.27908e-07 1.65223e-09 0)
(1.25716e-07 2.10702e-09 0)
(1.23854e-07 2.34782e-09 0)
(1.22347e-07 2.43297e-09 0)
(1.21193e-07 2.40069e-09 0)
(1.20379e-07 2.27654e-09 0)
(1.19884e-07 2.07838e-09 0)
(1.19688e-07 1.8208e-09 0)
(1.31446e-07 -6.01855e-10 0)
(1.28613e-07 1.40845e-09 0)
(1.25972e-07 2.64288e-09 0)
(1.23661e-07 3.3785e-09 0)
(1.21731e-07 3.76909e-09 0)
(1.20188e-07 3.9091e-09 0)
(1.19022e-07 3.85981e-09 0)
(1.1821e-07 3.66235e-09 0)
(1.17727e-07 3.34573e-09 0)
(1.17548e-07 2.93361e-09 0)
(1.29262e-07 -9.11066e-10 0)
(1.25988e-07 1.80491e-09 0)
(1.23075e-07 3.46886e-09 0)
(1.20599e-07 4.45928e-09 0)
(1.18573e-07 4.98668e-09 0)
(1.16983e-07 5.17886e-09 0)
(1.15801e-07 5.11801e-09 0)
(1.14996e-07 4.85917e-09 0)
(1.14536e-07 4.44114e-09 0)
(1.14388e-07 3.89536e-09 0)
(1.26362e-07 -1.2571e-09 0)
(1.22533e-07 2.04618e-09 0)
(1.19282e-07 4.07393e-09 0)
(1.16601e-07 5.2832e-09 0)
(1.14459e-07 5.93042e-09 0)
(1.12812e-07 6.17141e-09 0)
(1.11615e-07 6.10609e-09 0)
(1.10825e-07 5.80123e-09 0)
(1.10401e-07 5.30386e-09 0)
(1.103e-07 4.65171e-09 0)
(1.22773e-07 -1.64919e-09 0)
(1.18302e-07 2.10197e-09 0)
(1.14659e-07 4.41181e-09 0)
(1.11745e-07 5.7945e-09 0)
(1.09472e-07 6.54012e-09 0)
(1.07766e-07 6.8255e-09 0)
(1.0656e-07 6.76405e-09 0)
(1.05796e-07 6.43138e-09 0)
(1.05422e-07 5.88078e-09 0)
(1.05387e-07 5.15469e-09 0)
(1.18518e-07 -2.09729e-09 0)
(1.13348e-07 1.94754e-09 0)
(1.09281e-07 4.4464e-09 0)
(1.06116e-07 5.9495e-09 0)
(1.03708e-07 6.76805e-09 0)
(1.01946e-07 7.09217e-09 0)
(1.0074e-07 7.04368e-09 0)
(1.00014e-07 6.7036e-09 0)
(9.9707e-08 6.1289e-09 0)
(9.97588e-08 5.36476e-09 0)
(1.13622e-07 -2.6114e-09 0)
(1.07728e-07 1.56409e-09 0)
(1.03225e-07 4.15185e-09 0)
(9.98067e-08 5.71725e-09 0)
(9.72686e-08 6.5802e-09 0)
(9.54601e-08 6.9362e-09 0)
(9.42656e-08 6.91028e-09 0)
(9.35942e-08 6.585e-09 0)
(9.33724e-08 6.01787e-09 0)
(9.35301e-08 5.25391e-09 0)
(1.08105e-07 -3.20143e-09 0)
(1.01497e-07 9.39095e-10 0)
(9.65688e-08 3.51268e-09 0)
(9.29114e-08 5.07975e-09 0)
(9.02579e-08 5.95677e-09 0)
(8.84188e-08 6.33684e-09 0)
(8.72532e-08 6.34304e-09 0)
(8.66535e-08 6.05598e-09 0)
(8.65351e-08 5.53079e-09 0)
(8.68198e-08 4.80839e-09 0)
(1.0199e-07 -3.87717e-09 0)
(9.47088e-08 6.62012e-11 0)
(8.93903e-08 2.52376e-09 0)
(8.55234e-08 4.03213e-09 0)
(8.27805e-08 4.89274e-09 0)
(8.09333e-08 5.28852e-09 0)
(7.98158e-08 5.33537e-09 0)
(7.93045e-08 5.10871e-09 0)
(7.93061e-08 4.65973e-09 0)
(7.97418e-08 4.02467e-09 0)
(1.20777e-07 4.96454e-10 0)
(1.21114e-07 3.57245e-10 0)
(1.21688e-07 2.17462e-10 0)
(1.22485e-07 7.88481e-11 0)
(1.23492e-07 -5.75542e-11 0)
(1.24695e-07 -1.90966e-10 0)
(1.26083e-07 -3.20719e-10 0)
(1.27645e-07 -4.46169e-10 0)
(1.29372e-07 -5.66642e-10 0)
(1.31254e-07 -6.81391e-10 0)
(1.33281e-07 -7.89564e-10 0)
(1.35444e-07 -8.90177e-10 0)
(1.37733e-07 -9.82092e-10 0)
(1.40137e-07 -1.06399e-09 0)
(1.42646e-07 -1.13434e-09 0)
(1.45247e-07 -1.19139e-09 0)
(1.47925e-07 -1.23313e-09 0)
(1.50665e-07 -1.25736e-09 0)
(1.53448e-07 -1.26208e-09 0)
(1.56252e-07 -1.24665e-09 0)
(1.19828e-07 1.46909e-09 0)
(1.20269e-07 1.06344e-09 0)
(1.20932e-07 6.51917e-10 0)
(1.21805e-07 2.41405e-10 0)
(1.22877e-07 -1.64215e-10 0)
(1.24137e-07 -5.6225e-10 0)
(1.25576e-07 -9.50485e-10 0)
(1.27183e-07 -1.32684e-09 0)
(1.28949e-07 -1.68918e-09 0)
(1.30867e-07 -2.03515e-09 0)
(1.32926e-07 -2.36212e-09 0)
(1.3512e-07 -2.66705e-09 0)
(1.37437e-07 -2.94646e-09 0)
(1.39869e-07 -3.1963e-09 0)
(1.42405e-07 -3.41195e-09 0)
(1.45031e-07 -3.58807e-09 0)
(1.47736e-07 -3.7186e-09 0)
(1.50503e-07 -3.7966e-09 0)
(1.53314e-07 -3.81387e-09 0)
(1.56147e-07 -3.75869e-09 0)
(1.17823e-07 2.37493e-09 0)
(1.18485e-07 1.72766e-09 0)
(1.19339e-07 1.06454e-09 0)
(1.20376e-07 3.97649e-10 0)
(1.21591e-07 -2.65733e-10 0)
(1.22975e-07 -9.20432e-10 0)
(1.24522e-07 -1.56221e-09 0)
(1.26224e-07 -2.18718e-09 0)
(1.28076e-07 -2.79142e-09 0)
(1.3007e-07 -3.37075e-09 0)
(1.32199e-07 -3.92049e-09 0)
(1.34457e-07 -4.43537e-09 0)
(1.36834e-07 -4.90935e-09 0)
(1.39322e-07 -5.33548e-09 0)
(1.41912e-07 -5.70583e-09 0)
(1.44593e-07 -6.01127e-09 0)
(1.47351e-07 -6.24133e-09 0)
(1.50171e-07 -6.3838e-09 0)
(1.53036e-07 -6.42357e-09 0)
(1.55925e-07 -6.33866e-09 0)
(1.14864e-07 3.16489e-09 0)
(1.15851e-07 2.31569e-09 0)
(1.16987e-07 1.43393e-09 0)
(1.18269e-07 5.36856e-10 0)
(1.19696e-07 -3.64361e-10 0)
(1.21266e-07 -1.2614e-09 0)
(1.22975e-07 -2.14738e-09 0)
(1.24821e-07 -3.01604e-09 0)
(1.26801e-07 -3.86121e-09 0)
(1.28909e-07 -4.67644e-09 0)
(1.31143e-07 -5.45469e-09 0)
(1.33495e-07 -6.18811e-09 0)
(1.35961e-07 -6.86776e-09 0)
(1.38534e-07 -7.48351e-09 0)
(1.41205e-07 -8.02372e-09 0)
(1.43964e-07 -8.47508e-09 0)
(1.46799e-07 -8.82228e-09 0)
(1.49698e-07 -9.04733e-09 0)
(1.52643e-07 -9.12798e-09 0)
(1.55613e-07 -9.03246e-09 0)
(1.11039e-07 3.79615e-09 0)
(1.12446e-07 2.79824e-09 0)
(1.13947e-07 1.74246e-09 0)
(1.15548e-07 6.51162e-10 0)
(1.17254e-07 -4.59998e-10 0)
(1.19067e-07 -1.57884e-09 0)
(1.20991e-07 -2.69511e-09 0)
(1.23026e-07 -3.79955e-09 0)
(1.25174e-07 -4.88317e-09 0)
(1.27433e-07 -5.93678e-09 0)
(1.29803e-07 -6.95049e-09 0)
(1.32281e-07 -7.91346e-09 0)
(1.34864e-07 -8.81348e-09 0)
(1.37546e-07 -9.63674e-09 0)
(1.40322e-07 -1.03675e-08 0)
(1.43184e-07 -1.09878e-08 0)
(1.46121e-07 -1.14769e-08 0)
(1.49121e-07 -1.18105e-08 0)
(1.52169e-07 -1.19589e-08 0)
(1.55247e-07 -1.18802e-08 0)
(1.06444e-07 4.22999e-09 0)
(1.08353e-07 3.14808e-09 0)
(1.10296e-07 1.97333e-09 0)
(1.12284e-07 7.32857e-10 0)
(1.1433e-07 -5.52608e-10 0)
(1.16442e-07 -1.86631e-09 0)
(1.18629e-07 -3.19395e-09 0)
(1.20897e-07 -4.52259e-09 0)
(1.23253e-07 -5.83986e-09 0)
(1.25699e-07 -7.13329e-09 0)
(1.28237e-07 -8.38971e-09 0)
(1.30869e-07 -9.59482e-09 0)
(1.33594e-07 -1.07327e-08 0)
(1.36411e-07 -1.17853e-08 0)
(1.39315e-07 -1.27325e-08 0)
(1.423e-07 -1.35509e-08 0)
(1.4536e-07 -1.42138e-08 0)
(1.48484e-07 -1.46901e-08 0)
(1.5166e-07 -1.49417e-08 0)
(1.54868e-07 -1.4916e-08 0)
(1.01182e-07 4.43296e-09 0)
(1.03662e-07 3.34008e-09 0)
(1.06113e-07 2.10973e-09 0)
(1.0855e-07 7.73065e-10 0)
(1.10993e-07 -6.43759e-10 0)
(1.13456e-07 -2.1189e-09 0)
(1.15954e-07 -3.63342e-09 0)
(1.18498e-07 -5.1702e-09 0)
(1.211e-07 -6.71296e-09 0)
(1.23766e-07 -8.24552e-09 0)
(1.26504e-07 -9.75099e-09 0)
(1.29317e-07 -1.12112e-08 0)
(1.3221e-07 -1.26061e-08 0)
(1.35184e-07 -1.39131e-08 0)
(1.38238e-07 -1.51068e-08 0)
(1.41369e-07 -1.61581e-08 0)
(1.44572e-07 -1.70337e-08 0)
(1.47841e-07 -1.76948e-08 0)
(1.51164e-07 -1.80943e-08 0)
(1.54527e-07 -1.81678e-08 0)
(9.53569e-08 4.37933e-09 0)
(9.84633e-08 3.35243e-09 0)
(1.01478e-07 2.13504e-09 0)
(1.0442e-07 7.61183e-10 0)
(1.07312e-07 -7.37705e-10 0)
(1.10175e-07 -2.3346e-09 0)
(1.13029e-07 -4.00569e-09 0)
(1.15892e-07 -5.72931e-09 0)
(1.18777e-07 -7.48502e-09 0)
(1.21698e-07 -9.2526e-09 0)
(1.24666e-07 -1.10112e-08 0)
(1.27689e-07 -1.27385e-08 0)
(1.30775e-07 -1.44099e-08 0)
(1.33928e-07 -1.59981e-08 0)
(1.37152e-07 -1.74719e-08 0)
(1.40448e-07 -1.87959e-08 0)
(1.43815e-07 -1.99295e-08 0)
(1.47247e-07 -2.08254e-08 0)
(1.50739e-07 -2.14267e-08 0)
(1.54279e-07 -2.16563e-08 0)
(8.9081e-08 4.05373e-09 0)
(9.2853e-08 3.16843e-09 0)
(9.64765e-08 2.03381e-09 0)
(9.99685e-08 6.8528e-10 0)
(1.03356e-07 -8.41537e-10 0)
(1.06665e-07 -2.51499e-09 0)
(1.0992e-07 -4.30659e-09 0)
(1.1314e-07 -6.19017e-09 0)
(1.16347e-07 -8.14105e-09 0)
(1.19557e-07 -1.0135e-08 0)
(1.22786e-07 -1.2147e-08 0)
(1.26046e-07 -1.41508e-08 0)
(1.29349e-07 -1.61171e-08 0)
(1.32705e-07 -1.80135e-08 0)
(1.3612e-07 -1.9803e-08 0)
(1.39601e-07 -2.14433e-08 0)
(1.43148e-07 -2.28859e-08 0)
(1.46764e-07 -2.40744e-08 0)
(1.50445e-07 -2.49409e-08 0)
(1.54184e-07 -2.53948e-08 0)
(8.24932e-08 3.45721e-09 0)
(8.69589e-08 2.78461e-09 0)
(9.12213e-08 1.79965e-09 0)
(9.52973e-08 5.3869e-10 0)
(9.92168e-08 -9.60408e-10 0)
(1.03009e-07 -2.66237e-09 0)
(1.067e-07 -4.53453e-09 0)
(1.10315e-07 -6.54661e-09 0)
(1.13878e-07 -8.66996e-09 0)
(1.17409e-07 -1.08766e-08 0)
(1.20927e-07 -1.31379e-08 0)
(1.24451e-07 -1.54236e-08 0)
(1.27996e-07 -1.77003e-08 0)
(1.31577e-07 -1.99306e-08 0)
(1.35204e-07 -2.20717e-08 0)
(1.38888e-07 -2.40743e-08 0)
(1.42636e-07 -2.58815e-08 0)
(1.46454e-07 -2.74272e-08 0)
(1.50344e-07 -2.86315e-08 0)
(1.54305e-07 -2.93894e-08 0)
(7.76087e-08 2.34012e-09 0)
(8.26551e-08 1.83934e-09 0)
(8.74269e-08 9.70988e-10 0)
(9.19727e-08 -2.18772e-10 0)
(9.6326e-08 -1.68892e-09 0)
(1.00517e-07 -3.40233e-09 0)
(1.04571e-07 -5.32499e-09 0)
(1.08516e-07 -7.42534e-09 0)
(1.12375e-07 -9.67341e-09 0)
(1.16171e-07 -1.20397e-08 0)
(1.19926e-07 -1.44942e-08 0)
(1.23659e-07 -1.70044e-08 0)
(1.27391e-07 -1.95348e-08 0)
(1.31139e-07 -2.20449e-08 0)
(1.34918e-07 -2.44882e-08 0)
(1.38744e-07 -2.6811e-08 0)
(1.42628e-07 -2.89508e-08 0)
(1.46581e-07 -3.08351e-08 0)
(1.5061e-07 -3.23761e-08 0)
(1.54722e-07 -3.34585e-08 0)
(7.52248e-08 9.19994e-10 0)
(8.05551e-08 4.32085e-10 0)
(8.56267e-08 -4.18946e-10 0)
(9.04684e-08 -1.60459e-09 0)
(9.51057e-08 -3.08684e-09 0)
(9.95635e-08 -4.83038e-09 0)
(1.03865e-07 -6.80311e-09 0)
(1.08035e-07 -8.97524e-09 0)
(1.12094e-07 -1.13182e-08 0)
(1.16066e-07 -1.38033e-08 0)
(1.19972e-07 -1.64011e-08 0)
(1.23835e-07 -1.90791e-08 0)
(1.27675e-07 -2.18013e-08 0)
(1.31513e-07 -2.45262e-08 0)
(1.35368e-07 -2.72061e-08 0)
(1.39257e-07 -2.97852e-08 0)
(1.43198e-07 -3.2199e-08 0)
(1.47204e-07 -3.4372e-08 0)
(1.51288e-07 -3.62141e-08 0)
(1.55461e-07 -3.76076e-08 0)
(7.35573e-08 -4.81124e-10 0)
(7.91015e-08 -9.98853e-10 0)
(8.44149e-08 -1.86161e-09 0)
(8.95078e-08 -3.0577e-09 0)
(9.43941e-08 -4.55841e-09 0)
(9.90908e-08 -6.33352e-09 0)
(1.03617e-07 -8.35457e-09 0)
(1.07991e-07 -1.05947e-08 0)
(1.12236e-07 -1.30278e-08 0)
(1.16371e-07 -1.56273e-08 0)
(1.20418e-07 -1.8365e-08 0)
(1.24401e-07 -2.12098e-08 0)
(1.28341e-07 -2.41259e-08 0)
(1.32262e-07 -2.7072e-08 0)
(1.36185e-07 -2.99996e-08 0)
(1.40132e-07 -3.28518e-08 0)
(1.44124e-07 -3.55623e-08 0)
(1.48179e-07 -3.80537e-08 0)
(1.52316e-07 -4.02342e-08 0)
(1.5655e-07 -4.19858e-08 0)
(7.26129e-08 -1.86051e-09 0)
(7.83359e-08 -2.43388e-09 0)
(8.38506e-08 -3.33244e-09 0)
(8.91574e-08 -4.55516e-09 0)
(9.42603e-08 -6.08309e-09 0)
(9.91687e-08 -7.89314e-09 0)
(1.03895e-07 -9.96214e-09 0)
(1.08456e-07 -1.22676e-08 0)
(1.12869e-07 -1.47869e-08 0)
(1.17152e-07 -1.74968e-08 0)
(1.21328e-07 -2.03717e-08 0)
(1.2542e-07 -2.33826e-08 0)
(1.2945e-07 -2.64953e-08 0)
(1.33445e-07 -2.96695e-08 0)
(1.37429e-07 -3.28567e-08 0)
(1.41427e-07 -3.59997e-08 0)
(1.45465e-07 -3.9031e-08 0)
(1.49565e-07 -4.18718e-08 0)
(1.5375e-07 -4.4429e-08 0)
(1.58042e-07 -4.65853e-08 0)
(7.23685e-08 -3.21495e-09 0)
(7.82531e-08 -3.86216e-09 0)
(8.39465e-08 -4.8142e-09 0)
(8.94428e-08 -6.07732e-09 0)
(9.47392e-08 -7.64107e-09 0)
(9.98384e-08 -9.48994e-09 0)
(1.04748e-07 -1.16072e-08 0)
(1.09479e-07 -1.39757e-08 0)
(1.14045e-07 -1.65777e-08 0)
(1.18465e-07 -1.93943e-08 0)
(1.22759e-07 -2.24037e-08 0)
(1.26949e-07 -2.55802e-08 0)
(1.3106e-07 -2.88924e-08 0)
(1.3512e-07 -3.23018e-08 0)
(1.39156e-07 -3.57614e-08 0)
(1.43198e-07 -3.9214e-08 0)
(1.47275e-07 -4.25915e-08 0)
(1.51415e-07 -4.5814e-08 0)
(1.55644e-07 -4.87873e-08 0)
(1.59991e-07 -5.13946e-08 0)
(7.27964e-08 -4.54937e-09 0)
(7.88379e-08 -5.28307e-09 0)
(8.47009e-08 -6.30062e-09 0)
(9.03749e-08 -7.61389e-09 0)
(9.58517e-08 -9.21976e-09 0)
(1.01129e-07 -1.11101e-08 0)
(1.06209e-07 -1.32751e-08 0)
(1.11099e-07 -1.57039e-08 0)
(1.15811e-07 -1.83845e-08 0)
(1.20358e-07 -2.13034e-08 0)
(1.24761e-07 -2.44438e-08 0)
(1.29041e-07 -2.77847e-08 0)
(1.33225e-07 -3.12987e-08 0)
(1.37342e-07 -3.49506e-08 0)
(1.41422e-07 -3.86954e-08 0)
(1.455e-07 -4.24771e-08 0)
(1.49609e-07 -4.62274e-08 0)
(1.53782e-07 -4.98652e-08 0)
(1.58051e-07 -5.32949e-08 0)
(1.62447e-07 -5.63999e-08 0)
(7.38703e-08 -5.8762e-09 0)
(8.00745e-08 -6.7039e-09 0)
(8.61087e-08 -7.79391e-09 0)
(9.19585e-08 -9.16271e-09 0)
(9.7612e-08 -1.08137e-08 0)
(1.03062e-07 -1.27458e-08 0)
(1.08308e-07 -1.49562e-08 0)
(1.13353e-07 -1.74408e-08 0)
(1.18204e-07 -2.01944e-08 0)
(1.22875e-07 -2.32096e-08 0)
(1.27382e-07 -2.6476e-08 0)
(1.31747e-07 -2.99785e-08 0)
(1.35998e-07 -3.36953e-08 0)
(1.40164e-07 -3.75957e-08 0)
(1.44282e-07 -4.16382e-08 0)
(1.48388e-07 -4.57687e-08 0)
(1.52521e-07 -4.99191e-08 0)
(1.5672e-07 -5.40071e-08 0)
(1.61022e-07 -5.7935e-08 0)
(1.65463e-07 -6.15852e-08 0)
(7.55681e-08 -7.21408e-09 0)
(8.19489e-08 -8.13827e-09 0)
(8.8164e-08 -9.30291e-09 0)
(9.4196e-08 -1.07283e-08 0)
(1.0003e-07 -1.24237e-08 0)
(1.05656e-07 -1.43948e-08 0)
(1.1107e-07 -1.66457e-08 0)
(1.1627e-07 -1.91794e-08 0)
(1.21262e-07 -2.19978e-08 0)
(1.26056e-07 -2.51009e-08 0)
(1.30667e-07 -2.84857e-08 0)
(1.35116e-07 -3.21445e-08 0)
(1.3943e-07 -3.60625e-08 0)
(1.43642e-07 -4.02154e-08 0)
(1.4779e-07 -4.45667e-08 0)
(1.51916e-07 -4.90653e-08 0)
(1.56066e-07 -5.3644e-08 0)
(1.60283e-07 -5.82187e-08 0)
(1.64611e-07 -6.26883e-08 0)
(1.69089e-07 -6.6933e-08 0)
(7.7873e-08 -8.58618e-09 0)
(8.44507e-08 -9.6046e-09 0)
(9.08624e-08 -1.08415e-08 0)
(9.7089e-08 -1.23202e-08 0)
(1.03114e-07 -1.40557e-08 0)
(1.08924e-07 -1.60599e-08 0)
(1.14513e-07 -1.83435e-08 0)
(1.19876e-07 -2.09167e-08 0)
(1.25016e-07 -2.3789e-08 0)
(1.29939e-07 -2.69685e-08 0)
(1.34659e-07 -3.04607e-08 0)
(1.39195e-07 -3.42667e-08 0)
(1.43573e-07 -3.83806e-08 0)
(1.47828e-07 -4.27868e-08 0)
(1.52002e-07 -4.74555e-08 0)
(1.56141e-07 -5.23405e-08 0)
(1.60298e-07 -5.73759e-08 0)
(1.64524e-07 -6.24754e-08 0)
(1.6887e-07 -6.75332e-08 0)
(1.73381e-07 -7.24242e-08 0)
(8.07745e-08 -1.00185e-08 0)
(8.75725e-08 -1.11245e-08 0)
(9.42004e-08 -1.2427e-08 0)
(1.00638e-07 -1.39522e-08 0)
(1.06868e-07 -1.572e-08 0)
(1.12877e-07 -1.77481e-08 0)
(1.18653e-07 -2.00538e-08 0)
(1.24192e-07 -2.26542e-08 0)
(1.29493e-07 -2.55666e-08 0)
(1.34558e-07 -2.88074e-08 0)
(1.39398e-07 -3.23917e-08 0)
(1.4403e-07 -3.6331e-08 0)
(1.48479e-07 -4.06306e-08 0)
(1.52779e-07 -4.52856e-08 0)
(1.56976e-07 -5.02765e-08 0)
(1.61122e-07 -5.55638e-08 0)
(1.65277e-07 -6.10845e-08 0)
(1.69503e-07 -6.67495e-08 0)
(1.73858e-07 -7.24457e-08 0)
(1.78393e-07 -7.80392e-08 0)
(8.42678e-08 -1.15382e-08 0)
(9.13107e-08 -1.27211e-08 0)
(9.81761e-08 -1.40789e-08 0)
(1.04844e-07 -1.56403e-08 0)
(1.11297e-07 -1.74298e-08 0)
(1.1752e-07 -1.94702e-08 0)
(1.23503e-07 -2.1785e-08 0)
(1.29236e-07 -2.43979e-08 0)
(1.34715e-07 -2.73334e-08 0)
(1.39942e-07 -3.0617e-08 0)
(1.44922e-07 -3.42736e-08 0)
(1.49667e-07 -3.83267e-08 0)
(1.54199e-07 -4.27948e-08 0)
(1.58553e-07 -4.76876e-08 0)
(1.62775e-07 -5.2999e-08 0)
(1.66922e-07 -5.87006e-08 0)
(1.71066e-07 -6.47343e-08 0)
(1.7528e-07 -7.10084e-08 0)
(1.79633e-07 -7.7399e-08 0)
(1.84185e-07 -8.37578e-08 0)
(8.83535e-08 -1.31718e-08 0)
(9.56646e-08 -1.44175e-08 0)
(1.02788e-07 -1.5817e-08 0)
(1.09705e-07 -1.74019e-08 0)
(1.164e-07 -1.92001e-08 0)
(1.22857e-07 -2.12396e-08 0)
(1.29065e-07 -2.35489e-08 0)
(1.35015e-07 -2.61577e-08 0)
(1.40699e-07 -2.90976e-08 0)
(1.46114e-07 -3.24022e-08 0)
(1.5126e-07 -3.61069e-08 0)
(1.56145e-07 -4.02479e-08 0)
(1.60786e-07 -4.48594e-08 0)
(1.65211e-07 -4.99692e-08 0)
(1.69466e-07 -5.55902e-08 0)
(1.73615e-07 -6.1711e-08 0)
(1.77739e-07 -6.82833e-08 0)
(1.81926e-07 -7.52138e-08 0)
(1.86265e-07 -8.23635e-08 0)
(1.90826e-07 -8.95606e-08 0)
(9.30365e-08 -1.49435e-08 0)
(1.00635e-07 -1.62348e-08 0)
(1.08034e-07 -1.76603e-08 0)
(1.15217e-07 -1.92538e-08 0)
(1.22171e-07 -2.10469e-08 0)
(1.28882e-07 -2.30713e-08 0)
(1.35339e-07 -2.536e-08 0)
(1.41532e-07 -2.79478e-08 0)
(1.4745e-07 -3.08722e-08 0)
(1.53086e-07 -3.41744e-08 0)
(1.58437e-07 -3.78994e-08 0)
(1.63502e-07 -4.20965e-08 0)
(1.68288e-07 -4.68171e-08 0)
(1.72817e-07 -5.21108e-08 0)
(1.77128e-07 -5.80168e-08 0)
(1.81286e-07 -6.45496e-08 0)
(1.85381e-07 -7.16802e-08 0)
(1.89525e-07 -7.93182e-08 0)
(1.93831e-07 -8.73046e-08 0)
(1.98391e-07 -9.54296e-08 0)
(9.83249e-08 -1.68731e-08 0)
(1.06223e-07 -1.81904e-08 0)
(1.13909e-07 -1.96245e-08 0)
(1.21372e-07 -2.12113e-08 0)
(1.286e-07 -2.2985e-08 0)
(1.35584e-07 -2.49807e-08 0)
(1.42312e-07 -2.72347e-08 0)
(1.48775e-07 -2.97856e-08 0)
(1.54961e-07 -3.26757e-08 0)
(1.6086e-07 -3.59521e-08 0)
(1.66463e-07 -3.96682e-08 0)
(1.7176e-07 -4.38851e-08 0)
(1.76749e-07 -4.86714e-08 0)
(1.81436e-07 -5.41019e-08 0)
(1.85846e-07 -6.02489e-08 0)
(1.90036e-07 -6.71665e-08 0)
(1.94103e-07 -7.48618e-08 0)
(1.98182e-07 -8.32601e-08 0)
(2.02431e-07 -9.21803e-08 0)
(2.06974e-07 -1.01351e-07 0)
(1.04227e-07 -1.89737e-08 0)
(1.12429e-07 -2.02961e-08 0)
(1.20407e-07 -2.17212e-08 0)
(1.28156e-07 -2.32861e-08 0)
(1.35669e-07 -2.50275e-08 0)
(1.42939e-07 -2.69825e-08 0)
(1.49959e-07 -2.91898e-08 0)
(1.5672e-07 -3.16908e-08 0)
(1.6321e-07 -3.45308e-08 0)
(1.69418e-07 -3.77609e-08 0)
(1.75328e-07 -4.14406e-08 0)
(1.80926e-07 -4.56401e-08 0)
(1.86194e-07 -5.04432e-08 0)
(1.91122e-07 -5.5949e-08 0)
(1.95711e-07 -6.22691e-08 0)
(1.99993e-07 -6.95124e-08 0)
(2.04053e-07 -7.77501e-08 0)
(2.08048e-07 -8.69544e-08 0)
(2.12195e-07 -9.69328e-08 0)
(2.16696e-07 -1.07318e-07 0)
(1.10752e-07 -2.12498e-08 0)
(1.19248e-07 -2.25567e-08 0)
(1.27513e-07 -2.39557e-08 0)
(1.35547e-07 -2.54853e-08 0)
(1.43349e-07 -2.71834e-08 0)
(1.50916e-07 -2.90887e-08 0)
(1.58244e-07 -3.12412e-08 0)
(1.65327e-07 -3.36835e-08 0)
(1.72156e-07 -3.64627e-08 0)
(1.78718e-07 -3.96319e-08 0)
(1.84998e-07 -4.32538e-08 0)
(1.90974e-07 -4.74037e-08 0)
(1.96621e-07 -5.21753e-08 0)
(2.01908e-07 -5.76874e-08 0)
(2.06805e-07 -6.40886e-08 0)
(2.113e-07 -7.15548e-08 0)
(2.15434e-07 -8.02578e-08 0)
(2.1935e-07 -9.02797e-08 0)
(2.23333e-07 -1.0147e-07 0)
(2.27736e-07 -1.13337e-07 0)
(1.17899e-07 -2.36958e-08 0)
(1.26671e-07 -2.49679e-08 0)
(1.35207e-07 -2.63262e-08 0)
(1.43516e-07 -2.78097e-08 0)
(1.51603e-07 -2.9457e-08 0)
(1.59469e-07 -3.13074e-08 0)
(1.67115e-07 -3.34013e-08 0)
(1.74539e-07 -3.57819e-08 0)
(1.81735e-07 -3.84964e-08 0)
(1.88695e-07 -4.15985e-08 0)
(1.95403e-07 -4.51511e-08 0)
(2.0184e-07 -4.9231e-08 0)
(2.07976e-07 -5.39348e-08 0)
(2.13769e-07 -5.93901e-08 0)
(2.19162e-07 -6.57701e-08 0)
(2.24089e-07 -7.33119e-08 0)
(2.28502e-07 -8.23162e-08 0)
(2.32452e-07 -9.30726e-08 0)
(2.36226e-07 -1.05628e-07 0)
(2.40416e-07 -1.19431e-07 0)
(1.25666e-07 -2.62943e-08 0)
(1.34678e-07 -2.75164e-08 0)
(1.43459e-07 -2.88231e-08 0)
(1.52024e-07 -3.02535e-08 0)
(1.60382e-07 -3.18465e-08 0)
(1.68542e-07 -3.36411e-08 0)
(1.76507e-07 -3.56778e-08 0)
(1.84282e-07 -3.79994e-08 0)
(1.91865e-07 -4.06528e-08 0)
(1.99254e-07 -4.3691e-08 0)
(2.06439e-07 -4.71759e-08 0)
(2.13409e-07 -5.11824e-08 0)
(2.20139e-07 -5.58048e-08 0)
(2.26594e-07 -6.11674e-08 0)
(2.32711e-07 -6.74459e-08 0)
(2.38391e-07 -7.4905e-08 0)
(2.43491e-07 -8.3955e-08 0)
(2.47875e-07 -9.51761e-08 0)
(2.51621e-07 -1.09122e-07 0)
(2.55475e-07 -1.25619e-07 0)
(1.34039e-07 -2.90168e-08 0)
(1.43244e-07 -3.01791e-08 0)
(1.52233e-07 -3.14284e-08 0)
(1.61024e-07 -3.28037e-08 0)
(1.69633e-07 -3.43432e-08 0)
(1.7807e-07 -3.60858e-08 0)
(1.86347e-07 -3.80714e-08 0)
(1.9447e-07 -4.03422e-08 0)
(2.02446e-07 -4.29446e-08 0)
(2.10279e-07 -4.59308e-08 0)
(2.1797e-07 -4.93614e-08 0)
(2.25518e-07 -5.33093e-08 0)
(2.32919e-07 -5.78644e-08 0)
(2.40157e-07 -6.31425e-08 0)
(2.47204e-07 -6.93034e-08 0)
(2.53993e-07 -7.65924e-08 0)
(2.60381e-07 -8.54388e-08 0)
(2.66104e-07 -9.66499e-08 0)
(2.70829e-07 -1.11606e-07 0)
(2.74797e-07 -1.31789e-07 0)
(1.43012e-07 -3.18238e-08 0)
(1.52351e-07 -3.2924e-08 0)
(1.61499e-07 -3.41166e-08 0)
(1.70478e-07 -3.544e-08 0)
(1.79306e-07 -3.69318e-08 0)
(1.87997e-07 -3.86302e-08 0)
(1.96565e-07 -4.05745e-08 0)
(2.05022e-07 -4.28067e-08 0)
(2.1338e-07 -4.53727e-08 0)
(2.21651e-07 -4.83245e-08 0)
(2.29847e-07 -5.17224e-08 0)
(2.37982e-07 -5.56386e-08 0)
(2.46074e-07 -6.01614e-08 0)
(2.54142e-07 -6.54024e-08 0)
(2.62215e-07 -7.15093e-08 0)
(2.7033e-07 -7.86968e-08 0)
(2.78538e-07 -8.73362e-08 0)
(2.8688e-07 -9.82238e-08 0)
(2.95252e-07 -1.13314e-07 0)
(3.02934e-07 -1.37223e-07 0)
(3.71342e-09 -1.02559e-08 0)
(1.1158e-08 -9.84084e-09 0)
(1.86509e-08 -8.96339e-09 0)
(2.62123e-08 -7.71343e-09 0)
(3.38356e-08 -6.18681e-09 0)
(4.14922e-08 -4.49041e-09 0)
(4.91369e-08 -2.7357e-09 0)
(5.67152e-08 -1.02988e-09 0)
(6.41685e-08 5.32495e-10 0)
(7.14375e-08 1.87336e-09 0)
(3.71227e-09 -9.35609e-09 0)
(1.11357e-08 -9.04938e-09 0)
(1.85666e-08 -8.38959e-09 0)
(2.60051e-08 -7.4326e-09 0)
(3.34336e-08 -6.2391e-09 0)
(4.08211e-08 -4.88167e-09 0)
(4.81287e-08 -3.44181e-09 0)
(5.53141e-08 -2.00366e-09 0)
(6.23359e-08 -6.48446e-10 0)
(6.91605e-08 5.42557e-10 0)
(3.73931e-09 -8.5432e-09 0)
(1.12024e-08 -8.32815e-09 0)
(1.86397e-08 -7.85578e-09 0)
(2.60332e-08 -7.15538e-09 0)
(3.3353e-08 -6.26001e-09 0)
(4.05629e-08 -5.21474e-09 0)
(4.76244e-08 -4.07629e-09 0)
(5.45021e-08 -2.90874e-09 0)
(6.11663e-08 -1.77966e-09 0)
(6.75998e-08 -7.63867e-10 0)
(3.79105e-09 -7.82344e-09 0)
(1.13467e-08 -7.68745e-09 0)
(1.88501e-08 -7.3782e-09 0)
(2.62677e-08 -6.90345e-09 0)
(3.35579e-08 -6.27382e-09 0)
(4.06766e-08 -5.51217e-09 0)
(4.75829e-08 -4.65507e-09 0)
(5.4243e-08 -3.74992e-09 0)
(6.0633e-08 -2.85191e-09 0)
(6.67441e-08 -2.0279e-09 0)
(3.86477e-09 -7.20252e-09 0)
(1.15595e-08 -7.13635e-09 0)
(1.91817e-08 -6.97173e-09 0)
(2.66844e-08 -6.69794e-09 0)
(3.40152e-08 -6.30674e-09 0)
(4.11216e-08 -5.80256e-09 0)
(4.79577e-08 -5.20546e-09 0)
(5.4488e-08 -4.54923e-09 0)
(6.06902e-08 -3.87849e-09 0)
(6.65595e-08 -3.25231e-09 0)
(3.95861e-09 -6.68579e-09 0)
(1.18347e-08 -6.68299e-09 0)
(1.96231e-08 -6.64951e-09 0)
(2.72659e-08 -6.55781e-09 0)
(3.47006e-08 -6.38283e-09 0)
(4.18664e-08 -6.11312e-09 0)
(4.8711e-08 -5.75509e-09 0)
(5.51954e-08 -5.33152e-09 0)
(6.12961e-08 -4.87853e-09 0)
(6.70087e-08 -4.44828e-09 0)
(4.0715e-09 -6.27849e-09 0)
(1.21689e-08 -6.33503e-09 0)
(2.01675e-08 -6.42374e-09 0)
(2.80009e-08 -6.50063e-09 0)
(3.55976e-08 -6.5247e-09 0)
(4.28885e-08 -6.47022e-09 0)
(4.98148e-08 -6.33198e-09 0)
(5.63326e-08 -6.124e-09 0)
(6.24156e-08 -5.87586e-09 0)
(6.8058e-08 -5.63399e-09 0)
(4.20305e-09 -5.98594e-09 0)
(1.25606e-08 -6.10006e-09 0)
(2.08121e-08 -6.30624e-09 0)
(2.88841e-08 -6.5433e-09 0)
(3.66971e-08 -6.75415e-09 0)
(4.41745e-08 -6.8996e-09 0)
(5.12506e-08 -6.96431e-09 0)
(5.78767e-08 -6.95535e-09 0)
(6.40226e-08 -6.89757e-09 0)
(6.96798e-08 -6.83297e-09 0)
(4.35356e-09 -5.81381e-09 0)
(1.30105e-08 -5.98601e-09 0)
(2.15573e-08 -6.30906e-09 0)
(2.99151e-08 -6.70271e-09 0)
(3.79969e-08 -7.09277e-09 0)
(4.57187e-08 -7.42668e-09 0)
(5.30088e-08 -7.68017e-09 0)
(5.98136e-08 -7.85495e-09 0)
(6.60995e-08 -7.97271e-09 0)
(7.18547e-08 -8.07239e-09 0)
(4.5241e-09 -5.76829e-09 0)
(1.35217e-08 -6.0015e-09 0)
(2.2408e-08 -6.44508e-09 0)
(3.10994e-08 -6.99652e-09 0)
(3.95017e-08 -7.56252e-09 0)
(4.75238e-08 -8.07694e-09 0)
(5.50885e-08 -8.50757e-09 0)
(6.21386e-08 -8.85228e-09 0)
(6.86376e-08 -9.13116e-09 0)
(7.45707e-08 -9.38143e-09 0)
(4.71663e-09 -5.8564e-09 0)
(1.40999e-08 -6.15634e-09 0)
(2.33733e-08 -6.72877e-09 0)
(3.24485e-08 -7.44393e-09 0)
(4.12237e-08 -8.18644e-09 0)
(4.96006e-08 -8.87622e-09 0)
(5.74976e-08 -9.47428e-09 0)
(6.48555e-08 -9.97638e-09 0)
(7.16364e-08 -1.04026e-08 0)
(7.7824e-08 -1.07898e-08 0)
(4.93432e-09 -6.08636e-09 0)
(1.47546e-08 -6.46226e-09 0)
(2.44687e-08 -7.17717e-09 0)
(3.39824e-08 -8.06665e-09 0)
(4.31845e-08 -8.98933e-09 0)
(5.19696e-08 -9.85096e-09 0)
(6.02534e-08 -1.06076e-08 0)
(6.7977e-08 -1.12552e-08 0)
(7.51039e-08 -1.18153e-08 0)
(8.16177e-08 -1.2326e-08 0)
(5.18211e-09 -6.46814e-09 0)
(1.55009e-08 -6.93398e-09 0)
(2.57185e-08 -7.81139e-09 0)
(3.5732e-08 -8.89016e-09 0)
(4.54174e-08 -9.99825e-09 0)
(5.46627e-08 -1.10281e-08 0)
(6.33836e-08 -1.19339e-08 0)
(7.15253e-08 -1.27144e-08 0)
(7.90558e-08 -1.33951e-08 0)
(8.59618e-08 -1.40161e-08 0)
(5.46767e-09 -7.01443e-09 0)
(1.6362e-08 -7.59107e-09 0)
(2.71607e-08 -8.6587e-09 0)
(3.77441e-08 -9.94502e-09 0)
(4.79714e-08 -1.12427e-08 0)
(5.77254e-08 -1.24342e-08 0)
(6.69272e-08 -1.34768e-08 0)
(7.55313e-08 -1.43759e-08 0)
(8.35151e-08 -1.51628e-08 0)
(9.08715e-08 -1.5881e-08 0)
(5.8033e-09 -7.74229e-09 0)
(1.73766e-08 -8.46138e-09 0)
(2.88556e-08 -9.75585e-09 0)
(4.00891e-08 -1.1268e-08 0)
(5.09156e-08 -1.27538e-08 0)
(6.12192e-08 -1.40936e-08 0)
(7.09352e-08 -1.52553e-08 0)
(8.00351e-08 -1.62554e-08 0)
(8.8511e-08 -1.71327e-08 0)
(9.63658e-08 -1.7935e-08 0)
(6.21071e-09 -8.67665e-09 0)
(1.86125e-08 -9.58751e-09 0)
(3.09016e-08 -1.11531e-08 0)
(4.28716e-08 -1.29018e-08 0)
(5.43448e-08 -1.45609e-08 0)
(6.52227e-08 -1.60242e-08 0)
(7.54696e-08 -1.728e-08 0)
(8.50834e-08 -1.83592e-08 0)
(9.40761e-08 -1.93096e-08 0)
(1.02465e-07 -2.01825e-08 0)
(6.73645e-09 -9.85916e-09 0)
(2.01994e-08 -1.10387e-08 0)
(3.34605e-08 -1.29173e-08 0)
(4.62423e-08 -1.48897e-08 0)
(5.83818e-08 -1.66843e-08 0)
(6.98307e-08 -1.82312e-08 0)
(8.06009e-08 -1.95477e-08 0)
(9.07262e-08 -2.06808e-08 0)
(1.00243e-07 -2.16856e-08 0)
(1.09185e-07 -2.26164e-08 0)
(7.50807e-09 -1.13745e-08 0)
(2.23992e-08 -1.29288e-08 0)
(3.67933e-08 -1.51259e-08 0)
(5.04063e-08 -1.72608e-08 0)
(6.31754e-08 -1.91222e-08 0)
(7.51481e-08 -2.06984e-08 0)
(8.64021e-08 -2.20369e-08 0)
(9.70124e-08 -2.31973e-08 0)
(1.07041e-07 -2.42387e-08 0)
(1.16539e-07 -2.52164e-08 0)
(8.92727e-09 -1.34341e-08 0)
(2.57301e-08 -1.54268e-08 0)
(4.12898e-08 -1.78332e-08 0)
(5.562e-08 -2.00002e-08 0)
(6.88911e-08 -2.1834e-08 0)
(8.12834e-08 -2.33797e-08 0)
(9.29442e-08 -2.47032e-08 0)
(1.03986e-07 -2.58677e-08 0)
(1.14493e-07 -2.69315e-08 0)
(1.24529e-07 -2.79486e-08 0)
(1.22172e-08 -1.66301e-08 0)
(3.11058e-08 -1.86869e-08 0)
(4.74762e-08 -2.09867e-08 0)
(6.2185e-08 -2.30096e-08 0)
(7.57131e-08 -2.47263e-08 0)
(8.8356e-08 -2.61953e-08 0)
(1.00307e-07 -2.74789e-08 0)
(1.11699e-07 -2.86338e-08 0)
(1.22629e-07 -2.97129e-08 0)
(1.33168e-07 -3.0767e-08 0)
)
;

boundaryField
{
    left
    {
        type            symmetryPlane;
    }
    right
    {
        type            tractionDisplacement;
        traction        uniform (10000 0 0);
        pressure        uniform 0;
        value           nonuniform List<vector> 
30
(
(1.57657e-07 -1.2353e-09 1.38251e-26)
(1.57566e-07 -3.70509e-09 -2.74531e-26)
(1.57371e-07 -6.25024e-09 -1.39859e-26)
(1.57099e-07 -8.91919e-09 1.34761e-26)
(1.56787e-07 -1.1755e-08 4.35114e-26)
(1.56475e-07 -1.47956e-08 -1.37133e-26)
(1.56213e-07 -1.80731e-08 -1.46406e-26)
(1.56056e-07 -2.16128e-08 -1.61129e-26)
(1.56064e-07 -2.5433e-08 4.52994e-26)
(1.563e-07 -2.95454e-08 -1.47778e-27)