/*--------------------------------*- C++ -*----------------------------------*\
  =========                 |
  \\      /  F ield         | OpenFOAM: The Open Source CFD Toolbox
   \\    /   O peration     | Website:  https://openfoam.org
    \\  /    A nd           | Version:  6
     \\/     M anipulation  |
\*---------------------------------------------------------------------------*/
FoamFile
{
    version     2.0;
    format      ascii;
    class       surfaceVectorField;
    location    "2.28";
    object      Uf;
}
// * * * * * * * * * * * * * * * * * * * * * * * * * * * * * * * * * * * * * //

dimensions      [0 1 -1 0 0 0 0];

internalField   nonuniform List<vector> 
8193
(
(9.93962 -0.0814747 2.5606e-19)
(10.2692 -0.150691 -5.8609e-19)
(8.91969 -0.277168 9.35939e-19)
(10.3572 0.106751 8.00782e-20)
(10.6457 0.114341 2.3225e-19)
(10.4303 0.299359 -2.24139e-19)
(10.6703 0.310708 -2.2472e-19)
(10.405 0.474215 2.34669e-20)
(10.615 0.454721 0)
(10.3575 0.635471 6.64128e-20)
(10.5599 0.608508 2.36725e-20)
(10.2997 0.789642 -2.75657e-20)
(10.5025 0.768484 1.43791e-20)
(10.2337 0.939756 -1.06025e-20)
(10.4386 0.92532 8.52484e-21)
(10.1584 1.08701 1.12638e-20)
(10.3674 1.08211 -2.94307e-20)
(10.0702 1.23233 1.02116e-20)
(10.2859 1.24111 2.95291e-20)
(9.96461 1.37538 1.91939e-20)
(10.1885 1.40061 2.85424e-20)
(9.83781 1.51484 -2.98774e-20)
(10.07 1.55906 5.89475e-20)
(9.68675 1.64857 -1.6505e-19)
(9.92635 1.71477 -1.45773e-19)
(9.50907 1.77283 -3.74521e-20)
(9.75324 1.865 -3.74469e-20)
(9.30357 1.88154 0)
(9.54673 2.0049 0)
(9.0725 1.96488 0)
(9.30315 2.12749 0)
(8.81932 2.00842 2.01263e-22)
(9.02467 2.22529 0)
(8.53355 1.99827 -8.9606e-21)
(8.7169 2.28455 2.86164e-20)
(8.13649 1.93157 6.40167e-21)
(8.37106 2.28766 -4.27821e-20)
(7.42848 1.87823 2.45987e-20)
(7.90393 2.22903 -2.11491e-20)
(6.33145 1.91762 2.40553e-20)
(7.03638 2.22194 -2.03315e-19)
(5.23808 1.81139 3.2344e-20)
(5.67378 2.42058 5.09324e-21)
(4.79686 1.23476 3.15444e-20)
(4.48367 2.35731 -7.28835e-19)
(5.25584 0.321735 -5.17784e-20)
(4.38336 1.672 0)
(6.50031 -0.59613 -5.14112e-19)
(5.33279 0.606611 -2.66436e-19)
(8.32282 -1.33719 -2.03961e-19)
(7.09644 -0.473094 -1.51493e-19)
(10.301 -1.85172 -1.38664e-19)
(9.27516 -1.31261 2.45637e-19)
(11.9293 -2.05571 -5.51472e-19)
(11.3233 -1.81612 -3.27487e-19)
(12.9039 -1.9407 2.47176e-20)
(12.7315 -1.90926 1.49925e-19)
(13.2253 -1.64365 -3.11082e-21)
(13.3473 -1.6907 0)
(13.0858 -1.30026 -3.08507e-21)
(13.3465 -1.36426 7.88173e-21)
(12.7814 -1.00658 0)
(13.0079 -1.03737 0)
(12.5212 -0.799526 9.53907e-22)
(12.684 -0.808414 2.04744e-21)
(12.3185 -0.647757 1.00043e-21)
(12.4579 -0.647934 2.37986e-20)
(12.1432 -0.52721 -4.30835e-23)
(12.2688 -0.5263 3.38307e-23)
(11.9942 -0.425975 -1.15676e-21)
(12.1079 -0.427303 -1.37578e-20)
(11.8749 -0.336595 -1.15732e-21)
(11.9778 -0.343073 -6.29353e-20)
(11.7855 -0.255624 0)
(11.8777 -0.267449 3.77952e-21)
(11.7116 -0.178037 -7.3162e-20)
(11.8098 -0.201557 4.58591e-21)
(11.5865 -0.0951209 -3.01651e-19)
(11.7745 -0.15648 -5.63811e-20)
(11.2055 -0.0210476 6.9413e-20)
(11.7119 -0.0954982 6.39432e-20)
(11.3907 0.0333881 -1.16284e-18)
(10.3151 0.0631423 2.55007e-20)
(10.7875 0.153594 2.87145e-19)
(10.7916 0.0269441 1.90195e-19)
(10.475 -0.18062 4.72344e-18)
(10.8006 0.316564 0)
(10.8396 0.252102 -3.26271e-19)
(10.7538 0.453875 0)
(10.8209 0.425505 1.69205e-19)
(10.7014 0.599249 0)
(10.7805 0.553819 -1.18115e-19)
(10.6467 0.750925 -2.94093e-21)
(10.7373 0.698952 7.44248e-20)
(10.5872 0.906425 8.50586e-22)
(10.6867 0.857148 -8.74525e-20)
(10.5209 1.06608 -1.52742e-20)
(10.6288 1.01913 -9.75753e-21)
(10.4457 1.23023 1.92148e-20)
(10.5631 1.18697 -4.57526e-20)
(10.357 1.39875 4.76895e-20)
(10.4863 1.36146 6.49287e-20)
(10.2489 1.57048 6.81049e-20)
(10.3921 1.54128 1.27361e-19)
(10.1163 1.74379 -1.10508e-19)
(10.275 1.72463 -1.15288e-19)
(9.95426 1.91659 -5.52241e-20)
(10.1304 1.90946 1.01499e-19)
(9.75757 2.08522 0)
(9.95259 2.09286 -1.55514e-19)
(9.52076 2.24394 0)
(9.73584 2.27002 7.81637e-20)
(9.24151 2.38543 0)
(9.47513 2.43394 0)
(8.92323 2.49938 -4.01705e-21)
(9.17049 2.57896 -5.11613e-20)
(8.56687 2.57115 3.18221e-21)
(8.82605 2.69711 4.92672e-20)
(8.14813 2.58199 -1.42974e-20)
(8.43342 2.77305 -1.14053e-19)
(7.52125 2.55609 -1.74156e-19)
(7.94437 2.79361 2.82898e-20)
(6.437 2.68985 -1.65822e-19)
(7.17771 2.7877 4.9582e-20)
(5.06355 2.96885 -1.80365e-19)
(5.88336 3.0332 5.12672e-21)
(4.24334 2.8252 -1.81024e-19)
(4.44647 3.31428 -7.42629e-19)
(4.57861 1.98758 -2.19772e-19)
(4.01961 2.94535 0)
(5.99101 0.776933 -2.70709e-19)
(4.86889 1.86244 -2.16589e-19)
(8.08282 -0.360161 -3.68834e-20)
(6.75831 0.539458 -2.81894e-19)
(10.3016 -1.20351 4.81136e-20)
(9.12036 -0.584039 5.44896e-19)
(12.1001 -1.62854 -2.08849e-19)
(11.3339 -1.31813 2.06153e-19)
(13.1352 -1.62564 3.90369e-20)
(12.848 -1.5675 1.1239e-19)
(13.425 -1.39112 -5.67975e-21)
(13.4736 -1.43805 8.88834e-20)
(13.2338 -1.09331 -5.57696e-21)
(13.4417 -1.17276 -2.57346e-20)
(12.8875 -0.835274 2.05223e-21)
(13.0718 -0.888555 -3.01537e-20)
(12.6022 -0.65704 -4.59806e-21)
(12.727 -0.68658 7.95744e-21)
(12.3915 -0.529862 -3.03288e-21)
(12.4932 -0.548214 -3.01772e-21)
(12.2166 -0.429864 -1.33165e-20)
(12.3024 -0.444365 -2.11678e-20)
(12.0727 -0.348092 -1.61531e-20)
(12.1424 -0.360772 4.67478e-20)
(11.959 -0.278934 -1.46662e-21)
(12.0147 -0.290253 1.58517e-20)
(11.8752 -0.221279 8.02493e-21)
(11.9151 -0.22929 9.03786e-22)
(11.8222 -0.17547 1.5614e-19)
(11.8441 -0.179743 4.21406e-21)
(11.7917 -0.144845 1.41472e-20)
(11.8017 -0.151539 1.55183e-19)
(11.7524 -0.109151 -3.32972e-20)
(11.7529 -0.123554 0)
(11.6756 -0.0436301 -2.12194e-20)
(11.5204 0.0929224 3.54058e-18)
(10.9379 0.239926 1.71459e-18)
(11.0454 0.153702 -1.00011e-19)
(10.9661 0.0415667 -3.08161e-18)
(10.9038 0.374925 -1.66595e-19)
(11.0137 0.31947 -3.3204e-19)
(10.876 0.509773 -6.75232e-20)
(10.9988 0.489633 1.71098e-19)
(10.8443 0.657411 -4.64598e-20)
(10.9749 0.622352 -9.10267e-20)
(10.8019 0.811541 4.15005e-20)
(10.9381 0.766682 -3.39341e-20)
(10.7497 0.970099 -8.82683e-20)
(10.8908 0.923891 -6.59896e-20)
(10.6905 1.13472 -4.1244e-20)
(10.8378 1.08881 -2.16038e-20)
(10.6221 1.30728 1.85672e-20)
(10.7784 1.26376 -2.85089e-20)
(10.5391 1.48759 9.25036e-20)
(10.7072 1.44892 -1.5965e-20)
(10.4353 1.67482 -2.31713e-19)
(10.6175 1.6437 4.6679e-20)
(10.3052 1.86776 1.44086e-19)
(10.5038 1.84667 -1.28976e-20)
(10.1428 2.0638 -1.43706e-19)
(10.3599 2.05548 4.43617e-19)
(9.94215 2.25885 5.35804e-20)
(10.179 2.26617 -3.27994e-20)
(9.69734 2.44728 7.7557e-20)
(9.95402 2.4739 2.51043e-19)
(9.40534 2.62236 -5.11161e-20)
(9.67931 2.67292 0)
(9.06815 2.7766 5.59656e-21)
(9.35463 2.85828 -5.06858e-20)
(8.68402 2.89908 -3.56862e-20)
(8.98293 3.02528 2.8543e-19)
(8.22574 2.97761 -6.61918e-20)
(8.55757 3.1625 -1.81342e-19)
(7.6049 3.00266 5.03903e-20)
(8.03384 3.25614 2.08859e-20)
(6.6148 3.09257 2.91232e-20)
(7.3051 3.28847 1.20069e-19)
(5.22185 3.3938 -6.61384e-21)
(6.10995 3.44654 7.9522e-21)
(4.16816 3.4943 -6.46475e-21)
(4.54476 3.81107 -4.19548e-20)
(4.27175 2.85821 -2.64983e-19)
(3.7669 3.71775 0)
(5.62521 1.65898 -4.89064e-19)
(4.42003 2.78393 6.90001e-19)
(7.81223 0.333824 3.26858e-21)
(6.33759 1.38105 -2.30547e-19)
(10.1869 -0.696736 7.42386e-19)
(8.88269 0.0694654 5.07847e-19)
(12.1151 -1.27125 7.25741e-19)
(11.2793 -0.845346 -2.6084e-19)
(13.2151 -1.37428 1.63464e-19)
(12.9215 -1.2372 2.16185e-19)
(13.5065 -1.21351 6.78601e-20)
(13.5732 -1.206 4.12175e-20)
(13.288 -0.959406 1.79625e-21)
(13.5237 -0.998905 -6.40797e-20)
(12.9182 -0.733844 -5.48738e-20)
(13.1267 -0.761167 -3.08204e-20)
(12.6245 -0.575056 5.8827e-21)
(12.7645 -0.585256 9.64489e-21)
(12.4103 -0.463222 -2.10335e-20)
(12.5225 -0.466997 0)
(12.235 -0.375297 -6.59348e-21)
(12.3297 -0.377862 -1.51152e-20)
(12.0919 -0.303081 3.22517e-20)
(12.1706 -0.305911 1.41226e-20)
(11.9791 -0.242052 1.88192e-20)
(12.0447 -0.244864 1.8987e-20)
(11.894 -0.18928 -2.54037e-21)
(11.9471 -0.19264 -2.44774e-21)
(11.8316 -0.144639 -2.01342e-20)
(11.8768 -0.150247 1.26464e-20)
(11.7827 -0.119673 -2.05865e-20)
(11.8249 -0.119827 -2.08532e-20)
(11.747 -0.0971199 1.01323e-20)
(11.7749 -0.092023 -1.24697e-21)
(11.7482 -0.0591819 9.13615e-20)
(11.728 -0.0266888 -2.10966e-20)
(11.1367 0.324129 0)
(11.2413 0.249437 -7.31061e-19)
(11.2011 0.180203 1.16164e-18)
(11.1064 0.455338 0)
(11.2043 0.39762 -8.64363e-20)
(11.0884 0.590082 6.14942e-20)
(11.1969 0.561746 -8.5704e-20)
(11.061 0.732424 -2.51117e-20)
(11.1794 0.690692 6.25474e-20)
(11.0207 0.882239 -1.09943e-19)
(11.1476 0.831918 -1.81659e-19)
(10.9731 1.04068 0)
(11.1067 0.987413 6.27349e-20)
(10.9204 1.21022 -1.72861e-20)
(11.0622 1.15455 -1.10784e-19)
(10.8587 1.3919 -6.38062e-20)
(11.0116 1.33613 2.4864e-19)
(10.7814 1.58537 -4.69529e-20)
(10.948 1.53194 2.06066e-19)
(10.6824 1.78997 1.38129e-19)
(10.8651 1.74175 -7.79657e-20)
(10.5558 2.00469 4.25487e-19)
(10.7572 1.96488 3.7665e-19)
(10.3938 2.22778 4.07521e-19)
(10.6178 2.19934 3.88852e-19)
(10.1882 2.45422 9.85613e-20)
(10.4369 2.44008 -2.88725e-19)
(9.93301 2.67896 1.72619e-19)
(10.2075 2.68158 -1.3086e-19)
(9.6256 2.89699 0)
(9.92458 2.92021 -8.33781e-20)
(9.26611 3.10365 2.32467e-19)
(9.58851 3.15312 8.57865e-20)
(8.85315 3.28745 1.3553e-19)
(9.19771 3.37646 -2.40083e-20)
(8.36254 3.43328 -9.39588e-20)
(8.74509 3.57931 7.25143e-19)
(7.73082 3.52234 5.3952e-20)
(8.1839 3.7401 -4.28404e-19)
(6.79466 3.60002 3.73023e-20)
(7.44559 3.82993 1.72233e-19)
(5.41169 3.86022 1.6863e-19)
(6.33074 3.92134 7.99011e-21)
(4.12829 4.1122 1.45584e-19)
(4.73312 4.25294 1.97099e-19)
(3.92056 3.67405 9.33725e-19)
(3.61736 4.3454 3.59852e-20)
(5.16034 2.55735 9.09545e-19)
(4.01447 3.61365 9.99888e-20)
(7.44249 1.1078 2.76394e-19)
(5.85882 2.21054 0)
(10.0055 -0.0964885 -5.92435e-19)
(8.56422 0.762628 1.34721e-19)
(12.1019 -0.837585 -6.07053e-19)
(11.1501 -0.311606 -8.69296e-19)
(13.2883 -1.06383 7.88341e-20)
(12.9436 -0.853787 6.54322e-19)
(13.5882 -0.987316 -9.98638e-20)
(13.6418 -0.935458 1.07255e-19)
(13.3529 -0.788548 -4.64438e-20)
(13.5902 -0.79407 -2.05179e-20)
(12.9637 -0.604792 -1.94572e-21)
(13.1705 -0.613427 0)
(12.6576 -0.472584 -1.89332e-21)
(12.794 -0.470609 -1.9454e-21)
(12.4379 -0.380871 2.17822e-20)
(12.5439 -0.376616 -7.52077e-21)
(12.2619 -0.307982 2.13929e-20)
(12.3495 -0.30499 2.93965e-20)
(12.1202 -0.248101 -1.64598e-20)
(12.1907 -0.246499 0)
(12.0095 -0.19771 -1.63682e-20)
(12.0661 -0.196461 3.93985e-20)
(11.926 -0.155095 1.21714e-20)
(11.9697 -0.153958 -3.30045e-20)
(11.8639 -0.12105 1.09208e-20)
(11.8991 -0.120323 -1.93558e-20)
(11.8144 -0.0975303 4.52249e-20)
(11.8443 -0.0947494 5.22495e-22)
(11.7779 -0.0735952 -7.56182e-21)
(11.7959 -0.069109 -3.98487e-20)
(11.771 -0.0480141 -2.29959e-20)
(11.7639 -0.0483505 5.98366e-20)
(11.3256 0.399876 -8.39349e-19)
(11.4365 0.334742 -8.49793e-19)
(11.3897 0.274672 -1.03004e-18)
(11.3028 0.525033 -1.72705e-19)
(11.4103 0.472732 5.17579e-19)
(11.2914 0.654219 -8.76735e-20)
(11.4075 0.622316 -3.81553e-19)
(11.269 0.79159 -7.19505e-20)
(11.3937 0.745949 0)
(11.2357 0.938109 -2.01228e-20)
(11.3663 0.883616 -2.2066e-20)
(11.1973 1.09758 -4.45716e-20)
(11.3346 1.03698 1.64642e-19)
(11.1543 1.27168 1.61541e-19)
(11.2999 1.20583 1.85059e-19)
(11.1017 1.46143 5.19904e-19)
(11.2592 1.39292 9.16878e-20)
(11.0326 1.66688 1.23615e-19)
(11.2048 1.59835 -3.75165e-19)
(10.941 1.88788 1.53284e-19)
(11.1307 1.82222 2.9169e-20)
(10.8207 2.1234 3.32766e-19)
(11.0304 2.0643 -2.66895e-19)
(10.663 2.37129 -3.03684e-19)
(10.8972 2.32315 1.99472e-19)
(10.4579 2.62817 -7.02894e-19)
(10.72 2.59378 2.21055e-20)
(10.1991 2.88959 -3.80984e-19)
(10.491 2.87093 -2.9565e-19)
(9.88562 3.15232 1.07637e-19)
(10.2061 3.152 3.61508e-20)
(9.51662 3.41375 -1.46874e-19)
(9.86715 3.43672 -3.66689e-20)
(9.08431 3.66458 5.50912e-19)
(9.46798 3.72213 -1.79973e-19)
(8.56019 3.87909 3.44476e-19)
(8.99066 3.99372 9.93237e-19)
(7.89229 4.03098 -2.90604e-19)
(8.38778 4.21666 1.09856e-19)
(6.97195 4.11308 1.32316e-19)
(7.60321 4.3611 -5.25667e-19)
(5.62652 4.28674 4.98868e-20)
(6.51813 4.41665 1.43689e-21)
(4.18306 4.57959 -2.52244e-20)
(4.94712 4.63861 1.73426e-20)
(3.67996 4.30911 -4.16304e-19)
(3.5434 4.80856 3.26767e-20)
(4.71961 3.33947 -4.81527e-19)
(3.66477 4.28422 -4.17444e-19)
(7.00916 1.86173 -1.45416e-19)
(5.34662 2.95558 -1.93238e-19)
(9.74217 0.527566 -1.98721e-19)
(8.1688 1.44658 1.10605e-19)
(12.0139 -0.364444 6.87719e-19)
(10.9415 0.253138 -1.34193e-18)
(13.3078 -0.725362 7.28541e-19)
(12.9037 -0.430868 5.34437e-19)
(13.6411 -0.738835 1.8589e-19)
(13.6762 -0.637152 2.04807e-19)
(13.3992 -0.605979 2.39693e-20)
(13.6378 -0.572164 -1.50078e-20)
(12.9934 -0.470254 0)
(13.2022 -0.453898 6.36594e-22)
(12.6774 -0.368884 -7.72392e-21)
(12.8155 -0.350347 -6.71475e-22)
(12.4534 -0.298709 3.11092e-21)
(12.5584 -0.283509 -3.14984e-21)
(12.2768 -0.241576 7.68082e-21)
(12.3629 -0.230833 4.51244e-20)
(12.1358 -0.193742 5.55237e-20)
(12.2044 -0.186185 -3.81011e-20)
(12.0261 -0.152945 2.08949e-20)
(12.0809 -0.147276 -4.86153e-20)
(11.9427 -0.118384 -6.50701e-20)
(11.9852 -0.113757 3.64828e-20)
(11.8793 -0.0912842 -4.58595e-21)
(11.9138 -0.0870652 -1.705e-20)
(11.8285 -0.0705448 4.49631e-21)
(11.8578 -0.0660776 7.33017e-21)
(11.7909 -0.0502385 1.39615e-20)
(11.8112 -0.044905 2.64303e-21)
(11.7815 -0.0290915 -6.5284e-21)
(11.7725 -0.035003 4.0413e-20)
(11.5291 0.46984 4.68956e-19)
(11.6371 0.409255 -4.72712e-19)
(11.5777 0.358691 -8.50908e-19)
(11.5165 0.585027 4.74848e-19)
(11.6221 0.535728 4.75583e-19)
(11.5088 0.707045 -3.02242e-19)
(11.6237 0.669972 1.71464e-19)
(11.4901 0.837635 4.95646e-20)
(11.6111 0.787419 -2.95737e-19)
(11.4644 0.981446 1.51597e-19)
(11.5916 0.919656 -1.48646e-20)
(11.436 1.14116 3.89972e-19)
(11.5703 1.07067 -1.96989e-19)
(11.4034 1.31903 1.26892e-19)
(11.547 1.24071 1.34956e-19)
(11.3609 1.51602 -7.82397e-19)
(11.5173 1.43212 -1.70502e-19)
(11.3018 1.7328 -5.20026e-19)
(11.4737 1.64612 -1.58463e-19)
(11.2194 1.96979 -4.49084e-19)
(11.4106 1.8835 1.03938e-19)
(11.1068 2.2258 -3.81752e-19)
(11.3201 2.14377 -5.51648e-19)
(10.9547 2.49858 5.17142e-19)
(11.1948 2.42581 -3.43733e-19)
(10.7543 2.78412 4.11347e-19)
(11.0225 2.7254 4.06125e-19)
(10.4989 3.08429 1.17354e-19)
(10.8016 3.03979 -7.91159e-20)
(10.1867 3.39551 -1.75679e-19)
(10.523 3.36834 1.97295e-19)
(9.81586 3.71641 -7.0411e-20)
(10.1903 3.70964 -1.19957e-19)
(9.37058 4.03563 2.52151e-19)
(9.79065 4.06187 1.59041e-18)
(8.81271 4.32157 7.43833e-19)
(9.29195 4.40335 -8.70443e-19)
(8.09085 4.53194 -1.6419e-19)
(8.63888 4.68485 5.00243e-19)
(7.13932 4.63259 -6.11281e-19)
(7.78194 4.87129 9.4464e-19)
(5.81828 4.71592 -1.34267e-19)
(6.66808 4.91561 1.44107e-21)
(4.25951 4.95816 -6.56831e-20)
(5.13984 5.00166 1.21029e-19)
(3.48968 4.8087 7.25056e-20)
(3.52058 5.15549 -3.20839e-19)
(4.29666 3.97163 7.10249e-20)
(3.35281 4.79058 7.59847e-20)
(6.5323 2.55783 -5.37604e-20)
(4.8298 3.58747 -1.97427e-19)
(9.40235 1.1547 -1.04584e-18)
(7.70704 2.08692 2.62704e-19)
(11.8554 0.14292 -1.23424e-18)
(10.6544 0.829639 -1.88688e-19)
(13.2798 -0.351826 5.05052e-20)
(12.7949 0.0302562 -3.84219e-19)
(13.6673 -0.465643 -7.11624e-21)
(13.6695 -0.305392 -1.57279e-19)
(13.4308 -0.407185 -3.92809e-20)
(13.6624 -0.333689 -4.60224e-20)
(13.0157 -0.324595 -1.62523e-20)
(13.2207 -0.281598 5.35504e-21)
(12.6915 -0.258643 4.06128e-21)
(12.828 -0.22238 -1.40933e-20)
(12.4641 -0.212721 4.10271e-20)
(12.5655 -0.185714 9.43281e-21)
(12.2874 -0.172817 -1.94232e-21)
(12.3702 -0.15401 9.0989e-22)
(12.1471 -0.137873 -1.54654e-19)
(12.2121 -0.124194 -5.45555e-21)
(12.0383 -0.107143 -3.70711e-20)
(12.0896 -0.0971581 -5.39198e-20)
(11.955 -0.0807949 8.59571e-20)
(11.9944 -0.0729126 2.31254e-20)
(11.8913 -0.0599699 3.64507e-21)
(11.9222 -0.0533152 3.61162e-21)
(11.8406 -0.0431711 2.8266e-23)
(11.8659 -0.0374479 -6.28872e-21)
(11.8013 -0.027927 1.08117e-20)
(11.8202 -0.0210747 -2.68406e-20)
(11.7864 -0.00929761 -1.07515e-20)
(11.7754 -0.0181054 9.6655e-21)
(11.7354 0.523512 -9.41368e-19)
(11.84 0.4668 2.02738e-19)
(11.771 0.424383 -2.85802e-18)
(11.7301 0.628667 2.40001e-19)
(11.8345 0.578575 -6.73712e-19)
(11.7255 0.741256 1.90437e-19)
(11.8369 0.698862 2.52001e-19)
(11.7127 0.866374 -3.63147e-19)
(11.8297 0.809803 -2.36039e-19)
(11.6968 1.00689 -3.62537e-19)
(11.8189 0.936322 3.29009e-19)
(11.6802 1.16646 -4.56986e-19)
(11.8095 1.08502 -4.21836e-20)
(11.6594 1.34741 -1.58677e-19)
(11.7991 1.25567 -1.5428e-19)
(11.6285 1.55094 4.42481e-19)
(11.7815 1.45049 6.2297e-19)
(11.5812 1.77847 4.55604e-19)
(11.7506 1.67174 4.44842e-19)
(11.5102 2.03093 -6.8574e-20)
(11.7006 1.9218 6.86263e-19)
(11.4074 2.30679 -4.59866e-19)
(11.6214 2.19936 -6.86368e-20)
(11.2625 2.60446 -4.4675e-19)
(11.5064 2.50395 -1.9474e-18)
(11.0702 2.92015 -7.80755e-20)
(11.3418 2.83204 2.16484e-21)
(10.8267 3.25816 1.24166e-19)
(11.1341 3.18465 -7.60987e-20)
(10.527 3.62112 8.00834e-20)
(10.873 3.56423 8.02e-20)
(10.1629 4.00481 1.53295e-18)
(10.5556 3.96671 -5.30107e-20)
(9.70785 4.39246 3.76348e-19)
(10.1604 4.38736 2.3779e-20)
(9.11243 4.74275 -9.80191e-19)
(9.6375 4.79445 -1.04939e-18)
(8.32169 5.00307 1.51462e-18)
(8.9246 5.12755 3.33308e-20)
(7.29951 5.12313 1.46416e-18)
(7.97459 5.34083 1.97292e-18)
(5.97133 5.13486 1.0782e-19)
(6.7823 5.37909 -6.90971e-21)
(4.34158 5.26168 -2.15883e-19)
(5.27438 5.33653 9.01503e-19)
(3.33537 5.18514 -3.15337e-19)
(3.52432 5.40839 1.40377e-18)
(3.8915 4.45177 0)
(3.05764 5.13674 0)
(6.03262 3.15865 0)
(4.32442 4.08679 7.00265e-19)
(8.99387 1.75584 1.11108e-18)
(7.19424 2.65131 -6.70454e-19)
(11.6214 0.669211 6.61941e-19)
(10.2935 1.39245 1.16345e-18)
(13.1949 0.0553066 -6.04743e-19)
(12.613 0.51864 -4.15187e-19)
(13.6587 -0.168927 -2.01274e-19)
(13.612 0.0613091 -1.40352e-20)
(13.4405 -0.193325 -1.78593e-20)
(13.6582 -0.0792914 -4.62016e-21)
(13.0246 -0.170759 -9.27757e-21)
(13.2225 -0.100327 4.91124e-21)
(12.6965 -0.14289 -2.80244e-21)
(12.8304 -0.0873995 6.76452e-22)
(12.4674 -0.123344 -3.8023e-20)
(12.5646 -0.082945 4.1815e-21)
(12.2915 -0.102204 -2.1193e-21)
(12.371 -0.0743051 -9.82266e-20)
(12.1521 -0.0809972 1.07195e-19)
(12.2142 -0.0603681 3.89063e-20)
(12.0442 -0.0607783 1.13221e-20)
(12.0929 -0.0458938 6.25922e-20)
(11.961 -0.0426278 -4.86365e-20)
(11.9982 -0.0312901 3.46134e-21)
(11.8971 -0.027874 -6.28409e-21)
(11.9253 -0.0189824 9.91839e-22)
(11.8464 -0.0155198 -3.25084e-20)
(11.8688 -0.00847772 -5.39684e-20)
(11.8062 -0.00460074 -6.014e-20)
(11.8237 0.00287976 -3.26503e-20)
(11.7872 0.0106727 -1.04943e-19)
(11.7762 0.00226379 -3.05488e-20)
(11.9408 0.559305 4.24599e-19)
(12.0393 0.506013 5.78319e-19)
(11.967 0.470991 4.08605e-18)
(11.9402 0.653285 -7.65398e-19)
(12.0375 0.597726 -5.47682e-19)
(11.9396 0.757136 -1.2914e-19)
(12.0426 0.704945 3.70963e-19)
(11.9345 0.875399 4.44812e-19)
(12.0423 0.810519 -2.43933e-19)
(11.9301 1.01215 6.50111e-19)
(12.043 0.932085 4.10355e-19)
(11.9267 1.17085 2.59961e-19)
(12.0475 1.07777 2.51464e-19)
(11.9192 1.35396 6.04323e-19)
(12.0511 1.24822 6.96186e-19)
(11.9013 1.56357 6.27241e-19)
(12.0478 1.44598 -2.03534e-20)
(11.8676 1.80117 6.69086e-19)
(12.0311 1.67345 0)
(11.8098 2.06849 6.87597e-19)
(11.9964 1.93488 -3.42632e-20)
(11.7189 2.36358 -1.47815e-18)
(11.93 2.22848 0)
(11.5845 2.68673 -1.53496e-18)
(11.8289 2.55553 1.66258e-19)
(11.4048 3.03468 -4.51829e-20)
(11.6762 2.91358 -5.34181e-20)
(11.1795 3.41552 -6.29963e-20)
(11.4896 3.30625 1.6534e-21)
(10.9015 3.82695 -1.35375e-19)
(11.25 3.73879 8.42289e-22)
(10.5523 4.27362 -1.51769e-18)
(10.9584 4.20151 -5.22637e-20)
(10.0866 4.72467 -1.46377e-18)
(10.5673 4.68787 -1.45666e-18)
(9.44432 5.12945 0)
(10.0121 5.14875 0)
(8.57069 5.42383 5.44263e-19)
(9.22432 5.51975 -2.39682e-18)
(7.44742 5.55526 5.24738e-19)
(8.16481 5.741 -9.71028e-19)
(6.06959 5.51365 8.0505e-19)
(6.85679 5.76171 -6.9167e-21)
(4.4062 5.49395 1.11928e-18)
(5.32586 5.6153 -7.74244e-21)
(3.20083 5.42977 3.15702e-19)
(3.51908 5.56036 -4.49603e-19)
(3.49204 4.78714 7.15539e-19)
(2.76933 5.32778 0)
(5.51511 3.63929 1.02493e-20)
(3.83312 4.43299 -2.51205e-19)
(8.5291 2.3026 -6.68014e-19)
(6.64796 3.11457 -2.06475e-20)
(11.315 1.19401 5.2265e-20)
(9.86759 1.91612 6.62108e-19)
(13.0438 0.490712 1.97762e-19)
(12.3582 1.01649 0)
(13.6096 0.153033 1.90838e-19)
(13.494 0.456618 1.98288e-19)
(13.4297 0.0305713 0)
(13.614 0.190243 -2.10722e-20)
(13.0195 -0.00940559 1.59446e-20)
(13.2049 0.0900225 7.94582e-22)
(12.6925 -0.0209417 1.38246e-20)
(12.8218 0.0548298 1.05717e-20)
(12.4635 -0.0298414 -5.86978e-20)
(12.5543 0.0257329 -1.50793e-20)
(12.2898 -0.0290198 -5.54886e-20)
(12.3645 0.00900641 8.40238e-21)
(12.152 -0.0226161 -7.35924e-21)
(12.2104 0.00569967 1.04372e-19)
(12.0451 -0.0136051 5.35859e-20)
(12.0907 0.00682464 -7.38302e-21)
(11.9623 -0.00411017 5.40264e-20)
(11.9967 0.0111543 -2.28719e-20)
(11.8982 0.00429839 -7.88044e-21)
(11.9236 0.0157555 2.19281e-20)
(11.8477 0.0117913 3.32879e-20)
(11.8671 0.0204746 5.47198e-21)
(11.8071 0.0181575 -4.37203e-20)
(11.8223 0.0264005 2.76189e-20)
(11.7845 0.0296853 -1.25055e-19)
(11.7744 0.0215844 -3.72081e-19)
(12.1382 0.570929 -4.58837e-21)
(12.2261 0.526219 1.20564e-20)
(12.1574 0.493671 1.09948e-19)
(12.1395 0.654929 5.43706e-19)
(12.226 0.595167 -1.45684e-18)
(12.1442 0.750233 2.67326e-19)
(12.235 0.687337 1.26258e-18)
(12.1496 0.862221 -2.92876e-19)
(12.2451 0.788046 -1.02129e-18)
(12.1588 0.995037 2.24216e-20)
(12.2597 0.905199 1.47953e-20)
(12.1699 1.15207 6.71922e-19)
(12.2792 1.0473 0)
(12.1775 1.33634 8.48021e-20)
(12.2982 1.21638 -2.28612e-20)
(12.1752 1.55105 -6.43429e-19)
(12.3115 1.41654 -1.45022e-18)
(12.1572 1.79849 -6.82398e-19)
(12.3117 1.64952 0)
(12.1138 2.07988 -7.02782e-19)
(12.2939 1.92141 -6.85326e-19)
(12.0373 2.39395 1.60205e-18)
(12.2423 2.22978 2.44501e-19)
(11.9182 2.74437 1.55448e-18)
(12.1606 2.57988 1.35835e-18)
(11.7584 3.12733 -5.53694e-20)
(12.0257 2.9709 2.30666e-18)
(11.5571 3.55544 0)
(11.8696 3.40671 1.51361e-19)
(11.3036 4.01685 0)
(11.6527 3.89235 -2.33648e-19)
(10.9714 4.51402 0)
(11.3846 4.40811 -2.8616e-18)
(10.4907 5.01578 0)
(10.9944 4.94703 3.11055e-18)
(9.78777 5.45795 -2.39431e-18)
(10.393 5.44239 0)
(8.81251 5.76745 -3.87246e-18)
(9.51253 5.83085 8.50145e-20)
(7.5649 5.88916 -1.47906e-18)
(8.32252 6.02888 1.42143e-18)
(6.10049 5.80173 -7.9818e-19)
(6.87493 6.0065 9.16682e-21)
(4.40789 5.64881 -1.56709e-18)
(5.2852 5.78772 -7.94277e-19)
(3.05415 5.52598 -7.66127e-19)
(3.4623 5.60239 -9.95965e-19)
(3.10241 4.97659 -7.06339e-19)
(2.48778 5.36511 0)
(4.98815 3.98212 -6.57535e-20)
(3.35188 4.6042 -8.88141e-19)
(8.02145 2.76875 1.23406e-18)
(6.08468 3.44975 6.29888e-19)
(10.9425 1.69405 6.07959e-19)
(9.38897 2.37504 -7.44611e-21)
(12.8232 0.937403 0)
(12.0326 1.5013 0)
(13.5005 0.495305 -2.19348e-20)
(13.3075 0.864452 0)
(13.3831 0.263874 -3.3148e-20)
(13.517 0.473267 -1.448e-20)
(12.9985 0.162075 -5.18011e-21)
(13.1653 0.294235 8.34553e-22)
(12.6772 0.108182 -2.07582e-20)
(12.799 0.204892 -6.01827e-21)
(12.4506 0.0683865 6.10734e-20)
(12.5324 0.140863 -1.51351e-20)
(12.2811 0.047282 1.78237e-19)
(12.3493 0.0965612 7.22896e-20)
(12.1461 0.0376973 1.04837e-19)
(12.1998 0.0743921 3.7383e-20)
(12.0408 0.0346672 -5.43525e-20)
(12.0827 0.0613633 -2.35257e-20)
(11.9587 0.0349286 -2.03244e-20)
(11.9901 0.0546958 -4.77517e-20)
(11.8947 0.0365202 2.0841e-20)
(11.9174 0.0511232 -8.12165e-20)
(11.8444 0.0387465 0)
(11.8612 0.0495241 3.20309e-21)
(11.8039 0.040503 7.3957e-20)
(11.8167 0.0495688 -2.93897e-20)
(11.7785 0.0479751 1.50517e-19)
(11.7702 0.040681 2.65379e-19)
(12.3162 0.559359 -1.35888e-18)
(12.3907 0.513584 2.1705e-19)
(12.3253 0.493928 -1.32779e-18)
(12.3213 0.633671 -9.06951e-19)
(12.3942 0.569404 -2.22578e-18)
(12.334 0.720687 2.04475e-20)
(12.4095 0.646914 6.48293e-19)
(12.353 0.826213 -7.4373e-19)
(12.4333 0.741428 5.25023e-20)
(12.3778 0.954461 -1.50798e-20)
(12.4639 0.854276 -4.5238e-19)
(12.4049 1.10885 -6.88349e-19)
(12.4997 0.992487 7.89e-19)
(12.4295 1.29313 -1.51995e-18)
(12.5356 1.15923 -1.13505e-18)
(12.4455 1.51156 -8.32186e-19)
(12.5679 1.36058 -4.65116e-19)
(12.446 1.76744 0)
(12.5878 1.59812 4.91145e-19)
(12.4195 2.06347 2.38313e-19)
(12.5907 1.87978 -4.84743e-19)
(12.3617 2.39713 -2.95231e-20)
(12.5565 2.20363 5.23303e-19)
(12.2642 2.77823 2.07115e-18)
(12.5027 2.57859 -3.03816e-18)
(12.1321 3.19931 2.50321e-18)
(12.3917 3.00666 2.05583e-19)
(11.9599 3.67754 -1.8666e-19)
(12.2749 3.48742 -1.87726e-19)
(11.7278 4.18641 -2.97413e-18)
(12.0768 4.02378 -4.24631e-19)
(11.4023 4.72468 2.40915e-19)
(11.8225 4.57925 3.71561e-18)
(10.8936 5.24606 3.09044e-18)
(11.411 5.14811 -9.98984e-20)
(10.1137 5.69969 2.40437e-18)
(10.7493 5.64687 -3.76412e-18)
(9.01432 5.99243 5.30137e-18)
(9.75291 6.02633 6.42837e-18)
(7.62533 6.0686 2.90746e-18)
(8.40954 6.17015 3.9585e-18)
(6.05436 5.93635 9.10945e-21)
(6.82365 6.08944 9.15836e-21)
(4.32545 5.69007 -3.45811e-19)
(5.15454 5.80144 0)
(2.87547 5.48285 -3.40252e-19)
(3.3308 5.5123 7.13947e-19)
(2.72763 4.97828 -1.86828e-19)
(2.18589 5.24727 0)
(4.46268 4.16643 -3.28664e-19)
(2.8928 4.58992 -2.23612e-19)
(7.48298 3.12872 -6.07918e-19)
(5.52268 3.63096 -6.6089e-19)
(10.51 2.15321 -5.97727e-19)
(8.87803 2.74151 -6.14269e-19)
(12.5339 1.3786 0)
(11.6386 1.94672 0)
(13.3255 0.841128 2.04905e-20)
(13.0426 1.26575 -4.78624e-20)
(13.2914 0.514021 1.97917e-20)
(13.364 0.770352 -5.76515e-20)
(12.9573 0.345277 0)
(13.0948 0.512728 6.86036e-20)
(12.6473 0.245383 0)
(12.7571 0.362629 0)
(12.4263 0.172153 0)
(12.4954 0.262308 0)
(12.2637 0.127209 -8.11563e-20)
(12.3225 0.188583 3.19708e-20)
(12.1332 0.10036 -1.05434e-19)
(12.1806 0.145882 -1.15263e-19)
(12.0306 0.0843776 -1.63626e-20)
(12.0677 0.117907 6.40743e-21)
(11.95 0.0747281 -2.24921e-20)
(11.9776 0.099477 -1.17974e-20)
(11.8866 0.0689647 -3.47874e-20)
(11.9064 0.0872309 -3.17678e-20)
(11.8368 0.0652151 -2.73379e-20)
(11.8508 0.0785871 3.39177e-21)
(11.797 0.0619476 4.28516e-20)
(11.8067 0.072323 -9.62236e-20)
(11.7692 0.0653558 2.06257e-19)
(11.7634 0.0582023 7.1527e-20)
(12.4656 0.520949 -5.52383e-19)
(12.5211 0.461884 3.84484e-18)
(12.4625 0.468103 1.82386e-19)
(12.4807 0.586092 -8.91282e-19)
(12.5378 0.514265 -1.57251e-18)
(12.506 0.666309 6.71488e-19)
(12.5653 0.582421 -8.53435e-19)
(12.541 0.765986 3.62787e-19)
(12.6048 0.670648 -1.18541e-19)
(12.5826 0.889312 3.13089e-19)
(12.6524 0.778856 1.35274e-18)
(12.6272 1.04032 3.7801e-19)
(12.7055 0.912671 -1.01782e-18)
(12.6707 1.22364 -1.11376e-19)
(12.7602 1.07669 -4.99959e-19)
(12.7071 1.44424 8.26403e-19)
(12.8129 1.27732 2.23742e-18)
(12.7296 1.70674 2.71078e-20)
(12.8552 1.51821 -1.72314e-18)
(12.7252 2.01679 -2.09125e-19)
(12.8836 1.80839 1.91967e-18)
(12.6939 2.374 -2.46029e-18)
(12.8751 2.15052 2.77722e-19)
(12.6257 2.79067 -4.82369e-18)
(12.8592 2.55429 5.2304e-19)
(12.5281 3.25218 -2.52094e-18)
(12.7763 3.02397 4.58882e-19)
(12.3854 3.78022 -5.27071e-19)
(12.704 3.54813 9.84121e-20)
(12.1645 4.32575 6.41188e-18)
(12.5106 4.12812 -6.23254e-19)
(11.8247 4.88877 3.57318e-18)
(12.254 4.70463 -1.85728e-18)
(11.2623 5.40021 -6.55395e-18)
(11.7864 5.2724 -7.14832e-18)
(10.3873 5.82221 2.86657e-19)
(11.0372 5.73277 1.88213e-19)
(9.14959 6.06902 4.86892e-18)
(9.90897 6.07108 -4.63244e-18)
(7.61053 6.09423 8.52391e-19)
(8.4103 6.14866 6.77225e-18)
(5.92159 5.9091 0)
(6.68529 5.99145 0)
(4.1505 5.56975 1.1197e-18)
(4.91843 5.62733 3.18429e-18)
(2.65171 5.27195 1.10326e-18)
(3.10475 5.24883 3.07094e-18)
(2.37202 4.79053 1.79156e-19)
(1.84581 4.95891 3.73184e-19)
(3.95814 4.19563 -5.05752e-19)
(2.47492 4.38401 -8.12266e-19)
(6.93616 3.36007 -6.66255e-19)
(4.97409 3.64726 -4.19622e-19)
(10.0313 2.54245 0)
(8.3577 2.99039 -1.7771e-20)
(12.168 1.79358 -4.94753e-20)
(11.1852 2.32137 2.16065e-20)
(13.0891 1.17956 -1.29225e-19)
(12.6926 1.63876 -1.88602e-20)
(13.1596 0.779983 5.47037e-20)
(13.1554 1.07666 5.26982e-22)
(12.8873 0.53701 6.90624e-20)
(12.9804 0.739538 -2.14238e-20)
(12.5985 0.388771 0)
(12.6899 0.525973 1.05111e-19)
(12.387 0.281219 3.36696e-20)
(12.4395 0.388883 8.69378e-20)
(12.235 0.210787 -1.25933e-20)
(12.2805 0.284386 -5.57072e-20)
(12.1118 0.165498 -2.55675e-22)
(12.1502 0.219902 -3.55147e-20)
(12.0134 0.135669 6.30402e-21)
(12.0441 0.176193 6.65351e-20)
(11.9353 0.115403 -3.00726e-20)
(11.9582 0.145355 -6.16592e-21)
(11.8733 0.101588 -7.31943e-21)
(11.8896 0.123946 -9.609e-20)
(11.8246 0.0911602 7.07909e-20)
(11.8354 0.10739 1.10987e-19)
(11.7859 0.0824363 -5.09486e-20)
(11.7921 0.0944688 1.21586e-19)
(11.7559 0.0817457 -6.28179e-20)
(11.7535 0.0743131 -2.22782e-19)
(12.591 0.450624 2.92834e-18)
(12.6324 0.379797 3.53344e-18)
(12.5755 0.402286 3.00802e-18)
(12.6204 0.510683 -1.57657e-18)
(12.6626 0.430161 -7.65992e-19)
(12.6614 0.586322 -1.65703e-18)
(12.7048 0.493771 -1.68927e-18)
(12.7127 0.681332 8.16676e-19)
(12.7599 0.576773 -8.78104e-19)
(12.7713 0.799714 9.76863e-20)
(12.8236 0.680467 8.35668e-19)
(12.8343 0.94669 -1.88605e-18)
(12.8942 0.808434 -1.73822e-18)
(12.8981 1.1279 1.74125e-18)
(12.9695 0.969977 9.49802e-19)
(12.9569 1.34884 -2.19621e-19)
(13.0431 1.16637 1.74393e-18)
(13.0053 1.61641 1.07949e-19)
(13.1117 1.41043 1.22468e-18)
(13.0303 1.94104 2.39934e-18)
(13.1725 1.7065 -7.96315e-19)
(13.0368 2.32328 3.20419e-18)
(13.2003 2.07258 6.68614e-19)
(13.0068 2.78305 5.75913e-18)
(13.2364 2.50704 3.2081e-18)
(12.9463 3.28579 2.89888e-18)
(13.1801 3.02333 -8.37972e-19)
(12.8249 3.85959 -8.2959e-20)
(13.1507 3.58461 4.44728e-18)
(12.594 4.42428 -8.63133e-18)
(12.9349 4.19537 -4.93719e-18)
(12.2107 4.98719 -1.1888e-17)
(12.6523 4.76943 -4.49959e-18)
(11.558 5.4554 -3.39093e-21)
(12.0847 5.29755 1.85156e-18)
(10.564 5.80127 -4.998e-18)
(11.2108 5.67106 3.00962e-18)
(9.17877 5.98808 -3.34014e-18)
(9.94166 5.90204 2.047e-18)
(7.48732 5.94219 5.61325e-18)
(8.27441 5.87516 -1.46437e-17)
(5.68019 5.67785 3.20175e-18)
(6.41087 5.63239 -5.10946e-18)
(3.86972 5.25681 5.13996e-18)
(4.56393 5.22614 -3.50455e-18)
(2.369 4.8648 2.32443e-18)
(2.76673 4.78251 1.08999e-18)
(2.02724 4.41661 -9.59143e-19)
(1.46435 4.48123 6.49279e-18)
(3.48581 4.02897 2.81968e-19)
(2.09605 3.9816 -4.21988e-19)
(6.40006 3.44268 6.99755e-19)
(4.46936 3.4968 9.03944e-19)
(9.52877 2.81285 3.02935e-19)
(7.84281 3.10572 -6.73373e-19)