/*--------------------------------*- C++ -*----------------------------------*\
  =========                 |
  \\      /  F ield         | OpenFOAM: The Open Source CFD Toolbox
   \\    /   O peration     | Website:  https://openfoam.org
    \\  /    A nd           | Version:  6
     \\/     M anipulation  |
\*---------------------------------------------------------------------------*/
FoamFile
{
    version     2.0;
    format      ascii;
    class       volVectorField;
    location    "3.19";
    object      U;
}
// * * * * * * * * * * * * * * * * * * * * * * * * * * * * * * * * * * * * * //

dimensions      [0 1 -1 0 0 0 0];

internalField   nonuniform List<vector> 
5625
(
(0.894401 0.4472 0)
(0.894401 0.4472 0)
(0.8944 0.4472 0)
(0.8944 0.4472 0)
(0.8944 0.4472 0)
(0.8944 0.4472 0)
(0.8944 0.4472 0)
(0.8944 0.4472 0)
(0.8944 0.4472 0)
(0.8944 0.4472 0)
(0.8944 0.4472 0)
(0.8944 0.4472 0)
(0.8944 0.4472 0)
(0.8944 0.4472 0)
(0.8944 0.4472 0)
(0.8944 0.4472 0)
(0.8944 0.4472 0)
(0.8944 0.4472 0)
(0.8944 0.4472 0)
(0.8944 0.4472 0)
(0.8944 0.4472 0)
(0.8944 0.4472 0)
(0.8944 0.4472 0)
(0.8944 0.4472 0)
(0.8944 0.4472 0)
(0.8944 0.4472 0)
(0.8944 0.4472 0)
(0.8944 0.4472 0)
(0.8944 0.4472 0)
(0.8944 0.4472 0)
(0.8944 0.4472 0)
(0.8944 0.4472 0)
(0.894399 0.4472 0)
(0.894401 0.4472 0)
(0.894399 0.4472 0)
(0.894401 0.4472 0)
(0.8944 0.4472 0)
(0.8944 0.4472 0)
(0.8944 0.4472 0)
(0.894401 0.4472 0)
(0.894399 0.447201 0)
(0.894402 0.4472 0)
(0.894399 0.4472 0)
(0.894402 0.447201 0)
(0.8944 0.4472 0)
(0.894404 0.4472 0)
(0.894405 0.4472 0)
(0.894406 0.4472 0)
(0.89441 0.447201 0)
(0.894414 0.447202 0)
(0.894422 0.447201 0)
(0.89443 0.447203 0)
(0.894441 0.447202 0)
(0.894457 0.447205 0)
(0.894469 0.447204 0)
(0.894483 0.447203 0)
(0.894491 0.447201 0)
(0.894481 0.447188 0)
(0.894444 0.447172 0)
(0.894347 0.447132 0)
(0.894159 0.447059 0)
(0.893811 0.446931 0)
(0.893238 0.446714 0)
(0.892318 0.446356 0)
(0.890926 0.44579 0)
(0.888897 0.444922 0)
(0.886097 0.443639 0)
(0.882414 0.441825 0)
(0.877924 0.439369 0)
(0.872995 0.436238 0)
(0.868313 0.432514 0)
(0.86483 0.428336 0)
(0.863507 0.423763 0)
(0.864982 0.41871 0)
(0.869507 0.412918 0)
(0.894401 0.4472 0)
(0.894401 0.4472 0)
(0.8944 0.4472 0)
(0.8944 0.4472 0)
(0.8944 0.4472 0)
(0.8944 0.4472 0)
(0.8944 0.4472 0)
(0.8944 0.4472 0)
(0.8944 0.4472 0)
(0.8944 0.4472 0)
(0.8944 0.4472 0)
(0.8944 0.4472 0)
(0.8944 0.4472 0)
(0.8944 0.4472 0)
(0.8944 0.4472 0)
(0.8944 0.4472 0)
(0.8944 0.4472 0)
(0.8944 0.4472 0)
(0.8944 0.4472 0)
(0.8944 0.4472 0)
(0.8944 0.4472 0)
(0.8944 0.4472 0)
(0.8944 0.4472 0)
(0.8944 0.4472 0)
(0.8944 0.4472 0)
(0.8944 0.4472 0)
(0.8944 0.4472 0)
(0.8944 0.4472 0)
(0.8944 0.4472 0)
(0.8944 0.4472 0)
(0.8944 0.4472 0)
(0.8944 0.4472 0)
(0.8944 0.4472 0)
(0.8944 0.4472 0)
(0.8944 0.4472 0)
(0.8944 0.4472 0)
(0.8944 0.4472 0)
(0.8944 0.4472 0)
(0.894401 0.4472 0)
(0.8944 0.4472 0)
(0.8944 0.4472 0)
(0.8944 0.4472 0)
(0.8944 0.4472 0)
(0.894402 0.447201 0)
(0.894401 0.447199 0)
(0.894403 0.4472 0)
(0.894403 0.4472 0)
(0.894407 0.447201 0)
(0.89441 0.447201 0)
(0.894413 0.447201 0)
(0.894422 0.447203 0)
(0.894429 0.447203 0)
(0.89444 0.447205 0)
(0.894457 0.447206 0)
(0.894468 0.447208 0)
(0.894485 0.447207 0)
(0.894495 0.447208 0)
(0.894491 0.447198 0)
(0.894462 0.447185 0)
(0.894383 0.447153 0)
(0.894225 0.447087 0)
(0.893925 0.446975 0)
(0.893425 0.446775 0)
(0.892623 0.446446 0)
(0.891389 0.445922 0)
(0.889582 0.445106 0)
(0.887056 0.443901 0)
(0.883698 0.442168 0)
(0.879515 0.439806 0)
(0.874778 0.436758 0)
(0.870073 0.433076 0)
(0.866262 0.428926 0)
(0.864296 0.424447 0)
(0.864912 0.419634 0)
(0.868467 0.414313 0)
(0.894401 0.4472 0)
(0.8944 0.4472 0)
(0.8944 0.4472 0)
(0.8944 0.4472 0)
(0.8944 0.4472 0)
(0.8944 0.4472 0)
(0.8944 0.4472 0)
(0.8944 0.4472 0)
(0.8944 0.4472 0)
(0.8944 0.4472 0)
(0.8944 0.4472 0)
(0.8944 0.4472 0)
(0.8944 0.4472 0)
(0.8944 0.4472 0)
(0.8944 0.4472 0)
(0.8944 0.4472 0)
(0.8944 0.4472 0)
(0.8944 0.4472 0)
(0.8944 0.4472 0)
(0.8944 0.4472 0)
(0.8944 0.4472 0)
(0.8944 0.4472 0)
(0.8944 0.4472 0)
(0.8944 0.4472 0)
(0.8944 0.4472 0)
(0.8944 0.4472 0)
(0.8944 0.4472 0)
(0.8944 0.4472 0)
(0.8944 0.4472 0)
(0.8944 0.4472 0)
(0.8944 0.4472 0)
(0.8944 0.4472 0)
(0.8944 0.4472 0)
(0.8944 0.4472 0)
(0.894399 0.4472 0)
(0.8944 0.4472 0)
(0.894401 0.4472 0)
(0.894399 0.4472 0)
(0.894401 0.4472 0)
(0.894399 0.4472 0)
(0.894402 0.4472 0)
(0.894398 0.4472 0)
(0.894402 0.4472 0)
(0.8944 0.447199 0)
(0.894402 0.447201 0)
(0.894402 0.4472 0)
(0.894403 0.4472 0)
(0.894407 0.447201 0)
(0.89441 0.447201 0)
(0.894413 0.447202 0)
(0.894421 0.447203 0)
(0.894428 0.447204 0)
(0.894439 0.447207 0)
(0.894456 0.447208 0)
(0.894467 0.447209 0)
(0.894485 0.447213 0)
(0.894495 0.447212 0)
(0.894499 0.447209 0)
(0.894476 0.447198 0)
(0.894415 0.447172 0)
(0.894282 0.447116 0)
(0.894031 0.447015 0)
(0.893599 0.446839 0)
(0.892901 0.446539 0)
(0.89182 0.446059 0)
(0.890231 0.445306 0)
(0.887976 0.444183 0)
(0.884943 0.442556 0)
(0.8811 0.440308 0)
(0.87661 0.437369 0)
(0.871953 0.433765 0)
(0.867901 0.429649 0)
(0.86536 0.425216 0)
(0.865122 0.420563 0)
(0.867662 0.415598 0)
(0.894401 0.4472 0)
(0.8944 0.4472 0)
(0.8944 0.4472 0)
(0.8944 0.4472 0)
(0.8944 0.4472 0)
(0.8944 0.4472 0)
(0.8944 0.4472 0)
(0.8944 0.4472 0)
(0.8944 0.4472 0)
(0.8944 0.4472 0)
(0.8944 0.4472 0)
(0.8944 0.4472 0)
(0.8944 0.4472 0)
(0.8944 0.4472 0)
(0.8944 0.4472 0)
(0.8944 0.4472 0)
(0.8944 0.4472 0)
(0.8944 0.4472 0)
(0.8944 0.4472 0)
(0.8944 0.4472 0)
(0.8944 0.4472 0)
(0.8944 0.4472 0)
(0.8944 0.4472 0)
(0.8944 0.4472 0)
(0.8944 0.4472 0)
(0.8944 0.4472 0)
(0.8944 0.4472 0)
(0.8944 0.4472 0)
(0.8944 0.4472 0)
(0.8944 0.4472 0)
(0.8944 0.4472 0)
(0.8944 0.4472 0)
(0.8944 0.4472 0)
(0.8944 0.4472 0)
(0.8944 0.447199 0)
(0.8944 0.447201 0)
(0.8944 0.4472 0)
(0.8944 0.4472 0)
(0.894401 0.4472 0)
(0.894399 0.4472 0)
(0.894402 0.447199 0)
(0.894398 0.4472 0)
(0.894403 0.447201 0)
(0.894398 0.447199 0)
(0.894404 0.447201 0)
(0.894401 0.447201 0)
(0.894405 0.447201 0)
(0.894404 0.447201 0)
(0.89441 0.4472 0)
(0.894412 0.447203 0)
(0.89442 0.447204 0)
(0.894428 0.447204 0)
(0.894436 0.447208 0)
(0.894453 0.447209 0)
(0.894465 0.447213 0)
(0.894485 0.447216 0)
(0.894493 0.447216 0)
(0.894505 0.447219 0)
(0.894486 0.44721 0)
(0.894443 0.447187 0)
(0.894331 0.447145 0)
(0.894124 0.447055 0)
(0.893754 0.446902 0)
(0.893155 0.446633 0)
(0.89222 0.446198 0)
(0.890828 0.445518 0)
(0.888843 0.44448 0)
(0.886136 0.442974 0)
(0.882646 0.440863 0)
(0.87846 0.43806 0)
(0.873932 0.43457 0)
(0.869728 0.43051 0)
(0.866699 0.426106 0)
(0.865661 0.421534 0)
(0.867176 0.416812 0)
(0.894401 0.4472 0)
(0.8944 0.4472 0)
(0.8944 0.4472 0)
(0.8944 0.4472 0)
(0.8944 0.4472 0)
(0.8944 0.4472 0)
(0.8944 0.4472 0)
(0.8944 0.4472 0)
(0.8944 0.4472 0)
(0.8944 0.4472 0)
(0.8944 0.4472 0)
(0.8944 0.4472 0)
(0.8944 0.4472 0)
(0.8944 0.4472 0)
(0.8944 0.4472 0)
(0.8944 0.4472 0)
(0.8944 0.4472 0)
(0.8944 0.4472 0)
(0.8944 0.4472 0)
(0.8944 0.4472 0)
(0.8944 0.4472 0)
(0.8944 0.4472 0)
(0.8944 0.4472 0)
(0.8944 0.4472 0)
(0.8944 0.4472 0)
(0.8944 0.4472 0)
(0.8944 0.4472 0)
(0.8944 0.4472 0)
(0.8944 0.4472 0)
(0.8944 0.4472 0)
(0.8944 0.4472 0)
(0.8944 0.4472 0)
(0.8944 0.4472 0)
(0.8944 0.4472 0)
(0.8944 0.4472 0)
(0.894399 0.4472 0)
(0.8944 0.4472 0)
(0.894401 0.4472 0)
(0.8944 0.4472 0)
(0.8944 0.447201 0)
(0.8944 0.4472 0)
(0.8944 0.4472 0)
(0.894401 0.4472 0)
(0.894401 0.4472 0)
(0.894402 0.4472 0)
(0.894401 0.4472 0)
(0.894405 0.447201 0)
(0.894404 0.447201 0)
(0.89441 0.447202 0)
(0.894411 0.447202 0)
(0.894418 0.447205 0)
(0.894428 0.447205 0)
(0.894435 0.447208 0)
(0.894449 0.44721 0)
(0.894463 0.447216 0)
(0.894482 0.447218 0)
(0.894493 0.447223 0)
(0.894505 0.447223 0)
(0.894498 0.447221 0)
(0.894461 0.447204 0)
(0.894373 0.447168 0)
(0.894202 0.447097 0)
(0.893893 0.446958 0)
(0.893382 0.446725 0)
(0.892582 0.446339 0)
(0.891378 0.445724 0)
(0.889649 0.444787 0)
(0.887261 0.443409 0)
(0.884129 0.441454 0)
(0.88029 0.438821 0)
(0.875973 0.435474 0)
(0.87172 0.431506 0)
(0.86831 0.427137 0)
(0.866552 0.422595 0)
(0.867074 0.418002 0)
(0.894401 0.4472 0)
(0.8944 0.4472 0)
(0.8944 0.4472 0)
(0.8944 0.4472 0)
(0.8944 0.4472 0)
(0.8944 0.4472 0)
(0.8944 0.4472 0)
(0.8944 0.4472 0)
(0.8944 0.4472 0)
(0.8944 0.4472 0)
(0.8944 0.4472 0)
(0.8944 0.4472 0)
(0.8944 0.4472 0)
(0.8944 0.4472 0)
(0.8944 0.4472 0)
(0.8944 0.4472 0)
(0.8944 0.4472 0)
(0.8944 0.4472 0)
(0.8944 0.4472 0)
(0.8944 0.4472 0)
(0.8944 0.4472 0)
(0.8944 0.4472 0)
(0.8944 0.4472 0)
(0.8944 0.4472 0)
(0.8944 0.4472 0)
(0.8944 0.4472 0)
(0.8944 0.4472 0)
(0.8944 0.4472 0)
(0.8944 0.4472 0)
(0.8944 0.4472 0)
(0.8944 0.4472 0)
(0.8944 0.4472 0)
(0.894401 0.4472 0)
(0.894399 0.4472 0)
(0.8944 0.4472 0)
(0.8944 0.4472 0)
(0.8944 0.447199 0)
(0.894401 0.4472 0)
(0.894399 0.4472 0)
(0.894401 0.4472 0)
(0.8944 0.4472 0)
(0.894401 0.447201 0)
(0.894399 0.447199 0)
(0.894402 0.447201 0)
(0.8944 0.4472 0)
(0.894403 0.447201 0)
(0.894403 0.4472 0)
(0.894405 0.447201 0)
(0.894408 0.447202 0)
(0.894412 0.447202 0)
(0.894416 0.447204 0)
(0.894424 0.447206 0)
(0.894435 0.44721 0)
(0.894445 0.44721 0)
(0.894462 0.447217 0)
(0.894476 0.447221 0)
(0.894493 0.447226 0)
(0.894501 0.447229 0)
(0.894503 0.447228 0)
(0.894475 0.44722 0)
(0.89441 0.447189 0)
(0.894267 0.447131 0)
(0.894012 0.447015 0)
(0.893584 0.446812 0)
(0.892906 0.446475 0)
(0.891875 0.445929 0)
(0.890381 0.445091 0)
(0.888304 0.443846 0)
(0.885535 0.442064 0)
(0.882061 0.439624 0)
(0.878032 0.436462 0)
(0.873843 0.432632 0)
(0.870168 0.428319 0)
(0.867795 0.423786 0)
(0.867396 0.41924 0)
(0.894401 0.4472 0)
(0.8944 0.4472 0)
(0.8944 0.4472 0)
(0.8944 0.4472 0)
(0.8944 0.4472 0)
(0.8944 0.4472 0)
(0.8944 0.4472 0)
(0.8944 0.4472 0)
(0.8944 0.4472 0)
(0.8944 0.4472 0)
(0.8944 0.4472 0)
(0.8944 0.4472 0)
(0.8944 0.4472 0)
(0.8944 0.4472 0)
(0.8944 0.4472 0)
(0.8944 0.4472 0)
(0.8944 0.4472 0)
(0.8944 0.4472 0)
(0.8944 0.4472 0)
(0.8944 0.4472 0)
(0.8944 0.4472 0)
(0.8944 0.4472 0)
(0.8944 0.4472 0)
(0.8944 0.4472 0)
(0.8944 0.4472 0)
(0.8944 0.4472 0)
(0.8944 0.4472 0)
(0.8944 0.4472 0)
(0.8944 0.4472 0)
(0.8944 0.4472 0)
(0.8944 0.4472 0)
(0.8944 0.4472 0)
(0.8944 0.4472 0)
(0.8944 0.4472 0)
(0.894399 0.4472 0)
(0.894401 0.4472 0)
(0.8944 0.4472 0)
(0.8944 0.4472 0)
(0.8944 0.4472 0)
(0.8944 0.4472 0)
(0.8944 0.4472 0)
(0.894401 0.447201 0)
(0.8944 0.4472 0)
(0.894401 0.4472 0)
(0.8944 0.4472 0)
(0.894403 0.447201 0)
(0.894401 0.447201 0)
(0.894407 0.447201 0)
(0.894405 0.447202 0)
(0.894412 0.447202 0)
(0.894417 0.447205 0)
(0.89442 0.447205 0)
(0.894433 0.44721 0)
(0.894443 0.447212 0)
(0.894457 0.447217 0)
(0.894472 0.447223 0)
(0.894491 0.447228 0)
(0.8945 0.447235 0)
(0.894505 0.447235 0)
(0.894487 0.44723 0)
(0.894437 0.44721 0)
(0.894322 0.447161 0)
(0.894114 0.447067 0)
(0.89376 0.446893 0)
(0.893188 0.446601 0)
(0.892319 0.446128 0)
(0.891043 0.445387 0)
(0.889253 0.444278 0)
(0.886839 0.442676 0)
(0.883749 0.440449 0)
(0.880056 0.43751 0)
(0.876038 0.433863 0)
(0.87224 0.429652 0)
(0.869382 0.425137 0)
(0.868162 0.420585 0)
(0.894401 0.4472 0)
(0.8944 0.4472 0)
(0.8944 0.4472 0)
(0.8944 0.4472 0)
(0.8944 0.4472 0)
(0.8944 0.4472 0)
(0.8944 0.4472 0)
(0.8944 0.4472 0)
(0.8944 0.4472 0)
(0.8944 0.4472 0)
(0.8944 0.4472 0)
(0.8944 0.4472 0)
(0.8944 0.4472 0)
(0.8944 0.4472 0)
(0.8944 0.4472 0)
(0.8944 0.4472 0)
(0.8944 0.4472 0)
(0.8944 0.4472 0)
(0.8944 0.4472 0)
(0.8944 0.4472 0)
(0.8944 0.4472 0)
(0.8944 0.4472 0)
(0.8944 0.4472 0)
(0.8944 0.4472 0)
(0.8944 0.4472 0)
(0.8944 0.4472 0)
(0.8944 0.4472 0)
(0.8944 0.4472 0)
(0.8944 0.4472 0)
(0.8944 0.4472 0)
(0.8944 0.4472 0)
(0.8944 0.4472 0)
(0.8944 0.4472 0)
(0.8944 0.4472 0)
(0.8944 0.4472 0)
(0.8944 0.447199 0)
(0.8944 0.447201 0)
(0.8944 0.4472 0)
(0.894401 0.4472 0)
(0.894399 0.447201 0)
(0.894401 0.447199 0)
(0.894399 0.4472 0)
(0.894402 0.447201 0)
(0.894399 0.447199 0)
(0.894402 0.447201 0)
(0.894401 0.4472 0)
(0.894404 0.4472 0)
(0.894403 0.447202 0)
(0.894407 0.447201 0)
(0.89441 0.447203 0)
(0.894415 0.447204 0)
(0.894421 0.447207 0)
(0.894428 0.447208 0)
(0.894441 0.447214 0)
(0.894453 0.447218 0)
(0.894467 0.447224 0)
(0.894484 0.447231 0)
(0.894499 0.447236 0)
(0.8945 0.447242 0)
(0.894497 0.447239 0)
(0.894454 0.447226 0)
(0.894369 0.447189 0)
(0.894199 0.447112 0)
(0.89391 0.446968 0)
(0.893435 0.446719 0)
(0.892704 0.44631 0)
(0.891631 0.445666 0)
(0.890105 0.444694 0)
(0.888027 0.443272 0)
(0.885323 0.441275 0)
(0.882004 0.438589 0)
(0.878249 0.435172 0)
(0.874465 0.431122 0)
(0.871278 0.426664 0)
(0.869367 0.422087 0)
(0.894401 0.4472 0)
(0.8944 0.4472 0)
(0.8944 0.4472 0)
(0.8944 0.4472 0)
(0.8944 0.4472 0)
(0.8944 0.4472 0)
(0.8944 0.4472 0)
(0.8944 0.4472 0)
(0.8944 0.4472 0)
(0.8944 0.4472 0)
(0.8944 0.4472 0)
(0.8944 0.4472 0)
(0.8944 0.4472 0)
(0.8944 0.4472 0)
(0.8944 0.4472 0)
(0.8944 0.4472 0)
(0.8944 0.4472 0)
(0.8944 0.4472 0)
(0.8944 0.4472 0)
(0.8944 0.4472 0)
(0.8944 0.4472 0)
(0.8944 0.4472 0)
(0.8944 0.4472 0)
(0.894399 0.4472 0)
(0.894401 0.4472 0)
(0.8944 0.4472 0)
(0.8944 0.4472 0)
(0.8944 0.4472 0)
(0.8944 0.4472 0)
(0.8944 0.4472 0)
(0.8944 0.4472 0)
(0.8944 0.4472 0)
(0.8944 0.4472 0)
(0.8944 0.4472 0)
(0.8944 0.4472 0)
(0.8944 0.4472 0)
(0.8944 0.4472 0)
(0.8944 0.4472 0)
(0.894399 0.447199 0)
(0.8944 0.447201 0)
(0.894401 0.4472 0)
(0.894399 0.4472 0)
(0.894402 0.4472 0)
(0.8944 0.4472 0)
(0.894401 0.447201 0)
(0.894401 0.4472 0)
(0.894403 0.447201 0)
(0.894403 0.4472 0)
(0.894408 0.447202 0)
(0.894407 0.447203 0)
(0.894414 0.447204 0)
(0.89442 0.447206 0)
(0.894425 0.447209 0)
(0.894438 0.447212 0)
(0.89445 0.447219 0)
(0.894462 0.447223 0)
(0.894479 0.447233 0)
(0.894492 0.447239 0)
(0.8945 0.447245 0)
(0.894498 0.447248 0)
(0.894472 0.447238 0)
(0.894401 0.447213 0)
(0.89427 0.447151 0)
(0.894034 0.447034 0)
(0.893644 0.446827 0)
(0.893042 0.446478 0)
(0.892144 0.445926 0)
(0.890858 0.445085 0)
(0.889091 0.443841 0)
(0.886759 0.442074 0)
(0.883836 0.439662 0)
(0.880414 0.436527 0)
(0.876772 0.432699 0)
(0.873418 0.428358 0)
(0.870979 0.423783 0)
(0.8944 0.4472 0)
(0.8944 0.4472 0)
(0.8944 0.4472 0)
(0.8944 0.4472 0)
(0.8944 0.4472 0)
(0.8944 0.4472 0)
(0.8944 0.4472 0)
(0.8944 0.4472 0)
(0.8944 0.4472 0)
(0.8944 0.4472 0)
(0.8944 0.4472 0)
(0.8944 0.4472 0)
(0.8944 0.4472 0)
(0.8944 0.4472 0)
(0.8944 0.4472 0)
(0.8944 0.4472 0)
(0.8944 0.4472 0)
(0.8944 0.4472 0)
(0.8944 0.4472 0)
(0.8944 0.4472 0)
(0.8944 0.4472 0)
(0.8944 0.4472 0)
(0.8944 0.4472 0)
(0.8944 0.4472 0)
(0.8944 0.4472 0)
(0.8944 0.4472 0)
(0.8944 0.4472 0)
(0.8944 0.4472 0)
(0.8944 0.4472 0)
(0.8944 0.4472 0)
(0.8944 0.4472 0)
(0.8944 0.4472 0)
(0.8944 0.4472 0)
(0.8944 0.4472 0)
(0.8944 0.4472 0)
(0.8944 0.4472 0)
(0.894399 0.4472 0)
(0.894401 0.4472 0)
(0.8944 0.447201 0)
(0.8944 0.447199 0)
(0.894401 0.4472 0)
(0.8944 0.447201 0)
(0.8944 0.447199 0)
(0.894401 0.4472 0)
(0.8944 0.4472 0)
(0.894402 0.447201 0)
(0.894402 0.4472 0)
(0.894405 0.447202 0)
(0.894403 0.447202 0)
(0.89441 0.447202 0)
(0.89441 0.447205 0)
(0.894418 0.447206 0)
(0.894426 0.44721 0)
(0.89443 0.447212 0)
(0.894446 0.447218 0)
(0.894458 0.447225 0)
(0.894472 0.44723 0)
(0.894487 0.447242 0)
(0.894498 0.447247 0)
(0.894494 0.447253 0)
(0.894482 0.44725 0)
(0.894429 0.447229 0)
(0.894323 0.447187 0)
(0.894136 0.44709 0)
(0.893822 0.446919 0)
(0.893327 0.446631 0)
(0.892585 0.446163 0)
(0.891514 0.445444 0)
(0.890029 0.44437 0)
(0.88805 0.44283 0)
(0.885518 0.440702 0)
(0.88247 0.43788 0)
(0.879085 0.434342 0)
(0.875725 0.430195 0)
(0.872939 0.425679 0)
(0.8944 0.4472 0)
(0.8944 0.4472 0)
(0.8944 0.4472 0)
(0.8944 0.4472 0)
(0.8944 0.4472 0)
(0.8944 0.4472 0)
(0.8944 0.4472 0)
(0.8944 0.4472 0)
(0.8944 0.4472 0)
(0.8944 0.4472 0)
(0.8944 0.4472 0)
(0.8944 0.4472 0)
(0.8944 0.4472 0)
(0.8944 0.4472 0)
(0.8944 0.4472 0)
(0.8944 0.4472 0)
(0.8944 0.4472 0)
(0.8944 0.4472 0)
(0.8944 0.4472 0)
(0.8944 0.4472 0)
(0.8944 0.4472 0)
(0.8944 0.4472 0)
(0.8944 0.4472 0)
(0.8944 0.4472 0)
(0.8944 0.4472 0)
(0.8944 0.4472 0)
(0.8944 0.4472 0)
(0.8944 0.4472 0)
(0.8944 0.4472 0)
(0.8944 0.4472 0)
(0.894399 0.4472 0)
(0.8944 0.4472 0)
(0.8944 0.4472 0)
(0.8944 0.447201 0)
(0.8944 0.447199 0)
(0.8944 0.447201 0)
(0.8944 0.4472 0)
(0.8944 0.4472 0)
(0.8944 0.4472 0)
(0.894401 0.4472 0)
(0.8944 0.4472 0)
(0.8944 0.4472 0)
(0.8944 0.447199 0)
(0.894401 0.447201 0)
(0.894399 0.4472 0)
(0.894403 0.447199 0)
(0.894401 0.447202 0)
(0.894403 0.447201 0)
(0.894405 0.447201 0)
(0.894407 0.447203 0)
(0.89441 0.447203 0)
(0.894416 0.447207 0)
(0.894422 0.447209 0)
(0.89443 0.447213 0)
(0.89444 0.447217 0)
(0.894453 0.447225 0)
(0.894467 0.447231 0)
(0.894479 0.44724 0)
(0.894492 0.44725 0)
(0.894495 0.447254 0)
(0.894485 0.447257 0)
(0.894447 0.447248 0)
(0.894368 0.447208 0)
(0.894218 0.44714 0)
(0.893968 0.447002 0)
(0.893565 0.446762 0)
(0.892959 0.446374 0)
(0.892079 0.445766 0)
(0.890844 0.444855 0)
(0.88918 0.443534 0)
(0.887029 0.441681 0)
(0.884377 0.439189 0)
(0.881317 0.435991 0)
(0.878104 0.432123 0)
(0.87516 0.427759 0)
(0.8944 0.4472 0)
(0.8944 0.4472 0)
(0.8944 0.4472 0)
(0.8944 0.4472 0)
(0.8944 0.4472 0)
(0.8944 0.4472 0)
(0.8944 0.4472 0)
(0.8944 0.4472 0)
(0.8944 0.4472 0)
(0.8944 0.4472 0)
(0.8944 0.4472 0)
(0.8944 0.4472 0)
(0.8944 0.4472 0)
(0.8944 0.4472 0)
(0.8944 0.4472 0)
(0.8944 0.4472 0)
(0.8944 0.4472 0)
(0.8944 0.4472 0)
(0.8944 0.4472 0)
(0.8944 0.4472 0)
(0.8944 0.4472 0)
(0.8944 0.4472 0)
(0.8944 0.4472 0)
(0.8944 0.4472 0)
(0.8944 0.4472 0)
(0.8944 0.4472 0)
(0.8944 0.4472 0)
(0.8944 0.4472 0)
(0.8944 0.4472 0)
(0.8944 0.4472 0)
(0.8944 0.447201 0)
(0.8944 0.447199 0)
(0.8944 0.4472 0)
(0.8944 0.4472 0)
(0.8944 0.4472 0)
(0.8944 0.447199 0)
(0.8944 0.447201 0)
(0.8944 0.4472 0)
(0.8944 0.4472 0)
(0.8944 0.4472 0)
(0.8944 0.4472 0)
(0.8944 0.4472 0)
(0.894401 0.4472 0)
(0.8944 0.447201 0)
(0.894401 0.4472 0)
(0.894402 0.447201 0)
(0.8944 0.4472 0)
(0.894404 0.447201 0)
(0.894403 0.447201 0)
(0.894407 0.447203 0)
(0.89441 0.447204 0)
(0.894413 0.447206 0)
(0.894419 0.447207 0)
(0.894427 0.447214 0)
(0.894437 0.447217 0)
(0.894445 0.447221 0)
(0.894462 0.447233 0)
(0.894471 0.447238 0)
(0.894487 0.447249 0)
(0.89449 0.447259 0)
(0.894486 0.44726 0)
(0.89446 0.447256 0)
(0.894399 0.447234 0)
(0.894283 0.447177 0)
(0.894082 0.44707 0)
(0.893766 0.446878 0)
(0.893273 0.446555 0)
(0.892553 0.446055 0)
(0.891543 0.445288 0)
(0.890165 0.444167 0)
(0.888357 0.442585 0)
(0.886094 0.440423 0)
(0.883407 0.437592 0)
(0.88045 0.434073 0)
(0.877527 0.429965 0)
(0.8944 0.4472 0)
(0.8944 0.4472 0)
(0.8944 0.4472 0)
(0.8944 0.4472 0)
(0.8944 0.4472 0)
(0.8944 0.4472 0)
(0.8944 0.4472 0)
(0.8944 0.4472 0)
(0.8944 0.4472 0)
(0.8944 0.4472 0)
(0.8944 0.4472 0)
(0.8944 0.4472 0)
(0.8944 0.4472 0)
(0.8944 0.4472 0)
(0.8944 0.4472 0)
(0.8944 0.4472 0)
(0.8944 0.4472 0)
(0.8944 0.4472 0)
(0.8944 0.4472 0)
(0.8944 0.4472 0)
(0.8944 0.4472 0)
(0.8944 0.4472 0)
(0.8944 0.4472 0)
(0.8944 0.4472 0)
(0.8944 0.4472 0)
(0.8944 0.4472 0)
(0.8944 0.4472 0)
(0.8944 0.4472 0)
(0.8944 0.4472 0)
(0.8944 0.4472 0)
(0.894401 0.4472 0)
(0.8944 0.4472 0)
(0.8944 0.4472 0)
(0.8944 0.4472 0)
(0.8944 0.4472 0)
(0.894399 0.4472 0)
(0.8944 0.4472 0)
(0.8944 0.4472 0)
(0.894399 0.4472 0)
(0.894401 0.4472 0)
(0.8944 0.4472 0)
(0.894399 0.4472 0)
(0.894401 0.4472 0)
(0.894401 0.4472 0)
(0.8944 0.447201 0)
(0.894402 0.447199 0)
(0.894401 0.447201 0)
(0.894402 0.447201 0)
(0.894405 0.447201 0)
(0.894404 0.447202 0)
(0.894409 0.447204 0)
(0.894412 0.447205 0)
(0.894416 0.447207 0)
(0.894425 0.447211 0)
(0.894431 0.447218 0)
(0.894441 0.447221 0)
(0.894455 0.447229 0)
(0.894467 0.447239 0)
(0.894475 0.447247 0)
(0.894487 0.447259 0)
(0.894485 0.447264 0)
(0.894466 0.447263 0)
(0.894422 0.447251 0)
(0.894333 0.447207 0)
(0.894179 0.447124 0)
(0.893923 0.446975 0)
(0.893531 0.446714 0)
(0.892952 0.4463 0)
(0.892129 0.445669 0)
(0.891001 0.444732 0)
(0.889507 0.443396 0)
(0.887608 0.441554 0)
(0.885305 0.439099 0)
(0.882674 0.435977 0)
(0.879915 0.432215 0)
(0.8944 0.4472 0)
(0.8944 0.4472 0)
(0.8944 0.4472 0)
(0.8944 0.4472 0)
(0.8944 0.4472 0)
(0.8944 0.4472 0)
(0.8944 0.4472 0)
(0.8944 0.4472 0)
(0.8944 0.4472 0)
(0.8944 0.4472 0)
(0.8944 0.4472 0)
(0.8944 0.4472 0)
(0.8944 0.4472 0)
(0.8944 0.4472 0)
(0.8944 0.4472 0)
(0.8944 0.4472 0)
(0.8944 0.4472 0)
(0.8944 0.4472 0)
(0.8944 0.4472 0)
(0.8944 0.4472 0)
(0.8944 0.4472 0)
(0.8944 0.4472 0)
(0.8944 0.4472 0)
(0.8944 0.4472 0)
(0.8944 0.4472 0)
(0.8944 0.4472 0)
(0.8944 0.4472 0)
(0.8944 0.4472 0)
(0.8944 0.4472 0)
(0.8944 0.4472 0)
(0.8944 0.4472 0)
(0.8944 0.4472 0)
(0.8944 0.4472 0)
(0.8944 0.4472 0)
(0.8944 0.4472 0)
(0.8944 0.4472 0)
(0.8944 0.4472 0)
(0.8944 0.4472 0)
(0.8944 0.4472 0)
(0.8944 0.4472 0)
(0.8944 0.447201 0)
(0.894399 0.4472 0)
(0.894401 0.4472 0)
(0.8944 0.447201 0)
(0.894402 0.4472 0)
(0.894399 0.4472 0)
(0.894402 0.4472 0)
(0.894401 0.447201 0)
(0.894405 0.447201 0)
(0.894404 0.447202 0)
(0.894407 0.447202 0)
(0.894412 0.447205 0)
(0.894414 0.447207 0)
(0.894421 0.44721 0)
(0.894428 0.447215 0)
(0.894438 0.447222 0)
(0.894447 0.447227 0)
(0.89446 0.447236 0)
(0.894471 0.447245 0)
(0.894477 0.447258 0)
(0.894481 0.447263 0)
(0.894471 0.447268 0)
(0.894435 0.44726 0)
(0.89437 0.447231 0)
(0.894249 0.447169 0)
(0.894049 0.447051 0)
(0.893741 0.446846 0)
(0.893278 0.446513 0)
(0.892616 0.445995 0)
(0.891705 0.445225 0)
(0.890484 0.444115 0)
(0.888914 0.442564 0)
(0.886979 0.440476 0)
(0.884706 0.437771 0)
(0.882218 0.43442 0)
(0.8944 0.4472 0)
(0.8944 0.4472 0)
(0.8944 0.4472 0)
(0.8944 0.4472 0)
(0.8944 0.4472 0)
(0.8944 0.4472 0)
(0.8944 0.4472 0)
(0.8944 0.4472 0)
(0.8944 0.4472 0)
(0.8944 0.4472 0)
(0.8944 0.4472 0)
(0.8944 0.4472 0)
(0.8944 0.4472 0)
(0.8944 0.4472 0)
(0.8944 0.4472 0)
(0.8944 0.4472 0)
(0.8944 0.4472 0)
(0.8944 0.4472 0)
(0.8944 0.4472 0)
(0.8944 0.4472 0)
(0.8944 0.4472 0)
(0.8944 0.4472 0)
(0.8944 0.4472 0)
(0.8944 0.4472 0)
(0.8944 0.4472 0)
(0.8944 0.4472 0)
(0.8944 0.4472 0)
(0.894399 0.4472 0)
(0.8944 0.4472 0)
(0.8944 0.4472 0)
(0.8944 0.4472 0)
(0.8944 0.4472 0)
(0.8944 0.4472 0)
(0.8944 0.4472 0)
(0.8944 0.4472 0)
(0.8944 0.4472 0)
(0.8944 0.4472 0)
(0.8944 0.4472 0)
(0.894399 0.447201 0)
(0.8944 0.4472 0)
(0.8944 0.4472 0)
(0.8944 0.4472 0)
(0.8944 0.4472 0)
(0.894401 0.4472 0)
(0.8944 0.4472 0)
(0.8944 0.4472 0)
(0.894402 0.447201 0)
(0.894401 0.4472 0)
(0.894402 0.447202 0)
(0.894405 0.447201 0)
(0.894405 0.447203 0)
(0.89441 0.447204 0)
(0.894413 0.447206 0)
(0.894417 0.44721 0)
(0.894426 0.447213 0)
(0.894431 0.447219 0)
(0.894443 0.447226 0)
(0.89445 0.447234 0)
(0.894464 0.447244 0)
(0.894471 0.447254 0)
(0.894472 0.447262 0)
(0.894472 0.447269 0)
(0.894445 0.447267 0)
(0.894395 0.447248 0)
(0.894305 0.447202 0)
(0.89415 0.447114 0)
(0.893908 0.446954 0)
(0.893541 0.446688 0)
(0.893016 0.446271 0)
(0.892286 0.445645 0)
(0.891302 0.444734 0)
(0.890023 0.443452 0)
(0.888425 0.441704 0)
(0.88651 0.439407 0)
(0.884341 0.436498 0)
(0.8944 0.4472 0)
(0.8944 0.4472 0)
(0.8944 0.4472 0)
(0.8944 0.4472 0)
(0.8944 0.4472 0)
(0.8944 0.4472 0)
(0.8944 0.4472 0)
(0.8944 0.4472 0)
(0.8944 0.4472 0)
(0.8944 0.4472 0)
(0.8944 0.4472 0)
(0.8944 0.4472 0)
(0.8944 0.4472 0)
(0.8944 0.4472 0)
(0.8944 0.4472 0)
(0.8944 0.4472 0)
(0.8944 0.4472 0)
(0.8944 0.4472 0)
(0.8944 0.4472 0)
(0.8944 0.4472 0)
(0.8944 0.4472 0)
(0.8944 0.4472 0)
(0.8944 0.4472 0)
(0.8944 0.4472 0)
(0.8944 0.4472 0)
(0.8944 0.4472 0)
(0.8944 0.447199 0)
(0.8944 0.4472 0)
(0.8944 0.4472 0)
(0.8944 0.4472 0)
(0.8944 0.4472 0)
(0.8944 0.4472 0)
(0.8944 0.4472 0)
(0.8944 0.4472 0)
(0.8944 0.4472 0)
(0.8944 0.4472 0)
(0.8944 0.4472 0)
(0.8944 0.447199 0)
(0.8944 0.447201 0)
(0.8944 0.4472 0)
(0.8944 0.4472 0)
(0.8944 0.4472 0)
(0.894402 0.447199 0)
(0.894398 0.447201 0)
(0.894402 0.447199 0)
(0.894401 0.4472 0)
(0.8944 0.447201 0)
(0.894404 0.447201 0)
(0.8944 0.4472 0)
(0.894404 0.447202 0)
(0.894406 0.447202 0)
(0.894407 0.447204 0)
(0.894412 0.447207 0)
(0.894416 0.447208 0)
(0.89442 0.447212 0)
(0.894429 0.447218 0)
(0.894436 0.447223 0)
(0.894445 0.447231 0)
(0.894455 0.447241 0)
(0.894465 0.447248 0)
(0.894466 0.447262 0)
(0.894466 0.447268 0)
(0.894451 0.447268 0)
(0.894412 0.44726 0)
(0.894344 0.447228 0)
(0.894227 0.447161 0)
(0.894035 0.447039 0)
(0.893753 0.44683 0)
(0.89334 0.446501 0)
(0.892757 0.445999 0)
(0.891976 0.44526 0)
(0.890949 0.444213 0)
(0.889646 0.442775 0)
(0.888068 0.440857 0)
(0.886233 0.438391 0)
(0.8944 0.4472 0)
(0.8944 0.4472 0)
(0.8944 0.4472 0)
(0.8944 0.4472 0)
(0.8944 0.4472 0)
(0.8944 0.4472 0)
(0.8944 0.4472 0)
(0.8944 0.4472 0)
(0.8944 0.4472 0)
(0.8944 0.4472 0)
(0.8944 0.4472 0)
(0.8944 0.4472 0)
(0.8944 0.4472 0)
(0.8944 0.4472 0)
(0.8944 0.4472 0)
(0.8944 0.4472 0)
(0.8944 0.4472 0)
(0.8944 0.4472 0)
(0.8944 0.4472 0)
(0.8944 0.4472 0)
(0.8944 0.4472 0)
(0.8944 0.4472 0)
(0.8944 0.4472 0)
(0.8944 0.4472 0)
(0.8944 0.4472 0)
(0.8944 0.4472 0)
(0.8944 0.4472 0)
(0.8944 0.4472 0)
(0.8944 0.4472 0)
(0.8944 0.4472 0)
(0.8944 0.4472 0)
(0.8944 0.4472 0)
(0.8944 0.4472 0)
(0.8944 0.4472 0)
(0.8944 0.4472 0)
(0.8944 0.4472 0)
(0.8944 0.4472 0)
(0.8944 0.4472 0)
(0.8944 0.4472 0)
(0.894401 0.4472 0)
(0.894398 0.4472 0)
(0.894402 0.4472 0)
(0.894399 0.4472 0)
(0.894401 0.4472 0)
(0.8944 0.4472 0)
(0.894401 0.447199 0)
(0.894401 0.447201 0)
(0.894401 0.4472 0)
(0.894403 0.447202 0)
(0.894401 0.447201 0)
(0.894406 0.447202 0)
(0.894406 0.447203 0)
(0.894408 0.447206 0)
(0.894416 0.447207 0)
(0.894417 0.447212 0)
(0.894423 0.447216 0)
(0.894433 0.44722 0)
(0.894439 0.447228 0)
(0.894448 0.447237 0)
(0.894456 0.447247 0)
(0.894463 0.447256 0)
(0.894459 0.447265 0)
(0.894454 0.447269 0)
(0.894422 0.447266 0)
(0.894374 0.447245 0)
(0.894281 0.447196 0)
(0.894138 0.447104 0)
(0.893918 0.446946 0)
(0.893594 0.446687 0)
(0.893141 0.446289 0)
(0.892521 0.4457 0)
(0.891705 0.444857 0)
(0.890664 0.44369 0)
(0.889381 0.442115 0)
(0.887867 0.440064 0)
(0.8944 0.4472 0)
(0.8944 0.4472 0)
(0.8944 0.4472 0)
(0.8944 0.4472 0)
(0.8944 0.4472 0)
(0.8944 0.4472 0)
(0.8944 0.4472 0)
(0.8944 0.4472 0)
(0.8944 0.4472 0)
(0.8944 0.4472 0)
(0.8944 0.4472 0)
(0.8944 0.4472 0)
(0.8944 0.4472 0)
(0.8944 0.4472 0)
(0.8944 0.4472 0)
(0.8944 0.4472 0)
(0.8944 0.4472 0)
(0.8944 0.4472 0)
(0.8944 0.4472 0)
(0.8944 0.4472 0)
(0.8944 0.4472 0)
(0.8944 0.4472 0)
(0.8944 0.4472 0)
(0.8944 0.4472 0)
(0.8944 0.4472 0)
(0.8944 0.4472 0)
(0.8944 0.4472 0)
(0.8944 0.4472 0)
(0.8944 0.4472 0)
(0.8944 0.4472 0)
(0.8944 0.4472 0)
(0.8944 0.4472 0)
(0.8944 0.4472 0)
(0.8944 0.4472 0)
(0.8944 0.447199 0)
(0.8944 0.447201 0)
(0.8944 0.4472 0)
(0.8944 0.4472 0)
(0.8944 0.4472 0)
(0.8944 0.4472 0)
(0.8944 0.447201 0)
(0.894401 0.447199 0)
(0.894399 0.447201 0)
(0.894401 0.4472 0)
(0.894401 0.447199 0)
(0.8944 0.447202 0)
(0.894401 0.447198 0)
(0.894401 0.447202 0)
(0.8944 0.447201 0)
(0.894404 0.447201 0)
(0.894403 0.447203 0)
(0.894405 0.447203 0)
(0.894409 0.447205 0)
(0.89441 0.447207 0)
(0.894416 0.44721 0)
(0.89442 0.447214 0)
(0.894428 0.447218 0)
(0.894434 0.447226 0)
(0.894441 0.447234 0)
(0.894449 0.447243 0)
(0.894454 0.447252 0)
(0.894454 0.447261 0)
(0.894448 0.447269 0)
(0.894434 0.447265 0)
(0.894389 0.447255 0)
(0.894323 0.447221 0)
(0.894217 0.447154 0)
(0.894045 0.447032 0)
(0.893796 0.446835 0)
(0.893443 0.446525 0)
(0.892958 0.44606 0)
(0.892318 0.445391 0)
(0.891495 0.444454 0)
(0.890469 0.443181 0)
(0.88924 0.441507 0)
(0.8944 0.4472 0)
(0.8944 0.4472 0)
(0.8944 0.4472 0)
(0.8944 0.4472 0)
(0.8944 0.4472 0)
(0.8944 0.4472 0)
(0.8944 0.4472 0)
(0.8944 0.4472 0)
(0.8944 0.4472 0)
(0.8944 0.4472 0)
(0.8944 0.4472 0)
(0.8944 0.4472 0)
(0.8944 0.4472 0)
(0.8944 0.4472 0)
(0.8944 0.4472 0)
(0.8944 0.4472 0)
(0.8944 0.4472 0)
(0.8944 0.4472 0)
(0.8944 0.4472 0)
(0.8944 0.4472 0)
(0.8944 0.4472 0)
(0.8944 0.4472 0)
(0.8944 0.4472 0)
(0.8944 0.4472 0)
(0.8944 0.4472 0)
(0.8944 0.4472 0)
(0.8944 0.4472 0)
(0.8944 0.4472 0)
(0.8944 0.4472 0)
(0.8944 0.4472 0)
(0.8944 0.4472 0)
(0.8944 0.4472 0)
(0.8944 0.4472 0)
(0.8944 0.4472 0)
(0.8944 0.4472 0)
(0.8944 0.4472 0)
(0.8944 0.4472 0)
(0.8944 0.4472 0)
(0.8944 0.4472 0)
(0.894399 0.4472 0)
(0.894401 0.4472 0)
(0.8944 0.4472 0)
(0.8944 0.4472 0)
(0.8944 0.4472 0)
(0.894401 0.4472 0)
(0.8944 0.4472 0)
(0.894402 0.447201 0)
(0.8944 0.447199 0)
(0.894401 0.447202 0)
(0.894402 0.447202 0)
(0.894403 0.447201 0)
(0.894405 0.447203 0)
(0.894407 0.447203 0)
(0.89441 0.447205 0)
(0.894414 0.44721 0)
(0.894416 0.447211 0)
(0.894422 0.447217 0)
(0.894431 0.447223 0)
(0.894433 0.44723 0)
(0.894444 0.447237 0)
(0.894446 0.447248 0)
(0.894449 0.447255 0)
(0.894444 0.447264 0)
(0.894433 0.447267 0)
(0.894403 0.44726 0)
(0.894354 0.447237 0)
(0.89427 0.447188 0)
(0.89414 0.4471 0)
(0.89395 0.446948 0)
(0.89368 0.44671 0)
(0.893306 0.446351 0)
(0.892806 0.445825 0)
(0.892163 0.445083 0)
(0.891356 0.44407 0)
(0.890376 0.442724 0)
(0.8944 0.4472 0)
(0.8944 0.4472 0)
(0.8944 0.4472 0)
(0.8944 0.4472 0)
(0.8944 0.4472 0)
(0.8944 0.4472 0)
(0.8944 0.4472 0)
(0.8944 0.4472 0)
(0.8944 0.4472 0)
(0.8944 0.4472 0)
(0.8944 0.4472 0)
(0.8944 0.4472 0)
(0.8944 0.4472 0)
(0.8944 0.4472 0)
(0.8944 0.4472 0)
(0.8944 0.4472 0)
(0.8944 0.4472 0)
(0.8944 0.4472 0)
(0.8944 0.4472 0)
(0.8944 0.4472 0)
(0.8944 0.4472 0)
(0.8944 0.4472 0)
(0.8944 0.4472 0)
(0.8944 0.4472 0)
(0.8944 0.4472 0)
(0.8944 0.4472 0)
(0.8944 0.4472 0)
(0.8944 0.4472 0)
(0.8944 0.4472 0)
(0.8944 0.4472 0)
(0.8944 0.4472 0)
(0.8944 0.4472 0)
(0.8944 0.4472 0)
(0.8944 0.4472 0)
(0.894401 0.4472 0)
(0.894399 0.4472 0)
(0.8944 0.4472 0)
(0.8944 0.4472 0)
(0.8944 0.4472 0)
(0.8944 0.4472 0)
(0.894399 0.447201 0)
(0.894401 0.4472 0)
(0.894399 0.4472 0)
(0.8944 0.4472 0)
(0.894401 0.447201 0)
(0.894399 0.4472 0)
(0.894402 0.4472 0)
(0.894399 0.4472 0)
(0.894403 0.4472 0)
(0.894401 0.447201 0)
(0.894403 0.447202 0)
(0.894402 0.447202 0)
(0.894407 0.447204 0)
(0.894409 0.447205 0)
(0.894408 0.447207 0)
(0.894418 0.447211 0)
(0.894417 0.447214 0)
(0.894424 0.44722 0)
(0.894429 0.447226 0)
(0.894435 0.447234 0)
(0.89444 0.447243 0)
(0.894443 0.447252 0)
(0.894441 0.447258 0)