/*--------------------------------*- C++ -*----------------------------------*\
  =========                 |
  \\      /  F ield         | OpenFOAM: The Open Source CFD Toolbox
   \\    /   O peration     | Website:  https://openfoam.org
    \\  /    A nd           | Version:  6
     \\/     M anipulation  |
\*---------------------------------------------------------------------------*/
FoamFile
{
    version     2.0;
    format      ascii;
    class       volScalarField;
    location    "2.72";
    object      epsilon;
}
// * * * * * * * * * * * * * * * * * * * * * * * * * * * * * * * * * * * * * //

dimensions      [0 2 -3 0 0 0 0];

internalField   nonuniform List<scalar> 
4214
(
0.219027
0.0780094
0.0322382
0.0172615
0.0126573
0.0119213
0.0134953
0.0183864
0.0309209
0.0615278
0.133
0.287348
0.58789
1.10181
1.87061
2.86628
3.92115
4.79668
5.13612
4.68905
4.1686
3.88575
2.46847
1.20008
0.623164
0.367673
0.227428
0.139908
0.0846862
0.051159
0.0318071
0.0211389
0.0154726
0.0125741
0.011231
0.0109893
0.012204
0.0168435
0.0312242
0.0746903
0.209135
0.0311569
0.0175003
0.0126477
0.0111358
0.0110511
0.0119849
0.0146
0.0211047
0.0375389
0.0776874
0.171445
0.373058
0.764159
1.43143
2.42807
3.69573
5.00482
5.94293
5.93589
4.96129
4.3885
4.04822
2.51345
1.27082
0.698003
0.428184
0.271611
0.169989
0.103824
0.0626261
0.0383776
0.0248179
0.0175347
0.0137393
0.011824
0.0109183
0.0106536
0.0110856
0.0129317
0.0184642
0.0340742
0.0116831
0.0107617
0.0105342
0.0107105
0.0113215
0.012745
0.0161875
0.0246454
0.0461819
0.0987951
0.221479
0.484306
0.994109
1.86918
3.17186
4.79488
6.32745
7.09394
6.28915
4.86523
4.52167
4.076
2.52993
1.35514
0.791314
0.504898
0.328647
0.209458
0.129287
0.0780266
0.0472264
0.0297438
0.0202602
0.0152793
0.0127338
0.0114509
0.0108211
0.0105496
0.0105543
0.010936
0.0120953
0.0106511
0.010593
0.0107451
0.0111285
0.011954
0.0137801
0.0182344
0.029226
0.0574748
0.126296
0.286514
0.629257
1.29665
2.44817
4.1536
6.19325
7.89637
8.2497
6.57786
5.03167
4.79822
4.15428
2.59415
1.47619
0.912169
0.603592
0.402912
0.261697
0.163512
0.0989779
0.0593483
0.0364917
0.0239659
0.0173435
0.0139489
0.0122313
0.0113723
0.0109401
0.0107373
0.0106873
0.0108304
0.0108107
0.010919
0.0111772
0.0116762
0.0127234
0.0150531
0.020835
0.0351305
0.0721777
0.161868
0.370478
0.817124
1.69368
3.21285
5.43147
7.91142
9.61851
9.12681
6.67234
5.19484
5.0421
4.21998
2.69121
1.63238
1.06429
0.729178
0.499205
0.330851
0.209688
0.127675
0.076104
0.045832
0.0290551
0.0201199
0.0155283
0.013203
0.012047
0.0114615
0.0111614
0.0110018
0.0109475
0.0111989
0.0113698
0.0116995
0.0123197
0.0136477
0.0166317
0.0241678
0.042754
0.0912778
0.207614
0.478579
1.06072
2.21322
4.21551
7.05372
9.9403
11.3766
9.70291
6.71114
5.39478
5.259
4.30306
2.83973
1.83424
1.25573
0.888936
0.624159
0.422651
0.272349
0.167341
0.09956
0.0589781
0.0361972
0.0239579
0.0176521
0.0144515
0.012874
0.0120839
0.0116828
0.0114562
0.011337
0.0116755
0.0118937
0.0122975
0.0130672
0.0147665
0.0186058
0.0284645
0.05258
0.115985
0.266031
0.617192
1.37561
2.88961
5.51207
9.04386
12.2213
12.9752
10.0382
6.73189
5.59824
5.45091
4.4232
3.04859
2.08949
1.49452
1.09116
0.78571
0.54424
0.357442
0.222408
0.132685
0.0777206
0.0463958
0.0293794
0.0205866
0.0161018
0.0139088
0.0128212
0.0122855
0.0119882
0.0118155
0.0122243
0.0124853
0.0129788
0.013943
0.0161416
0.021098
0.0340327
0.0651983
0.147799
0.340076
0.794126
1.77829
3.76537
7.1428
11.3829
14.6564
14.3047
10.2354
6.77186
5.80381
5.63412
4.59916
3.32716
2.40702
1.79069
1.34642
0.993674
0.704484
0.472633
0.298925
0.179742
0.104732
0.0611969
0.0372003
0.0247586
0.0183609
0.0152535
0.0137172
0.0129857
0.0125984
0.0123822
0.0128376
0.0131477
0.0137603
0.0149838
0.0178603
0.0242682
0.041277
0.0813128
0.188579
0.433149
1.01845
2.28762
4.87297
9.11401
14.0073
17.1103
15.3861
10.3858
6.85944
6.03705
5.82869
4.8441
3.68304
2.79709
2.15796
1.66862
1.26021
0.914131
0.627527
0.404889
0.246711
0.143936
0.0829669
0.0486887
0.0308454
0.0215557
0.0170739
0.0148444
0.0138145
0.0132927
0.0130228
0.0135175
0.0138915
0.0146702
0.0162419
0.0200457
0.0283238
0.0507348
0.101754
0.240658
0.548911
1.2995
2.92592
6.23215
11.3889
16.8138
19.4651
16.3317
10.5631
6.98424
6.27108
6.05096
5.16415
4.12345
3.28014
2.618
2.07651
1.6009
1.18677
0.834165
0.550612
0.341757
0.200984
0.115307
0.0658156
0.0399374
0.0262097
0.0196457
0.0163245
0.014829
0.0140906
0.0137449
0.0142739
0.014736
0.0157526
0.0177909
0.0228741
0.0335314
0.0631312
0.127487
0.307032
0.691346
1.64825
3.70939
7.82955
13.8835
19.6801
21.6833
17.266
10.8161
7.13396
6.47795
6.30499
5.55474
4.64949
3.86628
3.20475
2.59686
2.03743
1.54078
1.10804
0.749211
0.475725
0.283753
0.163619
0.0916087
0.0537998
0.0331605
0.0234314
0.0183603
0.0161317
0.015027
0.0145557
0.0151249
0.01571
0.0170745
0.0197325
0.026602
0.040229
0.0794681
0.159592
0.391561
0.863678
2.07738
4.62645
9.61284
16.4749
22.4793
23.7974
18.2902
11.1706
7.31082
6.67262
6.58971
6.00165
5.25525
4.55991
3.90603
3.25036
2.6016
2.00295
1.47058
1.0179
0.663016
0.402898
0.235888
0.130634
0.0753112
0.0437458
0.0292173
0.0212893
0.0179097
0.0161726
0.0154861
0.0161069
0.0168561
0.0187413
0.022207
0.0316154
0.0488362
0.101178
0.199195
0.499546
1.06818
2.59716
5.6537
11.4962
19.0031
25.0925
25.8609
19.5303
11.6976
7.51685
6.84653
6.89452
6.4901
5.93657
5.37253
4.76532
4.07465
3.33741
2.61242
1.95283
1.3801
0.923181
0.572317
0.343683
0.189497
0.109154
0.0600658
0.0383645
0.025662
0.0205041
0.0176573
0.0166113
0.0172667
0.0182299
0.0209265
0.0254032
0.0385185
0.0598524
0.130407
0.247339
0.638441
1.30432
3.21447
6.74131
13.3733
21.304
27.4144
27.8649
21.0596
12.4339
7.76189
6.98024
7.1649
7.00371
6.68248
6.30173
5.79924
5.11548
4.29292
3.42
2.59954
1.86828
1.28426
0.809653
0.503665
0.277139
0.162901
0.0852821
0.0532608
0.0323521
0.0245417
0.0196974
0.0180778
0.0186778
0.0199066
0.0239344
0.0295599
0.0483094
0.073807
0.170564
0.304637
0.819793
1.56688
3.94895
7.83593
15.1447
23.2177
29.3284
29.6662
22.8951
13.4712
8.07186
7.067
7.39379
7.53303
7.4537
7.29598
6.95749
6.34817
5.49535
4.4772
3.47091
2.52491
1.78861
1.13673
0.740618
0.404519
0.248818
0.123781
0.07818
0.042678
0.0312124
0.0226317
0.0201654
0.0204851
0.0219794
0.0283345
0.0349176
0.0627373
0.0910413
0.227373
0.370183
1.06343
1.84412
4.84476
8.80484
16.7425
24.5528
30.6682
31.1899
24.6052
14.8943
8.68308
7.16873
7.57951
8.05662
8.20666
8.28523
8.1724
7.71473
6.92361
5.80529
4.63685
3.39571
2.50214
1.57836
1.0943
0.58281
0.387097
0.180669
0.1209
0.0583774
0.042856
0.0269403
0.0234578
0.0230403
0.0245125
0.0352825
0.0415026
0.0851079
0.111008
0.311108
0.439021
1.40606
2.10175
6.01354
9.46721
18.167
24.9606
31.0369
32.1626
25.8412
16.4282
9.52413
7.37518
7.6276
8.46464
8.94852
9.18266
9.34198
9.1236
8.48332
7.34889
6.15298
4.5033
3.53067
2.15318
1.63398
0.818088
0.612063
0.259435
0.195779
0.080961
0.0642451
0.0330978
0.0292641
0.0220835
0.0201175
0.0184958
0.0171851
0.0161037
0.0151746
0.0143429
0.0135798
0.0128835
0.0122702
0.0117311
0.0113202
0.0110137
0.0113082
0.0150192
0.0782487
0.647406
0.0215486
0.0197153
0.0183532
0.0172596
0.016323
0.0154819
0.0147042
0.0139783
0.0133104
0.0127194
0.0121992
0.0118096
0.0115377
0.0119227
0.0160681
0.0825831
0.757815
0.0204005
0.0193216
0.0183387
0.0174426
0.0166123
0.0158313
0.01509
0.0143933
0.0137537
0.0131869
0.0126898
0.012319
0.0120985
0.0125902
0.0172004
0.0888626
0.843672
0.0204406
0.0194557
0.0185689
0.0177498
0.0169749
0.0162304
0.015516
0.0148452
0.0142338
0.0136914
0.0132183
0.0128667
0.0127057
0.0133164
0.0184217
0.0949143
0.929304
0.0204954
0.0196641
0.0188765
0.0181214
0.0173892
0.0166743
0.0159847
0.0153395
0.0147553
0.0142371
0.0137891
0.0134591
0.0133559
0.0140987
0.019721
0.1008
1.00931
0.0207314
0.0200014
0.0192713
0.0185554
0.017852
0.0171618
0.0164981
0.0158811
0.0153239
0.01483
0.0144078
0.0141025
0.0140608
0.014931
0.0211284
0.106617
1.08992
0.021193
0.0204468
0.0197346
0.0190413
0.0183593
0.0176929
0.0170588
0.0164739
0.0159459
0.0154769
0.0150805
0.0148051
0.0148295
0.0158246
0.0226543
0.112492
1.17022
0.0215252
0.0208971
0.0202351
0.0195701
0.0189107
0.018271
0.0176705
0.0171211
0.016625
0.0161833
0.0158143
0.0155753
0.0156721
0.0168203
0.0243266
0.118545
1.25076
0.0221792
0.0214773
0.0208051
0.0201501
0.0195113
0.0189021
0.0183389
0.017827
0.0173646
0.0169532
0.0166157
0.0164208
0.0165989
0.0179378
0.0261695
0.125079
1.3311
0.0225859
0.022017
0.0213952
0.0207702
0.0201626
0.0195918
0.0190704
0.0185974
0.0181697
0.0177909
0.0174905
0.0173463
0.0176196
0.0191915
0.0282862
0.132574
1.41339
0.0233728
0.0227006
0.0220591
0.0214485
0.0208749
0.0203477
0.0198708
0.019438
0.0190465
0.0187026
0.0184444
0.0183589
0.018746
0.0205869
0.0306851
0.141206
1.49827
0.0238522
0.0233253
0.0227418
0.0221765
0.0216523
0.0211758
0.0207458
0.0203544
0.020001
0.019695
0.0194849
0.0194669
0.0199899
0.0221428
0.0334022
0.150705
1.58407
0.0247489
0.0241033
0.0235098
0.0229791
0.0225069
0.0220836
0.0217015
0.0213524
0.0210396
0.0207752
0.0206208
0.0206803
0.0213635
0.0238729
0.0364692
0.160554
1.66914
0.0253084
0.0248253
0.0243125
0.0238512
0.0234433
0.0230765
0.0227434
0.0224385
0.022169
0.0219512
0.0218606
0.0220075
0.0228764
0.0257887
0.0398976
0.16956
1.7478
0.0263029
0.0257117
0.0252202
0.024817
0.0244719
0.0241616
0.0238781
0.0236199
0.0233976
0.0232326
0.0232142
0.0234616
0.0245425
0.0279026
0.0434999
0.178852
1.81722
0.0269642
0.0265706
0.0261896
0.025872
0.0255957
0.0253439
0.0251126
0.0249049
0.024735
0.0246308
0.024693
0.0250566
0.026372
0.0302342
0.0474191
0.188202
1.87557
0.0280589
0.0276054
0.0272804
0.0270334
0.0268222
0.0266306
0.0264551
0.0263036
0.0261931
0.0261589
0.0263112
0.0268094
0.0283811
0.0328028
0.0516744
0.197503
1.92158
0.0288701
0.0286596
0.0284557
0.0282965
0.0281549
0.0280283
0.0279152
0.027828
0.0277859
0.027832
0.0280857
0.0287382
0.0305941
0.0356317
0.0562587
0.206807
1.94983
0.0300829
0.0298853
0.0297529
0.0296717
0.0296012
0.0295468
0.029505
0.0294924
0.0295295
0.0296684
0.0300373
0.0308636
0.0330378
0.038744
0.0612221
0.216436
1.96067
0.0311171
0.0311708
0.0311461
0.0311576
0.0311681
0.0311969
0.0312385
0.0313131
0.031443
0.0316899
0.0321887
0.0332097
0.0357339
0.0421628
0.0665932
0.226372
1.95045
0.0324721
0.0326033
0.0326592
0.0327651
0.032868
0.0329932
0.0331331
0.0333102
0.0335497
0.0339205
0.0345658
0.0358054
0.038699
0.0459112
0.072379
0.235161
1.91603
0.0338517
0.0341172
0.0342863
0.0345026
0.0347151
0.034953
0.0352096
0.0355081
0.0358773
0.0363922
0.0372056
0.0386907
0.0419765
0.0500373
0.0786946
0.244272
1.86238
0.0353711
0.0357552
0.036051
0.0363875
0.0367283
0.0370973
0.0374929
0.0379357
0.0384595
0.0391433
0.0401522
0.0419082
0.0455931
0.0545974
0.0856805
0.255059
1.79146
0.0370173
0.0375042
0.0379497
0.038433
0.0389276
0.0394533
0.0400133
0.0406283
0.0413349
0.0422158
0.0434491
0.0454921
0.0495799
0.0594873
0.0926951
0.2618
1.71532
0.0387549
0.0394078
0.0400149
0.0406634
0.0413365
0.0420485
0.0428049
0.0436262
0.0445508
0.0456624
0.04715
0.0494909
0.0539634
0.0645963
0.0991947
0.266043
1.63714
0.0406395
0.0414445
0.0422489
0.0430988
0.043984
0.0449185
0.0459103
0.0469802
0.0481673
0.0495552
0.0513376
0.0539989
0.0588384
0.0700033
0.105229
0.267282
1.5585
0.0426423
0.0436653
0.0446863
0.0457673
0.0469026
0.0481035
0.0493793
0.0507513
0.0522585
0.0539839
0.0561182
0.0591423
0.0643487
0.07589
0.111032
0.267409
1.48062
0.0448162
0.0460532
0.0473385
0.0486974
0.0501308
0.0516515
0.0532715
0.055013
0.0569152
0.0590591
0.0616288
0.0650894
0.0707044
0.0825513
0.117209
0.267129
1.40438
0.0471387
0.0486604
0.0502414
0.0519241
0.0537121
0.0556183
0.0576575
0.0598537
0.0622475
0.0649182
0.0680409
0.0720547
0.078174
0.0903162
0.124243
0.26703
1.33028
0.0496497
0.0514773
0.0534162
0.0554859
0.057698
0.0600699
0.0626213
0.0653802
0.0683904
0.0717314
0.0755689
0.0803115
0.0871015
0.0996307
0.132702
0.267784
1.25861
0.0523506
0.0545562
0.0569026
0.0594278
0.0621475
0.065084
0.0682639
0.0717224
0.07551
0.0797103
0.0844836
0.090209
0.0979379
0.111089
0.143337
0.270144
1.18958
0.0552679
0.0578967
0.0607321
0.0638006
0.06713
0.0707526
0.0747064
0.0790386
0.0838121
0.0891214
0.0951306
0.102196
0.111275
0.125478
0.157238
0.275603
1.1233
0.0584142
0.0615505
0.0649501
0.0686626
0.0727256
0.077185
0.0820953
0.0875233
0.0935539
0.100304
0.107956
0.116863
0.1279
0.143852
0.175846
0.28594
1.05984
0.0618138
0.0655262
0.0695991
0.0740806
0.0790289
0.0845115
0.0906088
0.0974182
0.105061
0.113695
0.123547
0.134997
0.148877
0.167663
0.201122
0.303683
0.999223
0.0654789
0.0698755
0.0747328
0.0801308
0.0861504
0.0928893
0.100466
0.109027
0.11875
0.129867
0.142686
0.15767
0.175686
0.198979
0.235951
0.332712
0.941457
0.0694351
0.0746154
0.0804058
0.0869011
0.0942211
0.102509
0.111941
0.122735
0.135164
0.149579
0.166437
0.186379
0.210437
0.240811
0.284653
0.378964
0.886512
0.0736933
0.0797979
0.0866827
0.0944925
0.103396
0.113602
0.125373
0.139038
0.155019
0.173859
0.196278
0.223254
0.256222
0.297697
0.354012
0.452219
0.834336
0.078277
0.0854458
0.0936304
0.10302
0.113859
0.126453
0.141192
0.158578
0.179265
0.204118
0.234298
0.271401
0.317703
0.376724
0.455062
0.569668
0.784851
0.0831931
0.091609
0.101323
0.112612
0.125823
0.141404
0.159937
0.18219
0.209187
0.242319
0.283508
0.335463
0.402103
0.489314
0.606361
0.763082
0.737929
0.0884576
0.0983117
0.109838
0.123417
0.139546
0.158883
0.182302
0.210984
0.246549
0.291268
0.348381
0.422623
0.521098
0.654775
0.840894
1.09456
0.693377
0.0943308
0.0989654
0.103735
0.108618
0.11359
0.118627
0.123689
0.12874
0.133734
0.138624
0.14336
0.147888
0.152152
0.156097
0.159667
0.162811
0.165478
0.167628
0.169222
0.170233
0.170624
0.170212
0.169171
0.16755
0.165372
0.162678
0.159509
0.155916
0.15195
0.147667
0.143123
0.138373
0.133472
0.128471
0.123416
0.118351
0.113314
0.108341
0.10346
0.0986995
0.0940732
0.10587
0.11102
0.116316
0.121725
0.127229
0.13279
0.138378
0.14394
0.149436
0.154809
0.160008
0.16497
0.16964
0.173953
0.177854
0.181283
0.184191
0.18653
0.188262
0.189357
0.189776
0.189335
0.18821
0.18645
0.184083
0.181147
0.177691
0.173767
0.169431
0.164742
0.159762
0.154549
0.149165
0.143661
0.138093
0.132503
0.126941
0.121436
0.116031
0.110744
0.105603
0.119544
0.125287
0.131178
0.137192
0.1433
0.149466
0.155647
0.161796
0.16786
0.173783
0.179504
0.18496
0.190087
0.194818
0.19909
0.202842
0.20602
0.208573
0.21046
0.211648
0.212099
0.211626
0.210406
0.208492
0.20591
0.202704
0.198924
0.194627
0.189873
0.184726
0.179252
0.173516
0.167582
0.161509
0.155355
0.14917
0.143004
0.136897
0.130886
0.125002
0.119266
0.135897
0.14232
0.148895
0.155601
0.162404
0.16926
0.176123
0.18294
0.189653
0.1962
0.202517
0.208533
0.214178
0.219381
0.224074
0.228191
0.231674
0.234468
0.236529
0.237823
0.23831
0.237801
0.236475
0.234386
0.231562
0.228051
0.223906
0.219187
0.21396
0.208294
0.202261
0.195929
0.18937
0.182648
0.175825
0.16896
0.162103
0.155302
0.148597
0.142024
0.135607
0.155641
0.162852
0.17022
0.177722
0.185323
0.192973
0.200619
0.208201
0.215657
0.222918
0.229913
0.236565
0.2428
0.248539
0.253709
0.25824
0.262066
0.265133
0.267392
0.268805
0.269331
0.268783
0.267338
0.265051
0.261955
0.258099
0.25354
0.248344
0.242581
0.236326
0.229655
0.222645
0.215372
0.207908
0.20032
0.192672
0.185023
0.177422
0.169916
0.162547
0.155341
0.179739
0.187868
0.196156
0.204583
0.213106
0.22167
0.230216
0.238678
0.246986
0.255064
0.262834
0.270213
0.277118
0.283467
0.289178
0.294177
0.298394
0.301769
0.30425
0.305799
0.306369
0.305777
0.304198
0.301688
0.298285
0.294038
0.289011
0.283273
0.276901
0.269975
0.262578
0.254794
0.246704
0.238388
0.229922
0.221373
0.212808
0.204283
0.19585
0.187558
0.179433
0.209508
0.218711
0.228074
0.237576
0.247167
0.256789
0.266373
0.275847
0.285134
0.294149
0.302805
0.311014
0.318684
0.325726
0.332052
0.337582
0.342241
0.345964
0.348697
0.350397
0.351019
0.350376
0.348646
0.345885
0.342134
0.337446
0.331888
0.325536
0.318471
0.310781
0.302555
0.293885
0.28486
0.275566
0.266087
0.256499
0.246875
0.237278
0.227768
0.218402
0.209201
0.246777
0.257243
0.267863
0.278619
0.289453
0.3003
0.311083
0.321723
0.332135
0.342225
0.351896
0.361051
0.369591
0.377422
0.384445
0.390577
0.395735
0.399852
0.402868
0.40474
0.405418
0.40472
0.402821
0.399776
0.395633
0.390446
0.384288
0.377238
0.369386
0.360827
0.351656
0.341972
0.331874
0.321456
0.310809
0.300021
0.28917
0.278329
0.267564
0.25694
0.246476
0.294144
0.306095
0.318188
0.330407
0.342689
0.354955
0.367123
0.379105
0.390807
0.402126
0.412956
0.42319
0.432718
0.441442
0.449254
0.456064
0.461785
0.466344
0.469679
0.471743
0.472484
0.471724
0.469636
0.466273
0.461689
0.455941
0.449105
0.441268
0.432526
0.422979
0.412732
0.401892
0.390566
0.378856
0.366866
0.354691
0.34242
0.330132
0.317903
0.305806
0.293856
0.355367
0.369065
0.38288
0.396805
0.410767
0.424675
0.438437
0.451957
0.465132
0.47785
0.489994
0.501447
0.512091
0.521818
0.530515
0.538084
0.544433
0.549485
0.553175
0.555451
0.556262
0.555434
0.553136
0.54942
0.544346
0.537971
0.530378
0.521658
0.511915
0.501255
0.489792
0.477639
0.464915
0.45173
0.438201
0.424431
0.410519
0.396551
0.382617
0.368796
0.3551
0.436028
0.451765
0.467585
0.483483
0.49938
0.515169
0.530749
0.546014
0.560852
0.575142
0.588757
0.601572
0.613455
0.624295
0.633969
0.642373
0.649413
0.655005
0.659082
0.66159
0.662476
0.661575
0.659048
0.654947
0.649336
0.642273
0.633847
0.624153
0.613301
0.601404
0.588583
0.574961
0.560663
0.545814
0.530539
0.514952
0.499158
0.483258
0.46735
0.451525
0.435789
0.544632
0.562719
0.580836
0.59898
0.617062
0.634966
0.652579
0.669782
0.686455
0.702471
0.71769
0.731982
0.745206
0.757244
0.767965
0.777262
0.785035
0.7912
0.795686
0.798439
0.799403
0.798426
0.795659
0.791152
0.784971
0.777177
0.767861
0.757123
0.745079
0.731844
0.717549
0.702321
0.686298
0.669612
0.6524
0.634783
0.616875
0.598789
0.580637
0.562516
0.544431
0.694557
0.715266
0.735924
0.756532
0.776989
0.797175
0.816963
0.836222
0.854826
0.872642
0.889523
0.905333
0.919925
0.933179
0.944955
0.955146
0.963653
0.970387
0.975277
0.978269
0.97931
0.97826
0.975257
0.970348
0.963603
0.95508
0.944872
0.933082
0.919827
0.905229
0.889416
0.872525
0.854704
0.836086
0.816821
0.797031
0.776843
0.756382
0.735768
0.715108
0.694399
0.907589
0.931022
0.954273
0.977361
1.00018
1.0226
1.04449
1.06571
1.08613
1.10562
1.12403
1.14121
1.15702
1.17135
1.18405
1.19501
1.20415
1.21136
1.21659
1.21978
1.22088
1.21978
1.21658
1.21133
1.20411
1.19497
1.18399
1.17128
1.15696
1.14114
1.12395
1.10554
1.08605
1.06561
1.04439
1.0225
1.00007
0.977255
0.954164
0.930914
0.90748
1.22067
1.24644
1.27178
1.29681
1.32143
1.34549
1.36889
1.39146
1.41309
1.43364
1.45297
1.47096
1.48746
1.50236
1.51553
1.52688
1.53631
1.54374
1.54912
1.55239
1.55351
1.55238
1.54911
1.54373
1.53629
1.52685
1.5155
1.50232
1.48742
1.47092
1.45293
1.43359
1.41304
1.3914
1.36883
1.34544
1.32137
1.29675
1.27172
1.24638
1.22061
1.69945
1.72586
1.75138
1.77644
1.80093
1.82473
1.84775
1.86984
1.8909
1.9108
1.92945
1.94672
1.96252
1.97671
1.98924
1.99999
2.00891
2.01592
2.02098
2.02404
2.02509
2.02404
2.02097
2.01591
2.0089
1.99998
1.98922
1.9767
1.96249
1.94671
1.92943
1.91079
1.89087
1.86982
1.84772
1.82471
1.8009
1.77641
1.75135
1.72585
1.69942
2.46712
2.48918
2.50938
2.52907
2.54817
2.5666
2.58431
2.6012
2.61721
2.63226
2.64627
2.6592
2.67095
2.68148
2.69074
2.69866
2.7052
2.71034
2.71404
2.71627
2.71702
2.71627
2.71403
2.71034
2.7052
2.69865
2.69073
2.68148
2.67095
2.65919
2.64627
2.63225
2.6172
2.6012
2.5843
2.5666
2.54816
2.52906
2.50938
2.48918
2.46712
0.6691
0.069054
0.0140832
0.0110076
0.0108343
0.0111394
0.0115663
0.0120863
0.0126747
0.0133257
0.0140386
0.0148209
0.0157009
0.0167091
0.0178668
0.0191678
0.0205588
0.763531
0.0714546
0.0149138
0.0115782
0.0113191
0.0115945
0.0120008
0.0125032
0.0130667
0.013688
0.0143587
0.0150829
0.0158775
0.0167752
0.0178167
0.0190391
0.020444
0.831127
0.0756494
0.0158847
0.0122019
0.0118465
0.012081
0.0124663
0.0129462
0.013488
0.0140854
0.0147291
0.0154137
0.0161436
0.016939
0.0178373
0.0189005
0.0202229
0.897255
0.0802505
0.0169746
0.0128715
0.0124244
0.0126119
0.0129743
0.0134314
0.013952
0.0145282
0.0151511
0.0158109
0.016502
0.017228
0.0180003
0.018841
0.0197895
0.960748
0.0854292
0.0182091
0.0136125
0.0130572
0.0131911
0.0135267
0.0139594
0.0144572
0.0150118
0.0156162
0.0162601
0.0169336
0.0176324
0.0183588
0.0191172
0.0199198
1.02869
0.0913538
0.0196112
0.0144335
0.0137506
0.0138239
0.0141282
0.0145349
0.0150083
0.0155392
0.0161232
0.0167516
0.0174128
0.0180979
0.0188047
0.0195302
0.0202435
1.10029
0.0981947
0.0212095
0.015352
0.0145121
0.0145162
0.014784
0.0151625
0.0156096
0.0161142
0.0166742
0.0172842
0.0179326
0.018607
0.019304
0.0200398
0.020857
1.17699
0.105992
0.023028
0.0163792
0.0153495
0.0152742
0.0155
0.0158478
0.0162665
0.0167422
0.0172744
0.0178614
0.0184935
0.0191534
0.0198231
0.020493
0.0211804
1.25841
0.11474
0.0250887
0.017528
0.0162725
0.0161052
0.0162828
0.0165968
0.0169851
0.0174293
0.0179295
0.0184879
0.0191005
0.0197528
0.0204216
0.0210752
0.021651
1.34289
0.124374
0.027411
0.0188122
0.0172922
0.0170174
0.0171395
0.0174159
0.0177719
0.0181825
0.0186465
0.0191687
0.0197516
0.0203885
0.0210653
0.0217755
0.0225404
1.42968
0.134728
0.0300178
0.0202476
0.018421
0.0180196
0.0180781
0.0183123
0.0186337
0.0190089
0.0194338
0.0199135
0.020455
0.0210563
0.0216997
0.0223565
0.0230233
1.51733
0.145629
0.0329385
0.0218513
0.0196718
0.0191215
0.0191069
0.0192933
0.0195777
0.0199158
0.0202995
0.0207331
0.0212275
0.02179
0.0224109
0.0230439
0.0235848
1.60335
0.156813
0.0361885
0.0236384
0.0210574
0.0203333
0.0202359
0.0203673
0.020611
0.02091
0.021251
0.0216351
0.0220743
0.0225857
0.0231825
0.0238609
0.0246046
1.68644
0.167945
0.0397762
0.0256245
0.0225935
0.0216678
0.0214751
0.0215431
0.0217411
0.0219983
0.0222954
0.0226281
0.0230056
0.0234461
0.0239693
0.0245756
0.0252501
1.76338
0.178836
0.043699
0.0278272
0.0242953
0.0231382
0.022836
0.0228313
0.0229768
0.0231882
0.0234394
0.0237208
0.024037
0.0244056
0.0248533
0.0253846
0.0259056
1.82864
0.189272
0.0478939
0.0302601
0.0261759
0.0247591
0.0243311
0.0242437
0.0243281
0.0244879
0.0246893
0.024918
0.0251726
0.025468
0.0258386
0.0263392
0.0270047
1.88101
0.199178
0.0523703
0.0329384
0.0282493
0.0265467
0.0259745
0.0257933
0.0258069
0.0259072
0.0260526
0.0262247
0.026416
0.0266344
0.0269013
0.0272749
0.027834
1.91578
0.208491
0.0571703
0.0358821
0.0305305
0.0285184
0.0277826
0.027495
0.0274268
0.0274579
0.0275387
0.0276482
0.0277738
0.0279188
0.0280902
0.028333
0.0286454
1.93266
0.217482
0.0623236
0.0391125
0.03304
0.0306934
0.029775
0.0293667
0.0292035
0.0291532
0.029158
0.0291956
0.0292487
0.0293194
0.0294035
0.0295592
0.0298422
1.92766
0.226284
0.067884
0.0426516
0.0357974
0.0330952
0.0319718
0.0314272
0.0311538
0.0310086
0.0309251
0.0308781
0.0308471
0.0308348
0.030823
0.0308651
0.0309607
1.89721
0.235348
0.073874
0.0465118
0.0388213
0.035746
0.0343989
0.0337016
0.0333017
0.0330447
0.0328571
0.0327104
0.0325815
0.0324744
0.0323646
0.032302
0.0321661
1.8461
0.246324
0.080452
0.0507524
0.0421632
0.0386869
0.037091
0.0362201
0.0356734
0.0352844
0.0349736
0.0347084
0.0344652
0.0342474
0.0340319
0.0338641
0.0336142
1.78077
0.25704
0.0877264
0.0554227
0.0458628
0.0419607
0.0400911
0.0390208
0.0383024
0.0377566
0.0372993
0.0368932
0.0365161
0.0361678
0.0358264
0.035521
0.0351671
1.70984
0.26466
0.0945123
0.0602726
0.0498752
0.04558
0.0434309
0.042138
0.0412223
0.0404929
0.039862
0.0392899
0.0387547
0.0382519
0.0377617
0.0373106
0.0368406
1.6354
0.26882
0.100768
0.0653208
0.0542691
0.0496089
0.0471718
0.0456281
0.0444822
0.0435345
0.0426959
0.0419261
0.0412029
0.0405192
0.0398604
0.0392486
0.038615
1.55926
0.270152
0.106565
0.070653
0.0591426
0.0541425
0.0513967
0.0495633
0.0481425
0.046932
0.0458437
0.0448368
0.0438888
0.0429918
0.0421335
0.0413218
0.040506
1.48287
0.269836
0.112121
0.0764472
0.0646455
0.0593091
0.0562132
0.0540335
0.0522771
0.0507462
0.049355
0.0480627
0.0468471
0.0456984
0.0446024
0.0435637
0.0425606
1.40736
0.269035
0.118053
0.0830167
0.0709922
0.0652782
0.0617586
0.0591495
0.0569763
0.0550502
0.0532884
0.0516505
0.0501137
0.0486657
0.0472927
0.0460028
0.0447573
1.33345
0.268354
0.124867
0.0907191
0.0784587
0.0722667
0.0682054
0.0650483
0.0623502
0.0599321
0.0577146
0.0556565
0.0537327
0.0519279
0.050229
0.0486319
0.0470977
1.26162
0.268541
0.133152
0.0999858
0.087389
0.0805488
0.0757685
0.0719007
0.0685335
0.0654986
0.0627172
0.0601459
0.0577553
0.0555259
0.0534395
0.0514833
0.0496463
1.1922
0.270513
0.143675
0.111417
0.098236
0.0904745
0.084719
0.0799179
0.0756919
0.071879
0.0683972
0.0651965
0.0622405
0.0595022
0.0569573
0.0545952
0.0523904
1.12543
0.275605
0.157487
0.125794
0.111591
0.102492
0.0954012
0.0893659
0.0840306
0.0792312
0.0748756
0.0709003
0.0672572
0.0639079
0.0608212
0.0579724
0.0553196
1.06145
0.285708
0.176035
0.14417
0.128239
0.117189
0.108261
0.100583
0.093806
0.0877501
0.0822988
0.0773665
0.0728859
0.0688023
0.0650696
0.0616451
0.0585008
1.00037
0.303403
0.201311
0.168
0.149242
0.135352
0.123882
0.114004
0.105344
0.0976773
0.0908448
0.0847251
0.0792205
0.0742509
0.0697479
0.0656593
0.0619408
0.942206
0.332459
0.236166
0.199341
0.176076
0.158051
0.143046
0.130203
0.119062
0.109315
0.100732
0.0931324
0.0863712
0.0803296
0.0749101
0.0700336
0.0656161
0.886959
0.378825
0.284916
0.241197
0.210844
0.186777
0.166816
0.149937
0.135501
0.123049
0.112232
0.102778
0.0944684
0.0871264
0.0806098
0.0747977
0.0695984
0.834575
0.452264
0.354328
0.298099
0.256637
0.223661
0.19667
0.174233
0.155373
0.139373
0.125687
0.113895
0.103667
0.0947416
0.0869091
0.0800027
0.0738962
0.784959
0.569881
0.455412
0.377123
0.318111
0.271806
0.234692
0.204499
0.179631
0.158926
0.141521
0.126763
0.114148
0.103289
0.0938786
0.0856783
0.0784811
0.737966
0.763401
0.606706
0.489682
0.40248
0.335842
0.283885
0.24269
0.209548
0.18254
0.160273
0.141724
0.126125
0.112895
0.101587
0.0918514
0.0834192
0.693384
1.09486
0.841152
0.655048
0.521391
0.422934
0.348704
0.291599
0.246883
0.211317
0.18263
0.159201
0.139851
0.123707
0.110112
0.0985707
0.0887142
0.0272795
0.0483442
0.130243
0.495458
2.26557
9.50482
24.0311
31.4835
17.6931
8.46167
8.48555
9.95494
10.5173
8.9513
5.78309
2.82971
1.0965
0.354423
0.108888
0.0407449
0.0308225
0.0587182
0.162071
0.599212
2.61382
10.2386
24.2666
30.765
18.3963
9.03245
8.38839
10.405
11.8862
10.7762
7.46214
3.77696
1.49147
0.489804
0.149539
0.0516246
0.0357144
0.0730426
0.204764
0.732101
3.02757
10.9933
24.4015
29.9881
19.1554
9.74907
8.41077
10.7291
12.9501
12.479
9.34697
5.04006
2.02746
0.676563
0.207861
0.0677392
0.042626
0.0931507
0.262832
0.904914
3.52675
11.7481
24.2432
29.0788
19.7324
10.5393
8.58401
10.9427
13.6591
13.9642
11.3166
6.6288
2.74981
0.933979
0.291128
0.0917245
0.0526151
0.121828
0.34286
1.13325
4.13405
12.4865
23.7571
27.825
19.9906
11.274
8.85469
11.0333
14.0726
15.0961
13.158
8.51255
3.73377
1.2909
0.40959
0.127593
0.0673686
0.163328
0.4545
1.43951
4.87197
13.2165
22.9837
26.1751
19.8052
11.8711
9.13801
11.0259
14.2603
15.8433
14.6989
10.5371
5.06578
1.78357
0.577545
0.181364
0.0896135
0.224173
0.612063
1.85604
5.78735
13.9328
21.9575
24.2079
19.1708
12.2499
9.39232
10.9671
14.2473
16.2151
15.8472
12.4847
6.71207
2.4686
0.816196
0.262105
0.123805
0.314406
0.837058
2.42975
6.92804
14.5755
20.6877
22.0399
18.148
12.3648
9.58238
10.851
14.0351
16.2692
16.494
14.1056
8.64884
3.42539
1.15894
0.383435
0.177298
0.449621
1.16203
3.23009
8.2962
15.0032
19.1576
19.7828
16.8422
12.215
9.68393
10.6918
13.6335
16.029
16.6455
15.1456
10.6396
4.76205
1.65035
0.566467
0.262358
0.654365
1.63624
4.34137
9.7764
15.0062
17.3764
17.5389
15.3816
11.8362
9.73818
10.5298
13.1115
15.4961
16.3336
15.5565
12.3411
6.41772
2.36351
0.844497
0.399631
0.967612
2.33764
5.7949
11.0667
14.3935
15.4003
15.3959
13.8838
11.289
9.70127
10.3435
12.5143
14.7075
15.6423
15.2755
13.3803
8.33109
3.41092
1.27253
0.624583
1.45061
3.39896
7.4952
11.6565
13.0968
13.3842
13.4382
12.4419
10.632
9.52159
10.0814
11.855
13.7274
14.6451
14.4519
13.4507
10.1232
4.89436
1.93714
0.998359
2.20897
4.86222
8.94788
11.1944
11.394
11.536
11.7117
11.1154
9.9302
9.23758
9.73996
11.127
12.5724
13.3954
13.2621
12.6823
11.1956
6.74121
2.99625
1.62743
3.43171
6.58054
9.39636
9.77835
9.69604
9.95603
10.2328
9.93502
9.23437
8.8747
9.3143
10.3364
11.3745
11.9938
11.8535
11.3664
11.059
8.60976
4.66536
2.7262
5.13939
7.78754
8.47061
8.12449
8.27154
8.65278
8.96745
8.90609
8.56966
8.44716
8.80516
9.49532
10.1594
10.5228
10.3594
9.89873
9.89316
9.6717
6.89555
4.52836
6.86576
7.60821
6.84877
6.78809
7.13519
7.56581
7.90459
8.01076
7.94505
7.9683
8.22681
8.62699
8.9672
9.03967
8.85293
8.4399
8.28735
9.25563
9.03619
6.85379
7.35941
6.12946
5.54105
5.80619
6.24513
6.68662
7.0488
7.26829
7.37445
7.47464
7.63015
7.79572
7.8532
7.73664
7.48043
7.10763
6.80515
7.51911
9.4206
7.81574
5.89919
4.73246
4.83656
5.22209
5.66652
6.10787
6.48579
6.77126
6.9643
7.08551
7.14859
7.1313
7.00206
6.74712
6.39453
6.02652
5.71678
5.695
7.03182
5.34199
4.40894
4.46813
4.80057
5.19375
5.67489
6.15512
6.57612
6.91082
7.14118
7.24986
7.26017
7.13009
6.88356
6.52506
6.07507
5.59701
5.19512
4.89921
4.90345
4.78008
5.98844
6.99894
7.94736
8.87901
9.90293
10.8508
11.647
12.2638
12.694
12.9409
12.8865
12.5573
11.9973
11.2115
10.2181
9.10699
8.07239
7.16617
6.07405
4.49011
5.29992
9.77998
11.0374
7.14002
3.84525
2.03317
1.14935
0.678898
0.415479
0.262299
0.170764
0.115106
0.0807184
0.0591606
0.0454578
0.0366132
0.0308061
0.0269067
0.0242293
2.98008
4.79283
11.3322
7.73295
3.76177
1.80487
0.937785
0.516524
0.298214
0.18034
0.114721
0.0772396
0.055357
0.0423157
0.0343765
0.0294276
0.0262505
0.0241352
0.0226522
0.0215626
2.67365
6.12143
10.0081
4.76939
2.00004
0.924338
0.465442
0.250651
0.144516
0.0897466
0.0605185
0.0444779
0.0354409
0.0302024
0.0270558
0.0250751
0.0237475
0.0227917
0.0220389
0.0214126
2.66379
9.44851
6.92047
2.67237
1.06239
0.483286
0.241092
0.131721
0.0794135
0.0533601
0.039961
0.0328538
0.0289433
0.026683
0.0252842
0.024339
0.0236307
0.0230497
0.0225252
0.0220401
2.19123
9.77086
4.37628
1.48695
0.589113
0.267053
0.136221
0.0785126
0.0517166
0.0388206
0.0324016