/*--------------------------------*- C++ -*----------------------------------*\
  =========                 |
  \\      /  F ield         | OpenFOAM: The Open Source CFD Toolbox
   \\    /   O peration     | Website:  https://openfoam.org
    \\  /    A nd           | Version:  6
     \\/     M anipulation  |
\*---------------------------------------------------------------------------*/
FoamFile
{
    version     2.0;
    format      ascii;
    class       volScalarField;
    location    "3.04";
    object      rho;
}
// * * * * * * * * * * * * * * * * * * * * * * * * * * * * * * * * * * * * * //

dimensions      [1 -3 0 0 0 0 0];

internalField   nonuniform List<scalar> 
5625
(
1.44813
1.43765
1.42541
1.41216
1.39846
1.38463
1.37078
1.35686
1.34278
1.3284
1.31353
1.29795
1.28164
1.26498
1.24847
1.23255
1.21794
1.20573
1.1966
1.19073
1.18857
1.19086
1.19763
1.20798
1.22088
1.23572
1.25197
1.26889
1.28576
1.30223
1.31812
1.3333
1.34774
1.36164
1.37552
1.38991
1.40494
1.42011
1.43432
1.44614
1.45432
1.45813
1.45763
1.45355
1.44707
1.43941
1.43165
1.4245
1.41838
1.41342
1.40958
1.40671
1.40462
1.40315
1.40214
1.40145
1.40098
1.40067
1.40046
1.40032
1.40023
1.40016
1.40012
1.40009
1.40006
1.40005
1.40003
1.40002
1.40002
1.40001
1.40001
1.40001
1.40001
1.40001
1.40001
1.45163
1.44233
1.43104
1.41853
1.40544
1.39219
1.37899
1.36591
1.35291
1.33989
1.32669
1.31319
1.29942
1.28565
1.27214
1.25917
1.24741
1.23763
1.23022
1.2254
1.22373
1.22569
1.23104
1.23898
1.24893
1.26064
1.27373
1.28757
1.30164
1.31571
1.32966
1.34333
1.35663
1.36977
1.38319
1.39723
1.41183
1.42629
1.43941
1.44979
1.45635
1.45859
1.45678
1.4518
1.44483
1.43707
1.42945
1.42261
1.41685
1.41224
1.4087
1.40608
1.40419
1.40286
1.40195
1.40132
1.4009
1.40062
1.40044
1.40031
1.40022
1.40016
1.40011
1.40008
1.40006
1.40004
1.40003
1.40002
1.40002
1.40001
1.40001
1.40001
1.40001
1.40001
1.40001
1.4548
1.44682
1.43662
1.42499
1.4126
1.39993
1.38732
1.37494
1.36282
1.35091
1.3391
1.32733
1.31565
1.30417
1.29301
1.28245
1.273
1.26515
1.25913
1.25522
1.25393
1.25545
1.25943
1.26534
1.27298
1.28227
1.29289
1.30432
1.31621
1.32843
1.34085
1.3533
1.3657
1.37822
1.39123
1.40489
1.41894
1.4325
1.44432
1.45309
1.45791
1.45855
1.45547
1.44967
1.44234
1.43456
1.42718
1.42069
1.41531
1.41107
1.40784
1.40547
1.40377
1.40258
1.40176
1.4012
1.40083
1.40058
1.40041
1.40029
1.40021
1.40015
1.40011
1.40008
1.40006
1.40004
1.40003
1.40002
1.40002
1.40001
1.40001
1.40001
1.40001
1.40001
1.40001
1.45749
1.45097
1.44203
1.43142
1.41983
1.40782
1.39579
1.38401
1.37257
1.36151
1.3508
1.34043
1.33036
1.32061
1.3113
1.30267
1.29504
1.28866
1.28373
1.28057
1.27949
1.2805
1.28329
1.28766
1.29363
1.30116
1.30991
1.31951
1.32975
1.34055
1.3518
1.36329
1.37496
1.38697
1.39958
1.41279
1.42613
1.43858
1.44888
1.45587
1.45888
1.45793
1.45368
1.44718
1.4396
1.43193
1.42485
1.41876
1.41379
1.40992
1.40701
1.40488
1.40336
1.40231
1.40158
1.40109
1.40076
1.40053
1.40038
1.40027
1.4002
1.40014
1.4001
1.40008
1.40006
1.40004
1.40003
1.40002
1.40002
1.40001
1.40001
1.40001
1.40001
1.40001
1.40001
1.45956
1.45464
1.44709
1.43766
1.42702
1.41576
1.40435
1.39313
1.38226
1.37187
1.362
1.35263
1.3437
1.33525
1.32739
1.32023
1.31392
1.30864
1.30457
1.30196
1.30096
1.30149
1.30342
1.30675
1.3116
1.31787
1.32525
1.33349
1.34252
1.35228
1.36262
1.37334
1.38441
1.39598
1.40817
1.42081
1.43323
1.44434
1.45291
1.45799
1.45915
1.45668
1.45138
1.44436
1.43667
1.4292
1.4225
1.41685
1.41231
1.40882
1.40621
1.40432
1.40298
1.40205
1.40141
1.40098
1.40068
1.40048
1.40035
1.40025
1.40018
1.40013
1.4001
1.40007
1.40005
1.40004
1.40003
1.40002
1.40002
1.40001
1.40001
1.40001
1.40001
1.40001
1.40001
1.46087
1.45766
1.45166
1.44355
1.43401
1.42363
1.41293
1.40227
1.39194
1.3821
1.37284
1.36414
1.35604
1.34857
1.34174
1.33559
1.33021
1.32576
1.32235
1.3201
1.31911
1.31932
1.32073
1.32345
1.32756
1.33294
1.33933
1.34661
1.35478
1.36377
1.37339
1.38349
1.39405
1.40518
1.41687
1.42877
1.44004
1.44955
1.45621
1.45929
1.45864
1.45478
1.44861
1.44123
1.43359
1.42642
1.42016
1.41498
1.41089
1.40776
1.40545
1.40379
1.40262
1.40181
1.40125
1.40087
1.40062
1.40044
1.40032
1.40023
1.40017
1.40013
1.40009
1.40007
1.40005
1.40004
1.40003
1.40002
1.40002
1.40001
1.40001
1.40001
1.40001
1.40001
1.40001
1.46128
1.45986
1.45555
1.44893
1.44063
1.43127
1.42139
1.41139
1.40161
1.39226
1.38346
1.37527
1.36778
1.36097
1.35481
1.34933
1.34463
1.34078
1.33781
1.33581
1.33484
1.33491
1.33608
1.33847
1.34211
1.34685
1.35254
1.35915
1.36671
1.37512
1.38417
1.39372
1.40381
1.41446
1.42552
1.43645
1.4463
1.45399
1.45859
1.45965
1.4573
1.45223
1.44541
1.43786
1.43041
1.42365
1.41788
1.41319
1.40953
1.40677
1.40475
1.4033
1.40229
1.40158
1.4011
1.40078
1.40055
1.4004
1.40029
1.40021
1.40016
1.40012
1.40009
1.40006
1.40005
1.40004
1.40003
1.40002
1.40002
1.40001
1.40001
1.40001
1.40001
1.40001
1.40001
1.46068
1.46109
1.45857
1.45358
1.4467
1.43853
1.42959
1.42036
1.41119
1.40234
1.39397
1.38622
1.37915
1.37276
1.36704
1.36204
1.35783
1.35437
1.3517
1.34989
1.34901
1.34907
1.35016
1.35237
1.35569
1.35998
1.36519
1.37136
1.37847
1.38639
1.39493
1.404
1.4136
1.42367
1.4339
1.44359
1.45176
1.45743
1.45989
1.45899
1.45512
1.44908
1.44185
1.43432
1.42721
1.42093
1.41569
1.41149
1.40826
1.40585
1.4041
1.40285
1.40198
1.40138
1.40097
1.40069
1.4005
1.40036
1.40027
1.4002
1.40015
1.40011
1.40008
1.40006
1.40004
1.40003
1.40002
1.40002
1.40001
1.40001
1.40001
1.40001
1.40001
1.40001
1.40001
1.45901
1.46119
1.46053
1.4573
1.452
1.44516
1.43735
1.42902
1.42056
1.41227
1.40436
1.39702
1.3903
1.38421
1.37883
1.3742
1.37028
1.36707
1.36462
1.36301
1.36224
1.36235
1.36344
1.36556
1.36864
1.37262
1.37751
1.38336
1.3901
1.39758
1.40564
1.41421
1.42325
1.43258
1.44173
1.44989
1.45613
1.45964
1.45999
1.4573
1.45215
1.44542
1.43802
1.43071
1.42404
1.4183
1.41361
1.40991
1.40709
1.40501
1.40351
1.40244
1.4017
1.4012
1.40085
1.40061
1.40044
1.40032
1.40024
1.40018
1.40013
1.4001
1.40008
1.40006
1.40004
1.40003
1.40002
1.40002
1.40001
1.40001
1.40001
1.40001
1.40001
1.40001
1.40001
1.45626
1.46009
1.46127
1.45989
1.45629
1.45096
1.44443
1.43715
1.42954
1.42193
1.41457
1.40765
1.40126
1.39548
1.39039
1.38601
1.3823
1.37929
1.37705
1.37561
1.37495
1.37513
1.37623
1.37828
1.38119
1.38496
1.38962
1.3952
1.40159
1.40863
1.41619
1.42419
1.43254
1.4409
1.44868
1.45504
1.45916
1.46046
1.45882
1.4546
1.44849
1.44137
1.43403
1.4271
1.42096
1.41581
1.41167
1.40845
1.40603
1.40425
1.40298
1.40208
1.40146
1.40103
1.40073
1.40053
1.40039
1.40029
1.40022
1.40016
1.40012
1.40009
1.40007
1.40005
1.40004
1.40003
1.40002
1.40002
1.40001
1.40001
1.40001
1.40001
1.40001
1.40001
1.40001
1.45249
1.45774
1.46067
1.46115
1.45936
1.45568
1.45059
1.44453
1.43792
1.43112
1.42441
1.41799
1.41201
1.40657
1.40176
1.39759
1.39407
1.39127
1.38921
1.38789
1.38732
1.38758
1.3887
1.39068
1.39346
1.39706
1.40154
1.40684
1.41285
1.4194
1.42639
1.43371
1.44115
1.44827
1.45438
1.45872
1.46063
1.45982
1.45644
1.45101
1.44428
1.43706
1.43
1.42358
1.41805
1.4135
1.40989
1.40713
1.40507
1.40357
1.4025
1.40176
1.40124
1.40088
1.40063
1.40046
1.40034
1.40026
1.40019
1.40015
1.40011
1.40008
1.40006
1.40005
1.40004
1.40003
1.40002
1.40002
1.40001
1.40001
1.40001
1.40001
1.40001
1.40001
1.40001
1.44784
1.45418
1.45866
1.46093
1.46098
1.45907
1.45556
1.45089
1.44545
1.43962
1.43369
1.42788
1.42238
1.41735
1.41285
1.40893
1.40563
1.40303
1.40113
1.39992
1.39944
1.39977
1.4009
1.40279
1.40545
1.40891
1.41317
1.41814
1.42369
1.42968
1.43598
1.44243
1.44872
1.4543
1.4585
1.46068
1.46044
1.45774
1.45294
1.44669
1.4397
1.43264
1.42605
1.42023
1.41533
1.41138
1.40829
1.40595
1.40422
1.40297
1.40209
1.40147
1.40104
1.40075
1.40055
1.4004
1.4003
1.40023
1.40017
1.40013
1.4001
1.40008
1.40006
1.40004
1.40003
1.40002
1.40002
1.40001
1.40001
1.40001
1.40001
1.40001
1.40001
1.40001
1.40001
1.44259
1.44958
1.45527
1.45914
1.461
1.46089
1.45909
1.45594
1.45183
1.44712
1.4421
1.43706
1.43218
1.42764
1.42352
1.41991
1.41689
1.41449
1.41274
1.41164
1.41127
1.41164
1.41274
1.41455
1.41707
1.42035
1.42433
1.42888
1.43388
1.43917
1.44461
1.44997
1.45482
1.4586
1.46073
1.46077
1.45857
1.45433
1.44855
1.44187
1.43493
1.42827
1.42227
1.41711
1.41285
1.40948
1.40687
1.40491
1.40348
1.40245
1.40173
1.40123
1.40088
1.40064
1.40047
1.40035
1.40026
1.4002
1.40015
1.40012
1.40009
1.40007
1.40005
1.40004
1.40003
1.40002
1.40002
1.40001
1.40001
1.40001
1.40001
1.40001
1.40001
1.40001
1.40001
1.43702
1.4442
1.45068
1.45583
1.45929
1.46095
1.4609
1.4594
1.45675
1.45332
1.44939
1.44525
1.44112
1.43717
1.43353
1.43031
1.42761
1.42544
1.42386
1.42291
1.42263
1.42302
1.42407
1.42577
1.42813
1.43115
1.43473
1.43875
1.44305
1.44749
1.45187
1.45587
1.45903
1.46086
1.46092
1.459
1.45519
1.44985
1.44352
1.43678
1.43017
1.42408
1.41874
1.41426
1.41063
1.40779
1.40562
1.40401
1.40284
1.40201
1.40142
1.40101
1.40073
1.40054
1.4004
1.4003
1.40023
1.40018
1.40014
1.4001
1.40008
1.40006
1.40005
1.40003
1.40003
1.40002
1.40002
1.40001
1.40001
1.40001
1.40001
1.40001
1.40001
1.40001
1.40001
1.43146
1.43841
1.44518
1.45118
1.45594
1.45916
1.46079
1.46097
1.4599
1.45788
1.45518
1.45209
1.44884
1.44561
1.44256
1.43983
1.4375
1.43562
1.43426
1.43346
1.43326
1.43364
1.43461
1.43617
1.4383
1.44096
1.44402
1.44735
1.4508
1.45419
1.45728
1.4597
1.46103
1.46091
1.45908
1.45555
1.45058
1.4446
1.43814
1.43167
1.4256
1.42017
1.41554
1.41172
1.40868
1.40633
1.40455
1.40324
1.4023
1.40163
1.40116
1.40083
1.40061
1.40045
1.40034
1.40026
1.4002
1.40015
1.40012
1.40009
1.40007
1.40005
1.40004
1.40003
1.40002
1.40002
1.40001
1.40001
1.40001
1.40001
1.40001
1.40001
1.40001
1.40001
1.40001
1.42618
1.43259
1.4392
1.44554
1.45113
1.45559
1.45871
1.46048
1.46099
1.46045
1.45911
1.4572
1.45496
1.45258
1.45024
1.44808
1.44619
1.44466
1.44356
1.44294
1.4428
1.44315
1.444
1.44534
1.44714
1.44931
1.45171
1.45421
1.45664
1.4588
1.46041
1.46114
1.46067
1.45877
1.45541
1.45074
1.44511
1.43895
1.4327
1.42674
1.42133
1.41662
1.41269
1.4095
1.40699
1.40507
1.40364
1.40259
1.40184
1.40131
1.40094
1.40068
1.4005
1.40038
1.40029
1.40022
1.40017
1.40013
1.4001
1.40008
1.40006
1.40005
1.40004
1.40003
1.40002
1.40002
1.40001
1.40001
1.40001
1.40001
1.40001
1.40001
1.40001
1.40001
1.40001
1.42138
1.42704
1.43316
1.43938
1.44529
1.45053
1.45478
1.45789
1.45987
1.46079
1.46083
1.46018
1.45905
1.45764
1.45611
1.4546
1.45324
1.45212
1.45131
1.45086
1.45077
1.45108
1.45177
1.45282
1.45417
1.45571
1.45732
1.45884
1.46011
1.46092
1.46101
1.46011
1.45805
1.45475
1.45032
1.44501
1.43919
1.43323
1.42746
1.42215
1.41747
1.41348
1.41021
1.40759
1.40556
1.40402
1.40287
1.40205
1.40146
1.40104
1.40075
1.40055
1.40041
1.40031
1.40024
1.40019
1.40015
1.40012
1.40009
1.40007
1.40005
1.40004
1.40003
1.40002
1.40002
1.40001
1.40001
1.40001
1.40001
1.40001
1.40001
1.40001
1.40001
1.40001
1.40001
1.41717
1.42199
1.4274
1.43315
1.43895
1.44445
1.44937
1.45345
1.4566
1.45881
1.46015
1.46075
1.46076
1.46036
1.4597
1.45893
1.45816
1.45749
1.45699
1.45672
1.45668
1.4569
1.45737
1.45805
1.45885
1.45967
1.46039
1.46087
1.46094
1.46041
1.45908
1.45681
1.45352
1.44929
1.4443
1.43884
1.43321
1.42772
1.4226
1.41802
1.41406
1.41076
1.40809
1.40598
1.40436
1.40314
1.40224
1.4016
1.40114
1.40082
1.4006
1.40045
1.40034
1.40026
1.4002
1.40016
1.40013
1.4001
1.40008
1.40006
1.40005
1.40004
1.40003
1.40002
1.40002
1.40001
1.40001
1.40001
1.40001
1.40001
1.40001
1.40001
1.40001
1.40001
1.40001
1.41358
1.41758
1.42217
1.42725
1.43258
1.43793
1.44302
1.44762
1.45156
1.45473
1.45714
1.45884
1.45991
1.46049
1.46071
1.46068
1.46053
1.46032
1.46014
1.46004
1.46004
1.46015
1.46035
1.46059
1.4608
1.46087
1.46069
1.46015
1.4591
1.4574
1.45495
1.45168
1.44764
1.44298
1.4379
1.43265
1.42749
1.42264
1.41824
1.41439
1.41114
1.40846
1.40631
1.40464
1.40337
1.40242
1.40173
1.40124
1.40089
1.40065
1.40048
1.40036
1.40028
1.40022
1.40017
1.40013
1.40011
1.40008
1.40007
1.40005
1.40004
1.40003
1.40002
1.40002
1.40002
1.40001
1.40001
1.40001
1.40001
1.40001
1.40001
1.40001
1.40001
1.40001
1.40001
1.41059
1.41383
1.41763
1.42192
1.4266
1.43148
1.43636
1.44102
1.4453
1.44904
1.45217
1.45469
1.45663
1.45806
1.45905
1.45971
1.46012
1.46036
1.46049
1.46055
1.46056
1.46054
1.46046
1.46026
1.45989
1.45926
1.45828
1.45687
1.45492
1.45237
1.44917
1.44536
1.44104
1.43637
1.43155
1.42679
1.42227
1.41812
1.41445
1.4113
1.40867
1.40654
1.40485
1.40355
1.40257
1.40184
1.40132
1.40094
1.40068
1.4005
1.40038
1.40029
1.40022
1.40018
1.40014
1.40011
1.40009
1.40007
1.40006
1.40004
1.40004
1.40003
1.40002
1.40002
1.40001
1.40001
1.40001
1.40001
1.40001
1.40001
1.40001
1.40001
1.40001
1.40001
1.40001
1.40815
1.41072
1.41379
1.41732
1.42125
1.42549
1.42989
1.43427
1.43848
1.44238
1.44586
1.44887
1.45137
1.4534
1.455
1.4562
1.45708
1.45768
1.45807
1.45826
1.45829
1.45814
1.4578
1.45722
1.45636
1.45517
1.45359
1.45156
1.44903
1.44599
1.44246
1.43853
1.43431
1.42996
1.42563
1.4215
1.41766
1.41423
1.41125
1.40872
1.40664
1.40497
1.40367
1.40267
1.40193
1.40138
1.40099
1.40071
1.40052
1.40039
1.40029
1.40023
1.40018
1.40015
1.40012
1.40009
1.40008
1.40006
1.40005
1.40004
1.40003
1.40002
1.40002
1.40001
1.40001
1.40001
1.40001
1.40001
1.40001
1.40001
1.40001
1.40001
1.40001
1.40001
1.40001
1.40619
1.40821
1.41063
1.41346
1.41667
1.42021
1.42398
1.42786
1.43173
1.43545
1.43893
1.44207
1.44483
1.44719
1.44913
1.45069
1.45188
1.45275
1.45332
1.45361
1.45363
1.45338
1.45284
1.45199
1.45081
1.44926
1.44731
1.44495
1.44217
1.439
1.4355
1.43176
1.4279
1.42406
1.42035
1.41688
1.41374
1.41097
1.40859
1.40661
1.405
1.40372
1.40273
1.40198
1.40142
1.40102
1.40073
1.40053
1.40039
1.4003
1.40023
1.40018
1.40015
1.40012
1.4001
1.40008
1.40006
1.40005
1.40004
1.40003
1.40003
1.40002
1.40002
1.40001
1.40001
1.40001
1.40001
1.40001
1.40001
1.40001
1.40001
1.40001
1.40001
1.40001
1.40001
1.40465
1.4062
1.40808
1.41031
1.41287
1.41573
1.41884
1.42212
1.42548
1.42882
1.43203
1.43504
1.43776
1.44017
1.44223
1.44394
1.44529
1.44629
1.44695
1.44729
1.4473
1.44699
1.44634
1.44535
1.444
1.4423
1.44023
1.43781
1.43507
1.43204
1.42881
1.42548
1.42214
1.41888
1.41581
1.41299
1.41048
1.40829
1.40645
1.40492
1.40369
1.40273
1.40199
1.40144
1.40103
1.40074
1.40054
1.40039
1.40029
1.40023
1.40018
1.40014
1.40012
1.4001
1.40008
1.40007
1.40005
1.40004
1.40003
1.40003
1.40002
1.40002
1.40001
1.40001
1.40001
1.40001
1.40001
1.40001
1.40001
1.40001
1.40001
1.40001
1.40001
1.40001
1.40001
1.40346
1.40464
1.40608
1.40779
1.40978
1.41204
1.41454
1.41721
1.42001
1.42285
1.42564
1.42832
1.43082
1.43309
1.43507
1.43674
1.4381
1.43912
1.4398
1.44014
1.44015
1.43981
1.43914
1.43812
1.43676
1.43508
1.43309
1.43081
1.42829
1.42559
1.42278
1.41994
1.41716
1.4145
1.41203
1.4098
1.40784
1.40615
1.40474
1.40359
1.40268
1.40196
1.40142
1.40102
1.40073
1.40053
1.40038
1.40028
1.40022
1.40017
1.40014
1.40011
1.40009
1.40008
1.40006
1.40005
1.40004
1.40004
1.40003
1.40002
1.40002
1.40002
1.40001
1.40001
1.40001
1.40001
1.40001
1.40001
1.40001
1.40001
1.40001
1.40001
1.40001
1.40001
1.40001
1.40256
1.40344
1.40452
1.40582
1.40735
1.40909
1.41104
1.41316
1.4154
1.41772
1.42005
1.42232
1.42448
1.42647
1.42825
1.42977
1.43102
1.43197
1.43261
1.43293
1.43292
1.43259
1.43195
1.43099
1.42974
1.4282
1.4264
1.42439
1.42221
1.41992
1.41758
1.41526
1.41301
1.4109
1.40897
1.40725
1.40575
1.40447
1.40342
1.40257
1.4019
1.40138
1.40099
1.40071
1.40051
1.40037
1.40027
1.4002
1.40016
1.40013
1.4001
1.40009
1.40007
1.40006
1.40005
1.40004
1.40004
1.40003
1.40002
1.40002
1.40002
1.40001
1.40001
1.40001
1.40001
1.40001
1.40001
1.40001
1.40001
1.40001
1.40001
1.40001
1.40001
1.40001
1.40001
1.40187
1.40253
1.40333
1.40431
1.40545
1.40678
1.40827
1.40991
1.41166
1.4135
1.41536
1.41721
1.41899
1.42065
1.42215
1.42346
1.42454
1.42537
1.42592
1.4262
1.42619
1.4259
1.42532
1.42447
1.42337
1.42205
1.42052
1.41882
1.41702
1.41515
1.41326
1.41142
1.40966
1.40803
1.40655
1.40524
1.40412
1.40318
1.40241
1.40179
1.40131
1.40094
1.40067
1.40048
1.40034
1.40025
1.40019
1.40014
1.40011
1.40009
1.40008
1.40007
1.40006
1.40005
1.40004
1.40004
1.40003
1.40003
1.40002
1.40002
1.40001
1.40001
1.40001
1.40001
1.40001
1.40001
1.40001
1.40001
1.40001
1.40001
1.40001
1.40001
1.40001
1.40001
1.40001
1.40137
1.40185
1.40244
1.40316
1.40401
1.405
1.40612
1.40736
1.4087
1.41011
1.41156
1.41302
1.41443
1.41576
1.41698
1.41805
1.41894
1.41962
1.42008
1.4203
1.42029
1.42004
1.41955
1.41883
1.41791
1.41681
1.41555
1.41419
1.41274
1.41126
1.40979
1.40836
1.40702
1.40578
1.40468
1.40371
1.40289
1.4022
1.40165
1.40121
1.40087
1.40062
1.40044
1.40031
1.40022
1.40016
1.40012
1.4001
1.40008
1.40007
1.40006
1.40005
1.40005
1.40004
1.40003
1.40003
1.40002
1.40002
1.40002
1.40001
1.40001
1.40001
1.40001
1.40001
1.40001
1.40001
1.40001
1.40001
1.40001
1.40001
1.40001
1.40001
1.40001
1.40001
1.40001
1.40099
1.40135
1.40178
1.4023
1.40293
1.40366
1.40448
1.4054
1.40641
1.40747
1.40857
1.40968
1.41077
1.41181
1.41276
1.4136
1.4143
1.41484
1.4152
1.41537
1.41535
1.41513
1.41473
1.41415
1.41341
1.41253
1.41153
1.41045
1.40933
1.40819
1.40707
1.40599
1.40498
1.40407
1.40326
1.40256
1.40197
1.40148
1.40109
1.40079
1.40056
1.40039
1.40027
1.40019
1.40014
1.4001
1.40008
1.40007
1.40006
1.40005
1.40004
1.40004
1.40004
1.40003
1.40003
1.40002
1.40002
1.40002
1.40001
1.40001
1.40001
1.40001
1.40001
1.40001
1.40001
1.40001
1.40001
1.40001
1.40001
1.40001
1.40001
1.40001
1.40001
1.40001
1.40001
1.40073
1.40098
1.4013
1.40168
1.40212
1.40265
1.40326
1.40393
1.40466
1.40545
1.40627
1.4071
1.40792
1.4087
1.40942
1.41006
1.41059
1.41099
1.41127
1.41139
1.41137
1.41119
1.41086
1.4104
1.40982
1.40913
1.40836
1.40754
1.40668
1.40583
1.40499
1.40419
1.40345
1.40279
1.40221
1.40171
1.4013
1.40096
1.40069
1.40049
1.40034
1.40023
1.40016
1.40011
1.40008
1.40006
1.40005
1.40004
1.40004
1.40004
1.40003
1.40003
1.40003
1.40003
1.40002
1.40002
1.40002
1.40001
1.40001
1.40001
1.40001
1.40001
1.40001
1.40001
1.40001
1.40001
1.40001
1.40001
1.40001
1.40001
1.40001
1.40001
1.40001
1.40001
1.40001
1.40054
1.40072
1.40094
1.40121
1.40154
1.40192
1.40235
1.40284
1.40337
1.40394
1.40453
1.40514
1.40574
1.40631
1.40684
1.40731
1.4077
1.408
1.4082
1.40828
1.40825
1.40811
1.40785
1.40749
1.40704
1.40651
1.40593
1.40531
1.40468
1.40404
1.40343
1.40286
1.40233
1.40186
1.40145
1.4011
1.40082
1.40059
1.40041
1.40028
1.40019
1.40012
1.40008
1.40005
1.40004
1.40003
1.40003
1.40003
1.40003
1.40003
1.40002
1.40002
1.40002
1.40002
1.40002
1.40002
1.40001
1.40001
1.40001
1.40001
1.40001
1.40001
1.40001
1.40001
1.40001
1.40001
1.40001
1.40001
1.40001
1.40001
1.40001
1.40001
1.40001
1.40001
1.40001
1.4004
1.40053
1.40069
1.40089
1.40111
1.40138
1.40169
1.40204
1.40242
1.40282
1.40325
1.40368
1.40411
1.40452
1.4049
1.40524
1.40552
1.40573
1.40586
1.40591
1.40588
1.40576
1.40556
1.40528
1.40494
1.40455
1.40412
1.40366
1.4032
1.40274
1.4023
1.40189
1.40152
1.40119
1.40091
1.40067
1.40048
1.40034
1.40022
1.40014
1.40009
1.40005
1.40003
1.40002
1.40001
1.40001
1.40001
1.40001
1.40002
1.40002
1.40002
1.40002
1.40002
1.40002
1.40001
1.40001
1.40001
1.40001
1.40001
1.40001
1.40001
1.40001
1.40001
1.40001
1.40001
1.40001
1.40001
1.40001
1.40001
1.40001
1.40001
1.40001
1.40001
1.40001
1.40001
1.4003
1.4004
1.40051
1.40065
1.40081
1.401
1.40122
1.40146
1.40173
1.40201
1.40231
1.40261
1.40291
1.4032
1.40347
1.4037
1.40389
1.40403
1.40412
1.40415
1.40411
1.40401
1.40385
1.40364
1.40339
1.4031
1.40279
1.40246
1.40212
1.4018
1.40149
1.4012
1.40095
1.40072
1.40053
1.40038
1.40026
1.40017
1.4001
1.40005
1.40002
1.40001
1.4
1.39999
1.4
1.4
1.4
1.40001
1.40001
1.40001
1.40001
1.40001
1.40001
1.40001
1.40001
1.40001
1.40001
1.40001
1.40001
1.40001
1.40001
1.40001
1.40001
1.40001
1.40001
1.40001
1.40001
1.40001
1.40001
1.40001
1.4
1.40001
1.40001
1.40001
1.40001
1.40023
1.4003
1.40038
1.40048
1.40059
1.40073
1.40088
1.40105
1.40123
1.40143
1.40163
1.40184
1.40205
1.40225
1.40243
1.40258
1.40271
1.4028
1.40285
1.40286
1.40282
1.40275
1.40263
1.40247
1.40228
1.40206
1.40184
1.4016
1.40137
1.40114
1.40092
1.40073
1.40055
1.40041
1.40029
1.40019
1.40011
1.40006
1.40002
1.39999
1.39998
1.39998
1.39998
1.39998
1.39999
1.39999
1.4
1.4
1.40001
1.40001
1.40001
1.40001
1.40001
1.40001
1.40001
1.40001
1.40001
1.40001
1.40001
1.40001
1.40001
1.40001
1.40001
1.40001
1.40001
1.40001
1.40001
1.40001
1.40001
1.40001
1.40001
1.40001
1.40001
1.40001
1.40001
1.40018
1.40023
1.40029
1.40036
1.40044
1.40054
1.40064
1.40075
1.40089
1.40102
1.40116
1.4013
1.40143
1.40157
1.40169
1.40179
1.40186
1.40192
1.40195
1.40194
1.40191
1.40184
1.40175
1.40163
1.40149
1.40134
1.40117
1.401
1.40084
1.40069
1.40054
1.40041
1.40029
1.4002
1.40012
1.40006
1.40002
1.39999
1.39997
1.39996
1.39996
1.39996
1.39997
1.39998
1.39998
1.39999
1.39999
1.4
1.4
1.40001
1.40001
1.40001
1.40001
1.40001
1.40001
1.40001
1.40001
1.40001
1.40001
1.40001
1.40001
1.40001
1.40001
1.40001
1.40001
1.40001
1.40001
1.40001
1.4
1.4
1.4
1.40001
1.40001
1.40001
1.40001
1.40014
1.40018
1.40022
1.40028
1.40033
1.4004
1.40047
1.40055
1.40063
1.40072
1.40082
1.40091
1.401
1.40109
1.40116
1.40123
1.40127
1.4013
1.40131
1.4013
1.40126
1.40121
1.40114
1.40105
1.40095
1.40084
1.40072
1.4006
1.40049
1.40038
1.40029
1.4002
1.40013
1.40007
1.40002
1.39999
1.39997
1.39995
1.39995
1.39995
1.39995
1.39996
1.39997
1.39997
1.39998
1.39999
1.39999
1.4
1.4
1.4
1.40001
1.40001
1.40001
1.40001
1.40001
1.40001
1.40001
1.40001
1.40001
1.40001
1.40001
1.40001
1.40001
1.40001
1.40001
1.40001
1.40001
1.40001
1.40001
1.40001
1.40001
1.40001
1.40001
1.40001
1.40001
1.40012
1.40014
1.40017
1.40021
1.40026
1.4003
1.40035
1.4004
1.40047
1.40052
1.40058
1.40065
1.4007
1.40075
1.4008
1.40084
1.40086
1.40087
1.40087
1.40085
1.40082
1.40078
1.40072
1.40065
1.40058
1.4005
1.40042
1.40034
1.40026
1.40019
1.40013
1.40007
1.40003
1.39999
1.39997
1.39995
1.39994
1.39994
1.39994
1.39994
1.39995
1.39996
1.39997
1.39997
1.39998
1.39999
1.39999
1.4
1.4
1.4
1.40001
1.40001
1.40001
1.40001
1.40001
1.40001
1.40001
1.40001
1.40001
1.40001
1.40001
1.40001
1.40001
1.40001
1.40001
1.40001
1.40001
1.4
1.4
1.4
1.4
1.40001
1.40001
1.40001
1.40001
1.40009
1.40011
1.40014
1.40016
1.40019
1.40023
1.40027
1.4003
1.40034
1.40038
1.40042
1.40046
1.40049
1.40053
1.40055
1.40057
1.40058
1.40058
1.40057
1.40055
1.40053
1.40049
1.40045
1.4004
1.40034
1.40028
1.40022
1.40017
1.40012
1.40007
1.40003
1.4
1.39997
1.39995
1.39994
1.39993
1.39993
1.39993
1.39994
1.39994
1.39995
1.39996
1.39997
1.39998
1.39998
1.39999
1.39999
1.4
1.4
1.4
1.4
1.40001
1.40001
1.40001
1.40001
1.40001
1.40001
1.40001
1.40001
1.40001
1.40001
1.40001
1.40001
1.40001
1.40001
1.40001
1.40001
1.40001
1.40001
1.40001
1.40001
1.40001
1.40001
1.40001
1.40001
1.40008
1.40009
1.40011
1.40013
1.40015
1.40017
1.4002
1.40023
1.40026
1.40028
1.40031
1.40033
1.40035
1.40037
1.40038
1.40039
1.40039
1.40039
1.40037
1.40036
1.40033
1.4003
1.40027
1.40023
1.40019
1.40015
1.40011
1.40007
1.40003
1.4
1.39998
1.39996
1.39994
1.39993
1.39993
1.39993
1.39993
1.39993
1.39994
1.39995
1.39996
1.39997
1.39997
1.39998
1.39999
1.39999
1.4
1.4
1.4
1.4
1.4
1.40001
1.40001
1.40001
1.40001
1.40001
1.40001
1.40001
1.40001
1.40001
1.40001
1.40001
1.40001
1.40001
1.40001
1.40001
1.40001
1.4
1.4
1.4
1.4
1.40001
1.40001
1.40001
1.40001
1.40006
1.40008
1.40009
1.4001
1.40012
1.40014
1.40016
1.40017
1.40019
1.40021
1.40023
1.40024
1.40025
1.40026
1.40027
1.40027
1.40026
1.40026
1.40024
1.40023
1.4002
1.40018
1.40015
1.40012
1.40009
1.40006
1.40003
1.40001
1.39999
1.39997
1.39995
1.39994
1.39993
1.39993
1.39993
1.39993
1.39993
1.39994
1.39995
1.39995
1.39996
1.39997
1.39998
1.39998
1.39999
1.39999
1.4
1.4
1.4
1.4
1.4
1.4
1.40001
1.40001
1.40001
1.40001
1.40001
1.40001
1.40001
1.40001
1.40001
1.40001
1.40001
1.40001
1.40001
1.40001
1.40001
1.40001
1.40001
1.40001
1.40001
1.40001
1.40001
1.40001
1.40001
1.40005
1.40006
1.40007
1.40008
1.40009
1.40011
1.40012
1.40014
1.40015
1.40016
1.40017
1.40018
1.40018
1.40019
1.40019
1.40019
1.40018
1.40017
1.40016
1.40014
1.40013
1.40011
1.40008
1.40006
1.40004
1.40002
1.4
1.39998
1.39996
1.39995
1.39994
1.39993
1.39993
1.39993
1.39993
1.39994
1.39994
1.39995
1.39996
1.39996
1.39997
1.39998
1.39998
1.39999
1.39999
1.39999
1.4
1.4
1.4
1.4
1.4
1.4
1.4
1.4
1.40001
1.40001
1.40001
1.40001
1.40001
1.40001
1.40001
1.40001
1.40001
1.40001
1.40001
1.40001
1.40001
1.4
1.4
1.4
1.40001
1.40001
1.40001
1.40001
1.40001
1.40004
1.40005
1.40005
1.40007
1.40008
1.40009
1.40009
1.4001
1.40011
1.40012
1.40013
1.40013
1.40014
1.40014
1.40014
1.40013
1.40013
1.40012
1.4001
1.40009
1.40007
1.40006
1.40004
1.40002
1.40001
1.39999
1.39998
1.39996
1.39995
1.39994
1.39994
1.39994
1.39994
1.39994
1.39994
1.39995
1.39995
1.39996
1.39996
1.39997
1.39998
1.39998
1.39999
1.39999
1.39999
1.4
1.4
1.4
1.4
1.4
1.4
1.4
1.4
1.40001
1.40001
1.40001
1.40001
1.40001
1.40001
1.40001
1.40001
1.40001
1.40001
1.40001
1.40001
1.40001
1.40001
1.40001
1.40001
1.40001
1.40001
1.40001
1.40001
1.40001
1.40001
1.40003
1.40004
1.40005
1.40005
1.40006
1.40007
1.40008
1.40008
1.40009
1.40009
1.4001
1.4001
1.4001
1.4001
1.4001
1.40009
1.40009
1.40008
1.40007
1.40006
1.40005
1.40003
1.40002
1.40001
1.39999
1.39998
1.39997
1.39996
1.39996
1.39995
1.39995
1.39994
1.39994
1.39995
1.39995
1.39995
1.39996
1.39997
1.39997
1.39998
1.39998
1.39999
1.39999
1.39999
1.4
1.4
1.4
1.4
1.4
1.4
1.4
1.4
1.4
1.4
1.40001
1.40001
1.40001
1.4
1.4
1.4
1.4
1.4
1.40001
1.40001
1.40001
1.40001
1.40001
1.40001
1.40001
1.40001
1.40001
1.40001
1.40001
1.40001
1.40001
1.40003
1.40003
1.40004
1.40004
1.40005
1.40006
1.40006
1.40006
1.40007
1.40007
1.40008
1.40008
1.40008
1.40008
1.40008
1.40007
1.40006
1.40006
1.40005
1.40004
1.40003
1.40002
1.4
1.39999
1.39998
1.39998
1.39997
1.39996
1.39996
1.39996
1.39995
1.39995
1.39996
1.39996
1.39996
1.39996
1.39997
1.39997
1.39998
1.39998
1.39999
1.39999
1.39999
1.4
1.4
1.4
1.4
1.4
1.4
1.4
1.4
1.4
1.40001
1.40001
1.40001
1.40001
1.40001
1.40001
1.40001
1.40001
1.40001
1.40001
1.4
1.4
1.40001
1.40001
1.40001
1.40001
1.40001
1.40001
1.40001
1.40001
1.40001
1.40001
1.40001
1.40002
1.40002
1.40003
1.40003
1.40004
1.40004
1.40005
1.40005
1.40005
1.40006
1.40006
1.40006
1.40006
1.40006
1.40005
1.40005
1.40005
1.40004
1.40003
1.40002
1.40002
1.40001
1.4
1.39999
1.39999
1.39998
1.39997
1.39997
1.39996
1.39996
1.39996
1.39996
1.39996
1.39997
1.39997
1.39997
1.39998
1.39998
1.39998
1.39999
1.39999
1.39999
1.4
1.4
1.4
1.4
1.4
1.4
1.4
1.4
1.4
1.4
1.4
1.4
1.4
1.4
1.4
1.4
1.4
1.40001
1.40001
1.40001
1.40001
1.40001
1.40001
1.40001
1.40001
1.40001
1.40001
1.40001
1.40001
1.40001
1.40001
1.40001
1.40001
1.40002
1.40002
1.40002
1.40003
1.40003
1.40003
1.40004
1.40004
1.40004
1.40005
1.40005
1.40005
1.40005
1.40005
1.40004
1.40004
1.40003
1.40003
1.40003
1.40002
1.40001
1.4
1.4
1.39999
1.39999
1.39998
1.39998
1.39997
1.39997
1.39997
1.39997
1.39997
1.39997
1.39997
1.39998
1.39998
1.39998
1.39998
1.39999
1.39999
1.39999
1.4
1.4
1.4
1.4
1.4
1.4
1.4
1.4
1.4
1.4
1.4
1.4
1.4
1.4
1.4
1.4
1.4
1.40001
1.40001
1.40001
1.4
1.4
1.40001
1.40001
1.40001
1.40001
1.40001
1.40001
1.40001
1.40001
1.40001
1.40001
1.40001
1.40001
1.40002
1.40002
1.40002
1.40002
1.40003
1.40003
1.40003
1.40003
1.40003
1.40004
1.40004
1.40004
1.40004
1.40003
1.40003
1.40003
1.40003
1.40002
1.40002
1.40001
1.40001
1.4
1.4
1.39999
1.39999
1.39999
1.39998
1.39998
1.39998
1.39998
1.39998
1.39998
1.39998
1.39998
1.39998
1.39999
1.39999
1.39999
1.39999
1.39999
1.4
1.4
1.4
1.4
1.4
1.4
1.4
1.4
1.4
1.4
1.4
1.4
1.4
1.4
1.40001
1.40001
1.40001
1.40001
1.40001
1.40001
1.40001
1.40001
1.40001
1.40001
1.40001
1.40001
1.40001
1.40001
1.40001
1.40001
1.40001
1.40001
1.40001
1.40001
1.40001
1.40001
1.40002
1.40002
1.40002
1.40002
1.40002
1.40002
1.40003
1.40003
1.40003
1.40003
1.40003
1.40003
1.40003
1.40003
1.40002
1.40002
1.40002
1.40001
1.40001
1.40001
1.4
1.4
1.39999
1.39999
1.39999
1.39999
1.39999
1.39998
1.39998
1.39998
1.39998
1.39999
1.39999
1.39999
1.39999
1.39999
1.39999
1.39999
1.4
1.4
1.4
1.4
1.4
1.4
1.4
1.4
1.4
1.4
1.4
1.4
1.40001
1.4
1.4
1.4
1.4
1.4
1.4
1.40001
1.40001
1.40001
1.40001
1.40001
1.40001
1.40001
1.40001
1.40001
1.40001
1.40001
1.40001
1.40001
1.40001
1.40001
1.40001
1.40001
1.40001
1.40001
1.40001
1.40001
1.40002
1.40002
1.40002
1.40002
1.40002
1.40002
1.40002
1.40002
1.40002
1.40002
1.40002
1.40002
1.40002
1.40001
1.40001
1.40001
1.40001
1.4
1.4
1.4
1.39999
1.39999
1.39999
1.39999
1.39999
1.39999
1.39999
1.39999
1.39999
1.39999
1.39999
1.39999
1.39999
1.4
1.4
1.4
1.4
1.4
1.4
1.4
1.4
1.4
1.4
1.4
1.4
1.4
1.4
1.40001
1.40001
1.40001
1.40001
1.40001
1.40001
1.40001
1.40001
1.40001
1.40001
1.40001
1.40001
1.40001
1.40001
1.40001
1.40001
1.40001
1.40001
1.40001
1.40001
1.40001
1.40001
1.40001
1.40001
1.40001
1.40001
1.40001
1.40001
1.40001
1.40001
1.40001
1.40002
1.40002
1.40002
1.40002
1.40002
1.40002
1.40002
1.40002
1.40001
1.40001
1.40001
1.40001
1.40001
1.4
1.4
1.4
1.4
1.4
1.4
1.39999
1.39999
1.39999
1.39999
1.39999
1.39999
1.39999
1.39999
1.39999
1.4
1.4
1.4
1.4
1.4
1.4
1.4
1.4
1.4
1.4
1.4
1.4
1.4
1.4
1.40001
1.40001
1.4
1.4
1.4
1.4
1.40001
1.40001
1.40001
1.40001
1.40001
1.40001
1.40001
1.40001
1.40001
1.40001
1.40001
1.40001
1.40001
1.40001
1.40001
1.40001
1.40001
1.40001
1.40001
1.40001
1.40001
1.40001
1.40001
1.40001
1.40001
1.40001
1.40001
1.40001
1.40001
1.40001
1.40002
1.40001
1.40002
1.40001
1.40001
1.40001
1.40001
1.40001
1.40001
1.40001
1.40001
1.4
1.4
1.4
1.4
1.4
1.4
1.4
1.4
1.4
1.4
1.4
1.4
1.4
1.4
1.4
1.4
1.4
1.4
1.4
1.4
1.4
1.4
1.4
1.4
1.4
1.4
1.4
1.4
1.4
1.40001
1.40001
1.40001
1.4
1.4
1.4
1.4
1.4
1.40001
1.40001
1.4
1.4
1.40001
1.40001
1.40001
1.40001
1.40001
1.40001
1.40001
1.40001
1.40001
1.40001
1.40001
1.40001
1.40001
1.40001
1.40001
1.40001
1.40001
1.40001
1.40001
1.40001
1.40001
1.40001
1.40001
1.40001
1.40001
1.40001
1.40001
1.40001
1.40001
1.40001
1.40001
1.40001
1.40001
1.4
1.4
1.4
1.4
1.4
1.4
1.4
1.4
1.4
1.4
1.4
1.4
1.4
1.4
1.4
1.4
1.4
1.4
1.4
1.4
1.4
1.4
1.4
1.4
1.4
1.4
1.4
1.4
1.4
1.4
1.4
1.4
1.4
1.40001
1.40001
1.40001
1.40001
1.40001
1.40001
1.40001
1.40001
1.40001
1.40001
1.40001
1.4
1.4
1.4
1.40001
1.40001
1.40001
1.40001
1.40001
1.40001
1.40001
1.40001
1.40001
1.40001
1.40001
1.40001
1.40001
1.40001