/*--------------------------------*- C++ -*----------------------------------*\
  =========                 |
  \\      /  F ield         | OpenFOAM: The Open Source CFD Toolbox
   \\    /   O peration     | Website:  https://openfoam.org
    \\  /    A nd           | Version:  6
     \\/     M anipulation  |
\*---------------------------------------------------------------------------*/
FoamFile
{
    version     2.0;
    format      ascii;
    class       volScalarField;
    location    "1.64";
    object      nut;
}
// * * * * * * * * * * * * * * * * * * * * * * * * * * * * * * * * * * * * * //

dimensions      [0 2 -1 0 0 0 0];

internalField   nonuniform List<scalar> 
4214
(
0.00495713
0.00641416
0.00853792
0.0104125
0.0115891
0.0121533
0.0123465
0.0123463
0.0122462
0.0120918
0.011908
0.0117121
0.0115194
0.0113449
0.0112042
0.0111146
0.0111025
0.0112212
0.0115815
0.0123111
0.0132069
0.0128997
0.0118562
0.0110572
0.0107196
0.010754
0.0110106
0.0113684
0.0117334
0.0120497
0.0122905
0.0124545
0.0125542
0.0126028
0.0125934
0.0124577
0.0119885
0.0108188
0.0087821
0.00649881
0.00500398
0.00690459
0.00909622
0.0107471
0.0117432
0.0122259
0.0123923
0.0123846
0.0122828
0.0121267
0.0119389
0.0117358
0.0115321
0.0113423
0.0111817
0.0110671
0.0110191
0.0110728
0.011299
0.0118299
0.0127923
0.0139558
0.013712
0.0124335
0.0113357
0.0107425
0.0105834
0.0107206
0.0110316
0.0114109
0.0117849
0.0121032
0.0123431
0.0125042
0.0125995
0.0126449
0.0126368
0.012514
0.0120857
0.0110381
0.00924675
0.00704433
0.00952326
0.0109542
0.0118274
0.0122672
0.0124239
0.0124155
0.0123128
0.0121544
0.0119623
0.0117527
0.0115398
0.0113375
0.0111598
0.0110221
0.0109422
0.0109457
0.0110783
0.0114271
0.0121393
0.0133319
0.0147547
0.0146214
0.0131352
0.0117271
0.0108561
0.0104637
0.01043
0.0106411
0.0109897
0.0113936
0.0117849
0.0121169
0.0123664
0.0125324
0.0126285
0.0126712
0.0126596
0.0125288
0.0120904
0.0111209
0.00967786
0.0112085
0.0119296
0.0123101
0.0124529
0.0124425
0.0123377
0.0121747
0.0119764
0.0117593
0.0115378
0.011325
0.0111338
0.0109775
0.0108715
0.0108352
0.0108994
0.0111208
0.0115998
0.012492
0.0138966
0.0155616
0.0155947
0.0139526
0.0122378
0.0110788
0.0104252
0.0101781
0.0102348
0.0104956
0.0108795
0.0113129
0.0117327
0.0120909
0.0123614
0.0125409
0.0126431
0.0126864
0.01267
0.0125257
0.0120948
0.0113341
0.012073
0.0123698
0.012485
0.0124678
0.0123576
0.0121868
0.0119785
0.0117514
0.0115201
0.0112978
0.0110961
0.0109261
0.0108003
0.0107338
0.0107484
0.0108809
0.0111973
0.0118069
0.0128663
0.0144598
0.0163539
0.0166057
0.0148851
0.0128832
0.0114327
0.0105009
0.0100096
0.00986673
0.00998289
0.0102844
0.0107027
0.0111718
0.0116294
0.0120243
0.0123261
0.012528
0.012643
0.0126902
0.0126679
0.0125181
0.0121615
0.0124489
0.0125255
0.0124938
0.0123751
0.0121913
0.0119682
0.0117256
0.0114816
0.0112489
0.0110384
0.0108591
0.0107203
0.0106329
0.0106128
0.0106846
0.0108912
0.0113048
0.012039
0.0132484
0.0150042
0.0171165
0.0176231
0.0159233
0.0136777
0.0119398
0.010724
0.00997004
0.00959611
0.00952324
0.00968542
0.0100226
0.0104761
0.0109847
0.011486
0.0119246
0.0122647
0.0124958
0.01263
0.0126843
0.0126613
0.012517
0.0125738
0.0125241
0.0123909
0.0121914
0.0119453
0.0116811
0.0114174
0.0111715
0.0109519
0.0107665
0.0106207
0.0105216
0.0104797
0.0105116
0.0106456
0.0109297
0.0114384
0.0122875
0.0136281
0.0155266
0.0178445
0.0186143
0.0170434
0.0146293
0.0126226
0.0111163
0.0100882
0.00946713
0.00917958
0.0091631
0.00936351
0.00973135
0.0102161
0.0107617
0.0113065
0.0117925
0.0121777
0.0124457
0.0126039
0.0126734
0.0126458
0.0125556
0.0124104
0.012187
0.0119154
0.0116171
0.0113273
0.0110597
0.0108291
0.0106378
0.0104898
0.0103872
0.0103352
0.0103441
0.0104328
0.0106326
0.0109953
0.0115949
0.0125474
0.0140025
0.0160329
0.0185358
0.0195799
0.018221
0.0157186
0.0134696
0.0116777
0.0103739
0.00950127
0.00899003
0.00877668
0.00880741
0.00903699
0.00942468
0.00992903
0.0105014
0.011085
0.0116204
0.0120583
0.0123727
0.0125664
0.0126502
0.0124246
0.0121882
0.0118759
0.0115434
0.0112093
0.010915
0.0106634
0.0104661
0.0103169
0.0102168
0.0101649
0.0101657
0.01023
0.0103792
0.0106474
0.0110881
0.0117738
0.0128195
0.0143761
0.0165379
0.0192003
0.0205309
0.0194251
0.0169097
0.0144591
0.0123937
0.0108181
0.00969734
0.00896563
0.00855494
0.00840657
0.00847241
0.00871432
0.00910187
0.00960524
0.0101891
0.0108049
0.0113932
0.0118952
0.0122713
0.0125106
0.0121757
0.0118471
0.0114516
0.0110802
0.0107344
0.0104611
0.0102455
0.0100972
0.0100012
0.00995675
0.00996075
0.0100184
0.0101417
0.0103547
0.0106935
0.0112116
0.01198
0.013111
0.0147608
0.0170634
0.0198554
0.0214789
0.0206421
0.0181704
0.0155605
0.0132365
0.0113973
0.0100374
0.00909695
0.00850101
0.00818243
0.00808398
0.00816232
0.0083894
0.00874764
0.00922615
0.00980528
0.010449
0.0110978
0.0116804
0.0121373
0.0117924
0.0113808
0.0109211
0.0105455
0.0102175
0.00999078
0.00982833
0.00974056
0.00970468
0.0097205
0.00978338
0.00990113
0.0100871
0.0103664
0.0107766
0.011372
0.0122237
0.0134389
0.0151771
0.0176333
0.0205237
0.0224513
0.0218744
0.0194636
0.0167369
0.0141707
0.0120817
0.0104948
0.00936356
0.00860343
0.00813689
0.00789239
0.00781628
0.00787495
0.00805344
0.00835653
0.00878963
0.00935461
0.0100255
0.0107451
0.0114264
0.0112641
0.0108008
0.0103121
0.00997497
0.00969511
0.00953621
0.00943958
0.00941843
0.00944582
0.00952356
0.00964697
0.00982608
0.0100763
0.0104251
0.0109108
0.0115867
0.0125237
0.0138247
0.0156488
0.0182705
0.0212295
0.0234781
0.0231437
0.0207622
0.0179516
0.0151532
0.0128356
0.0110405
0.00974199
0.00884615
0.00826452
0.0079061
0.00770549
0.00761688
0.00762214
0.00773157
0.00796181
0.00834469
0.00889126
0.0095938
0.0103915
0.0106024
0.0101446
0.0096743
0.00941593
0.0092119
0.0091342
0.00911247
0.00915899
0.00925046
0.00938798
0.00957223
0.00981442
0.0101331
0.0105554
0.0111197
0.011879
0.0129032
0.0142953
0.0162006
0.0189962
0.0219988
0.0245859
0.0244756
0.022051
0.0191747
0.0161418
0.0136263
0.0116439
0.0102109
0.00921485
0.00856053
0.00813157
0.00785274
0.007657
0.00752387
0.00745924
0.00748325
0.00764475
0.00797465
0.00851525
0.00925392
0.00985467
0.00947295
0.00907266
0.00891987
0.00881671
0.00882407
0.00888564
0.00899626
0.00915359
0.00934937
0.00959703
0.00990319
0.0102928
0.0107917
0.0114364
0.012283
0.013392
0.0148817
0.016858
0.0198316
0.0228567
0.0258217
0.0258906
0.0233096
0.0203856
0.0170914
0.0144298
0.0122787
0.0107548
0.00970068
0.00902472
0.00857886
0.00827998
0.0080258
0.00780337
0.0075943
0.0074355
0.00737592
0.00746111
0.00776754
0.00831359
0.00910532
0.00885521
0.00857541
0.00853391
0.00855668
0.00864325
0.0088024
0.00897289
0.00920528
0.00945681
0.00977215
0.0101428
0.0106039
0.0111821
0.0119045
0.0128434
0.0140248
0.0156235
0.0176439
0.0208015
0.0238108
0.0272402
0.0274077
0.0244979
0.0215742
0.0179471
0.0152376
0.0129193
0.0113726
0.0103034
0.00966195
0.00926404
0.00900632
0.00874228
0.00848316
0.00814195
0.00783299
0.00754718
0.00739372
0.00744489
0.0077429
0.00845786
0.00835084
0.00824232
0.00829277
0.00847487
0.00862458
0.00891264
0.00913267
0.00946415
0.00976556
0.0101605
0.0105953
0.0111259
0.0117901
0.0125738
0.0136196
0.0148331
0.0165687
0.0185675
0.0219605
0.0248463
0.0289071
0.0290251
0.025538
0.0227462
0.0186277
0.0160657
0.0135245
0.0120832
0.0110231
0.0104871
0.0102079
0.0100383
0.00980685
0.00955975
0.00905657
0.00864975
0.00808407
0.00773068
0.00749926
0.00755
0.00800142
0.00799544
0.00811769
0.00821027
0.00861836
0.00878523
0.00926948
0.00950557
0.00999229
0.0103259
0.0108288
0.0113306
0.0119216
0.0127018
0.0134926
0.0147049
0.0158338
0.0177787
0.01958
0.0233526
0.0258984
0.0309713
0.0307075
0.0262981
0.0239514
0.019
0.0169863
0.0140073
0.012932
0.0118407
0.0115207
0.0114142
0.0113566
0.0111823
0.0109922
0.0102381
0.00984218
0.00884275
0.00841928
0.00779966
0.00767231
0.00794396
0.00797104
0.00829274
0.00892397
0.00981339
0.0107933
0.0116413
0.0122177
0.0125242
0.0126352
0.0126044
0.0123924
0.0118014
0.0104276
0.00791605
0.00483079
0.00510909
0.00840884
0.00862092
0.00903352
0.00966441
0.0104476
0.0112408
0.0118927
0.0123257
0.0125531
0.0126272
0.0125731
0.0123292
0.0116869
0.0102558
0.00771223
0.00463674
0.00511697
0.00935899
0.0095258
0.00990867
0.0104514
0.0110725
0.0116615
0.0121246
0.0124241
0.0125767
0.012613
0.0125335
0.0122595
0.0115699
0.0100794
0.00750341
0.00444434
0.00509218
0.0099528
0.0102842
0.0106686
0.0111126
0.0115717
0.0119811
0.0122909
0.0124862
0.0125797
0.0125844
0.0124815
0.0121769
0.0114381
0.00988343
0.00727407
0.00424164
0.00504765
0.0104522
0.0107978
0.0111605
0.0115262
0.0118681
0.0121556
0.0123665
0.0124967
0.0125531
0.012536
0.0124117
0.012073
0.0112788
0.00965523
0.00701784
0.00403029
0.00498544
0.0105446
0.0109599
0.0113326
0.0116658
0.0119521
0.0121814
0.0123473
0.0124499
0.0124913
0.012462
0.0123181
0.0119415
0.0110842
0.00938918
0.00673605
0.00381554
0.00490795
0.0102854
0.010769
0.0111897
0.0115465
0.0118391
0.0120677
0.0122348
0.0123423
0.0123881
0.0123565
0.0121956
0.0117773
0.010851
0.00908909
0.00644061
0.00360708
0.00481803
0.0100695
0.0105221
0.0109382
0.011305
0.0116145
0.0118641
0.0120541
0.0121827
0.0122443
0.0122171
0.0120407
0.0115793
0.0105865
0.00877649
0.00615754
0.00341871
0.00471801
0.00950145
0.0100084
0.0104766
0.0108944
0.0112542
0.0115518
0.0117855
0.0119535
0.0120452
0.0120317
0.0118464
0.0113509
0.0103139
0.00849233
0.00592192
0.00326449
0.00460862
0.00924088
0.00968421
0.0101163
0.0105209
0.0108864
0.0112045
0.0114684
0.0116688
0.0117876
0.011789
0.0116035
0.0110975
0.0100606
0.00827266
0.00575603
0.00315076
0.00448815
0.00855921
0.00899688
0.00943444
0.00986241
0.0102684
0.0106399
0.0109632
0.0112215
0.01139
0.0114291
0.0112722
0.010799
0.00981564
0.00810216
0.00564448
0.00307048
0.00435499
0.00829995
0.00865425
0.00902176
0.0093932
0.00975888
0.0101081
0.0104268
0.0106955
0.010886
0.0109561
0.0108394
0.0104234
0.00952424
0.00791685
0.00554334
0.00300776
0.00420858
0.00766982
0.00804196
0.00841453
0.00878756
0.00915623
0.00951082
0.00983688
0.0101151
0.0103185
0.0104078
0.0103202
0.00995308
0.00913913
0.00765812
0.00540979
0.00294857
0.00404801
0.00739409
0.00766998
0.00797365
0.00829468
0.00862162
0.00894118
0.00923825
0.00949456
0.00968547
0.00977459
0.00970223
0.00937403
0.00864114
0.00729734
0.00521417
0.00288398
0.00387279
0.00681425
0.00711811
0.00742378
0.00773198
0.0080363
0.00832728
0.0085943
0.00882371
0.00899499
0.0090751
0.00900817
0.00870825
0.0080457
0.00683623
0.00494536
0.00281045
0.00368586
0.00653533
0.00674107
0.00697949
0.00723238
0.00748507
0.00772681
0.00794882
0.00814007
0.00828236
0.00834387
0.00827219
0.00798942
0.00738369
0.00629626
0.00461124
0.00273168
0.00348872
0.00601714
0.00625579
0.00648895
0.00671422
0.00692723
0.00712522
0.00730479
0.00745825
0.0075691
0.00760752
0.00752463
0.00725159
0.00669149
0.00571233
0.00423627
0.00265661
0.00328319
0.00574366
0.00589356
0.00606416
0.0062336
0.00639429
0.00654443
0.00668121
0.00679667
0.00687455
0.0068873
0.0067907
0.0065235
0.00600193
0.00512132
0.00385362
0.00259359
0.00307091
0.00529717
0.00547329
0.00562441
0.00575642
0.00587565
0.00598559
0.00608449
0.00616451
0.00621043
0.00619737
0.00608698
0.00582441
0.00533866
0.00455395
0.0034977
0.00254051
0.00285527
0.00503248
0.00512859
0.00522192
0.00530627
0.00538451
0.00545731
0.00552111
0.00556776
0.0055832
0.00554516
0.00542052
0.00516309
0.00471502
0.00403235
0.00318412
0.00248195
0.00263792
0.00465881
0.00476014
0.00482443
0.00487537
0.0049209
0.0049614
0.00499296
0.00500801
0.00499401
0.0049315
0.0047928
0.00454173
0.00413842
0.00356877
0.00291877
0.00242001
0.00242319
0.00439973
0.00443137
0.00445352
0.00447246
0.00448854
0.00449943
0.00450082
0.00448571
0.00444313
0.00435707
0.00420624
0.00396623
0.00361715
0.00316999
0.00270731
0.00239491
0.0022205
0.00408599
0.00410482
0.00410281
0.00409691
0.00408714
0.00407106
0.00404463
0.00400169
0.00393329
0.00382769
0.00367087
0.00345159
0.00316838
0.00284623
0.00255034
0.0023695
0.00203458
0.00382083
0.00380126
0.0037767
0.00374877
0.00371583
0.00367565
0.00362474
0.0035584
0.00347075
0.00335489
0.0032057
0.0030234
0.0028172
0.00261167
0.00244407
0.0023268
0.00187818
0.00355283
0.00351633
0.00347379
0.00342699
0.00337454
0.00331479
0.00324552
0.00316433
0.00306873
0.0029573
0.0028327
0.00270104
0.00257379
0.00246609
0.0023904
0.00231705
0.0017566
0.00330147
0.00324984
0.00319269
0.00313075
0.00306342
0.00299012
0.00291041
0.00282452
0.00273332
0.00264073
0.00255276
0.00247697
0.00242138
0.00239146
0.00238355
0.00234205
0.00167215
0.00306087
0.00299848
0.00293042
0.00285792
0.00278139
0.00270168
0.00262034
0.0025398
0.00246414
0.00239968
0.00235286
0.00232943
0.00233242
0.00235949
0.00239598
0.00236958
0.00162659
0.0028288
0.00275686
0.00268153
0.00260351
0.00252416
0.00244575
0.00237141
0.002305
0.00225203
0.00221876
0.00221034
0.00222933
0.00227379
0.0023348
0.00238997
0.00236035
0.00162006
0.00260048
0.00251882
0.00243738
0.00235744
0.0022809
0.00221099
0.00215157
0.00210651
0.00208017
0.00207712
0.00210053
0.0021502
0.00222003
0.00229601
0.0023499
0.00230421
0.00165198
0.00238561
0.00228866
0.00219591
0.00211024
0.00203494
0.00197381
0.001931
0.00191047
0.00191543
0.00194701
0.00200286
0.00207806
0.00216574
0.00225115
0.00230187
0.00224555
0.00172209
0.00221681
0.00211487
0.00201965
0.00193438
0.00186233
0.00180738
0.00177428
0.00176557
0.00178373
0.0018306
0.00190601
0.0020056
0.00211672
0.00221882
0.00228103
0.0022332
0.00183174
0.00207972
0.00197472
0.00187875
0.00179466
0.00172772
0.0016806
0.00165457
0.00165276
0.00167832
0.00173359
0.00181923
0.0019329
0.0020669
0.00220095
0.00229686
0.00228414
0.00198506
0.00196453
0.0018582
0.00176243
0.00168278
0.00161969
0.00157502
0.00155165
0.00155259
0.00158098
0.00163971
0.0017311
0.00185603
0.0020113
0.00218303
0.00233375
0.00238902
0.00218796
0.00186687
0.00176001
0.00166752
0.00158972
0.0015281
0.00148489
0.00146242
0.00146327
0.00149028
0.00154673
0.0016366
0.00176445
0.00193371
0.00214051
0.00235861
0.00251947
0.00244615
0.00178309
0.0016782
0.00158743
0.00151123
0.00145128
0.00140918
0.00138655
0.00138514
0.00140707
0.00145537
0.00153484
0.00165288
0.00181974
0.00204545
0.00232979
0.00263371
0.00276403
0.00171103
0.00160856
0.00151975
0.00144594
0.00138821
0.00134744
0.00132436
0.00131957
0.00133403
0.00136974
0.00143094
0.00152581
0.00166905
0.0018843
0.00221108
0.00267987
0.00314446
0.00164908
0.00154889
0.00146306
0.00139256
0.00133791
0.00129927
0.00127629
0.00126838
0.00127517
0.00129718
0.00133693
0.00140101
0.00150396
0.0016759
0.00199269
0.00259651
0.00358808
0.00159486
0.00149779
0.00141591
0.00134972
0.00129921
0.00126373
0.00124203
0.00123254
0.00123378
0.00124494
0.0012667
0.00130288
0.00136415
0.00147736
0.00172377
0.00234069
0.00409337
0.00154686
0.00145389
0.00137682
0.00131582
0.00127031
0.00123897
0.00121987
0.00121082
0.00120982
0.00121545
0.00122732
0.00124698
0.00128029
0.00134684
0.00150045
0.00197456
0.00465795
0.00150409
0.0014158
0.0013442
0.00128899
0.00124899
0.00122231
0.00120658
0.00119938
0.00119875
0.00120353
0.00121374
0.00123113
0.00126022
0.00130447
0.00138913
0.00164928
0.00527923
0.00119448
0.00120773
0.00122139
0.00123468
0.00124693
0.0012577
0.00126679
0.00127415
0.00127978
0.00128372
0.00128608
0.00128695
0.0012865
0.00128492
0.0012824
0.00127914
0.00127535
0.00127118
0.00126686
0.00126263
0.00125595
0.00125055
0.00124828
0.00124761
0.00124826
0.00124992
0.00125229
0.00125515
0.0012584
0.00126212
0.00126661
0.00127251
0.00128078
0.00129277
0.00130983
0.0013329
0.00136135
0.00139321
0.00142509
0.00145479
0.00148114
0.00121678
0.00123272
0.00124856
0.00126334
0.00127645
0.00128765
0.0012969
0.00130421
0.00130963
0.0013132
0.00131498
0.00131508
0.00131365
0.00131087
0.00130691
0.00130196
0.00129621
0.00128984
0.00128309
0.00127625
0.00126616
0.00125755
0.00125315
0.00125065
0.00124977
0.00125019
0.0012515
0.00125336
0.0012555
0.00125776
0.00126023
0.00126316
0.0012673
0.00127364
0.00128354
0.00129805
0.00131729
0.00133976
0.00136274
0.00138367
0.00140142
0.00123982
0.0012585
0.00127629
0.00129218
0.00130588
0.0013174
0.0013268
0.00133413
0.00133941
0.00134265
0.00134391
0.00134329
0.00134091
0.00133694
0.00133156
0.00132494
0.00131726
0.00130874
0.00129965
0.00129031
0.00127714
0.0012655
0.00125886
0.00125436
0.00125176
0.00125075
0.00125091
0.00125182
0.00125308
0.00125439
0.00125555
0.00125661
0.00125789
0.00126011
0.00126434
0.00127174
0.00128289
0.00129709
0.0013122
0.00132577
0.00133644
0.00126289
0.00128421
0.00130351
0.00132018
0.00133433
0.0013462
0.00135585
0.0013633
0.00136852
0.00137151
0.00137231
0.001371
0.00136773
0.00136263
0.00135588
0.00134766
0.00133817
0.00132764
0.00131639
0.00130477
0.00128891
0.00127451
0.00126561
0.00125897
0.00125446
0.0012518
0.00125062
0.00125047
0.00125089
0.00125146
0.00125185
0.00125184
0.00125145
0.00125102
0.00125126
0.0012532
0.00125772
0.00126488
0.00127334
0.00128093
0.00128611
0.00128546
0.00130906
0.00132937
0.00134659
0.00136124
0.00137358
0.00138361
0.00139127
0.00139651
0.00139931
0.00139971
0.00139779
0.00139368
0.00138753
0.00137952
0.00136984
0.0013587
0.00134638
0.00133321
0.00131958
0.00130149
0.00128468
0.00127357
0.00126476
0.00125819
0.00125368
0.00125091
0.00124948
0.00124892
0.00124876
0.00124857
0.00124799
0.00124681
0.00124501
0.0012429
0.00124117
0.00124074
0.00124224
0.00124528
0.00124824
0.00124948
0.00130716
0.00133241
0.00135333
0.00137108
0.00138637
0.00139932
0.00140982
0.00141776
0.00142307
0.00142574
0.00142579
0.00142333
0.00141847
0.00141138
0.00140225
0.00139129
0.00137873
0.00136488
0.00135009
0.00133476
0.00131493
0.00129613
0.00128294
0.00127199
0.00126332
0.00125681
0.00125223
0.00124925
0.00124745
0.00124636
0.00124554
0.00124456
0.00124305
0.00124077
0.00123766
0.00123399
0.00123039
0.00122773
0.00122649
0.00122603
0.00122479
0.00132777
0.00135392
0.00137523
0.00139365
0.00140971
0.00142333
0.00143434
0.0014426
0.00144801
0.00145059
0.00145037
0.00144745
0.00144196
0.00143408
0.00142402
0.001412
0.00139828
0.00138319
0.00136709
0.00135038
0.00132928
0.00130895
0.0012939
0.00128096
0.00127023
0.00126167
0.00125515
0.00125039
0.00124707
0.00124477
0.00124306
0.00124153
0.00123977
0.00123741
0.00123417
0.00122994
0.00122488
0.00121964
0.00121515
0.00121203
0.00120956
0.00134723
0.00137357
0.0013953
0.00141451
0.00143138
0.00144568
0.00145718
0.00146574
0.00147129
0.00147382
0.0014734
0.00147013
0.00146416
0.00145567
0.0014449
0.00143207
0.00141748
0.00140146
0.00138436
0.00136659
0.00134468
0.00132328
0.00130666
0.00129195
0.00127931
0.00126878
0.00126028
0.00125364
0.0012486
0.00124482
0.00124193
0.00123956
0.00123734
0.00123488
0.00123183
0.00122787
0.00122275
0.00121654
0.00120992
0.00120431
0.00120105
0.00136563
0.00139162
0.00141394
0.00143401
0.00145165
0.00146654
0.00147847
0.0014873
0.00149298
0.00149552
0.00149499
0.00149151
0.00148523
0.00147635
0.0014651
0.00145175
0.00143657
0.00141991
0.00140213
0.00138362
0.00136133
0.00133931
0.00132146
0.00130528
0.00129098
0.00127866
0.0012683
0.00125981
0.00125299
0.0012476
0.00124334
0.00123988
0.00123692
0.00123412
0.00123119
0.00122777
0.00122344
0.00121778
0.00121061
0.00120279
0.00119749
0.00138295
0.00140858
0.00143169
0.00145256
0.00147082
0.00148617
0.00149843
0.00150747
0.00151328
0.00151588
0.00151535
0.00151181
0.00150542
0.00149638
0.00148493
0.00147133
0.00145587
0.00143888
0.00142072
0.00140178
0.00137951
0.00135731
0.00133859
0.00132131
0.00130568
0.00129185
0.00127988
0.00126972
0.00126125
0.0012543
0.00124864
0.00124401
0.00124017
0.00123686
0.00123385
0.00123088
0.00122762
0.00122355
0.00121786
0.00120969
0.00120053
0.00139902
0.00142508
0.00144913
0.00147062
0.00148931
0.00150495
0.0015174
0.00152657
0.00153248
0.00153518
0.00153475
0.00153131
0.00152503
0.00151609
0.00150472
0.00149118
0.00147575
0.00145875
0.00144055
0.0014215
0.00139962
0.00137767
0.00135849
0.00134049
0.00132393
0.00130898
0.00129574
0.00128423
0.00127438
0.00126609
0.00125919
0.00125352
0.00124887
0.00124506
0.00124192
0.00123927
0.00123694
0.00123467
0.00123182
0.00122673
0.00121619
0.00141576
0.00144188
0.00146687
0.00148877
0.00150764
0.00152335
0.0015358
0.00154499
0.00155096
0.00155377
0.00155354
0.00155036
0.0015444
0.00153583
0.00152485
0.0015117
0.00149664
0.00148
0.00146211
0.00144334
0.00142222
0.00140092
0.00138172
0.00136348
0.00134644
0.00133082
0.00131675
0.0013043
0.00129346
0.00128418
0.00127638
0.00126994
0.00126473
0.00126061
0.00125746
0.00125517
0.00125366
0.00125286
0.00125261
0.00125231
0.00124842
0.0014359
0.00146135
0.00148552
0.00150776
0.00152643
0.00154194
0.00155417
0.00156321
0.00156914
0.00157206
0.00157208
0.00156931
0.00156389
0.00155597
0.0015457
0.00153331
0.00151904
0.00150317
0.00148604
0.00146798
0.00144806
0.00142786
0.00140914
0.00139116
0.00137418
0.00135842
0.00134405
0.00133117
0.00131983
0.00131004
0.00130176
0.00129494
0.00128952
0.00128541
0.00128253
0.00128083
0.00128025
0.00128078
0.00128243
0.00128538
0.00128993
0.00146053
0.00148485
0.00150784
0.00152845
0.00154657
0.00156146
0.00157314
0.00158178
0.00158751
0.00159047
0.00159078
0.00158854
0.00158386
0.00157687
0.00156769
0.0015565
0.00154349
0.00152893
0.00151311
0.00149634
0.00147811
0.00145956
0.00144193
0.00142485
0.00140856
0.00139331
0.00137928
0.00136659
0.00135534
0.0013456
0.00133737
0.00133067
0.00132547
0.00132175
0.00131948
0.00131863
0.0013192
0.00132122
0.00132471
0.00133016
0.00133704
0.00149214
0.00151413
0.00153495
0.0015535
0.0015695
0.00158285
0.00159356
0.00160141
0.00160668
0.00160953
0.00161008
0.00160845
0.00160471
0.00159896
0.00159128
0.00158179
0.00157065
0.00155807
0.00154428
0.00152957
0.00151375
0.00149756
0.00148184
0.00146648
0.00145172
0.00143779
0.00142489
0.00141317
0.00140276
0.00139374
0.00138619
0.00138016
0.00137567
0.00137274
0.00137137
0.00137159
0.00137341
0.00137691
0.00138228
0.00138888
0.0013975
0.00153448
0.00155226
0.00156932
0.00158438
0.00159729
0.001608
0.00161652
0.00162298
0.00162737
0.00162983
0.00163051
0.0016295
0.00162688
0.00162269
0.00161698
0.00160982
0.00160131
0.00159159
0.00158083
0.00156923
0.00155684
0.00154407
0.00153143
0.00151896
0.0015069
0.00149544
0.00148478
0.00147507
0.00146645
0.00145903
0.00145291
0.00144816
0.00144485
0.00144302
0.00144269
0.0014439
0.0014468
0.00145115
0.00145691
0.00146398
0.00147325
0.00159342
0.00160406
0.00161476
0.00162411
0.00163207
0.00163862
0.00164383
0.00164775
0.00165049
0.00165211
0.00165266
0.00165224
0.00165088
0.00164859
0.00164541
0.00164135
0.00163645
0.00163077
0.00162441
0.00161748
0.00161006
0.00160234
0.00159456
0.00158682
0.00157927
0.00157205
0.0015653
0.00155914
0.0015537
0.00154907
0.00154533
0.00154256
0.00154082
0.00154016
0.00154062
0.00154218
0.00154482
0.00154849
0.00155311
0.00155859
0.00156611
0.00509673
0.0046076
0.00752814
0.0100336
0.0115279
0.012244
0.0125433
0.0126339
0.0125958
0.0124451
0.0121745
0.0117772
0.011264
0.0106704
0.0100523
0.00947008
0.00897335
0.00511123
0.00440069
0.00730733
0.00984515
0.0114013
0.0121738
0.0125136
0.012636
0.0126323
0.0125284
0.0123221
0.0120038
0.0115714
0.0110377
0.010433
0.00980021
0.00918664
0.00508967
0.00421257
0.00709585
0.00965015
0.0112609
0.0120894
0.0124707
0.0126243
0.0126504
0.0125812
0.0124156
0.0121373
0.01173
0.0111924
0.0105511
0.00986294
0.00920652
0.00504553
0.00403193
0.00688364
0.00944402
0.0111042
0.0119885
0.0124126
0.0125994
0.0126608
0.0126437
0.0125634
0.0124219
0.0122189
0.0119596
0.0116581
0.0113358
0.0110089
0.00498082
0.00386212
0.00667526
0.0092326
0.0109344
0.0118703
0.0123344
0.0125495
0.0126362
0.0126505
0.012615
0.0125363
0.012414
0.0122445
0.0120245
0.011748
0.0113999
0.00489828
0.00370609
0.00647811
0.00902547
0.0107574
0.0117353
0.0122319
0.0124672
0.0125674
0.012595
0.0125769
0.0125215
0.0124261
0.0122809
0.0120731
0.0117924
0.0114264
0.00480077
0.00356715
0.00630056
0.00883322
0.010581
0.011585
0.0120995
0.0123395
0.0124336
0.0124479
0.012413
0.0123405
0.0122319
0.0120836
0.0118898
0.0116452
0.0113476
0.00469122
0.00344686
0.00614682
0.00866136
0.0104109
0.0114262
0.0119479
0.0121864
0.0122722
0.012276
0.0122328
0.0121579
0.0120556
0.0119255
0.0117646
0.0115659
0.0113215
0.00457138
0.00334521
0.00601511
0.0085045
0.0102391
0.0112485
0.0117625
0.0119862
0.0120518
0.012035
0.0119763
0.0118951
0.0117986
0.0116861
0.0115576
0.0114107
0.0112345
0.00444174
0.00326028
0.00589653
0.00834633
0.0100461
0.0110316
0.0115199
0.0117039
0.0117126
0.0116223
0.0114761
0.011296
0.0110909
0.010863
0.010612
0.0103398
0.0100479
0.00430245
0.00318791
0.00577507
0.00816315
0.00981019
0.0107677
0.0112405
0.0114074
0.0113917
0.0112721
0.0111001
0.0109057
0.0107028
0.0104943
0.0102764
0.0100411
0.00977882
0.00415282
0.00312488
0.00563339
0.00792839
0.00949852
0.0104157
0.0108705
0.0110231
0.0109845
0.0108321
0.0106225
0.0103968
0.0101802
0.00998492
0.00981571
0.00967252
0.00955623
0.00399246
0.00306644
0.00545336
0.00761993
0.00908858
0.0099508
0.0103829
0.0105245
0.0104684
0.0102812
0.0100141
0.0097097
0.00939796
0.00909532
0.00880611
0.00852649
0.00824957
0.0038218
0.00300933
0.00521962
0.00722526
0.0085744
0.0093717
0.00978184
0.00993015
0.00989625
0.00973603
0.00949134
0.00920118
0.00889938
0.00860929
0.00834042
0.00808698
0.00782937
0.00364144
0.00295572
0.00492981
0.00674793
0.00796659
0.00868739
0.00906245
0.00920683
0.00919078
0.00906011
0.00884638
0.00857897
0.00829083
0.00801554
0.0077829
0.00761514
0.00752749
0.00345262
0.00290893
0.00459226
0.00620611
0.00729303
0.00793313
0.00826467
0.008395
0.00838944
0.00828801
0.00811209
0.00787492
0.00759295
0.00728684
0.00698105
0.00669799
0.00645097
0.00325659
0.0028738
0.00422635
0.00562728
0.00658776
0.00714978
0.00743592
0.00754609
0.00754386
0.00746949
0.00734369
0.00717475
0.00696654
0.00672608
0.0064681
0.00621209
0.00596654
0.0030542
0.00284909
0.00386212
0.00504376
0.00588341
0.00637269
0.00661557
0.00670273
0.00669535
0.00663193
0.00653375
0.00641022
0.00626338
0.00609382
0.00591032
0.00574191
0.00564529
0.00284617
0.00280771
0.00352684
0.00448248
0.0052028
0.00562489
0.00582934
0.00589722
0.00588456
0.00582661
0.00574379
0.00564593
0.00553473
0.00540498
0.00524761
0.00505944
0.00486309
0.00263453
0.00271023
0.00322319
0.00396223
0.00455867
0.00491638
0.00508871
0.00514356
0.00512995
0.0050793
0.00501041
0.0049335
0.00485312
0.00476867
0.00467339
0.00455251
0.00438283
0.00242568
0.00258581
0.00295646
0.00349579
0.00396012
0.00425269
0.00439816
0.00444648
0.0044375
0.00439798
0.00434437
0.00428586
0.00422741
0.00417147
0.00411983
0.00407599
0.00405198
0.0022273
0.00253106
0.00274556
0.0030974
0.00342374
0.00364604
0.00376517
0.0038104
0.00380997
0.00378471
0.00374818
0.00370819
0.0036691
0.00363317
0.00360125
0.00357377
0.00353719
0.00204263
0.00250742
0.00259776
0.00278337
0.00297629
0.00312163
0.00320815
0.00324685
0.00325357
0.00324197
0.0032219
0.00319926
0.00317766
0.00315927
0.00314491
0.00313624
0.00312629
0.0018854
0.00242778
0.00249794
0.00256876
0.00264831
0.0027143
0.0027567
0.00277688
0.00278101
0.00277583
0.00276675
0.00275721
0.00274964
0.00274555
0.0027455
0.00275034
0.00275934
0.00176109
0.00238262
0.00243654
0.00243765
0.00243415
0.0024293
0.00242194
0.00241216
0.00240146
0.0023918
0.00238486
0.00238157
0.0023825
0.00238818
0.00239859
0.00241438
0.0024336
0.00167375
0.00238175
0.00241054
0.00236225
0.00230132
0.00224196
0.0021895
0.00214629
0.00211317
0.00209014
0.00207669
0.00207199
0.00207491
0.00208475
0.00210087
0.00212321
0.00214957
0.00162672
0.00237966
0.00238629
0.00230934
0.00221434
0.00211867
0.00203178
0.00195903
0.00190259
0.00186245
0.00183733
0.00182548
0.00182494
0.00183391
0.00185115
0.00187556
0.00190685
0.00162103
0.00233043
0.00233521
0.00225465
0.00214658
0.00203076
0.00192103
0.00182614
0.00175021
0.00169399
0.00165629
0.00163502
0.00162785
0.0016325
0.00164721
0.00167058
0.00170168
0.00165482
0.00223807
0.00226601
0.00219988
0.0020896
0.00196236
0.00183778
0.00172768
0.00163771
0.00156922
0.00152112
0.00149117
0.00147677
0.00147547
0.00148525
0.00150466
0.00153185
0.00172526
0.00215105
0.00221791
0.00216268
0.00204591
0.00190711
0.00177091
0.00165059
0.00155181
0.00147565
0.0014207
0.00138445
0.00136391
0.00135541
0.00135617
0.00136496
0.00138171
0.00183271
0.00215982
0.002224
0.0021501
0.00201311
0.00185909
0.00171306
0.00158674
0.00148412
0.00140495
0.00134678
0.00130544
0.00127844
0.00126421
0.0012612
0.0012676
0.00128227
0.00198165
0.00224363
0.00226218
0.00214519
0.00197863
0.00180874
0.00165652
0.00152945
0.00142833
0.00135013
0.00129183
0.00125122
0.00122505
0.00121059
0.00120577
0.0012091
0.00121973
0.00217932
0.00236828
0.00230512
0.00212804
0.00192908
0.00174748
0.00159558
0.00147431
0.00137951
0.00130788
0.00125557
0.0012187
0.00119413
0.0011794
0.00117276
0.00117301
0.00117964
0.00243278
0.00250169
0.00232235
0.00207712
0.00185201
0.00166902
0.0015271
0.00141867
0.00133695
0.00127644
0.00123223
0.00120054
0.00117857
0.00116425
0.00115619
0.00115359
0.00115624
0.00274787
0.00261203
0.00228226
0.00197541
0.0017422
0.00157393
0.00145324
0.00136511
0.00130101
0.00125397
0.00121923
0.00119352
0.00117462
0.00116101
0.00115177
0.00114652
0.00114528
0.00312847
0.00265241
0.00215908
0.00182332
0.00161103
0.00147474
0.0013839
0.00132067
0.00127538
0.00124184
0.0012162
0.00119605
0.00117987
0.00116676
0.00115628
0.00114839
0.00114345
0.00357583
0.00256488
0.00195698
0.00165024
0.00148717
0.00139287
0.00133361
0.00129364
0.00126464
0.00124207
0.0012234
0.00120718
0.00119261
0.00117932
0.00116726
0.00115665
0.00114808
0.00408871
0.00232294
0.0017303
0.00150511
0.00140205
0.00134694
0.0013132
0.00128977
0.00127134
0.00125531
0.00124035
0.00122579
0.00121133
0.00119693
0.00118277
0.00116925
0.00115708
0.00466365
0.00199146
0.00155492
0.00142514
0.00137138
0.00134263
0.00132351
0.00130793
0.00129372
0.0012797
0.0012653
0.00125024
0.00123445
0.00121803
0.00120126
0.0011846
0.00116877
0.00529538
0.00169914
0.00147542
0.00141647
0.00138892
0.00137072
0.00135607
0.00134137
0.00132677
0.00131162
0.0012956
0.00127854
0.0012604
0.00124131
0.00122152
0.00120151
0.001182
0.00778033
0.00826875
0.00910832
0.0100882
0.0111646
0.0124244
0.0140531