/*--------------------------------*- C++ -*----------------------------------*\
  =========                 |
  \\      /  F ield         | OpenFOAM: The Open Source CFD Toolbox
   \\    /   O peration     | Website:  https://openfoam.org
    \\  /    A nd           | Version:  6
     \\/     M anipulation  |
\*---------------------------------------------------------------------------*/
FoamFile
{
    version     2.0;
    format      ascii;
    class       surfaceScalarField;
    location    "1.64";
    object      phi;
}
// * * * * * * * * * * * * * * * * * * * * * * * * * * * * * * * * * * * * * //

dimensions      [0 3 -1 0 0 0 0];

internalField   nonuniform List<scalar> 
8193
(
0.101271
-0.188176
-0.0968485
0.104167
-0.189572
0.106041
-0.189912
0.107172
-0.190084
0.107573
-0.190365
0.10708
-0.190556
0.105436
-0.190342
0.102569
-0.189602
0.0984961
-0.188445
0.0932981
-0.186973
0.0870971
-0.185309
0.0800008
-0.183519
0.072097
-0.181623
0.0634605
-0.179628
0.0541719
-0.177595
0.0443478
-0.175707
0.0341497
-0.17432
0.0238071
-0.173826
0.0135493
-0.174401
0.00356353
-0.175487
-0.00614536
-0.176561
-0.0156147
-0.176094
-0.0247612
-0.174159
-0.0336952
-0.171199
-0.0425852
-0.168772
-0.0512882
-0.167652
-0.0596581
-0.167605
-0.0673702
-0.168146
-0.0742895
-0.168867
-0.0803908
-0.169643
-0.085692
-0.170515
-0.0901774
-0.171562
-0.0938216
-0.172761
-0.0966086
-0.174025
-0.0984583
-0.175227
-0.0994806
-0.176176
-0.0999294
-0.177022
-0.0999363
-0.178166
-0.0993725
-0.179848
-0.097989
-0.181722
-0.183092
-0.0950613
0.109537
-0.19556
-0.108607
0.109816
-0.19717
0.110045
-0.198145
0.110153
-0.198699
0.109753
-0.198791
0.108418
-0.198191
0.105893
-0.196761
0.102141
-0.194609
0.0971994
-0.191925
0.0911752
-0.188895
0.0841912
-0.185671
0.0763629
-0.182325
0.067805
-0.17889
0.0586503
-0.175408
0.0490701
-0.171991
0.0392802
-0.168884
0.0295174
-0.166478
0.0200035
-0.165165
0.0109111
-0.165088
0.00230922
-0.1656
-0.00583989
-0.166087
-0.0135447
-0.165065
-0.0204719
-0.162965
-0.0265408
-0.159993
-0.0322241
-0.157169
-0.0377605
-0.155518
-0.0431884
-0.155021
-0.0483804
-0.155376
-0.0532318
-0.156165
-0.057772
-0.157144
-0.0620984
-0.158295
-0.0663267
-0.159692
-0.0705433
-0.161345
-0.0747454
-0.163261
-0.0788387
-0.165404
-0.0827598
-0.167547
-0.0866832
-0.169591
-0.0908739
-0.171833
-0.0953498
-0.174737
-0.0998193
-0.178242
-0.182231
-0.103378
0.115066
-0.204015
-0.116449
0.114069
-0.206422
0.113451
-0.207996
0.112753
-0.20851
0.111403
-0.207818
0.109034
-0.205908
0.105495
-0.202873
0.100771
-0.198969
0.0949324
-0.194487
0.0880891
-0.189665
0.080357
-0.184678
0.0718731
-0.179632
0.0627997
-0.1746
0.0533366
-0.169675
0.0437284
-0.165028
0.0342495
-0.160948
0.0251538
-0.157817
0.0166162
-0.155963
0.00868139
-0.155411
0.00144727
-0.155581
-0.00507701
-0.155784
-0.0111126
-0.154318
-0.0161109
-0.152399
-0.0197946
-0.149977
-0.0226574
-0.147314
-0.0252091
-0.145434
-0.0276789
-0.144615
-0.0301772
-0.144686
-0.0327145
-0.145344
-0.0353489
-0.146309
-0.0382406
-0.147472
-0.0415734
-0.148891
-0.0455268
-0.150587
-0.0502165
-0.15263
-0.0556736
-0.155066
-0.0618094
-0.157782
-0.0685418
-0.160657
-0.0760386
-0.163719
-0.084529
-0.167348
-0.0938643
-0.171829
-0.177373
-0.103532
0.120425
-0.214231
-0.122977
0.118599
-0.217309
0.11704
-0.218911
0.115186
-0.218724
0.112572
-0.216717
0.108935
-0.213095
0.104195
-0.208153
0.0983781
-0.202269
0.0915662
-0.195807
0.0838663
-0.189045
0.0754098
-0.182197
0.0663607
-0.175416
0.0569254
-0.168831
0.0473597
-0.162597
0.0379622
-0.156938
0.0290347
-0.15216
0.0208124
-0.148588
0.0133974
-0.146429
0.00676841
-0.145595
0.000970023
-0.145584
-0.00404205
-0.145628
-0.00847388
-0.143879
-0.0116907
-0.142402
-0.0133303
-0.14089
-0.0137619
-0.138888
-0.0136236
-0.137162
-0.0133577
-0.136203
-0.0132533
-0.136004
-0.013464
-0.136413
-0.0141082
-0.137195
-0.0153652
-0.138191
-0.0174598
-0.13942
-0.0206422
-0.140882
-0.0251449
-0.142665
-0.0310968
-0.144915
-0.0384856
-0.147649
-0.0472301
-0.1508
-0.057305
-0.154321
-0.0688848
-0.158364
-0.0820246
-0.163297
-0.169539
-0.0965358
0.12555
-0.22601
-0.128938
0.122752
-0.22917
0.119969
-0.230115
0.116693
-0.228617
0.112591
-0.224845
0.107526
-0.219217
0.101492
-0.212181
0.094543
-0.204194
0.0867646
-0.195663
0.078271
-0.186916
0.0692104
-0.178212
0.0597742
-0.169761
0.050209
-0.161758
0.0408133
-0.154422
0.0319109
-0.148012
0.0237929
-0.14281
0.016639
-0.139039
0.0104731
-0.136759
0.00522952
-0.135802
0.000872345
-0.135705
-0.002654
-0.13569
-0.00545076
-0.133874
-0.00703308
-0.13292
-0.00694459
-0.132503
-0.00535892
-0.131552
-0.00292208
-0.130374
-0.000231204
-0.12952
0.0022968
-0.129178
0.00436518
-0.129329
0.00575982
-0.12983
0.00627416
-0.130542
0.00566486
-0.131451
0.00365746
-0.132531
-4.38199e-05
-0.133848
-0.00568493
-0.135593
-0.0133922
-0.137892
-0.0231545
-0.1408
-0.0349007
-0.144306
-0.048657
-0.148436
-0.064515
-0.153459
-0.159631
-0.0826871
0.130165
-0.238651
-0.134507
0.126065
-0.241124
0.121698
-0.240736
0.116708
-0.237431
0.11094
-0.231609
0.104366
-0.223833
0.0970231
-0.214633
0.0889756
-0.204517
0.0803151
-0.193933
0.0711661
-0.183257
0.0616933
-0.1728
0.0521141
-0.162836
0.0427039
-0.153629
0.0337806
-0.145448
0.0256589
-0.138558
0.0185806
-0.133174
0.0126486
-0.129389
0.00781619
-0.127119
0.00397732
-0.126143
0.00105385
-0.126035
-0.000955948
-0.126102
-0.00210892
-0.124414
-0.00212282
-0.123984
-0.000539268
-0.124674
0.00267042
-0.124993
0.0069671
-0.124696
0.0116886
-0.124222
0.0163262
-0.123926
0.0204832
-0.123911
0.0238461
-0.124132
0.0261621
-0.124516
0.0271704
-0.125051
0.0265972
-0.125698
0.0241196
-0.126477
0.0194225
-0.127578
0.0122549
-0.129183
0.00248085
-0.131445
-0.00989843
-0.134467
-0.0248541
-0.138272
-0.0423858
-0.143068
-0.148663
-0.0628965
0.133538
-0.251102
-0.139272
0.127699
-0.25217
0.121421
-0.249935
0.114548
-0.244545
0.107071
-0.23657
0.0990201
-0.226632
0.0904503
-0.215308
0.0814338
-0.203139
0.0720687
-0.190614
0.0624888
-0.178158
0.052874
-0.166138
0.0434594
-0.154896
0.0345304
-0.14475
0.0263928
-0.135999
0.0193163
-0.128877
0.0134654
-0.123498
0.00886256
-0.11982
0.0054088
-0.117641
0.00297459
-0.116716
0.00147229
-0.116666
0.000950271
-0.116941
0.00138928
-0.115552
0.00288335
-0.115635
0.00579888
-0.117333
0.0103075
-0.118973
0.0160324
-0.119771
0.0223462
-0.11993
0.0287018
-0.119896
0.0346412
-0.119875
0.0397823
-0.119907
0.0438192
-0.120005
0.0464713
-0.12019
0.0474693
-0.120438
0.0464928
-0.120715
0.0431974
-0.121185
0.0372481
-0.122026
0.0283784
-0.123445
0.0164387
-0.125637
0.0013791
-0.128699
-0.0167704
-0.13288
-0.137634
-0.0382964
0.134659
-0.262213
-0.142308
0.126729
-0.261392
0.118384
-0.257058
0.109629
-0.249524
0.100532
-0.239444
0.0911483
-0.227448
0.0815401
-0.214138
0.0717844
-0.200086
0.0619844
-0.185821
0.0522799
-0.171815
0.0428589
-0.158495
0.0339592
-0.146257
0.0258505
-0.13546
0.0187932
-0.126396
0.0129811
-0.119237
0.00849381
-0.113987
0.00528489
-0.110479
0.00322587
-0.108435
0.00218156
-0.107607
0.0020626
-0.107666
0.00295199
-0.10824
0.00486436
-0.107279
0.00776315
-0.107874
0.0118747
-0.110443
0.0174232
-0.113319
0.024191
-0.115289
0.0316544
-0.116262
0.0392993
-0.116705
0.0466374
-0.116862
0.0532482
-0.116852
0.0587972
-0.116783
0.0629921
-0.116725
0.0655592
-0.116677
0.0662112
-0.11659
0.0645964
-0.11656
0.0603374
-0.116728
0.0530772
-0.117306
0.0425298
-0.118539
0.0285045
-0.120589
0.0109151
-0.123777
-0.127472
-0.0103677
0.132412
-0.271038
-0.142308
0.122286
-0.268143
0.111937
-0.2617
0.101475
-0.25214
0.0909853
-0.24012
0.0805337
-0.226266
0.0701842
-0.211198
0.0600177
-0.195516
0.0501371
-0.179785
0.0406816
-0.164522
0.0318343
-0.150206
0.0238134
-0.137273
0.0168441
-0.126094
0.0111146
-0.116927
0.00673088
-0.109863
0.00369479
-0.104805
0.00191318
-0.101492
0.0012459
-0.0996017
0.00155718
-0.0988919
0.00274685
-0.0990734
0.00493121
-0.0999957
0.00814647
-0.0995336
0.0122907
-0.100649
0.0174474
-0.103952
0.0238146
-0.107902
0.0312912
-0.110997
0.039516
-0.112897
0.0480355
-0.11399
0.0563557
-0.11449
0.0640471
-0.114592
0.0707784
-0.114512
0.0762859
-0.114394
0.0802858
-0.114221
0.0825274
-0.113978
0.0826797
-0.113675
0.0803605
-0.113393
0.0751664
-0.113307
0.0667096
-0.113656
0.0546667
-0.114641
0.0388058
-0.116639
-0.119104
0.0190185
0.125842
-0.276992
-0.137987
0.113692
-0.272093
0.101627
-0.263716
0.0897904
-0.252365
0.0782683
-0.23866
0.0671293
-0.223229
0.0564369
-0.2067
0.0462707
-0.189703
0.0367272
-0.17283
0.0279336
-0.156636
0.0200492
-0.141639
0.0132477
-0.128293
0.00768523
-0.116955
0.00346371
-0.107828
0.000606825
-0.100928
-0.000938501
-0.0960801
-0.00128255
-0.0929677
-0.000569692
-0.0912339
0.00104284
-0.0906262
0.00344162
-0.0909016
0.00678492
-0.092185
0.0111002
-0.0922255
0.0162852
-0.0938616
0.0223092
-0.0977844
0.0292959
-0.102615
0.0372122
-0.106707
0.0458536
-0.10956
0.0548567
-0.111416
0.0637258
-0.112366
0.0720712
-0.112723
0.0795942
-0.112804
0.0860698
-0.112833
0.0912504
-0.112775
0.0948926
-0.11262
0.0967124
-0.112332
0.096351
-0.11191
0.0933943
-0.111457
0.0874074
-0.111173
0.0779842
-0.111259
0.064764
-0.112109
-0.113305
0.0475532
0.114311
-0.279877
-0.128373
0.100563
-0.273215
0.0872475
-0.263193
0.0745141
-0.250364
0.0624375
-0.235293
0.0510931
-0.218623
0.0405381
-0.200979
0.0308395
-0.183014
0.0220827
-0.165344
0.0143674
-0.148547
0.00780778
-0.133159
0.0025123
-0.119633
-0.00144487
-0.10829
-0.00404583
-0.0992804
-0.00533281
-0.0925575
-0.00539138
-0.0879032
-0.00432865
-0.0849783
-0.00229319
-0.0833844
0.000544416
-0.0828479
0.0040602
-0.0831739
0.00843657
-0.0847969
0.013636
-0.0852507
0.0196273
-0.0873861
0.0263067
-0.0918293
0.0337133
-0.0973537
0.0418307
-0.102267
0.050591
-0.106029
0.0596753
-0.108641
0.0686482
-0.110091
0.0772088
-0.110836
0.0851092
-0.111257
0.0921515
-0.111633
0.0981479
-0.111944
0.102898
-0.112169
0.106159
-0.112225
0.107597
-0.112013
0.106818
-0.111558
0.10338
-0.110998
0.0968463
-0.110509
0.086785
-0.110462
-0.110547
0.0729092
0.0976003
-0.279839
-0.11297
0.0828761
-0.271746
0.0689121
-0.260416
0.0558703
-0.24647
0.0438036
-0.230382
0.0327961
-0.212841
0.0228956
-0.194449
0.0141572
-0.175875
0.0066284
-0.157737
0.00037412
-0.140637
-0.00455321
-0.1251
-0.00812184
-0.11156
-0.0103374
-0.100303
-0.0112502
-0.0914324
-0.0109478
-0.0848641
-0.00953536
-0.0803601
-0.00713269
-0.0775655
-0.00387741
-0.0760633
4.59815e-05
-0.0755327
0.00456042
-0.0758877
0.0098343
-0.0778106
0.0157093
-0.0785126
0.0222669
-0.0810897
0.0293567
-0.0859437
0.0369615
-0.0919898
0.0450323
-0.0975139
0.0535983
-0.102065
0.0623797
-0.105346
0.0709854
-0.107246
0.0792757
-0.108485
0.0870273
-0.109366
0.0941591
-0.11032
0.100559
-0.111301
0.106101
-0.112273
0.110564
-0.113056
0.113609
-0.113423
0.114843
-0.113334
0.113828
-0.112861
0.11013
-0.11216
0.103305
-0.111563
-0.110864
0.0930456
0.0759725
-0.27725
-0.0918966
0.0610105
-0.268108
0.047079
-0.255814
0.0343789
-0.241138
0.0229249
-0.224384
0.0128148
-0.206342
0.00406593
-0.187542
-0.0032745
-0.168696
-0.0091999
-0.150386
-0.0136964
-0.133227
-0.0167761
-0.117722
-0.0184787
-0.104278
-0.0188782
-0.0931465
-0.0180762
-0.0844017
-0.0161923
-0.0779396
-0.0133464
-0.0735203
-0.00965991
-0.070785
-0.00527302
-0.0692968
-0.000340865
-0.0687194
0.00499123
-0.0689773
0.0109713
-0.0711482
0.0172995
-0.0718989
0.0241947
-0.0748497
0.0314435
-0.0799768
0.0390126
-0.0863839
0.0467319
-0.0922298
0.0547605
-0.0974026
0.0627855
-0.101146
0.0705253
-0.10339
0.0780052
-0.105171
0.0849391
-0.106493
0.0916311
-0.108382
0.0979617
-0.110372
0.103993
-0.11261
0.10947
-0.114596
0.113997
-0.115954
0.117141
-0.116594
0.118403
-0.116502
0.117338
-0.115868
0.113526
-0.115015
-0.113871
0.106709
0.0501974
-0.272589
-0.0659046
0.0357667
-0.26284
0.0225582
-0.249899
0.0108417
-0.234877
0.000575961
-0.217786
-0.00811882
-0.19959
-0.0152798
-0.180675
-0.0208691
-0.161835
-0.0249313
-0.14358
-0.0274965
-0.126542
-0.0286333
-0.111189
-0.0284356
-0.0979022
-0.0270291
-0.0869019
-0.0245588
-0.0782414
-0.0211774
-0.0718065
-0.0170064
-0.0673862
-0.0121663
-0.0646203
-0.00673687
-0.063111
-0.000833638
-0.0624853
0.00527684
-0.0625171
0.0117643
-0.0647223
0.0183072
-0.0652796
0.0253104
-0.0685406
0.0324912
-0.0738006
0.0397948
-0.0803991
0.0468597
-0.0861978
0.054073
-0.0918435
0.0607551
-0.0955242
0.0671428
-0.0980966
0.0731206
-0.100256
0.0786355
-0.102075
0.0843986
-0.105354
0.0901195
-0.108627
0.0963812
-0.112917
0.102685
-0.116637
0.108663
-0.119536
0.11371
-0.121272
0.117177
-0.121768
0.118533
-0.121311
0.117434
-0.120383
-0.119002
0.113656
0.0215843
-0.266412
-0.0363237
0.00837781
-0.256488
-0.00349856
-0.243174
-0.0136694
-0.228183
-0.0222692
-0.211029
-0.0291374
-0.19299
-0.034384
-0.17419
-0.0379707
-0.155584
-0.0399969
-0.137549
-0.0405228
-0.120761
-0.0396697
-0.10563
-0.0375821
-0.0925155
-0.0344139
-0.0816264
-0.030335
-0.0729991
-0.0255376
-0.0664945
-0.0201549
-0.061958
-0.0143372
-0.05901
-0.00817963
-0.0573061
-0.00155832
-0.056691
0.00513243
-0.0564207
0.0119961
-0.0585105
0.0184245
-0.0584306
0.0253367
-0.0620644
0.0321873
-0.0672491
0.039002
-0.0739032
0.0453131
-0.0794037
0.0515939
-0.0853487
0.056376
-0.0879946
0.0609457
-0.0909636
0.0647831
-0.0931541
0.0685051
-0.0957849
0.0730942
-0.101027
0.0775623
-0.105449
0.0842032
-0.113356
0.0908183
-0.118663
0.098412
-0.124316
0.105217
-0.127187
0.110862
-0.128581
0.114459
-0.128241
0.115694
-0.127198
-0.125501
0.114317
-0.0081065
-0.259121
-0.00516919
-0.0195422
-0.249535
-0.0296653
-0.23603
-0.0378811
-0.221458
-0.0444967
-0.204451
-0.0492609
-0.186858
-0.0523972
-0.168341
-0.05384
-0.150154
-0.0537631
-0.132442
-0.052234
-0.115993
-0.0494377
-0.1011
-0.0455049
-0.0881792
-0.0406657
-0.0773397
-0.0350752
-0.0686908
-0.0289102
-0.0620697
-0.022519
-0.0571475
-0.0156264
-0.0541659
-0.00913609
-0.0515995
-0.00172464
-0.0515194
0.00477889
-0.0500289
0.0117773
-0.0523766
0.0175796
-0.0509419
0.0242134
-0.0553312
0.0303306
-0.0600123
0.0364346
-0.0667624
0.0416831
-0.0716219
0.0466505
-0.077615
0.0495265
-0.0786233
0.0522105
-0.0819891
0.053949
-0.0839671
0.0555639
-0.0873595
0.0594442
-0.0959108
0.0624775
-0.100691
0.0702067
-0.11466
0.0766349
-0.120192
0.0859282
-0.130384
0.0938137
-0.133659
0.101224
-0.136508
0.106544
-0.136105
0.109385
-0.134681
-0.132663
0.109769
-0.0366899
0.0252275
-0.0462048
-0.0542671
-0.060414
-0.0648676
-0.0674933
-0.0684593
-0.0677929
-0.0656763
-0.0621973
-0.0575984
-0.0519774
-0.0456319
-0.0387643
-0.0313911
-0.0241282
-0.0162994
-0.00917277
-0.00150654
0.00459887
0.0112228
0.0162878
0.0225319
0.0275636
0.032556
0.0360974
0.0393809
0.0398318
0.0414619
0.0409196
0.0418106
0.0444146
0.04751
0.0557378
0.0620338
0.0735427
0.081524
0.090705
0.0967742
0.10063
0.10171
0.14131
0.092849
0.143714
0.0990824
0.146457
0.102311
0.14878
0.101182
0.149643
0.0949408
0.147789
0.0834089
0.142203
0.0666228
0.132301
0.0454278
0.118214
0.0211708
0.100658
-0.00439713
0.0808382
-0.0294518
0.0602473
-0.0524172
0.0405063
-0.0719552
0.0233313
-0.0870511
0.0103411
-0.096727
0.00323208
-0.100801
-0.0945992
0.138883
0.0823944
0.141528
0.0872517
0.144344
0.0893917
0.14657
0.0880059
0.147406
0.0824151
0.145908
0.0726141
0.141202
0.0585965
0.132803
0.0408417
0.120655
0.0202833
0.105201
-0.00181348
0.0873291
-0.0240634
0.0681874
-0.0451523
0.0490857
-0.0639109
0.0314496
-0.0794541
0.0167497
-0.0908689
0.0062249
-0.0977668
-0.0943914
0.136087
0.0707687
0.139054
0.0745235
0.141884
0.0759336
0.144013
0.0744385
0.144809
0.0694534
0.14355
0.061086
0.13951
0.0493593
0.132264
0.0344688
0.121676
0.0170767
0.107993
-0.00192354
0.0918212
-0.0214983
0.0740214
-0.0405841
0.0556518
-0.0582127
0.0378964
-0.0736312
0.0220413
-0.086041
0.0091852
-0.0948826
-0.0939933
0.133314
0.0587148
0.136218
0.0615818
0.138999
0.0622953
0.141055
0.0607472
0.141756
0.0563994
0.140642
0.0492128
0.137134
0.0393456
0.130774
0.0268911
0.121423
0.0122044
0.109204
-0.00406709
0.0945234
-0.0211688
0.0780269
-0.0382697
0.0605265
-0.0545664
0.0429391
-0.0694136
0.0263332
-0.0821701
0.0117396
-0.0922483
-0.0933098
0.130225
0.0464088
0.133229
0.0485313
0.135835
0.0488673
0.137717
0.0472953
0.13833
0.043512
0.13727
0.0373537
0.134105
0.029024
0.128446
0.018586
0.120104
0.00620751
0.109121
-0.00768367
0.0957517
-0.0225366
0.0804511
-0.0377149
0.0638307
-0.0525675
0.0466085
-0.0665546
0.0296348
-0.0791692
0.0138096
-0.0898781
-0.0923171
0.127217
0.0344776
0.129944
0.0359805
0.132335
0.0359182
0.134025
0.0343296
0.134559
0.031013
0.133509
0.0257927
0.130586
0.0187453
0.125464
0.00998065
0.117934
-0.00043467
0.107975
-0.0122558
0.0957287
-0.0250826
0.0815051
-0.0384415
0.0657584
-0.0518203
0.0490416
-0.064775
0.032005
-0.0768944
0.0153847
-0.0877326
-0.0910115
0.123816
0.022997
0.126435
0.0239481
0.128564
0.0236854
0.13
0.022104
0.130392
0.0191619
0.129341
0.0147441
0.126589
0.00879327
0.121888
0.00142226
0.115015
-0.00732129
0.105911
-0.0173439
0.094638
-0.0283613
0.0813909
-0.040025
0.0664942
-0.0519468
0.0503686
-0.0637744
0.0335115
-0.0751706
0.0164746
-0.0857424
-0.0894024
0.120285
0.0123296
0.122518
0.0128621
0.124356
0.0123459
0.125534
0.010773
0.125742
0.00815869
0.124692
0.00436981
0.122068
-0.000612004
0.117703
-0.00681561
0.1114
-0.0141553
0.103037
-0.0226047
0.0926261
-0.0320061
0.0802784
-0.0421052
0.0662139
-0.0526158
0.0507399
-0.0632682
0.0342444
-0.073802
0.0171118
-0.0838179
-0.0875002
0.116175
0.00248983
0.118219
0.00263195
0.119777
0.00199731
0.120666
0.000480575
0.120681
-0.00187223
0.119565
-0.00513656
0.117069
-0.00933539
0.112981
-0.0145223
0.107157
-0.0206778
0.0994446
-0.0277583
0.0898171
-0.0357266
0.0783208
-0.0443951
0.065086
-0.0535563
0.0503173
-0.0630101
0.0343044
-0.0725769
0.0173009
-0.0818174
-0.085353
0.111678
-0.00636069
0.113335
-0.00647458
0.114588
-0.00726509
0.115213
-0.00872434
0.115043
-0.0108588
0.113857
-0.0136852
0.111468
-0.0172565
0.107658
-0.0215888
0.102267
-0.0267165
0.0951868
-0.0326402
0.0863002
-0.0393111
0.075628
-0.0466733
0.0632351
-0.0545586
0.04924
-0.062816
0.0338396
-0.0713403
0.0172006
-0.0796579
-0.0828971
0.106493
-0.0142581
0.107952
-0.0146138
0.10895
-0.0154554
0.109344
-0.0168356
0.108991
-0.0187584
0.107731
-0.0212209
0.105388
-0.0242534
0.101805
-0.0278904
0.0968196
-0.0321542
0.0902936
-0.0370663
0.0821402
-0.042625
0.0722787
-0.0487758
0.060739
-0.0554574
0.0475861
-0.0625495
0.0329341
-0.0699921
0.016869
-0.0772797
-0.0800607
0.100734
-0.0211726
0.10188
-0.0216663
0.102623
-0.0225674
0.102813
-0.0238704
0.10231
-0.0255908
0.100997
-0.027743
0.0987363
-0.0303341
0.0953767
-0.0333831
0.0907786
-0.0369198
0.0848065
-0.0409667
0.0773372
-0.0455307
0.0683005
-0.0506073
0.0576462
-0.0561512
0.0453959
-0.0621106
0.0316036
-0.0684542
0.0162949
-0.0746451
-0.0768328
0.0943422
-0.0271866
0.0953057
-0.027782
0.0958437
-0.0286686
0.0958567
-0.0298729
0.0952389
-0.0314021
0.0938797
-0.0332641
0.0916711
-0.0354663
0.0885003
-0.0380208
0.0842353
-0.0409356
0.0787502
-0.0442367
0.0719373
-0.0479465
0.0636994
-0.0520681
0.0539658
-0.0565801
0.0426911
-0.0614528
0.0298635
-0.0666859
0.0154666
-0.0717346
-0.0732617
0.0873387
-0.0323476
0.0880874
-0.0329666
0.088452
-0.033828
0.0883376
-0.0349264
0.0876515
-0.0362701
0.0862991
-0.0378633
0.0841811
-0.0397079
0.081193
-0.0418084
0.0772349
-0.044176
0.0722035
-0.0468312
0.0659958
-0.0497948
0.0585211
-0.0530797
0.0497037
-0.0566775
0.039477
-0.0605651
0.0277502
-0.0647156
0.0145123
-0.0686618
-0.0693115
0.0798698
-0.0367343
0.0804766
-0.0373431
0.0806998
-0.0381267
0.080475
-0.0390952
0.0797272
-0.0402455
0.0783747
-0.041574
0.0763352
-0.0430811
0.0735279
-0.0447714
0.0698714
-0.0466543
0.0652798
-0.0487444
0.0596636
-0.0510573
0.0529371
-0.053608
0.0450167
-0.0563886
0.0358388
-0.0593939
0.0252891
-0.0625447
0.01331
-0.0654283
-0.0651068
0.0718992
-0.0404573
0.0723943
-0.0409979
0.0725356
-0.0416798
0.0722565
-0.0424895
0.0714887
-0.0434214
0.0701665
-0.0444744
0.0682274
-0.0456511
0.0656098
-0.046956
0.0622488
-0.0483945
0.0580744
-0.049975
0.053013
-0.0517081
0.0469951
-0.0536119
0.0399559
-0.055682
0.0318516
-0.0579327
0.0225377
-0.0601826
0.0119247
-0.0620726
-0.06074
0.0636858
-0.0435617
0.0640922
-0.0440112
0.0641584
-0.0445504
0.0638332
-0.0451722
0.0630627
-0.0458682
0.0617962
-0.0466399
0.059985
-0.0474914
0.0575784
-0.0484247
0.054523
-0.0494417
0.0507631
-0.0505479
0.0462444
-0.0517543
0.040914
-0.0530798
0.0347275
-0.0545272
0.027649
-0.0561186
0.0195863
-0.057615
0.0103801
-0.0585894
-0.0563066
0.0551269
-0.0461785
0.055488
-0.0464797
0.0555308
-0.0468427
0.055208
-0.0472432
0.0544805
-0.0476809
0.053313
-0.0481607
0.0516678
-0.0486839
0.0495039
-0.0492488
0.0467778
-0.0498542
0.043446
-0.0505057
0.0394701
-0.051218
0.0348156
-0.0520141
0.0294618
-0.0529093
0.0233756
-0.0539132
0.0165448
-0.0548065
0.00878647
-0.0549909
-0.0518129
0.0464989
-0.0483007
0.0467972
-0.0484315
0.0467923
-0.0485768
0.046459
-0.0487328
0.0457745
-0.0489009
0.0447126
-0.0490824
0.0432426
-0.0492741
0.0413322
-0.0494721
0.038949
-0.0496753
0.0360623
-0.0498901
0.032644
-0.0501341
0.0286727
-0.050436
0.0241453
-0.0508295
0.0190437
-0.0513086
0.013362
-0.051666
0.00702369
-0.0512322
-0.047401
0.0376806
-0.0500331
0.0379386
-0.0499239
0.0379098
-0.0498103
0.0375799
-0.0496869
0.0369365
-0.0495564
0.035963
-0.049416
0.034641
-0.0492606
0.0329522
-0.0490861
0.0308802
-0.0488934
0.0284127
-0.0486924
0.0255431
-0.0485068
0.0222727
-0.0483728
0.0186028
-0.0483242
0.0145214
-0.0483414
0.0100258
-0.0482264
0.0051703
-0.0473668
-0.0431469
0.0288324
-0.0513064
0.0290019
-0.0509311
0.0289012
-0.0505157
0.0285327
-0.0500822
0.0278929
-0.0496268
0.0269757
-0.0491443
0.0257773
-0.0486318
0.0242972
-0.0480887
0.0225397
-0.0475201
0.0205151
-0.0469428
0.0182412
-0.0463878
0.0157359
-0.0458912
0.0130027
-0.0454732
0.0100364
-0.0451054
0.00681506
-0.0445734
0.00334714
-0.0432956
-0.0390153
0.0199072
-0.0521557
0.0199448
-0.0514185
0.0197251
-0.0506526
0.0192544
-0.0498593
0.0185408
-0.0490369
0.0175972
-0.0481849
0.0164422
-0.0473059
0.0151007
-0.0464063
0.0136064
-0.0455001
0.0120021
-0.0446135
0.0103333
-0.0437805
0.00863101
-0.0430236
0.00690835
-0.0423452
0.00516496
-0.0417043
0.00334108
-0.0408278
0.00130067
-0.0390586
-0.0352331
0.0109354
-0.0524866
0.0107987
-0.0513394
0.0103916
-0.0501453
0.00973623
-0.048926
0.00886114
-0.0476867
0.00780205
-0.0464342
0.00660601
-0.0451827
0.00533046
-0.0439496
0.00404396
-0.0427604
0.00282154
-0.0416488
0.00172874
-0.04064
0.000809619
-0.0397358
9.56972e-05
-0.0389273
-0.000405405
-0.0381507
-0.000744267
-0.0370756
-0.000845107
-0.035173
-0.0319127
0.00199207
-0.0522684
0.00159139
-0.0505873
0.000920974
-0.0488975
7.67869e-06
-0.0471859
-0.00109811
-0.0454812
-0.00233333
-0.0438037
-0.00361658
-0.0421868
-0.00485681
-0.0406582
-0.00595021
-0.0392574
-0.00679761
-0.0380146
-0.00732471
-0.0369313
-0.00745809
-0.0360101
-0.00711117
-0.0352569
-0.00628901
-0.0345178
-0.00500847
-0.0334528
-0.00293625
-0.0318847
-0.0290246
-0.00695647
-0.0514372
-0.00762998
-0.0491266
-0.00860845
-0.0468337
-0.00982715
-0.0445567
-0.0112024
-0.0423442
-0.0126329
-0.0402351
-0.0140065
-0.0382748
-0.0151955
-0.0365082
-0.0160702
-0.0349782
-0.0165158
-0.0337021
-0.0164329
-0.0326681
-0.0157185
-0.0318844
-0.0142854
-0.0313436
-0.0121009
-0.0308397
-0.0090987
-0.030069
-0.00505366
-0.0290162
-0.0266356
-0.0157887
-0.0499103
-0.0167956
-0.0468622
-0.0181162
-0.0438805
-0.0196623
-0.0409736
-0.0213141
-0.0382227
-0.0229333
-0.0356871
-0.0243696
-0.0334262
-0.0254689
-0.0314908
-0.0260846
-0.0299187
-0.026089
-0.0287111
-0.0253634
-0.0278501
-0.023785
-0.0273511
-0.0212619
-0.0271789
-0.0177518
-0.0270815
-0.0131308
-0.0268405
-0.00716727
-0.0265517
-0.024803
-0.0245535
-0.0476894
-0.0258908
-0.0437583
-0.0275648
-0.0399828
-0.0294381
-0.0363884
-0.0313487
-0.0330833
-0.0331215
-0.0301422
-0.0345794
-0.0276294
-0.0355539
-0.0255906
-0.0358863
-0.024057
-0.0354371
-0.0230144
-0.0340748
-0.0224409
-0.031666
-0.022358
-0.0281014
-0.0227107
-0.0233058
-0.0232174
-0.0171106
-0.0237578
-0.00925722
-0.0245222
-0.0235905
-0.0332038
-0.0446551
-0.0349057
-0.0397417
-0.0369379
-0.035091
-0.0391266
-0.0307637
-0.0412713
-0.0268982
-0.0431723
-0.0235721
-0.044637
-0.0208467
-0.0454839
-0.018761
-0.0455405
-0.0173421
-0.0446514
-0.0165634
-0.0426682
-0.0164018
-0.039441
-0.0168852
-0.0348324
-0.0179519
-0.028726
-0.0193051
-0.0209609
-0.0208744
-0.0113071
-0.0229252
-0.0230773
-0.041847
-0.0408664
-0.0438922
-0.0347986
-0.0462713
-0.0291749
-0.0487584
-0.0240703
-0.0511212
-0.0196344
-0.0531499
-0.0159274
-0.0546404
-0.0130109
-0.0553803
-0.0109379
-0.0551719
-0.00972724
-0.0538371
-0.00933942
-0.0512027
-0.0097528
-0.0471018
-0.0109963
-0.0413927
-0.0129896
-0.0339425
-0.0154342
-0.0246346
-0.0182498
-0.0133282
-0.021733
-0.0233923
-0.0505199
-0.0362044
-0.0529181
-0.0288923
-0.0556371
-0.0222076
-0.0584075
-0.0162841
-0.0610115
-0.0112267
-0.0632199
-0.00711393
-0.0647621
-0.00405679
-0.0653888
-0.00209433
-0.0648868
-0.00121792
-0.0630572
-0.00138183
-0.0597076
-0.00256651
-0.0546493
-0.00480527
-0.0477503
-0.00796962
-0.0389151
-0.0117325
-0.0280079
-0.0160616
-0.0150703
-0.0210833
-0.0244568
-0.0593813
-0.0307839
-0.0621068
-0.022034
-0.0651455
-0.0141871
-0.0682493
-0.00732752
-0.0711705
-0.00156888
-0.0735692
0.00290865
-0.0751354
0.00601395
-0.0756123
0.00775115
-0.0747583
0.0081336
-0.0723436
0.00720853
-0.0681637
0.0050108
-0.0620359
0.00151861
-0.0538109
-0.00311532
-0.0434495
-0.00846299
-0.0309533
-0.0144597
-0.016511
-0.0210517
-0.0262169
-0.0685604
-0.024541
-0.0716098
-0.0142291
-0.0750392
-0.00503609
-0.0785597
0.00289492
-0.0817924
0.00934821
-0.08435
0.014123
-0.0859098
0.0171799
-0.0861714
0.0185325
-0.0848638
0.0182107
-0.081728
0.0162614
-0.0765434
0.0127456
-0.0691641
0.00770499
-0.0595019
0.0013394
-0.0475921
-0.00580913
-0.0336233
-0.0135311
-0.0177841
-0.0217798
-0.0288016
-0.0782678
-0.0176006
-0.0816961
-0.0054446
-0.0855636
0.00527991
-0.0894802
0.014356
-0.0929815
0.0214782
-0.0956645
0.0264908
-0.0971636
0.0293756
-0.0971383
0.0301555
-0.0952685
0.0288654
-0.0912662
0.0255693
-0.0849158
0.0203871
-0.0761316
0.0134775
-0.0649467
0.0051482
-0.0514789
-0.00398375
-0.0360203
-0.013542
-0.018817
-0.0235313
-0.0323167
-0.0887341
-0.00997268
-0.0925389
0.00427177
-0.0968227
0.0167043
-0.101081
0.0269738
-0.10482
0.0347655
-0.107594
0.0399508
-0.108982
0.0425178
-0.108581
0.0424853
-0.106017
0.0398994
-0.100985
0.0348782
-0.0933035
0.0276473
-0.0829619
0.0185241
-0.0701133
0.00796878
-0.0549819
-0.00333903
-0.0379314
-0.0148889
-0.0194612
-0.0265532
-0.0367667
-0.100084
-0.00175329
-0.104245
0.01483
-0.108878
0.0291103
-0.113438
0.040658
-0.117383
0.0491315
-0.120205
0.0544119
-0.121407
0.0564733
-0.1205
0.0553194
-0.117056
0.0510348
-0.110775
0.043847
-0.101536
0.0341439
-0.0894289
0.0224401
-0.074739
0.00938235
-0.0578692
-0.00423892
-0.0393368
-0.017801
-0.0198333
-0.0309999
-0.0423145
-0.112434
0.0067936
-0.116859
0.0260393
-0.121782
0.0423558
-0.126596
0.0552867
-0.130702
0.0644608
-0.1335
0.069731
-0.134383
0.0710301
-0.132765
0.0683564
-0.128178
0.0618877
-0.120356
0.0520319
-0.109279
0.039406
-0.0951864
0.0247739
-0.0785496
0.0090037
-0.0599759
-0.00697823
-0.0401611
-0.0224575
-0.019929
-0.0369931
-0.0491532
-0.125808
0.0156363
-0.13038
0.0376582
-0.135509
0.0562475
-0.140517
0.0707017
-0.144713
0.0805927
-0.147365
0.0856914
-0.147724
0.0858808
-0.14511
0.0811911
-0.139043
0.0719746
-0.129337
0.058912
-0.116129
0.0429225
-0.099861
0.0250686
-0.0812276
0.00646846
-0.0610532
-0.0118183
-0.040214
-0.0290136
-0.0196434
-0.0445999
-0.0573951
-0.140117
0.0241099
-0.144772
0.0494716
-0.150029
0.0705752
-0.155153
0.0867066
-0.159314
0.0972883
-0.16161
0.101972
-0.161148
0.100606
-0.157159
0.0933053
-0.149209
0.0807257
-0.13726
0.0639221
-0.121663
0.0441884
-0.103108
0.0229198
-0.0825265
0.00148099
-0.0609379
-0.0189664
-0.0393712
-0.0376112
-0.018834
-0.0539255
-0.0670204
-0.15532
0.0324484
-0.159864
0.0611101
-0.165114
0.0850492
-0.1702
0.103008
-0.174126
0.114219
-0.175799
0.118177
-0.174142
0.114694
-0.168361
0.104124
-0.158147
0.0875737
-0.143658
0.066543
-0.125499
0.0427621
-0.104625
0.0179781
-0.0821929
-0.00622857
-0.0594093
-0.0286172
-0.0374895
-0.0483306
-0.017491
-0.0649488
-0.0779953
-0.171078
0.0394638
-0.175477
0.0723425
-0.180626
0.0994021
-0.185555
0.119332
-0.189038
0.131034
-0.189729
0.133807
-0.186434
0.127554
-0.178431
0.113049
-0.165549
0.0919173
-0.14818
0.0661971
-0.127219
0.0381197
-0.103923
0.00980739
-0.0797186
-0.0169627
-0.0560658
-0.0408696
-0.0343005
-0.0611227
-0.015483
-0.0775052
-0.0901329
0.147213
-0.148084
-0.142832
0.149399
-0.141601
0.149765
-0.133661
0.148096
-0.124605
0.144754
-0.114947
0.139676
-0.105195
0.133225
-0.0959034
0.12543
-0.0875697
0.116645
-0.0807019
0.106956
-0.0756817
0.0966919
-0.0728563
0.0859504
-0.0724328
0.0750204
-0.074551
0.0639901
-0.0792239
0.0530882
-0.0863833
0.0424009
-0.0958706
0.0320665
-0.107444
0.0221983
-0.120806
0.0128206
-0.135636
0.00409445
-0.151493
-0.00408883
-0.168125
-0.0114908
-0.184927
-0.0183301
-0.201765
-0.024334
-0.217938
-0.0297957
-0.233354
-0.0344793
-0.247413
-0.0385914
-0.259831
-0.0420725
-0.270204
-0.0449296
-0.278219
-0.047432
-0.283746
-0.0491419
-0.28634
-0.0507576
-0.286126
-0.051432
-0.282803
-0.0522541
-0.276574
-0.0520125
-0.267715
-0.0519951
-0.256495
-0.0507368
-0.243431
-0.0495862
-0.22887
-0.0469234
-0.213368
-0.0440475
-0.197217
-0.181053
0.133713
-0.146395
-0.128623
0.136924
-0.14017
0.138232
-0.132425
0.137711
-0.123566
0.135445
-0.114094
0.131563
-0.104538
0.126215
-0.095455
0.119588
-0.087367
0.11186
-0.0807657
0.103237
-0.076055
0.0939054
-0.0735651
0.0840598
-0.0735127
0.0738733
-0.0760231
0.0635089
-0.0811067
0.05311
-0.0886857
0.0427992
-0.0985902
0.0326784
-0.110568
0.0228414
-0.124323
0.0133477
-0.139509
0.00428862
-0.155725
-0.00434712
-0.172621
-0.0124549
-0.189714
-0.0201009
-0.206702
-0.027187
-0.223049
-0.033787
-0.238491
-0.0398631
-0.252538
-0.0454551
-0.264829
-0.0505816
-0.274977
-0.0552411
-0.282685
-0.0595169
-0.287739
-0.0633104
-0.289873
-0.0667343
-0.289
-0.0696907
-0.28503
-0.0721861
-0.278066
-0.0742019
-0.268411
-0.075684
-0.256381
-0.0766069
-0.242471
-0.0768485
-0.227137
-0.0763402
-0.210897
-0.0748589