/*--------------------------------*- C++ -*----------------------------------*\
  =========                 |
  \\      /  F ield         | OpenFOAM: The Open Source CFD Toolbox
   \\    /   O peration     | Website:  https://openfoam.org
    \\  /    A nd           | Version:  6
     \\/     M anipulation  |
\*---------------------------------------------------------------------------*/
FoamFile
{
    version     2.0;
    format      ascii;
    class       volVectorField;
    location    "3.06";
    object      U;
}
// * * * * * * * * * * * * * * * * * * * * * * * * * * * * * * * * * * * * * //

dimensions      [0 1 -1 0 0 0 0];

internalField   nonuniform List<vector> 
5625
(
(0.8944 0.4472 0)
(0.8944 0.4472 0)
(0.8944 0.4472 0)
(0.8944 0.4472 0)
(0.8944 0.4472 0)
(0.8944 0.4472 0)
(0.8944 0.4472 0)
(0.8944 0.4472 0)
(0.8944 0.4472 0)
(0.8944 0.4472 0)
(0.8944 0.4472 0)
(0.8944 0.4472 0)
(0.8944 0.4472 0)
(0.8944 0.4472 0)
(0.8944 0.4472 0)
(0.8944 0.4472 0)
(0.8944 0.4472 0)
(0.8944 0.4472 0)
(0.8944 0.4472 0)
(0.8944 0.4472 0)
(0.8944 0.4472 0)
(0.8944 0.4472 0)
(0.8944 0.4472 0)
(0.8944 0.4472 0)
(0.8944 0.4472 0)
(0.8944 0.4472 0)
(0.8944 0.4472 0)
(0.8944 0.4472 0)
(0.8944 0.4472 0)
(0.8944 0.4472 0)
(0.8944 0.4472 0)
(0.8944 0.4472 0)
(0.8944 0.4472 0)
(0.8944 0.4472 0)
(0.894399 0.4472 0)
(0.894401 0.4472 0)
(0.8944 0.4472 0)
(0.8944 0.4472 0)
(0.894399 0.4472 0)
(0.894401 0.4472 0)
(0.894399 0.4472 0)
(0.894402 0.4472 0)
(0.894399 0.447201 0)
(0.894402 0.4472 0)
(0.894401 0.4472 0)
(0.894404 0.4472 0)
(0.894404 0.4472 0)
(0.894407 0.447201 0)
(0.894411 0.447201 0)
(0.894415 0.447201 0)
(0.894423 0.447201 0)
(0.894431 0.447202 0)
(0.894445 0.447203 0)
(0.894458 0.447203 0)
(0.894472 0.447202 0)
(0.894486 0.447201 0)
(0.894492 0.447196 0)
(0.894481 0.447184 0)
(0.894436 0.447162 0)
(0.894329 0.447116 0)
(0.894121 0.447031 0)
(0.893745 0.446887 0)
(0.893125 0.446637 0)
(0.892137 0.446229 0)
(0.890659 0.445585 0)
(0.888519 0.444592 0)
(0.885594 0.443127 0)
(0.8818 0.441046 0)
(0.877274 0.438206 0)
(0.872428 0.434558 0)
(0.868018 0.43012 0)
(0.865089 0.424924 0)
(0.864625 0.418965 0)
(0.867267 0.412096 0)
(0.873355 0.403916 0)
(0.8944 0.4472 0)
(0.8944 0.4472 0)
(0.8944 0.4472 0)
(0.8944 0.4472 0)
(0.8944 0.4472 0)
(0.8944 0.4472 0)
(0.8944 0.4472 0)
(0.8944 0.4472 0)
(0.8944 0.4472 0)
(0.8944 0.4472 0)
(0.8944 0.4472 0)
(0.8944 0.4472 0)
(0.8944 0.4472 0)
(0.8944 0.4472 0)
(0.8944 0.4472 0)
(0.8944 0.4472 0)
(0.8944 0.4472 0)
(0.8944 0.4472 0)
(0.8944 0.4472 0)
(0.8944 0.4472 0)
(0.8944 0.4472 0)
(0.8944 0.4472 0)
(0.8944 0.4472 0)
(0.8944 0.4472 0)
(0.8944 0.4472 0)
(0.8944 0.4472 0)
(0.8944 0.4472 0)
(0.8944 0.4472 0)
(0.8944 0.4472 0)
(0.8944 0.4472 0)
(0.8944 0.4472 0)
(0.8944 0.4472 0)
(0.8944 0.4472 0)
(0.8944 0.4472 0)
(0.8944 0.4472 0)
(0.8944 0.4472 0)
(0.8944 0.4472 0)
(0.8944 0.4472 0)
(0.8944 0.4472 0)
(0.8944 0.4472 0)
(0.8944 0.447201 0)
(0.894401 0.4472 0)
(0.8944 0.447201 0)
(0.894402 0.4472 0)
(0.8944 0.447199 0)
(0.894404 0.447201 0)
(0.894404 0.447199 0)
(0.894407 0.447201 0)
(0.89441 0.447201 0)
(0.894415 0.447202 0)
(0.894423 0.447202 0)
(0.89443 0.447203 0)
(0.894443 0.447203 0)
(0.894458 0.447207 0)
(0.894471 0.447205 0)
(0.894489 0.447207 0)
(0.894496 0.447204 0)
(0.894491 0.447194 0)
(0.894458 0.44718 0)
(0.894369 0.447136 0)
(0.894193 0.447065 0)
(0.893867 0.446933 0)
(0.893329 0.446706 0)
(0.892461 0.44633 0)
(0.891147 0.445731 0)
(0.889238 0.444804 0)
(0.886594 0.443426 0)
(0.883121 0.441447 0)
(0.878884 0.438736 0)
(0.874206 0.435211 0)
(0.86973 0.43089 0)
(0.866404 0.42586 0)
(0.86523 0.420171 0)
(0.866958 0.413757 0)
(0.871988 0.406366 0)
(0.8944 0.4472 0)
(0.8944 0.4472 0)
(0.8944 0.4472 0)
(0.8944 0.4472 0)
(0.8944 0.4472 0)
(0.8944 0.4472 0)
(0.8944 0.4472 0)
(0.8944 0.4472 0)
(0.8944 0.4472 0)
(0.8944 0.4472 0)
(0.8944 0.4472 0)
(0.8944 0.4472 0)
(0.8944 0.4472 0)
(0.8944 0.4472 0)
(0.8944 0.4472 0)
(0.8944 0.4472 0)
(0.8944 0.4472 0)
(0.8944 0.4472 0)
(0.8944 0.4472 0)
(0.8944 0.4472 0)
(0.8944 0.4472 0)
(0.8944 0.4472 0)
(0.8944 0.4472 0)
(0.8944 0.4472 0)
(0.8944 0.4472 0)
(0.8944 0.4472 0)
(0.8944 0.4472 0)
(0.8944 0.4472 0)
(0.8944 0.4472 0)
(0.8944 0.4472 0)
(0.8944 0.4472 0)
(0.8944 0.4472 0)
(0.8944 0.4472 0)
(0.8944 0.4472 0)
(0.894399 0.4472 0)
(0.8944 0.4472 0)
(0.8944 0.4472 0)
(0.8944 0.4472 0)
(0.894401 0.4472 0)
(0.894399 0.4472 0)
(0.894401 0.4472 0)
(0.894399 0.4472 0)
(0.894402 0.4472 0)
(0.894401 0.4472 0)
(0.894401 0.4472 0)
(0.894403 0.4472 0)
(0.894403 0.4472 0)
(0.894408 0.447201 0)
(0.894409 0.447201 0)
(0.894414 0.447202 0)
(0.894422 0.447203 0)
(0.894429 0.447204 0)
(0.894443 0.447206 0)
(0.894457 0.447208 0)
(0.894469 0.447209 0)
(0.894489 0.447212 0)
(0.894499 0.447211 0)
(0.894498 0.447204 0)
(0.894475 0.447194 0)
(0.894403 0.447159 0)
(0.894257 0.447094 0)
(0.89398 0.446981 0)
(0.893514 0.446776 0)
(0.892761 0.446435 0)
(0.891606 0.445885 0)
(0.889921 0.44503 0)
(0.887554 0.443752 0)
(0.884413 0.441894 0)
(0.880497 0.43933 0)
(0.876036 0.435959 0)
(0.871571 0.431776 0)
(0.867933 0.426893 0)
(0.866099 0.421421 0)
(0.866894 0.415378 0)
(0.870813 0.408619 0)
(0.8944 0.4472 0)
(0.8944 0.4472 0)
(0.8944 0.4472 0)
(0.8944 0.4472 0)
(0.8944 0.4472 0)
(0.8944 0.4472 0)
(0.8944 0.4472 0)
(0.8944 0.4472 0)
(0.8944 0.4472 0)
(0.8944 0.4472 0)
(0.8944 0.4472 0)
(0.8944 0.4472 0)
(0.8944 0.4472 0)
(0.8944 0.4472 0)
(0.8944 0.4472 0)
(0.8944 0.4472 0)
(0.8944 0.4472 0)
(0.8944 0.4472 0)
(0.8944 0.4472 0)
(0.8944 0.4472 0)
(0.8944 0.4472 0)
(0.8944 0.4472 0)
(0.8944 0.4472 0)
(0.8944 0.4472 0)
(0.8944 0.4472 0)
(0.8944 0.4472 0)
(0.8944 0.4472 0)
(0.8944 0.4472 0)
(0.8944 0.4472 0)
(0.8944 0.4472 0)
(0.8944 0.4472 0)
(0.8944 0.4472 0)
(0.8944 0.4472 0)
(0.8944 0.4472 0)
(0.8944 0.4472 0)
(0.8944 0.447201 0)
(0.8944 0.447199 0)
(0.894399 0.4472 0)
(0.894401 0.447201 0)
(0.894399 0.4472 0)
(0.894402 0.4472 0)
(0.894398 0.447201 0)
(0.894403 0.4472 0)
(0.894399 0.4472 0)
(0.894404 0.447201 0)
(0.8944 0.4472 0)
(0.894405 0.447201 0)
(0.894406 0.447201 0)
(0.89441 0.447201 0)
(0.894413 0.447203 0)
(0.894422 0.447203 0)
(0.894428 0.447204 0)
(0.894441 0.447209 0)
(0.894455 0.447208 0)
(0.894468 0.447213 0)
(0.894488 0.447215 0)
(0.894497 0.447216 0)
(0.894507 0.447216 0)
(0.894485 0.447203 0)
(0.894436 0.447181 0)
(0.894309 0.447125 0)
(0.894082 0.447026 0)
(0.893681 0.446847 0)
(0.893034 0.446539 0)
(0.892032 0.446046 0)
(0.890554 0.445267 0)
(0.888465 0.444089 0)
(0.885652 0.442376 0)
(0.882081 0.439973 0)
(0.877895 0.436781 0)
(0.873513 0.432774 0)
(0.869662 0.428038 0)
(0.867251 0.42274 0)
(0.867141 0.416985 0)
(0.869925 0.410723 0)
(0.8944 0.4472 0)
(0.8944 0.4472 0)
(0.8944 0.4472 0)
(0.8944 0.4472 0)
(0.8944 0.4472 0)
(0.8944 0.4472 0)
(0.8944 0.4472 0)
(0.8944 0.4472 0)
(0.8944 0.4472 0)
(0.8944 0.4472 0)
(0.8944 0.4472 0)
(0.8944 0.4472 0)
(0.8944 0.4472 0)
(0.8944 0.4472 0)
(0.8944 0.4472 0)
(0.8944 0.4472 0)
(0.8944 0.4472 0)
(0.8944 0.4472 0)
(0.8944 0.4472 0)
(0.8944 0.447201 0)
(0.8944 0.4472 0)
(0.8944 0.4472 0)
(0.8944 0.4472 0)
(0.8944 0.4472 0)
(0.8944 0.4472 0)
(0.8944 0.4472 0)
(0.8944 0.4472 0)
(0.8944 0.4472 0)
(0.8944 0.4472 0)
(0.8944 0.4472 0)
(0.8944 0.4472 0)
(0.8944 0.4472 0)
(0.8944 0.4472 0)
(0.8944 0.4472 0)
(0.894399 0.4472 0)
(0.8944 0.4472 0)
(0.8944 0.4472 0)
(0.8944 0.4472 0)
(0.8944 0.4472 0)
(0.8944 0.4472 0)
(0.894401 0.447199 0)
(0.894399 0.4472 0)
(0.894401 0.4472 0)
(0.894399 0.4472 0)
(0.894403 0.447201 0)
(0.894401 0.4472 0)
(0.894406 0.447201 0)
(0.894404 0.447201 0)
(0.894411 0.447202 0)
(0.894412 0.447203 0)
(0.894421 0.447205 0)
(0.894427 0.447204 0)
(0.894437 0.447209 0)
(0.894453 0.447211 0)
(0.894465 0.447214 0)
(0.894486 0.447219 0)
(0.894497 0.447222 0)
(0.894509 0.447222 0)
(0.894495 0.447216 0)
(0.894457 0.447197 0)
(0.894357 0.447155 0)
(0.894168 0.447068 0)
(0.89383 0.446912 0)
(0.893278 0.446644 0)
(0.892419 0.446202 0)
(0.891139 0.445504 0)
(0.889314 0.444438 0)
(0.886823 0.442874 0)
(0.883612 0.440655 0)
(0.879748 0.437668 0)
(0.875528 0.433861 0)
(0.871567 0.429298 0)
(0.868688 0.424158 0)
(0.867745 0.418611 0)
(0.869409 0.412717 0)
(0.8944 0.4472 0)
(0.8944 0.4472 0)
(0.8944 0.4472 0)
(0.8944 0.4472 0)
(0.8944 0.4472 0)
(0.8944 0.4472 0)
(0.8944 0.4472 0)
(0.8944 0.4472 0)
(0.8944 0.4472 0)
(0.8944 0.4472 0)
(0.8944 0.4472 0)
(0.8944 0.4472 0)
(0.8944 0.4472 0)
(0.8944 0.4472 0)
(0.8944 0.4472 0)
(0.8944 0.4472 0)
(0.8944 0.4472 0)
(0.8944 0.4472 0)
(0.8944 0.4472 0)
(0.8944 0.4472 0)
(0.8944 0.4472 0)
(0.8944 0.4472 0)
(0.8944 0.4472 0)
(0.8944 0.4472 0)
(0.8944 0.4472 0)
(0.8944 0.4472 0)
(0.8944 0.4472 0)
(0.8944 0.4472 0)
(0.8944 0.4472 0)
(0.8944 0.4472 0)
(0.8944 0.4472 0)
(0.8944 0.4472 0)
(0.8944 0.4472 0)
(0.8944 0.4472 0)
(0.8944 0.4472 0)
(0.894399 0.4472 0)
(0.8944 0.4472 0)
(0.8944 0.4472 0)
(0.894399 0.4472 0)
(0.894401 0.4472 0)
(0.8944 0.4472 0)
(0.894401 0.4472 0)
(0.8944 0.4472 0)
(0.894402 0.4472 0)
(0.8944 0.4472 0)
(0.894403 0.447201 0)
(0.894404 0.4472 0)
(0.894405 0.447202 0)
(0.894409 0.447202 0)
(0.894412 0.447202 0)
(0.894418 0.447205 0)
(0.894427 0.447206 0)
(0.894435 0.447208 0)
(0.89445 0.447212 0)
(0.894465 0.447217 0)
(0.89448 0.44722 0)
(0.894497 0.447226 0)
(0.894506 0.447228 0)
(0.894504 0.447227 0)
(0.894473 0.447212 0)
(0.894398 0.447181 0)
(0.894239 0.447109 0)
(0.893961 0.446975 0)
(0.893497 0.446744 0)
(0.892766 0.446356 0)
(0.891667 0.445735 0)
(0.890092 0.444784 0)
(0.887916 0.443373 0)
(0.885064 0.441354 0)
(0.881554 0.438597 0)
(0.877579 0.435023 0)
(0.873614 0.430666 0)
(0.870388 0.425688 0)
(0.868722 0.420303 0)
(0.869328 0.414663 0)
(0.8944 0.4472 0)
(0.8944 0.4472 0)
(0.8944 0.4472 0)
(0.8944 0.4472 0)
(0.8944 0.4472 0)
(0.8944 0.4472 0)
(0.8944 0.4472 0)
(0.8944 0.4472 0)
(0.8944 0.4472 0)
(0.8944 0.4472 0)
(0.8944 0.4472 0)
(0.8944 0.4472 0)
(0.8944 0.4472 0)
(0.8944 0.4472 0)
(0.8944 0.4472 0)
(0.8944 0.4472 0)
(0.8944 0.4472 0)
(0.8944 0.4472 0)
(0.8944 0.4472 0)
(0.8944 0.4472 0)
(0.8944 0.4472 0)
(0.8944 0.4472 0)
(0.8944 0.4472 0)
(0.8944 0.4472 0)
(0.8944 0.4472 0)
(0.8944 0.4472 0)
(0.8944 0.4472 0)
(0.8944 0.4472 0)
(0.8944 0.4472 0)
(0.8944 0.4472 0)
(0.8944 0.4472 0)
(0.8944 0.4472 0)
(0.8944 0.4472 0)
(0.8944 0.4472 0)
(0.8944 0.4472 0)
(0.8944 0.4472 0)
(0.8944 0.4472 0)
(0.894401 0.4472 0)
(0.894399 0.4472 0)
(0.8944 0.4472 0)
(0.8944 0.4472 0)
(0.894401 0.4472 0)
(0.8944 0.4472 0)
(0.894402 0.447201 0)
(0.8944 0.447199 0)
(0.894404 0.447202 0)
(0.894401 0.4472 0)
(0.894407 0.447202 0)
(0.894406 0.447202 0)
(0.894413 0.447202 0)
(0.894416 0.447205 0)
(0.894423 0.447207 0)
(0.894436 0.44721 0)
(0.894444 0.447212 0)
(0.894462 0.44722 0)
(0.894477 0.447221 0)
(0.894494 0.447229 0)
(0.894503 0.447235 0)
(0.894509 0.447234 0)
(0.894484 0.447227 0)
(0.89443 0.447201 0)
(0.8943 0.447146 0)
(0.894073 0.447032 0)
(0.893686 0.446835 0)
(0.893072 0.446503 0)
(0.892142 0.445957 0)
(0.890791 0.44512 0)
(0.888916 0.443864 0)
(0.886419 0.442052 0)
(0.88328 0.439543 0)
(0.879613 0.436236 0)
(0.875757 0.432124 0)
(0.872321 0.427333 0)
(0.870067 0.422096 0)
(0.86972 0.41663 0)
(0.8944 0.4472 0)
(0.8944 0.4472 0)
(0.8944 0.4472 0)
(0.8944 0.4472 0)
(0.8944 0.4472 0)
(0.8944 0.4472 0)
(0.8944 0.4472 0)
(0.8944 0.4472 0)
(0.8944 0.4472 0)
(0.8944 0.4472 0)
(0.8944 0.4472 0)
(0.8944 0.4472 0)
(0.8944 0.4472 0)
(0.8944 0.4472 0)
(0.8944 0.4472 0)
(0.8944 0.4472 0)
(0.8944 0.4472 0)
(0.8944 0.4472 0)
(0.8944 0.4472 0)
(0.8944 0.4472 0)
(0.8944 0.4472 0)
(0.8944 0.4472 0)
(0.8944 0.4472 0)
(0.8944 0.4472 0)
(0.8944 0.4472 0)
(0.8944 0.4472 0)
(0.8944 0.4472 0)
(0.8944 0.4472 0)
(0.8944 0.4472 0)
(0.8944 0.4472 0)
(0.8944 0.4472 0)
(0.8944 0.4472 0)
(0.8944 0.4472 0)
(0.8944 0.4472 0)
(0.8944 0.4472 0)
(0.8944 0.4472 0)
(0.8944 0.4472 0)
(0.8944 0.4472 0)
(0.8944 0.447201 0)
(0.8944 0.447199 0)
(0.894401 0.4472 0)
(0.894399 0.4472 0)
(0.894401 0.447199 0)
(0.8944 0.4472 0)
(0.894402 0.447201 0)
(0.894401 0.4472 0)
(0.894403 0.447202 0)
(0.894405 0.447201 0)
(0.894407 0.447201 0)
(0.894411 0.447204 0)
(0.894415 0.447204 0)
(0.894422 0.447207 0)
(0.894431 0.44721 0)
(0.894442 0.447213 0)
(0.894456 0.447218 0)
(0.894472 0.447226 0)
(0.894489 0.44723 0)
(0.894501 0.447239 0)
(0.894505 0.447241 0)
(0.894498 0.447238 0)
(0.894448 0.447221 0)
(0.894353 0.447175 0)
(0.894166 0.447087 0)
(0.893849 0.446919 0)
(0.893338 0.446635 0)
(0.892557 0.446169 0)
(0.891416 0.445437 0)
(0.889815 0.444336 0)
(0.887659 0.442733 0)
(0.884899 0.440484 0)
(0.881584 0.43747 0)
(0.87794 0.433645 0)
(0.874438 0.42909 0)
(0.871747 0.424011 0)
(0.870582 0.418672 0)
(0.8944 0.4472 0)
(0.8944 0.4472 0)
(0.8944 0.4472 0)
(0.8944 0.4472 0)
(0.8944 0.4472 0)
(0.8944 0.4472 0)
(0.8944 0.4472 0)
(0.8944 0.4472 0)
(0.8944 0.4472 0)
(0.8944 0.4472 0)
(0.8944 0.4472 0)
(0.8944 0.4472 0)
(0.8944 0.4472 0)
(0.8944 0.4472 0)
(0.8944 0.4472 0)
(0.8944 0.4472 0)
(0.8944 0.4472 0)
(0.8944 0.4472 0)
(0.8944 0.4472 0)
(0.8944 0.4472 0)
(0.8944 0.4472 0)
(0.8944 0.4472 0)
(0.8944 0.4472 0)
(0.8944 0.4472 0)
(0.894401 0.4472 0)
(0.894399 0.4472 0)
(0.8944 0.4472 0)
(0.8944 0.4472 0)
(0.8944 0.4472 0)
(0.8944 0.4472 0)
(0.8944 0.4472 0)
(0.8944 0.4472 0)
(0.8944 0.4472 0)
(0.8944 0.4472 0)
(0.8944 0.4472 0)
(0.8944 0.4472 0)
(0.8944 0.4472 0)
(0.8944 0.4472 0)
(0.8944 0.4472 0)
(0.8944 0.4472 0)
(0.8944 0.4472 0)
(0.8944 0.4472 0)
(0.894402 0.447199 0)
(0.894399 0.4472 0)
(0.894403 0.447201 0)
(0.8944 0.4472 0)
(0.894404 0.447201 0)
(0.894404 0.4472 0)
(0.894408 0.447203 0)
(0.894408 0.447202 0)
(0.894416 0.447205 0)
(0.894419 0.447206 0)
(0.894428 0.44721 0)
(0.894442 0.447214 0)
(0.89445 0.447218 0)
(0.894467 0.447226 0)
(0.894483 0.447234 0)
(0.894496 0.447238 0)
(0.894505 0.447247 0)
(0.8945 0.447245 0)
(0.894466 0.447236 0)
(0.89439 0.447203 0)
(0.894244 0.447129 0)
(0.893985 0.446997 0)
(0.893564 0.446755 0)
(0.89292 0.44636 0)
(0.891964 0.445734 0)
(0.890611 0.444781 0)
(0.888775 0.443378 0)
(0.886386 0.441394 0)
(0.883447 0.438694 0)
(0.880094 0.435196 0)
(0.876664 0.430928 0)
(0.873712 0.426055 0)
(0.871894 0.420837 0)
(0.8944 0.4472 0)
(0.8944 0.4472 0)
(0.8944 0.4472 0)
(0.8944 0.4472 0)
(0.8944 0.4472 0)
(0.8944 0.4472 0)
(0.8944 0.4472 0)
(0.8944 0.4472 0)
(0.8944 0.4472 0)
(0.8944 0.4472 0)
(0.8944 0.4472 0)
(0.8944 0.4472 0)
(0.8944 0.4472 0)
(0.8944 0.4472 0)
(0.8944 0.4472 0)
(0.8944 0.4472 0)
(0.8944 0.4472 0)
(0.8944 0.4472 0)
(0.8944 0.4472 0)
(0.8944 0.4472 0)
(0.8944 0.4472 0)
(0.8944 0.4472 0)
(0.8944 0.4472 0)
(0.8944 0.4472 0)
(0.8944 0.4472 0)
(0.8944 0.4472 0)
(0.8944 0.4472 0)
(0.8944 0.4472 0)
(0.8944 0.4472 0)
(0.8944 0.4472 0)
(0.8944 0.4472 0)
(0.8944 0.4472 0)
(0.8944 0.4472 0)
(0.8944 0.4472 0)
(0.8944 0.4472 0)
(0.8944 0.4472 0)
(0.8944 0.4472 0)
(0.894401 0.4472 0)
(0.894399 0.4472 0)
(0.8944 0.4472 0)
(0.8944 0.4472 0)
(0.8944 0.4472 0)
(0.894401 0.447199 0)
(0.8944 0.4472 0)
(0.894401 0.4472 0)
(0.894402 0.447201 0)
(0.894402 0.4472 0)
(0.894404 0.447202 0)
(0.894405 0.447201 0)
(0.89441 0.447203 0)
(0.894411 0.447205 0)
(0.89442 0.447205 0)
(0.894425 0.447211 0)
(0.894435 0.447214 0)
(0.894449 0.447219 0)
(0.89446 0.447225 0)
(0.894478 0.447234 0)
(0.89449 0.447242 0)
(0.894501 0.447249 0)
(0.894499 0.447254 0)
(0.894479 0.447246 0)
(0.89442 0.447226 0)
(0.894304 0.447171 0)
(0.894098 0.447057 0)
(0.893757 0.446865 0)
(0.893225 0.446533 0)
(0.892436 0.446001 0)
(0.891309 0.44519 0)
(0.889761 0.443979 0)
(0.887725 0.442254 0)
(0.885169 0.439875 0)
(0.882161 0.436733 0)
(0.878924 0.432809 0)
(0.875878 0.428203 0)
(0.873602 0.423147 0)
(0.8944 0.4472 0)
(0.8944 0.4472 0)
(0.8944 0.4472 0)
(0.8944 0.4472 0)
(0.8944 0.4472 0)
(0.8944 0.4472 0)
(0.8944 0.4472 0)
(0.8944 0.4472 0)
(0.8944 0.4472 0)
(0.8944 0.4472 0)
(0.8944 0.4472 0)
(0.8944 0.4472 0)
(0.8944 0.4472 0)
(0.8944 0.4472 0)
(0.8944 0.4472 0)
(0.8944 0.4472 0)
(0.8944 0.4472 0)
(0.8944 0.4472 0)
(0.8944 0.4472 0)
(0.8944 0.4472 0)
(0.8944 0.4472 0)
(0.8944 0.4472 0)
(0.8944 0.4472 0)
(0.8944 0.4472 0)
(0.8944 0.4472 0)
(0.8944 0.4472 0)
(0.8944 0.4472 0)
(0.8944 0.4472 0)
(0.8944 0.4472 0)
(0.8944 0.4472 0)
(0.8944 0.4472 0)
(0.8944 0.4472 0)
(0.894399 0.4472 0)
(0.8944 0.4472 0)
(0.8944 0.447199 0)
(0.8944 0.447201 0)
(0.8944 0.447199 0)
(0.8944 0.447201 0)
(0.8944 0.4472 0)
(0.8944 0.4472 0)
(0.8944 0.4472 0)
(0.894401 0.4472 0)
(0.8944 0.4472 0)
(0.894401 0.4472 0)
(0.8944 0.447199 0)
(0.894403 0.447201 0)
(0.894401 0.447202 0)
(0.894404 0.447199 0)
(0.894404 0.447203 0)
(0.894408 0.447202 0)
(0.894412 0.447204 0)
(0.894417 0.447208 0)
(0.894423 0.447208 0)
(0.894431 0.447213 0)
(0.894444 0.44722 0)
(0.894456 0.447224 0)
(0.89447 0.447233 0)
(0.894484 0.447244 0)
(0.894495 0.447249 0)
(0.894497 0.447258 0)
(0.894484 0.447258 0)
(0.894441 0.44724 0)
(0.894354 0.4472 0)
(0.894187 0.447117 0)
(0.893916 0.446955 0)
(0.893485 0.446684 0)
(0.892839 0.446242 0)
(0.891907 0.445555 0)
(0.890619 0.444532 0)
(0.888907 0.443048 0)
(0.886723 0.440981 0)
(0.884088 0.438218 0)
(0.881132 0.434681 0)
(0.878152 0.430414 0)
(0.875615 0.425589 0)
(0.8944 0.4472 0)
(0.8944 0.4472 0)
(0.8944 0.4472 0)
(0.8944 0.4472 0)
(0.8944 0.4472 0)
(0.8944 0.4472 0)
(0.8944 0.4472 0)
(0.8944 0.4472 0)
(0.8944 0.4472 0)
(0.8944 0.4472 0)
(0.8944 0.4472 0)
(0.8944 0.4472 0)
(0.8944 0.4472 0)
(0.8944 0.4472 0)
(0.8944 0.4472 0)
(0.8944 0.4472 0)
(0.8944 0.4472 0)
(0.8944 0.4472 0)
(0.8944 0.4472 0)
(0.8944 0.4472 0)
(0.8944 0.4472 0)
(0.8944 0.4472 0)
(0.8944 0.4472 0)
(0.8944 0.4472 0)
(0.8944 0.4472 0)
(0.8944 0.4472 0)
(0.8944 0.4472 0)
(0.8944 0.4472 0)
(0.8944 0.4472 0)
(0.8944 0.4472 0)
(0.8944 0.4472 0)
(0.8944 0.4472 0)
(0.8944 0.4472 0)
(0.8944 0.4472 0)
(0.8944 0.4472 0)
(0.8944 0.4472 0)
(0.894399 0.4472 0)
(0.8944 0.4472 0)
(0.8944 0.4472 0)
(0.8944 0.4472 0)
(0.8944 0.4472 0)
(0.8944 0.4472 0)
(0.894401 0.4472 0)
(0.8944 0.4472 0)
(0.894401 0.447199 0)
(0.894401 0.447201 0)
(0.894402 0.4472 0)
(0.894404 0.447201 0)
(0.894403 0.447202 0)
(0.894408 0.447202 0)
(0.894409 0.447204 0)
(0.894415 0.447207 0)
(0.894421 0.447208 0)
(0.894428 0.447213 0)
(0.89444 0.447217 0)
(0.894449 0.447225 0)
(0.894464 0.447232 0)
(0.894476 0.447241 0)
(0.894491 0.447252 0)
(0.894491 0.447259 0)
(0.894489 0.447262 0)
(0.894456 0.447255 0)
(0.894387 0.447225 0)
(0.89426 0.447161 0)
(0.894043 0.447034 0)
(0.893698 0.446813 0)
(0.893173 0.446452 0)
(0.892415 0.445883 0)
(0.891358 0.445019 0)
(0.889934 0.443768 0)
(0.888095 0.442004 0)
(0.885835 0.439605 0)
(0.883217 0.436486 0)
(0.880431 0.432626 0)
(0.877821 0.42812 0)
(0.8944 0.4472 0)
(0.8944 0.4472 0)
(0.8944 0.4472 0)
(0.8944 0.4472 0)
(0.8944 0.4472 0)
(0.8944 0.4472 0)
(0.8944 0.4472 0)
(0.8944 0.4472 0)
(0.8944 0.4472 0)
(0.8944 0.4472 0)
(0.8944 0.4472 0)
(0.8944 0.4472 0)
(0.8944 0.4472 0)
(0.8944 0.4472 0)
(0.8944 0.4472 0)
(0.8944 0.4472 0)
(0.8944 0.4472 0)
(0.8944 0.4472 0)
(0.8944 0.4472 0)
(0.8944 0.4472 0)
(0.8944 0.4472 0)
(0.8944 0.4472 0)
(0.8944 0.4472 0)
(0.8944 0.4472 0)
(0.8944 0.4472 0)
(0.8944 0.4472 0)
(0.8944 0.4472 0)
(0.8944 0.4472 0)
(0.8944 0.4472 0)
(0.8944 0.4472 0)
(0.8944 0.4472 0)
(0.8944 0.4472 0)
(0.8944 0.4472 0)
(0.8944 0.4472 0)
(0.8944 0.4472 0)
(0.8944 0.4472 0)
(0.8944 0.4472 0)
(0.8944 0.447199 0)
(0.8944 0.4472 0)
(0.894401 0.4472 0)
(0.894399 0.4472 0)
(0.8944 0.4472 0)
(0.894401 0.4472 0)
(0.8944 0.447201 0)
(0.894401 0.4472 0)
(0.894402 0.4472 0)
(0.8944 0.447202 0)
(0.894404 0.4472 0)
(0.894403 0.447202 0)
(0.894406 0.447203 0)
(0.89441 0.447203 0)
(0.894412 0.447206 0)
(0.894419 0.447208 0)
(0.894426 0.447213 0)
(0.894432 0.447217 0)
(0.894445 0.447222 0)
(0.894459 0.447232 0)
(0.894468 0.44724 0)
(0.894481 0.447251 0)
(0.89449 0.44726 0)
(0.894484 0.447264 0)
(0.894464 0.447265 0)
(0.894415 0.447245 0)
(0.894314 0.447194 0)
(0.894146 0.447101 0)
(0.893871 0.446925 0)
(0.893452 0.446627 0)
(0.89284 0.446164 0)
(0.891978 0.445452 0)
(0.89081 0.444405 0)
(0.889288 0.44292 0)
(0.887385 0.440878 0)
(0.885122 0.438178 0)
(0.882613 0.434765 0)
(0.880094 0.430662 0)
(0.8944 0.4472 0)
(0.8944 0.4472 0)
(0.8944 0.4472 0)
(0.8944 0.4472 0)
(0.8944 0.4472 0)
(0.8944 0.4472 0)
(0.8944 0.4472 0)
(0.8944 0.4472 0)
(0.8944 0.4472 0)
(0.8944 0.4472 0)
(0.8944 0.4472 0)
(0.8944 0.4472 0)
(0.8944 0.4472 0)
(0.8944 0.4472 0)
(0.8944 0.4472 0)
(0.8944 0.4472 0)
(0.8944 0.4472 0)
(0.8944 0.4472 0)
(0.8944 0.4472 0)
(0.8944 0.4472 0)
(0.8944 0.4472 0)
(0.8944 0.4472 0)
(0.8944 0.4472 0)
(0.8944 0.4472 0)
(0.8944 0.4472 0)
(0.8944 0.4472 0)
(0.8944 0.4472 0)
(0.8944 0.4472 0)
(0.8944 0.4472 0)
(0.8944 0.4472 0)
(0.8944 0.4472 0)
(0.8944 0.4472 0)
(0.8944 0.4472 0)
(0.8944 0.4472 0)
(0.8944 0.4472 0)
(0.8944 0.4472 0)
(0.8944 0.447201 0)
(0.8944 0.447199 0)
(0.8944 0.4472 0)
(0.8944 0.4472 0)
(0.8944 0.4472 0)
(0.8944 0.4472 0)
(0.894401 0.4472 0)
(0.8944 0.4472 0)
(0.894401 0.4472 0)
(0.894399 0.4472 0)
(0.894403 0.447201 0)
(0.894402 0.447201 0)
(0.894404 0.447201 0)
(0.894404 0.447203 0)
(0.894408 0.447203 0)
(0.894411 0.447205 0)
(0.894416 0.447208 0)
(0.894423 0.447211 0)
(0.89443 0.447216 0)
(0.89444 0.447222 0)
(0.89445 0.447229 0)
(0.894464 0.447238 0)
(0.894472 0.447249 0)
(0.894482 0.44726 0)
(0.894483 0.447264 0)
(0.894468 0.447269 0)
(0.89443 0.447258 0)
(0.894357 0.447223 0)
(0.894224 0.447151 0)
(0.894008 0.447014 0)
(0.893678 0.44678 0)
(0.893188 0.446403 0)
(0.892495 0.445823 0)
(0.89155 0.444962 0)
(0.890303 0.443727 0)
(0.888725 0.442014 0)
(0.886814 0.439722 0)
(0.88463 0.436767 0)
(0.88232 0.43313 0)
(0.8944 0.4472 0)
(0.8944 0.4472 0)
(0.8944 0.4472 0)
(0.8944 0.4472 0)
(0.8944 0.4472 0)
(0.8944 0.4472 0)
(0.8944 0.4472 0)
(0.8944 0.4472 0)
(0.8944 0.4472 0)
(0.8944 0.4472 0)
(0.8944 0.4472 0)
(0.8944 0.4472 0)
(0.8944 0.4472 0)
(0.8944 0.4472 0)
(0.8944 0.4472 0)
(0.8944 0.4472 0)
(0.8944 0.4472 0)
(0.8944 0.4472 0)
(0.8944 0.4472 0)
(0.8944 0.4472 0)
(0.8944 0.4472 0)
(0.8944 0.4472 0)
(0.8944 0.4472 0)
(0.8944 0.4472 0)
(0.8944 0.4472 0)
(0.8944 0.4472 0)
(0.8944 0.4472 0)
(0.8944 0.4472 0)
(0.894401 0.4472 0)
(0.8944 0.4472 0)
(0.8944 0.4472 0)
(0.8944 0.4472 0)
(0.8944 0.4472 0)
(0.8944 0.4472 0)
(0.8944 0.4472 0)
(0.8944 0.4472 0)
(0.8944 0.4472 0)
(0.8944 0.4472 0)
(0.894399 0.4472 0)
(0.894401 0.4472 0)
(0.8944 0.4472 0)
(0.8944 0.4472 0)
(0.8944 0.4472 0)
(0.894401 0.4472 0)
(0.8944 0.4472 0)
(0.894401 0.4472 0)
(0.894402 0.447201 0)
(0.894401 0.447201 0)
(0.894404 0.447202 0)
(0.894404 0.447201 0)
(0.894407 0.447204 0)
(0.89441 0.447204 0)
(0.894413 0.447207 0)
(0.89442 0.447211 0)
(0.894426 0.447215 0)
(0.894433 0.447221 0)
(0.894445 0.447227 0)
(0.894454 0.447236 0)
(0.894467 0.447246 0)
(0.894472 0.447257 0)
(0.894476 0.447264 0)
(0.894471 0.447271 0)
(0.89444 0.447266 0)
(0.894386 0.447242 0)
(0.894285 0.447189 0)
(0.894117 0.447087 0)
(0.893859 0.446902 0)
(0.893469 0.446602 0)
(0.892919 0.446136 0)
(0.892162 0.445436 0)
(0.891154 0.444425 0)
(0.889866 0.443012 0)
(0.888282 0.441094 0)
(0.886427 0.438588 0)
(0.884392 0.435441 0)
(0.8944 0.4472 0)
(0.8944 0.4472 0)
(0.8944 0.4472 0)
(0.8944 0.4472 0)
(0.8944 0.4472 0)
(0.8944 0.4472 0)
(0.8944 0.4472 0)
(0.8944 0.4472 0)
(0.8944 0.4472 0)
(0.8944 0.4472 0)
(0.8944 0.4472 0)
(0.8944 0.4472 0)
(0.8944 0.4472 0)
(0.8944 0.4472 0)
(0.8944 0.4472 0)
(0.8944 0.4472 0)
(0.8944 0.4472 0)
(0.8944 0.4472 0)
(0.8944 0.4472 0)
(0.8944 0.4472 0)
(0.8944 0.4472 0)
(0.8944 0.4472 0)
(0.8944 0.4472 0)
(0.8944 0.4472 0)
(0.8944 0.4472 0)
(0.8944 0.4472 0)
(0.8944 0.4472 0)
(0.8944 0.4472 0)
(0.8944 0.4472 0)
(0.8944 0.4472 0)
(0.8944 0.4472 0)
(0.8944 0.4472 0)
(0.8944 0.4472 0)
(0.8944 0.4472 0)
(0.8944 0.4472 0)
(0.8944 0.4472 0)
(0.8944 0.4472 0)
(0.8944 0.4472 0)
(0.8944 0.447201 0)
(0.8944 0.447199 0)
(0.8944 0.447201 0)
(0.8944 0.447199 0)
(0.8944 0.447201 0)
(0.894399 0.447201 0)
(0.894402 0.447199 0)
(0.894399 0.447202 0)
(0.894402 0.4472 0)
(0.894402 0.447201 0)
(0.8944 0.447202 0)
(0.894406 0.447201 0)
(0.894404 0.447203 0)
(0.894409 0.447205 0)
(0.894413 0.447206 0)
(0.894416 0.447209 0)
(0.894423 0.447214 0)
(0.89443 0.447219 0)
(0.894438 0.447225 0)
(0.894447 0.447233 0)
(0.894459 0.447243 0)
(0.894466 0.447252 0)
(0.894468 0.447264 0)
(0.894469 0.447269 0)
(0.894445 0.44727 0)
(0.894406 0.447256 0)
(0.89433 0.447218 0)
(0.8942 0.447141 0)
(0.893998 0.447 0)
(0.893696 0.446764 0)
(0.893262 0.446395 0)
(0.89266 0.445835 0)
(0.891858 0.445016 0)
(0.890817 0.443865 0)
(0.889528 0.442289 0)
(0.887992 0.440201 0)
(0.886249 0.437537 0)
(0.8944 0.4472 0)
(0.8944 0.4472 0)
(0.8944 0.4472 0)
(0.8944 0.4472 0)
(0.8944 0.4472 0)
(0.8944 0.4472 0)
(0.8944 0.4472 0)
(0.8944 0.4472 0)
(0.8944 0.4472 0)
(0.8944 0.4472 0)
(0.8944 0.4472 0)
(0.8944 0.4472 0)
(0.8944 0.4472 0)
(0.8944 0.4472 0)
(0.8944 0.4472 0)
(0.8944 0.4472 0)
(0.8944 0.4472 0)
(0.8944 0.4472 0)
(0.8944 0.4472 0)
(0.8944 0.4472 0)
(0.8944 0.4472 0)
(0.8944 0.4472 0)
(0.8944 0.4472 0)
(0.8944 0.4472 0)
(0.8944 0.4472 0)
(0.8944 0.4472 0)
(0.8944 0.4472 0)
(0.8944 0.4472 0)
(0.8944 0.4472 0)
(0.8944 0.4472 0)
(0.8944 0.4472 0)
(0.8944 0.4472 0)
(0.8944 0.4472 0)
(0.8944 0.4472 0)
(0.8944 0.4472 0)
(0.8944 0.4472 0)
(0.8944 0.4472 0)
(0.8944 0.4472 0)
(0.8944 0.4472 0)
(0.8944 0.4472 0)
(0.894399 0.4472 0)
(0.894401 0.4472 0)
(0.894399 0.4472 0)
(0.894401 0.4472 0)
(0.8944 0.4472 0)
(0.894401 0.4472 0)
(0.894401 0.447202 0)
(0.894401 0.4472 0)
(0.894402 0.447202 0)
(0.894402 0.447201 0)
(0.894406 0.447203 0)
(0.894406 0.447204 0)
(0.894411 0.447205 0)
(0.894416 0.447207 0)
(0.894416 0.447214 0)
(0.894427 0.447215 0)
(0.894434 0.447223 0)
(0.894441 0.44723 0)
(0.894451 0.447239 0)
(0.894459 0.447249 0)
(0.894463 0.447259 0)
(0.89446 0.447267 0)
(0.894452 0.447271 0)
(0.894415 0.447265 0)
(0.894363 0.447238 0)
(0.894261 0.44718 0)
(0.894107 0.447077 0)
(0.893874 0.446896 0)
(0.893533 0.446604 0)
(0.893062 0.446162 0)
(0.892428 0.445511 0)
(0.891602 0.444583 0)
(0.890566 0.443305 0)
(0.889315 0.441597 0)
(0.887868 0.439387 0)
(0.8944 0.4472 0)
(0.8944 0.4472 0)
(0.8944 0.4472 0)
(0.8944 0.4472 0)
(0.8944 0.4472 0)
(0.8944 0.4472 0)
(0.8944 0.4472 0)
(0.8944 0.4472 0)
(0.8944 0.4472 0)
(0.8944 0.4472 0)
(0.8944 0.4472 0)
(0.8944 0.4472 0)
(0.8944 0.4472 0)
(0.8944 0.4472 0)
(0.8944 0.4472 0)
(0.8944 0.4472 0)
(0.8944 0.4472 0)
(0.8944 0.4472 0)
(0.8944 0.4472 0)
(0.8944 0.4472 0)
(0.8944 0.4472 0)
(0.8944 0.4472 0)
(0.8944 0.4472 0)
(0.8944 0.4472 0)
(0.8944 0.4472 0)
(0.8944 0.4472 0)
(0.8944 0.4472 0)
(0.8944 0.4472 0)
(0.8944 0.4472 0)
(0.8944 0.4472 0)
(0.8944 0.4472 0)
(0.8944 0.4472 0)
(0.8944 0.4472 0)
(0.8944 0.4472 0)
(0.8944 0.4472 0)
(0.8944 0.4472 0)
(0.8944 0.447199 0)
(0.8944 0.4472 0)
(0.8944 0.4472 0)
(0.8944 0.4472 0)
(0.894399 0.4472 0)
(0.894401 0.4472 0)
(0.894399 0.447201 0)
(0.894402 0.447199 0)
(0.894399 0.447201 0)
(0.894401 0.4472 0)
(0.894401 0.447199 0)
(0.894401 0.447203 0)
(0.894402 0.447199 0)
(0.894404 0.447202 0)
(0.894403 0.447203 0)
(0.894406 0.447202 0)
(0.894409 0.447207 0)
(0.89441 0.447207 0)
(0.894417 0.447211 0)
(0.894423 0.447215 0)
(0.894428 0.447219 0)
(0.894435 0.447229 0)
(0.894444 0.447235 0)
(0.89445 0.447245 0)
(0.894456 0.447256 0)
(0.894454 0.447264 0)
(0.894449 0.447267 0)
(0.894427 0.447268 0)
(0.894381 0.447252 0)
(0.894309 0.44721 0)
(0.894192 0.447133 0)
(0.89401 0.446996 0)
(0.893748 0.446774 0)
(0.893381 0.446427 0)
(0.892884 0.445913 0)
(0.892238 0.445179 0)
(0.891414 0.444156 0)
(0.89041 0.442778 0)
(0.889236 0.440978 0)
(0.8944 0.4472 0)
(0.8944 0.4472 0)
(0.8944 0.4472 0)
(0.8944 0.4472 0)
(0.8944 0.4472 0)
(0.8944 0.4472 0)
(0.8944 0.4472 0)
(0.8944 0.4472 0)
(0.8944 0.4472 0)
(0.8944 0.4472 0)
(0.8944 0.4472 0)
(0.8944 0.4472 0)
(0.8944 0.4472 0)
(0.8944 0.4472 0)
(0.8944 0.4472 0)
(0.8944 0.4472 0)
(0.8944 0.4472 0)
(0.8944 0.4472 0)
(0.8944 0.4472 0)
(0.8944 0.4472 0)
(0.8944 0.4472 0)
(0.8944 0.4472 0)
(0.8944 0.4472 0)
(0.8944 0.4472 0)
(0.8944 0.4472 0)
(0.8944 0.4472 0)
(0.8944 0.4472 0)
(0.8944 0.4472 0)
(0.8944 0.4472 0)
(0.8944 0.4472 0)
(0.8944 0.4472 0)
(0.8944 0.4472 0)
(0.8944 0.4472 0)
(0.8944 0.4472 0)
(0.8944 0.4472 0)
(0.8944 0.4472 0)
(0.8944 0.4472 0)
(0.8944 0.4472 0)
(0.8944 0.4472 0)
(0.8944 0.4472 0)
(0.894401 0.4472 0)
(0.894399 0.4472 0)
(0.894401 0.447201 0)
(0.8944 0.447199 0)
(0.894401 0.447201 0)
(0.8944 0.4472 0)
(0.8944 0.4472 0)
(0.894401 0.4472 0)
(0.894401 0.447202 0)
(0.894403 0.447201 0)
(0.894403 0.447202 0)
(0.894405 0.447204 0)
(0.894407 0.447203 0)
(0.89441 0.447207 0)
(0.894414 0.447209 0)
(0.894417 0.447212 0)
(0.894426 0.447219 0)
(0.89443 0.447224 0)
(0.894436 0.447232 0)
(0.894445 0.44724 0)
(0.894446 0.44725 0)
(0.89445 0.447258 0)
(0.894444 0.447267 0)
(0.894429 0.447267 0)
(0.894397 0.447259 0)
(0.894343 0.447231 0)
(0.89425 0.447174 0)
(0.894113 0.447073 0)
(0.893914 0.446902 0)
(0.893631 0.446638 0)
(0.893247 0.446239 0)
(0.892742 0.445662 0)
(0.8921 0.444855 0)
(0.891307 0.443759 0)
(0.890367 0.442313 0)
(0.8944 0.4472 0)
(0.8944 0.4472 0)
(0.8944 0.4472 0)
(0.8944 0.4472 0)
(0.8944 0.4472 0)
(0.8944 0.4472 0)
(0.8944 0.4472 0)
(0.8944 0.4472 0)
(0.8944 0.4472 0)
(0.8944 0.4472 0)
(0.8944 0.4472 0)
(0.8944 0.4472 0)
(0.8944 0.4472 0)
(0.8944 0.4472 0)
(0.8944 0.4472 0)
(0.8944 0.4472 0)
(0.8944 0.4472 0)
(0.8944 0.4472 0)
(0.8944 0.4472 0)
(0.8944 0.4472 0)
(0.8944 0.4472 0)
(0.8944 0.4472 0)
(0.8944 0.4472 0)
(0.8944 0.4472 0)
(0.8944 0.4472 0)
(0.8944 0.4472 0)
(0.8944 0.4472 0)
(0.8944 0.4472 0)
(0.8944 0.4472 0)
(0.8944 0.4472 0)
(0.8944 0.4472 0)
(0.8944 0.4472 0)
(0.8944 0.4472 0)
(0.8944 0.4472 0)
(0.8944 0.447199 0)
(0.8944 0.447201 0)
(0.894401 0.4472 0)
(0.8944 0.4472 0)
(0.8944 0.4472 0)
(0.8944 0.4472 0)
(0.8944 0.447201 0)
(0.8944 0.447199 0)
(0.8944 0.4472 0)
(0.8944 0.4472 0)
(0.8944 0.4472 0)
(0.894399 0.4472 0)
(0.894402 0.4472 0)
(0.894398 0.4472 0)
(0.894404 0.447201 0)
(0.8944 0.447202 0)
(0.894404 0.447201 0)
(0.894404 0.447202 0)
(0.894407 0.447203 0)
(0.894408 0.447206 0)
(0.894411 0.447208 0)
(0.894417 0.447211 0)
(0.894418 0.447217 0)
(0.894427 0.447221 0)
(0.894429 0.447228 0)
(0.894438 0.447237 0)
(0.89444 0.447244 0)
(0.894443 0.447252 0)
(0.89444 0.447262 0)
(0.894428 0.447264 0)
(0.894405 0.447261 0)
(0.894365 0.447243 0)