/*--------------------------------*- C++ -*----------------------------------*\
  =========                 |
  \\      /  F ield         | OpenFOAM: The Open Source CFD Toolbox
   \\    /   O peration     | Website:  https://openfoam.org
    \\  /    A nd           | Version:  6
     \\/     M anipulation  |
\*---------------------------------------------------------------------------*/
FoamFile
{
    version     2.0;
    format      ascii;
    class       volScalarField;
    location    "1.13";
    object      rho;
}
// * * * * * * * * * * * * * * * * * * * * * * * * * * * * * * * * * * * * * //

dimensions      [1 -3 0 0 0 0 0];

internalField   nonuniform List<scalar> 
7606
(
0.997529
1.006
0.984417
0.996793
0.993829
1.00147
1.01283
0.986481
0.987873
0.998342
0.995805
0.990242
1.01018
1.00149
1.01036
0.995515
0.994498
0.99104
1.00079
1.00094
1.00351
0.999873
0.988576
0.994641
0.980036
0.98743
1.01554
1.00051
0.985257
1.01634
1.00881
0.980014
1.00701
1.02368
0.981832
1.00858
0.989654
1.01402
1.01689
1.00678
0.982134
0.991165
1.00443
1.00141
1.01705
1.00863
1.0041
1.02133
0.986125
1.01095
1.00541
1.01065
1.00096
0.993785
1.00349
0.992576
0.998306
0.996998
1.00803
0.992128
0.993817
0.983652
1.00461
0.974083
0.997996
0.997926
1.0205
1.00765
0.966567
1.01227
1.00479
0.994547
1.02207
0.995332
1.01436
0.994446
0.998983
0.977234
0.99895
0.999963
0.972972
1.00704
1.01758
1.00882
1.00157
1.00279
1.01545
1.00395
0.977947
1.01508
1.57006
1.00321
1.01114
0.991752
1.0008
0.991258
1.01526
1.0168
1.00047
1.11874
1.07917
0.704014
1.78197
1.06171
1.00379
0.991613
1.05735
1.19068
1.07915
0.655204
0.987104
0.999655
1.08059
1.04931
0.674307
1.00376
1.14823
1.0108
0.996002
0.992722
1.00971
1.58944
1.00431
0.985342
1.10029
0.984614
1.00879
1.01988
0.982671
0.985891
0.98276
0.988025
1.02142
0.965891
0.994116
1.0094
0.940975
0.983613
1.02456
1.01387
1.0207
0.996692
1.03112
1.00066
1.02904
1.02691
0.976502
1.11212
0.939196
1.00372
0.94294
0.999364
1.77194
1.00239
0.996396
0.991436
0.990463
1.0126
1.0021
0.994508
1.01154
1.01616
1.00416
1.00408
1.00869
1.01777
1.06676
1.00882
0.997118
1.00389
1.03711
1.24536
0.987699
1.00216
0.995926
0.98733
0.979123
0.991032
0.993813
1.01283
1.01184
0.977274
0.725632
0.982337
1.04564
1.00644
1.0213
0.992326
1.01346
0.983258
0.986462
1.00104
1.00312
0.988333
1.07569
1.14415
0.996681
1.00691
1.00509
1.02201
1.03225
0.992201
0.996128
0.992692
2.00031
1.00885
0.533379
0.997215
0.999217
1.00214
0.997704
1.01048
0.97027
1.01141
1.00702
0.995369
0.996443
0.9942
0.975267
0.981877
1.02442
1.02118
0.995324
1.00514
0.989154
1.01996
1.00255
0.995968
0.997612
0.994411
0.99106
1.01769
1.00486
1.01554
1.00855
0.99427
0.978174
0.98193
1.00431
0.97543
0.989853
0.99974
1.02194
1.00354
1.01419
1.01118
0.983181
1.03376
1.23464
1.10731
1.34413
0.924431
1.00358
1.01534
1.00692
1.0305
0.993686
1.02689
0.985529
1.00667
1.01925
0.991929
0.990069
0.976337
0.996758
1.01708
0.994611
1.08414
1.04528
1.05418
1.03599
0.801265
1.0127
1.00658
1.01603
0.999454
1.00722
1.02604
0.923489
0.726204
1.0005
1.08641
1.00375
1.59465
1.128
1.0194
1.01494
1.00893
1.00404
0.984162
0.998899
0.983236
1.00832
0.977736
1.00363
1.00016
0.987918
0.987523
1.02958
0.996095
0.984287
0.972564
0.986123
0.999392
1.00449
1.01645
1.02383
0.978693
0.988953
0.986057
1.00111
1.02125
1.05273
1.02265
0.99201
0.97766
0.982721
1.00803
1.00073
1.00449
0.95793
0.940379
0.986586
1.77876
1.11827
1.00616
0.993395
1.00604
0.998913
0.989521
1.00798
0.99117
1.01485
0.987977
1.02182
1.01353
1.00346
1.00762
0.996826
0.983218
0.985326
1.02295
0.995276
0.990743
1.03618
0.990015
0.997805
0.983036
1.21201
0.69606
1.07486
1.00386
1.00372
1.00283
1.00961
0.988254
1.01241
0.987305
0.963346
1.01332
1.00551
0.993595
0.998904
0.992462
0.985869
1.01188
0.993269
1.00533
0.982788
1.0082
0.997235
1.00773
1.02509
1.01742
0.999413
0.990155
1.00025
1.0228
0.989222
1.00062
1.00899
0.982481
1.01875
1.00779
0.96616
1.00151
1.00168
1.01638
1.02382
1.0119
0.999709
1.00228
0.988496
1.01629
1.01419
0.995184
0.994333
1.00476
0.984591
1.01667
0.99974
1.01585
0.917018
1.00594
1.01421
1.01488
1.02155
0.988971
0.999557
0.986216
0.988524
1.02083
1.00156
0.983884
1.02728
1.00498
1.01326
1.0015
1.00369
1.03376
1.08303
0.997392
0.56654
0.971056
0.994753
1.0384
0.997794
1.00957
0.984523
0.998242
1.00209
1.01057
1.0056
0.981327
0.97197
0.996252
0.977094
1.00853
1.00491
1.00901
0.983335
1.01491
1.02267
1.01095
0.985939
0.987931
0.989401
0.991339
1.01606
0.995666
0.998896
0.991541
0.990313
0.992276
0.98855
1.01061
0.986773
0.999774
1.03081
0.982513
0.958486
0.992478
0.999445
1.0027
1.00889
0.974304
1.00061
0.988554
0.995102
1.00654
1.00436
1.00515
1.93379
1.01594
1.14839
0.989558
1.00299
0.966988
0.988032
0.982987
1.01271
0.978652
0.992203
0.985844
1.01767
0.996314
0.981702
1.0097
1.00472
0.997789
0.996867
1.02208
0.990543
0.976081
1.00944
0.984686
0.98948
0.982939
0.978647
0.999798
0.99126
0.989282
0.993618
1.01778
1.00016
1.00904
1.0187
0.994425
0.983656
1.01969
1.00524
0.984885
1.01569
0.996551
1.01637
0.993432
1.0129
1.01119
0.998178
1.0131
0.99806
0.992795
1.01203
1.05973
1.01573
1.25842
1.02095
1.04386
0.992594
0.996744
1.00188
1.45271
1.11442
0.991473
1.0116
1.00972
1.00035
1.02627
1.00172
1.00644
1.01849
1.00381
0.992826
0.988829
0.991702
1.0301
1.01985
0.988956
0.996547
1.00588
1.00975
0.983406
1.00101
1.00668
0.756852
1.0594
1.01265
1.00079
0.996798
0.997778
1.00236
1.01174
1.00319
1.01573
0.994147
0.990913
0.977559
1.00548
0.994296
0.996087
0.995064
0.998355
0.99278
0.98901
1.01727
1.00272
1.01113
1.04459
1.00412
0.906438
1.00615
1.02969
1.02284
1.01604
1.00208
0.972746
1.00116
1.01055
1.00663
1.00895
1.01825
1.01723
0.984984
1.00408
0.993867
1.02515
0.968647
0.982879
1.01465
0.98742
0.997416
1.00931
1.00394
0.99095
1.00441
1.01045
0.990848
0.996689
0.995601
1.00168
1.0137
1.00128
0.991159
0.985751
1.01452
0.962732
0.996996
1.0203
1.02188
0.984208
0.996298
1.0037
0.98379
0.996167
0.99686
0.97768
1.00046
1.02498
1.00858
1.01286
0.993816
0.986613
1.01083
0.994681
1.00564
1.00331
0.996877
1.00657
0.999465
1.0428
1.00161
1.00319
0.987916
0.989244
0.989987
1.01229
0.998947
1.00106
0.995518
1.00795
0.997568
1.00766
1.00896
1.00921
0.979779
1.01368
0.990752
1.02198
1.00104
0.993148
0.983773
1.01518
0.99923
1.00226
0.991826
1.00919
1.01405
0.998134
1.01026
0.996618
1.0457
1.00925
1.00366
1.0164
1.02345
1.02422
1.04525
1.05185
1.01154
1.02552
1.00764
0.999837
1.01903
0.986149
1.01529
1.00192
1.01508
0.999099
1.00263
0.994586
1.02225
0.993666
1.02664
0.996936
0.993752
0.98289
0.991334
1.00056
1.01034
0.991611
1.00239
1.00974
1.03777
0.989874
1.0161
1.01653
0.995234
1.0596
1.00833
1.0089
0.998182
0.985539
0.990785
1.09427
1.03221
1.01762
0.987837
1.00499
0.993864
1.00068
1.01042
1.00471
1.00443
1.0044
0.998977
1.01542
0.986813
1.00779
0.992645
1.01129
1.006
0.990805
0.99713
1.05
1.01079
1.009
1.01309
1.02708
1.07179
1.00353
1.01881
0.983043
1.00146
1.01628
1.00106
1.00045
1.03471
0.996512
1.00372
1.01653
1.01101
1.00268
1.00185
1.01146
1.07742
0.997058
0.988405
1.01795
1.01898
1.03777
1.00835
0.995197
0.996358
1.08603
1.01899
1.0276
1.00904
0.983864
1.01001
1.00553
1.02776
1.00062
1.0073
0.995953
1.00113
0.992753
0.999176
0.990988
0.997918
1.00688
1.01194
1.02753
0.993434
1.02366
1.02477
1.00447
0.991039
1.46703
1.12355
0.998556
1.00175
1.03951
1.01547
0.986907
0.92387
1.01512
1.01951
0.975685
0.981876
0.999389
0.996856
0.756965
1.08356
1.10058
1.02284
1.00204
1.00147
1.03078
1.00954
1.02105
0.994315
0.995597
0.995435
1.00145
1.09232
0.996565
0.988585
0.580818
1.00655
0.988548
1.00304
0.975816
1.01321
0.996193
1.01489
0.993803
0.995803
1.01356
0.998962
1.00552
1.02034
1.0118
1.03243
1.00754
1.00619
1.00912
1.00303
1.00577
1.03471
1.03225
1.225
1.05902
1.03292
1.00744
0.988813
1.02002
1.01773
1.07825
0.98961
0.996462
1.00867
1.03885
0.989246
1.00228
1.0339
0.991113
1.06971
0.996834
1.01524
0.980617
1.01113
1.01377
0.990375
0.981563
0.987475
0.97896
1.0191
0.985977
1.00458
0.992274
1.00219
0.963688
1.00502
0.978202
1.02367
0.978929
0.98278
0.998204
1.0094
0.995817
1.00543
0.989462
0.999233
0.993101
0.991459
1.00614
0.988358
1.00415
0.98493
1.03059
1.01904
1.0068
1.00179
1.02395
1.01444
1.00453
1.01144
1.00881
0.977389
1.02217
0.991919
1.00413
1.0194
0.994921
1.01028
1.00478
1.00436
1.00975
1.00492
0.987504
1.01086
0.991449
0.97233
0.998045
0.991185
0.998735
0.976816
0.979606
0.986305
1.00431
1.06017
1.01573
1.00752
1.02564
1.01804
1.0054
0.997256
1.01447
1.01395
1.01194
1.00857
1.00908
1.01117
1.01992
1.01835
0.998401
0.974273
0.985692
1.00239
0.962693
0.973503
0.968461
0.977403
1.01426
0.982639
0.996388
0.973707
0.987571
0.996524
0.992113
0.991337
0.999314
0.975589
1.00239
1.00578
1.00815
1.0006
0.945848
1.01365
1.00077
1.00009
0.994229
1.00261
1.00404
0.982381
0.982095
0.996973
1.01547
0.99857
0.982226
0.998109
0.96581
1.00976
0.978559
0.999043
0.997548
0.998542
0.9996
0.993664
1.01439
1.01073
1.00193
0.935276
0.976499
0.996491
1.01627
1.01218
1.00157
1.00096
0.976961
1.01519
0.995493
0.994913
1.0008
0.98614
1.00416
1.02544
0.970761
0.995304
0.980097
0.977003
1.02491
0.981859
0.993618
0.994533
0.995828
0.987359
1.02801
1.02871
1.02177
0.978809
0.994808
0.994552
0.992668
0.986148
0.915508
0.991813
0.964297
0.985547
0.986121
1.02249
1.00523
0.990101
1.00843
1.01636
0.999891
0.973172
1.01974
0.994783
0.993261
0.999685
1.00493
0.998036
1.01138
1.01307
0.958429
0.977006
0.958088
1.01511
1.01013
0.990314
0.995537
0.994217
0.995414
1.00342
0.996309
0.979665
0.947246
1.0187
0.987901
0.988873
1.01091
0.999522
1.00772
0.970708
0.996196
1.0209
0.987435
1.01307
1.00051
0.959689
0.99907
1.00035
0.971402
1.01388
1.00116
0.994777
1.01663
1.00826
0.972646
0.990818
1.02259
0.961491
0.995798
0.975866
0.963232
1.00684
0.999016
0.994958
0.999948
0.993951
0.999897
1.01046
0.976686
0.982226
0.99374
0.985771
1.00043
1.00768
0.987132
0.985956
1.01285
0.994545
0.99908
0.984594
1.00332
1.00508
1.00158
1.0064
0.995488
0.997819
0.993549
1.00792
0.987944
1.0238
0.996635
0.994556
0.999762
0.980693
0.995948
1.01555
0.998704
1.00333
1.00535
1.00686
1.01675
0.994034
1.01924
0.981884
0.989694
0.99493
1.00366
0.975801
1.00651
0.973251
0.992284
0.97881
1.00592
1.00421
1.00851
1.00155
0.994732
0.962217
0.959176
0.983763
0.992663
0.988727
1.02892
0.997085
0.990888
1.01451
0.999767
0.991544
1.00335
1.01493
0.981658
0.997877
0.983983
0.980282
1.0069
1.00882
1.01143
1.02186
1.00571
0.988125
1.00852
1.00035
1.00002
1.0088
1.01356
0.917479
0.998286
1.00845
1.01309
1.02008
1.01414
0.981938
0.981966
1.01086
0.989861
1.01909
1.00812
1.01294
1.0001
1.00114
0.99396
0.984267
1.00441
0.970859
0.991791
1.00708
1.01259
0.997071
0.998625
0.996349
1.00139
0.980752
0.997221
1.00165
0.99534
0.987961
1.01132
0.989215
0.991715
0.988461
0.996507
1.01277
1.00561
0.980598
1.01906
1.00274
0.993463
0.981912
1.00672
0.987593
0.996008
1.00281
0.995117
0.990045
0.940455
1.00528
0.989006
0.995166
0.985491
0.99732
1.01707
1.0159
1.00956
1.01511
0.979761
0.99341
0.99785
0.999592
1.00907
1.02075
0.980596
0.990255
1.00035
0.99951
1.00699
0.994942
0.95839
0.999205
0.995131
0.984485
0.993164
1.00369
0.994112
0.98343
1.01183
0.98929
1.00202
1.00418
1.00474
0.998441
1.01332
1.00042
0.986154
0.994306
0.991949
1.00437
0.990568
0.983042
1.00988
1.00052
0.99116
0.998618
1.00026
0.973653
0.994307
0.994179
0.982578
0.982935
0.965238
1.01171
0.990702
1.00538
1.02562
1.02583
0.994802
1.0008
1.00048
0.987471
0.977276
1.00123
0.986804
1.00253
1.01481
0.997176
1.00008
0.997354
0.981493
0.99611
1.02913
0.974141
0.994635
1.01893
1.0007
1.00573
1.00952
0.983191
0.935214
1.00169
1.00568
1.00521
0.997518
1.00698
1.0108
0.970362
0.962405
0.971309
0.993328
0.991581
0.997278
1.00572
0.986131
1.01845
0.972604
0.985674
0.983229
1.01609
1.0148
0.985122
1.01514
0.988634
0.984147
0.99154
1.00173
1.02138
0.999081
0.937122
0.964091
0.991316
1.0092
0.963941
0.993939
1.00501
1.00008
0.978787
1.00338
0.907861
0.943534
0.997081
0.998159
1.001
0.920893
1.01702
0.988132
0.916842
0.996045
1.01023
0.948417
0.978417
1.01239
1.0033
1.00909
0.997237
1.00579
0.999358
0.990071
1.0033
0.997523
1.00623
0.99283
1.00468
1.01611
0.999849
0.993052
1.00281
0.991439
1.00993
1.00049
0.965541
1.0045
0.998573
0.995901
1.00288
1.01023
0.996711
1.00409
0.999639
1.00849
1.00919
0.982053
1.00494
0.996764
1.0167
1.04154
1.02251
0.995531
1.00661
0.985468
1.01684
0.912115
0.972465
0.896681
0.991403
0.899015
1.01708
0.91413
0.953146
0.997615
1.01193
1.00285
0.984884
0.975085
0.984212
0.993061
0.98011
0.987412
1.06108
1.00612
0.978011
0.99792
0.991177
1.00509
0.983572
0.973066
1.01946
1.00598
1.01877
0.989138
0.997219
1.00369
0.996538
0.989213
0.999124
0.994216
1.0138
1.01822
0.99445
0.999155
1.01517
1.00003
1.0003
1.02086
0.987184
0.98784
1.00881
0.996827
1.00344
1.00839
1.00088
0.884831
0.940323
0.996353
0.885839
1.01178
1.00845
0.968017
0.993614
1.00051
0.98525
0.999862
0.914123
1.01136
1.00085
0.988126
0.989825
1.01636
1.02456
0.998642
0.949993
1.00048
0.997918
0.982185
0.99773
0.983029
0.987513
0.984352
0.993615
1.01057
1.00026
1.01133
0.998368
0.991234
1.03022
1.00767
1.00611
0.996631
1.00256
0.984822
0.997294
1.00058
0.98855
0.991057
0.992658
0.965529
1.0108
1.01017
0.972454
1.0026
1.005
1.00614
1.01217
0.99139
1.01919
0.977549
0.999195
1.00284
0.973819
0.987029
0.997238
1.01117
0.990939
1.00194
1.01823
0.988443
0.991746
0.996965
1.01419
0.97036
0.987498
1.0125
1.02338
0.993008
0.9932
1.0131
0.996672
0.996565
0.998258
1.01002
1.01171
1.00656
0.992084
1.00136
1.01081
0.997181
1.00526
0.997011
0.998511
1.03504
1.02505
0.98628
1.01834
1.0015
0.989687
0.982063
1.02764
1.01353
0.98748
1.0099
0.991516
1.08074
1.06359
0.996358
1.00007
0.989838
0.97574
0.99112
1.00476
1.00343
1.0019
0.998679
1.00453
0.987781
1.0062
1.02736
0.989209
0.997681
0.999074
0.990426
0.986021
0.993114
0.952953
1.00032
1.02026
0.998016
1.01594
1.0099
0.998074
0.992661
1.00676
1.00174
1.02301
1.06449
1.01873
0.965615
1.01109
1.01331
0.958946
0.918476
1.01114
1.00682
1.01377
1.01871
0.988323
0.999838
1.02626
0.999834
0.974568
0.998296
1.01836
1.02018
1.02332
1.12712
1.01818
1.02201
1.06363
1.00143
1.00637
0.996419
1.01099
1.00837
0.999877
0.991069
0.996617
0.999246
0.980742
1.01832
1.00545
1.00071
0.994923
1.0002
1.0126
1.01681
1.0016
1.00614
0.984865
0.978493
0.994718
0.984719
1.02483
0.996574
1.01158
1.0104
1.00302
1.01053
0.971716
0.975722
0.985569
1.00631
1.01119
0.997492
1.08734
1.00794
1.00681
0.987515
1.01431
1.0027
1.00431
1.00274
1.00091
1.00353
1.00854
1.01083
1.00831
1.01626
0.976735
0.995261
0.982262
1.0129
0.994661
0.992024
0.992947
0.99904
1.02539
1.07798
1.01996
1.01736
1.02553
0.989868
0.99323
1.00947
0.973152
0.989399
1.00293
1.00235
1.00181
0.974887
0.999667
0.997633
0.995286
1.00391
0.983133
1.01435
0.97279
1.08489
1.01919
0.99396
0.997183
0.999729
1.05527
0.982889
1.01195
0.995585
0.958438
0.989918
1.00678
0.989003
0.989592
1.00922
1.02018
1.01147
1.01526
0.985893
1.01508
1.00782
1.0062
1.01658
1.0075
0.994148
0.99422
1.00917
0.97065
1.0045
0.985601
0.99297
1.0022
1.01554
0.987502
0.997628
0.994342
0.989961
1.00183
1.00409
0.99639
1.0158
1.02738
0.997041
1.09506
1.00483
1.00779
1.01238
0.998953
0.9815
1.02753
0.989264
1.01043
0.997606
1.01264
0.98892
0.997294
1.01864
1.00759
1.08285
0.992525
1.00792
0.970095
1.0149
0.979757
1.03633
1.0088
0.986344
1.0075
0.990459
0.999213
0.99723
0.98153
1.00203
0.983811
0.992816
1.00635
1.0086
0.996191
0.981645
0.990565
1.00329
1.01595
1.0072
1.00904
0.977048
0.999786
0.977142
0.998222
0.999364
0.9812
1.01545
0.982119
0.998259
0.992451
0.990171
0.953176
0.991682
0.9952
1.05574
1.0256
1.00148
0.98647
1.00268
0.997432
0.99075
1.01105
0.999813
0.983358
0.988122
1.00581
0.996857
1.00432
0.995532
0.995513
0.986948
0.991981
1.01191
1.01229
1.01742
0.982665
1.00845
0.993788
1.02366
0.993118
1.00976
1.12598
2.01721
1.00674
0.977647
1.02504
1.0578
1.01119
1.01267
1.09065
0.978084
0.990388
0.994704
0.979551
0.977331
1.01868
0.991871
0.993235
0.991289
0.884745
1.01075
1.00688
0.986318
1.01431
0.988301
0.979695
0.95214
0.98635
0.982381
1.0124
1.00588
0.986605
1.01175
0.986113
0.998757
0.992548
1.00788
0.987686
0.995492
0.979414
1.00975
1.0022
1.00073
0.998401
0.996328
1.00346
1.00915
1.0163
0.859668
0.967974
1.00463
0.99775
1.00109
1.00948
1.04409
0.995809
0.995979
0.980009
1.00391
0.996856
1.00077
0.996808
1.01258
0.995992
1.00073
1.00873
1.00329
1.026
0.989925
0.902663
0.99168
0.987941
1.00981
1.05331
0.997018
0.994523
0.999944
1.00232
1.00552
1.00806
0.991202
1.01628
1.0067
1.01662
1.01614
1.00273
0.983035
1.00624
1.00462
1.00241
0.98824
1.00265
1.02322
0.995075
1.01508
1.07041
0.982162
1.00979
0.996767
0.990966
0.995946
1.00007
0.989585
1.01819
0.995201
1.00817
1.01526
1.00567
1.00975
1.01831
0.977745
0.992527
0.998137
1.01836
1.04025
0.995873
0.993378
1.00541
0.971639
0.973147
0.945615
0.96423
0.989287
1.0114
1.01204
1.01247
0.999046
1.01105
1.00904
1.00216
0.998399
1.01218
0.983532
0.985606
1.00277
0.989876
0.984478
1.0012
0.989842
0.976756
0.945467
0.84028
0.973522
0.844095
0.994012
1.0193
1.00338
1.01937
0.997043
0.97801
1.00087
0.991014
0.990991
0.99359
1.09061
0.991573
1.00891
0.991305
1.01592
1.02131
1.00166
0.977525
1.02166
1.00271
0.998812
0.99342
1.02482
0.999406
0.989141
0.998466
1.00475
0.982569
0.998389
1.0061
1.00317
1.00689
0.96828
0.999258
0.894315
0.979481
0.996673
1.01308
0.999691
1.10387
0.985419
0.900969
0.997695
0.998777
1.00319
0.992278
1.00891
0.996331
1.00272
1.01356
0.999626
0.99206
1.00119
0.997399
0.997866
1.01187
1.01114
1.00743
1.00574
0.990718
0.996755
1.00427
0.999735
0.98737
0.994996
0.990864
1.00348
1.00015
0.993319
1.01337
0.986731
0.992959
1.00798
1.00629
1.00955
0.995129
0.99588
0.998663
1.01149
0.993658
0.991497
1.00568
1.02235
1.02455
1.05733
0.990409
0.98606
1.00856
1.02038
0.996017
1.01025
0.993965
1.12568
0.997959
0.983804
0.958191
0.940738
1.00139
0.999021
1.01208
0.992451
1.01008
1.00542
0.992213
1.00972
0.993847
1.01601
0.992591
0.986217
1.01957
0.973035
1.01492
1.00128
1.01141
1.00876
0.991976
1.00302
0.993658
1.09079
0.99714
1.01266
1.00947
0.996493
1.01826
1.00506
0.990653
1.00436
0.996482
1.00509
0.978073
0.99461
0.958279
0.999641
0.998022
1.0046
0.970332
0.983767
0.983161
1.00624
1.0051
0.99036
0.998611
1.01956
1.01301
0.996598
0.9898
0.993752
0.991998
1.01835
1.02869
0.997136
1.02262
1.00349
1.00788
0.995278
1.01997
1.00151
0.993361
0.998128
0.999126
1.00235
0.982188
1.00404
1.0035
1.00817
0.979586
1.00424
0.99905
1.02133
0.997707
0.973158
1.00309
1.00689
0.966152
0.976409
1.00053
1.00096
1.02063
1.00236
0.99386
0.983879
0.985202
1.00024
1.01388
1.0539
0.939541
0.893888
1.00376
0.997696
0.978666
1.00733
1.00446
0.987609
0.983315
1.02053
0.993661
1.00549
0.98673
0.99478
0.986689
1.01103
0.999592
0.995451
0.980433
0.998365
0.997092
0.995718
1.01021
0.990027
0.993507
0.995395
1.00225
0.971815
0.990114
0.986353
0.970973
0.99662
1.01446
0.990518
1.01099
0.993223
0.988953
1.08849
1.09337
1.0091
1.01773
1.09909
0.999416
0.999501
0.996897
0.995966
0.98801
1.00123
1.01724
0.967953
1.00467
1.01314
0.992834
1.01099
0.998938
0.996484
1.01553
1.01419
0.981492
1.01595
0.997242
1.00947
1.00048
0.991586
1.02368
0.982609
1.00764
1.01246
0.986152
1.02791
0.938281
1.01453
1.00864
0.992769
1.00958
1.01684
0.997403
1.00586
0.994297
0.990152
0.990414
0.995912
1.02012
1.00619
1.01246
0.981389
0.994388
0.997378
0.992446
1.01649
1.00208
0.989657
0.975266
1.00958
0.995285
1.0052
1.01588
1.0127
0.999198
1.0046
1.01086
1.01788
0.990433
1.00255
1.01097
1.00661
0.993142
0.988712
1.00062
0.991353
1.00795
1.03424
1.05291
0.999769
0.995838
1.00481
0.993363
0.99991
1.00751
1.01068
0.994496
1.07772
1.00315
0.987851
0.94035
0.993376
0.997569
0.994309
1.00003
0.986833
0.987886
0.956584
1.00187
1.00227
1.00125
0.996665
1.01154
0.991953
0.994196
1.01934
0.983812
0.987486
1.00988
0.951242
0.972305
0.982017
1.01601
1.00649
1.00446
0.996645
0.99231
0.985488
1.01242
0.979794
1.00097
0.972346
1.00224
1.01543
1.02113
0.996818
0.997361
1.011
0.997903
0.998512
1.00496
0.989088
0.983781
1.04598
0.998014
1.00496
1.00046
0.990382
0.994544
1.01413
1.00554
1.02122
1.02523
0.989386
1.00063
0.987833
1.00245
1.00633
0.919563
1.00441
0.979468
0.987899
0.980409
0.993223
1.04584
1.08514
1.03703
1.05875
1.03331
1.09591
0.996485
0.988896
1.02185
0.97801
1.0105
1.01157
1.00174
1.00229
1.00298
1.01146
1.01353
1.01261
1.01779
0.993276
1.00996
0.993577
1.0123
0.993839
1.00365
1.00235
1.01288
0.998168
0.98866
1.00761
0.998724
0.995148
0.994502
0.999596
0.99832
0.911555
0.994568
1.01476
0.99416
1.00768
1.01504
0.996343
0.997616
1.00131
1.00966
1.0003
0.977918
0.984081
0.99769
1.00028
1.00318
1.02385
0.997133
0.991429
1.00865
1.02469
1.00111
1.00082
1.13836
1.06516
1.01583
1.00132
1.01651
1.03994
1.00013
0.984516
0.980133
1.00808
0.9919
1.00686
1.14667
1.07894
0.990533
0.990137
1.00658
1.00952
1.00388
0.987648
0.977105
0.992172
0.996313
0.991057
0.998392
1.00867
1.0175
1.00232
1.00049
0.978876
0.993363
1.01244
1.01783
1.01121
1.00327
0.989342
1.00927
1.02421
1.01928
0.999538
0.973534
0.862237
0.862072
1.00792
0.994874
0.99057
0.987443
1.00989
0.983076
1.0217
0.990791
0.996336
1.00317
0.889565
0.991599
0.951398
0.977891
0.95472
0.999958
1.00452
1.00495
1.01316
1.00193
1.0256
0.983094
1.00125
0.994307
0.995866
0.998625
0.993087
0.996967
0.986409
0.989354
1.0015
0.981317
1.00419
0.985931
0.987375
1.01241
1.00759
1.01017
1.05574
1.01491
1.06695
0.98179
0.985128
0.985847
1.00663
1.01263
1.0141
0.974452
1.00259
0.995969
1.00995
1.01429
1.01542
1.01081
0.970895
1.01374
1.01875
1.12293
1.08878
1.13637
1.03134
1.00661
1.13166
1.01184
1.09445
0.995774
1.00206
1.00613
0.97352
1.00876
1.02175
1.00188
1.01283
0.986778
1.04678
0.99963
1.03122
1.01087
0.99491
0.994561
1.01133
0.98789
1.00739
0.989141
1.02154
0.833899
0.975988
1.00155
0.993615
0.998062
1.00394
1.07786
1.10457
1.01822
0.998475
1.00966
1.05734
1.01616
0.955235
0.984196
1.00169
1.00714
1.00705
1.00783
1.02242
1.01314
1.00116
1.00258
1.00526
0.996564
1.08807
1.06807
0.992632
0.981765
0.989057
1.01806
1.01577
1.00773
0.998754
0.995132
0.987148
1.00526
1.00667
0.99656
1.01658
0.990163
1.00192
0.988789
1.035
0.994538
1.13388
1.0019
1.01115
0.988182
1.00678
1.01967
1.00374
1.00333
0.992801
0.998809
0.990023
1.9349
1.07882
1.14728
1.00654
0.983984
1.11655
0.993756
1.0083
0.999929
0.979915
1.2657
1.01502
0.835374
1.03059
0.998712
0.9485
1.00103
1.00288
0.980489
0.979319
0.991106
0.9946
0.988393
0.999273
0.989961
1.02273
1.00472
1.15944
1.09104
1.02248
1.02763
1.13907
1.00879
0.988184
0.995329
1.1812
1.06265
1.00133
1.01888
0.989224
1.00213
1.00448
0.992218
1.06159
1.09145
0.989729
0.994407
0.829633
0.961095
1.04879
1.04866
0.994028
0.990612
1.01843
0.973957
0.997529
1.13963
1.09681
0.989617
0.994623
1.1911
1.09922
1.01033
0.988217
0.988825
1.00287
1.00098
1.0121
1.01575
1.00079
1.12048
1.05949
0.9915
1.01042
0.991725
1.00354
1.00257
1.01504
1.01071
0.987581
1.03619
1.02652
1.10955
1.09569
0.992424
0.991636
0.981391
1.00358
1.00449
1.0064
1.01093
1.01028
1.13996
0.985278
1.00279
0.986578
1.0224
0.890324
1.11801
1.15273
0.968608
1.12123
1.14774
1.15788
1.0017
0.96412
1.0198
0.984225
1.01751
1.18939
0.998676
1.02102
0.999081
1.08334
1.00741
0.978345
0.912388
0.894432
0.995885
1.06679
1.00605
1.33691
1.04327
0.992237
0.99352
1.0058
0.997625
0.995408
0.994941
0.980323
0.996812
1.00181
1.07171
1.03678
0.994035
0.999543
0.989653
0.992867
1.02435
1.08299
0.997722
1.01964
1.01032
0.825093
0.97881
1.0128
1.00326
0.873759
1.13646
1.13982
0.959831
1.10548
1.03552
0.913477
1.00601
1.1858
1.12739
1.00405
1.0703
1.18154
1.00612
1.00017
0.99045
1.02111
1.00378
0.998726
0.970642
1.01046
0.98467
1.00887
0.980571
1.07715
0.824072
1.10815
0.996791
0.990438
0.895641
0.926248
0.99344
0.985437
0.945163
0.980431
0.996202
1.01662
1.00325
1.0589
1.00292
0.978398
0.987792
1.02121
1.00903
1.02268
1.11685
1.06255
0.980217
0.908869
1.03884
0.951548
0.968668
1.01674
1.09843
0.981989
0.94869
1.00666
1.00343
1.04826
0.996958
0.999764
1.00709
1.11619
0.959941
1.14772
1.02136
1.11536
0.939264
0.987562
1.1013
1.15211
1.0079
1.10942
1.19629
0.99705
1.01713
0.858477
1.00397
0.871475
1.01224
0.887507
1.00575
1.00576
0.989571
0.996795
0.951276
0.972935
0.990753
0.991521
1.01095
0.888102
1.05092
0.991995
1.18628
0.811617
0.903641
0.983498
0.860527
1.09909
1.12851
1.0369
1.21952
1.00178
1.1473
1.12282
0.999999
0.987682
1.013
1.00609
0.992236
1.02247
0.994444
0.818363
0.943945
0.77038
1.01207
1.01602
0.927646
0.827647
1.00019
0.940603
0.913206
0.911525
1.00155
0.855259
0.903636
1.12645
0.995916
0.9937
1.07607
1.06815
1.01236
1.00513
0.993266
0.992954
0.999077
1.0094
0.992091
1.0152
0.997973
1.00888
0.97962
1.03051
1.0389
0.868659
0.929281
1.23677
0.836773
1.14542
0.806519
1.01216
0.983778
0.998601
1.01271
0.839447
1.01428
1.10802
0.862337
0.904496
0.897861
1.11689
1.18601
1.03454
0.993661
1.17973
1.07154
0.983362
1.00302
1.01461
0.985024
1.01367
0.885802
0.966354
0.85314
0.928272
1.01546
1.02983
0.865228
0.807304
0.845849
1.03913
1.01347
1.05451
0.967523
1.00171
1.02055
0.979011
0.979037
1.00512
1.01319
1.08914
1.0614
1.0044
1.00661
1.00454
1.05672
0.862166
1.01301
1.17555
0.76849
1.08273
0.874374
0.84883
0.851444
1.01946
0.996581
1.1869
0.853436
1.01013
1.11768
0.733898
1.00238
0.918128
1.13864
0.805833
0.900413
0.851351
0.916945
1.01165
1.0734
1.09506
0.985241
1.06566
0.924871
0.889143
0.835039
1.14014
1.11922
0.955323
0.883123
1.20449
0.813752
0.864356
1.04608
1.13708
1.00996
0.806321
0.967805
0.997446
1.01697
1.06823
1.00063
0.992632
1.00605
0.871568
0.772666
0.795851
0.925702
0.906769
0.900733
1.07743
1.01566
1.03792
1.00388
1.0047
0.779596
0.837798
0.897213
0.937317
1.02732
0.993127
0.794939
0.792297
0.999504
0.999466
0.971277
1.01676
0.996281
1.00966
0.789185
0.904161
1.00105
0.986409
0.954869
0.811749
0.995401
0.922285
1.17619
0.983973
0.990713
1.17555
1.07143
0.841463
0.939132
1.04614
1.1602
1.01153
1.04259
0.786388
0.849033
1.00539
0.81233
1.09986
0.80041
1.01545
0.986501
1.04657
1.06092
1.03904
0.973253
0.989177
0.994793
0.754507
1.00848
0.909103
0.836428
0.841095
0.880874
0.989831
0.839845
0.857256
1.02819
0.812284
0.996183
0.851424
0.928831
1.15965
0.899802
0.961487
0.916136
1.12733
1.10938
1.07614
0.900791
1.01174
0.879807
0.841177
1.01986
0.902699
0.89568
0.814398
1.06201
0.784736
1.00428
1.02299
1.00482
0.742488
0.877974
1.00295
0.999832
0.987374
0.96553
0.768885
0.85031
1.10108
0.842794
0.841385
0.943584
1.13385
0.793165
0.818075
0.965107
0.960828
1.10072
0.703234
0.801518
0.911999
0.97579
1.01221
1.00719
0.875204
0.714415
0.782082
0.948722
1.03261
1.01648
1.00175
0.770312
0.892133
1.00313
1.04674
1.00571
1.00098
1.00488
0.97638
0.994491
0.811284
1.10484
0.923746
1.01384
0.791349
0.751106
0.99843
1.01095
0.796541
0.940343
1.12843
1.0264
1.04694
0.804124
1.00395
1.02094
0.870347
0.824518
0.982506
1.14393
0.88891
1.06112
1.06789
1.03197
1.05788
0.870977
0.798124
1.00856
1.05346
0.784772
0.872497
1.00088
0.978209
1.02091
0.999803
0.77697
0.993402
0.928946
0.989026
1.02454
0.99614
0.995741
1.0115
0.985265
0.999031
0.880505
1.00998
0.9793
0.984253
1.01082
0.951027
0.749906
0.945847
0.942707
0.924284
0.821228
0.890532
0.993979
0.785492
0.989171
0.923264
0.831334
0.995168
1.06264
0.853755
1.11099
0.828812
1.00283
0.922539
0.94077
0.946213
0.781121
0.980018
1.02855
0.783633
1.01524
1.01325
0.894959
1.02946
0.99362
0.811179
1.00422
0.81226
1.03045
0.969892
1.0074
0.826741
0.783178
1.05108
0.948308
0.973765
0.842731
0.894528
0.959779
0.981906
1.00971
1.00468
0.769294
0.775495
0.98004
1.01567
0.804903
1.00139
0.919711
1.00999
0.996761
0.882098
0.990756
0.979175
0.813965
1.00669
0.954343
0.879402
0.911591
0.952405
0.766187
0.935325
1.05562
1.03706
0.80951
1.00631
0.997839
0.911712
1.00744
1.11329
1.00315
0.876487
1.03186
1.00044
0.847178
0.993047
0.844595
0.972264
1.02413
0.976189
0.998784
0.788066
0.8146
0.962032
0.989602
0.849564
0.946686
0.993423
1.00861
0.996617
1.02648
1.04527
1.0502
1.02553
1.03654
0.991199
0.810005
0.980437
1.00318
0.842153
0.963105
0.806902
0.787075
0.984798
0.987934
1.04906
1.01697
0.865085
0.952058
0.972337
0.99919
0.973348
0.983333
0.875149
0.946428
0.883754
1.01507
0.984957
0.926422
1.01767
1.03311
0.998955
1.0057
0.933305
0.969642
0.976043
0.998298
1.00964
1.00956
1.00957
1.00345
1.01689
1.04006
0.933837
0.90494
0.817809
1.00911
1.03112
0.994491
0.968015
1.09458
0.990989
0.953884
0.985719
0.88288
0.971544
0.943873
0.919176
0.992349
0.988894
0.989989
0.90561
1.03382
0.876287
0.981953
1.02595
1.00693
0.897144
0.933043
0.901168
0.994537
0.927095
1.0163
1.01244
0.841429
1.01432
1.15468
0.957865
1.0815
0.838274
0.993022
0.89121
1.03723
1.00429
1.02584
1.00602
0.987364
1.01295
1.06099
0.889805
0.985242
1.00942
1.12539
1.05334
1.00302
1.02288
1.02796
1.00972
0.98119
0.992103
1.00793
0.990488
1.01857
0.985786
0.997092
1.00763
0.888877
0.995073
1.05502
0.9871
0.865724
0.968208
1.01958
0.965785
0.918834
0.99659
0.989651
0.938024
1.02143
0.993465
0.972804
0.999623
0.966143
1.0188
0.91858
1.00167
1.01096
0.95466
1.00415
0.982632
1.07337
0.901145
1.12429
1.01674
1.00928
1.03735
0.978185
1.0225
0.984704
0.992071
1.0007
0.904981
0.862994
0.996397
0.994894
1.00003
0.851975
0.891992
0.970397
0.994461
1.01378
0.95214
0.975605
1.01602
0.927319
0.98193
0.996805
0.948023
0.971381
0.941493
0.966335
1.00022
1.00726
1.00714
1.00598
0.991852
0.988859
0.985664
1.00829
1.0076
0.925024
0.953748
0.995597
1.00054
0.712533
1.06293
1.03832
0.996138
0.86536
0.996543
1.0059
1.01603
1.00245
0.999202
1.02313
0.982416
0.998133
0.975666
0.991183
0.99395
1.0036
0.986976
1.00969
0.967892
0.994229
1.00184
0.946305
0.960267
1.00415
0.975731
0.929937
1.00595
1.00766
1.00574
1.02312
1.00807
1.14334
1.09634
1.77527
0.837576
1.01661
0.999005
1.01077
1.01476
0.966466
1.03965
0.864175
0.785779
0.83701
1.14327
1.18428
0.985159
0.850774
1.083
1.00465
1.09847
1.00955
1.01788
0.98352
1.01231
0.996432
0.986732
1.01041
0.999762
1.00035
1.00207
1.00707
0.999594
0.993666
0.963927
1.00849
0.988218
0.952202
0.928706
1.01222
1.02969
1.01406
0.994741
1.01116
0.993901
0.974915
1.06762
0.994082
1.24199
0.971848
0.994579
1.00833
1.00157
0.96984
1.00476
1.01854
1.00498
1.01542
0.995688
0.994008
0.998667
1.02017
0.990486
1.00947
0.933878
1.0004
0.990707
0.97632
0.992222