/*--------------------------------*- C++ -*----------------------------------*\
  =========                 |
  \\      /  F ield         | OpenFOAM: The Open Source CFD Toolbox
   \\    /   O peration     | Website:  https://openfoam.org
    \\  /    A nd           | Version:  6
     \\/     M anipulation  |
\*---------------------------------------------------------------------------*/
FoamFile
{
    version     2.0;
    format      ascii;
    class       volVectorField;
    location    "1.86";
    object      U;
}
// * * * * * * * * * * * * * * * * * * * * * * * * * * * * * * * * * * * * * //

dimensions      [0 1 -1 0 0 0 0];

internalField   nonuniform List<vector> 
800
(
(-671.549 247.083 0)
(306.591 -112.584 0)
(139.545 -91.4018 0)
(234.471 -36.2514 0)
(181.731 -82.8703 0)
(223.781 -35.8067 0)
(181.282 -71.662 0)
(223.162 -23.3408 0)
(188.957 -67.0404 0)
(223.885 -19.427 0)
(176.845 -54.592 0)
(237.134 -5.76727 0)
(173.192 -51.4815 0)
(238.824 -7.16195 0)
(170.627 -42.674 0)
(244.824 -7.78822 0)
(164.608 -42.7478 0)
(252.243 -9.90587 0)
(159.065 -43.1305 0)
(267.712 -4.16545 0)
(-87.7645 -125.393 0)
(-201.437 65.3941 0)
(76.806 46.0667 0)
(-18.3282 23.2314 0)
(180.23 76.0512 0)
(-36.4325 8.58448 0)
(-106.631 64.2027 0)
(-21.5498 2.05589 0)
(-116.136 60.5953 0)
(-59.2107 -9.89188 0)
(61.8544 42.5122 0)
(-24.3239 -7.57618 0)
(-78.5301 57.5816 0)
(-16.7375 -13.01 0)
(32.853 35.259 0)
(14.4748 -12.4678 0)
(8.14798 43.4948 0)
(-20.6418 -2.52612 0)
(-70.0019 40.8679 0)
(134.331 -1.22686 0)
(-270.946 95.0781 0)
(232.785 -127.678 0)
(-43.8327 -61.5317 0)
(82.5704 -3.61971 0)
(-147.415 -51.7342 0)
(36.2542 49.1905 0)
(-148.021 -56.4379 0)
(-70.1005 25.6766 0)
(-137.284 -46.5844 0)
(-79.3304 13.454 0)
(-90.3855 -36.6024 0)
(-6.36969 37.0156 0)
(-136.957 -66.0655 0)
(-29.3007 25.7827 0)
(-82.0701 -32.489 0)
(-51.5622 38.0634 0)
(-56.7871 -41.0355 0)
(167.32 16.1765 0)
(4.25945 -43.4074 0)
(210.858 38.3581 0)
(-34.7428 -60.947 0)
(-174.411 52.2078 0)
(50.8247 19.3001 0)
(29.4883 3.22116 0)
(110.434 36.6809 0)
(-37.8796 -27.8048 0)
(-30.5794 46.5224 0)
(-95.2805 -31.5389 0)
(-20.4181 42.4005 0)
(-66.2539 -36.7192 0)
(-66.5169 29.2806 0)
(-40.1121 -36.1056 0)
(-15.1085 62.0481 0)
(-100.512 -41.3418 0)
(-42.6649 37.2982 0)
(-71.1827 -43.1798 0)
(59.0751 22.9046 0)
(-24.9128 -18.4833 0)
(-72.1198 38.5462 0)
(85.4948 -2.49961 0)
(-197.851 103.801 0)
(205.5 -121.599 0)
(-38.5154 -67.3369 0)
(71.6453 17.8992 0)
(-62.8424 -12.3558 0)
(43.3039 51.7562 0)
(-93.4042 -21.501 0)
(12.6898 32.7263 0)
(-107.71 -34.7328 0)
(-15.5475 23.814 0)
(-131.458 -40.1439 0)
(4.9929 50.9393 0)
(-153.724 -50.7348 0)
(-14.7714 41.0873 0)
(-95.5145 -44.1376 0)
(67.3636 41.3611 0)
(-37.4224 -38.6741 0)
(46.4626 12.8711 0)
(-157.419 -25.7994 0)
(189.151 37.997 0)
(-13.0896 -51.8707 0)
(-156.668 38.0594 0)
(35.45 8.76237 0)
(27.1332 -3.50856 0)
(82.398 23.524 0)
(-42.9242 -12.1478 0)
(0.159583 37.4686 0)
(-65.9201 -31.9794 0)
(-22.6747 37.068 0)
(-41.4485 -43.1414 0)
(-57.6179 33.4912 0)
(-117.296 -43.6448 0)
(-52.8015 49.6938 0)
(-85.4281 -58.0467 0)
(9.04258 42.8045 0)
(-20.7899 -52.7104 0)
(44.7168 21.2967 0)
(14.175 -10.9164 0)
(-24.9875 19.9477 0)
(74.8252 -3.30667 0)
(-160.76 95.5732 0)
(191.511 -113.461 0)
(-34.6611 -73.9142 0)
(64.7694 29.9653 0)
(-57.4692 -2.82423 0)
(48.1653 53.8764 0)
(-64.9233 -19.6821 0)
(18.7976 36.9791 0)
(-99.244 -30.5624 0)
(15.7177 30.2417 0)
(-129.297 -39.6341 0)
(-25.0854 57.2542 0)
(-94.5107 -48.9043 0)
(7.457 46.8692 0)
(-76.4472 -57.4257 0)
(69.2498 41.7192 0)
(-35.4198 -33.4844 0)
(-47.4316 14.4968 0)
(-136.063 -12.8207 0)
(167.978 36.0196 0)
(-0.252361 -38.7129 0)
(-145.203 25.003 0)
(27.1603 2.10672 0)
(17.4863 -12.2873 0)
(58.9457 25.1522 0)
(-39.6734 -7.66372 0)
(26.9911 41.0335 0)
(-74.3405 -28.6828 0)
(-16.1187 34.1654 0)
(-55.8205 -43.8615 0)
(-37.0789 46.4141 0)
(-97.074 -51.4093 0)
(-6.40343 51.9389 0)
(-65.5943 -65.1528 0)
(14.6804 44.0225 0)
(-26.1546 -56.059 0)
(25.4086 20.8191 0)
(18.7296 -8.31372 0)
(-9.87421 4.25519 0)
(62.8758 -2.56988 0)
(-137.792 90.0053 0)
(183.141 -104.714 0)
(-33.9224 -78.709 0)
(58.5078 38.2136 0)
(-69.4843 0.2949 0)
(52.6066 51.8067 0)
(-60.208 -16.5124 0)
(12.0021 39.9687 0)
(-91.0958 -31.1529 0)
(19.6503 28.8556 0)
(-95.8006 -51.0966 0)
(-10.2531 58.8406 0)
(-53.5267 -56.01 0)
(8.57302 50.7552 0)
(-67.356 -62.0838 0)
(74.913 39.3385 0)
(-50.1162 -26.2434 0)
(-97.8297 13.0538 0)
(-112.815 -12.2663 0)
(149.993 36.3084 0)
(8.94882 -28.2987 0)
(-137.513 13.684 0)
(24.1714 -2.474 0)
(1.33478 -14.3023 0)
(44.659 29.4902 0)
(-44.3187 -6.04812 0)
(22.2903 45.4196 0)
(-78.8018 -25.2358 0)
(-9.96445 33.1381 0)
(-76.3051 -40.884 0)
(-8.04857 58.7745 0)
(-85.309 -55.2215 0)
(16.0867 54.1626 0)
(-49.3501 -67.5665 0)
(15.5587 40.6247 0)
(-29.397 -52.9918 0)
(0.852817 21.1595 0)
(44.9433 -2.18379 0)
(-8.86622 -5.28182 0)
(54.6832 -0.461588 0)
(-121.658 83.4012 0)
(177.381 -96.5148 0)
(-34.3182 -80.8918 0)
(50.9603 42.3415 0)
(-81.0918 0.23341 0)
(44.4249 51.5693 0)
(-74.6439 -14.0071 0)
(13.7977 42.5101 0)
(-84.8473 -31.577 0)
(21.1653 26.2056 0)
(-108.261 -50.9546 0)
(26.7524 55.7308 0)
(-64.9626 -58.6002 0)
(17.3493 51.9805 0)
(-59.0028 -62.7937 0)
(70.8493 34.3782 0)
(-67.3621 -22.4094 0)
(-112.48 9.18407 0)
(-112.118 -16.5397 0)
(137.196 37.7887 0)
(16.7183 -19.1984 0)
(-132.602 4.19591 0)
(23.9859 -5.50346 0)
(-19.8161 -13.517 0)
(36.6994 34.9528 0)
(-58.9866 -6.17307 0)
(14.4759 49.5341 0)
(-75.4574 -23.6978 0)
(-3.07446 34.6414 0)
(-83.7045 -39.3669 0)
(11.9173 55.4248 0)
(-60.6743 -55.7213 0)
(19.7448 54.2445 0)
(-42.0456 -67.5121 0)
(23.1945 35.7818 0)
(-36.3542 -45.3666 0)
(-2.46096 26.2275 0)
(27.6216 0.93808 0)
(-22.4383 -12.5904 0)
(48.3882 0.918424 0)
(-109.495 76.5977 0)
(173.098 -88.9202 0)
(-33.5206 -80.6649 0)
(40.1524 45.9804 0)
(-91.5064 -1.2193 0)
(32.3225 53.2338 0)
(-81.6882 -13.705 0)
(18.5094 43.7853 0)
(-82.3314 -32.4059 0)
(19.071 25.0745 0)
(-97.1335 -48.9922 0)
(57.8214 51.299 0)
(-59.24 -57.8379 0)
(23.8487 50.6368 0)
(-50.9056 -61.0507 0)
(57.6674 28.934 0)
(-74.6841 -19.4024 0)
(-69.4041 8.90636 0)
(-114.3 -21.8267 0)
(126.943 37.953 0)
(23.9019 -11.172 0)
(-129.958 -4.05578 0)
(24.5231 -7.0799 0)
(-42.0546 -12.9366 0)
(31.9481 41.6607 0)
(-70.9215 -8.46272 0)
(13.673 52.5893 0)
(-71.0185 -23.7897 0)
(3.89222 37.4309 0)
(-84.5803 -39.2403 0)
(28.695 51.3589 0)
(-47.2339 -56.2206 0)
(21.7467 53.5167 0)
(-37.6954 -66.3433 0)
(26.3179 30.9127 0)
(-41.0219 -36.9226 0)
(13.1517 26.7411 0)
(19.2902 2.96138 0)
(-18.4346 -17.7119 0)
(41.9186 1.58322 0)
(-100.244 69.4588 0)
(169.801 -81.6725 0)
(-30.063 -78.2773 0)
(25.3707 51.0209 0)
(-102.648 -4.78353 0)
(25.3434 56.601 0)
(-82.3402 -15.2244 0)
(21.8688 44.899 0)
(-83.04 -32.9181 0)
(18.4057 23.9681 0)
(-90.247 -49.3924 0)
(59.4148 49.0045 0)
(-32.0812 -52.271 0)
(30.8927 48.4612 0)
(-43.4552 -57.6628 0)
(38.6454 24.2603 0)
(-80.18 -16.9603 0)
(-46.9468 7.82713 0)
(-108.048 -27.0552 0)
(116.348 37.6761 0)
(30.6153 -3.94731 0)
(-129.317 -11.3961 0)
(24.6151 -5.49031 0)
(-74.8215 -12.732 0)
(25.1028 49.2184 0)
(-75.2677 -13.759 0)
(13.2666 54.8158 0)
(-67.852 -24.4197 0)
(6.03623 39.8841 0)
(-82.0883 -40.099 0)
(40.4904 46.5717 0)
(-47.2885 -58.4941 0)
(18.7203 48.8689 0)
(-33.8592 -63.1853 0)
(25.7566 26.6413 0)
(-41.0842 -29.3429 0)
(-0.0171824 26.0316 0)
(31.9881 6.63598 0)
(-14.4157 -20.7499 0)
(33.8696 2.28056 0)
(-93.5285 62.0554 0)
(167.308 -74.9634 0)
(-23.0314 -73.9157 0)
(-4.73527 58.3862 0)
(-107.702 -12.4975 0)
(20.6535 61.3101 0)
(-81.1828 -17.2915 0)
(20.7863 45.9987 0)
(-84.1106 -32.3216 0)
(18.9258 22.826 0)
(-84.6703 -50.5235 0)
(48.2384 47.2261 0)
(-40.0521 -46.0189 0)
(36.6319 44.396 0)
(-37.9322 -53.1773 0)
(22.041 20.7802 0)
(-74.7847 -14.3507 0)
(-33.1347 5.18692 0)
(-105.074 -30.8535 0)
(106.008 36.9841 0)
(36.5415 2.63487 0)
(-129.789 -17.6995 0)
(22.1169 0.74656 0)
(-113.055 -13.418 0)
(31.6212 55.8734 0)
(-79.1682 -21.0875 0)
(12.594 56.2958 0)
(-70.8614 -24.7475 0)
(6.20165 40.5713 0)
(-75.412 -41.6519 0)
(47.1873 43.5942 0)
(-52.1139 -59.4873 0)
(20.3548 45.4657 0)
(-27.9614 -58.4709 0)
(25.5512 23.1329 0)
(-41.4815 -22.3836 0)
(-6.77694 22.9125 0)
(41.2324 9.38996 0)
(-10.7304 -22.841 0)
(26.1034 3.00156 0)
(-88.0735 54.5793 0)
(164.717 -69.1074 0)
(-11.535 -68.4318 0)
(-32.5125 66.3272 0)
(-89.6615 -24.7955 0)
(10.725 67.4413 0)
(-79.0763 -18.6921 0)
(14.7916 46.4015 0)
(-80.1564 -30.9024 0)
(24.2819 21.1771 0)
(-72.8086 -51.9278 0)
(48.0916 47.2306 0)
(-37.8525 -40.979 0)
(39.5879 38.3981 0)
(-33.7357 -47.8917 0)
(9.05311 18.5938 0)
(-74.4821 -12.5736 0)
(-30.152 2.68257 0)
(-102.898 -33.458 0)
(96.1807 35.5926 0)
(41.06 8.49216 0)
(-130.344 -22.8915 0)
(15.5102 11.4578 0)
(-136.46 -15.4154 0)
(48.3794 61.4131 0)
(-90.1943 -26.7348 0)
(17.5787 56.42 0)
(-80.1773 -24.2057 0)
(12.1127 38.5363 0)
(-63.3757 -43.8775 0)
(51.9623 41.7763 0)
(-45.0704 -61.4471 0)
(18.6711 38.6241 0)
(-21.3649 -52.3068 0)
(26.5199 20.5129 0)
(-43.0643 -16.0286 0)
(-15.9702 19.4258 0)
(44.1871 10.9134 0)
(-11.0109 -24.3449 0)
(18.4174 3.56471 0)
(-80.8935 47.3958 0)
(160.031 -63.9582 0)
(1.11458 -63.7586 0)
(-42.7886 71.5729 0)
(-62.7673 -37.7726 0)
(4.44143 73.7387 0)
(-79.8022 -18.9472 0)
(7.5437 45.1525 0)
(-65.205 -30.072 0)
(36.2596 19.0985 0)
(-69.2833 -54.0581 0)
(48.905 49.0275 0)
(-35.1957 -33.3223 0)
(41.7345 31.1491 0)
(-30.7838 -42.1546 0)
(0.355469 17.6736 0)
(-74.7683 -11.6796 0)
(-24.1232 1.81924 0)
(-102.288 -34.9883 0)
(87.0466 33.4912 0)
(42.5335 13.4928 0)
(-133.502 -26.8927 0)
(6.23228 26.7543 0)
(-153.84 -16.3488 0)
(66.9342 63.9471 0)
(-109.965 -28.3181 0)
(28.908 55.1846 0)
(-86.5291 -23.5099 0)
(26.7346 33.8536 0)
(-41.4268 -44.9789 0)
(49.1199 41.6282 0)
(-34.9172 -63.6371 0)
(15.7622 29.2798 0)
(-15.8838 -45.7269 0)
(28.4973 18.886 0)
(-40.0435 -9.76671 0)
(-15.3016 15.5267 0)
(39.4948 9.91117 0)
(-11.571 -25.6818 0)
(11.0924 3.85405 0)
(-68.8519 40.898 0)
(149.628 -59.7816 0)
(19.6472 -64.4046 0)
(-25.5606 71.1899 0)
(-69.5463 -45.5063 0)
(7.73466 79.0499 0)
(-81.3305 -18.855 0)
(1.3835 41.6867 0)
(-29.2002 -31.2238 0)
(54.6099 18.7706 0)
(-52.4333 -55.4268 0)
(48.7446 49.9095 0)
(-31.3125 -23.0264 0)
(44.2472 23.9318 0)
(-29.9051 -36.48 0)
(-7.96083 15.9928 0)
(-70.6653 -10.4186 0)
(-17.2961 2.52055 0)
(-99.1976 -35.4458 0)
(78.5897 30.7277 0)
(39.666 18.2371 0)
(-144.354 -31.4083 0)
(1.16906 59.0576 0)
(-178.873 -10.8489 0)
(98.2842 59.5829 0)
(-129.425 -28.0588 0)
(33.7118 53.2989 0)
(-97.8729 -25.0947 0)
(76.1516 31.0069 0)
(-21.0715 -44.1759 0)
(58.106 42.5974 0)
(-25.8856 -63.2195 0)
(11.8146 18.5704 0)
(-11.4076 -40.1151 0)
(28.2324 18.349 0)
(-33.4573 -4.60481 0)
(-10.181 11.9533 0)
(33.1858 9.24212 0)
(-8.28147 -27.0115 0)
(3.67418 3.89874 0)
(-52.8849 35.0297 0)
(130.025 -57.6571 0)
(100.036 -97.3954 0)
(8.39451 64.6207 0)
(-112.57 -44.1141 0)
(12.2238 83.3418 0)
(-79.4396 -17.9574 0)
(-3.72642 34.4993 0)
(-16.1393 -38.045 0)
(57.1877 20.1239 0)
(-36.1073 -55.9352 0)
(49.0076 49.3171 0)
(-24.4915 -12.8683 0)
(48.6117 18.3557 0)
(-35.3589 -31.32 0)
(-22.1368 15.5609 0)
(-61.4268 -10.9899 0)
(-13.6543 1.39994 0)
(-89.9716 -34.9768 0)
(70.6444 27.6091 0)
(34.8471 23.9665 0)
(-145.906 -31.4926 0)
(-125.041 68.2193 0)
(-181.874 -0.17696 0)
(153.319 47.4111 0)
(-134.759 -25.8465 0)
(32.9626 50.1334 0)
(-82.1732 -33.849 0)
(73.0648 22.6056 0)
(-9.44011 -44.739 0)
(58.0346 43.7566 0)
(-19.7615 -59.8932 0)
(5.72808 11.4593 0)
(-5.64068 -36.1069 0)
(22.0809 18.7025 0)
(-13.8249 0.139328 0)
(-0.707452 9.88027 0)
(30.6281 12.1593 0)
(1.639 -28.2824 0)
(-5.33834 3.95124 0)
(-41.6104 28.5598 0)
(168.401 -43.6226 0)
(-285.683 -21.4924 0)
(85.6213 46.7182 0)
(-220.278 -36.2691 0)
(12.5692 82.5348 0)
(-49.8566 -17.9533 0)
(62.7136 30.3522 0)
(2.25932 -40.121 0)
(52.1096 23.8361 0)
(-29.0999 -55.9507 0)
(50.9606 45.3294 0)
(-20.1798 -9.52681 0)
(54.286 15.5742 0)
(-55.7568 -26.6153 0)
(-37.6919 13.2566 0)
(-53.1601 -12.9161 0)
(-11.6676 -3.6563 0)
(-73.5346 -33.7874 0)
(63.3588 24.5442 0)
(12.7272 30.6754 0)
(-163.463 -26.9227 0)
(50.8234 12.1005 0)
(-206.28 -3.78005 0)
(90.2671 50.0482 0)
(-102.012 -21.288 0)
(37.4269 42.9503 0)
(10.4454 -31.4743 0)
(60.4265 24.0035 0)
(-10.6398 -43.4896 0)
(45.3191 43.7618 0)
(-17.6129 -47.9001 0)
(4.07634 14.8377 0)
(-0.488788 -33.3324 0)
(7.49716 19.4915 0)
(-1.45914 3.92245 0)
(9.47737 8.23502 0)
(32.1294 17.8361 0)
(17.8729 -29.0433 0)
(-18.43 4.37534 0)
(-30.8879 19.9504 0)
(135.316 -20.1529 0)
(-255.252 -7.10931 0)
(68.3201 39.1419 0)
(-175.756 -59.5785 0)
(3.6944 62.1364 0)
(-26.1418 -21.5719 0)
(56.6386 22.5403 0)
(-4.89203 -39.7054 0)
(44.8083 24.2581 0)
(-39.4814 -54.3523 0)
(59.9404 28.1628 0)
(-18.6783 -18.4415 0)
(54.92 16.1829 0)
(-87.7608 -22.7227 0)
(-27.049 9.84074 0)
(-37.3887 -14.5857 0)
(-2.28584 -10.9175 0)
(-53.6584 -31.9449 0)
(57.8087 21.7501 0)
(8.31804 40.0072 0)
(-186.365 -23.3973 0)
(9.87771 31.4925 0)
(-189 -14.6893 0)
(35.3646 70.7054 0)
(-107.548 -1.86543 0)
(79.6144 31.266 0)
(3.03457 -33.3264 0)
(55.2334 25.9914 0)
(-2.23732 -37.37 0)
(35.3026 40.0216 0)
(0.220201 -26.7324 0)
(15.3714 24.6673 0)
(3.07385 -29.5344 0)
(-1.69417 23.9576 0)
(-3.45998 3.49704 0)
(18.8594 5.59935 0)
(35.4431 22.9149 0)
(37.4322 -28.2555 0)
(-37.1592 5.4833 0)
(-32.8298 16.0749 0)
(116.471 -3.42386 0)
(-258.263 -19.3906 0)
(59.1387 42.8343 0)
(-27.4386 -71.1237 0)
(7.26038 23.7971 0)
(15.9018 -19.4325 0)
(32.4235 25.1198 0)
(0.458003 -36.0909 0)
(54.1183 19.5019 0)
(-25.5767 -49.1029 0)
(72.7981 11.0501 0)
(-21.1739 -30.0379 0)
(58.9666 16.7914 0)
(-95.0816 -26.0493 0)
(8.7668 7.48953 0)
(-22.5069 -13.8936 0)
(29.7732 -16.3971 0)
(-37.3681 -28.8666 0)
(55.3537 19.1352 0)
(13.1017 50.5917 0)
(-299.897 -13.4737 0)
(-11.1775 46.8475 0)
(-128.366 -23.7569 0)
(-33.0481 50.6262 0)
(-141.931 11.1633 0)
(113.963 16.0337 0)
(38.2659 -37.2993 0)
(80.8453 17.1321 0)
(26.1933 -27.35 0)
(46.0086 31.5244 0)
(22.9239 -15.884 0)
(34.2946 33.841 0)
(24.5778 -22.4032 0)
(-9.92662 32.9356 0)
(-8.11363 -0.101268 0)
(21.4966 2.17805 0)
(51.6956 23.592 0)
(55.9048 -23.9901 0)
(-59.4337 7.21698 0)
(-83.3095 18.1328 0)
(167.564 17.075 0)
(49.3346 -43.5299 0)
(131.34 15.3044 0)
(57.1994 -24.0707 0)
(64.7777 9.37626 0)
(24.5838 -31.6151 0)
(16.2161 22.0016 0)
(18.8591 -27.5912 0)
(60.8651 12.4045 0)
(-5.98084 -41.1488 0)
(86.2622 6.32685 0)
(-20.674 -32.0217 0)
(81.488 14.0212 0)
(42.243 -31.3567 0)
(68.8134 11.131 0)
(6.31791 -12.1721 0)
(72.1745 -16.507 0)
(-33.3284 -24.1672 0)
(54.8527 16.5156 0)
(12.0774 61.6466 0)
(-75.6388 -32.5781 0)
(26.0167 42.143 0)
(-44.957 -12.893 0)
(124.298 21.0046 0)
(-6.00942 7.30349 0)
(88.3952 26.2067 0)
(65.4198 -16.7139 0)
(94.9621 10.654 0)
(58.6416 -15.8405 0)
(62.5767 24.8621 0)
(42.1904 -13.0928 0)
(44.32 33.6419 0)
(38.313 -16.248 0)
(-31.752 35.4169 0)
(-57.9054 -13.3345 0)
(27.6659 -6.46414 0)
(64.1828 21.6555 0)
(66.7121 -16.2921 0)
(-81.407 9.01567 0)
(-43.6008 11.5369 0)
(113.807 21.5479 0)
(62.9226 -27.3459 0)
(146.846 10.1856 0)
(96.6237 -24.0305 0)
(105.137 18.9771 0)
(57.9374 -37.5004 0)
(82.5833 0.857981 0)
(33.7009 -25.4692 0)
(54.1544 5.41489 0)
(11.0124 -37.0275 0)
(71.0483 5.932 0)
(17.6769 -28.5407 0)
(75.1538 5.558 0)
(30.1066 -17.5789 0)
(58.4183 12.943 0)
(-11.5852 -10.8998 0)
(-24.9632 -18.888 0)
(-41.0441 -20.3764 0)
(52.2971 13.4389 0)
(22.5734 55.7883 0)
(29.7777 -36.3595 0)
(47.6052 26.9901 0)
(50.3107 -12.3481 0)
(21.1905 32.303 0)
(53.2408 7.92963 0)
(34.5634 27.0696 0)
(28.5414 -8.79377 0)
(73.5612 13.7575 0)
(32.5972 -6.65071 0)
(60.6516 22.3 0)
(10.936 -9.62267 0)
(42.9625 26.3594 0)
(21.7432 -3.86098 0)
(-8.54842 27.2142 0)
(-36.2848 -6.27898 0)
(-10.0444 2.39616 0)
(-59.938 19.7703 0)
(61.3758 -15.5565 0)
(-105.787 9.74754 0)
(-2.66305 3.03359 0)
(88.9631 19.7535 0)
(83.4143 -32.0056 0)
(120.067 9.4269 0)
(57.329 -34.6712 0)
(117.46 17.3518 0)
(61.4828 -28.8994 0)
(125.07 -1.41309 0)
(47.9575 -28.5362 0)
(78.3729 3.51086 0)
(25.3611 -35.6446 0)
(38.5617 3.62656 0)
(34.9699 -17.9084 0)
(60.9248 -5.86918 0)
(41.8622 -6.32629 0)
(84.3751 7.24657 0)
(-52.3983 -14.673 0)
(-65.0281 -29.0858 0)
(-32.1751 -21.5128 0)
(48.7024 10.0786 0)
(33.5 46.5895 0)
(67.6365 -35.9892 0)
(-3.91563 22.9861 0)
(114.873 -12.6166 0)
(-34.2003 41.5917 0)
(42.1217 4.60882 0)
(101.572 20.4895 0)
(43.8124 -6.61642 0)
(18.2469 23.223 0)
(2.24048 -6.16735 0)
(32.506 25.442 0)
(-37.3603 -12.2556 0)
(71.0274 17.0949 0)
(-7.49418 7.20826 0)
(-10.1957 19.0461 0)
(95.7028 4.6224 0)
(2.2047 -1.43367 0)
(153.846 29.6518 0)
(35.4148 -6.3691 0)
(-134.192 6.9374 0)
(47.5516 -8.46887 0)
(123.363 21.2022 0)
(136.181 -33.2511 0)
(105.305 11.454 0)
(133.08 -31.9183 0)
(105.854 14.9247 0)
(101.537 -26.8929 0)
(67.5603 3.98516 0)
(76.1246 -25.8653 0)
(61.3752 1.17766 0)
(67.968 -34.0078 0)
(49.6998 1.5167 0)
(47.6456 -18.6142 0)
(20.8589 -1.56647 0)
(53.8691 -3.76428 0)
(29.8092 1.02199 0)
(106.541 3.90348 0)
(-42.0317 -26.1823 0)
(-50.5788 -19.5158 0)
(57.5459 9.89108 0)
(14.8926 36.7765 0)
(153.482 -25.5905 0)
(-100.662 31.3589 0)
(30.9943 -8.15036 0)
(-60.6682 31.2924 0)
(93.4155 -7.32289 0)
(107.19 26.2994 0)
(70.186 -6.39033 0)
(98.9755 23.0451 0)
(52.753 -2.74061 0)
(78.7514 32.6478 0)
(-96.3678 3.53854 0)
(-16.8024 20.0851 0)
(-57.2552 -5.56952 0)
(-10.4873 12.867 0)
(116.919 3.75988 0)
(33.7728 1.4976 0)
(131.085 6.81924 0)
(32.4448 10.308 0)
(-179.579 -1.88994 0)
)
;

boundaryField
{
    piston
    {
        type            movingWallVelocity;
        value           nonuniform List<vector> 
40
(
(2.09763 -8.67362e-17 0)
(2.09763 0 0)
(2.09763 -6.93889e-16 -1.38778e-15)
(2.09763 0 0)
(2.09763 -6.93889e-16 -1.38778e-15)
(2.09763 -1.38778e-15 -1.38778e-15)
(2.09763 -1.38778e-15 -1.38778e-15)
(2.09763 0 0)
(2.09763 -1.38778e-15 -1.38778e-15)
(2.09763 -1.38778e-15 -1.38778e-15)
(2.09763 0 0)
(2.09763 -2.77556e-15 -1.38778e-15)
(2.09763 0 0)
(2.09763 0 -1.38778e-15)
(2.09763 0 0)
(2.09763 0 -1.38778e-15)
(2.09763 0 -1.38778e-15)
(2.09763 0 0)
(2.09763 -2.77556e-15 -1.38778e-15)
(2.09763 0 0)
(2.09763 0 -1.38778e-15)
(2.09763 0 -1.38778e-15)
(2.09763 0 0)
(2.09763 -5.55112e-15 -1.38778e-15)
(2.09763 0 -1.38778e-15)
(2.09763 0 -1.38778e-15)
(2.09763 0 -1.38778e-15)
(2.09763 0 0)
(2.09763 0 -1.38778e-15)
(2.09763 0 -1.38778e-15)
(2.09763 0 -1.38778e-15)
(2.09763 -5.55112e-15 -1.38778e-15)
(2.09763 -5.55112e-15 0)
(2.09763 0 -1.38778e-15)
(2.09763 0 -1.38778e-15)
(2.09763 -5.55112e-15 -1.38778e-15)
(2.09763 -5.55112e-15 -1.38778e-15)
(2.09763 -5.55112e-15 0)
(2.09763 0 -1.38778e-15)
(2.09763 -5.55112e-15 -1.38778e-15)
)
;
    }
    outlet
    {
        type            noSlip;
    }
    walls
    {
        type            movingWallVelocity;
        value           nonuniform List<vector> 
40
(
(1.99274 0 -1.38778e-15)
(1.78298 0 0)
(1.57322 0 0)
(1.36346 0 -1.38778e-15)
(1.15369 0 -2.77556e-15)
(0.943931 0 -2.77556e-15)
(0.734169 0 0)
(0.524406 0 -1.38778e-15)
(0.314644 0 0)
(0.104881 0 1.38778e-15)
(0 0 -1.38778e-15)
(0 0 0)
(0 0 0)
(1.11022e-14 0 0)
(-1.11022e-14 0 -1.38778e-15)
(-2.22045e-14 0 -1.38778e-15)
(-2.22045e-14 0 -1.38778e-15)
(0 0 0)
(-2.22045e-14 0 -1.38778e-15)
(-2.22045e-14 0 -1.38778e-15)
(1.99274 0 -1.38778e-15)
(1.78298 0 0)
(1.57322 0 0)
(1.36346 0 1.38778e-15)
(1.15369 0 0)
(0.943931 0 0)
(0.734169 0 -1.38778e-15)
(0.524406 0 -1.38778e-15)
(0.314644 0 0)
(0.104881 0 0)
(-1.38778e-15 0 0)
(0 0 0)
(-1.11022e-14 0 -1.38778e-15)
(0 0 0)
(-1.11022e-14 0 -1.38778e-15)
(-2.22045e-14 0 -1.38778e-15)
(-2.22045e-14 0 -1.38778e-15)
(0 0 0)
(-2.22045e-14 0 -1.38778e-15)
(-2.22045e-14 0 -1.38778e-15)
)
;
    }
    front
    {
        type            empty;
    }
    back
    {
        type            empty;
    }
}


// ************************************************************************* //
