/*--------------------------------*- C++ -*----------------------------------*\
  =========                 |
  \\      /  F ield         | OpenFOAM: The Open Source CFD Toolbox
   \\    /   O peration     | Website:  https://openfoam.org
    \\  /    A nd           | Version:  6
     \\/     M anipulation  |
\*---------------------------------------------------------------------------*/
FoamFile
{
    version     2.0;
    format      ascii;
    class       volScalarField;
    location    "4.59";
    object      epsilon;
}
// * * * * * * * * * * * * * * * * * * * * * * * * * * * * * * * * * * * * * //

dimensions      [0 2 -3 0 0 0 0];

internalField   nonuniform List<scalar> 
4214
(
0.0222926
0.0106672
0.00532117
0.00297806
0.00215081
0.00212851
0.00266158
0.00379633
0.00577122
0.00892464
0.0136003
0.0198486
0.0274771
0.0353068
0.0416073
0.0455715
0.0472756
0.0487255
0.0540476
0.0682042
0.0939109
0.129359
0.16695
0.197515
0.215541
0.219378
0.21292
0.216236
0.260176
0.330976
0.36873
0.335974
0.252921
0.161137
0.0871324
0.0393823
0.0155156
0.00648037
0.00488667
0.007781
0.0165648
0.0103252
0.00532449
0.00304959
0.00220054
0.00218671
0.00280346
0.00415676
0.00659625
0.0106573
0.0169282
0.0258224
0.036968
0.0494642
0.0606987
0.0680995
0.0709609
0.0698322
0.0669412
0.0657972
0.0709176
0.086086
0.110596
0.139704
0.167985
0.18794
0.195084
0.193381
0.199036
0.233328
0.306601
0.369401
0.365664
0.29621
0.202173
0.117192
0.0572062
0.023685
0.00895487
0.00401197
0.00335287
0.00493289
0.00361149
0.0025893
0.00211877
0.00220895
0.0029224
0.00449655
0.00743632
0.0125164
0.0206914
0.0327401
0.0487244
0.0670362
0.0852269
0.0986885
0.104817
0.103799
0.0968828
0.0872767
0.0784951
0.0741994
0.0778059
0.0900352
0.107899
0.127962
0.146634
0.16007
0.169362
0.182504
0.212554
0.273746
0.350728
0.379547
0.334888
0.245645
0.152665
0.0803956
0.0357494
0.0138662
0.00530849
0.00276816
0.00257664
0.00234122
0.0020897
0.0022358
0.00301384
0.00478134
0.00819485
0.0143033
0.0244987
0.0401466
0.0616938
0.0878976
0.114738
0.137547
0.150222
0.151817
0.144196
0.129325
0.112152
0.0961753
0.0844843
0.0792037
0.0819441
0.0912664
0.104382
0.119513
0.134407
0.14829
0.164907
0.193197
0.244784
0.323354
0.380315
0.36642
0.29035
0.193519
0.109657
0.0525871
0.0216123
0.00813191
0.00338067
0.00213683
0.00204462
0.00224246
0.00306242
0.00496712
0.00877383
0.0157977
0.0278806
0.0470952
0.0746206
0.109366
0.147658
0.181838
0.205315
0.212409
0.205481
0.18822
0.163511
0.138531
0.115312
0.096906
0.0847602
0.0799876
0.0821626
0.0894179
0.100454
0.114072
0.129427
0.147915
0.175338
0.220895
0.289876
0.363437
0.384137
0.331815
0.238054
0.14476
0.0748049
0.0329403
0.012842
0.0049401
0.00239435
0.00224782
0.00305252
0.00504536
0.00912895
0.0168164
0.0304094
0.0526998
0.0858816
0.129466
0.180187
0.230462
0.267816
0.286381
0.283436
0.265018
0.236542
0.200257
0.165703
0.1365
0.111971
0.093754
0.0829538
0.0791123
0.0811137
0.0878441
0.0985569
0.112808
0.131364
0.157979
0.199576
0.261011
0.333473
0.383969
0.364264
0.283482
0.185067
0.10279
0.0486307
0.0200564
0.00770506
0.00325262
0.00301861
0.00496555
0.00903187
0.0169256
0.0312991
0.0556592
0.0934769
0.14598
0.209713
0.278101
0.335566
0.368826
0.376241
0.359744
0.328528
0.289783
0.242983
0.197887
0.15832
0.127444
0.104872
0.0894481
0.0808197
0.0782105
0.0807707
0.0879611
0.0996006
0.116473
0.141319
0.179105
0.234318
0.303543
0.366144
0.381546
0.324968
0.228785
0.13633
0.0692812
0.030476
0.0121258
0.00487713
0.00469799
0.00847254
0.0159971
0.0300727
0.0547457
0.0946902
0.153294
0.229666
0.315914
0.397772
0.453844
0.475114
0.462638
0.427807
0.385489
0.34141
0.292697
0.239971
0.189352
0.148388
0.119022
0.0991118
0.086536
0.0799753
0.0786679
0.0822369
0.0906517
0.104738
0.12682
0.160772
0.210666
0.275753
0.342394
0.380559
0.356155
0.27252
0.1743
0.0950258
0.0446991
0.0187308
0.00756208
0.00753184
0.0141104
0.026752
0.0496271
0.0882473
0.148037
0.231219
0.333318
0.43924
0.525518
0.569043
0.564122
0.523449
0.468422
0.416139
0.371424
0.330756
0.287155
0.231131
0.178399
0.139889
0.113557
0.0970989
0.0871657
0.0820809
0.081743
0.0865704
0.0973631
0.116124
0.146248
0.191471
0.252311
0.319532
0.369276
0.371089
0.310946
0.214312
0.125132
0.0629894
0.0279908
0.0116485
0.0115456
0.0218028
0.0409625
0.0746223
0.129516
0.211194
0.319725
0.444468
0.561136
0.638056
0.654231
0.614273
0.543779
0.471246
0.41372
0.372872
0.341774
0.311434
0.273458
0.220056
0.16811
0.133948
0.112623
0.0989965
0.0910686
0.0876097
0.0887458
0.0959022
0.111071
0.137464
0.178613
0.235545
0.30147
0.356976
0.374251
0.335737
0.252509
0.157542
0.0849159
0.0400977
0.0174256
0.0161156
0.0303141
0.0562727
0.100808
0.171439
0.27318
0.402911
0.542855
0.659504
0.716849
0.7001
0.626461
0.532195
0.448807
0.390435
0.354847
0.332639
0.314979
0.293396
0.260847
0.207004
0.15946
0.132487
0.115741
0.105094
0.0991021
0.0975884
0.101558
0.113475
0.136588
0.174391
0.22803
0.291699
0.348686
0.374244
0.349515
0.278872
0.189128
0.108745
0.0546871
0.0249626
0.0199307
0.037274
0.0685452
0.121394
0.203874
0.320471
0.465134
0.613736
0.725732
0.763531
0.719688
0.621469
0.51212
0.422589
0.364854
0.333942
0.318983
0.310965
0.301609
0.284456
0.252237
0.194101
0.156884
0.137863
0.123983
0.115752
0.112389
0.114168
0.123927
0.144967
0.180865
0.232334
0.293321
0.348268
0.375339
0.357168
0.295149
0.210445
0.130546
0.070563
0.0338475
0.021581
0.0402459
0.0737956
0.130382
0.218694
0.343492
0.497582
0.653013
0.76485
0.793307
0.735047
0.621714
0.501864
0.406646
0.346921
0.3188
0.308783
0.308298
0.308674
0.303063
0.285885
0.246659
0.190079
0.165123
0.147716
0.137414
0.132973
0.134234
0.143476
0.164468
0.200348
0.250767
0.308334
0.357636
0.379753
0.360383
0.301905
0.221711
0.14419
0.0829526
0.0430914
0.0205223
0.0382963
0.0705566
0.125656
0.213243
0.339554
0.499446
0.663887
0.786303
0.819397
0.761016
0.638915
0.508488
0.403834
0.336644
0.307981
0.300442
0.306072
0.315525
0.320832
0.317332
0.296786
0.245386
0.201921
0.178459
0.164809
0.160883
0.163829
0.175401
0.199321
0.237337
0.286761
0.338229
0.376389
0.38647
0.358199
0.298368
0.221154
0.148346
0.0888473
0.0489092
0.0174671
0.0325743
0.0606478
0.109638
0.190548
0.311173
0.473368
0.647703
0.793916
0.844122
0.801675
0.6763
0.5331
0.414695
0.330758
0.297063
0.287547
0.297433
0.315522
0.332589
0.343948
0.339446
0.313371
0.259982
0.226002
0.207656
0.20157
0.208557
0.226471
0.256041
0.296204
0.340829
0.37972
0.398526
0.38936
0.345985
0.282685
0.207471
0.141844
0.0865618
0.0499583
0.0138315
0.0253628
0.0479827
0.0874927
0.158284
0.264446
0.426692
0.602055
0.786594
0.858407
0.850615
0.733065
0.574373
0.443703
0.329549
0.286436
0.268215
0.277062
0.300558
0.327109
0.356339
0.369142
0.371796
0.345884
0.310153
0.285397
0.275848
0.282638
0.303952
0.336027
0.372457
0.402905
0.419659
0.409039
0.377574
0.3161
0.253012
0.17977
0.125441
0.0755181
0.0457562
0.0109756
0.0184071
0.0370207
0.0635499
0.127462
0.204348
0.374544
0.518458
0.764509
0.845213
0.892024
0.810147
0.624557
0.501709
0.334932
0.281556
0.246464
0.247324
0.271
0.29609
0.342255
0.369518
0.408892
0.419554
0.42553
0.417343
0.411524
0.418202
0.432642
0.44939
0.459534
0.454008
0.4361
0.386214
0.341031
0.2616
0.211878
0.138545
0.102944
0.0564033
0.0377221
0.0173378
0.0232783
0.0257283
0.0247218
0.0210246
0.0163995
0.0119124
0.00814467
0.0053339
0.00346364
0.0023679
0.00184271
0.00174543
0.00211951
0.0034571
0.00899045
0.0382844
0.0103704
0.0125122
0.0133418
0.0126394
0.0107661
0.00852767
0.00638774
0.00460409
0.0032777
0.00239745
0.00189054
0.00167753
0.00173134
0.00217914
0.0035816
0.00908084
0.0365367
0.00451344
0.00586548
0.00643952
0.00623056
0.00545834
0.00451446
0.00359715
0.0028255
0.00224916
0.00186983
0.00166532
0.00161944
0.0017646
0.00227277
0.00375222
0.00961241
0.03521
0.0029738
0.00334944
0.00351379
0.00340309
0.00308255
0.00270157
0.002332
0.00202174
0.00179232
0.00164832
0.00158994
0.00163129
0.00183492
0.0023992
0.00397406
0.0102182
0.0349031
0.00229547
0.00235766
0.00236495
0.00228845
0.00214999
0.00199609
0.00185006
0.00172906
0.00164283
0.00159769
0.00160417
0.00169099
0.00193667
0.00255733
0.0042484
0.0110476
0.0356482
0.00216125
0.00209408
0.0020296
0.00195443
0.00187473
0.00179752
0.00172913
0.00167501
0.00164049
0.00163322
0.0016687
0.00178299
0.0020641
0.00274328
0.00457089
0.0120748
0.0375552
0.00227424
0.00216536
0.00206928
0.00198261
0.0019046
0.00183644
0.00177994
0.00173764
0.00171392
0.00171735
0.00176587
0.00189937
0.00221214
0.00294974
0.00492605
0.0132487
0.0405413
0.00229759
0.00219811
0.00211063
0.00203373
0.00196617
0.00190789
0.00186011
0.0018255
0.00180924
0.00182122
0.0018812
0.0020319
0.00237335
0.00316632
0.00529294
0.0144257
0.0443701
0.00248403
0.0023817
0.00228699
0.0022002
0.00212197
0.00205385
0.00199812
0.00195824
0.00193996
0.00195348
0.00201913
0.00218123
0.00254446
0.00338365
0.00564524
0.0154955
0.0489317
0.00251315
0.00242661
0.00234755
0.00227624
0.00221271
0.0021578
0.00211355
0.00208352
0.0020737
0.00209488
0.00216859
0.00234127
0.00272186
0.00359695
0.00596793
0.0164285
0.0544549
0.00273936
0.00265036
0.00256657
0.00248824
0.00241612
0.00235203
0.00229892
0.0022612
0.00224585
0.00226459
0.00233966
0.00251815
0.00291019
0.00380907
0.00625864
0.0172777
0.0613752
0.00278083
0.00271406
0.00264973
0.0025885
0.00253141
0.00248042
0.0024388
0.00241157
0.00240626
0.00243502
0.00252053
0.00271
0.00311357
0.00402782
0.00652999
0.0180916
0.0700283
0.003025
0.00294232
0.00286588
0.00279477
0.00272957
0.00267257
0.00262767
0.00260022
0.00259782
0.0026325
0.00272668
0.00292673
0.00334093
0.00426558
0.00680605
0.0189135
0.0805464
0.00309062
0.00304068
0.00298718
0.00293301
0.00288164
0.00283721
0.00280447
0.00278911
0.00279886
0.00284624
0.00295427
0.00316939
0.00359831
0.00453655
0.00711921
0.0197962
0.092886
0.00335071
0.0032722
0.00320128
0.00313744
0.00308259
0.00303964
0.00301205
0.00300441
0.00302394
0.00308355
0.00320693
0.00344087
0.00389124
0.00485545
0.00750896
0.0208208
0.106832
0.00344206
0.00340389
0.00335725
0.00331117
0.00327185
0.00324339
0.0032294
0.00323472
0.00326755
0.00334237
0.00348469
0.00374308
0.00422577
0.00524071
0.0080335
0.0221224
0.121958
0.00371416
0.00363715
0.00357503
0.00352744
0.00349407
0.0034748
0.0034712
0.00348785
0.00353389
0.00362526
0.00378968
0.00407916
0.00460963
0.00571617
0.00876398
0.0238405
0.137605
0.00383172
0.00380142
0.0037687
0.00374356
0.00372805
0.00372337
0.00373272
0.00376253
0.00382378
0.00393448
0.00412554
0.00445553
0.00505717
0.00631928
0.00979724
0.0261102
0.152838
0.00410638
0.00404146
0.00400863
0.00399324
0.00398923
0.00399623
0.004018
0.00406208
0.00414084
0.00427469
0.0044993
0.0048847
0.00559403
0.00710625
0.0112486
0.0289987
0.166328
0.00425818
0.00425567
0.00425617
0.00426083
0.00427164
0.0042924
0.00432888
0.00439005
0.00449026
0.00465348
0.00492331
0.00538886
0.00626241
0.0081548
0.0132379
0.0326766
0.17667
0.00453429
0.0045239
0.00453579
0.00455413
0.00457936
0.00461572
0.00466983
0.0047522
0.00487996
0.00508287
0.00541749
0.00600267
0.00712152
0.00955324
0.0158403
0.0375252
0.182878
0.00477881
0.00480772
0.00483777
0.00487277
0.00491538
0.00497086
0.00504707
0.00515693
0.00532214
0.00558194
0.00601285
0.00677649
0.00824778
0.011401
0.0191948
0.0439362
0.184413
0.00506953
0.00511773
0.00516631
0.00522046
0.00528357
0.00536192
0.0054652
0.00560977
0.00582392
0.00615975
0.00671865
0.00770955
0.00959704
0.013523
0.0227624
0.0500447
0.185492
0.00538507
0.00545331
0.00552412
0.00560112
0.00568859
0.00579422
0.00593025
0.00611743
0.00639222
0.00682129
0.00753157
0.0087763
0.0110962
0.015762
0.0262648
0.0555062
0.187213
0.00572748
0.00582185
0.00591795
0.00602148
0.00613769
0.00627583
0.00645108
0.00668926
0.00703552
0.00757104
0.0084463
0.00995246
0.0126905
0.0180244
0.029584
0.0602916
0.189463
0.00610317
0.00622564
0.00635279
0.00648837
0.006639
0.0068158
0.0070371
0.00733387
0.00775953
0.0084082
0.00945009
0.0112062
0.0143217
0.0202242
0.0326265
0.0644014
0.191957
0.0065162
0.00667495
0.00683777
0.00701125
0.00720253
0.00742452
0.0076984
0.00805968
0.00856876
0.0093301
0.010529
0.0125083
0.0159437
0.0223056
0.0353577
0.0679054
0.194305
0.00697403
0.00717349
0.00738072
0.00759979
0.00783949
0.00811393
0.0084466
0.00887649
0.00946899
0.0103357
0.0116718
0.0138335
0.0175146
0.0242075
0.0376914
0.0706508
0.196007
0.007484
0.0077355
0.00799434
0.00826765
0.00856403
0.00889893
0.00929661
0.00979794
0.0104709
0.0114304
0.012876
0.0151695
0.0190106
0.0258969
0.039597
0.0726433
0.196561
0.00814803
0.00843457
0.00873141
0.00904698
0.0093956
0.00979892
0.0102689
0.0108448
0.0115944
0.0126318
0.0141554
0.0165237
0.0204298
0.0273564
0.0410262
0.073747
0.195488
0.00887047
0.00923965
0.0096167
0.0100081
0.0104211
0.0108692
0.0113947
0.0120488
0.0128734
0.0139756
0.015546
0.0179305
0.021801
0.0286002
0.0419585
0.0738576
0.192397
0.00965301
0.0101157
0.0105907
0.0110814
0.011596
0.012148
0.0127597
0.0134659
0.0143609
0.0155222
0.0171162
0.0194663
0.0232063
0.0297093
0.042458
0.0729885
0.18706
0.01053
0.011109
0.011704
0.0123184
0.0129582
0.0136345
0.0143663
0.0151847
0.0161406
0.0173649
0.0189784
0.021266
0.0248054
0.0308666
0.0427167
0.0713002
0.179462
0.0115132
0.0122369
0.0129844
0.0137566
0.0145577
0.0153956
0.0162849
0.0172524
0.0183448
0.0196378
0.021301
0.0235417
0.0268653
0.0324011
0.0431156
0.0691634
0.16981
0.012618
0.0135219
0.0144616
0.0154364
0.0164479
0.017501
0.0186065
0.0197847
0.0210713
0.0225305
0.0243173
0.0265976
0.0297841
0.0348306
0.0442995
0.0672594
0.158499
0.0138541
0.0149835
0.0161669
0.0174023
0.0186895
0.020031
0.0214344
0.0229166
0.0245099
0.0262763
0.0283307
0.0308385
0.0341113
0.0389069
0.0472768
0.0667673
0.146055
0.015234
0.016643
0.0181343
0.0197047
0.0213528
0.0230798
0.0248931
0.0268109
0.0288687
0.0311326
0.0337199
0.0367816
0.0405691
0.0456643
0.0535432
0.069648
0.133058
0.0167644
0.0185204
0.0204002
0.0224006
0.02452
0.0267606
0.0291335
0.0316651
0.0344066
0.0374494
0.0409573
0.0450807
0.0500964
0.0565044
0.0652694
0.0791494
0.120046
0.0184497
0.0206335
0.0230021
0.0255536
0.0282878
0.0312109
0.0343434
0.0377308
0.0414592
0.0456791
0.0506633
0.0566017
0.0639492
0.0733508
0.0856319
0.100771
0.107469
0.020286
0.0229946
0.0259757
0.0292319
0.0327679
0.0365987
0.040763
0.0453431
0.0504938
0.0564766
0.0637347
0.072606
0.0839625
0.0990264
0.119429
0.144366
0.0956788
0.00693543
0.00702762
0.007165
0.00737067
0.00765289
0.00800433
0.00841416
0.00887403
0.00938493
0.00995108
0.0105808
0.01128
0.0120542
0.0129057
0.0138351
0.0148423
0.0159274
0.0170918
0.0183387
0.0196736
0.0216708
0.0238951
0.0254714
0.0269379
0.0282921
0.0295422
0.0306918
0.0317262
0.0326116
0.0333025
0.0337479
0.0339008
0.0337245
0.0331981
0.0323207
0.0311106
0.0296051
0.0278551
0.0259295
0.023924
0.0219847
0.00760375
0.0076807
0.00782268
0.00805401
0.00837681
0.0087763
0.00923597
0.00974695
0.0103115
0.0109366
0.0116323
0.0124059
0.0132638
0.0142091
0.015244
0.0163703
0.0175914
0.0189119
0.0203377
0.0218775
0.0241307
0.0266402
0.0285245
0.0303265
0.0320245
0.0336123
0.035084
0.0364193
0.0375779
0.0385041
0.039135
0.0394096
0.0392794
0.0387161
0.0377167
0.0363045
0.0345249
0.0324379
0.0301125
0.0276383
0.0251734
0.00843297
0.00849492
0.00865188
0.00892388
0.00930075
0.00975666
0.0102701
0.010834
0.0114537
0.0121405
0.0129058
0.0137591
0.014707
0.0157546
0.0169059
0.0181659
0.0195413
0.0210404
0.0226721
0.0244484
0.0269884
0.029815
0.0320539
0.0342496
0.0363628
0.0383682
0.0402442
0.0419585
0.0434595
0.0446782
0.0455352
0.0459531
0.0458685
0.0452444
0.0440765
0.0423969
0.0402666
0.0377638
0.0349656
0.0319447
0.028829
0.00946185
0.00951804
0.00971137
0.0100464
0.0104919
0.0110095
0.0115764
0.0121912
0.0128656
0.0136153
0.0144539
0.015392
0.0164377
0.017598
0.0188798
0.0202916
0.021844
0.0235487
0.0254184
0.0274681
0.0303311
0.0335131
0.0361585
0.0388108
0.0414167
0.0439289
0.0463041
0.0484897
0.0504158
0.0519934
0.053122
0.0537026
0.0536545
0.0529302
0.0515264
0.049488
0.0469007
0.0438735
0.0405084
0.0368667
0.0329959
0.0107424
0.0108206
0.0110882
0.011514
0.0120382
0.0126144
0.0132272
0.0138868
0.0146134
0.0154268
0.0163426
0.0173725
0.018526
0.0198128
0.0212434
0.02283
0.024587
0.02653
0.0286754
0.0310423
0.0342705
0.0378536
0.0409648
0.0441432
0.0473246
0.0504403
0.0534195
0.0561813
0.058627
0.0606387
0.0620865
0.0628448
0.0628114
0.0619287
0.0601969
0.0576805
0.054499
0.0508054
0.0467476
0.042401
0.0377056
0.0123533
0.0125154
0.0129127
0.0134524
0.0140498
0.0146671
0.0153098
0.0160047
0.0167807
0.0176601
0.0186594
0.0197911
0.0210668
0.0224991
0.0241023
0.0258924
0.0278877
0.030108
0.032574
0.0353094
0.0389529
0.0429917
0.0466373
0.0504189
0.0542648
0.0580859
0.0617807
0.0652312
0.0682988
0.0708242
0.0726382
0.0735801
0.0735231
0.0724004
0.0702215
0.0670796
0.063139
0.0586087
0.0536996
0.0485387
0.0429813
0.0144302
0.0147892
0.0153742
0.0160227
0.0166583
0.0172825
0.0179339
0.0186558
0.0194813
0.0204328
0.0215262
0.0227752
0.0241933
0.0257964
0.0276023
0.0296313
0.0319056
0.0344497
0.0372896
0.0404542
0.0445719
0.0491314
0.0533908
0.0578624
0.0624685
0.0671008
0.0716248
0.0758781
0.07967
0.0827867
0.0850059
0.0861229
0.085983
0.0845127
0.0817399
0.0777991
0.0729133
0.0673584
0.0614189
0.0553021
0.0488584
0.0172271
0.017945
0.0187296
0.0194202
0.0200245
0.0206127
0.0212549
0.0220012
0.0228825
0.0239178
0.0251221
0.0265098
0.0280972
0.0299029
0.0319487
0.034259
0.0368611
0.0397848
0.043062
0.0467272
0.051388
0.0565445
0.0615089
0.0667676
0.0722364
0.0777878
0.0832517
0.0884148
0.0930237
0.0967955
0.0994418
0.100704
0.100398
0.0984463
0.0949088
0.0899769
0.0839477
0.0771761
0.070024
0.0627882
0.0554201
0.0212254
0.0224342
0.0232991
0.0238892
0.0243763
0.0248938
0.0255198
0.0262958
0.027244
0.0283794
0.0297159
0.0312694
0.0330584
0.035105
0.0374349
0.0400775
0.0430657
0.0464354
0.0502247
0.0544738
0.0597581
0.0655992
0.0713708
0.0775224
0.0839608
0.0905367
0.0970412
0.103204
0.108699
0.113163
0.11623
0.11758
0.116996
0.114409
0.109923
0.103802
0.0964337
0.0882626
0.07973
0.0712102
0.0628426
0.0272617
0.0288333
0.029474
0.0297899
0.0300959
0.0305269
0.0311364
0.0319474
0.0329727
0.0342242
0.0357157
0.0374646
0.0394922
0.0418241
0.0444904
0.0475258
0.0509695
0.0548634
0.0592518
0.0641799
0.0701794
0.0768022
0.0834904
0.090644
0.0981558
0.10585
0.113474
0.120695
0.127106
0.132257
0.135696
0.137041
0.136048
0.132662
0.127046
0.119555
0.110675
0.100949
0.0908941
0.0809458
0.0714491
0.0365361
0.0377739
0.0378128
0.0377453
0.0378442
0.0381761
0.0387579
0.0395971
0.0407008
0.042079
0.0437462
0.0457212
0.0480281
0.0506961
0.0537599
0.0572593
0.0612392
0.0657475
0.070833
0.0765446
0.0833581
0.0908637
0.0985756
0.106831
0.115502
0.12438
0.133161
0.141445
0.148744
0.154516
0.158229
0.159443
0.157895
0.153559
0.146667
0.137668
0.127155
0.115769
0.104083
0.0926166
0.0817142
0.0502961
0.0500596
0.0493222
0.0488497
0.0487083
0.0488981
0.0494137
0.0502542
0.0514237
0.0529308
0.0547901
0.0570216
0.0596517
0.0627127
0.066243
0.0702868
0.0748927
0.0801125
0.0859981
0.0925986
0.10032
0.108799
0.11762
0.127044
0.136913
0.146978
0.156881
0.166152
0.174223
0.180475
0.184307
0.185237
0.183001
0.177608
0.169363
0.158811
0.14663
0.133554
0.120183
0.107221
0.0951594
0.0693492
0.0673304
0.0658684
0.0649279
0.0644452
0.0644008
0.0647772
0.0655675
0.0667723
0.0683978
0.0704576
0.0729718
0.0759677
0.0794789
0.0835459
0.0882142
0.0935336
0.0995556
0.10633
0.113902
0.122592
0.132089
0.142043
0.152622
0.16363
0.174774
0.185639
0.195693
0.204307
0.210804
0.214545
0.215033
0.212019
0.20556
0.196015
0.184006
0.170286
0.15556
0.140833
0.126551
0.113105
0.0958769
0.0929567
0.0905986
0.0889987
0.0880009
0.0875837
0.0877109
0.0883687
0.0895519
0.0912628
0.0935121
0.0963176
0.0997045
0.103705
0.108357
0.113702
0.119786
0.126654
0.134345
0.142891
0.152514
0.162955
0.173923
0.185474
0.197376
0.209289
0.220754
0.2312
0.239967
0.246366
0.249761
0.24968
0.245906
0.238538
0.227972
0.214795
0.199962
0.184235
0.168318
0.152803
0.138109
0.136078
0.132082
0.128834
0.126312
0.124598
0.123639
0.123373
0.123781
0.124848
0.126569
0.12895
0.132001
0.135742
0.140197
0.145393
0.151362
0.158134
0.165738
0.174193
0.183504
0.193785
0.204822
0.216373
0.228383
0.240585
0.252612
0.263991
0.274156
0.282476
0.28831
0.291088
0.290402
0.28608
0.278216
0.267292
0.253903
0.238766
0.222628
0.206176
0.189989
0.174474
0.198995
0.194002
0.189814
0.186499
0.184041
0.182416
0.181629
0.181658
0.182465
0.184039
0.186376
0.189477
0.193345
0.197987
0.203412
0.209627
0.216639
0.224445
0.233032
0.24237
0.252465
0.263146
0.274208
0.285511
0.296782
0.307673
0.317759
0.326556
0.333544
0.338215
0.340131
0.338979
0.334681
0.327358
0.317323
0.305049
0.291101
0.276079
0.260553
0.24503
0.229841
0.300725
0.295984
0.291805
0.288384
0.285732
0.28385
0.28273
0.282365
0.28274
0.283845
0.285667
0.288187
0.29139
0.29526
0.29978
0.304931
0.310686
0.317013
0.323868
0.331193
0.338928
0.34695
0.355111
0.363262
0.371198
0.378679
0.38543
0.391154
0.395547
0.398314
0.399228
0.39814
0.395
0.389863
0.38289
0.374329
0.364485
0.353694
0.342297
0.330612
0.318753
0.0484566
0.0217387
0.0053759
0.00279785
0.00211549
0.00211576
0.00258703
0.0035751
0.00517678
0.00731157
0.00961035
0.0114123
0.0120642
0.0113669
0.00973416
0.0078514
0.00613724
0.0519301
0.0215971
0.00534156
0.00281543
0.00214002
0.0020824
0.002373
0.0029735
0.00387952
0.00500648
0.0061359
0.006943
0.00714613
0.00670808
0.00587406
0.00499536
0.00433527
0.0529033
0.0209432
0.00530924
0.00284048
0.00217126
0.00206824
0.00223837
0.00260237
0.00311841
0.00371532
0.0042668
0.00461945
0.00466567
0.00442729
0.00405451
0.00374432
0.00367954
0.0532217
0.0198436
0.00528077
0.00287943
0.0022115
0.00207258
0.00216159
0.00237978
0.00267656
0.00299848
0.0032754
0.00343798
0.00345295
0.00335123
0.00321437
0.00312382
0.00310054
0.0530005
0.0185678
0.00526954
0.00293576
0.00226468
0.00209653
0.00213003
0.00225966
0.00243505
0.00261769
0.0027699
0.00286226
0.0028886
0.00287263
0.00285561
0.00287116
0.00292734
0.0527941
0.0173984
0.00529243
0.00301465
0.00233378
0.00214009
0.00213464
0.0022106
0.00232
0.00243431
0.00253282
0.0026037
0.00264834
0.00268139
0.0027229
0.00278804
0.0028842
0.0531228
0.0164548
0.00535025
0.00311879
0.00242185
0.00220356
0.0021692
0.00221212
0.00228596
0.00236795
0.00244543
0.00251333
0.00257414
0.00263604
0.00270836
0.00279666
0.00290009
0.0544481
0.0157784
0.00543574
0.003245
0.00252974
0.00228731
0.00223001
0.00225093
0.00230536
0.00237226
0.00244217
0.00251184
0.00258235
0.00265697
0.00273842
0.00282669
0.00291843
0.0570958
0.0153801
0.00553545
0.00338234
0.00265401
0.0023903
0.00231295
0.00231638
0.00235782
0.00241583
0.00248095
0.00254955
0.00262082
0.00269492
0.00277172
0.00285024
0.00292929
0.0613307
0.0152611
0.00564518
0.00352178
0.00279063
0.00251318
0.00241961
0.00240948
0.00243978
0.00249186
0.00255574
0.00262629
0.00270209
0.00278297
0.00286906
0.00296037
0.00305643
0.0673719
0.0154176
0.00577606
0.00366404
0.0029375
0.00265617
0.00255265
0.00253076
0.00255098
0.00259458
0.00265181
0.00271773
0.00278881
0.00286289
0.00293837
0.00301379
0.00308799
0.0753577
0.0158388
0.00594777
0.0038209
0.00309466
0.00281122
0.00270347
0.00267543
0.00268771
0.00272225
0.00276965
0.00282435
0.00288269
0.00294208
0.00300073
0.00305753
0.00311156
0.0853065
0.0165144
0.00618124
0.0040111
0.00327172
0.0029739
0.00285234
0.00281287
0.00281626
0.00284412
0.0028869
0.0029392
0.00299775
0.00306037
0.00312563
0.00319277
0.00326162
0.0970918
0.0174427
0.00649842
0.00425217
0.00348524
0.00316307
0.00302014
0.00296297
0.00295155
0.00296633
0.0029969
0.00303733
0.00308408
0.00313474
0.00318763
0.00324186
0.00329798
0.110393
0.0186385
0.00692974
0.00455816
0.00374221
0.00338368
0.00321202
0.00313253
0.00310356
0.00310389
0.00312188
0.00315085
0.00318685
0.00322714
0.00326903
0.00330894
0.00334161
0.124712
0.0201525
0.00751968
0.00494634
0.0040496
0.00363956
0.00343065
0.00332329
0.00327298
0.00325642
0.00326044
0.00327753
0.00330364
0.00333696
0.00337696
0.00342351
0.00347615
0.139455
0.022079
0.00833155
0.00544109
0.004417
0.00393566
0.00367939
0.00353767
0.00346132
0.00342421
0.00341126
0.00341336
0.00342519
0.00344396
0.00346873
0.00349973
0.00353845
0.153716
0.0245666
0.00945239
0.00607922
0.00485985
0.00427953
0.00396265
0.00377887
0.00367109
0.00360954
0.0035769
0.00356256
0.00355991
0.00356498
0.00357552
0.0035894
0.00360068
0.166349
0.0278102
0.0109931
0.00691452
0.00540289
0.00468306
0.0042866
0.00405056
0.00390486
0.00381411
0.0037582
0.00372487
0.00370637
0.00369805
0.00369789
0.00370679
0.00372855
0.176185
0.0320082
0.0130694
0.00801519
0.00608246
0.00516443
0.00466044
0.00435766
0.00416555
0.0040399
0.0039565
0.00390081
0.00386363
0.00383899
0.00382323
0.00381515
0.00381848
0.181834
0.0373047
0.0157774
0.00945682
0.00694643
0.00575022
0.00509836
0.00470766
0.00445726
0.00428935
0.00417338
0.00409158
0.0040329
0.0039901
0.00395823
0.00393343
0.00390841
0.182901
0.0441168
0.0192413
0.0113267
0.00805497
0.0064768
0.00562065
0.00511111
0.00478534
0.00456522
0.00441036
0.00429806
0.00421461
0.00415121
0.00410201
0.00406331
0.00403303
0.183753
0.050368
0.022902
0.0134597
0.00936835
0.0073419
0.00623277
0.00557379
0.00515393
0.00487017
0.00466914
0.00452137
0.00440949
0.00432265
0.00425374
0.00419803
0.00415178
0.185431
0.0557377
0.0263823
0.0156441
0.0107822
0.00829732
0.0069126
0.00608382
0.00555522
0.00519819
0.00494479
0.00475746
0.00461432
0.00450193
0.0044116
0.00433757
0.00427567
0.187765
0.0604318
0.0295899
0.0177811
0.012229
0.00930504
0.00764128
0.00663281
0.00598561
0.00554746
0.00523606
0.00500521
0.00482794
0.00468787
0.00457448
0.00448092
0.00440218
0.19047
0.0644398
0.0324696
0.0197935
0.0136482
0.0103261
0.00839592
0.00720815
0.00643841
0.00591445
0.00554088
0.00526319
0.00504929
0.00487957
0.00474158
0.00462718
0.00453063
0.193113
0.0678131
0.0349872
0.0216235
0.0149893
0.0113238
0.00915302
0.00779597
0.006906
0.00629517
0.00585727
0.00553049
0.00527795
0.00507692
0.00491298
0.00477674
0.00466179
0.195148
0.0704666
0.0370831
0.0232209
0.0162113
0.0122683
0.00989257
0.00838399
0.00738167
0.00668678
0.00618487
0.00580819
0.00551574
0.00528208
0.00509106
0.00493223
0.00479825
0.195978
0.0722639
0.0386814
0.024534
0.017278
0.0131348
0.0105997
0.008964
0.00786334
0.0070933
0.00653194
0.00610666
0.00577383
0.00550643
0.00528704
0.00510399
0.00494862
0.195046
0.0730694
0.039714
0.025522
0.0181641
0.0139103
0.011296
0.00960036
0.00844362
0.00761608
0.0069989
0.00652041
0.00613599
0.00581748
0.00555076
0.00532566
0.00513325
0.19192
0.0727899
0.0401442
0.0261715
0.0188684
0.0146375
0.0119789
0.0102127
0.00898213
0.0080868
0.00740915
0.00687787
0.00644876
0.00609392
0.005792
0.00552965
0.00530401
0.186346
0.0714092
0.0399944
0.0265149
0.0194454
0.0152765
0.0126188
0.0108185
0.00953518
0.00857925
0.00783971
0.00724898
0.00676487
0.00636031
0.00601735
0.00572373
0.00546652
0.178291
0.0690321
0.0393895
0.0266594
0.0199372
0.0159168
0.0132973
0.0114754
0.01014
0.00911835
0.0083091
0.00765038
0.00710308
0.00664165
0.0062488
0.00591209
0.00562228
0.167956
0.0659582
0.038606
0.0268208
0.0205266
0.0166777
0.0140947
0.0122387
0.0108346
0.00972982
0.00883466
0.00809368
0.00747115
0.00694309
0.00649262
0.00610724
0.00577685
0.155764
0.0627856
0.0381527
0.0273716
0.0214658
0.0177278
0.0151223
0.0131814
0.0116665
0.0104446
0.00943643
0.00859175
0.00787729
0.00726981
0.00675219
0.00631116
0.00593564
0.142316
0.0605804
0.038875
0.0288904
0.0231135
0.0192916
0.016522
0.0143932
0.0126925
0.0112986
0.010137
0.00915884
0.00833042
0.0076274
0.00703109
0.00652624
0.00610003
0.128311
0.0611406
0.0420632
0.0321962
0.0259393
0.0216479
0.0184617
0.0159767
0.013976
0.0123313
0.0109611
0.00981019
0.00883997
0.00802171
0.00733297
0.00675521
0.00627224
0.114456
0.0674607
0.0495978
0.038393
0.0305287
0.0251271
0.0211352
0.0180477
0.0155872
0.0135858
0.0119352
0.0105626
0.00941655
0.00845954
0.00766233
0.00700102
0.00645479
0.10135
0.0846247
0.0642496
0.049
0.0377062
0.0301973
0.0248036
0.0207524
0.0176097
0.0151112
0.0130892
0.0114341
0.0100713
0.00894771
0.00802351
0.0072664
0.00664911
0.0894367
0.121967
0.0904103
0.0665048
0.0496606
0.0377674
0.0298849
0.0243073
0.0201657
0.0169797
0.0144667
0.0124516
0.0108208
0.00949694
0.00842358
0.00755666
0.00685959
0.0109289
0.0356009
0.123807
0.375446
0.788179
0.921357
0.609944
0.291174
0.215322
0.244384
0.319552
0.420338
0.513447
0.529184
0.503406
0.425752
0.305099
0.179246
0.0835582
0.029663
0.00986426
0.0284207
0.0960981
0.318526
0.767863
1.00701
0.683468
0.299505
0.192158
0.200379
0.251398
0.340363
0.449431
0.460979
0.419016
0.333889
0.226927
0.128773
0.0595785
0.0221033
0.00981229
0.0246542
0.0738451
0.257387
0.724018
1.10892
0.789679
0.325795
0.181366
0.169249
0.190858
0.241623
0.316445
0.324331
0.288904
0.222762
0.147183
0.0825282
0.0390722
0.0158794
0.0105552
0.0241839
0.059176
0.197084
0.645102
1.19923
0.934074
0.376107
0.186065
0.157296
0.155722
0.170374
0.200136
0.194962
0.168235
0.127079
0.0839564
0.0485461
0.025019
0.0119972
0.0119019
0.0264019
0.0529365
0.146008
0.533443
1.24226
1.11292
0.455329
0.206635
0.163531
0.148356
0.139185
0.134531
0.111769
0.0914249
0.0690551
0.0476232
0.0303165
0.0183681
0.010816
0.0138024
0.0305968
0.0542063
0.111117
0.401439
1.21333
1.31445
0.571311
0.243842
0.18483
0.161896
0.140537
0.120616
0.0888887
0.0651145
0.0488556
0.0358657
0.025749
0.0181789
0.0122082
0.0164455
0.036329
0.0610608
0.0954568
0.272384
1.08537
1.54927
0.734147
0.300052
0.219391
0.189186
0.162157
0.135144
0.104234
0.0723932
0.0536369
0.0406472
0.0308757
0.023177
0.0161079
0.0201578
0.0438395
0.0717295
0.0963009
0.174936
0.851368
1.90942
0.963448
0.381677
0.269684
0.230287
0.196289
0.164421
0.132966
0.0996296
0.0736337
0.0565393
0.0436549
0.0333308
0.0231414
0.0249174
0.0536236
0.0859841
0.106947
0.131222
0.594859
1.95228
1.39383
0.508111
0.342254
0.290425
0.245502
0.206474
0.170389
0.136758
0.106398
0.0828841
0.0650628
0.0505348
0.0351647
0.0311892
0.0663057
0.10409
0.122632
0.13283
0.433092
1.64327
1.47171
0.876258
0.464578
0.379577
0.321719
0.26937
0.224265
0.185595
0.151339
0.122551
0.0986554
0.0786153
0.0557784
0.0397478
0.0834722
0.1279
0.14313