/*--------------------------------*- C++ -*----------------------------------*\
  =========                 |
  \\      /  F ield         | OpenFOAM: The Open Source CFD Toolbox
   \\    /   O peration     | Website:  https://openfoam.org
    \\  /    A nd           | Version:  6
     \\/     M anipulation  |
\*---------------------------------------------------------------------------*/
FoamFile
{
    version     2.0;
    format      ascii;
    class       volVectorField;
    location    "3.67";
    object      U;
}
// * * * * * * * * * * * * * * * * * * * * * * * * * * * * * * * * * * * * * //

dimensions      [0 1 -1 0 0 0 0];

internalField   nonuniform List<vector> 
5625
(
(0.894412 0.447199 0)
(0.894408 0.447199 0)
(0.894405 0.447199 0)
(0.894404 0.4472 0)
(0.894402 0.4472 0)
(0.894402 0.4472 0)
(0.894401 0.4472 0)
(0.894401 0.4472 0)
(0.8944 0.4472 0)
(0.8944 0.4472 0)
(0.8944 0.4472 0)
(0.8944 0.4472 0)
(0.8944 0.4472 0)
(0.8944 0.4472 0)
(0.8944 0.4472 0)
(0.8944 0.4472 0)
(0.8944 0.4472 0)
(0.8944 0.4472 0)
(0.8944 0.4472 0)
(0.8944 0.4472 0)
(0.8944 0.4472 0)
(0.8944 0.4472 0)
(0.8944 0.4472 0)
(0.8944 0.4472 0)
(0.8944 0.447199 0)
(0.8944 0.447201 0)
(0.8944 0.4472 0)
(0.8944 0.4472 0)
(0.8944 0.4472 0)
(0.8944 0.4472 0)
(0.8944 0.4472 0)
(0.8944 0.4472 0)
(0.8944 0.4472 0)
(0.8944 0.447201 0)
(0.894401 0.447199 0)
(0.894399 0.4472 0)
(0.894401 0.447201 0)
(0.894399 0.447199 0)
(0.894401 0.4472 0)
(0.894399 0.4472 0)
(0.8944 0.4472 0)
(0.894401 0.447201 0)
(0.8944 0.4472 0)
(0.8944 0.4472 0)
(0.894402 0.447199 0)
(0.894403 0.447201 0)
(0.894404 0.4472 0)
(0.894405 0.447202 0)
(0.894408 0.447201 0)
(0.894413 0.447201 0)
(0.894417 0.447201 0)
(0.894427 0.447204 0)
(0.894433 0.447204 0)
(0.894448 0.447206 0)
(0.894461 0.447209 0)
(0.894473 0.447206 0)
(0.894486 0.447209 0)
(0.894484 0.447203 0)
(0.894463 0.447192 0)
(0.894402 0.447168 0)
(0.89427 0.44712 0)
(0.894027 0.447032 0)
(0.8936 0.446879 0)
(0.892913 0.446626 0)
(0.891838 0.446222 0)
(0.890235 0.445597 0)
(0.887945 0.444665 0)
(0.884809 0.443343 0)
(0.880783 0.441547 0)
(0.876022 0.439279 0)
(0.871009 0.43668 0)
(0.866576 0.434012 0)
(0.863593 0.431599 0)
(0.862629 0.429653 0)
(0.863878 0.428154 0)
(0.894411 0.447198 0)
(0.894408 0.447199 0)
(0.894405 0.447199 0)
(0.894404 0.447199 0)
(0.894402 0.4472 0)
(0.894402 0.4472 0)
(0.894401 0.4472 0)
(0.894401 0.4472 0)
(0.8944 0.4472 0)
(0.8944 0.4472 0)
(0.8944 0.4472 0)
(0.8944 0.4472 0)
(0.8944 0.4472 0)
(0.8944 0.4472 0)
(0.8944 0.4472 0)
(0.8944 0.4472 0)
(0.8944 0.4472 0)
(0.8944 0.4472 0)
(0.8944 0.4472 0)
(0.8944 0.4472 0)
(0.8944 0.4472 0)
(0.8944 0.4472 0)
(0.8944 0.4472 0)
(0.8944 0.4472 0)
(0.8944 0.4472 0)
(0.8944 0.4472 0)
(0.8944 0.4472 0)
(0.8944 0.4472 0)
(0.8944 0.4472 0)
(0.8944 0.4472 0)
(0.8944 0.4472 0)
(0.8944 0.4472 0)
(0.894401 0.4472 0)
(0.894399 0.4472 0)
(0.894401 0.4472 0)
(0.894399 0.447199 0)
(0.894401 0.447201 0)
(0.894399 0.4472 0)
(0.894401 0.447199 0)
(0.894398 0.4472 0)
(0.894402 0.447201 0)
(0.894399 0.4472 0)
(0.894402 0.4472 0)
(0.8944 0.4472 0)
(0.894402 0.447199 0)
(0.894401 0.447201 0)
(0.894404 0.4472 0)
(0.894405 0.4472 0)
(0.894407 0.447202 0)
(0.894412 0.4472 0)
(0.894416 0.447204 0)
(0.894426 0.447203 0)
(0.894432 0.447205 0)
(0.894448 0.447207 0)
(0.894458 0.44721 0)
(0.894475 0.447212 0)
(0.894484 0.447211 0)
(0.894491 0.447212 0)
(0.894472 0.447202 0)
(0.894429 0.447182 0)
(0.894317 0.447143 0)
(0.894111 0.447064 0)
(0.893745 0.446927 0)
(0.893147 0.446696 0)
(0.892207 0.446324 0)
(0.890789 0.445745 0)
(0.88875 0.444872 0)
(0.885925 0.443615 0)
(0.882229 0.441887 0)
(0.877747 0.439654 0)
(0.872846 0.437011 0)
(0.868238 0.434209 0)
(0.864788 0.431585 0)
(0.863171 0.429405 0)
(0.863679 0.42775 0)
(0.894411 0.447198 0)
(0.894407 0.447199 0)
(0.894405 0.447199 0)
(0.894403 0.447199 0)
(0.894402 0.4472 0)
(0.894401 0.4472 0)
(0.894401 0.4472 0)
(0.894401 0.4472 0)
(0.8944 0.4472 0)
(0.8944 0.4472 0)
(0.8944 0.4472 0)
(0.8944 0.4472 0)
(0.8944 0.4472 0)
(0.8944 0.4472 0)
(0.8944 0.4472 0)
(0.8944 0.4472 0)
(0.8944 0.4472 0)
(0.8944 0.4472 0)
(0.8944 0.4472 0)
(0.8944 0.4472 0)
(0.8944 0.4472 0)
(0.8944 0.4472 0)
(0.8944 0.4472 0)
(0.8944 0.4472 0)
(0.8944 0.4472 0)
(0.8944 0.4472 0)
(0.8944 0.4472 0)
(0.8944 0.4472 0)
(0.8944 0.4472 0)
(0.8944 0.4472 0)
(0.8944 0.4472 0)
(0.8944 0.4472 0)
(0.8944 0.4472 0)
(0.8944 0.447201 0)
(0.8944 0.447199 0)
(0.8944 0.4472 0)
(0.8944 0.447199 0)
(0.8944 0.447201 0)
(0.894401 0.4472 0)
(0.894399 0.4472 0)
(0.894401 0.447201 0)
(0.894398 0.447199 0)
(0.894403 0.447201 0)
(0.894399 0.4472 0)
(0.894403 0.4472 0)
(0.894401 0.4472 0)
(0.894403 0.447201 0)
(0.894406 0.4472 0)
(0.894407 0.447203 0)
(0.894412 0.4472 0)
(0.894416 0.447204 0)
(0.894424 0.447204 0)
(0.894431 0.447206 0)
(0.894447 0.447209 0)
(0.894455 0.44721 0)
(0.894474 0.447216 0)
(0.894484 0.447214 0)
(0.894493 0.447217 0)
(0.894483 0.447212 0)
(0.894448 0.447196 0)
(0.89436 0.447163 0)
(0.894183 0.447094 0)
(0.893876 0.446975 0)
(0.89336 0.446769 0)
(0.892544 0.446427 0)
(0.891306 0.445897 0)
(0.889504 0.445095 0)
(0.88699 0.443914 0)
(0.88364 0.442273 0)
(0.879475 0.440112 0)
(0.874759 0.437469 0)
(0.870077 0.434567 0)
(0.866241 0.431742 0)
(0.863997 0.429306 0)
(0.863753 0.427428 0)
(0.89441 0.447198 0)
(0.894407 0.447198 0)
(0.894405 0.447199 0)
(0.894403 0.447199 0)
(0.894402 0.4472 0)
(0.894401 0.4472 0)
(0.894401 0.4472 0)
(0.8944 0.4472 0)
(0.8944 0.4472 0)
(0.8944 0.4472 0)
(0.8944 0.4472 0)
(0.8944 0.4472 0)
(0.8944 0.4472 0)
(0.8944 0.4472 0)
(0.8944 0.4472 0)
(0.8944 0.4472 0)
(0.8944 0.4472 0)
(0.8944 0.4472 0)
(0.8944 0.4472 0)
(0.8944 0.447199 0)
(0.8944 0.4472 0)
(0.8944 0.4472 0)
(0.8944 0.4472 0)
(0.8944 0.4472 0)
(0.8944 0.4472 0)
(0.8944 0.4472 0)
(0.8944 0.4472 0)
(0.8944 0.4472 0)
(0.8944 0.4472 0)
(0.894399 0.4472 0)
(0.8944 0.4472 0)
(0.8944 0.447201 0)
(0.8944 0.447199 0)
(0.8944 0.4472 0)
(0.8944 0.4472 0)
(0.8944 0.4472 0)
(0.894399 0.4472 0)
(0.894401 0.4472 0)
(0.894399 0.4472 0)
(0.894401 0.4472 0)
(0.894399 0.4472 0)
(0.894401 0.4472 0)
(0.894401 0.4472 0)
(0.8944 0.4472 0)
(0.894402 0.4472 0)
(0.894401 0.4472 0)
(0.894402 0.447201 0)
(0.894406 0.4472 0)
(0.894406 0.447202 0)
(0.894411 0.447202 0)
(0.894416 0.447202 0)
(0.894421 0.447205 0)
(0.894432 0.447207 0)
(0.894442 0.44721 0)
(0.894455 0.447212 0)
(0.894469 0.447217 0)
(0.894485 0.447221 0)
(0.894492 0.44722 0)
(0.89449 0.44722 0)
(0.894464 0.447209 0)
(0.894395 0.44718 0)
(0.894248 0.447124 0)
(0.89399 0.447021 0)
(0.893552 0.446838 0)
(0.892851 0.446534 0)
(0.89178 0.446054 0)
(0.890205 0.445319 0)
(0.887988 0.444233 0)
(0.884992 0.442696 0)
(0.88118 0.440633 0)
(0.876715 0.438044 0)
(0.87206 0.435087 0)
(0.867942 0.432082 0)
(0.865129 0.429387 0)
(0.86414 0.427238 0)
(0.894409 0.447198 0)
(0.894406 0.447198 0)
(0.894404 0.447199 0)
(0.894403 0.447199 0)
(0.894402 0.4472 0)
(0.894401 0.4472 0)
(0.894401 0.4472 0)
(0.8944 0.4472 0)
(0.8944 0.4472 0)
(0.8944 0.4472 0)
(0.8944 0.4472 0)
(0.8944 0.4472 0)
(0.8944 0.4472 0)
(0.8944 0.4472 0)
(0.8944 0.4472 0)
(0.8944 0.4472 0)
(0.8944 0.4472 0)
(0.8944 0.4472 0)
(0.8944 0.4472 0)
(0.8944 0.4472 0)
(0.8944 0.4472 0)
(0.8944 0.4472 0)
(0.8944 0.4472 0)
(0.8944 0.4472 0)
(0.8944 0.4472 0)
(0.8944 0.4472 0)
(0.8944 0.4472 0)
(0.8944 0.4472 0)
(0.8944 0.4472 0)
(0.8944 0.4472 0)
(0.8944 0.4472 0)
(0.8944 0.4472 0)
(0.8944 0.4472 0)
(0.8944 0.4472 0)
(0.8944 0.4472 0)
(0.8944 0.4472 0)
(0.8944 0.4472 0)
(0.894401 0.4472 0)
(0.894399 0.447201 0)
(0.894402 0.4472 0)
(0.894398 0.4472 0)
(0.894402 0.447201 0)
(0.894398 0.447199 0)
(0.894402 0.447201 0)
(0.8944 0.4472 0)
(0.894403 0.4472 0)
(0.894402 0.447201 0)
(0.894405 0.4472 0)
(0.894406 0.447202 0)
(0.894409 0.447202 0)
(0.894416 0.447204 0)
(0.894419 0.447203 0)
(0.89443 0.447208 0)
(0.894438 0.44721 0)
(0.894455 0.447213 0)
(0.894464 0.447217 0)
(0.894484 0.447224 0)
(0.894491 0.447225 0)
(0.894495 0.447226 0)
(0.894476 0.44722 0)
(0.89442 0.447198 0)
(0.894306 0.447151 0)
(0.894089 0.447064 0)
(0.89372 0.446902 0)
(0.893124 0.446637 0)
(0.892207 0.446209 0)
(0.890849 0.445546 0)
(0.888911 0.44456 0)
(0.886264 0.443142 0)
(0.88283 0.441203 0)
(0.878677 0.438713 0)
(0.874147 0.43576 0)
(0.869864 0.432621 0)
(0.866571 0.429675 0)
(0.864874 0.427224 0)
(0.894409 0.447198 0)
(0.894406 0.447198 0)
(0.894404 0.447199 0)
(0.894403 0.447199 0)
(0.894402 0.447199 0)
(0.894401 0.4472 0)
(0.894401 0.4472 0)
(0.8944 0.4472 0)
(0.8944 0.4472 0)
(0.8944 0.4472 0)
(0.8944 0.4472 0)
(0.8944 0.4472 0)
(0.8944 0.4472 0)
(0.8944 0.4472 0)
(0.8944 0.4472 0)
(0.8944 0.4472 0)
(0.8944 0.4472 0)
(0.8944 0.4472 0)
(0.8944 0.4472 0)
(0.8944 0.4472 0)
(0.8944 0.4472 0)
(0.8944 0.4472 0)
(0.8944 0.4472 0)
(0.8944 0.4472 0)
(0.8944 0.4472 0)
(0.8944 0.4472 0)
(0.8944 0.4472 0)
(0.8944 0.4472 0)
(0.8944 0.4472 0)
(0.8944 0.4472 0)
(0.8944 0.4472 0)
(0.8944 0.4472 0)
(0.8944 0.4472 0)
(0.8944 0.4472 0)
(0.8944 0.4472 0)
(0.894399 0.4472 0)
(0.894401 0.447201 0)
(0.894399 0.4472 0)
(0.894401 0.4472 0)
(0.8944 0.447201 0)
(0.8944 0.4472 0)
(0.8944 0.447201 0)
(0.8944 0.4472 0)
(0.894401 0.4472 0)
(0.8944 0.4472 0)
(0.894403 0.447201 0)
(0.894402 0.4472 0)
(0.894404 0.447201 0)
(0.894406 0.447202 0)
(0.894408 0.447201 0)
(0.894415 0.447205 0)
(0.894419 0.447204 0)
(0.894427 0.447207 0)
(0.894437 0.447211 0)
(0.89445 0.447214 0)
(0.894463 0.44722 0)
(0.894478 0.447223 0)
(0.894491 0.44723 0)
(0.894494 0.44723 0)
(0.894485 0.447228 0)
(0.894444 0.447215 0)
(0.894351 0.447174 0)
(0.894174 0.447103 0)
(0.893869 0.446967 0)
(0.893367 0.446734 0)
(0.892586 0.446358 0)
(0.891426 0.445769 0)
(0.889753 0.444883 0)
(0.887442 0.443598 0)
(0.884393 0.441808 0)
(0.880603 0.439449 0)
(0.876293 0.436564 0)
(0.871966 0.433361 0)
(0.868309 0.430194 0)
(0.865974 0.427427 0)
(0.894408 0.447198 0)
(0.894405 0.447198 0)
(0.894404 0.447199 0)
(0.894403 0.447199 0)
(0.894402 0.4472 0)
(0.894401 0.4472 0)
(0.894401 0.4472 0)
(0.8944 0.4472 0)
(0.8944 0.4472 0)
(0.8944 0.4472 0)
(0.8944 0.4472 0)
(0.8944 0.4472 0)
(0.8944 0.4472 0)
(0.8944 0.4472 0)
(0.8944 0.4472 0)
(0.8944 0.4472 0)
(0.8944 0.4472 0)
(0.8944 0.4472 0)
(0.8944 0.4472 0)
(0.8944 0.4472 0)
(0.8944 0.4472 0)
(0.8944 0.4472 0)
(0.8944 0.4472 0)
(0.8944 0.4472 0)
(0.8944 0.4472 0)
(0.8944 0.4472 0)
(0.8944 0.4472 0)
(0.8944 0.4472 0)
(0.8944 0.4472 0)
(0.8944 0.4472 0)
(0.8944 0.4472 0)
(0.8944 0.447201 0)
(0.8944 0.447199 0)
(0.8944 0.447201 0)
(0.8944 0.4472 0)
(0.894399 0.4472 0)
(0.894401 0.4472 0)
(0.894399 0.447201 0)
(0.894401 0.447199 0)
(0.894399 0.447201 0)
(0.894401 0.447199 0)
(0.894398 0.4472 0)
(0.894402 0.447201 0)
(0.8944 0.447199 0)
(0.894402 0.4472 0)
(0.8944 0.447201 0)
(0.894403 0.4472 0)
(0.894404 0.447201 0)
(0.894405 0.447203 0)
(0.894409 0.4472 0)
(0.894411 0.447204 0)
(0.894419 0.447206 0)
(0.894425 0.447206 0)
(0.894435 0.447211 0)
(0.894445 0.447215 0)
(0.894462 0.44722 0)
(0.894471 0.447225 0)
(0.894489 0.447232 0)
(0.894494 0.447236 0)
(0.894488 0.447234 0)
(0.894461 0.447226 0)
(0.894388 0.447198 0)
(0.894245 0.447135 0)
(0.893993 0.447024 0)
(0.893577 0.446825 0)
(0.892923 0.446498 0)
(0.891938 0.445982 0)
(0.890512 0.445197 0)
(0.888517 0.444047 0)
(0.885848 0.442422 0)
(0.882452 0.440235 0)
(0.878445 0.437473 0)
(0.874197 0.434275 0)
(0.870309 0.430953 0)
(0.867438 0.42789 0)
(0.894407 0.447198 0)
(0.894405 0.447198 0)
(0.894403 0.447199 0)
(0.894402 0.447199 0)
(0.894402 0.4472 0)
(0.894401 0.4472 0)
(0.894401 0.4472 0)
(0.8944 0.4472 0)
(0.8944 0.4472 0)
(0.8944 0.4472 0)
(0.8944 0.4472 0)
(0.8944 0.4472 0)
(0.8944 0.4472 0)
(0.8944 0.4472 0)
(0.8944 0.4472 0)
(0.8944 0.4472 0)
(0.8944 0.4472 0)
(0.8944 0.4472 0)
(0.8944 0.4472 0)
(0.8944 0.4472 0)
(0.8944 0.4472 0)
(0.8944 0.4472 0)
(0.8944 0.4472 0)
(0.8944 0.4472 0)
(0.894401 0.4472 0)
(0.8944 0.4472 0)
(0.8944 0.4472 0)
(0.8944 0.4472 0)
(0.8944 0.4472 0)
(0.8944 0.4472 0)
(0.8944 0.4472 0)
(0.8944 0.4472 0)
(0.8944 0.4472 0)
(0.894399 0.4472 0)
(0.894401 0.4472 0)
(0.8944 0.4472 0)
(0.8944 0.447199 0)
(0.8944 0.4472 0)
(0.894399 0.4472 0)
(0.8944 0.4472 0)
(0.8944 0.4472 0)
(0.894399 0.4472 0)
(0.894401 0.4472 0)
(0.894399 0.447201 0)
(0.894402 0.4472 0)
(0.894401 0.4472 0)
(0.894402 0.447202 0)
(0.894403 0.4472 0)
(0.894405 0.447202 0)
(0.894409 0.447203 0)
(0.89441 0.447202 0)
(0.894416 0.447206 0)
(0.894423 0.447209 0)
(0.894432 0.447209 0)
(0.894442 0.447217 0)
(0.894455 0.447219 0)
(0.894471 0.447227 0)
(0.894481 0.447233 0)
(0.894492 0.447239 0)
(0.894492 0.447241 0)
(0.894472 0.447235 0)
(0.894417 0.447216 0)
(0.894303 0.447167 0)
(0.894099 0.447075 0)
(0.893758 0.446908 0)
(0.893212 0.446628 0)
(0.892386 0.446181 0)
(0.891183 0.445495 0)
(0.889483 0.444482 0)
(0.887176 0.443028 0)
(0.884189 0.441037 0)
(0.880547 0.438453 0)
(0.876495 0.43534 0)
(0.872521 0.431944 0)
(0.869244 0.428635 0)
(0.894407 0.447198 0)
(0.894405 0.447199 0)
(0.894403 0.447199 0)
(0.894402 0.447199 0)
(0.894401 0.4472 0)
(0.894401 0.4472 0)
(0.894401 0.4472 0)
(0.8944 0.4472 0)
(0.8944 0.4472 0)
(0.8944 0.4472 0)
(0.8944 0.4472 0)
(0.8944 0.4472 0)
(0.8944 0.4472 0)
(0.8944 0.4472 0)
(0.8944 0.4472 0)
(0.8944 0.4472 0)
(0.8944 0.4472 0)
(0.8944 0.4472 0)
(0.8944 0.4472 0)
(0.8944 0.4472 0)
(0.8944 0.4472 0)
(0.8944 0.4472 0)
(0.8944 0.4472 0)
(0.8944 0.4472 0)
(0.8944 0.4472 0)
(0.8944 0.4472 0)
(0.8944 0.4472 0)
(0.8944 0.4472 0)
(0.894399 0.4472 0)
(0.8944 0.4472 0)
(0.8944 0.4472 0)
(0.8944 0.4472 0)
(0.8944 0.4472 0)
(0.894401 0.4472 0)
(0.894399 0.447199 0)
(0.8944 0.447201 0)
(0.8944 0.4472 0)
(0.8944 0.4472 0)
(0.894399 0.4472 0)
(0.894402 0.4472 0)
(0.894398 0.4472 0)
(0.894402 0.4472 0)
(0.894398 0.4472 0)
(0.894402 0.4472 0)
(0.8944 0.447201 0)
(0.894402 0.4472 0)
(0.894401 0.447201 0)
(0.894404 0.447201 0)
(0.894404 0.447201 0)
(0.894406 0.447202 0)
(0.894412 0.447204 0)
(0.894412 0.447203 0)
(0.894423 0.447209 0)
(0.894429 0.447209 0)
(0.89444 0.447215 0)
(0.894448 0.447222 0)
(0.894467 0.447226 0)
(0.894476 0.447235 0)
(0.89449 0.44724 0)
(0.894492 0.447244 0)
(0.894479 0.447246 0)
(0.894438 0.447228 0)
(0.894351 0.447194 0)
(0.894187 0.44712 0)
(0.893908 0.446981 0)
(0.893463 0.446747 0)
(0.892777 0.446365 0)
(0.891767 0.445774 0)
(0.890335 0.44489 0)
(0.88837 0.443611 0)
(0.885781 0.441829 0)
(0.882545 0.439466 0)
(0.878791 0.436515 0)
(0.874877 0.43314 0)
(0.871344 0.429663 0)
(0.894406 0.447198 0)
(0.894404 0.447199 0)
(0.894403 0.447199 0)
(0.894402 0.447199 0)
(0.894401 0.4472 0)
(0.894401 0.4472 0)
(0.8944 0.4472 0)
(0.8944 0.4472 0)
(0.8944 0.4472 0)
(0.8944 0.4472 0)
(0.8944 0.4472 0)
(0.8944 0.4472 0)
(0.8944 0.4472 0)
(0.8944 0.4472 0)
(0.8944 0.4472 0)
(0.8944 0.4472 0)
(0.8944 0.4472 0)
(0.8944 0.4472 0)
(0.8944 0.4472 0)
(0.8944 0.4472 0)
(0.8944 0.4472 0)
(0.8944 0.4472 0)
(0.8944 0.4472 0)
(0.8944 0.4472 0)
(0.8944 0.4472 0)
(0.8944 0.4472 0)
(0.8944 0.4472 0)
(0.8944 0.4472 0)
(0.8944 0.4472 0)
(0.8944 0.447199 0)
(0.8944 0.4472 0)
(0.8944 0.4472 0)
(0.8944 0.4472 0)
(0.8944 0.4472 0)
(0.8944 0.4472 0)
(0.894399 0.4472 0)
(0.894401 0.4472 0)
(0.894399 0.4472 0)
(0.8944 0.4472 0)
(0.894401 0.4472 0)
(0.894399 0.4472 0)
(0.894401 0.4472 0)
(0.894399 0.4472 0)
(0.894401 0.447199 0)
(0.894399 0.447202 0)
(0.894402 0.4472 0)
(0.894401 0.447199 0)
(0.894403 0.447203 0)
(0.894405 0.4472 0)
(0.894405 0.447203 0)
(0.89441 0.447204 0)
(0.894413 0.447204 0)
(0.894419 0.447207 0)
(0.894427 0.447212 0)
(0.894435 0.447212 0)
(0.894446 0.447221 0)
(0.894458 0.447227 0)
(0.894473 0.447233 0)
(0.894484 0.447245 0)
(0.894489 0.447246 0)
(0.894484 0.44725 0)
(0.894454 0.447242 0)
(0.894385 0.447215 0)
(0.894258 0.447157 0)
(0.894035 0.447045 0)
(0.893671 0.44685 0)
(0.893108 0.446531 0)
(0.892274 0.446028 0)
(0.891079 0.445266 0)
(0.889423 0.444156 0)
(0.887216 0.442593 0)
(0.884396 0.440471 0)
(0.881012 0.437748 0)
(0.877292 0.434493 0)
(0.87367 0.430958 0)
(0.894405 0.447198 0)
(0.894404 0.447199 0)
(0.894402 0.447199 0)
(0.894402 0.447199 0)
(0.894401 0.4472 0)
(0.894401 0.4472 0)
(0.8944 0.4472 0)
(0.8944 0.4472 0)
(0.8944 0.4472 0)
(0.8944 0.4472 0)
(0.8944 0.4472 0)
(0.8944 0.4472 0)
(0.8944 0.4472 0)
(0.8944 0.4472 0)
(0.8944 0.4472 0)
(0.8944 0.4472 0)
(0.8944 0.4472 0)
(0.8944 0.4472 0)
(0.8944 0.4472 0)
(0.8944 0.4472 0)
(0.8944 0.4472 0)
(0.8944 0.4472 0)
(0.8944 0.4472 0)
(0.8944 0.4472 0)
(0.8944 0.4472 0)
(0.8944 0.4472 0)
(0.8944 0.4472 0)
(0.8944 0.4472 0)
(0.8944 0.4472 0)
(0.8944 0.447201 0)
(0.8944 0.447199 0)
(0.8944 0.447201 0)
(0.894399 0.4472 0)
(0.8944 0.4472 0)
(0.8944 0.447201 0)
(0.8944 0.447199 0)
(0.8944 0.4472 0)
(0.8944 0.447201 0)
(0.8944 0.4472 0)
(0.8944 0.4472 0)
(0.8944 0.4472 0)
(0.8944 0.4472 0)
(0.894401 0.447201 0)
(0.894399 0.4472 0)
(0.894402 0.4472 0)
(0.8944 0.4472 0)
(0.894402 0.447201 0)
(0.894402 0.4472 0)
(0.894404 0.447201 0)
(0.894405 0.447202 0)
(0.894407 0.447202 0)
(0.894413 0.447206 0)
(0.894416 0.447205 0)
(0.894423 0.44721 0)
(0.894432 0.447215 0)
(0.894442 0.447218 0)
(0.894455 0.447226 0)
(0.894464 0.447234 0)
(0.894479 0.44724 0)
(0.894486 0.44725 0)
(0.894483 0.447254 0)
(0.894465 0.447249 0)
(0.894414 0.447232 0)
(0.894313 0.447187 0)
(0.894137 0.4471 0)
(0.893845 0.446942 0)
(0.893389 0.446675 0)
(0.892704 0.446254 0)
(0.891716 0.445611 0)
(0.890339 0.444659 0)
(0.888481 0.4433 0)
(0.886071 0.441439 0)
(0.883095 0.438986 0)
(0.879679 0.435943 0)
(0.876129 0.432469 0)
(0.894405 0.447198 0)
(0.894403 0.447199 0)
(0.894402 0.447199 0)
(0.894401 0.4472 0)
(0.894401 0.4472 0)
(0.894401 0.4472 0)
(0.8944 0.4472 0)
(0.8944 0.4472 0)
(0.8944 0.4472 0)
(0.8944 0.4472 0)
(0.8944 0.4472 0)
(0.8944 0.4472 0)
(0.8944 0.4472 0)
(0.8944 0.4472 0)
(0.8944 0.4472 0)
(0.8944 0.4472 0)
(0.8944 0.4472 0)
(0.8944 0.4472 0)
(0.8944 0.4472 0)
(0.8944 0.4472 0)
(0.8944 0.4472 0)
(0.8944 0.4472 0)
(0.8944 0.4472 0)
(0.8944 0.4472 0)
(0.8944 0.4472 0)
(0.8944 0.4472 0)
(0.8944 0.4472 0)
(0.8944 0.4472 0)
(0.8944 0.4472 0)
(0.8944 0.4472 0)
(0.8944 0.4472 0)
(0.8944 0.4472 0)
(0.8944 0.4472 0)
(0.8944 0.4472 0)
(0.894401 0.4472 0)
(0.8944 0.4472 0)
(0.8944 0.447199 0)
(0.8944 0.447201 0)
(0.894401 0.447199 0)
(0.894399 0.447201 0)
(0.894401 0.4472 0)
(0.8944 0.447199 0)
(0.8944 0.447201 0)
(0.894401 0.4472 0)
(0.8944 0.447199 0)
(0.8944 0.447202 0)
(0.894402 0.447199 0)
(0.894402 0.447201 0)
(0.894403 0.447201 0)
(0.894405 0.447202 0)
(0.894406 0.447202 0)
(0.894412 0.447206 0)
(0.894414 0.447207 0)
(0.89442 0.447207 0)
(0.89443 0.447214 0)
(0.894437 0.447218 0)
(0.894448 0.447225 0)
(0.894461 0.447233 0)
(0.894472 0.44724 0)
(0.894481 0.447247 0)
(0.894481 0.447259 0)
(0.894471 0.447255 0)
(0.894434 0.447243 0)
(0.894356 0.447216 0)
(0.894217 0.447142 0)
(0.893988 0.447017 0)
(0.893619 0.446803 0)
(0.893063 0.446453 0)
(0.892259 0.445914 0)
(0.891126 0.445111 0)
(0.88958 0.443952 0)
(0.88755 0.44234 0)
(0.884996 0.440181 0)
(0.881955 0.43742 0)
(0.87862 0.434123 0)
(0.894404 0.447198 0)
(0.894403 0.447199 0)
(0.894402 0.447199 0)
(0.894401 0.447199 0)
(0.894401 0.4472 0)
(0.8944 0.4472 0)
(0.8944 0.4472 0)
(0.8944 0.4472 0)
(0.8944 0.4472 0)
(0.8944 0.4472 0)
(0.8944 0.4472 0)
(0.8944 0.4472 0)
(0.8944 0.4472 0)
(0.8944 0.4472 0)
(0.8944 0.4472 0)
(0.8944 0.4472 0)
(0.8944 0.4472 0)
(0.8944 0.4472 0)
(0.8944 0.4472 0)
(0.8944 0.4472 0)
(0.8944 0.4472 0)
(0.8944 0.4472 0)
(0.8944 0.4472 0)
(0.8944 0.4472 0)
(0.8944 0.4472 0)
(0.8944 0.4472 0)
(0.8944 0.4472 0)
(0.8944 0.4472 0)
(0.8944 0.4472 0)
(0.8944 0.4472 0)
(0.8944 0.4472 0)
(0.8944 0.4472 0)
(0.8944 0.4472 0)
(0.8944 0.4472 0)
(0.8944 0.4472 0)
(0.8944 0.447201 0)
(0.8944 0.447199 0)
(0.8944 0.4472 0)
(0.8944 0.447201 0)
(0.894401 0.447199 0)
(0.894399 0.4472 0)
(0.8944 0.4472 0)
(0.894401 0.4472 0)
(0.894398 0.447201 0)
(0.894402 0.4472 0)
(0.8944 0.4472 0)
(0.894401 0.447201 0)
(0.894403 0.4472 0)
(0.894402 0.447201 0)
(0.894405 0.447202 0)
(0.894406 0.447203 0)
(0.894408 0.447203 0)
(0.894414 0.447207 0)
(0.894419 0.447209 0)
(0.894423 0.447211 0)
(0.894435 0.447218 0)
(0.894443 0.447223 0)
(0.894455 0.447231 0)
(0.894464 0.44724 0)
(0.894475 0.447248 0)
(0.89448 0.447255 0)
(0.89447 0.447262 0)
(0.894447 0.447254 0)
(0.894389 0.447231 0)
(0.894281 0.447182 0)
(0.8941 0.447081 0)
(0.893808 0.446908 0)
(0.893364 0.446627 0)
(0.892713 0.446177 0)
(0.891786 0.445509 0)
(0.890518 0.444537 0)
(0.888836 0.443161 0)
(0.886681 0.441293 0)
(0.884049 0.438858 0)
(0.881034 0.435838 0)
(0.894403 0.447198 0)
(0.894402 0.447199 0)
(0.894402 0.447199 0)
(0.894401 0.4472 0)
(0.894401 0.4472 0)
(0.8944 0.4472 0)
(0.8944 0.4472 0)
(0.8944 0.4472 0)
(0.8944 0.4472 0)
(0.8944 0.4472 0)
(0.8944 0.4472 0)
(0.8944 0.4472 0)
(0.8944 0.4472 0)
(0.8944 0.4472 0)
(0.8944 0.4472 0)
(0.8944 0.4472 0)
(0.8944 0.4472 0)
(0.8944 0.4472 0)
(0.8944 0.4472 0)
(0.8944 0.4472 0)
(0.8944 0.4472 0)
(0.8944 0.4472 0)
(0.8944 0.4472 0)
(0.8944 0.4472 0)
(0.8944 0.4472 0)
(0.8944 0.4472 0)
(0.8944 0.4472 0)
(0.894401 0.4472 0)
(0.894399 0.4472 0)
(0.8944 0.4472 0)
(0.8944 0.4472 0)
(0.8944 0.4472 0)
(0.8944 0.4472 0)
(0.8944 0.4472 0)
(0.8944 0.4472 0)
(0.8944 0.4472 0)
(0.8944 0.4472 0)
(0.894399 0.4472 0)
(0.894401 0.447199 0)
(0.894399 0.4472 0)
(0.8944 0.4472 0)
(0.894401 0.4472 0)
(0.894399 0.4472 0)
(0.894401 0.4472 0)
(0.8944 0.4472 0)
(0.8944 0.4472 0)
(0.894401 0.447201 0)
(0.894402 0.4472 0)
(0.894402 0.447201 0)
(0.894403 0.447202 0)
(0.894406 0.447202 0)
(0.894407 0.447204 0)
(0.894412 0.447204 0)
(0.894415 0.447209 0)
(0.894424 0.447211 0)
(0.894427 0.447216 0)
(0.894441 0.447223 0)
(0.894449 0.447228 0)
(0.894457 0.447238 0)
(0.894469 0.447247 0)
(0.894472 0.447253 0)
(0.894472 0.447262 0)
(0.894453 0.44726 0)
(0.894411 0.447245 0)
(0.89433 0.447209 0)
(0.894188 0.447134 0)
(0.89396 0.446996 0)
(0.893607 0.446768 0)
(0.893087 0.446408 0)
(0.892342 0.445856 0)
(0.89131 0.445046 0)
(0.889932 0.443895 0)
(0.888143 0.442308 0)
(0.885914 0.4402 0)
(0.883284 0.43752 0)
(0.894403 0.447199 0)
(0.894402 0.447199 0)
(0.894401 0.447199 0)
(0.894401 0.4472 0)
(0.894401 0.4472 0)
(0.8944 0.4472 0)
(0.8944 0.4472 0)
(0.8944 0.4472 0)
(0.8944 0.4472 0)
(0.8944 0.4472 0)
(0.8944 0.4472 0)
(0.8944 0.4472 0)
(0.8944 0.4472 0)
(0.8944 0.4472 0)
(0.8944 0.4472 0)
(0.8944 0.4472 0)
(0.8944 0.4472 0)
(0.8944 0.4472 0)
(0.8944 0.4472 0)
(0.8944 0.4472 0)
(0.8944 0.4472 0)
(0.8944 0.4472 0)
(0.8944 0.4472 0)
(0.8944 0.4472 0)
(0.8944 0.4472 0)
(0.8944 0.4472 0)
(0.8944 0.4472 0)
(0.8944 0.4472 0)
(0.8944 0.4472 0)
(0.8944 0.4472 0)
(0.8944 0.4472 0)
(0.8944 0.4472 0)
(0.8944 0.4472 0)
(0.8944 0.4472 0)
(0.8944 0.4472 0)
(0.8944 0.4472 0)
(0.8944 0.4472 0)
(0.8944 0.4472 0)
(0.8944 0.4472 0)
(0.894401 0.4472 0)
(0.8944 0.4472 0)
(0.8944 0.4472 0)
(0.8944 0.447201 0)
(0.894402 0.447199 0)
(0.894399 0.447201 0)
(0.894401 0.447199 0)
(0.8944 0.4472 0)
(0.894402 0.447202 0)
(0.894403 0.4472 0)
(0.894402 0.447202 0)
(0.894405 0.447201 0)
(0.894407 0.447204 0)
(0.894409 0.447205 0)
(0.894414 0.447207 0)
(0.89442 0.447211 0)
(0.894425 0.447214 0)
(0.894433 0.44722 0)
(0.894444 0.447226 0)
(0.894452 0.447235 0)
(0.894461 0.447245 0)
(0.89447 0.447251 0)
(0.894466 0.447261 0)
(0.894458 0.447263 0)
(0.894428 0.447256 0)
(0.894365 0.447228 0)
(0.894257 0.447173 0)
(0.894081 0.447069 0)
(0.893802 0.446887 0)
(0.893389 0.446596 0)
(0.892796 0.446151 0)
(0.891968 0.445488 0)
(0.890852 0.444534 0)
(0.889389 0.443208 0)
(0.88754 0.441421 0)
(0.885302 0.4391 0)
(0.894403 0.447199 0)
(0.894402 0.447199 0)
(0.894401 0.447199 0)
(0.894401 0.4472 0)
(0.8944 0.4472 0)
(0.8944 0.4472 0)
(0.8944 0.4472 0)
(0.8944 0.4472 0)
(0.8944 0.4472 0)
(0.8944 0.4472 0)
(0.8944 0.4472 0)
(0.8944 0.4472 0)
(0.8944 0.4472 0)
(0.8944 0.4472 0)
(0.8944 0.4472 0)
(0.8944 0.4472 0)
(0.8944 0.4472 0)
(0.8944 0.4472 0)
(0.8944 0.4472 0)
(0.8944 0.4472 0)
(0.8944 0.4472 0)
(0.8944 0.4472 0)
(0.8944 0.4472 0)
(0.8944 0.4472 0)
(0.8944 0.4472 0)
(0.8944 0.4472 0)
(0.8944 0.4472 0)
(0.8944 0.4472 0)
(0.8944 0.4472 0)
(0.8944 0.4472 0)
(0.8944 0.4472 0)
(0.8944 0.4472 0)
(0.8944 0.447201 0)
(0.8944 0.447199 0)
(0.8944 0.4472 0)
(0.8944 0.4472 0)
(0.8944 0.4472 0)
(0.8944 0.447201 0)
(0.8944 0.447199 0)
(0.8944 0.447201 0)
(0.8944 0.4472 0)
(0.894401 0.447199 0)
(0.894399 0.447201 0)
(0.8944 0.4472 0)
(0.894401 0.447199 0)
(0.894399 0.447201 0)
(0.894402 0.447199 0)
(0.8944 0.4472 0)
(0.894401 0.447201 0)
(0.894403 0.447201 0)
(0.894403 0.447202 0)
(0.894406 0.447203 0)
(0.894408 0.447205 0)
(0.894412 0.447207 0)
(0.894416 0.447209 0)
(0.894423 0.447213 0)
(0.894429 0.447218 0)
(0.894435 0.447225 0)
(0.894451 0.447232 0)
(0.894452 0.447241 0)
(0.894461 0.44725 0)
(0.894466 0.447258 0)
(0.894457 0.447264 0)
(0.894436 0.44726 0)
(0.894391 0.447243 0)
(0.894308 0.447205 0)
(0.894173 0.447125 0)
(0.893957 0.446983 0)
(0.893632 0.446756 0)
(0.893165 0.446398 0)
(0.892508 0.44586 0)
(0.891611 0.445083 0)
(0.89043 0.443991 0)
(0.888924 0.4425 0)
(0.887062 0.440533 0)
(0.894402 0.447199 0)
(0.894402 0.447199 0)
(0.894401 0.447199 0)
(0.894401 0.4472 0)
(0.8944 0.4472 0)
(0.8944 0.4472 0)
(0.8944 0.4472 0)
(0.8944 0.4472 0)
(0.8944 0.4472 0)
(0.8944 0.4472 0)
(0.8944 0.4472 0)
(0.8944 0.4472 0)
(0.8944 0.4472 0)
(0.8944 0.4472 0)
(0.8944 0.4472 0)
(0.8944 0.4472 0)
(0.8944 0.4472 0)
(0.8944 0.4472 0)
(0.8944 0.4472 0)
(0.8944 0.4472 0)
(0.8944 0.4472 0)
(0.8944 0.4472 0)
(0.8944 0.4472 0)
(0.8944 0.4472 0)
(0.8944 0.4472 0)
(0.8944 0.4472 0)
(0.8944 0.4472 0)
(0.8944 0.4472 0)
(0.8944 0.4472 0)
(0.8944 0.4472 0)
(0.8944 0.4472 0)
(0.8944 0.447199 0)
(0.8944 0.4472 0)
(0.8944 0.4472 0)
(0.894399 0.4472 0)
(0.894401 0.4472 0)
(0.894399 0.4472 0)
(0.8944 0.4472 0)
(0.8944 0.4472 0)
(0.8944 0.4472 0)
(0.8944 0.4472 0)
(0.8944 0.4472 0)
(0.8944 0.447201 0)
(0.894399 0.4472 0)
(0.894401 0.4472 0)
(0.8944 0.4472 0)
(0.894401 0.447201 0)
(0.894401 0.447199 0)
(0.894401 0.447202 0)
(0.894403 0.4472 0)
(0.894405 0.447201 0)
(0.894402 0.447205 0)
(0.894409 0.447202 0)
(0.894411 0.447206 0)
(0.894413 0.447209 0)
(0.894419 0.447212 0)
(0.894426 0.447216 0)
(0.894432 0.447223 0)
(0.894438 0.447229 0)
(0.894451 0.447239 0)
(0.894453 0.447246 0)
(0.894459 0.447255 0)
(0.894456 0.447262 0)
(0.894439 0.447263 0)
(0.89441 0.447253 0)
(0.894346 0.447224 0)
(0.894241 0.447167 0)
(0.894079 0.447061 0)
(0.893826 0.446882 0)
(0.893458 0.446601 0)
(0.892944 0.446172 0)
(0.892233 0.445545 0)
(0.89129 0.444656 0)
(0.890079 0.443433 0)
(0.888561 0.441799 0)
(0.894402 0.447199 0)
(0.894401 0.447199 0)
(0.894401 0.4472 0)
(0.894401 0.4472 0)
(0.8944 0.4472 0)
(0.8944 0.4472 0)
(0.8944 0.4472 0)
(0.8944 0.4472 0)
(0.8944 0.4472 0)
(0.8944 0.4472 0)
(0.8944 0.4472 0)
(0.8944 0.4472 0)
(0.8944 0.4472 0)
(0.8944 0.4472 0)
(0.8944 0.4472 0)
(0.8944 0.4472 0)
(0.8944 0.4472 0)
(0.8944 0.4472 0)
(0.8944 0.4472 0)
(0.8944 0.4472 0)
(0.8944 0.4472 0)
(0.8944 0.4472 0)
(0.8944 0.4472 0)
(0.8944 0.4472 0)
(0.8944 0.4472 0)
(0.8944 0.4472 0)
(0.8944 0.4472 0)
(0.8944 0.4472 0)
(0.8944 0.4472 0)
(0.8944 0.4472 0)
(0.8944 0.4472 0)
(0.8944 0.447201 0)
(0.8944 0.4472 0)
(0.8944 0.4472 0)
(0.8944 0.447201 0)
(0.8944 0.447199 0)
(0.8944 0.4472 0)
(0.894399 0.4472 0)
(0.894402 0.447201 0)
(0.894398 0.4472 0)
(0.894402 0.447198 0)
(0.894399 0.447202 0)
(0.8944 0.447199 0)
(0.894401 0.4472 0)
(0.894399 0.447201 0)
(0.894401 0.447199 0)
(0.894401 0.447201 0)
(0.894401 0.447201 0)
(0.894401 0.447199 0)
(0.894402 0.447201 0)
(0.894402 0.447202 0)
(0.894404 0.447203 0)
(0.894407 0.447203 0)
(0.894408 0.447205 0)
(0.894411 0.447208 0)
(0.894419 0.44721 0)
(0.894419 0.447214 0)
(0.894429 0.447221 0)
(0.894433 0.447226 0)
(0.894444 0.447233 0)
(0.894448 0.447244 0)
(0.894451 0.447252 0)
(0.894451 0.447256 0)
(0.894444 0.447264 0)
(0.894418 0.447259 0)
(0.894371 0.447239 0)
(0.894296 0.447198 0)
(0.894169 0.447119 0)
(0.893975 0.446983 0)
(0.893691 0.446763 0)
(0.893287 0.446426 0)
(0.892735 0.445928 0)
(0.891991 0.445214 0)
(0.891024 0.444224 0)
(0.889808 0.442888 0)
(0.894402 0.447199 0)
(0.894401 0.447199 0)
(0.894401 0.4472 0)
(0.8944 0.4472 0)
(0.8944 0.4472 0)
(0.8944 0.4472 0)
(0.8944 0.4472 0)
(0.8944 0.4472 0)
(0.8944 0.4472 0)
(0.8944 0.4472 0)
(0.8944 0.4472 0)
(0.8944 0.4472 0)
(0.8944 0.4472 0)
(0.8944 0.4472 0)
(0.8944 0.4472 0)
(0.8944 0.4472 0)
(0.8944 0.4472 0)
(0.8944 0.4472 0)
(0.8944 0.4472 0)
(0.8944 0.4472 0)
(0.8944 0.4472 0)
(0.8944 0.4472 0)
(0.8944 0.4472 0)
(0.8944 0.4472 0)
(0.8944 0.4472 0)
(0.8944 0.4472 0)
(0.8944 0.4472 0)
(0.8944 0.4472 0)
(0.8944 0.4472 0)
(0.8944 0.4472 0)
(0.8944 0.447199 0)
(0.8944 0.4472 0)
(0.8944 0.4472 0)
(0.8944 0.4472 0)
(0.8944 0.4472 0)
(0.894401 0.4472 0)
(0.894399 0.4472 0)
(0.894401 0.4472 0)
(0.894399 0.4472 0)
(0.894401 0.447201 0)
(0.8944 0.447199 0)
(0.894399 0.4472 0)
(0.894401 0.447201 0)
(0.894399 0.447199 0)
(0.894402 0.447201 0)
(0.894399 0.4472 0)
(0.894401 0.4472 0)
(0.8944 0.447201 0)
(0.8944 0.447201 0)
(0.894403 0.4472 0)
(0.894402 0.447202 0)
(0.894404 0.447201 0)
(0.894404 0.447204 0)
(0.894408 0.447204 0)
(0.89441 0.447207 0)
(0.894413 0.447209 0)
(0.894419 0.447213 0)
(0.894423 0.447218 0)
(0.894431 0.447224 0)
(0.894435 0.44723 0)
(0.894443 0.447239 0)
(0.894444 0.447247 0)
(0.894449 0.447254 0)
(0.89444 0.447259 0)
(0.894425 0.44726 0)
(0.894392 0.447249 0)
(0.894332 0.447219 0)
(0.894237 0.447161 0)
(0.89409 0.447059 0)
(0.893873 0.446892 0)
(0.893561 0.44663 0)
(0.893131 0.446239 0)
(0.892553 0.445674 0)
(0.891792 0.444883 0)
(0.890827 0.443806 0)
(0.894401 0.447199 0)
(0.894401 0.4472 0)
(0.894401 0.4472 0)
(0.8944 0.4472 0)
(0.8944 0.4472 0)
(0.8944 0.4472 0)
(0.8944 0.4472 0)
(0.8944 0.4472 0)
(0.8944 0.4472 0)
(0.8944 0.4472 0)
(0.8944 0.4472 0)
(0.8944 0.4472 0)
(0.8944 0.4472 0)
(0.8944 0.4472 0)
(0.8944 0.4472 0)
(0.8944 0.4472 0)
(0.8944 0.4472 0)
(0.8944 0.4472 0)
(0.8944 0.4472 0)
(0.8944 0.4472 0)
(0.8944 0.4472 0)
(0.8944 0.4472 0)
(0.8944 0.4472 0)
(0.8944 0.4472 0)
(0.8944 0.4472 0)
(0.8944 0.4472 0)
(0.8944 0.4472 0)
(0.8944 0.4472 0)
(0.8944 0.4472 0)
(0.8944 0.447201 0)
(0.8944 0.4472 0)
(0.894399 0.4472 0)
(0.8944 0.4472 0)
(0.8944 0.447199 0)
(0.8944 0.4472 0)
(0.8944 0.4472 0)
(0.8944 0.4472 0)
(0.894401 0.4472 0)
(0.894399 0.4472 0)
(0.894401 0.4472 0)