/*--------------------------------*- C++ -*----------------------------------*\
  =========                 |
  \\      /  F ield         | OpenFOAM: The Open Source CFD Toolbox
   \\    /   O peration     | Website:  https://openfoam.org
    \\  /    A nd           | Version:  6
     \\/     M anipulation  |
\*---------------------------------------------------------------------------*/
FoamFile
{
    version     2.0;
    format      ascii;
    class       volScalarField;
    location    "1.64";
    object      p;
}
// * * * * * * * * * * * * * * * * * * * * * * * * * * * * * * * * * * * * * //

dimensions      [1 -1 -2 0 0 0 0];

internalField   nonuniform List<scalar> 
10000
(
1
1
1
1
1
1
1
1
1
1
1
1
1
1
1
1
1
1
1
1
1
1
1
1
1
1
1
1
1
1
1
1
1
1
1
1
1
1
1
1
1
1
1
1
1
1
1
1
1
1
1
1
1
1
1
1
1
1
1
1
1
1
1
1
1
1
1
1
1
1
1
1
1
1
1
1
1
1
1
1
1
1
1
1
1
1
1
1
1
1
1
1
1
1
1
1
1
1
1
1
1
1
1
1
1
1
1
1
1
1
1
1
1
1
1
1
1
1
1
1
1
1
1
1
1
1
1
1
1
1
1
1
1
1
1
1
1
1
1
1
1
1
1
1
1
1
1
1
1
1
1
1
1
1
1
1
1
1
1
1
1
1
1
1
1
1
1
1
1
1
1
1
1
1
1
1
1
1
1
1
1
1
1
1
1
1
1
1
1
1
1
1
1
1
1
1
1
1
1
1
1
1
1
1
1
1
1
1
1
1
1
1
1
1
1
1
1
1
1
1
1
1
1
1
1
1
1
1
1
1
1
1
1
1
1
1
1
1
1
1
1
1
1
1
1
1
1
1
1
1
1
1
1
1
1
1
1
1
1
1
1
1
1
1
1
1
1
1
1
1
1
1
1
1
1
1
1
1
1
1
1
1
1
1
1
1
1
1
1
1
1
1
1
1
1
1
1
1
1
1
1
1
1
1
1
1
1
1
1
1
1
1
1
1
1
1
1
1
1
1
1
1
1
1
1
1
1
1
1
1
1
1
1
1
1
1
1
1
1
1
1
1
1
1
1
1
1
1
1
1
1
1
1
1
1
1
1
1
1
1
1
1
1
1
1
1
1
1
1
1
1
1
1
1
1
1
1
1
1
1
1
1
1
1
1
1
1
1
1
1
1
1
1
1
1
1
1
1
1
1
1
1
1
1
1
1
1
1
1
1
1
1
1
1
1
1
1
1
1
1
1
1
1
1
1
1
1
1
1
1
1
1
1
1
1
1
1
1
1
1
1
1
1
1
1
1
1
1
0.999999
0.999999
0.999999
0.999999
0.999999
0.999999
0.999999
1
1
1
1
1
1
1
1
1
1
1
1
1
1
1
1
1
1
1
1
1
1
1
1
1
1
1
1
1
1
1
1
1
1
1
1
1
1
1
1
1
1
1
1
1
1
1
1
1
1
1
1
1
1
1
1
1
1
1
1
1
1
1
1
1
1
1
1
1
1
1
1
1
1
1
1
1
1
1
1
1
1
1
1
1
1
1
1
1
1
1
0.999999
0.999999
0.999999
0.999999
0.999999
0.999999
0.999999
0.999999
0.999999
0.999999
1
1
1
1
1
1
1
1
1
1
1
1
1
1
1
1
1
1
1
1
1
1
1
1
1
1
1
1
1
1
1
1
1
1
1
1
1
1
1
1
1
1
1
1
1
1
1
1
1
1
1
1
1
1
1
1
1
1
1
1
1
1
1
1
1
1
1
1
1
1
1
1
1
1
1
1
1
1
1
1
1
1
1
1
1
1
1
0.999999
1
0.999999
0.999999
0.999999
0.999998
0.999998
0.999998
0.999998
0.999998
0.999998
0.999998
0.999999
1
1
1
1
1
1
1
1
1
1
1
1
1
1
1
1
1
1
1
1
1
1
1
1
1
1
1
1
1
1
1
1
1
1
1
1
1
1
1
1
1
1
1
1
1
1
1
1
1
1
1
1
1
1
1
1
1
1
1
1
1
1
1
1
1
1
1
1
1
1
1
1
1
1
1
1
1
1
1
1
1
1
1
1
1
1
1
0.999999
0.999999
0.999999
0.999998
0.999998
0.999997
0.999997
0.999996
0.999996
0.999996
0.999996
0.999997
0.999998
0.999999
1
1
1
1
1
1
1
1
1
1
1
1
1
1
1
1
1
1
1
1
1
1
1
1
1
1
1
1
1
1
1
1
1
1
1
1
1
1
1
1
1
1
1
1
1
1
1
1
1
1
1
1
1
1
1
1
1
1
1
1
1
1
1
1
1
1
1
1
1
1
1
1
1
1
1
1
1
1
1
1
1
1
1
1
0.999999
0.999999
0.999999
0.999999
0.999998
0.999997
0.999996
0.999995
0.999994
0.999993
0.999993
0.999993
0.999994
0.999995
0.999997
0.999999
1
1
1
1.00001
1.00001
1.00001
1.00001
1.00001
1
1
1
1
1
1
1
1
1
1
1
1
1
1
1
1
1
1
1
1
1
1
1
1
1
1
1
1
1
1
1
1
1
1
1
1
1
1
1
1
1
1
1
1
1
1
1
1
1
1
1
1
1
1
1
1
1
1
1
1
1
1
1
1
1
1
1
1
1
1
1
1
1
1
1
1
0.999999
0.999999
0.999999
0.999998
0.999997
0.999995
0.999994
0.999992
0.999991
0.999989
0.999988
0.999989
0.99999
0.999992
0.999995
0.999998
1
1
1.00001
1.00001
1.00001
1.00001
1.00001
1.00001
1.00001
1.00001
1.00001
1
1
1
1
1
1
1
1
1
1
1
1
1
1
1
1
1
1
1
1
1
1
1
1
1
1
1
1
1
1
1
1
1
1
1
1
1
1
1
1
1
1
1
1
1
1
1
1
1
1
1
1
1
1
1
1
1
1
1
1
1
1
1
1
1
1
1
1
1
1
1
1
1
0.999999
0.999999
0.999998
0.999997
0.999995
0.999993
0.99999
0.999987
0.999985
0.999983
0.999982
0.999982
0.999984
0.999987
0.999992
0.999997
1
1.00001
1.00001
1.00002
1.00002
1.00002
1.00002
1.00002
1.00001
1.00001
1.00001
1.00001
1
1
1
1
1
1
1
1
1
1
1
1
1
1
1
1
1
1
1
1
1
1
1
1
1
1
1
1
1
1
1
1
1
1
1
1
1
1
1
1
1
1
1
1
1
1
1
1
1
1
1
1
1
1
1
1
1
1
1
1
1
1
1
1
1
1
1
1
1
1
1
1
0.999999
0.999998
0.999997
0.999995
0.999992
0.999988
0.999984
0.99998
0.999977
0.999974
0.999972
0.999972
0.999975
0.99998
0.999987
0.999995
1
1.00001
1.00002
1.00002
1.00003
1.00003
1.00003
1.00002
1.00002
1.00002
1.00001
1.00001
1.00001
1
1
1
1
1
1
1
1
1
1
1
1
1
1
1
1
1
1
1
1
1
1
1
1
1
1
1
1
1
1
1
1
1
1
1
1
1
1
1
1
1
1
1
1
1
1
1
1
1
1
1
1
1
1
1
1
1
1
1
1
1
1
1
1
1
1
1
1
1
1
0.999999
0.999999
0.999998
0.999995
0.999992
0.999988
0.999983
0.999977
0.99997
0.999964
0.99996
0.999957
0.999958
0.999963
0.99997
0.999981
0.999994
1.00001
1.00002
1.00003
1.00004
1.00004
1.00004
1.00004
1.00004
1.00003
1.00003
1.00002
1.00001
1.00001
1.00001
1
1
1
1
1
1
1
1
1
1
1
1
1
1
1
1
1
1
1
1
1
1
1
1
1
1
1
1
1
1
1
1
1
1
1
1
1
1
1
1
1
1
1
1
1
1
1
1
1
1
1
1
1
1
1
1
1
1
1
1
1
1
1
1
1
1
1
1
1
0.999999
0.999998
0.999997
0.999993
0.999988
0.999982
0.999974
0.999965
0.999955
0.999947
0.99994
0.999937
0.999939
0.999945
0.999957
0.999973
0.999993
1.00001
1.00003
1.00005
1.00006
1.00007
1.00007
1.00006
1.00006
1.00005
1.00004
1.00003
1.00002
1.00002
1.00001
1.00001
1
1
1
1
1
1
1
1
1
1
1
1
1
1
1
1
1
1
1
1
1
1
1
1
1
1
1
1
1
1
1
1
1
1
1
1
1
1
1
1
1
1
1
1
1
1
1
1
1
1
1
1
1
1
1
1
1
1
1
1
1
1
1
1
1
1
1
1
1
0.999997
0.999995
0.99999
0.999983
0.999974
0.999962
0.999949
0.999936
0.999923
0.999914
0.99991
0.999912
0.999922
0.999941
0.999965
0.999993
1.00002
1.00005
1.00007
1.00009
1.0001
1.0001
1.00009
1.00008
1.00007
1.00006
1.00004
1.00003
1.00002
1.00001
1.00001
1
1
1
1
1
1
1
1
1
1
1
1
1
1
1
1
1
1
1
1
1
1
1
1
1
1
1
1
1
1
1
1
1
1
1
1
1
1
1
1
1
1
1
1
1
1
1
1
1
1
1
1
1
1
1
1
1
1
1
1
1
1
1
1
1
1
1
1
1
0.999998
0.999993
0.999987
0.999977
0.999964
0.999947
0.999929
0.999909
0.999892
0.99988
0.999875
0.99988
0.999897
0.999923
0.999959
0.999999
1.00004
1.00008
1.00011
1.00014
1.00015
1.00015
1.00014
1.00012
1.0001
1.00008
1.00006
1.00005
1.00003
1.00002
1.00001
1.00001
1
1
1
1
1
1
1
1
1
1
1
1
1
1
1
1
1
1
1
1
1
1
1
1
1
1
1
1
1
1
1
1
1
1
1
1
1
1
1
1
1
1
1
1
1
1
1
1
1
1
1
1
1
1
1
1
1
1
1
1
1
1
1
1
1
1
1
1
0.999997
0.999992
0.999982
0.999969
0.999951
0.999928
0.999902
0.999876
0.999854
0.999839
0.999834
0.999845
0.99987
0.99991
0.999961
1.00002
1.00008
1.00013
1.00017
1.0002
1.00022
1.00022
1.0002
1.00018
1.00015
1.00012
1.00009
1.00006
1.00004
1.00003
1.00002
1.00001
1
1
1
0.999999
0.999999
0.999999
0.999999
1
1
1
1
1
1
1
1
1
1
1
1
1
1
1
1
1
1
1
1
1
1
1
1
1
1
1
1
1
1
1
1
1
1
1
1
1
1
1
1
1
1
1
1
1
1
1
1
1
1
1
1
1
1
1
1
1
1
1
1
1
0.999998
0.999991
0.999978
0.99996
0.999935
0.999905
0.999871
0.999838
0.99981
0.999794
0.999793
0.999812
0.999853
0.999912
0.999985
1.00007
1.00015
1.00022
1.00027
1.00031
1.00032
1.00031
1.00029
1.00025
1.00021
1.00016
1.00012
1.00009
1.00006
1.00004
1.00002
1.00001
1
1
0.999998
0.999998
0.999998
0.999999
0.999999
0.999999
1
1
1
1
1
1
1
1
1
1
1
1
1
1
1
1
1
1
1
1
1
1
1
1
1
1
1
1
1
1
1
1
1
1
1
1
1
1
1
1
1
1
1
1
1
1
1
1
1
1
1
1
1
1
1
1
1
1.00001
1.00001
1.00001
1
0.999991
0.999975
0.999951
0.999918
0.999879
0.999837
0.999797
0.999767
0.999753
0.999762
0.999798
0.999862
0.99995
1.00005
1.00017
1.00027
1.00036
1.00043
1.00047
1.00047
1.00045
1.00041
1.00036
1.00029
1.00023
1.00017
1.00012
1.00008
1.00004
1.00002
1.00001
1
0.999998
0.999996
0.999996
0.999997
0.999998
0.999998
0.999999
0.999999
1
1
1
1
1
1
1
1
1
1
1
1
1
1
1
1
1
1
1
1
1
1
1
1
1
1
1
1
1
1
1
1
1
1
1
1
1
1
1
1
1
1
1
1
1
1
1
1
1
1
1
1
1
1
1
1.00001
1.00001
1.00001
1.00001
1
0.999993
0.999973
0.999943
0.999902
0.999855
0.999806
0.999762
0.999734
0.999731
0.999762
0.999828
0.999931
1.00006
1.00021
1.00036
1.0005
1.00061
1.00069
1.00072
1.00071
1.00066
1.00059
1.0005
1.0004
1.00031
1.00023
1.00015
1.0001
1.00006
1.00003
1.00001
0.999999
0.999995
0.999993
0.999994
0.999995
0.999996
0.999997
0.999998
0.999999
0.999999
1
1
1
1
1
1
1
1
1
1
1
1
1
1
1
1
1
1
1
1
1
1
1
1
1
1
1
1
1
1
1
1
1
1
1
1
1
1
1
1
1
1
1
1
1
1
1
1
1
1
1
1
1
1.00001
1.00001
1.00002
1.00002
1.00002
1.00001
0.999999
0.999975
0.999939
0.999892
0.999837
0.999785
0.999746
0.999732
0.999757
0.999828
0.999949
1.00011
1.00031
1.00052
1.00072
1.0009
1.00103
1.0011
1.00111
1.00107
1.00098
1.00085
1.00071
1.00056
1.00042
1.0003
1.0002
1.00012
1.00007
1.00003
1.00001
0.999994
0.999989
0.999988
0.999989
0.999992
0.999994
0.999996
0.999997
0.999998
0.999999
0.999999
1
1
1
1
1
1
1
1
1
1
1
1
1
1
1
1
1
1
1
1
1
1
1
1
1
1
1
1
1
1
1
1
1
1
1
1
1
1
1
1
1
1
1
1
1
1
1
1
1
1
1
1.00001
1.00001
1.00002
1.00002
1.00003
1.00003
1.00002
1.00001
0.999984
0.999944
0.999892
0.999838
0.999792
0.999772
0.999795
0.999876
1.00002
1.00023
1.00049
1.00079
1.00109
1.00136
1.00158
1.00172
1.00178
1.00174
1.00163
1.00145
1.00124
1.00101
1.00078
1.00058
1.0004
1.00026
1.00016
1.00008
1.00003
1
0.999986
0.99998
0.99998
0.999983
0.999987
0.99999
0.999993
0.999996
0.999997
0.999998
0.999999
1
1
1
1
1
1
1
1
1
1
1
1
1
1
1
1
1
1
1
1
1
1
1
1
1
1
1
1
1
1
1
1
1
1
1
1
1
1
1
1
1
1
1
1
1
1
1
1
1
1
1.00001
1.00001
1.00002
1.00003
1.00003
1.00004
1.00005
1.00005
1.00003
1
0.999964
0.999915
0.999871
0.999852
0.99988
0.999977
1.00016
1.00043
1.00079
1.0012
1.00164
1.00206
1.00242
1.00269
1.00284
1.00285
1.00272
1.00249
1.00217
1.00181
1.00145
1.0011
1.0008
1.00055
1.00035
1.0002
1.00009
1.00003
0.999991
0.999972
0.999967
0.999969
0.999974
0.99998
0.999986
0.99999
0.999994
0.999996
0.999998
0.999999
0.999999
1
1
1
1
1
1
1
1
1
1
1
1
1
1
1
1
1
1
1
1
1
1
1
1
1
1
1
1
1
1
1
1
1
1
1
1
1
1
1
1
1
1
1
1
1
1
1
1
1.00001
1.00001
1.00002
1.00003
1.00004
1.00005
1.00006
1.00007
1.00008
1.00007
1.00004
1.00001
0.999975
0.999964
1
1.00012
1.00035
1.00071
1.00118
1.00176
1.0024
1.00304
1.00363
1.00411
1.00444
1.00457
1.0045
1.00423
1.0038
1.00327
1.00268
1.00211
1.00158
1.00112
1.00075
1.00046
1.00025
1.00011
1.00003
0.999976
0.999954
0.999949
0.999953
0.999962
0.999971
0.999979
0.999986
0.999991
0.999994
0.999997
0.999998
0.999999
1
1
1
1
1
1
1
1
1
1
1
1
1
1
1
1
1
1
1
1
1
1
1
1
1
1
1
1
1
1
1
1
1
1
1
1
1
1
1
1
1
1
1
1
1
1
1
1
1.00001
1.00001
1.00002
1.00004
1.00005
1.00007
1.00009
1.00011
1.00012
1.00012
1.00011
1.00009
1.0001
1.00015
1.0003
1.00059
1.00104
1.00166
1.00245
1.00335
1.0043
1.00522
1.00603
1.00666
1.00705
1.00716
1.00696
1.00647
1.00576
1.0049
1.00398
1.00308
1.00227
1.00159
1.00104
1.00063
1.00034
1.00014
1.00002
0.999957
0.999929
0.999924
0.999932
0.999945
0.999959
0.999971
0.99998
0.999987
0.999992
0.999995
0.999997
0.999999
0.999999
1
1
1
1
1
1
1
1
1
1
1
1
1
1
1
1
1
1
1
1
1
1
1
1
1
1
1
1
1
1
1
1
1
1
1
1
1
1
1
1
1
1
1
1
1
1
1.00001
1.00001
1.00002
1.00003
1.00005
1.00007
1.0001
1.00013
1.00016
1.00018
1.00019
1.00021
1.00023
1.00031
1.00049
1.00082
1.00137
1.00216
1.00319
1.00441
1.00576
1.00712
1.0084
1.0095
1.01031
1.01078
1.01083
1.01046
1.00969
1.00858
1.00726
1.00586
1.00451
1.0033
1.00228
1.00148
1.00088
1.00046
1.00019
1.00002
0.999934
0.999898
0.999893
0.999905
0.999923
0.999942
0.999959
0.999973
0.999982
0.999989
0.999993
0.999996
0.999998
0.999999
0.999999
1
1
1
1
1
1
1
1
1
1
1
1
1
1
1
1
1
1
1
1
1
1
1
1
1
1
1
1
1
1
1
1
1
1
1
1
1
1
1
1
1
1
1
1
1
1.00001
1.00001
1.00003
1.00004
1.00007
1.0001
1.00014
1.00018
1.00022
1.00026
1.0003
1.00036
1.00046
1.00066
1.00104
1.00167
1.00261
1.00389
1.00549
1.0073
1.00921
1.01107
1.01277
1.01417
1.01519
1.01574
1.01576
1.0152
1.01407
1.01248
1.01057
1.00853
1.00655
1.00478
1.00329
1.00213
1.00126
1.00066
1.00027
1.00003
0.999912
0.999862
0.999855
0.999871
0.999896
0.999922
0.999945
0.999963
0.999976
0.999985
0.999991
0.999995
0.999997
0.999999
0.999999
1
1
1
1
1
1
1
1
1
1
1
1
1
1
1
1
1
1
1
1
1
1
1
1
1
1
1
1
1
1
1
1
1
1
1
1
1
1
1
1
1
1
1
1
1.00001
1.00001
1.00002
1.00003
1.00006
1.00009
1.00013
1.00018
1.00024
1.0003
1.00037
1.00046
1.00058
1.0008
1.0012
1.00188
1.00295
1.00446
1.00642
1.00874
1.01127
1.01381
1.0162
1.01829
1.01998
1.02118
1.02183
1.02183
1.02113
1.01969
1.01758
1.01498
1.01216
1.00937
1.00685
1.00473
1.00306
1.00182
1.00096
1.0004
1.00007
0.999896
0.999823
0.999812
0.999832
0.999864
0.999898
0.999928
0.999951
0.999969
0.999981
0.999988
0.999993
0.999996
0.999998
0.999999
1
1
1
1
1
1
1
1
1
1
1
1
1
1
1
1
1
1
1
1
1
1
1
1
1
1
1
1
1
1
1
1
1
1
1
1
1
1
1
1
1
1
1
1
1.00001
1.00001
1.00003
1.00004
1.00007
1.00011
1.00017
1.00023
1.00031
1.0004
1.00051
1.00066
1.0009
1.0013
1.00199
1.00312
1.0048
1.00708
1.00989
1.01307
1.01636
1.01949
1.02228
1.0246
1.02642
1.0277
1.02842
1.0285
1.02782
1.02624
1.02375
1.02051
1.01684
1.01311
1.00966
1.00671
1.00436
1.00262
1.00141
1.00062
1.00015
0.999896
0.999789
0.999766
0.999787
0.999827
0.99987
0.999908
0.999938
0.99996
0.999975
0.999985
0.999991
0.999995
0.999997
0.999999
0.999999
1
1
1
1
1
1
1
1
1
1
1
1
1
1
1
1
1
1
1
1
1
1
1
1
1
1
1
1
1
1
1
1
1
1
1
1
1
1
1
1
1
1
1
1.00001
1.00002
1.00003
1.00006
1.00009
1.00014
1.00021
1.00029
1.0004
1.00053
1.00069
1.00094
1.00133
1.002
1.00311
1.00485
1.00734
1.01058
1.01439
1.01845
1.02236
1.0258
1.02859
1.03072
1.03226
1.03335
1.03409
1.03442
1.03412
1.03287
1.03044
1.02686
1.02248
1.01778
1.01327
1.00933
1.00614
1.00374
1.00205
1.00095
1.00028
0.999925
0.999764
0.999721
0.999741
0.999786
0.999838
0.999884
0.999922
0.99995
0.999969
0.999981
0.999989
0.999994
0.999997
0.999998
0.999999
1
1
1
1
1
1
1
1
1
1
1
1
1
1
1
1
1
1
1
1
1
1
1
1
1
1
1
1
1
1
1
1
1
1
1
1
1
1
1
1
1
1
1.00001
1.00001
1.00002
1.00004
1.00007
1.00011
1.00017
1.00026
1.00036
1.0005
1.00068
1.00092
1.00129
1.00191
1.00295
1.00463
1.00717
1.01067
1.01502
1.01984
1.02458
1.02867
1.03175
1.03373
1.0348
1.03534
1.03576
1.03637
1.03722
1.03794
1.03787
1.0364
1.03324
1.02864
1.02321
1.01768
1.01263
1.00844
1.00523
1.00295
1.00143
1.00051
0.999999
0.99976
0.999684
0.999694
0.999744
0.999804
0.99986
0.999905
0.999938
0.999962
0.999977
0.999987
0.999993
0.999996
0.999998
0.999999
1
1
1
1
1
1
1
1
1
1
1
1
1
1
1
1
1
1
1
1
1
1
1
1
1
1
1
1
1
1
1
1
1
1
1
1
1
1
1
1
1
1
1.00001
1.00001
1.00003
1.00005
1.00008
1.00013
1.00021
1.00031
1.00044
1.00062
1.00085
1.0012
1.00175
1.00267
1.00419
1.00661
1.01014
1.01482
1.0203
1.02591
1.03078
1.03413
1.03563
1.03542
1.03408
1.03245
1.03143
1.03169
1.03342
1.03611
1.03861
1.0396
1.03824
1.03446
1.02893
1.02266
1.01656
1.01129
1.00714
1.00413
1.0021
1.00084
1.00013
0.999788
0.999661
0.999654
0.999703
0.99977
0.999834
0.999886
0.999926
0.999954
0.999973
0.999984
0.999991
0.999995
0.999997
0.999999
0.999999
1
1
1
1
1
1
1
1
1
1
1
1
1
1
1
1
1
1
1
1
1
1
1
1
1
1
1
1
1
1
1
1
1
1
1
1
1
1
1
1
1
1.00001
1.00002
1.00003
1.00006
1.0001
1.00016
1.00024
1.00036
1.00053
1.00075
1.00106
1.00153
1.00231
1.00362
1.00577
1.00909
1.01378
1.01968
1.02613
1.03197
1.03591
1.03702
1.03508
1.03065
1.02496
1.01959
1.01612
1.01572
1.01882
1.02472
1.03164
1.03726
1.03978
1.03854
1.03411
1.02777
1.02092
1.01462
1.00947
1.00562
1.00298
1.00131
1.00035
0.999858
0.999661
0.999625
0.999667
0.999737
0.999808
0.999868
0.999914
0.999946
0.999968
0.999981
0.99999
0.999994
0.999997
0.999998
0.999999
1
1
1
1
1
1
1
1
1
1
1
1
1
1
1
1
1
1
1
1
1
1
1
1
1
1
1
1
1
1
1
1
1
1
1
1
1
1
1
1
1
1.00001
1.00002
1.00004
1.00006
1.00011
1.00018
1.00028
1.00042
1.00061
1.00088
1.00128
1.00192
1.00299
1.00479
1.00769
1.01206
1.01799
1.02503
1.03197
1.03702
1.03841
1.03512
1.02724
1.01602
1.00365
0.992741
0.985713
0.984343
0.989336
0.999853
1.01336
1.02629
1.03543
1.03912
1.03758
1.03233
1.02534
1.01827
1.01214
1.00741
1.00408
1.00192
1.00065
0.999983
0.999691
0.999612
0.99964
0.999709
0.999785
0.999851
0.999902
0.999939
0.999963
0.999979
0.999988
0.999994
0.999997
0.999998
0.999999
1
1
1
1
1
1
1
1
1
1
1
1
1
1
1
1
1
1
1
1
1
1
1
1
1
1
1
1
1
1
1
1
1
1
1
1
1
1
1
1
1.00001
1.00001
1.00002
1.00004
1.00007
1.00012
1.0002
1.00031
1.00047
1.0007
1.00103
1.00154
1.00238
1.0038
1.00617
1.00994
1.01545
1.0226
1.03045
1.03705
1.03982
1.03651
1.02613
1.00936
0.988535
0.967145
0.949011
0.937455
0.934834
0.942184
0.958617
0.980882
1.00396
1.02284
1.03436
1.03803
1.03549
1.02933
1.02196
1.01505
1.00945
1.00538
1.00269
1.00106
1.00017
0.999759
0.999622
0.999626
0.999689
0.999766
0.999837
0.999892
0.999932
0.999959
0.999976
0.999987
0.999993
0.999996
0.999998
0.999999
1
1
1
1
1
1
1
1
1
1
1
1
1
1
1
1
1
1
1
1
1
1
1
1
1
1
1
1
1
1
1
1
0.999999
1
1
1
1
1
1
1
1.00001
1.00001
1.00002
1.00004
1.00008
1.00013
1.00022
1.00034
1.00052
1.00078
1.00117
1.00181
1.00288
1.00471
1.00774
1.01247
1.01914
1.02732
1.03541
1.04049
1.0391
1.02857
1.00817
0.979573
0.946614
0.914357
0.887843
0.871126
0.867022
0.876959
0.9002
0.932953
0.968726
1.00039
1.02279
1.0343
1.03641
1.03234
1.02537
1.01801
1.01166
1.00686
1.00359
1.00156
1.00042
0.999871
0.999659
0.999628
0.999678
0.999754
0.999826
0.999884
0.999927
0.999956
0.999974
0.999986
0.999992
0.999996
0.999998
0.999999
1
1
1
1
1
1
1
1
1
1
1
1
1
1
1
1
1
1
1
1
1
1
1
1
1
1
1
1
1
1
1
1
1
1
1
1
1
1
1
1
1.00001
1.00001
1.00002
1.00005
1.00008
1.00014
1.00023
1.00036
1.00056
1.00085
1.00132
1.0021
1.00343
1.00571
1.00947
1.01518
1.02293
1.0318
1.03931
1.04146
1.03387
1.01358
0.980462
0.937663
0.890907
0.846911
0.811666
0.789596
0.783794
0.79617
0.826425
0.870557
0.920767
0.967669
1.00372
1.02564
1.03446
1.03389
1.02819
1.02082
1.01391
1.00845
1.0046
1.00215
1.00075
1.00003
0.999726
0.999651
0.999682
0.99975
0.99982
0.999879
0.999923
0.999953
0.999973
0.999985
0.999992
0.999996
0.999998
0.999999
1
1
1
1
1
1
1
1
1
1
1
1
1
1
1
1
1
1
1
1
1
1
1
1
1
1
1
1
1
1
1
1
1
1
1
1
1
1
1
1
1.00001
1.00001
1.00002
1.00005
1.00008
1.00014
1.00024
1.00038
1.00059
1.00091
1.00145
1.00238
1.004
1.00677
1.01127
1.01795
1.02661
1.03566
1.04166
1.03946
1.02378
0.991576
0.943777
0.885474
0.824527
0.769103
0.725642
0.698488
0.69082
0.705113
0.741794
0.797068
0.86223
0.925778
0.977501
1.01198
1.02938
1.0337
1.03017
1.02331
1.01611
1.01008
1.00569
1.00282
1.00112
1.00023
0.999825
0.999696
0.9997
0.999755
0.999821
0.999878
0.999922
0.999953
0.999972
0.999984
0.999991
0.999995
0.999998
0.999999
0.999999
1
1
1
1
1
1
1
1
1
1
1
1
1
1
1
1
1
1
1
1
1
1
1
1
1
1
1
1
1
1
1
1
1
1
1
1
1
1
1
1.00001
1.00001
1.00003
1.00005
1.00008
1.00014
1.00023
1.00038
1.0006
1.00096
1.00157
1.00266
1.00457
1.00783
1.01306
1.02064
1.02993
1.03861
1.0422
1.03444
1.00926
0.96381
0.900479
0.82671
0.752502
0.687035
0.636625
0.605136
0.595648
0.611155
0.652959
0.717925
0.797065
0.877219
0.945503
0.993949
1.02136
1.03174
1.03119
1.02535
1.01813
1.01169
1.00681
1.00353
1.00155
1.00047
0.999955
0.999763
0.999733
0.999772
0.999829
0.999882
0.999924
0.999953
0.999972
0.999984
0.999991
0.999995
0.999998
0.999999
1
1
1
1
1
1
1
1
1
1
1
1
1
1
1
1
1
1
1
1
1
1
1
1
1
1
1
1
1
1
1
1
1
1
1
1
1
1
1
1
1.00001
1.00001
1.00002
1.00004
1.00008
1.00014
1.00023
1.00037
1.00059
1.00098
1.00166
1.00291
1.00512
1.00885
1.01476
1.0231
1.03272
1.0405
1.04098
1.02689
0.991578
0.932588
0.854129
0.766191
0.680694
0.6073
0.551748
0.517168
0.506298
0.522362
0.567514
0.639707
0.730433
0.825609
0.909977
0.972795
1.01101
1.02825
1.03131
1.0269
1.01992
1.0132
1.00791
1.00427
1.00201
1.00074
1.00011
0.999851
0.999783
0.9998
0.999845
0.999891
0.999929
0.999956
0.999974
0.999985
0.999992
0.999996
0.999998
0.999999
1
1
1
1
1
1
1
1
1
1
1
1
1
1
1
1
1
1
1
1
1
1
1
1
1
1
1
1
1
1
1
1
1
1
1
1
1
1
1
1
1.00001
1.00001
1.00002
1.00004
1.00007
1.00012
1.00021
1.00034
1.00057
1.00098
1.00172
1.00311
1.0056
1.00977
1.01627
1.02521
1.03491
1.04138
1.03834
1.01778
0.972559
0.900833
0.808778
0.708884
0.614624
0.535686
0.477029
0.440929
0.429435
0.44555
0.492153
0.568651
0.667712
0.775102
0.873763
0.95024
0.999273
1.02367
1.03068
1.02798
1.02145
1.01458
1.00896
1.00499
1.00247
1.00103
1.00029
0.999959
0.999847
0.999839
0.999868
0.999905
0.999937
0.999961
0.999977
0.999987
0.999993
0.999996
0.999998
0.999999
1
1
1
1
1
1
1
1
1
1
1
1
1
1
1
1
1
1
1
1
1
1
1
1
1
1
1
1
1
1
1
1
1
1
1
1
1
1
1
1
1
1.00001
1.00002
1.00003
1.00006
1.00011
1.00018
1.0003
1.00053
1.00094
1.00174
1.00325
1.00599
1.01054
1.01751
1.02689
1.03648
1.04145
1.03487
1.00825
0.954219
0.87154
0.768259
0.659078
0.558602
0.476299
0.416369
0.380201
0.368812
0.384594
0.431028
0.509188
0.613327
0.729632
0.839873
0.928273
0.987296
1.01861
1.02957
1.02868
1.0227
1.01579
1.00992
1.00567
1.00293
1.00133
1.00048
1.00008
0.999925
0.999887
0.999898
0.999923
0.999948
0.999967
0.999981
0.999989
0.999994
0.999997
0.999998
0.999999
1
1
1
1
1
1
1
1
1
1
1
1
1
1
1
1
1
1
1
1
1
1
1
1
1
1
1
1
1
1
1
1
1
1
1
1
1
1
1
1
1
1.00001
1.00001
1.00003
1.00005
1.00008
1.00015
1.00025
1.00046
1.00088
1.00171
1.00331
1.00626
1.01112
1.01844
1.0281
1.0375
1.04104
1.03122
0.99947
0.938404
0.847295
0.735664
0.619918
0.515406
0.431349
0.371366
0.336008
0.325114
0.340282
0.385476
0.463425
0.570063
0.692231
0.811022
0.908903
0.976334
1.01372
1.02829
1.02911
1.0237
1.01681
1.01075
1.00628
1.00336
1.00162
1.00068
1.00021
1.00001
0.999943
0.999934
0.999946
0.999962
0.999975
0.999985
0.999991
0.999995
0.999997
0.999999
0.999999
1
1
1
1
1
1
1
1
1
1
1
1
1
1
1
1
1
1
1
1
1
1
1
1
1
1
1
1
1
1
1
1
1
1
1
1
1
1
1
1
1
1.00001
1.00001
1.00002
1.00003
1.00006
1.0001
1.00019
1.00038
1.00079
1.00164
1.00329
1.00638
1.01148
1.01902
1.02883
1.03808
1.04047
1.02806
0.992425
0.926521
0.829962
0.713098
0.593341
0.486479
0.401612
0.342045
0.30768
0.297301
0.311714
0.355194
0.43189
0.539272
0.664842
0.789285
0.893874
0.967575
1.0097
1.02715
1.02939
1.02448
1.01762
1.01143
1.00681
1.00374
1.00189
1.00087
1.00034
1.0001
1.00001
0.999975
0.999972
0.999978
0.999985
0.999991
0.999994
0.999997
0.999998
0.999999
1
1
1
1
1
1
1
1
1
1
1
1
1
1
1
1
1
1
1
1
1
1
1
1
1
1
1
1
1
1
1
1
1
1
1
1
1
1
1
1
1
1
1
1
1.00001
1.00001
1.00003
1.00006
1.00013
1.00029
1.00068
1.00152
1.00319
1.00635
1.0116
1.01927
1.02909
1.03827
1.04005
1.02593
0.987852
0.919434
0.820537
0.701609
0.580243
0.472354
0.38712
0.327878
0.29423
0.284222
0.297964
0.339768
0.414769
0.521689
0.648631
0.776046
0.884479
0.961983
1.0071
1.02645
1.02963
1.02504
1.01821
1.01194
1.00721
1.00406
1.00213
1.00105
1.00048
1.0002
1.00007
1.00002
0.999999
0.999995
0.999995
0.999996
0.999998
0.999999
0.999999
1
1
1
1
1
1
1
1
1
1
1
1
1
1
1
1
1
1
1
1
1
1
1
1
1
1
1
1
1
1
1
1
1
1
1
1
1
1
1
1
1
1
0.999999
0.999999
0.999998
0.999997
0.999996
0.999997
1.00001
1.00006
1.00019
1.00054
1.00135
1.00301
1.00615
1.01146
1.01918
1.02893
1.03813
1.03991
1.02524
0.98626
0.917515
0.819201
0.701253
0.580607
0.472927
0.387602
0.328387
0.295063
0.28535
0.298777
0.339361
0.412595
0.518048
0.644417
0.772155
0.881516
0.960181
1.00633
1.02637
1.02989
1.02541
1.01857
1.01227
1.00749
1.0043
1.00233
1.0012
1.0006
1.00029
1.00013
1.00006
1.00003
1.00001
1.00001
1
1
1
1
1
1
1
1
1
1
1
1
1
1
1
1
1
1
1
1
1
1
1
1
1
1
1
1
1
1
1
1
1
1
1
1
1
1
1
1
1
1
0.999999
1
0.999999
0.999999
0.999998
0.999996
0.999992
0.999986
0.999978
0.999967
0.999961
0.999981
1.00008
1.00039
1.00115
1.00275
1.00581
1.01106
1.01876
1.0284
1.03768
1.04006
1.02614
0.987922
0.920821
0.825553
0.711273
0.593603
0.487499
0.402533
0.343209
0.309985
0.300659
0.314311
0.354362
0.425978
0.529005
0.652729
0.778005
0.885288
0.962398
1.00753
1.02698
1.03018
1.02556
1.01868
1.01238
1.00763
1.00444
1.00247
1.00133
1.0007
1.00037
1.00019
1.0001
1.00006
1.00003
1.00002
1.00001
1
1
1
1
1
1
1
1
1
1
1
1
1
1
1
1
1
1
1
1
1
1
1
1
1
1
1
1
1
1
1
1
1
1
1
1
1
1
1
1
1
0.999999
1
0.999999
0.999998
0.999996
0.999993
0.999988
0.999976
0.99996
0.999939
0.999914
0.99991
0.999975
1.00023
1.00092
1.00242
1.00534
1.01042
1.018
1.02754
1.03691
1.04033
1.02843
0.992802
0.92923
0.83898
0.730494
0.61783
0.514833
0.43108
0.371978
0.339014
0.330344
0.344728
0.384841
0.454966
0.554603
0.673519
0.793419
0.895572
0.968448
1.01057
1.02818
1.03045
1.02546
1.01852
1.01228
1.00761
1.00449
1.00256
1.00143
1.00079
1.00044
1.00025
1.00014
1.00008
1.00005
1.00003
1.00001
1.00001
1
1
1
1
1
1
1
1
1
1
1
1
1
1
1
1
1
1
1
1
1
1
1
1
1
1
1
1
1
1
1
1
1
1
1
1
1
1
1
1
1
1
0.999999
0.999998
0.999995
0.999991
0.999983
0.999969
0.999945
0.999913
0.999873
0.999844
0.999873
1.00007
1.00067
1.00204
1.00477
1.00957
1.01691
1.02633
1.03587
1.04053
1.03162
1.00038
0.94233
0.858866
0.757831
0.651843
0.553507
0.47222
0.414276
0.382214
0.374608
0.390011
0.430356
0.498762
0.593893
0.705817
0.81747
0.911568
0.977726
1.01506
1.02976
1.03058
1.02506
1.01806
1.01195
1.00744
1.00444
1.00258
1.00148
1.00085
1.00049
1.00029
1.00017
1.0001
1.00006
1.00003
1.00002
1.00001
1.00001
1
1
1
1
1
1
1
1
1
1
1
1
1
1
1
1
1
1
1
1
1
1
1
1
1
1
1
1
1
1
1
1
1
1
1
1
1
1
1
0.999999
0.999999
0.999999
0.999998
0.999995
0.999989
0.99998
0.999961
0.999934
0.999892
0.999839
0.999787
0.999783
0.999924
1.00042
1.00163
1.00411
1.00856
1.01553
1.02475
1.03449
1.04048
1.03507
1.00966
0.959146
0.884361
0.792364
0.694537
0.602375
0.525081
0.469697
0.439489
0.433306
0.449652
0.489828
0.555694
0.644878
0.747637
0.848415
0.931886
0.989245
1.02037
1.03138
1.03043
1.02431
1.01731
1.0114
1.00712
1.00429
1.00254
1.0015
1.00089
1.00053
1.00032
1.0002
1.00012
1.00007
1.00004
1.00002
1.00001
1.00001
1
1
1
1
1
1
1
1
1
1
1
1
1
1
1
1
1
1
1
1
1
1
1
1
1
1
1
1
1
1
1
1
1
1
1
1
1
1
1
1
1
0.999999
0.999998
0.999994
0.999989
0.999976
0.999957
0.999925
0.999876
0.999813
0.999742
0.999706
0.999792
1.00019
1.00122
1.0034
1.00743
1.0139
1.02279
1.03269
1.04
1.03821
1.01938
0.978027
0.9139
0.832778
0.744777
0.660439
0.588894
0.537629
0.510117
0.505386
0.522132
0.561166
0.623109
0.704567
0.796074
0.883776
0.954643
1.00173
1.02574
1.03266
1.02982
1.02316
1.01626
1.01065
1.00666
1.00406
1.00244
1.00148
1.0009
1.00056
1.00035
1.00021
1.00013
1.00008
1.00005
1.00003
1.00001
1.00001
1
1
1
1
1
1
1
1
1
1
1
1
1
1
1
1
1
1
1
1
1
1
1
1
1
1
1
1
1
1
1
1
1
1
1
1
1
1
1
1
1
0.999998
0.999997
0.999994
0.999987
0.999976
0.999953
0.99992
0.999866
0.999794
0.999711
0.999649
0.999682
0.999977
1.00083
1.00269
1.00622
1.01208
1.02047
1.03039
1.03889
1.04053
1.02838
0.996995
0.945045
0.876695
0.80046
0.725907
0.662046
0.616277
0.591855
0.588162
0.604383
0.640914
0.697209
0.76907
0.847527
0.920591
0.977672
1.01377
1.03039
1.0332
1.02863
1.0216
1.01493
1.00972
1.0061
1.00375
1.0023
1.00142
1.00089
1.00056
1.00036
1.00022
1.00014
1.00008
1.00005
1.00003
1.00002
1.00001
1
1
1
1
1
1
1
1
1
1
1
1
1
1
1
1
1
1
1
1
1
1
1
1
1
1
1
1
1
1
1
1
1
1
1
1
1
1
1
1
1
0.999998
0.999997
0.999993
0.999987
0.999976
0.999952
0.999918
0.999861
0.999784
0.999692
0.999609
0.999597
0.999803
1.00047
1.00201
1.00502
1.01017
1.01786
1.02753
1.03694
1.04162
1.03572
1.01419
0.974978
0.920671
0.857961
0.795206
0.740792
0.701423
0.680088
0.676894
0.691634
0.72424
0.773192
0.833862
0.898059
0.955759
0.9988
1.02403
1.03362
1.03274
1.02679
1.01965
1.01338
1.00867
1.00545
1.00339
1.00211
1.00133
1.00085
1.00055
1.00035
1.00022
1.00014
1.00009
1.00005
1.00003
1.00002
1.00001
1
1
1
1
1
1
1
1
1
1
1
1
1
1
1
1
1
1
1
1
1
1
1
1
1
1
1
1
1
1
1
1
1
1
1
1
1
1
1
0.999999
1
0.999998
0.999997
0.999994
0.999987
0.999975
0.999953
0.999918
0.999863
0.999784
0.999686
0.999588
0.999543
0.999665
1.00017
1.0014
1.00389
1.00827
1.01506
1.02418
1.03404
1.04113
1.04066
1.02813
1.00112
0.960986
0.912677
0.863017
0.81905
0.786434
0.768192
0.765292
0.777899
0.805441
0.845778
0.89431
0.943882
0.986457
1.01616
1.03146
1.03494
1.03113
1.02432
1.01737
1.01167
1.00753
1.00476
1.003
1.0019
1.00123
1.0008
1.00052
1.00034
1.00022
1.00014
1.00008
1.00005
1.00003
1.00002
1.00001
1
1
1
1
1
1
1
1
1
1
1
1
1
1
1
1
1
1
1
1
1
1
1
1
1
1
1
1
1
1
1
1
1
1
1
1
1
0.999999
1
0.999999
1
0.999999
0.999998
0.999993
0.999988
0.999977
0.999955
0.999921
0.999868
0.999791
0.999692
0.999587
0.999516
0.99957
0.99993
1.00088
1.00287
1.00647
1.01226
1.02048
1.03023
1.03892
1.04278
1.03784
1.02161
0.994592
0.960242
0.923572
0.889965
0.864164
0.849332
0.846913
0.857063
0.878851
0.909998
0.946329
0.981878
1.01054
1.02848
1.03547
1.03421
1.02843
1.02134
1.0149
1.00989
1.00637
1.00405
1.00259
1.00168
1.0011
1.00073
1.00049
1.00032
1.00021
1.00013
1.00008
1.00005
1.00003
1.00002
1.00001
1
1
1
1
1
1
1
1
1
1
1
1
1
1
1
1
1
1
1
1
1
1
1
1
1
1
1
1
1
1
1
1
1
1
1
1
1
1
1
1
0.999999
0.999999
0.999998
0.999995
0.999989
0.999978
0.999959
0.999926
0.999877
0.999803
0.999708
0.999601
0.999512
0.999518
0.999755
1.00046
1.002
1.00487
1.00962
1.01668
1.02572
1.0351
1.04193
1.04287
1.03548
1.01966
0.997551
0.972476
0.948407
0.929352
0.918269
0.916504
0.924038
0.939911
0.962096
0.987056
1.01008
1.02686
1.03529
1.03604
1.03159
1.02487
1.01806
1.01236
1.00814
1.00524
1.00337
1.00219
1.00145
1.00097
1.00066
1.00044
1.00029
1.00019
1.00012
1.00007
1.00004
1.00003
1.00001
1.00001
1
1
1
1
1
1
1
1
1
1
1
1
1
1
1
1
1
1
1
1
1
1
1
1
1
1
1
1
1
1
1
1
1
1
1
1
1
1
1
0.999999
1
0.999999
0.999998
0.999995
0.99999
0.99998
0.999962
0.999934
0.999889
0.99982
0.999733
0.999627
0.999529
0.9995
0.999644
1.00014
1.0013
1.00352
1.00728
1.01307
1.02094
1.03005
1.03843
1.04336
1.0426
1.03558
1.02331
1.00786
0.992148
0.979383
0.971887
0.970623
0.975531
0.985891
1.00008
1.01525
1.02794
1.03545
1.03699
1.03367
1.02759
1.0208
1.01471
1.00991
1.00649
1.0042
1.00273
1.00181
1.00122
1.00084
1.00058
1.00039
1.00026
1.00017
1.00011
1.00007
1.00004
1.00002
1.00001
1.00001
1
1
1
1
1
1
1
1
1
1
1
1
1
1
1
1
1
1
1
1
1
1
1
1
1
1
1
1
1
1
1
1
1
1
1
1
1
1
1
1
1
0.999999
0.999998
0.999996
0.999991
0.999983
0.999968
0.999941
0.999902
0.99984
0.999761
0.999663
0.999564
0.999515
0.999585
0.999924
1.00076
1.00243
1.00531
1.00986
1.01634
1.02444
1.03301
1.04006
1.04366
1.04289
1.03796
1.03003
1.02118
1.01365
1.00903
1.00796
1.01052
1.01626
1.02392
1.03137
1.03634
1.03742
1.03467
1.02927
1.02282
1.01664
1.01151
1.00767
1.00501
1.00327
1.00216
1.00146
1.00101
1.00071
1.00049
1.00034
1.00023
1.00015
1.0001
1.00006
1.00003
1.00002
1.00001
1.00001
1
1
1
1
1
1
1
1
1
1
1
1
1
1
1
1
1
1
1
1
1
1
1
1
1
1
1
1
1
1
1
1
1
1
1
1
1
1
1
1
1
0.999999
0.999998
0.999996
0.999992
0.999986
0.999971
0.999951
0.999914
0.999864
0.999792
0.999703
0.999613
0.999547
0.999573
0.999795
1.00038
1.00159
1.00374
1.00719
1.01226
1.01896
1.02672
1.03425
1.04008
1.04316
1.04317
1.04064
1.03682
1.03314
1.03054
1.02953
1.03028
1.03255
1.03541
1.03742
1.03732
1.03462
1.02979
1.02386
1.01791
1.01272
1.00865
1.00572
1.00375
1.00247
1.00167
1.00116
1.00082
1.00058
1.00041
1.00029
1.0002
1.00013
1.00008
1.00005
1.00003
1.00002
1.00001
1.00001
1
1
1
1
1
1
1
1
1
1
1
1
1
1
1
1
1
1
1
1
1
1
1
1
1
1
1
1
1
1
1
1
1
1
1
0.999999
1
1
1
0.999999
1
1
0.999998
0.999997
0.999994
0.999987
0.999977
0.999958
0.999928
0.999885
0.999824
0.999748
0.999665
0.999599
0.999593
0.999727
1.00013
1.00099
1.00253
1.00508
1.00889
1.01411
1.02052
1.02741
1.03376
1.03862
1.04141
1.04221
1.04165
1.04046
1.03919
1.03824
1.03783
1.03781
1.03757
1.03629
1.03345
1.0291
1.0238
1.01833
1.01335
1.00928
1.00623
1.00411
1.00271
1.00182
1.00126
1.0009
1.00065
1.00047
1.00034
1.00024
1.00016
1.00011
1.00007
1.00004