/*--------------------------------*- C++ -*----------------------------------*\
  =========                 |
  \\      /  F ield         | OpenFOAM: The Open Source CFD Toolbox
   \\    /   O peration     | Website:  https://openfoam.org
    \\  /    A nd           | Version:  6
     \\/     M anipulation  |
\*---------------------------------------------------------------------------*/
FoamFile
{
    version     2.0;
    format      ascii;
    class       volScalarField;
    location    "1.22";
    object      k;
}
// * * * * * * * * * * * * * * * * * * * * * * * * * * * * * * * * * * * * * //

dimensions      [0 2 -2 0 0 0 0];

internalField   nonuniform List<scalar> 
4214
(
0.0828697
0.0479457
0.037035
0.0340077
0.0335105
0.0338051
0.0343735
0.0351572
0.0362616
0.0378852
0.0403598
0.0442124
0.0502622
0.0596274
0.0738664
0.0951466
0.127885
0.180094
0.270042
0.404663
0.487174
0.382502
0.249035
0.166151
0.11996
0.0912391
0.0723044
0.0593294
0.050554
0.044711
0.0408391
0.0382273
0.0364214
0.0351509
0.0342549
0.0336373
0.0333427
0.0338732
0.0369497
0.0479209
0.0829459
0.033487
0.0322048
0.0322502
0.0326938
0.0332456
0.0338509
0.0345499
0.0354523
0.0367231
0.0385985
0.0414633
0.0459126
0.0528507
0.0634715
0.0794403
0.103064
0.139101
0.196037
0.293497
0.435183
0.514814
0.405508
0.266198
0.178358
0.128963
0.0978707
0.0771585
0.0628114
0.0529979
0.0464025
0.0420124
0.0390524
0.0370109
0.0355714
0.0345418
0.0337724
0.0331446
0.0326008
0.0321795
0.0321601
0.0334711
0.0308038
0.0314395
0.0320807
0.0326985
0.0333075
0.0339551
0.0347269
0.0357532
0.0372187
0.039394
0.0427235
0.0478769
0.0558481
0.0679014
0.0858208
0.112054
0.151756
0.213999
0.31979
0.468691
0.54409
0.430276
0.285049
0.191978
0.139119
0.105427
0.0827307
0.0668253
0.0558142
0.0483345
0.0433295
0.0399562
0.0376403
0.036011
0.0348466
0.0339832
0.0332874
0.0326596
0.0320399
0.0314056
0.0307776
0.0308452
0.0315167
0.0321462
0.032745
0.0333557
0.0340413
0.0348992
0.0360713
0.0377669
0.0402987
0.044183
0.0501674
0.0593387
0.0730262
0.0931436
0.122273
0.166037
0.234211
0.349544
0.505864
0.57592
0.457368
0.305872
0.207193
0.150609
0.114085
0.0891759
0.0714934
0.0590951
0.0505729
0.0448351
0.0409676
0.0383279
0.0364804
0.0351641
0.0341966
0.0334381
0.0327819
0.0321549
0.0315095
0.0308337
0.0309276
0.0315378
0.0321193
0.0326969
0.0333225
0.0340672
0.0350389
0.0363929
0.0383713
0.0413384
0.045894
0.0528649
0.0634351
0.0789899
0.101589
0.133936
0.18223
0.257074
0.383229
0.546645
0.61008
0.486954
0.328994
0.224349
0.163715
0.124076
0.0966888
0.0769712
0.0629588
0.053199
0.0465765
0.042104
0.0390678
0.0369552
0.0354563
0.034361
0.0335216
0.0328256
0.0321937
0.0315692
0.0309288
0.0308914
0.0314243
0.0319653
0.0325375
0.0332
0.0340313
0.0351505
0.036731
0.0390598
0.0425619
0.0479333
0.0560768
0.0682803
0.0859707
0.111376
0.147308
0.200677
0.283057
0.421318
0.591436
0.647156
0.519697
0.35505
0.243865
0.178785
0.135694
0.105519
0.0834606
0.0675631
0.0563279
0.048631
0.0434099
0.0398802
0.0374392
0.0357177
0.0344653
0.0335221
0.0327699
0.032123
0.0315153
0.0309246
0.0306499
0.0311305
0.0316515
0.0322448
0.0329763
0.0339292
0.0352385
0.0371037
0.0398721
0.0440362
0.0504028
0.0599413
0.0740551
0.0941893
0.122774
0.162707
0.221798
0.312693
0.463872
0.640679
0.687565
0.556159
0.384894
0.266274
0.196247
0.149297
0.115975
0.0912171
0.0731122
0.0601107
0.0511041
0.0449481
0.0407951
0.0379374
0.035938
0.0344897
0.0334126
0.032579
0.0319004
0.031301
0.0307441
0.0301773
0.0306272
0.0311633
0.0318169
0.0326564
0.0337716
0.0353239
0.0375482
0.0408721
0.0458574
0.0534405
0.0646383
0.0809901
0.103921
0.136113
0.180527
0.246119
0.346629
0.511924
0.694975
0.731905
0.596947
0.419333
0.292227
0.21663
0.165328
0.128446
0.100569
0.0798749
0.0647519
0.0541441
0.0468151
0.0418687
0.0384747
0.036123
0.0344283
0.0331802
0.0322312
0.0314915
0.0308815
0.030359
0.0294222
0.0299078
0.0305131
0.0312719
0.0322614
0.0335842
0.0354461
0.0381252
0.0421553
0.04816
0.0572332
0.0704027
0.0893826
0.115509
0.151808
0.201253
0.27431
0.385869
0.566294
0.754906
0.780894
0.642955
0.458537
0.3225
0.2406
0.184341
0.143426
0.11194
0.0882059
0.0705282
0.0579611
0.0491539
0.0431937
0.0391015
0.036298
0.0342904
0.0328268
0.0317216
0.0308793
0.0302155
0.0296831
0.0284496
0.0290316
0.0297528
0.030653
0.0318321
0.0334127
0.0356706
0.0389276
0.0438618
0.0511309
0.0620352
0.077542
0.099619
0.129393
0.170387
0.2255
0.307214
0.431537
0.627701
0.821139
0.835394
0.695305
0.503994
0.358083
0.269003
0.207036
0.161548
0.125883
0.098578
0.0778175
0.062854
0.052175
0.0449178
0.039908
0.0365193
0.0341093
0.0323786
0.0310744
0.0300876
0.0293196
0.0287201
0.0273865
0.0280932
0.0289536
0.0300163
0.0314247
0.0333229
0.0360957
0.0400902
0.0461922
0.0550266
0.0681951
0.0864639
0.112204
0.14613
0.192533
0.254048
0.345864
0.484086
0.69708
0.894493
0.896387
0.755226
0.557142
0.400353
0.302938
0.234313
0.183635
0.143112
0.111632
0.0871395
0.0692492
0.0561871
0.0472708
0.0410416
0.0368877
0.0339477
0.0318871
0.0303391
0.0291769
0.0282652
0.0275521
0.0263528
0.0271772
0.0281802
0.0294174
0.0311086
0.0334038
0.0368648
0.0418026
0.0494326
0.0601952
0.0761909
0.0977052
0.12781
0.166438
0.219148
0.2879
0.391619
0.545136
0.775511
0.975918
0.965016
0.824126
0.619638
0.45075
0.343828
0.267331
0.210768
0.164561
0.128246
0.0992074
0.0777582
0.0616375
0.0506064
0.0427318
0.0375693
0.0339058
0.03143
0.02958
0.0282226
0.0271476
0.0263051
0.0254138
0.0263307
0.0274793
0.0289069
0.030974
0.0337755
0.0381887
0.044326
0.0539929
0.0671013
0.0866811
0.111965
0.147352
0.191228
0.251453
0.328413
0.446217
0.616228
0.864137
1.06667
1.0427
0.903667
0.693464
0.511288
0.393543
0.307586
0.244363
0.191465
0.149617
0.114988
0.0892627
0.0691644
0.0554637
0.0453242
0.0388311
0.0341346
0.0311195
0.0288664
0.0272951
0.0260439
0.0250823
0.0245949
0.0255727
0.026896
0.0285442
0.0311596
0.0346052
0.0403888
0.0480124
0.0604682
0.0763488
0.100588
0.130125
0.172078
0.221655
0.291116
0.377136
0.511932
0.699175
0.964222
1.16829
1.13103
0.9958
0.780926
0.584363
0.45456
0.357008
0.28632
0.22541
0.177384
0.135765
0.105036
0.0796515
0.0626639
0.0493202
0.0411035
0.0348592
0.0311335
0.0282795
0.026464
0.0250008
0.0239439
0.0239146
0.0249192
0.0265153
0.0284204
0.031907
0.0361221
0.0439754
0.0533105
0.0697506
0.0886809
0.119238
0.153252
0.203723
0.259149
0.340496
0.436091
0.591887
0.795918
1.07667
1.28183
1.23078
1.10218
0.884446
0.672761
0.530221
0.418006
0.339286
0.268349
0.21381
0.163161
0.126933
0.0942555
0.0734685
0.0554033
0.0450908
0.0364053
0.0317855
0.0279379
0.0258413
0.0240603
0.0229425
0.0234227
0.024411
0.0265337
0.0286703
0.0336657
0.0386023
0.0498126
0.0607172
0.0832638
0.10489
0.144645
0.182475
0.244864
0.30527
0.403208
0.507433
0.690547
0.907667
1.20015
1.40593
1.33999
1.22224
1.00556
0.779166
0.625246
0.493408
0.407076
0.322512
0.262135
0.198999
0.157725
0.114314
0.0898858
0.0643933
0.0519924
0.0391927
0.033663
0.0280175
0.0256657
0.0232922
0.0221783
0.0232843
0.0241149
0.027393
0.0294123
0.0373371
0.0422297
0.0595327
0.0705201
0.103555
0.125427
0.180234
0.218503
0.299805
0.361175
0.485275
0.592416
0.814715
1.03282
1.32857
1.53759
1.4567
1.35256
1.14323
0.904494
0.74672
0.585587
0.495839
0.389821
0.327507
0.244694
0.201947
0.140848
0.115413
0.076934
0.0640412
0.0435806
0.037949
0.0286988
0.0264654
0.0227847
0.0218666
0.0204622
0.0211006
0.0219899
0.0230749
0.0243047
0.0256361
0.0269997
0.0282653
0.029268
0.0299153
0.0302163
0.0303483
0.0302461
0.0301094
0.0302002
0.038687
0.190254
0.0200378
0.0204267
0.0211415
0.0221014
0.0232432
0.024514
0.025847
0.0271335
0.0282224
0.0290008
0.0294301
0.0296796
0.0296415
0.0295697
0.029826
0.0394194
0.200359
0.019493
0.0198313
0.0204239
0.0212479
0.0222697
0.0234449
0.0247092
0.0259698
0.0270925
0.027959
0.0284994
0.0288522
0.0288979
0.0288937
0.0293734
0.0405139
0.208411
0.0193335
0.0194885
0.0198969
0.0205453
0.0214095
0.02245
0.0236065
0.0247991
0.0259104
0.0268227
0.0274462
0.0278823
0.0280208
0.028087
0.0288222
0.0418032
0.21597
0.0192082
0.019242
0.0194982
0.0199745
0.0206649
0.0215434
0.022563
0.0236547
0.0247144
0.0256272
0.0262975
0.026788
0.0270155
0.0271491
0.028175
0.0432825
0.223018
0.0192274
0.0191497
0.0192475
0.0195447
0.0200482
0.0207461
0.0216054
0.0225689
0.0235441
0.0244198
0.0251013
0.0256128
0.0259234
0.0261164
0.0274497
0.0448972
0.22953
0.0193783
0.0191625
0.0191145
0.0192445
0.0195662
0.0200803
0.0207669
0.0215822
0.0224465
0.0232557
0.0239183
0.0244251
0.0247838
0.0250555
0.0266694
0.0464781
0.235446
0.0195311
0.019268
0.0191001
0.0190774
0.0192303
0.0195693
0.0200831
0.0207398
0.0214717
0.0221918
0.0228132
0.0233026
0.0236846
0.0240444
0.0258739
0.0477786
0.240642
0.019883
0.0194859
0.0191989
0.0190429
0.0190498
0.0192342
0.0195884
0.0200863
0.0206738
0.0212859
0.0218475
0.0223166
0.0227201
0.0231476
0.0251933
0.0487338
0.244903
0.0201458
0.0197599
0.0194014
0.0191447
0.0190361
0.0190933
0.0193083
0.0196576
0.0201013
0.0205936
0.0210815
0.0215316
0.0219668
0.0224624
0.0247745
0.0494594
0.248299
0.020659
0.020153
0.0197176
0.0193872
0.0191963
0.0191563
0.0192563
0.0194756
0.0197864
0.0201621
0.0205755
0.0210144
0.0215012
0.0221195
0.0248381
0.0501366
0.251329
0.0210193
0.0205795
0.0201323
0.0197685
0.019529
0.0194198
0.0194298
0.0195439
0.0197442
0.0200242
0.0203772
0.0208355
0.0214164
0.0222653
0.0255389
0.0511829
0.254266
0.0216579
0.0211275
0.0206591
0.0202855
0.0200225
0.0198674
0.0198111
0.0198462
0.0199672
0.0201882
0.0205193
0.0210549
0.0218012
0.0230569
0.0271173
0.0541437
0.257312
0.0221013
0.0216899
0.0212705
0.0209211
0.0206574
0.0204756
0.0203739
0.0203554
0.0204295
0.020631
0.0209941
0.021689
0.0227199
0.0246541
0.0300412
0.0602171
0.261138
0.022832
0.0223659
0.0219756
0.0216597
0.0214092
0.0212186
0.0210918
0.0210431
0.0210986
0.0213119
0.0217564
0.0226761
0.0241495
0.0271128
0.0346975
0.0703308
0.266274
0.023357
0.0230481
0.0227396
0.0224744
0.0222505
0.0220684
0.0219386
0.0218834
0.0219422
0.0221871
0.0227404
0.0239035
0.0259598
0.0302904
0.0411463
0.0847543
0.272565
0.0241541
0.0238243
0.0235642
0.0233468
0.0231572
0.0229991
0.0228862
0.0228462
0.0229272
0.0232178
0.0238842
0.0252726
0.0279473
0.0338054
0.048679
0.100312
0.279653
0.0247652
0.0245999
0.0244175
0.0242555
0.0241088
0.0239876
0.0239078
0.0239002
0.0240182
0.0243645
0.0251338
0.0267162
0.0299218
0.0371396
0.0558723
0.114895
0.286914
0.0255942
0.0254351
0.0252998
0.0251903
0.025091
0.0250155
0.0249794
0.0250147
0.0251793
0.0255842
0.026441
0.0281806
0.0317696
0.0399112
0.0614031
0.126491
0.293821
0.0262931
0.026268
0.0261947
0.0261415
0.0260937
0.0260693
0.0260825
0.0261663
0.0263805
0.02684
0.0277665
0.029618
0.0334403
0.0420118
0.0647838
0.133181
0.299807
0.0271179
0.0271289
0.0271066
0.0271079
0.0271137
0.0271425
0.0272075
0.0273414
0.0276033
0.0281085
0.0290816
0.0309966
0.0349213
0.0435358
0.0660888
0.134383
0.304973
0.0279243
0.0279932
0.0280313
0.0280882
0.0281503
0.028234
0.0283522
0.0285367
0.0288446
0.0293881
0.0303886
0.032317
0.0362263
0.0446718
0.0660304
0.131421
0.309669
0.0287484
0.0288756
0.0289732
0.0290867
0.0292067
0.0293471
0.0295201
0.0297553
0.0301071
0.0306819
0.0316937
0.0336016
0.0374221
0.0455882
0.0657664
0.125982
0.313576
0.0295923
0.0297711
0.0299318
0.0301067
0.0302886
0.030489
0.03072
0.0310081
0.0314042
0.0320076
0.0330218
0.0348855
0.0385746
0.0464229
0.06539
0.120142
0.316413
0.0304461
0.0306923
0.0309182
0.031157
0.0314047
0.0316707
0.0319652
0.0323119
0.0327566
0.0333911
0.0344053
0.0362138
0.0397494
0.0472625
0.0652119
0.116448
0.318031
0.0313288
0.0316342
0.0319326
0.0322444
0.0325657
0.032905
0.0332717
0.0336862
0.0341886
0.0348625
0.0358822
0.0376347
0.0410073
0.0481835
0.0653889
0.114699
0.318463
0.0322281
0.0326129
0.0329882
0.0333788
0.0337827
0.0342061
0.0346569
0.0351523
0.0357272
0.0364549
0.0374942
0.0392013
0.0424163
0.0492644
0.0658805
0.114194
0.317931
0.0331653
0.0336231
0.0340876
0.0345695
0.0350682
0.0355891
0.0361392
0.0367332
0.0374004
0.0382038
0.0392852
0.0409697
0.0440472
0.0505882
0.0666905
0.114378
0.316753
0.0341292
0.0346825
0.035243
0.0358272
0.0364346
0.0370695
0.0377379
0.0384521
0.0392367
0.040145
0.0413
0.0429959
0.0459671
0.052214
0.0677927
0.114868
0.315218
0.035136
0.0357861
0.0364595
0.037162
0.0378952
0.0386636
0.0394729
0.0403335
0.0412662
0.0423153
0.0435852
0.0453361
0.0482408
0.0542022
0.0691848
0.115374
0.313536
0.0361831
0.0369512
0.037748
0.0385849
0.0394635
0.0403884
0.0413651
0.0424032
0.0435206
0.0447539
0.0461904
0.0480524
0.0509454
0.0566412
0.070926
0.11595
0.31184
0.0372785
0.0381738
0.0391147
0.0401065
0.0411536
0.0422615
0.0434368
0.0446891
0.0460347
0.0475045
0.0491705
0.0512181
0.0541751
0.0596531
0.0731639
0.116736
0.310189
0.0384249
0.039469
0.0405695
0.0417381
0.0429799
0.0443019
0.0457125
0.0472227
0.0488486
0.0506184
0.0525919
0.054921
0.0580486
0.0634034
0.0761205
0.117882
0.308595
0.0396275
0.0408341
0.0421194
0.043491
0.044958
0.0465304
0.0482197
0.0500399
0.0520096
0.054157
0.0565349
0.0592676
0.0627156
0.0681004
0.0800779
0.119637
0.307038
0.0408873
0.0422817
0.0437734
0.0453773
0.047105
0.0489706
0.0509903
0.0531836
0.0555746
0.0581961
0.0610998
0.0643924
0.0683633
0.0740119
0.0854176
0.122422
0.305487
0.0422091
0.0438103
0.0455392
0.0474098
0.0494398
0.0516493
0.0540616
0.056705
0.0596134
0.0628298
0.0664142
0.0704685
0.0752309
0.0814902
0.0926598
0.126882
0.303907
0.0435923
0.0454302
0.0474259
0.0496025
0.0519837
0.0545977
0.0574786
0.0606671
0.0642132
0.0681788
0.0726439
0.0777249
0.0836396
0.0910066
0.102519
0.133974
0.302262
0.0450405
0.0471406
0.0494417
0.0519703
0.0547602
0.0578519
0.0612941
0.0651469
0.0694841
0.0743981
0.0800073
0.08647
0.0940293
0.10321
0.116022
0.14523
0.300518
0.0465516
0.0489493
0.051595
0.0545283
0.0577953
0.0614528
0.0655712
0.0702383
0.0755642
0.0816898
0.0887973
0.0971281
0.10702
0.119029
0.134661
0.163064
0.298636
0.0481266
0.050855
0.0538939
0.0572937
0.0611187
0.0654494
0.0703869
0.0760596
0.0826331
0.0903236
0.0994182
0.110306
0.123525
0.139865
0.160734
0.191572
0.296559
0.0497994
0.0511353
0.0524817
0.0538322
0.0551805
0.0565194
0.0578402
0.0591337
0.0603909
0.0616018
0.0627567
0.0638448
0.0648564
0.0657809
0.0666091
0.0673319
0.067941
0.0684295
0.0687909
0.0690212
0.0691121
0.0690196
0.068787
0.0684234
0.0679327
0.0673213
0.0665964
0.065766
0.0648393
0.0638257
0.0627356
0.0615788
0.0603662
0.0591073
0.0578122
0.05649
0.0551496
0.0537998
0.0524479
0.0511003
0.0497626
0.0528981
0.0543111
0.0557338
0.0571577
0.0585786
0.0599865
0.0613747
0.062732
0.0640505
0.0653185
0.0665271
0.0676643
0.0687209
0.0696853
0.0705486
0.0713011
0.0719348
0.072442
0.072817
0.0730548
0.0731479
0.0730533
0.0728133
0.0724362
0.0719268
0.0712909
0.0705363
0.0696709
0.0687044
0.0676459
0.0665068
0.0652964
0.0640267
0.0627066
0.0613478
0.0599583
0.058549
0.0571268
0.0557019
0.0542783
0.0528643
0.0563792
0.0578749
0.0593774
0.0608808
0.0623781
0.0638608
0.0653199
0.066746
0.068129
0.0694583
0.0707233
0.0719131
0.0730168
0.0740238
0.074924
0.0757081
0.0763675
0.0768949
0.0772839
0.0775298
0.077625
0.0775283
0.0772804
0.0768893
0.0763599
0.0756984
0.0749123
0.07401
0.0730011
0.0718955
0.0707039
0.0694372
0.0681063
0.0667219
0.0652945
0.0638341
0.0623503
0.0608519
0.0593477
0.0578444
0.056348
0.0603147
0.0618977
0.0634854
0.0650729
0.0666522
0.0682142
0.0697496
0.0712484
0.0727002
0.0740942
0.0754193
0.0766644
0.0778183
0.07887
0.0798093
0.0806266
0.0813132
0.0818617
0.0822655
0.0825198
0.0826173
0.0825185
0.0822622
0.0818564
0.0813061
0.0806175
0.0797982
0.078857
0.0778034
0.0766478
0.075401
0.0740743
0.0726789
0.0712257
0.0697257
0.0681893
0.0666264
0.0650463
0.0634578
0.0618692
0.0602855
0.0647928
0.0664692
0.0681481
0.0698249
0.0714916
0.0731379
0.0747542
0.0763301
0.0778549
0.0793173
0.0807059
0.0820093
0.083216
0.0843148
0.0852951
0.0861472
0.0868624
0.0874328
0.0878521
0.0881154
0.0882151
0.0881141
0.0878491
0.0874279
0.0868557
0.0861387
0.0852847
0.0843026
0.0832021
0.0819938
0.0806889
0.0792988
0.0778351
0.0763092
0.0747322
0.073115
0.0714679
0.0698005
0.0681226
0.0664428
0.0647658
0.0699263
0.071703
0.0734791
0.075251
0.07701
0.0787457
0.0804477
0.0821051
0.0837069
0.0852413
0.0866966
0.088061
0.0893229
0.0904709
0.0914939
0.0923823
0.0931271
0.0937204
0.0941558
0.0944282
0.0945303
0.094427
0.0941529
0.0937159
0.093121
0.0923745
0.0914843
0.0904596
0.0893101
0.0880467
0.0866809
0.0852243
0.0836888
0.0820861
0.0804277
0.078725
0.0769886
0.0752288
0.0734558
0.0716788
0.0699016
0.0758605
0.0777442
0.0796238
0.0814964
0.083353
0.0851826
0.0869745
0.0887175
0.0903998
0.0920094
0.0935341
0.094962
0.096281
0.0974798
0.0985469
0.0994726
0.100248
0.100865
0.101316
0.101598
0.101703
0.101597
0.101314
0.100861
0.100242
0.0994656
0.0985383
0.0974696
0.0962695
0.0949491
0.09352
0.0919941
0.0903836
0.0887005
0.0869567
0.0851641
0.0833338
0.0814765
0.0796028
0.0777224
0.0758384
0.0827844
0.0847815
0.0867704
0.088749
0.0907078
0.0926353
0.0945205
0.0963521
0.0981177
0.0998048
0.101401
0.102894
0.104271
0.105521
0.106633
0.107597
0.108403
0.109043
0.109511
0.109802
0.109909
0.109801
0.109509
0.109039
0.108398
0.10759
0.106626
0.105512
0.104261
0.102882
0.101388
0.0997914
0.0981036
0.0963373
0.094505
0.092619
0.0906909
0.0887314
0.0867519
0.0847624
0.0827649
0.0909474
0.0930634
0.0951662
0.0972547
0.099319
0.101347
0.103328
0.105249
0.107099
0.108864
0.110532
0.11209
0.113525
0.114827
0.115983
0.116984
0.11782
0.118483
0.118967
0.119267
0.119377
0.119267
0.118965
0.11848
0.117816
0.116978
0.115976
0.114819
0.113517
0.11208
0.110521
0.108853
0.107087
0.105237
0.103314
0.101333
0.0993045
0.0972396
0.0951503
0.093047
0.0909307
0.100685
0.102923
0.105141
0.107341
0.109512
0.111641
0.113716
0.115726
0.117659
0.1195
0.121237
0.122858
0.124349
0.125699
0.126897
0.127932
0.128796
0.129481
0.12998
0.130288
0.130399
0.130287
0.129978
0.129478
0.128793
0.127928
0.126891
0.125692
0.124341
0.122849
0.121228
0.119491
0.117649
0.115716
0.113705
0.111629
0.1095
0.107329
0.105128
0.102909
0.100671
0.112456
0.114813
0.117146
0.119454
0.121727
0.123951
0.126116
0.128209
0.130217
0.132128
0.133928
0.135605
0.137145
0.138538
0.139772
0.140837
0.141725
0.142428
0.142939
0.143253
0.143366
0.143253
0.142937
0.142426
0.141722
0.140833
0.139767
0.138532
0.137139
0.135598
0.133921
0.132121
0.130209
0.1282
0.126107
0.123942
0.121717
0.119444
0.117135
0.114803
0.112446
0.126904
0.129369
0.131804
0.134209
0.136571
0.138878
0.141118
0.14328
0.14535
0.147316
0.149165
0.150884
0.152461
0.153885
0.155144
0.15623
0.157134
0.157848
0.158367
0.158685
0.158798
0.158685
0.158366
0.157847
0.157132
0.156227
0.155141
0.15388
0.152456
0.150879
0.149159
0.14731
0.145344
0.143273
0.141112
0.138871
0.136564
0.134201
0.131797
0.129361
0.126896
0.144949
0.147494
0.150006
0.152479
0.154903
0.157265
0.159553
0.161754
0.163858
0.165853
0.167724
0.169462
0.171052
0.172486
0.173753
0.174843
0.175749
0.176464
0.176982
0.177299
0.17741
0.177299
0.176981
0.176463
0.175747
0.174841
0.17375
0.172483
0.171049
0.169458
0.167721
0.165849
0.163854
0.16175
0.159548
0.15726
0.154898
0.152474
0.15
0.147488
0.144943
0.167947
0.170515
0.17305
0.175538
0.177968
0.18033
0.182612
0.184802
0.186889
0.188863
0.190711
0.192423
0.193987
0.195394
0.196635
0.197702
0.198587
0.199284
0.199788
0.200096
0.200203
0.200096
0.199788
0.199283
0.198586
0.197701
0.196634
0.195392
0.193985
0.192421
0.190709
0.18886
0.186887
0.184799
0.182609
0.180327
0.177965
0.175535
0.173046
0.170511
0.167944
0.197963
0.200444
0.202895
0.205293
0.207627
0.209887
0.212065
0.214147
0.216126
0.217992
0.219735
0.221345
0.222814
0.224132
0.225292
0.226288
0.227112
0.22776
0.228228
0.228513
0.228611
0.228513
0.228228
0.22776
0.227112
0.226287
0.225291
0.224131
0.222813
0.221344
0.219734
0.217991
0.216125
0.214145
0.212063
0.209886
0.207625
0.205291
0.202893
0.200442
0.197962
0.238256
0.240439
0.242602
0.24471
0.246753
0.248724
0.250615
0.252418
0.254125
0.255729
0.257223
0.258598
0.25985
0.26097
0.261955
0.262797
0.263494
0.26404
0.264434
0.264673
0.264754
0.264673
0.264434
0.26404
0.263493
0.262797
0.261954
0.26097
0.25985
0.258598
0.257222
0.255728
0.254124
0.252417
0.250615
0.248723
0.246752
0.244709
0.242601
0.240439
0.238255
0.294192
0.295677
0.297157
0.29859
0.299973
0.301301
0.302568
0.303772
0.304907
0.30597
0.306955
0.30786
0.308681
0.309413
0.310055
0.310603
0.311055
0.31141
0.311664
0.311818
0.31187
0.311818
0.311664
0.311409
0.311055
0.310603
0.310055
0.309413
0.308681
0.30786
0.306955
0.30597
0.304907
0.303772
0.302568
0.3013
0.299973
0.29859
0.297157
0.295677
0.294192
0.189878
0.0386555
0.0302336
0.0301147
0.0302588
0.0303595
0.0301955
0.0298093
0.0290522
0.0279963
0.0268087
0.0256563
0.0246241
0.0237413
0.0230176
0.0224476
0.0219995
0.199852
0.0393683
0.0298594
0.0295783
0.02965
0.0296826
0.0294005
0.0288927
0.028028
0.0269192
0.0257341
0.0246159
0.0236341
0.0228193
0.0222014
0.0218132
0.0216543
0.207769
0.0404342
0.0294098
0.0289116
0.0289111
0.0288536
0.0284698
0.0278634
0.0269369
0.0258241
0.0246817
0.0236293
0.0227224
0.0219897
0.0214562
0.0211617
0.0211817
0.215186
0.0416886
0.0288611
0.0281138
0.0280396
0.0278864
0.0274235
0.0267505
0.0258072
0.0247334
0.023671
0.0227184
0.0219189
0.0212965
0.0208582
0.0205947
0.0205024
0.2221
0.0431232
0.0282151
0.027186
0.0270418
0.0267982
0.0262874
0.025586
0.0246688
0.0236691
0.0227146
0.0218874
0.0212227
0.0207437
0.0204557
0.0203424
0.0203745
0.228503
0.0446836
0.0274862
0.0261626
0.0259575
0.0256313
0.0251063
0.0244109
0.0235523
0.0226528
0.0218267
0.021141
0.0206241
0.0202937
0.0201473
0.0201641
0.020317
0.234322
0.0462074
0.0266978
0.0251041
0.0248212
0.0244511
0.0239361
0.0232736
0.0224961
0.0217149
0.0210289
0.0204924
0.0201293
0.0199519
0.0199446
0.0200733
0.0203269
0.239454
0.047483
0.0258978
0.0240853
0.0237208
0.0233304
0.0228382
0.0222275
0.0215463
0.0208941
0.0203492
0.0199589
0.0197456
0.019719
0.0198526
0.0200913
0.0203898
0.243708
0.0484678
0.0252159
0.0231849
0.0227491
0.0223411
0.0218743
0.0213301
0.0207564
0.0202348
0.0198229
0.019564
0.0194833
0.0195905
0.019854
0.0202052
0.0205574
0.247169
0.0492526
0.024795
0.0224914
0.0219859
0.0215509
0.0211072
0.0206388
0.020177
0.0197794
0.0194875
0.0193402
0.0193665
0.0195787
0.0199473
0.0204084
0.0209155
0.250368
0.0500213
0.0248471
0.0221378
0.0215132
0.0210305
0.0205998
0.0202033
0.0198458
0.0195599
0.0193721
0.019316
0.0194207
0.0197014
0.0201327
0.0206413
0.0211488
0.253622
0.0511454
0.025555
0.0222754
0.0214247
0.020852
0.0203991
0.0200555
0.0197819
0.0195899
0.0194891
0.0195036
0.0196586
0.019973
0.0204353
0.0209777
0.0214661
0.256962
0.0540561
0.0271321
0.0230663
0.0218093
0.0210705
0.0205349
0.0202055
0.0199836
0.0198617
0.0198289
0.0198953
0.0200768
0.0203932
0.0208508
0.0214202
0.0220347
0.260932
0.0600284
0.0300408
0.024664
0.0227272
0.0217001
0.0210011
0.0206351
0.0204302
0.0203517
0.0203671
0.0204692
0.0206612
0.0209554
0.0213652
0.0218772
0.0224353
0.266104
0.0700757
0.03468
0.0271249
0.0241591
0.0226838
0.0217581
0.021308
0.0210904
0.0210299
0.0210734
0.0211957
0.0213869
0.0216502
0.0220004
0.0224386
0.0228813
0.272435
0.0845422
0.0411319
0.030319
0.02598
0.0239167
0.0227445
0.0221829
0.0219319
0.0218672
0.0219165
0.0220407
0.0222193
0.0224471
0.0227359
0.0231143
0.0235955
0.279526
0.10026
0.0487213
0.0338682
0.0279881
0.025298
0.0238957
0.0232186
0.0229202
0.0228322
0.0228661
0.0229737
0.0231274
0.0233147
0.0235364
0.0238148
0.0241825
0.286844
0.114988
0.0560098
0.0372424
0.0299881
0.0267561
0.0251544
0.0243715
0.0240158
0.0238907
0.0238931
0.0239689
0.0240869
0.0242316
0.0243953
0.0245894
0.0247843
0.293805
0.126713
0.0616317
0.0400632
0.031859
0.0282322
0.0264689
0.0255965
0.0251819
0.025011
0.0249713
0.0250046
0.025078
0.0251762
0.0252866
0.025429
0.0256018
0.299838
0.133515
0.0650792
0.0422006
0.0335424
0.0296749
0.0277986
0.0268572
0.0263886
0.0261686
0.0260812
0.0260661
0.026089
0.0261362
0.0261902
0.0262721
0.0263595
0.305174
0.134774
0.0663789
0.0436944
0.035014
0.0310547
0.029117
0.0281297
0.0276163
0.0273495
0.0272125
0.0271462
0.0271162
0.0271099
0.027109
0.0271347
0.0271213
0.310014
0.131803
0.0662691
0.044808
0.0363066
0.0323684
0.0304226
0.0294115
0.0288615
0.0285496
0.0283627
0.0282434
0.0281587
0.0280969
0.0280416
0.0280091
0.0279429
0.314023
0.126351
0.0659359
0.0456946
0.03749
0.0336476
0.0317266
0.0307067
0.0301269
0.0297719
0.0295347
0.0293605
0.0292192
0.0290994
0.0289858
0.0288879
0.0287703
0.316915
0.120433
0.0655321
0.0465058
0.038631
0.0349267
0.0330535
0.0320335
0.0314263
0.0310278
0.030738
0.030506
0.030305
0.0301234
0.0299479
0.0297885
0.0296169
0.318544
0.116666
0.0653167
0.0473259
0.0397962
0.0362508
0.0344362
0.033418
0.0327807
0.0323342
0.0319861
0.0316907
0.0314243
0.0311759
0.0309363
0.0307134
0.0304756
0.318954
0.114858
0.0654595
0.0482297
0.0410459
0.0376683
0.0359125
0.0348905
0.0342148
0.0337109
0.0332953
0.0329278
0.0325876
0.0322657
0.0319549
0.0316563
0.0313494
0.318378
0.114303
0.0659192
0.0492957
0.0424479
0.0392323
0.0375243
0.0364841
0.0357553
0.0351795
0.0346831
0.0342315
0.0338074
0.033403
0.033011
0.0326329
0.03226
0.317145
0.114446
0.0667031
0.0506083
0.0440736
0.0409989
0.0393155
0.0382342
0.0374303
0.0367624
0.0361676
0.0356167
0.0350952
0.0345961
0.0341139
0.0336523
0.0331965
0.31555
0.114898
0.0677862
0.0522243
0.0459898
0.0430243
0.0413308
0.0401765
0.0392682
0.0384831
0.0377683
0.0370992
0.0364637
0.0358555
0.035271
0.0347089
0.0341583
0.313809
0.115358
0.0691632
0.0542067
0.0482613
0.0453642
0.0436166
0.0423479
0.041299
0.0403661
0.0395048
0.0386951
0.0379262
0.0371927
0.0364899
0.0358152
0.0351665
0.312055
0.115892
0.0708932
0.0566424
0.0509652
0.0480808
0.0462224
0.0447873
0.0435543
0.0424368
0.0413982
0.0404211
0.039496
0.0386171
0.0377793
0.0369829
0.0362207
0.310353
0.116649
0.0731257
0.0596538
0.0541952
0.051247
0.049203
0.0475384
0.0460689
0.0447233
0.0434706
0.0422952
0.0411871
0.0401399
0.0391483
0.038209
0.0373107
0.308714
0.117778
0.0760801
0.0634054
0.0580697
0.0549503
0.0526244
0.0506522
0.0488827
0.0472569
0.0457468
0.0443362
0.0430143
0.0417725
0.040604
0.0395011
0.0384604
0.30712
0.119531
0.0800423
0.0681056
0.0627379
0.0592968
0.056567
0.0541902
0.0520433
0.050074
0.0482541
0.0465651
0.0449929
0.0435261
0.0421545
0.0408711
0.0396692
0.30554
0.122324
0.0853901
0.0740208
0.0683863
0.0644211
0.0611308
0.0582281
0.0556074
0.053217
0.0510243
0.0490052
0.0471401
0.0454127
0.0438091
0.0423182
0.0409235
0.303938
0.126801
0.0926427
0.0815025
0.0752539
0.0704958
0.0664435
0.0628603
0.0596449
0.0567375
0.054095
0.0516834
0.0494747
0.0474452
0.0455753
0.0438465
0.0422458
0.302279
0.133916
0.102513
0.0910211
0.0836615
0.0777501
0.0726709
0.0682072
0.0642431
0.0606982
0.0575108
0.054631
0.0520179
0.0496377
0.0474615
0.0454664
0.0436352
0.300526
0.145193
0.116023
0.103225
0.0940491
0.0864924
0.0800316
0.0744242
0.0695117
0.0651761
0.0613247
0.0578838
0.0547934
0.0520047
0.0494773
0.0471786
0.0450764
0.298638
0.163047
0.134667
0.119042
0.107036
0.0971469
0.0888181
0.0817127
0.075589
0.0702649
0.0655997
0.0614829
0.057827
0.0545615
0.0516297
0.0489841
0.046588
0.29656
0.191568
0.160741
0.139874
0.123536
0.110319
0.0994344
0.0903421
0.082654
0.0760829
0.0704124
0.065477
0.0611483
0.0573251
0.0539271
0.0508903
0.0481677
0.0239858
0.0304348
0.0465244
0.0818809
0.149148
0.260194
0.426029
0.688827
1.16618
1.68283
1.4961
1.04602
0.694235
0.470214
0.299463
0.172936
0.0923255
0.0491786
0.0298277
0.0224975
0.0248703
0.0331883
0.0540594
0.099251
0.183155
0.317945
0.514797
0.819753
1.34945
1.86328
1.68793
1.23635
0.841018
0.579432
0.374651
0.218496
0.115635
0.0589531
0.0330815
0.0233455
0.0263004
0.0373394
0.0648038
0.122919
0.227764
0.391972
0.6278
0.982438
1.57245
2.12101
1.94525
1.47116
1.02752
0.720369
0.472064
0.27893
0.147899
0.0732195
0.0381857
0.0248428
0.0285359
0.0435558
0.0801445
0.155213
0.28643
0.487633
0.772985
1.18481
1.83081
2.41052
2.23981
1.75412
1.27179
0.904774
0.59928
0.358907
0.192356
0.0939412
0.046062
0.0273099
0.0319837
0.0528519
0.10207
0.199295
0.363892
0.612497
0.96132
1.44024
2.12574
2.75546
2.62755
2.08648
1.58284
1.1499
0.767432
0.464925
0.253334
0.123912
0.05812
0.0312623
0.0372939
0.0667575
0.133356
0.259372
0.466806
0.777626
1.20905
1.7555
2.45626
3.02899
2.93945
2.46414
1.96748
1.47786
0.993135
0.606601
0.336547
0.166962
0.076489
0.0375435
0.0455061
0.0875435
0.177763
0.341104
0.604968
1.00001
1.53875
2.12922
2.86763
3.2564
3.18942
2.9541
2.43626
1.89562
1.29927
0.798879
0.449817
0.228222
0.104311
0.0475346
0.0582771
0.11849
0.240347
0.452529
0.793937
1.30466
1.94489
2.5666
3.24691
3.41648
3.35099
3.41079
3.00052
2.44991
1.71379
1.06156
0.604434
0.314503
0.146081
0.0634726
0.0782166
0.16423
0.328005
0.605498
1.05439
1.72075
2.4847
3.08999
3.5945
3.46043
3.40963
3.79627
3.62948
3.12716
2.27303
1.42408
0.816742
0.435263
0.208092
0.0889182
0.109373
0.231301
0.450813
0.817248
1.41447
2.26102
3.12624
3.68189
3.93692
3.42289
3.38125
4.08824
4.35746
3.89037
2.96052
1.91608
1.10931
0.604227
0.299149
0.129431
0.157959
0.329236
0.623432
1.11358
1.89464
2.89919
3.8333
4.43848
4.28458
3.34943
3.27533
4.26553
5.08691
4.68606
3.72213
2.53959
1.51694
0.840226
0.432143
0.193609
0.233617
0.472573
0.866905
1.51999
2.47055
3.57395
4.55625
5.07684
4.57934
3.26947
3.16678
4.33893
5.54984
5.46616
4.48909
3.23537
2.05259
1.17255
0.625741
0.29486
0.351902
0.682882
1.2184
2.03251
3.07589
4.23568
5.25928
5.59954
4.7744
3.19465
3.08063
4.32387
5.75154
6.13063
5.22537
3.93111
2.68063
1.63647
0.907991
0.454509
0.53787
0.998325
1.68656
2.58633
3.66098
4.85675
5.83616
5.82411
4.82161
3.15894
3.0319
4.25236
5.71366
6.41057
5.86805
4.5813
3.31678
2.22071
1.32906
0.707344
0.837598
1.45339
2.22544
3.13207
4.21642
5.35588
5.9648
5.72298
4.728
3.18602
3.06361
4.16722
5.46589
6.21424
6.1232
5.15689
3.90261
2.83325
1.90384
1.11625
1.31707
2.01997
2.7711
3.65616
4.67339
5.38836
5.63784
5.37658
4.57015
3.36204
3.21222
4.12515
5.14204
5.7796
5.90574
5.41936
4.41159
3.3913
2.55152
1.74575
1.97881
2.59806
3.26302
4.08691
4.69957
5.07681
5.18435
5.02256
4.50364
3.72399
3.59478
4.25496
4.9294
5.32505
5.39724
5.1888
4.63979
3.82022
3.11873
2.52165
2.62818
3.02679
3.58893
4.08408