/*--------------------------------*- C++ -*----------------------------------*\
  =========                 |
  \\      /  F ield         | OpenFOAM: The Open Source CFD Toolbox
   \\    /   O peration     | Website:  https://openfoam.org
    \\  /    A nd           | Version:  6
     \\/     M anipulation  |
\*---------------------------------------------------------------------------*/
FoamFile
{
    version     2.0;
    format      ascii;
    class       volScalarField;
    location    "1.22";
    object      p;
}
// * * * * * * * * * * * * * * * * * * * * * * * * * * * * * * * * * * * * * //

dimensions      [0 2 -2 0 0 0 0];

internalField   nonuniform List<scalar> 
4214
(
-1.03885
-0.862954
-0.6484
-0.474261
-0.389249
-0.347863
-0.315707
-0.270946
-0.218311
-0.164014
-0.108412
-0.052691
0.00245202
0.0721796
0.136127
0.196135
0.229886
0.302419
0.366519
0.494255
0.568676
0.507563
0.377894
0.288457
0.244258
0.19193
0.131992
0.0625405
-0.00568467
-0.0622752
-0.111848
-0.162712
-0.217551
-0.271834
-0.318097
-0.351409
-0.393966
-0.478351
-0.652255
-0.864821
-1.03784
-0.888852
-0.938344
-0.970982
-0.825934
-0.696637
-0.609986
-0.539376
-0.461283
-0.375206
-0.284512
-0.186357
-0.0654027
0.0595536
0.201612
0.34807
0.511131
0.666162
0.818038
0.998489
1.00036
1.06105
1.01825
0.878802
0.753426
0.604592
0.449614
0.300863
0.157851
0.0181221
-0.10128
-0.21445
-0.30867
-0.397936
-0.4805
-0.553411
-0.619219
-0.701763
-0.82738
-0.972069
-0.936007
-0.881036
-1.61269
-1.53857
-1.52766
-1.37065
-1.19272
-1.05146
-0.92187
-0.781127
-0.628584
-0.465917
-0.280941
-0.0778297
0.140131
0.377984
0.624397
0.88362
1.13739
1.36842
1.71652
1.769
1.84253
1.75629
1.52075
1.29064
1.03979
0.794161
0.547839
0.304792
0.0721117
-0.134371
-0.335392
-0.511553
-0.666755
-0.81472
-0.949334
-1.07224
-1.20723
-1.38062
-1.53488
-1.54042
-1.60816
-2.1185
-2.00678
-1.98135
-1.81317
-1.6044
-1.41789
-1.23817
-1.04707
-0.836057
-0.603477
-0.341884
-0.0616308
0.243774
0.571291
0.912893
1.26844
1.62278
1.95687
2.31876
2.47597
2.57018
2.46662
2.19887
1.84044
1.49311
1.14284
0.800355
0.464719
0.146043
-0.146776
-0.42229
-0.674742
-0.896817
-1.09684
-1.27994
-1.45061
-1.6286
-1.83027
-1.99172
-2.00871
-2.11279
-2.67955
-2.54788
-2.47559
-2.2705
-2.02546
-1.79682
-1.57056
-1.31875
-1.0398
-0.729351
-0.392683
-0.0300128
0.364324
0.784276
1.22354
1.67081
2.13276
2.55181
2.94818
3.21901
3.34294
3.22794
2.93964
2.43576
1.97651
1.51769
1.07377
0.641038
0.230999
-0.151263
-0.505728
-0.834468
-1.128
-1.39194
-1.62804
-1.84349
-2.06203
-2.29748
-2.49241
-2.55242
-2.67437
-3.2084
-3.06023
-2.95671
-2.72102
-2.4399
-2.1714
-1.89195
-1.57949
-1.23311
-0.849263
-0.434054
0.0149198
0.499139
1.01394
1.55356
2.10171
2.67372
3.19677
3.67929
4.00824
4.14574
4.00475
3.65037
3.05229
2.47491
1.90671
1.35844
0.825695
0.322417
-0.148519
-0.585856
-0.98849
-1.35334
-1.68087
-1.97426
-2.23681
-2.49075
-2.75737
-2.98068
-3.06736
-3.2026
-3.76818
-3.59917
-3.46001
-3.18694
-2.86562
-2.55331
-2.21992
-1.84597
-1.43127
-0.973132
-0.475521
0.0622141
0.639444
1.25622
1.90426
2.57103
3.26285
3.94274
4.49629
4.85329
4.99458
4.8094
4.34281
3.68551
2.99601
2.31112
1.65024
1.01138
0.411449
-0.15052
-0.674369
-1.15512
-1.58997
-1.98126
-2.33186
-2.64301
-2.93625
-3.24088
-3.49232
-3.61023
-3.76296
-4.34103
-4.1509
-3.98404
-3.66916
-3.30891
-2.95127
-2.56346
-2.12769
-1.64423
-1.11089
-0.525554
0.109126
0.779913
1.50486
2.27035
3.06611
3.89091
4.71147
5.34668
5.74775
5.89623
5.6764
5.12343
4.36322
3.54793
2.73147
1.94382
1.19254
0.494428
-0.166717
-0.783182
-1.34267
-1.84838
-2.30335
-2.71098
-3.07134
-3.40482
-3.74376
-4.03072
-4.17167
-4.34099
-4.95091
-4.73277
-4.5405
-4.18607
-3.7847
-3.37921
-2.93645
-2.43854
-1.88591
-1.27629
-0.599395
0.14328
0.918251
1.75564
2.64832
3.58342
4.54946
5.46525
6.23655
6.70158
6.85777
6.61034
5.99442
5.10311
4.13243
3.16528
2.23613
1.36969
0.563835
-0.213201
-0.927027
-1.56533
-2.14294
-2.6622
-3.12676
-3.5366
-3.91172
-4.28569
-4.60838
-4.77166
-4.96024
-5.62192
-5.36283
-5.1352
-4.75003
-4.30865
-3.85389
-3.35569
-2.79502
-2.17127
-1.48062
-0.717245
0.131786
1.0418
2.00159
3.03144
4.13008
5.25388
6.30773
7.20727
7.72952
7.88919
7.60227
6.90081
5.86943
4.73593
3.60103
2.51901
1.52706
0.574219
-0.312595
-1.11804
-1.84017
-2.49189
-3.07622
-3.5973
-4.05605
-4.4734
-4.8817
-5.23386
-5.41956
-5.64236
-6.36442
-6.06846
-5.79926
-5.38344
-4.90469
-4.40156
-3.84731
-3.22239
-2.52465
-1.74889
-0.893606
0.0627225
1.11131
2.22183
3.39991
4.68756
5.99194
7.23127
8.25736
8.83597
8.99718
8.65869
7.85393
6.65619
5.34116
4.0189
2.76916
1.62802
0.516236
-0.479825
-1.3831
-2.1934
-2.92239
-3.57281
-4.15021
-4.65698
-5.11526
-5.55339
-5.92631
-6.14417
-6.4023
-7.17513
-6.86651
-6.56508
-6.11802
-5.60379
-5.05389
-4.44276
-3.75089
-2.97525
-2.10867
-1.15066
-0.0830153
1.08747
2.38526
3.73255
5.22134
6.73408
8.17601
9.34815
9.99054
10.1521
9.75221
8.83505
7.46042
5.92998
4.40149
2.95911
1.61664
0.370096
-0.741141
-1.75395
-2.65691
-3.46662
-4.18474
-4.81917
-5.37333
-5.87009
-6.33442
-6.72607
-6.96776
-7.2364
-8.06836
-7.77272
-7.45737
-6.98114
-6.43036
-5.83315
-5.16422
-4.40332
-3.54621
-2.58333
-1.51371
-0.314273
0.993666
2.48796
4.04037
5.75565
7.49057
9.13841
10.4401
11.1224
11.2747
10.8179
9.80061
8.25198
6.49807
4.74761
3.07344
1.52843
0.121614
-1.12348
-2.25615
-3.25711
-4.15047
-4.93707
-5.62855
-6.22884
-6.76216
-7.25205
-7.6629
-7.91305
-8.16767
-9.11371
-8.80924
-8.48332
-7.98607
-7.40254
-6.75773
-6.03367
-5.20512
-4.26791
-3.2058
-2.01716
-0.669911
0.805167
2.49033
4.30311
6.29501
8.25261
10.1075
11.512
12.2032
12.338
11.8231
10.7251
9.01514
7.02131
5.03167
3.06262
1.33604
-0.26763
-1.66136
-2.92601
-4.02792
-5.00544
-5.85585
-6.60108
-7.24057
-7.8061
-8.31569
-8.74335
-8.9961
-9.24432
-10.4128
-10.0508
-9.70521
-9.20029
-8.61037
-7.91471
-7.15103
-6.24541
-5.24388
-4.0722
-2.77974
-1.26999
0.353021
2.29061
4.28079
6.63845
8.83221
11.0116
12.5942
13.3605
13.537
12.8542
11.5762
9.6401
7.29993
5.05173
2.77201
0.869626
-0.96402
-2.47777
-3.88506
-5.06635
-6.13522
-7.02976
-7.83533
-8.4929
-9.09008
-9.59437
-10.0356
-10.2922
-10.5632
-12.1696
-11.7103
-11.3558
-10.813
-10.272
-9.48392
-8.72944
-7.68499
-6.668
-5.33581
-4.01344
-2.31119
-0.669511
1.57503
3.6168
6.45252
8.85453
11.6269
13.5884
14.6368
15.0466
13.9167
12.1845
9.85814
6.94769
4.51272
1.74965
-0.162369
-2.29025
-3.78064
-5.35817
-6.5356
-7.73868
-8.62372
-9.54201
-10.1694
-10.839
-11.287
-11.7729
-11.982
-12.3111
-14.3731
-13.8314
-13.512
-12.8912
-12.3843
-11.5148
-10.7522
-9.59452
-8.51831
-7.07435
-5.66951
-3.83802
-2.13094
0.362431
2.49265
5.7275
8.34852
11.6448
13.926
15.3195
15.9314
14.364
12.1126
9.40005
5.97879
3.34457
0.154138
-1.78251
-4.15706
-5.6346
-7.32098
-8.52362
-9.81137
-10.7126
-11.7145
-12.3258
-13.0678
-13.4348
-13.973
-14.0982
-14.4536
-14.6322
-12.8305
-11.2434
-9.93029
-8.83136
-7.91146
-7.11435
-6.3936
-5.73885
-5.13755
-4.55612
-4.00933
-3.45602
-2.96917
-2.40233
-2.03062
-1.68417
-14.8527
-13.2485
-11.8029
-10.5652
-9.49906
-8.60001
-7.82241
-7.10228
-6.43597
-5.83189
-5.25479
-4.72752
-4.17371
-3.72103
-3.12357
-2.84902
-2.196
-14.8281
-13.5126
-12.2722
-11.1415
-10.1352
-9.26095
-8.5211
-7.83496
-7.18579
-6.58865
-6.01548
-5.49704
-4.94941
-4.50107
-3.90487
-3.64458
-2.90421
-14.8456
-13.7486
-12.6699
-11.6517
-10.7269
-9.89161
-9.18547
-8.54015
-7.9221
-7.34448
-6.78739
-6.28372
-5.74704
-5.30395
-4.72293
-4.4611
-3.7055
-14.7147
-13.841
-12.9637
-12.081
-11.2483
-10.4817
-9.81047
-9.21328
-8.64151
-8.09684
-7.56779
-7.08197
-6.57171
-6.14775
-5.57928
-5.31251
-4.57163
-14.6112
-13.876
-13.181
-12.4339
-11.6989
-11.014
-10.3804
-9.83224
-9.31594
-8.8172
-8.32887
-7.87578
-7.40466
-7.00059
-6.4633
-6.20079
-5.48882
-14.3397
-13.7927
-13.277
-12.6964
-12.0761
-11.4727
-10.9004
-10.3924
-9.92314
-9.48152
-9.04525
-8.63958
-8.20585
-7.84725
-7.37145
-7.11957
-6.44758
-14.1223
-13.6568
-13.2541
-12.838
-12.3624
-11.8604
-11.3625
-10.8855
-10.4651
-10.09
-9.69996
-9.34608
-8.95747
-8.65058
-8.22804
-8.00847
-7.40738
-13.718
-13.4026
-13.1156
-12.8162
-12.4965
-12.1364
-11.7433
-11.3406
-10.9502
-10.6078
-10.2805
-9.98477
-9.64106
-9.38079
-8.99705
-8.82261
-8.31648
-13.4382
-13.132
-12.8968
-12.6803
-12.4536
-12.2225
-11.9734
-11.6851
-11.375
-11.066
-10.7732
-10.5192
-10.2581
-10.0505
-9.73111
-9.58782
-9.16673
-12.9506
-12.7542
-12.6041
-12.4522
-12.2932
-12.135
-11.9733
-11.81
-11.6256
-11.415
-11.1836
-10.9778
-10.758
-10.5947
-10.3708
-10.2516
-9.94829
-12.6484
-12.4291
-12.2993
-12.1843
-12.0625
-11.9439
-11.8323
-11.7283
-11.6227
-11.5181
-11.3948
-11.2644
-11.104
-10.9916
-10.8283
-10.752
-10.5662
-12.0514
-11.9448
-11.8897
-11.8349
-11.7653
-11.6928
-11.6171
-11.5449
-11.4796
-11.4205
-11.3612
-11.3146
-11.2426
-11.1947
-11.0975
-11.061
-10.9698
-11.7054
-11.556
-11.4896
-11.444
-11.3977
-11.3543
-11.3194
-11.2902
-11.2603
-11.2369
-11.2138
-11.2034
-11.1775
-11.1836
-11.1556
-11.1605
-11.1455
-11.0465
-10.992
-10.9778
-10.968
-10.9507
-10.9346
-10.9245
-10.9183
-10.9149
-10.9147
-10.9138
-10.9371
-10.9347
-10.9921
-10.9809
-11.0505
-11.0853
-10.6398
-10.5328
-10.4883
-10.4637
-10.4447
-10.4321
-10.4265
-10.4267
-10.4382
-10.4533
-10.4709
-10.5051
-10.5253
-10.5934
-10.5869
-10.6906
-10.7642
-9.92862
-9.8973
-9.88212
-9.87021
-9.85665
-9.84499
-9.83696
-9.83322
-9.83771
-9.85399
-9.88006
-9.91704
-9.93774
-10.0082
-10.0067
-10.118
-10.1873
-9.42443
-9.33207
-9.28082
-9.2416
-9.21066
-9.18607
-9.16704
-9.15285
-9.14344
-9.1395
-9.14316
-9.16432
-9.17978
-9.24854
-9.24647
-9.34459
-9.3489
-8.58207
-8.54978
-8.5143
-8.47447
-8.4372
-8.40311
-8.37324
-8.34733
-8.32553
-8.30751
-8.29447
-8.287
-8.28111
-8.30625
-8.29284
-8.36529
-8.34039
-7.91497
-7.77707
-7.69621
-7.62265
-7.55944
-7.50165
-7.4498
-7.40356
-7.36332
-7.32689
-7.29524
-7.26859
-7.24152
-7.23142
-7.20155
-7.23229
-7.18234
-6.9755
-6.89839
-6.81215
-6.71704
-6.62677
-6.53863
-6.45442
-6.37404
-6.29767
-6.22446
-6.15573
-6.09083
-6.02328
-5.97654
-5.89312
-5.89599
-5.7749
-6.30349
-6.07987
-5.92597
-5.78381
-5.64962
-5.51775
-5.39031
-5.26652
-5.14642
-5.02947
-4.91743
-4.80587
-4.69336
-4.60921
-4.45994
-4.4374
-4.23589
-5.2939
-5.1602
-4.99157
-4.80016
-4.61818
-4.441
-4.2697
-4.10232
-3.93842
-3.77769
-3.62093
-3.46396
-3.31034
-3.17583
-2.98261
-2.92548
-2.64632
-4.58819
-4.24692
-4.00545
-3.77338
-3.5507
-3.3306
-3.11594
-2.90563
-2.69917
-2.49634
-2.2975
-2.09854
-1.9037
-1.72086
-1.4888
-1.39731
-1.0429
-3.51704
-3.28997
-3.02199
-2.74029
-2.47151
-2.20901
-1.95354
-1.70336
-1.4577
-1.21671
-0.98035
-0.744696
-0.515792
-0.296779
-0.0403005
0.0910955
0.500815
-2.7832
-2.34351
-2.01804
-1.70119
-1.39624
-1.09739
-0.806185
-0.521475
-0.242825
0.0295695
0.296852
0.562493
0.819712
1.07176
1.35737
1.53191
1.96331
-1.7139
-1.39354
-1.04104
-0.684292
-0.342848
-0.0116685
0.309354
0.621606
0.925507
1.22132
1.51139
1.79972
2.08146
2.36191
2.65954
2.85461
3.29136
-0.973875
-0.468378
-0.0693573
0.313455
0.680485
1.03621
1.3797
1.71187
2.03405
2.34858
2.65842
2.96285
3.25406
3.53745
3.83113
4.0319
4.45831
0.0566703
0.447058
0.862841
1.27221
1.66143
2.03478
2.3929
2.73805
3.07313
3.39737
3.71059
4.01314
4.29952
4.57989
4.86391
5.06416
5.46615
0.780727
1.32748
1.77235
2.19295
2.59258
2.97425
3.3388
3.6886
4.02333
4.34299
4.64969
4.94292
5.21933
5.49071
5.75722
5.95367
6.32379
1.75155
2.18289
2.63275
3.0629
3.46643
3.8478
4.20914
4.55216
4.87805
5.18638
5.47971
5.75818
6.01992
6.27647
6.5208
6.70695
7.04154
2.4488
3.0046
3.46004
3.88375
4.28024
4.65224
5.00174
5.33081
5.6401
5.93212
6.20724
6.46649
6.70943
6.94544
7.16608
7.34051
7.63756
3.34802
3.7879
4.235
4.65035
5.03313
5.38813
5.71855
6.02697
6.31468
6.58478
6.83881
7.07606
7.29805
7.51188
7.70802
7.86755
8.12639
4.01327
4.54266
4.97421
5.36646
5.72655
6.0578
6.36361
6.64691
6.91005
7.15455
7.38398
7.59747
7.79564
7.9859
8.15896
8.30153
8.52126
4.84196
5.25378
5.66183
6.02891
6.36059
6.66275
6.93994
7.19526
7.43124
7.65005
7.85301
8.04271
8.21744
8.38171
8.52948
8.65384
8.83598
5.46936
5.9356
6.30728
6.63634
6.93319
7.20237
7.44841
7.67429
7.88232
8.07443
8.25207
8.41518
8.5678
8.70965
8.83383
8.9378
9.08285
6.22375
6.56715
6.89918
7.18869
7.44726
7.68114
7.89479
8.09061
8.2706
8.43617
8.5883
8.72721
8.85294
8.96992
9.07281
9.15984
9.27252
6.81839
7.18083
7.46054
7.70237
7.92049
8.11833
8.29896
8.46397
8.61507
8.75333
8.87925
8.99301
9.09549
9.18724
9.2625
9.32598
9.41368
7.52766
7.76646
7.99538
8.19179
8.37011
8.53186
8.67865
8.81167
8.93248
9.04166
9.13933
9.2257
9.30127
9.36538
9.41556
9.46035
9.51976
8.09208
8.3212
8.48297
8.62837
8.76487
8.88878
9.00001
9.10089
9.19221
9.27374
9.34497
9.40552
9.45494
9.49297
9.52282
9.55739
9.60268
7.8778
8.40908
9.00557
9.4879
10.0189
10.4624
10.9543
11.3709
11.8152
12.1916
12.579
12.9074
13.2319
13.5058
13.7627
13.976
14.1617
14.3091
14.4212
14.4985
14.5365
14.5408
14.5055
14.436
14.3297
14.1867
14.0135
13.7991
13.5641
13.2817
12.991
12.6451
12.3049
11.9012
11.5186
11.0646
10.6534
10.1632
9.7176
9.17012
8.68599
8.01614
8.51437
8.98719
9.45237
9.90353
10.3447
10.7704
11.1793
11.5699
11.9395
12.2882
12.6113
12.9102
13.1797
13.4213
13.6308
13.8088
13.9527
14.0623
14.1368
14.1753
14.1784
14.1453
14.0771
13.9742
13.837
13.6678
13.4662
13.2358
12.9758
12.6906
12.3795
12.0465
11.6918
11.3182
10.9276
10.5203
10.1016
9.67162
9.23197
8.76904
8.15136
8.58347
9.00062
9.4207
9.83088
10.2343
10.6239
11.003
11.3652
11.7128
12.0401
12.348
12.6316
12.8912
13.1228
13.326
13.4981
13.6384
13.7452
13.8178
13.8559
13.8588
13.8271
13.7609
13.661
13.5288
13.3651
13.1722
12.9509
12.7046
12.4334
12.1419
11.8293
11.501
11.1552
10.7979
10.4261
10.046
9.65742
9.26775
8.86326
8.27791
8.66269
9.03463
9.40789
9.77887
10.1443
10.5022
10.852
11.1906
11.5162
11.826
12.1179
12.3893
12.638
12.8614
13.0578
13.225
13.3613
13.4656
13.5366
13.5739
13.5771
13.5464
13.4823
13.3856
13.2577
13.1001
12.9145
12.703
12.4679
12.2113
11.9359
11.6437
11.3373
11.0186
10.6905
10.354
10.0118
9.6621
9.31718
8.95803
8.39362
8.73495
9.06411
9.39835
9.73442
10.0697
10.3993
10.7232
11.0396
11.3461
11.6395
11.9174
12.1771
12.4162
12.6319
12.8221
12.9845
13.1174
13.2192
13.2887
13.3254
13.3288
13.2992
13.237
13.1434
13.0197
12.8675
12.689
12.4862
12.2618
12.0182
11.7579
11.4834
11.1974
10.9026
10.6013
10.2944
9.98321
9.67071
9.36559
9.04664
8.49801
8.79808
9.09045
9.39223
9.6967
10.0041
10.3116
10.6136
10.9098
11.1987
11.4773
11.7426
11.9917
12.222
12.4306
12.6151
12.7732
12.9029
13.0024
13.0707
13.1067
13.1104
13.0818
13.0216
12.9307
12.8108
12.6638
12.4917
12.297
12.0824
11.8505
11.6039
11.3455
11.0782
10.8044
10.5251
10.242
9.96082
9.68038
9.40766
9.12781
8.59103
8.85629
9.11724
9.39011
9.66732
9.94961
10.2338
10.5186
10.7981
11.071
11.3361
11.5901
11.8297
12.052
12.2543
12.4338
12.588
12.7148
12.8123
12.8794
12.915
12.9189
12.8913
12.8327
12.7445
12.6281
12.4856
12.3194
12.132
11.9262
11.7047
11.4706
11.2269
10.9763
10.7195
10.4598
10.2009
9.94533
9.69266
9.44957
9.2011
8.67578
8.91117
9.14419
9.39121
9.64404
9.90405
10.1681
10.4343
10.7004
10.9603
11.213
11.4568
11.6881
11.9037
12.1003
12.2754
12.4261
12.5504
12.6463
12.7123
12.7475
12.7517
12.7249
12.6679
12.582
12.4688
12.3304
12.1694
11.9884
11.7903
11.5782
11.3553
11.1246
10.8873
10.6462
10.4059
10.1679
9.93518
9.7073
9.49095
9.27118
8.75334
8.96189
9.16994
9.3936
9.62485
9.86492
10.111
10.3612
10.6126
10.8632
11.1062
11.3409
11.5648
11.7744
11.9663
12.1375
12.2853
12.4075
12.5019
12.5671
12.6021
12.6065
12.5805
12.5249
12.4409
12.3304
12.1957
12.0392
11.8638
11.6725
11.4687
11.2556
11.0349
10.8093
10.5837
10.3603
10.141
9.92879
9.72304
9.53055
9.33651
8.82248
9.0072
9.19302
9.3961
9.60885
9.8318
10.0623
10.2985
10.5375
10.7767
11.0131
11.2405
11.4576
11.6619
11.8496
12.0178
12.1635
12.2841
12.3775
12.4421
12.477
12.4816
12.4562
12.4016
12.3192
12.2108
12.079
11.9263
11.7557
11.5707
11.3745
11.1692
10.9569
10.7433
10.5309
10.3222
10.1193
9.92492
9.73843
9.56703
9.39582
8.88238
9.04599
9.21202
9.39738
9.59424
9.80244
10.0195
10.2434
10.4717
10.7016
10.9299
11.1522
11.3638
11.5636
11.7483
11.9145
12.0588
12.1785
12.2714
12.3358
12.3706
12.3754
12.3505
12.2965
12.2151
12.1082
11.9783
11.8284
11.6618
11.4823
11.292
11.0925
10.8896
10.6862
10.4853
10.2895
10.1008
9.92163
9.75181
9.5991
9.44806
8.93213
9.07715
9.22555
9.39456
9.57628
9.77062
9.97553
10.189
10.4084
10.6307
10.8527
11.0715
11.281
11.4788
11.6618
11.8268
11.9704
12.0898
12.1825
12.2469
12.2818
12.2868
12.262
12.2085
12.1277
12.0216
11.893
11.7449
11.5806
11.4038
11.2162
11.0224
10.8265
10.6316
10.4405
10.2562
10.0805
9.91551
9.76148
9.62543
9.49215
8.97026
9.09912
9.23335
9.38768
9.55647
9.73892
9.93346
10.1382
10.3504
10.5669
10.7842
10.9995
11.2093
11.4084
11.5908
11.7547
11.8975
12.0166
12.1095
12.174
12.2091
12.2142
12.1897
12.1363
12.0557
11.9504
11.8231
11.6763
11.513
11.3353
11.1494
10.96
10.7697
10.5814
10.3987
10.2242
10.0598
9.90702
9.76696
9.6443
9.5265
8.99599
9.11032
9.23644
9.38136
9.54185
9.71635
9.90343
10.1005
10.3059
10.5178
10.7316
10.9448
11.1523
11.3499
11.5319
11.6953
11.838
11.9575
12.0508
12.1158
12.1511
12.1564
12.1318
12.0783
11.9976
11.8925
11.7657
11.6197
11.4572
11.282
11.0985
10.9122
10.7262
10.544
10.3687
10.2014
10.0447
9.89993
9.76897
9.65415
9.55026
9.01451
9.11221
9.22941
9.36371
9.51508
9.68216
9.86358
10.0549
10.2565
10.465
10.6769
10.888
11.095
11.2911
11.4755
11.6426
11.7887
11.9106
12.0055
12.0717
12.1076
12.1129
12.0877
12.0332
11.9511
11.8436
11.714
11.5655
11.4026
11.2282
11.0471
10.8628
10.6799
10.5018
10.3319
10.1695
10.0196
9.88349
9.76254
9.65652
9.56841
9.04072
9.11265
9.20719
9.32283
9.46006
9.61693
9.7912
9.98214
10.1846
10.3915
10.6045
10.8155
11.0269
11.2284
11.4199
11.5952
11.7489
11.8758
11.9743
12.0429
12.0801
12.0853
12.0586
12.0015
11.9157
11.8026
11.6658
11.5104
11.3418
11.1626
10.981
10.7964
10.6146
10.4369
10.2666
10.1107
9.97016
9.84719
9.74372
9.65893
9.59524
9.08348
9.12087
9.19811
9.30352
9.4334
9.58456
9.7538
9.93953
10.1374
10.3469
10.5608
10.7781
10.9903
11.1975
11.3919
11.5693
11.7254
11.8568
11.9597
12.031
12.0694
12.0743
12.0461
11.9857
11.8955
11.779
11.6399
11.4819
11.3092
11.1292
10.9423
10.7559
10.5723
10.3968
10.2319
10.0814
9.94639
9.83024
9.73629
9.66825
9.63879
-1.67632
-2.02448
-2.39572
-2.96541
-3.4541
-4.00686
-4.54857
-5.11841
-5.70735
-6.35597
-7.07786
-7.87427
-8.76271
-9.83936
-11.1275
-12.6558
-14.3626
-2.18816
-2.8474
-3.12097
-3.72138
-4.1787
-4.73357
-5.25939
-5.83412
-6.43629
-7.10122
-7.82053
-8.59355
-9.46126
-10.507
-11.7061
-13.0995
-14.5993
-2.89806
-3.64764
-3.90924
-4.50954
-4.96406
-5.51589
-6.03645
-6.61163
-7.20994
-7.8608
-8.55032
-9.28712
-10.1365
-11.1371
-12.2616
-13.6227
-15.2006
-3.70466
-4.47316
-4.73885
-5.32784
-5.7787
-6.32326
-6.83229
-7.39475
-7.97731
-8.60203
-9.25434
-9.95239
-10.7694
-11.6988
-12.7166
-13.8263
-15.0634
-4.58271
-5.34048
-5.61209
-6.19211
-6.62594
-7.14701
-7.64155
-8.17915
-8.73288
-9.31632
-9.92124
-10.5805
-11.356
-12.2025
-13.1239
-14.0815
-15.018
-5.52023
-6.25286
-6.5226
-7.07303
-7.48874
-7.97233
-8.43781
-8.93863
-9.45108
-9.98293
-10.5372
-11.1606
-11.866
-12.6249
-13.4305
-14.2734
-15.1463
-6.50408
-7.198
-7.45745
-7.95273
-8.33012
-8.77644
-9.19839
-9.65283
-10.1116
-10.5907
-11.0947
-11.6781
-12.301
-12.9612
-13.6189
-14.2332
-14.858
-7.50122
-8.12886
-8.35974
-8.79915
-9.12385
-9.53075
-9.90184
-10.3103
-10.7054
-11.1322
-11.6046
-12.1269
-12.6724
-13.2291
-13.7521
-14.2088
-14.6666
-8.45966
-8.99487
-9.18432
-9.5848
-9.86178
-10.225
-10.5378
-10.8802
-11.2302
-11.6178
-12.0472
-12.4889
-12.9261
-13.336
-13.7121
-14.0998
-14.5761
-9.3526
-9.80912
-9.96502
-10.3102
-10.5336
-10.8118
-11.086
-11.3918
-11.6972
-12.045
-12.3912
-12.7204
-13.016
-13.2885
-13.5438
-13.7862
-14.0858
-10.1961
-10.5399
-10.669
-10.9208
-11.1082
-11.3449
-11.5531
-11.8154
-12.0757
-12.3289
-12.5539
-12.7579
-12.9591
-13.1605
-13.3483
-13.5223
-13.7101
-10.9055
-11.1323
-11.2269
-11.408
-11.5301
-11.7269
-11.8986
-12.0731
-12.2227
-12.3631
-12.5
-12.6399
-12.7838
-12.9396
-13.1014
-13.289
-13.5592
-11.4114
-11.5368
-11.5855
-11.7159
-11.7932
-11.9049
-11.9828
-12.0684
-12.148
-12.2323
-12.3242
-12.4221
-12.5244
-12.6265
-12.7174
-12.8153
-12.9797
-11.6871
-11.7345
-11.7458
-11.8081
-11.8162
-11.8581
-11.8882
-11.9332
-11.9805
-12.0349
-12.0937
-12.156
-12.2214
-12.2854
-12.3378
-12.3784
-12.4408
-11.7386
-11.7293
-11.682
-11.7047
-11.6718
-11.6831
-11.6861
-11.6997
-11.7165
-11.7415
-11.7751
-11.8164
-11.8661
-11.9234
-11.9881
-12.0822
-12.2439
-11.5288
-11.4739
-11.3854
-11.3991
-11.3477
-11.3422
-11.3235
-11.3193
-11.322
-11.331
-11.3483
-11.3726
-11.403
-11.4379
-11.4752
-11.5309
-11.6341
-11.0493
-10.9963
-10.8968
-10.9049
-10.8513
-10.8379
-10.8123
-10.8031
-10.8078
-10.8183
-10.8347
-10.8566
-10.8831
-10.9125
-10.9416
-10.9679
-10.9978
-10.3082
-10.3096
-10.2212
-10.2246
-10.1622
-10.1595
-10.1572
-10.1652
-10.1798
-10.1999
-10.2258
-10.2582
-10.2985
-10.3484
-10.4122
-10.4965
-10.6212
-9.37671
-9.40193
-9.33357
-9.34969
-9.33609
-9.34778
-9.36192
-9.38309
-9.40859
-9.43824
-9.4727
-9.5118
-9.55638
-9.60651
-9.66535
-9.73288
-9.82237
-8.27497
-8.32615
-8.2972
-8.32909
-8.34231
-8.37263
-8.40352
-8.43864
-8.47958
-8.52661
-8.58024
-8.63966
-8.70585
-8.77651
-8.84965
-8.90087
-8.93643
-6.89898
-7.02127
-7.01871
-7.10389
-7.15238
-7.22165
-7.28873
-7.36005
-7.43654
-7.51699
-7.60229
-7.69272
-7.79115
-7.89715
-8.01498
-8.14296
-8.34038
-5.36365
-5.56845
-5.59165
-5.74318
-5.82902
-5.9445
-6.05933
-6.17508
-6.29643
-6.42122
-6.54939
-6.68048
-6.81452
-6.9436
-7.07808
-7.226
-7.4343
-3.76271
-4.04746
-4.10526
-4.30315
-4.44033
-4.59766
-4.75875
-4.91989
-5.08564
-5.25541
-5.43012
-5.61093
-5.79844
-5.98805
-6.18761
-6.35821
-6.46115
-2.13547
-2.49863
-2.59134
-2.83018
-3.01736
-3.21725
-3.42166
-3.62607
-3.8346
-4.04676
-4.26283
-4.48342
-4.71105
-4.95007
-5.21466
-5.48357
-5.81649
-0.554077
-0.978282
-1.11223
-1.37766
-1.60339
-1.83938
-2.08232
-2.32616
-2.57503
-2.82902
-3.08777
-3.35101
-3.61894
-3.88717
-4.15552
-4.42754
-4.81379
0.956811
0.50779
0.32708
0.02891
-0.233034
-0.500029
-0.775481
-1.05251
-1.33458
-1.62312
-1.91844
-2.2217
-2.53528
-2.85695
-3.18873
-3.50312
-3.74345
2.33752
1.88012
1.67755
1.36635
1.07339
0.777823
0.475878
0.172911
-0.135342
-0.451389
-0.775537
-1.10838
-1.45123
-1.80641
-2.18996
-2.5955
-3.06438
3.55841
3.10883
2.89921
2.59056
2.29327
1.98777
1.6682
1.34255
1.01106
0.6727
0.325187
-0.0335547
-0.404131
-0.783872
-1.17026
-1.56136
-2.08972
4.61972
4.19336
3.98246
3.68198
3.38626
3.08406
2.76495
2.43493
2.09352
1.73949
1.37495
0.998089
0.604706
0.194017
-0.233916
-0.663695
-1.01349
5.52876
5.13419
4.92557
4.64161
4.35354
4.05995
3.74887
3.42372
3.08484
2.73062
2.35969
1.97398
1.57114
1.14932
0.695534
0.204159
-0.33187
6.29274
5.93419
5.73524
5.47346
5.19946
4.92001
4.62276
4.30962
3.98152
3.6352
3.2695
2.88411
2.4785
2.05252
1.60617
1.1485
0.53363
6.9298
6.61031
6.42335
6.18597
5.93213
5.67106
5.39242
5.09746
4.78487
4.45215
4.10049
3.7262
3.32749
2.90113
2.44476
1.96841
1.55355
7.45557
7.17613
7.00351
6.79162
6.56067
6.32062
6.06428
5.79019
5.49731
5.18734
4.85487
4.49912
4.11741
3.70712
3.25764
2.75208
2.19992
7.88122
7.64345
7.48854
7.30103
7.09441
6.8788
6.6468
6.39643
6.13095
5.84486
5.53706
5.20518
4.84601
4.45722
4.03579
3.58966
2.97639
8.22157
8.02439
7.88849
7.72761
7.54851
7.35795
7.1505
6.92816
6.68826
6.42955
6.14968
5.84611
5.51536
5.15256
4.75179
4.31521
3.91456
8.48871
8.33185
8.21777
8.08243
7.92773
7.76058
7.58059
7.38509
7.17294
6.94284
6.69272
6.42026
6.1223
5.79551
5.42974
5.00084
4.52102
8.69356
8.57279
8.47756
8.36509
8.23635
8.09768
7.94469
7.77617
7.59201
7.39113
7.17189
6.93208
6.66898
6.3797
6.0598
5.71748
5.20348
8.84559
8.75278
8.68311
8.60056
8.50007
8.38688
8.26086
8.12064
7.96575
7.79545
7.60844
7.4027
7.17634
6.92457
6.64388
6.33556
6.05574
8.9585
8.89624
8.84851
8.79406
8.72409
8.64079
8.54483
8.43547
8.3122
8.17455
8.02148
7.85119
7.66254
7.45185
7.21716
6.9246
6.62912
9.04493
9.00005
8.96465
8.93314
8.89203
8.83764
8.77011
8.68976
8.59672
8.49114
8.37271
8.2398
8.09073
7.92423
7.74204
7.52969
7.21626
-15.6138
-14.8809
-13.6731
-11.86
-9.32367
-5.8428
-1.14831
4.78257
10.8654
14.1985
13.1077
8.13917
1.74492
-3.83795
-8.00082
-10.996
-13.1087
-14.5444
-15.4268
-15.8912
-17.0844
-16.6207
-15.6476
-14.016
-11.5988
-8.15023
-3.37458
2.76526
9.14677
12.8623
11.4687
5.82256
-0.959644
-6.64698
-10.7831
-13.5693
-15.4537
-16.6303
-17.2256
-17.4156
-18.7701
-18.6198
-17.977
-16.6435
-14.5088
-11.3033
-6.62972
-0.472098
6.06742
9.9256
8.2952
2.0932
-5.04783
-10.5407
-14.4248
-16.8127
-18.2842
-19.0694
-19.2797
-19.1248
-20.7037
-20.9517
-20.7489
-19.8611
-18.2422
-15.5255
-11.2573
-5.46576
1.06849
5.05773
3.21142
-3.42924
-10.9611
-16.1082
-19.2179
-20.9861
-21.7301
-21.9464
-21.6508
-21.0673
-22.9042
-23.6457
-24.0077
-23.7815
-23.0389
-21.0938
-17.7379
-12.59
-6.14554
-1.95671
-3.9713
-11.034
-18.7969
-23.6176
-25.6084
-26.3338
-25.8741
-25.2742
-24.3473
-23.2497
-25.3989
-26.7319
-27.8085
-28.5532
-29.0745
-28.4175
-26.4927
-22.023
-15.7112
-11.167
-13.1704
-20.5985
-28.3409
-32.8144
-33.7213
-32.6251
-30.8254
-29.0848
-27.3791
-25.6883
-28.1942
-30.211
-32.2189
-34.2974
-36.1361
-37.6699
-37.2182
-33.3811
-27.2557
-22.2637
-23.9025
-31.3577
-38.9454
-42.9494
-42.7542
-39.6921
-36.7109
-33.446
-30.7337
-28.3793
-31.2785
-34.0752
-37.2892
-40.9628
-44.2494
-47.8219
-48.6912
-45.6504
-39.7682
-34.433
-35.2497
-42.2368
-49.3922
-53.1115
-52.1366
-47.6179
-42.9666
-38.3829
-34.4137
-31.2939
-34.6394
-38.3708
-42.9214
-47.7707
-53.3467
-58.1413
-59.654
-57.092
-51.634
-46.1852
-46.1364
-52.2695
-58.5391
-61.9125
-60.8745
-55.8631
-49.1861
-43.7365
-38.4165
-34.3819
-38.2638
-43.1119
-48.8685
-54.8166
-62.133
-67.1803
-68.6713
-66.459
-61.5912
-56.2056
-55.4889
-60.5206
-65.6661
-68.5295
-67.7511
-63.1745
-55.6679
-48.6895
-42.5962
-37.6068
-42.071
-47.9442
-54.376
-62.0046
-69.24
-73.7046
-74.9148
-73.0811
-68.9247
-63.9083
-62.5673
-66.4569
-70.5267
-72.7308
-72.1394
-68.42
-61.7
-53.4764
-46.7697
-40.9252
-45.8503
-52.235
-59.6997
-67.8493
-73.9179
-77.4625
-78.4401
-76.9994
-73.5412
-69.1009
-67.3073
-70.066
-73.1782
-74.7618
-74.1915
-71.1965
-65.7762
-58.1082
-50.4362
-44.2027
-49.5926
-56.5317
-64.4846
-71.3632
-76.1366
-78.9085
-79.7234
-78.5681
-75.6695
-71.8381
-70.0519
-71.5413
-73.7785
-74.9116
-74.2584
-71.6798
-67.45
-61.5705
-54.1127
-47.2796
-53.7305
-60.5797
-66.9701
-72.004
-75.9135
-78.408
-79.1271
-78.0775
-75.478
-72.129
-70.4931
-70.9298
-72.4883
-73.3655
-72.7426
-70.4652
-66.7867
-62.265
-57.1088
-50.5255
-57.7324
-61.9805
-66.102
-70.5143
-74.0732
-76.2277
-76.758
-75.5887
-73.0089
-69.9177
-68.1213
-68.0996
-69.3366
-70.1743
-69.6483
-67.728
-64.4855
-60.6188
-57.0236
-52.9945
-58.0728
-60.1366
-63.2191
-67.3384
-70.5331
-72.2106
-72.5472
-71.0098
-68.2134
-65.126
-63.2524
-63.1953
-64.3649
-65.3693
-65.0165
-63.6156
-60.8776
-57.31
-54.615
-52.4615
-54.4836
-55.9489
-59.0551
-62.8024
-65.3414
-66.4611
-66.3932
-64.3572
-61.3429
-58.3349
-56.7143
-56.6876
-57.88
-59.1515
-59.1603
-58.2865
-56.2875
-53.145
-50.4455
-49.0509
-48.9314
-51.5529
-54.7882
-57.5712
-59.1186
-59.6842
-58.6663
-56.2739
-53.2977
-50.6578
-49.3499
-49.408
-50.6478
-52.1336
-52.9117
-52.5616
-51.4
-49.2295
-46.5519
-44.1812
-45.4962
-48.4741
-51.179
-52.7326
-53.3425
-52.8566
-50.8365
-48.1932
-45.3585
-43.0811
-42.0325
-42.2942
-43.6598
-45.4195
-46.9657
-47.5547
-47.2539
-46.1534
-44.0487
-41.3505
-44.6283
-45.6717
-46.333
-46.5891
-46.0515
-44.4352
-42.2572
-39.9303
-37.6402
-35.8791
-35.1222
-35.3894
-36.5793
-38.2177
-39.8187
-41.1846
-41.9468
-41.907
-41.5394
-40.8862
-40.4274
-37.5725
-39.4814
-44.0547
-45.6097
-45.4555
-43.9899
-42.0072
-39.6234
-37.0211
-34.3369
-31.6634
-29.0847
-26.6605
-24.4238
-22.3838
-20.5391
-18.8799
-17.4085
-16.0919
-39.9835
-36.6837
-37.6812
-41.0085
-42.5264
-41.7515
-40.2415
-38.4163
-36.2175
-33.887
-31.5478
-29.254
-27.0565
-24.9947
-23.0894
-21.3469
-19.767
-18.341
-17.0693
-15.9199
-40.3341
-37.3421
-37.0102
-38.6733
-39.4966
-37.9661
-36.6351
-35.012
-33.0749
-31.032
-28.9881
-26.9957
-25.0971
-23.3218
-21.6848
-20.1882
-18.8312
-17.6031
-16.506
-15.5069
-41.0471
-38.3359
-37.0126
-37.4393
-37.1372
-35.3208
-33.8093
-32.1506
-30.3363
-28.4726
-26.6315
-24.8625
-23.1958
-21.6473
-20.2244
-18.9265
-17.7534
-16.689
-15.7455
-14.8772
-41.5528
-39.4568
-37.0631
-36.4943
-34.8205
-33.0703
-31.345
-29.5832
-27.83
-26.0971
-24.4167
-22.8254
-21.3424
-19.975
-18.7252
-17.5904
-16.5689
-15.6388
-14.8289
-14.0533
-41.9173
-40.57
-37.4048
-35.7391
-32.7311
-30.9314
-29.0906
-27.2517
-25.5135
-23.8642
-22.3061
-20.8551
-19.5192
-18.299
-17.1925
-16.1953
-15.3008
-14.492
-13.8067
-13.1219
-42.1839
-41.3895
-37.9093
-34.9037
-31.0705
-28.9218
-26.9281
-25.0433
-23.3077
-21.7171
-20.2559
-18.9201
-17.7062
-16.6096
-15.625
-14.7449
-13.9589
-13.2666
-12.6826
-12.0782
-42.3647
-41.8184
-37.8668
-33.6535
-29.6057
-27.0177
-24.8043
-22.8811
-21.1511
-19.6098
-18.2292
-16.9913
-15.8821
-14.8924
-14.013
-13.2323
-12.5443
-11.9598
-11.4426
-10.9347
-42.6036
-41.8339
-37.3989
-31.8658
-27.9582
-25.0773
-22.6606
-20.7051
-18.9897
-17.5
-16.1928
-15.0429
-14.0274
-13.1324
-12.3439
-11.6489
-11.0504
-10.5447
-10.0633
-9.69429
-42.988
-41.6005
-36.3865
-29.7631
-25.9828
-22.9932
-20.4471
-18.4734
-16.7842
-15.3541
-14.1205
-13.0544
-12.1261
-11.3169
-10.6086
-9.9918
-9.46995
-9.00897
-8.56674
-8.33305
-43.3795
-40.8805
-35.0783
-27.6289
-23.7517
-20.723
-18.1195
-16.1529
-14.5062
-13.1478
-11.9936
-11.0124
-10.169
-9.44003
-8.80631
-8.26273
-7.80118
-7.3719
-7.00075
-6.85569
-43.588
-39.5639
-33.6277
-25.4787
-21.2897
-18.2346
-15.6391
-13.7176
-12.1373
-10.8667
-9.80297
-8.91225
-8.15509
-7.5052
-6.94489
-6.46945
-6.05461
-5.655
-5.36351
-5.27884
-43.6039
-37.1962
-31.368
-23.0698
-18.5616
-15.5102
-12.9847
-11.155
-9.67141
-8.50757
-7.54916
-6.75799
-6.09217
-5.52404
-5.03844
-4.62703
-4.2526
-3.88818
-3.66968
-3.6191
-43.1979
-33.7816
-27.9587
-20.1729
-15.5577
-12.5699
-10.1596
-8.46598
-7.11231
-6.0762
-5.23975
-4.55916
-3.99216
-3.5116
-3.10419
-2.75609
-2.42433
-2.10464
-1.94921
-1.90842