/*--------------------------------*- C++ -*----------------------------------*\
  =========                 |
  \\      /  F ield         | OpenFOAM: The Open Source CFD Toolbox
   \\    /   O peration     | Website:  https://openfoam.org
    \\  /    A nd           | Version:  6
     \\/     M anipulation  |
\*---------------------------------------------------------------------------*/
FoamFile
{
    version     2.0;
    format      ascii;
    class       volVectorField;
    location    "1.51";
    object      U;
}
// * * * * * * * * * * * * * * * * * * * * * * * * * * * * * * * * * * * * * //

dimensions      [0 1 -1 0 0 0 0];

internalField   nonuniform List<vector> 
4214
(
(4.95008 -0.0355966 0)
(4.98946 -0.00745865 0)
(4.99062 0.0189339 1.69883e-20)
(4.98474 0.040795 -2.12787e-20)
(4.98892 0.0622216 8.23495e-22)
(5.00071 0.0843757 7.91328e-21)
(5.01487 0.106154 3.49656e-21)
(5.02485 0.12529 -3.90674e-21)
(5.02816 0.139942 0)
(5.02599 0.149386 7.8965e-22)
(5.01976 0.153781 -7.51209e-22)
(5.01184 0.15351 -5.37918e-23)
(5.00442 0.148415 2.38278e-22)
(4.99871 0.137604 -9.31809e-22)
(4.99519 0.11983 8.5631e-22)
(4.99432 0.0943115 -3.6317e-21)
(4.99708 0.0622322 1.49888e-21)
(5.00497 0.0279926 -2.84443e-21)
(5.01797 1.37987e-05 0)
(5.03212 -0.0178267 -2.80724e-21)
(5.05348 -0.0181249 3.45047e-23)
(5.06354 -0.00827907 6.041e-21)
(5.05209 -0.00655501 0)
(5.02417 -0.0142976 -4.14861e-21)
(5.00283 -0.0411808 6.32727e-22)
(4.99719 -0.0714908 -7.19212e-21)
(5.00097 -0.0976178 1.44953e-20)
(5.00682 -0.116329 -5.12316e-21)
(5.0113 -0.127698 0)
(5.01449 -0.132994 0)
(5.01723 -0.133229 2.19723e-21)
(5.01971 -0.128778 -6.8144e-21)
(5.02068 -0.119742 4.78351e-21)
(5.01733 -0.106006 9.66612e-21)
(5.00735 -0.0881206 -9.505e-21)
(4.99144 -0.0676261 0)
(4.97647 -0.0463285 1.06609e-21)
(4.96881 -0.026059 -2.58304e-21)
(4.96825 -0.00606896 -4.73029e-20)
(4.95928 0.0205265 4.9399e-20)
(4.91097 0.0464321 -8.12229e-20)
(5.03501 -0.00349396 0)
(5.02742 0.0233837 0)
(5.01079 0.0432946 7.67657e-21)
(5.00356 0.0600637 -5.5244e-20)
(5.01107 0.0798974 0)
(5.0238 0.101237 -6.42369e-21)
(5.03328 0.121177 0)
(5.03608 0.137539 2.54548e-21)
(5.03351 0.149262 -2.68107e-21)
(5.02651 0.156278 4.63203e-21)
(5.0171 0.158968 -1.10992e-21)
(5.00713 0.157432 -7.77429e-22)
(4.99774 0.150988 -2.39375e-22)
(4.98912 0.138163 0)
(4.98128 0.117057 -5.42478e-21)
(4.97513 0.0863348 1.99353e-21)
(4.97367 0.0471337 -3.80203e-21)
(4.98159 0.00551846 1.71945e-20)
(5.00019 -0.0266484 0)
(5.02666 -0.0435516 1.77816e-20)
(5.06205 -0.0357304 -2.48644e-21)
(5.07469 -0.0195044 7.93574e-21)
(5.05159 -0.00815056 0)
(5.00242 -0.0200834 0)
(4.96269 -0.0471604 -5.29357e-21)
(4.95118 -0.0804803 2.25615e-20)
(4.96067 -0.110376 -7.18674e-21)
(4.97779 -0.132463 0)
(4.99411 -0.146088 0)
(5.00769 -0.152597 -2.3312e-21)
(5.01972 -0.153269 4.54308e-21)
(5.03164 -0.149012 -1.866e-22)
(5.04324 -0.140115 -8.18805e-21)
(5.05174 -0.126469 9.12529e-21)
(5.05259 -0.108351 -1.93935e-22)
(5.04257 -0.0869719 0)
(5.02482 -0.0646909 -4.33936e-20)
(5.01066 -0.0447958 5.3551e-20)
(5.00923 -0.0288622 0)
(5.01129 -0.00447542 0)
(5.00869 0.0272095 9.30945e-20)
(5.04219 0.0151856 0)
(5.02351 0.0361726 0)
(5.01263 0.0544166 2.26108e-20)
(5.01412 0.0719684 1.76695e-20)
(5.02351 0.0918307 -1.63752e-20)
(5.03358 0.11197 4.43064e-20)
(5.03895 0.129912 0)
(5.03865 0.144272 4.5535e-21)
(5.03337 0.154412 2.83846e-21)
(5.02476 0.160333 -9.51282e-22)
(5.01446 0.1623 4.78122e-23)
(5.00365 0.160117 0)
(4.9929 0.152804 0)
(4.98204 0.13857 6.07436e-21)
(4.97107 0.115182 5.45573e-21)
(4.96147 0.0811869 -1.21375e-20)
(4.95786 0.0380174 0)
(4.9672 -0.00699893 2.33076e-20)
(4.99175 -0.0407864 3.92107e-20)
(5.02832 -0.0572844 2.74189e-20)
(5.07359 -0.0503775 0)
(5.08595 -0.0389977 3.08546e-20)
(5.05675 -0.0371683 4.53659e-20)
(4.99667 -0.0497146 0)
(4.94718 -0.074009 -1.56194e-20)
(4.9295 -0.103269 4.11607e-20)
(4.93831 -0.130692 -1.29353e-20)
(4.95979 -0.152144 2.14004e-21)
(4.98248 -0.165932 0)
(5.00207 -0.172586 -8.69501e-21)
(5.0191 -0.173212 1.08515e-20)
(5.03522 -0.168653 7.25115e-21)
(5.051 -0.159521 -7.69953e-21)
(5.06478 -0.146214 2.25973e-20)
(5.07232 -0.129014 -2.16539e-20)
(5.06876 -0.108485 0)
(5.05349 -0.0859224 1.6971e-21)
(5.03439 -0.0635768 -4.20022e-21)
(5.02433 -0.0442286 1.38193e-20)
(5.023 -0.0196731 -9.93259e-20)
(5.02564 0.013839 1.33458e-19)
(5.04766 0.0333003 6.39134e-20)
(5.03202 0.0522375 -7.20267e-20)
(5.02659 0.0696136 7.05114e-20)
(5.02975 0.0867708 -3.09201e-20)
(5.03841 0.105463 -4.93982e-20)
(5.04499 0.123767 5.09914e-21)
(5.04596 0.139658 0)
(5.04157 0.152105 -7.226e-21)
(5.03334 0.160683 2.2524e-21)
(5.02278 0.165508 -1.48056e-21)
(5.01102 0.166692 -3.27294e-21)
(4.99875 0.163762 0)
(4.98584 0.155435 -5.2525e-21)
(4.97173 0.139577 3.47718e-21)
(4.95638 0.113704 -3.48002e-20)
(4.94217 0.076375 1.22166e-20)
(4.93607 0.0296622 1.0061e-20)
(4.94766 -0.0176771 -4.39907e-20)
(4.98014 -0.0523139 -4.61703e-20)
(5.02749 -0.0692 -1.48162e-19)
(5.08001 -0.0661071 -3.51043e-21)
(5.08917 -0.0628898 -1.07211e-19)
(5.05918 -0.0754331 -1.11185e-19)
(4.99303 -0.0903799 0)
(4.93408 -0.111876 0)
(4.90873 -0.136439 4.8834e-20)
(4.91507 -0.160079 0)
(4.93967 -0.179995 -1.49861e-20)
(4.96899 -0.193736 2.29312e-20)
(4.99581 -0.200648 -5.02801e-21)
(5.01937 -0.201364 0)
(5.04117 -0.196711 -9.4301e-21)
(5.0623 -0.187363 1.25847e-20)
(5.08193 -0.173932 -1.3577e-21)
(5.09669 -0.157016 0)
(5.10123 -0.137131 -8.98638e-20)
(5.09197 -0.114919 -2.52802e-20)
(5.0727 -0.0915392 1.04865e-19)
(5.05551 -0.0684948 1.16087e-19)
(5.04974 -0.0451741 -1.32793e-19)
(5.05067 -0.00354351 -3.03301e-20)
(5.05308 0.0501458 9.13903e-20)
(5.0409 0.0690527 1.27687e-19)
(5.03944 0.0850677 -8.13368e-20)
(5.04501 0.101663 -8.18467e-20)
(5.05145 0.118948 2.79554e-20)
(5.05357 0.135326 0)
(5.05012 0.14923 -2.48845e-20)
(5.04242 0.15994 -1.00938e-20)
(5.03196 0.167217 -5.70219e-21)
(5.01986 0.171163 5.35221e-21)
(5.00682 0.171687 7.54416e-22)
(4.99287 0.168056 -5.95385e-22)
(4.97733 0.158709 5.19896e-21)
(4.95937 0.14127 1.12025e-20)
(4.93915 0.113259 1.24782e-20)
(4.92037 0.0736858 3.68814e-20)
(4.91246 0.0256294 0)
(4.92722 -0.0211455 0)
(4.96806 -0.0546026 0)
(5.02468 -0.0729497 1.14635e-19)
(5.07992 -0.0749237 0)
(5.08881 -0.0854131 5.66584e-20)
(5.05683 -0.115133 7.55877e-20)
(4.99416 -0.135018 0)
(4.93077 -0.154331 0)
(4.89811 -0.174316 -5.05072e-20)
(4.89939 -0.193755 0)
(4.92321 -0.211549 -3.31287e-20)
(4.95666 -0.225305 0)
(4.98976 -0.233056 0)
(5.01961 -0.23451 0)
(5.04696 -0.230227 2.43389e-21)
(5.07281 -0.220922 -2.95197e-20)
(5.09697 -0.207369 1.60301e-20)
(5.11724 -0.190476 6.11254e-21)
(5.1292 -0.170927 -1.16563e-19)
(5.12798 -0.149062 1.23821e-19)
(5.11309 -0.125284 9.80751e-21)
(5.09255 -0.0993501 -2.16307e-20)
(5.08029 -0.0768139 2.38626e-20)
(5.07668 -0.0292927 -5.07682e-20)
(5.0588 0.067668 -3.0806e-19)
(5.05376 0.0864122 1.24952e-20)
(5.05536 0.101171 -9.55907e-20)
(5.06039 0.116967 1.61702e-19)
(5.06281 0.132544 6.97639e-20)
(5.06022 0.146997 -6.28739e-20)
(5.05283 0.159076 5.49525e-20)
(5.04226 0.16828 9.98547e-21)
(5.02984 0.174474 5.89669e-21)
(5.01627 0.177689 -5.54648e-21)
(5.00171 0.177631 2.08554e-22)
(4.98556 0.173327 1.15144e-20)
(4.96669 0.162983 -6.28819e-21)
(4.94412 0.144201 -2.41049e-20)
(4.91852 0.114861 3.45211e-20)
(4.8953 0.0748478 -4.52278e-20)
(4.88624 0.0285387 0)
(4.90401 -0.0140115 -1.95547e-20)
(4.95088 -0.0444013 1.80335e-20)
(5.01625 -0.0709246 1.83011e-19)
(5.0748 -0.0709115 0)
(5.069 -0.0991515 0)
(5.04357 -0.146072 -2.50033e-20)
(4.99358 -0.173365 -2.29273e-20)
(4.93169 -0.192828 1.90015e-21)
(4.89362 -0.210363 3.91193e-20)
(4.88929 -0.227777 -5.76387e-20)
(4.90939 -0.244631 5.48391e-20)
(4.94444 -0.25916 0)
(4.98293 -0.268828 2.40014e-20)
(5.01932 -0.2721 0)
(5.05283 -0.268997 -1.75466e-21)
(5.08402 -0.260223 3.26421e-20)
(5.11282 -0.246674 -2.28557e-20)
(5.13783 -0.229448 -2.18098e-20)
(5.156 -0.209562 -1.46353e-19)
(5.16298 -0.1875 1.46124e-19)
(5.15596 -0.163538 1.60162e-19)
(5.13793 -0.136264 -3.86917e-19)
(5.12092 -0.112063 -6.38051e-20)
(5.10753 -0.0636107 5.10899e-19)
(5.06969 0.0852512 1.32566e-19)
(5.0696 0.104281 -1.16152e-19)
(5.07195 0.117782 9.72992e-20)
(5.07426 0.132503 -8.64915e-20)
(5.07188 0.14632 -3.78669e-20)
(5.06479 0.158971 5.66179e-21)
(5.05399 0.169425 5.06817e-20)
(5.04103 0.177358 2.47567e-20)
(5.02691 0.182679 0)
(5.01184 0.185303 0)
(4.99542 0.184746 -3.38044e-21)
(4.9765 0.179842 7.37868e-21)
(4.95361 0.16869 -8.61735e-21)
(4.92585 0.149148 -4.01517e-20)
(4.89484 0.11989 0)
(4.8679 0.0821324 0)
(4.85842 0.0416637 -2.06909e-20)
(4.87805 0.00779325 4.32531e-20)
(4.92709 -0.0171981 -2.22987e-20)
(4.99754 -0.0451419 -1.87279e-19)
(5.05153 -0.0511345 0)
(5.02877 -0.0972066 2.81319e-19)
(5.0136 -0.160241 3.21777e-20)
(4.98501 -0.19925 1.78545e-19)
(4.93188 -0.222479 1.08934e-19)
(4.89144 -0.240871 -2.17731e-19)
(4.88118 -0.259632 -4.29124e-20)
(4.89739 -0.278115 5.45749e-20)
(4.93207 -0.295022 -1.47233e-19)
(4.97466 -0.307914 -2.49183e-20)
(5.01758 -0.314076 1.70425e-20)
(5.05797 -0.312946 8.0006e-21)
(5.09541 -0.305186 -1.96722e-20)
(5.12952 -0.291794 9.3136e-20)
(5.1593 -0.274023 -6.5677e-20)
(5.18272 -0.253196 -1.95378e-19)
(5.19674 -0.23015 -2.91828e-20)
(5.19837 -0.205517 -5.58467e-21)
(5.18709 -0.177259 4.89929e-19)
(5.17079 -0.151845 -2.12931e-19)
(5.14857 -0.10241 3.17578e-19)
(5.08448 0.103324 -1.45147e-20)
(5.08785 0.122576 6.19619e-20)
(5.088 0.134813 1.76624e-19)
(5.08605 0.148362 4.47412e-20)
(5.0788 0.160507 -8.76771e-20)
(5.06768 0.17154 6.45827e-21)
(5.05402 0.180616 -2.91982e-20)
(5.039 0.187532 -1.11117e-20)
(5.02321 0.192169 5.10947e-21)
(5.00643 0.194335 -4.94528e-21)
(4.98765 0.193395 5.27771e-21)
(4.9653 0.188048 6.35862e-21)
(4.93777 0.176496 -1.13156e-20)
(4.90461 0.157224 3.93739e-20)
(4.86875 0.130127 0)
(4.83929 0.0980169 -8.1702e-20)
(4.82995 0.0677432 0)
(4.84956 0.0462685 2.90336e-20)
(4.89669 0.0283355 -2.88906e-19)
(4.96566 -0.000390223 0)
(5.01103 -0.0164045 0)
(4.96826 -0.0787198 -2.695e-19)
(4.96228 -0.156736 2.11251e-20)
(4.96195 -0.211299 -3.1611e-19)
(4.92519 -0.242348 6.65359e-20)
(4.88649 -0.265908 1.02183e-19)
(4.87154 -0.289983 2.69441e-19)
(4.88523 -0.31326 6.57575e-20)
(4.91891 -0.334869 1.0435e-19)
(4.96458 -0.352273 1.01546e-19)
(5.01409 -0.36211 -1.67399e-20)
(5.06236 -0.363477 3.45167e-21)
(5.10725 -0.356851 -8.68455e-20)
(5.14779 -0.343426 2.63361e-20)
(5.18302 -0.324717 -3.18444e-20)
(5.21158 -0.302352 -1.89169e-19)
(5.23152 -0.277529 2.37327e-19)
(5.2408 -0.251354 0)
(5.23765 -0.221777 0)
(5.22701 -0.195323 2.05707e-20)
(5.20149 -0.145343 -3.56439e-20)
(5.10314 0.122301 -4.00086e-20)
(5.10653 0.141329 2.06965e-19)
(5.10231 0.152402 7.96067e-21)
(5.09549 0.164734 4.77703e-20)
(5.08379 0.175422 -1.06782e-20)
(5.06925 0.185082 -4.99884e-20)
(5.05313 0.193053 -3.59375e-20)
(5.03625 0.199206 1.14571e-20)
(5.01869 0.203344 0)
(4.99979 0.205198 -1.31003e-21)
(4.97807 0.204037 -6.25084e-21)
(4.95164 0.198539 -4.97972e-21)
(4.91908 0.187294 -2.28335e-20)
(4.88083 0.169815 2.21625e-20)
(4.84137 0.147504 -3.74025e-20)
(4.81098 0.124634 4.23654e-20)
(4.80195 0.108238 1.95631e-19)
(4.81875 0.101077 -6.94556e-21)
(4.85858 0.089033 -3.15841e-20)
(4.9195 0.0567363 2.87051e-20)
(4.95147 0.0312758 -1.0065e-20)
(4.88627 -0.0473438 4.11252e-19)
(4.8874 -0.138849 2.42603e-20)
(4.92006 -0.211781 5.06922e-19)
(4.90632 -0.254538 -4.60019e-19)
(4.87409 -0.28819 3.21605e-19)
(4.85831 -0.322036 -4.83648e-19)
(4.87146 -0.353248 0)
(4.90452 -0.381873 -1.15175e-19)
(4.95317 -0.40505 -6.38796e-20)
(5.00975 -0.419056 8.87313e-21)
(5.06704 -0.422939 0)
(5.1208 -0.417011 -5.47936e-20)
(5.16899 -0.40279 2.43629e-20)
(5.21056 -0.382226 1.87524e-19)
(5.2445 -0.357383 1.35984e-19)
(5.26971 -0.329833 -2.95713e-19)
(5.28517 -0.301079 0)
(5.2893 -0.269415 -3.69901e-19)
(5.28611 -0.241487 -2.51055e-20)
(5.26313 -0.1922 3.69626e-19)
(5.12378 0.142656 -1.66771e-19)
(5.12393 0.160651 -1.3559e-19)
(5.11441 0.170805 -1.20695e-19)
(5.10275 0.181923 -1.1412e-19)
(5.08723 0.191429 -4.21535e-20)
(5.06986 0.200005 8.33262e-20)
(5.05157 0.20717 0)
(5.03285 0.212808 -1.09467e-20)
(5.01327 0.216654 -1.36697e-21)
(4.99172 0.218375 -2.26362e-22)
(4.9664 0.217232 0)
(4.93537 0.2121 1.20538e-20)
(4.89772 0.202249 -5.00324e-20)
(4.85518 0.188485 0)
(4.81384 0.173689 7.74532e-20)
(4.78416 0.163008 0)
(4.77503 0.162549 -2.25994e-19)
(4.78522 0.169425 0)
(4.81136 0.160844 6.87188e-19)
(4.85749 0.124338 -4.00863e-19)
(4.87165 0.0889166 0)
(4.78412 -0.00837629 -9.54642e-19)
(4.78955 -0.112057 3.18473e-20)
(4.85741 -0.205505 -4.88687e-19)
(4.87165 -0.263419 8.40695e-19)
(4.85135 -0.312253 -7.21627e-19)
(4.83923 -0.3598 2.70176e-19)
(4.8549 -0.401366 -8.67293e-20)
(4.88879 -0.43916 -9.8902e-20)
(4.94171 -0.469216 4.75492e-20)
(5.00645 -0.487739 2.77536e-20)
(5.07421 -0.493732 -1.05289e-19)
(5.13848 -0.487564 7.62422e-20)
(5.19572 -0.471257 5.98921e-20)
(5.24455 -0.447364 -9.56316e-20)
(5.28423 -0.418546 0)
(5.3143 -0.386852 5.71244e-20)
(5.33467 -0.354114 4.93159e-19)
(5.34436 -0.319136 -8.65865e-19)
(5.34758 -0.288499 8.94451e-19)
(5.32993 -0.24021 -4.58715e-19)
(5.14436 0.164662 1.73308e-19)
(5.13902 0.180945 -2.15394e-19)
(5.12434 0.190345 7.07757e-20)
(5.1083 0.200338 1.68675e-19)
(5.08961 0.208915 -4.99392e-20)
(5.06986 0.216709 0)
(5.04955 0.223369 1.54969e-20)
(5.02877 0.228729 0)
(5.00674 0.232507 1.30485e-21)
(4.98195 0.234344 0)
(4.95243 0.233622 -2.44578e-20)
(4.9165 0.229698 1.35131e-20)
(4.87415 0.222797 4.86846e-20)
(4.82867 0.214922 4.48689e-20)
(4.78754 0.209824 -9.99651e-20)
(4.76006 0.212704 3.14175e-19)
(4.74955 0.227904 3.15407e-19)
(4.74861 0.246685 0)
(4.7539 0.239343 -3.76851e-19)
(4.77773 0.19931 8.8916e-19)
(4.77127 0.15168 -1.0833e-20)
(4.66281 0.0317841 1.17908e-18)
(4.67027 -0.0833968 3.62651e-20)
(4.77418 -0.199171 1.3781e-19)
(4.81965 -0.275018 -6.02871e-19)
(4.81678 -0.343289 5.01034e-19)
(4.81355 -0.406779 -2.94943e-19)
(4.83507 -0.45977 -3.75224e-19)
(4.87168 -0.508986 1.87536e-19)
(4.93163 -0.546643 -8.39058e-20)
(5.00642 -0.569916 -6.18179e-20)
(5.08669 -0.577314 3.06265e-19)
(5.16341 -0.569552 6.14742e-20)
(5.23131 -0.549489 0)
(5.28849 -0.520372 1.0037e-19)
(5.33432 -0.485651 0)
(5.36903 -0.447956 -5.97996e-20)
(5.39331 -0.409462 -6.23163e-20)
(5.40689 -0.369572 0)
(5.41444 -0.334532 -3.98631e-20)
(5.40193 -0.286009 4.08228e-21)
(5.16348 0.188671 -3.27857e-19)
(5.15188 0.203042 3.03138e-19)
(5.13258 0.211645 1.95147e-19)
(5.11277 0.220554 -6.06343e-20)
(5.09143 0.228367 4.7828e-20)
(5.06956 0.235568 -3.40531e-20)
(5.04723 0.241955 2.12031e-20)
(5.02406 0.247256 -4.62795e-21)
(4.99903 0.251219 -9.30764e-22)
(4.97047 0.253558 -1.63629e-21)
(4.93649 0.253983 2.46437e-20)
(4.89597 0.252582 -2.73638e-20)
(4.85018 0.250582 9.76786e-20)
(4.80414 0.2507 -5.17392e-20)
(4.76584 0.256596 5.09183e-20)
(4.74142 0.27267 -2.5914e-19)
(4.7274 0.30108 4.46349e-20)
(4.7101 0.328276 5.02717e-19)
(4.68655 0.320339 -5.52792e-20)
(4.67936 0.277167 6.97089e-20)
(4.65037 0.214897 3.13546e-20)
(4.52267 0.0679938 -1.41981e-18)
(4.53108 -0.0592678 -4.38459e-20)
(4.6722 -0.199491 7.37481e-19)
(4.7506 -0.295848 0)
(4.77057 -0.386015 5.26989e-19)
(4.78161 -0.465322 3.64027e-19)
(4.81196 -0.52994 -3.41136e-21)
(4.8536 -0.592961 7.85202e-20)
(4.92454 -0.638219 6.46079e-20)
(5.01169 -0.666457 -9.55432e-20)
(5.10726 -0.673928 -1.2895e-19)
(5.1985 -0.662704 -4.61689e-19)
(5.27898 -0.63674 -3.24123e-19)
(5.34577 -0.600048 -5.11524e-19)
(5.39835 -0.557223 3.24118e-19)
(5.43765 -0.51141 0)
(5.46511 -0.46532 -7.30416e-19)
(5.48123 -0.418937 7.23734e-19)
(5.49121 -0.378157 4.1805e-20)
(5.48232 -0.328227 0)
(5.18116 0.215859 -1.69547e-19)
(5.16316 0.22812 0)
(5.13984 0.235792 -1.29939e-19)
(5.11675 0.243497 4.77548e-20)
(5.09302 0.250525 -1.54356e-19)
(5.06904 0.257078 8.54983e-20)
(5.04453 0.263219 1.42096e-20)
(5.01872 0.268563 4.42066e-21)
(4.99042 0.273016 9.61274e-23)
(4.95807 0.276452 6.21959e-21)
(4.92017 0.279076 9.62105e-21)
(4.87653 0.281794 -1.33498e-20)
(4.82968 0.28653 -1.04472e-19)
(4.78581 0.296079 -4.29619e-20)
(4.75208 0.313229 0)
(4.73016 0.340735 0)
(4.7101 0.378912 -3.63911e-19)
(4.67283 0.411631 -4.51136e-19)
(4.61389 0.40257 0)
(4.565 0.355761 -5.82432e-19)
(4.50925 0.275807 2.31741e-21)
(4.36335 0.0981639 -1.23989e-19)
(4.37433 -0.0433581 9.20427e-19)
(4.55511 -0.210853 1.00213e-19)
(4.66708 -0.329497 7.51431e-19)
(4.71487 -0.443337 -5.53364e-19)
(4.74448 -0.536951 0)
(4.7861 -0.614686 2.66664e-19)
(4.83575 -0.693614 -1.4589e-19)
(4.92248 -0.744809 2.02085e-20)
(5.02376 -0.778628 1.14421e-19)
(5.13844 -0.783239 -2.99386e-19)
(5.24574 -0.766214 6.73834e-19)
(5.34112 -0.731117 3.43531e-19)
(5.41859 -0.683833 1.92435e-19)
(5.47871 -0.630377 4.71504e-19)
(5.52265 -0.573993 1.57088e-20)
(5.55264 -0.518524 4.87701e-19)
(5.57001 -0.464136 -1.90894e-18)
(5.5807 -0.416413 9.48927e-19)
(5.57377 -0.364285 0)
(5.19813 0.247902 3.51594e-19)
(5.17409 0.257806 0)
(5.14689 0.264334 0)
(5.1208 0.270589 0)
(5.09453 0.276637 0)
(5.06824 0.282202 -7.61097e-20)
(5.04116 0.287832 -1.35898e-20)
(5.0125 0.293064 6.37669e-21)
(4.98099 0.298186 -1.54506e-20)
(4.94546 0.30329 8.1911e-21)
(4.90492 0.30906 3.74176e-20)
(4.86 0.316999 -2.65933e-20)
(4.81379 0.32929 7.71638e-20)
(4.77227 0.348191 -1.91967e-19)
(4.74136 0.37512 1.46858e-19)
(4.71926 0.410713 -2.87644e-19)
(4.69058 0.453396 0)
(4.63286 0.488439 6.05226e-19)
(4.53574 0.481063 -7.15368e-19)
(4.4328 0.433595 8.33954e-19)
(4.34507 0.332868 1.54012e-20)
(4.18301 0.120949 3.14438e-18)
(4.20275 -0.0381861 1.91535e-19)
(4.42705 -0.237416 -1.92867e-18)
(4.57148 -0.376298 -7.10615e-19)
(4.6528 -0.515469 -1.78411e-19)
(4.70393 -0.621645 -5.34268e-19)
(4.75963 -0.718988 4.00857e-19)
(4.82052 -0.814912 -7.89537e-20)
(4.92883 -0.869151 -2.38242e-19)
(5.04527 -0.909745 -2.37087e-19)
(5.18479 -0.90522 3.18198e-19)
(5.30783 -0.880123 -9.26635e-19)
(5.42065 -0.830273 5.01447e-19)
(5.50814 -0.7688 -6.10668e-19)
(5.57635 -0.701447 6.00062e-19)
(5.62452 -0.631728 0)
(5.65613 -0.564898 0)
(5.67325 -0.50095 0)
(5.68258 -0.445193 0)
(5.67665 -0.389777 0)
(5.21556 0.285594 -1.87983e-19)
(5.18685 0.293459 0)
(5.1549 0.298748 -7.44682e-20)
(5.12621 0.303392 -1.03451e-19)
(5.09651 0.308302 1.09674e-19)
(5.06791 0.312636 -3.11705e-21)
(5.0377 0.317451 0)
(5.00616 0.322234 -1.49867e-21)
(4.97141 0.327924 1.53924e-20)
(4.93329 0.334839 -1.94571e-20)
(4.8912 0.34424 -2.05543e-20)
(4.8462 0.357719 3.94982e-20)
(4.80111 0.377539 0)
(4.76102 0.404594 1.25922e-19)
(4.7306 0.438983 0)
(4.70587 0.47978 3.34853e-19)
(4.66708 0.521636 -6.86014e-19)
(4.58674 0.550796 -1.27823e-18)
(4.44146 0.543017 1.47137e-18)
(4.26753 0.50036 -8.15431e-19)
(4.14789 0.376244 0)
(3.97636 0.129127 -2.15294e-18)
(4.01462 -0.04949 8.89711e-20)
(4.28983 -0.288035 -1.20673e-19)
(4.46156 -0.438639 1.1583e-18)
(4.58498 -0.606615 5.14157e-19)
(4.66188 -0.719315 5.53198e-19)
(4.73709 -0.849951 -3.26829e-19)
(4.81252 -0.959406 0)
(4.95156 -1.01747 1.57224e-19)
(5.08504 -1.0638 3.45706e-19)
(5.25774 -1.0398 0)
(5.39339 -1.00434 0)
(5.52483 -0.929903 0)
(5.61805 -0.85132 0)
(5.69323 -0.764573 8.3518e-19)
(5.74318 -0.680327 -2.12878e-18)
(5.77431 -0.598546 3.67409e-19)
(5.78909 -0.52406 0)
(5.79522 -0.459439 -1.54074e-18)
(5.78834 -0.399155 3.02953e-18)
(5.23456 0.328588 5.67012e-19)
(5.20495 0.335398 -3.69763e-19)
(5.16526 0.339668 2.09149e-19)
(5.13601 0.343016 -2.92079e-20)
(5.10018 0.346764 -1.2357e-19)
(5.07059 0.350089 -3.1393e-20)
(5.0359 0.354286 7.36673e-20)
(5.00314 0.358762 2.49662e-21)
(4.96548 0.365395 1.00317e-20)
(4.9267 0.373795 -1.59189e-20)
(4.88452 0.386977 0)
(4.84235 0.405429 -3.8668e-20)
(4.80207 0.432215 -6.58418e-20)
(4.76797 0.466385 2.94232e-19)
(4.74144 0.508489 -8.48336e-20)
(4.714 0.55642 0)
(4.66249 0.600238 4.86978e-19)
(4.55507 0.623322 2.01637e-19)
(4.34522 0.604892 -8.95827e-19)
(4.07412 0.561406 0)
(3.91863 0.396304 0)
(3.73718 0.108498 -1.5065e-18)
(3.80522 -0.0852106 -1.5288e-18)
(4.14349 -0.376278 2.63524e-18)
(4.32833 -0.523619 -1.09047e-18)
(4.50879 -0.732896 -1.33248e-18)
(4.61059 -0.841124 4.88836e-19)
(4.72021 -1.0225 0)
(4.81663 -1.12784 0)
(5.0069 -1.20219 2.4009e-19)
(5.15819 -1.24161 -1.00273e-18)
(5.37594 -1.18834 3.72642e-19)
(5.51675 -1.1379 5.27919e-19)
(5.66678 -1.02094 -5.16788e-19)
(5.75592 -0.928437 -1.14154e-18)
(5.83506 -0.807543 1.12462e-18)
(5.87916 -0.716038 5.06655e-19)
(5.90666 -0.608724 1.09497e-18)
(5.91705 -0.530342 0)
(5.91695 -0.450187 0)
(5.90656 -0.388532 -1.36634e-18)
(5.25247 0.37816 -2.02609e-19)
(5.23192 0.383388 1.77286e-19)
(5.1752 0.388185 0)
(5.1535 0.390714 2.24e-19)
(5.10315 0.393608 -3.11117e-20)
(5.07888 0.396186 -1.27051e-19)
(5.03379 0.400536 -6.48243e-20)
(5.00488 0.404335 7.29845e-20)
(4.96219 0.413007 -4.3441e-23)
(4.92776 0.421594 3.26793e-20)
(4.88733 0.438154 -3.41802e-20)
(4.85248 0.45752 -8.86394e-20)
(4.8216 0.488197 -2.71661e-20)
(4.79628 0.525463 -2.04854e-20)
(4.77489 0.575137 1.95143e-19)
(4.74141 0.632951 1.18607e-19)
(4.66369 0.683423 -4.7465e-20)
(4.52386 0.719915 1.36096e-18)
(4.25982 0.693024 0)
(3.87286 0.646646 1.36836e-18)
(3.68731 0.423026 -2.62676e-20)
(3.46834 0.0592015 3.20999e-18)
(3.58529 -0.137604 1.03439e-19)
(3.99429 -0.502342 -1.44774e-18)
(4.16518 -0.631792 0)
(4.43189 -0.901683 8.50418e-19)
(4.54006 -1.0005 -9.73249e-19)
(4.71863 -1.2568 -1.57235e-19)
(4.8348 -1.32792 0)
(5.11901 -1.44024 -5.54226e-19)
(5.26563 -1.44591 9.53701e-19)
(5.55999 -1.35446 6.86272e-19)
(5.67789 -1.2904 -6.71598e-19)
(5.85836 -1.09255 0)
(5.92292 -1.00931 -1.67806e-18)
(6.0035 -0.815986 8.10905e-19)
(6.02892 -0.743372 0)
(6.05051 -0.584402 -6.51635e-19)
(6.0543 -0.52518 0)
(6.04165 -0.406837 -6.84586e-19)
(6.02972 -0.361509 -2.30772e-18)
(6.00393 -0.279419 4.28614e-18)
(5.90379 -0.328423 1.97828e-18)
(5.80061 -0.350924 -1.22034e-18)
(5.6991 -0.352004 -3.46822e-19)
(5.60235 -0.336545 0)
(5.51345 -0.310162 0)
(5.43333 -0.276574 0)
(5.36038 -0.237007 0)
(5.29293 -0.193608 1.14956e-19)
(5.23179 -0.150876 -1.15164e-19)
(5.18048 -0.111657 -3.45618e-19)
(5.14089 -0.0771191 5.43091e-20)
(5.10801 -0.0472801 6.72231e-20)
(5.07838 -0.0239487 -9.68293e-20)
(5.05315 -0.00191322 2.88745e-20)
(5.01123 0.0165288 -1.13098e-19)
(4.83197 0.0510843 2.53729e-19)
(5.99054 -0.244618 -6.16487e-19)
(5.90016 -0.280578 0)
(5.81069 -0.305661 0)
(5.72091 -0.31537 3.30471e-19)
(5.6327 -0.310196 -3.1415e-19)
(5.54913 -0.293831 0)
(5.47197 -0.269268 8.37336e-19)
(5.4007 -0.236734 7.18042e-19)
(5.33459 -0.198881 4.8822e-19)
(5.27421 -0.1589 -2.94071e-19)
(5.22179 -0.119352 3.74256e-19)
(5.1786 -0.0826202 1.6586e-19)
(5.14386 -0.0500818 -1.01173e-19)
(5.11595 -0.0251474 -3.75901e-19)
(5.09127 -0.0020616 2.93016e-19)
(5.04809 0.00415878 3.19774e-19)
(4.83835 0.0462087 5.79178e-20)
(5.965 -0.18112 1.62474e-18)
(5.89375 -0.229165 0)
(5.8173 -0.260119 0)
(5.73828 -0.275441 7.90433e-19)
(5.65824 -0.276588 -9.97346e-19)
(5.58045 -0.267795 3.03255e-19)
(5.50764 -0.250962 -9.24806e-19)
(5.44014 -0.226318 -1.65607e-18)
(5.37711 -0.195314 -6.86978e-19)
(5.31851 -0.160097 6.04334e-19)
(5.26588 -0.123947 -5.39328e-19)
(5.22114 -0.0894219 -1.04979e-18)
(5.18543 -0.0574636 5.20742e-19)
(5.15706 -0.0308631 4.02409e-19)
(5.13173 -0.00706396 -3.46907e-19)
(5.08454 -4.24839e-05 7.87816e-20)
(4.84875 0.0517272 -3.85831e-19)
(5.9519 -0.154339 -1.4245e-18)
(5.88744 -0.189861 -5.71505e-19)
(5.82089 -0.218173 5.33889e-19)
(5.75186 -0.235857 -8.79756e-19)
(5.68093 -0.24243 1.15892e-18)
(5.60986 -0.240002 3.49178e-19)
(5.54197 -0.230015 0)
(5.47902 -0.21315 9.55194e-19)
(5.42005 -0.189195 1.1193e-18)
(5.36437 -0.159933 -3.92317e-19)
(5.31291 -0.12779 7.62198e-19)
(5.26773 -0.0946882 6.21363e-19)
(5.23057 -0.0623381 -4.04579e-19)
(5.20103 -0.0347145 0)
(5.17552 -0.0105951 0)
(5.12566 -0.00176724 -6.35624e-19)
(4.86618 0.0556209 1.48786e-19)
(5.92643 -0.106189 -3.77251e-19)
(5.87729 -0.147303 0)
(5.82179 -0.177808 -5.36054e-19)
(5.7621 -0.198085 5.0438e-19)
(5.70027 -0.209274 -8.54293e-19)
(5.63718 -0.212142 -3.60701e-19)
(5.57526 -0.208083 -1.19686e-20)
(5.51708 -0.197405 -3.0578e-19)
(5.46252 -0.17959 -1.00304e-18)
(5.41047 -0.155965 4.88542e-19)
(5.36113 -0.127968 -1.26099e-18)
(5.31626 -0.0976208 0)
(5.27786 -0.0668641 3.89926e-19)
(5.24687 -0.0390494 0)
(5.22093 -0.0139025 2.98323e-19)
(5.16935 -0.0025571 -1.07944e-20)
(4.88911 0.0591243 0)
(5.91422 -0.087961 0)
(5.86882 -0.118446 -1.33445e-18)
(5.82074 -0.144548 0)
(5.769 -0.16436 -1.05474e-18)
(5.71517 -0.176969 9.46202e-19)
(5.66024 -0.183217 -8.55243e-19)
(5.6053 -0.18366 3.82414e-19)
(5.55248 -0.177933 3.54055e-19)
(5.50269 -0.166104 3.3396e-19)
(5.45478 -0.148325 -1.09185e-18)
(5.40837 -0.125422 7.54448e-19)
(5.3647 -0.0989633 -4.95993e-19)
(5.32586 -0.0703826 -4.21208e-19)
(5.29355 -0.0430578 0)
(5.26693 -0.0173691 -3.57715e-19)
(5.21436 -0.00347431 3.26322e-19)
(4.91674 0.0615954 0)
(5.8902 -0.0491544 7.97164e-19)
(5.85583 -0.0829409 1.49153e-18)
(5.81659 -0.110666 -1.91924e-18)
(5.77272 -0.131383 1.77683e-18)
(5.72617 -0.145362 -1.0558e-18)
(5.67869 -0.153903 4.86804e-19)
(5.63112 -0.157785 -4.27141e-19)
(5.58425 -0.156694 4.17384e-19)
(5.5393 -0.150327 7.48104e-19)
(5.4957 -0.138009 2.95771e-19)
(5.45279 -0.120289 2.93335e-19)
(5.41136 -0.0980596 2.49821e-19)
(5.37336 -0.07252 0)
(5.34049 -0.0469195 0)
(5.31322 -0.0210922 -4.8788e-19)
(5.25996 -0.00464822 4.58178e-19)
(4.94824 0.0627169 0)
(5.8804 -0.0375047 -1.34437e-18)
(5.84741 -0.063021 0)
(5.81245 -0.0856089 2.12507e-18)
(5.77417 -0.103804 0)
(5.73367 -0.117177 0)
(5.69245 -0.126366 -1.57193e-18)
(5.6517 -0.132238 1.46597e-18)
(5.61141 -0.13452 -4.46719e-19)
(5.57161 -0.132242 -1.225e-18)
(5.53243 -0.124888 0)
(5.4935 -0.11229 0)
(5.45534 -0.0947774 -6.8127e-19)
(5.41952 -0.0732185 -1.51962e-19)
(5.38725 -0.0503049 7.5878e-19)
(5.36002 -0.0249658 5.20416e-19)
(5.30621 -0.00688478 -5.16421e-19)
(4.98295 0.0613711 3.0756e-20)
(5.85641 -0.00386405 0)
(5.83184 -0.031284 -4.11584e-19)
(5.80417 -0.055204 -3.879e-19)
(5.77271 -0.0743961 6.79767e-19)
(5.73836 -0.0888395 -6.2434e-19)
(5.7028 -0.0993624 1.17057e-18)
(5.66762 -0.106786 -1.06707e-18)
(5.63336 -0.11122 5.08548e-19)
(5.59931 -0.112166 0)
(5.56493 -0.109005 -8.78421e-19)
(5.53033 -0.101094 0)
(5.49605 -0.0884333 1.52104e-18)
(5.46332 -0.0715463 7.39528e-19)
(5.43295 -0.0523424 -6.52889e-19)
(5.40693 -0.0290121 0)
(5.35264 -0.0106918 0)
(5.02004 0.0557028 5.95372e-19)
(5.84936 0.0014724 0)
(5.82452 -0.019995 8.72173e-19)
(5.79853 -0.038361 4.03201e-19)
(5.77044 -0.0534968 -1.13606e-18)
(5.74052 -0.065548 1.77086e-20)
(5.7098 -0.0751366 0)
(5.67956 -0.0826528 5.93645e-19)
(5.65044 -0.0880611 -5.48741e-19)
(5.62198 -0.0909075 0)
(5.59292 -0.0905661 1.2033e-18)
(5.56297 -0.0865983 -4.58523e-19)
(5.53278 -0.0784356 -1.0642e-18)
(5.50354 -0.0663808 -7.94946e-19)
(5.47582 -0.0514973 0)
(5.45193 -0.031712 -3.78271e-19)
(5.39727 -0.0142136 0)
(5.05841 0.0437284 -2.80958e-19)
(5.82496 0.0325708 -5.15315e-19)
(5.80704 0.00972847 -4.90523e-19)
(5.7875 -0.0109177 0)
(5.76542 -0.0278392 -3.97912e-19)
(5.74091 -0.0410274 1.85664e-18)
(5.71506 -0.0512882 -6.79848e-19)
(5.68934 -0.0593584 0)
(5.66452 -0.0654583 9.03034e-19)
(5.64037 -0.0694258 -2.84693e-19)
(5.61606 -0.0709624 -5.3206e-19)
(5.59086 -0.069548 2.50749e-19)
(5.56499 -0.0652035 7.11112e-19)
(5.53936 -0.0575252 2.24985e-19)
(5.51465 -0.0467695 -7.63433e-19)
(5.49312 -0.0311116 5.05911e-19)
(5.43805 -0.0163587 0)
(5.09597 0.0307175 2.67376e-20)
(5.81902 0.0345488 -1.09796e-18)
(5.79996 0.0164077 1.70729e-20)
(5.78091 0.0010981 9.05236e-19)
(5.76087 -0.0114677 -4.27827e-19)
(5.73974 -0.0218393 -8.03919e-19)
(5.71811 -0.0306949 7.47129e-19)
(5.69674 -0.0382046 3.42818e-19)
(5.67599 -0.0442622 6.35314e-19)
(5.65564 -0.0487598 2.96777e-19)
(5.6352 -0.0515584 5.75611e-19)
(5.61425 -0.0522381 0)
(5.59267 -0.0504194 -5.15518e-19)
(5.5708 -0.0459506 0)
(5.54922 -0.0389741 3.4885e-19)
(5.52971 -0.0279945 1.13751e-19)
(5.47373 -0.0166205 -4.94476e-19)
(5.12964 0.0184975 -7.81574e-19)
(5.79537 0.0618973 -1.11195e-18)
(5.78269 0.0410997 1.55742e-18)
(5.76909 0.0231604 -4.89214e-19)
(5.75399 0.00902862 0)
(5.73741 -0.0020873 0)
(5.7199 -0.0111906 -6.907e-21)
(5.70215 -0.0186862 7.82168e-21)
(5.68462 -0.024781 -6.90419e-19)
(5.66742 -0.0296762 -6.49392e-19)
(5.65036 -0.0332713 0)
(5.63308 -0.0352508 -5.72046e-19)
(5.61534 -0.0354363 5.4608e-19)
(5.59716 -0.0337321 -5.23099e-19)
(5.57878 -0.0299255 -5.02957e-19)
(5.56058 -0.0232721 0)
(5.50321 -0.0147118 -6.44626e-20)
(5.15774 0.00700913 4.65138e-20)
(5.78825 0.0648067 1.16631e-18)
(5.77362 0.0492027 -5.48241e-19)
(5.76055 0.0357234 4.92714e-19)
(5.74751 0.0244135 -4.60197e-19)
(5.73371 0.0146329 0)
(5.71912 0.00605084 -1.86526e-20)
(5.70411 -0.00122457 3.74913e-19)
(5.68919 -0.00735323 2.6758e-22)
(5.67466 -0.0125457 -3.28083e-19)
(5.66048 -0.0167232 3.17861e-19)
(5.64636 -0.0196953 6.10408e-19)
(5.6319 -0.021404 -4.36663e-19)
(5.61687 -0.0215559 1.4474e-19)
(5.60127 -0.0203453 5.3117e-19)
(5.58305 -0.0171479 2.52771e-19)
(5.52498 -0.0116711 4.91043e-19)
(5.17928 -0.00361919 4.75772e-19)
(5.76582 0.0895205 -2.03283e-20)
(5.75772 0.0697702 -1.04576e-20)
(5.74904 0.053902 0)
(5.73907 0.0414858 -1.44096e-20)
(5.72767 0.0310313 8.60735e-19)
(5.71519 0.0220667 -8.16308e-19)
(5.7022 0.0145525 -3.94e-19)
(5.68925 0.00812885 -3.62827e-19)
(5.67674 0.00256968 3.49051e-19)
(5.66475 -0.00212917 8.59821e-21)
(5.65306 -0.00585173 4.56028e-19)
(5.64115 -0.00870551 -1.4731e-19)
(5.62857 -0.0101705 4.28811e-19)
(5.61491 -0.0114295 -1.3555e-19)
(5.597 -0.0102704 -3.3054e-19)
(5.53687 -0.00811734 6.31395e-20)
(5.19136 -0.00982639 0)
(5.75733 0.0949446 -9.04942e-21)
(5.74697 0.0811099 -6.39199e-21)
(5.73813 0.0686188 0)
(5.72877 0.0571808 -2.59134e-19)
(5.71842 0.0465982 -4.52449e-19)
(5.70734 0.0372236 6.27554e-19)
(5.69589 0.0291592 -7.19676e-21)
(5.68445 0.0221003 -1.73981e-19)
(5.6734 0.0158627 0)
(5.66298 0.0104053 3.33968e-19)
(5.65304 0.00583513 -6.14678e-19)
(5.6431 0.00192759 1.48171e-19)
(5.63241 -0.0003701 1.38658e-21)
(5.61999 -0.0037055 -1.35294e-19)
(5.60136 -0.00284328 0)
(5.53753 -0.00624995 -3.20435e-20)
(5.19131 -0.0131721 2.718e-19)
(5.73656 0.119927 -6.09637e-19)
(5.73155 0.101685 5.34235e-19)