/*--------------------------------*- C++ -*----------------------------------*\
  =========                 |
  \\      /  F ield         | OpenFOAM: The Open Source CFD Toolbox
   \\    /   O peration     | Website:  https://openfoam.org
    \\  /    A nd           | Version:  6
     \\/     M anipulation  |
\*---------------------------------------------------------------------------*/
FoamFile
{
    version     2.0;
    format      ascii;
    class       surfaceScalarField;
    location    "2.58";
    object      meshPhi;
}
// * * * * * * * * * * * * * * * * * * * * * * * * * * * * * * * * * * * * * //

dimensions      [0 3 -1 0 0 0 0];

internalField   nonuniform List<scalar> 
44700
(
0.000108926
-0.00094238
0.00016501
-0.00282591
0.000168559
-0.00470447
0.000120263
-0.00657561
2.11568e-05
-0.00843688
-0.000127352
-0.0102833
-0.000323533
-0.0121137
-0.000565344
-0.0139257
-0.000850377
-0.0157131
-0.00117598
-0.0174762
-0.00153925
-0.0192124
-0.00193692
-0.0209146
-0.00236562
-0.0225842
-0.00282175
-0.0242189
-0.00330144
-0.0258105
-0.00380077
-0.0273617
-0.00431572
-0.0288703
-0.00484205
-0.0303272
-0.00537558
-0.0317363
-0.00591209
-0.0330956
-0.00644725
-0.0343952
-0.00697689
-0.0356401
-0.00749689
-0.0368285
-0.0080031
-0.03795
-0.00849162
-0.0390107
-0.00895868
-0.0400089
-0.00940061
-0.0409337
-0.00981401
-0.0417923
-0.0101957
-0.0425833
-0.0105428
-0.0432955
-0.0108525
-0.043937
-0.0111225
-0.0445065
-0.0113508
-0.0449929
-0.0115355
-0.0454051
-0.0116753
-0.0457421
-0.0117691
-0.0459928
-0.0118162
-0.0461669
-0.0118162
-0.0462637
-0.0117691
-0.0462724
-0.0116753
-0.0462031
-0.0115355
-0.0460557
-0.0113508
-0.0458197
-0.0111225
-0.0455057
-0.0108525
-0.0451139
-0.0105428
-0.0446346
-0.0101957
-0.0440786
-0.00981401
-0.0434464
-0.00940061
-0.0427293
-0.00895868
-0.0419379
-0.00849162
-0.0410735
-0.0080031
-0.040128
-0.00749689
-0.0391122
-0.00697689
-0.0380277
-0.00644725
-0.0368675
-0.00591209
-0.0356424
-0.00537558
-0.0343539
-0.00484205
-0.0329968
-0.00431572
-0.0315811
-0.00380077
-0.0301088
-0.00330144
-0.028576
-0.00282175
-0.0269922
-0.00236562
-0.0253597
-0.00193692
-0.023676
-0.00153925
-0.0219498
-0.00117598
-0.0201839
-0.000850377
-0.0183769
-0.000565344
-0.0165369
-0.000323538
-0.0146665
-0.000127352
-0.0127671
2.11596e-05
-0.0108441
0.000120262
-0.00890062
0.000168559
-0.00694018
0.000165009
-0.00496668
0.000108928
-0.0029838
-1.23472e-14
-0.000995218
-0.000161723
0.000995218
-0.000375821
0.0029838
-0.000641499
0.00496668
-0.000957603
0.00694018
-0.00132262
0.00890062
-0.00173469
0.0108441
-0.00219162
0.0127671
-0.00269089
0.0146665
-0.00322965
0.0165369
-0.00380481
0.0183769
-0.00441303
0.0201839
-0.00505061
0.0219498
-0.00571374
0.023676
-0.00639845
0.0253597
-0.00710043
0.0269922
-0.00781539
0.028576
-0.00853894
0.0301088
-0.00926644
0.0315811
-0.00999338
0.0329968
-0.0107152
0.0343539
-0.0114273
0.0356424
-0.012125
0.0368675
-0.0128042
0.0380277
-0.0134602
0.0391122
-0.0140889
0.040128
-0.0146864
0.0410735
-0.0152487
0.0419379
-0.0157722
0.0427293
-0.0162536
0.0434464
-0.0166897
0.0440786
-0.0170776
0.0446346
-0.017415
0.0451139
-0.0176995
0.0455057
-0.0179294
0.0458197
-0.0181032
0.0460557
-0.0182196
0.0462031
-0.018278
0.0462724
-0.018278
0.0462637
-0.0182196
0.0461669
-0.0181032
0.0459928
-0.0179294
0.0457421
-0.0176995
0.0454051
-0.017415
0.0449929
-0.0170776
0.0445065
-0.0166897
0.043937
-0.0162536
0.0432955
-0.0157722
0.0425833
-0.0152487
0.0417923
-0.0146864
0.0409337
-0.0140889
0.0400089
-0.0134602
0.0390107
-0.0128042
0.03795
-0.012125
0.0368285
-0.0114273
0.0356401
-0.0107152
0.0343952
-0.00999338
0.0330956
-0.00926644
0.0317363
-0.00853894
0.0303272
-0.00781539
0.0288703
-0.00710043
0.0273617
-0.00639845
0.0258105
-0.00571374
0.0242189
-0.00505061
0.0225842
-0.00441303
0.0209146
-0.00380481
0.0192124
-0.00322965
0.0174762
-0.00269089
0.0157131
-0.00219161
0.0139257
-0.00173469
0.0121137
-0.00132263
0.0102833
-0.000957596
0.00843688
-0.000641499
0.00657561
-0.000375827
0.00470447
-0.000161719
0.00282591
0.00094238
0.000326727
-0.00183045
0.000495294
-0.00548925
0.000506625
-0.00913926
0.000362782
-0.0127763
6.68561e-05
-0.016396
-0.000376934
-0.0199895
-0.000963416
-0.0235548
-0.00168648
-0.0270878
-0.00253891
-0.0305771
-0.00351278
-0.0340232
-0.00459938
-0.0374221
-0.00578899
-0.0407599
-0.00707146
-0.0440398
-0.00843604
-0.0472575
-0.00987116
-0.0503972
-0.0113651
-0.0534643
-0.0129058
-0.0564548
-0.0144806
-0.0593507
-0.0160769
-0.0621598
-0.0176822
-0.0648781
-0.0192834
-0.0674861
-0.0208682
-0.0699935
-0.0224241
-0.0723965
-0.0239388
-0.0746743
-0.0254006
-0.0768386
-0.0267981
-0.0788858
-0.0281205
-0.0807941
-0.0293575
-0.0825769
-0.0304997
-0.0842311
-0.0315382
-0.085734
-0.032465
-0.087101
-0.033273
-0.0883291
-0.033956
-0.0893955
-0.0345088
-0.090317
-0.0349272
-0.0910912
-0.0352079
-0.0916953
-0.0353488
-0.0921476
-0.0353488
-0.0924462
-0.0352079
-0.0925688
-0.0349272
-0.0925348
-0.0345088
-0.0923432
-0.033956
-0.0919725
-0.033273
-0.091443
-0.032465
-0.0907545
-0.0315382
-0.0898868
-0.0304997
-0.0888609
-0.0293575
-0.0876775
-0.0281205
-0.086318
-0.0267981
-0.0848039
-0.0254006
-0.0831366
-0.0239388
-0.0812998
-0.0224241
-0.079315
-0.0208682
-0.0771846
-0.0192834
-0.0748946
-0.0176822
-0.0724662
-0.0160769
-0.0699027
-0.0144806
-0.0671928
-0.0129058
-0.0643572
-0.0113651
-0.0614001
-0.00987116
-0.058313
-0.00843604
-0.0551156
-0.00707146
-0.0518128
-0.00578899
-0.0483994
-0.00459938
-0.0448937
-0.00351278
-0.0413012
-0.00253891
-0.03762
-0.00168648
-0.0338665
-0.00096343
-0.0300464
-0.000376934
-0.0261632
6.68645e-05
-0.0222283
0.000362777
-0.0182485
0.000506625
-0.0142316
0.000495292
-0.0101861
0.000326732
-0.00611996
-3.66866e-14
-0.00204135
-0.000484748
0.00204135
-0.00112625
0.00611996
-0.00192213
0.0101861
-0.00286893
0.0142316
-0.00396213
0.0182485
-0.00519614
0.0222283
-0.00656439
0.0261632
-0.0080594
0.0300464
-0.00967256
0.0338665
-0.0113947
0.03762
-0.0132157
0.0413012
-0.0151246
0.0448937
-0.01711
0.0483994
-0.0191599
0.0518128
-0.0212615
0.0551156
-0.0234019
0.058313
-0.025568
0.0614001
-0.027746
0.0643572
-0.0299222
0.0671928
-0.0320831
0.0699027
-0.0342147
0.0724662
-0.0363036
0.0748946
-0.0383367
0.0771846
-0.0403005
0.079315
-0.0421827
0.0812998
-0.0439713
0.0831366
-0.0456546
0.0848039
-0.0472217
0.086318
-0.0486627
0.0876775
-0.0499681
0.0888609
-0.0511295
0.0898868
-0.0521394
0.0907545
-0.0529912
0.091443
-0.0536793
0.0919725
-0.0541994
0.0923432
-0.054548
0.0925348
-0.0547229
0.0925688
-0.0547229
0.0924462
-0.054548
0.0921476
-0.0541994
0.0916953
-0.0536793
0.0910912
-0.0529912
0.090317
-0.0521394
0.0893955
-0.0511295
0.0883291
-0.0499681
0.087101
-0.0486627
0.085734
-0.0472217
0.0842311
-0.0456546
0.0825769
-0.0439713
0.0807941
-0.0421827
0.0788858
-0.0403005
0.0768386
-0.0383367
0.0746743
-0.0363036
0.0723965
-0.0342147
0.0699935
-0.0320831
0.0674861
-0.0299222
0.0648781
-0.027746
0.0621598
-0.025568
0.0593507
-0.0234019
0.0564548
-0.0212615
0.0534643
-0.0191599
0.0503972
-0.01711
0.0472575
-0.0151246
0.0440398
-0.0132157
0.0407599
-0.0113947
0.0374221
-0.00967256
0.0340232
-0.0080594
0.0305771
-0.00656436
0.0270878
-0.00519614
0.0235548
-0.00396215
0.0199895
-0.00286891
0.016396
-0.00192213
0.0127763
-0.00112627
0.00913926
-0.000484735
0.00548925
0.00183045
0.000544369
-0.00266308
0.000826369
-0.0079866
0.000847525
-0.0132986
0.000611254
-0.0185939
0.000122683
-0.0238672
-0.000611199
-0.0291059
-0.00158181
-0.0343083
-0.00277902
-0.0394691
-0.00419087
-0.0445723
-0.00580421
-0.0496194
-0.0076046
-0.0546049
-0.00957591
-0.0595094
-0.0117013
-0.0643377
-0.013963
-0.0690843
-0.0163417
-0.0737262
-0.018818
-0.0782716
-0.021372
-0.0827147
-0.0239826
-0.0870294
-0.026629
-0.0912271
-0.0292903
-0.0953017
-0.0319451
-0.0992244
-0.0345725
-0.10301
-0.0371522
-0.106651
-0.0396636
-0.110118
-0.0420872
-0.113426
-0.0444045
-0.116571
-0.046597
-0.119519
-0.0486481
-0.12229
-0.050542
-0.124877
-0.0522639
-0.127247
-0.0538006
-0.129422
-0.0551405
-0.131396
-0.056273
-0.133134
-0.0571897
-0.13466
-0.0578834
-0.13597
-0.0583488
-0.137029
-0.0585824
-0.137862
-0.0585824
-0.138467
-0.0583488
-0.138807
-0.0578834
-0.138912
-0.0571897
-0.138779
-0.056273
-0.138374
-0.0551405
-0.137727
-0.0538006
-0.136837
-0.0522639
-0.135672
-0.050542
-0.134262
-0.0486481
-0.132609
-0.046597
-0.130682
-0.0444045
-0.128515
-0.0420872
-0.126107
-0.0396636
-0.123435
-0.0371522
-0.120529
-0.0345725
-0.117393
-0.0319451
-0.114005
-0.0292903
-0.110397
-0.026629
-0.106574
-0.0239826
-0.102518
-0.021372
-0.0982612
-0.018818
-0.0938091
-0.0163417
-0.0891492
-0.013963
-0.0843115
-0.0117013
-0.0793039
-0.00957591
-0.0741183
-0.0076046
-0.0687831
-0.00580421
-0.0633075
-0.00419087
-0.0576883
-0.00277902
-0.0519518
-0.00158184
-0.0461069
-0.000611199
-0.0401597
0.000122696
-0.0341281
0.000611246
-0.0280237
0.000847525
-0.0218587
0.000826366
-0.015647
0.000544379
-0.00940175
-6.02958e-14
-0.00313613
-0.000806506
0.00313613
-0.00187304
0.00940175
-0.00319566
0.015647
-0.00476863
0.0218587
-0.00658444
0.0280237
-0.00863381
0.0341281
-0.0109059
0.0401597
-0.0133881
0.0461069
-0.0160664
0.0519518
-0.0189253
0.0576883
-0.0219483
0.0633075
-0.025117
0.0687831
-0.0284126
0.0741183
-0.0318151
0.0793039
-0.0353033
0.0843115
-0.0388559
0.0891492
-0.0424511
0.0938091
-0.0460657
0.0982612
-0.0496775
0.102518
-0.0532638
0.106574
-0.0568015
0.110397
-0.0602682
0.114005
-0.0636421
0.117393
-0.0669012
0.120529
-0.0700247
0.123435
-0.072993
0.126107
-0.0757863
0.128515
-0.078387
0.130682
-0.0807783
0.132609
-0.0829445
0.134262
-0.0848718
0.135672
-0.0865477
0.136837
-0.0879611
0.137727
-0.0891031
0.138374
-0.0899662
0.138779
-0.0905446
0.138912
-0.0908348
0.138807
-0.0908348
0.138467
-0.0905446
0.137862
-0.0899662
0.137029
-0.0891031
0.13597
-0.0879611
0.13466
-0.0865477
0.133134
-0.0848718
0.131396
-0.0829445
0.129422
-0.0807783
0.127247
-0.078387
0.124877
-0.0757863
0.12229
-0.072993
0.119519
-0.0700247
0.116571
-0.0669012
0.113426
-0.0636421
0.110118
-0.0602682
0.106651
-0.0568015
0.10301
-0.0532638
0.0992244
-0.0496775
0.0953017
-0.0460657
0.0912271
-0.0424511
0.0870294
-0.0388559
0.0827147
-0.0353033
0.0782716
-0.0318151
0.0737262
-0.0284126
0.0690843
-0.025117
0.0643377
-0.0219483
0.0595094
-0.0189253
0.0546049
-0.0160664
0.0496194
-0.0133881
0.0445723
-0.0109058
0.0394691
-0.00863381
0.0343083
-0.00658448
0.0291059
-0.00476859
0.0238672
-0.00319566
0.0185939
-0.00187307
0.0132986
-0.000806485
0.0079866
0.00266308
0.000761746
-0.00343948
0.00115875
-0.0103156
0.00119311
-0.0171787
0.000869588
-0.0240232
0.000195288
-0.0308432
-0.000820077
-0.0376239
-0.00216459
-0.044364
-0.00382417
-0.0510576
-0.00578221
-0.0576848
-0.00802043
-0.0642489
-0.0105187
-0.0707433
-0.0132548
-0.0771436
-0.0162051
-0.0834567
-0.019345
-0.089676
-0.0226477
-0.095772
-0.0260863
-0.101756
-0.0296329
-0.10762
-0.0332583
-0.113331
-0.0369337
-0.118903
-0.04063
-0.124329
-0.0443173
-0.129571
-0.0479668
-0.134646
-0.05155
-0.139547
-0.0550385
-0.144233
-0.0584052
-0.148724
-0.0616241
-0.153012
-0.06467
-0.157054
-0.0675193
-0.160873
-0.0701503
-0.164461
-0.0725424
-0.167773
-0.0746772
-0.170834
-0.0765386
-0.173639
-0.078112
-0.176138
-0.0793854
-0.178362
-0.0803492
-0.180305
-0.0809958
-0.181917
-0.0813203
-0.183232
-0.0813203
-0.184244
-0.0809958
-0.184905
-0.0803492
-0.185251
-0.0793854
-0.185278
-0.078112
-0.184938
-0.0765386
-0.184271
-0.0746772
-0.183272
-0.0725424
-0.1819
-0.0701503
-0.180193
-0.0675193
-0.17815
-0.06467
-0.175732
-0.0616241
-0.172981
-0.0584052
-0.169896
-0.0550385
-0.166444
-0.05155
-0.162666
-0.0479668
-0.158566
-0.0443173
-0.154113
-0.04063
-0.149352
-0.0369337
-0.144287
-0.0332583
-0.138895
-0.0296329
-0.133217
-0.0260863
-0.127263
-0.0226477
-0.121015
-0.019345
-0.114513
-0.0162051
-0.10777
-0.0132548
-0.100773
-0.0105187
-0.0935628
-0.00802043
-0.0861512
-0.00578221
-0.0785351
-0.00382417
-0.0707503
-0.00216462
-0.0628101
-0.000820077
-0.0547234
0.000195307
-0.0465155
0.000869577
-0.0382028
0.00119311
-0.0298032
0.00115874
-0.0213364
0.000761759
-0.0128213
-8.31323e-14
-0.00427697
-0.00112616
0.00427697
-0.0026138
0.0128213
-0.00445742
0.0213364
-0.00664903
0.0298032
-0.0091782
0.0382028
-0.012032
0.0465155
-0.0151953
0.0547234
-0.0186509
0.0628101
-0.0223788
0.0707503
-0.0263577
0.0785351
-0.0305647
0.0861512
-0.0349742
0.0935628
-0.0395598
0.100773
-0.0442942
0.10777
-0.0491475
0.114513
-0.0540901
0.121015
-0.0590918
0.127263
-0.0641205
0.133217
-0.069145
0.138895
-0.074134
0.144287
-0.0790551
0.149352
-0.0838775
0.154113
-0.0885708
0.158566
-0.0931042
0.162666
-0.0974491
0.166444
-0.101578
0.169896
-0.105463
0.172981
-0.109081
0.175732
-0.112407
0.17815
-0.11542
0.180193
-0.1181
0.1819
-0.120432
0.183272
-0.122397
0.184271
-0.123986
0.184938
-0.125186
0.185278
-0.125991
0.185251
-0.126394
0.184905
-0.126394
0.184244
-0.125991
0.183232
-0.125186
0.181917
-0.123986
0.180305
-0.122397
0.178362
-0.120432
0.176138
-0.1181
0.173639
-0.11542
0.170834
-0.112407
0.167773
-0.109081
0.164461
-0.105463
0.160873
-0.101578
0.157054
-0.0974491
0.153012
-0.0931042
0.148724
-0.0885708
0.144233
-0.0838775
0.139547
-0.0790551
0.134646
-0.074134
0.129571
-0.069145
0.124329
-0.0641205
0.118903
-0.0590918
0.113331
-0.0540901
0.10762
-0.0491475
0.101756
-0.0442942
0.095772
-0.0395598
0.089676
-0.0349742
0.0834567
-0.0305647
0.0771436
-0.0263577
0.0707433
-0.0223788
0.0642489
-0.0186509
0.0576848
-0.0151953
0.0510576
-0.012032
0.044364
-0.00917826
0.0376239
-0.00664898
0.0308432
-0.00445742
0.0240232
-0.00261384
0.0171787
-0.00112613
0.0103156
0.00343948
0.000978745
-0.00415926
0.00149292
-0.0124751
0.00154519
-0.0207775
0.0011416
-0.0290611
0.000291176
-0.0373203
-0.000993716
-0.0455387
-0.00269791
-0.0537159
-0.0048035
-0.0618462
-0.00728934
-0.0699068
-0.0101322
-0.0779025
-0.0133064
-0.0858266
-0.0167836
-0.0936503
-0.0205338
-0.101383
-0.0245257
-0.109017
-0.0287252
-0.116517
-0.0330979
-0.123898
-0.0376085
-0.13115
-0.0422196
-0.138233
-0.0468947
-0.145163
-0.0515966
-0.151933
-0.0562873
-0.158495
-0.0609301
-0.164871
-0.0654889
-0.17105
-0.0699272
-0.176981
-0.0742108
-0.18269
-0.0783065
-0.188165
-0.082182
-0.193351
-0.0858075
-0.198276
-0.0891554
-0.20293
-0.0921992
-0.207253
-0.0949158
-0.211279
-0.0972844
-0.214995
-0.0992866
-0.218342
-0.100907
-0.221354
-0.102133
-0.224022
-0.102956
-0.226284
-0.103369
-0.228179
-0.103369
-0.229698
-0.102956
-0.23078
-0.102133
-0.231467
-0.100907
-0.231752
-0.0992866
-0.231575
-0.0972844
-0.230982
-0.0949158
-0.229968
-0.0921992
-0.228477
-0.0891554
-0.226557
-0.0858075
-0.224206
-0.082182
-0.221372
-0.0783065
-0.218105
-0.0742108
-0.214407
-0.0699272
-0.210232
-0.0654889
-0.205631
-0.0609301
-0.200609
-0.0562873
-0.195128
-0.0515966
-0.18924
-0.0468947
-0.182952
-0.0422196
-0.176235
-0.0376085
-0.169141
-0.0330979
-0.16168
-0.0287252
-0.153832
-0.0245257
-0.145647
-0.0205338
-0.13714
-0.0167836
-0.128298
-0.0133064
-0.11917
-0.0101322
-0.109775
-0.00728934
-0.100107
-0.0048035
-0.0902141
-0.00269796
-0.0801134
-0.000993716
-0.069817
0.0002912
-0.0593585
0.00114158
-0.0487597
0.00154519
-0.0380447
0.00149291
-0.0272396
0.000978762
-0.0163699
-1.05167e-13
-0.0054609
-0.00144288
0.0054609
-0.00334614
0.0163699
-0.00570276
0.0272396
-0.00850257
0.0380447
-0.0117322
0.0487597
-0.0153753
0.0593585
-0.0194125
0.069817
-0.0238218
0.0801134
-0.0285778
0.0902141
-0.0336535
0.100107
-0.0390195
0.109775
-0.0446431
0.11917
-0.050491
0.128298
-0.0565281
0.13714
-0.0627165
0.145647
-0.0690185
0.153832
-0.0753955
0.16168
-0.0818067
0.169141
-0.0882122
0.176235
-0.0945723
0.182952
-0.100846
0.18924
-0.106993
0.195128
-0.112976
0.200609
-0.118754
0.205631
-0.124293
0.210232
-0.129555
0.214407
-0.134508
0.218105
-0.139118
0.221372
-0.143358
0.224206
-0.147198
0.226557
-0.150615
0.228477
-0.153586
0.229968
-0.156092
0.230982
-0.158116
0.231575
-0.159646
0.231752
-0.160672
0.231467
-0.161186
0.23078
-0.161186
0.229698
-0.160672
0.228179
-0.159646
0.226284
-0.158116
0.224022
-0.156092
0.221354
-0.153586
0.218342
-0.150615
0.214995
-0.147198
0.211279
-0.143358
0.207253
-0.139118
0.20293
-0.134508
0.198276
-0.129555
0.193351
-0.124293
0.188165
-0.118754
0.18269
-0.112976
0.176981
-0.106993
0.17105
-0.100846
0.164871
-0.0945723
0.158495
-0.0882122
0.151933
-0.0818067
0.145163
-0.0753955
0.138233
-0.0690185
0.13115
-0.0627165
0.123898
-0.0565281
0.116517
-0.050491
0.109017
-0.0446431
0.101383
-0.0390195
0.0936503
-0.0336535
0.0858266
-0.0285778
0.0779025
-0.0238218
0.0699068
-0.0194124
0.0618462
-0.0153753
0.0537159
-0.0117323
0.0455387
-0.0085025
0.0373203
-0.00570276
0.0290611
-0.00334619
0.0207775
-0.00144284
0.0124751
0.00415926
0.00119525
-0.00482237
0.00182935
-0.014465
0.0019055
-0.0240947
0.00143096
-0.0337072
0.000416643
-0.043298
-0.00112256
-0.0528493
-0.00316836
-0.0623629
-0.00569912
-0.0718333
-0.00868935
-0.0812357
-0.012111
-0.0905771
-0.0159331
-0.0998509
-0.0201213
-0.109025
-0.0246397
-0.11811
-0.0294502
-0.1271
-0.0345118
-0.135953
-0.0397829
-0.144687
-0.0452209
-0.153292
-0.0507807
-0.161719
-0.056418
-0.16999
-0.0620882
-0.178093
-0.0677453
-0.185974
-0.073345
-0.193658
-0.0788435
-0.201131
-0.0841971
-0.208332
-0.0893641
-0.215291
-0.0943048
-0.221992
-0.09898
-0.228369
-0.103354
-0.234455
-0.107393
-0.240235
-0.111065
-0.245638
-0.114342
-0.2507
-0.1172
-0.255406
-0.119615
-0.259683
-0.12157
-0.26357
-0.12305
-0.267053
-0.124043
-0.270058
-0.124541
-0.272627
-0.124541
-0.274749
-0.124043
-0.276348
-0.12305
-0.277473
-0.12157
-0.278112
-0.119615
-0.278193
-0.1172
-0.277768
-0.114342
-0.276829
-0.111065
-0.275306
-0.107393
-0.273257
-0.103354
-0.270676
-0.09898
-0.267499
-0.0943048
-0.263787
-0.0893641
-0.259538
-0.0841971
-0.254696
-0.0788435
-0.249323
-0.073345
-0.243423
-0.0677453
-0.236948
-0.0620882
-0.229962
-0.056418
-0.222474
-0.0507807
-0.214445
-0.0452209
-0.20594
-0.0397829
-0.196972
-0.0345118
-0.187514
-0.0294502
-0.17763
-0.0246397
-0.167336
-0.0201213
-0.156618
-0.0159331
-0.145537
-0.012111
-0.134114
-0.00868935
-0.122346
-0.00569912
-0.11029
-0.00316841
-0.0979691
-0.00112256
-0.0853989
0.000416672
-0.0726215
0.00143094
-0.0596651
0.0019055
-0.0465601
0.00182934
-0.0333401
0.00119527
-0.0200374
-1.26359e-13
-0.00668462
-0.00175585
0.00668462
-0.00406774
0.0200374
-0.00692717
0.0333401
-0.0103218
0.0465601
-0.0142356
0.0596651
-0.0186486
0.0726215
-0.0235375
0.0853989
-0.0288756
0.0979691
-0.0346324
0.11029
-0.040775
0.122346
-0.0472682
0.134114
-0.0540722
0.145537
-0.0611469
0.156618
-0.0684497
0.167336
-0.0759351
0.17763
-0.0835573
0.187514
-0.0912698
0.196972
-0.0990231
0.20594
-0.106769
0.214445
-0.11446
0.222474
-0.122046
0.229962
-0.129479
0.236948
-0.136713
0.243423
-0.1437
0.249323
-0.150396
0.254696
-0.156759
0.259538
-0.162746
0.263787
-0.168321
0.267499
-0.173446
0.270676
-0.178089
0.273257
-0.18222
0.275306
-0.185811
0.276829
-0.188841
0.277768
-0.191288
0.278193
-0.193138
0.278112
-0.194377
0.277473
-0.194999
0.276348
-0.194999
0.274749
-0.194377
0.272627
-0.193138
0.270058
-0.191288
0.267053
-0.188841
0.26357
-0.185811
0.259683
-0.18222
0.255406
-0.178089
0.2507
-0.173446
0.245638
-0.168321
0.240235
-0.162746
0.234455
-0.156759
0.228369
-0.150396
0.221992
-0.1437
0.215291
-0.136713
0.208332
-0.129479
0.201131
-0.122046
0.193658
-0.11446
0.185974
-0.106769
0.178093
-0.0990231
0.16999
-0.0912698
0.161719
-0.0835573
0.153292
-0.0759351
0.144687
-0.0684497
0.135953
-0.0611469
0.1271
-0.0540722
0.11811
-0.0472682
0.109025
-0.040775
0.0998509
-0.0346324
0.0905771
-0.0288756
0.0812357
-0.0235374
0.0718333
-0.0186486
0.0623629
-0.0142357
0.0528493
-0.0103217
0.043298
-0.00692717
0.0337072
-0.0040678
0.0240947
-0.0017558
0.014465
0.00482237
0.00141113
-0.00542912
0.00216845
-0.0162861
0.00227567
-0.0271318
0.0017412
-0.0379636
0.000577723
-0.0487785
-0.00119744
-0.0595587
-0.003563
-0.0703079
-0.00649381
-0.0810221
-0.00996018
-0.0916748
-0.0139294
-0.102276
-0.0183656
-0.112819
-0.0232287
-0.123269
-0.0284768
-0.13364
-0.0340656
-0.143925
-0.0399474
-0.154079
-0.0460738
-0.164121
-0.0523949
-0.174041
-0.0588586
-0.183784
-0.0654132
-0.193375
-0.0720066
-0.2028
-0.0785853
-0.211996
-0.0850977
-0.220992
-0.0914929
-0.229771
-0.0977198
-0.238263
-0.10373
-0.2465
-0.109477
-0.254464
-0.114916
-0.262076
-0.120004
-0.269373
-0.124703
-0.276336
-0.128975
-0.282881
-0.132788
-0.289048
-0.136113
-0.294818
-0.138923
-0.300103
-0.141198
-0.304947
-0.142919
-0.309332
-0.144074
-0.313167
-0.144654
-0.316502
-0.144654
-0.319319
-0.144074
-0.321527
-0.142919
-0.323183
-0.141198
-0.32427
-0.138923
-0.324699
-0.136113
-0.324532
-0.132788
-0.323755
-0.128975
-0.322286
-0.124703
-0.320188
-0.120004
-0.317454
-0.114916
-0.314007
-0.109477
-0.309916
-0.10373
-0.305179
-0.0977198
-0.299726
-0.0914929
-0.293631
-0.0850977
-0.286897
-0.0785853
-0.279466
-0.0720066
-0.271413
-0.0654132
-0.262747
-0.0588586
-0.253423
-0.0523949
-0.243516
-0.0460738
-0.233042
-0.0399474
-0.221969
-0.0340656
-0.210373
-0.0284768
-0.198274
-0.0232287
-0.185654
-0.0183656
-0.172588
-0.0139294
-0.1591
-0.00996018
-0.145187
-0.00649381
-0.13092
-0.00356306
-0.116325
-0.00119744
-0.101424
0.000577756
-0.0862658
0.00174118
-0.0708869
0.00227567
-0.0553245
0.00216844
-0.03962
0.00141115
-0.0238132
-1.46682e-13
-0.00794451
-0.00206426
0.00794451
-0.00477632
0.0238132
-0.00812622
0.03962
-0.0120996
0.0553245
-0.0166776
0.0708869
-0.0218372
0.0862658
-0.0275509
0.101424
-0.0337878
0.116325
-0.0405123
0.13092
-0.047686
0.145187
-0.0552677
0.1591
-0.0632113
0.172588
-0.0714698
0.185654
-0.0799938
0.198274
-0.08873
0.210373
-0.0976251
0.221969
-0.106625
0.233042
-0.115672
0.243516
-0.12471
0.253423
-0.133683
0.262747
-0.142533
0.271413
-0.151205
0.279466
-0.159643
0.286897
-0.167794
0.293631
-0.175605
0.299726
-0.183027
0.305179
-0.190011
0.309916
-0.196513
0.314007
-0.202491
0.317454
-0.207907
0.320188
-0.212724
0.322286
-0.216914
0.323755
-0.220447
0.324532
-0.223301
0.324699
-0.225459
0.32427
-0.226904
0.323183
-0.22763
0.321527
-0.22763
0.319319
-0.226904
0.316502
-0.225459
0.313167
-0.223301
0.309332
-0.220447
0.304947
-0.216914
0.300103
-0.212724
0.294818
-0.207907
0.289048
-0.202491
0.282881
-0.196513
0.276336
-0.190011
0.269373
-0.183027
0.262076
-0.175605
0.254464
-0.167794
0.2465
-0.159643
0.238263
-0.151205
0.229771
-0.142533
0.220992
-0.133683
0.211996
-0.12471
0.2028
-0.115672
0.193375
-0.106625
0.183784
-0.0976251
0.174041
-0.08873
0.164121
-0.0799938
0.154079
-0.0714698
0.143925
-0.0632113
0.13364
-0.0552677
0.123269
-0.047686
0.112819
-0.0405123
0.102276
-0.0337878
0.0916748
-0.0275508
0.0810221
-0.0218372
0.0703079
-0.0166778
0.0595587
-0.0120995
0.0487785
-0.00812622
0.0379636
-0.00477638
0.0271318
-0.00206421
0.0162861
0.00542912
0.00162625
-0.00598017
0.00251061
-0.0179404
0.00265723
-0.0298921
0.00207562
-0.0418347
0.000780132
-0.0537676
-0.00120964
-0.0656733
-0.00386957
-0.0775583
-0.00717117
-0.0894204
-0.0110808
-0.101232
-0.0155614
-0.113007
-0.0205723
-0.124739
-0.026068
-0.136391
-0.032001
-0.14798
-0.0383213
-0.1595
-0.0449745
-0.1709
-0.0519058
-0.182204
-0.0590589
-0.193401
-0.0663744
-0.20443
-0.0737936
-0.215318
-0.0812577
-0.22605
-0.0887059
-0.236555
-0.0960797
-0.246865
-0.103321
-0.25696
-0.110373
-0.26676
-0.11718
-0.2763
-0.123689
-0.285558
-0.129848
-0.294445
-0.135611
-0.302999
-0.140934
-0.311197
-0.145773
-0.318943
-0.150092
-0.326279
-0.153858
-0.333182
-0.157042
-0.339548
-0.159619
-0.345427
-0.161569
-0.350793
-0.162877
-0.355543
-0.163534
-0.359728
-0.163534
-0.363328
-0.162877
-0.366235
-0.161569
-0.36851
-0.159619
-0.370132
-0.157042
-0.370999
-0.153858
-0.371175
-0.150092
-0.370644
-0.145773
-0.36931
-0.140934
-0.367242
-0.135611
-0.36443
-0.129848
-0.360784
-0.123689
-0.35638
-0.11718
-0.351215
-0.110373
-0.345208
-0.103321
-0.338441
-0.0960797
-0.330917
-0.0887059
-0.322567
-0.0812577
-0.313478
-0.0737936
-0.303659
-0.0663744
-0.293058
-0.0590589
-0.281761
-0.0519058
-0.269787
-0.0449745
-0.257097
-0.0383213
-0.243781
-0.032001
-0.229862
-0.026068
-0.21532
-0.0205723
-0.200241
-0.0155614
-0.184656
-0.0110808
-0.168562
-0.00717117
-0.152041
-0.00386964
-0.135126
-0.00120964
-0.117841
0.000780169
-0.100249
0.0020756
-0.0823904
0.00265723
-0.0643106
0.0025106
-0.0460596
0.00162628
-0.0276854
-1.66103e-13
-0.00923664
-0.00236734
0.00923664
-0.00546965
0.0276854
-0.00929563
0.0460596
-0.0138289
0.0643106
-0.0190481
0.0823904
-0.0249269
0.100249
-0.0314342
0.117841
-0.0385348
0.135126
-0.0461883
0.152041
-0.0543512
0.168562
-0.0629766
0.184656
-0.0720122
0.200241
-0.0814045
0.21532
-0.0910975
0.229862
-0.101031
0.243781
-0.111144
0.257097
-0.121375
0.269787
-0.131659
0.281761
-0.141932
0.293058
-0.15213
0.303659
-0.162189
0.313478
-0.172044
0.322567
-0.181633
0.330917
-0.190895
0.338441
-0.199771
0.345208
-0.208205
0.351215
-0.21614
0.35638
-0.223528
0.360784
-0.230321
0.36443
-0.236474
0.367242
-0.241948
0.36931
-0.246707
0.370644
-0.250721
0.371175
-0.253964
0.370999
-0.256415
0.370132
-0.258058
0.36851
-0.258882
0.366235
-0.258882
0.363328
-0.258058
0.359728
-0.256415
0.355543
-0.253964
0.350793
-0.250721
0.345427
-0.246707
0.339548
-0.241948
0.333182
-0.236474
0.326279
-0.230321
0.318943
-0.223528
0.311197
-0.21614
0.302999
-0.208205
0.294445
-0.199771
0.285558
-0.190895
0.2763
-0.181633
0.26676
-0.172044
0.25696
-0.162189
0.246865
-0.15213
0.236555
-0.141932
0.22605
-0.131659
0.215318
-0.121375
0.20443
-0.111144
0.193401
-0.101031
0.182204
-0.0910975
0.1709
-0.0814045
0.1595
-0.0720122
0.14798
-0.0629766
0.136391
-0.0543512
0.124739
-0.0461883
0.113007
-0.0385348
0.101232
-0.031434
0.0894204
-0.0249269
0.0775583
-0.0190482
0.0656733
-0.0138288
0.0537676
-0.00929563
0.0418347
-0.00546973
0.0298921
-0.00236727
0.0179404
0.00598017
0.00184047
-0.0064765
0.00285615
-0.0194308
0.00305159
-0.0323802
0.00243731
-0.0453271
0.00102922
-0.0582734
-0.00115097
-0.071203
-0.00407651
-0.0841255
-0.00771575
-0.097041
-0.0120314
-0.109922
-0.0169822
-0.122785
-0.0225231
-0.135626
-0.0286036
-0.148406
-0.0351709
-0.161146
-0.0421693
-0.173839
-0.0495387
-0.186432
-0.057218
-0.198951
-0.0651447
-0.211384
-0.0732528
-0.223667
-0.0814772
-0.235827
-0.0897524
-0.247849
-0.098011
-0.259654
-0.106188
-0.271276
-0.114219
-0.282693
-0.12204
-0.293815
-0.12959
-0.304679
-0.13681
-0.315259
-0.143643
-0.325455
-0.150036
-0.335308
-0.155941
-0.344789
-0.16131
-0.353789
-0.166102
-0.362353
-0.17028
-0.370452
-0.173813
-0.377968
-0.176672
-0.384953
-0.178836
-0.391377
-0.180288
-0.397118
-0.181016
-0.402236
-0.181016
-0.406699
-0.180288
-0.410388
-0.178836
-0.413367
-0.176672
-0.415608
-0.173813
-0.416994
-0.17028
-0.417596
-0.166102
-0.417392
-0.16131
-0.41627
-0.155941
-0.414307
-0.150036
-0.411489
-0.143643
-0.407713
-0.13681
-0.403061
-0.12959
-0.397528
-0.12204
-0.391021
-0.114219
-0.383632
-0.106188
-0.375361
-0.098011
-0.366131
-0.0897524
-0.356039
-0.0814772
-0.345093
-0.0732528
-0.333235
-0.0651447
-0.320563
-0.057218
-0.307095
-0.0495387
-0.292792
-0.0421693
-0.277751
-0.0351709
-0.262002
-0.0286036
-0.245522
-0.0225231
-0.22841
-0.0169822
-0.210702
-0.0120314
-0.192396
-0.00771575
-0.173585
-0.00407658
-0.15431
-0.00115097
-0.1346
0.00102926
-0.114526
0.00243729
-0.0941381
0.00305159
-0.0734892
0.00285613
-0.052638
0.0018405
-0.0316415
-1.84601e-13
-0.0105568
-0.00266431
0.0105568
-0.00614561
0.0316415
-0.0104313
0.052638
-0.015503
0.0734892
-0.0213371
0.0941381
-0.0279041
0.114526
-0.0351695
0.1346
-0.043094
0.15431
-0.0516328
0.173585
-0.0607372
0.192396
-0.0703553
0.210702
-0.0804287
0.22841
-0.0908981
0.245522
-0.101701
0.262002
-0.11277
0.277751
-0.124039
0.292792
-0.135437
0.307095
-0.146894
0.320563
-0.158337
0.333235
-0.169697
0.345093
-0.1809
0.356039
-0.191875
0.366131
-0.202555
0.375361
-0.212869
0.383632
-0.222753
0.391021
-0.232144
0.397528
-0.240981
0.403061
-0.249207
0.407713
-0.25677
0.411489
-0.263621
0.414307
-0.269715
0.41627
-0.275014
0.417392
-0.279483
0.417596
-0.283094
0.416994
-0.285823
0.415608
-0.287652
0.413367
-0.288569
0.410388
-0.288569
0.406699
-0.287652
0.402236
-0.285823
0.397118
-0.283094
0.391377
-0.279483
0.384953
-0.275014
0.377968
-0.269715
0.370452
-0.263621
0.362353
-0.25677
0.353789
-0.249207
0.344789
-0.240981
0.335308
-0.232144
0.325455
-0.222753
0.315259
-0.212869
0.304679
-0.202555
0.293815
-0.191875
0.282693
-0.1809
0.271276
-0.169697
0.259654
-0.158337
0.247849
-0.146894
0.235827
-0.135437
0.223667
-0.124039
0.211384
-0.11277
0.198951
-0.101701
0.186432
-0.0908981
0.173839
-0.0804287
0.161146
-0.0703553
0.148406
-0.0607372
0.135626
-0.0516328
0.122785
-0.043094
0.109922
-0.0351693
0.097041
-0.0279041
0.0841255
-0.0213372
0.071203
-0.0155029
0.0582734
-0.0104313
0.0453271
-0.0061457
0.0323802
-0.00266424
0.0194308
0.0064765
0.00205362
-0.00691941
0.00320533
-0.0207613
0.00346
-0.0346028
0.00282909
-0.0484497
0.00132991
-0.0623072
-0.00101388
-0.0761612
-0.00417307
-0.0900248
-0.00811316
-0.103901
-0.0127934
-0.117763
-0.0181688
-0.13163
-0.0241901
-0.145501
-0.0308022
-0.159336
-0.0379475
-0.173159
-0.045565
-0.186964
-0.0535891
-0.200695
-0.0619531
-0.214381
-0.0705887
-0.22801
-0.0794238
-0.241512
-0.0883872
-0.254918
-0.0974074
-0.26821
-0.106411
-0.281304
-0.115326
-0.294233
-0.124083
-0.306974
-0.132612
-0.319428
-0.140846
-0.331633
-0.148721
-0.343559
-0.156174
-0.355095
-0.163148
-0.366283
-0.169589
-0.377089
-0.175446
-0.387391
-0.180674
-0.397236
-0.185233
-0.406588
-0.189087
-0.415316
-0.192206
-0.423474
-0.194567
-0.431023
-0.196151
-0.43783
-0.196946
-0.443953
-0.196946
-0.449357
-0.196151
-0.453906
-0.194567
-0.457666
-0.192206
-0.460605
-0.189087
-0.462589
-0.185233
-0.463694
-0.180674
-0.463892
-0.175446
-0.463057
-0.169589
-0.46127
-0.163148
-0.458515
-0.156174
-0.454672
-0.148721
-0.449834
-0.140846
-0.443991
-0.132612
-0.437038
-0.124083
-0.429075
-0.115326
-0.420101
-0.106411
-0.410031
-0.0974074
-0.398968
-0.0883872
-0.386925
-0.0794238
-0.373832
-0.0705887
-0.359801
-0.0619531
-0.344852
-0.0535891
-0.32894
-0.045565
-0.312176
-0.0379475
-0.294592
-0.0308022
-0.276164
-0.0241901
-0.257004
-0.0181688
-0.237153
-0.0127934
-0.216609
-0.00811316
-0.195481
-0.00417315
-0.173814
-0.00101388
-0.151643
0.00132995
-0.129049