/*--------------------------------*- C++ -*----------------------------------*\
  =========                 |
  \\      /  F ield         | OpenFOAM: The Open Source CFD Toolbox
   \\    /   O peration     | Website:  https://openfoam.org
    \\  /    A nd           | Version:  6
     \\/     M anipulation  |
\*---------------------------------------------------------------------------*/
FoamFile
{
    version     2.0;
    format      ascii;
    class       volVectorField;
    location    "3.1e-05";
    object      U;
}
// * * * * * * * * * * * * * * * * * * * * * * * * * * * * * * * * * * * * * //

dimensions      [0 1 -1 0 0 0 0];

internalField   nonuniform List<vector> 
2370
(
(1.64506 0.194128 -0.000193326)
(0.834631 0.508194 -0.000239189)
(0.00662496 0.902637 0.0014259)
(0.777465 0.233418 1.81358e-05)
(0.427913 -0.0624724 -0.000356772)
(1.31589 -0.27985 0.000162726)
(0.381461 0.43789 0.000302963)
(0.74874 0.254791 6.46444e-05)
(0.84531 0.169647 6.6649e-05)
(0.840938 0.159335 9.23278e-05)
(0.756402 0.234196 -4.16016e-05)
(0.870833 0.150492 5.56332e-05)
(0.917479 0.240634 1.69173e-05)
(0.709093 0.334442 0.000128972)
(0.564432 0.485226 -5.41953e-05)
(0.810185 0.231669 -6.97867e-05)
(0.809902 0.221881 -0.000420143)
(0.69932 0.198551 -8.09431e-05)
(0.610414 0.411883 0.000139522)
(0.949646 0.337001 -0.000207016)
(0.834853 0.185415 9.33257e-05)
(0.807677 0.233671 -1.79074e-05)
(0.359377 0.539216 0.000305352)
(0.814217 0.162371 0.000120375)
(0.779159 0.107447 -1.13041e-05)
(0.863109 0.167275 9.35885e-06)
(1.03809 -0.06391 0.000182982)
(1.01285 0.45106 -8.63032e-05)
(0.908424 0.130437 -0.000618782)
(0.814497 0.143516 8.77003e-05)
(0.636876 0.474821 2.22464e-05)
(0.937473 0.187021 0.000231185)
(1.0095 0.125723 3.40851e-05)
(0.608291 0.936042 -0.000102362)
(0.852357 0.168958 5.79172e-05)
(0.451677 0.586186 0.000160061)
(0.784513 0.245335 2.41124e-05)
(0.749469 0.152064 -4.94014e-05)
(0.82506 0.25421 8.78382e-06)
(1.11477 -0.0806896 0.000496832)
(0.867515 0.127697 8.88207e-05)
(1.22481 -0.0265811 6.05148e-05)
(0.887905 0.0626349 0.000120166)
(0.747605 0.250468 -2.03187e-06)
(0.609402 0.466066 0.000292261)
(0.623102 0.335728 6.43095e-05)
(1.13465 -0.0565066 0.000191294)
(0.621835 0.416599 4.68145e-05)
(0.908048 0.0809757 -3.33501e-05)
(-0.0706377 1.0984 0.000712975)
(1.15982 0.603057 -0.000481508)
(0.857268 0.134425 0.000175763)
(1.28118 -0.323702 0.000383883)
(0.691453 -0.00779494 -0.000145104)
(1.1753 -0.173206 0.000199259)
(0.481795 0.642868 0.000252112)
(0.762955 0.232846 0.000125045)
(0.558743 0.510905 0.000180324)
(1.04816 -0.0672879 0.000166937)
(0.782933 0.24198 3.2211e-05)
(0.816678 0.198546 5.5687e-05)
(0.512251 0.53512 0.000119625)
(0.803239 0.226815 -1.4021e-05)
(1.08242 -0.0666455 0.000135271)
(0.645149 0.0239203 -0.000329005)
(0.699981 0.105033 -0.000143801)
(1.04983 0.369308 -0.000384634)
(0.786794 0.197287 -4.42843e-05)
(1.15255 -0.0564996 0.000186903)
(0.809487 0.233773 -4.16719e-05)
(0.505073 0.456913 0.000248806)
(1.00626 -0.100819 0.000224827)
(0.578538 0.502779 0.000222049)
(1.09978 -0.0592689 0.000225882)
(0.567831 -0.142618 -0.000192557)
(0.813308 0.232902 -4.11808e-05)
(0.540706 -0.0197319 -0.000128805)
(1.09175 0.481211 -0.00018023)
(0.780016 0.195261 -6.08189e-05)
(0.415292 0.550277 0.000352231)
(1.16057 -0.0734119 0.000304287)
(0.77458 0.248858 0.000108777)
(0.823644 0.206341 0.000129318)
(0.290284 -0.383879 -0.000400613)
(0.810713 0.210798 -1.9151e-05)
(0.679619 0.422104 0.000101265)
(0.996735 0.0142113 0.000162534)
(1.09513 0.51538 -0.000198393)
(0.544514 0.444739 5.12714e-05)
(0.893925 0.363227 -0.000188094)
(0.635951 0.0551668 -8.72016e-05)
(0.533658 0.58726 0.000214893)
(0.740005 0.249109 0.000104716)
(1.1323 0.720005 -0.000308245)
(0.509857 0.410004 0.000156957)
(0.714418 0.270558 -9.15632e-06)
(0.954505 0.0892272 9.47811e-05)
(0.981825 0.40213 -0.000138252)
(0.618711 0.408719 0.000132325)
(0.893983 0.348616 -7.01441e-05)
(0.558646 -0.0654942 -0.000283333)
(0.917645 0.376293 -9.92043e-05)
(1.01587 0.544336 -0.000129061)
(0.873239 0.155609 0.000122657)
(1.13103 -0.146528 0.000260265)
(0.990636 0.0218027 0.000113311)
(0.856838 0.156439 -5.10463e-05)
(1.01653 -0.0741001 0.000167969)
(1.06127 -0.168261 0.00020115)
(0.586578 0.410979 0.000125515)
(0.813866 0.198559 3.0472e-05)
(1.04946 -0.0131236 0.000113411)
(0.606274 0.403963 0.000132511)
(0.663846 0.114868 -6.49804e-05)
(1.01238 0.388052 -0.000195098)
(0.883413 0.0927193 3.837e-05)
(0.769613 0.253927 7.07877e-05)
(0.656202 0.047697 -0.000101645)
(0.665407 0.299224 5.66046e-05)
(1.0039 0.496823 -0.000195937)
(0.983053 0.0703608 7.98895e-05)
(0.621237 0.290681 5.42055e-05)
(0.571914 0.37949 9.29517e-05)
(0.44712 -0.0218536 -0.000121248)
(1.12342 -0.237085 9.34591e-05)
(0.625592 0.382455 4.64271e-05)
(0.895695 0.026147 5.30844e-05)
(0.779067 0.223494 2.938e-05)
(0.66308 0.0821788 -1.292e-05)
(0.939122 0.330153 -2.39591e-05)
(1.02092 0.431022 -9.75433e-05)
(0.380004 -0.0563117 -0.000249563)
(0.588803 -0.0102872 -5.13763e-05)
(0.876434 0.271658 -5.53038e-05)
(0.437867 0.454967 0.00022501)
(1.5096 0.649162 -0.000434888)
(0.837143 0.262747 -7.07443e-05)
(1.04762 0.0562436 0.000122405)
(0.557779 -0.0051633 -0.000185931)
(0.676145 0.435694 9.1493e-05)
(0.906442 0.306553 2.60211e-05)
(0.578186 -0.0163565 -9.57771e-05)
(0.799037 0.215808 -7.81542e-07)
(0.734522 0.101455 -7.50053e-05)
(0.814858 0.23408 -8.2873e-05)
(0.845735 0.181102 8.14971e-05)
(0.67219 0.0937179 2.7724e-05)
(1.08021 0.509469 -8.41238e-05)
(0.995823 0.396845 -4.06165e-05)
(0.746878 0.146607 -5.91022e-05)
(1.06026 0.223345 -0.000928226)
(0.693191 0.00864657 -8.2497e-05)
(0.67876 0.36489 0.000104808)
(0.639634 0.0247652 -4.17703e-05)
(1.00375 0.355198 -0.000116089)
(0.958373 0.0554902 0.000122706)
(0.524705 0.367051 -0.00184354)
(0.753577 0.349105 0.000218292)
(0.73867 0.37664 3.44157e-05)
(0.861238 0.445148 9.92183e-05)
(-0.587767 0.720848 0.00327198)
(1.27807 0.159421 0.000447507)
(0.688566 0.346492 6.88388e-05)
(0.320883 0.0891986 -0.000199831)
(0.453368 -0.0449474 -0.000181345)
(0.99581 0.425842 -0.000133445)
(0.772578 0.17883 -6.41427e-05)
(0.794475 0.204664 -4.95274e-05)
(0.413359 0.127087 -0.000381528)
(0.762886 0.196332 -3.57815e-05)
(0.845307 0.18331 2.31291e-05)
(0.894817 0.334534 -0.000101628)
(0.718056 -0.0539573 -4.32553e-05)
(0.772073 0.168734 -1.60193e-05)
(0.951436 0.318961 -5.54826e-06)
(0.98057 0.39597 -8.70129e-05)
(0.724387 0.290499 0.000187853)
(0.785669 0.200476 1.11029e-05)
(0.765907 0.231793 3.73214e-05)
(0.725968 0.130833 -0.000197338)
(0.787935 0.22994 0.000105032)
(0.791704 0.20468 -4.69922e-06)
(0.993002 0.0535455 0.000213575)
(0.783625 0.214671 4.13993e-05)
(0.785072 0.194899 -0.000107474)
(0.705631 0.191719 -6.09541e-05)
(0.899455 0.124222 7.66693e-05)
(0.636119 0.035742 -0.00025767)
(0.757427 0.274642 8.50038e-05)
(0.600455 0.410102 -0.000984939)
(0.781292 0.182361 -0.000111412)
(0.795226 0.240495 0.000102504)
(0.662588 0.0664085 -0.000217841)
(0.783916 0.290943 2.45781e-06)
(0.66877 0.180401 2.17808e-05)
(0.74346 0.15049 -0.00012141)
(1.30134 -0.252551 0.000191314)
(0.953075 0.374912 -8.61965e-07)
(1.05957 0.00937994 3.10792e-05)
(-0.316309 1.15812 0.000803854)
(0.493467 -0.102756 -0.000352278)
(0.851429 0.75941 0.00034248)
(0.564377 0.392742 4.86269e-05)
(0.756247 0.363414 1.85788e-05)
(1.37249 0.85741 -0.000254631)
(0.799801 0.277834 -0.00050403)
(1.07001 0.572986 -1.12335e-05)
(0.660938 0.453439 -2.23792e-06)
(0.771266 0.212927 0.00014756)
(1.45686 0.796079 -0.000360637)
(0.494445 0.149755 0.000303864)
(1.75951 1.21177 -0.000805074)
(0.896372 0.298668 -3.0852e-05)
(0.696113 0.439082 7.27522e-05)
(0.502149 -0.0714175 0.000204586)
(0.424191 0.234582 -0.000656766)
(0.821564 0.197805 -0.00018967)
(0.781487 0.215423 0.000240034)
(0.934115 -0.0192501 0.000264921)
(0.854443 0.40566 0.000505425)
(0.79824 0.196542 0.000130338)
(0.779967 0.212386 -0.000129306)
(0.691086 0.124236 -0.000370805)
(0.78835 0.216406 -0.000164831)
(0.782394 0.313023 0.0014935)
(0.75906 0.205834 0.000268191)
(0.867446 0.255111 -0.000145584)
(0.739502 0.206944 0.000217671)
(0.953989 -0.0869328 -8.42063e-05)
(0.825058 0.273213 -3.92573e-05)
(1.01035 0.270401 0.00046282)
(1.09637 0.318812 -0.000114156)
(1.39307 0.863472 -0.000620163)
(0.787219 0.151879 -5.20985e-05)
(0.835908 0.214673 -0.000199531)
(0.658142 0.356492 0.000289382)
(0.749691 0.253897 4.08873e-05)
(0.804422 0.116266 3.54109e-05)
(0.808569 0.107244 -1.37182e-05)
(0.785373 0.206612 0.000180162)
(0.8564 0.261288 -3.62256e-05)
(0.923333 0.329975 -0.000244994)
(0.785566 0.226509 3.32293e-07)
(0.718126 0.193511 -1.32958e-05)
(0.799843 0.236325 -3.99997e-06)
(0.774526 0.217779 -1.45891e-05)
(0.718192 0.435249 9.54629e-05)
(0.920995 0.212731 0.000193699)
(0.701542 0.208537 -5.99135e-06)
(0.996145 -0.0901597 0.000194121)
(0.82968 0.277799 5.8508e-05)
(0.776362 0.222537 7.64459e-06)
(1.27458 0.24956 0.000176671)
(0.971378 0.375253 3.20618e-05)
(0.794635 0.226442 9.93196e-07)
(0.804575 0.197057 0.00022177)
(0.776122 0.228212 0.000346658)
(0.906011 0.334529 -0.000438788)
(0.721253 0.134222 -0.000249401)
(2.38129 1.79961 -0.00174706)
(-0.295334 -1.06799 -0.000965867)
(0.790476 0.209985 -0.000263557)
(0.809801 0.246473 -0.000204853)
(2.21287 1.54162 -0.00171737)
(0.717718 0.136573 -0.000169273)
(1.78493 1.22449 -0.000900881)
(0.72391 0.136774 -0.000354004)
(-0.254118 -0.904732 -0.00108994)
(0.789436 0.205626 -0.00031357)
(0.371272 -0.20928 -0.000352147)
(1.76896 1.19949 -0.000790958)
(0.652462 0.0612149 -0.000323143)
(0.642344 0.0531338 -0.000193966)
(-0.0864495 -0.563545 -0.000690575)
(-0.00795283 -0.556911 -0.000760531)
(0.462974 -0.10167 -0.000272028)
(0.782358 0.27897 -1.63079e-05)
(0.957121 0.410275 -2.31566e-05)
(0.827169 0.129339 2.39333e-06)
(0.799027 0.261999 -4.40492e-05)
(0.769475 0.124166 -3.56056e-05)
(0.684786 -0.0148387 -0.000105962)
(0.839337 0.243368 -2.41118e-05)
(0.718894 0.127131 -0.000196569)
(0.578451 -0.0834227 -0.000426709)
(0.54933 0.283793 -1.16149e-05)
(0.931562 0.182991 -0.000242669)
(0.798582 0.247194 -2.7804e-05)
(0.805155 0.20465 -3.28387e-05)
(0.936426 0.574021 -0.000324096)
(1.45699 -0.796178 -0.00018907)
(0.805297 0.248761 -2.1447e-05)
(0.333975 0.0141772 -8.60666e-05)
(0.178655 0.740271 -4.02925e-05)
(0.794061 0.24968 -2.64445e-05)
(0.787907 0.26204 -2.53423e-05)
(0.803651 0.237138 -1.7446e-05)
(0.829129 0.246487 -2.11132e-05)
(1.59294 -0.484735 -4.55097e-05)
(1.2668 0.358332 -0.000102108)
(0.81174 0.236735 9.64144e-06)
(1.4368 -0.347237 -7.77443e-05)
(-0.0592427 0.0312733 -0.000113827)
(0.813757 0.240761 -2.29702e-05)
(0.797909 0.238828 -3.62041e-05)
(0.592034 -0.102173 -0.000397096)
(-0.0187181 -0.0016628 -9.57275e-05)
(0.210149 -0.116453 -0.000431763)
(0.118324 0.190382 -4.6374e-05)
(0.88021 0.29812 -0.000101015)
(0.548641 0.232499 6.79936e-06)
(0.869 0.254292 -2.32139e-05)
(0.797479 0.269233 1.14602e-05)
(0.800398 0.0594161 -0.000108076)
(1.01534 0.471756 -0.000116585)
(0.826261 0.160164 -6.10011e-05)
(0.785982 0.239581 3.45058e-05)
(0.937466 0.188973 -5.48958e-05)
(0.502753 0.491775 7.64215e-05)
(1.29197 0.603481 -0.000510012)
(0.300012 -0.197365 -0.000569351)
(0.757312 0.23055 2.31759e-06)
(0.76116 0.168233 -0.000142682)
(0.376892 -0.231953 -0.000388905)
(0.222043 -0.388706 -0.000418001)
(0.83046 0.204634 -6.46314e-07)
(0.794167 0.144479 9.87805e-05)
(1.00571 -0.0154479 0.000225224)
(0.52438 0.494364 0.000194534)
(0.672162 0.0859597 -0.000156666)
(1.07725 0.319433 -5.17087e-05)
(0.787584 0.199523 1.43624e-05)
(0.599799 0.0326367 -0.000581436)
(0.804966 0.132325 -4.08888e-06)
(0.785237 0.167095 -1.68304e-05)
(0.643234 0.286853 -0.000111775)
(0.810257 0.275197 -2.89704e-05)
(0.637738 0.140815 -2.4457e-07)
(0.748788 0.232524 2.81426e-05)
(0.962804 0.065967 -0.000163232)
(0.684721 0.102101 -0.00017197)
(0.952433 0.45038 -3.18365e-05)
(1.39079 0.817394 -0.00051765)
(0.857019 0.283932 -1.64628e-05)
(0.752691 0.0611576 6.43257e-06)
(1.05233 0.404756 0.0002158)
(0.524612 0.251574 -2.00012e-05)
(0.971825 0.37262 0.000154355)
(0.609691 0.374718 -5.78401e-06)
(0.849823 0.253098 0.000230882)
(0.95443 0.182149 -4.14917e-05)
(0.80736 0.526206 -3.41901e-05)
(0.813608 0.483602 -9.00774e-05)
(0.896653 0.228579 1.45013e-05)
(0.76745 0.169206 -2.13118e-05)
(0.804572 0.192356 2.68092e-05)
(0.832086 0.0863558 2.55568e-05)
(0.835907 0.233169 -6.26434e-07)
(0.726219 0.282798 2.2046e-05)
(1.02985 0.0480138 0.000299707)
(0.49801 0.503709 0.000272157)
(0.805049 0.251926 7.26679e-06)
(0.65558 0.320883 8.34549e-06)
(1.00271 0.179039 -5.52191e-05)
(0.835708 0.0805693 5.55586e-05)
(0.60883 0.191676 -6.59838e-05)
(0.970669 0.352394 -7.50335e-05)
(0.987547 0.0210514 0.00021824)
(0.803859 0.153 3.0462e-05)
(0.909424 0.185213 1.40053e-05)
(0.883377 0.149497 -4.10382e-05)
(0.792864 0.225618 5.59881e-06)
(1.01083 -0.12984 -1.79124e-06)
(0.799792 0.224602 4.91709e-06)
(0.84 0.343387 2.70337e-05)
(0.848719 0.253287 0.00010248)
(0.529221 -0.0741206 -0.000218404)
(0.760136 0.152716 -1.17018e-05)
(0.379538 -0.300554 0.000602332)
(0.746204 0.120224 0.00028186)
(0.825999 0.181536 0.000292699)
(1.13032 0.18229 7.98816e-05)
(0.764484 0.256027 0.000170965)
(0.769879 0.318723 0.000173852)
(0.664061 0.177845 -2.81339e-05)
(0.858356 0.059169 -5.38066e-05)
(0.855231 0.169815 -1.93905e-05)
(0.761007 0.315735 -2.55027e-05)
(0.524055 -0.0457908 -0.000260281)
(0.700893 0.179662 -2.48216e-05)
(0.635608 -0.181624 2.56005e-05)
(0.825224 0.306169 -0.000131422)
(0.854933 0.278655 -1.6005e-05)
(0.791998 0.267768 -2.38155e-05)
(0.839183 0.207014 -3.15998e-05)
(0.868556 0.264304 0.000152709)
(0.738746 0.129231 -5.09557e-05)
(1.20977 0.611012 -0.000318505)
(0.747595 0.243678 2.07204e-05)
(1.14973 -0.792491 0.000465728)
(0.771507 0.156259 -1.19372e-06)
(0.697789 0.0978384 0.000108998)
(0.682983 0.218359 0.00121849)
(0.785959 0.219181 6.89806e-05)
(0.834098 0.236581 0.000162355)
(1.48945 -0.141779 0.00115159)
(0.972572 1.1383 0.000704297)
(0.781015 0.279978 0.00013561)
(0.780786 0.235676 0.000179057)
(0.0913434 -0.515471 0.000968484)
(0.800089 0.303332 0.000183429)
(0.770144 0.236503 0.000133213)
(0.811943 0.188511 -0.000145687)
(0.748415 0.258914 0.000113209)
(0.0445521 -0.597296 0.00102125)
(0.826341 0.245733 0.000104311)
(0.778985 0.320223 6.27193e-06)
(0.740563 0.191999 -9.67403e-07)
(0.939106 0.200696 2.07593e-05)
(0.974421 0.0521695 -4.42057e-05)
(0.757527 0.19312 -1.10942e-05)
(0.64789 -0.177039 0.000578405)
(1.0526 -0.204953 0.000412177)
(0.701833 0.117992 -0.000158373)
(0.806406 0.235089 -1.46447e-05)
(0.835157 0.484071 0.000543974)
(0.68181 0.343759 4.75518e-05)
(0.73501 0.260254 9.67707e-05)
(0.767965 0.25132 -2.26627e-05)
(0.792509 0.251706 -2.07123e-05)
(1.12785 0.582462 0.00048713)
(0.840402 0.239356 0.00011604)
(0.838594 0.213202 0.000101057)
(0.839131 0.224224 0.000209969)
(0.851098 0.102403 2.93176e-05)
(0.808987 0.216775 0.000181634)
(0.92712 0.203007 -0.000130308)
(0.805318 0.255553 9.25434e-06)
(1.15145 0.17593 0.000459177)
(0.484435 -0.131245 -0.000351996)
(0.751583 0.229547 -6.30661e-06)
(0.794858 0.360414 0.00027332)
(0.536182 0.295779 1.92592e-06)
(0.803627 0.20466 -8.64245e-06)
(1.23617 0.593941 0.000485546)
(0.817627 0.227331 -6.96428e-07)
(0.770701 0.184877 -3.90773e-05)
(0.933976 0.0590083 0.000132871)
(1.0263 0.196935 3.73122e-05)
(0.6616 0.069815 -0.000159165)
(0.803702 0.156793 1.08049e-05)
(0.599996 0.0207506 -0.000382623)
(0.807394 0.243212 4.21046e-06)
(0.792775 0.313416 -1.41653e-05)
(1.17625 0.292753 -3.58569e-05)
(0.989023 0.151826 0.000259804)
(0.847945 0.339111 -0.00049649)
(0.797422 0.19558 0.000178834)
(1.31367 0.751024 0.000638343)
(0.821238 0.201391 -4.66926e-06)
(0.664341 -0.0592878 2.24408e-05)
(0.796184 0.223601 1.17589e-05)
(0.786181 0.483859 0.000127985)
(0.749087 0.143541 6.51474e-05)
(0.763901 0.350489 1.36783e-06)
(1.1247 0.19267 0.000250124)
(1.61714 1.03123 -0.000509836)
(0.870437 0.119625 -0.000176706)
(0.789654 0.132708 -3.03463e-07)
(0.879219 0.276643 -7.6892e-05)
(0.660433 0.25717 0.000116598)
(0.71713 0.030789 -2.11464e-06)
(0.834347 0.183793 0.00010748)
(1.26325 0.693419 0.000622562)
(1.25831 0.425465 0.000249643)
(0.904279 0.189946 2.20226e-05)
(0.787644 0.00717434 6.73393e-05)
(0.859564 0.235771 -2.98054e-05)
(0.764704 0.222818 -2.73112e-05)
(0.786537 0.339348 -9.08787e-05)
(0.77934 0.200896 -1.81034e-05)
(0.635557 0.0819852 -0.000128094)
(0.391765 0.657861 0.00083268)
(0.801122 -0.172527 1.36316e-05)
(0.780168 0.183836 0.00017407)
(0.71113 0.228868 -4.43222e-05)
(0.833092 0.228197 -0.00011928)
(0.778491 0.124877 3.53604e-05)
(0.634251 0.208516 1.88243e-06)
(0.872795 0.217453 4.86538e-05)
(0.74655 0.274517 0.000224261)
(0.805361 0.23537 2.39941e-05)
(1.02148 0.120169 5.74861e-05)
(0.671587 0.252723 0.000127073)
(0.691375 -0.168691 0.00029234)
(0.699665 0.360535 0.000381061)
(1.08708 0.499781 -0.000230778)
(0.488219 -0.0345176 0.000347912)
(0.603886 0.257925 4.42283e-05)
(0.731623 0.307112 9.32516e-06)
(0.774679 0.216478 -0.000147803)
(0.628435 0.426733 0.000308412)
(0.94391 0.276418 0.000276913)
(0.636902 0.192652 -4.09197e-05)
(0.943972 0.389186 -3.05446e-05)
(0.663557 0.259601 -1.6483e-05)
(0.396768 -0.155749 -0.00044742)
(0.66246 0.241236 -8.64131e-06)
(0.8087 0.305698 -3.52002e-05)
(0.678739 0.166253 -3.7058e-05)
(0.876806 0.198501 -3.14041e-05)
(0.809729 0.451193 0.000244114)
(0.660075 0.448138 0.000264187)
(0.920027 0.223661 4.49053e-05)
(0.714646 0.32245 -0.000125787)
(0.912826 0.238029 -3.79291e-05)
(0.731687 0.285397 -8.26853e-05)
(0.742601 0.180424 5.60362e-05)
(0.746917 0.338279 -5.20077e-06)
(0.803193 0.151242 -2.97418e-05)
(0.576058 0.289155 3.57854e-05)
(0.959788 -0.297649 2.51047e-06)
(0.913387 0.0251569 3.77894e-05)
(0.922858 0.298937 0.00023863)
(0.771587 0.290372 3.20064e-05)
(0.695593 0.249375 0.000156441)
(1.11698 -0.0463228 0.000378339)
(0.767585 0.205936 -1.62793e-05)
(0.971469 0.105121 0.000152903)
(0.840324 -0.0685994 0.00033721)
(0.735029 0.228539 -5.57954e-05)
(0.799658 0.0154483 0.000269285)
(0.745308 0.267021 0.000254839)
(0.655712 0.217314 0.000250315)
(0.849965 0.187772 1.15495e-05)
(0.897572 0.291557 -7.1333e-05)
(0.858247 0.189674 -5.24605e-05)
(0.908383 0.0891865 -9.01718e-05)
(1.03341 0.302106 -5.93839e-05)
(0.869166 0.019263 5.21163e-05)
(0.980952 0.416472 0.000159292)
(0.745767 0.22581 1.1874e-05)
(0.904404 0.330545 8.50816e-06)
(0.900531 0.137265 2.83059e-05)
(0.823278 0.0478377 -4.64738e-05)
(0.80846 0.0865439 -0.000267026)
(0.788387 0.129794 -1.07334e-05)
(0.799558 0.210557 -3.70828e-06)
(0.846917 0.405524 5.60637e-06)
(0.939518 0.312238 0.000120128)
(0.794149 0.291308 -2.0653e-05)
(0.730507 0.204519 -9.52889e-06)
(0.760009 0.270343 -0.000184368)
(0.731362 0.281145 0.000133534)
(0.632099 0.495712 6.21076e-05)
(0.386998 -0.0426058 0.000319276)
(0.776274 0.220443 -1.98682e-05)
(0.788276 0.134378 2.14288e-05)
(1.19737 0.713887 -0.000339279)
(0.811821 0.379156 0.000254634)
(0.715248 0.306435 1.49392e-06)
(0.745666 0.0168636 9.63041e-06)
(0.724277 0.605544 5.04442e-05)
(0.87157 0.208166 -1.07014e-05)
(0.716377 0.232414 1.44383e-05)
(1.2121 -0.265274 0.000816389)
(0.837558 0.0574609 0.000237466)
(0.699068 0.407209 0.000218972)
(1.00247 -0.141854 0.000524554)
(0.596022 0.00508581 -0.000258157)
(0.788531 0.259195 -2.36218e-05)
(0.736446 0.289649 -7.244e-05)
(0.689982 0.21317 -0.000140341)
(0.893827 0.357483 -8.85995e-05)
(0.884314 0.120093 0.000303925)
(0.828856 0.164329 -7.40144e-06)
(0.950034 0.218072 -0.000102264)
(0.863348 0.199374 0.000200185)
(0.888755 0.317441 -0.000120296)
(0.84375 0.328387 -7.59703e-05)
(0.816517 0.230685 -2.15e-05)
(0.625657 0.321392 -4.10852e-05)
(0.820465 0.19681 0.000110658)
(0.851461 0.152499 1.36215e-05)
(0.833156 0.161666 1.59452e-06)
(1.13909 0.515114 0.00023781)
(0.595983 0.134835 -8.13735e-05)
(0.96286 0.027524 -6.46586e-05)
(0.83796 0.332777 -4.50042e-05)
(0.807974 0.382404 -1.58832e-05)
(0.809886 0.259149 -7.65604e-06)
(1.20079 0.219668 -0.000209708)
(0.818565 0.233658 -0.000147458)
(0.817367 0.153273 -5.68453e-06)
(0.883166 0.187148 0.000235585)
(0.82917 0.230928 7.28296e-05)
(0.820171 0.222621 7.7116e-05)
(0.833451 0.216729 -0.000121347)
(0.703952 0.307988 0.000159606)
(0.894022 0.302776 -2.50642e-05)
(0.796915 0.22551 5.18692e-06)
(1.23071 0.598771 -0.000392054)
(0.512308 -0.0330102 -0.000403079)
(0.722325 0.200036 -1.71781e-05)
(0.726586 0.171518 -7.01609e-05)
(0.776466 0.247769 -6.56307e-06)
(0.768338 0.181206 0.000167942)
(0.855449 0.266681 -2.79761e-05)
(0.797595 0.309101 0.000144356)
(0.879671 0.325563 0.00015032)
(0.844851 0.265559 4.33988e-05)
(0.696954 0.187631 0.000202108)
(0.848273 0.0874148 3.0787e-05)
(1.01397 0.0191141 0.000192782)
(0.583972 0.42507 0.000166298)
(0.77684 0.161491 2.70329e-05)
(1.07237 0.282592 -5.02221e-05)
(0.85882 0.0513179 -4.49412e-05)
(1.03026 0.239639 -4.29516e-05)
(0.91719 0.509324 -0.000234791)
(0.788638 0.19045 -1.85285e-05)
(0.782516 0.275289 8.50349e-05)
(0.563716 0.211129 -8.23099e-05)
(0.782478 0.107855 1.07073e-05)
(0.858234 0.108375 0.000227501)
(0.901551 0.21751 4.3382e-05)
(0.194676 -0.327691 -0.000508272)
(0.952076 0.40009 -0.000171084)
(0.859698 0.212675 0.000116792)
(0.810374 0.205727 0.00016063)
(1.02674 0.208756 -3.36063e-05)
(0.629093 0.191717 -0.000134669)
(0.802429 0.220104 -3.54247e-06)
(0.89043 -0.0858783 -9.4912e-06)
(0.851543 0.14118 -0.000124131)
(0.800434 0.237549 2.06234e-05)
(1.06906 -0.179047 -0.000709618)
(0.917874 0.079972 0.000156337)
(0.772649 0.258375 -3.09862e-05)
(0.79459 0.153118 -7.30118e-06)
(0.848729 0.219308 1.53383e-05)
(0.740706 0.539489 -0.000265086)
(0.30043 0.112661 -6.13056e-05)
(0.887526 0.232778 4.67717e-05)
(0.862744 0.4079 -0.000318372)
(0.618266 0.132495 -0.000300927)
(0.781562 0.155531 -5.3098e-05)
(1.24392 -0.216341 0.000466261)
(0.897269 0.163137 4.47447e-05)
(0.798134 0.288096 -3.8109e-05)
(0.766567 0.232583 0.000179693)
(0.789465 0.129055 9.49338e-06)
(0.655024 0.108023 -0.000169334)
(0.777252 0.245205 -1.80858e-05)
(0.566226 0.386835 -4.87403e-05)
(0.921165 0.0921956 -9.15782e-05)
(0.791366 0.156749 5.94225e-06)
(0.830482 0.139805 -0.000104053)
(0.522938 0.112369 -0.000220551)
(0.973388 0.0528917 -0.000207388)
(0.601128 0.251081 2.39201e-05)
(0.457884 0.568243 0.000331121)
(0.404269 -0.0390422 -0.000720213)
(0.739775 0.229124 5.79003e-05)
(0.686405 0.419823 0.00017261)
(0.0930592 0.955033 0.00104298)
(1.01846 0.0928432 3.09705e-05)
(1.00059 0.324615 -0.000226652)
(1.28414 -0.254002 0.000288953)
(0.784633 0.233995 -2.02407e-05)
(0.810946 0.238687 2.98558e-05)
(0.84013 0.220421 0.000111883)
(0.752004 0.128974 -1.56845e-05)
(0.78603 0.216244 -5.04611e-06)
(0.729508 0.366402 4.4471e-05)
(0.85988 0.256132 9.71128e-05)
(0.823774 0.283022 3.56175e-05)
(0.830354 0.24091 -0.000136831)
(0.781695 0.201669 8.73614e-05)
(0.772288 0.169336 0.000124667)
(0.841779 0.232301 -2.05435e-05)
(0.826136 0.237117 -1.19903e-05)
(0.814292 0.21257 2.91268e-05)
(0.700512 0.112372 -0.000165466)
(0.809428 0.246911 1.5698e-05)
(0.819724 0.209483 0.000112247)
(0.801338 0.243124 2.27083e-05)
(0.596785 -0.102893 -0.000199254)
(0.808972 0.206398 0.000125677)
(0.788848 0.225114 -1.4627e-05)
(0.817118 0.242195 -0.000132877)
(0.846155 0.170954 0.000213146)
(1.28772 -0.277879 0.00046206)
(0.602706 0.403571 0.000298219)
(0.75951 0.0381606 -0.000187747)
(0.987573 -0.387455 0.000380731)
(0.832989 0.070952 -5.71338e-05)
(0.730938 0.330237 6.15214e-05)
(0.867442 -0.0267101 -4.72071e-05)
(0.653102 0.332539 -1.9967e-05)
(1.02823 0.348559 -0.000166635)
(0.809889 0.255479 -1.32399e-05)
(0.531041 0.406916 -0.000187582)
(0.804647 0.221524 4.88202e-05)
(0.772525 0.221077 -4.43295e-06)
(0.8001 0.192575 -1.75227e-06)
(0.967463 -0.00928834 0.000293744)
(0.790514 0.236628 -1.20828e-05)
(0.761065 0.376409 -6.64384e-05)
(0.797619 0.321555 -9.59554e-06)
(0.621095 0.348895 5.16996e-05)
(0.804388 0.20293 9.9711e-05)
(0.882853 0.391561 -8.42553e-05)
(0.77873 0.22916 9.30866e-05)
(0.786661 0.204334 0.000152931)
(1.05283 0.532986 0.000346915)
(0.588092 0.268898 -0.000303624)
(0.848152 0.273769 -0.000258386)
(0.875991 0.145231 5.67518e-05)
(0.830748 0.249195 -0.000151752)
(0.798213 0.245869 -3.1696e-05)
(0.879219 0.441552 -0.000315708)
(0.793741 0.235651 2.15981e-05)
(0.874682 0.0581862 0.000140421)
(0.827948 0.258099 -0.000207267)
(0.80079 0.217837 -2.56442e-05)
(0.799957 0.239413 -1.4336e-05)
(0.393784 -0.159418 -0.000454619)
(0.962497 0.0687738 1.40066e-05)
(0.730443 0.13818 -2.33554e-05)
(0.807248 0.38355 -3.31202e-05)
(0.945691 0.377011 0.000228624)
(0.812959 0.27639 -1.41599e-05)
(0.752707 0.0769648 -4.66649e-05)
(0.733921 0.213636 -0.000163544)
(0.773262 0.328978 -2.36208e-05)
(0.844551 0.204143 9.31193e-06)
(0.409501 0.570339 0.000536532)
(0.905939 0.0644843 0.000222696)
(0.644865 0.199604 -0.000323723)
(0.645849 0.595276 0.000222861)
(0.720354 0.170055 -7.56946e-05)
(0.661781 -0.0603032 -0.000142351)
(0.802684 0.234725 -0.000167786)
(0.94152 0.0607704 0.000125244)
(0.900332 0.0248291 0.000108026)
(0.887366 0.315118 8.65826e-05)
(1.17952 0.546547 -0.000336453)
(0.759551 0.262483 0.00018037)
(0.795583 0.193428 -3.45412e-05)
(0.584906 0.208348 6.359e-06)
(0.948772 0.0217287 0.000171642)
(0.79974 0.0724275 -3.0129e-05)
(1.02007 0.492725 0.000279361)
(0.900153 0.425728 -3.39849e-05)
(0.814706 0.299097 5.61713e-05)
(0.80134 0.233061 -0.000118105)
(0.833255 0.174995 -0.000123507)
(0.793221 0.257108 -0.000256822)
(0.931931 0.322308 0.000101732)
(0.759882 0.150885 0.000137047)
(0.78707 0.228628 2.97726e-05)
(0.697405 0.103167 -0.000261312)
(0.751222 0.195827 2.95764e-05)
(0.968821 0.382894 0.000171862)
(0.859972 0.174862 -0.000117785)
(0.796868 0.258705 2.2475e-06)
(0.921357 0.0337395 0.00014048)
(0.791921 0.298956 -1.00876e-05)
(0.91097 0.0293696 7.26274e-06)
(0.773752 0.0542847 -7.50793e-05)
(0.808483 0.114051 -7.63068e-06)
(0.897988 0.270486 -4.09926e-05)
(0.959739 0.0239383 0.000239651)
(0.846206 0.258794 -1.79059e-05)
(0.759806 0.222244 1.54455e-05)
(0.518444 0.278671 -1.22263e-05)
(1.00497 0.212294 -0.000269641)
(0.977112 -0.00574894 0.000269287)
(0.57482 0.00889928 -0.000266346)
(0.750809 0.1707 1.69099e-05)
(1.14329 0.187144 0.000199339)
(0.778877 0.213526 0.000105641)
(0.712844 0.30031 0.00019916)
(0.811026 0.319771 -4.77973e-05)
(0.760254 0.219063 3.40697e-06)
(0.861317 0.240047 -9.69279e-06)
(0.787071 0.282491 -1.25337e-05)
(0.858841 0.224448 -0.000193994)
(0.824877 0.332019 -1.98377e-05)
(0.617433 0.00131347 -0.000274829)
(0.81512 0.343329 -5.4105e-05)
(0.439019 -0.116593 -0.000270447)
(0.841643 0.252298 4.83726e-05)
(0.621318 0.0236109 -0.000158632)
(0.914983 0.208292 0.00027323)
(0.514165 0.458576 -0.000274065)
(0.882974 0.325167 1.18491e-05)
(0.97003 0.343175 -3.60264e-05)
(0.687722 0.532612 -7.05076e-05)
(0.317312 0.26117 -3.27107e-06)
(0.656165 0.271754 -0.000144498)
(1.22555 0.321984 -0.000282607)
(0.772412 0.197872 9.9175e-05)
(0.756699 0.196179 -0.000106805)
(0.934276 0.279713 1.48649e-05)
(0.881867 0.274158 4.24757e-05)
(0.574301 0.348228 0.000248242)
(0.831668 0.0805859 -0.000177545)
(0.77302 0.149774 1.40884e-05)
(0.794849 0.23511 -1.46243e-05)
(0.937592 0.113206 0.000207476)
(0.731941 0.291664 -2.0681e-05)
(0.734988 0.360448 -0.000167188)
(1.11799 0.348708 -5.08321e-05)
(0.791676 0.151648 4.20704e-05)
(0.868576 0.428519 5.71688e-05)
(0.916476 0.351412 3.34529e-05)
(0.746417 0.110513 2.90084e-05)
(0.791921 0.229 -9.93508e-05)
(0.579867 0.240298 -0.000285992)
(0.74556 0.17236 -0.00014568)
(0.686007 0.146742 7.34884e-05)
(0.683533 0.174811 -0.000120907)
(1.25058 -0.0688297 -0.000304855)
(1.12571 -0.0739147 -0.000331146)
(0.531895 0.0752976 -0.000225544)
(0.46871 0.592929 0.000326827)
(0.824742 0.375226 2.01948e-06)
(0.844923 0.202404 -0.000178868)
(0.806091 0.208203 7.88056e-05)
(0.744505 0.239797 6.35676e-05)
(0.835673 0.240316 -1.6704e-05)
(0.98874 0.0206493 0.000112324)
(0.760231 0.302449 9.3022e-05)
(0.997582 0.0421604 0.000284124)
(0.847363 0.345782 -2.53515e-05)
(0.463873 0.537498 0.000270246)
(0.790064 0.215101 -6.41046e-06)
(0.821278 0.220515 -8.32594e-06)
(0.965072 0.178852 -5.32665e-05)
(0.769983 0.35794 0.000253396)
(0.991895 0.225793 0.000151118)
(0.611116 -0.273551 0.000171351)
(0.711556 0.171527 1.76343e-05)
(0.814005 0.207263 -0.000105087)
(0.835677 -0.0981264 -0.000354756)
(1.2628 0.159505 -0.000367516)
(0.700462 0.325872 4.84484e-05)
(1.08393 -0.0676265 -0.000295128)
(0.790995 0.209023 -0.000108774)
(1.02789 0.551175 -0.000288741)
(0.824715 -0.178859 2.16816e-05)
(0.906545 0.298706 5.55806e-05)
(0.673784 0.356144 0.000254458)
(0.824335 0.240767 -3.10721e-05)
(0.771214 0.301716 1.33639e-05)
(0.704979 0.0666851 -0.000217064)
(0.766303 0.412819 -2.82102e-05)
(0.664018 0.311283 0.00014331)
(0.814065 0.191655 2.40417e-05)
(0.479357 -0.114904 0.000419639)
(0.922406 0.337402 -4.17513e-05)
(0.754032 0.113428 5.51264e-05)
(1.03858 0.498864 1.6352e-05)
(0.631317 0.158138 0.000143095)
(0.845464 0.180059 0.000147208)
(0.765313 0.06472 2.8461e-05)
(0.78311 0.0731917 0.000380074)
(0.995964 0.226267 3.69922e-05)
(0.800032 0.282572 -1.14979e-05)
(0.676391 0.471612 -8.29191e-05)
(0.719894 0.222326 -3.16423e-05)
(0.743669 0.459982 4.48076e-05)
(0.695094 0.116302 -8.44576e-05)
(0.832125 0.244935 -2.14394e-05)
(1.00527 0.045 -0.000165086)
(1.28686 -0.234037 0.000451677)
(0.768152 0.284053 2.73202e-05)
(0.972599 0.249654 -0.000547262)
(0.827524 0.306466 -1.13033e-05)
(0.600985 0.198906 -0.000584985)
(0.833877 0.24491 1.6807e-05)
(0.755099 0.151469 -5.98736e-05)
(0.773536 0.261702 -0.000212378)
(0.530216 -0.0340194 -0.00015525)
(0.553151 0.260611 3.52231e-05)
(0.511916 0.014265 -0.000326294)
(0.978966 0.34472 -4.81213e-05)
(0.691637 0.341992 0.000235924)
(0.778794 0.271732 5.62748e-05)
(0.619089 0.188428 -6.01858e-05)
(0.882382 0.132455 -2.9075e-05)
(0.779165 0.213247 -4.66097e-06)
(0.796443 0.108337 -0.000155669)
(0.786498 0.279339 3.15279e-05)
(0.746368 0.223564 -0.000166037)
(0.82217 0.134904 -3.31952e-05)
(0.629957 0.0422666 -0.000238851)
(0.833647 -0.0936465 7.73367e-05)
(1.26916 0.454951 -0.000347523)
(0.74008 0.219054 -2.66136e-05)
(0.792407 0.263458 -0.000125983)
(0.80565 0.244283 -0.000173084)
(0.960399 0.0217669 0.00015834)
(0.754928 0.214122 5.0192e-05)