/*--------------------------------*- C++ -*----------------------------------*\
  =========                 |
  \\      /  F ield         | OpenFOAM: The Open Source CFD Toolbox
   \\    /   O peration     | Website:  https://openfoam.org
    \\  /    A nd           | Version:  6
     \\/     M anipulation  |
\*---------------------------------------------------------------------------*/
FoamFile
{
    version     2.0;
    format      ascii;
    class       volScalarField;
    location    "1.73";
    object      rho;
}
// * * * * * * * * * * * * * * * * * * * * * * * * * * * * * * * * * * * * * //

dimensions      [1 -3 0 0 0 0 0];

internalField   nonuniform List<scalar> 
24166
(
1.39847
1.40189
1.40001
1.40001
1.40001
1.40001
1.40001
1.40001
1.40069
1.40001
1.39996
1.39959
1.39889
1.39883
1.40015
1.40001
1.40007
1.40007
1.40001
1.40005
1.40001
1.40001
1.40001
1.40001
1.40032
1.40001
1.4
1.39771
1.40001
1.40001
1.4082
1.40001
1.40001
1.40001
1.40001
1.45301
1.40001
1.38452
1.40001
1.20469
1.4
1.40001
1.40001
1.40001
1.40002
1.40001
1.40349
1.42948
1.40001
1.41616
1.40001
1.40003
1.40001
1.40007
1.4
1.40739
1.41529
1.40001
1.40001
1.40002
0.865931
1.39986
1.40001
1.40001
1.40001
1.40001
1.40001
1.32552
1.37812
1.40001
1.4
1.39994
1.40001
1.40001
1.40001
1.40001
1.40001
1.4079
1.40001
1.40002
1.4492
1.40001
1.40001
1.43536
1.4
1.40001
1.39997
1.40001
1.40001
1.4
1.40001
1.40001
1.39976
1.40001
1.39988
1.40008
1.40001
1.39967
1.40001
1.4
1.40001
1.40001
1.39991
1.40001
1.40001
1.40001
1.40001
1.4
1.40001
1.4
1.40001
1.40001
1.40001
1.43557
1.38597
1.4
1.40001
1.40001
1.40002
1.40001
1.40001
1.40001
1.40086
1.40001
1.40957
1.40009
1.4
1.40001
1.40001
1.40001
1.46885
1.39791
1.38252
1.40377
1.4
1.4
1.40001
1.44397
1.40001
1.4
1.40348
1.40001
1.43342
1.40001
1.40586
1.4
1.40001
1.40001
1.44041
1.40001
1.40001
1.40001
1.4
1.40001
1.40001
1.40001
1.40001
1.40001
1.40001
1.40001
1.36481
1.41572
1.40001
1.40001
1.4
1.40001
1.31135
1.40001
1.40001
1.40001
1.40001
1.40001
1.40001
1.39982
1.40001
1.40014
1.40001
1.40001
1.40004
1.43181
1.4
1.40001
1.43788
1.40001
1.40001
1.40001
1.40001
1.4
1.4
1.40001
1.4
1.40313
1.4
1.39962
1.40001
1.40001
1.40128
1.40001
1.40001
1.40001
1.40001
1.40001
1.40001
1.40479
1.40001
1.40001
1.40001
1.40001
1.40001
1.47816
1.40792
1.40001
1.39982
1.39996
1.40001
1.4
1.40001
1.40001
1.47692
1.40001
1.40001
1.39881
1.40001
1.40001
1.40694
1.40001
1.40001
1.4
1.40008
1.40001
1.40197
1.40002
1.40002
1.40001
1.38748
1.40001
1.39991
1.40001
1.40001
1.40001
1.4
1.40001
1.40001
1.40001
1.40002
1.40001
1.40001
1.39994
1.39964
1.4
1.40003
1.4
1.4
1.43745
1.40001
1.40001
1.40001
1.40014
1.40001
1.40001
1.40001
1.40001
1.40001
1.40026
1.4
1.40001
1.4
1.40001
1.40001
1.40001
1.39999
1.27075
1.40001
1.40227
1.4
1.4
1.40001
1.45616
1.4
1.40001
1.40397
1.40001
1.11317
1.40001
1.40001
1.40001
1.40001
1.40001
1.4002
1.40001
1.4251
1.40001
1.40001
1.40001
1.39976
1.18051
1.40001
1.40001
1.39815
1.40001
1.40001
1.40003
1.40079
1.40001
1.40001
1.40001
1.40001
1.39994
1.40087
1.40001
1.41232
1.40001
1.40001
0.952972
1.39971
1.40001
1.4001
1.40001
1.4
1.40047
1.40001
1.40001
1.4205
1.40001
1.40001
1.4
1.40001
1.40001
1.40001
1.45689
1.40001
1.39999
1.40001
1.4002
1.40001
1.4058
1.40001
1.4
1.40001
1.40077
1.40001
1.40001
1.40001
1.40001
1.4
1.4
1.40001
1.40001
1.40001
1.40001
1.40001
1.40001
1.40001
1.40001
1.40001
1.40001
1.40001
1.40001
1.3816
1.40515
1.40001
1.40001
1.40001
1.40433
1.40001
1.4
1.40263
1.40001
1.40001
1.40001
1.40004
1.40001
1.40001
1.40001
1.40001
1.40011
1.40001
1.40018
1.40001
1.40001
1.4
1.40001
1.40001
1.39973
1.40046
1.40001
1.40001
1.40197
1.40001
1.46794
1.40001
1.40001
1.39999
1.39567
1.44117
1.39939
1.40001
1.40001
1.40001
1.40001
1.40001
1.40001
1.40008
1.39969
1.40001
1.40001
1.40001
1.4037
1.40001
1.4
1.40022
1.40001
1.40001
1.4
1.40001
1.40028
1.40868
1.40001
1.4
1.40001
1.40001
1.37951
1.40001
1.40001
1.40001
1.4
1.40087
1.40001
1.40001
1.39958
1.40007
1.41388
1.40001
1.40001
1.40001
1.40001
1.40001
1.40001
1.40001
1.40107
1.4
1.40001
1.37539
1.40001
1.40001
1.40001
1.47447
1.4
1.44276
1.44548
1.40001
1.40001
1.40001
1.40037
1.40057
1.3999
1.42258
1.40001
1.40001
1.40001
1.16598
1.40001
1.40175
1.43539
1.40001
1.40001
1.4
1.40001
1.40001
1.40001
1.40001
1.40023
1.40001
1.40001
1.40001
1.40175
1.40001
1.40001
1.40001
1.40002
1.4
1.43977
1.40001
1.4
1.40856
1.40001
1.39991
1.40001
1.40001
1.40001
1.40001
1.40001
1.40001
1.40001
1.42956
1.42172
1.40001
1.40003
1.40001
1.4081
1.40001
1.39981
1.45246
1.12221
1.40001
1.39996
1.40001
1.40001
1.40001
1.40142
1.40001
1.40001
1.40001
1.4
1.399
1.40095
1.4134
1.40001
1.40001
1.40001
1.40001
1.4
1.40662
1.4185
1.40001
1.40001
1.40001
1.40001
1.40001
1.43415
1.40001
1.40005
1.40001
1.40001
1.40001
1.4
1.08384
1.40001
1.39837
1.40001
1.40001
1.40001
1.39525
1.40001
1.41505
1.4
1.51661
1.40001
1.4
1.3997
1.39266
1.40001
1.40012
1.4
1.40001
1.40001
1.40001
1.41175
1.40001
1.09899
1.20361
1.40001
1.40001
1.39948
1.40001
1.41845
0.935751
1.40004
1.40001
1.40001
1.40001
1.40215
1.4
1.40001
1.40112
1.40001
1.40001
1.40001
1.40001
1.40001
1.39954
1.40001
1.40001
1.40001
1.4
1.40001
1.40001
1.39808
1.41273
1.43281
1.40001
1.4009
1.40001
1.40001
1.0123
1.4
1.4
1.4707
1.40001
1.40001
1.39447
1.40001
1.40001
1.40016
1.40001
1.39321
1.40001
1.4
1.40042
1.40001
1.39165
1.40001
1.4
1.40001
1.40236
1.40001
1.40001
1.44768
1.39032
1.40001
1.40909
1.40001
1.39987
1.4
1.40001
1.4
1.4007
1.40001
1.41987
1.40001
1.40001
1.40399
1.40001
1.37044
1.40001
1.40001
1.40338
1.40001
1.40001
1.4051
1.4
1.40001
1.39983
1.40016
1.48004
1.4
1.40001
1.4
1.39992
1.40001
1.40001
1.40001
1.40001
1.40001
1.40001
1.4
1.40001
1.40001
1.40001
1.4
1.40001
1.39976
1.40001
1.40001
1.40001
1.40596
1.3786
1.40001
1.40001
1.40001
1.40001
1.38061
1.40001
1.40001
1.4
1.15123
1.4
1.40001
1.4
1.40001
1.40001
1.40001
1.40001
1.40001
1.40001
1.40001
1.40001
1.40001
1.40004
1.39385
1.4039
1.40001
1.40001
1.4
1.40001
1.40001
1.40271
1.4
1.39886
1.4179
1.40001
1.40001
1.40001
1.40001
1.42889
1.40001
1.40002
1.47404
1.40001
1.40001
1.40001
1.40074
1.40001
1.40001
1.40001
1.40001
1.39758
1.45359
1.4
1.40901
1.39599
1.50727
1.40001
1.40001
1.39963
1.40001
1.4284
1.40001
1.39998
1.40001
1.40001
1.40001
1.40068
1.41329
1.37114
1.40001
1.40001
1.40001
1.40001
1.40001
1.39998
1.40001
1.40001
1.40001
1.13068
1.41222
1.40001
1.40001
1.4
1.40001
1.40001
1.40001
1.40001
1.40001
1.40831
1.40001
1.40001
1.40001
1.39695
1.40001
1.40001
1.40001
1.40001
1.40001
1.41979
1.40001
1.40001
1.40001
1.40001
1.39988
1.40001
1.4
1.40001
1.40001
1.40001
1.40001
1.40001
1.40001
1.37412
1.4
1.4
1.4
1.40001
1.40001
1.40001
1.40001
1.40001
1.40001
1.40001
1.40001
1.40001
1.45015
1.4
1.40001
1.40001
1.4
1.4
1.40001
1.40001
1.40001
1.40001
1.15558
1.40834
1.40001
1.44163
1.4
1.40301
1.40001
1.4
1.40001
1.40001
1.40001
1.40001
1.40001
1.40001
1.40001
1.3572
1.40036
1.4
1.40001
1.40001
1.40001
1.40001
1.40001
1.40001
1.48067
1.40001
1.40001
1.40001
1.40001
1.40001
1.40026
1.40001
1.40001
1.39999
1.40001
1.4
1.43594
1.40001
1.40001
1.40869
1.39704
1.40001
1.39088
1.40001
1.40001
1.40001
1.40001
1.40001
1.40001
1.40001
1.40001
1.4
1.3995
1.39934
1.40001
1.39822
1.40001
1.40001
1.40001
1.40001
1.40004
1.40001
1.40001
1.40001
1.39983
1.40001
1.43743
1.40001
1.40214
1.40001
1.40001
1.40001
1.39973
1.36219
1.40001
1.4
1.40001
1.39994
1.40001
1.40001
1.40001
1.40014
1.40001
1.40001
1.40001
1.40001
1.4
1.40001
1.38863
1.40001
1.40001
1.40532
1.4
1.39987
1.40052
1.40001
1.40001
1.4
1.40001
1.40001
1.40001
1.40001
1.39995
1.40001
1.40001
1.38071
1.33668
1.40001
1.39961
1.40001
1.4
1.40001
1.4
1.40001
1.40001
1.40001
1.40001
1.4
1.42623
1.40001
1.40001
1.40001
1.40032
1.43586
1.40009
1.40036
1.4
1.40001
1.4
1.40001
1.4
1.40001
1.40001
1.40201
1.40033
1.56876
1.40001
1.39688
1.4
1.4
1.45952
1.38795
1.40001
1.40003
1.4
1.40001
1.40001
1.40001
1.15769
1.39952
1.34864
1.40001
1.40001
1.40136
1.39851
1.40211
1.4
1.40001
1.40001
1.39774
1.40001
1.40001
1.40001
1.40476
1.40001
1.40001
1.38827
1.40001
1.40001
1.40001
1.4
1.40001
1.40001
1.40001
1.40001
1.40001
1.40001
1.39186
1.39995
1.40015
1.40001
1.44034
1.40001
1.40001
1.40001
1.33108
1.40001
1.40001
1.44175
1.40005
1.47207
1.40001
1.40001
1.4
1.40001
1.40001
1.40001
1.40039
1.4
1.39667
1.40001
1.40004
1.41087
1.39999
1.40001
1.40001
1.40001
1.40001
1.40001
1.40159
1.40001
1.40006
1.40003
1.38959
1.40596
1.42033
1.40001
1.4
1.40001
1.4
1.40028
1.4
1.40001
1.4
1.40001
1.40117
1.40001
1.40001
1.40001
1.50629
1.40001
1.4
1.40001
1.40001
1.40001
1.40001
1.40001
1.40001
1.4157
1.42784
1.40001
1.39981
1.41693
1.4
1.4
1.40001
1.40106
1.4
1.40001
1.4
1.40002
1.40001
1.40001
1.40001
1.4
1.4
1.40001
1.39997
1.40001
1.40001
1.40001
1.40001
1.4
1.40002
1.3721
1.40001
1.40094
1.41005
1.40001
1.4
1.40001
1.38069
1.40001
1.40004
1.40001
1.4
1.40001
0.727718
1.40001
1.39877
1.40001
1.40001
1.40001
1.3998
1.40001
1.40001
1.40001
1.40001
1.40001
1.40066
1.40001
1.4
1.40001
1.40001
1.40001
1.40092
1.40001
1.40001
1.40001
1.45465
1.39997
1.39077
1.39995
1.40001
1.4
1.40001
1.40001
1.40001
1.4
1.40001
1.4001
1.39986
1.4
1.40004
1.37207
1.39766
1.40001
1.40001
1.40001
1.40001
1.40161
1.40001
1.4
1.40001
1.40001
1.40001
0.897819
1.4
0.951084
1.40001
1.40001
1.40001
1.40005
1.39999
1.39996
1.39986
1.41361
1.39998
1.40001
1.40039
1.40001
1.36193
1.39983
1.40001
1.40001
1.40271
1.40001
1.4
1.41715
1.40001
1.39997
1.40001
1.4
1.4
1.40001
1.52424
1.39964
1.40001
1.4
1.39628
1.40001
1.40001
1.43577
0.618435
1.40001
1.40001
1.40002
1.40001
1.4
1.46237
1.40469
1.40001
1.40001
1.4
1.4
1.40001
1.40001
1.40001
1.40001
1.40001
1.40001
1.40001
1.40001
1.4
1.3997
1.40001
1.4
1.40567
1.39995
1.40001
1.40001
1.38215
1.40001
1.40001
1.40001
1.40001
1.39999
1.40001
1.40001
1.40001
1.4012
1.40001
1.42297
1.40011
1.40001
1.40001
1.4022
1.40001
1.4
1.46459
1.40001
1.40028
1.40001
1.40177
1.40001
1.4
1.40001
1.40001
1.40001
1.40001
1.40001
1.20344
1.40001
1.40007
1.40001
1.40001
1.40001
1.40001
1.40001
1.40001
1.40001
1.40001
1.40001
1.40001
1.39995
1.40002
1.40001
1.35214
1.40001
1.44381
1.40002
1.40001
1.40001
1.40001
1.40001
1.40001
1.40003
1.39857
1.4
1.39993
1.43483
1.40001
1.40001
1.40001
1.40001
1.4
1.40001
1.40001
1.40001
1.40001
1.47442
1.40393
0.61168
1.40001
1.40001
1.4
1.40001
0.71426
1.40001
1.39988
1.40001
1.40001
1.40005
1.08546
1.40001
1.40001
1.40001
1.40005
1.40193
1.4
1.40001
1.40001
1.40001
1.38859
1.40001
1.4
1.4
1.43363
1.40001
1.40001
1.42759
1.4
1.39158
1.40002
1.40001
1.39998
1.40001
1.40001
1.40001
1.40002
1.40001
1.4
1.40001
1.40001
1.40221
1.40001
1.40001
1.40001
1.40001
1.39663
1.49286
1.40001
1.40001
1.40001
1.4
1.40001
1.4
1.40001
1.40003
1.37949
1.40002
1.4
1.40001
1.40001
1.34141
1.40008
1.40001
1.40001
1.09432
1.40002
1.40001
1.40001
1.4
1.40001
1.40001
1.4
1.4
1.40001
1.40001
1.40001
1.43774
1.40001
1.40001
1.40001
1.40001
1.39602
1.40001
1.39995
1.4
1.40826
1.40001
1.40001
1.40001
1.4
1.4
1.40001
1.41385
1.39997
1.40001
1.40001
1.40001
1.40001
1.40001
1.39999
1.40032
1.40086
1.41753
1.40001
1.40001
1.40001
1.40002
1.40001
1.4
1.4
1.40001
1.40001
1.4
1.3663
1.45524
1.40001
1.40001
1.40001
1.42496
1.4
0.630063
1.39991
1.40001
1.40001
1.40041
1.39866
1.40001
1.40001
1.40001
1.40101
1.45312
1.40001
1.39998
1.39992
1.40001
1.40001
1.40001
1.41315
1.40001
1.40001
1.40005
1.40001
1.40001
1.4
1.40001
1.40001
1.4
1.40001
1.39126
1.40001
1.40001
1.4
1.41821
1.40014
1.40193
1.4
1.40001
1.40283
1.4512
1.4
1.4
1.42265
1.18736
0.662342
1.40001
1.40001
1.40001
1.40001
1.40001
1.4
1.40001
1.40001
1.40045
1.40001
1.4
1.4273
1.40001
1.4
1.40001
1.40001
1.40001
1.40183
1.40001
1.40001
1.40001
1.40001
1.40024
1.40001
1.40001
1.40001
1.4
1.40105
1.40001
1.40747
1.39977
1.40001
1.40001
1.4
1.40001
1.40001
1.4
1.40001
1.40007
0.706764
1.4
1.40003
1.40001
1.4
1.40001
1.40001
1.40001
1.40001
1.46776
1.40001
1.40001
1.40001
1.40001
1.41017
1.39968
1.4
1.40001
1.40001
1.40001
1.4
1.40001
1.41115
1.3987
1.40001
1.40001
1.40001
1.40019
1.48781
1.40001
1.40001
1.40001
1.40019
1.40001
1.40001
1.40001
1.40001
1.42895
1.4
1.40196
1.40003
1.40001
1.47806
1.40061
1.40001
1.39677
1.40001
1.45713
1.40001
1.45039
1.40002
1.40001
1.40013
1.40001
1.40001
1.4
1.40001
1.40001
1.39998
1.40001
1.40001
1.4
1.40001
1.39997
1.40001
1.40038
1.40001
1.40621
1.40001
1.40001
1.46592
1.41958
1.4055
1.4003
1.39996
1.3927
1.40001
1.40184
1.40001
1.40213
1.40001
1.40001
1.40008
1.40243
1.40001
1.39992
1.40001
1.40001
1.40025
1.40001
1.40001
1.39876
1.40001
1.40001
1.40001
1.40001
1.41752
1.40001
1.40001
1.40001
1.40001
1.4
1.4
1.40001
1.43461
1.40001
1.40001
1.39997
1.4
1.4
1.39999
1.40001
1.40005
1.40001
1.4
1.40004
1.40001
1.40001
1.40001
1.4
1.40001
1.40012
1.40001
1.40016
1.40001
1.39963
1.4
1.40001
1.40001
1.4
1.40001
1.40001
1.4
1.4
1.40001
1.40001
1.40004
1.44112
1.40001
1.40001
1.40001
1.40001
1.40001
1.40001
1.40001
1.40001
1.40001
1.4
1.42712
1.40001
1.4
1.38585
1.44415
1.40001
1.40001
1.42019
1.4
1.40001
1.39216
1.40001
1.4
1.40001
1.40001
1.40001
1.41119
1.40001
1.40012
1.43592
1.39999
1.40001
1.40001
1.40001
1.40001
1.40001
1.38278
1.40001
1.39995
1.40001
1.4
1.40001
1.4
1.40001
1.39386
1.40329
1.40686
1.40001
1.40001
1.03681
1.40674
1.4
1.39906
1.40001
1.40001
1.44506
1.40001
1.4
1.40001
1.40001
1.40001
1.40001
1.40001
1.40001
1.40001
1.40001
1.40001
1.40001
1.4
1.40001
1.40001
1.40001
1.40001
1.4
1.40001
1.40052
1.40001
1.40001
1.40001
1.40001
1.39654
1.40001
1.40001
1.4
1.39995
1.40227
1.40001
1.50453
1.40001
1.40017
1.40001
1.40001
1.39997
1.44701
1.39998
1.39993
1.40001
1.40001
1.4
1.40001
1.49596
1.40001
1.4
1.40001
1.40001
1.41082
1.40001
1.43813
1.40001
1.40001
1.40001
1.46299
1.40001
1.40001
1.39783
1.40001
1.40001
1.40001
1.40001
1.40001
1.4406
1.4
1.40103
1.45371
1.4
1.40077
1.40001
1.40001
1.39986
1.40001
1.40001
1.40001
1.40001
1.41906
1.40001
1.40001
1.40001
1.40144
1.39991
1.40008
1.40003
1.40001
1.40001
1.40001
1.40001
1.40001
1.38577
1.40001
1.26082
1.40001
1.37375
1.4
1.40001
1.40066
1.39997
1.4
1.40001
1.40022
1.40001
1.39997
1.40001
1.40001
1.40011
1.39993
1.40001
1.3994
1.4
1.40001
1.4
1.40679
1.40001
1.40001
1.40001
1.40217
1.44607
1.4
1.40001
1.45015
1.40001
1.40001
1.40001
1.42347
1.4
1.40001
1.39996
1.40001
1.40001
1.40001
1.40386
1.40001
1.40001
1.40001
1.40001
1.40001
1.40001
1.40001
1.42852
1.40001
1.40001
1.40001
1.4
1.40328
1.40001
1.40164
1.4
1.40001
1.40563
1.4
1.39958
1.40006
1.4
1.40001
1.40001
1.4
1.40001
1.40001
1.4
1.40006
1.40065
1.40001
1.40001
1.40001
1.428
1.40001
1.40001
1.4053
1.4
1.40001
1.40001
1.40001
1.4
1.38441
1.40001
1.40001
1.40001
1.40001
1.40001
1.40001
1.42325
1.4207
1.40001
1.4
1.40001
1.40007
1.40001
1.34285
1.40001
1.39998
1.40001
1.40001
1.43547
1.40178
1.40001
1.40587
1.44012
1.45325
1.48483
1.40001
1.40004
1.41007
1.40149
1.42745
1.40001
1.4
1.38567
1.40001
1.40001
1.45962
1.4
1.40001
1.39938
1.40001
1.40921
1.40001
1.40001
1.4
1.43089
1.40001
1.40001
1.40001
1.40001
1.40007
1.41367
1.40001
1.40001
1.4
1.40001
1.40095
1.4
1.4
1.40001
1.40001
1.4115
1.40001
1.40001
1.40001
1.40823
1.40001
1.40001
1.40001
1.40001
1.41192
1.40001
1.4
1.43877
1.40095
1.4044
1.40001
1.39832
1.4005
1.39975
1.40855
1.4009
1.40001
1.40001
1.40001
1.40001
1.40001
1.4
1.40001
1.40001
1.40001
1.40001
1.40001
1.40001
1.4
1.39998
1.42773
1.4
1.40001
1.39419
1.43188
1.39774
1.40089
1.40001
1.4
1.40001
1.40002
1.39727
1.38255
1.42095
1.40001
1.40001
1.4
1.40002
1.42719
1.40001
1.39999
1.39403
1.40001
1.11144
1.40001
1.40001
1.40001
1.40001
1.39905
1.40001
1.40001
1.40001
1.56006
1.40002
1.4
1.40001
1.40001
1.40001
1.40001
1.40001
1.08178
1.40001
1.40166
1.40001
1.4
1.40001
1.40001
1.40001
1.40001
1.40001
1.40001
1.40001
1.4009
1.40319
1.40001
1.40001
1.42542
1.4
1.39859
1.40001
1.40001
1.40001
1.40001
1.40001
1.40001
1.44769
1.40234
1.40338
1.4
1.40001
1.40001
1.40001
1.40001
1.40085
1.40001
1.40133
1.4
1.40001
1.40155
1.40001
1.40001
1.40952
1.37506
1.40476
1.40631
1.40001
1.40001
1.40001
1.4
1.40001
1.40015
1.4001
1.40205
1.40001
1.40001
1.40001
1.40249
1.46386
1.4
1.40001
1.40001
1.4001
1.40001
1.40001
1.4
1.39997
1.40407
1.39999
1.40033
1.40001
1.40001
1.4
1.40001
1.40001
1.40025
1.40001
1.40001
1.39884
1.39757
1.40001
1.40707
1.40001
1.40001
1.40003
1.40001
1.42201
1.40001
1.4
1.44226
1.1965
1.40001
1.41859
1.40058
1.4
1.4
1.40001
1.4
1.40001
1.40001
1.40001
1.40124
1.40001
1.4
1.3885
1.46069
1.40003
1.40001
1.40001
1.4
1.40001
1.40001
1.40019
1.4026
1.40005
1.28761
1.40001
1.40001
1.40368
1.40001
1.40001
1.40001
1.40001
1.40001
1.4
1.40001
1.40001
1.40001
1.11145
1.40001
1.40001
1.39643
1.40001
1.40001
1.40001
1.4
1.40001
1.40001
1.40001
1.40001
1.40001
1.40001
1.40001
1.40125
1.40001
1.40001
1.41448
1.40105
1.40001
1.40001
1.4
1.40001
1.40001
1.40001
1.40001
1.40001
1.40001
1.39999
1.40001
1.40001
1.40001
1.40159
1.40001
1.40001
1.40001
1.4013
1.40001
1.40001
1.39997
1.40001
1.26858
1.4
1.40001
1.40001
1.4
1.39995
1.4
1.39998
1.40001
1.40001
1.40001
1.3981
1.40001
1.06572
1.40001
1.40001
1.40001
1.4
1.39978
1.40001
1.40001
1.44353
1.40001
1.4
1.40001
1.45251
1.39907
1.40142
1.40001
1.40001
1.42628
1.40001
1.40892
1.40001
1.40001
1.40001
1.40001
1.40001
1.40001
1.45103
1.40001
1.40001
1.39999
1.40001
1.40009
1.4
1.40001
1.39999
1.4
1.40001
1.40001
1.40003
1.10661
1.41641
1.40028
1.4
1.39999
1.40001
1.40001
1.40001
1.40001
1.4011
1.40001
1.40001
1.40001
1.40001
1.40001
1.3989
1.40065
1.40001
1.40001
1.40001
1.40001
1.40001
1.40769
1.40001
1.42134
1.39973
1.40001
1.40001
1.40418
1.40009
1.40001
1.4
1.40001
1.40001
1.40001
1.40001
1.40001
1.40001
1.40001
1.40001
1.39847
1.40001
1.39993
1.40094
1.4
1.39984
1.40001
1.40001
1.41903
1.50137
1.40759
1.4
1.40001
1.40001
1.4
1.4
1.40001
1.39999
1.39992
1.4
1.40001
1.43519
1.40001
1.40012
1.40019
1.40001
1.40003
1.38708
1.36071
1.40001
1.4673
1.40003
1.40215
1.4
1.40001
1.39989
1.40001
1.4
1.40001
1.45701
1.40001
1.4
1.40123
1.18171
1.40001
1.33401
1.40001
1.4
1.40003
1.40001
1.40002
1.40001
1.40001
1.4
1.40001
1.40001
1.40001
1.40001
1.40001
1.39826
1.4
1.40514
1.21594
1.38551
1.40001
1.40001
1.40073
1.42952
1.40001
1.40001
1.39989
1.47373
1.4006
1.39994
1.40001
1.40001
0.775296
1.39852
1.40001
1.40001
1.40001
1.40001
1.40001
1.40001
1.4
1.39974
1.40837
1.43096
1.13192
1.40001
1.46903
1.40001
1.39958
1.40001
1.40001
1.41263
1.40001
1.4
1.40001
1.39309
1.4
1.40001
1.40001
1.40001
1.40001
1.40135
1.39996
1.40001
1.40001
1.40001
1.40051
1.45223
1.40001
1.40001
1.4
1.40001
1.40001
1.40905
1.40001
1.4
1.42653
1.4
1.40001
1.40001
1.40251
1.4
1.40001
1.40001
1.40001
1.40001
1.40002
1.40001
1.4027
1.40001
1.4
1.40001
1.40001
1.40001
1.40001
1.39994
1.40001
1.40456
1.41528
1.40988
1.40001
1.40001
1.40023
1.40293
1.39757
1.40001
1.4756
1.4
1.40002
1.42917
1.40001
1.38531
1.40001
1.40001
1.40001
1.40001
1.40001
1.40046
1.40001
1.47857
1.40001
1.41245
1.40001
1.40004
1.40001
1.40001
1.4
1.40001
1.40001
1.40001
1.39962
1.40001
1.40002
1.40001
1.43972
1.40001
1.42636
1.40001
1.40001
1.40466
1.4
1.40001
1.40001
1.47749
1.40603
1.40004
1.40001
1.40001
1.40001
1.39988
1.40001
1.40001
1.44233
1.4012
1.4
1.42459
1.40001
1.39999
1.3998
1.39998
1.40001
1.40001
1.4046
1.40001
1.40003
1.40001
1.40001
1.40001
1.39998
1.40001
1.40001
1.40001
1.40001
1.4
1.40001
1.4
1.40034
1.4014
1.40001
1.24639
1.4001
1.40001
1.39999
1.40036
1.43234
1.40001
1.39383
1.40001
1.40001
1.40001
1.40001
1.40001
1.40055
1.40001
1.40001
1.40001
1.40579
1.4
1.40001
1.39541
1.40001
1.40003
1.40001
1.40001
1.42407
1.48111
1.40001
1.4
1.40106
1.40001
1.44771
1.40001
1.40001
1.414
1.40001
1.40001
1.41032
1.4
1.4
1.40001
1.40001
1.40001
1.40001
1.45654
1.40001
1.30667
1.40135
1.40001
1.39835
1.40001
1.4
1.40001
1.40001
1.48557
1.40034
1.40001
1.40001
1.40001
1.40001
1.4
1.40018
1.40001
1.40001
1.40001
1.39999
1.40864
1.39729
1.40001
1.40001
1.40001
1.4
1.40124
1.40001
1.40001
1.40001
1.40001
1.39434
1.40001
1.52862
1.40012
1.40001
1.40001
1.40001
1.40001
1.40001
1.40001
1.40004
1.40001
1.40001
1.40001
1.40001
1.40001
1.4
1.40001
1.4
1.41646
1.39988
1.43249
1.39994
1.40007
1.39948
1.4
1.40056
0.769647
1.39998
1.40001
1.44511
1.40001
1.39994
1.40858
1.40215
1.40001
1.40001
1.40047
1.40001
1.40001
1.40001
1.40001
1.40002
1.40001
1.48255
1.39997
1.40026
1.40001
1.4
1.39998
1.40001
1.4
1.40001
1.40001
1.40001
1.39995
1.39625
1.40001
1.40001
0.926461
1.39998
0.909956
1.40058
1.4
1.40055
1.4
1.40003
1.3989
1.40001
1.40513
1.40001
1.40001
1.40001
1.40001
1.40001
1.40044
1.40013
1.40001
1.4
1.43864
1.40001
1.40001
1.42262
1.40138
1.40001
1.40143
1.40001
1.4
1.40001
1.38882
1.40001
1.40001
1.40001
1.40001
1.39677
1.4
1.40001
0.932343
1.40001
1.40001
0.96129
1.40001
1.45496
1.4
1.40001
1.40001
1.40001
1.40001
1.40001
1.4
1.40001
1.40001
1.40001
1.40001
1.39999
1.40002
1.40001
0.982669
1.40001
1.40001
1.40315
1.40001
1.39997
1.40001
1.40001
1.3988
1.40001
1.40001
1.40001
1.40001
1.4
1.40001
1.40001
1.40001
1.40001
1.40001
1.4
1.40001
1.40001
1.4
1.40088
1.40074
1.39905
1.40001
1.4008
1.40044
1.4
1.4
1.40001
1.4
1.40024
1.40001
1.40001
1.40001
1.40127
1.4
1.40001
0.60602
1.40001
1.40001
1.40001
1.40001
1.40001
1.39998
1.40001
1.39997
1.40001
1.39434
1.40001
1.4
1.40138
1.40001
1.40001
1.43
1.40001
1.40001
1.46195
1.03996
1.40001
1.40005
1.40001
1.40001
1.40001
1.40352
1.39998
1.40001
1.40033
1.05389
0.754541
1.40001
1.3346
1.40001
1.40001
1.40001
1.40001
1.40001
1.40001
1.4
1.40001
0.693311
1.39999
1.40002
1.4
1.4
1.40001
1.40006
1.40001
1.40001
1.40001
1.40001
1.4
1.40001
1.4
1.40001
1.40001
1.40001
1.40001
1.40001
1.13453
1.40001
1.4
1.40001
1.40001
1.33376
1.40001
1.40007
1.40001
1.40001
1.40003
1.40114
1.40239
1.40001
1.4
1.40001
1.40001
1.40001
1.4001
1.39494
1.40001
1.40001
1.40001
1.40001
1.40001
1.40001
1.40003
1.40001
1.40001
1.40001
1.4026
1.4
1.4379
1.40001
1.40001
1.40001
1.40658
1.40001
1.40001
1.40053
1.40001
1.40001
1.4
1.40001
1.40001
1.40001
1.4
1.40002
1.40001
1.40001
1.4
1.4
1.4
0.724992
1.40001
1.40009
1.40001
1.4
1.42923
1.39999
1.40104
1.43207
1.43152
1.40001
1.41648
1.40001
0.60108
1.40001
1.40565
1.40001
1.40001
1.40001
1.40001
1.43306
1.4006
1.39993
1.4
1.43468
1.40169
1.39977
1.4
1.39938
1.40001
1.40001
1.40001
1.39974
1.3999
1.40002
0.534906
1.40001
1.40001
1.40007
1.40056
1.44807
1.40001
1.40001
1.40001
1.39986
1.40001
1.39995
1.39987
1.40001
1.40001
1.4
1.40001
1.40001
1.40315
1.40069
1.44254
0.584429
1.4
1.40001
1.40001
1.40001
1.3991
1.40369
1.40005
1.39839
1.40001
1.40001
1.40001
1.40001
1.4
1.40001
1.40063
1.40304
1.40849
1.40001
1.40001
1.40005
1.39981
1.39659
1.40001
1.44774
1.40001
1.40146
1.40001
1.40014
1.4
1.39997
1.40001
1.37116
1.38698
1.4
1.40001
1.40001
1.40001
1.387
1.40001
1.40001
1.40001
1.40001
1.40314
1.40001
1.40001
1.40001
1.39831
1.40001
1.40001
1.40034
1.42382
1.40001
1.40001
0.956612
1.40001
1.40001
1.40001
1.40001
1.40001
1.40001
1.40001
1.40001
1.4
1.40004
1.40001
1.40001
1.40001
1.4
1.40001
1.40001
1.40001
1.40001
1.40146
1.40001
1.40001
1.39975
1.4
1.39595
1.40001
1.40001
1.40001
1.4
1.40001
1.39276
1.40001
1.40001
1.4
1.40001
1.40001
1.40001
1.40001
1.40001
1.41301
1.40001
1.4
1.40001
0.701278
1.4
1.39564
1.40001
1.41201
1.40001
1.4
1.40001
1.34741
1.40001
1.40001
1.40049
1.40001
1.40001
1.40031
1.39907
1.42405
0.720162
1.40001
1.40001
1.40001
1.54855
1.40001
1.40001
1.40149
1.40001
1.40001
1.40001
1.4
1.40001
1.40001
1.40664
1.40001
1.4
1.40001
1.40001
1.40679
1.4
1.40001
1.40001
1.40189
1.40001
1.40001
1.40001
1.40001
1.40001
1.40001
1.40001
1.40001
1.40001
1.40001
1.40001
1.40001
1.40001
1.4
1.40148
1.40001
1.40001
1.40001
1.40001
1.40001
1.4073
1.4
1.40001
1.40001
1.40001
1.40002
1.02023
1.40001
1.4
1.40001
1.40001
1.40001
1.39988
1.40001
1.39976
1.40112
1.4
1.40001
1.55496
1.41233
1.40001
1.39506
1.40001
1.40001
0.618644
1.40001
1.40001
1.39988
1.4
1.40001
1.4
0.711083
1.40001
1.40001
1.40001
1.40001
1.40001
1.40004
1.40001
1.40001
1.4192
1.40001
1.4
1.40001
1.40001
1.40001
1.40135
1.40033
1.40001
1.40001
1.40001
1.4
1.40001
1.40001
1.40001
1.4
1.40001
1.40001
1.37851
1.40551
1.4
1.40001
1.40001
1.47196
1.40001
1.40001
1.4
1.4
1.40001
1.40001
1.39999
1.40001
1.49117
1.40001
1.40001
1.40001
1.40001
1.40001
1.4
1.40239
1.39999
1.40001
1.4
1.37341
1.40001
1.40001
1.40001
1.40577
1.40001
1.4
1.40001
1.40001
1.40001
1.40001
1.40001
1.4
1.40015
0.834198
1.40001
1.40001
1.40001
1.40001
1.40001
1.40001
1.40001
1.40001
1.40001
1.40011
1.4
1.40001
1.40001
1.40001
1.40001
1.40001
1.39827
1.40001
1.40001
1.40001
1.40001
1.40001
1.40001
1.33883
1.40001
1.40646
1.4
1.4
1.40715
1.39451
1.40001
1.40001
1.40001
1.45407
1.40001
1.40001
1.40001
1.40001
1.40001
1.40001
1.40157
1.40001
1.39883
1.4
1.40001
1.40001
1.40001
1.40014
1.40001
1.41825
1.4
1.4
1.45583
1.40001
1.40001
1.40004
1.40001
1.40091
1.4
1.40001
1.40001
1.40001
1.40001
1.4
1.40001
1.40001
1.40001
1.4027
1.40001
1.4
1.46573
1.40001
1.40001
1.39914
1.45855
1.41296
1.40001
1.40063
1.40001
1.4
1.24646
1.40414
1.40001
1.4
1.40049
1.40001
1.4
1.4
1.40001
1.40001
1.40001
1.40001
1.40326
1.40001
1.40001
1.40037
1.40001
1.42796
1.40001
1.40001
1.40001
1.40001
1.20669
1.40001
1.40001
1.40001
1.39999
1.40001
1.40001
1.40001
1.53407
1.39797
1.40001
1.40001
1.40001
1.40001
1.40001
1.4
1.40001
1.06578
1.2959
1.40078
1.40001
1.40013
1.40001
1.4001
1.38079
1.4
1.40001
1.39534
1.40001
1.4
1.4
1.11103
1.40001
1.4
1.44513
1.40008
1.4
1.39436
1.39807
1.39997
1.40001
1.42299
1.40001
1.40001
1.40014
1.40002
1.40001
1.4
1.40001
1.39999
1.40001
1.40001
1.40006
1.40001
1.40001
1.43184
1.40001
1.40001
1.40001
1.40001
1.44077
1.40001
1.39835
1.40001
1.4
1.40001
1.40001
1.4
1.40001
1.40001
1.40001
1.39995
1.40001
1.40001
1.40001
1.0842
1.4
1.40001
1.40001
1.40001
1.40001
1.4
1.40003
1.40001
1.40001
1.40001
1.40001
1.40001
1.39859
1.40001
1.40001
1.40001
1.40755
1.40001
1.40001
1.39999
1.40001
1.40001
1.40005
1.40001
1.38859
1.40001
1.40001
1.39943
1.39961
1.39981
1.40001
1.40001
1.40001
1.40001
1.40001
0.567169
1.4017
1.40017
1.39991
1.40001
1.40001
1.40001
1.40001
1.4
1.40043
1.40001
1.42436
1.40001
1.40012
1.40001
1.4
1.40001
1.40001
1.4
1.40001
1.40001
1.40001
1.40001
1.39962
1.39998
1.39961
1.40036
1.40001
1.43985
1.40015
1.39972
1.40001
1.40001
1.40011
1.4
1.4
1.4053
1.40001
1.40001
1.40001
1.40171
1.45041
1.40001
1.40001
1.40001
1.40001
1.40001
1.40001
1.40024
1.4
1.40001
1.22678
1.40001
1.40001
1.39998
1.40001
1.4687
1.40001
1.4
1.4
1.40001
1.40001
1.39923
1.40001
1.40001
1.40001
1.40001
1.4
1.40001
1.4
1.40002
1.40001
1.4
1.4
1.40001
1.40002
1.40001
1.40001
1.40001
1.40001
1.40001
1.39652
1.40001
1.40005
1.40001
1.40001
1.40091
1.40005
1.40001
1.40001
1.40001
1.39516
1.40001
1.4
1.41962
1.40001
1.40077
1.41985
1.40001
1.40001
1.40001
1.40553
1.40001
1.4012
1.40011
1.40001
1.39998
1.39569
1.40002
1.40001
1.39995
1.40001
1.39998
1.40001
1.40001
1.41088
1.40005
1.40005
1.18512
1.4
1.40001
1.40001
1.40001
1.4
1.40001
1.40001
1.40001
1.40061
1.43149
1.40001
1.40001
1.40001
1.40001
1.4
1.40001
1.40001
1.40001
1.40001
1.4
1.40001
1.40001
1.40001
1.40001
1.40001
1.40001
1.40001
1.4
1.4
1.4
1.4
1.40001
1.40001
0.884943
1.40001
1.40001
1.40001
1.40001
1.4004
1.40001
1.4
1.39965
1.40003
1.40001
1.40002
1.40001
1.40001
1.40001
1.40001
1.40001
1.40009
1.4
1.40001
1.40001
1.39966
1.40001
1.40001
1.40001
1.25783
1.40001
1.40001
1.40001
1.4
1.4
1.40001
1.40001
1.40001
1.4
1.40071
1.40001
1.40001
1.40001
1.40001
1.40001
1.40001
1.39998
1.4
1.40001
1.40001
1.40001
1.40001
1.28411
1.4
1.40001
1.40001
1.40001
1.40001
1.40001
1.40125
1.40001
1.4
1.4168
1.40377
1.4
1.4
1.40001
1.40001
1.40001
1.40001
1.40001
1.40001
1.40001
1.40001
1.40001
1.40001
1.4
1.40001
1.40001
1.40001
1.40001
1.40001
1.40001
1.40001
1.4
1.39991
1.16362
1.42916
1.40001
1.40001
1.39838
1.40001
1.18521
1.40001
1.4
1.40001
1.40001
1.40001
1.40001
1.39755
1.40001
1.40001
1.40001
1.43951
1.40001
1.39999
1.40001
1.40001
1.40001
1.40001
1.40002
1.4
1.40001
1.40002
1.4
1.40001
1.40001
1.40001
1.4
1.40001
1.40001
1.39982
1.40001
1.40001
1.40001
1.40001
1.4
1.40001
1.40003
1.39986
1.40001
1.39988
1.4
1.40001
1.39998
1.4
1.40001
1.40001
1.40001
1.40001
1.39506
1.40001
1.4
1.39996
1.39985
1.40001
1.40001
1.40001
1.3947
1.22254
1.40001
1.40001
1.40001
1.4
1.40001
1.39945
1.40001
1.4
1.40001
1.40001
1.40001
1.40001
1.4
1.4
1.38034
1.40001
1.40001
1.40001
1.40001
1.40001
1.44877
1.4
1.40001
1.38372
1.40001
1.40001
1.40001
1.40001
1.3996
1.40001
1.40001
1.39695
1.40001
1.4
1.4954
1.39984
1.40001
1.40001
1.43233
1.40085
1.40001
1.40001
1.40001
1.31274
1.39332
1.40001
1.40001
1.39994
1.40001
1.4
1.40015
1.40001
1.40002
1.4
1.4
1.42148
1.40001
1.40001
1.40001
1.40001
1.39297
0.605576
1.40001
1.40003
1.43566
1.40001
1.40001
1.40001
1.4
1.40001
1.1078
1.40006
1.40001
1.4
1.40001
1.40001
1.45561
1.40001
1.40001
1.40002
1.40001
1.40001
1.40001
1.40004
1.40001
1.40001
1.40001
1.40001
1.40001
1.40001
1.40002
1.40001
1.40006
1.35576
1.40178
1.4
1.40001
1.38356
1.40001
1.39997
1.40001
1.40002
1.40001
1.40001
1.44686
1.40001
1.40001
1.40128
1.40001
1.40001
1.39999
1.40001
1.40001
1.39992
1.4016
1.40001
1.40525
1.40001
1.40001
1.40001
1.40001
1.45877
1.40001
1.40001
1.40001
1.40001
1.40016
1.40076
1.39842
1.40001
1.40001
1.39998
1.40002
1.3979
1.40001
1.40482
1.40001
1.40001
1.40001
1.40001
1.41516
1.39996
1.40001
1.40001
1.40001
1.40001
1.4
1.40001
1.40001
1.45897
1.4
1.42589
1.40001
1.40001
1.40001
1.40001
1.40002
1.40001
1.27056
1.39677
1.40001
1.40001
1.41546
1.40001
1.40001
1.40001
1.40001
1.38002
1.40001
1.46433
1.4
1.40001
1.40001
1.40001
1.40001
1.40001
1.40001
1.40002
1.40001
1.40002
1.4
1.40001
1.40001
1.40001
1.40535
1.39998
1.40001
1.40001
1.40001
1.40001
1.40065
1.40001
1.40001
1.43383
1.39369
1.40096
1.40001
1.38736
1.39975
1.40001
1.40001
1.45318
1.40001
1.40008
1.40001
1.40003
1.43839
1.40001
1.4
1.39992
1.40149
1.40001
1.40001
1.4
1.4051
1.40001
1.50701
1.39998
1.40001
1.40001
1.40001
1.4
1.40001
1.40001
1.4
1.40001
1.40001
1.40001
1.40001
1.40001
1.40007
1.4
1.4
1.25678
1.40001
1.39977
1.40001
1.40007
1.39997
1.40001
1.40001
1.40001
1.40001
1.40001
1.40001
1.4
1.40001
1.40001
1.34296
1.40001
1.40001
1.40001
1.40001
1.40001
1.40001
0.977958
1.4442
1.4679
1.39981
1.4
1.40001
1.40001
1.40001
1.40001
1.40001
1.40001
1.40001