/*--------------------------------*- C++ -*----------------------------------*\
  =========                 |
  \\      /  F ield         | OpenFOAM: The Open Source CFD Toolbox
   \\    /   O peration     | Website:  https://openfoam.org
    \\  /    A nd           | Version:  6
     \\/     M anipulation  |
\*---------------------------------------------------------------------------*/
FoamFile
{
    version     2.0;
    format      ascii;
    class       volScalarField;
    location    "2.4";
    object      p;
}
// * * * * * * * * * * * * * * * * * * * * * * * * * * * * * * * * * * * * * //

dimensions      [1 -1 -2 0 0 0 0];

internalField   nonuniform List<scalar> 
10000
(
1
1
1
1
1
1
1
1
1
1
1
1
1
1
1
1
1
1
1
1
1
1
1
1
1
1
1
1
1
1
1
1
1
1
1
1
1
1
1
1
1
1
1
1
1
1
1
0.999999
0.999999
0.999999
0.999999
0.999998
0.999998
0.999998
0.999999
0.999999
0.999999
1
1
1
1
1
1
1
1
1
1
1
1
1
1
0.999999
0.999999
0.999999
0.999999
1
1
1
1
1
1
1
1
1
1
1
1
1
1
1
1
1
1
1
1
1
1
1
1
1
1
1
1
1
1
1
1
1
1
1
1
1
1
1
1
1
1
1
1
1
1
1
1
1
1
1
1
1
1
1
1
1
1
1
1
1
1
1
1
1
1
1
1
1
1
1
0.999999
0.999999
0.999999
0.999998
0.999998
0.999998
0.999998
0.999998
0.999998
0.999999
0.999999
1
1
1
1
1
1
1
1
1
1
1
1
0.999999
0.999999
0.999999
1
1
0.999999
0.999999
1
1
1
1
1
1
1
1
1
1
1
1
1
1
1
1
1
1
1
1
1
1
1
1
1
1
1
1
1
1
1
1
1
1
1
1
1
1
1
1
1
1
1
1
1
1
1
1
1
1
1
1
1
1
1
1
1
1
1
1
1
1
1
1
1
1
1
1
1
0.999999
0.999999
0.999999
0.999998
0.999997
0.999997
0.999996
0.999996
0.999997
0.999997
0.999998
0.999999
1
1
1
1
1
1
1
1
1
1
1
0.999999
0.999999
0.999999
0.999999
0.999999
0.999999
0.999999
0.999999
1
1
1
1
1
1
1
1
1
1
1
1
1
1
1
1
1
1
1
1
1
1
1
1
1
1
1
1
1
1
1
1
1
1
1
1
1
1
1
1
1
1
1
1
1
1
1
1
1
1
1
1
1
1
1
1
1
1
1
1
1
1
1
1
1
1
1
1
1
0.999999
0.999999
0.999998
0.999997
0.999996
0.999995
0.999995
0.999994
0.999995
0.999995
0.999997
0.999999
1
1
1
1
1
1
1
1
1
1
0.999999
0.999999
0.999999
0.999999
0.999999
0.999999
0.999999
0.999999
0.999999
1
1
1
1
1
1
1
1
1
1
1
1
1
1
1
1
1
1
1
1
1
1
1
1
1
1
1
1
1
1
1
1
1
1
1
1
1
1
1
1
1
1
1
1
1
1
1
1
1
1
1
1
1
1
1
1
1
1
1
1
1
1
1
1
1
1
1
1
1
0.999999
0.999998
0.999997
0.999996
0.999994
0.999992
0.999992
0.999991
0.999992
0.999994
0.999996
0.999998
1
1
1.00001
1.00001
1.00001
1.00001
1
1
1
1
0.999999
0.999998
0.999998
0.999998
0.999998
0.999998
0.999999
0.999999
0.999999
0.999999
1
1
1
1
1
1
1
1
1
1
1
1
1
1
1
1
1
1
1
1
1
1
1
1
1
1
1
1
1
1
1
1
1
1
1
1
1
1
1
1
1
1
1
1
1
1
1
1
1
1
1
1
1
1
1
1
1
1
1
1
1
1
1
1
1
1
1
1
0.999999
0.999998
0.999996
0.999993
0.999991
0.999989
0.999987
0.999987
0.999988
0.999991
0.999994
0.999999
1
1.00001
1.00001
1.00001
1.00001
1.00001
1.00001
1
1
1
0.999998
0.999998
0.999997
0.999998
0.999998
0.999998
0.999999
0.999999
0.999999
0.999999
1
1
1
1
1
1
1
1
1
1
1
1
1
1
1
1
1
1
1
1
1
1
1
1
1
1
1
1
1
1
1
1
1
1
1
1
1
1
1
1
1
1
1
1
1
1
1
1
1
1
1
1
1
1
1
1
1
1
1
1
1
1
1
1
1
1
1
1
0.999999
0.999997
0.999994
0.99999
0.999987
0.999983
0.999981
0.999981
0.999983
0.999987
0.999993
0.999999
1.00001
1.00001
1.00001
1.00001
1.00001
1.00001
1.00001
1
1
0.999999
0.999998
0.999997
0.999997
0.999997
0.999997
0.999998
0.999998
0.999999
0.999999
0.999999
1
1
1
1
1
1
1
1
1
1
1
1
1
1
1
1
1
1
1
1
1
1
1
1
1
1
1
1
1
1
1
1
1
1
1
1
1
1
1
1
1
1
1
1
1
1
1
1
1
1
1
1
1
1
1
1
1
1
1
1
1
1
1
1
1
1
1
1
0.999999
0.999996
0.999992
0.999986
0.999981
0.999976
0.999973
0.999973
0.999976
0.999982
0.999991
1
1.00001
1.00002
1.00002
1.00002
1.00002
1.00001
1.00001
1.00001
1
0.999998
0.999997
0.999996
0.999995
0.999996
0.999997
0.999997
0.999998
0.999999
0.999999
0.999999
1
1
1
1
1
1
1
1
1
1
1
1
1
1
1
1
1
1
1
1
1
1
1
1
1
1
1
1
1
1
1
1
1
1
1
1
1
1
1
1
1
1
1
0.999999
1
1
1
1
1
1
1
1
1
1
1
1
1
1
1
1
1
1
1
1
1
1
1
1
0.999999
0.999995
0.999989
0.999982
0.999973
0.999966
0.999961
0.999961
0.999966
0.999976
0.999989
1
1.00002
1.00002
1.00003
1.00003
1.00003
1.00002
1.00001
1.00001
1
0.999998
0.999995
0.999994
0.999994
0.999995
0.999996
0.999997
0.999998
0.999998
0.999999
0.999999
1
1
1
1
1
1
1
1
1
1
1
1
1
1
1
1
1
1
1
1
1
1
1
1
1
1
1
1
1
1
1
1
1
1
1
1
1
1
1
1
1
1
1
1
1
1
0.999999
1
1
0.999999
1
1
1
1
1
1
1
1
1
1
1
1
1
1
1
1
1
1
1
0.999995
0.999987
0.999976
0.999963
0.999952
0.999946
0.999945
0.999952
0.999967
0.999987
1.00001
1.00002
1.00004
1.00004
1.00004
1.00004
1.00003
1.00002
1.00001
1
0.999996
0.999993
0.999993
0.999993
0.999994
0.999995
0.999996
0.999997
0.999998
0.999999
0.999999
1
1
1
1
1
1
1
1
1
1
1
1
1
1
1
1
1
1
1
1
1
1
1
1
1
1
1
1
1
1
1
1
1
1
1
1
1
1
1
1
1
1
1
1
0.999999
1
1
1
1
1
1
1
1
1
1
1
1
1
1
1
1
1
1
1
1
1
1.00001
1.00001
1
0.999996
0.999984
0.999968
0.999951
0.999936
0.999927
0.999926
0.999936
0.999958
0.999986
1.00002
1.00004
1.00006
1.00006
1.00006
1.00005
1.00004
1.00002
1.00001
1
0.999995
0.999992
0.999992
0.999992
0.999992
0.999994
0.999996
0.999997
0.999998
0.999999
0.999999
1
1
1
1
1
1
1
1
1
1
1
1
1
1
1
1
1
1
1
1
1
1
1
1
1
1
1
1
1
1
1
1
1
1
1
1
1
1
1
1
1
1
1
0.999999
1
0.999999
1
1
0.999999
1
1
0.999999
1
1
0.999999
1
1
1
1
1
1
1
1
1
1.00001
1.00001
1.00001
1.00001
1.00001
0.999999
0.999982
0.99996
0.999937
0.999917
0.999905
0.999905
0.99992
0.999951
0.99999
1.00003
1.00007
1.00009
1.0001
1.00009
1.00007
1.00005
1.00003
1.00001
1
0.999992
0.99999
0.99999
0.99999
0.999991
0.999993
0.999995
0.999997
0.999998
0.999999
0.999999
1
0.999999
1
1
1
1
1
1
1
1
1
1
1
1
1
1
1
1
1
1
1
1
1
1
1
1
1
1
1
1
1
1
1
1
0.999999
1
0.999999
1
0.999999
1
0.999999
1
1
0.999998
1
1
0.999999
1
1
0.999999
1
1
1
1
0.999999
1
1
1
0.999999
1
1
1
1
1
1.00001
1.00001
1.00002
1.00002
1.00002
1
0.999982
0.999952
0.999924
0.9999
0.999886
0.999888
0.99991
0.999951
1
1.00006
1.00011
1.00013
1.00014
1.00013
1.00011
1.00008
1.00004
1.00002
1
0.999991
0.999986
0.999986
0.999988
0.999991
0.999993
0.999994
0.999995
0.999997
0.999999
1
0.999999
1
1
1
1
1
1
1
1
1
1
1
1
1
1
1
1
1
1
1
1
1
1
1
1
1
1
1
1
1
1
1
1
1
1
1
0.999999
1
0.999998
1
0.999998
1
0.999998
1
1
1
1
0.999999
1
0.999999
1
1
0.999999
1
1
1
1
1
0.999999
1
1
1
1
1.00001
1.00001
1.00002
1.00003
1.00004
1.00003
1.00001
0.999984
0.999949
0.999915
0.999891
0.999879
0.999885
0.999917
0.999971
1.00004
1.00011
1.00017
1.00021
1.00021
1.00019
1.00015
1.00011
1.00006
1.00003
1
0.999992
0.999983
0.999979
0.999985
0.999992
0.999993
0.999993
0.999995
0.999997
0.999999
0.999998
0.999999
1
0.999999
1
0.999999
1
1
1
1
1
1
1
1
1
1
1
1
1
1
1
1
1
1
1
1
1
1
1
1
0.999999
1
0.999998
1
0.999998
1
0.999999
1
1
1
0.999998
1
1
0.999997
1
1
0.999997
1
1
0.999999
1
0.999999
1
1
0.999999
1
1
0.999999
1
0.999999
1
1
1
1
1.00001
1.00002
1.00003
1.00005
1.00006
1.00005
1.00003
0.999993
0.999953
0.99992
0.999902
0.999901
0.99992
0.999966
1.00004
1.00013
1.00021
1.00028
1.00031
1.00031
1.00027
1.00022
1.00015
1.00009
1.00004
1.00001
0.999988
0.99998
0.999977
0.999981
0.999988
0.999991
0.999994
0.999996
0.999998
0.999998
0.999998
1
0.999999
1
0.999999
1
1
1
1
1
1
1
1
1
1
1
1
1
1
1
1
1
1
1
1
1
1
1
1
1
1
1
0.999999
1
1
1
1
1
0.999999
1
0.999993
1.00001
0.999996
0.999999
1
1
0.999998
1
1
0.999997
1
1
0.999998
1
1
1
1
1
0.999998
1
1
1
1
1.00001
1.00001
1.00003
1.00005
1.00007
1.00008
1.00008
1.00006
1.00001
0.999973
0.999952
0.999958
0.999985
1.00003
1.0001
1.00019
1.00029
1.00039
1.00046
1.00048
1.00046
1.0004
1.00031
1.00021
1.00013
1.00006
1.00001
0.999986
0.999975
0.999976
0.999978
0.99998
0.999987
0.999995
0.999997
0.999997
0.999996
1
0.999999
0.999999
1
0.999999
1
0.999999
1
1
1
1
1
1
1
1
1
1
1
1
1
1
1
1
1
1
1
1
1
1
0.999999
1
0.999997
1
0.999996
1
0.999998
1
1
1
0.999998
0.999999
1
0.999997
0.999999
1.00001
0.999995
1
1
0.999999
1
0.999999
1
0.999999
0.999999
1
1
1
1
0.999998
1
1
1
1
1.00001
1.00002
1.00004
1.00006
1.0001
1.00012
1.00012
1.00009
1.00005
1.00002
1.00004
1.0001
1.00018
1.00028
1.00038
1.00049
1.0006
1.00069
1.00074
1.00074
1.00068
1.00057
1.00044
1.0003
1.00018
1.00009
1.00002
0.999987
0.999973
0.999974
0.999974
0.999976
0.999988
0.999993
0.999994
0.999996
0.999999
1
0.999998
1
0.999998
1
0.999999
1
1
1
1
1
1
1
1
1
1
1
1
1
1
1
1
1
1
1
1
1
1
1
0.999999
1
0.999997
1
0.999998
0.999999
1
0.999994
1
1
0.99999
1.00001
0.999993
1
1
1
0.999999
0.999999
1
0.999997
1
1
0.999998
1
0.999997
1
1
0.999999
0.999999
1
1
1
1
1
1.00001
1.00003
1.00005
1.00009
1.00013
1.00017
1.00017
1.00014
1.00011
1.00012
1.00021
1.00038
1.00057
1.00076
1.00092
1.00105
1.00115
1.00121
1.00121
1.00114
1.00101
1.00083
1.00063
1.00043
1.00026
1.00013
1.00004
0.999989
0.999969
0.999966
0.99997
0.999978
0.999985
0.999985
0.999992
0.999998
1
0.999998
1
0.999998
1
0.999999
0.999999
1
1
0.999999
1
0.999999
1
0.999999
1
1
1
1
1
1
1
1
1
1
1
1
1
1
1
0.999999
1
0.999997
1
0.999993
1.00001
0.999994
1
0.999997
1
0.999998
0.999998
1
0.999998
0.999996
1.00001
0.999992
1
1
0.999999
1
0.999995
1
0.999998
0.999999
1
1
1
0.999999
0.999997
1
1
0.999998
1
1.00001
1.00001
1.00003
1.00007
1.00012
1.00018
1.00023
1.00024
1.00021
1.00021
1.0003
1.00053
1.00088
1.00126
1.0016
1.00185
1.00201
1.00209
1.00208
1.00196
1.00176
1.0015
1.0012
1.00089
1.0006
1.00036
1.00018
1.00006
0.999997
0.999968
0.999953
0.999965
0.999977
0.99998
0.999986
0.999993
0.999996
0.999996
1
0.999999
1
1
0.999996
1
0.999999
1
1
1
1
1
1
1
1
1
1
1
1
1
1
1
1
1
1
1
0.999999
1
0.999998
1
0.999995
1.00001
0.999995
1
1
0.99999
1.00001
0.999995
0.999994
1.00001
0.99999
1
0.999999
1
0.999997
0.999998
1.00001
0.999993
1
1
0.999998
1
0.999995
1
1
0.999998
1
0.999999
1
1
0.999999
1
1.00001
1.00002
1.00004
1.00009
1.00015
1.00023
1.0003
1.00031
1.00031
1.00036
1.00059
1.00106
1.00171
1.00239
1.00297
1.00337
1.00358
1.00361
1.00345
1.00314
1.00271
1.00222
1.00173
1.00126
1.00085
1.00052
1.00027
1.0001
1
0.999967
0.999956
0.999957
0.999965
0.999975
0.999992
0.999993
0.999991
0.999998
0.999998
0.999998
1
0.999994
1.00001
0.999996
1
0.999996
1
0.999997
1
0.999998
1
0.999999
1
1
1
1
1
1
1
1
1
1
1
1
1
1
1
0.999998
1
0.999993
1.00001
0.99999
1.00001
0.999991
1.00001
0.999995
0.999999
1.00001
0.999996
0.999995
1.00001
0.999989
1
1
1
0.999999
0.999995
1.00001
0.999993
1
0.999999
1
1
0.999997
0.999999
1
0.999999
1
1
1
1.00001
1.00002
1.00005
1.00011
1.0002
1.0003
1.00037
1.00041
1.00044
1.0006
1.00106
1.0019
1.003
1.00414
1.00508
1.0057
1.00599
1.00595
1.00559
1.00497
1.00417
1.00331
1.0025
1.00179
1.0012
1.00072
1.00038
1.00016
1.00003
0.999956
0.99995
0.999952
0.999963
0.999972
0.999979
0.999985
0.999995
0.999998
0.999995
1
0.999996
1
1
0.999999
1
0.999999
1
1
0.999999
1
0.999999
1
1
1
1
1
1
1
1
1
1
1
1
1
1
0.999998
1
0.999995
1.00001
0.999994
1
1
0.999993
1.00001
0.999987
1.00001
1.00001
0.999989
1.00001
0.999995
1.00001
0.999994
1
1.00001
0.999991
1
0.999998
1
1
0.999994
1.00001
0.999998
0.999999
1
0.999999
1
1
0.999999
1
1
1.00001
1.00002
1.00006
1.00013
1.00024
1.00036
1.00046
1.00052
1.00061
1.00095
1.00177
1.00315
1.00491
1.00669
1.00813
1.00907
1.00949
1.00939
1.00878
1.00772
1.00636
1.00494
1.00364
1.00254
1.00168
1.00102
1.00055
1.00024
1.00007
0.999971
0.999935
0.999939
0.999959
0.999973
0.999974
0.999986
0.999995
0.999988
0.999998
1
0.999994
1.00001
0.999988
1.00001
0.999988
1.00001
0.999993
1.00001
0.999996
1
0.999998
1
0.999999
1
1
1
1
1
1
1
1
1
1
1
1
1
0.999999
1
0.999995
1.00001
0.99999
1.00001
0.999987
1.00001
0.999987
1.00001
1
0.999993
1
1.00001
0.999986
1.00001
0.999999
1
0.999997
1
1.00001
0.999991
1.00001
0.999996
1
1
0.999996
1
1
0.999999
1
0.999999
1
1
1.00001
1.00003
1.00007
1.00016
1.00029
1.00044
1.00056
1.00065
1.00085
1.00146
1.0028
1.00495
1.0076
1.0102
1.01229
1.01365
1.01428
1.01417
1.01331
1.01171
1.00961
1.00736
1.0053
1.00363
1.00236
1.00143
1.00078
1.00036
1.00011
0.999992
0.999939
0.999933
0.999943
0.999963
0.99998
0.999991
0.999989
0.999994
0.999999
0.999991
1.00001
0.99999
1.00001
0.999994
1
0.999997
1
0.999997
1
0.999998
1
0.999999
1
1
1
1
1
1
1
1
1
1
1
1
0.999999
1
0.999996
1
0.999997
1
0.999998
0.999999
1.00001
0.999988
1.00001
0.999991
1
1
0.999995
1.00001
0.99999
1.00001
1
0.999988
1.00001
0.999998
1
0.999994
1
1.00001
0.999993
1
0.999999
0.999999
1
1
0.999999
0.999999
1
1
1.00001
1.00003
1.00009
1.00019
1.00034
1.00051
1.00066
1.0008
1.00117
1.00218
1.00424
1.00741
1.01118
1.01479
1.01763
1.01948
1.02041
1.02041
1.01938
1.01726
1.01426
1.01089
1.00775
1.00521
1.00333
1.00201
1.0011
1.00053
1.00019
1.00001
0.999945
0.999926
0.99993
0.999951
0.999976
0.999977
0.999983
1
0.999997
0.999995
1
0.999992
1.00001
0.999985
1.00001
0.999989
1.00001
0.999994
1
0.999997
1
0.999999
1
1
1
1
1
1
1
1
1
1
1
1
0.999999
1
1
0.999997
1.00001
0.999994
1.00001
0.99999
1.00001
0.999985
1.00001
0.999991
0.999998
1.00001
0.999991
0.999999
1.00001
0.999993
1
0.999996
1
1
0.999991
1.00001
0.999996
1.00001
0.999995
0.999999
1
0.999999
1
1
0.999999
0.999999
1
1
1.00001
1.00004
1.0001
1.00022
1.00039
1.00059
1.00076
1.00098
1.0016
1.00316
1.00618
1.01062
1.01573
1.02042
1.024
1.02634
1.02762
1.0279
1.02696
1.02452
1.02066
1.01597
1.01135
1.00753
1.00474
1.00283
1.00157
1.00077
1.0003
1.00005
0.999946
0.999919
0.999921
0.999938
0.999959
0.999976
0.999987
0.999988
0.999989
1.00001
0.999989
1.00001
0.999984
1.00001
0.999988
1.00001
0.999991
1.00001
0.999996
1
0.999998
1
1
1
1
1
1
1
1
1
1
1
1
1
1
0.999998
1
1
0.999997
1
0.999997
1
0.999999
1.00001
0.999984
1.00002
0.999987
1.00001
0.999998
0.999995
1.00001
0.999986
1
1.00001
0.999992
1
0.999996
1.00001
0.999999
0.999995
1.00001
0.999993
1
1
0.999997
0.999998
1
1
0.999998
1
1.00001
1.00004
1.00011
1.00024
1.00044
1.00065
1.00086
1.00121
1.00217
1.00447
1.0087
1.01464
1.02116
1.02685
1.03097
1.03362
1.03522
1.03594
1.03545
1.03319
1.02887
1.02294
1.01657
1.01098
1.00682
1.00403
1.00225
1.00113
1.00047
1.00012
0.999953
0.999905
0.999918
0.999933
0.999944
0.99997
0.999988
0.999984
0.999992
0.999993
0.999999
1
0.999994
1.00001
0.999994
1.00001
0.999993
1.00001
0.999995
1
0.999998
1
1
1
1
1
1
1
1
1
1
1
1
0.999999
1
1
0.999998
1
0.999996
1
0.999998
1
0.999993
1.00001
0.999988
1.00001
1
0.999984
1.00002
0.999987
1
1
0.999995
1.00001
0.999991
1
1.00001
0.999993
1
0.999995
1.00001
1
0.999995
1
0.999998
0.999998
1
1
0.999997
0.999997
1.00001
1.00005
1.00012
1.00027
1.00048
1.00072
1.00098
1.0015
1.00292
1.00618
1.01186
1.01944
1.02725
1.03356
1.03775
1.04029
1.04196
1.04314
1.04352
1.0422
1.03835
1.03185
1.02383
1.01606
1.00995
1.00582
1.00324
1.00165
1.00072
1.00022
0.999987
0.999896
0.999894
0.999917
0.999941
0.999955
0.999971
0.999987
0.999996
0.999986
1
0.999985
1.00001
0.999987
1.00001
0.999984
1.00001
0.999991
1
0.999998
1
0.999999
1
1
1
1
1
1
1
1
1
1
1
1
1
1
1
0.999997
1.00001
0.99999
1.00001
1
0.999994
0.999999
1.00002
0.999976
1.00002
0.999989
1
1
0.999982
1.00003
0.999984
0.999998
1.00001
0.999995
1.00001
0.999993
1
1
0.999992
1.00001
0.999995
0.999998
1
0.999999
1
0.999999
1
1
1.00001
1.00005
1.00013
1.00029
1.00051
1.00078
1.00111
1.00187
1.0039
1.00834
1.01567
1.02484
1.03354
1.03977
1.04323
1.04493
1.04613
1.04751
1.04894
1.04941
1.04743
1.0419
1.0332
1.02331
1.01467
1.00854
1.00473
1.00245
1.00111
1.00038
1.00004
0.999906
0.99987
0.999889
0.999918
0.999944
0.999964
0.999982
0.999983
0.999997
0.999992
0.999998
0.999995
1
0.999993
1
1
0.999994
1
0.999998
1
0.999999
1
1
1
1
1
1
1
1
1
1
1
1
1
0.999999
1
0.999998
1
1
0.999995
1
0.999999
0.999996
1.00001
0.999992
0.999996
1.00002
0.999968
1.00002
0.999995
0.999997
1.00001
0.999987
1.00002
0.999991
0.999993
1.00001
0.999996
1
0.999994
1
1.00001
0.999994
1
1
0.999996
0.999999
1
1.00001
1.00001
1.00005
1.00014
1.0003
1.00054
1.00084
1.00128
1.00235
1.00515
1.01098
1.02007
1.03056
1.03937
1.04448
1.04613
1.04601
1.04586
1.04675
1.04897
1.05173
1.05313
1.05088
1.04373
1.03293
1.02165
1.01275
1.00704
1.0037
1.00175
1.00066
1.00014
0.999917
0.999854
0.99986
0.999889
0.999927
0.999955
0.999969
0.99998
0.999993
0.999985
1
0.999994
1
0.999987
1.00001
0.999986
1.00001
0.999997
1
0.999999
1
1
1
1
1
1
1
1
1
1
1
1
1
0.999999
1
0.999998
1.00001
0.99999
1.00001
0.999991
0.999998
1.00001
0.999993
0.999992
1.00002
0.999982
1.00001
0.999999
0.999993
1.00002
0.999965
1.00003
0.999997
0.99999
1.00001
0.999992
1.00001
0.999995
0.999993
1.00001
0.999995
1
0.999999
0.999998
1
0.999999
0.999997
1
1
1.00001
1.00005
1.00014
1.0003
1.00055
1.0009
1.00149
1.00297
1.00671
1.01413
1.02492
1.03614
1.04399
1.04667
1.04525
1.04216
1.03951
1.03882
1.04102
1.0459
1.05168
1.05507
1.05278
1.04394
1.03129
1.01925
1.01068
1.00562
1.00278
1.00116
1.00031
0.999956
0.999837
0.999829
0.99986
0.999899
0.999934
0.999953
0.999978
0.999978
0.999992
0.999992
1
0.999985
1.00001
0.999994
0.999998
1
0.999998
1
0.999999
1
1
1
1
1
1
1
1
1
1
1
0.999999
1
0.999999
1
0.999998
1
0.999999
0.999997
1.00001
0.999989
1.00001
0.999999
0.999992
1.00001
1
0.999979
1.00003
0.999975
1
1.00001
0.999991
1.00002
0.999973
1.00002
1
0.999986
1.00001
0.999997
1.00001
1
0.99999
1.00001
0.999999
1
1
0.999996
0.999997
1
1.00001
1.00005
1.00013
1.0003
1.00057
1.00099
1.00177
1.00376
1.00862
1.01774
1.02997
1.04106
1.04664
1.04551
1.03978
1.03248
1.02604
1.02242
1.0234
1.02964
1.03986
1.0504
1.05615
1.0534
1.04267
1.02863
1.01654
1.00871
1.0044
1.00201
1.00068
1.00006
0.999841
0.999795
0.999819
0.999864
0.999903
0.99994
0.999957
0.99997
0.999988
0.999993
0.999986
0.999997
1
0.999987
1.00001
0.999995
1
0.999999
1
1
1
1
1
1
1
1
1
1
1
1
1
1
1
0.999999
1
0.999995
1.00001
0.999986
1.00001
0.999996
0.999992
1.00001
0.999998
0.999991
1.00001
0.999996
0.999998
1.00001
0.999978
1.00004
0.999969
1.00001
1.00001
0.999987
1.00001
0.999984
1.00001
1.00001
0.999984
1.00001
1
1
1
0.999992
1
1
0.999999
0.999998
1
1.00004
1.00013
1.00028
1.00059
1.00111
1.00214
1.00475
1.01088
1.02173
1.03491
1.0448
1.04677
1.0406
1.02941
1.0167
1.00507
0.997128
0.995686
1.00236
1.01644
1.03434
1.04989
1.05689
1.05271
1.04009
1.02537
1.01388
1.00703
1.00339
1.0014
1.00034
0.999899
0.99977
0.999769
0.999814
0.999865
0.999906
0.999936
0.999962
0.999977
0.999981
0.999984
1
0.999986
1
0.999998
0.999998
0.999999
0.999999
1
0.999999
1
1
1
1
1
1
1
1
1
1
1
0.999999
1
0.999998
1
0.999996
1
0.999998
0.999996
1.00001
0.999988
1.00001
1.00001
0.999986
1.00001
1.00001
0.999975
1.00002
0.999996
0.99999
1.00001
0.999984
1.00003
0.999975
1
1.00002
0.999987
1.00001
0.999994
0.999998
1.00001
0.999995
1
0.999997
0.999998
0.999999
1
0.999995
0.999992
1.00004
1.00012
1.00027
1.00062
1.00128
1.00262
1.00596
1.01348
1.02592
1.03939
1.04695
1.04417
1.03199
1.0144
0.995056
0.976801
0.9632
0.958351
0.964772
0.982157
1.00696
1.03246
1.05097
1.05714
1.05064
1.03651
1.02192
1.01151
1.00565
1.00258
1.00092
1.0001
0.99979
0.999731
0.999755
0.999811
0.999865
0.99991
0.999945
0.999963
0.999966
0.999992
0.999988
0.999989
1
0.999994
0.999999
0.999998
1
0.999999
1
1
1
1
1
1
1
1
1
1
1
1
1
0.999999
1
0.999998
1
0.999993
1.00001
0.999987
1.00001
1
0.99999
1.00001
0.999998
0.999999
0.999999
1
0.999999
1.00001
0.999975
1.00003
0.999989
0.999989
1.00002
0.999987
1.00001
0.999991
0.999991
1.00002
0.999997
0.999995
1
0.999997
1
1.00001
0.999988
0.999989
0.999999
0.999986
1.00002
1.0001
1.00026
1.00068
1.00152
1.00323
1.0074
1.01638
1.03013
1.04311
1.04735
1.03901
1.02021
0.995423
0.968188
0.941776
0.921135
0.91196
0.917671
0.938107
0.969491
1.00458
1.03476
1.05309
1.05653
1.04737
1.03236
1.01861
1.00952
1.00455
1.00194
1.00057
0.999937
0.999731
0.999711
0.999753
0.999818
0.999873
0.999914
0.999936
0.999966
0.999981
0.999977
0.999993
0.999992
0.999995
0.999996
0.999998
0.999999
0.999999
0.999999
0.999999
1
1
1
1
1
1
1
1
1
1
1
0.999999
1
0.999997
1
0.999994
1.00001
0.999998
0.999996
1.00001
0.999992
1
1.00001
0.999988
1.00001
1.00001
0.999988
1
1.00001
0.999993
1.00001
0.999982
1.00002
0.999993
0.999984
1.00002
0.999997
0.999996
1.00001
0.999989
1
1.00001
0.999991
1.00001
0.999994
0.999986
1
0.999974
1.00001
1.00008
1.00024
1.00077
1.00183
1.00398
1.00908
1.01946
1.03411
1.04586
1.04608
1.03178
1.00608
0.973427
0.936988
0.900705
0.871367
0.856606
0.860931
0.884269
0.922303
0.966967
1.00878
1.0398
1.05531
1.05489
1.04321
1.02805
1.01566
1.0079
1.00367
1.00145
1.00032
0.999838
0.999698
0.999707
0.999759
0.999824
0.999871
0.99991
0.999948
0.999957
0.999975
0.999986
0.999988
0.999993
0.999995
0.999997
0.999998
0.999999
0.999999
0.999999
1
1
1
1
1
1
1
1
1
1
1
1
1
1
0.999998
1
0.999993
1.00001
0.999994
1
1.00001
0.999994
1
0.999996
1.00001
0.999993
1
1.00001
1
0.999984
1.00001
1
0.999986
1.00001
0.999992
1
1.00001
0.999982
1
1.00001
0.999996
1.00001
0.999987
0.999997
0.999999
0.999989
0.999997
0.999956
1
1.00008
1.00024
1.0009
1.00223
1.00487
1.01095
1.02262
1.03769
1.0476
1.04344
1.02318
0.990581
0.949538
0.902583
0.854544
0.814446
0.792263
0.794053
0.820022
0.864967
0.91947
0.973019
1.017
1.04569
1.05672
1.05215
1.0386
1.02399
1.01312
1.00657
1.00297
1.00107
1.00015
0.999776
0.999682
0.999707
0.999763
0.999824
0.999882
0.999914
0.99994
0.999966
0.999975
0.999983
0.999989
0.999993
0.999995
0.999997
0.999998
0.999998
0.999999
0.999999
1
1
1
1
1
1
1
1
1
1
1
1
1
0.999998
1
0.999995
1
0.999999
0.999998
1
0.999996
1
1
0.999994
1
1
1
0.999997
1
1
1
0.999987
1.00001
1.00001
0.999981
1.00001
1.00001
0.999994
1
0.999998
1
0.999991
1.00001
0.999993
0.999972
0.999997
0.999939
0.999985
1.00009
1.00026
1.00107
1.00273
1.00591
1.01298
1.0257
1.0407
1.04842
1.0399
1.01396
0.974725
0.925027
0.866463
0.804867
0.751823
0.720056
0.717741
0.745731
0.797725
0.862282
0.927527
0.984308
1.02648
1.05072
1.05667
1.04846
1.03394
1.02039
1.01101
1.00546
1.00239
1.00078
1.00002
0.99974
0.99968
0.99971
0.999774
0.999834
0.999879
0.999921
0.999947
0.999962
0.999976
0.999984
0.999989
0.999993
0.999995
0.999997
0.999998
0.999999
0.999999
0.999999
1
1
1
1
1
1
1
1
1
1
1
1
1
0.999997
1.00001
0.999994
1
0.999999
0.999997
1
0.999999
1
0.999996
1.00001
0.999996
0.999996
1.00001
1
0.999992
1.00001
1
0.999992
1
0.999998
0.999998
1.00001
1
0.999993
0.999996
1.00001
0.999988
1.00001
0.999994
0.999958
1
0.999928
0.999963
1.0001
1.00028
1.00128
1.00332
1.00707
1.01509
1.02857
1.04308
1.04848
1.03593
1.00486
0.95949
0.901316
0.830661
0.754324
0.686646
0.643267
0.634691
0.662921
0.721051
0.795599
0.872747
0.942216
0.997482
1.03525
1.05395
1.05493
1.04408
1.02954
1.01731
1.00925
1.00454
1.00192
1.00056
0.999945
0.999717
0.999684
0.999725
0.999781
0.999842
0.999892
0.999922
0.999947
0.999966
0.999977
0.999985
0.99999
0.999994
0.999996
0.999997
0.999998
0.999999
0.999999
1
1
1
1
1
1
1
1
1
1
1
1
1
0.999999
1
0.999998
1
1
0.999999
1
0.999999
1
1
0.999995
1
0.999998
1
0.999998
0.999999
1
0.999999
0.999996
1
1.00001
0.999997
0.999991
1.00001
1.00001
0.999989
1.00001
0.999987
1
0.999999
0.999948
1
0.999917
0.999941
1.00013
1.00034
1.00153
1.00401
1.00834
1.01718
1.03113
1.04481
1.048
1.03201
0.996489
0.94574
0.879923
0.797755
0.706708
0.623826
0.567356
0.54966
0.574282
0.635274
0.718632
0.808267
0.891171
0.959457
1.01026
1.04219
1.05496
1.05175
1.03938
1.02549
1.0147
1.0078
1.00376
1.00153
1.00039
0.999887
0.999716
0.999697
0.99974
0.999801
0.999853
0.999895
0.99993
0.999954
0.999969
0.99998
0.999987
0.999991
0.999994
0.999996
0.999998
0.999999
0.999999
0.999999
1
1
1
1
1
1
1
1
1
1
1
0.999999
1
0.999997
1
0.999996
1
1
0.999998
1
1
0.999998
1
1
0.999999
0.999998
1
1
0.999997
1
1
1
0.999996
1
1
1
1
0.999992
1.00001
0.999986
0.999999
1
0.999932
0.999995
0.999914
0.99992
1.00018
1.00043
1.00182
1.00478
1.00968
1.01919
1.03332
1.04593
1.04716
1.02851
0.989376
0.934183
0.862271
0.770518
0.666393
0.569226
0.499312
0.469932
0.485924
0.543989
0.632467
0.733898
0.830962
0.912811
0.976396
1.0212
1.0467
1.054
1.04755
1.03462
1.02188
1.01249
1.00656
1.00311
1.00121
1.00027
0.999856
0.999721
0.999718
0.999763
0.999816
0.999868
0.99991
0.999939
0.999959
0.999973
0.999983
0.999989
0.999993
0.999995
0.999997
0.999998
0.999999
0.999999
1
1
1
1
1
1
1
1
1
1
1
1
1
1
1
1
0.999999
1
1
0.999999
1
0.999999
1
0.999997
1
1
1
0.999998
1
1
0.999998
0.999999
0.999999
1
1
0.999996
1
0.999996
1.00001
0.999989
0.999987
1
0.999923
0.999989
0.999921
0.999897
1.00023
1.00056
1.00213
1.00561
1.01107
1.02102
1.0351
1.04654
1.04609
1.0257
0.983944
0.925334
0.849379
0.751275
0.637345
0.528308
0.446194
0.404493
0.40828
0.45714
0.544199
0.653201
0.762983
0.858388
0.934585
0.991643
1.02965
1.04884
1.05138
1.04277
1.03011
1.01871
1.0106
1.00551
1.00257
1.00097
1.00018
0.999844
0.999743
0.999746
0.999789
0.999842
0.999888
0.999922
0.999948
0.999966
0.999978
0.999986
0.999991
0.999995
0.999997
0.999998
0.999999
0.999999
1
1
1
1
1
1
1
1
1
1
1
1
1
1
0.999999
1
0.999998
1
1
0.999999
1
0.999999
0.999999
1
1
0.999999
1
1
1
1
0.999999
1
1
0.999998
0.999997
1
1
0.999996
1
0.99999
0.999981
0.999998
0.999922
0.999976
0.999933
0.999881
1.00027
1.00073
1.00246
1.00647
1.0125
1.02266
1.03646
1.04674
1.04492
1.0237
0.980553
0.91957
0.841627
0.7412
0.622099
0.504801
0.412901
0.360285
0.351369
0.387112
0.465424
0.574277
0.692015
0.799143
0.887044
0.955227
1.00466
1.03562
1.04887
1.04763
1.03787
1.02596
1.01593
1.00896
1.00463
1.00212
1.00078
1.00013
0.999855
0.999775
0.999784
0.999825
0.999869
0.999907
0.999937
0.999959
0.999974
0.999983
0.99999
0.999994
0.999996
0.999998
0.999999
0.999999
1
1
1
1
1
1
1
1
1
1
1
1
1
1
1
0.999999
1
0.999999
1
1
0.999999
1
0.999999
1
1
1
0.999998
1
0.999999
0.999999
1
0.999999
0.999999
1
1
1
1
0.999993
1
0.999992
0.999981
0.999994
0.999923
0.999951
0.999947
0.999889
1.00031
1.00095
1.00283
1.00731
1.01392
1.0241
1.03743
1.04666
1.04373
1.02251
0.979427
0.917276
0.838876
0.739899
0.62102
0.499978
0.401096
0.339506
0.319323
0.341285
0.40579
0.506267
0.6249
0.739847
0.837457
0.915074
0.974101
1.01543
1.0394
1.04736
1.04328
1.03311
1.02222
1.0135
1.00754
1.00387
1.00176
1.00064
1.0001
0.99988
0.99982
0.999828
0.999861
0.999898
0.99993
0.999953
0.99997
0.999981
0.999989
0.999993
0.999996
0.999998
0.999999
0.999999
1
1
1
1
1
1
1
1
1
1
1
1
1
0.999999
1
1
1
1
1
0.999999
1
1
0.999999
1
0.999999
1
1
0.999999
1
1
0.999998
1
1
1
0.999999
0.999998
1
0.999997
0.999999
0.999991
0.999979
0.99998
0.999931
0.999935
0.999954
0.999917
1.00035
1.0012
1.00326
1.0081
1.0153
1.02538
1.03801
1.04642
1.04269
1.022
0.980527
0.918883
0.841034
0.745818
0.632077
0.512529
0.409941
0.341056
0.311091
0.320288
0.369105
0.455345
0.567755
0.685457
0.789971
0.874998
0.941511
0.991042
1.02424
1.04152
1.04488
1.03875
1.02866
1.01888
1.01136
1.00631
1.00322
1.00146
1.00053
1.00009
0.999917
0.999867
0.999874
0.9999
0.999928
0.999952
0.999969
0.999981
0.999988
0.999993
0.999996
0.999998
0.999999
0.999999
1
1
1
1
1
1
1
1
1
1
1
1
1
1
1
1
0.999999
1
0.999999
1
1
1
1
1
1
1
1
1
0.999999
0.999999
1
1
0.999999
1
0.999999
1
0.999999
0.999997
0.999996
0.999987
0.999979
0.999972
0.999937
0.999925
0.999949
0.999965
1.00039
1.00144
1.00374
1.00882
1.01654
1.02656
1.0383
1.04603
1.04199
1.02215
0.983454
0.924539
0.848575
0.757729
0.651821
0.538694
0.436662
0.362711
0.324315
0.322181
0.355575
0.424473
0.524705
0.639843
0.748135
0.838461
0.910428
0.965966
1.00618
1.03141
1.04239
1.0418
1.03425
1.02456
1.01589
1.00945
1.00521
1.00265
1.00121
1.00045
1.0001
0.999956
0.999916
0.999919
0.999936
0.999955
0.999971
0.999982
0.999989
0.999994
0.999997
0.999998
0.999999
1
1
1
1
1
1
1
1
1
1
1
1
1
1
1
1
1
1
1
1
0.999999
1
1
0.999999
1
1
0.999999
1
1
0.999998
1
1
0.999999
0.999999
1
1
0.999998
0.999999
0.999996
0.999995
0.999985
0.999978
0.999961
0.999938
0.999922
0.999941
1.00002
1.00046
1.00167
1.00427
1.00948
1.01757
1.02765
1.03844
1.0455
1.04172
1.02306
0.987692
0.933626
0.861948
0.776019
0.678124
0.573959
0.476757
0.401361
0.356877
0.345493
0.365315
0.41622
0.499603
0.60624
0.714558
0.808091
0.883612
0.943181
0.988311
1.01949
1.03697
1.04212
1.03825
1.02984
1.02075
1.01317
1.00774
1.00424
1.00215
1.00099
1.00039
1.00011
0.999995
0.999959
0.999957
0.999966
0.999977
0.999986
0.999992
0.999995
0.999998
0.999999
1
1
1
1
1
1
1
1
1
1
1
1
1
1
1
1
1
1
1
1
1
0.999999
1
1
1
0.999999
1
1
0.999999
1
1
1
0.999998
1
1
0.999998
1
0.999998
0.999998
0.999997
0.999994
0.999981
0.999974
0.999956
0.999935
0.999926
0.999932
1.00008
1.00055
1.00187
1.00478
1.01011
1.01834
1.02856
1.03859
1.04488
1.04179
1.02493
0.99303
0.944973
0.880343
0.801374
0.711613
0.616673
0.526685
0.453688
0.40668
0.389017
0.398367
0.433285
0.497553
0.589329
0.691966
0.785797
0.862984
0.924698
0.972897
1.00816
1.03052
1.04059
1.04059
1.03423
1.02547
1.01717
1.01068
1.0062
1.00337
1.00171
1.0008
1.00034
1.00012
1.00003
0.999994
0.999987
0.999989
0.999993
0.999996
0.999998
0.999999
1
1
1
1
1
1
1
1
1
1
1
1
1
1
1
1
1
1
1
1
1
0.999999
1
0.999999
1
1
1
1
1
1
1
0.999999
1
1
1
1
0.999998
1
0.999998
0.999998
0.999994
0.99999
0.99998
0.999973
0.999951
0.999932
0.999927
0.999932
1.00013
1.00067
1.00206
1.00522
1.01067
1.01888
1.02918
1.03878
1.04439
1.04207
1.02766
0.999547
0.957701
0.901789
0.832545
0.75275
0.667686
0.586161
0.518372
0.472138
0.450959
0.452819
0.475395
0.521965
0.594882
0.684769
0.773738
0.849924
0.911811
0.961254
0.998954
1.02466
1.03846
1.04177
1.03759
1.02964
1.02107
1.01378
1.00839
1.00481
1.0026
1.00133
1.00064
1.00029
1.00012
1.00005
1.00002
1.00001
1
1
1
1
1
1
1
1
1
1
1
1
1
1
1
1
1
1
1
1
1
1
1
1
1
1
0.999999
1
1
1
1
1
1
1
1
1
1
0.999999
0.999999
1
0.999998
1
0.999997
0.999996
0.999995
0.999988
0.999979
0.999969
0.99995
0.999929
0.999925
0.999942
1.00017
1.00079
1.00227
1.00558
1.01112
1.01925
1.02946
1.0389
1.04421
1.04259
1.03086
1.0071
0.971515
0.924594
0.866688
0.79917
0.725965
0.654875
0.5947
0.55162
0.528702
0.52488
0.538148
0.570526
0.625003
0.697433
0.775136
0.845944
0.905433
0.954147
0.992609
1.02025
1.0366
1.04242
1.04011
1.03308
1.02455
1.01672
1.01061
1.00633
1.00358
1.00193
1.001
1.0005
1.00025
1.00012
1.00006
1.00003
1.00002
1.00001
1.00001
1
1
1
1
1
1
1
1
1
1
1
1
1
1
1
1
1
1
1
1
1
1
1
1
1
1
1
1
1
1
1
1
0.999999
1
1
0.999999
1
0.999998
1
0.999997
0.999996
0.999994
0.999987
0.999977
0.999967
0.999947
0.999926
0.999919
0.999958
1.00022
1.00089
1.00248
1.00582
1.01138
1.01943
1.0294
1.03876
1.0443
1.04355
1.03432
1.01509
0.985935
0.947791
0.901281
0.84696
0.787403
0.729068
0.678665
0.640442
0.617184
0.609128
0.615174
0.636511
0.675427
0.730008
0.792272
0.85284
0.906488
0.952156
0.989571
1.01767
1.03539
1.04285
1.04194
1.03572
1.02736
1.01924
1.0126
1.00776
1.00454
1.00255
1.00138
1.00073
1.00038
1.0002
1.00011
1.00006
1.00004
1.00002
1.00001
1.00001
1.00001
1
1
1
1
1
1
1
1
1
1
1
1
1
1
1
1
1
1
1
1
1
1
1
1
1
1
0.999999
1
1
1
1
1
0.999999
1
0.999999
0.999999
0.999999
0.999998
0.999995
0.999994
0.999984
0.999977
0.999964
0.999945
0.999922
0.999916
0.999975