/*--------------------------------*- C++ -*----------------------------------*\
  =========                 |
  \\      /  F ield         | OpenFOAM: The Open Source CFD Toolbox
   \\    /   O peration     | Website:  https://openfoam.org
    \\  /    A nd           | Version:  6
     \\/     M anipulation  |
\*---------------------------------------------------------------------------*/
FoamFile
{
    version     2.0;
    format      ascii;
    class       surfaceVectorField;
    location    "1.39";
    object      Uf;
}
// * * * * * * * * * * * * * * * * * * * * * * * * * * * * * * * * * * * * * //

dimensions      [0 1 -1 0 0 0 0];

internalField   nonuniform List<vector> 
8193
(
(4.97403 -0.016021 3.58657e-21)
(5.00374 -0.0226989 -2.2589e-20)
(4.91571 -0.037879 -4.67248e-20)
(4.98576 0.00656774 1.05156e-20)
(5.01028 0.00307671 -8.89999e-20)
(4.97886 0.0290312 7.42253e-20)
(4.99571 0.0248695 -2.69284e-20)
(4.97585 0.0498627 -6.50977e-21)
(4.98514 0.0428613 -1.33293e-20)
(4.98159 0.0697881 -1.68104e-21)
(4.98753 0.0621123 1.8079e-20)
(4.99342 0.0901014 2.63317e-20)
(4.99702 0.0823666 7.95274e-21)
(5.00699 0.108852 -1.27036e-21)
(5.00926 0.102251 -5.02847e-21)
(5.0181 0.124159 2.16721e-21)
(5.01991 0.119616 -1.31596e-21)
(5.02411 0.134641 -9.48372e-22)
(5.02637 0.132526 -1.68868e-22)
(5.02447 0.14002 -3.58466e-23)
(5.02731 0.140266 5.15962e-22)
(5.02087 0.140921 0)
(5.02356 0.143265 -2.06296e-22)
(5.01616 0.138006 1.305e-23)
(5.01752 0.142214 3.13438e-23)
(5.0128 0.13146 1.56735e-22)
(5.01186 0.137478 -9.56018e-22)
(5.01184 0.121102 -1.21e-22)
(5.00824 0.128924 -3.25069e-22)
(5.01304 0.106813 4.64072e-22)
(5.00683 0.116101 -1.08991e-22)
(5.01553 0.088867 -8.11325e-22)
(5.00702 0.0987833 -2.27637e-21)
(5.01843 0.0681076 -9.43062e-22)
(5.00804 0.0773233 1.07577e-20)
(5.02104 0.0460387 0)
(5.00957 0.053141 -2.23656e-22)
(5.02239 0.0245423 0)
(5.0112 0.0291101 5.32032e-21)
(5.02518 0.00590143 0)
(5.01223 0.00787912 -1.11171e-20)
(5.03001 -0.00737951 3.40611e-21)
(5.01972 -0.00554783 0)
(5.03057 -0.0163138 3.10626e-21)
(5.02594 -0.00970687 -2.76717e-20)
(5.02493 -0.0271009 -1.37839e-21)
(5.02026 -0.013022 1.30399e-20)
(5.01815 -0.0446128 2.15199e-21)
(5.00609 -0.0247884 2.00073e-20)
(5.01447 -0.0665663 5.74845e-22)
(4.99595 -0.0490506 -9.70988e-21)
(5.01384 -0.0877124 -6.85653e-22)
(4.99407 -0.0761808 -3.45132e-22)
(5.01435 -0.104618 9.98337e-22)
(4.99782 -0.0994754 3.27943e-22)
(5.01455 -0.116335 2.3778e-22)
(5.00286 -0.116168 -1.0833e-20)
(5.01442 -0.123184 -4.41338e-22)
(5.00744 -0.126572 6.60886e-21)
(5.01431 -0.125702 5.05827e-24)
(5.01178 -0.131712 -8.64316e-22)
(5.01387 -0.12412 5.08574e-24)
(5.01628 -0.132224 -1.33089e-21)
(5.01181 -0.118282 -8.04867e-22)
(5.02054 -0.12832 -6.98727e-22)
(5.00634 -0.108088 -2.59702e-22)
(5.02279 -0.119935 -4.52638e-22)
(4.99634 -0.0939362 8.86384e-22)
(5.02066 -0.107001 8.02184e-22)
(4.98272 -0.0770752 2.58659e-21)
(5.01249 -0.0902511 -2.77381e-21)
(4.96952 -0.0589223 -1.58857e-20)
(4.99953 -0.0713749 8.77915e-21)
(4.96157 -0.0405462 -1.5936e-21)
(4.9873 -0.0522497 -2.76456e-21)
(4.9605 -0.0210692 -3.46181e-22)
(4.98197 -0.0344155 -3.94734e-20)
(4.95955 0.00027119 -3.15846e-21)
(4.98597 -0.0176685 5.08181e-20)
(4.93721 0.0201315 -3.94401e-20)
(4.98791 0.00553131 5.4089e-20)
(4.96858 0.0319772 9.89971e-21)
(4.86995 0.0412424 2.84903e-19)
(5.02656 0.00808824 -3.56639e-20)
(5.02959 -0.00226124 2.52237e-20)
(5.024 -0.0189156 -4.85404e-19)
(5.0106 0.0241412 -7.02276e-21)
(5.01734 0.0193105 -7.01556e-20)
(4.99638 0.0402103 -2.165e-21)
(5.00245 0.0364463 3.2618e-20)
(4.99355 0.0579056 -1.01423e-20)
(4.99488 0.0514681 -2.05983e-20)
(4.99963 0.0764741 -4.15322e-21)
(4.99839 0.0693177 -1.25956e-20)
(5.00983 0.0959393 -5.96287e-21)
(5.0075 0.0885092 -1.50456e-20)
(5.01968 0.11392 -4.92486e-21)
(5.0177 0.107304 -7.83278e-21)
(5.02645 0.128499 -1.31025e-21)
(5.02583 0.123655 -7.5158e-21)
(5.02859 0.138358 6.3877e-22)
(5.02984 0.135802 -1.8273e-21)
(5.02604 0.143435 -3.38662e-22)
(5.02886 0.143135 9.49935e-23)
(5.02032 0.144299 3.54472e-24)
(5.02373 0.146037 -3.53478e-22)
(5.0137 0.141461 -2.1318e-23)
(5.01656 0.145099 3.22698e-23)
(5.00814 0.134893 -3.10729e-22)
(5.00966 0.140514 5.02771e-24)
(5.00445 0.124094 -3.19974e-22)
(5.00441 0.131908 -1.32318e-21)
(5.00246 0.108452 -2.36856e-21)
(5.00088 0.118451 -3.99894e-23)
(5.00163 0.0877734 1.73313e-21)
(4.99856 0.0993609 -8.8107e-21)
(5.00174 0.0629431 4.10902e-21)
(4.99715 0.0745501 -2.70486e-21)
(5.00277 0.0366756 4.90932e-21)
(4.99727 0.0458543 -2.27659e-22)
(5.00456 0.0130892 -5.54642e-21)
(4.99946 0.0181045 -7.0891e-21)
(5.01055 -0.00328372 -1.1316e-20)
(5.00373 -0.00400992 -1.71439e-20)
(5.01942 -0.00847256 -9.30141e-21)
(5.01707 -0.0119021 1.49451e-23)
(5.01974 -0.00769703 -7.99983e-21)
(5.02618 -0.00661828 -1.43607e-20)
(5.00623 -0.0120214 8.48348e-21)
(5.01614 -0.0050357 1.08286e-21)
(4.98892 -0.0302421 1.06451e-20)
(4.99032 -0.0150487 -7.3897e-21)
(4.98044 -0.0588404 3.66042e-21)
(4.971 -0.044681 -5.42307e-21)
(4.9824 -0.0877146 0)
(4.96807 -0.0782118 0)
(4.98976 -0.110707 -3.16527e-21)
(4.97641 -0.10673 0)
(4.99805 -0.126194 -1.08795e-21)
(4.98804 -0.126835 -1.67564e-20)
(5.00589 -0.134893 1.24717e-21)
(4.99906 -0.139155 6.53734e-21)
(5.01354 -0.138178 -8.51275e-22)
(5.00886 -0.145008 -4.2162e-22)
(5.02117 -0.136435 -6.612e-22)
(5.01877 -0.145299 -2.00531e-22)
(5.028 -0.130025 -2.1103e-22)
(5.02836 -0.140731 -1.79465e-21)
(5.03189 -0.118834 3.49058e-22)
(5.03651 -0.131475 3.46284e-21)
(5.03021 -0.103223 -8.73265e-23)
(5.0404 -0.117553 -7.50065e-21)
(5.02189 -0.0845763 1.19405e-22)
(5.03708 -0.099733 5.37054e-21)
(5.00951 -0.0651114 2.03387e-22)
(5.0262 -0.0799174 -3.30714e-22)
(4.99949 -0.0469841 -1.17745e-20)
(5.01216 -0.0604019 2.45423e-21)
(4.99724 -0.0303269 -4.9971e-20)
(5.00306 -0.0430735 -2.23891e-20)
(5.00141 -0.0145833 1.58837e-20)
(5.00345 -0.0283458 2.8827e-20)
(5.00535 0.00251074 5.17573e-20)
(5.00631 -0.00710269 1.76514e-21)
(5.00663 0.0194561 9.35159e-20)
(4.99419 0.031034 7.78312e-19)
(5.02882 0.01727 1.80586e-19)
(5.03954 0.00909763 4.08002e-20)
(5.0476 -0.0026383 1.89851e-19)
(5.01129 0.031333 -1.62963e-20)
(5.02266 0.0281245 1.70222e-20)
(5.00182 0.0464076 -1.45056e-20)
(5.01047 0.0437536 9.49246e-21)
(5.00144 0.0634662 9.05621e-21)
(5.00527 0.0582131 -2.14391e-20)
(5.00786 0.0816618 -7.39759e-21)
(5.00939 0.0753148 -5.50226e-22)
(5.01689 0.100255 1.42537e-21)
(5.01759 0.0935904 1.3065e-20)
(5.02502 0.117389 3.86485e-22)
(5.02578 0.111478 -7.74066e-22)
(5.02995 0.131243 -5.21272e-21)
(5.0315 0.127038 -4.01303e-22)
(5.03049 0.140701 -2.05182e-21)
(5.03321 0.13864 -2.33487e-21)
(5.0267 0.145687 -1.44279e-22)
(5.0304 0.145744 0)
(5.01998 0.146666 -1.46547e-22)
(5.02387 0.148682 -9.46277e-24)
(5.01238 0.143986 5.28341e-24)
(5.01551 0.147939 0)
(5.00561 0.13745 3.81648e-22)
(5.00725 0.14354 5.47227e-24)
(5.00029 0.1263 3.57818e-22)
(5.00018 0.134865 1.6089e-21)
(4.99618 0.109514 -1.32943e-21)
(4.99417 0.120679 -4.14537e-23)
(4.99303 0.086407 -1.45287e-20)
(4.98882 0.0996103 3.46749e-21)
(4.99143 0.0577924 -1.36494e-20)
(4.98448 0.0710559 -7.68173e-22)
(4.99256 0.0274159 -2.02369e-20)
(4.98325 0.0373109 0)
(4.99712 0.00141649 -9.86861e-21)
(4.98715 0.00526011 -9.42477e-22)
(5.00853 -0.0131401 1.14255e-20)
(4.99728 -0.0181599 1.11977e-20)
(5.02197 -0.0119539 6.30384e-21)
(5.01914 -0.020409 1.49637e-23)
(5.02109 -0.00653146 5.69682e-21)
(5.0301 -0.00885914 -1.77201e-20)
(4.99918 -0.010235 -2.36034e-20)
(5.013 -0.00467857 -7.877e-22)
(4.97101 -0.0313096 -4.24489e-20)
(4.9739 -0.0202495 1.53753e-20)
(4.95688 -0.0640835 -2.03837e-20)
(4.94446 -0.0542632 1.61566e-20)
(4.96038 -0.0969834 0)
(4.94039 -0.0916445 -1.75986e-20)
(4.9732 -0.122768 -4.87526e-21)
(4.95408 -0.122847 0)
(4.98784 -0.139728 -6.77582e-21)
(4.9732 -0.144502 -8.76078e-21)
(5.00148 -0.149028 -1.03341e-21)
(4.99123 -0.157518 -1.81818e-21)
(5.01406 -0.15213 5.7182e-22)
(5.00707 -0.16315 -1.71479e-21)
(5.02622 -0.149523 4.59442e-22)
(5.02296 -0.16247 -6.3564e-22)
(5.03771 -0.142128 3.68771e-21)
(5.03794 -0.156767 2.74549e-21)
(5.0465 -0.130115 -4.68142e-21)
(5.05179 -0.146448 3.31001e-21)
(5.04936 -0.113937 -1.88642e-21)
(5.06154 -0.131794 -7.44397e-21)
(5.04396 -0.0948668 4.87142e-21)
(5.06325 -0.113547 -3.96639e-21)
(5.0318 -0.074957 1.95641e-21)
(5.05502 -0.0933359 -6.99877e-22)
(5.019 -0.0560739 -1.99341e-20)
(5.04033 -0.0733104 8.3544e-21)
(5.01248 -0.0390673 -4.24137e-20)
(5.0276 -0.0551613 -4.95082e-20)
(5.01352 -0.0235086 1.43513e-20)
(5.02385 -0.039573 5.32755e-20)
(5.01874 -0.00691595 2.67471e-21)
(5.02614 -0.0193127 0)
(5.03041 0.00779024 -1.82094e-20)
(5.02667 0.0139933 9.55736e-20)
(5.03599 0.0273312 1.77915e-20)
(5.0463 0.0202317 0)
(5.05541 0.012236 0)
(5.02036 0.0407784 2.58295e-20)
(5.02955 0.0388507 1.66558e-20)
(5.0124 0.0547482 -2.56086e-20)
(5.01896 0.0523026 -3.53776e-21)
(5.01279 0.0705531 -2.42329e-20)
(5.0157 0.0659645 -1.10945e-20)
(5.01888 0.0877033 1.2528e-20)
(5.02018 0.0820067 0)
(5.02633 0.105262 7.91557e-21)
(5.0273 0.0992838 1.65473e-20)
(5.03217 0.121504 -2.37437e-22)
(5.03353 0.116217 -2.06805e-20)
(5.03469 0.134701 1.15484e-21)
(5.03696 0.130966 3.45395e-21)
(5.03309 0.143819 -6.59049e-22)
(5.03651 0.142056 -1.16093e-21)
(5.02761 0.148799 1.40381e-22)
(5.03191 0.148995 1.29476e-21)
(5.0195 0.149989 1.43301e-22)
(5.02398 0.152069 -1.71581e-22)
(5.0105 0.147588 0)
(5.01434 0.151638 1.40032e-21)
(5.00193 0.14117 1.26358e-21)
(5.00456 0.147529 -1.21594e-22)
(4.99418 0.129587 1.30597e-21)
(4.99535 0.138817 3.47875e-21)
(4.98695 0.111269 3.49014e-21)
(4.98636 0.123771 7.3369e-21)
(4.98041 0.0849026 1.33592e-20)
(4.97725 0.100301 -8.29341e-21)
(4.97645 0.0512709 1.0074e-20)
(4.96931 0.0672129 2.6656e-20)
(4.97803 0.0155037 1.5056e-20)
(4.96682 0.0274702 0)
(4.98748 -0.0136684 1.55016e-20)
(4.97391 -0.00969758 -3.61494e-20)
(5.00785 -0.0262937 0)
(4.99304 -0.0347001 0)
(5.02786 -0.0192487 -2.34857e-20)
(5.02586 -0.0320328 0)
(5.02285 -0.0102469 -2.33232e-20)
(5.03792 -0.018418 1.27676e-20)
(4.98796 -0.0171553 4.04471e-20)
(5.01008 -0.0174608 6.42349e-20)
(4.94758 -0.0447417 7.70252e-20)
(4.95603 -0.041183 2.27841e-20)
(4.9283 -0.0814202 1.8058e-20)
(4.91815 -0.077472 1.6973e-20)
(4.93428 -0.116992 -1.75477e-20)
(4.91337 -0.11603 4.27133e-20)
(4.95411 -0.144291 -2.20711e-21)
(4.9329 -0.148097 0)
(4.97673 -0.161844 -2.21816e-21)
(4.95994 -0.170253 -5.47522e-21)
(4.99756 -0.171306 -2.4908e-21)
(4.98501 -0.183173 7.59356e-21)
(5.01636 -0.173368 -2.8895e-21)
(5.00784 -0.187871 1.28547e-20)
(5.03427 -0.169636 1.96418e-21)
(5.02956 -0.185911 1.32622e-21)
(5.0515 -0.161015 4.09161e-21)
(5.04985 -0.17888 6.80016e-21)
(5.06619 -0.148021 1.9262e-21)
(5.06897 -0.167381 -5.23374e-21)
(5.07469 -0.131226 -9.44971e-21)
(5.0841 -0.152004 1.07873e-20)
(5.07346 -0.11173 -1.07258e-20)
(5.09076 -0.133473 -7.36475e-21)
(5.06264 -0.0913061 6.50766e-21)
(5.08575 -0.113023 -2.7292e-20)
(5.04803 -0.0717874 -1.93335e-20)
(5.07117 -0.0923824 2.44216e-20)
(5.03812 -0.0540412 -1.3405e-20)
(5.0554 -0.0731253 8.13823e-21)
(5.03686 -0.0374879 3.43068e-20)
(5.04777 -0.0560676 -1.61875e-21)
(5.04159 -0.0197354 -7.71055e-21)
(5.04943 -0.037238 -1.15353e-20)
(5.05435 -0.00659009 -7.69067e-21)
(5.05043 -0.000391343 -6.5883e-21)
(5.04233 0.0372256 0)
(5.05274 0.0311512 3.23549e-20)
(5.06206 0.0237153 4.94893e-20)
(5.02779 0.0500013 -1.15188e-20)
(5.03722 0.049229 -1.07526e-19)
(5.0217 0.062856 7.78738e-21)
(5.02785 0.0606807 -1.10018e-20)
(5.02314 0.0776971 1.22484e-20)
(5.02641 0.0738573 1.21681e-20)
(5.02879 0.093918 4.31308e-21)
(5.03091 0.0889443 -2.15662e-20)
(5.03474 0.110538 -9.5122e-21)
(5.03681 0.105291 -1.81958e-21)
(5.03856 0.125949 -1.36265e-20)
(5.04111 0.121333 2.19774e-21)
(5.03897 0.138552 2.26297e-21)
(5.04234 0.135349 5.5326e-21)
(5.03546 0.147414 1.2515e-22)
(5.03978 0.146018 -5.71446e-21)
(5.02841 0.152455 1.01548e-21)
(5.03342 0.152889 1.35038e-21)
(5.01896 0.153946 6.51406e-22)
(5.02404 0.156202 7.83013e-22)
(5.00851 0.151914 1.88681e-21)
(5.013 0.156194 2.77397e-21)
(4.99801 0.145643 1.80199e-21)
(5.00148 0.152465 -4.87341e-22)
(4.98749 0.133558 9.34943e-21)
(4.98974 0.143746 -1.1191e-21)
(4.97656 0.113478 -4.28799e-21)
(4.97713 0.127748 3.99546e-22)
(4.96597 0.0834056 4.26907e-21)
(4.96337 0.101619 -1.84743e-21)
(4.95938 0.0441393 1.70846e-20)
(4.95102 0.0636293 -1.76785e-20)
(4.96223 0.00241064 -5.1084e-20)
(4.94732 0.0177241 0)
(4.97901 -0.030266 -5.25109e-20)
(4.95916 -0.0245765 -7.04222e-20)
(5.01119 -0.0417896 0)
(4.99007 -0.0508738 2.21943e-22)
(5.03685 -0.0336002 2.39014e-20)
(5.03423 -0.0458749 0)
(5.0258 -0.0300602 8.8069e-20)
(5.04454 -0.037431 2.43966e-20)
(4.97828 -0.044174 4.14779e-20)
(5.00737 -0.0501489 2.80569e-21)
(4.92665 -0.0745407 -4.42034e-20)
(4.94119 -0.0778006 -2.33643e-20)
(4.90321 -0.11184 4.12345e-20)
(4.89592 -0.113365 4.65214e-20)
(4.91171 -0.146763 6.2568e-20)
(4.89058 -0.149808 7.87444e-20)
(4.93848 -0.173593 -1.87697e-21)
(4.91506 -0.18067 0)
(4.96896 -0.190929 5.63221e-21)
(4.94933 -0.202425 2.91334e-20)
(4.99669 -0.199406 7.42728e-21)
(4.98182 -0.214388 -5.04478e-20)
(5.02149 -0.200117 1.30205e-21)
(5.01172 -0.217696 1.69874e-20)
(5.04481 -0.195021 8.10053e-21)
(5.03909 -0.214404 -3.81642e-21)
(5.06707 -0.185072 -1.84584e-23)
(5.06448 -0.205976 -1.71096e-21)
(5.08671 -0.171136 4.90927e-21)
(5.08829 -0.193251 5.84521e-21)
(5.10008 -0.153955 1.25315e-20)
(5.10806 -0.177171 3.74677e-21)
(5.10298 -0.134397 -2.43438e-20)
(5.11936 -0.158517 7.47306e-21)
(5.09424 -0.113703 -1.05859e-20)
(5.11819 -0.138105 -2.74119e-20)
(5.07867 -0.093305 5.18407e-20)
(5.10521 -0.117032 3.52989e-20)
(5.06536 -0.0741609 7.83451e-21)
(5.08784 -0.0965838 5.9305e-20)
(5.06103 -0.0562715 -4.80485e-20)
(5.0764 -0.0775215 -3.4414e-20)
(5.06551 -0.0379647 -1.14219e-20)
(5.07576 -0.0591125 -9.7514e-20)
(5.08074 -0.0260004 1.14033e-19)
(5.07642 -0.0179886 8.80942e-20)
(5.04954 0.0475143 2.34996e-20)
(5.05971 0.0425066 7.63592e-20)
(5.06876 0.0353821 2.83006e-20)
(5.0364 0.059253 -1.02199e-19)
(5.04551 0.0595164 -2.3267e-20)
(5.03192 0.0712886 0)
(5.03756 0.0696081 -1.70117e-20)
(5.03399 0.0852338 -2.15643e-20)
(5.03751 0.0822011 5.2957e-20)
(5.03894 0.100571 -2.67712e-20)
(5.04174 0.096397 5.20949e-20)
(5.04329 0.116332 1.20278e-20)
(5.0463 0.111864 -4.78964e-20)
(5.04506 0.130987 2.20277e-20)
(5.04865 0.12707 -5.79979e-21)
(5.04334 0.143079 4.92643e-22)
(5.0477 0.14043 4.02746e-21)
(5.03789 0.151784 -6.79519e-21)
(5.04306 0.150774 -5.66272e-21)
(5.02917 0.156947 3.20644e-23)
(5.0349 0.157694 2.36792e-22)
(5.01823 0.158843 2.43519e-21)
(5.02402 0.161356 -1.10943e-21)
(5.00615 0.157275 9.45046e-22)
(5.01145 0.161876 -3.7058e-21)
(4.99335 0.151231 -2.1401e-21)
(4.99789 0.158641 -2.0971e-22)
(4.97944 0.138629 -1.07204e-20)
(4.98311 0.150002 2.27344e-21)
(4.96391 0.11668 3.36966e-21)
(4.96611 0.133095 -8.95216e-21)
(4.9483 0.0827752 -2.39596e-20)
(4.94665 0.104339 1.21933e-20)
(4.93865 0.0379148 -3.67588e-20)
(4.92904 0.0616969 -1.97484e-20)
(4.94369 -0.00924119 -1.08902e-20)
(4.92423 0.0105953 6.0713e-20)
(4.96949 -0.0446464 -1.08711e-20)
(4.9423 -0.0354931 5.68985e-20)
(5.01272 -0.0568139 2.25e-22)
(4.98594 -0.0617337 1.07082e-21)
(5.04132 -0.0540879 2.92516e-22)
(5.03909 -0.0580416 -3.02813e-22)
(5.0256 -0.0634215 -6.33789e-20)
(5.04512 -0.0634657 1.02536e-21)
(4.97061 -0.0867681 -6.55631e-20)
(5.00303 -0.0943541 -6.54685e-20)
(4.91056 -0.116782 6.61323e-20)
(4.93139 -0.123665 -2.47292e-21)
(4.88314 -0.151519 7.5221e-20)
(4.88 -0.15666 1.65327e-20)
(4.89369 -0.183119 7.72644e-21)
(4.87407 -0.189314 3.93696e-20)
(4.9266 -0.208676 1.22661e-20)
(4.9011 -0.217887 2.37244e-21)
(4.9644 -0.225037 -1.08841e-20)
(4.9419 -0.238629 9.84561e-21)
(4.99882 -0.232075 -1.97434e-20)
(4.982 -0.249411 8.44122e-20)
(5.02968 -0.231603 3.03616e-21)
(5.01857 -0.251547 3.58157e-21)
(5.05838 -0.225174 -3.0759e-21)
(5.05163 -0.247107 -9.37762e-21)
(5.08534 -0.213902 8.49007e-21)
(5.08201 -0.237389 -3.18937e-21)
(5.10931 -0.198967 4.62488e-21)
(5.11003 -0.223404 2.95546e-21)
(5.127 -0.181338 -1.09993e-21)
(5.13367 -0.206435 -4.38631e-20)
(5.13416 -0.161755 4.40954e-21)
(5.14905 -0.187428 1.59369e-20)
(5.12867 -0.140958 1.8792e-20)
(5.15208 -0.16696 -9.92427e-22)
(5.11392 -0.119829 4.3829e-20)
(5.14222 -0.145566 2.28629e-20)
(5.09851 -0.0992186 2.98179e-20)
(5.12522 -0.124085 2.36731e-20)
(5.09075 -0.0795754 -7.6997e-20)
(5.11106 -0.103013 2.50131e-21)
(5.09315 -0.0603238 2.7491e-19)
(5.10694 -0.0836734 -1.63445e-19)
(5.10982 -0.0493521 1.99697e-19)
(5.10594 -0.0397951 6.03666e-20)
(5.05724 0.057903 1.19198e-19)
(5.0673 0.0543374 1.19861e-19)
(5.0758 0.0471817 1.56465e-19)
(5.04571 0.0688128 5.61248e-20)
(5.05463 0.0698267 7.04099e-20)
(5.04267 0.0801867 4.29568e-20)
(5.04824 0.0791032 -3.87395e-20)
(5.04509 0.0933164 1.25261e-19)
(5.04914 0.0910809 1.55795e-20)
(5.04916 0.107851 2.96649e-20)
(5.05284 0.104502 5.66519e-20)
(5.05184 0.122814 -6.69134e-20)
(5.05591 0.119157 -3.13321e-20)
(5.05154 0.136784 -2.47845e-20)
(5.05625 0.133607 -2.35476e-20)
(5.0477 0.14845 0)
(5.0531 0.146412 -5.72206e-21)
(5.04032 0.157082 2.53951e-22)
(5.04637 0.156545 0)
(5.02989 0.162534 -2.07552e-21)
(5.03637 0.163652 -5.56188e-22)
(5.01728 0.164873 -6.61999e-21)
(5.02385 0.167804 2.33776e-22)
(5.00327 0.163876 -2.82106e-21)
(5.00959 0.168967 3.24281e-21)
(4.98778 0.158177 4.9481e-21)
(4.99367 0.166338 1.383e-22)
(4.96985 0.145191 3.43651e-21)
(4.97525 0.157927 3.40863e-21)
(4.94878 0.121527 -1.69563e-22)
(4.95291 0.140364 -1.31921e-20)
(4.92718 0.084222 2.0342e-20)
(4.92669 0.109463 3.91048e-20)
(4.91424 0.0349101 8.053e-20)
(4.90307 0.0633199 2.0083e-20)
(4.92251 -0.0154929 1.22323e-19)
(4.89741 0.00960979 4.76691e-21)
(4.95819 -0.0511256 6.31902e-20)
(4.9229 -0.0372114 6.1385e-20)
(5.01039 -0.0661128 1.068e-21)
(4.97856 -0.0659224 8.51396e-22)
(5.04113 -0.0732041 4.16678e-22)
(5.0361 -0.0638167 -3.02459e-22)
(5.02224 -0.10091 1.86519e-21)
(5.03434 -0.0891947 -1.2129e-19)
(4.96394 -0.134805 -3.13559e-21)
(4.9939 -0.139902 -5.72191e-21)
(4.90065 -0.164071 -6.67847e-20)
(4.92522 -0.171198 1.10116e-19)
(4.87029 -0.195132 -5.49478e-20)
(4.86994 -0.201509 -6.29504e-20)
(4.88151 -0.222819 1.11694e-20)
(4.86357 -0.23107 -5.51669e-20)
(4.91866 -0.246723 2.14901e-22)
(4.89087 -0.257381 2.32158e-21)
(4.96285 -0.261895 2.75234e-20)
(4.93737 -0.276783 2.71651e-20)
(5.00378 -0.268038 2.96621e-20)
(4.98476 -0.286929 -5.60655e-20)
(5.04077 -0.266618 -3.51541e-21)
(5.02801 -0.28846 0)
(5.07487 -0.25909 -3.47495e-21)
(5.06686 -0.283189 2.17596e-20)
(5.10634 -0.246552 -4.25326e-21)
(5.10239 -0.272351 -1.35255e-20)
(5.13407 -0.230454 -3.98913e-20)
(5.13448 -0.257051 -1.69279e-20)
(5.1554 -0.212025 -2.53483e-20)
(5.16152 -0.238883 1.05315e-20)
(5.16658 -0.192055 8.94889e-21)
(5.18043 -0.219005 2.38022e-20)
(5.16511 -0.170984 3.54342e-21)
(5.18765 -0.198013 0)
(5.15295 -0.149198 3.54044e-21)
(5.182 -0.176113 8.45206e-21)
(5.13726 -0.127269 1.14838e-22)
(5.16742 -0.153717 -6.43454e-20)
(5.12664 -0.105849 -7.37708e-20)
(5.15237 -0.13082 7.15226e-20)
(5.12554 -0.0851528 2.44641e-19)
(5.14499 -0.110129 -6.15584e-20)
(5.14407 -0.0748088 5.78628e-20)
(5.13923 -0.0633672 3.04474e-19)
(5.06582 0.0687444 9.76497e-20)
(5.07563 0.0664725 2.35837e-20)
(5.08314 0.0593907 -1.17649e-19)
(5.05617 0.0788952 -4.42814e-20)
(5.06494 0.0805766 7.25589e-20)
(5.05434 0.0897397 -5.68846e-20)
(5.06009 0.0893183 -4.60196e-20)
(5.05675 0.102172 -5.02362e-20)
(5.06148 0.100753 -3.54779e-20)
(5.0597 0.115966 -4.67811e-21)
(5.06437 0.113496 3.8056e-20)
(5.06056 0.130196 1.38716e-20)
(5.06576 0.127413 -3.76846e-20)
(5.05812 0.143564 -1.99485e-21)
(5.06397 0.141195 3.0063e-23)
(5.05211 0.154905 -5.95176e-21)
(5.05856 0.15356 -5.96668e-21)
(5.04274 0.163581 -8.33023e-22)
(5.0497 0.163615 -5.06533e-21)
(5.03053 0.169441 1.37065e-21)
(5.0378 0.171051 -8.58515e-23)
(5.01608 0.172418 7.26411e-21)
(5.02351 0.175859 -5.14449e-21)
(4.99975 0.172059 5.30698e-21)
(5.0073 0.177822 -5.74985e-22)
(4.98097 0.166796 -4.20767e-21)
(4.98862 0.175944 -1.2438e-20)
(4.95829 0.153796 -1.65204e-20)
(4.96596 0.168002 -1.09816e-20)
(4.9308 0.128975 2.60508e-20)
(4.93729 0.150284 -1.59709e-20)
(4.90242 0.0895046 3.94456e-20)
(4.9033 0.118328 -1.59412e-21)
(4.88586 0.0383386 -5.98048e-20)
(4.87327 0.0711211 6.10537e-20)
(4.89711 -0.0121286 -6.12647e-20)
(4.86671 0.0193985 -1.41674e-19)
(4.94265 -0.0494801 0)
(4.89774 -0.0243953 0)
(5.00393 -0.0682152 0)
(4.96519 -0.0584942 1.0742e-19)
(5.03001 -0.084687 -1.20629e-19)
(5.02274 -0.0566799 1.88877e-21)
(5.00683 -0.135363 -1.22749e-19)
(5.00614 -0.106217 -1.55753e-19)
(4.95525 -0.180162 1.01781e-19)
(4.97668 -0.178368 1.40288e-19)
(4.89427 -0.209703 1.12231e-19)
(4.91977 -0.214546 1.54517e-19)
(4.86297 -0.237801 -6.5753e-20)
(4.86357 -0.243541 0)
(4.87445 -0.263627 -6.60139e-20)
(4.85646 -0.272446 -1.50149e-19)
(4.91375 -0.285899 2.90728e-20)
(4.88384 -0.297562 -5.76482e-20)
(4.96334 -0.300215 1.69573e-20)
(4.93507 -0.31594 -1.47457e-19)
(5.01083 -0.306512 -1.20641e-20)
(4.9889 -0.326627 -9.19756e-21)
(5.05424 -0.304527 2.5025e-20)
(5.03955 -0.328105 0)
(5.09399 -0.29619 9.88996e-21)
(5.0844 -0.32231 -4.87048e-20)
(5.13017 -0.282436 -2.52354e-20)
(5.12553 -0.310467 -1.64514e-20)
(5.1616 -0.264984 3.00638e-20)
(5.1619 -0.29371 -2.89544e-20)
(5.1862 -0.245271 5.51264e-20)
(5.19231 -0.274007 1.01871e-19)
(5.20106 -0.224291 1.44213e-20)
(5.21441 -0.25264 3.30954e-20)
(5.20393 -0.202445 5.20634e-21)
(5.22557 -0.230476 -1.81897e-20)
(5.19573 -0.179841 -6.02174e-20)
(5.22459 -0.207616 3.78414e-20)
(5.18182 -0.156708 1.44589e-20)
(5.21398 -0.18424 -6.59902e-20)
(5.16994 -0.133582 7.84795e-20)
(5.20027 -0.159823 -2.36015e-20)
(5.16524 -0.111104 -1.04076e-20)
(5.19119 -0.137892 8.77788e-21)
(5.18615 -0.101769 -1.19468e-20)
(5.17815 -0.0874328 -2.63734e-19)
(5.0757 0.080227 -1.55836e-20)
(5.08525 0.0788082 -2.222e-19)
(5.0912 0.0715423 -5.6903e-20)
(5.06801 0.0898095 3.1623e-20)
(5.07688 0.0920494 1.31718e-19)
(5.06706 0.100205 -2.39716e-20)
(5.07333 0.100482 -2.56737e-21)
(5.0691 0.112044 5.53691e-20)
(5.07474 0.111484 -2.2327e-20)
(5.07065 0.125165 3.85647e-21)
(5.07647 0.123647 2.04311e-20)
(5.0695 0.138731 -5.31279e-20)
(5.07594 0.136909 -5.65382e-20)
(5.0648 0.151588 -4.50804e-21)
(5.07186 0.150122 2.66159e-20)
(5.05655 0.162723 -5.05708e-21)
(5.06412 0.162175 2.24605e-20)
(5.04513 0.17158 -4.41876e-21)
(5.05307 0.172306 -2.1343e-20)
(5.03103 0.177991 -6.72341e-21)
(5.0392 0.180228 1.33336e-20)
(5.01455 0.181787 -1.08905e-20)
(5.02299 0.185859 2.90755e-21)
(4.9955 0.182219 -2.52341e-21)
(5.00448 0.188816 -7.16079e-21)
(4.97277 0.177635 -6.05397e-21)
(4.98258 0.187939 -2.08604e-20)
(4.94446 0.164996 -6.7228e-21)
(4.95501 0.180852 -2.78022e-20)
(4.90977 0.140207 -3.95121e-20)
(4.9192 0.1638 -2.44047e-21)
(4.87422 0.100884 2.03449e-20)
(4.87678 0.132558 -3.71773e-20)
(4.85374 0.0521617 -1.78824e-20)
(4.84052 0.0882 7.29338e-20)
(4.86628 0.00668425 -8.21366e-20)
(4.83279 0.0447046 -1.13418e-20)
(4.91924 -0.0303323 1.06551e-19)
(4.8654 0.00795827 -2.90257e-21)
(4.98447 -0.0529025 1.08401e-19)
(4.9407 -0.0274935 2.7168e-21)
(5.00001 -0.0837853 -2.6801e-20)
(4.9935 -0.0328196 1.88398e-21)
(4.97601 -0.158799 1.003e-19)
(4.95717 -0.110124 -7.61016e-20)
(4.9409 -0.217051 1.63552e-19)
(4.9468 -0.204742 1.66339e-20)
(4.88848 -0.249554 2.33535e-20)
(4.91144 -0.250931 -9.43157e-20)
(4.85758 -0.277549 -8.38504e-20)
(4.85764 -0.28119 1.21815e-19)
(4.86949 -0.303802 -1.41021e-19)
(4.85032 -0.312553 1.1821e-19)
(4.91079 -0.325648 -9.2557e-20)
(4.87885 -0.338448 1.18009e-19)
(4.96486 -0.340205 -3.17265e-20)
(4.93407 -0.356647 -3.99786e-20)
(5.01916 -0.347565 2.703e-21)
(4.99369 -0.369171 7.41864e-21)
(5.0696 -0.345311 -5.84441e-20)
(5.05291 -0.370922 -2.31631e-20)
(5.11551 -0.336359 -5.87053e-20)
(5.10405 -0.364721 3.62937e-20)
(5.15686 -0.321241 -1.9024e-20)
(5.15153 -0.351667 -3.19849e-21)
(5.19226 -0.30219 4.75833e-20)
(5.19247 -0.333065 -1.60433e-20)
(5.22015 -0.280696 7.98929e-20)
(5.22661 -0.311391 2.02394e-20)
(5.23846 -0.258066 5.38491e-22)
(5.25182 -0.287885 -7.37141e-20)
(5.24558 -0.234839 1.54245e-20)
(5.26665 -0.263943 9.81252e-20)
(5.24199 -0.211083 3.10543e-20)
(5.27025 -0.239544 -1.63941e-20)
(5.23151 -0.18681 -1.05013e-19)
(5.26436 -0.214996 -2.48995e-21)
(5.22042 -0.162306 -9.0765e-20)
(5.25369 -0.189351 -1.00001e-19)
(5.21332 -0.138308 6.65892e-21)
(5.24497 -0.16648 0)
(5.23703 -0.130198 -1.23745e-19)
(5.22453 -0.112682 1.38307e-19)
(5.0874 0.0924648 -1.54195e-19)
(5.09698 0.091617 -8.81914e-21)
(5.10078 0.0838274 -1.6363e-19)
(5.08156 0.101758 7.8353e-20)
(5.09089 0.104472 -5.0232e-20)
(5.08105 0.111846 -4.19065e-21)
(5.08822 0.112866 1.87663e-20)
(5.08227 0.123208 -5.93831e-20)
(5.08911 0.123574 -7.02308e-20)
(5.08208 0.135732 -4.06329e-20)
(5.08923 0.135265 -3.77953e-20)
(5.07869 0.148711 2.55499e-20)
(5.08648 0.147962 6.58778e-20)
(5.0716 0.161163 5.36518e-20)
(5.07995 0.160713 3.099e-20)
(5.06104 0.172228 9.9548e-21)
(5.06978 0.172598 -1.48612e-21)
(5.0475 0.181425 -5.22053e-21)
(5.0565 0.182974 -7.73119e-21)
(5.03136 0.188551 2.36385e-20)
(5.04056 0.191555 1.32974e-20)
(5.01261 0.193326 4.96801e-21)
(5.02223 0.19819 -2.53338e-21)
(4.99041 0.194828 -4.97095e-21)
(5.00106 0.202392 3.45144e-21)
(4.96303 0.191283 6.88045e-21)
(4.97539 0.202889 -3.03346e-20)
(4.92818 0.179725 1.90784e-20)
(4.94227 0.197296 5.58152e-21)
(4.88552 0.156411 1.74278e-20)
(4.89873 0.182115 8.35302e-21)
(4.84287 0.120658 9.46412e-21)
(4.84807 0.154031 9.04754e-21)
(4.81891 0.0800187 8.90822e-20)
(4.80672 0.117349 -1.70101e-20)
(4.83105 0.0458156 8.20797e-20)
(4.79757 0.0886438 8.43731e-20)
(4.88603 0.0145455 -1.10916e-19)
(4.8274 0.061873 -7.03319e-21)
(4.94897 -0.0153867 -1.09779e-19)
(4.90169 0.0265442 -1.02496e-19)
(4.95047 -0.0675438 -2.39156e-20)
(4.94337 0.00670149 -5.51708e-21)
(4.92749 -0.167523 -1.61867e-19)
(4.88588 -0.100661 1.4278e-19)
(4.91676 -0.243515 -2.92507e-19)
(4.8997 -0.218176 -1.39301e-19)
(4.88007 -0.282919 -2.05199e-20)
(4.89662 -0.280676 -1.50667e-19)
(4.85204 -0.314834 2.29667e-19)
(4.84882 -0.315113 -1.79591e-19)
(4.86532 -0.343885 9.5422e-20)
(4.84363 -0.352838 2.11427e-19)
(4.90879 -0.367043 -1.60282e-20)
(4.87497 -0.381537 2.72493e-19)
(4.96682 -0.383145 3.26379e-21)
(4.93392 -0.400732 -3.07024e-20)
(5.02854 -0.392182 -1.82996e-20)
(4.99904 -0.415959 4.6075e-21)
(5.08696 -0.389606 5.36388e-20)
(5.06837 -0.417882 5.39502e-20)
(5.13964 -0.379928 7.50441e-20)
(5.12606 -0.411121 -8.39208e-20)
(5.1867 -0.362845 0)
(5.18093 -0.39604 7.60143e-20)
(5.22643 -0.341733 -3.5115e-20)
(5.22651 -0.374891 4.07291e-20)
(5.25783 -0.317825 -1.27276e-19)
(5.26491 -0.350474 -9.0575e-20)
(5.27947 -0.292944 2.61779e-20)
(5.29319 -0.324074 -3.11513e-20)
(5.29059 -0.267756 6.08537e-20)
(5.31146 -0.297787 1.6824e-19)
(5.29167 -0.242421 -4.68443e-20)
(5.31927 -0.271174 -2.3936e-19)
(5.28549 -0.216907 -8.59856e-21)
(5.31812 -0.245163 1.6231e-19)
(5.27688 -0.191301 -8.17535e-21)
(5.31132 -0.218342 6.78726e-21)
(5.26917 -0.16631 -1.30292e-19)
(5.30455 -0.194437 -1.36491e-19)
(5.29528 -0.158904 1.6158e-20)
(5.27873 -0.139416 8.59199e-20)
(5.10162 0.105672 9.71916e-20)
(5.11171 0.10528 1.77789e-19)
(5.11286 0.0966454 1.6323e-19)
(5.09721 0.114968 -9.00962e-20)
(5.10749 0.11813 -6.28155e-20)
(5.09655 0.12494 -5.65769e-20)
(5.10504 0.126768 -6.46752e-21)
(5.09638 0.135954 -4.82053e-20)
(5.10471 0.137344 -5.01122e-20)
(5.09404 0.147973 7.217e-20)
(5.1027 0.148679 0)
(5.08815 0.16046 7.25842e-20)
(5.09739 0.160916 4.06394e-20)
(5.07853 0.17263 -2.64061e-20)
(5.08824 0.173325 -1.07328e-22)
(5.0656 0.183784 -1.82582e-20)
(5.07559 0.185199 -1.35242e-20)
(5.04987 0.193493 9.44503e-21)
(5.06003 0.195998 1.22744e-20)
(5.03157 0.201521 -1.21838e-20)
(5.04193 0.205428 -1.02421e-20)
(5.01025 0.207505 -9.45874e-21)
(5.02126 0.213301 1.95819e-21)
(4.98442 0.210471 3.96224e-21)
(4.99704 0.219093 9.7909e-21)
(4.9517 0.208536 9.53994e-22)
(4.96702 0.22147 4.30902e-20)
(4.90954 0.199024 -5.625e-21)
(4.92775 0.218272 -6.43412e-21)
(4.85859 0.17922 -2.83239e-21)
(4.87634 0.206544 -9.29759e-21)
(4.80982 0.150782 -6.36297e-20)
(4.81861 0.184459 1.44306e-20)
(4.78359 0.124255 -7.05104e-20)
(4.77473 0.160244 1.14469e-20)
(4.79274 0.105294 -4.0871e-21)
(4.76291 0.151415 -5.87406e-21)
(4.84202 0.0780369 7.24059e-21)
(4.78281 0.134547 -8.91716e-21)
(4.89483 0.0373607 8.68685e-21)
(4.84709 0.0976398 -1.66981e-19)
(4.87834 -0.0372727 1.7377e-19)
(4.87123 0.0601817 -5.49505e-21)
(4.85774 -0.163577 1.99471e-19)
(4.79168 -0.0809853 -7.29273e-20)
(4.87923 -0.260426 1.13923e-20)
(4.83259 -0.220373 1.13063e-20)
(4.86576 -0.311558 -2.82103e-19)
(4.87205 -0.306253 -3.33383e-20)
(4.84409 -0.35124 -1.69014e-19)
(4.83488 -0.347887 -7.22036e-21)
(4.86078 -0.38619 1.65365e-19)
(4.83511 -0.396239 -2.37581e-19)
(4.90731 -0.412339 3.65177e-20)
(4.87164 -0.4288 3.98139e-20)
(4.96951 -0.430784 -2.55277e-20)
(4.93509 -0.450594 1.3986e-19)
(5.0396 -0.441808 6.22192e-20)
(5.00536 -0.468724 -3.56226e-20)
(5.10702 -0.438212 -8.24868e-20)
(5.08685 -0.469966 2.11199e-20)
(5.16713 -0.427384 -5.10144e-20)
(5.15104 -0.462325 -1.89004e-20)
(5.22036 -0.407135 1.11794e-19)
(5.21482 -0.443525 7.79904e-20)
(5.26466 -0.38317 -1.68828e-20)
(5.26469 -0.419078 -7.64221e-20)
(5.29976 -0.355881 7.71507e-23)
(5.30791 -0.390574 6.73797e-20)
(5.32457 -0.328083 1.12974e-19)
(5.33888 -0.360487 -8.34508e-20)
(5.33936 -0.300224 -1.37874e-19)
(5.36046 -0.331015 2.07945e-19)
(5.34473 -0.272773 -2.27079e-20)
(5.37181 -0.301409 -2.01091e-19)
(5.34293 -0.245721 1.71145e-19)
(5.3749 -0.273343 1.22602e-19)
(5.33763 -0.219042 -1.23394e-19)
(5.37201 -0.244964 1.48205e-20)
(5.33104 -0.193388 1.42513e-19)
(5.3678 -0.219584 -2.97226e-19)
(5.35945 -0.185717 4.80025e-19)
(5.33942 -0.165553 1.26943e-19)
(5.11911 0.120079 5.47946e-20)
(5.13047 0.120262 6.59603e-20)
(5.12857 0.110289 0)
(5.1154 0.129656 3.06369e-20)
(5.12718 0.13335 1.10894e-19)
(5.11378 0.139753 -5.69292e-21)
(5.12403 0.142489 -1.1681e-20)
(5.11155 0.150573 4.10821e-23)
(5.12162 0.153124 -6.36853e-21)
(5.10657 0.162217 -3.57409e-20)
(5.1169 0.164244 0)
(5.09793 0.174331 -3.59777e-20)
(5.10869 0.176159 -1.2856e-21)
(5.08568 0.186365 1.52323e-20)
(5.09678 0.188357 -3.62226e-20)