/*--------------------------------*- C++ -*----------------------------------*\
  =========                 |
  \\      /  F ield         | OpenFOAM: The Open Source CFD Toolbox
   \\    /   O peration     | Website:  https://openfoam.org
    \\  /    A nd           | Version:  6
     \\/     M anipulation  |
\*---------------------------------------------------------------------------*/
FoamFile
{
    version     2.0;
    format      ascii;
    class       volScalarField;
    location    "3.53";
    object      T;
}
// * * * * * * * * * * * * * * * * * * * * * * * * * * * * * * * * * * * * * //

dimensions      [0 0 0 1 0 0 0];

internalField   nonuniform List<scalar> 
5625
(
1
1
1
1
1
1
1
1
1
1
1
1
1
1
1
1
1
1
1
1
1
1
1
1
1
1
1
1
1
1
1
1
1
1
1
1
1
1
1
1
1
1
1
1
1
1
1
1
1
1
1
1
1
1
1
1
1
1
1
1
1
1
1
1
1
1
1
1
1
1
1
1
1
1
1
1
1
1
1
1
1
1
1
1
1
1
1
1
1
1
1
1
1
1
1
1
1
1
1
1
1
1
1
1
1
1
1
1
1
1
1
1
1
1
1
1
1
1
1
1
1
1
1
1
1
1
1
1
1
1
1
1
1
1
1
1
1
1
1
1
1
1
1
1
1
1
1
1
1
1
1
1
1
1
1
1
1
1
1
1
1
1
1
1
1
1
1
1
1
1
1
1
1
1
1
1
1
1
1
1
1
1
1
1
1
1
1
1
1
1
1
1
1
1
1
1
1
1
1
1
1
1
1
1
1
1
1
1
1
1
1
1
1
1
1
1
1
1
1
1
1
1
1
1
1
1
1
1
1
1
1
1
1
1
1
1
1
1
1
1
1
1
1
1
1
1
1
1
1
1
1
1
1
1
1
1
1
1
1
1
1
1
1
1
1
1
1
1
1
1
1
1
1
1
1
1
1
1
1
1
1
1
1
1
1
1
1
1
1
1
1
1
1
1
1
1
1
1
1
1
1
1
1
1
1
1
1
1
1
1
1
1
1
1
1
1
1
1
1
1
1
1
1
1
1
1
1
1
1
1
1
1
1
1
1
1
1
1
1
1
1
1
1
1
1
1
1
1
1
1
1
1
1
1
1
1
1
1
1
1
1
1
1
1
1
1
1
1
1
1
1
1
1
1
1
1
1
1
1
1
1
1
1
1
1
1
1
1
1
1
1
1
1
1
1
1
1
1
1
1
1
1
1
1
1
1
1
1
1
1
1
1
1
1
1
1
1
1
1
1
1
1
1
1
1
1
1
1
1
1
1
1
1
1
1
1
1
1
1
1
1
1
1
1
1
1
1
1
1
1
1
1
1
1
1
1
1
1
1
1
1
1
1
1
1
1
1
1
1
1
1
1
1
1
1
1
1
1
1
1
1
1
1
1
1
1
1
1
1
1
1
1
1
1
1
1
1
1
1
1
1
1
1
1
1
1
1
1
1
1
1
1
1
1
1
1
1
1
1
1
1
1
1
1
1
1
1
1
1
1
1
1
1
1
1
1
1
1
1
1
1
1
1
1
1
1
1
1
1
1
1
1
1
1
1
1
1
1
1
1
1
1
1
1
1
1
1
1
1
1
1
1
1
1
1
1
1
1
1
1
1
1
1
1
1
1
1
1
1
1
1
1
1
1
1
1
1
1
1
1
1
1
1
1
1
1
1
1
1
1
1
1
1
1
1
1
1
1
1
1
1
1
1
1
1
1
1
1
1
1
1
1
1
1
1
1
1
1
1
1
1
1
1
1
1
1
1
1
1
1
1
1
1
1
1
1
1
1
1
1
1
1
1
1
1
1
1
1
1
1
1
1
1
1
1
1
1
1
1
1
1
1
1
1
1
1
1
1
1
1
1
1
1
1
1
1
1
1
1
1
1
1
1
1
1
1
1
1
1
1
1
1
1
1
1
1
1
1
1
1
1
1
1
1
1
1
1
1
1
1
1
1
1
1
1
1
1
1
1
1
1
1
1
1
1
1
1
1
1
1
1
1
1
1
1
1
1
1
1
1
1
1
1
1
1
1
1
1
1
1
1
1
1
1
1
1
1
1
1
1
1
1
1
1
1
1
1
1
1
1
1
1
1
1
1
1
1
1
1
1
1
1
1
1
1
1
1
1
1
1
1
1
1
1
1
1
1
1
1
1
1
1
1
1
1
1
1
1
1
1
1
1
1
1
1
1
1
1
1
1
1
1
1
1
1
1
1
1
1
1
1
1
1
1
1
1
1
1
1
1
1
1
1
1
1
1
1
1
1
1
1
1
1
1
1
1
1
1
1
1
1
1
1
1
1
1
1
1
1
1
1
1
1
1
1
1
1
1
1
1
1
1
1
1
1
1
1
1
1
1
1
1
1
1
1
1
1
1
1
1
1
1
1
1
1
1
1
1
1
1
1
1
1
1
1
1
1
1
1
1
1
1
1
1
1
1
1
1
1
1
1
1
1
1
1
1
1
1
1
1
1
1
1
1
1
1
1
1
1
1
1
1
1
1
1
1
1
1
1
1
1
1
1
1
1
1
1
1
1
1
1
1
1
1.00001
1.00001
1.00001
1.00001
1.00001
1.00001
1.00001
1.00001
1.00001
1.00001
1.00001
1.00001
1
1
1
1
1
1
1
1
1
1
1
1
1
1
1
1
1
1
1
1
1
1
1
1
1
1
1
1
1
1
1
1
1
1
1
1
1
1
1
1
1
1
1
1
1
1
1
1
1
1
1
1
1
1
1
1
1
1
1
1.00001
1.00001
1.00001
1.00001
1.00001
1.00001
1.00001
1.00001
1.00001
1.00001
1.00001
1.00001
1.00001
1.00001
1.00001
1.00001
1.00001
1.00001
1.00001
1
1
1
1
1
1
1
1
1
1
1
1
1
1
1
1
1
1
1
1
1
1
1
1
1
1
1
1
1
1
1
1
1
1
1
1
1
1
1
1
1
1
1
1
1
1
1
1
1
1
1
1
1
1
1.00001
1.00001
1.00001
1.00001
1.00001
1.00001
1.00001
1.00001
1.00001
1.00001
1.00001
1.00001
1.00001
1.00001
1.00001
1.00001
1.00001
1.00001
1.00001
1.00001
1.00001
1.00001
1.00001
1
1
1
1
1
1
1
1
1
1
1
1
1
1
1
1
1
1
1
1
1
1
1
1
1
1
1
1
1
1
1
1
1
1
1
1
1
1
1
1
1
1
1
1
1
1
1
1
1
1
1.00001
1.00001
1.00001
1.00001
1.00001
1.00001
1.00001
1.00001
1.00001
1.00001
1.00001
1.00001
1.00001
1.00001
1.00001
1.00001
1.00001
1.00001
1.00001
1.00001
1.00001
1.00001
1.00001
1.00001
1.00001
1.00001
1.00001
1
1
1
1
1
1
1
1
1
1
1
1
1
1
1
1
1
1
1
1
1
1
1
1
1
1
1
1
1
1
1
1
1
1
1
1
1
1
1
1
1
1
1
1
1
1
1.00001
1.00001
1.00001
1.00001
1.00001
1.00001
1.00001
1.00001
1.00001
1.00001
1.00001
1.00002
1.00002
1.00002
1.00002
1.00002
1.00002
1.00002
1.00002
1.00002
1.00001
1.00001
1.00001
1.00001
1.00001
1.00001
1.00001
1.00001
1.00001
1.00001
1.00001
1
1
1
1
1
1
1
1
1
1
1
1
1
1
1
1
1
1
1
1
1
1
1
1
1
1
1
1
1
1
1
1
1
1
1
1
1
1
1
1
1
1
1
1.00001
1.00001
1.00001
1.00001
1.00001
1.00001
1.00001
1.00001
1.00002
1.00002
1.00002
1.00002
1.00002
1.00002
1.00002
1.00002
1.00002
1.00002
1.00002
1.00002
1.00002
1.00002
1.00002
1.00002
1.00002
1.00001
1.00001
1.00001
1.00001
1.00001
1.00001
1.00001
1.00001
1
1
1
1
1
1
1
1
1
1
1
1
1
1
1
1
1
1
1
1
1
1
1
1
1
1
1
1
1
1
1
1
1
1
1
1
1
1
1
1
1
1.00001
1.00001
1.00001
1.00001
1.00001
1.00001
1.00001
1.00002
1.00002
1.00002
1.00002
1.00002
1.00002
1.00002
1.00002
1.00002
1.00002
1.00002
1.00002
1.00002
1.00002
1.00002
1.00002
1.00002
1.00002
1.00002
1.00002
1.00002
1.00001
1.00001
1.00001
1.00001
1.00001
1.00001
1.00001
1
1
1
1
1
1
1
1
1
1
1
1
1
1
1
1
1
1
1
1
1
1
1
1
1
1
1
1
1
1
1
1
1
1
1
1
1
1
1
1.00001
1.00001
1.00001
1.00001
1.00001
1.00001
1.00002
1.00002
1.00002
1.00002
1.00002
1.00002
1.00002
1.00002
1.00002
1.00002
1.00003
1.00003
1.00003
1.00003
1.00003
1.00002
1.00002
1.00002
1.00002
1.00002
1.00002
1.00002
1.00002
1.00002
1.00002
1.00001
1.00001
1.00001
1.00001
1.00001
1.00001
1.00001
1
1
1
1
1
1
1
1
1
1
1
1
1
1
1
1
1
1
1
1
1
1
1
1
1
1
1
1
1
1
1
1
1
1
1
1.00001
1.00001
1.00001
1.00001
1.00001
1.00001
1.00002
1.00002
1.00002
1.00002
1.00002
1.00002
1.00002
1.00003
1.00003
1.00003
1.00003
1.00003
1.00003
1.00003
1.00003
1.00003
1.00003
1.00003
1.00003
1.00003
1.00003
1.00003
1.00002
1.00002
1.00002
1.00002
1.00002
1.00002
1.00002
1.00001
1.00001
1.00001
1.00001
1.00001
1.00001
1
1
1
1
1
1
1
1
1
1
1
1
1
1
1
1
1
1
1
1
1
1
1
1
1
1
1
1
1
1
1
1
1
1.00001
1.00001
1.00001
1.00001
1.00001
1.00001
1.00002
1.00002
1.00002
1.00002
1.00002
1.00002
1.00003
1.00003
1.00003
1.00003
1.00003
1.00003
1.00003
1.00003
1.00003
1.00003
1.00003
1.00003
1.00003
1.00003
1.00003
1.00003
1.00003
1.00003
1.00003
1.00003
1.00002
1.00002
1.00002
1.00002
1.00002
1.00001
1.00001
1.00001
1.00001
1.00001
1.00001
1
1
1
1
1
1
1
1
1
1
1
1
1
1
1
1
1
1
1
1
1
1
1
1
1
1
1
1
1
1
1
1.00001
1.00001
1.00001
1.00001
1.00001
1.00001
1.00002
1.00002
1.00002
1.00002
1.00002
1.00003
1.00003
1.00003
1.00003
1.00003
1.00003
1.00003
1.00003
1.00003
1.00003
1.00003
1.00003
1.00003
1.00003
1.00003
1.00003
1.00003
1.00003
1.00003
1.00003
1.00003
1.00003
1.00003
1.00002
1.00002
1.00002
1.00002
1.00002
1.00001
1.00001
1.00001
1.00001
1.00001
1.00001
1
1
1
1
1
1
1
1
1
1
1
1
1
1
1
1
1
1
1
1
1
1
1
1
1
1
1
1
1
1
1.00001
1.00001
1.00001
1.00001
1.00002
1.00002
1.00002
1.00002
1.00002
1.00003
1.00003
1.00003
1.00003
1.00003
1.00003
1.00003
1.00003
1.00003
1.00002
1.00002
1.00002
1.00002
1.00002
1.00002
1.00002
1.00002
1.00002
1.00003
1.00003
1.00003
1.00003
1.00003
1.00003
1.00003
1.00003
1.00003
1.00002
1.00002
1.00002
1.00002
1.00001
1.00001
1.00001
1.00001
1.00001
1
1
1
1
1
1
1
1
1
1
1
1
1
1
1
1
1
1
1
1
1
1
1
1
1
1
1
1
1
1.00001
1.00001
1.00001
1.00001
1.00002
1.00002
1.00002
1.00002
1.00002
1.00003
1.00003
1.00003
1.00003
1.00003
1.00003
1.00003
1.00002
1.00002
1.00002
1.00002
1.00002
1.00002
1.00002
1.00002
1.00002
1.00002
1.00002
1.00002
1.00002
1.00002
1.00002
1.00003
1.00003
1.00003
1.00003
1.00003
1.00003
1.00003
1.00002
1.00002
1.00002
1.00002
1.00001
1.00001
1.00001
1.00001
1.00001
1
1
1
1
1
1
1
1
1
1
1
1
1
1
1
1
1
1
1
1
1
1
1
1
1
1
1
1
1.00001
1.00001
1.00001
1.00002
1.00002
1.00002
1.00002
1.00003
1.00003
1.00003
1.00003
1.00003
1.00003
1.00003
1.00002
1.00002
1.00002
1.00002
1.00001
1.00001
1.00001
1.00001
1.00001
1.00001
1.00001
1.00001
1.00001
1.00001
1.00001
1.00002
1.00002
1.00002
1.00002
1.00003
1.00003
1.00003
1.00003
1.00003
1.00003
1.00003
1.00002
1.00002
1.00002
1.00001
1.00001
1.00001
1.00001
1.00001
1
1
1
1
1
1
1
1
1
1
1
1
1
1
1
1
1
1
1
1
1
1
1
1
1
1
1
1.00001
1.00001
1.00002
1.00002
1.00002
1.00002
1.00003
1.00003
1.00003
1.00003
1.00003
1.00003
1.00003
1.00002
1.00002
1.00002
1.00001
1.00001
1
0.999999
0.999995
0.999992
0.999991
0.99999
0.999991
0.999992
0.999995
0.999998
1
1.00001
1.00001
1.00001
1.00002
1.00002
1.00002
1.00003
1.00003
1.00003
1.00003
1.00003
1.00003
1.00002
1.00002
1.00002
1.00001
1.00001
1.00001
1.00001
1.00001
1
1
1
1
1
1
1
1
1
1
1
1
1
1
1
1
1
1
1
1
1
1
1
1
1
1
1.00001
1.00001
1.00002
1.00002
1.00002
1.00003
1.00003
1.00003
1.00003
1.00003
1.00003
1.00002
1.00002
1.00002
1.00001
1.00001
0.999999
0.999992
0.999985
0.999979
0.999973
0.999969
0.999966
0.999965
0.999966
0.999969
0.999973
0.999979
0.999985
0.999991
0.999998
1
1.00001
1.00001
1.00002
1.00002
1.00003
1.00003
1.00003
1.00003
1.00003
1.00003
1.00002
1.00002
1.00002
1.00001
1.00001
1.00001
1.00001
1
1
1
1
1
1
1
1
1
1
1
1
1
1
1
1
1
1
1
1
1
1
1
1
1
1
1.00001
1.00002
1.00002
1.00002
1.00003
1.00003
1.00003
1.00003
1.00003
1.00003
1.00002
1.00002
1.00001
1.00001
1
0.999991
0.99998
0.999969
0.999959
0.999949
0.99994
0.999933
0.999928
0.999927
0.999929
0.999933
0.99994
0.999949
0.999958
0.999969
0.999979
0.999988
0.999997
1
1.00001
1.00002
1.00002
1.00003
1.00003
1.00003
1.00003
1.00003
1.00003
1.00002
1.00002
1.00002
1.00001
1.00001
1.00001
1.00001
1
1
1
1
1
1
1
1
1
1
1
1
1
1
1
1
1
1
1
1
1
1
1
1
1
1.00002
1.00002
1.00002
1.00003
1.00003
1.00003
1.00003
1.00003
1.00003
1.00002
1.00002
1.00001
1
0.999995
0.999982
0.999968
0.999952
0.999935
0.999918
0.999902
0.999887
0.999876
0.999869
0.999867
0.99987
0.999877
0.999888
0.999902
0.999918
0.999934
0.99995
0.999965
0.999978
0.99999
1
1.00001
1.00002
1.00002
1.00002
1.00003
1.00003
1.00003
1.00003
1.00002
1.00002
1.00002
1.00002
1.00001
1.00001
1.00001
1.00001
1
1
1
1
1
1
1
1
1
1
1
1
1
1
1
1
1
1
1
1
1
1
1
1
1.00002
1.00002
1.00002
1.00003
1.00003
1.00003
1.00003
1.00003
1.00002
1.00002
1.00001
1
0.999991
0.999976
0.999957
0.999935
0.999909
0.999882
0.999855
0.999829
0.999806
0.999788
0.999776
0.999773
0.999777
0.999789
0.999807
0.99983
0.999855
0.999881
0.999906
0.99993
0.99995
0.999968
0.999983
0.999996
1.00001
1.00001
1.00002
1.00002
1.00003
1.00003
1.00003
1.00003
1.00002
1.00002
1.00002
1.00001
1.00001
1.00001
1.00001
1
1
1
1
1
1
1
1
1
1
1
1
1
1
1
1
1
1
1
1
1
1
1
1
1.00002
1.00002
1.00003
1.00003
1.00003
1.00003
1.00003
1.00002
1.00002
1.00001
1
0.999989
0.999971
0.999948
0.999918
0.999884
0.999844
0.999802
0.999758
0.999716
0.999679
0.99965
0.999632
0.999626
0.999633
0.999652
0.999681
0.999717
0.999758
0.999799
0.999839
0.999876
0.999909
0.999936
0.999959
0.999978
0.999993
1
1.00001
1.00002
1.00003
1.00003
1.00003
1.00003
1.00003
1.00002
1.00002
1.00002
1.00001
1.00001
1.00001
1.00001
1
1
1
1
1
1
1
1
1
1
1
1
1
1
1
1
1
1
1
1
1
1
1
1.00002
1.00003
1.00003
1.00003
1.00003
1.00003
1.00002
1.00002
1.00001
1
0.999989
0.999969
0.999942
0.999906
0.999861
0.999807
0.999746
0.999679
0.99961
0.999544
0.999485
0.999439
0.99941
0.999401
0.999411
0.999441
0.999487
0.999544
0.999608
0.999674
0.999737
0.999795
0.999846
0.999889
0.999924
0.999952
0.999974
0.999991
1
1.00001
1.00002
1.00003
1.00003
1.00003
1.00003
1.00002
1.00002
1.00002
1.00001
1.00001
1.00001
1.00001
1
1
1
1
1
1
1
1
1
1
1
1
1
1
1
1
1
1
1
1
1
1
1
1.00003
1.00003
1.00003
1.00003
1.00003
1.00003
1.00002
1.00001
1.00001
0.999991
0.99997
0.99994
0.999899
0.999844
0.999775
0.999693
0.999598
0.999494
0.999386
0.999283
0.999192
0.999119
0.999073
0.999058
0.999074
0.999121
0.999192
0.999282
0.999381
0.999484
0.999583
0.999673
0.999752
0.999819
0.999872
0.999915
0.999948
0.999972
0.999991
1.00001
1.00002
1.00002
1.00003
1.00003
1.00003
1.00003
1.00002
1.00002
1.00002
1.00001
1.00001
1.00001
1.00001
1
1
1
1
1
1
1
1
1
1
1
1
1
1
1
1
1
1
1
1
1
1
1.00003
1.00003
1.00003
1.00003
1.00003
1.00002
1.00002
1.00001
0.999995
0.999975
0.999944
0.999899
0.999836
0.999753
0.999649
0.999523
0.999378
0.999219
0.999054
0.998895
0.998753
0.998641
0.998569
0.998545
0.99857
0.998642
0.998752
0.99889
0.999044
0.999202
0.999354
0.999493
0.999614
0.999715
0.999797
0.999861
0.999909
0.999946
0.999973
0.999993
1.00001
1.00002
1.00002
1.00003
1.00003
1.00003
1.00002
1.00002
1.00002
1.00001
1.00001
1.00001
1.00001
1
1
1
1
1
1
1
1
1
1
1
1
1
1
1
1
1
1
1
1
1
1
1.00003
1.00003
1.00003
1.00003
1.00002
1.00002
1.00001
1
0.999982
0.999952
0.999906
0.999839
0.999745
0.999621
0.999465
0.999275
0.999056
0.998816
0.998567
0.998325
0.998109
0.997938
0.997829
0.997792
0.997829
0.997938
0.998105
0.998315
0.998549
0.998788
0.999019
0.999229
0.999412
0.999564
0.999687
0.999783
0.999855
0.999909
0.999948
0.999976
0.999996
1.00001
1.00002
1.00002
1.00003
1.00003
1.00003
1.00002
1.00002
1.00002
1.00001
1.00001
1.00001
1.00001
1
1
1
1
1
1
1
1
1
1
1
1
1
1
1
1
1
1
1
1
1
1.00003
1.00003
1.00003
1.00003
1.00002
1.00002
1.00001
0.999991
0.999964
0.99992
0.999853
0.999753
0.999615
0.999431
0.999199
0.998918
0.998593
0.998235
0.997863
0.997501
0.997178
0.996923
0.99676
0.996704
0.996761
0.996924
0.997174
0.997488
0.997837
0.998194
0.998538
0.998851
0.999122
0.999349
0.999531
0.999672
0.999778
0.999856
0.999912
0.999952
0.99998
1
1.00001
1.00002
1.00003
1.00003
1.00003
1.00002
1.00002
1.00002
1.00001
1.00001
1.00001
1.00001
1
1
1
1
1
1
1
1
1
1
1
1
1
1
1
1
1
1
1
1
1
1.00003
1.00003
1.00003
1.00002
1.00002
1.00001
0.999999
0.999977
0.999939
0.999876
0.999777
0.999631
0.999429
0.999162
0.998823
0.998412
0.997936
0.997411
0.996864
0.996332
0.995857
0.995483
0.995245
0.995165
0.995251
0.995491
0.99586
0.99632
0.996833
0.997357
0.99786
0.998318
0.998716
0.999046
0.999311
0.999517
0.999671
0.999783
0.999864
0.99992
0.99996
0.999986
1
1.00002
1.00002
1.00003
1.00003
1.00003
1.00002
1.00002
1.00002
1.00001
1.00001
1.00001
1.00001
1
1
1
1
1
1
1
1
1
1
1
1
1
1
1
1
1
1
1
1
1.00003
1.00003
1.00002
1.00002
1.00001
1.00001
0.99999
0.99996
0.999905
0.999813
0.99967
0.999461
0.999171
0.998787
0.9983
0.997709
0.997022
0.996263
0.995471
0.994703
0.994018
0.99348
0.993139
0.993029
0.993156
0.993505
0.994038
0.994703
0.995442
0.996199
0.996924
0.997583
0.998154
0.998629
0.999009
0.999303
0.999524
0.999684
0.999798
0.999878
0.999932
0.999969
0.999994
1.00001
1.00002
1.00003
1.00003
1.00003
1.00002
1.00002
1.00002
1.00001
1.00001
1.00001
1.00001
1
1
1
1
1
1
1
1
1
1
1
1
1
1
1
1
1
1
1
1
1.00003
1.00003
1.00002
1.00002
1.00001
1
0.999979
0.999937
0.999858
0.999727
0.999523
0.999227
0.998817
0.998274
0.997586
0.996747
0.99577
0.99469
0.993565
0.992474
0.991506
0.990748
0.990271
0.99012
0.990305
0.990803
0.991561
0.992505
0.993553
0.994624
0.995652
0.996584
0.997392
0.998063
0.9986
0.999015
0.999325
0.99955
0.99971
0.99982
0.999896
0.999946
0.999979
1
1.00001
1.00002
1.00003
1.00003
1.00003
1.00002
1.00002
1.00002
1.00001
1.00001
1.00001
1
1
1
1
1
1
1
1
1
1
1
1
1
1
1
1
1
1
1
1
1.00003
1.00002
1.00002
1.00002
1.00001
0.999995
0.999965
0.999906
0.999795
0.99961
0.999325
0.998912
0.998341
0.997586
0.996626
0.995453
0.994087
0.992576
0.991006
0.989487
0.988144
0.987096
0.986439
0.986234
0.986496
0.987192
0.988249
0.989566
0.991027
0.992522
0.993953
0.995253
0.996377
0.997311
0.998056
0.998631
0.999061
0.999373
0.999593
0.999745
0.999848
0.999916
0.999961
0.99999
1.00001
1.00002
1.00002
1.00003
1.00003
1.00002
1.00002
1.00002
1.00001
1.00001
1.00001
1.00001
1
1
1
1
1
1
1
1
1
1
1
1
1
1
1
1
1
1
1
1.00003
1.00002
1.00002
1.00001
1
0.999988
0.999948
0.999864
0.99971
0.999454
0.999062
0.998496
0.997715
0.99668
0.995361
0.993747
0.991867
0.989792
0.987641
0.985568
0.983738
0.982311
0.981416
0.981136
0.981492
0.982443
0.983892
0.985698
0.987704
0.989756
0.991722
0.993505
0.995047
0.996325
0.997345
0.998131
0.998718
0.999143
0.999442
0.999648
0.999786
0.999878
0.999937
0.999976
1
1.00001
1.00002
1.00003
1.00003
1.00002
1.00002
1.00002
1.00001
1.00001
1.00001
1.00001
1
1
1
1
1
1
1
1
1
1
1
1
1
1
1
1
1
1
1
1.00002
1.00002
1.00002
1.00001
1
0.99998
0.999924
0.99981
0.999598
0.99925
0.998721
0.997959
0.996907
0.99551
0.993725
0.991541
0.988999
0.986203
0.983314
0.980534
0.978079
0.976159
0.974946
0.974557
0.975025
0.976299
0.978249
0.980688
0.983399
0.986175
0.988835
0.991247
0.993331
0.995057
0.996432
0.99749
0.998278
0.998848
0.999249
0.999524
0.999708
0.999829
0.999908
0.999958
0.999989
1.00001
1.00002
1.00002
1.00003
1.00002
1.00002
1.00002
1.00002
1.00001
1.00001
1.00001
1
1
1
1
1
1
1
1
1
1
1
1
1
1
1
1
1
1
1
1.00002
1.00002
1.00001
1.00001
0.999999
0.99997
0.999895
0.99974
0.999455
0.99899
0.998287
0.997278
0.995883
0.994027
0.991652
0.988748
0.985377
0.981681
0.97787
0.974201
0.970949
0.968388
0.966755
0.966211
0.966812
0.968491
0.971076
0.974316
0.977925
0.981622
0.985166
0.988379
0.991155
0.99345
0.995277
0.99668
0.997724
0.998477
0.999006
0.999369
0.999611
0.999769
0.999871
0.999936
0.999976
1
1.00002
1.00002
1.00003
1.00003
1.00002
1.00002
1.00002
1.00001
1.00001
1.00001
1
1
1
1
1
1
1
1
1
1
1
1
1
1
1
1
1
1
1
1.00002
1.00002
1.00001
1.00001
0.999997
0.999959
0.999859
0.99965
0.999274
0.998666
0.99775
0.996434
0.994614
0.992188
0.989082
0.985292
0.980908
0.976114
0.971172
0.966394
0.962131
0.958751
0.956577
0.955836
0.956603
0.95879
0.962166
0.966402
0.971122
0.975959
0.9806
0.984809
0.988446
0.991453
0.993844
0.995677
0.997039
0.99802
0.998708
0.999178
0.999491
0.999696
0.999827
0.999909
0.999961
0.999992
1.00001
1.00002
1.00002
1.00003
1.00002
1.00002
1.00002
1.00001
1.00001
1.00001
1.00001
1
1
1
1
1
1
1
1
1
1
1
1
1
1
1
1
1
1
1.00002
1.00001
1.00001
1.00001
0.999994
0.999946
0.999815
0.99954
0.999053
0.998271
0.997098
0.995413
0.993076
0.989957
0.985968
0.981117
0.975528
0.969422
0.963106
0.95696
0.951442
0.947048
0.944225
0.943267
0.944263
0.947084
0.951425
0.956859
0.96291
0.969112
0.975067
0.980475
0.985152
0.989023
0.9921
0.994458
0.996208
0.997467
0.998347
0.998948
0.999348
0.999608
0.999774
0.999878
0.999942
0.999982
1
1.00002
1.00002
1.00003
1.00002
1.00002
1.00002
1.00001
1.00001
1.00001
1.00001
1
1
1
1
1
1
1
1
1
1
1
1
1
1
1
1
1
1
1.00002
1.00001
1.00001
1.00001
0.999993
0.999931
0.999761
0.999409
0.998789
0.997803
0.996327
0.994204
0.991254
0.987314
0.98229
0.976206
0.969213
0.961562
0.9536
0.945802
0.93878
0.93321
0.929672
0.928524
0.929842
0.933439
0.938919
0.945749
0.953337
0.961111
0.968579
0.975372
0.98126
0.986141
0.990028
0.993009
0.99522
0.996809
0.99792
0.998676
0.999178
0.999504
0.999711
0.999841
0.999921
0.999969
0.999998
1.00001
1.00002
1.00002
1.00002
1.00002
1.00002
1.00002
1.00001
1.00001
1.00001
1
1
1
1
1
1
1
1
1
1
1
1
1
1
1
1
1
1
1.00002
1.00001
1
1.00001
0.999993
0.999915
0.999699
0.999255
0.998484
0.997262
0.995437
0.992807
0.989147
0.984265
0.978062
0.970581
0.961986
0.952543
0.942654
0.932932
0.924211
0.917372
0.91312
0.91184
0.913579
0.918081
0.924858
0.933262
0.942572
0.952095
0.961242
0.969573
0.976811
0.98283
0.987636
0.991331
0.994074
0.996047
0.997424
0.99836
0.998981
0.999384
0.99964
0.999799
0.999897
0.999956
0.99999
1.00001
1.00002
1.00002
1.00002
1.00002
1.00002
1.00002
1.00001
1.00001
1.00001
1
1
1
1
1
1
1
1
1
1
1
1
1
1
1
1
1
1
1.00001
1
1
1.00001
0.999994
0.999897
0.999628
0.999082
0.998141
0.996657
0.994438
0.991235
0.986777
0.980843
0.973337
0.964312
0.953928
0.942456
0.930384
0.918537
0.908016
0.899901
0.894967
0.893593
0.895793
0.901272
0.909468
0.919607
0.930821
0.942266
0.953237
0.963225
0.971912
0.979158
0.984966
0.989447
0.992783
0.995185
0.996863
0.998004
0.99876
0.999249
0.999559
0.999752
0.999869
0.99994
0.999982
1.00001
1.00002
1.00002
1.00002
1.00002
1.00002
1.00002
1.00001
1.00001
1.00001
1.00001
1
1
1
1
1
1
1
1
1
1
1
1
1
1
1
1
1
1.00001
1
1
1.00001
0.999997
0.999879
0.999554
0.998896
0.997768
0.995997
0.993348
0.989517
0.984186
0.977115
0.968213
0.957525
0.94519
0.93149
0.917059
0.903001
0.890688
0.881328
0.875695
0.874149
0.876726
0.883156
0.89284
0.904881
0.918212
0.931787
0.94475
0.956506
0.966715
0.97524
0.982094
0.987405
0.991374
0.99424
0.996247
0.997611
0.998516
0.9991
0.99947
0.9997
0.999839
0.999923
0.999972
1
1.00002
1.00002
1.00002
1.00002
1.00002
1.00002
1.00001
1.00001
1.00001
1.00001
1
1
1
1
1
1
1
1
1
1
1
1
1
1
1
1
1
1.00001
0.999995
1
1.00002
1
0.999864
0.999477
0.9987
0.997378
0.995304
0.992195
0.987694
0.981442
0.973182
0.962825
0.950397
0.935997
0.919952
0.903109
0.88688
0.872846
0.862228
0.855746
0.853785
0.856505
0.863755
0.874945
0.889046
0.904746
0.920726
0.935905
0.949577
0.961381
0.971213
0.979125
0.985275
0.989891
0.99324
0.99559
0.997192
0.998254
0.998941
0.999375
0.999644
0.999807
0.999905
0.999962
0.999995
1.00001
1.00002
1.00002
1.00002
1.00002
1.00002
1.00001
1.00001
1.00001
1.00001
1
1
1
1
1
1
1
1
1
1
1
1
1
1
1
1
1
1
0.999991
0.999998
1.00002
1.00001
0.999851
0.999403
0.998507
0.996984
0.994599
0.991017
0.985829
0.978636
0.969176
0.957353
0.943157
0.926655
0.908262
0.889086
0.870823
0.855138
0.84316
0.835554
0.832834
0.835391
0.843263
0.855904
0.872158
0.890448
0.909113
0.926775
0.942552
0.956051
0.967215
0.976174
0.983145
0.988395
0.992221
0.994917
0.99676
0.997984
0.998776
0.999277
0.999586
0.999774
0.999886
0.999952
0.999989
1.00001
1.00002
1.00002
1.00002
1.00002
1.00002
1.00001
1.00001
1.00001
1.00001
1
1
1
1
1
1
1
1
1
1
1
1
1
1
1
1
1
1
0.999985
0.999995
1.00003
1.00002
0.999845
0.999338
0.998326
0.996607
0.993913
0.989864
0.983993
0.975876
0.965247
0.951998
0.936078
0.917534
0.896915
0.875603
0.855493
0.838203
0.824722
0.815738
0.811992
0.814154
0.822448
0.836382
0.854715
0.875636
0.897138
0.917484
0.935546
0.950844
0.96337
0.973354
0.981105
0.986953
0.991228
0.994255
0.996332
0.997715
0.998611
0.999178
0.999529
0.999741
0.999868
0.999942
0.999984
1.00001
1.00002
1.00002
1.00002
1.00002
1.00002
1.00001
1.00001
1.00001
1.00001
1
1
1
1
1
1
1
1
1
1
1
1
1
1
1
1
1
0.999999
0.999979
0.999991
1.00003
1.00003
0.999846
0.99929
0.998169
0.996266
0.993281
0.988786
0.982269
0.973281
0.96156
0.946983
0.929456
0.909036
0.88643
0.863264
0.841518
0.822686
0.807662
0.797259
0.792478
0.794203
0.802765
0.817716
0.837804
0.861097
0.88531
0.90834
0.928746
0.945897
0.959794
0.970769
0.979244
0.985631
0.990311
0.993637
0.995928
0.997459
0.998454
0.999084
0.999473
0.999709
0.99985
0.999932
0.999978
1
1.00002
1.00002
1.00002
1.00002
1.00002
1.00002
1.00001
1.00001
1.00001
1
1
1
1
1
1
1
1
1
1
1
1
1
1
1
1
1
0.999998
0.999972
0.999985
1.00004
1.00005
0.999858
0.999263
0.998049
0.995984
0.992739
0.987842
0.980743
0.970976
0.958283
0.942531
0.923594
0.901561
0.877301
0.852616
0.82948
0.809265
0.792872
0.78131
0.775778
0.777221
0.785951
0.801546
0.822844
0.847945
0.874419
0.899851
0.922461
0.941399
0.956616
0.968518
0.97764
0.984491
0.989514
0.993094
0.995569
0.997229
0.998311
0.998997
0.999423
0.99968
0.999833
0.999923
0.999974
1
1.00002
1.00002
1.00002
1.00002
1.00002
1.00002
1.00001
1.00001
1.00001
1
1
1
1
1
1
1
1
1
1
1
1
1
1
1
1
1
0.999998
0.999966
0.999975
1.00003
1.00006
0.999881
0.999262
0.997979
0.995781
0.992319
0.987085
0.979496
0.969075
0.955571
0.938849
0.918769
0.895467
0.869953
0.844124
0.819898
0.798591
0.78121
0.768961
0.763122
0.764539
0.773385
0.789241
0.811109
0.837273
0.865318
0.89262
0.91708
0.937585
0.95398
0.966696
0.976364
0.983589
0.988879
0.992655
0.995274
0.997038
0.998191
0.998924
0.999379
0.999655
0.999819
0.999915
0.999969
0.999999
1.00001
1.00002
1.00002
1.00002
1.00002
1.00002
1.00001
1.00001
1.00001
1
1
1
1
1
1
1
1
1
1
1
1
1
1
1
1
1
0.999999
0.99996
0.999964
1.00003
1.00008
0.999914
0.999294
0.997967
0.995675
0.992052
0.986566
0.978603
0.967682
0.953561
0.936116
0.915212
0.891042
0.864715
0.838146
0.813191
0.791181
0.77328
0.760837
0.755102
0.756733
0.765698
0.781525
0.803392
0.829867
0.858702
0.887195
0.912988
0.934703
0.952033
0.965394
0.975477
0.982967
0.988437
0.992344
0.995061
0.996896
0.9981
0.998868
0.999346
0.999636
0.999808
0.999909
0.999966
0.999998
1.00001
1.00002
1.00002
1.00002
1.00002
1.00002
1.00001
1.00001
1.00001
1
1
1
1
1
1
1
1
1
1
1
1
1
1
1
1
1
1
0.999955
0.99995
1.00002
1.00009
0.999958
0.999357
0.99802
0.99568
0.991963
0.98632
0.978122
0.966877
0.952359
0.934464
0.91309
0.888483
0.8618
0.834919
0.809636
0.78734
0.769339
0.757051
0.751663
0.753656
0.762781
0.778441
0.799923
0.8261
0.854994
0.883962
0.910487
0.93296
0.950907
0.964688
0.975023
0.982657
0.988212
0.992178
0.994941
0.996813
0.998045
0.998833
0.999324
0.999623
0.999801
0.999905
0.999964
0.999997
1.00001
1.00002
1.00002
1.00002
1.00002
1.00002
1.00001
1.00001
1.00001
1
1
1
1
1
1
1
1
1
1
1
1
1
1
1
1
1
1.00001
0.999954
0.999933
1
1.00009
1.00001
0.999451
0.998142
0.995801
0.992063
0.986374
0.97809
0.966714
0.952031
0.933974
0.912487
0.887873
0.861291
0.834533
0.809336
0.787143
0.769344
0.757371
0.75237
0.754734
0.764045
0.779523
0.800448
0.825929
0.854307
0.883103
0.909756
0.932493
0.950688
0.964628
0.97503
0.982673
0.988214
0.992165
0.994921
0.996793
0.998028
0.998821
0.999316
0.999618
0.999798
0.999903
0.999963
0.999996
1.00001
1.00002
1.00002
1.00002
1.00002
1.00002
1.00001
1.00001
1.00001
1
1
1
1
1
1
1
1
1
1
1
1
1
1
1
1
1
1.00002
0.999956
0.99992
0.999975
1.00008
1.00005
0.99957
0.998328
0.996041
0.992356
0.986732
0.978523
0.967219
0.952612
0.934676
0.91342
0.889202
0.863144
0.836923
0.812207
0.790453
0.773064
0.761444
0.756727
0.759329
0.768768
0.784082
0.804424
0.829018
0.856489
0.884593
0.910828
0.933345
0.951408
0.965229
0.975501
0.983014
0.988441
0.992305
0.995001
0.996836
0.998051
0.998832
0.999322
0.999621
0.999799
0.999904
0.999963
0.999996
1.00001
1.00002
1.00002
1.00002
1.00002
1.00002
1.00001
1.00001
1.00001
1
1
1
1
1
1
1
1
1
1
1
1
1
1
1
1
1
1.00003
0.999966
0.999907
0.999943
1.00006
1.00009
0.999703
0.998569
0.996392
0.992833
0.987384
0.979407
0.968379
0.954089
0.936547
0.915837
0.892368
0.867203
0.841889
0.818006
0.796982
0.780182
0.768938
0.764372
0.767001
0.776416
0.791532
0.811302
0.834928
0.861242
0.888257
0.913613
0.935471
0.953038
0.966465
0.976415
0.983662
0.98888
0.992589
0.995177
0.996941
0.998112
0.998867
0.999341
0.999631
0.999805
0.999906
0.999965
0.999997
1.00001
1.00002
1.00002
1.00002
1.00002
1.00002
1.00001
1.00001
1.00001
1
1
1
1
1
1
1
1
1
1
1
1
1
1
1
1
1
1.00004
0.999982
0.999903
0.999909
1.00002
1.0001
0.999835
0.998852
0.996838
0.993475
0.9883
0.980702
0.970147
0.956409
0.939521
0.919636
0.89721
0.87324
0.849138
0.826379
0.806341
0.790325
0.779545
0.775065
0.777534
0.786727
0.80153
0.820683
0.843268
0.868236
0.893845
0.917936
0.938751
0.955494
0.968277
0.977725
0.984582
0.989506
0.993
0.995438
0.997101
0.998207
0.998922
0.999373
0.999649
0.999814
0.999912
0.999967
0.999998
1.00001
1.00002
1.00002
1.00002
1.00002
1.00002
1.00001
1.00001
1.00001
1
1
1
1
1
1
1
1
1
1
1
1
1
1
1
1
1
1.00005
1
0.999911
0.999878
0.999972
1.00009
0.999947
0.999151
0.997358
0.994256
0.989439
0.982345
0.972443
0.959477
0.943481
0.924669
0.903528
0.880991
0.858338
0.836931
0.818098
0.803075
0.792914
0.788553
0.790757
0.799543
0.813857
0.832259
0.853674
0.877114
0.901056
0.923562
0.943013
0.958652
0.970574
0.979364
0.985728
0.990286
0.993515
0.995768
0.997307
0.998332
0.998996
0.999415
0.999673
0.999828
0.999919
0.999971
1
1.00002
1.00002
1.00002
1.00002
1.00002
1.00002
1.00001
1.00001
1.00001
1
1
1
1
1
1
1
1
1
1
1
1
1
1
1
1
1
1.00006
1.00003
0.999931
0.999859
0.999912
1.00005
1.00002
0.999437
0.997916
0.995139
0.990749
0.984256
0.975152
0.96315
0.948265
0.930739
0.91108
0.890164
0.86914
0.849253
0.831801
0.817965
0.808593
0.804441
0.806354
0.814599
0.828224
0.845674
0.865739
0.887467
0.909526
0.9302
0.948035
0.96235
0.973242
0.981254
0.987041
0.991179
0.994108
0.996151
0.997548
0.998479
0.999084
0.999466
0.999702
0.999844
0.999928
0.999976
1
1.00002
1.00002
1.00002
1.00002
1.00002
1.00002
1.00001
1.00001
1.00001
1
1
1
1
1
1
1
1
1
1
1
1
1
1
1
1
1
1.00005
1.00005
0.999963
0.999859
0.999856
0.999978
1.00004
0.999676
0.998471
0.996077
0.992173
0.986348
0.978145
0.967258
0.953668
0.93761
0.919596
0.900445
0.881177
0.862928
0.846984
0.834477
0.826026
0.822172
0.823823
0.831459
0.844224
0.860502
0.879016
0.89886
0.918865
0.93753
0.953573
0.96641
0.976153
0.983304
0.988461
0.992144
0.99475
0.996567
0.997811
0.998641
0.999181
0.999523
0.999734
0.999862
0.999937
0.999981
1
1.00002
1.00002
1.00002
1.00002
1.00002
1.00001
1.00001
1.00001
1.00001
1
1
1
1
1
1
1
1
1
1
1
1
1
1
1
1
1
1.00004
1.00006
1
0.999884
0.999819
0.999893
1
0.999837
0.998969
0.997013
0.993648
0.988535
0.981287
0.971613
0.959452
0.945006
0.928764
0.911489
0.894067
0.877528
0.863167
0.852061
0.844585
0.841088
0.84254
0.849568
0.861355
0.876264
0.893039
0.910854
0.928687
0.945228
0.959375
0.970646
0.979174
0.985422
0.989924
0.993138
0.995412
0.996998
0.998084
0.99881
0.999283
0.999583
0.999769
0.999881
0.999948
0.999987
1.00001
1.00002
1.00002
1.00002
1.00002
1.00002
1.00001
1.00001
1.00001
1.00001
1
1
1
1
1
1
1
1
1
1
1
1
1
1
1
1
1
1.00002
1.00006
1.00004
0.999928
0.999815
0.999816
0.999921
0.9999
0.999358
0.997873
0.9951
0.990733
0.984461
0.976034
0.965371
0.952624
0.938246
0.922926
0.907396
0.892599
0.879852
0.870152
0.86363
0.860516
0.861856
0.868321
0.879055
0.892438
0.90732
0.923005
0.938607
0.952983
0.965199
0.974882
0.982183
0.987525
0.991373
0.994122
0.996067
0.997426
0.998356
0.998979
0.999385
0.999643
0.999803
0.999901
0.999959
0.999993
1.00001
1.00002
1.00002
1.00002
1.00002
1.00002
1.00001
1.00001
1.00001
1.00001
1
1
1
1
1
1
1
1
1
1
1
1
1
1
1
1
1
1
1.00004
1.00006
0.999982
0.999848
0.999772
0.999819
0.999871
0.999598
0.998581
0.996435
0.992847
0.987556
0.980368
0.971201
0.96017
0.947697
0.934365
0.920737
0.907689
0.896559
0.888208
0.882558
0.879835
0.881168
0.887132
0.896744
0.908469
0.921362
0.934883
0.948261
0.9605
0.970822
0.978956
0.985068
0.989536
0.992757
0.995062
0.996695
0.997836
0.998618
0.999141
0.999483
0.999701
0.999837
0.99992
0.999969
0.999998
1.00001
1.00002
1.00002
1.00002
1.00002
1.00002
1.00001
1.00001
1.00001
1.00001
1
1
1
1
1
1
1
1
1
1
1
1
1
1
1
1
1
0.999991
1.00002
1.00006
1.00003
0.999908
0.999778
0.999741
0.999783
0.999684
0.999073
0.997548
0.994762
0.990463
0.984488
0.976763
0.967403
0.956811
0.945438
0.933671
0.92236
0.912834
0.905739
0.900856
0.898549
0.899979
0.90546
0.913857
0.923824
0.934702
0.946103
0.95734
0.967537
0.976062
0.982737
0.987739
0.991396
0.994037
0.995931
0.997275
0.998216
0.998861
0.999293
0.999575
0.999755
0.999868
0.999938
0.999979
1
1.00002
1.00002
1.00002
1.00002
1.00002
1.00002
1.00001
1.00001
1.00001
1.00001
1
1
1
1
1
1
1
1
1
1
1
1
1
1
1
1
1
0.999994
0.999999
1.00004
1.00005
0.999973
0.999831
0.999719
0.999693
0.999656
0.999335
0.998356
0.99635
0.993044
0.988256
0.981904
0.974142
0.965358
0.955843
0.945845
0.93625
0.928291
0.922327
0.918129
0.916292
0.917875
0.922799
0.929853
0.938018