/*--------------------------------*- C++ -*----------------------------------*\
  =========                 |
  \\      /  F ield         | OpenFOAM: The Open Source CFD Toolbox
   \\    /   O peration     | Website:  https://openfoam.org
    \\  /    A nd           | Version:  6
     \\/     M anipulation  |
\*---------------------------------------------------------------------------*/
FoamFile
{
    version     2.0;
    format      ascii;
    class       volScalarField;
    location    "4.48";
    object      mag(U);
}
// * * * * * * * * * * * * * * * * * * * * * * * * * * * * * * * * * * * * * //

dimensions      [0 1 -1 0 0 0 0];

internalField   nonuniform List<scalar> 
10000
(
0.999967
0.999968
0.999968
0.999968
0.99997
0.99997
0.99997
0.99997
0.99997
0.99997
0.99997
0.99997
0.99997
0.99997
0.99997
0.99997
0.99997
0.99997
0.99997
0.99997
0.99997
0.99997
0.99997
0.99997
0.99997
0.99997
0.99997
0.99997
0.99997
0.99997
0.99997
0.99997
0.99997
0.99997
0.99997
0.99997
0.99997
0.999969
0.999969
0.999969
0.999968
0.999968
0.999969
0.999969
0.999971
0.999974
0.999979
0.999986
0.999995
1
1.00001
1.00002
1.00003
1.00002
1.00002
1.00001
1
1
1.00002
1.00007
1.00016
1.00029
1.00047
1.00069
1.00095
1.00125
1.00157
1.00188
1.00219
1.00247
1.00271
1.00289
1.003
1.00303
1.00299
1.00287
1.00268
1.00244
1.00216
1.00187
1.00158
1.0013
1.00104
1.00081
1.00061
1.00045
1.00032
1.00021
1.00014
1.00008
1.00003
1.00001
0.999986
0.999975
0.999969
0.999966
0.999964
0.999965
0.999966
0.999966
0.999966
0.999967
0.999968
0.999968
0.999968
0.99997
0.99997
0.99997
0.99997
0.99997
0.99997
0.99997
0.99997
0.99997
0.99997
0.99997
0.99997
0.99997
0.99997
0.99997
0.99997
0.99997
0.99997
0.99997
0.99997
0.99997
0.99997
0.99997
0.99997
0.99997
0.99997
0.99997
0.99997
0.99997
0.99997
0.99997
0.999969
0.999969
0.999969
0.999968
0.999968
0.999968
0.999967
0.999969
0.999971
0.999975
0.999982
0.999991
1
1.00001
1.00002
1.00003
1.00003
1.00002
1.00001
0.999997
0.999992
1.00001
1.00005
1.00014
1.00029
1.0005
1.00077
1.0011
1.00149
1.00192
1.00237
1.00283
1.00326
1.00366
1.00399
1.00425
1.00441
1.00447
1.00441
1.00424
1.00397
1.00363
1.00322
1.00279
1.00235
1.00193
1.00154
1.0012
1.00091
1.00067
1.00047
1.00032
1.0002
1.00012
1.00006
1.00002
0.999992
0.999976
0.999967
0.999963
0.999962
0.999962
0.999964
0.999965
0.999964
0.999966
0.999967
0.999968
0.999968
0.99997
0.99997
0.99997
0.99997
0.99997
0.99997
0.99997
0.99997
0.99997
0.99997
0.99997
0.99997
0.99997
0.99997
0.99997
0.99997
0.99997
0.99997
0.99997
0.99997
0.99997
0.99997
0.99997
0.99997
0.99997
0.99997
0.99997
0.99997
0.99997
0.99997
0.999969
0.999969
0.999968
0.999968
0.999968
0.999967
0.999966
0.999967
0.999968
0.99997
0.999975
0.999983
0.999994
1.00001
1.00002
1.00003
1.00003
1.00002
1.00001
0.999986
0.999968
0.999967
0.999997
1.00008
1.00023
1.00046
1.00077
1.00117
1.00166
1.00221
1.0028
1.00342
1.00404
1.00464
1.00518
1.00564
1.006
1.00624
1.00635
1.00629
1.00609
1.00574
1.00527
1.0047
1.00408
1.00345
1.00284
1.00227
1.00177
1.00133
1.00098
1.00069
1.00047
1.0003
1.00018
1.0001
1.00004
1
0.999978
0.999966
0.99996
0.999958
0.999958
0.999961
0.999963
0.999962
0.999964
0.999966
0.999967
0.999968
0.999968
0.99997
0.99997
0.99997
0.99997
0.99997
0.99997
0.99997
0.99997
0.99997
0.99997
0.99997
0.99997
0.99997
0.99997
0.99997
0.99997
0.99997
0.99997
0.99997
0.99997
0.99997
0.99997
0.99997
0.99997
0.99997
0.99997
0.99997
0.99997
0.99997
0.999969
0.999969
0.999968
0.999968
0.999967
0.999966
0.999965
0.999965
0.999966
0.99997
0.999975
0.999985
0.999998
1.00001
1.00002
1.00003
1.00002
1
0.99997
0.999935
0.999908
0.999913
0.999969
1.0001
1.00033
1.00067
1.00113
1.00169
1.00236
1.00309
1.00388
1.0047
1.0055
1.00628
1.00699
1.00761
1.00811
1.00847
1.00866
1.00866
1.00845
1.00803
1.00744
1.0067
1.00586
1.00498
1.00412
1.00331
1.00258
1.00195
1.00143
1.00102
1.00069
1.00045
1.00028
1.00015
1.00007
1.00001
0.999982
0.999964
0.999956
0.999954
0.999955
0.999957
0.999959
0.999959
0.999962
0.999964
0.999966
0.999967
0.999968
0.999968
0.99997
0.99997
0.99997
0.99997
0.99997
0.99997
0.99997
0.99997
0.99997
0.99997
0.99997
0.99997
0.99997
0.99997
0.99997
0.99997
0.99997
0.99997
0.99997
0.99997
0.99997
0.99997
0.99997
0.99997
0.99997
0.99997
0.99997
0.999969
0.999969
0.999969
0.999967
0.999966
0.999965
0.999964
0.999962
0.999962
0.999964
0.999968
0.999975
0.999985
0.999999
1.00001
1.00002
1.00001
0.999991
0.99995
0.999894
0.999837
0.999801
0.999814
0.999908
1.00011
1.00045
1.00093
1.00156
1.00231
1.00317
1.00412
1.00511
1.00612
1.00711
1.00807
1.00897
1.00977
1.01044
1.01097
1.0113
1.01141
1.01126
1.01084
1.01017
1.00927
1.0082
1.00704
1.00586
1.00474
1.00372
1.00283
1.00208
1.00149
1.00102
1.00067
1.00041
1.00023
1.00011
1.00004
0.999989
0.999964
0.999952
0.999948
0.999949
0.999952
0.999956
0.999955
0.999959
0.999962
0.999964
0.999967
0.999967
0.999968
0.999969
0.99997
0.99997
0.99997
0.99997
0.99997
0.99997
0.99997
0.99997
0.99997
0.99997
0.99997
0.99997
0.99997
0.99997
0.99997
0.99997
0.99997
0.99997
0.99997
0.99997
0.99997
0.99997
0.99997
0.99997
0.99997
0.99997
0.999969
0.999968
0.999968
0.999967
0.999966
0.999964
0.999962
0.999959
0.999958
0.99996
0.999964
0.999973
0.999983
0.999996
1
1
0.999978
0.999928
0.999853
0.999761
0.999672
0.999623
0.999652
0.999799
1.0001
1.00057
1.00122
1.00204
1.00299
1.00405
1.00518
1.00635
1.00752
1.00868
1.0098
1.01086
1.01184
1.01271
1.01345
1.014
1.01431
1.01434
1.01404
1.01338
1.01239
1.01113
1.00968
1.00816
1.00667
1.00527
1.00404
1.003
1.00215
1.00149
1.00098
1.00062
1.00036
1.00018
1.00007
1
0.999966
0.999948
0.999941
0.999942
0.999946
0.99995
0.99995
0.999956
0.99996
0.999963
0.999966
0.999967
0.999968
0.999968
0.99997
0.99997
0.99997
0.99997
0.99997
0.99997
0.99997
0.99997
0.99997
0.99997
0.99997
0.99997
0.99997
0.99997
0.99997
0.99997
0.99997
0.99997
0.99997
0.99997
0.99997
0.99997
0.99997
0.99997
0.99997
0.999969
0.999969
0.999968
0.999967
0.999966
0.999964
0.999961
0.999958
0.999955
0.999954
0.999954
0.999959
0.999967
0.999978
0.999986
0.999983
0.999961
0.999908
0.999815
0.999687
0.999541
0.999412
0.999348
0.999404
0.999626
1.00005
1.00068
1.00151
1.00251
1.00364
1.00486
1.00612
1.0074
1.00866
1.00991
1.01113
1.01231
1.01344
1.01451
1.01549
1.01633
1.01697
1.01732
1.01729
1.01683
1.01591
1.01457
1.01291
1.01106
1.00916
1.00733
1.00568
1.00425
1.00308
1.00214
1.00143
1.00091
1.00054
1.00029
1.00013
1.00003
0.999973
0.999945
0.999935
0.999934
0.999938
0.999945
0.999944
0.999951
0.999956
0.999961
0.999963
0.999966
0.999967
0.999968
0.999968
0.99997
0.99997
0.99997
0.99997
0.99997
0.99997
0.99997
0.99997
0.99997
0.99997
0.99997
0.99997
0.99997
0.99997
0.99997
0.99997
0.99997
0.99997
0.99997
0.99997
0.99997
0.99997
0.99997
0.999969
0.999969
0.999968
0.999968
0.999966
0.999964
0.999961
0.999958
0.999954
0.999949
0.999947
0.999947
0.999951
0.999958
0.999964
0.999963
0.999943
0.999889
0.999786
0.999627
0.999422
0.999205
0.999026
0.998952
0.999052
0.999371
0.999935
1.00074
1.00174
1.00289
1.00414
1.00543
1.00672
1.00799
1.00923
1.01045
1.01166
1.01287
1.0141
1.01533
1.01656
1.01775
1.01881
1.01965
1.02012
1.0201
1.0195
1.01831
1.0166
1.01451
1.01223
1.00995
1.00781
1.00591
1.00432
1.00305
1.00206
1.00133
1.00081
1.00045
1.00022
1.00007
0.999989
0.999946
0.999928
0.999925
0.999929
0.999937
0.999937
0.999945
0.999953
0.999958
0.999962
0.999965
0.999966
0.999967
0.999968
0.999969
0.99997
0.99997
0.99997
0.99997
0.99997
0.99997
0.99997
0.99997
0.99997
0.99997
0.99997
0.99997
0.99997
0.99997
0.99997
0.99997
0.99997
0.99997
0.99997
0.99997
0.99997
0.999969
0.999969
0.999969
0.999969
0.999966
0.999965
0.999962
0.999958
0.999953
0.999947
0.999943
0.999937
0.999937
0.999938
0.999942
0.99994
0.999923
0.99987
0.999765
0.999587
0.999332
0.999024
0.998714
0.998482
0.998412
0.998578
0.999022
0.999743
1.0007
1.00184
1.00306
1.00432
1.00555
1.00672
1.00783
1.00889
1.00994
1.01101
1.01215
1.01338
1.01471
1.01616
1.01769
1.01924
1.0207
1.02188
1.02259
1.02264
1.02192
1.02045
1.01835
1.01582
1.01312
1.01047
1.00805
1.00597
1.00425
1.00291
1.00191
1.00118
1.00068
1.00035
1.00014
1.00002
0.999954
0.999925
0.999917
0.99992
0.999928
0.999928
0.999938
0.999948
0.999954
0.99996
0.999963
0.999966
0.999967
0.999968
0.999969
0.99997
0.99997
0.99997
0.99997
0.99997
0.99997
0.99997
0.99997
0.99997
0.99997
0.99997
0.99997
0.99997
0.99997
0.99997
0.99997
0.99997
0.99997
0.99997
0.99997
0.99997
0.999969
0.999969
0.999968
0.999968
0.999966
0.999964
0.99996
0.999954
0.999947
0.999939
0.999932
0.999925
0.999922
0.99992
0.999917
0.999901
0.999854
0.999752
0.999568
0.99928
0.998894
0.998451
0.998036
0.997757
0.997716
0.997982
0.998571
0.999444
1.00052
1.0017
1.00289
1.00401
1.00502
1.0059
1.00668
1.0074
1.00813
1.00892
1.00986
1.01098
1.01232
1.01391
1.01574
1.01777
1.0199
1.02194
1.02363
1.02467
1.02483
1.024
1.02223
1.01971
1.01675
1.01366
1.01069
1.00805
1.00582
1.00405
1.00269
1.0017
1.00101
1.00054
1.00025
1.00007
0.999973
0.999926
0.99991
0.99991
0.999918
0.999919
0.999931
0.999942
0.99995
0.999956
0.999961
0.999965
0.999966
0.999967
0.999968
0.999969
0.99997
0.99997
0.99997
0.99997
0.99997
0.99997
0.99997
0.99997
0.99997
0.99997
0.99997
0.99997
0.99997
0.99997
0.99997
0.99997
0.99997
0.99997
0.99997
0.99997
0.999969
0.999969
0.999968
0.999967
0.999964
0.999961
0.999957
0.999948
0.99994
0.99993
0.999919
0.99991
0.999903
0.999895
0.999879
0.999838
0.999746
0.999567
0.999268
0.998829
0.998268
0.997666
0.997144
0.996844
0.996872
0.997274
0.998019
0.999017
1.00014
1.00126
1.00227
1.00309
1.0037
1.00412
1.00441
1.00463
1.0049
1.00529
1.00591
1.00682
1.00808
1.00971
1.01174
1.01417
1.01692
1.01984
1.02264
1.02494
1.02637
1.02664
1.02566
1.02356
1.02063
1.01725
1.0138
1.01059
1.00779
1.0055
1.00372
1.0024
1.00146
1.00082
1.0004
1.00015
1.00001
0.999936
0.999906
0.999901
0.999907
0.999909
0.999923
0.999935
0.999945
0.999953
0.999959
0.999962
0.999966
0.999967
0.999968
0.999969
0.99997
0.99997
0.99997
0.99997
0.99997
0.99997
0.99997
0.99997
0.99997
0.99997
0.99997
0.99997
0.99997
0.99997
0.99997
0.99997
0.99997
0.99997
0.99997
0.99997
0.999969
0.999969
0.999968
0.999966
0.999962
0.999958
0.999952
0.999942
0.999931
0.999917
0.999903
0.999891
0.999877
0.999859
0.999822
0.999742
0.999581
0.999292
0.998832
0.998189
0.997415
0.99664
0.996035
0.995762
0.995913
0.996484
0.99738
0.998448
0.999521
1.00045
1.00112
1.00148
1.00153
1.00133
1.00097
1.00057
1.00025
1.00014
1.00036
1.00099
1.00208
1.00368
1.00582
1.00852
1.01176
1.01546
1.01934
1.02302
1.02598
1.02777
1.02808
1.02688
1.02439
1.02103
1.01728
1.01355
1.01017
1.00731
1.00503
1.0033
1.00205
1.00119
1.00062
1.00027
1.00006
0.999956
0.999907
0.999893
0.999898
0.999899
0.999914
0.999928
0.99994
0.999949
0.999957
0.999962
0.999965
0.999966
0.999967
0.999968
0.999969
0.99997
0.99997
0.99997
0.99997
0.99997
0.99997
0.99997
0.99997
0.99997
0.99997
0.99997
0.99997
0.99997
0.99997
0.99997
0.99997
0.99997
0.99997
0.99997
0.999969
0.999968
0.999967
0.999964
0.999961
0.999955
0.999946
0.999934
0.99992
0.999903
0.999884
0.999865
0.999844
0.999808
0.99974
0.999601
0.99934
0.998895
0.998218
0.997318
0.996302
0.995367
0.994733
0.994562
0.994897
0.99566
0.996679
0.997747
0.99866
0.999258
0.999438
0.99917
0.998494
0.99751
0.996359
0.995202
0.994208
0.993533
0.993309
0.993631
0.994547
0.996087
0.998271
1.00114
1.00472
1.009
1.0138
1.01876
1.02333
1.02689
1.02892
1.02914
1.02761
1.02469
1.02091
1.01684
1.01293
1.00948
1.00665
1.00445
1.00282
1.00169
1.00092
1.00044
1.00015
0.999994
0.999918
0.99989
0.999888
0.99989
0.999905
0.99992
0.999934
0.999945
0.999953
0.999959
0.999963
0.999965
0.999967
0.999968
0.999969
0.99997
0.99997
0.99997
0.99997
0.99997
0.99997
0.99997
0.99997
0.99997
0.99997
0.99997
0.99997
0.99997
0.99997
0.99997
0.99997
0.99997
0.99997
0.999969
0.999969
0.999967
0.999966
0.999962
0.999958
0.99995
0.99994
0.999925
0.999906
0.999884
0.999861
0.999834
0.999798
0.999738
0.999623
0.999399
0.998998
0.998339
0.997383
0.996179
0.994918
0.993877
0.993305
0.993326
0.993904
0.994866
0.995968
0.99695
0.997584
0.997706
0.99723
0.996153
0.99456
0.992609
0.990502
0.988462
0.986704
0.98542
0.984759
0.984811
0.985608
0.987146
0.989416
0.992437
0.996262
1.00094
1.0064
1.01241
1.01845
1.02383
1.02782
1.02987
1.0298
1.02782
1.02442
1.02027
1.01597
1.01198
1.00857
1.00585
1.00379
1.00232
1.00132
1.00067
1.00028
1.00005
0.99994
0.999893
0.999882
0.999882
0.999896
0.999912
0.999928
0.999941
0.99995
0.999957
0.999962
0.999965
0.999966
0.999968
0.999969
0.99997
0.99997
0.99997
0.99997
0.99997
0.99997
0.99997
0.99997
0.99997
0.99997
0.99997
0.99997
0.99997
0.99997
0.99997
0.99997
0.99997
0.99997
0.999969
0.999968
0.999967
0.999966
0.999961
0.999955
0.999945
0.999932
0.999913
0.99989
0.999863
0.999832
0.999793
0.999739
0.999642
0.999459
0.999117
0.998524
0.997588
0.996287
0.994754
0.993287
0.992239
0.99185
0.99216
0.993024
0.994178
0.995304
0.9961
0.996318
0.995792
0.994454
0.992339
0.989586
0.986429
0.983156
0.98007
0.977454
0.975541
0.974492
0.974384
0.975212
0.976914
0.979422
0.982706
0.9868
0.991787
0.997717
1.00448
1.0117
1.01871
1.02467
1.02879
1.0306
1.03003
1.02748
1.02361
1.01914
1.01472
1.01077
1.0075
1.00497
1.00312
1.00183
1.00098
1.00045
1.00014
0.999979
0.999905
0.99988
0.999877
0.999889
0.999905
0.999922
0.999936
0.999947
0.999955
0.999961
0.999964
0.999966
0.999967
0.999969
0.999969
0.99997
0.99997
0.99997
0.99997
0.99997
0.99997
0.99997
0.99997
0.99997
0.99997
0.99997
0.99997
0.99997
0.99997
0.99997
0.99997
0.999969
0.999969
0.999968
0.999966
0.999964
0.999959
0.999951
0.999939
0.999923
0.9999
0.999871
0.999839
0.999797
0.999744
0.999662
0.999514
0.999236
0.998734
0.997887
0.9966
0.994905
0.993056
0.991478
0.990566
0.990493
0.991175
0.99235
0.993664
0.994738
0.995222
0.994846
0.993446
0.990969
0.987502
0.983259
0.978576
0.973854
0.969509
0.965915
0.963365
0.962032
0.961959
0.963068
0.965215
0.968241
0.972033
0.976574
0.98194
0.988253
0.995545
1.00362
1.01194
1.01967
1.02587
1.02978
1.03103
1.02977
1.02658
1.02227
1.0176
1.01319
1.00939
1.00635
1.00407
1.00246
1.00137
1.00068
1.00027
1.00004
0.999928
0.999884
0.999877
0.999882
0.999898
0.999915
0.999931
0.999943
0.999952
0.999958
0.999963
0.999965
0.999967
0.999969
0.999969
0.99997
0.99997
0.99997
0.99997
0.99997
0.99997
0.99997
0.99997
0.99997
0.99997
0.99997
0.99997
0.99997
0.99997
0.99997
0.99997
0.99997
0.999969
0.999967
0.999966
0.999962
0.999957
0.999946
0.999932
0.999912
0.999886
0.999849
0.99981
0.999758
0.999683
0.999563
0.999345
0.99894
0.998225
0.997053
0.995346
0.993236
0.991142
0.989604
0.988995
0.989361
0.990474
0.991959
0.993375
0.994282
0.994281
0.993072
0.990484
0.986495
0.981251
0.975074
0.968432
0.961886
0.956003
0.951285
0.948105
0.946648
0.946899
0.948671
0.951681
0.955634
0.960312
0.965613
0.971579
0.978356
0.986092
0.994771
1.00406
1.01323
1.02132
1.02735
1.03063
1.03104
1.02895
1.02513
1.02047
1.01574
1.01146
1.00792
1.0052
1.00322
1.00186
1.00097
1.00043
1.00012
0.999966
0.999897
0.999882
0.99988
0.999892
0.99991
0.999926
0.999939
0.99995
0.999957
0.999962
0.999965
0.999966
0.999968
0.999969
0.99997
0.99997
0.99997
0.99997
0.99997
0.99997
0.99997
0.99997
0.99997
0.99997
0.99997
0.99997
0.99997
0.99997
0.99997
0.99997
0.99997
0.999968
0.999967
0.999965
0.99996
0.999953
0.999943
0.999924
0.999901
0.999869
0.999826
0.999776
0.99971
0.999608
0.999435
0.999125
0.998553
0.997562
0.995991
0.993811
0.991315
0.989112
0.987803
0.987662
0.988561
0.990131
0.991889
0.993316
0.993895
0.99317
0.990799
0.986607
0.980609
0.973037
0.964348
0.955192
0.946335
0.938559
0.932539
0.928755
0.927414
0.928412
0.931387
0.935843
0.941288
0.947348
0.953831
0.960726
0.968183
0.976427
0.985602
0.995584
1.00586
1.01552
1.0235
1.02887
1.03116
1.03051
1.02754
1.02317
1.01831
1.01366
1.00966
1.00647
1.0041
1.00244
1.00133
1.00064
1.00024
1.00002
0.999919
0.999894
0.999881
0.99989
0.999905
0.999921
0.999936
0.999947
0.999955
0.99996
0.999964
0.999966
0.999967
0.999969
0.99997
0.99997
0.99997
0.99997
0.99997
0.99997
0.99997
0.99997
0.99997
0.99997
0.99997
0.99997
0.99997
0.99997
0.99997
0.99997
0.99997
0.999967
0.999967
0.999964
0.999958
0.999951
0.999937
0.999915
0.999887
0.999852
0.9998
0.999737
0.999654
0.999516
0.999275
0.998841
0.998058
0.996725
0.994679
0.992007
0.989223
0.987101
0.986221
0.986677
0.988162
0.990174
0.992136
0.993434
0.993466
0.991696
0.987738
0.981409
0.972778
0.962182
0.950256
0.937885
0.926117
0.916012
0.908487
0.904173
0.903298
0.905634
0.910566
0.917271
0.924954
0.933029
0.941193
0.9494
0.957814
0.966721
0.976397
0.986919
0.997997
1.00889
1.01856
1.02589
1.03015
1.03116
1.02934
1.02556
1.02079
1.01591
1.0115
1.00787
1.0051
1.00311
1.00176
1.0009
1.00038
1.0001
0.999953
0.999915
0.999887
0.999888
0.999901
0.999918
0.999933
0.999945
0.999953
0.999959
0.999963
0.999966
0.999967
0.999969
0.999969
0.99997
0.99997
0.99997
0.99997
0.99997
0.99997
0.99997
0.99997
0.99997
0.99997
0.99997
0.99997
0.99997
0.999969
0.999969
0.99997
0.999967
0.999966
0.999964
0.999955
0.999946
0.999932
0.999906
0.999873
0.999833
0.999772
0.999692
0.999588
0.999405
0.999075
0.998483
0.997437
0.995689
0.993112
0.989984
0.987074
0.985254
0.98497
0.986106
0.988186
0.990594
0.992649
0.993632
0.992828
0.98961
0.983535
0.974422
0.962395
0.947936
0.931893
0.91546
0.900053
0.887111
0.877875
0.87318
0.87328
0.877774
0.88568
0.895707
0.906612
0.917493
0.927904
0.937804
0.947424
0.957146
0.967369
0.978351
0.990017
1.00184
1.01287
1.02196
1.02812
1.0309
1.03045
1.02751
1.02307
1.01811
1.0134
1.00937
1.0062
1.00387
1.00226
1.00121
1.00056
1.00019
1
0.999945
0.999899
0.999891
0.9999
0.999915
0.99993
0.999942
0.999952
0.999958
0.999962
0.999966
0.999967
0.999969
0.999969
0.99997
0.99997
0.99997
0.99997
0.99997
0.99997
0.99997
0.99997
0.99997
0.99997
0.99997
0.999969
0.99997
0.99997
0.999968
0.99997
0.999967
0.999965
0.999964
0.999953
0.999942
0.999928
0.999896
0.999856
0.999814
0.999742
0.999642
0.999511
0.999273
0.998828
0.99804
0.996676
0.994445
0.991311
0.987828
0.985005
0.983692
0.984121
0.985964
0.988613
0.991339
0.993342
0.993769
0.991775
0.986622
0.977805
0.965143
0.94884
0.929533
0.908344
0.886852
0.866961
0.850618
0.839503
0.834711
0.836517
0.84426
0.856462
0.871189
0.886565
0.90123
0.914541
0.926488
0.937467
0.948044
0.958792
0.970139
0.982215
0.994696
1.00678
1.01734
1.02526
1.0298
1.03085
1.02895
1.02505
1.0202
1.01529
1.01092
1.00738
1.00471
1.00282
1.00157
1.00078
1.00032
1.00007
0.999986
0.999917
0.999897
0.999901
0.999914
0.999928
0.999941
0.99995
0.999958
0.999962
0.999965
0.999966
0.999968
0.999969
0.99997
0.99997
0.99997
0.99997
0.99997
0.99997
0.99997
0.99997
0.99997
0.99997
0.99997
0.999968
0.99997
0.99997
0.999967
0.99997
0.999966
0.999963
0.999964
0.999951
0.999936
0.999924
0.999889
0.999838
0.999793
0.999714
0.999587
0.99942
0.999118
0.998532
0.997502
0.995763
0.992996
0.989325
0.985646
0.983139
0.982497
0.98369
0.986227
0.989393
0.992337
0.994106
0.99369
0.990089
0.982441
0.970175
0.953112
0.931541
0.906284
0.878782
0.85111
0.825804
0.805493
0.792432
0.788038
0.792557
0.804946
0.823054
0.844122
0.865459
0.885078
0.902037
0.916372
0.928744
0.940046
0.951127
0.962634
0.974888
0.987755
1.00059
1.01233
1.02178
1.02799
1.03058
1.02986
1.02668
1.0221
1.01712
1.01249
1.00861
1.0056
1.00344
1.00197
1.00103
1.00046
1.00014
1.00004
0.999941
0.999908
0.999904
0.999914
0.999927
0.999939
0.999949
0.999957
0.999962
0.999965
0.999966
0.999968
0.999969
0.99997
0.99997
0.99997
0.99997
0.99997
0.99997
0.99997
0.99997
0.99997
0.99997
0.99997
0.99997
0.99997
0.999971
0.999966
0.99997
0.999968
0.999959
0.999963
0.999952
0.999928
0.999918
0.999883
0.999818
0.999769
0.999686
0.999525
0.99931
0.998936
0.998183
0.996862
0.994693
0.991366
0.987235
0.983552
0.981566
0.981695
0.983652
0.986839
0.99046
0.993503
0.994824
0.993232
0.987561
0.976808
0.960333
0.937961
0.910069
0.877683
0.842624
0.807583
0.775917
0.751148
0.736267
0.733057
0.741637
0.760368
0.786201
0.815373
0.844247
0.870085
0.891531
0.908616
0.922335
0.934058
0.945072
0.956345
0.968417
0.981333
0.994587
1.00719
1.01791
1.02562
1.02972
1.03025
1.02792
1.02376
1.01884
1.01403
1.00985
1.00654
1.0041
1.00241
1.0013
1.00063
1.00024
1.0001
0.999974
0.999924
0.999911
0.999917
0.999928
0.999939
0.999948
0.999956
0.999961
0.999965
0.999966
0.999968
0.999968
0.999969
0.99997
0.99997
0.99997
0.99997
0.99997
0.99997
0.99997
0.99997
0.99997
0.99997
0.99997
0.999968
0.999972
0.999966
0.999969
0.99997
0.999956
0.999961
0.999953
0.99992
0.99991
0.999882
0.999799
0.999742
0.999661
0.999461
0.999181
0.998725
0.997782
0.996116
0.993467
0.989598
0.985132
0.98164
0.980327
0.981273
0.983956
0.987738
0.991743
0.994751
0.995385
0.992256
0.984021
0.969539
0.948091
0.919511
0.884259
0.843581
0.799753
0.75621
0.717334
0.687775
0.671462
0.6706
0.685001
0.712083
0.74756
0.786494
0.824283
0.857451
0.884168
0.904372
0.919369
0.931107
0.941481
0.951926
0.963288
0.975794
0.989065
1.00218
1.01387
1.02288
1.02838
1.03018
1.02877
1.02515
1.0204
1.0155
1.01109
1.00749
1.00479
1.00288
1.00161
1.00081
1.00035
1.00017
1.00001
0.999944
0.999921
0.999921
0.999929
0.99994
0.999949
0.999955
0.99996
0.999965
0.999966
0.999968
0.999969
0.999969
0.99997
0.99997
0.99997
0.99997
0.99997
0.99997
0.99997
0.99997
0.99997
0.99997
0.99997
0.999967
0.999973
0.999966
0.999965
0.999975
0.999954
0.999955
0.999959
0.999914
0.999898
0.999884
0.999785
0.999707
0.999636
0.9994
0.99903
0.998478
0.997333
0.995271
0.992102
0.987752
0.983111
0.979969
0.979418
0.981189
0.984549
0.988854
0.993166
0.996003
0.995696
0.990654
0.979376
0.960578
0.933461
0.897866
0.854351
0.804417
0.750845
0.697912
0.651173
0.616666
0.599584
0.602687
0.62521
0.663047
0.71015
0.760187
0.807709
0.848744
0.881126
0.904646
0.920815
0.932132
0.941201
0.950082
0.960045
0.971553
0.98435
0.997557
1.00988
1.01995
1.02669
1.0297
1.02926
1.02625
1.02178
1.01687
1.01228
1.00844
1.00549
1.00337
1.00193
1.00102
1.00047
1.00025
1.00006
0.999969
0.999934
0.999927
0.999932
0.999941
0.999949
0.999956
0.99996
0.999964
0.999966
0.999968
0.999969
0.999969
0.99997
0.99997
0.99997
0.99997
0.99997
0.99997
0.99997
0.99997
0.999969
0.99997
0.999971
0.999966
0.999974
0.999968
0.999961
0.999977
0.999956
0.999947
0.999965
0.999913
0.999879
0.999888
0.99978
0.999666
0.999608
0.999347
0.998861
0.998191
0.996842
0.994342
0.990621
0.98589
0.981248
0.978565
0.978804
0.981389
0.985375
0.990126
0.994662
0.997193
0.995692
0.988379
0.973634
0.950041
0.916721
0.873536
0.821197
0.761513
0.697783
0.635041
0.579991
0.540387
0.523357
0.532605
0.56631
0.617852
0.678639
0.740688
0.797928
0.846384
0.88397
0.910466
0.927462
0.937854
0.944918
0.951431
0.959205
0.969023
0.980767
0.993594
1.00617
1.01698
1.02478
1.0289
1.02943
1.02709
1.02295
1.01811
1.01341
1.00937
1.00619
1.00386
1.00227
1.00124
1.00061
1.00034
1.00011
0.999998
0.99995
0.999935
0.999936
0.999943
0.99995
0.999956
0.999961
0.999964
0.999966
0.999968
0.999969
0.999969
0.99997
0.99997
0.99997
0.99997
0.99997
0.99997
0.99997
0.99997
0.99997
0.999969
0.999972
0.999965
0.999972
0.999972
0.999957
0.999978
0.999962
0.999935
0.999968
0.999921
0.999856
0.999887
0.999789
0.999621
0.999569
0.999306
0.998684
0.997856
0.996312
0.993358
0.989066
0.98406
0.979594
0.977432
0.978428
0.98181
0.986387
0.991497
0.996163
0.998274
0.995359
0.985464
0.96694
0.938273
0.898493
0.847551
0.786452
0.717407
0.644052
0.571729
0.507971
0.462741
0.446502
0.464723
0.513526
0.582192
0.658707
0.733249
0.799383
0.853718
0.894922
0.923157
0.940102
0.948836
0.953128
0.956434
0.961183
0.968553
0.978605
0.99053
1.00293
1.01417
1.02279
1.02789
1.02932
1.02766
1.02392
1.01921
1.01446
1.01025
1.00687
1.00436
1.00261
1.00146
1.00075
1.00043
1.00017
1.00003
0.999969
0.999946
0.999942
0.999945
0.999951
0.999957
0.999961
0.999964
0.999967
0.999968
0.999969
0.999969
0.99997
0.99997
0.99997
0.99997
0.99997
0.99997
0.99997
0.99997
0.99997
0.999968
0.999973
0.999966
0.99997
0.999977
0.999953
0.999975
0.999973
0.999923
0.999964
0.999941
0.999835
0.999876
0.999816
0.999583
0.999509
0.999276
0.998515
0.99747
0.995739
0.992362
0.987484
0.982293
0.97817
0.976562
0.978232
0.982382
0.987545
0.992923
0.997613
0.999221
0.994735
0.982033
0.9596
0.92587
0.879786
0.821543
0.752729
0.676016
0.594876
0.513996
0.441018
0.388754
0.373453
0.40379
0.471876
0.560875
0.654847
0.742112
0.815979
0.874049
0.916423
0.944272
0.959609
0.965569
0.966165
0.965384
0.966251
0.970392
0.978086
0.988561
1.00035
1.01166
1.02084
1.02675
1.029
1.02801
1.02469
1.02016
1.01539
1.01107
1.00752
1.00484
1.00295
1.00169
1.0009
1.00052
1.00022
1.00007
0.99999
0.999959
0.999949
0.999949
0.999953
0.999958
0.999962
0.999964
0.999967
0.999968
0.999969
0.99997
0.99997
0.99997
0.99997
0.999969
0.99997
0.99997
0.99997
0.99997
0.99997
0.999967
0.999973
0.999967
0.999965
0.999982
0.999953
0.999965
0.999986
0.999919
0.999949
0.999966
0.999825
0.999847
0.999852
0.999566
0.999424
0.999244
0.998374
0.997045
0.995117
0.991391
0.985934
0.980596
0.976966
0.975951
0.978165
0.983023
0.988812
0.994385
0.998961
1.00002
0.99392
0.978326
0.952072
0.913673
0.861983
0.797734
0.723525
0.642403
0.556787
0.469428
0.387022
0.325232
0.30917
0.353503
0.443715
0.555091
0.667752
0.7681
0.848975
0.908963
0.950016
0.974973
0.986674
0.988398
0.984209
0.97841
0.974537
0.974671
0.979341
0.987819
0.998549
1.00959
1.01905
1.02557
1.02854
1.02816
1.02527
1.02095
1.01622
1.01181
1.00813
1.0053
1.00328
1.00192
1.00105
1.00062
1.00028
1.00011
1.00001
0.999973
0.999958
0.999954
0.999957
0.999959
0.999963
0.999965
0.999967
0.999968
0.999969
0.99997
0.999969
0.99997
0.99997
0.99997
0.99997
0.99997
0.99997
0.99997
0.99997
0.999967
0.999972
0.99997
0.999961
0.999983
0.999959
0.999952
0.999997
0.999925
0.999924
0.99999
0.999835
0.999803
0.999884
0.999586
0.999321
0.999192
0.998278
0.996606
0.994437
0.990473
0.984487
0.978975
0.975937
0.975589
0.978202
0.983647
0.990131
0.995887
1.00018
1.00069
0.993072
0.974677
0.944952
0.902704
0.846751
0.778743
0.702743
0.621859
0.536408
0.446235
0.356003
0.282157
0.259673
0.315374
0.427467
0.561788
0.694038
0.808255
0.896344
0.957484
0.99549
1.01536
1.02138
1.01729
1.00716
0.995424
0.986002
0.981399
0.982409
0.988363
0.997609
1.00802
1.01751
1.02444
1.02798
1.02816
1.02568
1.02159
1.01692
1.01246
1.00867
1.00572
1.00359
1.00213
1.00119
1.00071
1.00035
1.00014
1.00004
0.999988
0.999966
0.99996
0.999959
0.999962
0.999964
0.999966
0.999967
0.999968
0.999969
0.999969
0.99997
0.999969
0.99997
0.99997
0.99997
0.99997
0.999969
0.99997
0.99997
0.999968
0.99997
0.999974
0.999959
0.99998
0.99997
0.99994
0.999998
0.999945
0.999897
0.999999
0.999871
0.999756
0.999894
0.999644
0.999224
0.999096
0.998225
0.996198
0.9937
0.989606
0.983205
0.977451
0.97501
0.975443
0.978352
0.984173
0.991419
0.997448
1.00129
1.00121
0.992382
0.971511
0.938899
0.894043
0.835825
0.767155
0.693826
0.618495
0.538647
0.45105
0.357803
0.272605
0.234497
0.29084
0.42037
0.576736
0.729009
0.858045
0.95425
1.01679
1.05105
1.06438
1.06302
1.05166
1.03452
1.01605
1.00039
0.990423
0.987218
0.990177
0.997551
1.00703
1.01627
1.02342
1.02739
1.02804
1.02594
1.02207
1.01749
1.01301
1.00915
1.0061
1.00387
1.00233
1.00133
1.0008
1.00041
1.00018
1.00006
1
0.999977
0.999966
0.999964
0.999964
0.999965
0.999967
0.999967
0.999968
0.999969
0.999969
0.99997
0.99997
0.99997
0.99997
0.99997
0.99997
0.99997
0.99997
0.99997
0.999968
0.999968
0.999976
0.99996
0.999973
0.999981
0.999936
0.999988
0.999971
0.999879
0.999987
0.999924
0.999725
0.999868
0.99973
0.999166
0.998951
0.998188
0.995875
0.992937
0.988759
0.982133
0.976073
0.974102
0.975434
0.978656
0.984577
0.992544
0.999071
1.00236
1.00161
0.992032
0.969298
0.93456
0.888638
0.83072
0.764969
0.698793
0.633995
0.565067
0.485989
0.396356
0.30581
0.248318
0.28813
0.424769
0.5993
0.770204
0.914107
1.01916
1.08367
1.11411
1.12014
1.11025
1.09046
1.06542
1.03958
1.01719
1.00141
0.99357
0.993159
0.998338
1.0066
1.01537
1.02254
1.02682
1.02784
1.02606
1.02241
1.01793
1.01346
1.00955
1.00643
1.00412
1.00252
1.00146
1.00088
1.00046
1.00022
1.00009
1.00002
0.999987
0.999973
0.999968
0.999966
0.999966
0.999967
0.999968
0.999968
0.99997
0.999969
0.99997
0.99997
0.99997
0.99997
0.99997
0.99997
0.99997
0.99997
0.99997
0.99997
0.999967
0.999976
0.999964
0.999966
0.999986
0.999941
0.99997
0.999993
0.999883
0.999955
0.999977
0.999733
0.99981
0.999808
0.999175
0.998778
0.998121
0.995664
0.992218
0.987899
0.981263
0.974922
0.973169
0.975425
0.979139
0.984914
0.993364
1.00069
1.00352
1.00192
0.992126
0.968488
0.932493
0.887133
0.832397
0.773102
0.717722
0.667246
0.613502
0.547782
0.467492
0.379729
0.31142
0.326496
0.454778
0.637163
0.820245
0.975981
1.08909
1.15556
1.18208
1.18038
1.16124
1.13225
1.0987
1.06509
1.0357
1.01386
1.00114
0.997116
0.999871
1.00671
1.01481
1.02184
1.02627
1.02758
1.02607
1.02263
1.01825
1.0138
1.00987
1.0067
1.00433
1.00267
1.00157
1.00095
1.00051
1.00026
1.00011
1.00004
0.999998
0.99998
0.999972
0.999969
0.999969
0.999968
0.999968
0.999969
0.999969
0.99997
0.99997
0.99997
0.99997
0.99997
0.99997
0.99997
0.999969
0.99997
0.99997
0.99997
0.999967
0.999972
0.999968
0.999962
0.999985
0.999953
0.999953
1
0.999908
0.999919
1
0.999783
0.999749
0.999845
0.99925
0.998631
0.997989
0.995552
0.991635
0.987021
0.980528
0.974064
0.972239
0.975253
0.979749
0.985328
0.993795
1.00213
1.00493
1.00226
0.992646
0.969388
0.93312
0.889747
0.841005
0.791227
0.748948
0.714956
0.679098
0.629953
0.563303
0.485706
0.420251
0.422608
0.534016
0.707463
0.887857
1.04641
1.16366
1.2307
1.25272
1.24281
1.21394
1.17533
1.13296
1.09145
1.05503
1.02714
1.0095
1.00178
1.002
1.00727
1.01458
1.02132
1.02579
1.02728
1.02599
1.02271
1.01844
1.01404
1.0101
1.0069
1.0045
1.0028
1.00167
1.00101
1.00056
1.00029
1.00014
1.00005
1.00001
0.999987
0.999977
0.999972
0.99997
0.99997
0.99997
0.999969
0.99997
0.99997
0.99997
0.99997
0.99997
0.99997
0.99997
0.99997
0.99997
0.99997
0.99997
0.99997
0.999969
0.99997
0.99997
0.999962
0.999978
0.999966
0.999947
0.999993
0.999941
0.999902
0.999999
0.999855
0.999721
0.999826
0.999357
0.998563
0.997799
0.995481
0.991255
0.98619
0.979835
0.973493
0.971423
0.974814
0.980304
0.985963
0.993919
1.0031
1.00663
1.00291
0.993483
0.972012
0.936718
0.896302
0.855779
0.817905
0.789765
0.77274
0.755881