/*--------------------------------*- C++ -*----------------------------------*\
  =========                 |
  \\      /  F ield         | OpenFOAM: The Open Source CFD Toolbox
   \\    /   O peration     | Website:  https://openfoam.org
    \\  /    A nd           | Version:  6
     \\/     M anipulation  |
\*---------------------------------------------------------------------------*/
FoamFile
{
    version     2.0;
    format      ascii;
    class       volScalarField;
    location    "3.74";
    object      p;
}
// * * * * * * * * * * * * * * * * * * * * * * * * * * * * * * * * * * * * * //

dimensions      [1 -1 -2 0 0 0 0];

internalField   nonuniform List<scalar> 
10000
(
1
1
1
1
1
1
1
1
1
1
1
1
1
1
1
1
1
1
1
1
1
1
1
1
1
1
1
1
1
1
1
1
1
1
1
1
1
1
1
1
1
1
1
1
1
1
0.999996
0.999992
0.999985
0.999976
0.999963
0.999949
0.999934
0.99992
0.999908
0.999902
0.999904
0.999916
0.99994
0.999974
1.00002
1.00007
1.00013
1.00019
1.00025
1.0003
1.00034
1.00038
1.0004
1.00041
1.00041
1.00039
1.00037
1.00034
1.0003
1.00027
1.00023
1.00019
1.00015
1.00012
1.00009
1.00007
1.00005
1.00003
1.00002
1.00001
1.00001
1
1
1
1
1
1
1
1
1
1
1
1
1
1
1
1
1
1
1
1
1
1
1
1
1
1
1
1
1
1
1
1
1
1
1
1
1
1
1
1
1
1
1
1
1
1
1
1
1
1
1
1
1
1
1
1
1
1
1
0.999997
0.999991
0.999982
0.99997
0.999955
0.999938
0.999922
0.999909
0.999902
0.999904
0.99992
0.999951
0.999997
1.00006
1.00013
1.00022
1.00031
1.00039
1.00048
1.00054
1.0006
1.00064
1.00065
1.00065
1.00064
1.0006
1.00056
1.0005
1.00045
1.00039
1.00033
1.00027
1.00022
1.00017
1.00013
1.00009
1.00007
1.00005
1.00003
1.00002
1.00001
1.00001
1
1
0.999999
0.999999
0.999999
0.999999
0.999999
1
1
1
1
1
1
1
1
1
1
1
1
1
1
1
1
1
1
1
1
1
1
1
1
1
1
1
1
1
1
1
1
1
1
1
1
1
1
1
1
1
1
1
1
1
1
1
1
1
1
1
0.999997
0.99999
0.999979
0.999965
0.999947
0.99993
0.999915
0.999908
0.999912
0.999932
0.999973
1.00004
1.00012
1.00023
1.00035
1.00049
1.00062
1.00075
1.00086
1.00096
1.00102
1.00106
1.00107
1.00105
1.001
1.00093
1.00085
1.00076
1.00066
1.00056
1.00047
1.00038
1.0003
1.00023
1.00018
1.00013
1.00009
1.00006
1.00004
1.00002
1.00001
1.00001
1
1
0.999999
0.999998
0.999999
0.999999
0.999999
0.999999
1
1
1
1
1
1
1
1
1
1
1
1
1
1
1
1
1
1
1
1
1
1
1
1
1
1
1
1
1
1
1
1
1
1
1
1
1
1
1
1
1
1
1
1
1
1
1.00001
1.00001
1.00001
1
0.999999
0.999989
0.999977
0.999961
0.999944
0.999929
0.999921
0.999928
0.999954
1.00001
1.00009
1.00021
1.00036
1.00054
1.00074
1.00095
1.00115
1.00133
1.00149
1.00162
1.0017
1.00173
1.00172
1.00166
1.00156
1.00144
1.0013
1.00114
1.00098
1.00082
1.00068
1.00055
1.00043
1.00033
1.00024
1.00018
1.00012
1.00008
1.00005
1.00003
1.00002
1.00001
1
0.999998
0.999997
0.999997
0.999997
0.999998
0.999998
0.999999
0.999999
1
1
1
1
1
1
1
1
1
1
1
1
1
1
1
1
1
1
1
1
1
1
1
1
1
1
1
1
1
1
1
1
1
1
1
1
1
1
1
1
1
1
1
1.00001
1.00001
1.00001
1.00001
1.00001
1.00001
1
0.999992
0.999978
0.999962
0.999948
0.999942
0.999951
0.999985
1.00005
1.00017
1.00033
1.00053
1.00078
1.00107
1.00138
1.00169
1.00199
1.00226
1.00248
1.00265
1.00274
1.00276
1.00271
1.0026
1.00243
1.00222
1.00198
1.00172
1.00147
1.00122
1.00099
1.00079
1.00061
1.00046
1.00034
1.00024
1.00017
1.00011
1.00007
1.00004
1.00002
1.00001
0.999999
0.999996
0.999995
0.999995
0.999996
0.999997
0.999998
0.999998
0.999999
0.999999
1
1
1
1
1
1
1
1
1
1
1
1
1
1
1
1
1
1
1
1
1
1
1
1
1
1
1
1
1
1
1
1
1
1
1
1
1
1
1
1
1
1.00001
1.00001
1.00001
1.00001
1.00002
1.00002
1.00001
1.00001
0.999998
0.999985
0.999973
0.999968
0.99998
1.00002
1.00011
1.00025
1.00045
1.00073
1.00107
1.00148
1.00192
1.00239
1.00285
1.00329
1.00367
1.00397
1.00419
1.0043
1.0043
1.0042
1.00401
1.00373
1.00339
1.003
1.0026
1.0022
1.00181
1.00146
1.00115
1.00088
1.00066
1.00048
1.00034
1.00023
1.00015
1.00009
1.00005
1.00002
1.00001
0.999997
0.999993
0.999992
0.999992
0.999994
0.999995
0.999996
0.999997
0.999998
0.999999
0.999999
1
1
1
1
1
1
1
1
1
1
1
1
1
1
1
1
1
1
1
1
1
1
1
1
1
1
1
1
1
1
1
1
1
1
1
1
1
1
1
1.00001
1.00001
1.00001
1.00002
1.00002
1.00002
1.00003
1.00002
1.00002
1.00001
1
0.999999
1.00001
1.00006
1.00016
1.00033
1.00058
1.00094
1.00139
1.00193
1.00256
1.00323
1.00391
1.00458
1.00519
1.00572
1.00613
1.00641
1.00654
1.00652
1.00635
1.00604
1.00561
1.00509
1.00451
1.00389
1.00328
1.0027
1.00216
1.00169
1.00129
1.00096
1.00069
1.00048
1.00032
1.0002
1.00012
1.00006
1.00003
1.00001
0.999994
0.999989
0.999988
0.999988
0.99999
0.999992
0.999994
0.999996
0.999997
0.999998
0.999999
0.999999
0.999999
1
1
1
1
1
1
1
1
1
1
1
1
1
1
1
1
1
1
1
1
1
1
1
1
1
1
1
1
1
1
1
1
1
1
1
1
1
1.00001
1.00001
1.00002
1.00002
1.00003
1.00003
1.00004
1.00004
1.00004
1.00003
1.00003
1.00005
1.0001
1.00021
1.00041
1.00071
1.00114
1.00171
1.00242
1.00325
1.00417
1.00514
1.00611
1.00704
1.00788
1.00858
1.00912
1.00947
1.00963
1.00957
1.00931
1.00887
1.00825
1.0075
1.00666
1.00576
1.00486
1.00399
1.0032
1.00249
1.00189
1.0014
1.001
1.00069
1.00046
1.00029
1.00017
1.00009
1.00004
1.00001
0.99999
0.999983
0.999982
0.999983
0.999986
0.999989
0.999992
0.999994
0.999996
0.999997
0.999998
0.999999
0.999999
1
1
1
1
1
1
1
1
1
1
1
1
1
1
1
1
1
1
1
1
1
1
1
1
1
1
1
1
1
1
1
1
1
1
1
1
1.00001
1.00001
1.00002
1.00002
1.00003
1.00004
1.00005
1.00006
1.00006
1.00006
1.00007
1.00009
1.00014
1.00026
1.00047
1.00081
1.00132
1.00201
1.00289
1.00395
1.00516
1.00647
1.00782
1.00915
1.01038
1.01148
1.01238
1.01306
1.01349
1.01366
1.01357
1.01322
1.01262
1.01179
1.01077
1.00961
1.00835
1.00708
1.00583
1.00468
1.00365
1.00277
1.00204
1.00146
1.001
1.00066
1.00042
1.00024
1.00013
1.00005
1.00001
0.999986
0.999976
0.999974
0.999976
0.99998
0.999984
0.999988
0.999992
0.999994
0.999996
0.999998
0.999999
0.999999
0.999999
1
1
1
1
1
1
1
1
1
1
1
1
1
1
1
1
1
1
1
1
1
1
1
1
1
1
1
1
1
1
1
1
1
1
1.00001
1.00001
1.00001
1.00002
1.00003
1.00004
1.00006
1.00007
1.00008
1.00009
1.0001
1.00013
1.00018
1.0003
1.00052
1.00088
1.00145
1.00225
1.0033
1.00461
1.00614
1.00784
1.00962
1.01141
1.01313
1.01469
1.01604
1.01713
1.01793
1.01843
1.01861
1.01849
1.01805
1.01731
1.01629
1.015
1.01349
1.01182
1.01009
1.00838
1.00676
1.0053
1.00403
1.00298
1.00213
1.00147
1.00097
1.00061
1.00036
1.00019
1.00008
1.00002
0.999983
0.999968
0.999964
0.999967
0.999972
0.999978
0.999984
0.999988
0.999992
0.999995
0.999997
0.999998
0.999998
0.999999
0.999999
1
1
1
1
1
1
1
1
1
1
1
1
1
1
1
1
1
1
1
1
1
1
1
1
1
1
1
1
1
1
1
1
1
1.00001
1.00001
1.00002
1.00003
1.00004
1.00006
1.00008
1.00009
1.00011
1.00013
1.00016
1.00022
1.00033
1.00055
1.00092
1.00152
1.00241
1.00362
1.00517
1.00703
1.00914
1.0114
1.01371
1.01596
1.01805
1.0199
1.02144
1.02265
1.02352
1.02404
1.02422
1.02407
1.02358
1.02276
1.0216
1.0201
1.01829
1.01623
1.01402
1.01176
1.00958
1.00757
1.0058
1.0043
1.00309
1.00214
1.00142
1.0009
1.00053
1.00029
1.00013
1.00004
0.999984
0.99996
0.999953
0.999956
0.999962
0.99997
0.999978
0.999984
0.999989
0.999993
0.999995
0.999997
0.999998
0.999999
0.999999
1
1
1
1
1
1
1
1
1
1
1
1
1
1
1
1
1
1
1
1
1
1
1
1
1
1
1
1
1
1
1
1
1.00001
1.00001
1.00002
1.00003
1.00004
1.00006
1.00008
1.0001
1.00013
1.00015
1.00019
1.00025
1.00035
1.00056
1.00093
1.00154
1.00247
1.00381
1.00557
1.00775
1.01027
1.01304
1.01591
1.01872
1.02136
1.02371
1.02569
1.02728
1.02847
1.02928
1.02974
1.02988
1.02972
1.02925
1.02846
1.02732
1.02577
1.02382
1.02148
1.01884
1.01605
1.01324
1.01058
1.00819
1.00613
1.00443
1.00309
1.00207
1.00132
1.0008
1.00044
1.00021
1.00007
0.999992
0.999954
0.999942
0.999943
0.999951
0.999961
0.99997
0.999979
0.999985
0.99999
0.999994
0.999996
0.999997
0.999998
0.999999
0.999999
1
1
1
1
1
1
1
1
1
1
1
1
1
1
1
1
1
1
1
1
1
1
1
1
1
1
1
1
1
1
1
1.00001
1.00001
1.00002
1.00004
1.00006
1.00008
1.00011
1.00014
1.00017
1.00021
1.00027
1.00037
1.00056
1.0009
1.00149
1.00244
1.00384
1.00576
1.00822
1.01115
1.01442
1.01785
1.02125
1.02443
1.02724
1.02959
1.03145
1.03283
1.03377
1.03434
1.03462
1.03467
1.03451
1.03415
1.03356
1.03266
1.03135
1.02954
1.02719
1.02435
1.02114
1.01776
1.01442
1.01131
1.00857
1.00626
1.00441
1.00299
1.00193
1.00118
1.00067
1.00033
1.00013
1.00001
0.999954
0.999931
0.999929
0.999937
0.999949
0.999961
0.999972
0.99998
0.999987
0.999991
0.999995
0.999996
0.999997
0.999999
0.999999
1
1
1
1
1
1
1
1
1
1
1
1
1
1
1
1
1
1
1
1
1
1
1
1
1
1
1
1
1
1
1.00001
1.00001
1.00002
1.00003
1.00005
1.00007
1.0001
1.00014
1.00018
1.00022
1.00028
1.00038
1.00054
1.00085
1.0014
1.00231
1.00371
1.00573
1.00841
1.01169
1.01544
1.01943
1.0234
1.0271
1.03032
1.03294
1.03491
1.03625
1.03707
1.03747
1.03759
1.03754
1.03741
1.03726
1.0371
1.03689
1.03652
1.03582
1.03459
1.03268
1.03004
1.02674
1.02298
1.01904
1.0152
1.0117
1.00867
1.00619
1.00424
1.00278
1.00173
1.001
1.00052
1.00023
1.00005
0.999963
0.999924
0.999916
0.999923
0.999936
0.999951
0.999964
0.999975
0.999983
0.999989
0.999993
0.999994
0.999997
0.999998
0.999999
0.999999
1
1
1
1
1
1
1
1
1
1
1
1
1
1
1
1
1
1
1
1
1
1
1
1
1
1
1
1
1
1.00001
1.00001
1.00003
1.00004
1.00006
1.00009
1.00013
1.00017
1.00023
1.00029
1.00038
1.00053
1.00079
1.00127
1.00211
1.00345
1.00547
1.00827
1.01183
1.01601
1.02053
1.02506
1.02925
1.03283
1.0356
1.03751
1.0386
1.039
1.03889
1.03846
1.03791
1.03739
1.03702
1.03687
1.03698
1.0373
1.03771
1.03799
1.03784
1.03695
1.0351
1.03224
1.02852
1.02425
1.0198
1.01553
1.01171
1.00849
1.0059
1.00393
1.00249
1.00148
1.00081
1.00038
1.00013
0.999988
0.999925
0.999904
0.999907
0.999921
0.999938
0.999954
0.999968
0.999978
0.999986
0.999991
0.999993
0.999996
0.999997
0.999999
0.999999
1
1
1
1
1
1
1
1
1
1
1
1
1
1
1
1
1
1
1
1
1
1
1
1
1
1
1
1
1.00001
1.00001
1.00002
1.00003
1.00005
1.00008
1.00012
1.00016
1.00022
1.00028
1.00037
1.0005
1.00073
1.00114
1.00186
1.00309
1.00502
1.00782
1.01154
1.01607
1.02109
1.02616
1.03084
1.03473
1.03757
1.03928
1.03991
1.03964
1.03871
1.03738
1.03591
1.03454
1.03346
1.0328
1.03264
1.03303
1.03394
1.03528
1.0368
1.03815
1.03885
1.03848
1.03677
1.03373
1.02961
1.02487
1.01998
1.01538
1.01135
1.00803
1.00544
1.0035
1.00213
1.0012
1.0006
1.00024
1.00004
0.999936
0.999898
0.999894
0.999906
0.999925
0.999943
0.99996
0.999972
0.999982
0.999988
0.999991
0.999994
0.999997
0.999998
0.999999
0.999999
1
1
1
1
1
1
1
1
1
1
1
1
1
1
1
1
1
1
1
1
1
1
1
1
1
1
1
1.00001
1.00001
1.00002
1.00004
1.00007
1.0001
1.00014
1.0002
1.00027
1.00036
1.00047
1.00066
1.001
1.00161
1.00267
1.00442
1.0071
1.01084
1.01559
1.02103
1.02663
1.03181
1.03602
1.03892
1.04035
1.04039
1.03927
1.03729
1.0348
1.03214
1.02959
1.0274
1.02576
1.0248
1.0246
1.02522
1.02668
1.02891
1.03173
1.03476
1.03746
1.03917
1.03936
1.03777
1.03451
1.02999
1.02482
1.01959
1.01477
1.01065
1.00734
1.00483
1.003
1.00175
1.00092
1.00041
1.00012
0.999966
0.999899
0.999883
0.999891
0.99991
0.999931
0.99995
0.999966
0.999977
0.999985
0.999989
0.999993
0.999996
0.999998
0.999999
0.999999
1
1
1
1
1
1
1
1
1
1
1
1
1
1
1
1
1
1
1
1
1
1
1
1
1
1
1.00001
1.00001
1.00002
1.00003
1.00005
1.00008
1.00012
1.00018
1.00024
1.00033
1.00044
1.0006
1.00088
1.00137
1.00225
1.00376
1.00618
1.00977
1.01457
1.02031
1.02643
1.03214
1.03675
1.03975
1.04093
1.04035
1.0383
1.03517
1.0314
1.02741
1.02352
1.02003
1.01715
1.01504
1.01383
1.01357
1.01434
1.01618
1.0191
1.02301
1.02762
1.03236
1.03647
1.03915
1.03978
1.03817
1.03459
1.02965
1.02411
1.01865
1.01375
1.00967
1.00648
1.00412
1.00246
1.00136
1.00066
1.00024
1.00002
0.999914
0.999878
0.999879
0.999896
0.999919
0.99994
0.999958
0.999972
0.999982
0.999986
0.999992
0.999995
0.999997
0.999998
0.999999
1
1
1
1
1
1
1
1
1
1
1
1
1
1
1
1
1
1
1
1
1
1
1
1
1
1
1.00001
1.00001
1.00002
1.00004
1.00006
1.0001
1.00015
1.00021
1.00029
1.0004
1.00054
1.00076
1.00115
1.00185
1.00309
1.00517
1.00844
1.01307
1.01895
1.02549
1.03179
1.03691
1.04016
1.0412
1.0401
1.03717
1.0329
1.02785
1.02251
1.01729
1.0125
1.00836
1.00503
1.00264
1.00125
1.00092
1.00172
1.00372
1.00702
1.01163
1.01741
1.0239
1.03033
1.03572
1.0391
1.03988
1.03801
1.03399
1.02862
1.02279
1.01723
1.01239
1.00848
1.00551
1.00338
1.00193
1.00099
1.00042
1.00011
0.999946
0.999881
0.99987
0.999883
0.999906
0.99993
0.99995
0.999966
0.999978
0.999983
0.99999
0.999994
0.999996
0.999998
0.999999
0.999999
1
1
1
1
1
1
1
1
1
1
1
1
1
1
1
1
1
1
1
1
1
1
1
1
1
1.00001
1.00001
1.00003
1.00005
1.00008
1.00012
1.00018
1.00025
1.00035
1.00047
1.00066
1.00096
1.0015
1.00247
1.00418
1.00698
1.01123
1.01699
1.02381
1.0307
1.03648
1.04019
1.04133
1.0399
1.03624
1.03097
1.02472
1.01811
1.01164
1.00567
1.00041
0.996011
0.992542
0.990056
0.988588
0.988174
0.98888
0.99082
0.994148
0.999001
1.00539
1.01306
1.02134
1.02923
1.0355
1.03915
1.03969
1.0373
1.03271
1.02695
1.02095
1.01544
1.0108
1.00718
1.00451
1.00265
1.00143
1.00067
1.00023
1
0.999897
0.999867
0.999873
0.999894
0.999919
0.999942
0.99996
0.999974
0.99998
0.999988
0.999993
0.999996
0.999998
0.999999
0.999999
1
1
1
1
1
1
1
1
1
1
1
1
1
1
1
1
1
1
1
1
1
1
1
1
1.00001
1.00001
1.00002
1.00003
1.00005
1.00009
1.00014
1.00021
1.00029
1.00041
1.00056
1.0008
1.00121
1.00194
1.00327
1.00556
1.00923
1.01458
1.0214
1.02881
1.03538
1.03982
1.04138
1.03991
1.0358
1.02972
1.02244
1.0147
1.0071
1.00008
0.993882
0.988631
0.984346
0.981013
0.978614
0.977138
0.976607
0.977097
0.978758
0.981808
0.98648
0.992936
1.00112
1.01057
1.0204
1.02929
1.0359
1.03927
1.03913
1.03598
1.03079
1.02471
1.0187
1.0134
1.0091
1.00585
1.00354
1.00198
1.00099
1.0004
1.00008
0.99993
0.999872
0.999867
0.999884
0.999909
0.999934
0.999954
0.999969
0.999977
0.999986
0.999991
0.999995
0.999997
0.999998
0.999999
1
1
1
1
1
1
1
1
1
1
1
1
1
1
1
1
1
1
1
1
1
1
1
1
1.00001
1.00001
1.00002
1.00004
1.00006
1.0001
1.00016
1.00024
1.00034
1.00047
1.00066
1.00097
1.00151
1.0025
1.00427
1.00726
1.01193
1.0184
1.02607
1.03347
1.03892
1.04127
1.04019
1.03599
1.02939
1.02129
1.01257
1.00396
0.995993
0.988987
0.983075
0.978238
0.97438
0.971391
0.969191
0.967736
0.967036
0.967184
0.968374
0.97089
0.975049
0.98113
0.989248
0.999182
1.01022
1.02115
1.03045
1.03674
1.03926
1.03808
1.03401
1.02827
1.02203
1.01619
1.01125
1.0074
1.00458
1.00265
1.00139
1.00063
1.0002
0.999981
0.999889
0.999866
0.999877
0.999901
0.999926
0.999948
0.999965
0.999974
0.999984
0.99999
0.999994
0.999997
0.999998
0.999999
1
1
1
1
1
1
1
1
1
1
1
1
1
1
1
1
1
1
1
1
1
1
1
1
1.00001
1.00001
1.00002
1.00004
1.00007
1.00012
1.00018
1.00027
1.00038
1.00054
1.00078
1.00117
1.00188
1.00319
1.0055
1.00931
1.01505
1.02256
1.03061
1.03727
1.04084
1.04061
1.03677
1.03004
1.0214
1.01188
1.00236
0.993506
0.985746
0.979262
0.974036
0.969905
0.966652
0.964095
0.962116
0.960657
0.959725
0.959427
0.959996
0.961782
0.965188
0.97059
0.978231
0.988082
0.999668
1.01195
1.0234
1.03239
1.03768
1.03884
1.03637
1.0314
1.02525
1.01905
1.01356
1.00912
1.00578
1.00344
1.00188
1.00091
1.00035
1.00006
0.999919
0.999873
0.999874
0.999894
0.999919
0.999942
0.999961
0.999971
0.999982
0.999989
0.999993
0.999996
0.999998
0.999999
0.999999
1
1
1
1
1
1
1
1
1
1
1
1
1
1
1
1
1
1
1
1
1
1
1
1.00001
1.00002
1.00003
1.00005
1.00009
1.00013
1.0002
1.0003
1.00043
1.00061
1.00091
1.00142
1.00233
1.00402
1.00696
1.01171
1.01853
1.02679
1.03462
1.03979
1.04094
1.03798
1.03159
1.02279
1.01268
1.00235
0.992628
0.984094
0.977024
0.971436
0.967141
0.963824
0.961173
0.958977
0.957134
0.955612
0.954422
0.953658
0.953553
0.954505
0.957003
0.961523
0.968418
0.977807
0.989416
1.00242
1.01543
1.02668
1.0346
1.03826
1.03774
1.03393
1.02821
1.02188
1.01595
1.01097
1.00711
1.00433
1.00245
1.00126
1.00055
1.00015
0.999964
0.999889
0.999875
0.999889
0.999913
0.999937
0.999956
0.999969
0.99998
0.999988
0.999993
0.999996
0.999998
0.999999
0.999999
1
1
1
1
1
1
1
1
1
1
1
1
1
1
1
1
1
1
1
1
1
1
1.00001
1.00001
1.00002
1.00003
1.00005
1.00009
1.00015
1.00022
1.00033
1.00048
1.00069
1.00105
1.0017
1.00287
1.00501
1.00868
1.01441
1.02221
1.03078
1.0377
1.0408
1.03933
1.0338
1.02528
1.01494
1.00394
0.993362
0.983968
0.976202
0.970167
0.965674
0.96233
0.959685
0.957387
0.955279
0.953365
0.951706
0.950336
0.949278
0.948673
0.948877
0.950437
0.953952
0.959914
0.96858
0.979845
0.993093
1.00709
1.02012
1.03036
1.03648
1.03808
1.03575
1.03076
1.02456
1.01835
1.0129
1.00855
1.00533
1.0031
1.00166
1.00078
1.00028
1.00003
0.999915
0.999883
0.999889
0.999909
0.999932
0.999953
0.999966
0.999978
0.999987
0.999992
0.999995
0.999997
0.999998
0.999999
0.999999
1
1
1
1
1
1
1
1
1
1
1
1
1
1
1
1
1
1
1
1
1
1.00001
1.00001
1.00002
1.00004
1.00006
1.0001
1.00016
1.00024
1.00036
1.00053
1.00077
1.00121
1.00203
1.0035
1.00615
1.01062
1.01735
1.02587
1.03421
1.03962
1.04035
1.03634
1.02861
1.01844
1.00708
0.995715
0.985368
0.976722
0.970051
0.96522
0.961774
0.959092
0.956623
0.95408
0.951499
0.949131
0.94724
0.945923
0.945073
0.944559
0.944496
0.945369
0.947901
0.952796
0.96052
0.971152
0.984263
0.998801
1.01313
1.02532
1.03372
1.03748
1.03683
1.03284
1.027
1.02067
1.01485
1.01005
1.0064
1.00382
1.00211
1.00105
1.00043
1.00011
0.999953
0.999898
0.999892
0.999908
0.99993
0.99995
0.999965
0.999977
0.999986
0.999991
0.999995
0.999997
0.999998
0.999999
1
1
1
1
1
1
1
1
1
1
1
1
1
1
1
1
1
1
1
1
1
1
1.00001
1.00001
1.00002
1.00004
1.00006
1.00011
1.00018
1.00026
1.00038
1.00058
1.00087
1.00139
1.00241
1.00423
1.00743
1.01274
1.02041
1.02931
1.03684
1.04034
1.03868
1.03242
1.02291
1.01156
0.99964
0.98834
0.978618
0.97103
0.965623
0.961932
0.959149
0.956402
0.953115
0.949225
0.945169
0.941646
0.939306
0.938422
0.938712
0.93953
0.940387
0.941408
0.943345
0.947201
0.953799
0.963516
0.976148
0.990827
1.00603
1.01979
1.03021
1.03608
1.03719
1.0344
1.02912
1.02285
1.01677
1.01157
1.00752
1.00459
1.00261
1.00135
1.00061
1.0002
1
0.99992
0.999901
0.99991
0.999929
0.999948
0.999964
0.999976
0.999985
0.999991
0.999995
0.999997
0.999998
0.999999
1
1
1
1
1
1
1
1
1
1
1
1
1
1
1
1
1
1
1
1
1
1
1.00001
1.00001
1.00002
1.00005
1.00007
1.00011
1.00019
1.00027
1.0004
1.00064
1.00097
1.00159
1.00283
1.00505
1.00884
1.015
1.02344
1.0323
1.03858
1.04001
1.03616
1.028
1.01709
1.00495
0.992886
0.982014
0.973208
0.966857
0.962682
0.959754
0.956796
0.952661
0.946861
0.939805
0.932626
0.926756
0.923487
0.923468
0.926274
0.930475
0.934449
0.937423
0.939883
0.943148
0.948608
0.957161
0.968971
0.983408
0.999081
1.01404
1.0262
1.03402
1.03692
1.03543
1.03089
1.02484
1.01862
1.01309
1.00866
1.0054
1.00315
1.00169
1.00081
1.00031
1.00006
0.99995
0.999914
0.999915
0.99993
0.999948
0.999964
0.999976
0.999985
0.999991
0.999994
0.999997
0.999998
0.999999
1
1
1
1
1
1
1
1
1
1
1
1
1
1
1
1
1
1
1
1
1
1
1.00001
1.00001
1.00002
1.00005
1.00007
1.00011
1.0002
1.00029
1.00041
1.00069
1.00109
1.0018
1.00329
1.00595
1.01035
1.01729
1.02628
1.03473
1.03946
1.03887
1.03311
1.02341
1.01144
0.998856
0.986975
0.976813
0.969104
0.964004
0.960775
0.957839
0.953284
0.945661
0.934768
0.921876
0.909236
0.899331
0.894353
0.895582
0.902578
0.912925
0.92328
0.931205
0.936358
0.940226
0.944954
0.952268
0.962957
0.976772
0.992523
1.0083
1.0219
1.03148
1.0361
1.03599
1.03229
1.02659
1.02033
1.01456
1.0098
1.00622
1.0037
1.00205
1.00103
1.00044
1.00013
0.999987
0.999932
0.999923
0.999933
0.999949
0.999965
0.999976
0.999985
0.999991
0.999994
0.999997
0.999998
0.999999
1
1
1
1
1
1
1
1
1
1
1
1
1
1
1
1
1
1
1
1
1
1
1.00001
1.00002
1.00002
1.00005
1.00008
1.0001
1.00021
1.00031
1.00041
1.00073
1.00122
1.00203
1.00376
1.00691
1.01193
1.01952
1.02883
1.03659
1.03965
1.03716
1.02981
1.01888
1.00613
0.993385
0.981972
0.97272
0.966155
0.962122
0.959259
0.955082
0.946829
0.932757
0.913336
0.89133
0.870597
0.85487
0.847337
0.850109
0.862946
0.882416
0.903006
0.919818
0.930883
0.937446
0.942464
0.948813
0.95824
0.971114
0.986564
1.00278
1.0175
1.02861
1.03485
1.03611
1.03334
1.02809
1.0219
1.01595
1.01091
1.00703
1.00427
1.00242
1.00126
1.00058
1.00021
1.00003
0.999955
0.999935
0.999938
0.999951
0.999967
0.999977
0.999985
0.999991
0.999994
0.999997
0.999998
0.999999
0.999999
1
1
1
1
1
1
1
1
1
1
1
1
1
1
1
1
1
1
0.999999
1
1
1
1.00002
1.00001
1.00004
1.00009
1.00009
1.0002
1.00033
1.00041
1.00075
1.00136
1.00227
1.00424
1.00789
1.01353
1.02162
1.03099
1.03792
1.03933
1.03511
1.02647
1.01461
1.00129
0.988594
0.977865
0.969639
0.964116
0.960745
0.95736
0.950257
0.935568
0.911433
0.879721
0.845519
0.814643
0.791914
0.781304
0.785837
0.805731
0.836715
0.871006
0.900724
0.921446
0.933489
0.94043
0.946508
0.954782
0.966523
0.981357
0.997677
1.01319
1.02558
1.03329
1.03587
1.03406
1.02933
1.02328
1.01723
1.01196
1.00783
1.00483
1.00279
1.0015
1.00073
1.0003
1.00008
0.999983
0.99995
0.999946
0.999955
0.99997
0.999979
0.999986
0.999991
0.999995
0.999997
0.999998
0.999999
1
1
1
1
1
1
1
1
1
1
1
1
1
1
1
1
1
1
1
1
1
1
1
1.00002
1.00002
1.00003
1.0001
1.00009
1.00017
1.00035
1.00042
1.00075
1.0015
1.00255
1.0047
1.00887
1.01512
1.02351
1.03273
1.03882
1.03868
1.03288
1.0232
1.01071
0.997011
0.984478
0.97458
0.96742
0.962685
0.959352
0.954299
0.942266
0.918115
0.880342
0.833257
0.785041
0.743387
0.713569
0.699904
0.706327
0.733743
0.777346
0.827385
0.873
0.906754
0.927222
0.93808
0.94492
0.952391
0.962967
0.976971
0.993104
1.00911
1.02254
1.03153
1.03534
1.03448
1.03031
1.02448
1.01838
1.01294
1.00858
1.00537
1.00316
1.00174
1.00088
1.00039
1.00014
1.00002
0.999968
0.999957
0.999961
0.999974
0.999981
0.999987
0.999992
0.999995
0.999997
0.999998
0.999999
1
1
1
1
1
1
1
1
1
1
1
1
1
1
1
1
0.999999
1
1
0.999999
1
1.00001
0.999998
1.00002
1.00002
1.00002
1.0001
1.0001
1.00014
1.00036
1.00044
1.00072
1.00162
1.00285
1.00514
1.00977
1.01664
1.02519
1.03406
1.03936
1.03789
1.03063
1.02011
1.00728
0.993349
0.980996
0.971989
0.96588
0.961558
0.957454
0.94946
0.930552
0.894324
0.840377
0.776487
0.714279
0.662718
0.626694
0.61043
0.618725
0.653304
0.709161
0.775112
0.837804
0.886747
0.918088
0.934842
0.943637
0.950826
0.960337
0.973395
0.989126
1.00538
1.0196
1.02969
1.03461
1.03466
1.03107
1.02548
1.01939
1.01382
1.00927
1.00588
1.00352
1.00198
1.00103
1.00049
1.00019
1.00005
0.999989
0.999969
0.999968
0.999979
0.999984
0.999989
0.999993
0.999996
0.999997
0.999999
0.999999
1
1
1
1
1
1
1
1
1
1
1
1
1
1
1
1
1
1
1
0.999999
1
1.00001
0.999997
1.00002
1.00003
1.00001
1.00009
1.00011
1.00009
1.00034
1.00048
1.0007
1.00169
1.00317
1.00557
1.01055
1.01804
1.02668
1.03502
1.03962
1.0371
1.02851
1.01723
1.00434
0.990348
0.978092
0.969918
0.964828
0.960506
0.954723
0.942603
0.915458
0.865815
0.794985
0.714779
0.640059
0.58031
0.539411
0.521193
0.531127
0.571799
0.638403
0.718876
0.797985
0.862605
0.906223
0.930451
0.942358
0.949862
0.958499
0.970576
0.985758
1.00206
1.01686
1.02786
1.03377
1.03464
1.03161
1.0263
1.02025
1.01459
1.00989
1.00634
1.00385
1.0022
1.00118
1.00058
1.00025
1.00009
1.00001
0.999983
0.999976
0.999985
0.999987
0.999991
0.999994
0.999996
0.999998
0.999999
0.999999
1
1
1
1
1
1
1
1
1
1
1
1
1
1
1
1
1
1
1
1
0.999999
1.00001
0.999998
1.00001
1.00004
0.999999
1.00007
1.00013
1.00006
1.00029
1.00053
1.00068
1.0017
1.00347
1.006
1.01118
1.01923
1.02801
1.03569
1.03961
1.03639
1.02669
1.01461
1.00183
0.988034
0.97574
0.968171
0.964072
0.95944
0.951111
0.933981
0.898317
0.835753
0.749338
0.654737
0.569592
0.503497
0.459134
0.439654
0.450722
0.495801
0.570899
0.663625
0.757245
0.836495
0.892462
0.924977
0.94089
0.949296
0.95731
0.968439
0.982986
0.99919
1.0144
1.02612
1.03287
1.03448
1.03197
1.02693
1.02096
1.01524
1.01043
1.00675
1.00414
1.00241
1.00132
1.00068
1.00031
1.00013
1.00004
0.999998
0.999986
0.999991
0.999991
0.999993
0.999995
0.999997
0.999998
0.999999
0.999999
1
1
1
1
1
1
1
1
1
1
1
1
1
1
1
1
1
1
1
1
0.999999
1.00001
1
1
1.00004
1
1.00004
1.00013
1.00005
1.00022
1.00056
1.00071
1.00166
1.0037
1.00645
1.01167
1.02015
1.02918
1.0362
1.03938
1.0358
1.0253
1.01233
0.999664
0.986382
0.973976
0.966574
0.963396
0.95844
0.946951
0.924323
0.88099
0.807846
0.708857
0.602647
0.509252
0.438509
0.392165
0.37224
0.383753
0.430986
0.511627
0.613738
0.719287
0.811089
0.878249
0.918888
0.939198
0.948953
0.956617
0.966891
0.980779
0.996783
1.01225
1.02454
1.03198
1.03422
1.03217
1.02739
1.02151
1.01576
1.01087
1.0071
1.0044
1.00259
1.00145
1.00076
1.00037
1.00017
1.00006
1.00001
0.999996
0.999998
0.999996
0.999996
0.999997
0.999998
0.999999
0.999999
0.999999
1
1
1
1
1
1
1
1
1
1
1
1
1
1
1
1
1
0.999999
1
1
0.999999
1
1
0.999995
1.00003
1.00001
1.00001
1.00012
1.00007
1.00014
1.00053
1.00077
1.0016
1.00381
1.00688
1.01207
1.02074
1.03014
1.03668
1.03901
1.03525
1.02443
1.01053
0.997732
0.98526
0.9729
0.965075
0.962543
0.957657
0.942978
0.914695
0.865142
0.785018
0.677824
0.563577
0.464231
0.390459
0.343702
0.324358
0.33574
0.382653
0.465243
0.573102
0.687356
0.788954
0.865275
0.912985
0.937462
0.948732
0.956266
0.96582
0.979083
0.994839
1.01045
1.02318
1.03116
1.03392
1.03225
1.0277
1.0219
1.01615
1.01121
1.00737
1.00461
1.00275
1.00156
1.00084
1.00043
1.0002
1.00009
1.00003
1.00001
1.00001
1
0.999999
0.999999
0.999999
1
0.999999
1
1
1
1
1
1
1
1
1
1
1
1
1
1
1
1
1
1
0.999999
1
1
1
1
1
0.999996
1.00001
1.00002
0.999989
1.00008
1.00008
1.00008
1.00046
1.00082
1.00157
1.00379
1.0072
1.01243
1.02103
1.03078
1.03719
1.03867
1.03468
1.02404
1.00943
0.996039
0.984406
0.972573
0.963849
0.96127
0.957083
0.940153
0.906448
0.851864
0.768464
0.658251
0.540437
0.437852
0.362578
0.316656
0.298835
0.309928
0.354641
0.435735
0.545225
0.664249
0.772231
0.85504
0.908112
0.935991
0.948633
0.956147
0.965123
0.977841
0.993347
1.00903
1.02206
1.03045
1.0336
1.03223
1.02786
1.02215
1.01642
1.01145
1.00757
1.00477
1.00287
1.00165
1.00091
1.00048
1.00024
1.00011
1.00005
1.00002
1.00001
1.00001
1
1
1
1
1
1
1
1
1
1
1
1
1
1
1
1
1
1
1
1
1
1
1
0.999999
1
1
1
1
1
0.999999
1
1.00001
0.999988
1.00003
1.00007
1.00006
1.00035
1.00083
1.00158
1.00368
1.00735
1.01274
1.02111
1.03105
1.0377
1.03856
1.0341
1.02392
1.00916
0.994799
0.983537
0.972833
0.9633
0.959586
0.956369
0.939173
0.901239
0.84216
0.757807
0.649176
0.532647
0.430051
0.354727
0.310172
0.294248
0.30528
0.347162
0.424613
0.532243
0.652019
0.762559
0.848694
0.904949
0.935071
0.948688
0.956189
0.964718
0.977002
0.992294
1.008
1.02123
1.02988
1.03329
1.03213
1.02789
1.02225
1.01655
1.01159
1.00769
1.00487
1.00296
1.00172
1.00097
1.00052
1.00027
1.00014
1.00006
1.00003
1.00002
1.00001
1
1
1
1
1
1
1
1
1
1
1
1
1
1
1
1
1
1
1
1
1
1
1
0.999999
1
0.999999
0.999999
1
0.999998
0.999999
0.999997
0.999999
0.999991
0.999996
1.00004
1.00006
1.00025
1.00076
1.00161
1.00355
1.00728
1.01291
1.02109
1.03094
1.03803
1.03878
1.03372
1.02386
1.00959
0.994383
0.982614
0.973202
0.963743
0.958037
0.955027
0.93979
0.900531
0.837804
0.75282
0.647892
0.536227
0.436843
0.363259
0.320448
0.306285
0.317485
0.356874
0.430129
0.533864
0.651209
0.760747
0.846961
0.903966
0.934909
0.948927
0.956344
0.964549
0.976532
0.991673
1.00738
1.0207
1.02949
1.03302
1.03196
1.0278
1.02222
1.01655
1.01161
1.00774
1.00492
1.00301
1.00177
1.00101
1.00056
1.0003
1.00016
1.00008
1.00004
1.00003
1.00001
1.00001
1
1
1
1
1
1
1
1
1
1
1
1
1
1
1
1
1
1
1
1
1
1
0.999999
1
1
0.999998
1
0.999996
0.999997
0.999996
0.999984
0.999984
0.999981
0.999987
1.00004
1.0002
1.00065
1.00158
1.00345
1.00705
1.01285
1.02099
1.03061
1.03806
1.03922
1.0338
1.02386
1.01038
0.994997
0.982055
0.973185
0.9649
0.95757
0.953235
0.940757
0.90429
0.840906
0.755333
0.653548
0.547574
0.45352
0.38392
0.343919
0.331427
0.342779
0.380192
0.449491
0.548351
0.660983
0.766563
0.849941
0.905355
0.935629
0.949378
0.956586
0.964584
0.976417
0.991487
1.00718
1.0205
1.02929
1.03281
1.03175
1.0276
1.02205
1.01643
1.01153
1.0077
1.00492
1.00302
1.0018
1.00104
1.00058
1.00032
1.00018
1.00009
1.00005
1.00003
1.00002
1.00001
1.00001
1
1
1
1
1
1
1
1
1
1
1
1
1
1
1
1
1
1
1
0.999999
1
1
1
1
0.999998
1
0.999996
0.999991
0.999996
0.999976
0.999967
0.999973
0.999946
0.999999
1.00016
1.00052
1.00146
1.00333
1.00674
1.01249
1.02071
1.03018
1.0378
1.03965
1.03442
1.0242
1.0112
0.996391
0.982478
0.972888
0.96587
0.958572
0.952283
0.941227
0.910362
0.851467
0.767976
0.668994
0.567943
0.479965
0.416099
0.379849
0.368795
0.380001
0.415701
0.481209
0.574339
0.680222
0.779206
0.857179
0.908944
0.93721
0.950051
0.956922
0.964831
0.976668
0.991752
1.00742
1.02064
1.02928
1.03265
1.03148
1.02729
1.02175
1.01618
1.01135
1.00759
1.00486
1.003
1.0018
1.00105
1.0006
1.00034
1.00019
1.00011
1.00006
1.00004
1.00002
1.00001
1.00001
1
1
1
1
1
1
1
1
1
1
1
1
1
1
1
1
1
1
1
1
1
1
1
1
0.999997
1
0.999997
0.999988
0.99999
0.999976
0.999949
0.999958
0.999925
0.999938
1.00011
1.00044
1.00128
1.00314
1.00642
1.01192
1.02013
1.02966
1.0374
1.03988
1.03538
1.02519
1.01217
0.99802
0.984042
0.973151
0.966106
0.960116
0.95335
0.942254
0.916544
0.866137
0.790023
0.696856
0.601846
0.520888
0.46309
0.429704
0.418861
0.429242
0.463157
0.524647
0.610853
0.707822
0.797686
0.867956
0.914321
0.939483
0.95092
0.95738
0.965329
0.977322
0.992495
1.0081
1.02112
1.02946
1.03255
1.03116
1.02686
1.02132
1.01581
1.01107
1.0074
1.00475
1.00295
1.00178
1.00105
1.00061
1.00035
1.0002
1.00012
1.00007
1.00004
1.00003
1.00001
1.00001
1.00001
1
1
1
1
1
1
1
1
1
0.999999
1
1
1
1
1
1
1
1
1
1
1
1
1
0.999998
0.999998
0.999997
0.999987
0.999983
0.999975
0.999938
0.999932
0.999916
0.999892
1.00004
1.00037
1.0011
1.00283
1.00603
1.01126
1.01922
1.0289
1.03695
1.03997
1.03637
1.02679
1.0137
0.999673
0.986204
0.974651
0.966322
0.960983
0.955705
0.945453
0.923241
0.881443
0.816655
0.734667
0.650299
0.578636
0.525926
0.493175
0.481098
0.490079
0.521911
0.578737
0.656494
0.742274
0.820683
0.881346
0.920963
0.942224
0.951943
0.958004
0.966146
0.978439
0.993755
1.00925
1.02193
1.02982
1.03248
1.03078
1.02632
1.02076
1.01532
1.0107
1.00714
1.00459
1.00286
1.00174
1.00104
1.00062
1.00036
1.00021
1.00012
1.00007
1.00005
1.00003
1.00002
1.00001
1.00001
1
1
1
1
1
1
1
1
1
1
1
1
1
1
1
1
1
1
1
1
0.999999
1
1
0.999998
0.999996
0.999996
0.999987
0.999978
0.999968
0.999937
0.999909
0.999896
0.999868
0.999952
1.00027
1.00094
1.00248
1.00553
1.01052
1.01809
1.02778
1.03637
1.04006
1.03729
1.02867
1.01598
1.00175
0.988465
0.977037
0.967649
0.961484
0.957548
0.950033
0.931723
0.897211
0.844296
0.777329
0.708279
0.647419
0.598582
0.565726
0.552723
0.560548
0.589931
0.64113
0.708846
0.781405
0.846459
0.89617
0.928236
0.945197
0.953104
0.958873
0.967378
0.980093
0.99557
1.01087
1.02306
1.03034
1.03242
1.03031
1.02566
1.02008
1.01473
1.01024
1.00682
1.00439
1.00274
1.00168
1.00102
1.00061
1.00036
1.00022
1.00013
1.00008
1.00005
1.00003
1.00002
1.00001
1.00001
1
1
1
1
1
1
1
1
1
1
1
1
1
1
1
1
1
1
1
1
1
1
1
0.999998
0.999997
0.999994
0.999988
0.999977
0.999961
0.999935
0.999898
0.999868