/*--------------------------------*- C++ -*----------------------------------*\
  =========                 |
  \\      /  F ield         | OpenFOAM: The Open Source CFD Toolbox
   \\    /   O peration     | Website:  https://openfoam.org
    \\  /    A nd           | Version:  6
     \\/     M anipulation  |
\*---------------------------------------------------------------------------*/
FoamFile
{
    version     2.0;
    format      ascii;
    class       volScalarField;
    location    "1.09";
    object      nut;
}
// * * * * * * * * * * * * * * * * * * * * * * * * * * * * * * * * * * * * * //

dimensions      [0 2 -1 0 0 0 0];

internalField   nonuniform List<scalar> 
4214
(
0.00533554
0.00747908
0.00989284
0.0114621
0.0121817
0.0124509
0.0125309
0.0125392
0.0125237
0.0125032
0.0124846
0.0124702
0.0124606
0.0124558
0.0124547
0.0124562
0.0124599
0.0124649
0.0124726
0.0124823
0.0124987
0.0124547
0.0123791
0.0123209
0.0122931
0.0122934
0.012314
0.012346
0.0123821
0.0124171
0.0124484
0.0124746
0.0124942
0.0125023
0.0124837
0.0123955
0.012125
0.0114125
0.00985087
0.00742848
0.00528209
0.00848482
0.0105451
0.0117447
0.0122901
0.0124997
0.0125636
0.0125686
0.012552
0.0125298
0.0125083
0.0124899
0.012475
0.0124641
0.0124571
0.0124533
0.0124515
0.0124509
0.0124507
0.0124528
0.0124565
0.012475
0.0123965
0.0122796
0.0122044
0.0121807
0.0121978
0.0122408
0.0122955
0.0123514
0.0124021
0.0124448
0.0124791
0.0125056
0.0125241
0.0125305
0.012511
0.0124282
0.0121916
0.0116031
0.010337
0.00820402
0.0106002
0.0117688
0.0123063
0.0125175
0.0125851
0.0125938
0.0125794
0.0125572
0.0125344
0.0125135
0.0124953
0.0124796
0.0124667
0.0124564
0.0124479
0.0124401
0.0124319
0.0124221
0.012413
0.0124033
0.0124166
0.0122856
0.0121243
0.012042
0.0120348
0.0120794
0.0121531
0.0122369
0.0123175
0.0123871
0.0124431
0.0124862
0.0125187
0.0125425
0.0125579
0.0125596
0.0125324
0.012437
0.0121812
0.011572
0.0102993
0.0116379
0.0122568
0.0125094
0.0125973
0.0126161
0.0126066
0.0125863
0.0125629
0.0125402
0.0125196
0.0125007
0.0124833
0.0124673
0.0124521
0.012437
0.0124202
0.0124003
0.0123755
0.0123484
0.0123162
0.0123116
0.0121128
0.0119187
0.0118463
0.0118677
0.0119475
0.0120575
0.0121747
0.0122831
0.012374
0.0124448
0.0124974
0.0125356
0.0125634
0.0125831
0.0125937
0.0125878
0.0125463
0.0124227
0.0121131
0.0114082
0.0121379
0.012472
0.0125978
0.0126341
0.012633
0.0126164
0.0125939
0.0125701
0.0125473
0.0125259
0.0125055
0.0124853
0.0124645
0.0124425
0.0124178
0.0123884
0.012352
0.0123065
0.0122545
0.0121916
0.0121532
0.0118855
0.0116861
0.0116411
0.0116972
0.0118142
0.0119617
0.0121137
0.0122513
0.0123645
0.0124507
0.0125128
0.0125566
0.0125876
0.01261
0.012625
0.0126291
0.012612
0.0125483
0.0123809
0.0119866
0.0123949
0.0125814
0.0126458
0.012658
0.0126477
0.0126276
0.0126037
0.0125791
0.0125553
0.0125321
0.0125088
0.0124841
0.0124567
0.0124252
0.0123875
0.0123411
0.0122837
0.0122129
0.0121325
0.0120371
0.0119535
0.0116403
0.0114695
0.0114583
0.0115436
0.0116916
0.0118728
0.0120579
0.0122244
0.0123598
0.0124613
0.0125327
0.0125814
0.0126149
0.0126389
0.0126563
0.0126659
0.0126616
0.0126286
0.0125344
0.0123085
0.0125413
0.0126473
0.0126792
0.0126784
0.0126628
0.0126403
0.012615
0.0125891
0.0125631
0.012537
0.0125092
0.0124779
0.0124411
0.0123966
0.0123421
0.012275
0.0121935
0.012097
0.0119919
0.0118758
0.0117527
0.0114415
0.0113199
0.0113289
0.0114244
0.0115896
0.0117963
0.0120103
0.0122037
0.0123605
0.0124765
0.0125565
0.0126093
0.0126444
0.012669
0.0126874
0.0127001
0.0127034
0.012688
0.0126345
0.0125031
0.0126339
0.0126933
0.0127063
0.0126977
0.0126786
0.0126541
0.0126271
0.0125989
0.0125696
0.0125385
0.0125036
0.0124626
0.0124127
0.0123514
0.0122765
0.0121867
0.0120824
0.011967
0.0118532
0.011748
0.0116206
0.0113663
0.0112841
0.0112764
0.0113511
0.0115139
0.0117348
0.0119718
0.0121891
0.0123658
0.0124957
0.0125834
0.0126395
0.012675
0.012699
0.0127173
0.0127314
0.0127393
0.0127348
0.0127059
0.0126295
0.0127004
0.0127321
0.0127328
0.0127181
0.0126953
0.0126679
0.0126372
0.0126038
0.0125681
0.0125288
0.0124836
0.0124291
0.0123623
0.0122812
0.012185
0.0120751
0.0119564
0.0118393
0.0117468
0.0117065
0.0116432
0.0114846
0.0113934
0.0113128
0.0113278
0.0114655
0.011688
0.0119414
0.0121791
0.0123745
0.0125174
0.0126124
0.0126708
0.0127057
0.0127281
0.0127448
0.0127588
0.0127693
0.012772
0.0127585
0.0127155
0.0127475
0.0127603
0.012752
0.0127324
0.012706
0.0126746
0.0126389
0.0125987
0.0125527
0.0125003
0.012439
0.0123658
0.012279
0.0121781
0.0120648
0.0119446
0.0118287
0.0117374
0.0117093
0.0118059
0.0119008
0.0118426
0.0116606
0.0114389
0.0113516
0.0114408
0.0116522
0.0119156
0.0121706
0.0123836
0.0125395
0.0126418
0.0127022
0.0127359
0.0127553
0.0127691
0.0127815
0.0127929
0.0128001
0.012797
0.0127747
0.0127826
0.0127823
0.0127671
0.0127429
0.012712
0.0126753
0.0126323
0.0125818
0.0125222
0.0124515
0.0123701
0.0122748
0.0121656
0.0120458
0.0119226
0.0118071
0.011718
0.0116875
0.0117746
0.0120901
0.0124459
0.012458
0.0120807
0.0116463
0.0114148
0.0114329
0.0116208
0.0118889
0.0121584
0.0123891
0.0125589
0.0126696
0.0127327
0.0127648
0.0127805
0.0127901
0.0127993
0.0128095
0.0128189
0.0128227
0.0128143
0.0128104
0.0128005
0.0127793
0.0127498
0.012713
0.0126681
0.0126141
0.012549
0.0124708
0.012378
0.0122706
0.0121525
0.0120232
0.0118913
0.0117703
0.0116787
0.0116434
0.0117105
0.0119649
0.0125799
0.0132883
0.0133212
0.0126375
0.0119223
0.0115075
0.0114322
0.0115845
0.0118532
0.0121351
0.0123852
0.012571
0.012693
0.0127606
0.0127923
0.012804
0.0128084
0.0128126
0.0128195
0.0128286
0.0128361
0.012837
0.0128325
0.0128155
0.0127888
0.0127531
0.0127077
0.012651
0.0125809
0.0124953
0.0123925
0.0122725
0.0121375
0.0119954
0.0118517
0.0117186
0.0116161
0.0115696
0.0116147
0.0118129
0.0122824
0.0132656
0.0143864
0.0144046
0.0133123
0.0122546
0.0116213
0.0114287
0.0115318
0.0117981
0.0120903
0.0123639
0.0125691
0.0127079
0.0127837
0.0128177
0.0128265
0.0128254
0.0128232
0.0128245
0.0128302
0.012838
0.0128438
0.0128501
0.0128278
0.0127956
0.0127522
0.0126952
0.0126217
0.0125292
0.012416
0.0122819
0.0121294
0.0119648
0.0117998
0.01165
0.0115289
0.0114619
0.0114809
0.0116283
0.0119821
0.0127072
0.0141047
0.0156478
0.015672
0.0140929
0.0126352
0.011754
0.0114138
0.0114503
0.0117119
0.0120103
0.0123153
0.0125437
0.0127083
0.0127979
0.0128398
0.0128485
0.0128431
0.0128339
0.0128278
0.012827
0.012831
0.0128369
0.012864
0.0128379
0.0127999
0.0127466
0.0126739
0.0125779
0.012456
0.0123076
0.0121355
0.0119462
0.0117514
0.0115681
0.0114194
0.0113215
0.0113039
0.011403
0.0116656
0.0121876
0.0132039
0.015031
0.016939
0.0170869
0.0149816
0.0130619
0.0119167
0.0113839
0.011331
0.0115833
0.0118778
0.0122282
0.012481
0.0126869
0.0127963
0.0128561
0.012869
0.0128632
0.0128481
0.012834
0.0128245
0.0128208
0.0128216
0.0128751
0.012846
0.0128014
0.0127355
0.0126426
0.0125179
0.0123595
0.0121691
0.0119535
0.0117247
0.0115007
0.0113042
0.011163
0.0110977
0.0111386
0.0113222
0.0117054
0.0123934
0.0137425
0.0159742
0.0181028
0.0186081
0.0160012
0.0135349
0.0121438
0.0113416
0.0111762
0.0114055
0.0116724
0.0120929
0.0123605
0.0126369
0.0127674
0.0128636
0.0128853
0.0128869
0.0128684
0.0128479
0.0128293
0.0128155
0.0128073
0.0128836
0.0128506
0.0127972
0.0127155
0.0125976
0.0124388
0.012238
0.0120008
0.0117389
0.0114711
0.0112214
0.0110172
0.0108897
0.0108618
0.0109657
0.0112205
0.0117521
0.0125803
0.0143338
0.0168814
0.018984
0.020183
0.017204
0.0140391
0.0125059
0.0112873
0.01101
0.0111759
0.0113706
0.0119028
0.0121461
0.0125554
0.0126889
0.0128631
0.0128913
0.0129168
0.0128986
0.0128748
0.01285
0.0128244
0.0128069
0.012791
0.0128029
0.0128243
0.0128411
0.0128429
0.0128251
0.0127857
0.0127203
0.0126188
0.012461
0.0122117
0.0118074
0.0111336
0.0100021
0.00819033
0.00577218
0.00464556
0.01278
0.0127985
0.0128206
0.0128346
0.0128319
0.0128085
0.0127603
0.0126783
0.0125448
0.0123294
0.011982
0.0114225
0.0105305
0.00915924
0.00725091
0.00516005
0.00420694
0.0127697
0.0127914
0.0128116
0.0128214
0.0128133
0.012783
0.0127236
0.0126205
0.0124472
0.0121613
0.0116992
0.0109715
0.00987331
0.00833345
0.00644582
0.00463818
0.00380034
0.0127596
0.0127803
0.0127968
0.0128013
0.0127875
0.0127496
0.0126771
0.0125488
0.0123288
0.0119623
0.0113741
0.0104764
0.00919973
0.00756228
0.00576454
0.00420923
0.00344483
0.0127472
0.0127649
0.0127767
0.0127758
0.0127561
0.0127102
0.0126233
0.012467
0.0121957
0.0117428
0.0110254
0.0099672
0.00854787
0.00687055
0.00519219
0.00384637
0.00313922
0.012732
0.0127454
0.0127522
0.0127462
0.012721
0.0126671
0.0125652
0.0123803
0.0120568
0.0115175
0.0106761
0.00947546
0.00794929
0.0062698
0.00471367
0.00353671
0.0028815
0.0127138
0.0127227
0.0127248
0.0127142
0.0126841
0.0126226
0.0125063
0.0122943
0.0119221
0.0113033
0.0103509
0.00903047
0.00742656
0.0057631
0.00431598
0.0032725
0.00266924
0.0126935
0.0126979
0.0126959
0.0126815
0.0126471
0.0125788
0.0124501
0.0122151
0.0118019
0.0111167
0.0100726
0.00865589
0.00699373
0.00534817
0.00398811
0.00304899
0.00249968
0.0126717
0.0126724
0.0126671
0.0126496
0.0126116
0.0125377
0.0123994
0.0121474
0.0117047
0.0109715
0.00985966
0.0083689
0.00665856
0.00502046
0.00372079
0.00286159
0.0023699
0.0126497
0.0126474
0.0126395
0.0126196
0.0125787
0.0125006
0.0123561
0.0120945
0.0116361
0.0108768
0.00972416
0.00818081
0.00642532
0.00477567
0.00350659
0.00270544
0.0022768
0.0126278
0.0126237
0.012614
0.0125923
0.0125492
0.0124684
0.0123211
0.0120571
0.0115974
0.0108354
0.00967119
0.00809787
0.0062972
0.00461142
0.00334022
0.0025754
0.0022172
0.0126071
0.0126018
0.0125911
0.0125681
0.0125234
0.0124414
0.012294
0.0120339
0.0115854
0.0108431
0.0096979
0.00812131
0.00627808
0.00452908
0.00321913
0.00246799
0.00218783
0.0125869
0.0125818
0.0125707
0.012547
0.0125015
0.0124191
0.0122739
0.0120219
0.0115934
0.0108881
0.00979154
0.00824447
0.00637151
0.00453504
0.0031446
0.00238076
0.00218535
0.0125673
0.0125628
0.012552
0.0125284
0.0124829
0.0124011
0.0122591
0.0120173
0.0116129
0.0109547
0.00992893
0.0084487
0.00657565
0.00464034
0.00312399
0.00231144
0.00220631
0.0125462
0.0125433
0.0125336
0.0125111
0.0124664
0.0123861
0.012248
0.0120164
0.0116362
0.0110263
0.0100816
0.00869959
0.00687312
0.00485358
0.00316867
0.00225988
0.00224714
0.0125223
0.012521
0.0125133
0.0124925
0.0124494
0.0123712
0.0122376
0.0120161
0.0116576
0.0110908
0.0102234
0.00895341
0.00722452
0.00517245
0.00329598
0.00222989
0.00230406
0.0124917
0.0124923
0.012487
0.0124684
0.0124277
0.0123525
0.0122239
0.0120121
0.0116724
0.0111411
0.0103376
0.00917163
0.00757094
0.00556802
0.00352614
0.00223228
0.00237282
0.0124512
0.0124523
0.0124488
0.0124328
0.0123949
0.0123232
0.0121998
0.0119973
0.0116742
0.0111721
0.0104177
0.00933291
0.0078538
0.00596726
0.00385607
0.00228496
0.00244851
0.0123944
0.0123943
0.0123907
0.0123763
0.0123411
0.0122728
0.0121543
0.0119603
0.011652
0.0111751
0.0104603
0.00943543
0.00804731
0.00628598
0.0042271
0.0024056
0.00252561
0.0123166
0.0123096
0.0123017
0.0122858
0.0122514
0.0121853
0.0120706
0.0118834
0.011588
0.0111335
0.0104542
0.00947976
0.00815932
0.00649116
0.00454064
0.00259189
0.00259869
0.0122085
0.0121881
0.012168
0.012144
0.0121052
0.0120377
0.0119242
0.0117414
0.0114564
0.0110222
0.0103776
0.00945386
0.00819826
0.00660311
0.00473947
0.00279009
0.00266414
0.0120649
0.0120182
0.0119742
0.0119303
0.0118771
0.0118003
0.0116819
0.0114991
0.011221
0.0108052
0.0101953
0.00932693
0.00814522
0.00663063
0.00483077
0.00290982
0.00272085
0.0118721
0.0117874
0.0117038
0.0116236
0.0115404
0.011441
0.0113082
0.0111199
0.0108478
0.0104549
0.00988966
0.00909258
0.00800706
0.00659925
0.00488499
0.00300599
0.00278539
0.0116224
0.0114801
0.0113402
0.0112057
0.0110739
0.0109351
0.0107742
0.0105716
0.0103022
0.00993389
0.00942262
0.00871345
0.00774922
0.00648112
0.00489036
0.00308519
0.00286391
0.0112945
0.0110862
0.0108716
0.0106633
0.0104637
0.0102674
0.0100625
0.00983281
0.00955802
0.00921182
0.0087587
0.0081515
0.00733305
0.00624173
0.00482292
0.00313695
0.00295815
0.0109073
0.0105948
0.0102892
0.00999339
0.00971272
0.00944561
0.00918415
0.00891633
0.00862684
0.00829645
0.00789921
0.00739769
0.0067403
0.00585711
0.00466146
0.00315131
0.00306894
0.0103807
0.00999395
0.00959416
0.00920708
0.00884279
0.00850281
0.0081822
0.00787244
0.00756307
0.00724172
0.00689177
0.00648679
0.0059853
0.00532201
0.00438822
0.00312365
0.00319741
0.0098392
0.00930535
0.00880387
0.00833115
0.00789323
0.00749133
0.00712135
0.00677673
0.00645037
0.00613492
0.00582087
0.00549238
0.00512126
0.00465626
0.00399538
0.00304927
0.00334795
0.00909805
0.00851861
0.00794349
0.00740592
0.00691566
0.0064731
0.00607339
0.00571006
0.00537714
0.00506966
0.0047824
0.00450762
0.00423044
0.0039198
0.00350665
0.00291439
0.00352716
0.00844298
0.00771081
0.00706306
0.0064822
0.00596535
0.00550761
0.00510145
0.00473884
0.00441339
0.00412007
0.00385569
0.00361752
0.00340214
0.00320047
0.00298838
0.00273154
0.00374192
0.00757167
0.00685986
0.006195
0.00560472
0.00508918
0.00464057
0.00424883
0.00390416
0.00359856
0.00332614
0.00308442
0.00287482
0.00270272
0.00257723
0.00251579
0.00255819
0.00399964
0.00690965
0.00608212
0.00539574
0.00481406
0.00431965
0.00389777
0.00353467
0.00321857
0.00294017
0.0026934
0.00247723
0.0022962
0.00216067
0.00209002
0.0021279
0.00238237
0.00429829
0.00606163
0.00532019
0.00467145
0.00412522
0.00366818
0.00328351
0.00295581
0.00267279
0.00242548
0.00220915
0.0020244
0.00187641
0.00177527
0.00174193
0.00182799
0.00218909
0.00462133
0.00549424
0.00468765
0.00405656
0.00354817
0.00313254
0.00278748
0.00249662
0.00224877
0.00203673
0.00185727
0.00171021
0.00159782
0.00152686
0.0015148
0.00160927
0.00199448
0.00494179
0.00478489
0.00409502
0.00352679
0.00306892
0.00269748
0.00239214
0.00213896
0.00192936
0.00175768
0.0016191
0.00151052
0.00143128
0.0013845
0.00138204
0.00146281
0.00181896
0.00523415
0.0043472
0.0036308
0.00309594
0.00267997
0.00234867
0.00208177
0.00186774
0.00169933
0.00156965
0.00147045
0.00139659
0.00134509
0.00131616
0.00131686
0.00137595
0.00167273
0.00549038
0.00380179
0.00320253
0.00273068
0.00236121
0.00207016
0.00184256
0.00166907
0.0015422
0.00145199
0.00138716
0.00134155
0.00131127
0.00129517
0.00129703
0.00133562
0.00156015
0.00570716
0.00347903
0.00287546
0.00243753
0.00210528
0.00185178
0.00166305
0.00152963
0.00144158
0.00138603
0.00134906
0.00132485
0.00130973
0.00130271
0.00130604
0.0013303
0.00148255
0.00587756
0.00307222
0.00257419
0.00218954
0.00189742
0.00168196
0.00153194
0.00143645
0.00138356
0.00135751
0.00134208
0.00133258
0.00132712
0.00132653
0.0013329
0.00135138
0.00144357
0.00599047
0.00284281
0.00234788
0.00199122
0.00173216
0.00155271
0.00143939
0.00137925
0.00135793
0.00135653
0.00135654
0.00135476
0.00135467
0.00135969
0.00137202
0.00139403
0.00145039
0.00603458
0.0015062
0.00143484
0.00137968
0.0013376
0.00130601
0.00128276
0.00126612
0.00125465
0.00124721
0.00124286
0.00124088
0.00124068
0.00124183
0.00124398
0.00124688
0.00125036
0.00125428
0.00125857
0.00126325
0.00126849
0.00127641
0.00128451
0.00129015
0.0012953
0.00130034
0.00130555
0.00131221
0.00132301
0.00133647
0.00136234
0.00138898
0.00144079
0.00148661
0.00157414
0.00164354
0.00177387
0.00186968
0.00204646
0.00217025
0.00239499
0.00254962
0.00136518
0.0013214
0.00128883
0.00126513
0.00124842
0.00123717
0.00123017
0.00122642
0.00122512
0.00122567
0.00122756
0.00123042
0.00123398
0.00123801
0.00124237
0.00124697
0.00125173
0.00125666
0.00126181
0.0012675
0.00127658
0.0012853
0.0012908
0.00129541
0.00129948
0.00130311
0.00130655
0.00131092
0.00131716
0.00132781
0.00134284
0.00136783
0.00139886
0.00144606
0.00149896
0.00157381
0.00165226
0.00175747
0.00186377
0.00200119
0.00213842
0.00127717
0.00125219
0.00123486
0.00122345
0.0012166
0.00121324
0.00121251
0.00121372
0.00121636
0.00121999
0.00122431
0.00122908
0.00123412
0.00123931
0.00124457
0.00124987
0.00125517
0.00126052
0.00126602
0.00127203
0.00128174
0.00129087
0.00129652
0.0013012
0.00130525
0.00130868
0.00131129
0.00131339
0.0013156
0.00131904
0.00132478
0.00133499
0.0013504
0.0013741
0.00140526
0.00144779
0.00149879
0.00156304
0.00163612
0.00172413
0.0018222
0.00122549
0.00121316
0.00120597
0.00120263
0.00120218
0.00120387
0.00120711
0.00121143
0.00121649
0.00122202
0.0012278
0.00123369
0.00123959
0.00124543
0.0012512
0.00125687
0.00126248
0.00126806
0.00127375
0.00127993
0.00128982
0.00129911
0.00130497
0.00130995
0.00131437
0.00131825
0.00132141
0.00132322
0.00132427
0.00132496
0.00132596
0.00132836
0.00133329
0.00134234
0.00135643
0.00137716
0.00140469
0.00144041
0.00148391
0.0015367
0.00159867
0.00119875
0.00119477
0.00119416
0.00119598
0.00119956
0.00120439
0.00121006
0.00121626
0.00122275
0.00122936
0.00123595
0.00124245
0.00124879
0.00125495
0.00126093
0.00126675
0.00127245
0.00127809
0.00128382
0.00129001
0.00129971
0.0013089
0.0013149
0.00132017
0.00132503
0.00132951
0.00133354
0.00133615
0.00133769
0.00133816
0.00133784
0.00133721
0.00133696
0.00133805
0.00134141
0.0013481
0.00135886
0.00137448
0.00139532
0.00142199
0.00145502
0.0011893
0.00119067
0.00119417
0.00119917
0.00120518
0.00121187
0.00121894
0.0012262
0.00123347
0.00124065
0.00124764
0.00125439
0.00126089
0.00126712
0.0012731
0.00127889
0.00128452
0.00129008
0.00129569
0.00130172
0.00131097
0.00131981
0.0013258
0.00133125
0.00133644
0.00134142
0.00134614
0.00135017
0.00135267
0.00135406
0.00135431
0.0013535
0.0013519
0.00134995
0.00134824
0.00134745
0.00134823
0.00135118
0.00135675
0.00136529
0.00137725
0.00119211
0.00119671
0.00120263
0.00120945
0.00121683
0.00122454
0.00123236
0.00124015
0.00124779
0.00125519
0.0012623
0.00126908
0.00127554
0.00128167
0.00128751
0.00129312
0.00129854
0.00130388
0.00130925
0.00131498
0.00132354
0.00133182
0.00133763
0.00134307
0.0013484
0.00135366
0.00135882
0.00136383
0.00136769
0.00137034
0.00137184
0.00137214
0.00137124
0.00136926
0.00136641
0.00136303
0.00135951
0.00135621
0.00135345
0.00135144
0.00135036
0.0012039
0.00121025
0.00121745
0.0012252
0.00123325
0.00124143
0.00124957
0.00125756
0.0012653
0.00127271
0.00127976
0.00128642
0.00129269
0.0012986
0.00130418
0.00130949
0.00131461
0.0013196
0.0013246
0.0013299
0.00133761
0.00134512
0.00135057
0.0013558
0.00136103
0.0013663
0.0013716
0.00137687
0.00138204
0.00138601
0.00138879
0.00139051
0.00139104
0.00139033
0.00138838
0.00138528
0.00138117
0.00137622
0.00137059
0.00136442
0.00135749
0.00122255
0.00122968
0.00123739
0.00124549
0.00125377
0.00126208
0.00127028
0.00127825
0.00128591
0.00129319
0.00130005
0.00130648
0.00131247
0.00131806
0.0013233
0.00132823
0.00133293
0.00133748
0.00134201
0.00134675
0.00135346
0.00136004
0.00136495
0.00136975
0.00137462
0.00137959
0.00138466
0.00138978
0.00139489
0.00139988
0.00140418
0.00140722
0.00140914
0.00140996
0.00140956
0.00140787
0.00140483
0.00140042
0.00139454
0.0013866
0.00137602
0.00124675
0.00125403
0.0012618
0.00126989
0.00127813
0.00128635
0.00129443
0.00130225
0.00130971
0.00131676
0.00132335
0.00132946
0.00133511
0.00134032
0.00134513
0.0013496
0.00135381
0.00135784
0.0013618
0.00136588
0.00137149
0.00137699
0.00138118
0.00138533
0.00138958
0.00139394
0.00139841
0.00140294
0.00140745
0.00141186
0.00141603
0.00141978
0.0014229
0.00142486
0.00142538
0.00142434
0.00142151
0.00141653
0.00140904
0.00139859
0.00138479
0.00127571
0.00128281
0.0012904
0.00129829
0.00130632
0.00131433
0.00132217
0.00132974
0.00133693
0.00134367
0.00134992
0.00135566
0.0013609
0.00136566
0.00136999
0.00137395
0.00137761
0.00138104
0.00138435
0.00138769
0.00139212
0.00139643
0.00139975
0.00140306
0.00140644
0.00140991
0.00141344
0.00141698
0.00142046
0.00142376
0.00142674
0.00142922
0.00143098
0.00143176
0.00143126
0.00142913
0.00142503
0.00141862
0.00140962
0.00139789
0.00138341
0.00130911
0.00131592
0.00132322
0.00133082
0.00133856
0.00134627
0.0013538
0.00136103
0.00136787
0.00137423
0.00138008
0.0013854
0.00139018
0.00139445
0.00139825
0.00140165
0.00140471
0.0014075
0.0014101
0.00141264
0.00141586
0.00141893
0.00142128
0.00142359
0.00142592
0.00142828
0.00143063
0.00143292
0.00143506
0.00143695
0.00143845
0.0014394
0.00143959
0.0014388
0.00143679
0.0014333
0.00142807
0.0014209
0.00141167
0.00140036
0.0013871
0.00134708
0.00135359
0.00136061
0.00136789
0.00137528
0.00138261
0.00138975
0.00139658
0.00140298
0.0014089
0.00141428
0.00141911
0.00142338
0.00142712
0.00143036
0.00143317
0.00143559
0.0014377
0.00143957
0.00144129
0.00144334
0.00144519
0.00144651
0.00144776
0.00144897
0.00145012
0.00145119
0.00145213
0.00145287
0.00145331
0.00145334
0.00145283
0.00145162
0.00144957
0.00144648
0.00144219
0.00143655
0.00142946
0.00142088
0.00141085
0.00139951
0.00139041
0.0013966
0.00140333
0.00141024
0.00141721
0.00142407
0.00143071
0.00143701
0.00144288
0.00144825
0.00145308
0.00145734
0.00146104
0.0014642
0.00146686
0.00146905
0.00147084
0.00147228
0.00147343
0.00147436
0.00147533
0.00147607
0.00147643
0.00147666
0.00147678
0.00147679
0.00147666
0.00147636
0.00147584
0.00147503
0.00147385
0.00147221
0.00147002
0.00146718
0.00146357
0.00145909
0.00145367
0.00144725
0.00143984
0.00143143
0.00142228
0.0014408
0.00144651
0.00145282
0.00145922
0.00146558
0.00147178
0.00147773
0.00148332
0.00148847
0.00149313
0.00149727
0.00150086
0.00150391
0.00150644
0.00150847
0.00151005
0.00151123
0.00151204
0.00151254
0.00151278
0.00151288
0.00151273
0.00151229
0.0015117
0.00151095
0.00151006
0.00150901
0.00150778
0.00150635
0.00150468
0.00150274
0.00150046
0.0014978
0.00149469
0.00149109
0.00148694
0.00148221
0.00147685
0.00147085
0.00146422
0.00145742
0.00150148
0.00150615
0.00151162
0.00151708
0.00152242
0.00152757
0.00153245
0.00153698
0.0015411
0.00154479
0.00154801
0.00155076
0.00155303
0.00155485
0.00155624
0.00155724
0.00155786
0.00155816
0.00155817
0.00155791
0.00155746
0.00155677
0.00155587
0.0015548
0.00155359
0.00155224
0.00155074
0.0015491
0.00154732
0.00154537
0.00154324
0.00154091
0.00153836
0.00153557
0.0015325
0.00152914
0.00152546
0.00152144
0.00151707
0.00151233
0.00150805
0.00157798
0.00158038
0.00158405
0.00158765
0.00159113
0.00159443
0.00159752
0.00160036
0.00160291
0.00160516
0.00160709
0.00160871
0.00161001
0.00161101
0.00161172
0.00161217
0.00161238
0.00161236
0.00161215
0.00161175
0.00161119
0.00161049
0.00160965
0.0016087
0.00160764
0.0016065
0.00160526
0.00160394
0.00160255
0.00160107
0.00159951
0.00159786
0.00159612
0.00159429
0.00159235
0.00159029
0.00158811
0.00158578
0.00158331
0.00158068
0.00157929
0.0046503
0.00606538
0.0086103
0.010352
0.011367
0.0119387
0.0122705
0.0124733
0.0126044
0.0126935
0.0127566
0.0128026
0.0128367
0.012862
0.0128802
0.0128928
0.0129024
0.00421387
0.00536003
0.00754984
0.00942802
0.0107067
0.0115065
0.0119999
0.0123094
0.0125087
0.0126409
0.012731
0.0127939
0.0128386
0.0128702
0.0128915
0.012905
0.0129123
0.0038096
0.00475913
0.00663423
0.00850198
0.00996504
0.0109823
0.0116542
0.0120912
0.0123758
0.0125628
0.0126873
0.0127714
0.012829
0.0128683
0.0128938
0.0129086
0.0129138
0.00345609
0.00428538
0.00587391
0.00764109
0.0092022
0.0104018
0.0112521
0.0118288
0.0122112
0.0124623
0.0126268
0.0127351
0.0128071
0.0128548
0.012885
0.0129016
0.012908
0.0031521
0.00389551
0.00524881
0.00688042
0.00847164
0.00980855
0.0108221
0.0115395
0.0120254
0.0123455
0.0125532
0.0126874
0.0127742
0.0128303
0.0128654
0.0128846
0.0128921
0.00289551
0.0035694
0.00473762
0.00623291
0.00781235
0.00924429
0.0103971
0.0112463
0.0118336
0.0122224
0.0124729
0.0126321
0.0127328
0.0127967
0.0128363
0.0128585
0.0128676
0.00268381
0.00329488
0.0043195
0.00569573
0.00724591
0.00874173
0.0100077
0.0109729
0.011652
0.0121035
0.0123927
0.012574
0.0126865
0.0127567
0.0127998
0.0128245
0.0128364
0.0025143
0.00306415
0.00397785
0.00525999
0.00678148
0.00832318
0.00967932
0.0107398
0.0114953
0.0119985
0.0123188
0.0125174
0.0126388
0.0127133
0.0127588
0.0127854
0.0128002
0.0023842
0.00287096
0.00369993
0.00491585
0.00642115
0.00800205
0.0094293
0.0105622
0.0113741
0.0119139
0.0122555
0.0124654
0.0125926
0.0126696
0.0127166
0.0127449
0.0127617
0.00229048
0.0027098
0.00347652
0.00465571
0.00616485
0.007786
0.00926784
0.0104486
0.0112932
0.0118524
0.0122044
0.0124196
0.0125495
0.0126278
0.0126755
0.0127048
0.0127228
0.00222985
0.00257595
0.00330146
0.00447532
0.00601327
0.00767881
0.00919787
0.0103993
0.0112514
0.0118125
0.0121647
0.01238
0.0125103
0.0125893
0.0126375
0.0126674
0.0126867
0.00219886
0.0024653
0.00317155
0.00437494
0.00596874
0.00768012
0.00921416
0.0104059
0.0112412
0.0117887
0.0121332
0.0123454
0.0124751
0.0125546
0.0126036
0.0126342
0.0126534
0.00219393
0.00237453
0.0030876
0.00436021
0.00603431
0.0077824
0.0093007
0.0104521
0.0112502
0.0117737
0.0121062
0.0123141
0.0124431
0.0125232
0.0125729
0.0126031
0.012619
0.00221119
0.00230278
0.00305845
0.00444303
0.00620819
0.00796497
0.00942917
0.0105149
0.0112644
0.0117602
0.0120803
0.0122842
0.012413
0.0124937
0.0125431
0.0125714
0.0125824
0.00224649
0.00225153
0.00309577
0.004629
0.00646799
0.00818663
0.00956393
0.0105726
0.011273
0.0117437
0.0120532
0.0122539
0.0123822
0.0124624
0.0125096
0.0125335
0.0125355
0.00229564
0.00222742
0.0032164
0.00490886
0.00676793
0.00839992
0.0096764
0.0106126
0.0112714
0.0117214
0.0120219
0.0122189
0.0123452
0.0124224
0.0124638
0.0124787
0.0124642
0.0023545
0.00224513
0.00343264
0.00524364
0.00704862
0.00856911
0.00975427
0.0106324
0.011258
0.0116899
0.0119804
0.0121711
0.0122914
0.0123609
0.0123918
0.0123922
0.0123582
0.00241901
0.00232378
0.00372393
0.0055602
0.00726427
0.00868511
0.00980052
0.0106328
0.0112281
0.0116394
0.0119149
0.0120932
0.0122013
0.0122576
0.0122733
0.0122552
0.0121999
0.0024854
0.00247336
0.00402046
0.00579829
0.00741036
0.00875889
0.00981827
0.0106053
0.0111639
0.0115456
0.011797
0.0119549
0.0120452
0.0120848
0.0120839
0.0120468
0.0119667
0.00255111
0.00266623
0.00424677
0.00595697
0.00750776
0.00879468
0.00979224
0.0105204
0.0110272
0.011366
0.0115837
0.011716
0.0117876
0.0118133
0.0118005
0.0117507
0.0116569
0.00261685
0.00283054
0.00438792
0.00606671
0.00756227
0.00877108
0.00968191
0.010327
0.0107632
0.011048
0.0112285
0.0113386
0.0113995
0.0114224
0.0114106
0.0113611
0.0112686
0.00268752
0.00291801
0.00446438
0.00612489
0.0075387
0.0086328
0.00942309
0.00996215
0.0103176
0.0105496
0.0107018
0.0108031
0.010869
0.0109051
0.01091
0.0108768
0.010792
0.00278241
0.00298924
0.00452765
0.00613792
0.00741704
0.00834628
0.00898225
0.00940069
0.00967684
0.00986638
0.0100053
0.0101139
0.0102004
0.0102652
0.0103019
0.0103003
0.0102457
0.00290263
0.00304301
0.00456402
0.00606271
0.00714379
0.00786925
0.00833933
0.00864588
0.00885957
0.00902444
0.00916543
0.00929398
0.00941225
0.00951614
0.0095966
0.00964041
0.00963348
0.00304061
0.00307695
0.00455097
0.00585359
0.00668496
0.00719692
0.00751917
0.00773957
0.00791289
0.0080686
0.00822087
0.00837468
0.00852883
0.00867752
0.00881004
0.00890941
0.0089509
0.00318251
0.00309255
0.00445747
0.00547992
0.00604818
0.00637437
0.00658586
0.00674979
0.00690091
0.00705537
0.00721983
0.00739615
0.00758273
0.00777435
0.00796061
0.00812349
0.00823757
0.00331541
0.00309972
0.0042456
0.00494319
0.00528221
0.00547466
0.00561649
0.00574835
0.00588765
0.0060417
0.00621374
0.00640527
0.00661592
0.00684237
0.00707644
0.00730272
0.0075032
0.00343757
0.0030844
0.00389332
0.00428892
0.0044647
0.00457743
0.00468217
0.00479715
0.00492853
0.00507929
0.00525216
0.00544975
0.00567363
0.00592321
0.00619368
0.00647233
0.00673408
0.00356178
0.00299065
0.00342895
0.00359845
0.00367766
0.00375039
0.00383763
0.00394286
0.00406624
0.00420976
0.00437697
0.00457191
0.00479796
0.00505709
0.00534831
0.00566537
0.00598812
0.00371696
0.00281728
0.00292908
0.00295346
0.00298277
0.00303759
0.00311613
0.00321321
0.00332695
0.00345974
0.00361617
0.00380137
0.00402
0.00427599
0.00457207
0.00490911
0.00528869
0.0039368
0.00261365
0.00246612
0.00240548
0.00241072
0.00245719
0.00252904
0.00261711
0.00271934
0.00283886
0.00298101
0.00315143
0.00335553
0.00359857
0.00388596
0.00422302
0.00461993
0.00423085
0.00239382
0.00207655
0.00197348
0.00196781
0.00200847
0.00207246
0.00214967
0.0022387
0.00234322
0.00246886
0.00262139
0.00280643
0.00302998
0.00329911
0.00362335
0.00402644
0.00456705
0.00216721
0.00177081
0.00165608
0.00164635
0.00168065
0.00173445
0.00179873
0.00187305
0.00196132
0.00206899
0.00220168
0.00236501
0.00256528
0.00281042
0.00311287
0.00351734
0.00489562
0.00195529
0.00154649
0.00144071
0.00143031
0.00145685
0.00149853
0.00154842
0.00160705
0.00167834
0.00176725
0.00187901
0.00201915
0.00219413
0.00241228
0.00268775
0.00307782
0.00518605
0.00176818
0.00139551
0.00130925
0.00129912
0.00131668
0.00134532
0.00138055
0.00142357
0.00147797
0.00154813
0.0016388
0.00175535
0.00190435
0.00209433
0.00234216
0.00270974
0.00543467
0.00161491
0.00130715
0.00124244
0.00123183
0.00123992
0.00125571
0.00127694
0.00130518
0.00134358
0.00139587
0.00146627
0.00155992
0.0016834
0.00184541
0.00206679
0.00240191
0.00564499
0.00150254
0.00126968
0.00122265
0.00120983
0.00120853
0.00121251
0.00122112
0.00123601
0.00125981
0.00129565
0.00134733
0.0014197
0.00151912
0.00165443
0.00185056
0.00214248
0.0058141
0.00143305
0.00127173
0.00123558
0.00121855
0.00120825
0.00120178
0.00119937
0.00120254
0.00121342
0.00123463
0.00126956
0.00132273
0.0014003
0.00151113
0.00168144
0.00192717
0.00593302
0.0014072
0.00130396
0.00127097
0.00124779
0.00122883
0.00121308
0.00120107
0.00119405
0.00119369
0.00120218
0.00122252
0.00125886
0.00131704
0.00140614
0.00154877
0.00175337
0.00599285
0.00142857
0.00136067
0.00132308
0.00129146
0.00126363
0.00123919
0.00121855
0.00120256
0.00119246
0.00119005
0.0011979
0.00121975
0.00126107
0.00133079
0.00144508
0.00161524
0.0128351
0.0126591
0.0123027
0.0117631
0.0111593
0.0107064
0.0106226
0.0111006
0.012732
0.0177234
0.0217868
0.0144768
0.011152
0.0108586
0.0116402
0.0124391
0.0128549
0.0129496
0.0129094
0.0128446
0.0127836
0.0125433
0.0120941
0.0114736
0.0108495
0.0104497
0.0104511
0.0110507
0.0129699
0.018849
0.0239805
0.0152315
0.0111053
0.0104976
0.0112687
0.0122339
0.012809
0.0129746
0.0129467
0.012874
0.0127044
0.012391
0.0118513
0.0111699
0.0105516
0.0102166
0.0103074
0.0110422
0.0132609
0.0200814