/*--------------------------------*- C++ -*----------------------------------*\
  =========                 |
  \\      /  F ield         | OpenFOAM: The Open Source CFD Toolbox
   \\    /   O peration     | Website:  https://openfoam.org
    \\  /    A nd           | Version:  6
     \\/     M anipulation  |
\*---------------------------------------------------------------------------*/
FoamFile
{
    version     2.0;
    format      ascii;
    class       volScalarField;
    location    "1.74";
    object      p;
}
// * * * * * * * * * * * * * * * * * * * * * * * * * * * * * * * * * * * * * //

dimensions      [1 -1 -2 0 0 0 0];

internalField   nonuniform List<scalar> 
10000
(
1
1
1
1
1
1
1
1
1
1
1
1
1
1
1
1
1
1
1
1
1
1
1
1
1
1
1
1
1
1
1
1
1
1
1
1
1
1
1
1
1
1
1
1
1
1
1
1
1
1
1
1
1
1
1
1
1
1
1
1
1
1
1
1
1
1
1
1
1
1
1
1
1
1
1
1
1
1
1
1
1
1
1
1
1
1
1
1
1
1
1
1
1
1
1
1
1
1
1
1
1
1
1
1
1
1
1
1
1
1
1
1
1
1
1
1
1
1
1
1
1
1
1
1
1
1
1
1
1
1
1
1
1
1
1
1
1
1
1
1
1
1
1
1
1
1
1
1
1
1
1
1
1
1
1
1
1
1
1
1
1
1
1
1
1
1
1
1
1
1
1
1
1
1
1
1
1
1
1
1
1
1
1
1
1
1
1
1
1
1
1
1
1
1
1
1
1
1
1
1
1
1
1
1
1
1
1
1
1
1
1
1
1
1
1
1
1
1
1
1
1
1
1
1
1
1
1
1
1
1
1
1
1
1
1
1
1
1
1
1
1
1
1
1
1
1
1
1
1
1
1
1
1
1
1
1
1
1
1
1
1
1
1
1
1
1
1
1
1
1
1
1
1
1
1
1
1
1
1
1
1
1
1
1
1
1
1
1
1
1
1
1
1
1
1
1
1
1
1
1
1
1
1
1
1
1
1
1
1
1
1
1
1
1
1
1
1
1
1
1
1
1
1
1
1
1
1
1
1
1
1
1
1
1
1
1
1
1
1
1
1
1
1
1
1
1
1
1
1
0.999999
0.999999
0.999999
0.999999
0.999999
0.999999
1
1
1
1
1
1
1
1
1
1
1
1
1
1
1
1
1
1
1
1
1
1
1
1
1
1
1
1
1
1
1
1
1
1
1
1
1
1
1
1
1
1
1
1
1
1
1
1
1
1
1
1
1
1
1
1
1
1
1
1
1
1
1
1
1
1
1
1
1
1
1
1
1
1
1
1
1
1
1
1
1
1
1
1
1
1
1
1
1
1
1
1
0.999999
0.999999
0.999999
0.999999
0.999999
0.999999
0.999999
0.999999
0.999999
1
1
1
1
1
1
1
1
1
1
1
1
1
1
1
1
1
1
1
1
1
1
1
1
1
1
1
1
1
1
1
1
1
1
1
1
1
1
1
1
1
1
1
1
1
1
1
1
1
1
1
1
1
1
1
1
1
1
1
1
1
1
1
1
1
1
1
1
1
1
1
1
1
1
1
1
1
1
1
1
1
1
1
1
1
1
1
1
1
0.999999
0.999999
0.999999
0.999999
0.999998
0.999998
0.999998
0.999998
0.999998
0.999998
0.999999
0.999999
1
1
1
1
1
1
1
1
1
1
1
1
1
1
1
1
1
1
1
1
1
1
1
1
1
1
1
1
1
1
1
1
1
1
1
1
1
1
1
1
1
1
1
1
1
1
1
1
1
1
1
1
1
1
1
1
1
1
1
1
1
1
1
1
1
1
1
1
1
1
1
1
1
1
1
1
1
1
1
1
1
1
1
1
1
1
0.999999
0.999999
0.999999
0.999999
0.999998
0.999998
0.999997
0.999997
0.999996
0.999996
0.999997
0.999997
0.999998
0.999999
1
1
1
1
1
1
1
1
1
1
1
1
1
1
1
1
1
1
1
1
1
1
1
1
1
1
1
1
1
1
1
1
1
1
1
1
1
1
1
1
1
1
1
1
1
1
1
1
1
1
1
1
1
1
1
1
1
1
1
1
1
1
1
1
1
1
1
1
1
1
1
1
1
1
1
1
1
1
1
1
1
1
1
1
1
1
0.999999
0.999999
0.999998
0.999998
0.999997
0.999996
0.999995
0.999994
0.999994
0.999994
0.999994
0.999995
0.999996
0.999998
1
1
1
1
1.00001
1.00001
1.00001
1.00001
1
1
1
1
1
1
1
1
1
1
1
1
1
1
1
1
1
1
1
1
1
1
1
1
1
1
1
1
1
1
1
1
1
1
1
1
1
1
1
1
1
1
1
1
1
1
1
1
1
1
1
1
1
1
1
1
1
1
1
1
1
1
1
1
1
1
1
1
1
1
1
1
1
1
1
1
0.999999
0.999999
0.999999
0.999998
0.999997
0.999996
0.999995
0.999993
0.999992
0.999991
0.99999
0.99999
0.99999
0.999992
0.999994
0.999997
1
1
1.00001
1.00001
1.00001
1.00001
1.00001
1.00001
1.00001
1.00001
1.00001
1
1
1
1
1
1
1
1
1
1
1
1
1
1
1
1
1
1
1
1
1
1
1
1
1
1
1
1
1
1
1
1
1
1
1
1
1
1
1
1
1
1
1
1
1
1
1
1
1
1
1
1
1
1
1
1
1
1
1
1
1
1
1
1
1
1
1
1
1
1
1
1
1
0.999999
0.999999
0.999998
0.999997
0.999996
0.999994
0.999991
0.999989
0.999987
0.999985
0.999983
0.999983
0.999984
0.999986
0.99999
0.999995
1
1.00001
1.00001
1.00001
1.00002
1.00002
1.00002
1.00002
1.00001
1.00001
1.00001
1.00001
1
1
1
1
1
1
1
1
1
1
1
1
1
1
1
1
1
1
1
1
1
1
1
1
1
1
1
1
1
1
1
1
1
1
1
1
1
1
1
1
1
1
1
1
1
1
1
1
1
1
1
1
1
1
1
1
1
1
1
1
1
1
1
1
1
1
1
1
1
1
1
1
0.999999
0.999999
0.999997
0.999996
0.999993
0.999991
0.999987
0.999983
0.99998
0.999977
0.999974
0.999974
0.999976
0.999979
0.999985
0.999992
1
1.00001
1.00002
1.00002
1.00002
1.00003
1.00003
1.00002
1.00002
1.00002
1.00001
1.00001
1.00001
1.00001
1
1
1
1
1
1
1
1
1
1
1
1
1
1
1
1
1
1
1
1
1
1
1
1
1
1
1
1
1
1
1
1
1
1
1
1
1
1
1
1
1
1
1
1
1
1
1
1
1
1
1
1
1
1
1
1
1
1
1
1
1
1
1
1
1
1
1
1
1
1
0.999999
0.999998
0.999996
0.999994
0.99999
0.999985
0.99998
0.999974
0.999969
0.999964
0.999961
0.999961
0.999963
0.999969
0.999978
0.999989
1
1.00001
1.00002
1.00003
1.00004
1.00004
1.00004
1.00004
1.00003
1.00003
1.00002
1.00002
1.00001
1.00001
1.00001
1
1
1
1
1
1
1
1
1
1
1
1
1
1
1
1
1
1
1
1
1
1
1
1
1
1
1
1
1
1
1
1
1
1
1
1
1
1
1
1
1
1
1
1
1
1
1
1
1
1
1
1
1
1
1
1
1
1
1
1
1
1
1
1
1
1
1
1
1
0.999999
0.999997
0.999994
0.99999
0.999985
0.999979
0.999971
0.999962
0.999953
0.999946
0.999942
0.999942
0.999946
0.999955
0.999969
0.999985
1
1.00002
1.00004
1.00005
1.00006
1.00006
1.00006
1.00006
1.00005
1.00004
1.00003
1.00002
1.00002
1.00001
1.00001
1
1
1
1
1
1
1
1
1
1
1
1
1
1
1
1
1
1
1
1
1
1
1
1
1
1
1
1
1
1
1
1
1
1
1
1
1
1
1
1
1
1
1
1
1
1
1
1
1
1
1
1
1
1
1
1
1
1
1
1
1
1
1
1
1
1
1
1
1
0.999998
0.999996
0.999992
0.999987
0.999978
0.999969
0.999957
0.999944
0.999932
0.999923
0.999917
0.999917
0.999924
0.999938
0.999958
0.999983
1.00001
1.00004
1.00006
1.00008
1.00009
1.00009
1.00009
1.00008
1.00007
1.00006
1.00005
1.00004
1.00003
1.00002
1.00001
1.00001
1
1
1
1
1
1
1
1
1
1
1
1
1
1
1
1
1
1
1
1
1
1
1
1
1
1
1
1
1
1
1
1
1
1
1
1
1
1
1
1
1
1
1
1
1
1
1
1
1
1
1
1
1
1
1
1
1
1
1
1
1
1
1
1
1
1
1
1
0.999998
0.999995
0.99999
0.999982
0.99997
0.999956
0.999939
0.999921
0.999905
0.999892
0.999885
0.999886
0.999897
0.999918
0.999948
0.999983
1.00002
1.00006
1.00009
1.00012
1.00013
1.00014
1.00013
1.00012
1.00011
1.00009
1.00007
1.00005
1.00004
1.00002
1.00002
1.00001
1
1
1
1
1
1
1
1
1
1
1
1
1
1
1
1
1
1
1
1
1
1
1
1
1
1
1
1
1
1
1
1
1
1
1
1
1
1
1
1
1
1
1
1
1
1
1
1
1
1
1
1
1
1
1
1
1
1
1
1
1
1
1
1
1
1
1
1
0.999999
0.999994
0.999986
0.999975
0.999959
0.999939
0.999917
0.999893
0.99987
0.999854
0.999846
0.999851
0.999869
0.999901
0.999944
0.999994
1.00005
1.0001
1.00014
1.00018
1.0002
1.0002
1.00019
1.00018
1.00015
1.00013
1.0001
1.00007
1.00005
1.00003
1.00002
1.00001
1.00001
1
1
1
0.999999
0.999999
0.999999
1
1
1
1
1
1
1
1
1
1
1
1
1
1
1
1
1
1
1
1
1
1
1
1
1
1
1
1
1
1
1
1
1
1
1
1
1
1
1
1
1
1
1
1
1
1
1
1
1
1
1
1
1
1
1
1
1
1
1
1
1
0.999999
0.999993
0.999982
0.999968
0.999946
0.99992
0.999889
0.999858
0.99983
0.999812
0.999806
0.999817
0.999847
0.999895
0.999957
1.00003
1.0001
1.00017
1.00023
1.00027
1.00029
1.0003
1.00028
1.00025
1.00022
1.00018
1.00014
1.0001
1.00007
1.00005
1.00003
1.00001
1.00001
1
1
0.999999
0.999999
0.999999
0.999999
0.999999
1
1
1
1
1
1
1
1
1
1
1
1
1
1
1
1
1
1
1
1
1
1
1
1
1
1
1
1
1
1
1
1
1
1
1
1
1
1
1
1
1
1
1
1
1
1
1
1
1
1
1
1
1
1
1
1
1
1.00001
1
1
1
0.999993
0.99998
0.99996
0.999932
0.999898
0.999859
0.999821
0.99979
0.999771
0.999772
0.999796
0.999846
0.999919
1.00001
1.00011
1.00021
1.0003
1.00037
1.00042
1.00044
1.00043
1.0004
1.00036
1.0003
1.00024
1.00019
1.00014
1.00009
1.00006
1.00003
1.00002
1.00001
1
0.999998
0.999997
0.999997
0.999998
0.999998
0.999999
0.999999
1
1
1
1
1
1
1
1
1
1
1
1
1
1
1
1
1
1
1
1
1
1
1
1
1
1
1
1
1
1
1
1
1
1
1
1
1
1
1
1
1
1
1
1
1
1
1
1
1
1
1
1
1
1
1
1.00001
1.00001
1.00001
1.00001
1
0.999996
0.999978
0.999953
0.999918
0.999876
0.99983
0.999787
0.999756
0.999746
0.999763
0.999813
0.999896
1.00001
1.00014
1.00028
1.00041
1.00052
1.00061
1.00066
1.00067
1.00064
1.00059
1.00051
1.00043
1.00034
1.00026
1.00018
1.00012
1.00008
1.00004
1.00002
1.00001
0.999999
0.999995
0.999994
0.999995
0.999996
0.999997
0.999998
0.999999
0.999999
1
1
1
1
1
1
1
1
1
1
1
1
1
1
1
1
1
1
1
1
1
1
1
1
1
1
1
1
1
1
1
1
1
1
1
1
1
1
1
1
1
1
1
1
1
1
1
1
1
1
1
1
1
1.00001
1.00001
1.00001
1.00001
1.00002
1.00001
1
0.99998
0.99995
0.999908
0.999859
0.999809
0.999768
0.999747
0.999758
0.999809
0.999905
1.00004
1.00021
1.0004
1.0006
1.00077
1.00091
1.001
1.00104
1.00102
1.00095
1.00085
1.00073
1.0006
1.00047
1.00035
1.00024
1.00016
1.0001
1.00005
1.00002
1
0.999994
0.999991
0.99999
0.999991
0.999993
0.999995
0.999997
0.999998
0.999999
0.999999
1
1
1
1
1
1
1
1
1
1
1
1
1
1
1
1
1
1
1
1
1
1
1
1
1
1
1
1
1
1
1
1
1
1
1
1
1
1
1
1
1
1
1
1
1
1
1
1
1
1
1
1.00001
1.00001
1.00001
1.00002
1.00002
1.00003
1.00002
1.00001
0.999988
0.999954
0.999907
0.999855
0.999809
0.999782
0.99979
0.999847
0.999962
1.00014
1.00036
1.00063
1.0009
1.00116
1.00139
1.00155
1.00164
1.00164
1.00157
1.00143
1.00125
1.00105
1.00084
1.00065
1.00047
1.00032
1.00021
1.00012
1.00006
1.00002
0.999998
0.999987
0.999983
0.999984
0.999986
0.99999
0.999992
0.999995
0.999997
0.999998
0.999999
0.999999
1
1
1
1
1
1
1
1
1
1
1
1
1
1
1
1
1
1
1
1
1
1
1
1
1
1
1
1
1
1
1
1
1
1
1
1
1
1
1
1
1
1
1
1
1
1
1
1
1
1.00001
1.00001
1.00001
1.00002
1.00003
1.00004
1.00004
1.00004
1.00003
1
0.999969
0.999923
0.999879
0.999851
0.999861
0.999929
1.00007
1.0003
1.0006
1.00097
1.00137
1.00177
1.00213
1.00241
1.0026
1.00266
1.0026
1.00243
1.00217
1.00186
1.00153
1.0012
1.0009
1.00064
1.00043
1.00027
1.00015
1.00007
1.00002
0.999988
0.999975
0.999972
0.999974
0.999979
0.999984
0.999989
0.999992
0.999995
0.999997
0.999998
0.999999
1
1
1
1
1
1
1
1
1
1
1
1
1
1
1
1
1
1
1
1
1
1
1
1
1
1
1
1
1
1
1
1
1
1
1
1
1
1
1
1
1
1
1
1
1
1
1
1
1
1.00001
1.00001
1.00002
1.00003
1.00004
1.00005
1.00006
1.00007
1.00006
1.00004
1
0.999969
0.999949
0.999967
1.00005
1.00023
1.00052
1.00093
1.00144
1.00201
1.00261
1.00319
1.00367
1.00404
1.00423
1.00425
1.00408
1.00375
1.0033
1.00278
1.00225
1.00174
1.00128
1.0009
1.00059
1.00036
1.00019
1.00008
1.00001
0.999974
0.999959
0.999956
0.999961
0.999969
0.999977
0.999984
0.999989
0.999993
0.999996
0.999997
0.999999
0.999999
1
1
1
1
1
1
1
1
1
1
1
1
1
1
1
1
1
1
1
1
1
1
1
1
1
1
1
1
1
1
1
1
1
1
1
1
1
1
1
1
1
1
1
1
1
1
1
1.00001
1.00001
1.00002
1.00003
1.00004
1.00006
1.00008
1.00009
1.0001
1.0001
1.00009
1.00007
1.00006
1.0001
1.0002
1.00042
1.00079
1.00132
1.00201
1.00282
1.0037
1.00457
1.00538
1.00604
1.0065
1.0067
1.00663
1.00629
1.00572
1.00498
1.00415
1.00331
1.00253
1.00184
1.00127
1.00082
1.00048
1.00025
1.0001
1
0.999956
0.999937
0.999935
0.999943
0.999955
0.999966
0.999976
0.999984
0.99999
0.999994
0.999996
0.999998
0.999999
0.999999
1
1
1
1
1
1
1
1
1
1
1
1
1
1
1
1
1
1
1
1
1
1
1
1
1
1
1
1
1
1
1
1
1
1
1
1
1
1
1
1
1
1
1
1
1
1.00001
1.00001
1.00002
1.00003
1.00004
1.00006
1.00008
1.00011
1.00013
1.00015
1.00016
1.00017
1.00018
1.00024
1.00036
1.00062
1.00107
1.00173
1.00262
1.00372
1.00495
1.00624
1.00749
1.00859
1.00947
1.01004
1.01024
1.01006
1.00949
1.00858
1.00743
1.00616
1.00488
1.00369
1.00266
1.00181
1.00115
1.00067
1.00034
1.00012
0.999998
0.999933
0.999908
0.999908
0.99992
0.999937
0.999953
0.999967
0.999978
0.999986
0.999991
0.999995
0.999997
0.999998
0.999999
1
1
1
1
1
1
1
1
1
1
1
1
1
1
1
1
1
1
1
1
1
1
1
1
1
1
1
1
1
1
1
1
1
1
1
1
1
1
1
1
1
1
1
1
1
1.00001
1.00001
1.00002
1.00004
1.00006
1.00008
1.00012
1.00015
1.00019
1.00022
1.00026
1.0003
1.00037
1.00052
1.00081
1.00131
1.0021
1.0032
1.00461
1.00627
1.00806
1.00987
1.01156
1.01301
1.01413
1.01483
1.01504
1.01473
1.01388
1.01256
1.01088
1.00902
1.00713
1.00538
1.00385
1.00261
1.00165
1.00096
1.00048
1.00018
0.999998
0.999908
0.999875
0.999875
0.999891
0.999914
0.999936
0.999955
0.99997
0.999981
0.999988
0.999993
0.999996
0.999998
0.999999
0.999999
1
1
1
1
1
1
1
1
1
1
1
1
1
1
1
1
1
1
1
1
1
1
1
1
1
1
1
1
1
1
1
1
1
1
1
1
1
1
1
1
1
1
1
1
1.00001
1.00002
1.00003
1.00005
1.00007
1.00011
1.00015
1.0002
1.00026
1.00032
1.00038
1.00048
1.00064
1.00095
1.0015
1.00238
1.00366
1.00538
1.00749
1.00985
1.01231
1.0147
1.01686
1.01867
1.02003
1.02086
1.02109
1.02066
1.01955
1.01778
1.0155
1.0129
1.01024
1.00774
1.00555
1.00376
1.00238
1.00138
1.0007
1.00027
1.00001
0.999887
0.999838
0.999836
0.999857
0.999886
0.999915
0.999941
0.99996
0.999975
0.999984
0.999991
0.999995
0.999997
0.999998
0.999999
1
1
1
1
1
1
1
1
1
1
1
1
1
1
1
1
1
1
1
1
1
1
1
1
1
1
1
1
1
1
1
1
1
1
1
1
1
1
1
1
1
1
1
1.00001
1.00001
1.00002
1.00004
1.00006
1.0001
1.00014
1.0002
1.00027
1.00035
1.00044
1.00056
1.00074
1.00105
1.0016
1.00252
1.00393
1.00591
1.00844
1.0114
1.01458
1.01775
1.02067
1.02321
1.02526
1.02676
1.02768
1.02796
1.02752
1.02627
1.02417
1.02131
1.01793
1.01437
1.01094
1.00789
1.00538
1.00343
1.00201
1.00104
1.00042
1.00006
0.999875
0.999802
0.999793
0.999817
0.999854
0.999891
0.999923
0.999949
0.999967
0.99998
0.999988
0.999993
0.999996
0.999998
0.999999
0.999999
1
1
1
1
1
1
1
1
1
1
1
1
1
1
1
1
1
1
1
1
1
1
1
1
1
1
1
1
1
1
1
1
1
1
1
1
1
1
1
1
1
1
1.00001
1.00002
1.00003
1.00005
1.00008
1.00012
1.00018
1.00026
1.00035
1.00045
1.00059
1.00078
1.00109
1.00163
1.00253
1.00398
1.00611
1.00899
1.01251
1.01642
1.0204
1.02412
1.02733
1.02992
1.03189
1.03329
1.03417
1.03456
1.03433
1.03327
1.03118
1.02802
1.024
1.01953
1.01506
1.01099
1.00756
1.00487
1.0029
1.00154
1.00067
1.00015
0.999885
0.999772
0.99975
0.999774
0.999818
0.999863
0.999903
0.999935
0.999958
0.999974
0.999985
0.999991
0.999995
0.999997
0.999999
0.999999
1
1
1
1
1
1
1
1
1
1
1
1
1
1
1
1
1
1
1
1
1
1
1
1
1
1
1
1
1
1
1
1
1
1
1
1
1
1
1
1
1
1.00001
1.00001
1.00002
1.00003
1.00006
1.0001
1.00015
1.00022
1.00032
1.00044
1.00059
1.00078
1.00108
1.00158
1.00242
1.00381
1.00596
1.00903
1.01298
1.01759
1.02242
1.02694
1.03076
1.03365
1.03564
1.03689
1.0377
1.03832
1.03888
1.03924
1.03899
1.03763
1.03483
1.03065
1.02552
1.02006
1.01488
1.01038
1.00679
1.00411
1.00225
1.00104
1.00032
0.999928
0.999756
0.999711
0.999731
0.999779
0.999833
0.999881
0.99992
0.999949
0.999968
0.999981
0.999989
0.999994
0.999997
0.999998
0.999999
1
1
1
1
1
1
1
1
1
1
1
1
1
1
1
1
1
1
1
1
1
1
1
1
1
1
1
1
1
1
1
1
1
1
1
1
1
1
1
1
1
1.00001
1.00001
1.00002
1.00004
1.00007
1.00012
1.00018
1.00027
1.00039
1.00054
1.00074
1.00102
1.00147
1.00221
1.00347
1.0055
1.00855
1.01274
1.01789
1.02354
1.02895
1.0334
1.03643
1.03793
1.03817
1.03767
1.03711
1.03706
1.03787
1.0394
1.04094
1.04152
1.04028
1.03692
1.0318
1.0257
1.01949
1.01386
1.00923
1.0057
1.00321
1.00156
1.00057
1.00002
0.999764
0.999681
0.99969
0.999741
0.999802
0.999858
0.999904
0.999938
0.999961
0.999977
0.999987
0.999993
0.999996
0.999998
0.999999
0.999999
1
1
1
1
1
1
1
1
1
1
1
1
1
1
1
1
1
1
1
1
1
1
1
1
1
1
1
1
1
1
1
1
1
1
1
1
1
1
1
1
1.00001
1.00001
1.00003
1.00005
1.00009
1.00014
1.00022
1.00032
1.00047
1.00065
1.00092
1.00131
1.00195
1.00302
1.00482
1.00765
1.01179
1.01722
1.02356
1.02991
1.0352
1.03847
1.03926
1.03772
1.03454
1.03083
1.02783
1.0266
1.02776
1.0312
1.03588
1.04011
1.04223
1.04131
1.03741
1.03142
1.02455
1.0179
1.01218
1.00769
1.00445
1.00228
1.00093
1.00018
0.999808
0.99967
0.999658
0.999705
0.999771
0.999834
0.999887
0.999927
0.999954
0.999973
0.999984
0.999991
0.999995
0.999997
0.999999
0.999999
1
1
1
1
1
1
1
1
1
1
1
1
1
1
1
1
1
1
1
1
1
1
1
1
1
1
1
1
1
1
1
1
1
1
1
1
1
1
1
1
1.00001
1.00002
1.00003
1.00006
1.0001
1.00016
1.00025
1.00038
1.00055
1.00078
1.00112
1.00165
1.00253
1.00403
1.00649
1.01029
1.01564
1.02235
1.0296
1.03598
1.03995
1.04037
1.0369
1.03011
1.02139
1.01269
1.006
1.003
1.00466
1.01088
1.02028
1.03029
1.03815
1.04188
1.04101
1.03639
1.02962
1.02227
1.01554
1.01006
1.00598
1.00319
1.00143
1.00041
0.999895
0.999682
0.999638
0.999676
0.999743
0.999812
0.999871
0.999915
0.999947
0.999968
0.999982
0.99999
0.999994
0.999997
0.999999
0.999999
1
1
1
1
1
1
1
1
1
1
1
1
1
1
1
1
1
1
1
1
1
1
1
1
1
1
1
1
1
1
1
1
1
1
1
1
1
1
1
1
1.00001
1.00002
1.00004
1.00007
1.00011
1.00018
1.00028
1.00043
1.00063
1.00091
1.00135
1.00205
1.00324
1.00524
1.0085
1.01339
1.02002
1.02783
1.03543
1.04074
1.04172
1.03709
1.02683
1.01222
0.995638
0.980121
0.968573
0.963264
0.965545
0.975439
0.991173
1.00926
1.02552
1.03659
1.04108
1.03959
1.03403
1.02662
1.01916
1.01273
1.00778
1.00431
1.00206
1.00074
1.00004
0.999726
0.999636
0.999656
0.99972
0.999792
0.999856
0.999905
0.999941
0.999964
0.99998
0.999989
0.999994
0.999997
0.999998
0.999999
1
1
1
1
1
1
1
1
1
1
1
1
1
1
1
1
1
1
1
1
1
1
1
1
1
1
1
1
1
1
1
1
1
1
1
1
1
1
1
1.00001
1.00001
1.00002
1.00004
1.00007
1.00012
1.0002
1.00031
1.00047
1.00071
1.00105
1.00159
1.0025
1.00405
1.00665
1.01081
1.01686
1.02469
1.03323
1.04031
1.04307
1.03898
1.02679
1.00702
0.981979
0.95542
0.931595
0.914271
0.906253
0.909252
0.923485
0.946946
0.975213
1.00253
1.02378
1.03623
1.03996
1.03709
1.03051
1.02277
1.01558
1.0098
1.00561
1.00283
1.00115
1.00024
0.999808
0.999657
0.99965
0.999706
0.999778
0.999844
0.999897
0.999935
0.999961
0.999977
0.999987
0.999993
0.999996
0.999998
0.999999
1
1
1
1
1
1
1
1
1
1
1
1
1
1
1
1
1
1
1
1
1
1
1
1
1
1
1
1
1
1
1
0.999999
1
1
1
1
1
1
1
1.00001
1.00001
1.00002
1.00004
1.00008
1.00013
1.00021
1.00034
1.00052
1.00078
1.00119
1.00186
1.003
1.00496
1.00823
1.01335
1.02057
1.02937
1.03802
1.04344
1.04194
1.03057
1.00828
0.976458
0.938878
0.900867
0.867873
0.844314
0.833325
0.836966
0.855818
0.887867
0.927897
0.968506
1.00254
1.02554
1.0367
1.03817
1.0335
1.0261
1.01845
1.01194
1.00705
1.00372
1.00166
1.0005
0.99993
0.999704
0.999661
0.999702
0.99977
0.999837
0.999891
0.999931
0.999958
0.999976
0.999986
0.999993
0.999996
0.999998
0.999999
1
1
1
1
1
1
1
1
1
1
1
1
1
1
1
1
1
1
1
1
1
1
1
1
1
1
1
1
1
1
1
1
1
1
1
1
1
1
1
1.00001
1.00001
1.00002
1.00005
1.00008
1.00014
1.00022
1.00036
1.00055
1.00085
1.00132
1.00213
1.00353
1.00594
1.00993
1.01604
1.02431
1.03372
1.04169
1.0442
1.03674
1.01604
0.98148
0.935725
0.884367
0.834388
0.792173
0.762404
0.748303
0.752285
0.775515
0.816272
0.86881
0.924181
0.973031
1.0088
1.02943
1.03688
1.03526
1.0289
1.02118
1.01411
1.00858
1.00471
1.00225
1.00082
1.00009
0.999779
0.999692
0.999711
0.99977
0.999834
0.999888
0.999928
0.999956
0.999974
0.999986
0.999992
0.999996
0.999998
0.999999
1
1
1
1
1
1
1
1
1
1
1
1
1
1
1
1
1
1
1
1
1
1
1
1
1
1
1
1
1
1
1
1
1
1
1
1
1
1
1
1.00001
1.00001
1.00002
1.00005
1.00008
1.00014
1.00023
1.00036
1.00057
1.0009
1.00144
1.0024
1.00408
1.00697
1.01168
1.01874
1.02787
1.0374
1.04387
1.0423
1.02746
0.995866
0.947608
0.887028
0.821774
0.760342
0.709628
0.674145
0.656961
0.660862
0.687763
0.736521
0.801218
0.871693
0.936446
0.986557
1.01831
1.03314
1.03562
1.03101
1.02362
1.01621
1.01013
1.00575
1.00289
1.0012
1.0003
0.999884
0.999742
0.999734
0.99978
0.999837
0.999889
0.999929
0.999956
0.999975
0.999986
0.999992
0.999996
0.999998
0.999999
1
1
1
1
1
1
1
1
1
1
1
1
1
1
1
1
1
1
1
1
1
1
1
1
1
1
1
1
1
1
1
1
1
1
1
1
1
1
1
1.00001
1.00001
1.00002
1.00004
1.00008
1.00014
1.00022
1.00036
1.00057
1.00093
1.00154
1.00265
1.00463
1.00799
1.0134
1.02131
1.03105
1.0402
1.04442
1.0379
1.01477
0.971473
0.909064
0.833881
0.755692
0.684203
0.62635
0.586107
0.566224
0.569763
0.599357
0.65462
0.729935
0.814489
0.894988
0.960063
1.00395
1.0272
1.03463
1.03235
1.02568
1.01816
1.01165
1.0068
1.00356
1.0016
1.00053
1.00001
0.999812
0.999772
0.999799
0.999847
0.999894
0.999931
0.999958
0.999975
0.999986
0.999992
0.999996
0.999998
0.999999
1
1
1
1
1
1
1
1
1
1
1
1
1
1
1
1
1
1
1
1
1
1
1
1
1
1
1
1
1
1
1
1
1
1
1
1
1
1
1
1.00001
1.00001
1.00002
1.00004
1.00007
1.00013
1.00021
1.00034
1.00056
1.00094
1.00162
1.00287
1.00513
1.00895
1.015
1.02362
1.03372
1.04205
1.04347
1.03155
0.999902
0.944986
0.869009
0.780465
0.691142
0.611568
0.54835
0.504742
0.483037
0.486252
0.517476
0.577193
0.660595
0.756925
0.851666
0.931182
0.987409
1.0196
1.0325
1.033
1.02733
1.01989
1.01307
1.00783
1.00425
1.00203
1.00079
1.00017
0.999901
0.999823
0.999829
0.999865
0.999904
0.999937
0.999961
0.999977
0.999987
0.999993
0.999996
0.999998
0.999999
1
1
1
1
1
1
1
1
1
1
1
1
1
1
1
1
1
1
1
1
1
1
1
1
1
1
1
1
1
1
1
1
1
1
1
1
1
1
1
1.00001
1.00001
1.00002
1.00004
1.00007
1.00011
1.00019
1.00032
1.00053
1.00093
1.00166
1.00304
1.00557
1.00981
1.01639
1.02557
1.03581
1.04304
1.04141
1.02411
0.984403
0.918843
0.830821
0.730936
0.632742
0.547249
0.480558
0.435218
0.412866
0.415998
0.447821
0.509804
0.598395
0.703461
0.809893
0.902214
0.970061
1.01107
1.0296
1.03307
1.0286
1.02138
1.01436
1.00879
1.00491
1.00247
1.00106
1.00034
1.00001
0.999887
0.999868
0.999888
0.999918
0.999945
0.999966
0.99998
0.999988
0.999994
0.999997
0.999998
0.999999
1
1
1
1
1
1
1
1
1
1
1
1
1
1
1
1
1
1
1
1
1
1
1
1
1
1
1
1
1
1
1
1
1
1
1
1
1
1
1
1
1.00001
1.00002
1.00003
1.00006
1.0001
1.00016
1.00028
1.00049
1.00089
1.00167
1.00316
1.00591
1.01052
1.01753
1.02709
1.03732
1.04337
1.03877
1.01652
0.969839
0.895395
0.797595
0.688852
0.584132
0.494691
0.426171
0.380524
0.358516
0.361721
0.393245
0.455651
0.546881
0.657711
0.772871
0.875578
0.953477
1.00251
1.02637
1.03275
1.02954
1.02262
1.01548
1.00966
1.00553
1.00288
1.00134
1.00051
1.00012
0.999961
0.999915
0.999918
0.999937
0.999956
0.999972
0.999983
0.99999
0.999995
0.999997
0.999998
0.999999
1
1
1
1
1
1
1
1
1
1
1
1
1
1
1
1
1
1
1
1
1
1
1
1
1
1
1
1
1
1
1
1
1
1
1
1
1
1
1
1
1.00001
1.00001
1.00002
1.00004
1.00007
1.00013
1.00023
1.00042
1.00082
1.00164
1.0032
1.00612
1.01104
1.01837
1.02814
1.03831
1.04332
1.0361
1.00968
0.957559
0.87656
0.77176
0.656839
0.547747
0.45589
0.38664
0.341498
0.320285
0.323489
0.354054
0.41564
0.507708
0.621936
0.743058
0.853434
0.939218
0.994871
1.0233
1.03227
1.03021
1.02362
1.01641
1.0104
1.00607
1.00327
1.0016
1.00069
1.00024
1.00004
0.999969
0.999953
0.999958
0.99997
0.99998
0.999988
0.999993
0.999996
0.999998
0.999999
0.999999
1
1
1
1
1
1
1
1
1
1
1
1
1
1
1
1
1
1
1
1
1
1
1
1
1
1
1
1
1
1
1
1
1
1
1
1
1
1
1
1
1
1.00001
1.00001
1.00003
1.00005
1.00009
1.00017
1.00034
1.00073
1.00156
1.00317
1.0062
1.01133
1.01889
1.02874
1.03882
1.04314
1.03395
1.00438
0.948551
0.863617
0.754865
0.636489
0.52493
0.43173
0.362253
0.317764
0.297282
0.300306
0.329559
0.389655
0.481422
0.597315
0.722046
0.837412
0.928609
0.989026
1.02087
1.03184
1.03069
1.02437
1.01713
1.01099
1.00652
1.0036
1.00184
1.00087
1.00036
1.00013
1.00003
0.999991
0.999983
0.999985
0.999989
0.999993
0.999996
0.999998
0.999999
0.999999
1
1
1
1
1
1
1
1
1
1
1
1
1
1
1
1
1
1
1
1
1
1
1
1
1
1
1
1
1
1
1
1
1
1
1
1
1
1
1
1
1
1
1
1
1.00001
1.00002
1.00004
1.0001
1.00025
1.00061
1.00143
1.00306
1.00613
1.01137
1.01908
1.02892
1.03891
1.043
1.03275
1.00123
0.943448
0.857154
0.747507
0.628387
0.516134
0.422395
0.3528
0.308707
0.288689
0.291473
0.319447
0.377812
0.468487
0.584595
0.710815
0.828585
0.922601
0.985656
1.01949
1.03164
1.03104
1.02489
1.01763
1.01141
1.00686
1.00387
1.00205
1.00103
1.00048
1.00021
1.00008
1.00003
1.00001
1
0.999999
0.999999
0.999999
0.999999
1
1
1
1
1
1
1
1
1
1
1
1
1
1
1
1
1
1
1
1
1
1
1
1
1
1
1
1
1
1
1
1
1
1
1
1
1
1
1
1
1
1
0.999999
0.999999
0.999997
0.999994
0.999991
0.999989
0.999994
1.00003
1.00015
1.00048
1.00126
1.00287
1.00591
1.01116
1.01893
1.02872
1.03862
1.04292
1.03272
1.00069
0.942618
0.857212
0.749429
0.632164
0.521007
0.427541
0.357873
0.313876
0.294138
0.296883
0.324012
0.380759
0.469669
0.584483
0.710002
0.827551
0.921724
0.985157
1.01938
1.03179
1.0313
1.02516
1.01789
1.01165
1.00708
1.00406
1.00222
1.00116
1.00059
1.00029
1.00014
1.00007
1.00003
1.00002
1.00001
1
1
1
1
1
1
1
1
1
1
1
1
1
1
1
1
1
1
1
1
1
1
1
1
1
1
1
1
1
1
1
1
1
1
1
1
1
1
1
1
1
0.999999
1
1
0.999999
0.999998
0.999995
0.999991
0.999984
0.999974
0.99996
0.999949
0.999962
1.00005
1.00033
1.00106
1.00261
1.00557
1.0107
1.01844
1.02817
1.03803
1.04287
1.03383
1.00292
0.946259
0.863579
0.759848
0.6467
0.538447
0.446284
0.376857
0.332935
0.313543
0.316651
0.34359
0.399078
0.485636
0.59749
0.719898
0.834469
0.926087
0.987611
1.02059
1.03228
1.03144
1.02517
1.01788
1.01168
1.00715
1.00416
1.00233
1.00127
1.00068
1.00036
1.00019
1.00011
1.00006
1.00003
1.00002
1.00001
1.00001
1
1
1
1
1
1
1
1
1
1
1
1
1
1
1
1
1
1
1
1
1
1
1
1
1
1
1
1
1
1
1
1
1
1
1
1
1
1
1
1
1
0.999999
0.999998
0.999996
0.999993
0.999987
0.999975
0.999957
0.999935
0.999906
0.999895
0.999951
1.00019
1.00083
1.00228
1.0051
1.01003
1.01759
1.02727
1.03716
1.04275
1.03576
1.00771
0.954331
0.876021
0.777942
0.670629
0.566919
0.477319
0.408929
0.36558
0.346915
0.350827
0.378116
0.432647
0.516298
0.623477
0.740223
0.848975
0.935356
0.992773
1.02296
1.03304
1.03142
1.02489
1.01761
1.01151
1.00709
1.00418
1.00239
1.00134
1.00075
1.00042
1.00024
1.00014
1.00008
1.00005
1.00003
1.00001
1.00001
1
1
1
1
1
1
1
1
1
1
1
1
1
1
1
1
1
1
1
1
1
1
1
1
1
1
1
1
1
1
1
1
1
1
1
1
1
1
1
1
1
0.999999
0.999998
0.999995
0.999991
0.999983
0.999968
0.999944
0.99991
0.999869
0.999835
0.999857
1.00004
1.0006
1.00191
1.00453
1.00918
1.01643
1.02598
1.03601
1.04248
1.03808
1.01434
0.966286
0.89416
0.80313
0.702929
0.605106
0.519407
0.453305
0.411533
0.394219
0.399252
0.42704
0.480507
0.560498
0.661293
0.769888
0.870091
0.948744
1.00009
1.02615
1.03386
1.03115
1.02429
1.01706
1.01113
1.00689
1.00411
1.0024
1.00139
1.0008
1.00047
1.00028
1.00017
1.0001
1.00006
1.00003
1.00002
1.00001
1.00001
1
1
1
1
1
1
1
1
1
1
1
1
1
1
1
1
1
1
1
1
1
1
1
1
1
1
1
1
1
1
1
1
1
1
1
1
1
1
0.999999
0.999999
0.999999
0.999998
0.999995
0.999989
0.99998
0.999961
0.999934
0.999892
0.999838
0.999783
0.999774
0.999899
1.00036
1.00151
1.00388
1.00817
1.01501
1.02429
1.03447
1.04197
1.04038
1.02185
0.980929
0.917028
0.83471
0.742927
0.65223
0.571813
0.509503
0.470502
0.455069
0.46121
0.489153
0.540881
0.616072
0.708737
0.806935
0.896212
0.965038
1.00873
1.02968
1.03451
1.03052
1.02334
1.01623
1.01056
1.00655
1.00395
1.00235
1.00139
1.00083
1.0005
1.00031
1.00019
1.00011
1.00007
1.00004
1.00002
1.00001
1.00001
1
1
1
1
1
1
1
1
1
1
1
1
1
1
1
1
1
1
1
1
1
1
1
1
1
1
1
1
1
1
1
1
1
1
1
1
1
1
1
1
0.999999
0.999998
0.999994
0.999989
0.999977
0.999957
0.999926
0.999877
0.999815
0.999743
0.999704
0.999777
1.00014
1.00112
1.00319
1.00706
1.01337
1.02222
1.03247
1.04101
1.04231
1.02934
0.996663
0.94282
0.871153
0.789489
0.70743
0.633901
0.57695
0.541648
0.528176
0.534953
0.562228
0.611046
0.67994
0.762739
0.848663
0.925201
0.982703
1.01771
1.03296
1.0347
1.02944
1.02202
1.01513
1.0098
1.00611
1.00372
1.00225
1.00136
1.00084
1.00052
1.00032
1.0002
1.00012
1.00007
1.00004
1.00003
1.00001
1.00001
1
1
1
1
1
1
1
1
1
1
1
1
1
1
1
1
1
1
1
1
1
1
1
1
1
1
1
1
1
1
1
1
1
1
1
1
1
1
1
1
0.999998
0.999997
0.999994
0.999987
0.999977
0.999955
0.999921
0.99987
0.999798
0.999715
0.999653
0.999678
0.999946
1.00075
1.00251
1.00588
1.01156
1.01985
1.02995
1.03939
1.04345
1.03598
1.01191
0.969198
0.909847
0.840163
0.768629
0.703871
0.653654
0.622443
0.610554
0.617208
0.642732
0.687204
0.748198
0.819606
0.89192
0.954635
1.00005
1.02598
1.03545
1.03418
1.02782
1.02034
1.01381
1.00891
1.00556
1.00342
1.00211
1.00131
1.00082
1.00052
1.00033
1.00021
1.00013
1.00008
1.00005
1.00003
1.00001
1.00001
1
1
1
1
1
1
1
1
1
1
1
1
1
1
1
1
1
1
1
1
1
1
1
1
1
1
1
1
1
1
1
1
1
1
1
1
1
1
0.999999
1
0.999998
0.999997
0.999993
0.999987
0.999977
0.999953
0.99992
0.999867
0.999791
0.9997
0.999618
0.999601
0.999784
1.00041
1.00186
1.00472
1.00968
1.01722
1.02694
1.03697
1.04343
1.04106
1.02531
0.993839
0.947572
0.891236
0.832007
0.77768
0.735037
0.707906
0.697221
0.703143
0.725891
0.764642
0.816385
0.875378
0.933464
0.982085
1.01545
1.03257
1.03666
1.0328
1.02567
1.01834
1.0123
1.00791
1.00496
1.00309
1.00193
1.00122
1.00079
1.00051
1.00033
1.00021
1.00013
1.00008
1.00005
1.00003
1.00002
1.00001
1
1
1
1
1
1
1
1
1
1
1
1
1
1
1
1
1
1
1
1
1
1
1
1
1
1
1
1
1
1
1
1
1
1
1
1
1
1
0.999999
1
0.999999
0.999997
0.999994
0.999988
0.999976
0.999955
0.999921
0.999868
0.999793
0.999697
0.9996
0.999553
0.99966
1.00013
1.00128
1.00363
1.00783
1.01444
1.02349
1.03371
1.04202
1.04404
1.03577
1.01479
0.981262
0.93861
0.892549
0.84936
0.814472
0.791448
0.782053
0.787041
0.806274
0.838298
0.880004
0.926293
0.970342
1.00543
1.02756
1.03677
1.0363
1.0305
1.02302
1.0161
1.01068
1.00685
1.00432
1.00273
1.00174
1.00112
1.00073
1.00048
1.00031
1.0002
1.00013
1.00008
1.00005
1.00003
1.00001
1.00001
1
1
1
1
1
1
1
1
1
1
1
1
1
1
1
1
1
1
1
1
1
1
1
1
1
1
1
1
1
1
1
1
1
1
1
1
0.999999
1
1
1
0.999999
0.999998
0.999994
0.999988
0.999978
0.999958
0.999925
0.999873
0.9998
0.999704
0.999602
0.999531
0.999574
0.999903
1.00079
1.00266
1.00609
1.01168
1.01975
1.02966
1.0391
1.04459
1.04261
1.03072
1.00866
0.978843
0.945389
0.912842
0.88553
0.866963
0.859329
0.863408
0.878683
0.903537
0.93518
0.969268
1.00026
1.02314
1.0355
1.03822
1.03433
1.02737
1.02001
1.01373
1.00903
1.00579
1.00368
1.00235
1.00153
1.00101
1.00067
1.00045
1.00029
1.00019
1.00012
1.00007
1.00004
1.00002
1.00001
1.00001
1
1
1
1
1
1
1
1
1
1
1
1
1
1
1
1
1
1
1
1
1
1
1
1
1
1
1
1
1
1
1
1
1
1
1
1
1
1
1
1
0.999999
0.999998
0.999995
0.999989
0.999979
0.999961
0.99993
0.999883
0.999812
0.999721
0.999617
0.999529
0.999528
0.999743
1.0004
1.00184
1.00456
1.00912
1.01598
1.02503
1.0348
1.04263
1.0455
1.04101
1.02859
1.00978
0.987244
0.964187
0.944159
0.93036
0.92477
0.927884
0.939068
0.956948
0.979222
1.00229
1.02184
1.03444
1.03902
1.03697
1.03095
1.02363
1.01681
1.01135
1.00741
1.00476
1.00306
1.00199
1.00132
1.00089
1.0006
1.00041
1.00027
1.00017
1.00011
1.00007
1.00004
1.00002
1.00001
1.00001
1
1
1
1
1
1
1
1
1
1
1
1
1
1
1
1
1
1
1
1
1
1
1
1
1
1
1
1
1
1
1
1
1
1
1
1
1
1
0.999999
1
0.999999
0.999998
0.999995
0.99999
0.999982
0.999964
0.999937
0.999896
0.999829
0.999745
0.999644
0.999548
0.999513
0.999641
1.0001
1.00117
1.00327
1.00686
1.01245
1.02023
1.02949
1.03843
1.04456
1.04562
1.04077
1.03072
1.01711
1.0022
0.988818
0.979507
0.975727
0.97774
0.98507
0.996728
1.01087
1.0246
1.03479
1.03946
1.03852
1.03351
1.02659
1.01959
1.01362
1.00909
1.00591
1.00382
1.00249
1.00165
1.00112
1.00077
1.00053
1.00036
1.00024
1.00016
1.0001
1.00006
1.00004
1.00002
1.00001
1.00001
1
1
1
1
1
1
1
1
1
1
1
1
1
1
1
1
1
1
1
1
1
1
1
1
1
1
1
1
1
1
1
1
1
1
1
1
1
1
1
1
0.999999
0.999998
0.999997
0.999991
0.999984
0.99997
0.999944
0.999908
0.999849
0.999772
0.99968
0.999582
0.999529
0.99959
0.999899
1.00067
1.00224
1.00498
1.00935
1.01569
1.02379
1.03265
1.04042
1.04512
1.0457
1.04223
1.03556
1.02726
1.01939
1.01373
1.01126
1.01216
1.01622
1.02276
1.0303
1.03669
1.03993
1.03917
1.03492
1.02859
1.02176
1.01558
1.01064
1.00703
1.00458
1.00299
1.00198
1.00134
1.00093
1.00065
1.00045
1.00031
1.00021
1.00014
1.00009
1.00005
1.00003
1.00002
1.00001
1.00001
1
1
1
1
1
1
1
1
1
1
1
1
1
1
1
1
1
1
1
1
1
1
1
1
1
1
1
1
1
1
1
1
1
1
1
1
1
1
1
1
0.999999
0.999998
0.999996
0.999993
0.999987
0.999973
0.999954
0.999919
0.999871
0.999804
0.999717
0.999629
0.999563
0.99958
0.999779
1.00032
1.00145
1.00348
1.00679
1.01171
1.01834
1.02623
1.03418
1.04067
1.04464
1.04565
1.04396
1.04055
1.03679
1.03381
1.03221
1.0322
1.03376
1.03642
1.03906
1.04025
1.03898
1.03513
1.02944
1.02304
1.01697
1.01188
1.008
1.00526
1.00344
1.00227
1.00154
1.00107
1.00076
1.00054
1.00038
1.00026
1.00018
1.00012
1.00007
1.00005
1.00003
1.00002
1.00001
1
1
1
1
1
1
1
1
1
1
1
1
1
1
1
1
1
1
1
1
1
1
1
1
1
1
1
1
1
1
1
1
1
1
1
0.999999
1
1
1
0.999999
0.999999
1
0.999998