/*--------------------------------*- C++ -*----------------------------------*\
  =========                 |
  \\      /  F ield         | OpenFOAM: The Open Source CFD Toolbox
   \\    /   O peration     | Website:  https://openfoam.org
    \\  /    A nd           | Version:  6
     \\/     M anipulation  |
\*---------------------------------------------------------------------------*/
FoamFile
{
    version     2.0;
    format      ascii;
    class       volVectorField;
    location    "4.98";
    object      U;
}
// * * * * * * * * * * * * * * * * * * * * * * * * * * * * * * * * * * * * * //

dimensions      [0 1 -1 0 0 0 0];

internalField   nonuniform List<vector> 
10000
(
(0.894383 0.447183 0)
(0.894386 0.447187 0)
(0.89439 0.447191 0)
(0.894392 0.447193 0)
(0.894395 0.447195 0)
(0.894397 0.447197 0)
(0.894397 0.447198 0)
(0.894398 0.447198 0)
(0.8944 0.4472 0)
(0.894399 0.447198 0)
(0.8944 0.447202 0)
(0.8944 0.447198 0)
(0.8944 0.447201 0)
(0.8944 0.4472 0)
(0.894401 0.4472 0)
(0.8944 0.447199 0)
(0.8944 0.447201 0)
(0.894401 0.447199 0)
(0.8944 0.447199 0)
(0.894398 0.447203 0)
(0.894402 0.447198 0)
(0.8944 0.447199 0)
(0.894398 0.447203 0)
(0.894401 0.447199 0)
(0.8944 0.447199 0)
(0.8944 0.447201 0)
(0.894399 0.447199 0)
(0.8944 0.447201 0)
(0.894401 0.447201 0)
(0.8944 0.447199 0)
(0.894399 0.4472 0)
(0.894399 0.447201 0)
(0.8944 0.447201 0)
(0.894401 0.447199 0)
(0.8944 0.4472 0)
(0.8944 0.447201 0)
(0.894399 0.447201 0)
(0.894398 0.447201 0)
(0.894397 0.447202 0)
(0.894396 0.447204 0)
(0.894392 0.447207 0)
(0.894386 0.447213 0)
(0.894378 0.44722 0)
(0.894369 0.447233 0)
(0.89436 0.44725 0)
(0.894351 0.447269 0)
(0.894347 0.44729 0)
(0.894347 0.447312 0)
(0.89435 0.447334 0)
(0.894348 0.447361 0)
(0.894331 0.447404 0)
(0.894282 0.447485 0)
(0.894187 0.44763 0)
(0.894034 0.447874 0)
(0.893811 0.44825 0)
(0.893523 0.448789 0)
(0.893178 0.449509 0)
(0.892792 0.450418 0)
(0.89239 0.45151 0)
(0.891998 0.452766 0)
(0.891641 0.454153 0)
(0.891344 0.455634 0)
(0.891128 0.45717 0)
(0.891007 0.458711 0)
(0.891 0.460213 0)
(0.89111 0.461637 0)
(0.891338 0.462938 0)
(0.891685 0.464077 0)
(0.892133 0.465029 0)
(0.892668 0.465767 0)
(0.893277 0.466275 0)
(0.893937 0.466536 0)
(0.894624 0.466534 0)
(0.895317 0.466266 0)
(0.895986 0.46572 0)
(0.896598 0.464883 0)
(0.897119 0.463766 0)
(0.897515 0.462405 0)
(0.897767 0.460854 0)
(0.89787 0.459181 0)
(0.89783 0.457474 0)
(0.897667 0.455813 0)
(0.897414 0.454262 0)
(0.897099 0.452861 0)
(0.896749 0.451637 0)
(0.896387 0.450598 0)
(0.896035 0.44974 0)
(0.895706 0.449048 0)
(0.895411 0.448503 0)
(0.895155 0.448087 0)
(0.894941 0.447777 0)
(0.894769 0.447554 0)
(0.894636 0.4474 0)
(0.894538 0.447299 0)
(0.894471 0.447236 0)
(0.894427 0.4472 0)
(0.8944 0.447182 0)
(0.894387 0.447176 0)
(0.894381 0.447175 0)
(0.894381 0.447179 0)
(0.89438 0.447179 0)
(0.894383 0.447184 0)
(0.894387 0.447188 0)
(0.89439 0.447192 0)
(0.894393 0.447194 0)
(0.894395 0.447196 0)
(0.894397 0.447198 0)
(0.894398 0.447198 0)
(0.894399 0.4472 0)
(0.894399 0.447199 0)
(0.8944 0.447201 0)
(0.8944 0.447199 0)
(0.8944 0.447201 0)
(0.8944 0.4472 0)
(0.8944 0.4472 0)
(0.8944 0.447199 0)
(0.894399 0.447203 0)
(0.894402 0.447198 0)
(0.894399 0.447199 0)
(0.894398 0.447205 0)
(0.894403 0.447196 0)
(0.894399 0.447199 0)
(0.894398 0.447205 0)
(0.894402 0.447199 0)
(0.894401 0.447197 0)
(0.894398 0.447202 0)
(0.8944 0.447202 0)
(0.894401 0.447198 0)
(0.8944 0.4472 0)
(0.8944 0.447201 0)
(0.894399 0.4472 0)
(0.8944 0.447201 0)
(0.894401 0.4472 0)
(0.8944 0.447199 0)
(0.894399 0.447199 0)
(0.894399 0.447201 0)
(0.894399 0.447202 0)
(0.894398 0.447201 0)
(0.894396 0.447202 0)
(0.894394 0.447205 0)
(0.894388 0.44721 0)
(0.89438 0.447216 0)
(0.89437 0.447228 0)
(0.894357 0.447244 0)
(0.894345 0.447267 0)
(0.894335 0.447291 0)
(0.89433 0.447318 0)
(0.89433 0.447344 0)
(0.894329 0.447373 0)
(0.894315 0.447413 0)
(0.894271 0.447486 0)
(0.894175 0.447621 0)
(0.894005 0.447861 0)
(0.893745 0.448253 0)
(0.893391 0.44884 0)
(0.892947 0.449658 0)
(0.892433 0.450723 0)
(0.891881 0.452034 0)
(0.891324 0.453565 0)
(0.8908 0.455282 0)
(0.890342 0.457136 0)
(0.889981 0.459073 0)
(0.889739 0.461034 0)
(0.889635 0.462967 0)
(0.889682 0.464815 0)
(0.889887 0.466532 0)
(0.890244 0.46808 0)
(0.890746 0.469421 0)
(0.891378 0.470536 0)
(0.892116 0.471409 0)
(0.892936 0.472024 0)
(0.89382 0.472378 0)
(0.894742 0.472465 0)
(0.895682 0.472261 0)
(0.896611 0.471736 0)
(0.897479 0.47086 0)
(0.898239 0.469613 0)
(0.898843 0.467996 0)
(0.899242 0.466053 0)
(0.899415 0.463876 0)
(0.899369 0.461585 0)
(0.899138 0.459303 0)
(0.898764 0.457136 0)
(0.898293 0.455166 0)
(0.897773 0.45344 0)
(0.897243 0.451976 0)
(0.896731 0.450768 0)
(0.896259 0.449798 0)
(0.895838 0.449038 0)
(0.895477 0.448459 0)
(0.895176 0.448028 0)
(0.894935 0.447718 0)
(0.894749 0.447502 0)
(0.894611 0.447358 0)
(0.894515 0.447268 0)
(0.894451 0.447215 0)
(0.894411 0.447187 0)
(0.89439 0.447175 0)
(0.894381 0.447173 0)
(0.894378 0.447175 0)
(0.894376 0.447175 0)
(0.89438 0.447181 0)
(0.894384 0.447186 0)
(0.894388 0.447189 0)
(0.894391 0.447193 0)
(0.894394 0.447195 0)
(0.894396 0.447197 0)
(0.894397 0.447198 0)
(0.894399 0.447199 0)
(0.894398 0.447199 0)
(0.8944 0.447199 0)
(0.894399 0.4472 0)
(0.8944 0.4472 0)
(0.8944 0.4472 0)
(0.8944 0.447199 0)
(0.894399 0.447201 0)
(0.894401 0.447201 0)
(0.894402 0.447196 0)
(0.894397 0.447205 0)
(0.894402 0.447199 0)
(0.894402 0.447196 0)
(0.894397 0.447203 0)
(0.894399 0.447201 0)
(0.894402 0.447198 0)
(0.8944 0.4472 0)
(0.894398 0.4472 0)
(0.8944 0.447203 0)
(0.894401 0.447198 0)
(0.8944 0.447197 0)
(0.8944 0.447202 0)
(0.894399 0.447202 0)
(0.8944 0.447198 0)
(0.894401 0.447199 0)
(0.894401 0.4472 0)
(0.894398 0.4472 0)
(0.894399 0.447201 0)
(0.894399 0.447202 0)
(0.894397 0.447201 0)
(0.894394 0.447203 0)
(0.894391 0.447207 0)
(0.894384 0.447213 0)
(0.894373 0.447223 0)
(0.894359 0.447237 0)
(0.894342 0.447259 0)
(0.894327 0.447286 0)
(0.894315 0.447317 0)
(0.894309 0.447349 0)
(0.894307 0.44738 0)
(0.894297 0.447418 0)
(0.894262 0.447481 0)
(0.894173 0.447598 0)
(0.893999 0.447819 0)
(0.893716 0.4482 0)
(0.8933 0.448806 0)
(0.892755 0.44969 0)
(0.892101 0.450886 0)
(0.891372 0.452397 0)
(0.890615 0.4542 0)
(0.889882 0.456247 0)
(0.889218 0.458476 0)
(0.888667 0.460815 0)
(0.888262 0.463194 0)
(0.888025 0.465538 0)
(0.887975 0.467783 0)
(0.888122 0.469873 0)
(0.888458 0.471767 0)
(0.888983 0.473431 0)
(0.889677 0.474849 0)
(0.890511 0.476017 0)
(0.891461 0.476934 0)
(0.892498 0.477618 0)
(0.893601 0.47807 0)
(0.894761 0.478296 0)
(0.89596 0.478278 0)
(0.897172 0.477967 0)
(0.898365 0.477295 0)
(0.899471 0.47618 0)
(0.900397 0.474553 0)
(0.90106 0.47241 0)
(0.901407 0.469824 0)
(0.901425 0.466939 0)
(0.901143 0.463943 0)
(0.900627 0.461021 0)
(0.899956 0.458317 0)
(0.899206 0.45592 0)
(0.898439 0.453874 0)
(0.897702 0.452185 0)
(0.897027 0.450832 0)
(0.896432 0.449776 0)
(0.895923 0.448972 0)
(0.895503 0.448375 0)
(0.895167 0.447946 0)
(0.894908 0.447646 0)
(0.894715 0.447444 0)
(0.894578 0.447315 0)
(0.894487 0.447238 0)
(0.89443 0.447196 0)
(0.894397 0.447177 0)
(0.894381 0.44717 0)
(0.894376 0.447171 0)
(0.894373 0.447171 0)
(0.894375 0.447176 0)
(0.89438 0.447182 0)
(0.894385 0.447187 0)
(0.894389 0.447191 0)
(0.894392 0.447193 0)
(0.894395 0.447196 0)
(0.894396 0.447198 0)
(0.894399 0.447197 0)
(0.894397 0.447201 0)
(0.894401 0.447196 0)
(0.894399 0.447203 0)
(0.894399 0.447198 0)
(0.894401 0.447201 0)
(0.8944 0.447199 0)
(0.894397 0.447203 0)
(0.894405 0.447197 0)
(0.894398 0.447198 0)
(0.894394 0.447209 0)
(0.894408 0.447192 0)
(0.894399 0.447199 0)
(0.894393 0.447207 0)
(0.894405 0.447198 0)
(0.894403 0.447195 0)
(0.894396 0.447203 0)
(0.894399 0.447201 0)
(0.894402 0.447199 0)
(0.894402 0.447201 0)
(0.894398 0.447197 0)
(0.8944 0.447202 0)
(0.894401 0.447203 0)
(0.8944 0.447198 0)
(0.8944 0.447197 0)
(0.894401 0.447202 0)
(0.894398 0.447201 0)
(0.894398 0.447201 0)
(0.894399 0.447201 0)
(0.894397 0.447202 0)
(0.894392 0.447205 0)
(0.894387 0.44721 0)
(0.894377 0.447218 0)
(0.894363 0.44723 0)
(0.894345 0.44725 0)
(0.894324 0.447277 0)
(0.894305 0.44731 0)
(0.894292 0.447346 0)
(0.894285 0.447383 0)
(0.894278 0.447421 0)
(0.894251 0.447474 0)
(0.894177 0.44757 0)
(0.894016 0.447757 0)
(0.893724 0.448102 0)
(0.893269 0.448689 0)
(0.892635 0.449594 0)
(0.891834 0.450876 0)
(0.89091 0.452556 0)
(0.889923 0.454608 0)
(0.888939 0.456971 0)
(0.888029 0.45956 0)
(0.887247 0.462282 0)
(0.886639 0.465038 0)
(0.886239 0.467742 0)
(0.886068 0.470306 0)
(0.886135 0.472669 0)
(0.886437 0.474773 0)
(0.886962 0.476597 0)
(0.887693 0.478126 0)
(0.888596 0.479379 0)
(0.889633 0.480384 0)
(0.890772 0.481177 0)
(0.89199 0.481802 0)
(0.893264 0.482298 0)
(0.894585 0.482689 0)
(0.895974 0.482976 0)
(0.897446 0.483114 0)
(0.89898 0.482988 0)
(0.90051 0.482439 0)
(0.901913 0.4813 0)
(0.903039 0.479431 0)
(0.903756 0.476801 0)
(0.903988 0.473535 0)
(0.90375 0.469881 0)
(0.903125 0.466129 0)
(0.902232 0.462534 0)
(0.901189 0.45928 0)
(0.900103 0.456467 0)
(0.899054 0.454129 0)
(0.898094 0.45225 0)
(0.897252 0.450785 0)
(0.896539 0.449673 0)
(0.895954 0.448851 0)
(0.895487 0.448259 0)
(0.895128 0.447846 0)
(0.89486 0.447566 0)
(0.894669 0.447385 0)
(0.89454 0.447274 0)
(0.894457 0.447212 0)
(0.894409 0.447181 0)
(0.894384 0.447169 0)
(0.894374 0.447167 0)
(0.894369 0.447166 0)
(0.894371 0.447172 0)
(0.894375 0.447178 0)
(0.894381 0.447184 0)
(0.894386 0.447189 0)
(0.89439 0.447192 0)
(0.894393 0.447195 0)
(0.894396 0.447198 0)
(0.894398 0.447196 0)
(0.894398 0.447202 0)
(0.894399 0.447197 0)
(0.894399 0.447201 0)
(0.894399 0.447201 0)
(0.894402 0.447196 0)
(0.894399 0.447203 0)
(0.894398 0.447205 0)
(0.894407 0.447187 0)
(0.894394 0.447211 0)
(0.894398 0.447203 0)
(0.894408 0.447186 0)
(0.894398 0.447206 0)
(0.894393 0.447207 0)
(0.894405 0.447194 0)
(0.894405 0.447196 0)
(0.894392 0.447204 0)
(0.894399 0.447206 0)
(0.894405 0.447192 0)
(0.8944 0.4472 0)
(0.894397 0.447203 0)
(0.894399 0.447199 0)
(0.894402 0.447202 0)
(0.894401 0.447198 0)
(0.894399 0.447198 0)
(0.8944 0.447202 0)
(0.894399 0.447203 0)
(0.894398 0.4472 0)
(0.894397 0.4472 0)
(0.894395 0.447204 0)
(0.89439 0.447208 0)
(0.894382 0.447212 0)
(0.894368 0.447222 0)
(0.89435 0.44724 0)
(0.894327 0.447266 0)
(0.894302 0.447298 0)
(0.894279 0.447336 0)
(0.894264 0.447378 0)
(0.894256 0.447419 0)
(0.894238 0.447466 0)
(0.894183 0.447543 0)
(0.894046 0.44769 0)
(0.893772 0.447981 0)
(0.893305 0.448507 0)
(0.892608 0.449379 0)
(0.891677 0.450687 0)
(0.890551 0.45248 0)
(0.889307 0.454739 0)
(0.888038 0.45739 0)
(0.886839 0.460316 0)
(0.885792 0.463382 0)
(0.884955 0.466462 0)
(0.88437 0.469441 0)
(0.884065 0.472217 0)
(0.884051 0.474702 0)
(0.884323 0.47684 0)
(0.884859 0.478596 0)
(0.885631 0.479973 0)
(0.886602 0.480995 0)
(0.887713 0.481734 0)
(0.888924 0.482261 0)
(0.890196 0.482662 0)
(0.891496 0.483022 0)
(0.892816 0.483414 0)
(0.894163 0.483913 0)
(0.895589 0.484554 0)
(0.897162 0.485308 0)
(0.898924 0.486065 0)
(0.900855 0.486604 0)
(0.902851 0.486634 0)
(0.904696 0.485834 0)
(0.906107 0.483954 0)
(0.90687 0.48094 0)
(0.906915 0.477002 0)
(0.906315 0.472544 0)
(0.905233 0.468008 0)
(0.903863 0.463744 0)
(0.902379 0.459969 0)
(0.900917 0.456783 0)
(0.899568 0.454199 0)
(0.898385 0.452177 0)
(0.897387 0.450642 0)
(0.896572 0.449508 0)
(0.895927 0.448694 0)
(0.895431 0.448124 0)
(0.895063 0.447739 0)
(0.894798 0.447487 0)
(0.894617 0.44733 0)
(0.8945 0.447239 0)
(0.894429 0.447191 0)
(0.894391 0.447169 0)
(0.894374 0.447164 0)
(0.894367 0.447162 0)
(0.894366 0.447166 0)
(0.894371 0.447174 0)
(0.894377 0.44718 0)
(0.894383 0.447186 0)
(0.894388 0.447191 0)
(0.894391 0.447193 0)
(0.894396 0.447196 0)
(0.894394 0.447198 0)
(0.894401 0.447196 0)
(0.894396 0.447203 0)
(0.8944 0.447197 0)
(0.894401 0.447201 0)
(0.8944 0.4472 0)
(0.894394 0.447203 0)
(0.894409 0.447196 0)
(0.894399 0.447196 0)
(0.894386 0.447214 0)
(0.894416 0.447189 0)
(0.8944 0.447197 0)
(0.894386 0.447207 0)
(0.894407 0.447205 0)
(0.894406 0.447189 0)
(0.894395 0.447201 0)
(0.894398 0.447204 0)
(0.894401 0.447204 0)
(0.894404 0.447195 0)
(0.894399 0.447193 0)
(0.894398 0.44721 0)
(0.894399 0.4472 0)
(0.894401 0.447195 0)
(0.894403 0.447201 0)
(0.894398 0.4472 0)
(0.894398 0.447201 0)
(0.8944 0.447202 0)
(0.894399 0.447201 0)
(0.894396 0.4472 0)
(0.894393 0.447205 0)
(0.894387 0.447211 0)
(0.894375 0.447217 0)
(0.894357 0.447229 0)
(0.894334 0.447251 0)
(0.894305 0.447282 0)
(0.894276 0.447321 0)
(0.89425 0.447364 0)
(0.894233 0.447411 0)
(0.894219 0.447458 0)
(0.894183 0.447519 0)
(0.894078 0.44763 0)
(0.893844 0.447855 0)
(0.893403 0.448293 0)
(0.892687 0.449074 0)
(0.89166 0.450333 0)
(0.890348 0.45216 0)
(0.888836 0.454567 0)
(0.887251 0.457463 0)
(0.885726 0.460693 0)
(0.884377 0.46407 0)
(0.88329 0.467418 0)
(0.882517 0.470577 0)
(0.882083 0.473436 0)
(0.882003 0.475888 0)
(0.882269 0.477868 0)
(0.882852 0.479323 0)
(0.883709 0.480261 0)
(0.884789 0.480732 0)
(0.886012 0.480814 0)
(0.887306 0.48063 0)
(0.888627 0.480311 0)
(0.889922 0.480013 0)
(0.891171 0.479851 0)
(0.892367 0.479929 0)
(0.893532 0.480356 0)
(0.894752 0.481234 0)
(0.896159 0.482616 0)
(0.897882 0.484433 0)
(0.89999 0.486427 0)
(0.902471 0.488239 0)
(0.905161 0.489409 0)
(0.907664 0.489421 0)
(0.909494 0.487844 0)
(0.910315 0.484592 0)
(0.910083 0.480024 0)
(0.908995 0.474773 0)
(0.907346 0.469472 0)
(0.905422 0.464579 0)
(0.903451 0.460343 0)
(0.901595 0.456851 0)
(0.899949 0.454088 0)
(0.898557 0.451978 0)
(0.897423 0.450415 0)
(0.89653 0.449293 0)
(0.895846 0.44851 0)
(0.89534 0.447979 0)
(0.894977 0.447631 0)
(0.894726 0.447412 0)
(0.894562 0.447281 0)
(0.894461 0.447209 0)
(0.894404 0.447175 0)
(0.894376 0.447162 0)
(0.894366 0.447159 0)
(0.894361 0.447162 0)
(0.894366 0.447169 0)
(0.894371 0.447176 0)
(0.894379 0.447182 0)
(0.894384 0.447188 0)
(0.894388 0.447192 0)
(0.894395 0.447194 0)
(0.894392 0.447198 0)
(0.894401 0.447196 0)
(0.894395 0.4472 0)
(0.894399 0.447202 0)
(0.894403 0.447194 0)
(0.894396 0.447203 0)
(0.894396 0.44721 0)
(0.894415 0.447175 0)
(0.894386 0.447221 0)
(0.894395 0.447209 0)
(0.894418 0.447169 0)
(0.894396 0.447216 0)
(0.894382 0.447213 0)
(0.894412 0.447187 0)
(0.894414 0.447194 0)
(0.894381 0.447204 0)
(0.894399 0.447215 0)
(0.894411 0.447182 0)
(0.894399 0.447206 0)
(0.894395 0.447198 0)
(0.894401 0.447201 0)
(0.894402 0.447208 0)
(0.894399 0.44719 0)
(0.894402 0.4472 0)
(0.8944 0.447205 0)
(0.894397 0.4472 0)
(0.894399 0.447199 0)
(0.894399 0.447201 0)
(0.894395 0.447202 0)
(0.894389 0.447206 0)
(0.894382 0.447213 0)
(0.894367 0.447222 0)
(0.894344 0.447237 0)
(0.894314 0.447264 0)
(0.89428 0.447301 0)
(0.894246 0.447346 0)
(0.894218 0.447394 0)
(0.894198 0.447444 0)
(0.894173 0.447499 0)
(0.894103 0.447581 0)
(0.893922 0.447745 0)
(0.893542 0.448082 0)
(0.892861 0.448728 0)
(0.891801 0.449855 0)
(0.890347 0.451619 0)
(0.888579 0.454081 0)
(0.886656 0.457163 0)
(0.884765 0.460663 0)
(0.883077 0.464324 0)
(0.881719 0.467894 0)
(0.880759 0.471167 0)
(0.88022 0.473988 0)
(0.880105 0.476267 0)
(0.880404 0.477912 0)
(0.881087 0.478886 0)
(0.882098 0.479167 0)
(0.883349 0.478812 0)
(0.884766 0.477927 0)
(0.88623 0.476684 0)
(0.887649 0.475228 0)
(0.888968 0.473751 0)
(0.890138 0.47249 0)
(0.891169 0.471575 0)
(0.892065 0.47113 0)
(0.892835 0.471254 0)
(0.893567 0.472095 0)
(0.894452 0.473839 0)
(0.895767 0.476576 0)
(0.897697 0.480095 0)
(0.900301 0.483958 0)
(0.903561 0.487627 0)
(0.907214 0.490479 0)
(0.910635 0.491755 0)
(0.913046 0.49081 0)
(0.913947 0.487515 0)
(0.913356 0.482411 0)
(0.911657 0.476423 0)
(0.909335 0.470422 0)
(0.906796 0.464984 0)
(0.904321 0.460382 0)
(0.902082 0.456678 0)
(0.900166 0.453814 0)
(0.898598 0.451678 0)
(0.897363 0.450134 0)
(0.89642 0.449052 0)
(0.895723 0.448318 0)
(0.895224 0.447835 0)
(0.89488 0.44753 0)
(0.894652 0.447345 0)
(0.894509 0.44724 0)
(0.894426 0.447187 0)
(0.894383 0.447164 0)
(0.894368 0.447157 0)
(0.894357 0.447158 0)
(0.894361 0.447163 0)
(0.894365 0.447173 0)
(0.894375 0.447178 0)
(0.89438 0.447187 0)
(0.894387 0.447188 0)
(0.894391 0.447195 0)
(0.894393 0.447195 0)
(0.894397 0.447197 0)
(0.894398 0.447203 0)
(0.894396 0.447191 0)
(0.894407 0.447206 0)
(0.894387 0.447205 0)
(0.894408 0.447184 0)
(0.894413 0.447207 0)
(0.894365 0.447212 0)
(0.894424 0.447189 0)
(0.894415 0.447192 0)
(0.894365 0.447205 0)
(0.894411 0.447228 0)
(0.894417 0.447161 0)
(0.89439 0.447211 0)
(0.894395 0.447206 0)
(0.894398 0.447211 0)
(0.89441 0.447184 0)
(0.894398 0.447189 0)
(0.894395 0.447228 0)
(0.894399 0.447182 0)
(0.894405 0.447207 0)
(0.894401 0.447197 0)
(0.894398 0.447195 0)
(0.894401 0.447207 0)
(0.894397 0.447202 0)
(0.894397 0.447196 0)
(0.894398 0.447202 0)
(0.894395 0.447207 0)
(0.894385 0.447208 0)
(0.894374 0.447214 0)
(0.894357 0.447228 0)
(0.894329 0.447248 0)
(0.894292 0.447279 0)
(0.894251 0.44732 0)
(0.894213 0.447372 0)
(0.894183 0.447424 0)
(0.894158 0.447478 0)
(0.894113 0.447543 0)
(0.893988 0.447658 0)
(0.89369 0.4479 0)
(0.8931 0.448394 0)
(0.892085 0.449325 0)
(0.890572 0.450913 0)
(0.888598 0.453305 0)
(0.886334 0.456481 0)
(0.884039 0.46021 0)
(0.881967 0.464141 0)
(0.880302 0.46792 0)
(0.879148 0.471262 0)
(0.878533 0.473983 0)
(0.87843 0.475973 0)
(0.878813 0.477176 0)
(0.879645 0.477544 0)
(0.880865 0.477058 0)
(0.882391 0.475755 0)
(0.88408 0.473754 0)
(0.885801 0.471214 0)
(0.887441 0.468415 0)
(0.888904 0.465544 0)
(0.890062 0.462791 0)
(0.890927 0.460428 0)
(0.891563 0.458658 0)
(0.891992 0.457583 0)
(0.892242 0.457226 0)
(0.892309 0.457748 0)
(0.892297 0.459349 0)
(0.89271 0.462309 0)
(0.894037 0.466899 0)
(0.896404 0.472759 0)
(0.899751 0.479044 0)
(0.904025 0.484997 0)
(0.9089 0.489869 0)
(0.913463 0.492699 0)
(0.916578 0.492612 0)
(0.91757 0.489447 0)
(0.916544 0.483952 0)
(0.914136 0.47736 0)
(0.91107 0.470789 0)
(0.90789 0.464935 0)
(0.904926 0.460088 0)
(0.902344 0.456276 0)
(0.900208 0.453396 0)
(0.898512 0.451296 0)
(0.897215 0.449813 0)
(0.896255 0.448799 0)
(0.895569 0.448129 0)
(0.895094 0.447701 0)
(0.894779 0.44744 0)
(0.894579 0.447289 0)
(0.894461 0.447209 0)
(0.894397 0.447171 0)
(0.894375 0.44716 0)
(0.894357 0.447156 0)
(0.894354 0.447159 0)
(0.894361 0.447167 0)
(0.894367 0.447177 0)
(0.894377 0.447178 0)
(0.894384 0.447194 0)
(0.894385 0.447185 0)
(0.894399 0.447201 0)
(0.894386 0.447194 0)
(0.894404 0.447197 0)
(0.8944 0.447202 0)
(0.89439 0.447195 0)
(0.8944 0.447216 0)
(0.894421 0.447166 0)
(0.894372 0.447231 0)
(0.894399 0.447211 0)
(0.89443 0.447147 0)
(0.894389 0.447245 0)
(0.894374 0.44719 0)
(0.894415 0.447208 0)
(0.894431 0.447181 0)
(0.894363 0.447187 0)
(0.894399 0.44726 0)
(0.894423 0.447139 0)
(0.894392 0.447234 0)
(0.894395 0.447167 0)
(0.894405 0.447234 0)
(0.894396 0.447192 0)
(0.894399 0.447183 0)
(0.894409 0.447215 0)
(0.894393 0.447194 0)
(0.894398 0.447202 0)
(0.894402 0.447205 0)
(0.894397 0.447194 0)
(0.894395 0.447202 0)
(0.894394 0.44721 0)
(0.894382 0.447209 0)
(0.894365 0.447216 0)
(0.894345 0.447234 0)
(0.894312 0.44726 0)
(0.894267 0.447295 0)
(0.894218 0.44734 0)
(0.894176 0.447397 0)
(0.894145 0.447453 0)
(0.894109 0.447512 0)
(0.89403 0.447593 0)
(0.89382 0.447757 0)
(0.893353 0.448109 0)
(0.892467 0.448818 0)
(0.891006 0.450131 0)
(0.888925 0.452309 0)
(0.886366 0.455434 0)
(0.88364 0.45932 0)
(0.881118 0.463518 0)
(0.879092 0.467528 0)
(0.87772 0.470955 0)
(0.877032 0.473553 0)
(0.87699 0.475214 0)
(0.877512 0.475923 0)
(0.878538 0.475655 0)
(0.880023 0.474409 0)
(0.881857 0.472175 0)
(0.883916 0.469072 0)
(0.886024 0.465302 0)
(0.88795 0.461078 0)
(0.889615 0.456751 0)
(0.890981 0.452591 0)
(0.891827 0.448759 0)
(0.89218 0.445412 0)
(0.892233 0.442824 0)
(0.892086 0.441186 0)
(0.891767 0.440374 0)
(0.891218 0.440268 0)
(0.890316 0.441324 0)
(0.889325 0.443879 0)
(0.889206 0.448303 0)
(0.8908 0.454908 0)
(0.893994 0.463343 0)
(0.898466 0.472403 0)
(0.904084 0.480918 0)
(0.910369 0.487946 0)
(0.916125 0.492357 0)
(0.919909 0.493144 0)
(0.920925 0.490186 0)
(0.919406 0.484453 0)
(0.916252 0.477456 0)
(0.91243 0.470516 0)
(0.90863 0.464423 0)
(0.905224 0.459476 0)
(0.902362 0.455671 0)
(0.900071 0.452861 0)
(0.898306 0.450857 0)
(0.896994 0.449473 0)
(0.896051 0.448548 0)
(0.895397 0.447951 0)
(0.894961 0.447582 0)
(0.894682 0.447365 0)
(0.894515 0.447245 0)
(0.89442 0.447186 0)
(0.894388 0.44717 0)
(0.89436 0.447155 0)
(0.894349 0.447158 0)
(0.894355 0.447159 0)
(0.894363 0.447175 0)
(0.894367 0.447175 0)
(0.894385 0.447186 0)
(0.894379 0.447195 0)
(0.894394 0.447181 0)
(0.894398 0.447217 0)
(0.894382 0.447173 0)
(0.894418 0.447215 0)
(0.894381 0.44721 0)
(0.894393 0.447162 0)
(0.894448 0.447232 0)
(0.894328 0.447199 0)
(0.894427 0.447197 0)
(0.894461 0.447169 0)
(0.894311 0.44723 0)
(0.894421 0.447244 0)
(0.894446 0.447092 0)
(0.894366 0.4473 0)
(0.894399 0.447121 0)
(0.894392 0.447289 0)
(0.894425 0.44713 0)
(0.894394 0.447205 0)
(0.894386 0.447239 0)
(0.894409 0.44716 0)
(0.894405 0.447241 0)
(0.894388 0.447158 0)
(0.894413 0.447218 0)
(0.894398 0.447208 0)
(0.894389 0.44719 0)
(0.894405 0.447206 0)
(0.894399 0.447198 0)
(0.894391 0.447203 0)
(0.89439 0.44721 0)
(0.894378 0.447211 0)
(0.894356 0.447219 0)
(0.894328 0.447241 0)
(0.89429 0.447273 0)
(0.894239 0.447312 0)
(0.894183 0.447361 0)
(0.894137 0.44742 0)
(0.894101 0.447479 0)
(0.894047 0.447544 0)
(0.893913 0.447653 0)
(0.893578 0.44789 0)
(0.892873 0.448392 0)
(0.891584 0.449389 0)
(0.889547 0.451204 0)
(0.886804 0.454099 0)
(0.883666 0.457996 0)
(0.880626 0.462435 0)
(0.878145 0.466737 0)
(0.876484 0.470314 0)
(0.875708 0.472839 0)
(0.875738 0.474202 0)
(0.876444 0.474417 0)
(0.87772 0.473573 0)
(0.879477 0.471649 0)
(0.881663 0.468668 0)
(0.884124 0.464646 0)
(0.886638 0.459788 0)
(0.889042 0.454395 0)
(0.891007 0.448778 0)
(0.892444 0.443275 0)
(0.893441 0.438244 0)
(0.893857 0.433847 0)
(0.893602 0.429955 0)
(0.892876 0.426872 0)
(0.891975 0.424762 0)
(0.891159 0.423759 0)
(0.89019 0.423251 0)
(0.88887 0.423123 0)
(0.886972 0.424148 0)
(0.884723 0.427605 0)
(0.884014 0.433845 0)
(0.886117 0.44262 0)
(0.890625 0.453427 0)
(0.896764 0.465063 0)
(0.904095 0.476083 0)
(0.911916 0.485172 0)
(0.918743 0.490974 0)
(0.92295 0.492456 0)
(0.923784 0.48966 0)
(0.921684 0.483814 0)
(0.917797 0.47664 0)
(0.91329 0.469582 0)
(0.908957 0.463468 0)
(0.9052 0.458587 0)
(0.902145 0.454904 0)
(0.899773 0.452242 0)
(0.897998 0.450383 0)
(0.896716 0.449127 0)
(0.895821 0.448307 0)
(0.89522 0.44779 0)
(0.894832 0.44748 0)
(0.894595 0.447303 0)
(0.89446 0.447212 0)
(0.894416 0.447187 0)
(0.894365 0.447164 0)
(0.894351 0.447149 0)
(0.894347 0.447168 0)
(0.894357 0.447153 0)
(0.894366 0.447191 0)
(0.894369 0.447166 0)
(0.894393 0.447196 0)
(0.894375 0.4472 0)
(0.894401 0.447171 0)
(0.894402 0.447227 0)
(0.894378 0.447183 0)
(0.894403 0.447199 0)
(0.89444 0.447193 0)
(0.89433 0.447223 0)
(0.894431 0.447191 0)
(0.894431 0.447166 0)
(0.894365 0.447257 0)
(0.8944 0.447132 0)
(0.894382 0.447317 0)
(0.894473 0.447048 0)
(0.894341 0.447272 0)
(0.894382 0.447278 0)
(0.894453 0.447042 0)
(0.894372 0.447357 0)
(0.894408 0.447043 0)
(0.894398 0.447348 0)
(0.894387 0.447105 0)
(0.89442 0.447239 0)
(0.894393 0.44719 0)
(0.894393 0.447185 0)
(0.894413 0.447232 0)
(0.894385 0.447181 0)
(0.8944 0.4472 0)
(0.894405 0.447205 0)
(0.894388 0.447205 0)
(0.894383 0.447206 0)
(0.894373 0.447213 0)
(0.894347 0.447225 0)
(0.894311 0.447249 0)
(0.894264 0.447284 0)
(0.894208 0.447329 0)
(0.894147 0.447381 0)
(0.894096 0.447439 0)
(0.89405 0.4475 0)
(0.893966 0.447578 0)
(0.893746 0.44773 0)
(0.893236 0.448068 0)
(0.892201 0.448768 0)
(0.890381 0.450147 0)
(0.887641 0.4526 0)
(0.884202 0.4563 0)
(0.880611 0.460869 0)
(0.877539 0.46551 0)
(0.875467 0.469378 0)
(0.87452 0.471959 0)
(0.874605 0.47311 0)
(0.875523 0.47292 0)
(0.877058 0.471558 0)
(0.879122 0.469139 0)
(0.881631 0.465626 0)
(0.884479 0.461012 0)
(0.887493 0.455384 0)
(0.890294 0.449069 0)
(0.892699 0.442458 0)
(0.894452 0.436013 0)
(0.895334 0.430035 0)
(0.895519 0.424812 0)
(0.895355 0.420614 0)
(0.894587 0.416966 0)
(0.892964 0.413981 0)
(0.891198 0.411692 0)
(0.889788 0.410621 0)
(0.888637 0.410304 0)
(0.887522 0.409706 0)
(0.885696 0.408859 0)
(0.882549 0.408714 0)
(0.878852 0.411917 0)
(0.87763 0.419835 0)
(0.880605 0.43123 0)
(0.88684 0.444483 0)
(0.895021 0.458297 0)
(0.904369 0.471322 0)
(0.913764 0.482036 0)
(0.921408 0.488839 0)
(0.925661 0.49072 0)
(0.926007 0.487971 0)
(0.923199 0.482091 0)
(0.918618 0.474952 0)
(0.913551 0.468027 0)
(0.908834 0.462116 0)
(0.904856 0.457469 0)
(0.901712 0.454022 0)
(0.899339 0.451575 0)
(0.897615 0.449901 0)
(0.896403 0.448792 0)
(0.895582 0.448084 0)
(0.895047 0.447649 0)
(0.894715 0.447395 0)
(0.89452 0.447258 0)
(0.894456 0.44722 0)
(0.894388 0.447177 0)
(0.894343 0.447157 0)
(0.894355 0.447153 0)
(0.894337 0.447173 0)
(0.894372 0.447153 0)
(0.894362 0.447206 0)
(0.894373 0.447152 0)
(0.894409 0.447226 0)
(0.894352 0.447166 0)
(0.894431 0.447206 0)
(0.894389 0.447224 0)
(0.894345 0.447136 0)
(0.894522 0.447261 0)
(0.894264 0.447186 0)
(0.894418 0.447187 0)
(0.894571 0.447162 0)
(0.894168 0.447289 0)
(0.894483 0.447163 0)
(0.894499 0.447114 0)
(0.894261 0.447391 0)
(0.894493 0.446911 0)
(0.894327 0.447589 0)
(0.894455 0.446813 0)
(0.894395 0.447449 0)
(0.894369 0.447105 0)
(0.89443 0.447206 0)
(0.894376 0.447249 0)
(0.894409 0.44712 0)
(0.894424 0.447271 0)
(0.894362 0.447148 0)
(0.894419 0.447237 0)
(0.8944 0.447192 0)
(0.894384 0.447186 0)
(0.894408 0.447214 0)
(0.894391 0.447207 0)
(0.894372 0.447202 0)
(0.894365 0.447216 0)
(0.894339 0.447233 0)
(0.894292 0.447259 0)
(0.894234 0.447293 0)
(0.894172 0.447343 0)
(0.894111 0.447396 0)
(0.894053 0.447453 0)
(0.89399 0.447518 0)
(0.893854 0.447617 0)
(0.893513 0.447835 0)
(0.89276 0.448306 0)
(0.891282 0.449265 0)
(0.888788 0.451139 0)
(0.88526 0.45436 0)
(0.881195 0.458847 0)
(0.877425 0.463789 0)
(0.874722 0.468101 0)
(0.873452 0.470945 0)
(0.873514 0.472064 0)
(0.874608 0.471608 0)
(0.876447 0.469833 0)
(0.878795 0.467046 0)
(0.881594 0.463272 0)
(0.884811 0.458406 0)
(0.888228 0.452411 0)
(0.891584 0.445511 0)
(0.894393 0.438203 0)
(0.896343 0.430993 0)
(0.897412 0.424536 0)
(0.897384 0.41901 0)
(0.896291 0.414519 0)
(0.895152 0.411436 0)
(0.893889 0.409155 0)
(0.891735 0.407055 0)
(0.889204 0.405338 0)
(0.887117 0.403999 0)
(0.885475 0.404593 0)
(0.88466 0.404732 0)
(0.883942 0.403114 0)
(0.882388 0.400545 0)
(0.878131 0.398263 0)
(0.872694 0.399785 0)
(0.870905 0.407888 0)
(0.874928 0.42124 0)
(0.883207 0.436814 0)
(0.89375 0.452586 0)
(0.905208 0.467161 0)
(0.915992 0.478925 0)
(0.924067 0.486202 0)
(0.927939 0.488135 0)
(0.927497 0.485318 0)
(0.923874 0.479479 0)
(0.918659 0.47256 0)
(0.913188 0.465982 0)
(0.908263 0.460464 0)
(0.904221 0.456193 0)
(0.901104 0.453073 0)
(0.898812 0.450894 0)
(0.897187 0.449431 0)
(0.896078 0.448478 0)
(0.895348 0.447887 0)
(0.894887 0.447527 0)
(0.894614 0.447331 0)
(0.894523 0.44729 0)
(0.894415 0.447178 0)
(0.894363 0.44719 0)
(0.894334 0.447133 0)
(0.894361 0.447179 0)
(0.894333 0.447164 0)
(0.894382 0.447154 0)
(0.894367 0.447237 0)
(0.894368 0.447108 0)
(0.894422 0.447271 0)
(0.894359 0.447167 0)
(0.894381 0.44715 0)
(0.894502 0.447286 0)
(0.894235 0.447147 0)
(0.894514 0.447192 0)
(0.894394 0.447227 0)
(0.894352 0.447198 0)
(0.894469 0.447133 0)
(0.894227 0.447412 0)
(0.89468 0.446834 0)
(0.894198 0.447577 0)
(0.894387 0.446984 0)
(0.894546 0.447212 0)
(0.894254 0.447363 0)
(0.894508 0.446884 0)
(0.894342 0.447597 0)
(0.894396 0.446839 0)
(0.894436 0.447467 0)
(0.894364 0.447027 0)
(0.894442 0.447283 0)
(0.894364 0.447181 0)
(0.894396 0.447194 0)
(0.894428 0.447219 0)
(0.894373 0.447177 0)
(0.8944 0.447212 0)
(0.894398 0.447211 0)
(0.894365 0.4472 0)
(0.894353 0.447219 0)
(0.894328 0.44724 0)
(0.894272 0.447267 0)
(0.894204 0.4473 0)
(0.894136 0.447353 0)
(0.894073 0.447404 0)
(0.894007 0.447463 0)
(0.893914 0.447536 0)
(0.893699 0.44767 0)
(0.89319 0.447978 0)
(0.892109 0.448618 0)
(0.890056 0.449912 0)
(0.886757 0.452416 0)
(0.88244 0.456475 0)
(0.877967 0.461554 0)
(0.87442 0.466365 0)
(0.872535 0.469744 0)
(0.872388 0.471097 0)
(0.873603 0.470555 0)
(0.875715 0.468562 0)
(0.878376 0.465456 0)
(0.881436 0.461593 0)
(0.884898 0.456812 0)
(0.888708 0.45086 0)
(0.89256 0.443753 0)
(0.895879 0.435998 0)
(0.89823 0.42824 0)
(0.899117 0.42127 0)
(0.898781 0.415796 0)
(0.897396 0.411632 0)
(0.894621 0.409266 0)
(0.891868 0.407938 0)
(0.889711 0.40841 0)
(0.887909 0.408268 0)
(0.885268 0.408218 0)
(0.882375 0.407127 0)
(0.880992 0.406292 0)
(0.880017 0.408998 0)
(0.878623 0.410347 0)
(0.878716 0.407018 0)
(0.878748 0.40079 0)
(0.874624 0.395278 0)
(0.867981 0.394344 0)
(0.865405 0.40117 0)
(0.870244 0.414743 0)
(0.880559 0.43145 0)
(0.893428 0.448433 0)
(0.906772 0.463855 0)
(0.918498 0.475968 0)
(0.926484 0.48316 0)
(0.929573 0.48484 0)
(0.928143 0.481901 0)
(0.923694 0.476211 0)
(0.917959 0.46968 0)
(0.912254 0.463617 0)
(0.907298 0.458626 0)
(0.90334 0.454833 0)
(0.900361 0.452102 0)
(0.898223 0.450227 0)
(0.89674 0.448986 0)
(0.895764 0.448193 0)
(0.895125 0.447717 0)
(0.894754 0.44742 0)
(0.894652 0.447348 0)
(0.894432 0.447249 0)
(0.894411 0.447153 0)
(0.89432 0.447209 0)
(0.894354 0.447101 0)
(0.894355 0.447226 0)
(0.894324 0.447127 0)
(0.894427 0.447197 0)
(0.894308 0.447206 0)
(0.894437 0.447148 0)
(0.894401 0.447252 0)
(0.894279 0.447129 0)
(0.894621 0.44726 0)
(0.894168 0.447186 0)
(0.894409 0.447155 0)
(0.894746 0.447226 0)
(0.893898 0.44727 0)
(0.89468 0.447069 0)
(0.894455 0.447278 0)
(0.894174 0.44729 0)
(0.894709 0.446841 0)
(0.894008 0.447868 0)
(0.894745 0.446319 0)
(0.89426 0.448111 0)
(0.894368 0.446415 0)
(0.894493 0.447754 0)
(0.894286 0.446909 0)
(0.894503 0.447291 0)
(0.894352 0.447209 0)
(0.894401 0.447138 0)
(0.894423 0.447288 0)
(0.894354 0.447133 0)
(0.894439 0.447232 0)
(0.89439 0.447193 0)
(0.894378 0.447198 0)
(0.894396 0.447212 0)
(0.894369 0.447206 0)
(0.89434 0.447222 0)
(0.894309 0.447245 0)
(0.894253 0.447274 0)
(0.894176 0.447303 0)
(0.8941 0.447358 0)
(0.894031 0.447407 0)
(0.893952 0.447473 0)
(0.893814 0.44756 0)
(0.893488 0.447749 0)
(0.892753 0.44817 0)
(0.891236 0.44902 0)
(0.888465 0.450745 0)
(0.884284 0.454009 0)
(0.879302 0.458842 0)