/*--------------------------------*- C++ -*----------------------------------*\
  =========                 |
  \\      /  F ield         | OpenFOAM: The Open Source CFD Toolbox
   \\    /   O peration     | Website:  https://openfoam.org
    \\  /    A nd           | Version:  6
     \\/     M anipulation  |
\*---------------------------------------------------------------------------*/
FoamFile
{
    version     2.0;
    format      ascii;
    class       volScalarField;
    location    "2.45";
    object      rho;
}
// * * * * * * * * * * * * * * * * * * * * * * * * * * * * * * * * * * * * * //

dimensions      [1 -3 0 0 0 0 0];

internalField   nonuniform List<scalar> 
24166
(
1.40469
1.42206
1.40001
1.4
1.40001
1.4
1.40001
1.40001
1.4282
1.40001
1.3999
1.39785
1.39767
1.39922
1.40127
1.40003
1.40108
1.4002
1.4
1.39993
1.40013
1.40001
1.40001
1.40001
1.42414
1.40001
1.4
1.33455
1.40002
1.40001
1.39065
1.40001
1.4
1.4
1.4
1.48906
1.40001
1.45706
1.40001
0.845499
1.3998
1.40001
1.40001
1.4
1.39997
1.40001
1.42459
1.43086
1.40001
1.48505
1.40001
1.39985
1.40001
1.401
1.40001
1.47111
1.4988
1.40001
1.40001
1.40001
0.578647
1.39998
1.40001
1.40001
1.4
1.40001
1.40001
1.66829
1.59777
1.40001
1.40001
1.4004
1.40001
1.40001
1.40001
1.39999
1.39997
1.47391
1.40001
1.40017
1.32823
1.4
1.40001
1.36104
1.40031
1.40001
1.40055
1.40001
1.40001
1.40001
1.40001
1.40001
1.40036
1.40001
1.39932
1.40004
1.40001
1.40007
1.40018
1.40002
1.4
1.40001
1.40078
1.40001
1.40001
1.40001
1.40001
1.39997
1.40001
1.40002
1.40001
1.40001
1.40001
1.51311
1.49656
1.39996
1.40001
1.4
1.40008
1.40001
1.40001
1.40001
1.39519
1.40001
1.4617
1.39971
1.4
1.4
1.40001
1.40001
1.17427
1.3968
1.44524
1.46554
1.39999
1.40007
1.40001
1.2942
1.4
1.40002
1.4479
1.40001
1.38948
1.40001
1.36899
1.39999
1.40001
1.40003
1.15428
1.40001
1.40001
1.40001
1.4
1.39998
1.40001
1.40001
1.4
1.40001
1.40001
1.39995
1.44489
1.41511
1.40001
1.40001
1.40001
1.40001
1.31752
1.40001
1.40001
1.40001
1.40001
1.40001
1.40001
1.39855
1.40001
1.40549
1.40001
1.40001
1.39971
1.42411
1.4
1.40001
1.46659
1.40001
1.40001
1.40001
1.40001
1.4
1.40001
1.4
1.40001
1.47101
1.40001
1.39872
1.40001
1.40001
1.40533
1.4
1.40543
1.4001
1.40001
1.40001
1.40001
1.40674
1.4
1.40001
1.40001
1.40001
1.40001
1.29735
1.47635
1.4
1.40673
1.3999
1.40001
1.4
1.40001
1.40001
1.46071
1.40001
1.40001
1.39828
1.40001
1.40001
1.4506
1.40001
1.40001
1.4
1.39987
1.40001
1.40313
1.40049
1.3997
1.40001
1.42191
1.40001
1.40012
1.40001
1.4
1.40001
1.4
1.4
1.4
1.40001
1.39961
1.4
1.40071
1.40035
1.40089
1.40001
1.39985
1.4
1.40001
1.44071
1.40001
1.40001
1.40001
1.40147
1.40001
1.40009
1.40001
1.4
1.40001
1.40073
1.4
1.40001
1.39999
1.40001
1.4
1.40001
1.4009
1.23336
1.40001
1.40333
1.4
1.40003
1.40001
0.863449
1.4
1.40001
1.46735
1.40001
1.24326
1.40001
1.4
1.40001
1.40001
1.40001
1.40053
1.40001
1.25131
1.40001
1.40001
1.4
1.39959
1.18443
1.40001
1.40001
1.39773
1.40001
1.4
1.40057
1.40103
1.4
1.40001
1.40001
1.40001
1.40008
1.39922
1.40001
1.37726
1.40003
1.40001
1.2247
1.40304
1.4
1.40032
1.40001
1.40005
1.39856
1.40001
1.40001
1.46282
1.40001
1.4
1.39999
1.40001
1.40001
1.4
1.43755
1.40001
1.39999
1.40001
1.415
1.40001
1.40182
1.40001
1.4
1.40119
1.43754
1.40001
1.40001
1.40001
1.40001
1.40001
1.4
1.40001
1.40001
1.40001
1.40001
1.40001
1.40001
1.4
1.40001
1.40001
1.40001
1.40001
1.4
1.34938
1.41344
1.40001
1.40001
1.40001
1.39798
1.40001
1.4
1.39235
1.40001
1.40001
1.4
1.41683
1.40001
1.40001
1.40001
1.40001
1.40063
1.40001
1.4008
1.40001
1.4
1.4
1.40001
1.40001
1.39977
1.41994
1.40001
1.40001
1.40077
1.40001
1.28129
1.40001
1.40001
1.41284
1.44176
1.47519
1.40176
1.40002
1.40001
1.40001
1.40001
1.40001
1.40001
1.41219
1.39997
1.40001
1.40001
1.40001
1.39346
1.4
1.4
1.40271
1.40001
1.40001
1.4
1.40001
1.40612
1.40602
1.40001
1.40001
1.40001
1.40001
1.4253
1.40001
1.40001
1.40001
1.40001
1.39537
1.40001
1.40001
1.40125
1.40012
1.41823
1.40001
1.40002
1.40002
1.40001
1.40001
1.4
1.40001
1.40105
1.40043
1.40001
1.36776
1.40001
1.40001
1.39998
1.39514
1.39999
1.44935
1.46234
1.40001
1.4
1.40001
1.39424
1.43194
1.39992
1.43234
1.40001
1.40001
1.4
0.954469
1.40001
1.39853
1.44344
1.40001
1.40001
1.4
1.40001
1.40054
1.40001
1.39999
1.43239
1.40001
1.40001
1.40001
1.40611
1.40001
1.4
1.40001
1.40064
1.40001
1.4243
1.40001
1.40001
1.33818
1.4
1.39935
1.40002
1.40001
1.40001
1.4
1.40001
1.40001
1.40001
1.43124
1.41615
1.40001
1.40015
1.40001
1.41724
1.40001
1.40006
1.47044
0.921541
1.40001
1.3996
1.4
1.40001
1.4
1.39803
1.4
1.40001
1.4
1.40002
1.40141
1.42525
1.39768
1.40089
1.4
1.40001
1.40001
1.40001
1.42624
1.43638
1.4
1.40001
1.40001
1.40001
1.40001
1.35097
1.40001
1.40083
1.40001
1.39999
1.40002
1.40001
0.760332
1.4
1.40257
1.40001
1.40001
1.40001
1.42255
1.40001
1.42586
1.39999
1.37426
1.40001
1.40068
1.40219
1.39724
1.40001
1.40028
1.40001
1.40001
1.40001
1.40001
1.3976
1.40001
1.43028
0.738286
1.40001
1.40001
1.40618
1.40001
1.46066
0.757576
1.39991
1.4
1.40001
1.40001
1.46117
1.39999
1.40001
1.40173
1.40001
1.4006
1.40001
1.40001
1.40001
1.39884
1.40001
1.40001
1.40001
1.39999
1.40001
1.40001
1.38916
1.39821
1.45492
1.40001
1.39725
1.40001
1.40001
1.31174
1.40001
1.40001
1.48931
1.40001
1.40001
1.39787
1.40001
1.40001
1.40097
1.40001
1.4036
1.40061
1.40019
1.40803
1.40001
1.39783
1.40001
1.4
1.40001
1.40793
1.40001
1.40001
1.46551
1.38651
1.40001
1.36644
1.4
1.39505
1.4
1.40001
1.4
1.40155
1.4
1.45983
1.40001
1.40001
1.45995
1.40001
1.54877
1.40001
1.40001
1.36353
1.40001
1.40001
1.45191
1.4
1.40001
1.40339
1.40069
1.40784
1.4
1.4001
1.40039
1.39982
1.40002
1.4
1.4
1.40001
1.40001
1.40097
1.40001
1.4
1.40001
1.40001
1.40001
1.40001
1.39928
1.40001
1.40001
1.40001
1.39836
1.3995
1.40001
1.39993
1.40001
1.40001
1.44858
1.4
1.40001
1.4
1.43926
1.39999
1.40001
1.40053
1.4
1.4
1.40001
1.40001
1.40003
1.40001
1.40001
1.4
1.40001
1.39989
1.39805
1.43259
1.40061
1.40001
1.39999
1.4
1.40001
1.41058
1.40002
1.45262
1.41564
1.40001
1.40001
1.40001
1.40001
1.41502
1.40001
1.40004
1.33488
1.40001
1.40001
1.40001
1.41447
1.4
1.40001
1.4
1.40001
1.39602
1.38812
1.4
1.41771
1.3917
1.49309
1.40002
1.40001
1.39897
1.40001
1.46546
1.40001
1.40006
1.40001
1.40007
1.40001
1.4016
1.42834
1.41664
1.40081
1.3998
1.40001
1.40001
1.40001
1.40009
1.40001
1.39992
1.40219
1.27499
1.42553
1.40001
1.40001
1.4
1.4
1.40001
1.40001
1.40001
1.40001
1.44095
1.40001
1.40001
1.40002
1.39669
1.40001
1.4
1.40001
1.40001
1.40001
1.41708
1.4
1.40001
1.40001
1.4
1.3989
1.40001
1.40001
1.40001
1.40001
1.40001
1.40001
1.40001
1.40001
1.59755
1.40001
1.40001
1.4
1.40005
1.4
1.40001
1.40001
1.39996
1.40001
1.40001
1.40001
1.40001
1.4119
1.40001
1.40001
1.40001
1.4
1.40001
1.4
1.40001
1.40001
1.40001
1.29212
1.47528
1.40001
1.45605
1.39998
1.4537
1.40001
1.40001
1.40001
1.4
1.40001
1.40001
1.4
1.40001
1.40001
1.21308
1.40029
1.40004
1.40001
1.40001
1.40005
1.4
1.40001
1.40001
1.31784
1.39999
1.40001
1.40001
1.40001
1.4
1.40176
1.4
1.40001
1.39999
1.40001
1.40001
1.29754
1.40001
1.40086
1.4075
1.40104
1.40001
1.3739
1.40001
1.40015
1.4
1.40001
1.40001
1.4
1.40001
1.4
1.4
1.39708
1.41226
1.40001
1.40716
1.4
1.40001
1.40001
1.40001
1.40026
1.40001
1.4
1.4
1.39656
1.40001
1.44236
1.40001
1.40826
1.40077
1.40001
1.40001
1.40126
1.51258
1.40001
1.40024
1.4
1.40104
1.40001
1.40001
1.40001
1.40044
1.40001
1.39999
1.40001
1.40001
1.39997
1.40001
1.41984
1.4
1.40001
1.47099
1.40001
1.39996
1.4014
1.40001
1.40003
1.40001
1.4
1.40062
1.40001
1.40001
1.4002
1.40001
1.40001
1.39329
1.37091
1.40001
1.40257
1.40001
1.40001
1.4001
1.40001
1.40001
1.40001
1.40001
1.40001
1.40001
1.37908
1.40001
1.40001
1.39996
1.39922
1.39778
1.39952
1.40066
1.40001
1.40055
1.4
1.40001
1.4
1.40001
1.40024
1.37004
1.40026
1.40598
1.4
1.40328
1.4
1.4
1.44527
1.46041
1.4
1.39994
1.40001
1.40001
1.40001
1.39984
0.94776
1.40115
1.33034
1.40001
1.40001
1.40355
1.40299
1.4463
1.40001
1.40001
1.40001
1.39162
1.4
1.40001
1.4
1.41456
1.39998
1.40001
1.3807
1.4
1.40001
1.40001
1.40001
1.40006
1.40001
1.40001
1.40001
1.40001
1.40001
1.38025
1.40006
1.40003
1.40001
1.35872
1.4
1.40001
1.40001
1.46615
1.40001
1.40001
1.25659
1.40008
1.45839
1.40001
1.40001
1.4
1.4
1.40001
1.40001
1.42739
1.40001
1.39296
1.40001
1.40612
1.43501
1.40013
1.40001
1.40001
1.40001
1.40001
1.40001
1.46213
1.40005
1.40025
1.39991
1.3859
1.46403
1.43516
1.40001
1.4
1.40001
1.40001
1.40198
1.4
1.40001
1.40001
1.4
1.40415
1.40019
1.40001
1.4
1.4968
1.40001
1.40004
1.40001
1.40001
1.40001
1.40001
1.40001
1.40001
1.45824
1.43082
1.40001
1.40005
1.41997
1.4
1.40001
1.40001
1.45233
1.4
1.40001
1.4
1.39996
1.40001
1.40006
1.4
1.40015
1.40001
1.4
1.40713
1.4
1.40001
1.4
1.40001
1.4
1.39894
1.41599
1.40001
1.43416
1.36415
1.40001
1.40004
1.40002
1.40262
1.40001
1.40785
1.40001
1.4
1.40001
1.1062
1.40006
1.40811
1.40001
1.40001
1.40001
1.40065
1.40001
1.40689
1.40001
1.40001
1.40001
1.40056
1.40001
1.40001
1.40001
1.40001
1.40001
1.40038
1.40001
1.4
1.40001
1.4356
1.40005
1.39629
1.40018
1.4
1.4
1.4
1.40001
1.4
1.40001
1.40005
1.4062
1.39964
1.40003
1.40006
1.36761
1.38848
1.40001
1.40001
1.40001
1.40001
1.39892
1.40001
1.40001
1.40001
1.40001
1.40001
0.567034
1.4
0.674803
1.40001
1.40002
1.40001
1.39916
1.40003
1.4
1.40188
1.44566
1.40026
1.40001
1.45577
1.40001
1.41979
1.41055
1.40001
1.40001
1.40033
1.40001
1.39993
1.44116
1.4
1.39997
1.4
1.4
1.4
1.40001
1.45607
1.40216
1.40001
1.40001
1.39759
1.40001
1.40001
1.40579
0.757026
1.4
1.40001
1.40154
1.40001
1.40001
1.23189
1.44083
1.4
1.4
1.4
1.40002
1.4
1.40001
1.40004
1.39998
1.4
1.40001
1.4
1.4
1.40074
1.40047
1.40001
1.4
1.44373
1.40733
1.40001
1.40001
1.43483
1.40001
1.40001
1.40001
1.40001
1.39999
1.40001
1.40001
1.40001
1.44221
1.40001
1.46355
1.39865
1.40016
1.40001
1.46152
1.40001
1.40001
1.62287
1.40001
1.42302
1.4
1.4317
1.40001
1.4
1.40001
1.40001
1.40001
1.39994
1.40001
1.24694
1.40001
1.41348
1.40001
1.40001
1.40001
1.40001
1.40001
1.40001
1.40001
1.40001
1.40001
1.40001
1.40867
1.40187
1.4
1.67483
1.40001
1.29921
1.39986
1.40001
1.40003
1.40001
1.40001
1.40001
1.40011
1.40173
1.40003
1.40442
1.46103
1.40001
1.40001
1.40001
1.40002
1.40001
1.40001
1.40001
1.40001
1.40001
1.35976
1.47345
0.904909
1.40001
1.40001
1.41215
1.4
0.980277
1.40001
1.39922
1.4
1.4
1.39976
1.36568
1.4
1.40001
1.40001
1.39985
1.40379
1.40002
1.4
1.40003
1.40001
1.37162
1.40001
1.40001
1.40014
1.4508
1.40001
1.40001
1.42663
1.3999
1.4199
1.40002
1.40001
1.40002
1.40001
1.40001
1.40001
1.39992
1.40001
1.4
1.40001
1.40001
1.45589
1.40001
1.40001
1.40001
1.40001
1.43014
1.46028
1.40001
1.40001
1.40001
1.40001
1.4
1.40006
1.40001
1.39997
1.45687
1.40009
1.39999
1.40001
1.40001
1.38417
1.3999
1.4004
1.40001
0.956074
1.40902
1.40001
1.4
1.4
1.4
1.40001
1.40001
1.4
1.40001
1.40001
1.40001
1.37781
1.40003
1.4
1.4
1.40001
1.40068
1.4003
1.39974
1.40001
1.44042
1.40001
1.40001
1.40001
1.4
1.4
1.40001
1.44563
1.39998
1.40001
1.40001
1.40001
1.40004
1.40001
1.40004
1.41227
1.44595
1.39858
1.40001
1.39991
1.4
1.40236
1.40001
1.39999
1.40004
1.40001
1.40001
1.40013
1.41444
1.31815
1.40001
1.4
1.4
1.44744
1.40001
0.888378
1.39876
1.40001
1.40001
1.40757
1.39746
1.4
1.40001
1.40001
1.41589
1.4486
1.4
1.39998
1.39864
1.4
1.40001
1.39993
1.41347
1.40001
1.40001
1.40015
1.40001
1.4
1.40004
1.4
1.40001
1.40004
1.40001
1.39785
1.4
1.40001
1.39971
1.44268
1.40017
1.41849
1.4
1.40003
1.39962
1.39426
1.40001
1.39999
1.45402
1.78774
0.593332
1.40001
1.40001
1.40001
1.40001
1.40001
1.39999
1.40001
1.40001
1.39992
1.40001
1.40001
1.37362
1.40001
1.4
1.4
1.40001
1.40001
1.39047
1.4
1.40001
1.40001
1.40001
1.4138
1.4
1.40001
1.40001
1.40001
1.40162
1.4
1.4308
1.40113
1.40001
1.40001
1.4
1.40003
1.4
1.40001
1.4
1.39979
0.612218
1.39994
1.40302
1.40001
1.4
1.4
1.40001
1.4
1.40001
1.48473
1.40001
1.40001
1.40001
1.40001
1.4038
1.39831
1.4
1.40001
1.39991
1.40001
1.40004
1.40001
1.46965
1.39513
1.40001
1.40001
1.40001
1.40087
1.18993
1.40001
1.40001
1.40001
1.40906
1.40001
1.40001
1.4
1.40001
1.3937
1.4
1.40624
1.39988
1.40001
1.36704
1.40055
1.40001
1.40154
1.40005
1.38589
1.40001
1.42273
1.40157
1.40001
1.40041
1.40001
1.40001
1.40001
1.40001
1.4
1.40379
1.40001
1.40001
1.40007
1.4
1.4002
1.40001
1.4017
1.40007
1.43977
1.40001
1.40422
1.26502
1.43447
1.40868
1.40212
1.39977
1.40857
1.40001
1.39826
1.40041
1.39626
1.40001
1.40001
1.40033
1.42091
1.40001
1.40047
1.40001
1.4
1.39982
1.40001
1.40001
1.39737
1.4
1.40001
1.40001
1.40001
1.38733
1.40022
1.40016
1.40001
1.40001
1.40004
1.40001
1.40001
1.38213
1.40001
1.40001
1.40061
1.4
1.40029
1.40352
1.4
1.40091
1.40001
1.4
1.40419
1.40001
1.40001
1.40001
1.4
1.40102
1.39519
1.40001
1.40398
1.40001
1.32535
1.40001
1.4
1.40001
1.40001
1.40001
1.40001
1.40019
1.40002
1.40001
1.40001
1.40211
1.44233
1.40001
1.4
1.40001
1.40001
1.40001
1.4
1.40001
1.40001
1.4
1.40001
1.3175
1.40001
1.4
1.36452
1.42756
1.40001
1.40001
1.38662
1.4
1.40001
1.43097
1.40001
1.40003
1.4
1.39998
1.4
1.3961
1.40001
1.39216
1.40316
1.40005
1.40001
1.40001
1.40001
1.40001
1.40001
1.41969
1.40001
1.40301
1.40001
1.40001
1.40001
1.4
1.40001
1.40164
1.40133
1.39786
1.39999
1.40001
1.39802
1.45621
1.4
1.40307
1.40001
1.40001
1.26334
1.40001
1.40006
1.40001
1.40001
1.40001
1.4
1.40001
1.40001
1.40001
1.40001
1.40001
1.4
1.4
1.40001
1.40001
1.4
1.40001
1.39999
1.40001
1.40174
1.40002
1.40001
1.39997
1.4
1.3975
1.40001
1.40001
1.40001
1.39989
1.40437
1.40115
1.47588
1.4
1.39919
1.40001
1.40001
1.40028
1.4356
1.39953
1.39997
1.40051
1.40001
1.40122
1.40001
1.43271
1.40001
1.4
1.40001
1.40001
1.44897
1.40001
1.33915
1.40001
1.40001
1.40001
1.45401
1.40001
1.40001
1.39863
1.40002
1.40001
1.40001
1.40001
1.40001
1.37594
1.4
1.4206
1.31524
1.39997
1.4451
1.40001
1.40001
1.39959
1.40001
1.40001
1.40001
1.40001
1.4453
1.40001
1.40001
1.4
1.43166
1.39968
1.42045
1.40051
1.40001
1.40001
1.4
1.40001
1.40001
1.39126
1.40001
1.33035
1.40001
1.4503
1.40046
1.40001
1.40107
1.39945
1.40001
1.40001
1.40033
1.40001
1.39925
1.39995
1.40001
1.40076
1.39992
1.40002
1.39961
1.39999
1.39999
1.40001
1.40908
1.40001
1.40001
1.40001
1.42195
1.4667
1.39997
1.40001
1.5096
1.4017
1.40034
1.40001
1.35859
1.40001
1.40001
1.39999
1.40001
1.40001
1.4
1.41694
1.40001
1.4
1.40001
1.4
1.40001
1.40001
1.4
1.38909
1.40001
1.40001
1.40001
1.4
1.39785
1.40001
1.44981
1.39997
1.4
1.40016
1.40004
1.3989
1.39989
1.40003
1.39997
1.40001
1.4
1.40001
1.40038
1.40001
1.39983
1.4013
1.4
1.40001
1.40001
1.42435
1.40001
1.40001
1.39998
1.39999
1.40001
1.40001
1.40001
1.40045
1.38598
1.4
1.40001
1.40001
1.4001
1.40001
1.40001
1.3936
1.44523
1.40001
1.39998
1.4
1.40059
1.40001
1.73957
1.40001
1.40017
1.40001
1.40001
1.40576
1.4181
1.40035
1.39781
1.28166
1.36249
1.4709
1.4002
1.39985
1.41078
1.4513
1.44761
1.40001
1.4
1.43876
1.40001
1.4
1.49057
1.39999
1.4
1.40555
1.40001
1.44928
1.40001
1.40001
1.40002
1.45363
1.40001
1.40001
1.40001
1.40001
1.39907
1.41547
1.40001
1.4
1.4
1.40001
1.41097
1.4
1.40001
1.40001
1.40001
1.47331
1.4
1.40001
1.40055
1.38428
1.40001
1.40001
1.40001
1.40001
1.48455
1.40001
1.39996
1.46306
1.42793
1.39927
1.40001
1.39945
1.40037
1.40062
1.45367
1.40193
1.40001
1.40001
1.40001
1.40001
1.40001
1.4
1.4
1.40039
1.40001
1.40001
1.40001
1.40001
1.4
1.39994
1.47463
1.4002
1.40001
1.36
1.38706
1.39638
1.42848
1.40001
1.40001
1.40001
1.39992
1.39353
1.38015
1.4811
1.4
1.40001
1.39997
1.40003
1.41594
1.40001
1.41022
1.35891
1.40001
0.746994
1.40001
1.40001
1.40001
1.40002
1.39961
1.4
1.40001
1.40001
1.06803
1.40778
1.39755
1.40001
1.40001
1.40001
1.40001
1.40001
0.745662
1.40001
1.39516
1.40001
1.4
1.40001
1.40006
1.40001
1.4
1.40001
1.40001
1.40001
1.43546
1.40513
1.4
1.40001
1.39409
1.4
1.40007
1.40001
1.40001
1.40001
1.40001
1.40001
1.40001
1.23428
1.43966
1.408
1.40002
1.40001
1.40001
1.40001
1.40001
1.43641
1.40011
1.41335
1.40001
1.40001
1.40443
1.40001
1.40001
1.42709
1.39361
1.41557
1.46442
1.40001
1.39999
1.40001
1.40001
1.40031
1.40131
1.41892
1.41963
1.39998
1.4
1.4
1.39792
1.22439
1.40001
1.40001
1.40001
1.40114
1.40001
1.4004
1.40001
1.40716
1.41912
1.40005
1.40782
1.4
1.4
1.40001
1.40001
1.40001
1.41712
1.40001
1.4
1.43849
1.40044
1.40001
1.45487
1.4
1.40008
1.4
1.4
1.43851
1.40001
1.4
1.42939
1.21051
1.40001
1.46503
1.44112
1.4
1.40001
1.40001
1.40001
1.40001
1.40001
1.4
1.39588
1.4
1.4
1.41955
1.26368
1.40069
1.4
1.40001
1.39999
1.40002
1.4
1.41861
1.39878
1.40011
1.26937
1.40001
1.4
1.40967
1.40001
1.40001
1.40001
1.4
1.4
1.40004
1.40101
1.40001
1.40001
1.35263
1.4
1.40001
1.40322
1.40001
1.40008
1.40001
1.39998
1.4
1.40001
1.40001
1.4
1.40001
1.4
1.40001
1.41375
1.40001
1.40001
1.4172
1.3979
1.40001
1.40001
1.40023
1.40001
1.40001
1.40001
1.40001
1.40001
1.40001
1.40013
1.40001
1.40001
1.40001
1.4208
1.40001
1.40001
1.4
1.41577
1.40004
1.4
1.39983
1.40001
1.26178
1.40001
1.40001
1.40001
1.39999
1.40537
1.40012
1.3997
1.40001
1.40001
1.40001
1.39729
1.4
1.22452
1.40001
1.40001
1.40001
1.3999
1.40094
1.40001
1.40001
1.42625
1.40001
1.40013
1.40001
1.46622
1.40064
1.41091
1.40001
1.40001
1.46831
1.40001
1.41854
1.40001
1.40001
1.40001
1.40001
1.40001
1.40001
1.43039
1.40001
1.40001
1.39996
1.4
1.39999
1.4
1.40001
1.4
1.4
1.40003
1.40001
1.39978
1.36642
1.37386
1.40871
1.40001
1.39986
1.39999
1.4
1.40001
1.40001
1.35974
1.40132
1.40001
1.40001
1.40071
1.40001
1.40371
1.42242
1.40002
1.40001
1.40001
1.40001
1.40001
1.43087
1.40011
1.4273
1.40089
1.40001
1.4
1.39275
1.40003
1.40001
1.4
1.40001
1.40001
1.40001
1.40001
1.40001
1.40001
1.4
1.4
1.41388
1.40001
1.39973
1.44246
1.4
1.39906
1.4
1.40001
1.45147
1.54562
1.41796
1.40001
1.40001
1.40001
1.40001
1.39999
1.40001
1.39994
1.40522
1.40033
1.40001
1.4759
1.40001
1.39946
1.39872
1.40001
1.40012
1.41627
1.43163
1.40001
1.33042
1.40012
1.43522
1.4
1.4
1.39962
1.40001
1.39991
1.40001
1.41503
1.40001
1.40032
1.39923
1.19315
1.40001
1.36373
1.40001
1.4
1.40004
1.40001
1.40003
1.40001
1.40001
1.4
1.40001
1.40001
1.4
1.4
1.40001
1.39266
1.4
1.40316
1.29031
1.31345
1.40001
1.40001
1.45172
1.3382
1.40001
1.40001
1.40002
1.42881
1.44175
1.39973
1.40001
1.40001
1.14619
1.39896
1.40001
1.40001
1.40001
1.40001
1.4
1.40001
1.40002
1.40199
1.40989
1.48086
1.42963
1.40015
1.28387
1.40001
1.39628
1.40001
1.4
1.46113
1.40003
1.40008
1.40001
1.40507
1.39999
1.40001
1.40001
1.40001
1.40001
1.39582
1.39968
1.4
1.40001
1.40001
1.40119
1.26414
1.40001
1.40001
1.4
1.40001
1.40001
1.45061
1.40001
1.40001
1.42273
1.40047
1.40001
1.40001
1.40514
1.40001
1.40001
1.40001
1.40001
1.40001
1.4001
1.40001
1.44565
1.40001
1.4
1.4
1.40001
1.40001
1.4
1.41623
1.40001
1.4407
1.44423
1.44903
1.40001
1.40001
1.4002
1.40962
1.41135
1.40001
1.45371
1.40001
1.39986
1.22694
1.40001
1.18465
1.40001
1.40001
1.40001
1.40001
1.40001
1.41294
1.40001
1.37551
1.40001
1.41729
1.40001
1.4
1.40001
1.40001
1.4
1.40001
1.40001
1.40001
1.39951
1.4
1.39998
1.40001
1.51701
1.4
1.39013
1.40001
1.40001
1.40072
1.4
1.40001
1.4
1.46133
1.4694
1.40003
1.40001
1.40001
1.40001
1.39879
1.40001
1.40001
1.24987
1.43132
1.4
1.44111
1.40001
1.40239
1.40244
1.40026
1.40001
1.4
1.40955
1.39999
1.40062
1.40001
1.40001
1.40001
1.40762
1.40001
1.40001
1.40001
1.4
1.4
1.40001
1.4
1.3991
1.44518
1.40001
1.21474
1.39994
1.40001
1.40017
1.4288
1.43743
1.4
1.38857
1.40001
1.4
1.40001
1.40001
1.40001
1.41066
1.40001
1.40001
1.40001
1.42819
1.39994
1.40001
1.39648
1.4
1.40321
1.40001
1.40001
1.44555
1.43272
1.40001
1.4
1.39851
1.40001
1.32295
1.40001
1.40001
1.39407
1.4
1.40001
1.36205
1.39994
1.39998
1.4
1.40001
1.4
1.40001
1.44705
1.40001
1.21157
1.40048
1.40001
1.40324
1.4
1.40006
1.40001
1.4
1.35498
1.39934
1.40001
1.40001
1.4
1.40001
1.40001
1.42068
1.4
1.40001
1.40001
1.40052
1.41205
1.38692
1.40001
1.4147
1.40001
1.4002
1.40235
1.4
1.4
1.40001
1.40001
1.44154
1.40001
1.48714
1.40669
1.40001
1.40001
1.40001
1.40001
1.40001
1.40001
1.40016
1.40001
1.4
1.4
1.40001
1.40001
1.40001
1.40002
1.40001
1.53026
1.40028
1.46518
1.40004
1.39902
1.40222
1.40001
1.39964
0.710841
1.39884
1.40001
1.22624
1.40001
1.39982
1.41771
1.43521
1.40001
1.4
1.40075
1.4
1.40001
1.4
1.40001
1.39982
1.40001
1.4644
1.40054
1.42373
1.40001
1.40021
1.39998
1.40001
1.40002
1.40001
1.4
1.40001
1.40458
1.41461
1.40001
1.40027
1.29497
1.40027
1.02654
1.43471
1.4044
1.40414
1.4
1.40426
1.39953
1.4
1.45707
1.40001
1.40001
1.40003
1.4
1.40001
1.44457
1.41949
1.40001
1.40001
1.42378
1.40001
1.4
1.41313
1.44216
1.40001
1.40193
1.40001
1.4
1.4
1.44837
1.40001
1.40001
1.40001
1.40001
1.37883
1.39999
1.4
1.77506
1.4
1.40001
1.36565
1.40001
1.3964
1.39996
1.40001
1.40001
1.40001
1.40001
1.40001
1.40001
1.40001
1.40001
1.4
1.40001
1.39999
1.40049
1.40001
0.952882
1.40001
1.40001
1.38857
1.40001
1.40056
1.40001
1.40001
1.39203
1.40001
1.40007
1.40001
1.40001
1.40001
1.4
1.40001
1.40001
1.4
1.40001
1.4
1.4
1.40001
1.40001
1.40085
1.39892
1.40139
1.40001
1.42583
1.42462
1.39999
1.40001
1.40001
1.40009
1.42911
1.40001
1.40001
1.40001
1.43868
1.40001
1.40001
1.0999
1.40001
1.4
1.40001
1.40001
1.40001
1.40033
1.40001
1.39997
1.40001
1.37308
1.40001
1.4
1.40101
1.40001
1.4
1.44754
1.40001
1.40001
1.34653
1.27228
1.40001
1.40023
1.40001
1.40001
1.4
1.43175
1.3999
1.4
1.41063
1.30851
0.952093
1.40001
1.0108
1.4
1.40001
1.40001
1.40001
1.40001
1.40001
1.40795
1.4005
1.1295
1.39997
1.40165
1.4
1.4
1.40001
1.40006
1.40001
1.40001
1.39995
1.40001
1.40075
1.39973
1.40009
1.40001
1.40001
1.40001
1.40001
1.40001
1.32997
1.4
1.39999
1.4
1.40001
0.902103
1.40001
1.39995
1.4
1.40001
1.40001
1.42632
1.4076
1.40001
1.4
1.40001
1.40001
1.40001
1.40049
1.39867
1.40001
1.40001
1.40001
1.40001
1.40001
1.40001
1.40396
1.40001
1.40001
1.40001
1.45205
1.40001
1.43455
1.40001
1.40001
1.4
1.43861
1.40001
1.40001
1.40113
1.4
1.40127
1.39994
1.4
1.40001
1.40001
1.40001
1.40162
1.40001
1.39984
1.40003
1.39999
1.40001
0.888843
1.40001
1.405
1.40001
1.40001
1.43086
1.39965
1.44378
1.50394
1.38683
1.40001
1.54422
1.4
0.659382
1.40001
1.39387
1.40001
1.40001
1.40001
1.40001
1.4143
1.3881
1.40821
1.4
1.39407
1.40859
1.39807
1.40001
1.36784
1.40001
1.40001
1.40001
1.39969
1.39897
1.39999
0.645845
1.40001
1.4
1.40012
1.40076
1.36307
1.40073
1.40001
1.40001
1.40325
1.4
1.39956
1.4002
1.40002
1.40001
1.40001
1.40001
1.40001
1.40586
1.3983
1.46141
0.85111
1.39999
1.40001
1.40001
1.40001
1.40328
1.39778
1.40146
1.39859
1.40001
1.40001
1.40648
1.40001
1.40001
1.40001
1.39867
1.45217
1.42476
1.4001
1.40001
1.39923
1.40096
1.38565
1.40001
1.2428
1.40001
1.16898
1.40001
1.40099
1.39999
1.40046
1.4
1.57092
1.02658
1.4
1.40001
1.40001
1.40066
1.45988
1.40001
1.40001
1.40001
1.4
1.45542
1.40001
1.40001
1.40078
1.40675
1.40001
1.4
1.40316
1.4321
1.40001
1.40002
1.16847
1.40001
1.39991
1.40001
1.40001
1.40001
1.40001
1.40001
1.39999
1.40001
1.40028
1.40001
1.40001
1.4
1.40001
1.40001
1.40002
1.40001
1.40001
1.39947
1.40001
1.40013
1.40117
1.4
1.42027
1.40001
1.40001
1.40001
1.39997
1.40001
1.42574
1.4
1.40001
1.39998
1.40001
1.40001
1.40001
1.40001
1.40001
1.47541
1.40001
1.4
1.39999
0.722379
1.4
1.39031
1.40001
1.46486
1.4
1.40002
1.40001
0.970699
1.40001
1.40001
1.40468
1.40001
1.4
1.43742
1.3979
1.46913
0.839173
1.40001
1.40001
1.40001
1.4002
1.40001
1.40001
1.4093
1.40001
1.40001
1.40001
1.39999
1.40001
1.4
1.39141
1.40001
1.40001
1.40001
1.40001
1.51457
1.4
1.40001
1.40001
1.40643
1.40001
1.40001
1.40001
1.40001
1.40001
1.40001
1.40001
1.40093
1.40001
1.40001
1.40001
1.40001
1.40001
1.40002
1.39647
1.40001
1.40001
1.40001
1.4
1.40001
1.415
1.4
1.40001
1.40001
1.40001
1.40345
1.33159
1.40001
1.40021
1.39999
1.40109
1.40001
1.39995
1.40001
1.39644
1.41805
1.40004
1.40001
1.562
1.44498
1.40001
1.39718
1.40001
1.40001
0.951159
1.40001
1.4
1.40008
1.40001
1.4
1.4006
0.892748
1.40001
1.40001
1.40001
1.40001
1.40001
1.4005
1.40001
1.40001
1.39732
1.40001
1.4
1.40001
1.40001
1.40001
1.39789
1.39918
1.40001
1.4
1.40001
1.39999
1.40001
1.40001
1.40001
1.4
1.40001
1.4
1.38453
1.41343
1.40004
1.40001
1.40001
1.34743
1.40001
1.4
1.40001
1.40001
1.40001
1.40001
1.40039
1.40001
1.45252
1.40001
1.40001
1.40001
1.40002
1.40001
1.40001
1.42686
1.40227
1.40001
1.4
1.42819
1.40001
1.40001
1.4
1.45536
1.40001
1.4
1.40001
1.4
1.40001
1.40001
1.40001
1.40003
1.39996
0.91129
1.40001
1.4
1.4
1.40001
1.40019
1.40001
1.40001
1.40001
1.40001
1.40104
1.39992
1.40001
1.40001
1.40001
1.40001
1.40001
1.03011
1.40001
1.4
1.40001
1.40001
1.40001
1.4
1.37798
1.40001
1.41477
1.4
1.40004
1.45141
1.39302
1.40001
1.39999
1.40001
1.53857
1.40002
1.40001
1.40001
1.40001
1.40001
1.40001
1.42837
1.4
1.40103
1.40008
1.4
1.4
1.40001
1.41559
1.40001
1.36425
1.39999
1.40026
1.37241
1.40001
1.40001
1.40402
1.40001
1.43263
1.40001
1.40001
1.40001
1.4
1.40069
1.40001
1.40001
1.40001
1.40001
1.40739
1.40001
1.4
1.44146
1.40001
1.4
1.41466
1.06887
1.46658
1.40001
1.41999
1.40001
1.4
1.34999
1.39435
1.40001
1.4
1.40316
1.40001
1.40007
1.40016
1.40001
1.40001
1.40001
1.40001
1.39873
1.4
1.40001
1.42693
1.40001
1.46236
1.40001
1.40001
1.40001
1.40001
1.72426
1.40001
1.40001
1.40001
1.39995
1.40001
1.4
1.40001
1.33174
1.38123
1.4
1.40001
1.40001
1.39992
1.40001
1.39987
1.40001
1.50061
0.926507
1.41204
1.40001
1.40128
1.40001
1.40017
1.38544
1.39999
1.40001
1.40806
1.40001
1.4
1.40002
0.589647
1.40001
1.39999
1.45613
1.39006
1.40004
1.3809
1.40251
1.3998
1.4
1.3454
1.40001
1.40001
1.39936
1.40004
1.40001
1.40005
1.40001
1.39998
1.40001
1.40001
1.40042
1.40001
1.40001
1.38082
1.40001
1.40001
1.40001
1.40001
1.34501
1.4
1.39844
1.40001
1.40001
1.40001
1.40001
1.40004
1.40001
1.40005
1.39998
1.40042
1.39998
1.40001
1.40001
0.673501
1.4
1.40001
1.40001
1.40001
1.40004
1.40002
1.40392
1.40001
1.40001
1.40001
1.4
1.40001
1.3983
1.40001
1.39999
1.40001
1.4535
1.40001
1.40001
1.40002
1.40001
1.40134
1.40001
1.40001
1.40392
1.40001
1.40001
1.4018
1.40785
1.39922
1.40001
1.40001
1.40001
1.40001
1.39997
1.06568
1.42629
1.4005
1.40228
1.40001
1.40001
1.40001
1.40001
1.4
1.39898
1.4
1.30248
1.4
1.41506
1.40001
1.39999
1.40001
1.40001
1.40001
1.40001
1.40001
1.40001
1.40001
1.39912
1.40001
1.42381
1.41927
1.40001
1.35868
1.40113
1.39872
1.40001
1.40001
1.40068
1.39999
1.40001
1.45652
1.4
1.40001
1.40001
1.41701
1.45498
1.40001
1.40001
1.40001
1.40001
1.40002
1.40001
1.39663
1.4
1.40001
1.0253
1.40001
1.4
1.39935
1.40001
1.30471
1.40001
1.4
1.4
1.40001
1.40001
1.40185
1.40001
1.40001
1.40001
1.40001
1.4
1.40002
1.4
1.40205
1.40002
1.39997
1.39999
1.4
1.40005
1.4
1.40001
1.40001
1.4
1.40001
1.37643
1.40001
1.40396
1.40001
1.40001
1.40735
1.39992
1.40001
1.40001
1.40001
1.41407
1.40001
1.40001
1.36764
1.40001
1.40928
1.44609
1.40001
1.4
1.40001
1.45206
1.40001
1.40445
1.41025
1.39992
1.39997
1.43137
1.40179
1.40001
1.40082
1.40002
1.3997
1.40004
1.40001
1.39153
1.40012
1.40004
0.749512
1.40009
1.40116
1.4
1.40001
1.40001
1.40001
1.4
1.40001
1.40021
1.38
1.40001
1.40001
1.40001
1.40001
1.4
1.40001
1.40001
1.40001
1.40001
1.40001
1.4
1.40001
1.40001
1.4
1.40001
1.39999
1.40001
1.40001
1.4
1.39999
1.4
1.40001
1.40001
0.991623
1.40001
1.40001
1.40001
1.4
1.39968
1.40001
1.40001
1.40042
1.41651
1.4
1.40295
1.40001
1.40001
1.40001
1.40001
1.4
1.40866
1.39999
1.40001
1.40001
1.39676
1.4
1.40001
1.40001
1.69266
1.40001
1.40001
1.40001
1.40042
1.4
1.40001
1.40001
1.40001
1.40008
1.39895
1.40001
1.40001
1.40001
1.40001
1.40001
1.40001
1.39821
1.40001
1.40001
1.4
1.40001
1.40001
0.877364
1.39999
1.4
1.40001
1.40001
1.40001
1.40014
1.39723
1.40001
1.40001
1.45618
1.4042
1.40026
1.4
1.40001
1.40001
1.40001
1.40001
1.40001
1.40001
1.40001
1.4
1.4
1.4
1.4
1.40001
1.40001
1.40001
1.40001
1.40001
1.40001
1.40001
1.40001
1.40504
1.05586
1.34418
1.4
1.40001
1.39987
1.40001
1.13287
1.40001
1.40001
1.4
1.40001
1.40001
1.40001
1.3991
1.4
1.39995
1.4
1.45268
1.40152
1.40129
1.4
1.40001
1.40001
1.40001
1.39996
1.4
1.40001
1.40014
1.4
1.40001
1.39993
1.41283
1.4
1.40001
1.40001
1.39924
1.40001
1.40001
1.40001
1.4
1.4
1.39999
1.40052
1.40301
1.40001
1.39998
1.40006
1.40094
1.39999
1.3999
1.40001
1.40001
1.40001
1.40001
1.39923
1.40007
1.40005
1.39992
1.3999
1.40001
1.40001
1.40001
1.40016
1.34082
1.40001
1.4
1.4
1.40002
1.40001
1.40101
1.40001
1.39999
1.40001
1.40001
1.40001
1.40001
1.4
1.40001
1.33277
1.40001
1.40001
1.40001
1.40027
1.40001
1.40925
1.4
1.40001
1.36176
1.40001
1.40001
1.40001
1.4
1.39984
1.40001
1.40001
1.40505
1.40001
1.4
1.5969
1.40107
1.40001
1.40001
1.38087
1.40158
1.40001
1.40001
1.40001
1.3561
1.39247
1.40007
1.40001
1.39977
1.4
1.4
1.4001
1.40001
1.40007
1.39999
1.40001
1.46066
1.40001
1.40001
1.40001
1.40001
1.39631
0.783672
1.39998
1.40027
1.33932
1.40001
1.40001
1.40001
1.40001
1.40001
1.19288
1.39985
1.40001
1.40001
1.40001
1.40001
1.26978
1.40001
1.40001
1.4045
1.39997
1.40001
1.40001
1.39992
1.40001
1.40001
1.40001
1.40001
1.40001
1.40001
1.40035
1.40001
1.39976
1.19174
1.40539
1.40007
1.40001
1.3856
1.40001
1.39993
1.40001
1.39875
1.40001
1.4
1.42339
1.40001
1.40001
1.4004
1.4
1.40001
1.40302
1.40001
1.40001
1.40121
1.44823
1.40001
1.42904
1.40001
1.40001
1.40001
1.40001
1.35183
1.4
1.40001
1.40001
1.40001
1.40653
1.40186
1.40403
1.4
1.40001
1.40054
1.40045
1.39961
1.40001
1.4109
1.40001
1.40001
1.40001
1.40001
1.39032
1.40077
1.40001
1.40001
1.4
1.40001
1.40001
1.40001
1.40001
1.4549
1.4
1.42058
1.40001
1.4
1.40002
1.40001
1.40002
1.40001
1.36341
1.39989
1.40001
1.4
1.46478
1.40001
1.40001
1.40001
1.40001
1.39392
1.40001
1.49005
1.40001
1.4
1.40001
1.40013
1.40001
1.40001
1.40001
1.39993
1.40001
1.40115
1.4
1.4
1.40001
1.40001
1.41027
1.40051
1.4
1.40001
1.40001
1.40001
1.39953
1.40001
1.40001
1.43312
1.38787
1.38759
1.4
1.35384
1.39938
1.40001
1.40001
1.49429
1.40001
1.40005
1.40001
1.39941
1.49501
1.40001
1.40001
1.4003
1.43285
1.40001
1.40001
1.40074
1.32883
1.40001
1.23684
1.39985
1.40001
1.4
1.40001
1.39997
1.40001
1.4
1.40015
1.40001
1.40001
1.4
1.40001
1.40001
1.40025
1.4
1.40001
0.868559
1.40001
1.40015
1.40001
1.39991
1.40036
1.40001
1.40001
1.4
1.40001
1.4
1.40003
1.40039
1.40001
1.40001
1.10413
1.40001
1.40001
1.40001
1.40001
1.40001
1.40001
1.21122
1.4373
1.41844
1.40135
1.40004
1.40001
1.4
1.40001
1.4
1.40001
1.39999
1.40001
1.40001
1.40001
1.4
1.4218
1.4
1.4113
1.40011
1.4
1.38687
1.40004
1.40993
1.42784
1.41557
1.4
1.4
1.40475
1.40001
1.40001
1.39999
1.40001
1.40042
1.40001
1.39999
1.48685
1.39981
1.40001
1.4022
1.4