/*--------------------------------*- C++ -*----------------------------------*\
  =========                 |
  \\      /  F ield         | OpenFOAM: The Open Source CFD Toolbox
   \\    /   O peration     | Website:  https://openfoam.org
    \\  /    A nd           | Version:  6
     \\/     M anipulation  |
\*---------------------------------------------------------------------------*/
FoamFile
{
    version     2.0;
    format      ascii;
    class       volScalarField;
    location    "2.6";
    object      rho;
}
// * * * * * * * * * * * * * * * * * * * * * * * * * * * * * * * * * * * * * //

dimensions      [1 -3 0 0 0 0 0];

internalField   nonuniform List<scalar> 
10000
(
1.40001
1.40001
1.40001
1.40001
1.40001
1.40001
1.40001
1.40001
1.40001
1.40001
1.40001
1.40001
1.40001
1.40001
1.40001
1.40001
1.40001
1.40001
1.4
1.40001
1.40001
1.40001
1.40001
1.40001
1.40001
1.4
1.40001
1.4
1.40001
1.4
1.40001
1.4
1.40001
1.4
1.40001
1.4
1.40001
1.4
1.40001
1.4
1.40001
1.4
1.40001
1.4
1.4
1.4
1.4
1.4
1.4
1.4
1.4
1.4
1.4
1.4
1.4
1.4
1.39999
1.4
1.4
1.4
1.4
1.40001
1.40001
1.40001
1.40001
1.40001
1.40001
1.40002
1.40001
1.40001
1.40001
1.40001
1.40001
1.40001
1.40001
1.40001
1.40001
1.40001
1.40001
1.40001
1.40001
1.40001
1.40001
1.40001
1.40001
1.40001
1.40001
1.40001
1.40001
1.40001
1.40001
1.40001
1.40001
1.40001
1.40001
1.40001
1.40001
1.40001
1.40001
1.40001
1.40001
1.40001
1.40001
1.40001
1.40001
1.40001
1.40001
1.40001
1.40001
1.40001
1.40001
1.40001
1.40001
1.40001
1.40001
1.40001
1.40001
1.40001
1.40001
1.40001
1.4
1.40001
1.4
1.40001
1.4
1.40001
1.4
1.40001
1.4
1.40001
1.40001
1.4
1.40001
1.40001
1.4
1.40001
1.40001
1.40001
1.40001
1.40001
1.4
1.40001
1.4
1.4
1.4
1.4
1.4
1.4
1.4
1.4
1.4
1.39999
1.39999
1.39999
1.39999
1.39999
1.39999
1.39999
1.39999
1.4
1.4
1.40001
1.40001
1.40001
1.40002
1.40002
1.40002
1.40002
1.40002
1.40002
1.40002
1.40001
1.40001
1.40001
1.40001
1.40001
1.40001
1.40001
1.40001
1.40001
1.40001
1.40001
1.40001
1.40001
1.40001
1.40001
1.40001
1.40001
1.40001
1.40001
1.40001
1.40001
1.40001
1.40001
1.40001
1.40001
1.40001
1.40001
1.40001
1.40001
1.40001
1.40001
1.40001
1.40001
1.40001
1.40001
1.40001
1.40001
1.40001
1.40001
1.40001
1.40001
1.40001
1.40001
1.40001
1.40001
1.4
1.40001
1.4
1.40001
1.4
1.40001
1.4
1.40001
1.4
1.40001
1.40001
1.4
1.40001
1.4
1.40001
1.4
1.40001
1.4
1.40001
1.4
1.40001
1.40001
1.40001
1.40001
1.40001
1.4
1.4
1.4
1.4
1.4
1.4
1.4
1.4
1.4
1.39999
1.39999
1.39999
1.39998
1.39998
1.39998
1.39998
1.39998
1.39999
1.39999
1.4
1.40001
1.40001
1.40002
1.40003
1.40003
1.40003
1.40003
1.40003
1.40003
1.40002
1.40002
1.40002
1.40001
1.40001
1.40001
1.40001
1.40001
1.40001
1.40001
1.40001
1.40001
1.40001
1.40001
1.40001
1.40001
1.40001
1.40001
1.40001
1.40001
1.40001
1.40001
1.40001
1.40001
1.40001
1.40001
1.40001
1.40001
1.40001
1.40001
1.40001
1.40001
1.40001
1.40001
1.40001
1.40001
1.40001
1.40001
1.40001
1.40001
1.40001
1.40001
1.40001
1.40001
1.40001
1.40001
1.4
1.40001
1.4
1.40001
1.4
1.40001
1.4
1.40001
1.4
1.40001
1.4
1.40001
1.40001
1.4
1.40001
1.4
1.40001
1.4
1.40001
1.4
1.40001
1.40001
1.4
1.40001
1.40001
1.4
1.4
1.4
1.4
1.4
1.4
1.4
1.39999
1.39999
1.39999
1.39998
1.39998
1.39997
1.39997
1.39997
1.39997
1.39997
1.39998
1.39999
1.4
1.40001
1.40002
1.40003
1.40004
1.40004
1.40004
1.40004
1.40004
1.40004
1.40003
1.40003
1.40002
1.40002
1.40002
1.40001
1.40001
1.40001
1.40001
1.40001
1.40001
1.40001
1.40001
1.40001
1.40001
1.40001
1.40001
1.40001
1.40001
1.40001
1.40001
1.40001
1.40001
1.40001
1.40001
1.40001
1.40001
1.40001
1.40001
1.40001
1.40001
1.40001
1.40001
1.40001
1.40001
1.40001
1.40001
1.40001
1.40001
1.40001
1.40001
1.40001
1.40001
1.40001
1.4
1.40001
1.4
1.40001
1.4
1.40001
1.4
1.40001
1.4
1.40001
1.4
1.40001
1.40001
1.4
1.40001
1.4
1.40001
1.4
1.40001
1.4
1.40001
1.4
1.40001
1.40001
1.40001
1.40001
1.40001
1.4
1.4
1.4
1.4
1.4
1.4
1.39999
1.39999
1.39998
1.39998
1.39997
1.39996
1.39996
1.39995
1.39995
1.39995
1.39996
1.39997
1.39998
1.4
1.40001
1.40003
1.40004
1.40005
1.40006
1.40006
1.40006
1.40006
1.40006
1.40005
1.40004
1.40003
1.40003
1.40002
1.40002
1.40001
1.40001
1.40001
1.40001
1.40001
1.40001
1.40001
1.40001
1.40001
1.40001
1.40001
1.40001
1.40001
1.40001
1.40001
1.40001
1.40001
1.40001
1.40001
1.40001
1.40001
1.40001
1.40001
1.40001
1.40001
1.40001
1.40001
1.40001
1.40001
1.40001
1.40001
1.40001
1.40001
1.40001
1.40001
1.40001
1.4
1.40001
1.4
1.40001
1.4
1.40001
1.4
1.40001
1.4
1.40001
1.40001
1.40001
1.40001
1.4
1.40001
1.4
1.40001
1.4
1.40001
1.40001
1.40001
1.4
1.40001
1.4
1.40001
1.40001
1.40001
1.40001
1.40001
1.4
1.4
1.4
1.4
1.4
1.39999
1.39999
1.39998
1.39997
1.39996
1.39995
1.39994
1.39993
1.39993
1.39993
1.39993
1.39994
1.39996
1.39998
1.4
1.40002
1.40004
1.40006
1.40008
1.40009
1.40009
1.40009
1.40009
1.40008
1.40007
1.40006
1.40005
1.40004
1.40003
1.40002
1.40002
1.40001
1.40001
1.40001
1.40001
1.40001
1.40001
1.40001
1.40001
1.4
1.4
1.40001
1.40001
1.40001
1.40001
1.40001
1.40001
1.40001
1.40001
1.40001
1.40001
1.40001
1.40001
1.40001
1.40001
1.40001
1.40001
1.40001
1.40001
1.40001
1.40001
1.40001
1.40001
1.40001
1.40001
1.40001
1.4
1.40001
1.4
1.40001
1.40001
1.40001
1.4
1.40001
1.40001
1.40001
1.40001
1.4
1.40001
1.4
1.40001
1.4
1.40001
1.4
1.40001
1.40001
1.40001
1.4
1.40001
1.4
1.40001
1.40001
1.40001
1.40001
1.40001
1.4
1.4
1.4
1.4
1.4
1.39999
1.39998
1.39997
1.39996
1.39994
1.39993
1.39992
1.39991
1.3999
1.3999
1.39991
1.39993
1.39995
1.39998
1.40001
1.40004
1.40007
1.4001
1.40012
1.40013
1.40014
1.40013
1.40013
1.40011
1.4001
1.40008
1.40007
1.40005
1.40004
1.40003
1.40002
1.40002
1.40001
1.40001
1.40001
1.40001
1.40001
1.40001
1.4
1.4
1.4
1.4
1.4
1.40001
1.40001
1.40001
1.40001
1.40001
1.40001
1.40001
1.40001
1.40001
1.40001
1.40001
1.40001
1.40001
1.40001
1.40001
1.40001
1.40001
1.40001
1.40001
1.40001
1.40001
1.40001
1.40001
1.4
1.40001
1.40001
1.40001
1.40001
1.40001
1.40001
1.40001
1.40001
1.4
1.40001
1.4
1.40001
1.4
1.40001
1.4
1.40001
1.4
1.40001
1.4
1.40001
1.4
1.40001
1.40001
1.40001
1.40001
1.40001
1.40001
1.40001
1.40001
1.4
1.4
1.4
1.39999
1.39998
1.39997
1.39996
1.39994
1.39992
1.3999
1.39988
1.39987
1.39987
1.39987
1.39989
1.39991
1.39995
1.39999
1.40003
1.40007
1.40012
1.40015
1.40018
1.40019
1.4002
1.40019
1.40018
1.40016
1.40014
1.40012
1.4001
1.40007
1.40006
1.40004
1.40003
1.40002
1.40001
1.40001
1.40001
1.40001
1.40001
1.4
1.4
1.4
1.4
1.4
1.4
1.4
1.40001
1.40001
1.40001
1.40001
1.40001
1.40001
1.40001
1.40001
1.40001
1.40001
1.40001
1.40001
1.40001
1.40001
1.40001
1.40001
1.40001
1.40001
1.40001
1.40001
1.40001
1.40001
1.40001
1.40001
1.40001
1.4
1.40001
1.4
1.40001
1.4
1.40001
1.4
1.40001
1.40001
1.40001
1.40001
1.40001
1.40001
1.40001
1.40001
1.40001
1.4
1.40001
1.40001
1.40001
1.40001
1.40001
1.40001
1.40001
1.40001
1.40001
1.40001
1.40001
1.4
1.4
1.39999
1.39998
1.39996
1.39994
1.39992
1.39989
1.39987
1.39985
1.39984
1.39983
1.39985
1.39987
1.39991
1.39996
1.40002
1.40008
1.40014
1.40019
1.40024
1.40027
1.40029
1.40029
1.40028
1.40026
1.40023
1.4002
1.40017
1.40013
1.4001
1.40008
1.40005
1.40004
1.40003
1.40002
1.40001
1.40001
1.40001
1.4
1.4
1.4
1.4
1.4
1.4
1.4
1.4
1.4
1.40001
1.40001
1.40001
1.40001
1.40001
1.40001
1.40001
1.40001
1.40001
1.40001
1.40001
1.40001
1.40001
1.40001
1.40001
1.40001
1.40001
1.40001
1.40001
1.40001
1.40001
1.40001
1.40001
1.40001
1.4
1.40001
1.4
1.40001
1.4
1.40001
1.4
1.40001
1.40001
1.4
1.40001
1.40001
1.4
1.40001
1.4
1.40001
1.4
1.40001
1.40001
1.40001
1.40001
1.40001
1.40001
1.40001
1.40001
1.40001
1.40001
1.40001
1.4
1.4
1.39999
1.39997
1.39995
1.39992
1.39989
1.39986
1.39983
1.39981
1.3998
1.39981
1.39984
1.39988
1.39994
1.40002
1.4001
1.40018
1.40026
1.40033
1.40038
1.40042
1.40043
1.40043
1.40041
1.40037
1.40033
1.40028
1.40023
1.40018
1.40014
1.4001
1.40007
1.40005
1.40003
1.40002
1.40001
1.40001
1.40001
1.4
1.4
1.4
1.4
1.4
1.4
1.4
1.4
1.4
1.4
1.40001
1.40001
1.40001
1.40001
1.40001
1.40001
1.40001
1.40001
1.40001
1.40001
1.40001
1.40001
1.40001
1.40001
1.40001
1.40001
1.40001
1.40001
1.40001
1.40001
1.40001
1.4
1.40001
1.4
1.40001
1.4
1.40001
1.40001
1.40001
1.40001
1.4
1.40001
1.4
1.40001
1.40001
1.4
1.40001
1.4
1.40001
1.40001
1.40001
1.40001
1.40001
1.40001
1.40001
1.40001
1.40001
1.40001
1.40001
1.40001
1.40001
1.4
1.4
1.39998
1.39996
1.39993
1.3999
1.39986
1.39983
1.3998
1.39978
1.39979
1.39981
1.39986
1.39994
1.40004
1.40015
1.40026
1.40038
1.40048
1.40056
1.40062
1.40065
1.40066
1.40063
1.40059
1.40053
1.40047
1.40039
1.40032
1.40025
1.40019
1.40014
1.40009
1.40006
1.40004
1.40002
1.40001
1.40001
1.4
1.4
1.4
1.4
1.4
1.4
1.4
1.4
1.4
1.4
1.4
1.4
1.40001
1.40001
1.40001
1.40001
1.40001
1.40001
1.40001
1.40001
1.40001
1.40001
1.40001
1.40001
1.40001
1.40001
1.40001
1.40001
1.40001
1.40001
1.40001
1.40001
1.4
1.40001
1.4
1.40001
1.40001
1.40001
1.40001
1.40001
1.4
1.40001
1.40001
1.40001
1.4
1.40001
1.4
1.40001
1.40001
1.4
1.40001
1.40001
1.4
1.40001
1.40001
1.40001
1.40001
1.40001
1.40001
1.40001
1.40001
1.40001
1.40001
1.4
1.39998
1.39995
1.39992
1.39988
1.39984
1.3998
1.39978
1.39978
1.39981
1.39987
1.39997
1.4001
1.40025
1.40041
1.40058
1.40073
1.40086
1.40095
1.40101
1.40103
1.40101
1.40095
1.40087
1.40077
1.40066
1.40055
1.40044
1.40034
1.40025
1.40018
1.40012
1.40008
1.40005
1.40003
1.40001
1.40001
1.4
1.4
1.4
1.4
1.4
1.4
1.4
1.4
1.4
1.4
1.4
1.4
1.4
1.40001
1.40001
1.40001
1.40001
1.40001
1.40001
1.40001
1.40001
1.40001
1.40001
1.40001
1.40001
1.40001
1.40001
1.40001
1.40001
1.40001
1.4
1.40001
1.4
1.40001
1.40001
1.40001
1.40001
1.4
1.40001
1.40001
1.4
1.40001
1.4
1.40001
1.4
1.40001
1.4
1.40001
1.4
1.40001
1.40001
1.40001
1.40001
1.40001
1.40001
1.40001
1.40001
1.40001
1.40001
1.40002
1.40002
1.40002
1.40001
1.4
1.39998
1.39995
1.39991
1.39987
1.39983
1.3998
1.3998
1.39983
1.39991
1.40004
1.40021
1.40042
1.40066
1.4009
1.40114
1.40134
1.4015
1.40161
1.40165
1.40163
1.40156
1.40144
1.40129
1.40113
1.40095
1.40077
1.40061
1.40047
1.40034
1.40024
1.40016
1.4001
1.40006
1.40003
1.40001
1.4
1.4
1.4
1.4
1.4
1.4
1.4
1.4
1.4
1.4
1.4
1.4
1.4
1.4
1.40001
1.40001
1.40001
1.40001
1.40001
1.40001
1.40001
1.40001
1.40001
1.40001
1.40001
1.40001
1.40001
1.40001
1.40001
1.40001
1.40001
1.4
1.40001
1.4
1.40001
1.40001
1.4
1.40001
1.40001
1.4
1.40001
1.4
1.40001
1.4
1.40001
1.40001
1.4
1.40001
1.40001
1.4
1.40001
1.40001
1.40001
1.40001
1.40001
1.40001
1.40001
1.40001
1.40002
1.40002
1.40002
1.40003
1.40003
1.40002
1.40001
1.39998
1.39995
1.39991
1.39987
1.39984
1.39984
1.39989
1.39999
1.40015
1.40039
1.40069
1.40103
1.4014
1.40176
1.40209
1.40236
1.40256
1.40266
1.40267
1.40259
1.40243
1.40221
1.40194
1.40166
1.40138
1.40111
1.40086
1.40065
1.40047
1.40032
1.40021
1.40013
1.40007
1.40003
1.40001
1.4
1.39999
1.39999
1.39999
1.4
1.4
1.4
1.4
1.4
1.4
1.4
1.4
1.4
1.4
1.4
1.40001
1.40001
1.40001
1.40001
1.40001
1.40001
1.40001
1.40001
1.40001
1.40001
1.40001
1.40001
1.40001
1.40001
1.40001
1.40001
1.4
1.40001
1.40001
1.40001
1.40001
1.4
1.40001
1.4
1.40001
1.40001
1.4
1.40001
1.4
1.40001
1.40001
1.40001
1.4
1.40001
1.4
1.40001
1.40001
1.40001
1.40001
1.40001
1.40001
1.40001
1.40002
1.40002
1.40003
1.40003
1.40004
1.40004
1.40003
1.40002
1.39999
1.39996
1.39993
1.3999
1.39991
1.39996
1.40009
1.40031
1.40063
1.40104
1.40153
1.40208
1.40263
1.40317
1.40363
1.404
1.40423
1.40432
1.40427
1.40408
1.40377
1.40337
1.40293
1.40247
1.40202
1.4016
1.40122
1.4009
1.40064
1.40044
1.40028
1.40016
1.40009
1.40004
1.40001
1.39999
1.39998
1.39998
1.39999
1.39999
1.39999
1.4
1.4
1.4
1.4
1.4
1.4
1.4
1.4
1.4
1.40001
1.40001
1.40001
1.40001
1.40001
1.40001
1.40001
1.40001
1.40001
1.40001
1.40001
1.40001
1.40001
1.40001
1.40001
1.40001
1.40001
1.40001
1.40001
1.40001
1.40001
1.4
1.40001
1.40001
1.40001
1.4
1.40001
1.4
1.40001
1.4
1.40001
1.4
1.40001
1.40001
1.4
1.40001
1.40001
1.40001
1.40001
1.40001
1.40001
1.40002
1.40002
1.40003
1.40004
1.40005
1.40006
1.40006
1.40006
1.40004
1.40002
1.39999
1.39998
1.39999
1.40006
1.40022
1.40049
1.4009
1.40146
1.40215
1.40293
1.40377
1.4046
1.40537
1.40601
1.4065
1.40678
1.40684
1.40668
1.40632
1.4058
1.40515
1.40443
1.40369
1.40298
1.40233
1.40176
1.40128
1.4009
1.4006
1.40038
1.40022
1.40011
1.40004
1.4
1.39998
1.39997
1.39997
1.39998
1.39998
1.39999
1.39999
1.4
1.4
1.4
1.4
1.4
1.4
1.4
1.4
1.4
1.40001
1.40001
1.40001
1.40001
1.40001
1.40001
1.40001
1.40001
1.40001
1.40001
1.40001
1.40001
1.40001
1.40001
1.40001
1.40001
1.40001
1.40001
1.40001
1.40001
1.4
1.40001
1.40001
1.40001
1.40001
1.40001
1.40001
1.40001
1.40001
1.4
1.40001
1.40001
1.4
1.40001
1.40001
1.40001
1.40001
1.40001
1.40001
1.40001
1.40002
1.40003
1.40004
1.40005
1.40007
1.40008
1.40009
1.40009
1.40008
1.40007
1.40006
1.40008
1.40016
1.40035
1.40068
1.40119
1.40191
1.40283
1.40391
1.40511
1.40636
1.40756
1.40864
1.40953
1.41017
1.4105
1.41052
1.41022
1.40962
1.40878
1.40776
1.40664
1.4055
1.40441
1.40342
1.40256
1.40185
1.40128
1.40084
1.40052
1.40029
1.40014
1.40004
1.39999
1.39996
1.39996
1.39996
1.39997
1.39997
1.39998
1.39999
1.39999
1.4
1.4
1.4
1.4
1.4
1.4
1.4
1.4
1.4
1.40001
1.40001
1.40001
1.40001
1.40001
1.40001
1.40001
1.40001
1.40001
1.40001
1.40001
1.40001
1.40001
1.40001
1.40001
1.40001
1.40001
1.40001
1.4
1.40001
1.40001
1.40001
1.40001
1.4
1.40001
1.4
1.40001
1.40001
1.4
1.4
1.40001
1.4
1.40001
1.40001
1.40001
1.40001
1.40001
1.40001
1.40002
1.40003
1.40004
1.40005
1.40007
1.40009
1.40011
1.40013
1.40014
1.40014
1.40015
1.40018
1.40027
1.40048
1.40085
1.40146
1.40234
1.40351
1.40494
1.40659
1.40835
1.41013
1.41182
1.4133
1.41448
1.4153
1.4157
1.41566
1.41517
1.41427
1.41302
1.41151
1.40984
1.40814
1.40651
1.40503
1.40374
1.40268
1.40184
1.4012
1.40073
1.40041
1.40019
1.40006
1.39998
1.39995
1.39993
1.39994
1.39995
1.39996
1.39997
1.39998
1.39999
1.4
1.4
1.4
1.4
1.4
1.4
1.4
1.4
1.4
1.40001
1.40001
1.40001
1.40001
1.40001
1.40001
1.40001
1.40001
1.40001
1.40001
1.40001
1.40001
1.40001
1.40001
1.40001
1.40001
1.40001
1.40001
1.40001
1.4
1.40001
1.40001
1.4
1.40001
1.40001
1.4
1.40001
1.4
1.40001
1.4
1.40001
1.4
1.40001
1.40001
1.40001
1.40001
1.40001
1.40002
1.40002
1.40003
1.40005
1.40007
1.4001
1.40013
1.40016
1.40018
1.40021
1.40023
1.40028
1.40038
1.40059
1.401
1.40167
1.4027
1.40411
1.40592
1.40806
1.41044
1.41293
1.41537
1.41763
1.41956
1.42108
1.42209
1.42255
1.42245
1.42176
1.42052
1.41879
1.41667
1.41431
1.41187
1.40951
1.40735
1.40547
1.40391
1.40268
1.40174
1.40106
1.40059
1.40027
1.40008
1.39998
1.39992
1.39991
1.39991
1.39993
1.39994
1.39996
1.39997
1.39998
1.39999
1.4
1.4
1.4
1.4
1.4
1.4
1.4
1.4
1.4
1.40001
1.40001
1.40001
1.40001
1.40001
1.40001
1.40001
1.40001
1.40001
1.40001
1.40001
1.40001
1.40001
1.40001
1.40001
1.40001
1.40001
1.40001
1.4
1.40001
1.4
1.40001
1.40001
1.40001
1.4
1.40001
1.4
1.4
1.40001
1.40001
1.40001
1.40001
1.40001
1.40001
1.40001
1.40001
1.40002
1.40003
1.40004
1.40007
1.40009
1.40013
1.40017
1.40021
1.40025
1.4003
1.40036
1.40047
1.40069
1.4011
1.40181
1.40294
1.40456
1.40672
1.40938
1.41243
1.41572
1.41905
1.42223
1.42509
1.42748
1.4293
1.43049
1.43101
1.43084
1.42997
1.42842
1.42621
1.42344
1.42028
1.41695
1.41366
1.4106
1.40791
1.40567
1.40389
1.40253
1.40155
1.40086
1.40041
1.40014
1.39998
1.3999
1.39988
1.39988
1.3999
1.39992
1.39994
1.39996
1.39998
1.39999
1.39999
1.4
1.4
1.4
1.4
1.4
1.4
1.4
1.4
1.40001
1.40001
1.40001
1.40001
1.40001
1.40001
1.40001
1.40001
1.40001
1.40001
1.4
1.40001
1.4
1.40001
1.4
1.40001
1.4
1.40001
1.4
1.40001
1.40001
1.4
1.40001
1.4
1.4
1.40001
1.4
1.4
1.40001
1.4
1.40001
1.40001
1.40001
1.40001
1.40001
1.40002
1.40002
1.40004
1.40006
1.40009
1.40012
1.40017
1.40022
1.40028
1.40035
1.40043
1.40055
1.40076
1.40116
1.40187
1.40304
1.4048
1.40725
1.41039
1.41413
1.41827
1.42257
1.42678
1.43066
1.43402
1.43674
1.43874
1.44001
1.44055
1.44035
1.43939
1.43765
1.43509
1.43177
1.42783
1.42353
1.41916
1.415
1.41128
1.40814
1.40561
1.40368
1.40227
1.40128
1.40063
1.40023
1.4
1.39989
1.39985
1.39985
1.39987
1.3999
1.39993
1.39995
1.39997
1.39998
1.39999
1.4
1.4
1.4
1.4
1.4
1.4
1.4
1.4
1.4
1.40001
1.40001
1.40001
1.40001
1.40001
1.40001
1.40001
1.40001
1.40001
1.4
1.40001
1.4
1.40001
1.4
1.40001
1.4
1.40001
1.4
1.40001
1.4
1.4
1.40001
1.4
1.40001
1.4
1.40001
1.4
1.40001
1.4
1.40001
1.40001
1.40001
1.40001
1.40001
1.40002
1.40003
1.40005
1.40007
1.40011
1.40016
1.40022
1.40029
1.40037
1.40047
1.4006
1.4008
1.40118
1.40185
1.40299
1.4048
1.40743
1.41096
1.41533
1.42032
1.42563
1.43091
1.43585
1.44019
1.44376
1.44651
1.44843
1.44959
1.45005
1.44985
1.44898
1.44733
1.44477
1.44121
1.43673
1.43157
1.42609
1.4207
1.41575
1.41148
1.40799
1.40529
1.4033
1.40191
1.40098
1.4004
1.40006
1.39989
1.39982
1.39981
1.39984
1.39987
1.3999
1.39993
1.39995
1.39997
1.39998
1.39999
1.4
1.4
1.4
1.4
1.4
1.4
1.4
1.4
1.40001
1.40001
1.40001
1.40001
1.40001
1.40001
1.40001
1.40001
1.40001
1.4
1.40001
1.4
1.40001
1.4
1.40001
1.4
1.40001
1.4
1.40001
1.4
1.40001
1.40001
1.40001
1.4
1.40001
1.4
1.40001
1.4
1.40001
1.40001
1.40001
1.40001
1.40001
1.40001
1.40002
1.40004
1.40006
1.40009
1.40014
1.4002
1.40028
1.40037
1.40048
1.40062
1.40082
1.40116
1.40177
1.40283
1.40458
1.40726
1.41102
1.41588
1.42165
1.42794
1.43431
1.44031
1.44557
1.44986
1.4531
1.45534
1.45674
1.45747
1.45772
1.45757
1.45703
1.45591
1.45391
1.45074
1.44628
1.44067
1.43431
1.42772
1.42142
1.41583
1.41116
1.40749
1.40474
1.4028
1.40149
1.40066
1.40017
1.39992
1.39981
1.39978
1.3998
1.39984
1.39988
1.39991
1.39994
1.39996
1.39998
1.39999
1.4
1.4
1.4
1.4
1.4
1.4
1.4
1.4
1.40001
1.40001
1.40001
1.40001
1.40001
1.40001
1.40001
1.40001
1.40001
1.40001
1.40001
1.40001
1.40001
1.40001
1.40001
1.40001
1.40001
1.4
1.40001
1.40001
1.40001
1.4
1.40001
1.4
1.40001
1.40001
1.4
1.4
1.40001
1.40001
1.40001
1.40001
1.40001
1.40002
1.40003
1.40005
1.40007
1.40011
1.40017
1.40025
1.40035
1.40047
1.40061
1.40081
1.40112
1.40165
1.40259
1.40419
1.40676
1.41056
1.41571
1.42209
1.42929
1.43673
1.44376
1.44987
1.45471
1.45814
1.46025
1.46129
1.46159
1.46151
1.46133
1.46127
1.46133
1.46127
1.46059
1.45872
1.45521
1.44995
1.44328
1.43579
1.42824
1.42124
1.41522
1.41037
1.40668
1.40402
1.40221
1.40105
1.40036
1.39998
1.39981
1.39975
1.39976
1.3998
1.39985
1.39989
1.39993
1.39995
1.39997
1.39998
1.39999
1.4
1.4
1.4
1.4
1.4
1.4
1.4
1.4
1.40001
1.40001
1.40001
1.40001
1.40001
1.40001
1.40001
1.40001
1.40001
1.40001
1.40001
1.40001
1.4
1.40001
1.4
1.40001
1.4
1.40001
1.40001
1.40001
1.4
1.40001
1.4
1.40001
1.40001
1.4
1.40001
1.40001
1.40001
1.40001
1.40001
1.40001
1.40002
1.40003
1.40006
1.40009
1.40014
1.40021
1.40031
1.40043
1.40057
1.40077
1.40105
1.40151
1.4023
1.40369
1.40602
1.40964
1.41482
1.42156
1.42951
1.43795
1.44602
1.45296
1.45825
1.46163
1.46317
1.4632
1.46223
1.46084
1.45954
1.45876
1.45879
1.45969
1.46119
1.46265
1.46313
1.46178
1.45806
1.45206
1.44438
1.43592
1.42762
1.42018
1.41399
1.40918
1.40565
1.40321
1.40162
1.40065
1.4001
1.39984
1.39974
1.39973
1.39977
1.39982
1.39987
1.39991
1.39994
1.39996
1.39998
1.39999
1.4
1.4
1.4
1.4
1.4
1.4
1.4
1.4
1.40001
1.40001
1.40001
1.40001
1.40001
1.40001
1.40001
1.4
1.40001
1.4
1.40001
1.4
1.40001
1.4
1.40001
1.4
1.40001
1.40001
1.40001
1.40001
1.4
1.40001
1.4
1.40001
1.4
1.40001
1.40001
1.40001
1.40001
1.40001
1.40001
1.40001
1.40002
1.40004
1.40007
1.40011
1.40017
1.40026
1.40037
1.40051
1.4007
1.40095
1.40135
1.402
1.40316
1.40514
1.4084
1.41331
1.4201
1.42852
1.43783
1.44695
1.45479
1.46055
1.4638
1.46453
1.46308
1.46012
1.45645
1.45289
1.45008
1.44856
1.44867
1.45058
1.45402
1.45825
1.46208
1.46414
1.46337
1.45937
1.45256
1.44393
1.4347
1.42594
1.41836
1.41229
1.40773
1.40452
1.40239
1.40106
1.4003
1.39991
1.39974
1.39971
1.39973
1.39979
1.39984
1.39989
1.39993
1.39996
1.39997
1.39999
1.39999
1.4
1.4
1.4
1.4
1.4
1.4
1.4
1.4
1.40001
1.40001
1.40001
1.40001
1.4
1.40001
1.40001
1.40001
1.40001
1.4
1.40001
1.4
1.40001
1.40001
1.40001
1.40001
1.4
1.40001
1.40001
1.4
1.40001
1.40001
1.4
1.40001
1.40001
1.40001
1.40001
1.40001
1.40001
1.40001
1.40002
1.40003
1.40005
1.40008
1.40013
1.4002
1.4003
1.40043
1.40061
1.40084
1.40118
1.40171
1.40264
1.40425
1.407
1.4114
1.41784
1.42635
1.43629
1.44643
1.45532
1.46175
1.46502
1.46497
1.4619
1.45655
1.44993
1.44314
1.43715
1.43272
1.43041
1.43063
1.4336
1.43915
1.44652
1.45435
1.46085
1.46435
1.46382
1.45923
1.45147
1.442
1.43226
1.42338
1.41598
1.41028
1.40617
1.40339
1.40162
1.40058
1.40003
1.39977
1.3997
1.39971
1.39976
1.39982
1.39987
1.39991
1.39995
1.39997
1.39998
1.39999
1.4
1.4
1.4
1.4
1.4
1.4
1.4
1.4
1.40001
1.40001
1.40001
1.40001
1.4
1.40001
1.40001
1.40001
1.40001
1.40001
1.40001
1.40001
1.40001
1.4
1.40001
1.4
1.40001
1.40001
1.40001
1.4
1.40001
1.40001
1.4
1.4
1.40001
1.40001
1.40001
1.40001
1.40001
1.40001
1.40002
1.40003
1.40005
1.40009
1.40015
1.40023
1.40035
1.4005
1.40071
1.401
1.40144
1.40216
1.40342
1.40563
1.40932
1.41507
1.4232
1.43336
1.44438
1.45446
1.4619
1.46559
1.46512
1.46067
1.45296
1.44315
1.43255
1.42249
1.41407
1.40806
1.40501
1.40537
1.40943
1.41711
1.42772
1.43981
1.45133
1.46006
1.46428
1.4633
1.45768
1.44889
1.43875
1.42883
1.42019
1.41329
1.40818
1.40464
1.40235
1.40097
1.40021
1.39984
1.3997
1.39969
1.39973
1.39979
1.39985
1.3999
1.39994
1.39996
1.39998
1.39999
1.4
1.4
1.4
1.4
1.4
1.4
1.4
1.4
1.4
1.40001
1.40001
1.40001
1.40001
1.40001
1.40001
1.4
1.40001
1.4
1.40001
1.40001
1.4
1.40001
1.4
1.40001
1.4
1.40001
1.40001
1.40001
1.4
1.40001
1.40001
1.4
1.40001
1.40001
1.40001
1.40001
1.40001
1.40001
1.40002
1.40004
1.40006
1.40011
1.40017
1.40026
1.4004
1.40058
1.40082
1.40118
1.40174
1.4027
1.40439
1.40732
1.41212
1.41939
1.42922
1.44074
1.45206
1.46092
1.46561
1.46536
1.46015
1.45059
1.43782
1.42333
1.40871
1.39545
1.38469
1.37719
1.37349
1.37405
1.37922
1.38905
1.40287
1.41924
1.43594
1.45039
1.46022
1.46401
1.46175
1.45473
1.44496
1.43445
1.42474
1.41667
1.41052
1.40615
1.40326
1.40148
1.40047
1.39995
1.39974
1.39969
1.39972
1.39977
1.39984
1.39989
1.39993
1.39996
1.39998
1.39999
1.4
1.4
1.4
1.4
1.4
1.4
1.4
1.4
1.4
1.40001
1.40001
1.40001
1.40001
1.40001
1.40001
1.4
1.40001
1.40001
1.4
1.40001
1.40001
1.4
1.4
1.40001
1.4
1.40001
1.40001
1.4
1.40001
1.4
1.4
1.40001
1.4
1.40001
1.40001
1.40001
1.40001
1.40001
1.40002
1.40004
1.40007
1.40012
1.40019
1.4003
1.40045
1.40065
1.40094
1.40137
1.40209
1.40333
1.40554
1.40933
1.4154
1.42427
1.43566
1.44795
1.45853
1.46492
1.46573
1.46067
1.45017
1.43522
1.41729
1.39813
1.37952
1.36307
1.34996
1.34096
1.3366
1.3374
1.34381
1.35593
1.37309
1.39377
1.41566
1.43593
1.45177
1.46109
1.46319
1.45896
1.45041
1.4399
1.42944
1.42033
1.41313
1.4079
1.40435
1.40211
1.4008
1.40011
1.3998
1.3997
1.39971
1.39976
1.39982
1.39988
1.39992
1.39995
1.39997
1.39999
1.39999
1.4
1.4
1.4
1.4
1.4
1.4
1.4
1.4
1.40001
1.40001
1.40001
1.40001
1.40001
1.40001
1.4
1.40001
1.40001
1.4
1.40001
1.4
1.40001
1.4
1.40001
1.4
1.40001
1.4
1.40001
1.4
1.40001
1.40001
1.4
1.40001
1.40001
1.40001
1.40001
1.40001
1.40002
1.40003
1.40004
1.40008
1.40013
1.40021
1.40032
1.40049
1.40072
1.40105
1.40158
1.40248
1.40407
1.40688
1.41164
1.4191
1.42954
1.44212
1.45437
1.46309
1.46594
1.46208
1.4518
1.43588
1.41556
1.39252
1.36864
1.34587
1.32597
1.31022
1.29945
1.29426
1.29532
1.30322
1.31802
1.33894
1.36425
1.39147
1.4176
1.43956
1.45476
1.46189
1.46128
1.45476
1.44487
1.43407
1.42411
1.41595
1.40983
1.40559
1.40286
1.40122
1.40033
1.3999
1.39974
1.39971
1.39975
1.39981
1.39987
1.39991
1.39995
1.39997
1.39998
1.39999
1.4
1.4
1.4
1.4
1.4
1.4
1.4
1.4
1.40001
1.40001
1.40001
1.40001
1.4
1.40001
1.40001
1.40001
1.40001
1.40001
1.4
1.40001
1.4
1.4
1.40001
1.4
1.4
1.40001
1.4
1.40001
1.4
1.40001
1.4
1.40001
1.40001
1.40001
1.40001
1.40001
1.40002
1.40003
1.40005
1.40008
1.40014
1.40023
1.40035
1.40053
1.40079
1.40117
1.40181
1.40293
1.40491
1.4084
1.41424
1.42311
1.43496
1.44816
1.45944
1.46532
1.46389
1.45505
1.43955
1.41836
1.3928
1.36457
1.33564
1.30812
1.28407
1.26499
1.25186
1.24551
1.24688
1.25669
1.2749
1.30038
1.331
1.364
1.39619
1.42433
1.44556
1.45806
1.46164
1.45779
1.44913
1.43841
1.42788
1.41887
1.41191
1.40696
1.40371
1.40171
1.40059
1.40003
1.39979
1.39973
1.39975
1.39981
1.39986
1.39991
1.39994
1.39997
1.39998
1.39999
1.4
1.4
1.4
1.4
1.4
1.4
1.4
1.4
1.40001
1.40001
1.40001
1.40001
1.4
1.40001
1.4
1.40001
1.40001
1.40001
1.40001
1.40001
1.4
1.40001
1.4
1.40001
1.40001
1.4
1.40001
1.40001
1.4
1.4
1.40001
1.40001
1.40001
1.40001
1.40001
1.40001
1.40002
1.40003
1.40005
1.40009
1.40015
1.40024
1.40037
1.40056
1.40085
1.40128
1.40204
1.40341
1.40584
1.41007
1.41705
1.42729
1.44022
1.45337
1.46283
1.46517
1.45916
1.44539
1.42493
1.39876
1.368
1.33422
1.29943
1.26611
1.23673
1.21323
1.19691
1.18899
1.19084
1.20331
1.22601
1.25718
1.29409
1.33357
1.37223
1.40673
1.43406
1.45209
1.46018
1.45948
1.45253
1.44232
1.43149
1.42179
1.41406
1.40843
1.40464
1.40227
1.40091
1.4002
1.39987
1.39977
1.39977
1.39981
1.39986
1.3999
1.39994
1.39996
1.39998
1.39999
1.4
1.4
1.4
1.4
1.4
1.4
1.4
1.4
1.40001
1.40001
1.40001
1.40001
1.4
1.40001
1.40001
1.4
1.40001
1.4
1.40001
1.4
1.40001
1.4
1.40001
1.4
1.40001
1.4
1.40001
1.40001
1.4
1.40001
1.40001
1.40001
1.40001
1.40001
1.40001
1.40001
1.40002
1.40003
1.40005
1.40009
1.40015
1.40024
1.40038
1.40058
1.4009
1.40139
1.40228
1.40394
1.40684
1.41185
1.41997
1.43146
1.44505
1.45747
1.46446
1.46295
1.4524
1.434
1.40898
1.37807
1.34196
1.30192
1.26008
1.21942
1.18315
1.15386
1.13341
1.12359
1.1263
1.14254
1.17125
1.20958
1.25393
1.30064
1.34622
1.38729
1.42078
1.44439
1.45716
1.45991
1.45504
1.44569
1.43483
1.42462
1.41621
1.40994
1.40563
1.40288
1.40126
1.40039
1.39998
1.39982
1.39979
1.39982
1.39986
1.3999
1.39994
1.39996
1.39998
1.39999
1.4
1.4
1.4
1.4
1.4
1.4
1.4
1.4
1.40001
1.40001
1.40001
1.40001
1.4
1.40001
1.4
1.40001
1.4
1.40001
1.4
1.40001
1.4
1.40001
1.4
1.40001
1.40001
1.4
1.4
1.40001
1.4
1.40001
1.4
1.40001
1.40001
1.40001
1.40001
1.40001
1.40002
1.40003
1.40005
1.40009
1.40015
1.40025
1.40038
1.40058
1.40094
1.4015
1.40252
1.40447
1.4079
1.41368
1.42288
1.43544
1.44924
1.46034
1.46452
1.45918
1.44437
1.42174
1.39257
1.35711
1.31535
1.2681
1.21769
1.16786
1.1229
1.0864
1.06092
1.04889
1.05303
1.07455
1.11125
1.15853
1.21153
1.26616
1.31894
1.36663
1.40626
1.43541
1.4529
1.45925
1.45669
1.44847
1.43783
1.42729
1.41831
1.41145
1.40664
1.40353
1.40165
1.40062
1.4001
1.39988
1.39982
1.39983
1.39987
1.39991
1.39994
1.39996
1.39998
1.39999
1.4
1.4
1.4
1.4
1.4
1.4
1.4
1.4
1.40001
1.40001
1.40001
1.40001
1.4
1.40001
1.4
1.40001
1.4
1.40001
1.4
1.40001
1.40001
1.4
1.40001
1.40001
1.4
1.40001
1.4
1.40001
1.4
1.4
1.40001
1.4
1.40001
1.40001
1.40001
1.40001
1.40002
1.40003
1.40005
1.40009
1.40014
1.40024
1.40038
1.40058
1.40096
1.4016
1.40274
1.405
1.40897
1.41549
1.42566
1.43907
1.45268
1.46207
1.46336
1.45446
1.43579
1.40934
1.37641
1.33656
1.2888
1.23336
1.17279
1.11191
1.05653
1.01155
0.980215
0.96561
0.971722
1.00018
1.04714
1.1054
1.16837
1.23148
1.2915
1.34563
1.39113
1.42562
1.44772
1.45769
1.45759
1.45067
1.44044
1.42972
1.42028
1.41291
1.40765
1.40418
1.40206
1.40086
1.40024
1.39996
1.39987
1.39986
1.39988
1.39991
1.39994
1.39997
1.39998
1.39999
1.4
1.4
1.4
1.4
1.4
1.4
1.4
1.4
1.40001
1.40001
1.4
1.40001
1.4
1.40001
1.4
1.40001
1.4
1.40001
1.4
1.40001
1.40001
1.4
1.40001
1.40001
1.4
1.40001
1.4
1.4
1.40001
1.4
1.40001
1.40001
1.40001
1.40001
1.40001
1.40001
1.40002
1.40003
1.40005
1.40008
1.40014
1.40022
1.40037
1.40056
1.40096
1.40168
1.40294
1.4055
1.41002
1.41721
1.4282
1.44224
1.45539
1.46286
1.46137
1.44934
1.42728
1.39738
1.36101
1.31701
1.2631
1.19873
1.1267
1.05321
0.986067
0.931717
0.893816
0.876173
0.884559
0.921282
0.980489
1.05168
1.1259
1.19798
1.26515
1.3253
1.37619
1.41559
1.44201
1.45547
1.45783
1.45233
1.44264
1.43187
1.42209
1.41428
1.40861
1.40482
1.40247
1.40111
1.4004
1.40006
1.39992
1.39989
1.3999
1.39992
1.39995
1.39997
1.39998
1.39999
1.4
1.4
1.4
1.4
1.4
1.4
1.4
1.4
1.40001
1.40001
1.4
1.40001
1.4
1.40001
1.40001
1.4
1.40001
1.4
1.40001
1.40001
1.40001
1.40001
1.40001
1.40001
1.40001
1.4
1.40001
1.4
1.40001
1.4
1.40001
1.4
1.40001
1.40001
1.40001
1.40001
1.40002
1.40003
1.40004
1.40008
1.40012
1.4002
1.40034
1.40053
1.40094
1.40175
1.40312
1.40593
1.41099
1.41881
1.43039
1.44488
1.45747
1.46297
1.45891
1.44427
1.41933
1.3863
1.34677
1.29899
1.23923
1.16583
1.08174
0.994843
0.915415
0.851443
0.806685
0.78576
0.796319
0.84148
0.913707
0.998986
1.08541
1.16681
1.24092
1.30656
1.36219
1.40591
1.4362
1.45288
1.45758
1.45351
1.44443
1.43372
1.42369
1.41552
1.40951
1.40544
1.40287
1.40137
1.40056
1.40016
1.39998
1.39993
1.39992
1.39994
1.39996
1.39997
1.39999
1.39999
1.4
1.4
1.4
1.4
1.4
1.4
1.4
1.40001
1.40001
1.40001
1.4
1.40001
1.4
1.40001
1.40001
1.4
1.40001
1.4
1.4
1.40001
1.4
1.40001
1.40001
1.4
1.40001
1.4
1.40001
1.4
1.40001
1.4
1.40001
1.40001
1.40001
1.40001
1.40001
1.40001
1.40002
1.40002
1.40004
1.40007
1.40011
1.40017
1.40031
1.40049
1.40089
1.40178
1.40328
1.40626
1.41182
1.42022
1.43218
1.44693
1.45903
1.4627
1.4563
1.43959
1.41235
1.37649
1.33402
1.28298
1.21825
1.1367
1.04118
0.941349
0.850263
0.777341
0.726395
0.702637
0.714714
0.766653
0.850529
0.949521
1.04827
1.13896
1.21962
1.29011
1.34975
1.3971
1.43069
1.45018
1.45701
1.45427
1.44583
1.43524
1.42505
1.4166
1.41031
1.406
1.40325
1.40162
1.40072
1.40026
1.40005
1.39997
1.39995
1.39996
1.39997
1.39998
1.39999
1.4
1.4
1.4
1.4
1.4
1.4
1.4
1.4
1.40001
1.40001
1.40001
1.4
1.40001
1.4
1.40001
1.40001
1.4
1.40001
1.40001
1.4
1.40001
1.40001
1.4
1.40001
1.40001
1.4
1.4
1.40001
1.4
1.4
1.40001
1.4
1.40001
1.4
1.40001
1.40001
1.40001
1.40001
1.40002
1.40003
1.40005
1.40009
1.40013
1.40026
1.40045
1.40082
1.40177
1.4034
1.40651
1.41246
1.4214
1.43357
1.4484
1.46019
1.46234
1.45382
1.43549
1.40665
1.36833
1.32305
1.26932
1.20106
1.11343
1.00866
0.898011
0.797187
0.717008
0.661698
0.636278
0.648808
0.704242
0.796094
0.906348
1.01625
1.11552
1.20201
1.27652
1.33937
1.38959
1.42584
1.44765
1.45627
1.45471
1.44686
1.43643
1.42615
1.4175
1.41098
1.40648
1.40359
1.40186
1.40088
1.40037
1.40012
1.40002
1.39998
1.39997
1.39998
1.39999
1.39999
1.4
1.4
1.4
1.4
1.4
1.4
1.4
1.4
1.40001
1.40001
1.40001
1.4
1.40001
1.4
1.40001
1.40001
1.4
1.40001
1.4
1.40001
1.40001
1.4
1.40001
1.40001
1.4
1.40001
1.4
1.40001
1.4
1.4
1.40001
1.40001
1.40001
1.4
1.40001
1.40001
1.40001
1.40001
1.40002
1.40002