/*--------------------------------*- C++ -*----------------------------------*\
  =========                 |
  \\      /  F ield         | OpenFOAM: The Open Source CFD Toolbox
   \\    /   O peration     | Website:  https://openfoam.org
    \\  /    A nd           | Version:  6
     \\/     M anipulation  |
\*---------------------------------------------------------------------------*/
FoamFile
{
    version     2.0;
    format      ascii;
    class       volScalarField;
    location    "1.02";
    object      p;
}
// * * * * * * * * * * * * * * * * * * * * * * * * * * * * * * * * * * * * * //

dimensions      [0 2 -2 0 0 0 0];

internalField   nonuniform List<scalar> 
4214
(
-0.763865
-0.621062
-0.460797
-0.33928
-0.287628
-0.26406
-0.241316
-0.201537
-0.15393
-0.109316
-0.0682909
-0.0260816
0.0195984
0.0725744
0.125183
0.167658
0.216438
0.198559
0.264508
0.307581
0.360853
0.31474
0.249325
0.204597
0.204724
0.171954
0.126775
0.07545
0.0218343
-0.0218208
-0.0636926
-0.10391
-0.148967
-0.199033
-0.241778
-0.267854
-0.28948
-0.341554
-0.457724
-0.614406
-0.757063
-0.685259
-0.720422
-0.742499
-0.628216
-0.525739
-0.451119
-0.389852
-0.324839
-0.255098
-0.18378
-0.104157
-0.0136252
0.0802822
0.181507
0.282178
0.383389
0.512469
0.576425
0.699182
0.693729
0.702325
0.686098
0.681872
0.556407
0.470986
0.363916
0.265781
0.16525
0.0646173
-0.0278418
-0.11798
-0.194446
-0.264791
-0.332718
-0.395511
-0.454095
-0.523362
-0.622296
-0.729295
-0.710416
-0.674395
-1.2287
-1.1739
-1.16256
-1.03566
-0.891647
-0.775141
-0.667276
-0.551284
-0.429292
-0.296338
-0.148023
0.000489433
0.164727
0.336636
0.506518
0.677405
0.838752
0.983866
1.11662
1.2158
1.24341
1.20731
1.11565
0.959855
0.824637
0.653953
0.486508
0.314447
0.142568
-0.0203628
-0.168323
-0.313355
-0.441348
-0.561133
-0.675822
-0.781125
-0.89286
-1.03119
-1.15572
-1.16541
-1.21576
-1.61746
-1.52954
-1.49816
-1.36201
-1.19463
-1.04107
-0.891664
-0.732895
-0.559961
-0.369326
-0.166749
0.0429866
0.267944
0.503795
0.737002
0.971022
1.17938
1.39729
1.56463
1.71825
1.76322
1.70723
1.54934
1.37038
1.17668
0.941394
0.707355
0.471791
0.235167
0.0104818
-0.197193
-0.395552
-0.580427
-0.74907
-0.903555
-1.04955
-1.19861
-1.36202
-1.49458
-1.51771
-1.59926
-2.03781
-1.93543
-1.8697
-1.7011
-1.50236
-1.31439
-1.12176
-0.911747
-0.682418
-0.435642
-0.175104
0.0986857
0.387675
0.69028
0.991125
1.2907
1.56463
1.85411
2.07454
2.25302
2.32198
2.24418
2.0582
1.81097
1.53932
1.25035
0.948086
0.646822
0.343502
0.0550607
-0.215245
-0.471071
-0.713172
-0.935627
-1.13993
-1.32691
-1.50891
-1.70216
-1.86419
-1.92128
-2.0158
-2.43444
-2.3195
-2.22769
-2.03287
-1.79922
-1.57468
-1.33812
-1.07753
-0.79366
-0.492132
-0.173691
0.16692
0.522043
0.893123
1.26297
1.63113
1.98785
2.34838
2.62334
2.82775
2.91281
2.81539
2.5901
2.27598
1.92203
1.57377
1.20339
0.834922
0.463962
0.110901
-0.2239
-0.53853
-0.834261
-1.1107
-1.36412
-1.5935
-1.81087
-2.03651
-2.223
-2.30355
-2.40947
-2.849
-2.7179
-2.60027
-2.36782
-2.09927
-1.83615
-1.55441
-1.24297
-0.904609
-0.544573
-0.163918
0.243342
0.668277
1.11191
1.55398
1.99858
2.43375
2.84948
3.24397
3.45729
3.54878
3.43133
3.16115
2.77005
2.34183
1.91838
1.47456
1.03515
0.592537
0.17199
-0.228961
-0.605364
-0.958657
-1.28807
-1.59052
-1.86307
-2.11722
-2.37641
-2.59621
-2.70151
-2.82234
-3.2766
-3.12714
-2.98587
-2.71359
-2.40854
-2.10527
-1.77745
-1.41466
-1.0209
-0.597915
-0.14902
0.325464
0.823081
1.34458
1.86515
2.3973
2.90965
3.39301
3.86687
4.12848
4.23396
4.09759
3.7783
3.30578
2.79947
2.28645
1.75811
1.24357
0.724949
0.233063
-0.236291
-0.678617
-1.09288
-1.47539
-1.82675
-2.14301
-2.43473
-2.72772
-2.98435
-3.11157
-3.24884
-3.73137
-3.56051
-3.39318
-3.08255
-2.7382
-2.3924
-2.01732
-1.60241
-1.15194
-0.662352
-0.139777
0.408607
0.982367
1.58828
2.19626
2.82192
3.43051
4.01051
4.52321
4.85246
4.98062
4.82447
4.45355
3.89479
3.29268
2.68164
2.05557
1.45705
0.857502
0.292
-0.254404
-0.768584
-1.245
-1.68245
-2.0835
-2.44437
-2.77564
-3.10526
-3.39947
-3.54762
-3.70201
-4.22481
-4.02781
-3.82965
-3.48417
-3.09968
-2.70935
-2.28537
-1.81654
-1.30632
-0.750656
-0.150387
0.486678
1.14179
1.83859
2.54573
3.27439
3.99753
4.68483
5.28838
5.66263
5.80908
5.62673
5.19512
4.53797
3.82372
3.1053
2.37351
1.67277
0.987662
0.340173
-0.29701
-0.886906
-1.42483
-1.92054
-2.37334
-2.78013
-3.15278
-3.51953
-3.84563
-4.02081
-4.19915
-4.77358
-4.5468
-4.31466
-3.93581
-3.51176
-3.07544
-2.60011
-2.07348
-1.49818
-0.874749
-0.193183
0.545298
1.29362
2.08706
2.9044
3.75451
4.6062
5.43112
6.13738
6.56824
6.73713
6.5178
6.00835
5.23357
4.38457
3.54003
2.69172
1.87802
1.09624
0.338703
-0.382545
-1.04375
-1.65152
-2.20925
-2.71669
-3.17122
-3.58631
-3.98904
-4.34426
-4.54881
-4.75428
-5.39897
-5.1411
-4.8733
-4.46264
-3.9996
-3.5151
-2.98464
-2.39504
-1.74824
-1.04472
-0.283747
0.547273
1.41722
2.32638
3.26497
4.25784
5.25574
6.23509
7.06225
7.56129
7.75675
7.49195
6.89281
5.98092
4.96906
3.97117
2.98462
2.05668
1.16151
0.29055
-0.518405
-1.26264
-1.94713
-2.57242
-3.1387
-3.64378
-4.10268
-4.54018
-4.92184
-5.15496
-5.38564
-6.11402
-5.82898
-5.52512
-5.08318
-4.57965
-4.04292
-3.45246
-2.79491
-2.0704
-1.27969
-0.421043
0.505656
1.50609
2.55786
3.64058
4.81613
5.97384
7.11434
8.05506
8.60458
8.82204
8.5188
7.84456
6.7978
5.60133
4.43015
3.27278
2.20396
1.15824
0.185432
-0.722308
-1.55947
-2.32714
-3.02519
-3.65463
-4.21376
-4.71925
-5.19276
-5.60055
-5.86081
-6.11077
-6.93699
-6.61404
-6.26918
-5.79935
-5.25739
-4.66575
-4.01291
-3.28496
-2.48086
-1.59876
-0.635365
0.408449
1.53184
2.76587
4.03014
5.4315
6.76594
8.09701
9.12958
9.70696
9.94828
9.60774
8.87327
7.70127
6.29334
4.928
3.55786
2.31333
1.10288
0.00275674
-1.01782
-1.95394
-2.80854
-3.58012
-4.27478
-4.88848
-5.44217
-5.95072
-6.38327
-6.66986
-6.94329
-7.94495
-7.54988
-7.15784
-6.66456
-6.10458
-5.45079
-4.745
-3.93146
-3.05574
-2.06379
-0.997213
0.185711
1.45134
2.86965
4.31246
5.98018
7.50499
9.13112
10.337
11.0319
11.3699
10.8844
9.97297
8.61609
6.915
5.34183
3.71265
2.28386
0.904593
-0.328011
-1.48273
-2.51249
-3.47293
-4.30712
-5.08148
-5.7372
-6.34548
-6.87016
-7.32564
-7.63179
-7.94589
-9.36683
-8.85393
-8.42836
-7.85718
-7.32858
-6.5574
-5.84331
-4.87033
-3.9575
-2.77859
-1.63918
-0.263905
1.08677
2.72117
4.24982
6.25061
7.94321
10.0746
11.6573
12.688
13.3006
12.4126
11.0341
9.34787
7.20711
5.46403
3.51377
1.99852
0.399983
-0.913621
-2.2643
-3.35291
-4.49647
-5.35237
-6.27877
-6.92801
-7.64371
-8.13006
-8.65413
-8.95352
-9.36765
-11.2127
-10.5995
-10.1487
-9.4426
-8.92997
-8.03238
-7.29095
-6.16219
-5.16223
-3.81483
-2.53417
-1.00087
0.506468
2.32813
4.01427
6.30814
8.22976
10.8237
12.7427
14.1014
14.9324
13.7082
11.8437
9.83613
7.30228
5.33348
3.08507
1.41749
-0.369992
-1.82926
-3.34456
-4.55219
-5.85987
-6.77807
-7.8553
-8.5114
-9.34796
-9.79665
-10.438
-10.6836
-11.2506
-11.425
-9.83791
-8.54147
-7.54466
-6.72333
-6.02608
-5.40557
-4.84407
-4.33386
-3.87028
-3.43307
-3.02414
-2.60645
-2.23438
-1.79813
-1.50898
-1.23961
-11.9371
-10.3939
-9.10981
-8.11834
-7.27831
-6.58477
-5.96962
-5.40841
-4.89531
-4.42824
-3.98499
-3.57989
-3.15896
-2.81192
-2.35481
-2.14415
-1.63633
-11.9261
-10.6788
-9.59571
-8.6757
-7.85398
-7.16937
-6.57148
-6.0203
-5.50931
-5.04248
-4.59633
-4.19051
-3.76534
-3.42029
-2.95915
-2.75887
-2.17822
-12.254
-11.0886
-10.0509
-9.18501
-8.4045
-7.7297
-7.15298
-6.62159
-6.12232
-5.66415
-5.22343
-4.82458
-4.40225
-4.05746
-3.59941
-3.39989
-2.79819
-12.1888
-11.2367
-10.3954
-9.63645
-8.92309
-8.27068
-7.72002
-7.2169
-6.73877
-6.29601
-5.86706
-5.48128
-5.06768
-4.7303
-4.27845
-4.07994
-3.47928
-12.3344
-11.5127
-10.7312
-10.037
-9.3901
-8.78254
-8.2568
-7.78709
-7.33989
-6.92082
-6.51267
-6.14557
-5.74729
-5.42521
-4.98655
-4.79582
-4.21089
-12.2232
-11.5583
-10.9477
-10.3641
-9.79517
-9.25142
-8.75428
-8.32067
-7.91256
-7.52601
-7.14613
-6.80155
-6.4288
-6.13168
-5.71432
-5.53745
-4.98186
-12.1735
-11.6498
-11.1423
-10.6379
-10.1435
-9.66558
-9.21011
-8.80812
-8.44046
-8.09358
-7.74985
-7.43683
-7.09778
-6.82926
-6.4425
-6.28544
-5.77236
-11.9907
-11.584
-11.201
-10.8184
-10.4186
-10.0142
-9.61894
-9.24481
-8.91168
-8.60884
-8.30758
-8.03385
-7.7301
-7.49498
-7.14394
-7.01036
-6.55406
-11.8026
-11.4924
-11.1932
-10.898
-10.5967
-10.28
-9.95682
-9.63709
-9.32864
-9.06463
-8.80178
-8.57248
-8.30987
-8.11572
-7.80521
-7.70001
-7.30748
-11.582
-11.3568
-11.1108
-10.87
-10.6471
-10.4263
-10.1901
-9.94438
-9.69406
-9.45525
-9.22369
-9.04474
-8.82368
-8.68347
-8.42447
-8.35069
-8.03124
-11.3381
-11.1544
-10.9675
-10.7711
-10.5918
-10.4214
-10.2592
-10.0984
-9.92686
-9.7517
-9.56452
-9.42085
-9.22521
-9.1555
-8.94231
-8.90081
-8.66441
-11.0505
-10.8966
-10.7408
-10.6005
-10.4659
-10.3298
-10.2023
-10.0854
-9.9759
-9.8724
-9.75524
-9.65186
-9.50067
-9.43792
-9.26628
-9.27727
-9.12315
-10.6873
-10.5778
-10.4795
-10.3593
-10.2502
-10.1646
-10.0775
-9.98737
-9.90486
-9.83598
-9.76763
-9.72641
-9.64476
-9.62078
-9.50252
-9.52796
-9.43014
-10.3506
-10.2716
-10.1893
-10.1035
-10.0124
-9.92086
-9.84288
-9.78437
-9.73928
-9.6979
-9.65644
-9.63479
-9.60858
-9.62973
-9.55504
-9.59585
-9.54718
-9.87805
-9.80661
-9.76653
-9.71526
-9.66126
-9.60913
-9.56184
-9.51351
-9.46369
-9.42752
-9.40175
-9.3912
-9.3809
-9.42851
-9.37355
-9.44951
-9.42047
-9.38277
-9.35179
-9.30883
-9.26496
-9.22523
-9.18809
-9.15423
-9.12259
-9.09505
-9.07421
-9.05551
-9.05461
-9.03352
-9.06928
-9.03148
-9.14347
-9.10625
-8.84224
-8.77697
-8.74082
-8.70515
-8.67386
-8.64529
-8.61897
-8.5947
-8.57449
-8.55713
-8.54201
-8.54023
-8.51671
-8.57354
-8.53824
-8.65919
-8.61174
-8.09014
-8.06717
-8.03021
-7.99599
-7.96565
-7.93759
-7.9109
-7.88395
-7.85867
-7.83459
-7.81571
-7.80196
-7.77935
-7.8282
-7.77751
-7.87044
-7.8175
-7.45254
-7.33786
-7.26471
-7.19118
-7.11939
-7.05696
-7.00747
-6.96962
-6.93567
-6.90311
-6.87648
-6.8502
-6.82679
-6.81983
-6.76884
-6.84726
-6.77427
-6.5094
-6.4496
-6.38822
-6.31712
-6.247
-6.17261
-6.09386
-6.01539
-5.93861
-5.86421
-5.80026
-5.74028
-5.6862
-5.64039
-5.56128
-5.58132
-5.43849
-5.9488
-5.73319
-5.5606
-5.41431
-5.2788
-5.15134
-5.03225
-4.92077
-4.81707
-4.7211
-4.6188
-4.5055
-4.4023
-4.30948
-4.16424
-4.15005
-3.92923
-4.83638
-4.75523
-4.61272
-4.44067
-4.26513
-4.09557
-3.93201
-3.77332
-3.61829
-3.46699
-3.31636
-3.16128
-3.01502
-2.88349
-2.69568
-2.64604
-2.35999
-4.25883
-3.91844
-3.66122
-3.43588
-3.21991
-3.00956
-2.80371
-2.60233
-2.40435
-2.20996
-2.01757
-1.82386
-1.64186
-1.46013
-1.23
-1.14422
-0.791097
-3.11874
-2.94122
-2.69306
-2.42764
-2.1676
-1.9152
-1.66902
-1.42813
-1.19148
-0.95973
-0.730997
-0.503184
-0.284661
-0.0650061
0.186037
0.30507
0.712806
-2.49575
-2.0567
-1.72284
-1.41632
-1.12089
-0.832732
-0.551166
-0.275809
-0.00624794
0.257231
0.517087
0.774161
1.02087
1.27231
1.54445
1.71035
2.14055
-1.37791
-1.10482
-0.771069
-0.428494
-0.0973409
0.223473
0.535243
0.83855
1.13394
1.42186
1.70471
1.98397
2.25703
2.5356
2.81874
3.01516
3.4525
-0.730065
-0.223987
0.169107
0.541033
0.899144
1.24553
1.58067
1.90483
2.21944
2.52693
2.83082
3.12965
3.41824
3.70363
3.99035
4.19892
4.62597
0.304248
0.669459
1.07868
1.47716
1.85807
2.2233
2.5744
2.91317
3.24293
3.56334
3.87378
4.17469
4.46138
4.74374
5.02434
5.23135
5.63313
0.99475
1.52947
1.96706
2.37863
2.77115
3.14633
3.50557
3.85118
4.18312
4.50116
4.80702
5.1003
5.37762
5.64997
5.91628
6.11366
6.48183
1.95028
2.36694
2.80955
3.23209
3.63008
4.00673
4.36468
4.70544
5.02944
5.33671
5.62997
5.90855
6.17015
6.42656
6.6714
6.85531
7.18858
2.62477
3.17111
3.62088
4.03876
4.43115
4.7999
5.14725
5.47467
5.78373
6.07489
6.34953
6.60864
6.85118
7.08702
7.30681
7.47776
7.77414
3.5089
3.93923
4.38185
4.79281
5.1728
5.52567
5.85483
6.16248
6.44949
6.72004
6.97356
7.21039
7.43192
7.64487
7.84007
7.99835
8.2553
4.15609
4.67971
5.10839
5.49776
5.85621
6.18632
6.49154
6.77454
7.03754
7.28155
7.51136
7.72434
7.92202
8.11145
8.28328
8.42449
8.64183
4.97177
5.37825
5.78471
6.15021
6.48132
6.78319
7.06043
7.31585
7.55199
7.77095
7.97377
8.16309
8.33682
8.50014
8.64674
8.76951
8.94966
5.58418
6.04832
6.41987
6.74866
7.0459
7.31554
7.56216
7.78854
7.99698
8.18934
8.36686
8.53009
8.68182
8.82238
8.94532
9.04813
9.19143
6.32728
6.66937
7.00255
7.29297
7.55282
7.78783
8.00253
8.1992
8.37978
8.54568
8.69779
8.83603
8.96136
9.07805
9.17995
9.26565
9.37682
6.90955
7.2735
7.55576
7.79973
8.01992
8.21946
8.40158
8.56775
8.71965
8.85832
8.98427
9.09774
9.19991
9.2909
9.36547
9.42806
9.51486
7.60938
7.85071
8.08364
8.28339
8.4645
8.62845
8.77717
8.91165
9.03341
9.14309
9.24088
9.3271
9.40235
9.46596
9.51571
9.56012
9.61893
8.16352
8.39787
8.56509
8.71472
8.85471
8.98136
9.09499
9.19754
9.28994
9.37207
9.44354
9.50406
9.55329
9.59106
9.62074
9.65522
9.70071
8.06555
8.58379
9.16672
9.63733
10.1562
10.5891
11.0698
11.4767
11.9109
12.2787
12.6572
12.978
13.2948
13.5621
13.8124
14.02
14.2001
14.3427
14.4503
14.5236
14.5581
14.5595
14.5217
14.4502
14.3425
14.1985
14.0249
13.8105
13.5764
13.295
13.0062
12.6625
12.3255
11.925
11.5469
11.0975
10.6923
10.2073
9.76783
9.22552
8.74952
8.20489
8.69026
9.15093
9.60488
10.0451
10.4755
10.8911
11.2903
11.6717
12.0325
12.3729
12.6882
12.9797
13.2424
13.4776
13.6812
13.8537
13.9928
14.0979
14.1686
14.2036
14.2037
14.1682
14.0982
13.9939
13.856
13.6865
13.4851
13.2556
12.997
12.7138
12.4051
12.0751
11.724
11.3545
10.9683
10.566
10.1533
9.72931
9.29581
8.83911
8.34048
8.76103
9.16708
9.57613
9.97576
10.3691
10.749
11.1188
11.4721
11.8112
12.1303
12.4305
12.7069
12.9596
13.1849
13.3822
13.549
13.6843
13.7867
13.8555
13.8901
13.8902
13.856
13.7881
13.687
13.5541
13.3903
13.1979
12.9775
12.7327
12.4636
12.1746
11.8651
11.5404
11.1987
10.8459
10.4791
10.1041
9.72069
9.33758
8.93973
8.46628
8.84031
9.20227
9.56515
9.92644
10.2823
10.6311
10.9719
11.302
11.6193
11.9211
12.2055
12.4697
12.7116
12.9288
13.1193
13.281
13.4125
13.5124
13.5797
13.6134
13.6139
13.5808
13.515
13.4173
13.2888
13.1311
12.9461
12.7356
12.5022
12.2477
11.9749
11.6858
11.383
11.0683
10.7447
10.413
10.0759
9.73213
9.39243
9.03877
8.58114
8.91262
9.23272
9.55754
9.88429
10.2106
10.5315
10.8468
11.1549
11.4533
11.739
12.0095
12.2621
12.4945
12.7039
12.8883
13.0453
13.1733
13.2707
13.3365
13.3697
13.3704
13.3384
13.2747
13.18
13.0558
12.9037
12.7257
12.5242
12.3014
12.0599
11.8023
11.5309
11.2485
10.9577
10.6607
10.3581
10.0519
9.74519
9.44506
9.13134
8.68463
8.97584
9.25973
9.55282
9.84869
10.1475
10.4465
10.7403
11.0285
11.3096
11.5807
11.8387
12.0808
12.3044
12.5068
12.6855
12.8383
12.963
13.0582
13.1227
13.1553
13.1564
13.1253
13.0636
12.9718
12.8514
12.7045
12.5331
12.3396
12.1267
11.897
11.6531
11.3978
11.1341
10.8641
10.5887
10.3102
10.0337
9.75833
9.49067
9.21579
8.7768
9.03381
9.28703
9.55203
9.82113
10.0953
10.3713
10.6482
10.9198
11.1852
11.4429
11.6897
11.9224
12.1382
12.3342
12.5079
12.6568
12.7787
12.8719
12.9352
12.9674
12.9687
12.9386
12.8787
12.7894
12.6727
12.5304
12.3649
12.1787
11.9747
11.7554
11.524
11.2834
11.0361
10.7829
10.5273
10.2727
10.0216
9.77361
9.5354
9.29199
8.86035
9.08829
9.31424
9.55387
9.79922
10.0516
10.308
10.5664
10.8249
11.0774
11.3229
11.5596
11.7841
11.9931
12.1836
12.3528
12.4983
12.6177
12.7092
12.7715
12.8032
12.8048
12.7757
12.7173
12.6304
12.5168
12.3787
12.2184
12.0387
11.8424
11.6324
11.4123
11.1845
10.9503
10.713
10.4766
10.2427
10.0142
9.7907
9.5789
9.36375
8.93671
9.13854
9.34013
9.55694
9.78122
10.0141
10.2529
10.4956
10.7397
10.9828
11.2187
11.4465
11.6637
11.8668
12.0525
12.2179
12.3605
12.4777
12.5678
12.6293
12.6608
12.6626
12.6343
12.5772
12.4923
12.3815
12.247
12.0913
11.9172
11.7276
11.5261
11.3156
11.0976
10.8754
10.6533
10.4336
10.2183
10.0101
9.80839
9.62015
9.43033
9.00471
9.18339
9.3633
9.56001
9.76622
9.98237
10.2059
10.4349
10.6668
10.8988
11.1281
11.3485
11.559
11.7568
11.9385
12.1009
12.2412
12.3569
12.4459
12.5068
12.5382
12.5402
12.5125
12.4565
12.3732
12.2645
12.1329
11.9811
11.8118
11.6286
11.4345
11.2316
11.0222
10.8119
10.6029
10.3978
10.1986
10.008
9.82532
9.65788
9.4905
9.06361
9.2218
9.3824
9.56172
9.75247
9.95424
10.1647
10.3817
10.603
10.8259
11.0472
11.2625
11.4675
11.6609
11.8395
11.9999
12.1389
12.2537
12.3421
12.4027
12.434
12.4362
12.409
12.3536
12.2713
12.1641
12.0345
11.8854
11.7202
11.5425
11.3543
11.1573
10.9572
10.7569
10.5593
10.3669
10.1817
10.0062
9.83994
9.69088
9.54332
9.11256
9.2527
9.39617
9.55965
9.73555
9.92377
10.1223
10.3291
10.5417
10.7572
10.9722
11.1842
11.3869
11.5782
11.7551
11.9143
12.0525
12.1668
12.2551
12.3156
12.3471
12.3494
12.3224
12.2674
12.1857
12.0794
11.9511
11.8038
11.6409
11.4659
11.2802
11.089
10.8959
10.704
10.5162
10.3352
10.1629
10.0013
9.85061
9.71791
9.58777
9.15013
9.27455
9.40427
9.55348
9.71679
9.89339
10.0818
10.2801
10.4855
10.6953
10.9057
11.1142
11.3172
11.5097
11.6858
11.8438
11.9812
12.0953
12.1837
12.2443
12.2759
12.2783
12.2515
12.1967
12.1153
12.0098
11.8827
11.7368
11.5747
11.3987
11.215
11.0283
10.8406
10.6554
10.4758
10.3045
10.1434
9.99379
9.85686
9.73727
9.62234
9.17564
9.28587
9.40761
9.54769
9.70294
9.87178
10.0529
10.2436
10.4426
10.6477
10.8548
11.0611
11.2617
11.4527
11.6283
11.7859
11.9231
12.0375
12.1263
12.1873
12.2192
12.2217
12.1949
12.1399
12.0584
11.953
11.8266
11.6814
11.52
11.3467
11.1654
10.9818
10.7985
10.6192
10.447
10.2827
10.1291
9.98739
9.85933
9.74747
9.6463
9.19434
9.28833
9.40141
9.53104
9.67735
9.83893
10.0144
10.1996
10.3948
10.5966
10.8018
11.006
11.2061
11.3957
11.5736
11.7347
11.8751
11.9917
12.082
12.1441
12.1766
12.179
12.1517
12.0956
12.0126
11.905
11.7756
11.6281
11.4667
11.294
11.1151
10.9334
10.7533
10.578
10.4112
10.2518
10.1049
9.97174
9.85365
9.75032
9.66471
9.22097
9.28973
9.38072
9.49211
9.62455
9.77611
9.94463
10.1294
10.3252
10.5255
10.7316
10.9358
11.1402
11.335
11.5199
11.6888
11.8365
11.958
12.0517
12.1161
12.1497
12.1519
12.123
12.0644
11.9777
11.8644
11.728
11.5736
11.4067
11.2295
11.0503
10.8677
10.6893
10.5143
10.3471
10.1944
10.0568
9.93664
9.83584
9.75339
9.69185
9.26412
9.29845
9.37236
9.47377
9.59903
9.745
9.90858
10.0882
10.2797
10.4824
10.6894
10.8996
11.1048
11.305
11.4927
11.6636
11.8137
11.9396
12.0375
12.1045
12.1392
12.1412
12.1106
12.0487
11.9577
11.8411
11.7025
11.5456
11.3745
11.1965
11.0119
10.8285
10.6473
10.4751
10.3133
10.1658
10.0337
9.92033
9.82892
9.76315
9.73601
-1.24614
-1.51937
-1.81169
-2.25245
-2.62806
-3.04767
-3.45891
-3.89905
-4.36495
-4.87187
-5.42674
-6.04182
-6.72897
-7.53333
-8.50962
-9.67229
-11.1097
-1.64748
-2.16204
-2.37646
-2.8382
-3.19083
-3.61595
-4.0252
-4.47214
-4.94105
-5.45287
-6.0131
-6.63109
-7.31938
-8.12003
-9.06963
-10.2257
-11.5229
-2.19605
-2.78548
-2.99016
-3.4567
-3.80831
-4.23915
-4.65024
-5.10115
-5.57128
-6.08436
-6.64051
-7.24643
-7.92542
-8.73209
-9.67352
-10.9453
-12.4486
-2.82579
-3.43795
-3.64261
-4.10756
-4.46025
-4.88976
-5.29506
-5.74178
-6.20487
-6.70926
-7.24922
-7.83243
-8.49321
-9.27152
-10.124
-11.0973
-12.2891
-3.51953
-4.13293
-4.3377
-4.79778
-5.14405
-5.5667
-5.96068
-6.39743
-6.84769
-7.33538
-7.85112
-8.40809
-9.04509
-9.76729
-10.5459
-11.3923
-12.2334
-4.26714
-4.86691
-5.06544
-5.51507
-5.84722
-6.25597
-6.63343
-7.05219
-7.4828
-7.94444
-8.42841
-8.95717
-9.57634
-10.2422
-10.962
-11.8449
-12.8042
-5.05983
-5.63258
-5.81811
-6.24804
-6.55834
-6.94353
-7.30076
-7.69371
-8.09609
-8.52193
-8.9687
-9.46716
-10.0306
-10.621
-11.2304
-11.8859
-12.6401
-5.87923
-6.41145
-6.57936
-6.98048
-7.26342
-7.61712
-7.94652
-8.30636
-8.67065
-9.05421
-9.46233
-9.929
-10.4225
-10.9321
-11.4572
-11.9749
-12.4879
-6.69885
-7.1768
-7.32349
-7.69127
-7.94248
-8.26046
-8.54977
-8.87074
-9.19015
-9.53247
-9.90862
-10.3227
-10.7495
-11.1821
-11.626
-12.089
-12.5436
-7.49677
-7.91253
-8.03273
-8.35906
-8.5693
-8.85036
-9.09429
-9.37028
-9.64537
-9.95464
-10.2932
-10.6439
-10.9974
-11.3469
-11.6889
-12.0383
-12.3855
-8.27009
-8.61359
-8.70045
-8.9751
-9.13125
-9.36883
-9.56323
-9.80202
-10.0443
-10.3215
-10.6016
-10.8821
-11.1548
-11.4159
-11.6772
-11.9415
-12.1885
-8.95789
-9.22046
-9.27439
-9.50566
-9.5952
-9.79954
-9.94844
-10.1619
-10.3688
-10.5819
-10.7882
-10.985
-11.1769
-11.376
-11.5889
-11.8069
-12.0219
-9.48924
-9.67156
-9.6668
-9.86285
-9.93175
-10.1067
-10.238
-10.3905
-10.5265
-10.6616
-10.7968
-10.9422
-11.0936
-11.2504
-11.4184
-11.5972
-11.767
-9.8741
-9.99993
-9.97577
-10.1202
-10.1672
-10.2779
-10.3426
-10.428
-10.5111
-10.607
-10.703
-10.8004
-10.9139
-11.0441
-11.1831
-11.3228
-11.4506
-10.09
-10.1587
-10.1299
-10.2188
-10.205
-10.2392
-10.2721
-10.3266
-10.3816
-10.4365
-10.5043
-10.5929
-10.6904
-10.7881
-10.8904
-10.9908
-11.1126
-10.0404
-10.076
-10.014
-10.0715
-10.0336
-10.0504
-10.0678
-10.1006
-10.145
-10.2058
-10.2706
-10.3329
-10.3954
-10.4609
-10.5309
-10.6059
-10.6812
-9.7805
-9.81923
-9.71923
-9.76136
-9.7309
-9.75606
-9.7636
-9.78938
-9.8181
-9.85469
-9.89675
-9.94296
-9.99353
-10.048
-10.1069
-10.1634
-10.2069
-9.33605
-9.3846
-9.26904
-9.30562
-9.25683
-9.28389
-9.28974
-9.30953
-9.33219
-9.35849
-9.38987
-9.42432
-9.46196
-9.50383
-9.55295
-9.6078
-9.69331
-8.59147
-8.64502
-8.55353
-8.60538
-8.56066
-8.58475
-8.60034
-8.62162
-8.64831
-8.67605
-8.70538
-8.73378
-8.76184
-8.79033
-8.82191
-8.86097
-8.91192
-7.58273
-7.65658
-7.57934
-7.63151
-7.63912
-7.66381
-7.69154
-7.71985
-7.75461
-7.79223
-7.83559
-7.89028
-7.95587
-8.02655
-8.09214
-8.14226
-8.16073
-6.27575
-6.41898
-6.3995
-6.4788
-6.52457
-6.5785
-6.63785
-6.69901
-6.7723
-6.85118
-6.93225
-7.01538
-7.0981
-7.18927
-7.29883
-7.4223
-7.57967
-4.79119
-5.01175
-5.02508
-5.17053
-5.26498
-5.36834
-5.48286
-5.59015
-5.68872
-5.7889
-5.89524
-6.00796
-6.12504
-6.24254
-6.35604
-6.48782
-6.65061
-3.23299
-3.52033
-3.57023
-3.75799
-3.89025
-4.0386
-4.19571
-4.34885
-4.50259
-4.66041
-4.82237
-4.99042
-5.16385
-5.34134
-5.50903
-5.64119
-5.68556
-1.65749
-2.01429
-2.10128
-2.33447
-2.51922
-2.70447
-2.90169
-3.09771
-3.29575
-3.49717
-3.70163
-3.91078
-4.12721
-4.35877
-4.60748
-4.87626
-5.20065
-0.134038
-0.549581
-0.671339
-0.927832
-1.15233
-1.37579
-1.60908
-1.84355
-2.08152
-2.32496
-2.57273
-2.82472
-3.08029
-3.33591
-3.59095
-3.87879
-4.2684
1.32451
0.883513
0.712439
0.431756
0.173144
-0.0804564
-0.344697
-0.611952
-0.883013
-1.16077
-1.44555
-1.73858
-2.04142
-2.3514
-2.67058
-2.96608
-3.13508
2.67296
2.2223
2.01954
1.72706
1.43927
1.15627
0.867037
0.574477
0.277123
-0.0275782
-0.340476
-0.6623
-0.994385
-1.34078
-1.71894
-2.10691
-2.56862
3.885
3.44285
3.22679
2.9296
2.63418
2.33527
2.02535
1.70959
1.38916
1.06215
0.725946
0.378848
0.0204075
-0.347465
-0.72347
-1.11148
-1.67721
4.93107
4.51301
4.29739
4.00519
3.71152
3.41314
3.10012
2.77723
2.44391
2.09952
1.74587
1.38041
0.998843
0.601393
0.18803
-0.229231
-0.550849
5.81691
5.43206
5.22542
4.9469
4.66233
4.3723
4.06573
3.74613
3.41376
3.06728
2.70539
2.33015
1.93857
1.52938
1.08864
0.615933
0.109026
6.55859
6.20876
6.01511
5.75764
5.48839
5.2135
4.92091
4.6129
4.29061
3.9511
3.59309
3.21683
2.82159
2.40735
1.97359
1.52999
0.921102
7.17614
6.86346
6.68269
6.45059
6.20163
5.94563
5.67206
5.38217
5.07514
4.74845
4.40386
4.0376
3.64811
3.23243
2.78868
2.32562
1.92475
7.6857
7.41361
7.24566
7.03868
6.81289
6.57785
6.32642
6.05756
5.77016
5.46573
5.13956
4.7909
4.41731
4.01636
3.57815
3.08608
2.5526
8.09704
7.86625
7.71561
7.53279
7.33104
7.12014
6.89313
6.64796
6.38714
6.10658
5.80446
5.47887
5.12684
4.74607
4.33428
3.8981
3.30154
8.42634
8.23448
8.10275
7.94602
7.77135
7.58546
7.3828
7.16468
6.92972
6.67593
6.40123
6.10325
5.7787
5.42279
5.03033
4.60228
4.21351
8.68516
8.53235
8.42161
8.28989
8.13926
7.97627
7.80003
7.60888
7.40109
7.17549
6.93004
6.66248
6.36985
6.04879
5.68973
5.26874
4.799
8.88347
8.76576
8.67341
8.56387
8.43812
8.30276
8.15349
7.98872
7.80845
7.61158
7.39646
7.1609
6.90231
6.61775
6.30314
5.96582
5.45874
9.03118
8.94005
8.87247
8.79208
8.6941
8.58352
8.46044
8.32333
8.17169
8.00476
7.82122
7.61903
7.39638
7.14843
6.87192
6.56749
6.29159
9.14148
9.08019
9.03329
8.98006
8.91167
8.83021
8.73634
8.62927
8.50846
8.37339
8.22299
8.05546
7.8697
7.66195
7.43021
7.14132
6.84946
9.22656
9.1815
9.14621
9.11506
9.07467
9.02135
8.95515
8.87632
8.78497
8.68118
8.56459
8.43352
8.28646
8.12196
7.94154
7.73092
7.41949
-12.0285
-11.0305
-9.6585
-7.77738
-5.31897
-2.20871
1.72071
6.5165
11.4535
14.2402
13.9473
10.3061
5.18986
0.510029
-3.24832
-6.20912
-8.50526
-10.2145
-11.4051
-12.209
-13.1968
-12.365
-11.0834
-9.23035
-6.71746
-3.40968
0.893573
6.17786
11.6135
14.9327
14.4093
10.1465
4.49607
-0.655866
-4.72213
-7.81814
-10.1172
-11.7484
-12.8078
-13.4553
-14.5516
-13.9192
-12.8006
-11.0412
-8.55094
-5.14493
-0.543963
5.21385
11.1534
14.7709
14.0315
9.25861
3.04034
-2.54255
-6.80338
-9.90779
-12.1124
-13.5856
-14.4404
-14.8755
-16.1478
-15.7644
-14.8971
-13.3273
-10.9881
-7.63617
-2.86673
3.19229
9.52851
13.3903
12.4089
7.09339
0.402996
-5.42347
-9.71915
-12.6444
-14.6078
-15.8169
-16.3795
-16.5415
-18.027
-17.9511
-17.4312
-16.1944
-14.2221
-11.1222
-6.38914
-0.351045
6.22356
10.2082
8.98226
3.1483
-3.90486
-9.61614
-13.7151
-16.224
-17.7148
-18.5136
-18.6734
-18.4828
-20.2224
-20.5887
-20.5047
-19.7826
-18.4625
-15.858
-11.6346
-5.95312
0.722704
4.76371
3.25215
-3.0338
-10.4405
-15.7698
-19.151
-20.9458
-21.6128
-21.7831
-21.3886
-20.7334
-22.747
-23.6824
-24.2878
-24.2979
-23.9791
-22.2973
-19.1877
-14.0366
-7.38331
-3.18418
-5.03769
-11.8637
-19.5434
-24.4769
-26.6022
-27.1455
-26.5384
-25.6917
-24.5639
-23.3346
-25.6689
-27.3114
-28.8098
-30.0629
-31.1611
-31.0002
-29.2021
-24.5662
-18.0781
-13.6391
-15.7985
-23.2096
-30.9329
-35.4576
-36.3151
-34.9069
-32.6579
-30.4064
-28.2641
-26.3256
-29.025
-31.5718
-34.3202
-37.0987
-39.8991
-41.6583
-41.0058
-37.0198
-30.7882
-26.0921
-28.3364
-36.0092
-43.5703
-47.5664
-47.325
-43.9667
-39.988
-36.1627
-32.5967
-29.7307
-32.8196
-36.498
-40.7728
-44.9879
-49.8081
-53.1224
-53.1563
-49.7861
-44.0087
-39.2713
-41.2397
-48.5759
-55.5737
-59.2149
-58.5449
-54.1201
-48.0601
-42.8061
-37.559
-33.5217
-37.0062
-41.8512
-47.4455
-53.5087
-59.7423
-63.6767
-63.915
-60.9814
-55.915
-51.5716
-53.0188
-59.466
-65.5032
-68.7312
-68.102
-63.6198
-56.4954
-49.2206
-42.7918
-37.6028
-41.5446
-47.4588
-54.2129
-61.82
-68.0191
-71.5777
-71.8497
-69.4341
-65.112
-61.2034
-61.9836
-67.5262
-72.5278
-75.1477
-74.6099
-70.8353
-64.1602
-55.5588
-48.079
-41.8657
-46.4119
-53.2271
-61.0481
-68.23
-73.4006
-76.2471
-76.5807
-74.6874
-71.0543
-67.4221
-67.6781
-72.3408
-76.4549
-78.457
-77.9255
-74.858
-69.4664
-61.9444
-53.5573
-46.3488
-51.5611
-58.6384
-65.9248
-71.7788
-75.7651
-78.0377
-78.4089
-76.9065
-73.8974
-70.8156
-70.8003
-74.1066
-77.4104
-79.0102
-78.4732
-75.8451
-71.6233
-66.0158
-58.6832
-51.135
-56.6236
-62.2755
-67.0264
-71.6225
-75.3098
-77.4329
-77.7835
-76.3978
-73.7727
-71.2469
-70.9709
-72.941
-75.5803
-77.0365
-76.5765
-74.2677
-70.3961
-65.6895
-61.1443
-55.5333
-59.2915
-61.7815
-65.1546
-69.4534
-72.8228
-74.5729
-74.8358
-73.2026
-70.4541
-67.9119
-67.3495
-68.7176
-71.0332
-72.6206
-72.2728
-70.4676
-67.0383
-62.7436
-59.3972
-56.3564
-57.0087
-58.3889
-61.3993
-65.389
-68.2226
-69.454
-69.3729
-67.2219
-64.1351
-61.3609
-60.5626
-61.7509
-63.9619
-65.8434
-65.8341
-64.6294
-61.9384
-58.0393
-54.9034
-53.2032
-51.2626
-53.6382
-57.0322
-60.1867
-61.9762
-62.6616
-61.5651
-58.931
-55.7157
-53.0663
-52.1946
-53.1627
-55.2364
-57.343
-58.2524
-57.6454
-55.9924
-53.0559
-49.7413
-47.1242
-46.9062
-49.9685
-53.0378
-54.8718
-55.6361
-55.1963
-52.9279
-49.9125
-46.7338
-44.3476
-43.559
-44.4477
-46.4899
-48.8336
-50.7679
-51.2613
-50.6716
-49.0703
-46.2403
-42.946
-45.5199
-46.7215
-47.5365
-47.8879
-47.4366
-45.6988
-43.2875
-40.5718
-37.9443
-36.0925
-35.4841
-36.1504
-37.8737
-39.9777
-41.966
-43.5578
-44.1784
-43.9519
-43.2757
-42.1897
-41.3922
-38.4155
-41.6176
-46.8576
-47.9342
-47.0503
-44.7331
-41.5579
-38.071
-34.599
-31.2478
-28.0923
-25.209
-22.6385
-20.3759
-18.3956
-16.6726
-15.1756
-13.8889
-12.7522
-40.9466
-37.3832
-39.2707
-43.2767
-44.1244
-42.5925
-40.614
-37.9693
-34.9673
-31.988
-29.1392
-26.4565
-23.9872
-21.7615
-19.7818
-18.0336
-16.5008
-15.1553
-13.9985
-12.9544
-41.3101
-38.0014
-38.0254
-40.346
-40.8171
-38.548
-36.81
-34.6528
-32.1422
-29.6027
-27.1579
-24.8513
-22.7194
-20.784
-19.0492
-17.5058
-16.1428
-14.9376
-13.898
-12.9518
-42.0479
-39.1069
-37.6016
-38.4848
-37.9585
-35.8637
-33.9027
-31.8204
-29.5994
-27.3746
-25.2366
-23.2299
-21.3783
-19.6926
-18.1751
-16.8147
-15.6056
-14.5329
-13.6084
-12.7593
-42.6467
-40.3222
-37.4925
-37.1526
-35.0905
-33.3342
-31.3539
-29.2905
-27.2424
-25.251
-23.3582
-21.5944
-19.9731
-18.4978
-17.1661
-15.969
-14.9041
-13.9591
-13.1418
-12.3835
-43.1417
-41.4111
-37.8858
-36.3091
-33.0606
-31.0705
-29.0302
-26.9844
-25.0298
-23.196
-21.4906
-19.9218
-18.492
-17.1975
-16.029
-14.9876
-14.059
-13.2247
-12.4912
-11.826
-43.5702
-42.238
-38.4122
-35.3859
-31.5264
-29.0435
-26.8314
-24.7915
-22.8936
-21.1696
-19.606
-18.193
-16.9216
-15.7831
-14.7685
-13.8686
-13.067
-12.3708
-11.7735
-11.2036
-44.0259
-42.8526
-38.3443
-33.8493
-30.0452
-27.1437
-24.6996
-22.6406
-20.7809
-19.1389
-17.6835
-16.3939
-15.251
-14.2412
-13.3515
-12.5677
-11.8845
-11.3006
-10.778
-10.3263
-44.5946
-43.3012
-37.9533
-32.0093
-28.2953
-25.1892
-22.5658
-20.4802
-18.6513
-17.0786
-15.7108
-14.5218
-13.484
-12.5801
-11.7922
-11.1067
-10.5246
-10.0217
-9.57993
-9.21476
-45.2151
-43.2937
-37.2037
-30.0957
-26.2941
-23.1063
-20.3765
-18.274
-16.478
-14.9724
-13.6831
-12.581
-11.6319
-10.8142
-10.1069
-9.50131
-8.99388
-8.54853
-8.17174
-7.89793
-45.7406
-42.7449
-36.2295
-28.1737
-24.0968
-20.8571
-18.0836
-15.9902
-14.2407
-12.8094
-11.6006
-10.582
-9.7145
-8.97189
-8.33302
-7.79152
-7.33109
-6.90022
-6.53136
-6.40497
-45.9916
-41.3283
-34.9052
-26.1871
-21.6834
-18.401
-15.6461
-13.6031
-11.9248
-10.5828
-9.46508
-8.5354
-7.751
-7.08282
-6.51243
-6.03472
-5.61839
-5.2153
-4.93782
-4.88413
-46.0102
-38.8009
-32.4002
-23.8019
-18.9981
-15.719
-13.0417
-11.0972
-9.52182
-8.28905
-7.27804
-6.44749
-5.75275
-5.16408
-4.66665
-4.25104
-3.87115
-3.50129
-3.30507
-3.29163
-45.8353
-35.386
-28.868
-20.8812
-16.0319
-12.8284
-10.271
-8.46879
-7.02995
-5.92782
-5.04078
-4.32173
-3.7257
-3.22428
-2.80459
-2.4497
-2.1098