/*--------------------------------*- C++ -*----------------------------------*\
  =========                 |
  \\      /  F ield         | OpenFOAM: The Open Source CFD Toolbox
   \\    /   O peration     | Website:  https://openfoam.org
    \\  /    A nd           | Version:  6
     \\/     M anipulation  |
\*---------------------------------------------------------------------------*/
FoamFile
{
    version     2.0;
    format      ascii;
    class       volScalarField;
    location    "2.24";
    object      epsilon;
}
// * * * * * * * * * * * * * * * * * * * * * * * * * * * * * * * * * * * * * //

dimensions      [0 2 -3 0 0 0 0];

internalField   nonuniform List<scalar> 
4214
(
0.177392
0.0704359
0.0295025
0.0152729
0.0108021
0.00957461
0.00940274
0.00967192
0.0102984
0.0114348
0.0134605
0.0171006
0.0237068
0.0357575
0.0579784
0.100593
0.190303
0.40211
0.852853
1.398
1.59437
1.89271
2.30129
2.64273
2.83345
2.72977
2.22981
1.55336
0.944403
0.489729
0.217561
0.0874818
0.0358716
0.0178561
0.0125005
0.0111467
0.0120212
0.0172212
0.0345258
0.0839949
0.213798
0.0925332
0.0381379
0.0187959
0.0122994
0.0102751
0.00975354
0.00978273
0.0101166
0.0107758
0.0119503
0.0140515
0.017835
0.0246769
0.0369783
0.0590216
0.0989527
0.176136
0.348043
0.749436
1.35921
1.6755
1.95278
2.49432
3.04094
3.35073
3.19384
2.56709
1.76115
1.05183
0.535475
0.232738
0.0915353
0.0370127
0.0183811
0.0127031
0.0111122
0.0110854
0.0128736
0.0190668
0.0364202
0.0799909
0.0365515
0.0204579
0.0137089
0.0111262
0.0102559
0.0100707
0.0102082
0.0105922
0.0113015
0.0125646
0.0148508
0.0189931
0.0264876
0.0398008
0.0630523
0.103157
0.174434
0.317206
0.64454
1.24067
1.66236
1.83651
2.42322
3.29638
3.91047
3.79341
2.99095
2.00379
1.17062
0.584313
0.248359
0.0953468
0.0379064
0.0187396
0.0128973
0.0112076
0.0108668
0.0114596
0.0136997
0.0195092
0.0324385
0.023082
0.0156055
0.0122958
0.0109694
0.0105302
0.0104961
0.0106993
0.0111337
0.0119208
0.0133373
0.0159453
0.0207046
0.0293398
0.0445344
0.0705547
0.113674
0.18485
0.3119
0.581018
1.13359
1.69211
1.83991
2.39877
3.4821
4.45926
4.48306
3.49168
2.28663
1.309
0.641826
0.267327
0.100069
0.0389657
0.0190677
0.0130984
0.0113531
0.0108998
0.0110943
0.012129
0.014805
0.0205791
0.0177113
0.0137091
0.0118885
0.0111437
0.0109229
0.0109782
0.0112349
0.0117305
0.0126339
0.0142864
0.0173889
0.0230799
0.0334441
0.0515203
0.0820124
0.130959
0.207005
0.328757
0.556261
1.03591
1.6715
1.8886
2.33509
3.53419
4.94022
5.2553
4.08758
2.61339
1.46771
0.708512
0.290531
0.1062
0.0403886
0.0194335
0.0133011
0.011511
0.0110121
0.0110406
0.0115793
0.0129989
0.0160221
0.0153142
0.0130025
0.0119282
0.01149
0.0113954
0.0115135
0.0118241
0.0124014
0.0134776
0.0154797
0.0193117
0.0263433
0.039194
0.0613866
0.0983874
0.156261
0.242008
0.367113
0.570404
0.974816
1.62125
1.95495
2.29073
3.48594
5.31645
6.07921
4.79324
2.99265
1.65228
0.7877
0.320222
0.114765
0.042556
0.0199776
0.0135267
0.0116791
0.0111588
0.011111
0.0114206
0.0122637
0.0140373
0.0142595
0.0128574
0.0121958
0.0119385
0.0119283
0.0121
0.0124753
0.0131677
0.0145021
0.0170131
0.0219026
0.0308163
0.0471506
0.0750047
0.121007
0.191331
0.291616
0.42725
0.62034
0.960878
1.56337
2.00233
2.25612
3.34466
5.55689
6.91654
5.61989
3.43613
1.86752
0.881925
0.358761
0.127012
0.0460003
0.0208011
0.0138001
0.01186
0.0113242
0.0112375
0.0114302
0.0119802
0.0131181
0.0139009
0.0130188
0.0126036
0.0124645
0.0125192
0.0127445
0.0132068
0.0140671
0.0157898
0.0190366
0.0254498
0.0369699
0.0581258
0.0935785
0.151668
0.238481
0.358285
0.510558
0.703775
0.996819
1.52327
2.02646
2.22772
3.18575
5.66057
7.72623
6.56685
3.96096
2.11787
0.992984
0.40761
0.143635
0.0509257
0.0219772
0.0141607
0.0120625
0.0115056
0.0113952
0.0115217
0.0119083
0.0126921
0.0139376
0.0133696
0.0131136
0.0130595
0.0131718
0.013459
0.0140487
0.0151593
0.0174718
0.021777
0.0303839
0.0454764
0.0732615
0.118725
0.192708
0.300573
0.445096
0.619431
0.820112
1.08016
1.52093
2.03517
2.20949
3.05238
5.67825
8.48192
7.61857
4.58414
2.40719
1.12518
0.46871
0.165615
0.0579451
0.0237139
0.0146717
0.0123001
0.0117057
0.0115754
0.0116595
0.0119456
0.0125137
0.0142271
0.0138574
0.0137118
0.0137249
0.0138961
0.0142638
0.0150519
0.0165403
0.0197562
0.0255754
0.0373473
0.0572852
0.0941418
0.152543
0.247147
0.38106
0.555932
0.75779
0.971625
1.20984
1.56965
2.04808
2.22571
2.94949
5.66659
9.18484
8.75388
5.3124
2.74287
1.28282
0.54511
0.194673
0.0680637
0.0263363
0.0154424
0.012596
0.0119319
0.0117779
0.0118306
0.0120481
0.0124732
0.0146973
0.0144638
0.0143986
0.0144675
0.0147097
0.0151927
0.016303
0.0183629
0.0229733
0.0309403
0.0472936
0.0737155
0.12294
0.197674
0.318806
0.484173
0.696152
0.932339
1.16511
1.39156
1.68211
2.09293
2.27835
2.89445
5.66901
9.86115
9.95938
6.14455
3.13282
1.46975
0.639819
0.232715
0.0827067
0.0303467
0.0166693
0.012992
0.0121982
0.0120067
0.0120325
0.0121987
0.0125221
0.0153251
0.0151879
0.0151829
0.0152995
0.0156431
0.016302
0.0179504
0.0208684
0.0276467
0.0386178
0.0616315
0.0965592
0.162597
0.25734
0.412536
0.615149
0.874033
1.15459
1.41452
1.64291
1.8766
2.19745
2.35608
2.90077
5.73173
10.5608
11.219
7.06196
3.57664
1.67684
0.75548
0.281435
0.103792
0.0364912
0.0187092
0.0135686
0.0125326
0.0122699
0.0122693
0.0123944
0.0126424
0.0161047
0.0160307
0.0160724
0.0162359
0.0167498
0.0176852
0.0202495
0.0244303
0.0346068
0.0496817
0.0824235
0.128171
0.217038
0.335331
0.534748
0.780826
1.1026
1.44386
1.74391
1.97448
2.15279
2.37673
2.47071
2.95557
5.88978
11.3663
12.5214
7.99919
4.06905
1.89867
0.89368
0.341437
0.133647
0.0457664
0.0221911
0.0144819
0.0129966
0.0125816
0.01255
0.0126401
0.0128325
0.0170318
0.0169871
0.0170739
0.0172974
0.0181319
0.0194968
0.0236437
0.0296108
0.0451739
0.0656272
0.112673
0.171495
0.291458
0.435959
0.694444
0.990787
1.40271
1.82896
2.18007
2.41064
2.52641
2.63751
2.62949
3.07247
6.20285
12.4445
13.8437
8.86811
4.58449
2.12321
1.05376
0.410822
0.17455
0.0592011
0.0281394
0.0160148
0.0137305
0.0129689
0.0128908
0.0129456
0.0130992
0.0180887
0.0180438
0.0182087
0.0185262
0.0199969
0.0219862
0.0289154
0.0372223
0.0614627
0.0884231
0.15672
0.229967
0.392765
0.56395
0.905051
1.2585
1.80727
2.35097
2.77872
3.01507
3.02958
3.00934
2.84153
3.26363
6.85053
14.0431
15.1156
9.55155
5.09495
2.32574
1.23188
0.483105
0.227631
0.0770838
0.0379714
0.0185923
0.0150409
0.013489
0.0133266
0.0133256
0.0134545
0.0192428
0.0191868
0.0195501
0.0200052
0.0227762
0.0255286
0.037474
0.0483476
0.0868984
0.120413
0.220824
0.307092
0.530415
0.724134
1.18752
1.60133
2.36751
3.06021
3.57744
3.80749
3.66568
3.52139
3.19081
3.5904
7.89851
16.3278
16.2791
9.88645
5.57886
2.47413
1.42041
0.544851
0.291104
0.0972587
0.0530101
0.0225638
0.0175079
0.0142553
0.0139457
0.0138063
0.0139188
0.0204712
0.020423
0.0213103
0.021867
0.0273849
0.0305935
0.0519279
0.0641851
0.127102
0.163834
0.314098
0.405581
0.718377
0.921067
1.57685
2.03857
3.15928
4.0064
4.58134
4.79535
4.36308
3.93283
3.35
3.84393
9.71985
19.2952
16.3438
9.76317
6.02421
2.52864
1.60616
0.574698
0.358664
0.112756
0.0730282
0.0273139
0.0218854
0.0154063
0.0149664
0.0144483
0.014535
0.014733
0.0141101
0.0136563
0.0133352
0.0131313
0.0130373
0.0130536
0.0131949
0.0135051
0.0140875
0.0151695
0.0172612
0.021578
0.0314307
0.0582309
0.185091
0.53971
0.0149902
0.0144268
0.0140158
0.0137494
0.013623
0.0136392
0.0138112
0.0141724
0.0147947
0.0158268
0.0175786
0.0207178
0.0267985
0.0399365
0.0744772
0.237563
0.731744
0.0153667
0.0148089
0.0144397
0.014236
0.0142024
0.0143549
0.0147276
0.0153836
0.0164359
0.0180963
0.0207825
0.0253641
0.0338181
0.0512776
0.0961777
0.312558
0.960566
0.0157442
0.0152469
0.0149254
0.0147902
0.0148605
0.0151709
0.0157855
0.0168089
0.0184143
0.0209018
0.0248324
0.031333
0.0429068
0.066004
0.124662
0.407134
1.25326
0.0162386
0.015747
0.0154698
0.0154037
0.015581
0.0160603
0.0169419
0.0183861
0.020649
0.0241528
0.0296486
0.0385946
0.0541655
0.0845587
0.161524
0.521649
1.6184
0.0167412
0.0163027
0.0160676
0.0160645
0.0163412
0.016982
0.0181286
0.0200092
0.0229804
0.027624
0.0349416
0.0468203
0.0673021
0.106923
0.207921
0.648242
2.0623
0.0173481
0.0169171
0.016714
0.01676
0.0171162
0.0178903
0.0192664
0.0215403
0.0251845
0.0309701
0.0402052
0.0553171
0.0814575
0.132176
0.263686
0.789514
2.57064
0.0179832
0.0175872
0.0174054
0.0174807
0.0178852
0.0187457
0.0202802
0.0228427
0.0270192
0.0337796
0.0447723
0.0630622
0.0951263
0.15826
0.324717
0.932598
3.10412
0.0187065
0.018318
0.0181415
0.0182206
0.0186337
0.019518
0.0211113
0.0238139
0.0282992
0.0357038
0.047997
0.0688779
0.106322
0.181761
0.378999
1.05781
3.59126
0.0194894
0.0191113
0.0189258
0.0189849
0.019367
0.0202077
0.0217453
0.0243918
0.0288682
0.0364346
0.0493434
0.0718775
0.113283
0.198595
0.417978
1.14658
3.94674
0.0203539
0.0199752
0.0197697
0.0197892
0.0201074
0.0208483
0.0222317
0.0246452
0.0287922
0.0359525
0.0484993
0.0710694
0.1138
0.203856
0.434825
1.18412
4.11156
0.0212959
0.0209165
0.0206875
0.0206555
0.0208887
0.0214938
0.0226593
0.0247201
0.0283022
0.0345931
0.0458871
0.0668112
0.107623
0.195522
0.422422
1.15446
4.0805
0.0223186
0.0219456
0.0216943
0.0216087
0.0217493
0.0222051
0.0231288
0.0247897
0.027699
0.0328647
0.042322
0.0603373
0.0965885
0.17667
0.386213
1.06902
3.87877
0.0234312
0.0230717
0.022806
0.0226729
0.022725
0.0230372
0.0237281
0.0250054
0.0272574
0.0312712
0.0387078
0.0532137
0.083349
0.151951
0.3351
0.946468
3.55864
0.0246358
0.0243031
0.0240358
0.0238684
0.0238456
0.0240309
0.0245171
0.0254615
0.0271469
0.0301485
0.0357257
0.0467852
0.0704674
0.126299
0.279217
0.809429
3.17676
0.0259392
0.0256473
0.0253946
0.0252118
0.0251347
0.0252177
0.0255349
0.0262062
0.0274372
0.0296314
0.0336856
0.0417673
0.059513
0.103052
0.226975
0.674138
2.77944
0.0273436
0.0271086
0.0268899
0.0267143
0.0266094
0.0266212
0.0268098
0.0272694
0.0281544
0.0297479
0.0326655
0.0384348
0.0512619
0.0839731
0.181502
0.549698
2.39811
0.0288534
0.0286923
0.0285286
0.0283846
0.028281
0.0282552
0.0283562
0.0286601
0.0292877
0.0304464
0.0325605
0.036671
0.0457682
0.069616
0.144558
0.440065
2.05127
0.0304745
0.0304044
0.0303163
0.0302293
0.0301571
0.0301294
0.030185
0.0303857
0.0308287
0.0316754
0.0332317
0.0362099
0.0426701
0.0597762
0.116353
0.352178
1.74799
0.032212
0.0322501
0.0322606
0.0322564
0.0322459
0.0322525
0.0323054
0.0324535
0.0327757
0.0334028
0.0345699
0.0367845
0.0414558
0.0536716
0.0958436
0.284545
1.49066
0.0340743
0.0342423
0.0343725
0.0344775
0.0345592
0.0346358
0.034728
0.0348734
0.0351342
0.0356176
0.0365139
0.0382089
0.0416951
0.0505289
0.0817759
0.232538
1.27766
0.0360729
0.0363896
0.0366653
0.0369075
0.0371128
0.0372956
0.0374696
0.0376618
0.0379195
0.0383294
0.0390494
0.0403911
0.0430996
0.0496988
0.0731333
0.194506
1.10513
0.0382172
0.0387124
0.0391595
0.0395689
0.0399308
0.0402567
0.040555
0.0408433
0.0411554
0.0415593
0.0421853
0.0432945
0.0454859
0.0506237
0.0686246
0.1677
0.967761
0.0405299
0.041225
0.0418767
0.042488
0.0430439
0.0435532
0.0440203
0.0444555
0.0448805
0.0453461
0.0459571
0.0469347
0.0487848
0.0529591
0.0671989
0.148957
0.859904
0.0430244
0.0439615
0.0448511
0.0457029
0.0464947
0.0472323
0.047917
0.0485531
0.0491524
0.0497496
0.0504265
0.0513679
0.053009
0.0565359
0.0681224
0.1362
0.77611
0.0457434
0.0469453
0.0481171
0.0492564
0.0503344
0.0513533
0.0523123
0.0532109
0.0540521
0.054857
0.0556855
0.0566886
0.0582409
0.0613458
0.0710684
0.128678
0.711545
0.0486966
0.0502254
0.0517264
0.0532065
0.0546297
0.0559927
0.0572928
0.0585255
0.0596868
0.0607857
0.0618628
0.0630368
0.0646258
0.0674921
0.0758954
0.125205
0.662144
0.0519682
0.0538403
0.0557281
0.0576154
0.0594572
0.0612422
0.0629654
0.0646193
0.0661944
0.06769
0.0691298
0.070603
0.0723735
0.075189
0.0826683
0.1255
0.624652
0.0555533
0.057863
0.0601999
0.0625665
0.0649115
0.0672128
0.0694607
0.0716439
0.0737491
0.0757679
0.0777105
0.0796403
0.0817706
0.0847423
0.0916398
0.129374
0.596531
0.0595617
0.0623429
0.0652134
0.0681515
0.0711036
0.0740373
0.0769361
0.0797851
0.0825678
0.0852709
0.0878945
0.0904817
0.0932002
0.0965864
0.103257
0.136943
0.575859
0.0639971
0.0673787
0.0708725
0.0744858
0.0781666
0.0818736
0.0855812
0.0892694
0.0929194
0.096516
0.100054
0.103563
0.107174
0.111328
0.118207
0.148737
0.561223
0.0689761
0.0730325
0.0772792
0.0817015
0.0862598
0.0909114
0.0956239
0.100372
0.105137
0.109903
0.114668
0.119457
0.124379
0.129796
0.137481
0.165766
0.551602
0.0745124
0.0794202
0.0845627
0.0899567
0.0955739
0.101379
0.10734
0.11343
0.119632
0.125937
0.132353
0.138918
0.145739
0.153131
0.162504
0.189691
0.546285
0.0807199
0.0866158
0.092854
0.0994302
0.106336
0.113555
0.121067
0.128857
0.136918
0.145259
0.153913
0.162952
0.172517
0.182931
0.195328
0.223119
0.544819
0.0876169
0.0947403
0.102302
0.110324
0.118813
0.127775
0.137221
0.147168
0.157642
0.16869
0.180399
0.192913
0.206468
0.221476
0.238968
0.27008
0.546975
0.0953097
0.103876
0.113056
0.122858
0.133306
0.144439
0.156313
0.169006
0.182622
0.197294
0.213211
0.230657
0.250065
0.272098
0.297958
0.336892
0.552702
0.103817
0.114141
0.125277
0.137266
0.150153
0.164015
0.178971
0.195192
0.212919
0.232463
0.254227
0.278759
0.306875
0.339783
0.379362
0.433463
0.562832
0.113235
0.125626
0.139131
0.153801
0.169725
0.187037
0.205945
0.226755
0.249917
0.276059
0.306014
0.340864
0.382151
0.432213
0.494372
0.577002
0.578088
0.123582
0.138443
0.154789
0.17273
0.192423
0.2141
0.238108
0.264962
0.295424
0.330615
0.372151
0.422236
0.483836
0.561217
0.661941
0.797985
0.598993
0.134936
0.15269
0.17243
0.194339
0.218688
0.245872
0.276473
0.311349
0.351768
0.399619
0.457771
0.530696
0.623753
0.746535
0.915174
1.15462
0.625786
0.0596163
0.0613851
0.0633614
0.0655924
0.0681162
0.0709795
0.0742161
0.0778452
0.0818827
0.0863198
0.0912265
0.0966144
0.102566
0.109049
0.116137
0.123773
0.132013
0.140787
0.150144
0.160105
0.173273
0.185452
0.196028
0.205904
0.214937
0.222863
0.229381
0.234224
0.237165
0.238052
0.236823
0.233511
0.228237
0.221201
0.21267
0.202947
0.19236
0.181224
0.169841
0.158469
0.147334
0.066064
0.0679485
0.0701135
0.0725586
0.0753553
0.0785024
0.0820338
0.0859528
0.0903053
0.0951443
0.100527
0.106498
0.113093
0.12034
0.128264
0.136873
0.146169
0.156145
0.166797
0.178227
0.193201
0.207325
0.219719
0.23142
0.242258
0.251902
0.25999
0.266179
0.270181
0.271787
0.270896
0.26752
0.261788
0.253923
0.244233
0.233081
0.220856
0.207942
0.194704
0.181459
0.16848
0.0749591
0.0768994
0.0791367
0.0816925
0.0846043
0.0878977
0.0916078
0.0957827
0.100482
0.10577
0.111696
0.118304
0.125633
0.133725
0.142609
0.152307
0.162825
0.174161
0.186313
0.199402
0.216417
0.232736
0.247205
0.261003
0.273916
0.285543
0.295442
0.303189
0.308416
0.310846
0.310326
0.306849
0.30054
0.291656
0.280554
0.267665
0.253456
0.238395
0.222923
0.20743
0.192244
0.0865
0.0883518
0.0905238
0.0930525
0.0959926
0.0993939
0.103312
0.1078
0.112912
0.118702
0.125231
0.132552
0.140713
0.149762
0.15974
0.170678
0.182591
0.195481
0.209351
0.224333
0.243636
0.26243
0.27926
0.295455
0.310744
0.324646
0.336626
0.346159
0.352784
0.356142
0.356017
0.352372
0.345333
0.335189
0.322359
0.30736
0.29075
0.2731
0.254943
0.236756
0.218937
0.100917
0.1026
0.104664
0.107161
0.110155
0.113703
0.117863
0.122693
0.128252
0.134601
0.141803
0.149927
0.159032
0.169172
0.1804
0.192756
0.206266
0.220939
0.236779
0.253927
0.275793
0.297373
0.316884
0.335807
0.353805
0.370299
0.384648
0.39621
0.404412
0.408795
0.40907
0.405159
0.397189
0.385489
0.370551
0.35299
0.333484
0.312721
0.291352
0.269953
0.249008
0.119243
0.120708
0.122623
0.125058
0.12808
0.131756
0.136153
0.141338
0.147381
0.15435
0.162315
0.17135
0.181531
0.192922
0.205586
0.219571
0.234915
0.251634
0.269736
0.289361
0.314102
0.338809
0.361358
0.383376
0.404442
0.423871
0.440894
0.454737
0.464693
0.470187
0.470841
0.466529
0.457378
0.44376
0.426259
0.405608
0.382625
0.358144
0.332951
0.307747
0.283113
0.142805
0.143953
0.145633
0.14794
0.150947
0.154729
0.159364
0.164928
0.171502
0.179165
0.187996
0.198078
0.209495
0.222328
0.236648
0.252514
0.269972
0.289045
0.309743
0.332204
0.360164
0.388377
0.414356
0.439863
0.464382
0.487105
0.507119
0.523496
0.535375
0.542047
0.543028
0.538137
0.527497
0.511536
0.49094
0.466588
0.439463
0.41057
0.380861
0.35118
0.322222
0.173337
0.174034
0.17537
0.177467
0.180406
0.18427
0.189147
0.195126
0.202295
0.210746
0.220571
0.231863
0.244714
0.259217
0.275456
0.2935
0.313401
0.335186
0.358864
0.384566
0.416128
0.448251
0.47808
0.507496
0.53587
0.562253
0.585572
0.604726
0.618679
0.626568
0.627789
0.622093
0.609602
0.590805
0.566511
0.537767
0.50575
0.47167
0.436671
0.401763
0.36777
0.213398
0.213449
0.214286
0.216055
0.218849
0.222763
0.227889
0.234325
0.242172
0.251532
0.262508
0.275206
0.28973
0.30618
0.32465
0.345219
0.367945
0.392853
0.419946
0.449338
0.484913
0.521368
0.555486
0.589238
0.621864
0.652261
0.679178
0.701322
0.717466
0.726571
0.7279
0.721129
0.706375
0.684196
0.655541
0.621649
0.583925
0.543811
0.502671
0.461711
0.421901
0.266822
0.265939
0.266049
0.267321
0.269856
0.273758
0.279129
0.28607
0.294692
0.305107
0.317427
0.331768
0.348246
0.366969
0.388037
0.411532
0.437513
0.466004
0.496989
0.530553
0.570559
0.611756
0.650593
0.689083
0.726321
0.761037
0.79179
0.817078
0.835471
0.845741
0.847002
0.838847
0.821384
0.795249
0.761543
0.721718
0.677433
0.630393
0.582212
0.534313
0.48783
0.339429
0.337206
0.33626
0.336787
0.33889
0.342681
0.348267
0.355757
0.36526
0.376894
0.390782
0.407045
0.4258
0.447165
0.471241
0.498106
0.527811
0.560366
0.595736
0.63395
0.678766
0.725052
0.768968
0.812514
0.854626
0.893856
0.928568
0.957051
0.977659
0.98897
0.989941
0.980077
0.959469
0.928829
0.889416
0.84291
0.791243
0.736401
0.680274
0.624523
0.570469
0.440233
0.436116
0.433664
0.433095
0.434518
0.438041
0.443775
0.45183
0.462314
0.475342
0.491035
0.509513
0.530896
0.555293
0.582797
0.613478
0.647362
0.684435
0.724621
0.767882
0.817751
0.869298
0.918481
0.967205
1.01424
1.05796
1.09655
1.12809
1.15074
1.16287
1.1633
1.15142
1.12732
1.09175
1.04614
0.992375
0.932666
0.869289
0.804417
0.739969
0.67747
0.583551
0.576837
0.572295
0.570167
0.570566
0.57359
0.579347
0.587938
0.599463
0.614026
0.631735
0.652694
0.677009
0.704771
0.736052
0.770889
0.809275
0.851144
0.896364
0.944809
0.999644
1.05625
1.11051
1.16413
1.21572
1.26351
1.30552
1.33967
1.36394
1.37655
1.37617
1.3621
1.33437
1.29379
1.24187
1.1807
1.11272
1.04048
0.966417
0.892713
0.821098
0.792841
0.782754
0.775446
0.771211
0.770156
0.772366
0.777932
0.786939
0.799461
0.81558
0.835371
0.858909
0.886256
0.917468
0.95257
0.991549
1.03434
1.0808
1.13072
1.18386
1.24286
1.30354
1.36191
1.41935
1.47435
1.52505
1.56938
1.60516
1.63027
1.64284
1.64143
1.62525
1.59426
1.54925
1.49177
1.42399
1.34849
1.268
1.18519
1.10247
1.02173
1.10798
1.09398
1.08336
1.07653
1.07359
1.07461
1.07965
1.08876
1.10198
1.11933
1.14085
1.16654
1.19641
1.23043
1.26856
1.31072
1.35674
1.40641
1.4594
1.51535
1.57621
1.63843
1.69841
1.75707
1.81289
1.864
1.90839
1.9439
1.96847
1.98023
1.97772
1.96009
1.92721
1.87975
1.81914
1.74748
1.66729
1.58131
1.49229
1.40276
1.31466
1.59973
1.58252
1.56886
1.55952
1.5546
1.55415
1.55817
1.56667
1.57963
1.597
1.61874
1.64476
1.67498
1.70928
1.74753
1.78954
1.83505
1.88377
1.9353
1.98915
2.04646
2.10454
2.16056
2.21492
2.2662
2.31279
2.35289
2.38466
2.40628
2.41609
2.41278
2.39551
2.36404
2.3188
2.26092
2.1921
2.11448
2.03052
1.94272
1.85347
1.76435
2.40001
2.38455
2.3712
2.36168
2.3561
2.3545
2.35685
2.3631
2.37317
2.38695
2.40432
2.42514
2.44923
2.47643
2.50653
2.53929
2.57444
2.61167
2.6506
2.6908
2.73257
2.77444
2.81477
2.85349
2.88965
2.92216
2.94987
2.97156
2.98605
2.99223
2.98921
2.97634
2.95334
2.92034
2.87789
2.82696
2.76886
2.70515
2.63754
2.56771
2.4958
0.431798
0.244479
0.0720354
0.0383093
0.0256546
0.0198544
0.0169862
0.0156003
0.0150187
0.0149343
0.0151558
0.0156138
0.0162824
0.0171512
0.0181997
0.0193759
0.0206152
0.59561
0.328038
0.0971848
0.0506699
0.0329682
0.0245308
0.0201037
0.0177599
0.0165839
0.016103
0.0160662
0.0163441
0.0168725
0.0176221
0.0185712
0.019668
0.0208069
0.79759
0.441319
0.131626
0.0669511
0.0424354
0.0304739
0.023983
0.0203782
0.0184171
0.0174436
0.017092
0.0171588
0.0175332
0.0181586
0.0190045
0.0200304
0.0211128
1.06587
0.569645
0.176103
0.0877441
0.0543021
0.0377824
0.0286577
0.0234583
0.0205189
0.0189416
0.0182177
0.018046
0.0182552
0.0187527
0.01949
0.0204432
0.0215722
1.41387
0.719972
0.231668
0.113287
0.0684466
0.0462793
0.0339755
0.0268799
0.0227975
0.0205386
0.0194064
0.0189832
0.0190242
0.0193952
0.02002
0.0208633
0.021877
1.85883
0.891735
0.297074
0.142733
0.0842336
0.0554968
0.039584
0.0303947
0.0251
0.0221441
0.0206077
0.019941
0.0198229
0.0200763
0.0205994
0.0213454
0.0222571
2.39609
1.07373
0.367748
0.174008
0.100415
0.0645841
0.0449109
0.03366
0.0272303
0.0236506
0.0217627
0.0208869
0.0206323
0.0207836
0.0212176
0.0218805
0.0227848
2.99891
1.24499
0.435902
0.203711
0.11505
0.0723456
0.049275
0.0363038
0.0289961
0.0249562
0.0228169
0.0217928
0.0214369
0.0215076
0.0218659
0.0224416
0.0232397
3.59955
1.37836
0.491841
0.227308
0.125751
0.0775562
0.0520585
0.0380329
0.0302545
0.0259945
0.023738
0.0226422
0.0222275
0.0222425
0.0225424
0.0230472
0.0237205
4.10103
1.44955
0.526022
0.240451
0.130544
0.07935
0.052897
0.0386474
0.0308903
0.0266965
0.0244899
0.0234138
0.022996
0.0229877
0.023244
0.0236967
0.024322
4.41545
1.44305
0.524144
0.237414
0.127411
0.0769586
0.0514815
0.0380724
0.0309094
0.0270865
0.0250883
0.0241169
0.0237421
0.0237402
0.0239778
0.0243806
0.0249336
4.48995
1.35825
0.48865
0.219379
0.117271
0.0711401
0.0483779
0.0366709
0.0305283
0.0272853
0.0255999
0.0247873
0.0244854
0.0245071
0.024737
0.0251122
0.0255854
4.33326
1.21569
0.429962
0.192098
0.102921
0.0634562
0.0444884
0.0349544
0.0300267
0.0274425
0.0261044
0.0254683
0.0252503
0.0253028
0.0255294
0.0258798
0.0263084
4.00277
1.04645
0.361186
0.161214
0.0873429
0.0555459
0.0406981
0.033391
0.0296484
0.0276856
0.0266708
0.0261992
0.0260602
0.0261413
0.0263629
0.026686
0.0270696
3.57389
0.872871
0.294224
0.131585
0.072974
0.0486572
0.0376345
0.0322869
0.0295446
0.0280946
0.0273457
0.0270097
0.0269347
0.0270349
0.0272452
0.0275365
0.0278697
3.11194
0.708391
0.23395
0.10573
0.0612242
0.0434499
0.0355739
0.0317574
0.029771
0.0287045
0.0281546
0.0279193
0.0278878
0.0279938
0.0281841
0.0284378
0.0287153
2.66233
0.56027
0.184448
0.0853176
0.0526379
0.0400453
0.0345088
0.0317798
0.0303202
0.0295211
0.0291086
0.0289391
0.0289285
0.0290242
0.0291825
0.0293875
0.0296036
2.25279
0.444233
0.145624
0.0705236
0.0470425
0.0382204
0.0342855
0.0322752
0.0311621
0.0305388
0.0302126
0.0300765
0.0300636
0.0301308
0.0302428
0.030389
0.0305352
1.8968
0.35811
0.116965
0.0605559
0.0438771
0.0376245
0.0347217
0.0331662
0.032272
0.0317549
0.0314714
0.0313368
0.0312972
0.0313171
0.0313698
0.0314469
0.0315124
1.59832
0.293276
0.0968591
0.0545356
0.0425642
0.0379504
0.0356817
0.0344029
0.033636
0.033169
0.0328874
0.0327226
0.0326305
0.032583
0.0325586
0.0325482
0.0325261
1.3547
0.243424
0.0831607
0.0513939
0.04258
0.0389719
0.0370822
0.0359606
0.0352503
0.0347826
0.0344631
0.0342354
0.0340641
0.0339269
0.0338066
0.0336967
0.0335786
1.15965
0.202942
0.074237
0.0503134
0.0435606
0.0405598
0.0388851
0.0378321
0.0371169
0.0365998
0.0362015
0.0358765
0.035597
0.0353469
0.0351138
0.034894
0.0346686
1.00585
0.172769
0.0692186
0.0508189
0.0453383
0.0426774
0.0410933
0.0400284
0.0392459
0.0386269
0.0381053
0.0376457
0.0372272
0.0368389
0.0364719
0.0361217
0.0357785
0.886098
0.1513
0.067226
0.0525495
0.047819
0.0453147
0.0437185
0.0425637
0.0416476
0.0408697
0.0401775
0.0395438
0.0389541
0.0384018
0.0378805
0.0373894
0.0369176
0.793699
0.136672
0.0675432
0.0553237
0.050994
0.0484983
0.0467869
0.0454569
0.0443347
0.0433369
0.042422
0.0415709
0.0407746
0.0400306
0.0393363
0.0386923
0.0380769
0.722943
0.127652
0.069748
0.0591039
0.0549039
0.0522752
0.0503369
0.0487368
0.0473275
0.0460409
0.0448456
0.043729
0.0426865
0.0417189
0.0408258
0.0399994
0.0392283
0.669163
0.123227
0.0736261
0.0639326
0.0596286
0.0567142
0.0544214
0.0524424
0.0506537
0.049001
0.0474605
0.0460248
0.0446927
0.0434675
0.0423495
0.0413307
0.0403964
0.628664
0.122697
0.0791641
0.0699147
0.0652853
0.0619099
0.0591119
0.056627
0.0543526
0.0522447
0.0502853
0.0484695
0.046798
0.0452765
0.0439087
0.0426876
0.0415741
0.598583
0.125649
0.0865097
0.0772543
0.0720406
0.0679878
0.0645038
0.0613629
0.0584776
0.055811
0.053347
0.0510808
0.0490127
0.0471492
0.0454977
0.0440346
0.0427236
0.576706
0.132059
0.0959691
0.0862489
0.0801194
0.0751169
0.0707247
0.0667454
0.0630996
0.0597517
0.0566831
0.0538851
0.0513542
0.0490961
0.0471226
0.045404
0.0438926
0.561362
0.14229
0.108052
0.097309
0.0898275
0.0835249
0.0779437
0.0728998
0.0683109
0.0641343
0.0603427
0.0569175
0.0538459
0.0511297
0.0487926
0.0468062
0.0450749
0.551286
0.157116
0.123537
0.111008
0.101584
0.0935194
0.0863855
0.0799895
0.0742303
0.0690453
0.0643886
0.0602235
0.0565202
0.0532702
0.0505159
0.0482046
0.0462173
0.545516
0.177927
0.143542
0.128151
0.115972
0.105518
0.0963496
0.0882285
0.0810103
0.0745935
0.0688992
0.0638604
0.0594196
0.0555464
0.052308
0.0496415
0.0474028
0.543331
0.206964
0.169706
0.149896
0.133805
0.120097
0.108239
0.0978989
0.0888481
0.0809169
0.0739714
0.0678983
0.0625969
0.057995
0.0541936
0.0511443
0.0486291
0.544242
0.247748
0.204485
0.177927
0.156251
0.138057
0.122604
0.109378
0.0980018
0.0881919
0.0797266
0.0724227
0.066117
0.0606667
0.056205
0.0526817
0.049816
0.547975
0.305924
0.251633
0.214771
0.185005
0.160539
0.140211
0.123179
0.108815
0.096649
0.0863195
0.0775397
0.0700587
0.0636269
0.0583842
0.0543045
0.0510984
0.555079
0.39046
0.31712
0.264319
0.222609
0.189202
0.162144
0.140013
0.121756
0.106596
0.0939533
0.0833836
0.0745166
0.0669562
0.0607971
0.0560864
0.0524954
0.566116
0.517168
0.410604
0.332732
0.272957
0.226513
0.189973
0.160884
0.137471
0.118455
0.102903
0.0901338
0.0796098
0.0707544
0.0635314
0.0580402
0.0539195
0.58155
0.714466
0.548878
0.429886
0.342193
0.276246
0.226029
0.187253
0.156893
0.13283
0.113569
0.0980569
0.0855113
0.0751522
0.0666996
0.0602616
0.0555567
0.601686
1.03726
0.762164
0.573018
0.44006
0.344366
0.273909
0.221351
0.181441
0.150643
0.126561
0.107559
0.0924847
0.0803253
0.0704548
0.0629108
0.0574683
0.0218053
0.0242123
0.037425
0.0852445
0.219242
0.525375
1.1583
2.58887
5.21867
6.00024
3.92081
5.10058
18.2953
9.1387
2.44904
0.548063
0.111564
0.0296119
0.0167349
0.0153967
0.0227238
0.0268549
0.0469142
0.115205
0.296273
0.68833
1.4906
3.39058
6.93707
7.3535
4.19313
5.86074
17.2586
9.0137
2.43843
0.526614
0.107746
0.0300022
0.0174973
0.0160387
0.0238951
0.0307625
0.060997
0.157727
0.399516
0.898704
1.92811
4.4632
8.9266
8.31026
4.77073
6.96658
17.4188
8.88599
2.33935
0.489782
0.101365
0.0300492
0.0182167
0.016669
0.025492
0.036705
0.081952
0.217508
0.535859
1.17063
2.51008
5.84318
10.9462
8.71762
5.52314
8.47038
17.5375
8.41963
2.1422
0.440704
0.0945887
0.0304082
0.0190589
0.0173326
0.0278268
0.0459358
0.113148
0.300645
0.714184
1.52474
3.28678
7.49309
12.4767
8.77017
6.65197
10.7331
17.1317
7.58987
1.86754
0.390163
0.0914754
0.0322255
0.0202858
0.0180996
0.0314458
0.0604819
0.159458
0.414765
0.946861
1.98416
4.29074
9.2675
13.2216
8.78616
8.19418
13.3692
15.8781
6.44931
1.56735
0.357855
0.098727
0.0375775
0.0224014
0.0190727
0.0373307
0.0836212
0.227771
0.5694
1.25114
2.59369
5.51226
10.91
13.1459
9.04302
9.69724
14.7609
13.6977
5.12379
1.32084
0.372346
0.126904
0.0502063
0.0264473
0.0204517
0.0472508
0.120599
0.32749
0.777107
1.64928
3.40743
6.83468
12.0205
12.6018
9.45767
10.6461
14.4713
10.8122
3.89623
1.22494
0.469
0.192014
0.076845
0.0345709
0.0226731
0.0644076
0.179658
0.471175
1.05717
2.17636
4.40843
8.07869
12.4386
11.9406
9.65976
10.7756
12.5045
7.91077
3.10032
1.34984
0.68049
0.317058
0.129438
0.0511115
0.0267041
0.094586
0.273372
0.675586
1.43322
2.89172
5.51011
9.11001
12.2762
11.2809
9.55104
10.0295
9.67959
5.77027
2.87371
1.70081
1.02234
0.530861
0.228204
0.0846235
0.0347
0.148121
0.420235
0.963676
1.9441
3.78166
6.51202
9.81162
11.8519
10.7537
9.20673
8.91946
7.62979
4.83833
3.10681
2.21926
1.4918
0.861526
0.404187
0.151615
0.051486
0.242981
0.646941
1.37236
2.64632
4.76451
7.24702
10.1783
11.4612
10.3127
8.8068
8.0429
6.42405
4.49976
3.61704
2.88266
2.10072
1.3358
0.698577
0.282279
0.0879546
0.409379
0.993324
1.9583
3.5319
5.62704
7.64126
10.2812
11.0786
9.89599
8.44156
7.74419
6.19523
4.77325
4.33805
3.80738
2.94935
2.00674
1.16251
0.526881
0.168554
0.697461
1.52955
2.77915
4.47836
6.17536
8.01865
10.1529
10.6543
9.61575
8.36122
7.85241
6.55847
5.81034
5.62967
5.12794
4.16235
3.00427
1.88565
0.964511
0.34583
1.20129
2.3513
3.80924
5.22429
6.34646
8.17486
9.87551
10.2279
9.43234
8.354
7.90797
7.11371
6.90097
7.02229
6.72089
5.81165
4.49752
3.04071
1.73604
0.727109
2.07715
3.54354
4.80749
5.47684
6.33241
8.17002
9.47351
9.82123
9.33914
8.52812
8.19591
7.76492
7.65664
8.01453
8.05559
7.48038
6.50522
4.91871
3.12148
1.54136
3.56204
4.90038
5.25031
5.34436
6.35838
7.96485
9.00535
9.51683
9.4468
8.99679
8.78451
8.54721
8.47882
8.70078
8.83321
8.53097
8.24555
7.42266
5.62686
3.34172
5.44997
5.45201
4.92195
5.19454
6.38599
7.60986
8.5705
9.31446
9.72642
9.77329
9.72793
9.57144
9.40274
9.33026
9.22525
9.0117
9.00222
9.32417
8.98817
7.27062
4.7644
4.0789
4.27364
5.32634
6.51313
7.38836
8.40635
9.43155
10.2937
10.7615
10.8999
10.768
10.4173
9.96654
9.55011
9.39364
9.34648
9.74644
10.759
12.177
2.85687
2.99961
4.13584
6.82578
8.77346
10.4095
12.6117
14.7608
16.6761
17.9457
18.4768
18.2503
17.45
16.163
14.5092
13.0713
11.59
9.78744
7.2666
4.66235
4.31354
15.984
4.61846
1.16609
0.360617
0.131287
0.0609322
0.038193
0.0298509
0.0258395
0.0233745
0.021663
0.0204047
0.019435
0.0186499
0.0179836
0.0173908
0.0168315
0.0162665
0.0156753
4.31246
13.326
2.67205
0.633825
0.19534
0.0782023
0.0435448
0.0322369
0.0274987
0.0248122
0.0229951
0.0216696
0.020655
0.0198443
0.0191666
0.0185735
0.0180289
0.0174978
0.016944
0.0163506
3.51291
10.6093
1.71311
0.380879
0.120798
0.0553237
0.0363634
0.029801
0.0266174
0.0246304
0.0232155
0.0221431
0.0212934
0.0205935
0.0199926
0.0194538
0.0189471
0.0184403
0.0178964
0.0172947
2.69958
7.64965
1.10285