/*--------------------------------*- C++ -*----------------------------------*\
  =========                 |
  \\      /  F ield         | OpenFOAM: The Open Source CFD Toolbox
   \\    /   O peration     | Website:  https://openfoam.org
    \\  /    A nd           | Version:  6
     \\/     M anipulation  |
\*---------------------------------------------------------------------------*/
FoamFile
{
    version     2.0;
    format      ascii;
    class       volScalarField;
    location    "3.66";
    object      T;
}
// * * * * * * * * * * * * * * * * * * * * * * * * * * * * * * * * * * * * * //

dimensions      [0 0 0 1 0 0 0];

internalField   nonuniform List<scalar> 
10000
(
1
1
1
1
1
1
1
1
1
1
1
1
1
1
1
1
1
1
1
1
1
1
1
1
1
1
1
1
1
1
1
1
1
1
1
1
1
1
1
1
1
1
1
1
1
1
1
1
1
1
1
1
1
1
1
1
1
1
1
1
1
1
1
1
1
1
1
1
1
1
1
1
1
1
1
1
1
1
1
1
1
1
1
1
1
1
1
1
1
1
1
1
1
1
1
1
1
1
1
1
1
1
1
1
1
1
1
1
1
1
1
1
1
1
1
1
1
1
1
1
1
1
1
1
1
1
1
1
1
1
1
1
1
1
1
1
1
1
1
1
1
1
1
1
1
1
1
1
1
1
1
1
1
1
1
1
1
1
1
1
1
1
1
1
1
1
1
1
1
1
1
1
1
1
1
1
1
1
1
1
1
1
1
1
1
1
1
1
1
1
1
1
1
1
1
1
1
1
1
1
1
1
1
1
1
1
1
1
1
1
1
1
1
1
1
1
1
1
1
1
1
1
1
1
1
1
1
1
1
1
1
1
1
1
1
1
1
1
1
1
1
1
1
1
1
1
1
1
1
1
1
1
1
1
1
1
1
1
1
1
1
1
1
1
1
1
1
1
1
1
1
1
1
1
1
1
1
1
1
1
1
1
1
1
1
1
1
1
1
1
1
1
1
1
1
1
1
1
1
1
1
1
1
1
1
1
1
1
1
1
1
1
1
1
1
1
1
1
1
1
1
1
1
1
1
1
1
1
1
1
1
1
1
1
1
1
1
1
1
1
1
1
1
1
1
1
1
1
1
1
1
1
1
1
1
1
1
1
1
1
1
1
1
1
1
1
1
1
1
1
1
1
1
1
1
1
1
1
1
1
1
1
1
1
1
1
1
1
1
1
1
1
1
1
1
1
1
1
1
1
1
1
1
1
1
1
1
1
1
1
1
1
1
1
1
1
1
1
1
1
1
1
1
1
1
1
1
1
1
1
1
1
1
1
1
1
1
1
1
1
1
1
1
1
1
1
1
1
1
1
1
1
1
1
1
1
1
1
1
1
1
1
1
1
1
1
1
1
1
1
1
1
1
1
1
1
1
1
1
1
1
1
1
1
1
1
1
1
1
1
1
1
1
1
1
1
1
1
1
1
1
1
1
1
1
1
1
1
1
1
1
1
1
1
1
1
1
1
1
1
1
1
1
1
1
1
1
1
1
1
1
1
1
1
1
1
1
1
1
1
1
1
1
1
1
1
1
1
1
1
1
1
1
1
1
1
1
1
1
1
1
1
1
1
1
1
1
1
1
1
1
1
1
1
1
1
1
1
1
1
1
1
1
1
1
1
1
1
1
1
1
1
1
1
1
1
1
1
1
1
1
1
1
1
1
1
1
1
1
1
1
1
1
1
1
1
1
1
1
1
1
1
1
1
1
1
1
1
1
1
1
1
1
1
1
1
1
1
1
1
1
1
1
1
1
1
1
1
1
1
1
1
1
1
1
1
1
1
1
1
1
1
1
1
1.00001
1.00001
1.00001
1.00001
1.00001
1.00001
1.00001
1.00001
1.00001
1.00001
1.00001
1.00001
1.00001
1
1
1
1
1
1
1
1
1
1
1
1
1
1
1
1
1
1
1
1
1
1
1
1
1
1
1
1
1
1
1
1
1
1
1
1
1
1
1
1
1
1
1
1
1
1
1
1
1
1
1
1
1
1
1
1
1
1
1
1
1
1
1
1
1
1
1
1
1
1
1
1
1
1
1
1
1
1
1
1
1
1
1
1
1.00001
1.00001
1.00001
1.00001
1.00001
1.00001
1.00001
1.00001
1.00001
1.00001
1.00001
1.00001
1.00001
1.00001
1.00001
1.00001
1.00001
1.00001
1.00001
1
1
1
1
1
1
1
1
1
1
1
1
1
1
1
1
1
1
1
1
1
1
1
1
1
1
1
1
1
1
1
1
1
1
1
1
1
1
1
1
1
1
1
1
1
1
1
1
1
1
1
1
1
1
1
1
1
1
1
1
1
1
1
1
1
1
1
1
1
1
1
1
1
1
1
1
1
1
1
1.00001
1.00001
1.00001
1.00001
1.00001
1.00001
1.00002
1.00002
1.00002
1.00002
1.00002
1.00002
1.00002
1.00002
1.00002
1.00002
1.00002
1.00002
1.00001
1.00001
1.00001
1.00001
1.00001
1
1
1
1
1
1
1
1
1
1
1
1
1
1
1
1
1
1
1
1
1
1
1
1
1
1
1
1
1
1
1
1
1
1
1
1
1
1
1
1
1
1
1
1
1
1
1
1
1
1
1
1
1
1
1
1
1
1
1
1
1
1
1
1
1
1
1
1
1
1
1
1
1
1
1
1.00001
1.00001
1.00001
1.00001
1.00001
1.00002
1.00002
1.00002
1.00002
1.00002
1.00003
1.00003
1.00003
1.00003
1.00003
1.00003
1.00003
1.00003
1.00003
1.00002
1.00002
1.00002
1.00002
1.00001
1.00001
1.00001
1
1
1
1
1
1
1
1
1
1
1
1
1
1
1
1
1
1
1
1
1
1
1
1
1
1
1
1
1
1
1
1
1
1
1
1
1
1
1
1
1
1
1
1
1
1
1
1
1
1
1
1
1
1
1
1
1
1
1
1
1
1
1
1
1
1
1
1
1
1
1
1
1
1.00001
1.00001
1.00001
1.00001
1.00002
1.00002
1.00002
1.00002
1.00003
1.00003
1.00003
1.00003
1.00003
1.00003
1.00003
1.00003
1.00003
1.00003
1.00003
1.00003
1.00003
1.00003
1.00003
1.00002
1.00002
1.00002
1.00001
1.00001
1.00001
1
1
1
1
1
1
1
1
1
1
1
1
1
1
1
1
1
1
1
1
1
1
1
1
1
1
1
1
1
1
1
1
1
1
1
1
1
1
1
1
1
1
1
1
1
1
1
1
1
1
1
1
1
1
1
1
1
1
1
1
1
1
1
1
1
1
1
1
1
1
1.00001
1.00001
1.00001
1.00001
1.00002
1.00002
1.00002
1.00003
1.00003
1.00003
1.00003
1.00003
1.00003
1.00003
1.00002
1.00002
1.00002
1.00002
1.00002
1.00002
1.00003
1.00003
1.00003
1.00003
1.00003
1.00003
1.00002
1.00002
1.00001
1.00001
1.00001
1
1
1
1
1
1
1
1
1
1
1
1
1
1
1
1
1
1
1
1
1
1
1
1
1
1
1
1
1
1
1
1
1
1
1
1
1
1
1
1
1
1
1
1
1
1
1
1
1
1
1
1
1
1
1
1
1
1
1
1
1
1
1
1
1
1
1
1
1.00001
1.00001
1.00001
1.00001
1.00002
1.00002
1.00002
1.00003
1.00003
1.00003
1.00003
1.00003
1.00003
1.00002
1.00001
1
0.999997
0.999992
0.99999
0.999992
0.999997
1.00001
1.00001
1.00002
1.00003
1.00003
1.00004
1.00003
1.00003
1.00002
1.00002
1.00001
1.00001
1
1
1
1
1
1
1
1
1
1
1
1
1
1
1
1
1
1
1
1
1
1
1
1
1
1
1
1
1
1
1
1
1
1
1
1
1
1
1
1
1
1
1
1
1
1
1
1
1
1
1
1
1
1
1
1
1
1
1
1
1
1
1
1
1
1
1.00001
1.00001
1.00001
1.00002
1.00002
1.00002
1.00003
1.00003
1.00003
1.00003
1.00003
1.00003
1.00002
1.00001
0.999995
0.999976
0.999955
0.999938
0.999925
0.99992
0.999924
0.999936
0.999952
0.999972
0.999992
1.00001
1.00002
1.00003
1.00004
1.00004
1.00003
1.00002
1.00002
1.00001
1.00001
1
1
1
1
1
1
1
1
1
1
1
1
1
1
1
1
1
1
1
1
1
1
1
1
1
1
1
1
1
1
1
1
1
1
1
1
1
1
1
1
1
1
1
1
1
1
1
1
1
1
1
1
1
1
1
1
1
1
1
1
1
1
1
1
1.00001
1.00001
1.00001
1.00002
1.00002
1.00002
1.00003
1.00003
1.00003
1.00003
1.00003
1.00003
1.00002
1
0.999979
0.999944
0.9999
0.999853
0.99981
0.999777
0.999764
0.999772
0.999799
0.999837
0.999881
0.999924
0.999962
0.999993
1.00002
1.00003
1.00004
1.00004
1.00003
1.00002
1.00001
1.00001
1
1
1
1
1
1
1
1
1
1
1
1
1
1
1
1
1
1
1
1
1
1
1
1
1
1
1
1
1
1
1
1
1
1
1
1
1
1
1
1
1
1
1
1
1
1
1
1
1
1
1
1
1
1
1
1
1
1
1
1
1
1
1
1.00001
1.00001
1.00001
1.00002
1.00002
1.00002
1.00003
1.00003
1.00003
1.00003
1.00003
1.00003
1.00002
1
0.999972
0.99992
0.999846
0.999751
0.999645
0.999541
0.99946
0.999419
0.99943
0.999486
0.999575
0.99968
0.99978
0.999864
0.99993
0.999978
1.00001
1.00003
1.00004
1.00004
1.00003
1.00002
1.00001
1.00001
1
1
1
1
1
1
1
1
1
1
1
1
1
1
1
1
1
1
1
1
1
1
1
1
1
1
1
1
1
1
1
1
1
1
1
1
1
1
1
1
1
1
1
1
1
1
1
1
1
1
1
1
1
1
1
1
1
1
1
1
1
1.00001
1.00001
1.00001
1.00002
1.00002
1.00002
1.00003
1.00003
1.00003
1.00003
1.00003
1.00003
1.00003
1.00001
0.99998
0.999916
0.999811
0.999658
0.999463
0.999235
0.999001
0.998803
0.998687
0.998676
0.998778
0.998972
0.999213
0.999452
0.999653
0.999802
0.999902
0.999967
1.00001
1.00003
1.00004
1.00003
1.00003
1.00002
1.00001
1.00001
1
1
1
1
1
1
1
1
1
1
1
1
1
1
1
1
1
1
1
1
1
1
1
1
1
1
1
1
1
1
1
1
1
1
1
1
1
1
1
1
1
1
1
1
1
1
1
1
1
1
1
1
1
1
1
1
1
1
1
1.00001
1.00001
1.00001
1.00002
1.00002
1.00002
1.00003
1.00003
1.00003
1.00003
1.00003
1.00003
1.00003
1.00003
1
0.999937
0.999815
0.999612
0.999318
0.998935
0.998474
0.99798
0.997531
0.997216
0.997109
0.997254
0.997626
0.998141
0.998687
0.999164
0.999516
0.999746
0.999884
0.999964
1.00001
1.00003
1.00004
1.00003
1.00002
1.00001
1.00001
1
1
1
1
1
1
1
1
1
1
1
1
1
1
1
1
1
1
1
1
1
1
1
1
1
1
1
1
1
1
1
1
1
1
1
1
1
1
1
1
1
1
1
1
1
1
1
1
1
1
1
1
1
1
1
1
1
1
1.00001
1.00001
1.00001
1.00002
1.00002
1.00002
1.00003
1.00003
1.00003
1.00003
1.00003
1.00003
1.00004
1.00004
1.00003
0.999979
0.99986
0.999633
0.999264
0.998733
0.998021
0.997145
0.996166
0.995218
0.994461
0.994085
0.994207
0.994831
0.995831
0.996981
0.998041
0.998857
0.999395
0.99971
0.99988
0.99997
1.00001
1.00003
1.00003
1.00003
1.00002
1.00001
1.00001
1
1
1
1
1
1
1
1
1
1
1
1
1
1
1
1
1
1
1
1
1
1
1
1
1
1
1
1
1
1
1
1
1
1
1
1
0.999999
1
0.999999
1
1
1
1
1
1
1
1
1
1
1
1
1
1
1
1
1
1.00001
1.00001
1.00001
1.00001
1.00002
1.00002
1.00003
1.00003
1.00003
1.00003
1.00003
1.00003
1.00004
1.00005
1.00005
1.00003
0.999935
0.999721
0.999323
0.998694
0.997782
0.99654
0.994962
0.993135
0.991255
0.98964
0.988657
0.988573
0.989495
0.991264
0.993478
0.995648
0.997404
0.998607
0.999321
0.999702
0.999891
0.999981
1.00002
1.00003
1.00003
1.00002
1.00001
1.00001
1
1
1
1
1
1
1
1
1
1
1
1
1
1
1
1
1
1
1
1
1
1
1
1
1
1
1
1
1
1
1
1
1
1
1
1
0.999999
1
0.999999
1
1
1
1
0.999999
1
1
1
1
1
1
1
1
1
1
1
1
1.00001
1.00001
1.00001
1.00002
1.00002
1.00003
1.00003
1.00003
1.00003
1.00003
1.00003
1.00004
1.00005
1.00006
1.00006
1.00002
0.999851
0.999482
0.998828
0.997816
0.996335
0.994277
0.991577
0.988333
0.984855
0.981726
0.97958
0.978984
0.980212
0.983097
0.986999
0.99105
0.994498
0.996968
0.998492
0.99932
0.999728
0.999915
0.999996
1.00003
1.00003
1.00003
1.00002
1.00001
1
1
1
1
1
1
1
1
1
1
1
1
1
1
1
1
1
1
1
1
1
1
1
1
1
1
1
1
1
1
1
1
1
0.999999
1
0.999998
1
0.999998
1
0.999999
1
0.999999
1
0.999998
1
0.999998
1
1
1
1
1
1
1
1
1
1.00001
1.00001
1.00001
1.00002
1.00002
1.00003
1.00003
1.00003
1.00003
1.00002
1.00003
1.00004
1.00005
1.00007
1.00009
1.00008
0.999988
0.999702
0.999094
0.998082
0.99654
0.994272
0.99101
0.986591
0.981113
0.975128
0.969563
0.96551
0.963986
0.965542
0.969992
0.976354
0.983246
0.989354
0.993936
0.996891
0.998555
0.999394
0.999781
0.999946
1.00001
1.00003
1.00003
1.00002
1.00001
1.00001
1
1
1
1
1
1
1
1
1
1
1
1
1
1
1
1
1
1
1
1
1
1
1
1
1
1
1
1
1
1
1
0.999999
1
1
0.999999
1
0.999997
1
0.999998
1
1
1
0.999999
1
0.999998
1
1
1
1
1
1
1
1
1.00001
1.00001
1.00001
1.00002
1.00002
1.00003
1.00003
1.00003
1.00003
1.00002
1.00002
1.00003
1.00005
1.00007
1.0001
1.00011
1.00009
0.999929
0.999448
0.998504
0.997015
0.99481
0.991494
0.986531
0.979586
0.970842
0.961226
0.95214
0.945359
0.942481
0.944483
0.951079
0.960845
0.971617
0.981417
0.989048
0.994182
0.997201
0.998779
0.999525
0.999849
0.999976
1.00002
1.00003
1.00002
1.00001
1.00001
1
1
1
1
1
1
1
1
1
1
1
1
1
1
1
1
1
1
1
1
1
1
1
1
1
1
1
1
1
1
1
0.999999
1
0.999995
1.00001
0.999995
1
0.999998
1
0.999998
1
0.999996
1
0.999997
1
1
1
1
1
1
1
1
1.00001
1.00001
1.00001
1.00002
1.00002
1.00002
1.00003
1.00003
1.00003
1.00002
1.00002
1.00003
1.00004
1.00007
1.00011
1.00013
1.00014
1.0001
0.99982
0.999045
0.997645
0.995583
0.992609
0.98795
0.980661
0.970208
0.957056
0.94258
0.928919
0.918646
0.914181
0.916922
0.926482
0.940689
0.95635
0.970772
0.982237
0.990217
0.995116
0.997785
0.999093
0.999677
0.999914
0.999999
1.00002
1.00002
1.00002
1.00001
1
1
1
1
1
1
1
1
1
1
1
1
1
1
1
1
1
1
1
1
1
1
1
1
1
1
1
1
1
1
0.999997
1.00001
0.999995
1
1
0.999994
1.00001
0.999993
1
0.999997
1
0.999996
1.00001
0.999995
1
0.999999
1
1
1
1
1
1
1.00001
1.00001
1.00001
1.00002
1.00002
1.00003
1.00003
1.00003
1.00002
1.00002
1.00002
1.00004
1.00007
1.00012
1.00016
1.00017
1.00017
1.0001
0.999634
0.998432
0.996443
0.993786
0.989975
0.983644
0.973264
0.958276
0.939609
0.919281
0.900272
0.885996
0.879972
0.88409
0.897732
0.917351
0.938729
0.958341
0.974048
0.985245
0.992361
0.996398
0.998457
0.999411
0.999814
0.999965
1.00001
1.00002
1.00002
1.00001
1
1
1
1
1
1
1
1
1
1
1
1
1
1
1
1
1
1
1
1
1
1
1
1
1
1
1
1
1
0.999997
1
1
0.999991
1.00001
0.999986
1.00001
0.999996
1
0.999999
1
0.999996
1
1
0.999999
1
1
0.999999
1
1
1
1
1.00001
1.00001
1.00001
1.00002
1.00002
1.00003
1.00003
1.00003
1.00002
1.00002
1.00002
1.00003
1.00006
1.0001
1.00018
1.00021
1.00019
1.00019
1.00009
0.999338
0.997513
0.99485
0.991663
0.987004
0.978597
0.964307
0.943848
0.91889
0.892436
0.867991
0.849831
0.842495
0.848889
0.867586
0.89345
0.920982
0.945776
0.965615
0.979941
0.989273
0.994752
0.997658
0.999057
0.999672
0.999914
0.999997
1.00002
1.00002
1.00001
1.00001
1
1
1
1
1
1
1
1
1
1
1
1
1
1
1
1
1
1
1
1
1
1
1
1
1
1
1
0.999998
1
1.00001
0.999986
1.00001
0.999997
0.99999
1.00002
0.999985
1.00001
0.999994
1
0.999994
1.00001
0.999993
1.00001
0.999998
1
1
1
1
1
1.00001
1.00001
1.00001
1.00002
1.00002
1.00003
1.00003
1.00003
1.00002
1.00002
1.00001
1.00002
1.00005
1.00009
1.00017
1.00026
1.00026
1.00019
1.00025
1.0001
0.998868
0.996183
0.99285
0.9893
0.983782
0.972816
0.953891
0.927352
0.896174
0.864308
0.835468
0.814249
0.806076
0.815037
0.83895
0.87145
0.905068
0.934714
0.958198
0.975165
0.986378
0.993126
0.996817
0.998659
0.9995
0.999848
0.999975
1.00001
1.00002
1.00001
1.00001
1
1
1
1
1
1
1
1
1
1
1
1
1
1
1
1
1
1
1
1
1
1
1
1
1
1
0.999999
0.999999
1.00001
0.99999
1
1.00002
0.99997
1.00003
0.99999
0.999998
1
0.999999
0.999998
1
1
0.999996
1
0.999999
1
1
1
1
1
1.00001
1.00001
1.00001
1.00002
1.00002
1.00003
1.00003
1.00003
1.00002
1.00001
0.999996
1.00003
1.00008
1.00013
1.00026
1.00037
1.00027
1.00017
1.00036
1.00011
0.998111
0.994378
0.990493
0.98681
0.980275
0.96625
0.942249
0.909838
0.873621
0.838113
0.806878
0.783742
0.774893
0.785242
0.813537
0.852053
0.89139
0.925674
0.952401
0.9715
0.984125
0.991812
0.9961
0.998296
0.999331
0.999777
0.999948
1
1.00001
1.00001
1.00001
1
1
1
1
1
1
1
1
1
1
1
1
1
1
1
1
1
1
1
1
1
1
1
1
1
0.999999
0.999999
1
0.999995
0.999994
1.00002
0.999972
1.00001
1.00002
0.99997
1.00002
0.999994
1
0.999995
1.00001
0.999992
1.00001
0.999998
1
0.999998
1
1.00001
1
1.00001
1.00001
1.00001
1.00002
1.00002
1.00003
1.00003
1.00003
1.00002
1.00001
0.999989
0.999987
1.00006
1.00012
1.00019
1.00039
1.00049
1.00022
1.00015
1.00058
1.00007
0.996949
0.992108
0.98796
0.984217
0.976253
0.958725
0.929897
0.893031
0.853852
0.817054
0.785316
0.761458
0.751393
0.761353
0.792257
0.835268
0.879689
0.918293
0.948028
0.968972
0.982656
0.990961
0.995622
0.99804
0.999201
0.999717
0.999924
0.999994
1.00001
1.00001
1.00001
1
1
1
1
1
1
1
1
1
1
1
1
1
1
1
1
1
1
1
1
1
1
1
1
1
0.999999
1
0.999998
0.999992
1.00002
0.999986
0.999981
1.00005
0.999964
1
1.00001
0.999992
0.999997
1.00001
1
0.999995
1.00001
0.999999
1
1
1
1
1.00001
1.00001
1.00001
1.00001
1.00002
1.00002
1.00003
1.00003
1.00003
1.00001
0.999996
0.999967
0.999986
1.00011
1.00016
1.00026
1.00059
1.00057
1.00007
1.00022
1.00095
0.999805
0.995295
0.989578
0.985497
0.981376
0.971275
0.95007
0.917687
0.878805
0.83928
0.803114
0.771844
0.747739
0.736105
0.745185
0.777145
0.823163
0.871286
0.912997
0.945009
0.967417
0.981893
0.990571
0.995409
0.99792
0.999135
0.999681
0.999906
0.999987
1.00001
1.00001
1.00001
1
1
1
1
1
1
1
1
1
1
1
1
1
1
1
1
1
1
1
1
1
1
1
1
0.999999
1
1
0.999993
1.00001
0.999999
0.999968
1.00005
0.999983
0.999969
1.00004
0.999986
0.999995
1
1.00001
0.99999
1
1
1
0.999997
1
1.00001
1
1
1.00001
1.00001
1.00002
1.00002
1.00003
1.00003
1.00003
1.00002
0.999995
0.999978
0.999935
1
1.00019
1.00019
1.0004
1.00085
1.00053
0.999876
1.0005
1.00134
0.99909
0.9932
0.987182
0.983235
0.977937
0.964881
0.940486
0.90661
0.868419
0.830849
0.796404
0.765899
0.741244
0.728633
0.737793
0.771059
0.819261
0.868979
0.911574
0.944182
0.967043
0.981799
0.990587
0.995435
0.997929
0.999131
0.999674
0.999901
0.999984
1.00001
1.00001
1.00001
1
1
1
1
1
1
1
1
1
1
1
1
1
1
1
1
1
1
1
1
1
1
1
1
1
1
0.999996
1.00001
1.00001
0.999971
1.00003
1.00001
0.999943
1.00005
1
0.999977
1.00001
1.00001
0.999995
0.999995
1.00001
1
1
0.999997
1
1.00001
1
1.00001
1.00001
1.00001
1.00002
1.00002
1.00003
1.00003
1.00003
1.00002
0.999972
0.999958
0.999886
1.00006
1.00026
1.0002
1.00066
1.00109
1.00031
0.999808
1.00105
1.00148
0.997743
0.99099
0.985265
0.981015
0.973418
0.957033
0.930664
0.897484
0.862032
0.827575
0.795326
0.765673
0.74085
0.728889
0.740003
0.77587
0.825319
0.874362
0.91543
0.946539
0.968347
0.982514
0.990994
0.995663
0.998044
0.999181
0.999692
0.999905
0.999984
1.00001
1.00001
1.00001
1
1
1
1
1
1
1
1
1
1
1
1
1
1
1
1
1
1
1
1
1
1
1
1
1
0.999999
1
1.00001
0.999982
1.00001
1.00003
0.999941
1.00003
1.00003
0.999958
1.00001
1.00001
1
0.999987
1.00001
1
0.999998
1
1
1
1
1
1.00001
1.00001
1.00002
1.00002
1.00002
1.00003
1.00004
1.00003
1.00001
0.999943
0.999926
0.999828
1.00017
1.00028
1.00025
1.00103
1.00114
0.999991
1.0001
1.00172
1.00105
0.995911
0.989135
0.98383
0.978324
0.967584
0.94835
0.921538
0.890556
0.858594
0.827459
0.797687
0.769405
0.74595
0.736771
0.751949
0.790727
0.839809
0.886234
0.92393
0.95193
0.971427
0.984139
0.991811
0.996066
0.998238
0.99927
0.999728
0.999918
0.999988
1.00001
1.00001
1.00001
1
1
1
1
1
1
1
1
1
1
1
1
1
1
1
1
1
1
1
1
1
1
1
1
1
0.999999
1
0.999994
0.999997
1.00003
0.999961
1
1.00005
0.999952
1
1.00002
1
0.999984
1
1.00001
1
0.999994
1
1.00001
1
1
1
1.00001
1.00001
1.00002
1.00002
1.00003
1.00003
1.00004
1.00004
0.999985
0.999925
0.999853
0.999806
1.00029
1.00022
1.00048
1.0014
1.00091
0.999852
1.00079
1.00213
0.999952
0.994109
0.987883
0.982419
0.97466
0.960794
0.939842
0.913788
0.885346
0.856525
0.828591
0.801795
0.776229
0.756075
0.751521
0.771449
0.811699
0.858701
0.901335
0.934846
0.959086
0.975692
0.986463
0.992981
0.996618
0.998489
0.999379
0.999774
0.999935
0.999993
1.00001
1.00001
1.00001
1
1
1
1
1
1
1
1
1
1
1
1
1
1
1
1
1
1
1
1
1
1
1
1
1
1
0.999999
0.999995
1.00001
0.999987
0.999983
1.00005
0.999965
0.999985
1.00003
1
0.999987
0.999994
1.00001
1
0.999995
1
1
1
1
1
1.00001
1.00001
1.00001
1.00002
1.00002
1.00003
1.00004
1.00005
1.00006
0.999954
0.999916
0.999732
0.999854
1.00032
1.00019
1.00087
1.00154
1.00057
1.00014
1.00158
1.00195
0.998582
0.992809
0.986993
0.980423
0.970072
0.953895
0.932375
0.907467
0.881011
0.854668
0.8299
0.80687
0.785564
0.770378
0.771515
0.795191
0.834952
0.87853
0.91676
0.946022
0.966604
0.980326
0.989065
0.994321
0.997259
0.998775
0.9995
0.999822
0.999953
0.999999
1.00001
1.00001
1.00001
1
1
1
1
1
1
1
1
1
1
1
1
1
1
1
1
1
1
1
1
1
1
1
1
1
1
0.999998
1
1
0.999983
1.00003
0.999991
0.999971
1.00003
0.999999
0.999989
0.999991
1.00001
1
0.999999
0.999991
1
1.00001
0.999999
1
1
1.00001
1.00001
1.00001
1.00002
1.00002
1.00002
1.00004
1.00006
1.00007
0.999936
0.999888
0.999612
0.999918
1.00023
1.00031
1.00126
1.0014
1.00045
1.00075
1.00205
1.00134
0.997463
0.992023
0.985915
0.977658
0.965156
0.947712
0.926278
0.902248
0.877085
0.852822
0.831382
0.812815
0.796727
0.787654
0.794713
0.820963
0.859078
0.898397
0.931687
0.956544
0.973625
0.984706
0.991575
0.995635
0.997894
0.999062
0.999622
0.99987
0.99997
1
1.00001
1.00001
1.00001
1
1
1
1
1
1
1
1
1
1
1
1
1
1
1
1
1
1
1
1
1
1
1
1
1
1
1
1
0.999993
1.00001
1.00001
0.999972
1.00002
1
0.999988
0.999995
1.00001
1.00001
0.999995
0.999992
1
1
1
1
1
1.00001
1.00001
1.00001
1.00001
1.00002
1.00002
1.00002
1.00004
1.00008
1.00009
0.999942
0.999827
0.99954
0.999906
1.00011
1.00057
1.00146
1.0012
1.00063
1.00135
1.00214
1.00069
0.996778
0.991378
0.984377
0.974481
0.960551
0.942602
0.921416
0.897955
0.873806
0.851681
0.833872
0.819999
0.809485
0.807047
0.819753
0.847898
0.883807
0.918386
0.946305
0.966434
0.979932
0.988529
0.993758
0.996789
0.998455
0.999316
0.999729
0.999913
0.999985
1.00001
1.00001
1.00001
1.00001
1
1
1
1
1
1
1
1
1
1
1
1
1
1
1
1
1
1
1
1
1
1
1
1
1
1
1
0.999999
1
1.00001
0.999987
1.00001
1.00001
0.999987
1
1
1.00001
0.999994
0.999997
1
1.00001
1
0.999995
1
1.00001
1.00001
1
1.00001
1.00002
1.00002
1.00001
1.00001
1.00004
1.0001
1.00012
0.99998
0.999752
0.999509
0.999786
1.00002
1.00082
1.00149
1.00112
1.00099
1.00179
1.00201
1.00022
0.996358
0.990612
0.982551
0.971356
0.956602
0.938539
0.917666
0.894763
0.871834
0.85232
0.838448
0.829191
0.824299
0.828349
0.84602
0.875241
0.908237
0.937661
0.960083
0.97551
0.985507
0.99176
0.99554
0.997721
0.99891
0.999521
0.999815
0.999946
0.999997
1.00001
1.00001
1.00001
1.00001
1
1
1
1
1
1
1
1
1
1
1
1
1
1
1
1
1
1
1
1
1
1
1
1
1
1
1
0.999999
1
0.999998
0.999997
1.00001
0.999988
1
1
1
0.999998
0.999997
1
1
0.999999
0.999999
1
1
1
1
1.00001
1.00001
1.00002
1.00003
1.00001
0.999997
1.00002
1.00011
1.00017
1.00004
0.999709
0.999477
0.999594
0.999975
1.00094
1.00145
1.00119
1.00138
1.00202
1.00185
0.999971
0.996022
0.989732
0.980705
0.968588
0.953416
0.9355
0.915107
0.893009
0.871897
0.855732
0.846038
0.841223
0.841606
0.85127
0.872528
0.901398
0.930565
0.954603
0.971809
0.983064
0.990082
0.994368
0.996941
0.998435
0.999256
0.999679
0.999882
0.999971
1
1.00001
1.00001
1.00001
1.00001
1
1
1
1
1
1
1
1
1
1
1
1
1
1
1
1
1
1
1
1
1
1
1
1
1
1
1
1
1
0.999998
1
0.999997
0.999999
1
0.999999
0.999996
1
1
0.999998
1
1
1
1
1
1
1
1.00001
1
1.00001
1.00003
1.00002
0.999984
0.999985
1.00011
1.00022
1.00013
0.999735
0.999426
0.999396
0.999896
1.0009
1.00141
1.0014
1.0017
1.00213
1.00179
0.999851
0.995677
0.988837
0.979053
0.966339
0.951086
0.933597
0.913864
0.892976
0.874567
0.86256
0.857153
0.856347
0.861096
0.874864
0.897775
0.924666
0.949267
0.968057
0.980712
0.988615
0.993395
0.996263
0.997969
0.99896
0.999509
0.999794
0.999931
0.99999
1.00001
1.00001
1.00001
1.00001
1.00001
1
1
1
1
1
1
1
1
1
1
1
1
1
1
1
1
1
1
1
1
1
1
1
1
1
1
1
1
1
1
1
0.999996
1
0.999998
0.999998
1
1
0.999997
1
1
1
0.999999
1
1
1
1.00001
1.00001
1
1.00001
1.00003
1.00004
0.999987
0.999942
1.00006
1.00026
1.00024
0.999843
0.999394
0.999225
0.999717
1.00073
1.00138
1.00163
1.00194
1.00224
1.00181
0.999751
0.995348
0.98806
0.977699
0.964716
0.949795
0.932933
0.913961
0.894895
0.880259
0.872933
0.871371
0.873678
0.8817
0.898025
0.920791
0.944438
0.964142
0.978124
0.987033
0.992403
0.995601
0.997517
0.99866
0.999322
0.999687
0.999876
0.999965
1
1.00001
1.00002
1.00001
1.00001
1
1
1
1
1
1
1
1
1
1
1
1
1
1
1
1
1
1
1
1
1
1
1
1
1
1
1
1
1
1
1
0.999999
1
1
0.999998
1
1
0.999998
0.999999
1
1
0.999999
1
1
1
1
1
1.00001
1.00001
0.999996
1.00002
1.00006
1.00002
0.999905
0.999979
1.00025
1.00035
1.00002
0.999451
0.999096
0.999452
1.00045
1.00129
1.00179
1.00218
1.00239
1.00184
0.999708
0.995101
0.98737
0.976676
0.96395
0.949699
0.933391
0.915375
0.899118
0.889147
0.886118
0.887237
0.891785
0.902414
0.920139
0.941385
0.960982
0.975833
0.985617
0.991541
0.995026
0.9971
0.99836
0.99912
0.999563
0.999806
0.999931
0.999988
1.00001
1.00002
1.00001
1.00001
1.00001
1
1
1
1
1
1
1
1
1
1
1
1
1
1
1
1
1
1
1
1
1
1
1
1
1
1
1
1
1
1
1
1
1
0.999999
1
1
0.999999
0.999998
1
1
0.999998
1
1
1
1
1
0.999997
1.00001
1.00002
0.999993
0.999992
1.00007
1.00007
0.999907
0.999875
1.00016
1.00042
1.00025
0.999635
0.999065
0.99916
1.00005
1.00109
1.00187
1.00239
1.00258
1.002
0.99976
0.994816
0.986747
0.97623
0.964218
0.950572
0.934709
0.918357
0.906018
0.900628
0.900532
0.903268
0.909897
0.922785
0.940751
0.959282
0.974401
0.984766
0.991091
0.994746
0.996871
0.998155
0.998952
0.999442
0.999729
0.999887
0.999967
1
1.00002
1.00002
1.00001
1.00001
1.00001
1
1
1
1
1
1
1
1
1
1
1
1
1
1
1
1
1
1
1
1
1
1
1
1
1
1
1
1
1
1
1
1
0.999999
1
1
1
1
1
1
0.999999
1
1
1
0.999999
1
1
0.999998
0.999998
1.00002
1.00001
0.999964
1.00004
1.00013
0.999978
0.999802
0.999993
1.00039
1.00045
0.999938
0.9992
0.998933
0.999573
1.00072
1.00177
1.00251
1.00287
1.00232
0.999821
0.99449
0.986408
0.976527
0.9653
0.952046
0.936957
0.923297
0.915239
0.913306
0.914867
0.919039
0.9279
0.94221
0.958903
0.973737
0.984416
0.991014
0.994747
0.996838
0.998074
0.998851
0.999349
0.99966
0.999842
0.999942
0.999991
1.00001
1.00002
1.00002
1.00001
1.00001
1.00001
1
1
1
1
1
1
1
1
1
1
1
1
1
1
1
1
1
1
1
1
1
1
1
1
1
1
1
1
1
1
1
1
1
1
1
1
1
1
1
1
1
0.999999
1
1
0.999998
1
1.00001
0.999989
1.00001
1.00003
0.999969
0.999971
1.00013
1.0001
0.999827
0.999814
1.00022
1.00054
1.00028
0.999509
0.998887
0.99916
1.00021
1.00141
1.00249
1.00322
1.00273
0.999894
0.994295
0.98658
0.977562
0.966936
0.954
0.940348
0.930109
0.92586
0.926156
0.928843
0.93466
0.945317
0.959526
0.973492
0.984219
0.991036
0.994853
0.996903
0.998065
0.998795
0.99928
0.999599
0.999799
0.999915
0.999977
1.00001
1.00002
1.00002
1.00001
1.00001
1.00001
1
1
1
1
1
1
1
1
1
1
1
1
1
1
1
1
1
1
1
1
1
1
1
1
1
1
1
1
1
1
1
1
1
1
1
1
1
1
0.999999
1
1
1
0.999999
1
1
0.999999
0.999997
1.00001
0.999997
0.999987
1.00004
1.00002
0.999927
1.00005
1.00019
0.999969
0.999728
0.999967
1.00044
1.00054
0.999913
0.999085
0.998952
0.999641
1.00082
1.00229
1.00348
1.00307
1
0.994488
0.987487
0.979252
0.968894
0.956517
0.945173
0.938596
0.937225
0.938792
0.942488
0.949862
0.961175
0.973669
0.984068
0.990986
0.994902
0.996957
0.998078
0.998767
0.999232
0.99955
0.999759
0.999888
0.999961
0.999998
1.00001
1.00002
1.00002
1.00001
1.00001
1.00001
1
1
1
1
1
1
1
1
1
1
1
1
1
1
1
1
1
1
1
1
1
1
1
1
1
1
1
1
1
1
1
1
1
1
1
1
1
1
1
1
1
1
1
1
1
1
0.999996
1
1.00001
0.99998
1.00001
1.00006
0.999957
0.999941
1.00015
1.00014
0.999817
0.999763
1.00019
1.00059
1.00027
0.999491
0.999014
0.999181
1.00017
1.00191
1.00342
1.00311
1.00017
0.995228
0.989102
0.981375
0.971234
0.960095
0.9517
0.948357
0.948782
0.951056
0.955744
0.964019
0.974498
0.984122
0.990923
0.994874
0.996942
0.998053
0.998731
0.999192
0.999512
0.999727
0.999864
0.999945
0.99999
1.00001
1.00002
1.00002
1.00002
1.00001
1.00001
1.00001
1
1
1
1
1
1
1
1
1
1
1
1
1
1
1
1
1
1
1
1
1
1
1
1
1
1
1
1
1
1
1
1
1
1
1
1
1
1
1
1
1
1
1
1
0.999998
1
1
0.999993
1.00001
1
0.999974
1.00004
1.00003
0.999919
1.00002
1.00019
1.00002
0.999747
0.999926
1.00039
1.00044
0.999959
0.999311
0.998985
0.999653
1.00137
1.00294
1.00277
1.00036
0.996388
0.991147
0.983756
0.974118
0.96495
0.959755
0.958879
0.960074
0.962628
0.967911
0.975955
0.984399
0.990901
0.994859
0.996959
0.998073
0.998741
0.999189
0.9995
0.999712
0.999849
0.999934
0.999982
1.00001
1.00002
1.00002
1.00002
1.00001
1.00001
1.00001
1
1
1
1
1
1
1
1
1
1
1
1
1
1
1
1
1
1
1
1
1
1
1
1
1
1
1
1
1
1
1
1
1
1
1
1
1
1
1
1
1
1
1
1
1
1
0.999999
1
0.999997
0.999997
1.00001
0.999986
0.999991
1.00006
0.999993
0.999939
1.00009
1.00014
0.999912
0.99982
1.00008
1.00037
1.00028
0.999701
0.999127
0.999442
1.00078
1.00207
1.00206
1.00051
0.997734
0.993225
0.986049
0.977459
0.971089
0.968885
0.969085
0.969933
0.972458
0.977871
0.984842
0.990915
0.994889
0.997061
0.998196
0.998842
0.999253
0.999529
0.999718
0.999844
0.999926
0.999976
1
1.00002
1.00002
1.00002
1.00002
1.00001
1.00001
1.00001
1
1
1
1
1
1
1
1
1
1
1
1
1
1
1
1
1
1
1
1
1
1
1
1
1
1
1
1
1
1
1
1
1
1
1
1
1
1
1
1
1
1
1
1
1
1
0.999999
0.999999
1
0.999994
1
1.00001
0.999979
1.00001
1.00005
0.999975
0.999982
1.00011
1.00008
0.999901
0.999892
1.00016
1.00032
1.00001
0.999523
0.999534
1.00023
1.001
1.0012
1.00065
0.998887
0.994665
0.987921
0.981498
0.978285
0.977522
0.977002
0.97721
0.980128
0.985525
0.991069
0.995015
0.997231
0.998357
0.998956
0.999317
0.999558
0.999726
0.999842
0.999921
0.999971
1
1.00002
1.00002
1.00002
1.00002
1.00001
1.00001
1.00001
1
1
1
1
1
1
1
1
1
1
1
1
1
1
1
1
1
1
1
1
1
1
1
1
1
1
1
1
1
1
1
1
1
1
1
1
1
1
1
1
1
1
1
1
1
1
1
1
0.999998
1
1
0.999993
1.00001
1.00001
0.999982
1.00002
1.00003
0.999975
1.00001
1.0001
1.00003
0.99991
0.99999
1.00016
1.00015
0.99993
0.999747
0.999817
1.00015
1.00062
1.00073
0.999171
0.995001
0.989787
0.986343
0.984834
0.983251
0.981721
0.982612
0.986567
0.991504
0.995295
0.997452
0.998515
0.999059
0.999381
0.999595
0.999744
0.999849
0.999922
0.999969
0.999999
1.00001
1.00002
1.00002
1.00002
1.00002
1.00001
1.00001
1.00001
1
1
1
1
1
1
1
1
1
1
1
1
1
1
1
1
1
1
1
1
1
1
1
1
1
1
1
1
1
1
1
1
1
1
1
1
1
1
1
1
1
1
1
1
1
1
1
1
1
0.999998
1
1
0.999994
1.00001
1
0.99999
1.00003
1.00002
0.999994
1.00003
1.00007
1.00001
0.999949
1.00001
1.00014
1.00011
0.999876
0.999699
0.99991
1.00043
1.00029
0.998343
0.99504
0.992267
0.990459
0.988219
0.985732
0.985383
0.988184
0.992349
0.995722
0.997682
0.998662
0.999167
0.99946
0.999648
0.999775
0.999865
0.999928
0.999971
0.999998
1.00001
1.00002
1.00002
1.00002
1.00002
1.00001
1.00001
1.00001
1
1
1
1
1
1
1
1
1
1
1
1
1
1
1
1
1
1
1
1
1
1
1
1
1
1
1
1
1
1
1
1
1
1
1
1
1
1
1
1
1
1
1
1
1
1
1
1
1
1
1
0.999998
1
0.999999
0.999997
1.00001
0.999999
0.999997
1.00003
1.00002
1.00001
1.00004
1.00004
0.999995
0.999995
1.00005
1.00005
0.999949
0.999921
1.00009
1.0001
0.999275
0.997615
0.995908
0.9943
0.991992
0.989379
0.988498
0.990317
0.993486
0.996227
0.997923
0.99882
0.999287
0.999547
0.999706
0.999811
0.999884
0.999936
0.999973
0.999998
1.00001
1.00002
1.00002
1.00002
1.00002
1.00001
1.00001
1.00001
1
1
1
1
1
1
1
1
1
1
1
1
1
1
1
1
1
1
1
1
1
1
1
1
1
1
1
1
1
1
1
1
1
0.999999
1
1
0.999999
1
1
1
1
0.999999
1
1
1
1
1
1
0.999999
1
1
1
1
0.999998
1
0.999999
0.999998
1.00001
1
1.00001
1.00002
1.00002
1.00002
1.00003
1.00004
1.00002
0.999984
0.999988
1.00006
1.00013
1.00003
0.999583
0.998831
0.997982
0.996822
0.994885
0.992672
0.991685
0.992675
0.994806
0.996836
0.998211
0.998995
0.999412
0.999638
0.999768
0.999851
0.999908
0.999949
0.999979
1
1.00001
1.00002
1.00002
1.00002
1.00002
1.00002
1.00001
1.00001
1.00001
1
1
1
1
1
1
1
1
1
1
1
1
1
1
1
1
1
1
1
1
1
1
1
1
1
1
1
1
1
1
1
1
1
1
1
1
1
1
1
1
1
1
1
1
1
1
1
1
1
1
1
1
1
0.999999
0.999999
1
0.999998
1
1.00001
1
1.00001
1.00003
1.00002
1.00003
1.00004
1.00002
0.999992
1.00002
1.00007
1.00004
0.999857
0.999579
0.999208
0.99846
0.997073
0.995463
0.994603
0.995
0.996222
0.997539
0.998546
0.99918
0.999538
0.999728
0.999832
0.999894
0.999935
0.999964
0.999986
1
1.00002
1.00002
1.00003
1.00002
1.00002
1.00002
1.00001
1.00001
1.00001
1
1
1
1
1
1
1
1
1
1
1
1
1
1
1
1
1
1
1
1
1
1
1
1
1
1
1
0.999999
1
0.999999
1
0.999999
1
1
0.999999
1
0.999999
1
1
1
1
0.999999
1
1
1
1
1
1
1
1
1
1
1
1
1
0.999999
0.999999
1
0.999999
1
1
1.00001
1.00002
1.00003
1.00003
1.00002
1.00002
1.00003
1.00002
0.999989
0.999956
0.999933
0.999828
0.999425
0.998595
0.997602
0.996985
0.997034
0.997579
0.998278
0.998903
0.999367
0.999654
0.999811
0.999893
0.999936
0.999961
0.999978
0.999993
1.00001
1.00002
1.00002
1.00003
1.00003
1.00002
1.00002
1.00001
1.00001
1.00001
1
1
1
1
1
1
1
1
1
1
1
1
1
1
1
1
1
1
1
1
1
1
1
1
1
0.999999
1
1
1
1
0.999998
1
0.999997
1
1
0.999999
1
0.999998
1
1
1
0.999999
1
1
0.999999
1
1
1
1
1
1
1
1
0.999999
1
1
1
0.999999
1
1
1
1
1.00001
1.00001
1.00002
1.00003
1.00003
1.00003
1.00003
1
0.999987
1
0.999995
0.999837
0.999467
0.998997
0.99865
0.99856
0.998693
0.998949
0.999258
0.999548
0.999759
0.999884
0.999946
0.999975
0.999985
0.999992
1
1.00001
1.00002
1.00002
1.00003
1.00003
1.00002
1.00002
1.00002
1.00001
1.00001
1.00001
1
1
1
1
1
1
1
1
1
1
1
1
1
1
1
1
1
1
1
1
1
1
1
1
1
1
1
1
1
1
1
1
0.999999
1
0.999997
1
0.999998
1
1
0.999997
1
0.999999
1
1
1
1
0.999999
1
1
0.999999
0.999999
1
1
1
1
1
1
1
1
0.999999
1
1
1
1.00001
1.00002
1.00003
1.00003
1.00003
1.00002
1.00001
1.00002
1.00001
0.999951
0.999842
0.9997
0.999569
0.999479
0.999436
0.999457
0.999558
0.999711
0.999852
0.999942
0.999989
1.00001
1.00001
1.00001
1.00001
1.00001
1.00002
1.00002
1.00003
1.00003
1.00003
1.00002
1.00002
1.00001
1.00001
1.00001
1
1
1
1
1
1
1
1
1
1
1
1
1
1
1
1
1
1
1
1
1
1
1
1
1
0.999999
1
0.999999
1
1
0.999997
1
0.999996
1
0.999998
0.999999
1
0.999995
1
0.999997
1
1
0.999998
1
0.999999
1
1
0.999999
1
1
1
1
0.999999
1
1
1
1
1
1
1
1
1
1
1
1.00001
1.00001
1.00002
1.00003
1.00003
1.00003
1.00002
1.00001
0.999991
0.999968
0.999949
0.999924
0.999877
0.999812
0.999763
0.999771
0.999839
0.999923
0.999985
1.00002
1.00002
1.00002
1.00002
1.00001
1.00002
1.00002
1.00002
1.00003
1.00003
1.00003
1.00002
1.00002
1.00001
1.00001
1.00001
1
1
1
1
1
1
1
1
1
1
1
1
1
1
1
1
1
1
1
1
1
1
1
1
1
1
1
0.999998
1
0.999995
1.00001
0.999995
1
0.999997
1
0.999996
1
0.999996
1
1
0.999995
1.00001
0.999995
1
1
0.999998
1
0.999999
1
1
0.999998
1
1
0.999999
1
1
1
1
1
1
1
1
1
1
1
1
1.00001
1.00002
1.00003
1.00003
1.00003