/*--------------------------------*- C++ -*----------------------------------*\
  =========                 |
  \\      /  F ield         | OpenFOAM: The Open Source CFD Toolbox
   \\    /   O peration     | Website:  https://openfoam.org
    \\  /    A nd           | Version:  6
     \\/     M anipulation  |
\*---------------------------------------------------------------------------*/
FoamFile
{
    version     2.0;
    format      ascii;
    class       surfaceVectorField;
    location    "1.17";
    object      Uf;
}
// * * * * * * * * * * * * * * * * * * * * * * * * * * * * * * * * * * * * * //

dimensions      [0 1 -1 0 0 0 0];

internalField   nonuniform List<vector> 
1540
(
(20.2158 0.322363 0)
(-6.72131 4.26757 0)
(21.2739 -0.282442 0)
(19.717 -0.0773451 0)
(21.308 0.259079 0)
(0.980999 -0.002495 0)
(22.728 -0.933005 0)
(15.9967 -0.103786 0)
(23.0733 -0.417154 0)
(-1.55547 -0.0252397 0)
(20.8339 0.207471 0)
(21.6557 0.163696 0)
(21.1052 0.309836 0)
(18.887 -0.019821 0)
(22.5075 0.121639 0)
(19.5626 -0.102511 0)
(22.5168 0.310594 0)
(16.9061 -0.0006691 0)
(21.3023 -0.0147172 0)
(21.5306 0.0887712 0)
(21.4749 -0.436982 0)
(13.9101 -0.0107887 0)
(21.8734 -0.485668 0)
(4.11446 -0.0249102 0)
(20.0139 1.59402 0)
(15.2661 0.116219 0)
(18.9878 -1.83246 0)
(16.6752 0.0641295 0)
(-0.837111 -5.35181 0)
(10.5213 1.23906 0)
(15.1398 -1.56971 0)
(1.18631 -0.998563 0)
(6.55245 -3.14048 0)
(8.62537 0.536711 0)
(-9.89871 0.494819 0)
(6.7054 1.0282 0)
(-6.93476 0.681729 0)
(-6.30279 -0.185249 0)
(11.8523 -0.433424 0)
(-4.72925 1.86571 0)
(-5.22467 4.46595 0)
(1.62882 -0.513048 0)
(3.0213 -0.542105 0)
(-10.7108 -0.21906 0)
(0.994944 0.899502 0)
(-4.03677 0.741748 0)
(7.21129 -0.591635 0)
(-4.21834 -1.38976 0)
(-2.97873 -0.0119676 0)
(16.7554 -1.45928 0)
(15.7474 -1.36943 0)
(15.387 -0.846275 0)
(13.3714 0.0802096 0)
(18.5569 -0.499773 0)
(14.4478 -0.334224 0)
(14.3464 -0.506136 0)
(8.55374 0.307117 0)
(14.5295 0.276035 0)
(19.4304 0.0753821 0)
(-5.73133 0.382366 0)
(4.58961 1.25551 0)
(-4.90702 -1.05294 0)
(11.705 -0.0764318 0)
(14.415 -0.754276 0)
(4.50901 -1.09141 0)
(4.06019 3.58541 0)
(17.3121 0.711305 0)
(15.6129 5.22759 0)
(10.483 0.517015 0)
(2.57508 1.53742 0)
(-19.6709 -0.183703 0)
(-1.07477 3.55921 0)
(2.31865 0.764826 0)
(21.8714 -1.01038 0)
(21.7056 -0.405944 0)
(-5.53513 -2.49005 0)
(6.10657 1.52766 0)
(2.61386 -0.779372 0)
(4.55948 2.43271 0)
(-6.17013 3.98535 0)
(5.77632 0.660918 0)
(-1.09542 -0.631054 0)
(12.0061 -0.241395 0)
(-6.56372 0.444115 0)
(13.7409 -0.352898 0)
(7.35455 -0.718433 0)
(14.8372 2.56281 0)
(-7.48021 -0.0921047 0)
(9.53353 1.06387 0)
(16.5779 -0.981739 0)
(9.94899 0.555932 0)
(-7.66079 0.0498478 0)
(10.5616 0.919288 0)
(16.8254 -0.379004 0)
(11.8455 1.18495 0)
(0.782051 0.213271 0)
(10.0014 0.266586 0)
(21.5721 0.21018 0)
(20.5954 0.120271 0)
(-13.6906 0.593387 0)
(19.6149 0.65844 0)
(21.383 -0.0151541 0)
(9.19702 -1.50424 0)
(-22.3716 -0.440291 0)
(22.0885 -3.18555 0)
(-1.67926 -0.0944143 0)
(-23.8757 -2.51173 0)
(-0.395516 3.38978 0)
(-13.2317 -0.256852 0)
(-33.5477 -0.848956 0)
(15.8155 -2.3147 0)
(2.72188 -1.05062 0)
(13.9712 3.16337 0)
(6.09834 -0.290675 0)
(-1.09605 3.80159 0)
(1.0304 2.46936 0)
(10.6253 -0.847877 0)
(-9.93095 1.69097 0)
(-5.81015 4.56396 0)
(-11.2625 -0.191356 0)
(-3.21154 -0.533718 0)
(-16.0367 1.0994 0)
(-4.66971 0.793093 0)
(-9.17204 -1.77069 0)
(-0.165304 -1.22022 0)
(-8.73341 -5.3973 0)
(-4.8358 -0.124168 0)
(-2.29366 -1.88154 0)
(8.85194 -1.45247 0)
(-3.3499 -0.981862 0)
(-3.13333 0.127064 0)
(13.2203 -1.43064 0)
(9.36069 -1.59025 0)
(9.16856 -0.218288 0)
(6.34402 0.509449 0)
(-0.0166632 1.64894 0)
(13.0861 0.881593 0)
(-13.549 1.75167 0)
(-1.65404 1.43916 0)
(-22.6515 0.292064 0)
(-1.21397 0.553749 0)
(-31.9542 3.3689 0)
(-10.8219 0.14113 0)
(-24.1124 5.13152 0)
(-18.9518 -0.58453 0)
(-9.95463 1.41927 0)
(7.81281 2.50492 0)
(-13.1889 -1.32921 0)
(-24.3741 -0.646813 0)
(-14.4472 0.718118 0)
(-1.10801 -0.971985 0)
(-0.315591 -2.77723 0)
(-0.318632 -1.1739 0)
(-1.06553 -2.75665 0)
(-6.26981 2.51623 0)
(13.3247 -0.914474 0)
(3.14036 1.93975 0)
(-6.32641 4.18709 0)
(4.59746 0.0391877 0)
(-4.19337 -0.640229 0)
(6.6503 -2.3518 0)
(-6.34683 0.643032 0)
(8.97402 1.1277 0)
(-1.38498 -1.39007 0)
(8.6956 5.36687 0)
(-7.05537 -0.103816 0)
(7.40794 1.39108 0)
(7.45725 -1.35834 0)
(7.35658 0.247088 0)
(8.11666 0.130825 0)
(7.26536 0.23921 0)
(0.877478 -1.58358 0)
(9.50009 0.220317 0)
(3.87176 0.346104 0)
(11.6125 -0.534734 0)
(5.94556 0.727174 0)
(10.4338 -0.492182 0)
(-3.67011 1.51283 0)
(7.24269 0.137081 0)
(7.39473 0.753192 0)
(2.2272 -3.32892 0)
(9.3844 0.454598 0)
(14.7481 -1.00913 0)
(1.97594 -1.36709 0)
(-6.93916 2.01626 0)
(2.2733 3.86037 0)
(-8.49731 -1.57854 0)
(-21.1393 -0.549431 0)
(6.52511 -3.34159 0)
(-5.21859 -1.91089 0)
(-0.0732498 5.28529 0)
(0.988561 -0.761504 0)
(-4.60433 4.83587 0)
(-11.8775 2.79942 0)
(15.9341 -1.20225 0)
(-11.5577 1.8273 0)
(-6.43488 4.88461 0)
(-14.5141 0.262076 0)
(-4.29912 -0.424121 0)
(-17.5854 1.46856 0)
(-6.51492 0.867533 0)
(-13.5847 -3.04197 0)
(-4.23865 -1.6825 0)
(-11.7179 -6.85308 0)
(-6.65836 -0.240274 0)
(8.55497 -2.45159 0)
(2.95272 -2.84024 0)
(-0.615089 -1.45893 0)
(15.2273 0.801141 0)
(1.49838 -0.980383 0)
(-3.69561 -1.73807 0)
(0.303744 2.13536 0)
(13.9878 0.433436 0)
(-9.5666 3.42396 0)
(2.90045 1.44867 0)
(-6.22788 2.94597 0)
(5.76249 1.30416 0)
(4.70087 1.42716 0)
(-0.189413 0.0701433 0)
(7.59068 1.5808 0)
(5.6754 0.273984 0)
(-7.68527 1.95511 0)
(-10.034 -0.412344 0)
(-12.101 0.864186 0)
(-2.04729 4.13635 0)
(-15.225 -0.032272 0)
(-14.2215 -0.354187 0)
(-15.8003 0.826494 0)
(-8.34708 -1.87493 0)
(-5.18962 -4.04934 0)
(-8.00599 -1.42467 0)
(-2.48282 -3.44597 0)
(-16.7362 2.63025 0)
(19.0018 -1.35742 0)
(2.93655 2.45277 0)
(-6.53399 4.52264 0)
(3.70412 0.221261 0)
(-2.76562 -0.480229 0)
(4.13925 -2.1542 0)
(-3.5982 0.835724 0)
(6.31075 0.844821 0)
(-4.69565 -1.84122 0)
(4.9068 3.04617 0)
(-4.6485 -0.137648 0)
(10.4506 -0.57227 0)
(2.64626 -3.24547 0)
(9.66581 -0.532884 0)
(-1.05722 0.85851 0)
(12.303 -1.06115 0)
(-1.63152 -1.93084 0)
(16.451 -1.2539 0)
(2.51054 0.13023 0)
(16.7794 -0.884985 0)
(10.1633 1.42466 0)
(12.4535 -1.6934 0)
(2.66424 1.57452 0)
(-3.48839 -1.56049 0)
(13.5212 1.06651 0)
(-14.9067 -0.939239 0)
(-12.787 0.987628 0)
(-1.24076 2.81566 0)
(-24.2834 -1.26646 0)
(-4.02625 2.58767 0)
(-2.02858 4.31045 0)
(-5.84742 -2.99019 0)
(-10.9888 -0.240367 0)
(-4.0756 -3.73512 0)
(-10.4361 -1.98567 0)
(-14.404 6.02743 0)
(-6.85903 -0.77915 0)
(-4.84749 4.66242 0)
(-21.1473 2.03297 0)
(20.186 -1.66039 0)
(-10.0453 1.58847 0)
(-6.28785 5.10961 0)
(-10.5095 -0.198705 0)
(-2.71353 -0.446298 0)
(-14.6822 1.17494 0)
(-6.07907 1.14074 0)
(-12.4102 -1.70884 0)
(-4.42975 -2.00729 0)
(-9.73636 -5.24348 0)
(4.85999 -0.333096 0)
(-8.01941 -0.631336 0)
(0.0586355 -3.37098 0)
(-14.6563 0.841678 0)
(4.90048 1.34366 0)
(-8.42772 -0.284419 0)
(-4.5905 -2.38614 0)
(-4.22388 3.05419 0)
(1.6251 -0.177053 0)
(-4.23339 3.6649 0)
(2.09565 1.42536 0)
(4.32572 4.69724 0)
(0.807992 1.03958 0)
(2.28794 3.98196 0)
(16.3467 1.19387 0)
(-24.7089 0.449056 0)
(-9.68123 2.67493 0)
(-22.4705 -0.171038 0)
(-21.9518 -1.40637 0)
(-8.51909 1.33359 0)
(5.04817 3.43849 0)
(-14.5154 1.22041 0)
(-9.43748 0.134401 0)
(-16.3679 0.954532 0)
(-9.78095 -1.86989 0)
(-8.15493 -4.92296 0)
(-11.5518 -1.29246 0)
(-4.74432 -3.89005 0)
(-25.624 1.8198 0)
(21.9292 -1.95691 0)
(3.27378 3.2062 0)
(-6.48141 4.72299 0)
(0.515717 1.21121 0)
(-5.82972 -0.244691 0)
(2.66866 -2.29794 0)
(-5.75555 0.98336 0)
(15.1337 -2.03449 0)
(-0.00086291 -2.91845 0)
(12.3533 0.00221854 0)
(4.88058 -0.12985 0)
(13.6708 -2.82322 0)
(0.926074 -3.46728 0)
(12.5309 -3.49658 0)
(3.97582 1.42698 0)
(8.92811 -2.40353 0)
(-0.667236 -2.12278 0)
(7.56995 -1.53723 0)
(-9.14923 -0.0777678 0)
(6.44299 -1.48326 0)
(6.45576 1.50773 0)
(13.3747 -2.90065 0)
(-6.3828 0.606347 0)
(3.66535 -0.169536 0)
(18.89 1.80071 0)
(-8.59711 0.381024 0)
(-8.89187 3.44133 0)
(7.44948 2.70582 0)
(-7.2968 -2.40928 0)
(5.20677 2.88792 0)
(5.70091 3.57865 0)
(-4.13641 -3.98174 0)
(-8.28824 0.718346 0)
(-7.9595 -4.16131 0)
(-12.912 -1.63095 0)
(-23.1451 5.86343 0)
(-17.0736 -0.343365 0)
(-6.89567 3.19564 0)
(-30.401 0.804215 0)
(21.0948 -2.38789 0)
(-13.3442 1.59631 0)
(-7.04778 5.5511 0)
(-13.7356 -0.453164 0)
(-9.27483 -0.216081 0)
(-9.78162 0.397425 0)
(1.79446 0.694333 0)
(-8.05572 -0.0697165 0)
(-0.0524869 -3.04461 0)
(-8.98664 -2.44753 0)
(2.80977 -0.0618007 0)
(-7.98865 1.78022 0)
(0.206213 -3.54023 0)
(-11.705 3.54491 0)
(1.55408 1.69864 0)
(-15.7119 -0.52517 0)
(-5.45786 -1.82988 0)
(-10.2535 2.13623 0)
(-18.4667 -0.476761 0)
(-6.24566 3.44322 0)
(-5.03 1.21477 0)
(-0.255677 4.52909 0)
(-9.34798 0.231973 0)
(5.88524 4.18304 0)
(4.00288 1.4169 0)
(-8.61667 0.776592 0)
(-9.5308 4.3477 0)
(-7.81509 -1.58537 0)
(-1.94631 -2.45938 0)
(-5.9443 0.971934 0)
(8.12295 3.46173 0)
(-17.1882 4.15157 0)
(-3.33745 1.42108 0)
(-24.7114 2.87604 0)
(-6.1019 -1.16075 0)
(-17.9105 -5.22252 0)
(-21.6532 -0.768424 0)
(-10.0914 -4.11936 0)
(-30.1375 0.315523 0)
(19.948 -3.01861 0)
(-0.813152 2.86697 0)
(-7.16292 5.46322 0)
(4.3007 0.387674 0)
(-4.39909 -0.589892 0)
(10.505 -2.7388 0)
(0.524663 0.240809 0)
(13.1505 -3.62219 0)
(0.307348 -3.23797 0)
(9.2228 -1.86271 0)
(-2.78578 0.225302 0)
(10.8468 -3.59979 0)
(-1.81879 -3.65894 0)
(4.89933 -3.21752 0)
(-4.51582 2.13339 0)
(-5.55921 -0.0675184 0)
(17.4494 -1.06539 0)
(-12.4095 0.963495 0)
(-14.849 0.023981 0)
(-8.97716 -0.124291 0)
(14.5074 0.963872 0)
(-4.26278 -1.97724 0)
(-10.3535 -0.062676 0)
(-11.7857 1.81976 0)
(-7.32328 1.88708 0)
(-3.24532 0.472384 0)
(-10.0843 3.81393 0)
(14.4026 2.26992 0)
(1.86618 -3.56238 0)
(13.01 4.40735 0)
(8.88424 3.54877 0)
(7.42999 -4.51639 0)
(-6.51155 1.76983 0)
(-5.48867 -5.56003 0)
(-9.11572 -0.353333 0)
(-26.6649 4.897 0)
(-14.6958 0.555087 0)
(-8.17188 1.32097 0)
(-29.9204 -0.84029 0)
(17.9975 -3.52935 0)
(-8.57728 2.57036 0)
(-6.68429 5.94289 0)
(-10.4545 0.0168899 0)
(-5.10173 -0.452674 0)
(-10.5103 0.236138 0)
(1.60332 0.244885 0)
(-13.3584 1.2777 0)
(-0.039943 -3.02978 0)
(-16.675 -0.58683 0)
(-3.99135 0.467736 0)
(-15.6093 1.13465 0)
(-3.13958 -3.73684 0)
(4.36589 3.51395 0)
(9.21225 0.673257 0)
(11.0215 -1.72956 0)
(16.3621 -1.5519 0)
(13.7744 -2.13256 0)
(-13.5013 -0.177241 0)
(13.8588 -0.769087 0)
(7.00017 0.9577 0)
(-12.7182 3.1006 0)
(-11.129 1.59839 0)
(-5.99737 4.43223 0)
(-13.7755 1.46703 0)
(-5.03526 0.551269 0)
(-10.1883 3.7538 0)
(-3.62391 -2.09819 0)
(2.83503 -3.65059 0)
(-8.40534 0.569995 0)
(10.3418 3.84761 0)
(-23.213 6.51541 0)
(-2.86109 2.69531 0)
(-20.6188 6.1448 0)
(-6.03141 -0.515472 0)
(-9.94167 -5.35056 0)
(-9.42686 -0.112237 0)
(-12.4418 -5.54396 0)
(-29.7896 -0.684033 0)
(16.2166 -4.30696 0)
(-1.1811 2.37821 0)
(-6.83991 5.88191 0)
(4.90261 -1.24167 0)
(-4.95087 -0.89738 0)
(11.4808 -3.54993 0)
(-2.71411 -0.235966 0)
(11.6543 -4.30631 0)
(0.920291 -3.04246 0)
(6.80094 -3.51992 0)
(-2.15522 0.822505 0)
(23.1851 -3.24427 0)
(4.82348 -4.93449 0)
(17.217 -3.56717 0)
(15.0549 1.10952 0)
(-5.14884 0.399872 0)
(0.0211192 0.0829809 0)
(-18.643 3.35678 0)
(-16.9653 0.809153 0)
(-18.0355 3.79196 0)
(-3.24413 0.913291 0)
(-11.693 1.28326 0)
(-14.9115 1.20198 0)
(-18.4768 1.12486 0)
(-15.1872 1.89102 0)
(-2.06898 -1.01883 0)
(-7.49306 2.72831 0)
(16.5786 1.95109 0)
(3.24894 -4.81606 0)
(17.7249 6.08377 0)
(8.9209 3.77596 0)
(14.5019 -4.44601 0)
(-11.7492 2.89675 0)
(2.96807 -6.34963 0)
(0.540908 0.205389 0)
(-21.6268 4.68492 0)
(-12.6403 1.42494 0)
(-9.26824 0.192159 0)
(-26.2896 -1.45645 0)
(13.7705 -4.88623 0)
(-8.76198 3.07533 0)
(-6.34025 6.37507 0)
(-14.3775 0.994604 0)
(-4.21196 -0.486902 0)
(-13.8015 0.745634 0)
(-2.29731 -0.278074 0)
(-10.6246 2.18053 0)
(-1.01641 -3.27467 0)
(-6.57778 -0.258107 0)
(-1.96258 0.526691 0)
(-2.03002 -1.3115 0)
(4.58141 -5.26692 0)
(-7.20762 3.65623 0)
(9.01183 1.48799 0)
(-8.21277 0.130065 0)
(8.91362 0.156453 0)
(0.183016 -0.583408 0)
(-13.7831 0.195447 0)
(-0.48679 -1.00244 0)
(-3.24884 0.96225 0)
(-17.9362 0.482915 0)
(-15.9448 2.29257 0)
(-5.09676 2.93145 0)
(-11.846 1.08855 0)
(-1.57365 -0.361444 0)
(-7.32402 2.50812 0)
(-4.75672 -2.52879 0)
(4.31285 -4.61712 0)
(-19.2453 0.458153 0)
(7.24427 4.6815 0)
(-25.0517 7.43819 0)
(-6.80019 3.25964 0)
(-17.3005 7.79437 0)
(4.08929 -0.279056 0)
(-10.6107 -4.75869 0)
(-7.95079 1.00683 0)
(-10.1861 -6.54396 0)
(-23.4782 -1.48299 0)
(12.9398 -5.52286 0)
(-0.0230346 2.3169 0)
(-6.70354 6.22944 0)
(6.13891 -2.68361 0)
(-4.41348 -0.937325 0)
(10.0188 -4.70086 0)
(-3.92357 -0.561685 0)
(9.76073 -4.8108 0)
(-1.19931 -3.2558 0)
(7.14217 -4.73854 0)
(-0.93476 0.718101 0)
(16.5183 -1.88372 0)
(6.73742 -5.95229 0)
(20.7611 -1.3519 0)
(10.8071 1.17786 0)
(6.31377 0.541533 0)
(22.183 1.21251 0)
(-15.5411 1.27859 0)
(-9.14439 1.79299 0)
(-18.7826 3.08135 0)
(-6.40402 1.19919 0)
(-9.47606 3.63032 0)
(-14.0728 1.71091 0)
(-15.4345 1.50085 0)
(-7.8064 1.46095 0)
(-0.455275 -2.3795 0)
(-4.39726 1.57192 0)
(15.9518 1.87818 0)
(3.01015 -5.64256 0)
(20.5004 7.03233 0)
(4.65476 4.39721 0)
(23.488 -4.90578 0)
(-12.2779 3.07292 0)
(11.1458 -7.04706 0)
(8.81568 0.492332 0)
(-14.6983 4.1586 0)
(-10.814 2.62208 0)
(-6.69528 -0.616532 0)
(-17.8484 -1.98317 0)
(11.7122 -5.94132 0)
(-9.41519 3.48949 0)
(-6.09682 6.77035 0)
(-16.0689 2.10762 0)
(-3.76982 -0.450953 0)
(-15.5437 1.1835 0)
(-2.21885 -0.600081 0)
(-9.9452 1.90391 0)
(-3.69931 -3.66503 0)
(-2.95816 -0.597193 0)
(2.8994 0.207368 0)
(1.38503 -3.33188 0)
(5.91947 -6.26976 0)
(9.54171 3.1417 0)
(8.39889 0.581632 0)
(8.44857 1.75712 0)
(4.57575 1.29242 0)
(1.12374 2.03588 0)
(-8.41011 2.32842 0)
(-1.77454 1.04694 0)
(-4.92426 1.41105 0)
(-11.9783 -1.09716 0)
(-13.4919 2.34864 0)
(1.05625 0.511905 0)
(0.56327 0.646289 0)
(0.578738 -1.10232 0)
(-3.81287 1.60176 0)
(-8.58386 -2.39756 0)
(4.12192 -5.0699 0)
(-27.7226 0.8917 0)
(0.821718 5.59338 0)
(-25.2222 8.7101 0)
(-13.3268 2.91664 0)
(-15.6281 9.86378 0)
(5.59971 -0.107305 0)
(-8.68009 -3.66754 0)
(-6.91303 2.18783 0)
(-4.96708 -7.45149 0)
(-14.2848 -2.21524 0)
(12.5671 -6.25176 0)
(1.07513 2.33875 0)
(-6.43256 6.54444 0)
(8.6554 -3.94404 0)
(-1.56429 -1.00505 0)
(9.2717 -5.58707 0)
(-1.92652 -0.645134 0)
(10.7492 -4.96507 0)
(-2.7274 -3.77303 0)
(10.6165 -5.30935 0)
(2.20521 0.217069 0)
(13.126 -1.99045 0)
(4.8304 -6.45321 0)
(1.21619 -0.520314 0)
(10.4915 1.45222 0)
(-11.0677 2.41195 0)
(-4.10365 2.19034 0)
(-13.6308 1.10287 0)
(-11.5666 2.51578 0)
(-16.4927 1.56752 0)
(-9.93194 1.62024 0)
(-0.445587 4.67432 0)
(-12.6606 1.3457 0)
(-7.29346 2.58917 0)
(6.80012 1.07428 0)
(1.69358 -3.07395 0)
(-2.3269 1.04007 0)
(13.3452 2.11334 0)
(2.45825 -5.79812 0)
(15.0224 7.78293 0)
(1.21429 5.48855 0)
(20.0705 -5.35971 0)
(-15.3445 2.60114 0)
(11.6012 -7.50142 0)
(5.3139 0.422027 0)
(-7.97586 3.59386 0)
(-5.71742 3.4114 0)
(-1.60965 -0.93224 0)
(-8.51055 -2.61313 0)
(12.1119 -6.35236 0)
(-7.61257 3.71912 0)
(-5.33241 6.95359 0)
(-13.4491 3.14819 0)
(-1.47224 -0.578417 0)
(-14.3685 1.21208 0)
(-0.751674 -0.577929 0)
(-10.0634 0.960679 0)
(-4.42776 -4.08772 0)
(-4.15407 -1.16001 0)
(2.80244 -0.214883 0)
(2.12378 -3.47748 0)
(4.88212 -6.9121 0)
(3.8579 3.73887 0)
(7.38562 1.32546 0)
(-3.73239 1.86481 0)
(-7.22313 2.74517 0)
(-7.32813 3.06568 0)
(-9.68081 2.77862 0)
(-6.27759 2.21092 0)
(-8.144 1.54344 0)
(-4.8893 -2.54056 0)
(-11.3666 1.25893 0)
(8.57313 -0.978141 0)
(9.72852 0.232876 0)
(0.454472 -0.755617 0)
(-0.243329 1.54749 0)
(-9.73094 -1.50626 0)
(3.03593 -5.16153 0)
(-29.7938 0.30086 0)
(-3.39334 6.74249 0)
(-26.9691 7.67889 0)
(-19.6985 2.42459 0)
(-14.8223 10.4697 0)
(-6.35451 -0.337148 0)
(-2.27751 -3.17957 0)
(-2.75268 2.62734 0)
(0.871393 -8.24683 0)
(-5.54298 -2.80993 0)
(13.9015 -6.2979 0)
(2.09947 2.30584 0)
(-5.35168 6.6528 0)
(10.241 -5.07567 0)
(2.54165 -1.17354 0)
(8.60635 -5.9735 0)
(-0.61052 -0.458443 0)
(9.19963 -4.65802 0)
(-3.91264 -4.13108 0)
(11.7766 -5.5 0)
(-1.55769 -0.403252 0)
(9.9102 -1.66547 0)
(3.28473 -6.77567 0)
(-4.55619 0.544582 0)
(4.90936 2.38292 0)
(-12.4742 4.05542 0)
(-10.8981 3.32396 0)
(-10.0241 1.37949 0)
(-8.38994 2.59953 0)
(-13.205 0.00601086 0)
(-10.9315 1.77596 0)
(3.59411 4.55925 0)
(-4.68753 0.208988 0)
(-2.20496 3.1763 0)
(8.82957 0.595317 0)
(4.32183 -3.80175 0)
(-2.1138 1.13957 0)
(9.4676 2.24709 0)
(0.991046 -5.48314 0)
(5.36389 9.32694 0)
(-0.766579 6.99897 0)
(5.11163 -4.45212 0)
(-11.0892 2.44036 0)
(2.58283 -7.65588 0)
(-12.8625 -0.179099 0)
(-2.46472 3.07092 0)
(1.26465 2.94282 0)
(3.60685 -0.736063 0)
(0.354969 -3.18941 0)
(13.5611 -6.07247 0)
(-3.68332 3.59019 0)
(-3.9355 6.77473 0)
(-8.93062 4.24989 0)
(2.26359 -0.789978 0)
(-13.9911 1.36663 0)
(-1.5265 -0.0885363 0)
(-14.4083 -0.574181 0)
(-4.30727 -4.10059 0)
(-9.60513 -2.38597 0)
(1.02147 -0.754348 0)
(-2.08142 -3.51423 0)
(2.75418 -7.32564 0)
(-2.0302 4.8686 0)
(2.17292 2.37918 0)
(-6.20516 1.56142 0)
(-10.6628 3.62914 0)
(-8.87008 2.52945 0)
(-6.97242 2.79433 0)
(-3.14501 1.73508 0)
(-9.83588 1.35746 0)
(0.608026 -4.72793 0)
(-1.00524 -0.0255777 0)
(5.69764 -1.60161 0)
(-3.13626 0.277215 0)
(-3.39689 0.375646 0)
(-4.42382 1.70798 0)
(-9.06223 -0.0632704 0)
(0.401921 -5.12906 0)
(-18.9467 -0.0806798 0)
(-2.03653 7.61675 0)
(-24.4721 6.05742 0)
(-19.5248 2.78569 0)
(-17.355 10.0188 0)
(-17.9362 -0.623913 0)
(6.98499 -3.24266 0)
(6.64244 1.42156 0)
(7.117 -8.56251 0)
(2.61839 -3.19766 0)
(15.9067 -5.62766 0)
(3.14048 2.26801 0)
(-3.49745 6.39785 0)
(9.38963 -5.40318 0)
(5.6604 -1.24678 0)
(7.15137 -5.26992 0)
(2.2459 0.0750717 0)
(11.1421 -3.5222 0)
(-3.62057 -4.39229 0)
(14.0701 -4.83359 0)
(-4.59346 -0.968379 0)
(6.52379 -0.481119 0)
(1.99474 -6.77402 0)
(-6.89506 1.39735 0)
(-0.726651 3.36007 0)
(-10.8559 5.08899 0)
(-11.611 3.91866 0)
(-7.51701 2.12321 0)
(-6.10065 2.55027 0)
(-8.50617 0.184299 0)
(-9.26847 1.42977 0)
(-5.01504 5.30435 0)
(-1.99796 -0.243773 0)
(-16.5775 3.38433 0)
(-9.90978 0.999866 0)
(1.57346 -4.4791 0)
(-1.14685 0.573547 0)
(7.62108 1.78676 0)
(-0.960937 -5.50703 0)
(-4.4879 10.2798 0)
(-0.184695 8.37356 0)
(-8.75959 -3.47331 0)
(-12.252 3.05267 0)
(3.23287 -8.45155 0)
(-16.6643 -1.37344 0)
(4.85832 1.38842 0)
(12.0225 1.31997 0)
(8.66096 -0.311667 0)
(8.90998 -3.43532 0)
(15.2822 -5.08635 0)
(0.110048 2.80465 0)
(-1.55352 6.24249 0)
(-1.35255 3.95437 0)
(4.41814 -1.13986 0)
(-9.8357 0.348658 0)
(1.28176 0.695166 0)
(-19.4084 -2.80722 0)
(-3.12509 -3.69255 0)
(-15.8933 -4.22058 0)
(-1.10873 -1.22532 0)
(-5.82218 -4.03622 0)
(-0.17765 -7.51019 0)
(-5.72767 5.74521 0)
(-3.58892 3.35316 0)
(-6.3209 1.25209 0)
(-10.2983 3.96202 0)
(-7.48076 1.38652 0)
(-6.79717 2.63506 0)
(-3.54739 1.62036 0)
(-7.52003 1.14224 0)
(-7.97191 -3.46067 0)
(2.82946 0.0327587 0)
(1.50601 -2.06807 0)
(-0.672896 0.407496 0)
(-0.771025 -0.702812 0)
(3.28072 0.715864 0)
(-8.56874 1.58066 0)
(-1.57207 -5.01968 0)
(-9.9525 1.06329 0)
(-0.503304 8.46004 0)
(-15.9346 4.48228 0)
(-7.81703 3.42655 0)
(-10.6442 7.99295 0)
(-14.8128 -1.70409 0)
(18.4371 -2.59913 0)
(24.6675 -0.497615 0)
(13.0941 -7.84771 0)
(9.03057 -3.10138 0)
(17.7972 -4.26797 0)
(3.83846 2.45265 0)
(-0.974163 5.81459 0)
(7.32578 -3.9114 0)
(5.66539 -1.39478 0)
(6.65515 -2.54972 0)
(4.56144 0.744185 0)
(15.083 -1.02121 0)
(-0.197623 -4.3086 0)
(15.5068 -3.03178 0)
(-2.23667 -1.2563 0)
(1.40916 1.11612 0)
(0.0539944 -6.47969 0)
(-8.33023 1.71347 0)
(-6.33752 4.06509 0)
(-10.282 5.35941 0)
(-10.6953 4.10469 0)
(-6.35088 2.96235 0)
(-8.07604 2.3477 0)
(-2.14613 -1.30515 0)
(-4.73357 0.834879 0)
(8.2037 2.50548 0)
(8.46772 -0.614106 0)
(-3.45955 3.70077 0)
(0.267744 1.13645 0)
(6.03746 -3.40647 0)
(6.31205 0.122302 0)
(6.65151 1.57794 0)
(-3.3279 -5.05805 0)
(-0.14711 10.568 0)
(0.519449 8.88496 0)
(-3.29386 -2.49467 0)
(-3.82802 3.62322 0)
(18.2598 -9.5023 0)
(-5.88789 -3.0512 0)
(17.5387 -1.81027 0)
(25.8704 -0.452544 0)
(11.3888 0.0371477 0)
(13.0921 -2.71702 0)
(16.5244 -3.55617 0)
(1.92155 1.53358 0)
(1.17547 5.52681 0)
(3.31305 2.43825 0)
(5.12203 -1.49649 0)
(-3.71493 -1.96537 0)
(4.61783 1.25791 0)
(-17.6119 -5.73722 0)
(-0.491975 -3.29276 0)
(-16.699 -6.08989 0)
(-7.16915 -1.32303 0)
(-8.36166 -4.61838 0)
(-2.32398 -7.08913 0)
(-8.78195 6.39701 0)
(-8.82326 4.09581 0)
(-8.05438 1.18835 0)
(-10.0714 4.05151 0)
(-5.52686 -0.284097 0)
(-8.74423 2.16295 0)
(3.96446 2.20006 0)
(-1.41689 0.14108 0)
(-1.94313 -0.486856 0)
(7.26417 -0.244882 0)
(5.88891 -2.0164 0)
(-0.241323 0.646945 0)
(0.474927 -1.33017 0)
(9.6258 0.460679 0)
(-9.35083 2.48416 0)
(-4.10575 -4.44394 0)
(-4.95257 1.83517 0)
(0.0666508 8.61007 0)
(-3.10617 2.45335 0)
(5.59802 3.50782 0)
(-0.0594518 4.43706 0)
(-4.9206 -3.24162 0)
(23.4324 -1.04267 0)
(34.0062 -1.92079 0)
(15.8059 -5.40605 0)
(10.8641 -2.24036 0)
(19.0646 -2.56831 0)
(5.49878 2.9661 0)
(2.28657 4.97755 0)
(6.88897 -1.93455 0)
(4.40099 -1.59811 0)
(6.34823 0.810719 0)
(6.53569 1.29743 0)
(9.86371 2.45998 0)
(3.00535 -3.54973 0)
(8.36215 -0.843988 0)
(-4.59908 -1.21327 0)
(-3.49446 2.73101 0)
(-0.966235 -6.22245 0)
(-10.1023 1.81533 0)
(-10.404 4.57883 0)
(-10.351 4.77094 0)
(-9.21773 4.06969 0)
(-3.26792 3.01736 0)
(-8.03882 1.6452 0)
(0.146117 -2.30447 0)
(0.127092 -0.108482 0)
(6.19498 -0.0739765 0)
(5.41263 -0.622936 0)
(-0.503869 2.67495 0)
(0.39029 1.06562 0)
(8.55303 -2.80917 0)
(10.0499 -0.105376 0)
(5.36774 1.5527 0)
(-6.34406 -4.24486 0)
(8.98622 10.4818 0)
(-0.553981 8.38391 0)
(6.66443 -1.71408 0)
(10.3603 3.65293 0)
(27.975 -8.20241 0)
(5.5223 -4.57353 0)
(22.9815 -3.3892 0)
(26.4862 -1.6087 0)
(11.3112 -0.330672 0)
(9.67522 -1.51097 0)
(16.7477 -1.86136 0)
(2.47043 -0.212412 0)
(4.88346 4.64965 0)
(4.3845 0.572437 0)
(5.33014 -1.73803 0)
(1.93288 -4.01498 0)
(6.74797 1.47664 0)
(-11.5733 -8.1099 0)
(-1.10698 -2.56245 0)
(-12.6422 -7.49591 0)
(-8.76703 -1.13513 0)
(-8.60394 -5.29467 0)
(-2.08555 -6.51763 0)
(-9.42644 6.72729 0)
(-11.599 4.63895 0)
(-6.48226 1.235 0)
(-6.67457 3.85448 0)
(-2.92419 -1.55665 0)
(-6.89389 1.38511 0)
(4.16762 1.68466 0)
(-0.66111 -0.626882 0)
(-3.29448 0.831734 0)
(3.95378 -0.156555 0)
(7.09573 -1.48097 0)
(-1.5398 0.416234 0)
(-1.32599 -1.28235 0)
(12.2821 0.420984 0)
(-12.2701 2.61517 0)
(-7.67069 -3.56086 0)
(-0.783882 1.52066 0)
(0.0279283 7.66602 0)
(11.8298 0.37655 0)
(19.6572 2.86458 0)
(3.43525 -0.00127161 0)
(3.92638 -4.04887 0)
(14.5339 -0.0701471 0)
(28.9089 -2.30237 0)
(11.4786 -1.96062 0)
(4.02784 -1.32001 0)
(20.1441 -1.14394 0)
(9.15427 3.77619 0)
(5.53031 3.83318 0)
(8.00221 0.24014 0)
(2.33283 -1.65381 0)
(2.47415 3.78817 0)
(5.94974 1.88072 0)
(1.54638 4.95981 0)
(3.09688 -2.49462 0)
(3.18469 0.381313 0)
(-6.01612 -1.25489 0)
(-5.83774 4.23217 0)
(-0.786042 -5.85812 0)
(-8.67694 1.94383 0)
(-11.6289 4.84649 0)
(-6.66807 3.65155 0)
(-4.45989 3.70763 0)
(-2.61509 2.11489 0)
(-5.72613 1.08886 0)
(-1.80752 -2.52818 0)
(0.504148 -0.685918 0)
(2.38467 -0.396233 0)
(1.01508 -0.418567 0)
(-0.0326982 2.20833 0)
(0.495834 0.567319 0)
(9.45657 -2.1953 0)
(4.36475 -0.172094 0)
(4.54771 1.57493 0)
(-10.476 -3.25405 0)
(18.9276 8.87113 0)
(-6.1475 6.76728 0)
(14.2337 -1.68142 0)
(38.1841 3.15795 0)
(29.0327 -4.40665 0)
(14.9971 -4.97381 0)
(20.1084 -2.75921 0)
(18.4722 -1.7446 0)
(7.32532 -2.36362 0)
(6.14175 -0.521068 0)
(17.7359 -0.686114 0)
(0.610862 -1.97331 0)
(5.75788 3.64121 0)
(0.495083 -0.972862 0)
(3.09251 -1.64535 0)
(5.43965 -4.97127 0)
(5.19244 1.51929 0)
(-4.58007 -8.9423 0)
(-1.21699 -1.7622 0)
(-8.64542 -7.92233 0)
(-6.51826 -0.957723 0)
(-7.35275 -5.93789 0)
(-1.25434 -5.95261 0)
(-7.14755 6.38026 0)
(-12.2946 4.8315 0)
(-3.21161 1.43068 0)
(-0.871085 3.41993 0)
(-0.335074 -1.58053 0)
(-4.26761 0.878597 0)
(2.84067 1.22499 0)
(-0.321274 -0.918062 0)
(-4.66664 0.333443 0)
(0.679707 0.0506394 0)
(1.43908 -1.17816 0)
(1.77124 0.18571 0)
(-12.0598 -0.360483 0)
(2.13661 0.67159 0)
(-21.307 1.88569 0)
(-8.98549 -2.6761 0)
(11.4847 2.2177 0)
(-8.71802 4.7178 0)
(41.3977 2.00133 0)
(31.9755 1.28838 0)
(4.35648 -2.3634 0)
(3.42204 -2.65873 0)
(6.19147 0.546911 0)
(1.21894 -1.85929 0)
(9.10704 3.36156 0)
(-9.59972 -0.703292 0)
(26.8114 -0.116926 0)
(10.4448 4.17398 0)
(2.95216 2.73041 0)
(7.90655 1.79232 0)
(1.36152 -1.45981 0)
(-2.33363 5.00951 0)
(3.00357 2.26782 0)
(-3.44156 5.80813 0)
(0.964673 -1.6812 0)
(2.04643 0.994314 0)
(-4.12938 -1.35888 0)
(-6.99053 5.37228 0)
(-0.561961 -5.29203 0)
(-5.64604 2.12068 0)
(-11.3968 4.73322 0)
(-1.78096 2.71869 0)
(0.945437 3.1374 0)
(-1.76525 1.43962 0)
(-4.28808 0.877455 0)
(-2.92977 -2.09953 0)
(0.903244 -0.832943 0)
(2.85601 0.109218 0)
(-0.0651686 -0.310972 0)
(-0.644283 1.14728 0)
(2.25966 0.404479 0)
(8.91422 -2.4904 0)
(-1.5662 0.0741845 0)
(3.27343 0.99956 0)
(-10.3465 -2.32355 0)
(9.06254 3.55938 0)
(-6.72777 4.35598 0)
(-2.13585 -4.77852 0)
(16.06 1.98828 0)
(0.95891 -2.66351 0)
(2.45173 -2.85216 0)
(-11.5943 -3.39429 0)
(-10.7237 -1.07471 0)
(-2.4823 -6.87105 0)
(-1.09702 -1.27279 0)
(22.4117 -0.272071 0)
(-3.42636 -2.86944 0)
(1.27885 2.83355 0)
(-3.56365 -1.59407 0)
(-0.685964 -1.44978 0)
(5.71545 -4.30234 0)
(2.14574 1.58953 0)
(-0.156354 -8.45539 0)
(1.11717 -1.25198 0)
(-5.76975 -7.79248 0)
(-3.81876 -0.948558 0)
(-5.78164 -6.35327 0)
(-1.04452 -5.29116 0)
(-4.30576 5.51761 0)
(-12.2918 4.62534 0)
(-1.64392 1.37242 0)
(4.27967 2.94282 0)
(0.876529 -1.34283 0)
(-3.15763 0.693222 0)
(3.42892 0.920081 0)
(-0.124119 -1.01952 0)
(-5.3306 -0.0749891 0)
(-0.275372 0.236498 0)
(-1.63945 0.39458 0)
(4.15161 0.173781 0)
(-16.8354 1.01952 0)
(-4.65238 1.02393 0)
(-20.9372 0.216776 0)
(-10.4742 -2.06719 0)
(-2.77609 3.14451 0)
(-4.55452 3.22091 0)
(25.1552 4.7311 0)
(-16.6359 0.24257 0)
(-8.04535 -0.807392 0)
(9.18276 -0.777124 0)
(3.13379 0.785389 0)
(-15.8408 -1.77341 0)
(11.341 8.60289 0)
(7.55841 -1.78575 0)
(13.9387 0.436739 0)
(7.3158 3.90967 0)
(-1.29394 2.15146 0)
(4.89693 2.23529 0)
(2.62 -1.27297 0)
(-2.73405 4.32776 0)
(-0.00314178 2.14734 0)
(-3.31921 5.78603 0)
(1.14948 -1.20919 0)
(1.75412 1.70451 0)
(-1.78202 -1.31941 0)
(-8.39696 5.97358 0)
(-0.882076 -4.54914 0)
(-3.05311 2.25304 0)
(-10.614 4.23472 0)
(2.4428 2.3092 0)
(4.54446 2.54108 0)
(-1.52708 1.12085 0)
(-3.17296 0.983417 0)
(-4.3783 -2.03379 0)
(-0.0406439 -0.811108 0)
(4.25449 0.314477 0)
(0.344723 -0.303051 0)
(-1.70334 0.00285944 0)
(3.38051 0.546145 0)
(6.18311 -2.69129 0)
(-4.06177 0.531031 0)
(5.01439 1.67027 0)
(-10.7131 -1.99414 0)
(-20.4163 -0.437267 0)
(-4.60642 4.81033 0)
(-29.3665 -6.28564 0)
(-20.8584 0.801958 0)
(3.2324 -2.02011 0)
(-4.69983 -2.81456 0)
(-9.334 -3.89946 0)
(-5.45591 -0.98801 0)
(-1.69685 -12.3753 0)
(3.52111 -2.26307 0)
(15.3256 0.330685 0)
(-1.83381 -2.51509 0)
(-1.51385 2.13819 0)
(-2.5894 -1.39321 0)
(-3.29137 -1.21773 0)
(3.97567 -3.03779 0)
(-0.812301 1.66745 0)
(1.50399 -8.01119 0)
(2.81217 -1.02851 0)
(-3.6967 -7.6678 0)
(-1.24831 -0.939253 0)
(-3.98397 -6.4178 0)
(-1.58359 -4.52814 0)
(-2.17364 4.37466 0)
(-11.7326 4.10239 0)
(-1.62506 1.24694 0)
(7.08268 2.50098 0)
(1.09853 -0.902045 0)
(-2.16826 0.784334 0)
(3.82307 1.2909 0)
(-0.707085 -1.01027 0)
(-5.62941 0.282463 0)
(0.7823 0.287728 0)
(-1.75602 1.69501 0)
(5.44536 0.304057 0)
(-16.2595 1.63255 0)
(-4.69263 1.4375 0)
(-21.3628 -0.12377 0)
(-11.1309 -1.67519 0)
(-7.17526 4.78161 0)
(0.560289 3.92361 0)
(6.97606 3.94638 0)
(-2.29046 -0.0825026 0)
(-11.8834 -1.66337 0)
(-3.41568 -1.63584 0)
(9.22097 0.124174 0)
(-2.65912 -2.30704 0)
(9.28429 10.4017 0)
(3.72243 -2.26703 0)
(14.8119 0.910951 0)
(2.3188 2.97625 0)
(-3.06985 1.82138 0)
(-2.12115 1.39785 0)
(0.341289 -0.893185 0)
(-1.60154 3.01516 0)
(-0.618887 1.62946 0)
(-1.4299 5.97918 0)
(3.99749 -1.04105 0)
(1.50105 2.54284 0)
(1.41725 -1.1535 0)
(-10.2696 6.03745 0)
(-1.40667 -3.66773 0)
(-1.43836 2.33371 0)
(-9.6641 3.45685 0)
(5.81895 2.02607 0)
(5.88527 1.97049 0)
(-1.04673 0.662221 0)
(-1.39623 1.2862 0)
(-5.11606 -2.60508 0)
(-1.40607 -0.712815 0)
(6.78759 -0.14889 0)
(4.30907 -0.45625 0)
(-0.458741 -0.255532 0)
(6.36253 0.756953 0)
(5.52855 -1.937 0)
(-2.25643 1.0633 0)
(9.49529 3.33414 0)
(-7.2922 -1.92311 0)
(3.10305 0.312021 0)
(3.68575 4.32312 0)
(-9.25129 -4.78285 0)
(1.7876 0.689642 0)
(6.78085 -1.56464 0)
(0.052196 -2.63785 0)
(-6.46135 -4.60205 0)
(3.21613 -1.4794 0)
(-1.84133 -10.575 0)
(5.27447 -2.55578 0)
(11.8975 0.795867 0)
(0.566876 -1.45295 0)
(-4.07334 1.63262 0)
(0.990569 0.0353558 0)
(-1.78899 -0.924157 0)
(5.53208 -1.87587 0)
(-0.835305 1.29749 0)
(5.34953 -8.15861 0)
(3.96074 -1.02769 0)
(-0.964246 -7.57021 0)
(1.72946 -0.691984 0)
(-1.85393 -6.08108 0)
(-1.70711 -3.60269 0)
(-1.01736 3.08682 0)
(-9.99055 3.3957 0)
(-2.22177 1.25888 0)
(6.79766 2.05853 0)
(1.35055 -0.406742 0)
(-1.17454 1.02508 0)
(5.8361 1.62482 0)
(0.466931 -1.0407 0)
(-1.05618 0.961837 0)
(4.3111 -0.0254827 0)
(1.76843 2.24808 0)
(5.77838 0.580415 0)
(-9.89183 0.992311 0)
(-3.21493 1.79206 0)
(-14.8864 -1.57196 0)
(-6.23649 -1.61095 0)
(0.626593 3.53672 0)
(6.56718 3.35356 0)
(14.1047 1.52329 0)
(6.88667 -0.152742 0)
(-2.6373 -3.88777 0)
(13.5212 -1.59147 0)
(16.7461 0.54224 0)
(7.08391 -2.69086 0)
(8.08989 7.90853 0)
(-2.69148 -2.01477 0)
(9.57118 1.30148 0)
(-0.243186 1.52912 0)
(-4.7912 1.50308 0)
(-4.96239 -0.304233 0)
(1.16682 -0.579195 0)
(-1.55022 1.60915 0)
(0.990853 1.04806 0)
(-1.18074 6.07497 0)
(4.26769 -1.05469 0)
(1.34903 3.11137 0)
(3.3825 -0.87691 0)
(-10.9988 5.4677 0)
(-0.690789 -2.7001 0)
(-0.617381 2.30985 0)
(-9.80848 2.63684 0)
(6.84375 1.73008 0)
(5.9491 1.51314 0)
(1.15283 0.586829 0)
(0.757677 1.44107 0)
(-3.57025 -2.95589 0)
(0.601532 -0.695459 0)
(6.48153 -0.737706 0)
(3.98685 -0.653719 0)
(-1.81115 -0.282327 0)
(4.37764 1.09871 0)
(5.36442 -1.28387 0)
(0.739729 1.34359 0)
(13.0312 3.70659 0)
(0.350368 -2.09012 0)
(11.5621 0.705321 0)
(10.2336 3.44538 0)
(8.93944 -2.72929 0)
(19.4853 0.0111706 0)
(23.607 0.204025 0)
(9.58684 -2.50819 0)
(-10.2344 -5.59086 0)
(10.0703 -0.575774 0)
(-12.2591 -10.047 0)
(-7.56393 -1.88823 0)
(14.8688 0.535289 0)
(3.38108 -0.762347 0)
(-5.30109 1.10862 0)
(5.21979 0.868371 0)
(2.98983 -0.7136 0)
(7.70886 -0.938406 0)
(3.62692 0.866117 0)
(7.74054 -7.14999 0)
(-0.451533 -1.057 0)
(1.47058 -6.10827 0)
(5.52299 -0.418592 0)
(-0.859207 -5.04749 0)
(-0.389107 -2.52979 0)
(-1.28414 1.98532 0)
(-8.26349 2.66791 0)