/*--------------------------------*- C++ -*----------------------------------*\
  =========                 |
  \\      /  F ield         | OpenFOAM: The Open Source CFD Toolbox
   \\    /   O peration     | Website:  https://openfoam.org
    \\  /    A nd           | Version:  6
     \\/     M anipulation  |
\*---------------------------------------------------------------------------*/
FoamFile
{
    version     2.0;
    format      ascii;
    class       surfaceScalarField;
    location    "2";
    object      phi;
}
// * * * * * * * * * * * * * * * * * * * * * * * * * * * * * * * * * * * * * //

dimensions      [0 3 -1 0 0 0 0];

internalField   nonuniform List<scalar> 
8193
(
0.168696
-0.349049
-0.153916
0.173827
-0.364506
0.172852
-0.369149
0.168538
-0.369941
0.16245
-0.369997
0.155402
-0.369654
0.147871
-0.368913
0.140069
-0.367898
0.132176
-0.366544
0.124252
-0.364904
0.116249
-0.3629
0.108041
-0.36034
0.0995244
-0.357106
0.0907082
-0.353475
0.081719
-0.350287
0.0724196
-0.348429
0.0621653
-0.347558
0.0499571
-0.344363
0.0350352
-0.331309
0.0187995
-0.297094
5.53643e-05
-0.255249
-0.0230975
-0.270178
-0.0450088
-0.324494
-0.0610667
-0.364645
-0.0719091
-0.379653
-0.0808278
-0.380834
-0.0889255
-0.378257
-0.0970257
-0.375766
-0.105344
-0.374792
-0.113641
-0.374901
-0.121863
-0.375179
-0.13006
-0.375307
-0.138264
-0.375345
-0.146422
-0.375363
-0.154373
-0.375317
-0.16187
-0.375106
-0.168487
-0.374708
-0.173455
-0.374078
-0.175209
-0.372978
-0.171022
-0.36832
-0.353169
-0.157181
0.193715
-0.35601
-0.186754
0.190217
-0.361009
0.1835
-0.362433
0.175878
-0.362319
0.167764
-0.361884
0.1595
-0.36139
0.15128
-0.360693
0.143117
-0.359734
0.13505
-0.358477
0.127027
-0.356881
0.118926
-0.354799
0.110604
-0.352018
0.102008
-0.34851
0.0932803
-0.344748
0.0845001
-0.341507
0.0754078
-0.339336
0.0652699
-0.33742
0.0530689
-0.332162
0.0382686
-0.316509
0.022687
-0.281512
0.00552614
-0.238088
-0.0175637
-0.247088
-0.0408756
-0.301182
-0.0592268
-0.346294
-0.0714576
-0.367422
-0.0809058
-0.371386
-0.089224
-0.369938
-0.0973645
-0.367625
-0.105743
-0.366413
-0.114231
-0.366413
-0.122658
-0.366752
-0.131048
-0.366917
-0.139497
-0.366896
-0.148062
-0.366798
-0.156734
-0.366644
-0.165458
-0.366382
-0.174092
-0.366074
-0.182333
-0.365837
-0.18987
-0.365442
-0.194422
-0.363768
-0.358928
-0.188663
0.201564
-0.353131
-0.204442
0.194341
-0.353785
0.18614
-0.354232
0.177834
-0.354012
0.169516
-0.353567
0.161247
-0.353121
0.153086
-0.352531
0.145017
-0.351666
0.137018
-0.350478
0.129022
-0.348885
0.120912
-0.346689
0.112588
-0.343694
0.104113
-0.340035
0.0955687
-0.336203
0.0870056
-0.332944
0.0780875
-0.330418
0.0679268
-0.327259
0.0555767
-0.319812
0.0407401
-0.301672
0.024983
-0.265755
0.00806466
-0.22117
-0.0147369
-0.224286
-0.0381584
-0.27776
-0.0575895
-0.326863
-0.071281
-0.35373
-0.0812372
-0.36143
-0.0898813
-0.361294
-0.0980488
-0.359458
-0.106442
-0.35802
-0.114952
-0.357903
-0.123479
-0.358224
-0.131941
-0.358455
-0.140408
-0.358429
-0.148955
-0.358251
-0.157615
-0.357985
-0.16637
-0.357627
-0.17519
-0.357254
-0.184054
-0.356973
-0.192926
-0.356569
-0.201018
-0.355676
-0.3549
-0.205046
0.20833
-0.344695
-0.216767
0.199138
-0.344593
0.190106
-0.345199
0.181301
-0.345208
0.172721
-0.344987
0.164321
-0.34472
0.156071
-0.344282
0.14795
-0.343545
0.139923
-0.342451
0.131904
-0.340866
0.123776
-0.338561
0.115504
-0.335422
0.107164
-0.331694
0.0988691
-0.327908
0.0905582
-0.324633
0.0818547
-0.321715
0.0716642
-0.317069
0.0591106
-0.307258
0.044001
-0.286563
0.0278769
-0.249631
0.0109555
-0.204248
-0.0114782
-0.201853
-0.0354066
-0.253832
-0.0559322
-0.306338
-0.0711518
-0.338511
-0.0818745
-0.350707
-0.0908742
-0.352295
-0.0991584
-0.351174
-0.107579
-0.3496
-0.116178
-0.349304
-0.124802
-0.3496
-0.133416
-0.349841
-0.142026
-0.349819
-0.150717
-0.34956
-0.159532
-0.34917
-0.16848
-0.348679
-0.17759
-0.348143
-0.186938
-0.347626
-0.196547
-0.34696
-0.206312
-0.345912
-0.345659
-0.215553
0.212421
-0.335255
-0.221861
0.20312
-0.335292
0.193795
-0.335874
0.184786
-0.336199
0.176106
-0.336306
0.167654
-0.336269
0.159376
-0.336003
0.151253
-0.335422
0.143238
-0.334436
0.135227
-0.332855
0.127128
-0.330462
0.118977
-0.327272
0.110876
-0.323593
0.102941
-0.319973
0.0949628
-0.316655
0.0863527
-0.313105
0.0760945
-0.306811
0.0631836
-0.294347
0.0475918
-0.270971
0.0308256
-0.232865
0.0135477
-0.18697
-0.0086126
-0.179692
-0.0328894
-0.229555
-0.0543796
-0.284847
-0.0709837
-0.321906
-0.0828227
-0.338868
-0.0921574
-0.34296
-0.100639
-0.342692
-0.109073
-0.341166
-0.117713
-0.340664
-0.126453
-0.34086
-0.135171
-0.341124
-0.143911
-0.341079
-0.15272
-0.340751
-0.161659
-0.340231
-0.170742
-0.339596
-0.180016
-0.33887
-0.189585
-0.338056
-0.199459
-0.337086
-0.209323
-0.336047
-0.335565
-0.219417
0.217484
-0.324974
-0.227764
0.20763
-0.325439
0.198088
-0.326332
0.188927
-0.327038
0.180123
-0.327502
0.171585
-0.327731
0.163263
-0.327681
0.155133
-0.327292
0.147122
-0.326426
0.139127
-0.32486
0.131109
-0.322443
0.123142
-0.319305
0.11539
-0.315842
0.107889
-0.312472
0.100282
-0.309048
0.0916705
-0.304493
0.0812108
-0.296351
0.0677589
-0.280895
0.0514589
-0.254671
0.0338351
-0.215241
0.0159459
-0.169081
-0.00605787
-0.157689
-0.0306044
-0.205009
-0.0530035
-0.262448
-0.0708392
-0.304071
-0.0839539
-0.325753
-0.0937769
-0.333137
-0.102536
-0.333933
-0.110988
-0.332713
-0.119626
-0.332027
-0.128449
-0.332037
-0.137315
-0.332258
-0.146178
-0.332216
-0.155128
-0.3318
-0.164222
-0.331137
-0.173491
-0.330327
-0.182973
-0.329388
-0.192737
-0.328292
-0.202813
-0.32701
-0.213208
-0.325653
-0.324712
-0.224061
0.222384
-0.314451
-0.232907
0.212344
-0.315398
0.202693
-0.316682
0.193439
-0.317784
0.184538
-0.318602
0.175934
-0.319127
0.167595
-0.319342
0.159476
-0.319172
0.151483
-0.318433
0.143536
-0.316914
0.13567
-0.314577
0.128019
-0.311654
0.12074
-0.308563
0.113725
-0.305458
0.106428
-0.30175
0.0978343
-0.295899
0.0867954
-0.285312
0.0726526
-0.266753
0.055408
-0.237426
0.0367433
-0.196576
0.0180318
-0.15037
-0.00392734
-0.135729
-0.0286284
-0.180308
-0.0518396
-0.239237
-0.0708513
-0.285059
-0.0851443
-0.31146
-0.0957637
-0.322517
-0.104853
-0.324844
-0.113323
-0.324243
-0.121918
-0.323432
-0.130767
-0.323188
-0.139746
-0.323279
-0.148753
-0.323208
-0.157824
-0.32273
-0.16706
-0.3219
-0.176505
-0.320882
-0.186182
-0.31971
-0.19612
-0.318355
-0.206359
-0.316771
-0.216962
-0.31505
-0.313642
-0.228032
0.227638
-0.303628
-0.238461
0.217417
-0.305176
0.207664
-0.306929
0.198313
-0.308433
0.189326
-0.309615
0.180683
-0.310483
0.172351
-0.31101
0.164258
-0.311079
0.156306
-0.310481
0.148475
-0.309083
0.140877
-0.306978
0.133691
-0.304468
0.126992
-0.301864
0.12047
-0.298935
0.113359
-0.294639
0.104536
-0.287076
0.0928339
-0.27361
0.0775868
-0.251505
0.0592279
-0.219067
0.0393786
-0.176727
0.0196944
-0.130685
-0.00231201
-0.113723
-0.0270465
-0.155573
-0.0509175
-0.215366
-0.0710813
-0.264895
-0.0864596
-0.296082
-0.0981329
-0.310844
-0.107582
-0.315395
-0.116119
-0.315706
-0.124641
-0.314909
-0.13345
-0.31438
-0.142486
-0.314243
-0.151623
-0.314071
-0.160818
-0.313535
-0.170174
-0.312545
-0.179773
-0.311284
-0.18964
-0.309842
-0.19978
-0.308215
-0.210223
-0.306329
-0.221051
-0.304222
-0.302292
-0.2324
0.23296
-0.292716
-0.243873
0.222682
-0.294898
0.212847
-0.297095
0.20342
-0.299005
0.194393
-0.300589
0.18576
-0.30185
0.177468
-0.302718
0.169426
-0.303037
0.161569
-0.302623
0.15397
-0.301484
0.146802
-0.299811
0.140231
-0.297897
0.134173
-0.295805
0.128069
-0.292832
0.120951
-0.287521
0.11159
-0.277715
0.0988638
-0.260885
0.0823303
-0.234972
0.0626376
-0.199375
0.0415232
-0.155613
0.0208011
-0.109963
-0.00131191
-0.0916101
-0.0259482
-0.130937
-0.05031
-0.191004
-0.071436
-0.243769
-0.0881478
-0.27937
-0.100812
-0.29818
-0.110724
-0.305483
-0.119402
-0.307028
-0.127843
-0.306469
-0.136545
-0.305677
-0.145561
-0.305227
-0.154782
-0.30485
-0.164096
-0.304221
-0.173549
-0.303092
-0.183251
-0.301582
-0.193268
-0.299825
-0.203602
-0.297881
-0.214238
-0.295692
-0.225219
-0.293241
-0.290814
-0.236697
0.238402
-0.281771
-0.249347
0.228043
-0.284539
0.21814
-0.287191
0.208687
-0.289552
0.199683
-0.291585
0.191111
-0.293278
0.182888
-0.294495
0.174941
-0.29509
0.167278
-0.29496
0.160078
-0.294284
0.153524
-0.293257
0.147681
-0.292054
0.142229
-0.290353
0.136357
-0.28696
0.128926
-0.28009
0.118643
-0.267431
0.104527
-0.246769
0.0864379
-0.216883
0.0652939
-0.178231
0.0429182
-0.133237
0.0211884
-0.0882336
-0.00104028
-0.0693814
-0.0254455
-0.106532
-0.0500262
-0.166424
-0.0721638
-0.221632
-0.0900906
-0.261443
-0.103727
-0.284544
-0.114284
-0.294925
-0.123198
-0.298114
-0.131575
-0.298091
-0.14012
-0.297132
-0.149022
-0.296326
-0.158252
-0.29562
-0.16765
-0.294823
-0.177198
-0.293543
-0.186978
-0.291802
-0.197088
-0.289715
-0.207566
-0.287403
-0.21839
-0.284868
-0.229557
-0.282074
-0.279188
-0.241183
0.243749
-0.27087
-0.254649
0.233317
-0.274108
0.223421
-0.277295
0.21403
-0.280161
0.205121
-0.282676
0.196652
-0.284809
0.188535
-0.286378
0.180769
-0.287324
0.17346
-0.287651
0.166866
-0.28769
0.161083
-0.287474
0.155989
-0.28696
0.150967
-0.285331
0.144996
-0.280989
0.136822
-0.271916
0.125158
-0.255768
0.109293
-0.230903
0.0894642
-0.197054
0.0668459
-0.155612
0.043299
-0.10969
0.0206827
-0.0656173
-0.00161867
-0.04708
-0.0256541
-0.0824961
-0.0502914
-0.141786
-0.0731336
-0.19879
-0.0922017
-0.242375
-0.106939
-0.269807
-0.118252
-0.283612
-0.127518
-0.288849
-0.135874
-0.289735
-0.144237
-0.288769
-0.152925
-0.287637
-0.162064
-0.286481
-0.171482
-0.285405
-0.181096
-0.283929
-0.190927
-0.281971
-0.201084
-0.279558
-0.21163
-0.276857
-0.22259
-0.273908
-0.23393
-0.270734
-0.26741
-0.245708
0.248832
-0.260006
-0.259696
0.238477
-0.263753
0.228675
-0.267493
0.219384
-0.270869
0.210613
-0.273905
0.202277
-0.276473
0.194321
-0.278422
0.186887
-0.279891
0.180141
-0.280906
0.174353
-0.281901
0.169393
-0.282515
0.164927
-0.282493
0.159983
-0.280387
0.153427
-0.274433
0.143968
-0.262457
0.130455
-0.242256
0.112572
-0.21302
0.0909484
-0.17543
0.0669532
-0.131617
0.0424279
-0.0851647
0.0191421
-0.0423315
-0.00310393
-0.024834
-0.0265984
-0.0590016
-0.0510599
-0.117325
-0.0744094
-0.17544
-0.0945477
-0.222237
-0.110435
-0.25392
-0.122595
-0.271452
-0.132343
-0.279101
-0.140738
-0.28134
-0.148931
-0.280576
-0.157325
-0.279244
-0.166256
-0.27755
-0.175596
-0.276065
-0.185232
-0.274293
-0.195086
-0.272117
-0.205247
-0.269398
-0.215801
-0.266302
-0.226794
-0.262915
-0.238209
-0.259319
-0.255558
-0.250061
0.253588
-0.249142
-0.264451
0.24333
-0.253496
0.233603
-0.257766
0.22451
-0.261777
0.215902
-0.265297
0.20778
-0.268352
0.20016
-0.270801
0.193293
-0.273023
0.187305
-0.274918
0.18243
-0.277027
0.178149
-0.278234
0.173997
-0.278341
0.168587
-0.274977
0.160841
-0.266688
0.149508
-0.251123
0.133754
-0.226502
0.113789
-0.193055
0.0904826
-0.152124
0.0653272
-0.106462
0.0401029
-0.0599405
0.0164526
-0.0186812
-0.00550112
-0.00288023
-0.0282801
-0.0362226
-0.0523578
-0.0932472
-0.0759865
-0.151811
-0.0970816
-0.201142
-0.114156
-0.236845
-0.127222
-0.258386
-0.137606
-0.268718
-0.146117
-0.272828
-0.154202
-0.272492
-0.162255
-0.271191
-0.170869
-0.268936
-0.179996
-0.266938
-0.189574
-0.264715
-0.199417
-0.262273
-0.209552
-0.259264
-0.220059
-0.255795
-0.23101
-0.251964
-0.242407
-0.247921
-0.243725
-0.25424
0.257896
-0.238414
-0.268624
0.247798
-0.243398
0.238244
-0.248211
0.229278
-0.252811
0.220828
-0.256847
0.212991
-0.260514
0.205848
-0.263659
0.199853
-0.267027
0.194817
-0.269882
0.190821
-0.273031
0.186788
-0.274201
0.182434
-0.273987
0.175817
-0.268359
0.166272
-0.257143
0.152431
-0.237282
0.134269
-0.20834
0.11249
-0.171275
0.087758
-0.127392
0.0617641
-0.0804678
0.0361683
-0.0343447
0.0125263
0.00496086
-0.00877793
0.018424
-0.0306217
-0.0143788
-0.0541595
-0.0697094
-0.077811
-0.12816
-0.0996502
-0.179303
-0.117983
-0.218512
-0.131961
-0.244408
-0.143201
-0.257478
-0.151929
-0.2641
-0.16002
-0.2644
-0.167727
-0.263484
-0.175944
-0.260718
-0.184692
-0.25819
-0.19408
-0.255327
-0.203845
-0.252509
-0.213931
-0.249177
-0.224363
-0.245364
-0.235226
-0.241101
-0.246552
-0.236595
-0.231926
-0.258351
0.261365
-0.227906
-0.271873
0.251593
-0.233627
0.242223
-0.238841
0.233525
-0.244113
0.225319
-0.24864
0.217987
-0.253182
0.211562
-0.257234
0.206536
-0.262001
0.202197
-0.265544
0.198808
-0.269641
0.194398
-0.269791
0.189329
-0.268918
0.180479
-0.25951
0.168839
-0.245504
0.152094
-0.220536
0.131984
-0.18823
0.108316
-0.147607
0.0825546
-0.101631
0.0562133
-0.0541265
0.0305768
-0.00870823
0.00737898
0.0281587
-0.0129379
0.0387409
-0.0335508
0.00623412
-0.0563892
-0.046871
-0.0798568
-0.104692
-0.101899
-0.15726
-0.121832
-0.19858
-0.136495
-0.229745
-0.149034
-0.244939
-0.158002
-0.255132
-0.166315
-0.256087
-0.173647
-0.256152
-0.181456
-0.252909
-0.189658
-0.249988
-0.198715
-0.24627
-0.20826
-0.242963
-0.218292
-0.239145
-0.228515
-0.235141
-0.239245
-0.230371
-0.250356
-0.225484
-0.220179
-0.262104
0.264061
-0.21731
-0.274657
0.254408
-0.223974
0.245207
-0.229641
0.236798
-0.235704
0.229066
-0.240908
0.222403
-0.24652
0.216932
-0.251762
0.212754
-0.257824
0.208679
-0.261469
0.205444
-0.266407
0.19955
-0.263896
0.193583
-0.262952
0.181425
-0.247351
0.168722
-0.232801
0.148014
-0.199828
0.126741
-0.166958
0.100699
-0.121565
0.0749571
-0.0758888
0.0487803
-0.0279497
0.0232301
0.0168419
0.000541548
0.0508473
-0.0185126
0.057795
-0.0372934
0.0250149
-0.0587502
-0.0254142
-0.0824966
-0.0809458
-0.103479
-0.136278
-0.125876
-0.176182
-0.140377
-0.215244
-0.155019
-0.230297
-0.163798
-0.246354
-0.172823
-0.247061
-0.17961
-0.249365
-0.187247
-0.245273
-0.194734
-0.242501
-0.203292
-0.237712
-0.212309
-0.233946
-0.222146
-0.229308
-0.232089
-0.225199
-0.242849
-0.21961
-0.253655
-0.214678
-0.208513
-0.26532
0.265024
-0.275589
0.256078
0.246761
0.239076
0.231682
0.226111
0.22116
0.217653
0.212833
0.209124
0.200771
0.193722
0.177267
0.162719
0.138324
0.117358
0.0899725
0.0655196
0.0393194
0.0128086
-0.00540038
-0.0238844
-0.0413246
-0.0610889
-0.0862437
-0.105212
-0.129597
-0.143849
-0.160359
-0.168867
-0.17844
-0.185061
-0.192557
-0.199462
-0.207587
-0.215838
-0.225801
-0.235252
-0.246218
-0.256488
-0.268384
0.177924
-0.250399
0.161011
-0.248407
0.145082
-0.246175
0.130101
-0.24337
0.116054
-0.240193
0.102764
-0.236772
0.0902169
-0.233161
0.0784034
-0.229369
0.0672073
-0.225501
0.0565753
-0.221768
0.0463146
-0.217771
0.0365651
-0.214311
0.0269588
-0.209811
0.0192497
-0.207844
0.0127282
-0.198524
0.0119672
-0.187902
-0.145214
0.171303
-0.234542
0.155739
-0.232844
0.140736
-0.231173
0.126447
-0.229081
0.112885
-0.22663
0.100013
-0.2239
0.0877946
-0.220943
0.0762763
-0.217851
0.0653842
-0.214609
0.0549992
-0.211383
0.0451261
-0.207898
0.0355933
-0.204779
0.026491
-0.200709
0.0176307
-0.198983
0.0104171
-0.191311
0.00600563
-0.18349
-0.139208
0.165039
-0.218936
0.150254
-0.218058
0.135978
-0.216897
0.122333
-0.215436
0.1093
-0.213597
0.0968742
-0.211474
0.0850471
-0.209116
0.0738633
-0.206667
0.0632735
-0.204019
0.0531515
-0.201261
0.0435383
-0.198285
0.0342705
-0.195511
0.0256075
-0.192046
0.0170406
-0.190416
0.00973454
-0.184005
0.00400629
-0.177762
-0.135202
0.157711
-0.205221
0.144205
-0.204552
0.130884
-0.203576
0.117991
-0.202543
0.105563
-0.201168
0.0936323
-0.199544
0.0822651
-0.197748
0.071456
-0.195858
0.0611938
-0.193757
0.0513844
-0.191452
0.0420452
-0.188945
0.0330515
-0.186517
0.0245921
-0.183586
0.0161224
-0.181947
0.00878089
-0.176663
0.00235385
-0.171335
-0.132848
0.150762
-0.191799
0.13796
-0.191749
0.125506
-0.191122
0.113338
-0.190375
0.101572
-0.189403
0.0902358
-0.188207
0.0793777
-0.18689
0.0689784
-0.185459
0.0590657
-0.183844
0.0495933
-0.18198
0.0405608
-0.179913
0.0318869
-0.177843
0.0237187
-0.175418
0.015643
-0.173871
0.00848261
-0.169503
0.0018076
-0.16466
-0.131041
0.142828
-0.180096
0.131141
-0.180063
0.119728
-0.179708
0.10837
-0.179018
0.0973238
-0.178356
0.086642
-0.177525
0.0763424
-0.176591
0.0664155
-0.175532
0.0568954
-0.174324
0.0477984
-0.172883
0.0391203
-0.171235
0.0307864
-0.169509
0.0229123
-0.167544
0.0151286
-0.166087
0.00830221
-0.162676
0.00167798
-0.158036
-0.129363
0.135243
-0.168682
0.12426
-0.16908
0.113545
-0.168994
0.103113
-0.168586
0.0928056
-0.168048
0.0828167
-0.167536
0.0731317
-0.166906
0.0637478
-0.166148
0.0546595
-0.165236
0.0459616
-0.164185
0.0376627
-0.162936
0.0297148
-0.161561
0.0222095
-0.160039
0.014813
-0.158691
0.00825453
-0.156118
0.0018468
-0.151628
-0.127516
0.12675
-0.158821
0.116815
-0.159145
0.107037
-0.159216
0.097431
-0.158981
0.0880204
-0.158638
0.0787417
-0.158258
0.069713
-0.157877
0.0609056
-0.157341
0.052332
-0.156662
0.0440627
-0.155915
0.0361554
-0.155029
0.028616
-0.154022
0.0214573
-0.15288
0.0145086
-0.151742
0.00822805
-0.149837
0.00213812
-0.145538
-0.125378
0.118714
-0.149345
0.109449
-0.149879
0.100316
-0.150083
0.0914437
-0.150108
0.0828185
-0.150013
0.0743994
-0.149839
0.0660318
-0.149509
0.0578674
-0.149176
0.0498986
-0.148694
0.0421252
-0.148142
0.0346166
-0.14752
0.0274752
-0.146881
0.0206589
-0.146064
0.0141375
-0.145221
0.00811814
-0.143818
0.00245549
-0.139876
-0.122922
0.109763
-0.141313
0.101553
-0.141669
0.0933606
-0.14189
0.0852764
-0.142024
0.0773516
-0.142088
0.0696122
-0.142099
0.0620684
-0.141966
0.0545943
-0.141702
0.0472378
-0.141337
0.040087
-0.140991
0.0330919
-0.140525
0.0263315
-0.14012
0.0198524
-0.139585
0.0137317
-0.1391
0.007956
-0.138042
0.00264852
-0.134568
-0.120274
0.101245
-0.133697
0.0937561
-0.134181
0.0863238
-0.134458
0.0789815
-0.134682
0.0717778
-0.134884
0.0646688
-0.13499
0.0576981
-0.134995
0.0509135
-0.134917
0.0443173
-0.134741
0.0378126
-0.134486
0.0314351
-0.134147
0.0252339
-0.133919
0.0191426
-0.133493
0.0133548
-0.133312
0.00783234
-0.13252
0.00283929
-0.129575
-0.117434
0.0918399
-0.127411
0.0853911
-0.127732
0.0789301
-0.127997
0.0724755
-0.128227
0.0660326
-0.128441
0.0596334
-0.128591
0.0533022
-0.128664
0.0470768
-0.128692
0.0409847
-0.128649
0.035097
-0.128599
0.0293933
-0.128444
0.0238122
-0.128338
0.0182967
-0.127978
0.0129808
-0.127996
0.00779089
-0.12733
0.00310354
-0.124888
-0.114331
0.082867
-0.121556
0.0771242
-0.121989
0.0714195
-0.122292
0.0657434
-0.122551
0.060077
-0.122775
0.0544244
-0.122938
0.0488063
-0.123046
0.0432392
-0.123125
0.037752
-0.123162
0.032353
-0.1232
0.027058
-0.123149
0.0219316
-0.123211
0.017013
-0.123059
0.012234
-0.123217
0.00751115
-0.122607
0.00315572
-0.120532
-0.111175
0.0731013
-0.116937
0.0683414
-0.117229
0.0635421
-0.117493
0.0586887
-0.117698
0.0538049
-0.117891
0.0489146
-0.118048
0.0440428
-0.118174
0.0392062
-0.118288
0.0344183
-0.118374
0.0296862
-0.118468
0.0250207
-0.118483
0.0204276
-0.118618
0.0158987
-0.11853
0.0114796
-0.118798
0.00719489
-0.118322
0.00318682
-0.116524
-0.107988
0.0637417
-0.112756
0.0596376
-0.113125
0.0555223
-0.113378
0.0513988
-0.113574
0.0472497
-0.113742
0.0430857
-0.113884
0.0389215
-0.11401
0.034763
-0.11413
0.0306202
-0.114231
0.0265012
-0.114349
0.0224192
-0.114401
0.0183879
-0.114587
0.014391
-0.114533
0.0104738
-0.114881
0.00662148
-0.11447
0.0029978
-0.112901
-0.10499
0.053748
-0.1097
0.0505388
-0.109916
0.0472405
-0.110079
0.0438656
-0.110199
0.0404415
-0.110318
0.0369916
-0.110434
0.0335262
-0.110544
0.0300468
-0.11065
0.0265628
-0.110747
0.023071
-0.110857
0.0196
-0.11093
0.0161298
-0.111117
0.012703
-0.111107
0.00929539
-0.111474
0.00586639
-0.111041
0.00271047
-0.109745
-0.10228
0.0441788
-0.107082
0.0415913
-0.107328
0.0389463
-0.107434
0.0362645
-0.107518
0.0335413
-0.107595
0.0307795
-0.107672
0.0279861
-0.107751
0.0251698
-0.107834
0.0223411
-0.107918
0.0194925
-0.108008
0.0166413
-0.108079
0.0137517
-0.108227
0.0108871
-0.108242
0.00797644
-0.108563
0.00505042
-0.108115
0.00233323
-0.107027
-0.0999468
0.0340919
-0.105494
0.0323184
-0.105555
0.0304437
-0.10556
0.0285055
-0.105579
0.0265112
-0.1056
0.0244673
-0.105628
0.0223733
-0.105657
0.0202281
-0.105689
0.0180357
-0.105726
0.0158004
-0.105773
0.0135478
-0.105826
0.0112586
-0.105938
0.00898666
-0.10597
0.00661775
-0.106194
0.0043034
-0.105801
0.00199795
-0.104722
-0.0979489
0.0244116
-0.104284
0.0232144
-0.104358
0.0219748
-0.10432
0.0206954
-0.1043
0.0193673
-0.104272
0.0179896
-0.104251
0.0165619
-0.104229
0.0150852
-0.104212
0.0135593
-0.1042
0.01198
-0.104194
0.010351
-0.104197
0.00864409
-0.104231
0.00691799
-0.104244
0.00508457
-0.104361
0.0033212
-0.104037
0.00146291
-0.102864
-0.0964859
0.0143253
-0.104081
0.0138657
-0.103898
0.0133209
-0.103775
0.0127028
-0.103682
0.0120209
-0.10359
0.0112765
-0.103506
0.0104745
-0.103427
0.00961587
-0.103353
0.00870114
-0.103285
0.00773152
-0.103224
0.00670887
-0.103175
0.00562365
-0.103146
0.00451411
-0.103134
0.0032736
-0.10312
0.0021124
-0.102876
0.000788232
-0.10154
-0.0956977
0.00477664
-0.104151
0.00491953
-0.104041
0.00504095
-0.103897
0.00509445
-0.103735
0.00508159
-0.103577
0.00499722
-0.103422
0.00484307
-0.103273
0.00461798
-0.103128
0.00432178
-0.102989
0.00395512
-0.102857
0.00351653
-0.102736
0.00300343
-0.102633
0.00243507
-0.102566
0.00174579
-0.102431
0.00110684
-0.102237
0.000291826
-0.100725
-0.0954059
-0.00493035
-0.105399
-0.00402162
-0.10495
-0.00322986
-0.104688
-0.00253014
-0.104435
-0.00190182
-0.104206
-0.00135297
-0.103971
-0.000883532
-0.103743
-0.000494654
-0.103517
-0.000185496
-0.103298
4.39101e-05
-0.103087
0.000192209
-0.102884
0.000262123
-0.102703
0.000256811
-0.102561
0.000154826
-0.102329
6.29433e-05
-0.102145
-0.000232398
-0.100429
-0.0956383
-0.0144844
-0.1067
-0.0130198
-0.106414
-0.0115776
-0.106131
-0.0102354
-0.105777
-0.00898798
-0.105453
-0.0078291
-0.10513
-0.00675488
-0.104817
-0.00576444
-0.104508
-0.00485682
-0.104206
-0.00403184
-0.103912
-0.00329024
-0.103626
-0.00262682
-0.103366
-0.00204687
-0.103141
-0.00155779
-0.102818
-0.00107093
-0.102632
-0.000807475
-0.100693
-0.0964458
-0.0239046
-0.109301
-0.0217551
-0.108564
-0.0197417
-0.108144
-0.017815
-0.107704
-0.0159731
-0.107295
-0.0142212
-0.106882
-0.0125588
-0.106479
-0.0109846
-0.106082
-0.00949635
-0.105694
-0.00809324
-0.105315
-0.00677377
-0.104945
-0.00553254
-0.104608
-0.00437959
-0.104294
-0.00329925
-0.103898
-0.00224697
-0.103684
-0.00137354
-0.101566
-0.0978193
-0.0331742
-0.111774
-0.0304589
-0.111279
-0.027803
-0.1108
-0.0252654
-0.110242
-0.022836
-0.109724
-0.0205074
-0.10921
-0.0182751
-0.108711
-0.0161356
-0.108221
-0.0140865
-0.107743
-0.0121263
-0.107275
-0.0102511
-0.10682
-0.00845658
-0.106402
-0.00675075
-0.106
-0.00509995
-0.105549
-0.00348617
-0.105298
-0.00196221
-0.10309
-0.0997815
-0.042199
-0.115655
-0.0388511
-0.114627
-0.035654
-0.113997
-0.0325592
-0.113337
-0.0295678
-0.112716
-0.0266802
-0.112098
-0.023894
-0.111498
-0.0212051
-0.11091
-0.0186103
-0.110338
-0.0161071
-0.109778
-0.0136911
-0.109236
-0.0113574
-0.108736
-0.00910527
-0.108252
-0.00689555
-0.107759
-0.00475108
-0.107443
-0.00246473
-0.105376
-0.102246
-0.0510883
-0.119263
-0.047184
-0.118532
-0.0433779
-0.117803
-0.0397086
-0.117006
-0.0361653
-0.116259
-0.032736
-0.115527
-0.0294143
-0.114819
-0.0261948
-0.11413
-0.0230723
-0.11346
-0.0200381
-0.112812
-0.0170784
-0.112196
-0.0141896
-0.111625
-0.0113776
-0.111064
-0.00854001
-0.110596
-0.00584198
-0.110141
-0.00295377
-0.108265
-0.1052
-0.0596942
-0.124363
-0.0552036
-0.123022
-0.0508883
-0.122118
-0.0466943
-0.1212
-0.0426231
-0.12033
-0.0386705
-0.11948
-0.0348311
-0.118659
-0.0310961
-0.117865
-0.0274529
-0.117104
-0.0238895
-0.116376
-0.0203805
-0.115705
-0.0169338
-0.115071
-0.0135332
-0.114464
-0.0101607
-0.113969
-0.00689715
-0.113404
-0.00345907
-0.111703
-0.108659
-0.0681693
-0.129059
-0.0631454
-0.128046
-0.058256
-0.127008
-0.053524
-0.125932
-0.048935
-0.124919
-0.0444722
-0.123942
-0.0401244
-0.123007
-0.0358799
-0.122109
-0.0317122
-0.121271
-0.0276079
-0.12048
-0.023575
-0.119738
-0.0196069
-0.119039
-0.0156854
-0.118386
-0.0117961
-0.117858
-0.00796296
-0.117237
-0.00398173
-0.115684
-0.112641
-0.0763466
-0.135297
-0.0707812
-0.133612
-0.0654171
-0.132372
-0.0601904
-0.131158
-0.0551003
-0.130009
-0.0501366
-0.128906
-0.0452876
-0.127856
-0.0405309
-0.126866
-0.0358548
-0.125947
-0.0312518
-0.125083
-0.0267132
-0.124277
-0.0222324
-0.12352
-0.0177921
-0.122826
-0.0133858
-0.122265
-0.0090364
-0.121587
-0.00452249
-0.120198
-0.117163
-0.0844115
-0.141037
-0.0783402
-0.139683
-0.0724353
-0.138277
-0.0667066
-0.136887
-0.0611268
-0.135589
-0.0556744
-0.134358
-0.0503331
-0.133197
-0.0450892
-0.13211
-0.0399251
-0.131112
-0.0348311
-0.130177
-0.029797
-0.129311
-0.0248143
-0.128503
-0.0198697
-0.127771
-0.0149646
-0.12717
-0.0100948
-0.126457
-0.00505735
-0.125235
-0.122221
-0.0921509
-0.148311
-0.0856131
-0.146221
-0.0792738
-0.144616
-0.0730819
-0.143079
-0.0670311
-0.14164
-0.0611048
-0.140285
-0.0552851
-0.139017
-0.0495634
-0.137832
-0.0439264
-0.136749
-0.0383528
-0.135751
-0.0328342
-0.134829
-0.0273587
-0.133979
-0.0219161
-0.133213
-0.0165121
-0.132574
-0.0111195
-0.131849
-0.00558104
-0.130774
-0.127802
-0.0998539
-0.155025
-0.092819
-0.153256
-0.0859814
-0.151454
-0.0793295
-0.149731
-0.072826
-0.148143
-0.0664442
-0.146667
-0.0601644
-0.145296
-0.0539687
-0.144027
-0.0478637
-0.142854
-0.0418189
-0.141796
-0.0358216
-0.140827
-0.0298622
-0.139938
-0.0239308
-0.139144
-0.018031
-0.138473
-0.0121277
-0.137753
-0.00610798
-0.136793
-0.13391
-0.107184
-0.163225
-0.09976
-0.16068
-0.092532
-0.158682
-0.0854551
-0.156808
-0.0785176
-0.155081
-0.0716973
-0.153487
-0.0649736
-0.15202
-0.0583291
-0.150672
-0.0517481
-0.149435
-0.0452423
-0.148301
-0.0387737
-0.147295
-0.0323348
-0.146377
-0.0259196
-0.14556
-0.0195325
-0.144861
-0.0131375
-0.144148
-0.00664152
-0.143289
-0.140551
-0.114523
-0.170818
-0.106626
-0.168576
-0.0989467
-0.166361
-0.0914509
-0.164304
-0.0840949
-0.162437
-0.07685
-0.160732
-0.0696955
-0.159175
-0.0626134
-0.157754
-0.055589
-0.156459
-0.0486098
-0.155281
-0.0416857
-0.154219
-0.0347822
-0.15328
-0.0278944
-0.152447
-0.0210245
-0.15173
-0.0141405
-0.151032
-0.0071728
-0.150257
-0.147724
-0.121448
-0.179825
-0.113234
-0.176791
-0.105201
-0.174394
-0.0973111
-0.172194
-0.0895489
-0.170199
-0.0818902
-0.16839
-0.0743148
-0.16675
-0.0668049
-0.165264
-0.0593451
-0.163919
-0.0519211
-0.162704
-0.0445282
-0.161612
-0.0371698
-0.160639
-0.029824
-0.159793
-0.0224939
-0.159061
-0.0151437
-0.158382
-0.007713
-0.157688
-0.155437
-0.128425
-0.18819
-0.119768
-0.185448
-0.11133
-0.182832
-0.103055
-0.180468
-0.0949021
-0.178352
-0.0868437
-0.176449
-0.0788602
-0.174733
-0.0709346
-0.17319
-0.0630514
-0.171802
-0.0551975
-0.170558
-0.0473607
-0.169449
-0.0395347
-0.168465
-0.031729
-0.167599
-0.0239334
-0.166856
-0.0161218
-0.166193
-0.00823888
-0.165571
-0.163676
-0.134992
-0.197843
-0.126093
-0.194347
-0.117347
-0.191577
-0.108719
-0.189096
-0.100198
-0.186874
-0.0917606
-0.184886
-0.0833882
-0.183106
-0.0750631
-0.181515
-0.0667703
-0.180095
-0.0584973
-0.178831
-0.0502335
-0.177713
-0.0419706
-0.176728
-0.0337011
-0.175868
-0.0254236
-0.175134
-0.0171178
-0.174499
-0.00877419
-0.173914
-0.17245
-0.141609
-0.206822
-0.132317
-0.203639
-0.123216
-0.200678
-0.114247
-0.198066
-0.105372
-0.195748
-0.0965704
-0.193688
-0.0878229
-0.191853
-0.0791123
-0.190225
-0.0704234
-0.188784
-0.0617432
-0.187512
-0.0530613
-0.186395
-0.0443691
-0.18542
-0.0356607
-0.184577
-0.026935
-0.183859
-0.0181706
-0.183264
-0.00932921
-0.182756
-0.181779
-0.147706
-0.217024
-0.138203
-0.213142
-0.12879
-0.210091
-0.119454
-0.207402
-0.110199
-0.205003
-0.101009
-0.202879
-0.0918658
-0.200997
-0.0827569
-0.199334
-0.073669
-0.197872
-0.064592
-0.196589
-0.0555166
-0.19547
-0.0464311
-0.194505
-0.0373211
-0.193687
-0.028175
-0.193006
-0.018984
-0.192455
-0.00971707
-0.192023
-0.191496
-0.200562
-0.173022
0.214642
-0.187599
-0.17834
-0.174547
-0.183515
-0.162418
-0.188429
-0.150279
-0.193161
-0.138865
-0.197661
-0.127488
-0.201947
-0.116696
-0.205953
-0.106007
-0.209717
-0.0957759
-0.213204
-0.085678
-0.216422
-0.0759242
-0.219357
-0.0663154
-0.222002
-0.0569502
-0.224356
-0.0477249
-0.226404
-0.0386545
-0.228151
-0.0297037
-0.229583
-0.0208307
-0.230703
-0.0120434
-0.231502
-0.0032691
-0.231981
0.00546663
-0.23214
0.0142424
-0.231977
0.0230411
-0.231491
0.0319169
-0.23069
0.0408907
-0.229566
0.0499651
-0.228136
0.0592235
-0.22639
0.0685931
-0.224348
0.078244
-0.222001
0.0880005
-0.219368
0.0981472
-0.216446
0.108376
-0.213245
0.119118
-0.20978
0.129897
-0.206037
0.141323
-0.202057
0.152708
-0.197806
0.164911
-0.193361
0.177027
-0.188682
0.190164
-0.183824
0.202994
-0.1786
-0.173348
-0.197639
-0.186217
0.210834
-0.184801
-0.191178
-0.172361
-0.195954
-0.160303
-0.200488
-0.148593
-0.20487
-0.137234
-0.209021
-0.126209
-0.212972
-0.115496
-0.216666
-0.105069
-0.220144
-0.0949178
-0.223355
-0.085009
-0.22633
-0.0753339
-0.229032
-0.065857
-0.231479
-0.0565682
-0.233644
-0.0474329
-0.235539
-0.0384365
-0.237147
-0.0295477
-0.238471
-0.0207467
-0.239504
-0.0120056
-0.240243
-0.00330208
-0.240685
0.00539123
-0.240833
0.0140978
-0.240684
0.0228448
-0.240238
0.0316533
-0.239498
0.0405541
-0.238467
0.0495627
-0.237144
0.0587148
-0.235542
0.06802
-0.233653
0.077517
-0.231498
0.0872108
-0.229062
0.0971407
-0.226376
0.107312
-0.223416
0.117759
-0.220227
0.128492
-0.21677
0.139539
-0.213104
0.150912
-0.209179
0.162624
-0.205074
0.174697
-0.200754
0.187114
-0.196241
0.199964
-0.19145
-0.186525
-0.195046
-0.199107
0.207936
-0.182521
-0.203703
-0.170363
-0.208113
-0.158537
-0.212314
-0.147059
-0.216348
-0.135898
-0.220182
-0.125057
-0.223812
-0.114498
-0.227225
-0.104222
-0.23042
-0.0941925
-0.233385
-0.0844046
-0.236118
-0.0748258
-0.238611
-0.065445
-0.24086
-0.0562333
-0.242856
-0.0471744
-0.244598
-0.0382419
-0.24608
-0.0294152
-0.247298
-0.0206698
-0.248249
-0.0119821
-0.248931
-0.00333075
-0.249336
0.00531084
-0.249475
0.0139653
-0.249338
0.0226568
-0.24893
0.0314091
-0.248251
0.0402442
-0.247302
0.049188
-0.246088
0.0582588
-0.244613
0.0674853
-0.242879
0.0768803
-0.240893
0.0864753
-0.238657
0.096278
-0.236179
0.106324
-0.233462
0.116614
-0.230517
0.127188
-0.227344
0.13804
-0.223956
0.149215
-0.220354
0.160693
-0.216552
0.172512
-0.212573
0.184649
-0.208379
0.197185
-0.203986
-0.199431
-0.192776
-0.211761