/*--------------------------------*- C++ -*----------------------------------*\
  =========                 |
  \\      /  F ield         | OpenFOAM: The Open Source CFD Toolbox
   \\    /   O peration     | Website:  https://openfoam.org
    \\  /    A nd           | Version:  6
     \\/     M anipulation  |
\*---------------------------------------------------------------------------*/
FoamFile
{
    version     2.0;
    format      ascii;
    class       volScalarField;
    location    "3.86";
    object      epsilon;
}
// * * * * * * * * * * * * * * * * * * * * * * * * * * * * * * * * * * * * * //

dimensions      [0 2 -3 0 0 0 0];

internalField   nonuniform List<scalar> 
4214
(
0.235014
0.0844997
0.0343522
0.0180521
0.0133593
0.0132557
0.0171902
0.0304315
0.0757508
0.216876
0.577589
1.26254
2.20802
3.17747
3.88047
4.14366
3.96696
3.51033
2.98127
2.51297
2.1629
2.1102
2.49555
3.25274
4.46943
6.45343
9.05429
11.2222
11.5549
9.13996
4.63683
1.20856
0.131965
0.0197493
0.0123291
0.0108163
0.0111697
0.0145671
0.0265524
0.0639362
0.175614
0.0268928
0.0161841
0.0124221
0.0114295
0.0118538
0.0138127
0.0199616
0.0391219
0.10621
0.314464
0.829368
1.75348
2.95597
4.09426
4.79444
4.85244
4.41597
3.74706
3.08871
2.58859
2.34035
2.50424
3.03118
4.07743
5.75945
8.14859
10.6999
12.2484
11.6474
8.43835
3.98637
0.960609
0.104724
0.0191791
0.0125625
0.0107983
0.0101424
0.0100715
0.0107822
0.0133447
0.0208505
0.0115895
0.0109542
0.0109161
0.0113345
0.0124761
0.0152866
0.0239769
0.0515181
0.150706
0.454674
1.17753
2.4155
3.93531
5.25279
5.88077
5.67506
4.94103
4.0503
3.27532
2.74868
2.54918
2.84625
3.6486
5.14061
7.3397
9.91975
12.0353
12.6168
10.9471
7.2565
3.13116
0.693221
0.0781749
0.0184943
0.0127932
0.0110457
0.0103037
0.00996963
0.00986882
0.0100008
0.0105512
0.0109178
0.0109686
0.0112647
0.0119312
0.0134827
0.0172717
0.0295563
0.0691722
0.215426
0.654432
1.66034
3.30696
5.19526
6.63139
7.02342
6.44055
5.36952
4.29289
3.49002
3.05481
3.06438
3.70205
4.95834
6.88769
9.3
11.5573
12.7935
12.2489
9.71676
5.85419
2.28072
0.465173
0.0578583
0.0180801
0.0131194
0.0113859
0.0106132
0.0102392
0.0100607
0.0100042
0.0100815
0.0111868
0.0113873
0.0118168
0.0126889
0.0147513
0.0198515
0.0372829
0.0941001
0.308197
0.933817
2.32366
4.47773
6.75669
8.15315
8.11201
7.04991
5.67384
4.54754
3.85509
3.66102
4.05652
5.14822
6.85633
8.98291
11.1195
12.5908
12.7287
11.144
8.04446
4.36817
1.52128
0.289086
0.043461
0.0178684
0.0134967
0.0117698
0.0109685
0.0105716
0.0103707
0.0102746
0.0102576
0.0116425
0.0119222
0.0124741
0.0135937
0.0163447
0.0232084
0.0479831
0.128907
0.439158
1.32039
3.2221
5.99556
8.57174
9.66322
9.02197
7.49117
5.99504
4.9486
4.49301
4.67706
5.53972
7.03454
8.92614
10.8394
12.2864
12.7262
11.7744
9.39987
6.12531
2.96317
0.920609
0.170453
0.0345818
0.0179493
0.0139727
0.0122219
0.0113805
0.0109577
0.0107413
0.0106312
0.0105886
0.012183
0.0125338
0.0132326
0.0146724
0.018361
0.0275691
0.0627331
0.176726
0.620944
1.85125
4.41393
7.86235
10.5121
11.0095
9.71197
7.90183
6.40049
5.54623
5.42535
6.0224
7.24668
8.88695
10.5899
11.9251
12.4586
11.8564
10.0308
7.2564
4.22654
1.80699
0.50858
0.100921
0.0299158
0.0183656
0.0145816
0.012758
0.0118548
0.011397
0.0111649
0.0110469
0.010995
0.0127858
0.0132177
0.0141084
0.0159668
0.0209287
0.0331965
0.0828783
0.2411
0.868134
2.56542
5.94677
9.99608
12.4095
12.0951
10.2911
8.31587
6.90014
6.30233
6.51073
7.39586
8.72772
10.1881
11.3873
11.9372
11.5398
10.0931
7.77159
5.05169
2.61009
0.991838
0.266908
0.0658441
0.0282472
0.0191898
0.0153786
0.0134071
0.0124071
0.0118962
0.0116424
0.0115163
0.0114609
0.0134465
0.0139813
0.0151288
0.0175296
0.0242066
0.0403668
0.110013
0.325594
1.20189
3.49227
7.79674
12.2679
14.0872
12.9985
10.8015
8.73331
7.43975
7.06945
7.48168
8.42435
9.57937
10.5952
11.1159
10.858
9.70479
7.76852
5.40584
3.13694
1.44326
0.506681
0.147145
0.0514458
0.0287753
0.0205357
0.0164464
0.0142133
0.0130611
0.0124668
0.0121789
0.0120406
0.0119828
0.014171
0.0148399
0.0163324
0.0194202
0.0283817
0.0493289
0.145907
0.433321
1.63678
4.63849
9.88574
14.5251
15.4897
13.7747
11.2586
9.12024
7.91357
7.65338
8.07336
8.83683
9.59737
10.028
9.85875
8.95065
7.36102
5.35875
3.35571
1.74959
0.743477
0.267362
0.099003
0.0485944
0.0311942
0.0225808
0.0179061
0.0152424
0.0138542
0.013127
0.0127842
0.0126246
0.0125644
0.0149757
0.0158146
0.0177701
0.0217045
0.0336715
0.0602539
0.192384
0.565958
2.18089
5.95864
12.0816
16.5796
16.7042
14.4778
11.6695
9.4318
8.21657
7.90776
8.14662
8.55735
8.81905
8.66523
7.94801
6.67256
5.02609
3.32702
1.90052
0.931277
0.405517
0.175551
0.0882949
0.0528749
0.0356955
0.0256195
0.0199502
0.0165965
0.0148465
0.0139062
0.0134737
0.013275
0.0132094
0.015886
0.016931
0.0195089
0.0244502
0.0403325
0.0731857
0.251203
0.721392
2.82691
7.35534
14.2469
18.3353
17.8375
15.1613
12.0507
9.64577
8.30437
7.80488
7.73237
7.71597
7.48835
6.87833
5.85836
4.54115
3.15567
1.95024
1.08159
0.558695
0.289061
0.160745
0.0982499
0.0631983
0.04302
0.0301505
0.0229056
0.0184441
0.0161405
0.0148519
0.0142736
0.0140011
0.0139203
0.0169329
0.0182188
0.0216407
0.0277181
0.048667
0.0879559
0.32393
0.891714
3.54167
8.68424
16.2085
19.8677
18.9658
15.8901
12.4443
9.79069
8.21785
7.43282
6.99743
6.57226
5.96291
5.10318
4.05026
2.95027
1.9761
1.23844
0.752936
0.461804
0.291838
0.188639
0.124243
0.0807714
0.0546473
0.0369946
0.0273341
0.0210623
0.0179182
0.0160457
0.0152332
0.0148226
0.0147068
0.0181543
0.0197097
0.0243025
0.0315549
0.0590621
0.104093
0.411861
1.06103
4.27616
9.78357
17.8249
21.287
20.1585
16.7491
12.9278
9.94363
8.05684
6.94516
6.16135
5.41571
4.58676
3.68815
2.80592
2.03557
1.44086
1.01809
0.726224
0.519478
0.366187
0.250245
0.169265
0.108815
0.0732613
0.0474903
0.0342318
0.0249067
0.0205113
0.017626
0.0164457
0.0157721
0.0155896
0.0196069
0.021436
0.0277192
0.0359759
0.0720959
0.120741
0.516778
1.20537
4.98903
10.5149
19.0595
22.6093
21.459
17.8429
13.6103
10.2304
7.96586
6.51626
5.43605
4.48166
3.58734
2.79689
2.16528
1.69346
1.35251
1.09284
0.872873
0.677056
0.50243
0.350502
0.242371
0.152743
0.103664
0.0637557
0.0454277
0.0307096
0.0245512
0.0198236
0.0180981
0.0169034
0.0166086
0.0214076
0.0234189
0.0322928
0.0409054
0.0887781
0.136517
0.643047
1.2964
5.68252
10.753
19.9106
23.7612
22.8265
19.2857
14.593
10.7994
8.08352
6.29093
4.96287
3.89936
3.04568
2.41605
2.00277
1.72743
1.52359
1.33751
1.13537
0.921056
0.711592
0.50123
0.359749
0.220241
0.15457
0.0888848
0.0644197
0.0395631
0.0312972
0.0229982
0.0205953
0.0183109
0.017857
0.0238482
0.0256109
0.0388142
0.0459808
0.11108
0.14892
0.801192
1.29942
6.44792
10.3594
20.424
24.4789
24.0014
21.2231
15.8846
11.8337
8.5185
6.37798
4.82014
3.69411
2.93521
2.42057
2.17853
1.989
1.85376
1.70224
1.50411
1.25449
1.01931
0.714944
0.548752
0.319698
0.242215
0.126506
0.0982275
0.0527722
0.0434158
0.027592
0.0248581
0.0201323
0.0195766
0.0186677
0.017521
0.0164898
0.0155561
0.014703
0.0139197
0.0132012
0.0125481
0.0119627
0.0114424
0.0109841
0.0105999
0.0103304
0.0103752
0.0120197
0.0416334
0.50002
0.0187492
0.0176979
0.0167476
0.0158752
0.0150634
0.0143055
0.0136033
0.012962
0.0123841
0.0118686
0.0114147
0.0110394
0.0107976
0.0109258
0.0130436
0.0470275
0.56184
0.0188845
0.0179383
0.0170613
0.0162392
0.0154628
0.0147296
0.014045
0.0134183
0.0128516
0.0123454
0.011901
0.011543
0.0113359
0.0115788
0.0142529
0.0535855
0.627857
0.0191047
0.0182558
0.0174333
0.0166478
0.0158989
0.0151867
0.0145198
0.0139088
0.0133567
0.0128648
0.0124359
0.0121016
0.0119425
0.0123286
0.0156769
0.0619327
0.702237
0.0195083
0.018657
0.0178601
0.0171
0.016372
0.015679
0.0150313
0.0144388
0.0139046
0.0134305
0.0130214
0.012717
0.0126189
0.013177
0.0173246
0.0717321
0.784337
0.0198111
0.0190714
0.0183239
0.0175909
0.0168817
0.0162076
0.0155815
0.0150113
0.0144984
0.0140448
0.0136592
0.0133899
0.0133651
0.014121
0.0191873
0.0826472
0.873448
0.0203785
0.0195874
0.0188437
0.0181252
0.0174322
0.0167778
0.0161755
0.0156308
0.0151423
0.0147118
0.0143529
0.0141239
0.0141847
0.0151672
0.021253
0.0943418
0.968408
0.0207486
0.0200834
0.019389
0.0186964
0.0180252
0.0173953
0.0168204
0.0163033
0.0158409
0.015436
0.0151069
0.0149241
0.0150826
0.0163175
0.023507
0.106467
1.06748
0.0214467
0.0206997
0.0199954
0.0193146
0.0186663
0.0180664
0.0175232
0.0170358
0.0166007
0.0162229
0.0159269
0.0157969
0.0160654
0.0175787
0.025931
0.118629
1.16834
0.0218847
0.0212772
0.0206238
0.0199739
0.0193588
0.0187962
0.0182897
0.0178348
0.0174286
0.01708
0.0168209
0.0167505
0.0171422
0.0189637
0.0285161
0.130547
1.26942
0.0227028
0.0219902
0.021322
0.0206917
0.0201128
0.019592
0.0191253
0.0187054
0.0183309
0.0180143
0.0177972
0.0177948
0.0183261
0.0204891
0.0313028
0.142269
1.36935
0.0232152
0.0226548
0.0220467
0.0214636
0.0209341
0.020461
0.0200365
0.0196535
0.0193133
0.0190331
0.0188647
0.0189386
0.019629
0.0221703
0.0343282
0.153877
1.46704
0.0241454
0.0234658
0.0228539
0.0223104
0.0218333
0.0214105
0.02103
0.020686
0.0203831
0.020144
0.0200318
0.0201927
0.021065
0.0240223
0.0376104
0.165367
1.56154
0.0247433
0.0242338
0.0237042
0.0232299
0.0228156
0.0224465
0.0221121
0.0218097
0.0215484
0.0213562
0.0213088
0.0215679
0.0226473
0.0260616
0.041183
0.176682
1.65139
0.0257775
0.025158
0.0246543
0.0242421
0.0238902
0.0235757
0.0232894
0.0230322
0.0228178
0.0226795
0.0227065
0.0230767
0.0243886
0.0283029
0.0450801
0.187532
1.73323
0.0264831
0.0260661
0.0256725
0.0253447
0.0250605
0.0248034
0.0245687
0.024362
0.0242009
0.0241251
0.0242362
0.0247322
0.0263029
0.0307601
0.0493142
0.197386
1.80379
0.0276191
0.0271383
0.0268051
0.026552
0.0263336
0.0261362
0.0259581
0.0258087
0.025709
0.0257049
0.0259105
0.0265481
0.0284002
0.0334459
0.0539583
0.205412
1.85958
0.0284762
0.0282396
0.0280273
0.0278613
0.0277127
0.027581
0.0274669
0.0273837
0.0273547
0.0274327
0.0277443
0.0285409
0.0306945
0.0363741
0.058662
0.213087
1.89646
0.0297238
0.0295011
0.0293655
0.0292805
0.0292054
0.0291472
0.0291066
0.0291001
0.0291528
0.0293253
0.029756
0.0307286
0.0332001
0.0395655
0.0636312
0.220959
1.9153
0.0308078
0.0308326
0.0308045
0.0308106
0.0308186
0.0308452
0.0308903
0.0309728
0.0311206
0.0314027
0.0319662
0.0331336
0.0359394
0.0430451
0.0689837
0.228757
1.91167
0.0321924
0.0322998
0.0323603
0.0324617
0.0325647
0.0326895
0.0328348
0.0330217
0.033281
0.0336876
0.0343993
0.0357802
0.0389307
0.0468287
0.0747635
0.237125
1.88308
0.0336226
0.0338572
0.0340312
0.0342423
0.0344573
0.0346965
0.0349601
0.0352698
0.0356598
0.0362106
0.0370904
0.0387086
0.0422342
0.0509725
0.0810998
0.247524
1.83403
0.0351764
0.0355325
0.0358342
0.0361694
0.0365145
0.0368873
0.0372906
0.0377457
0.0382904
0.0390094
0.0400835
0.0419635
0.0458902
0.0555305
0.0880228
0.257185
1.77167
0.0368513
0.0373239
0.0377721
0.0382556
0.0387549
0.0392855
0.0398539
0.0404811
0.0412072
0.0421198
0.0434101
0.0455573
0.0498533
0.0602686
0.0945362
0.264331
1.70279
0.0386218
0.0392599
0.0398725
0.0405237
0.0412021
0.0419201
0.0426849
0.043518
0.04446
0.0455992
0.0471345
0.04956
0.0542025
0.0652308
0.100625
0.268286
1.62973
0.0405348
0.0413339
0.0421413
0.0429945
0.0438852
0.0448259
0.045826
0.0469068
0.0481091
0.0495201
0.0513405
0.0540677
0.0590384
0.0705022
0.10632
0.269419
1.55451
0.0425678
0.0435839
0.0446102
0.0456955
0.0468365
0.0480435
0.0493271
0.0507089
0.0522291
0.0539729
0.0561363
0.0592095
0.0645115
0.0762606
0.111855
0.269261
1.47879
0.0447679
0.0460038
0.0472926
0.0486556
0.0500943
0.0516208
0.0532478
0.0549977
0.0569108
0.0590688
0.0616595
0.0651544
0.0708337
0.0828143
0.117793
0.268522
1.40379
0.0471176
0.0486369
0.0502227
0.0519096
0.0537023
0.0556136
0.0576587
0.059862
0.0622646
0.0649456
0.0680825
0.0721184
0.0782779
0.0905026
0.124627
0.26802
1.33033
0.0496527
0.051481
0.053423
0.0554962
0.0577121
0.0600881
0.0626441
0.0654085
0.0684257
0.0717736
0.0756199
0.0803751
0.0871865
0.0997573
0.132929
0.268313
1.25893
0.0523775
0.0545828
0.0569323
0.0594604
0.0621829
0.0651222
0.0683052
0.0717674
0.0755601
0.0797647
0.0845428
0.0902738
0.0980109
0.111177
0.143464
0.2704
1.18996
0.0553176
0.0579463
0.060783
0.0638533
0.0671841
0.0708082
0.0747633
0.0790972
0.0838734
0.0891853
0.0951963
0.102263
0.111341
0.125541
0.157293
0.275654
1.12362
0.0584848
0.0616197
0.0650201
0.0687331
0.0727962
0.0772553
0.0821651
0.0875928
0.0936235
0.100374
0.108026
0.116931
0.127962
0.143902
0.175863
0.285899
1.06007
0.0619042
0.0656147
0.0696864
0.0741668
0.0791136
0.0845943
0.0906892
0.0974961
0.105136
0.113769
0.123619
0.135065
0.148937
0.167707
0.201129
0.303617
0.999374
0.0655874
0.0699805
0.0748354
0.0802307
0.086247
0.0929821
0.100555
0.109111
0.11883
0.129942
0.142756
0.157737
0.175744
0.199021
0.235956
0.332641
0.941543
0.0695605
0.074736
0.0805219
0.0870128
0.0943275
0.10261
0.112035
0.122823
0.135246
0.149653
0.166505
0.18644
0.21049
0.240851
0.284665
0.378919
0.886554
0.0738336
0.0799317
0.0868105
0.094614
0.103511
0.113709
0.125472
0.139128
0.1551
0.173932
0.196342
0.223309
0.256268
0.297733
0.354028
0.452205
0.834353
0.0784309
0.0855916
0.0937681
0.103149
0.113979
0.126564
0.141293
0.158668
0.179345
0.204187
0.234357
0.27145
0.317742
0.376754
0.455079
0.569669
0.784856
0.0833585
0.0917643
0.101468
0.112747
0.125947
0.141516
0.160038
0.182278
0.209263
0.242383
0.283561
0.335505
0.402135
0.489337
0.606374
0.763089
0.73793
0.0886329
0.0984749
0.109989
0.123555
0.139672
0.158995
0.1824
0.211067
0.246618
0.291324
0.348424
0.422656
0.52112
0.65479
0.840903
1.09457
0.693376
0.0940946
0.0987453
0.103532
0.108432
0.113422
0.118476
0.123557
0.128626
0.133639
0.138548
0.143304
0.14785
0.152133
0.156096
0.159685
0.162846
0.16553
0.167696
0.169305
0.170331
0.17073
0.170327
0.169299
0.167689
0.165523
0.16284
0.159681
0.156096
0.152138
0.147861
0.143323
0.138577
0.133679
0.128679
0.123624
0.118558
0.113518
0.108542
0.103658
0.0988902
0.0942556
0.105634
0.1108
0.116112
0.121539
0.127061
0.13264
0.138245
0.143826
0.149341
0.154732
0.15995
0.164931
0.169619
0.17395
0.177869
0.181316
0.18424
0.186595
0.188341
0.18945
0.189878
0.189445
0.188333
0.186583
0.184226
0.181301
0.177855
0.173938
0.16961
0.164927
0.159952
0.154742
0.14936
0.143856
0.138288
0.132697
0.127131
0.121624
0.116214
0.110921
0.105771
0.119312
0.12507
0.130977
0.137009
0.143134
0.149317
0.155516
0.161683
0.167765
0.173707
0.179446
0.184921
0.190065
0.194813
0.199103
0.202873
0.206066
0.208634
0.210535
0.211736
0.212196
0.21173
0.210524
0.208618
0.206046
0.202849
0.199078
0.194789
0.190042
0.1849
0.17943
0.173697
0.167764
0.161691
0.155536
0.14935
0.143181
0.137069
0.131054
0.125163
0.11942
0.13567
0.142108
0.148699
0.155422
0.162241
0.169115
0.175995
0.182829
0.18956
0.196125
0.20246
0.208493
0.214155
0.219375
0.224085
0.228219
0.231717
0.234525
0.2366
0.237906
0.2384
0.237899
0.236586
0.234504
0.23169
0.228187
0.22405
0.219339
0.214118
0.208457
0.202426
0.196097
0.189538
0.182816
0.175992
0.169124
0.162264
0.155458
0.148748
0.14217
0.135747
0.155421
0.162647
0.17003
0.177549
0.185167
0.192833
0.200495
0.208094
0.215567
0.222845
0.229857
0.236526
0.242777
0.248533
0.253719
0.258265
0.262107
0.265187
0.267457
0.268883
0.269416
0.268874
0.267441
0.265161
0.262073
0.258225
0.253674
0.248485
0.242727
0.236475
0.229807
0.222799
0.215526
0.208061
0.200471
0.192821
0.185167
0.177562
0.170051
0.162678
0.155466
0.179529
0.187672
0.195976
0.204418
0.212957
0.221537
0.230099
0.238577
0.2469
0.254994
0.26278
0.270175
0.277096
0.28346
0.289186
0.2942
0.298431
0.301818
0.304311
0.30587
0.306447
0.305861
0.304292
0.301789
0.298393
0.294154
0.289134
0.283402
0.277034
0.270111
0.262716
0.254932
0.246842
0.238525
0.230056
0.221505
0.212936
0.204406
0.195969
0.187674
0.179543
0.209311
0.218527
0.227904
0.237421
0.247027
0.256664
0.266262
0.275752
0.285054
0.294084
0.302755
0.310978
0.318663
0.325718
0.332059
0.337602
0.342274
0.346009
0.348752
0.350463
0.351089
0.350453
0.348731
0.345977
0.342232
0.33755
0.331999
0.325652
0.31859
0.310902
0.302678
0.294008
0.284982
0.275686
0.266205
0.256614
0.246986
0.237385
0.227872
0.218502
0.209295
0.246597
0.257074
0.267707
0.278476
0.289324
0.300184
0.310981
0.321636
0.332061
0.342164
0.351849
0.361017
0.369571
0.377414
0.384451
0.390594
0.395765
0.399892
0.402918
0.404798
0.405481
0.404788
0.402896
0.399859
0.39572
0.390539
0.384385
0.377341
0.369491
0.360933
0.351763
0.34208
0.33198
0.32156
0.310911
0.30012
0.289265
0.278419
0.267652
0.257024
0.246555
0.293981
0.305943
0.318047
0.330278
0.342572
0.354851
0.367031
0.379026
0.390741
0.402072
0.412914
0.423159
0.4327
0.441434
0.449258
0.456078
0.461811
0.466379
0.469723
0.471794
0.472539
0.471784
0.4697
0.466345
0.461764
0.456021
0.44919
0.441357
0.432616
0.42307
0.412823
0.401983
0.390654
0.378943
0.366952
0.354774
0.342499
0.330205
0.317974
0.305874
0.293919
0.355226
0.368932
0.382757
0.396692
0.410664
0.424583
0.438356
0.451888
0.465074
0.477802
0.489956
0.50142
0.512075
0.521811
0.530518
0.538095
0.544455
0.549515
0.553212
0.555494
0.556308
0.555485
0.553189
0.549482
0.544409
0.538038
0.530449
0.521733
0.51199
0.501331
0.489866
0.477714
0.464986
0.451801
0.438271
0.424499
0.410581
0.396609
0.382673
0.36885
0.355149
0.435909
0.451653
0.467482
0.483388
0.499293
0.51509
0.53068
0.545955
0.560804
0.575103
0.588726
0.601549
0.613441
0.624288
0.63397
0.642382
0.64943
0.655029
0.659112
0.661625
0.662514
0.661616
0.65909
0.654998
0.649387
0.642328
0.633904
0.624213
0.613361
0.601465
0.588642
0.575019
0.560719
0.54587
0.530595
0.515004
0.499205
0.483302
0.467393
0.451566
0.435826
0.544537
0.562629
0.580753
0.598903
0.616992
0.634903
0.652522
0.669733
0.686416
0.70244
0.717665
0.731963
0.745195
0.757239
0.767965
0.777267
0.785048
0.791219
0.795709
0.798466
0.799432
0.798458
0.79569
0.791191
0.78501
0.777219
0.767905
0.757169
0.745124
0.731891
0.717592
0.702365
0.686339
0.669655
0.652442
0.63482
0.616908
0.59882
0.580668
0.562545
0.544456
0.694487
0.715199
0.735862
0.756474
0.776937
0.797128
0.816919
0.836183
0.854796
0.872619
0.889503
0.905319
0.919915
0.933175
0.944953
0.95515
0.963661
0.9704
0.975293
0.978288
0.97933
0.978282
0.975278
0.970377
0.96363
0.955109
0.944903
0.933114
0.91986
0.905261
0.889444
0.872557
0.854732
0.836117
0.816849
0.797055
0.776865
0.756403
0.735789
0.715126
0.694416
0.907543
0.930978
0.954231
0.977322
1.00014
1.02257
1.04446
1.06569
1.08611
1.10561
1.12401
1.1412
1.15702
1.17135
1.18404
1.19501
1.20415
1.21137
1.2166
1.21979
1.2209
1.21979
1.21659
1.21135
1.20413
1.19498
1.18401
1.1713
1.15698
1.14116
1.12397
1.10556
1.08607
1.06563
1.04441
1.02251
1.00009
0.977267
0.954175
0.930925
0.907489
1.22065
1.24641
1.27176
1.29679
1.32141
1.34548
1.36887
1.39145
1.41308
1.43363
1.45297
1.47095
1.48745
1.50235
1.51553
1.52688
1.53631
1.54375
1.54912
1.55239
1.55351
1.55239
1.54912
1.54374
1.5363
1.52686
1.51551
1.50233
1.48743
1.47093
1.45294
1.4336
1.41305
1.39141
1.36884
1.34544
1.32137
1.29676
1.27172
1.24639
1.22061
1.69944
1.72586
1.75137
1.77643
1.80092
1.82473
1.84774
1.86983
1.89089
1.9108
1.92945
1.94672
1.96251
1.97671
1.98923
1.99999
2.00891
2.01592
2.02098
2.02404
2.02509
2.02404
2.02097
2.01591
2.0089
1.99998
1.98922
1.9767
1.9625
1.94671
1.92944
1.91079
1.89088
1.86982
1.84773
1.82471
1.80091
1.77642
1.75135
1.72585
1.69942
2.46712
2.48918
2.50938
2.52906
2.54816
2.5666
2.58431
2.6012
2.61721
2.63225
2.64627
2.65919
2.67095
2.68148
2.69073
2.69866
2.7052
2.71034
2.71403
2.71627
2.71702
2.71627
2.71403
2.71034
2.7052
2.69865
2.69073
2.68148
2.67095
2.65919
2.64627
2.63225
2.6172
2.6012
2.5843
2.5666
2.54816
2.52906
2.50938
2.48918
2.46712
0.681738
0.0559328
0.0133707
0.0111225
0.011133
0.0115013
0.0119909
0.0125507
0.0131614
0.0138167
0.0145271
0.015315
0.0162036
0.0172109
0.0183366
0.0195463
0.0207652
0.752717
0.0589852
0.0141468
0.0116582
0.0116078
0.0119406
0.0123972
0.0129206
0.0134888
0.0140923
0.014733
0.0154276
0.0162
0.0170799
0.0180986
0.0192742
0.0205823
0.804896
0.0628881
0.0150609
0.0122515
0.0121241
0.0124164
0.0128399
0.0133303
0.0138643
0.0144315
0.0150271
0.0156559
0.0163319
0.0170794
0.0179371
0.0189649
0.0202474
0.85982
0.0674938
0.0161132
0.0129009
0.0126797
0.012927
0.0133167
0.0137767
0.0142824
0.0148236
0.0153922
0.0159855
0.0166058
0.0172611
0.0179649
0.0187396
0.0196213
0.919227
0.0727536
0.0173118
0.0136164
0.0132816
0.013478
0.0138328
0.0142637
0.0147438
0.0152634
0.0158143
0.0163911
0.0169919
0.0176188
0.0182771
0.0189736
0.0197214
0.984316
0.0787729
0.0186684
0.0144068
0.0139365
0.0140751
0.0143935
0.0147951
0.0152496
0.0157476
0.016282
0.0168467
0.0174372
0.0180523
0.0186937
0.0193596
0.0200209
1.05476
0.0856522
0.0202094
0.0152826
0.0146529
0.0147252
0.015005
0.0153764
0.0158042
0.016279
0.0167956
0.0173483
0.0179306
0.0185382
0.0191745
0.019858
0.02063
1.13012
0.0935201
0.0219693
0.0162584
0.015441
0.0154366
0.0156744
0.0160138
0.0164136
0.0168627
0.0173585
0.0178968
0.01847
0.0190674
0.019678
0.0202975
0.0209456
1.21015
0.102472
0.0239863
0.0173518
0.0163113
0.0162181
0.0164093
0.0167147
0.0170852
0.0175059
0.017976
0.0184947
0.0190576
0.0196541
0.0202675
0.0208713
0.0214068
1.2949
0.112532
0.0262893
0.0185808
0.0172759
0.0170788
0.0172179
0.0174869
0.0178267
0.0182162
0.0186552
0.0191458
0.0196883
0.0202773
0.0209048
0.0215722
0.0223056
1.38277
0.123603
0.0289017
0.0199633
0.0183482
0.018029
0.0181091
0.018338
0.0186455
0.0190019
0.0194053
0.0198596
0.0203692
0.0209308
0.0215295
0.0221456
0.0227851
1.47168
0.13547
0.0318373
0.021518
0.0195423
0.0190795
0.0190919
0.0192757
0.0195488
0.0198703
0.0202354
0.0206478
0.021117
0.0216481
0.0222304
0.0228248
0.0233392
1.55881
0.147827
0.0351034
0.023264
0.0208736
0.0202422
0.0201763
0.0203078
0.0205429
0.020828
0.0211529
0.0215188
0.0219377
0.0224245
0.0229897
0.0236341
0.0243557
1.64162
0.160358
0.0387082
0.0252197
0.0223599
0.0215299
0.0213724
0.0214434
0.0216357
0.0218817
0.0221651
0.0224824
0.0228433
0.023265
0.0237633
0.0243411
0.0249962
1.7176
0.172706
0.0426469
0.0274012
0.0240193
0.0229581
0.0226921
0.0226931
0.0228356
0.0230385
0.0232785
0.0235472
0.0238498
0.0242038
0.0246319
0.02514
0.0256464
1.78348
0.184545
0.0469123
0.0298254
0.0258669
0.0245435
0.0241486
0.0240689
0.0241525
0.0243063
0.0244991
0.0247176
0.0249614
0.0252451
0.0255996
0.0260801
0.0267359
1.83591
0.195629
0.0514981
0.0325095
0.0279193
0.0263025
0.025757
0.0255843
0.0255983
0.0256949
0.0258343
0.0259991
0.0261825
0.0263922
0.0266469
0.0270051
0.0275582
1.87158
0.205807
0.0564152
0.0354721
0.0301904
0.0282518
0.0275337
0.0272547
0.0271872
0.0272165
0.0272938
0.0273984
0.0275187
0.027658
0.0278204
0.0280515
0.0283659
1.88989
0.21533
0.0617165
0.0387343
0.032697
0.0304073
0.0294978
0.0290973
0.0289357
0.0288854
0.0288892
0.0289236
0.0289733
0.0290406
0.0291181
0.0292615
0.0295509
1.88653
0.224445
0.0674486
0.0423215
0.0354583
0.0327931
0.0316726
0.0311338
0.0308623
0.0307179
0.0306346
0.0305859
0.0305535
0.0305399
0.0305258
0.0305579
0.0306634
1.85911
0.233868
0.0736765
0.0462562
0.0385032
0.035437
0.0340846
0.0333893
0.0329902
0.0327342
0.0325474
0.0323999
0.0322714
0.0321643
0.0320548
0.0319836
0.0318668
1.81092
0.245336
0.080576
0.050599
0.0418746
0.0383782
0.0367676
0.0358932
0.0353457
0.0349572
0.0346474
0.0343824
0.0341409
0.0339231
0.033709
0.0335344
0.0333073
1.75009
0.255572
0.087943
0.0553366
0.0456001
0.0416546
0.039761
0.0386815
0.0379606
0.0374147
0.0369586
0.036554
0.0361792
0.0358313
0.0354928
0.0351868
0.0348507
1.68376
0.262813
0.0947572
0.0602276
0.0496329
0.0452739
0.0430945
0.0417886
0.0408689
0.040139
0.0395094
0.0389392
0.0384066
0.0379056
0.0374205
0.0369703
0.0365123
1.61379
0.267289
0.101047
0.0653046
0.0540424
0.0493031
0.0468302
0.0452708
0.0441195
0.0431709
0.0423338
0.0415662
0.0408459
0.0401648
0.0395099
0.0388974
0.0382792
1.5418
0.269207
0.106895
0.0706568
0.0589259
0.053836
0.0510505
0.0491996
0.0477725
0.046561
0.045474
0.0444695
0.043525
0.0426311
0.0417766
0.0409672
0.0401665
1.46913
0.269769
0.112532
0.0764654
0.0644334
0.0590005
0.0558626
0.0536647
0.0519017
0.0503697
0.0489798
0.04769
0.0464777
0.0453323
0.0442409
0.0432067
0.042214
1.39683
0.269526
0.118519
0.083036
0.0707788
0.0649657
0.0614038
0.0587768
0.0565975
0.0546704
0.0529098
0.0512743
0.0497408
0.048296
0.0469277
0.04564
0.0444059
1.32562
0.269224
0.125333
0.0907184
0.0782361
0.071949
0.0678472
0.0646736
0.0619697
0.0595509
0.0573346
0.0552785
0.0533579
0.0515566
0.0498622
0.048268
0.0467495
1.25597
0.269614
0.133579
0.0999546
0.0871527
0.080225
0.0754081
0.0715256
0.0681536
0.0651183
0.062338
0.0597682
0.0573804
0.0551543
0.0530722
0.0511208
0.0492913
1.18826
0.271659
0.144038
0.111349
0.0979841
0.0901454
0.0843584
0.0795452
0.0753151
0.0715018
0.0680206
0.064821
0.0618674
0.0591322
0.0565913
0.0542322
0.0520336
1.12278
0.276701
0.157768
0.125685
0.111324
0.10216
0.0950434
0.0889981
0.0836594
0.0788594
0.0745037
0.0705292
0.066888
0.0635416
0.0604583
0.057613
0.0549689
1.05976
0.286653
0.176221
0.144022
0.127959
0.116858
0.107909
0.100223
0.0934431
0.0873856
0.0819336
0.0770018
0.0725227
0.0684413
0.0647115
0.0612918
0.0581531
0.999339
0.304128
0.201396
0.167816
0.148956
0.135027
0.123541
0.113656
0.104992
0.0973227
0.0904889
0.0843689
0.0788651
0.0738971
0.0693969
0.0653111
0.0615962
0.941625
0.332942
0.236157
0.19913
0.175791
0.157738
0.142719
0.129869
0.118724
0.108973
0.100388
0.092787
0.0860257
0.0799852
0.0745679
0.0696938
0.0652832
0.886658
0.379076
0.284831
0.240973
0.21057
0.186482
0.166509
0.149622
0.135179
0.122722
0.111902
0.102446
0.0941351
0.0867935
0.0802785
0.0744699
0.0692749
0.834437
0.452329
0.354192
0.297877
0.256382
0.223388
0.196386
0.17394
0.155072
0.139064
0.125374
0.113578
0.103348
0.0944227
0.0865915
0.079687
0.0735824
0.784906
0.56982
0.455255
0.376918
0.317883
0.271562
0.234435
0.204231
0.179353
0.15864
0.141229
0.126465
0.113848
0.102987
0.093577
0.0853779
0.0781858
0.737951
0.763277
0.606557
0.489509
0.402289
0.335635
0.283663
0.242454
0.209301
0.182282
0.160006
0.14145
0.125846
0.112614
0.101305
0.0915705
0.0831408
0.693382
1.09475
0.841049
0.654931
0.521255
0.422779
0.348531
0.291408
0.246676
0.211095
0.182396
0.158957
0.1396
0.123451
0.109853
0.098311
0.0884529
0.0276584
0.0500095
0.152927
1.15956
9.08292
24.4843
23.9884
13.6916
6.91901
3.81508
2.64127
2.40732
2.18799
1.68204
0.993416
0.453326
0.177808
0.0706682
0.0336726
0.0224209
0.0305398
0.0576562
0.173096
1.20548
9.08063
24.8134
26.1139
15.3692
7.63343
4.11738
3.03124
2.98897
2.8926
2.28295
1.3825
0.645104
0.253275
0.0971535
0.0422737
0.0250437
0.0342722
0.0674948
0.197521
1.23561
8.91272
24.7496
27.852
17.5058
8.90813
4.71894
3.64333
3.85964
3.9058
3.14061
1.92827
0.91556
0.363132
0.136893
0.0553892
0.0289311
0.039223
0.0804718
0.228349
1.25692
8.53188
24.0776
28.6583
20.0448
10.8637
5.50975
4.33152
4.87211
5.25164
4.36659
2.70837
1.2975
0.521477
0.196285
0.0755718
0.0348877
0.0459785
0.0980853
0.268965
1.28063
7.97207
22.7633
28.4756
21.7557
12.8897
6.94584
5.03912
5.80449
6.76408
6.02559
3.81992
1.84306
0.748498
0.284592
0.10682
0.0442667
0.0554746
0.122684
0.324525
1.32608
7.32786
20.8941
27.272
22.3408
14.351
8.49226
5.99633
6.48791
8.06325
7.96875
5.38593
2.6216
1.07462
0.415088
0.155311
0.0593191
0.0692481
0.158001
0.402753
1.41721
6.72114
18.6849
25.1422
21.7639
15.0574
9.7021
7.09126
7.10537
8.80262
9.74019
7.4031
3.73358
1.54516
0.607095
0.230557
0.0838272
0.0898636
0.209995
0.515153
1.58263
6.277
16.4354
22.3572
20.2168
14.9768
10.4536
8.07094
7.81437
9.09834
10.7998
9.56093
5.33163
2.22356
0.889698
0.347129
0.124164
0.121668
0.288168
0.679056
1.85715
6.09675
14.4491
19.3396
18.0318
14.2151
10.7074
8.78945
8.43695
9.31474
10.9658
11.248
7.36117
3.21148
1.30785
0.527501
0.1911
0.172068
0.407904
0.922159
2.28841
6.26534
12.9697
16.842
15.8016
13.0891
10.545
9.11275
8.81543
9.39072
10.5914
11.8994
9.5069
4.67849
1.92682
0.806795
0.302896
0.253989
0.593752
1.2873
2.94344
6.82973
11.9742
14.2561
13.5154
11.7712
10.0753
9.08648
8.87918
9.23436
10.0054
11.3975
11.0752
6.57966
2.85732
1.24236
0.490938
0.3902
0.886599
1.84765
3.9336
7.76811
11.3074
12.2051
11.5715
10.4743
9.4023
8.76223
8.61821
8.80678
9.23581
10.1839
11.3844
8.66542
4.29398
1.924
0.809955
0.622241
1.35549
2.72401
5.34832
8.81683
10.5241
10.3599
9.92068
9.23035
8.59412
8.19814
8.06528
8.12859
8.3085
8.79584
10.2535
10.1306
6.23077
3.01099
1.35754
1.02698
2.12459
4.05956
7.02579
9.29982
9.14897
8.63472
8.42542
8.06717
7.71651
7.4593
7.31409
7.27151
7.27442
7.44729
8.32824
10.0313
8.37748
4.78105
2.30807
1.74982
3.41137
5.85686
8.20434
8.4036
7.40332
7.12164
7.11083
6.97318
6.78546
6.59562
6.43
6.30599
6.22341
6.19287
6.54827
8.23861
9.55199
7.18837
4.02441
3.09287
5.33527
7.38875
7.6116
6.36787
5.81691
5.87755
5.96993
5.94437
5.83066
5.67329
5.49777
5.32657
5.19945
5.10144
5.16036
5.96294
8.62351
9.42037
6.87356
5.4013
7.176
7.00629
5.40341
4.59736
4.66454
4.83594
4.95865
4.98907
4.91583
4.78492
4.61858
4.44085
4.28754
4.17244
4.1127
4.39471
5.92428
9.57538
10.3809
7.87639
6.88765
4.69736
3.57391
3.59276
3.79469
4.0071
4.14632
4.19875
4.16288
4.06467
3.92197
3.75563
3.59275
3.47119
3.39556
3.43877
3.97187
6.31824
10.8995
6.77204
3.85447
2.69996
2.72133
3.04136
3.3678
3.6373
3.81476
3.89028
3.88253
3.82056
3.70337
3.54733
3.37307
3.20814
3.08599
3.05083
3.11459
3.5784
5.3915
1.93364
2.57138
3.40627
4.32915
5.18402
5.89115
6.42484
6.78103
6.94475
6.94889
6.77926
6.5192
6.18593
5.79701
5.36933
4.97053
4.65494
4.36205
4.07632
3.73814
3.223
7.45118
14.4828
8.61032
3.78034
1.70747
0.846903
0.447454
0.250377
0.148388
0.0936106
0.0633218
0.0461297
0.036108
0.0300854
0.0263278
0.0238692
0.0221688
0.0209145
0.0199338
2.71524
9.41488
10.9929
4.78902
1.90632
0.862235
0.423373
0.224017
0.127874
0.0793443
0.0539563
0.0402492
0.0325972
0.0281475
0.0254196
0.0236331
0.02237
0.0214071
0.0206168
0.0199353
2.26141
12.683
7.95367
2.83597
1.08688
0.477023
0.23245
0.125252
0.075163
0.0506396
0.0381569
0.0315366
0.0278383
0.0256254
0.0241826
0.0231486
0.0223364
0.0216515
0.0210376
0.0204724
1.76593
12.3536
5.07627
1.60399
0.615583
0.27181
0.136475
0.0780228
0.0511906
0.0383127
0.03185
0.0284107
0.0264253
0.0251546
0.0242448
0.0235231
0.0229014
0.0223384
0.0218055
0.0212966
1.27909
9.33696
3.08031
0.942707
0.365339
0.1671
0.0891475
0.0555664
0.0403436