/*--------------------------------*- C++ -*----------------------------------*\
  =========                 |
  \\      /  F ield         | OpenFOAM: The Open Source CFD Toolbox
   \\    /   O peration     | Website:  https://openfoam.org
    \\  /    A nd           | Version:  6
     \\/     M anipulation  |
\*---------------------------------------------------------------------------*/
FoamFile
{
    version     2.0;
    format      ascii;
    class       surfaceScalarField;
    location    "3.58";
    object      meshPhi;
}
// * * * * * * * * * * * * * * * * * * * * * * * * * * * * * * * * * * * * * //

dimensions      [0 3 -1 0 0 0 0];

internalField   nonuniform List<scalar> 
19800
(
-0.000322948
-0.00340084
-0.000379314
-0.0101875
-0.000173581
-0.0169293
0.000285671
-0.0235965
0.000985932
-0.0301598
0.00191097
-0.0365907
0.00304113
-0.0428611
0.00435361
-0.0489441
0.00582292
-0.0548136
0.00742124
-0.0604447
0.00911889
-0.065814
0.0108848
-0.0708991
0.0126872
-0.0756795
0.0144937
-0.0801361
0.0162722
-0.0842516
0.0179916
-0.0880101
0.0196215
-0.091398
0.0211335
-0.0944032
0.0225014
-0.0970154
0.0237014
-0.0992265
0.0247127
-0.10103
0.025518
-0.102421
0.0261033
-0.103398
0.0264585
-0.103958
0.0265776
-0.104104
0.0264585
-0.103837
0.0261033
-0.103162
0.025518
-0.102084
0.0247127
-0.100611
0.0237014
-0.0987524
0.0225014
-0.0965172
0.0211335
-0.093917
0.0196215
-0.0909645
0.0179916
-0.0876733
0.0162722
-0.0840582
0.0144937
-0.0801347
0.0126872
-0.0759192
0.0108848
-0.0714291
0.00911889
-0.0666822
0.00742124
-0.0616971
0.00582292
-0.0564928
0.00435361
-0.0510889
0.00304113
-0.0455054
0.00191097
-0.0397627
0.000985932
-0.0338814
0.000285671
-0.0278823
-0.000173581
-0.0217867
-0.000379314
-0.0156158
-0.000322948
-0.00939106
2.75824e-14
-0.00313395
0.000589835
0.00313395
0.00144265
0.00939106
0.00255037
0.0156158
0.00390087
0.0217867
0.0054781
0.0278823
0.00726239
0.0338814
0.00923066
0.0397627
0.0113568
0.0455054
0.0136122
0.0510889
0.0159659
0.0564928
0.0183851
0.0616971
0.0208361
0.0666822
0.0232842
0.0714291
0.0256946
0.0759192
0.0280329
0.0801347
0.0302655
0.0840582
0.0323603
0.0876733
0.0342869
0.0909645
0.0360175
0.093917
0.0375268
0.0965172
0.038793
0.0987524
0.0397975
0.100611
0.0405256
0.102084
0.0409668
0.103162
0.0411146
0.103837
0.0409668
0.104104
0.0405256
0.103958
0.0397975
0.103398
0.038793
0.102421
0.0375268
0.10103
0.0360175
0.0992265
0.0342869
0.0970154
0.0323603
0.0944032
0.0302655
0.091398
0.0280329
0.0880101
0.0256946
0.0842516
0.0232842
0.0801361
0.0208361
0.0756795
0.0183851
0.0708991
0.0159659
0.065814
0.0136122
0.0604447
0.0113568
0.0548136
0.00923066
0.0489441
0.00726239
0.0428611
0.0054781
0.0365907
0.00390087
0.0301598
0.00255037
0.0235965
0.00144265
0.0169293
0.000589835
0.0101875
0.00340084
-0.000969149
-0.00705356
-0.00114273
-0.0211266
-0.000534111
-0.0350974
0.000831135
-0.0488988
0.00291569
-0.0624646
0.00567114
-0.0757303
0.00903882
-0.0886332
0.0129508
-0.101113
0.0173309
-0.113114
0.0220962
-0.12458
0.0271581
-0.135461
0.032424
-0.14571
0.0377988
-0.155286
0.0431862
-0.164148
0.0484906
-0.172263
0.0536184
-0.179602
0.0584796
-0.186138
0.0629895
-0.191852
0.0670693
-0.196728
0.0706486
-0.200755
0.0736652
-0.203925
0.0760671
-0.206237
0.0778129
-0.207693
0.0788726
-0.208298
0.0792278
-0.208062
0.0788726
-0.206998
0.0778129
-0.205124
0.0760671
-0.20246
0.0736652
-0.199027
0.0706486
-0.194851
0.0670693
-0.18996
0.0629895
-0.184383
0.0584796
-0.178152
0.0536184
-0.171298
0.0484906
-0.163856
0.0431862
-0.155861
0.0377988
-0.147347
0.032424
-0.138351
0.0271581
-0.128909
0.0220962
-0.119058
0.0173309
-0.108834
0.0129508
-0.0982735
0.00903882
-0.0874129
0.00567114
-0.0762884
0.00291569
-0.0649357
0.000831135
-0.0533906
-0.000534111
-0.0416884
-0.00114273
-0.0298643
-0.000969149
-0.0179533
8.15171e-14
-0.00599022
0.0017656
0.00599022
0.00431597
0.0179533
0.00762701
0.0298643
0.0116625
0.0416884
0.0163745
0.0533906
0.0217043
0.0649357
0.027583
0.0762884
0.0339328
0.0874129
0.040668
0.0982735
0.0476963
0.108834
0.0549201
0.119058
0.0622384
0.128909
0.0695479
0.138351
0.0767448
0.147347
0.0837261
0.155861
0.0903918
0.163856
0.0966459
0.171298
0.102398
0.178152
0.107564
0.184383
0.11207
0.18996
0.11585
0.194851
0.118849
0.199027
0.121023
0.20246
0.12234
0.205124
0.122781
0.206998
0.12234
0.208062
0.121023
0.208298
0.118849
0.207693
0.11585
0.206237
0.11207
0.203925
0.107564
0.200755
0.102398
0.196728
0.0966459
0.191852
0.0903918
0.186138
0.0837261
0.179602
0.0767448
0.172263
0.0695479
0.164148
0.0622384
0.155286
0.0549201
0.14571
0.0476963
0.135461
0.040668
0.12458
0.0339328
0.113114
0.027583
0.101113
0.0217043
0.0886332
0.0163745
0.0757303
0.0116625
0.0624646
0.00762701
0.0488988
0.00431597
0.0350974
0.0017656
0.0211266
0.00705356
-0.00161623
-0.0109391
-0.0019204
-0.0327599
-0.000934465
-0.0544096
0.00129946
-0.0757754
0.00471989
-0.0967468
0.00924709
-0.117217
0.0147843
-0.137081
0.0212196
-0.156241
0.0284276
-0.174604
0.0362713
-0.192081
0.0446048
-0.208593
0.0532756
-0.224064
0.0621266
-0.238429
0.0709992
-0.25163
0.0797359
-0.263615
0.0881822
-0.274343
0.0961899
-0.28378
0.103619
-0.291902
0.11034
-0.29869
0.116237
-0.304136
0.121206
-0.308239
0.125164
-0.311006
0.12804
-0.312451
0.129786
-0.312593
0.130371
-0.311459
0.129786
-0.309082
0.12804
-0.3055
0.125164
-0.300754
0.121206
-0.29489
0.116237
-0.287957
0.11034
-0.280008
0.103619
-0.271096
0.0961899
-0.261278
0.0881822
-0.25061
0.0797359
-0.239148
0.0709992
-0.226951
0.0621266
-0.214075
0.0532756
-0.200577
0.0446048
-0.18651
0.0362713
-0.171929
0.0284276
-0.156887
0.0212196
-0.141433
0.0147843
-0.125618
0.00924709
-0.109488
0.00471989
-0.0930883
0.00129946
-0.0764643
-0.000934465
-0.0596584
-0.0019204
-0.0427124
-0.00161623
-0.025667
1.32888e-13
-0.00856226
0.00292969
0.00856226
0.0071535
0.025667
0.0126316
0.0427124
0.0193042
0.0596584
0.0270922
0.0764643
0.0358986
0.0930883
0.04561
0.109488
0.0560977
0.125618
0.0672205
0.141433
0.0788259
0.156887
0.0907532
0.171929
0.102836
0.18651
0.114903
0.200577
0.126783
0.214075
0.138307
0.226951
0.14931
0.239148
0.159633
0.25061
0.169127
0.261278
0.177654
0.271096
0.185091
0.280008
0.19133
0.287957
0.196279
0.29489
0.199867
0.300754
0.202041
0.3055
0.202769
0.309082
0.202041
0.311459
0.199867
0.312593
0.196279
0.312451
0.19133
0.311006
0.185091
0.308239
0.177654
0.304136
0.169127
0.29869
0.159633
0.291902
0.14931
0.28378
0.138307
0.274343
0.126783
0.263615
0.114903
0.25163
0.102836
0.238429
0.0907532
0.224064
0.0788259
0.208593
0.0672205
0.192081
0.0560977
0.174604
0.04561
0.156241
0.0358986
0.137081
0.0270922
0.117217
0.0193042
0.0967468
0.0126316
0.0757754
0.0071535
0.0544096
0.00292969
0.0327599
0.0109391
-0.0022647
-0.0150342
-0.00272142
-0.0450185
-0.00140029
-0.0747513
0.00164084
-0.104067
0.0063174
-0.132805
0.0125196
-0.160807
0.0201145
-0.187923
0.0289477
-0.21401
0.0388466
-0.238934
0.0496228
-0.262569
0.0610753
-0.284802
0.0729939
-0.305529
0.0851626
-0.324659
0.0973628
-0.342113
0.109377
-0.357826
0.120994
-0.371746
0.132008
-0.383831
0.142227
-0.394057
0.151473
-0.402408
0.159585
-0.408884
0.166422
-0.413495
0.171866
-0.416263
0.175823
-0.41722
0.178225
-0.416409
0.17903
-0.41388
0.178225
-0.409694
0.175823
-0.403915
0.171866
-0.396616
0.166422
-0.387874
0.159585
-0.377769
0.151473
-0.366384
0.142227
-0.353804
0.132008
-0.340116
0.120994
-0.325404
0.109377
-0.309753
0.0973628
-0.293246
0.0851626
-0.275964
0.0729939
-0.257984
0.0610753
-0.23938
0.0496228
-0.220222
0.0388466
-0.200577
0.0289477
-0.180506
0.0201145
-0.160069
0.0125196
-0.139319
0.0063174
-0.118307
0.00164084
-0.0970786
-0.00140029
-0.0756786
-0.00272142
-0.0541477
-0.0022647
-0.0325249
1.81506e-13
-0.0108477
0.00407445
0.0108477
0.00993186
0.0325249
0.0175172
0.0541477
0.0267479
0.0756786
0.0375149
0.0970786
0.0496844
0.118307
0.0630999
0.139319
0.0775842
0.160069
0.0929421
0.180506
0.108964
0.200577
0.125428
0.220222
0.142104
0.23938
0.158757
0.257984
0.175152
0.275964
0.191053
0.293246
0.206235
0.309753
0.220478
0.325404
0.233576
0.340116
0.245341
0.353804
0.255601
0.366384
0.264207
0.377769
0.271035
0.387874
0.275984
0.396616
0.278983
0.403915
0.279987
0.409694
0.278983
0.41388
0.275984
0.416409
0.271035
0.41722
0.264207
0.416263
0.255601
0.413495
0.245341
0.408884
0.233576
0.402408
0.220478
0.394057
0.206235
0.383831
0.191053
0.371746
0.175152
0.357826
0.158757
0.342113
0.142104
0.324659
0.125428
0.305529
0.108964
0.284802
0.0929421
0.262569
0.0775842
0.238934
0.0630999
0.21401
0.0496844
0.187923
0.0375149
0.160807
0.0267479
0.132805
0.0175172
0.104067
0.00993186
0.0747513
0.00407445
0.0450185
0.0150342
-0.00291494
-0.0193122
-0.00355434
-0.057822
-0.00195586
-0.0959897
0.00180791
-0.13359
0.00763083
-0.170405
0.015375
-0.206221
0.0248732
-0.240835
0.0359316
-0.274054
0.0483331
-0.3057
0.0618409
-0.335606
0.0762021
-0.363622
0.0911526
-0.389613
0.10642
-0.413463
0.121731
-0.435072
0.136811
-0.454361
0.151394
-0.471267
0.165221
-0.485747
0.178052
-0.497776
0.189662
-0.507349
0.199848
-0.514476
0.208434
-0.519185
0.215271
-0.521518
0.220241
-0.521534
0.223258
-0.519304
0.224269
-0.51491
0.223258
-0.508446
0.220241
-0.500014
0.215271
-0.489722
0.208434
-0.477686
0.199848
-0.464023
0.189662
-0.448856
0.178052
-0.432305
0.165221
-0.414491
0.151394
-0.395534
0.136811
-0.37555
0.121731
-0.354649
0.10642
-0.332938
0.0911526
-0.310517
0.0762021
-0.287479
0.0618409
-0.26391
0.0483331
-0.23989
0.0359316
-0.215488
0.0248732
-0.190769
0.015375
-0.16579
0.00763083
-0.1406
0.00180791
-0.115244
-0.00195586
-0.0897581
-0.00355434
-0.0641776
-0.00291494
-0.0385319
2.27208e-13
-0.0128481
0.00519243
0.0128481
0.0126284
0.0385319
0.0222384
0.0641776
0.0339182
0.0897581
0.0475304
0.115244
0.0629064
0.1406
0.0798489
0.16579
0.0981346
0.190769
0.117518
0.215488
0.137734
0.23989
0.158505
0.26391
0.17954
0.287479
0.200543
0.310517
0.221218
0.332938
0.24127
0.354649
0.260411
0.37555
0.278368
0.395534
0.294881
0.414491
0.309713
0.432305
0.322646
0.448856
0.333495
0.464023
0.342102
0.477686
0.348341
0.489722
0.352121
0.500014
0.353387
0.508446
0.352121
0.51491
0.348341
0.519304
0.342102
0.521534
0.333495
0.521518
0.322646
0.519185
0.309713
0.514476
0.294881
0.507349
0.278368
0.497776
0.260411
0.485747
0.24127
0.471267
0.221218
0.454361
0.200543
0.435072
0.17954
0.413463
0.158505
0.389613
0.137734
0.363622
0.117518
0.335606
0.0981346
0.3057
0.0798489
0.274054
0.0629064
0.240835
0.0475304
0.206221
0.0339182
0.170405
0.0222384
0.13359
0.0126284
0.0959897
0.00519243
0.057822
0.0193122
-0.00356713
-0.0237426
-0.00442687
-0.0710798
-0.00262363
-0.117975
0.00175664
-0.164137
0.00858804
-0.209284
0.0177069
-0.253142
0.0289147
-0.29545
0.0419812
-0.335963
0.0566484
-0.374451
0.072635
-0.410705
0.0896406
-0.444534
0.107351
-0.475773
0.125444
-0.504277
0.143591
-0.529927
0.16147
-0.552629
0.178761
-0.572314
0.19516
-0.588936
0.210379
-0.602478
0.22415
-0.612943
0.236234
-0.620359
0.24642
-0.624777
0.254532
-0.626266
0.260429
-0.624916
0.264008
-0.620832
0.265208
-0.614137
0.264008
-0.604964
0.260429
-0.593457
0.254532
-0.57977
0.24642
-0.564062
0.236234
-0.546495
0.22415
-0.527235
0.210379
-0.506444
0.19516
-0.484285
0.178761
-0.460913
0.16147
-0.436478
0.143591
-0.411125
0.125444
-0.384985
0.107351
-0.358183
0.0896406
-0.33083
0.072635
-0.30303
0.0566484
-0.274869
0.0419812
-0.246428
0.0289147
-0.21777
0.0177069
-0.188952
0.00858804
-0.160018
0.00175664
-0.131002
-0.00262363
-0.101933
-0.00442687
-0.0728289
-0.00356713
-0.0437044
2.69872e-13
-0.0145692
0.00627646
0.0145692
0.0152214
0.0437044
0.0267519
0.0728289
0.0407434
0.101933
0.0570322
0.131002
0.0754173
0.160018
0.0956635
0.188952
0.117505
0.21777
0.140649
0.246428
0.164781
0.274869
0.189569
0.30303
0.214667
0.33083
0.239723
0.358183
0.264384
0.384985
0.288298
0.411125
0.311125
0.436478
0.332538
0.460913
0.352227
0.484285
0.36991
0.506444
0.38533
0.527235
0.398264
0.546495
0.408524
0.564062
0.415961
0.57977
0.420467
0.593457
0.421976
0.604964
0.420467
0.614137
0.415961
0.620832
0.408524
0.624916
0.398264
0.626266
0.38533
0.624777
0.36991
0.620359
0.352227
0.612943
0.332538
0.602478
0.311125
0.588936
0.288298
0.572314
0.264384
0.552629
0.239723
0.529927
0.214667
0.504277
0.189569
0.475773
0.164781
0.444534
0.140649
0.410705
0.117505
0.374451
0.0956635
0.335963
0.0754173
0.29545
0.0570322
0.253142
0.0407434
0.209284
0.0267519
0.164137
0.0152214
0.117975
0.00627646
0.0710798
0.0237426
-0.00422126
-0.0282919
-0.00534575
-0.0846916
-0.0034237
-0.14054
0.00144717
-0.195478
0.0091234
-0.249151
0.0194184
-0.301223
0.0321056
-0.351369
0.0469222
-0.399286
0.0635737
-0.444692
0.0817389
-0.487331
0.101075
-0.526973
0.121222
-0.563415
0.141813
-0.596488
0.162473
-0.626051
0.182832
-0.651997
0.202527
-0.674251
0.221209
-0.69277
0.238549
-0.707542
0.254242
-0.718586
0.268013
-0.725953
0.279623
-0.729718
0.288868
-0.729984
0.295589
-0.726877
0.299669
-0.720545
0.301037
-0.711152
0.299669
-0.698881
0.295589
-0.683923
0.288868
-0.666483
0.279623
-0.64677
0.268013
-0.624996
0.254242
-0.601375
0.238549
-0.576117
0.221209
-0.549427
0.202527
-0.521504
0.182832
-0.492535
0.162473
-0.462697
0.141813
-0.432152
0.121222
-0.401048
0.101075
-0.369516
0.0817389
-0.337673
0.0635737
-0.305616
0.0469222
-0.273427
0.0321056
-0.241172
0.0194184
-0.208899
0.0091234
-0.176645
0.00144717
-0.144429
-0.0034237
-0.112263
-0.00534575
-0.0801461
-0.00422126
-0.0480697
3.09353e-13
-0.0160201
0.00731969
0.0160201
0.0176906
0.0480697
0.0310172
0.0801461
0.0471566
0.112263
0.065921
0.144429
0.08708
0.176645
0.110364
0.208899
0.135469
0.241172
0.162059
0.273427
0.189774
0.305616
0.218234
0.337673
0.247043
0.369516
0.275798
0.401048
0.304094
0.432152
0.33153
0.462697
0.357715
0.492535
0.382275
0.521504
0.404857
0.549427
0.425135
0.576117
0.442818
0.601375
0.457649
0.624996
0.469414
0.64677
0.477941
0.666483
0.483107
0.683923
0.484838
0.698881
0.483107
0.711152
0.477941
0.720545
0.469414
0.726877
0.457649
0.729984
0.442818
0.729718
0.425135
0.725953
0.404857
0.718586
0.382275
0.707542
0.357715
0.69277
0.33153
0.674251
0.304094
0.651997
0.275798
0.626051
0.247043
0.596488
0.218234
0.563415
0.189774
0.526973
0.162059
0.487331
0.135469
0.444692
0.110364
0.399286
0.08708
0.351369
0.065921
0.301223
0.0471566
0.249151
0.0310172
0.195478
0.0176906
0.14054
0.00731969
0.0846916
0.0282919
-0.00487705
-0.032924
-0.00631652
-0.0985491
-0.00437338
-0.163508
0.00084464
-0.227365
0.0091791
-0.289694
0.0204236
-0.350088
0.0343274
-0.408157
0.0505997
-0.463537
0.0689142
-0.515891
0.088915
-0.564912
0.110222
-0.610329
0.132438
-0.651905
0.155153
-0.68944
0.177955
-0.722775
0.200432
-0.75179
0.222181
-0.776405
0.242817
-0.796581
0.261973
-0.812317
0.279313
-0.82365
0.294532
-0.830654
0.307362
-0.833438
0.317581
-0.832139
0.325011
-0.826927
0.32952
-0.817994
0.331032
-0.805555
0.32952
-0.789845
0.325011
-0.77111
0.317581
-0.74961
0.307362
-0.725607
0.294532
-0.699372
0.279313
-0.671168
0.261973
-0.641259
0.242817
-0.609897
0.222181
-0.577325
0.200432
-0.543771
0.177955
-0.509446
0.155153
-0.474543
0.132438
-0.439236
0.110222
-0.403673
0.088915
-0.367986
0.0689142
-0.332278
0.0505997
-0.296635
0.0343274
-0.261117
0.0204236
-0.225766
0.0091791
-0.190602
0.00084464
-0.155628
-0.00437338
-0.120833
-0.00631652
-0.0861907
-0.00487705
-0.0516655
3.45542e-13
-0.0172135
0.00831572
0.0172135
0.020017
0.0516655
0.0349969
0.0861907
0.0530963
0.120833
0.074106
0.155628
0.0977694
0.190602
0.123787
0.225766
0.15182
0.261117
0.181496
0.296635
0.212413
0.332278
0.24415
0.367986
0.276266
0.403673
0.308315
0.439236
0.339846
0.474543
0.370413
0.509446
0.399581
0.543771
0.426936
0.577325
0.452085
0.609897
0.474666
0.641259
0.494356
0.671168
0.510869
0.699372
0.523968
0.725607
0.533462
0.74961
0.539214
0.77111
0.54114
0.789845
0.539214
0.805555
0.533462
0.817994
0.523968
0.826927
0.510869
0.832139
0.494356
0.833438
0.474666
0.830654
0.452085
0.82365
0.426936
0.812317
0.399581
0.796581
0.370413
0.776405
0.339846
0.75179
0.308315
0.722775
0.276266
0.68944
0.24415
0.651905
0.212413
0.610329
0.181496
0.564912
0.15182
0.515891
0.123787
0.463537
0.0977694
0.408157
0.074106
0.350088
0.0530963
0.289694
0.0349969
0.227365
0.020017
0.163508
0.00831572
0.0985491
0.032924
-0.00553393
-0.0376001
-0.00734335
-0.112537
-0.00548685
-0.186687
-8.01216e-05
-0.259534
0.00870618
-0.330579
0.0206495
-0.399338
0.0354791
-0.465354
0.0528808
-0.5282
0.0725023
-0.587482
0.0939587
-0.642841
0.116839
-0.693961
0.140714
-0.740571
0.165141
-0.782442
0.189673
-0.819395
0.213866
-0.8513
0.237283
-0.878072
0.259507
-0.899677
0.280143
-0.916128
0.298825
-0.927483
0.315224
-0.933844
0.329052
-0.935353
0.340066
-0.93219
0.348074
-0.924569
0.352935
-0.912734
0.354565
-0.896953
0.352935
-0.877518
0.348074
-0.854735
0.340066
-0.828921
0.329052
-0.800402
0.315224
-0.769502
0.298825
-0.736546
0.280143
-0.70185
0.259507
-0.665718
0.237283
-0.62844
0.213866
-0.590284
0.189673
-0.5515
0.165141
-0.512313
0.140714
-0.472919
0.116839
-0.433488
0.0939587
-0.394162
0.0725023
-0.355053
0.0528808
-0.316244
0.0354791
-0.277791
0.0206495
-0.239721
0.00870618
-0.20204
-8.01216e-05
-0.164728
-0.00548685
-0.127746
-0.00734335
-0.0910388
-0.00553393
-0.054538
3.78343e-13
-0.0181649
0.00925861
0.0181649
0.0221833
0.054538
0.0386575
0.0910388
0.0585076
0.127746
0.0815061
0.164728
0.107374
0.20204
0.135786
0.239721
0.166375
0.277791
0.198735
0.316244
0.232432
0.355053
0.267007
0.394162
0.301984
0.433488
0.336876
0.472919
0.371195
0.512313
0.404458
0.5515
0.436195
0.590284
0.465952
0.62844
0.493307
0.665718
0.517867
0.70185
0.539279
0.736546
0.557236
0.769502
0.571479
0.800402
0.581801
0.828921
0.588056
0.854735
0.59015
0.877518
0.588056
0.896953
0.581801
0.912734
0.571479
0.924569
0.557236
0.93219
0.539279
0.935353
0.517867
0.933844
0.493307
0.927483
0.465952
0.916128
0.436195
0.899677
0.404458
0.878072
0.371195
0.8513
0.336876
0.819395
0.301984
0.782442
0.267007
0.740571
0.232432
0.693961
0.198735
0.642841
0.166375
0.587482
0.135786
0.5282
0.107374
0.465354
0.0815061
0.399338
0.0585076
0.330579
0.0386575
0.259534
0.0221833
0.186687
0.00925861
0.112537
0.0376001
-0.00619098
-0.0422798
-0.00842894
-0.126534
-0.00677477
-0.209877
-0.00134999
-0.29171
0.00766557
-0.371455
0.0200369
-0.448554
0.0354781
-0.52248
0.0536569
-0.592738
0.0742006
-0.658875
0.096702
-0.720482
0.120726
-0.777199
0.145818
-0.828715
0.17151
-0.874777
0.197327
-0.915184
0.2228
-0.949794
0.247467
-0.978523
0.270884
-1.00134
0.292634
-1.01828
0.312329
-1.02942
0.32962
-1.03489
0.344203
-1.03487
0.355819
-1.02959
0.364266
-1.01931
0.369394
-1.00433
0.371113
-0.984964
0.369394
-0.961577
0.364266
-0.934533
0.355819
-0.904214
0.344203
-0.871006
0.32962
-0.835299
0.312329
-0.797475
0.292634
-0.757907
0.270884
-0.716954
0.247467
-0.674953
0.2228
-0.632217
0.197327
-0.589034
0.17151
-0.545659
0.145818
-0.502315
0.120726
-0.45919
0.096702
-0.416438
0.0742006
-0.374176
0.0536569
-0.332484
0.0354781
-0.291409
0.0200369
-0.250966
0.00766557
-0.211138
-0.00134999
-0.17188
-0.00677477
-0.133124
-0.00842894
-0.0947796
-0.00619098
-0.0567418
4.07713e-13
-0.0188927
0.0101429
0.0188927
0.0241744
0.0567418
0.0419694
0.0947796
0.0633426
0.133124
0.0880512
0.17188
0.115798
0.211138
0.146238
0.250966
0.178977
0.291409
0.213587
0.332484
0.249605
0.374176
0.286542
0.416438
0.323892
0.45919
0.361139
0.502315
0.397764
0.545659
0.433252
0.589034
0.467105
0.632217
0.498841
0.674953
0.52801
0.716954
0.554195
0.757907
0.577022
0.797475
0.596164
0.835299
0.611345
0.871006
0.622348
0.904214
0.629014
0.934533
0.631246
0.961577
0.629014
0.984964
0.622348
1.00433
0.611345
1.01931
0.596164
1.02959
0.577022
1.03487
0.554195
1.03489
0.52801
1.02942
0.498841
1.01828
0.467105
1.00134
0.433252
0.978523
0.397764
0.949794
0.361139
0.915184
0.323892
0.874777
0.286542
0.828715
0.249605
0.777199
0.213587
0.720482
0.178977
0.658875
0.146238
0.592738
0.115798
0.52248
0.0880512
0.448554
0.0633426
0.371455
0.0419694
0.29171
0.0241744
0.209877
0.0101429
0.126534
0.0422798
-0.00684697
-0.0469213
-0.00957435
-0.140416
-0.00824403
-0.232871
-0.00298104
-0.323607
0.00602882
-0.411964
0.0185423
-0.497307
0.0342629
-0.579036
0.052846
-0.656593
0.0739047
-0.729463
0.0970163
-0.797185
0.121729
-0.859353
0.14757
-0.915622
0.174052
-0.965707
0.200685
-1.00939
0.226977
-1.04652
0.252449
-1.07702
0.276641
-1.10085
0.299118
-1.11807
0.319477
-1.12879
0.337356
-1.13316
0.352436
-1.13141
0.364451
-1.1238
0.373187
-1.11066
0.378492
-1.09234
0.38027
-1.06922
0.378492
-1.04171
0.373187
-1.01026
0.364451
-0.975304
0.352436
-0.937301
0.337356
-0.896702
0.319477
-0.853951
0.299118
-0.80948
0.276641
-0.763703
0.252449
-0.717007
0.226977
-0.66975
0.200685
-0.622258
0.174052
-0.574819
0.14757
-0.52768
0.121729
-0.481048
0.0970163
-0.435087
0.0739047
-0.389917
0.052846
-0.345616
0.0342629
-0.302221
0.0185423
-0.259728
0.00602882
-0.218097
-0.00298104
-0.177257
-0.00824403
-0.137104
-0.00957435
-0.0975133
-0.00684697
-0.0583378
4.33668e-13
-0.0194173
0.0109639
0.0194173
0.025977
0.0583378
0.0449076
0.0975133
0.067561
0.137104
0.0936829
0.177257
0.122963
0.218097
0.155037
0.259728
0.189498
0.302221
0.225895
0.345616
0.263744
0.389917
0.302537
0.435087
0.341745
0.481048
0.380828
0.52768
0.419244
0.574819
0.456458
0.622258
0.491947
0.66975
0.52521
0.717007
0.555777
0.763703
0.583213
0.80948
0.607128
0.853951
0.627179
0.896702
0.643081
0.937301
0.654605
0.975304
0.661587
1.01026
0.663925
1.04171
0.661587
1.06922
0.654605
1.09234
0.643081
1.11066
0.627179
1.1238
0.607128
1.13141
0.583213
1.13316
0.555777
1.12879
0.52521
1.11807
0.491947
1.10085
0.456458
1.07702
0.419244
1.04652
0.380828
1.00939
0.341745
0.965707
0.302537
0.915622
0.263744
0.859353
0.225895
0.797185
0.189498
0.729463
0.155037
0.656593
0.122963
0.579036
0.0936829
0.497307
0.067561
0.411964
0.0449076
0.323607
0.025977
0.232871
0.0109639
0.140416
0.0469213
-0.00750027
-0.0514818
-0.010779
-0.154055
-0.00989751
-0.25546
-0.00498211
-0.354934
0.00377878
-0.451736
0.0161379
-0.545155
0.0317933
-0.634518
0.0503938
-0.7192
0.0715448
-0.798628
0.0948148
-0.872286
0.119743
-0.939725
0.145846
-1.00056
0.172628
-1.05449
0.199585
-1.10127
0.226217
-1.14073
0.252034
-1.17281
0.276566
-1.19747
0.299368
-1.2148
0.320028
-1.22491
0.338176
-1.22802
0.353487
-1.22437
0.365687
-1.21429
0.37456
-1.19814
0.379947
-1.17635
0.381754
-1.14935
0.379947
-1.11763
0.37456
-1.08169
0.365687
-1.04203
0.353487
-0.99919
0.338176
-0.953675
0.320028
-0.905997
0.299368
-0.856648
0.276566
-0.806094
0.252034
-0.754776
0.226217
-0.703096
0.199585
-0.651418
0.172628
-0.600063
0.145846
-0.549302
0.119743
-0.49936
0.0948148
-0.45041
0.0715448
-0.402576
0.0503938
-0.35593
0.0317933
-0.310496
0.0161379
-0.266253
0.00377878
-0.223137
-0.00498211
-0.181044
-0.00989751
-0.139837
-0.010779
-0.099349
-0.00750027
-0.0593924
4.56073e-13
-0.0197609
0.0117172
0.0197609
0.0275801
0.0593924
0.0474518
0.099349
0.0711311
0.139837
0.0983555
0.181044
0.128805
0.223137
0.162106
0.266253
0.197838
0.310496
0.235538
0.35593
0.27471
0.402576
0.314831
0.45041
0.355356
0.49936
0.395733
0.549302
0.435405
0.600063
0.473822
0.651418
0.510446
0.703096
0.544766
0.754776
0.576296
0.806094
0.604593
0.856648
0.629253
0.905997
0.649928
0.953675
0.666322
0.99919
0.678203
1.04203
0.6854
1.08169
0.68781
1.11763
0.6854
1.14935
0.678203
1.17635
0.666322
1.19814
0.649928
1.21429
0.629253
1.22437
0.604593
1.22802
0.576296
1.22491
0.544766
1.2148
0.510446
1.19747
0.473822
1.17281
0.435405
1.14073
0.395733
1.10127
0.355356
1.05449
0.314831
1.00056
0.27471
0.939725
0.235538
0.872286
0.197838
0.798628
0.162106
0.7192
0.128805
0.634518
0.0983555
0.545155
0.0711311
0.451736
0.0474518
0.354934
0.0275801
0.25546
0.0117172
0.154055
0.0514818
-0.0081489
-0.0559186
-0.0120403
-0.167322
-0.0117339
-0.277431
-0.0073546
-0.385399
0.000910014
-0.490403
0.0128129
-0.591657
0.0280518
-0.688417
0.0462751
-0.779992
0.0670869
-0.865748
0.0900545
-0.945119
0.114715
-1.01761
0.140584
-1.08281
0.167162
-1.14037
0.193943
-1.19005
0.220426
-1.23166
0.246117
-1.26514
0.270544
-1.29048
0.29326
-1.30775
0.31385
-1.31712
0.331942
-1.31883
0.34721
-1.31317
0.359379
-1.30052
0.36823
-1.28129
0.373605
-1.25595
0.375407
-1.22503
0.373605
-1.18906
0.36823
-1.14861
0.359379
-1.10426
0.34721
-1.0566
0.331942
-1.00621
0.31385
-0.953663
0.29326
-0.899513
0.270544
-0.844282
0.246117
-0.788459
0.220426
-0.732492
0.193943
-0.676783
0.167162
-0.621684
0.140584
-0.567492
0.114715
-0.514447
0.0900545
-0.462732
0.0670869
-0.412471
0.0462751
-0.363731
0.0280518
-0.316523
0.0128129
-0.270807
0.000910014
-0.226491
-0.0073546
-0.183439
-0.0117339
-0.141479
-0.0120403
-0.100402
-0.0081489
-0.0599757
4.74992e-13
-0.0199473
0.0123993
0.0199473
0.028975
0.0599757
0.0495867
0.100402
0.0740293
0.141479
0.102036
0.183439
0.133282
0.226491
0.167388
0.270807
0.203929
0.316523
0.242437
0.363731
0.282408
0.412471
0.323313
0.462732
0.364602
0.514447
0.405717
0.567492
0.446094
0.621684
0.485177
0.676783
0.522424
0.732492
0.557316
0.788459
0.589365
0.844282
0.61812
0.899513
0.643176
0.953663
0.66418
1.00621
0.680833
1.0566
0.6929
1.10426
0.700209
1.14861
0.702658
1.18906
0.700209
1.22503
0.6929
1.25595
0.680833
1.28129
0.66418
1.30052
0.643176
1.31317
0.61812
1.31883
0.589365
1.31712
0.557316
1.30775
0.522424
1.29048
0.485177
1.26514
0.446094
1.23166
0.405717
1.19005
0.364602
1.14037
0.323313
1.08281
0.282408
1.01761
0.242437
0.945119
0.203929
0.865748
0.167388
0.779992
0.133282
0.688417
0.102036
0.591657
0.0740293
0.490403
0.0495867
0.385399
0.028975
0.277431
0.0123993
0.167322
0.0559186
-0.0087905
-0.0601889
-0.0133543
-0.180092
-0.0137479
-0.298574
-0.0100923
-0.41471
-0.00257097
-0.527597
0.00857356
-0.636375
0.0230443
-0.740229
0.0404946
-0.838404
0.0605345
-0.930208
0.0827369
-1.01503
0.106645
-1.09232
0.13178
-1.16164
0.157649
-1.22262
0.183752
-1.27499
0.209593
-1.31857
0.234685
-1.35329
0.25856
-1.37914
0.280776
-1.39624
0.300923
-1.40477
0.318634
-1.40499
0.333584
-1.39726
0.345503
-1.38198
0.354173
-1.35964
0.359439
-1.33077
0.361205
-1.29593
0.359439
-1.25574
0.354173
-1.21084
0.345503
-1.16186
0.333584
-1.10947
0.318634
-1.05431
0.300923
-0.997015
0.280776
-0.938199
0.25856
-0.878439
0.234685
-0.818273
0.209593
-0.758194
0.183752
-0.698641
0.157649
-0.639996
0.13178
-0.582579
0.106645
-0.526647
0.0827369
-0.47239
0.0605345
-0.419935
0.0404946
-0.36934
0.0230443
-0.320603
0.00857356
-0.273662
-0.00257097
-0.2284
-0.0100923
-0.184648
-0.0137479
-0.142195
-0.0133543
-0.100792
-0.0087905
-0.0601606
4.90488e-13
-0.0200006
0.0130074
0.0200006
0.0301555
0.0601606
0.0513021
0.100792
0.0762412
0.142195
0.104705
0.184648
0.136369
0.2284
0.170855
0.273662
0.207737
0.320603
0.246548
0.36934
0.286788
0.419935
0.327929
0.47239
0.369423
0.526647
0.410712
0.582579
0.451238
0.639996
0.490446
0.698641
0.527796
0.758194
0.562772
0.818273
0.594889
0.878439
0.623698
0.938199
0.648796
0.997015
0.669831
1.05431
0.686507
1.10947
0.698589
1.16186
0.705907
1.21084
0.708358
1.25574
0.705907
1.29593
0.698589
1.33077
0.686507
1.35964
0.669831
1.38198
0.648796
1.39726
0.623698
1.40499
0.594889
1.40477
0.562772
1.39624
0.527796
1.37914
0.490446
1.35329
0.451238
1.31857
0.410712
1.27499
0.369423
1.22262
0.327929
1.16164
0.286788
1.09232
0.246548
1.01503
0.207737
0.930208
0.170855
0.838404
0.136369
0.740229
0.104705
0.636375
0.0762412
0.527597
0.0513021
0.41471
0.0301555
0.298574
0.0130074
0.180092
0.0601889
-0.00942234
-0.0642509
-0.0147149
-0.192237
-0.0159295
-0.318683
-0.0131811
-0.442583
-0.00664562
-0.562959
0.00344352
-0.678878
0.0167994
-0.78946
0.0330867
-0.893884
0.0519276
-0.991406
0.072908
-1.08136
0.0955848
-1.16317
0.119493
-1.23634
0.144154
-1.3005
0.169082
-1.35536
0.193794
-1.40072
0.217819
-1.43652
0.240699
-1.46277
0.262007
-1.4796
0.281342
-1.4872
0.298348
-1.4859
0.312709
-1.47608
0.324162
-1.45819
0.332495
-1.43277
0.337557
-1.40041
0.339255
-1.36174
0.337557
-1.31744
0.332495
-1.2682
0.324162
-1.21473
0.312709
-1.15776
0.298348
-1.098
0.281342
-1.03613
0.262007
-0.972842
0.240699
-0.908752
0.217819
-0.84445
0.193794
-0.780471
0.169082
-0.71729
0.144154
-0.655319
0.119493
-0.594901
0.0955848
-0.536306
0.072908
-0.479733
0.0519276
-0.425308
0.0330867
-0.373082
0.0167994
-0.32304
0.00344352
-0.275098
-0.00664562
-0.22911
-0.0131811
-0.184878
-0.0159295
-0.142152
-0.0147149
-0.10064
-0.00942234
-0.0600206
5.02539e-13
-0.0199458
0.0135392
0.0199458
0.0311176
0.0600206
0.0525931
0.10064
0.0777611
0.142152
0.106357
0.184878
0.138061
0.22911
0.172501
0.275098
0.209257
0.32304
0.247872
0.373082
0.287853
0.425308
0.328681
0.479733
0.369822
0.536306
0.410727
0.594901
0.450847
0.655319
0.48964
0.71729
0.526577
0.780471
0.561152
0.84445
0.592889
0.908752
0.621348
0.972842
0.646135
1.03613
0.666906
1.098
0.68337
1.15776
0.695297
1.21473
0.702521
1.2682
0.70494
1.31744
0.702521
1.36174
0.695297
1.40041
0.68337
1.43277
0.666906
1.45819
0.646135
1.47608
0.621348
1.4859
0.592889
1.4872
0.561152
1.4796
0.526577
1.46277
0.48964
1.43652
0.450847
1.40072
0.410727
1.35536
0.369822
1.3005
0.328681
1.23634
0.287853
1.16317
0.247872
1.08136
0.209257
0.991406
0.172501
0.893884
0.138061
0.78946
0.106357
0.678878
0.0777611
0.562959
0.0525931
0.442583
0.0311176
0.318683
0.0135392
0.192237
0.0642509
-0.0100413
-0.0680644
-0.0161145
-0.203639
-0.0182651
-0.337559
-0.0165998
-0.468742
-0.0112836
-0.596141
-0.00253669
-0.718753
0.00936908
-0.835632
0.0241155
-0.945901
0.0413434
-1.04876
0.0606586
-1.1435
0.081639
-1.2295
0.103841
-1.30625
0.126809
-1.37334
0.150079
-1.43046
0.173191
-1.47743
0.195692
-1.51416
0.217148
-1.5407
0.237149
-1.55718
0.255314
-1.56383
0.271301
-1.561
0.284809
-1.54911
0.295585
-1.52868
0.303429
-1.50028
0.308194
-1.46455
0.309792
-1.42219
0.308194
-1.37393
0.303429
-1.32054
0.295585
-1.26278
0.284809
-1.20145
0.271301
-1.13731
0.255314
-1.07111
0.237149
-1.00359
0.217148
-0.935414
0.195692
-0.867224
0.173191
-0.799594
0.150079
-0.733032
0.126809
-0.667978
0.103841
-0.604795
0.081639
-0.54377
0.0606586
-0.485106
0.0413434
-0.428929
0.0241155
-0.375283
0.00936908
-0.324138
-0.00253669
-0.27539
-0.0112836
-0.228867
-0.0165998
-0.184336
-0.0182651
-0.141513
-0.0161145
-0.100067
-0.0100413
-0.0596289
5.11198e-13
-0.0198073
0.0139933
0.0198073