/*--------------------------------*- C++ -*----------------------------------*\
  =========                 |
  \\      /  F ield         | OpenFOAM: The Open Source CFD Toolbox
   \\    /   O peration     | Website:  https://openfoam.org
    \\  /    A nd           | Version:  6
     \\/     M anipulation  |
\*---------------------------------------------------------------------------*/
FoamFile
{
    version     2.0;
    format      ascii;
    class       volScalarField;
    location    "2.11";
    object      p;
}
// * * * * * * * * * * * * * * * * * * * * * * * * * * * * * * * * * * * * * //

dimensions      [1 -1 -2 0 0 0 0];

internalField   nonuniform List<scalar> 
24166
(
0.998664
1.00572
1
1
1
1
1
1
1.00417
1
0.999963
1.00009
1.00058
0.998128
1.00033
1.00001
1.00024
1.00009
1
1.00008
0.999971
0.999991
1
1
1.00323
1
0.999999
0.990905
1
1
0.988092
1
1
1
1
1.06775
1
1.00185
1
0.661267
1
1
1
1
1.00003
1
1.00809
1.02256
1
1.02349
1
0.999988
1
1.00013
1
1.02831
1.02015
1
1
1.00001
0.871705
0.999924
1
1
1
1
1
1.0815
0.934335
1
1
1.00028
1
1
1
0.999996
0.999994
1.03092
1
1.00002
1.02213
1
1
1.03298
1.00007
1
0.999962
1
1
0.999995
1
1
0.999457
1
0.999803
0.999888
1
0.999987
1.00002
0.999998
1
1
1.00003
1
1
1
1
1.00002
1
0.999999
1
1
1
1.11284
1.0435
0.999971
1
1
0.999972
1
1
1
1.00278
1
1.03366
1.0002
1
1
1
1
0.935557
0.99464
1.00497
1.02347
0.999997
1.00001
1
1.00907
1
0.999994
1.01943
1
1.04577
1
0.966598
0.999998
1
1
0.908966
1
1
1
1
1.00001
1
1
1
1
1
0.999986
1.01448
1.01198
1
1
1
1
0.902277
1
1
1
1
1
1
0.998817
1
1.00007
1
1
0.999965
1.02256
1
1
1.05686
1
1
1
1
1
1
1
1
1.02112
0.999999
0.998695
1
0.99999
1.00216
1
1.00044
1.00001
1
1
1
1.00441
1
1
1
1
1
0.854498
1.03299
1
1.00032
1.00006
1
0.999996
1
1
1.0557
1
1
0.999227
1
1
1.03243
1
1
1
1.00003
1
1.0009
1.00001
0.999912
1
0.982659
1
0.999816
1
1
1
1
1
1
1
1.00001
1
1.0001
0.999931
1.0004
1
0.999951
1
0.999997
1.04979
1
1
1
1.00087
1
1.00002
1
1
1
0.999981
1
1
0.999998
1
1
1
1.00005
0.95388
1
1.00231
1
0.999999
1
1.05821
1
1
1.01851
1
0.849695
1
1
1
1
1
0.999788
1
0.938031
1
1
1
1.00025
0.885742
1
1
1.00103
1
1
1.00005
1.00088
1
1
1
1
1.00007
0.994891
1
0.994598
0.999996
1
0.746777
0.999318
1
0.999843
1
0.999994
1.00018
1
1
1.03836
1
1
0.999999
1
1
1
1.05397
1
0.999998
1
1.00109
1
1.00388
1
1
1.00003
1.00512
1
1
1
1
1
1
1
1
1
1
1
1
1
1
1
1
1
1
0.93406
1.00875
1
1
1
0.998402
1
1
1.00963
1
1
1
1.00089
1
1
1
1
0.999758
1
1.00045
1
1
0.999999
1
1
0.999964
1.00258
1
1
1.00114
1
0.985274
1
1
1.00121
1.00675
1.02736
1.00092
1.00001
1
1
1
1
1
1.00131
1.00003
1
1
1
0.997235
1
1
1.00207
1
1
0.999997
1
1.00136
1.01708
1
1
1
1
1.00436
1
1
1
1
0.998794
1
1
0.999456
1.00016
1.03794
1
1.00001
0.999998
1
1
1
1
1.00101
1.00004
1
0.958482
1
1
0.999974
1.06061
0.999999
1.02644
1.0312
1
1
1
0.996489
1.00372
1.00014
1.03252
1
1
0.999999
0.66645
1
0.999854
1.03963
1
1
0.999999
1
1.00002
1
1
1.00367
1
1
1
1.00209
1
1
1
1.00006
1
0.981546
1
1
0.984548
1
0.999688
1.00001
1
1
1
1
1
1
1.03376
1.02147
1
1.00011
1
1.01047
1
0.998969
1.04361
0.601276
1
0.999863
1.00001
1
1
1.0008
0.999999
1
1
0.999998
1.00263
1.00542
0.997731
1.00003
1
1
1
1
1.01172
1.01943
1
1
1
1
1
1.00539
1
1.00031
1
1
1
1
0.535164
1
1.00255
0.999999
1
1
1.00438
1
1.01561
0.999999
1.07187
1
1.00003
0.999132
0.983379
1
0.999853
1
1
1
1
0.984812
1
0.980293
0.595574
1
1
1.00136
1
1.03637
0.46729
0.999972
1
1
1
1.02013
0.99999
1
1.001
1
0.999999
1
1.00001
1
0.999701
1
1
1
0.999996
1
1
0.997674
1.00709
1.0333
1
0.999003
1
1
0.791544
1
0.999998
1.07164
1
1
0.998271
1
1
0.999936
1
1.0024
1.00003
0.999998
1.00507
1
0.993186
1
0.999992
1
1.00278
1
1
1.03891
0.975218
1
0.995481
1
1.00029
1
1
1
1.00035
1
1.0316
1
1
1.0226
1
1.07077
1
1
0.966413
1
1
1.02803
1
1
1.0011
1
1.03607
1
0.999798
1.00001
0.999886
1
1
1
1
1
1.00005
1
1
1
1
1
1
1.00004
1
1
1
0.99409
1.00271
1
1.00003
1
1
1.02452
1
1
1.00001
0.931707
1
1
1.00004
1
1
1
1
1
1
1
1
1
0.999963
1.00168
1.01061
1.00007
1
0.999998
1
1
1.00563
1
1.02089
1.01495
1
1
1
1
1.02362
1
1.00001
1.02622
1
1
1
1.0039
0.999999
1
1
1
0.999087
1.0376
1
1.00892
0.994326
1.07567
1
1
0.999714
1
1.04063
1
1.00005
1
1.00001
1
1.00056
1.01188
0.996136
1.0001
1.00012
1
1
1
1.00008
1
0.999964
1.00012
0.795913
1.01114
1
1
1
1
1
1
1
1
1.03427
1
1
1.00001
0.999629
1
1
1
1
1
1.04061
1
1
1
1
0.999828
1
1
1
0.999999
1
1.00002
1
1
1.00946
0.999995
1
1
1.00001
1
1
1
0.999981
1
1
1
1
1.03762
1
1
1
1
0.999998
1
1
1
1
0.83499
1.0301
1
1.04023
0.999994
1.01314
1
1
1
0.999999
1
1
1
1
1
0.889499
1.00031
1.00001
1
1
1.00001
1
1
1
0.988348
1.00002
1
1
1
1
1.00023
1
1
0.999993
1
1
0.972506
1
1.00004
0.994203
1.00264
1
0.984253
1
1.00001
1
1
1
1
1
1
0.999998
0.999275
1.00233
1
1.00236
0.999997
1
1
1
1.00049
1
1
1
0.998063
1
0.979627
1
1.00297
1.00001
1
1
0.999915
0.968481
1
0.999993
0.999999
1.00003
1
1
1
1.00009
1
0.999998
1
1
0.999988
1
1.00452
1
1
1.02268
1
1.00001
1.00058
1
1.00001
1
1
1.00001
1
1
0.999973
1
1
1.00713
0.91554
1
1.00017
1
1
1.00001
1.00001
1
1
1
1
1
1.04033
1
1
1.00001
0.999403
1.02078
0.999904
1.00009
1
1.00002
1
1
1.00001
1
1.00001
0.986261
1.0002
1.01763
1
0.996109
0.999997
0.999992
1.03932
0.994094
1
1.00001
0.999999
1
1
1.00004
0.656709
0.999856
0.977943
1
1
1.00092
1.00156
1.00994
1
1
1
0.998918
1
1
1
1.00676
1.00002
1
0.991457
1
1
1
1
1.00001
1
1
1
1
1
0.987849
0.999944
1.00026
1
1.03959
1
1
1
1.00686
1
0.999999
0.983483
0.999921
1.05292
1
1
1
1
1
1
1.00328
1
0.998488
1
1.00055
1.01882
1.00001
1
1
1
1
1
1.02121
1.00002
1.00002
0.999989
0.99007
1.02482
1.02037
1
1
1
0.999999
0.999481
1
1
0.999999
0.999999
1.00273
1.00004
1
1
1.08758
1
0.999983
1
1
1
1
1
1
1.04562
1.03149
1
0.999973
1.00779
1
1
1
1.01219
1
1
0.999999
1.00002
1
1.00001
0.999995
0.999976
0.999999
1
1.00078
1
1
0.999998
1
1
1.00005
0.978373
1
1.00495
1.01574
1
0.999983
1
0.991573
1
1.00077
1
0.999997
1
0.623361
1.00008
0.994454
1
1
1
1.00005
1
1.00061
1
1
1
0.999631
1
1
1
1
1
1.00129
1
1
1
1.04366
0.999989
0.994834
0.999989
1
1
1.00001
1
1
1
1.00004
1.00054
0.999931
0.999998
1.00001
0.959831
0.997972
1
1
1
1
0.99608
1
1
1
1
1
0.381319
1
0.455764
1
1
1
0.999812
0.999957
0.999943
0.998452
1.02418
1.00001
1
1.01601
1
1.00222
1.00121
1
1
1.00542
1
0.999979
1.0285
0.999998
0.999991
1
1
1
1
1.06314
1.00181
1
1
1.0012
1
1
1.02422
0.395739
1
1
1.00016
1
1.00001
0.974306
1.01338
1
1
0.999999
0.99999
1
1
1
1
1
1
1
1
1
1.00017
1
0.999992
1.01549
1.00055
1
1
1.00982
1
1
1
1
0.99998
1
1
1
1.0067
1
1.03479
0.999408
0.999989
1
1.01609
1
0.999999
1.15056
1
1.00252
0.999989
1.00811
1
0.999999
1
1
1
1.00001
1
0.85892
1
1.00192
1
1
1
1
1
1
1
1
1
1
1.00088
1.00011
1
1.01983
1
0.985806
0.999977
1
1
1
1
1
0.99999
0.999598
1.00002
1.00058
1.04336
1
0.999998
1
1.00001
1
1
1
1
1
0.882112
1.0215
0.45833
1
1
1.00084
1
0.519459
1
0.99946
1
1
0.999791
0.897526
0.999999
1
1
1.00013
1.00409
0.999998
1
1
1
0.991528
1
0.999999
0.999985
1.02997
1
1
1.02624
1
1.01516
1.00004
1
0.999991
1
1
1
1.00001
1
1
1
1
1.01946
1
1
1
1
1.00595
1.05181
1
1
1
1
1
0.999975
1
1.00002
0.98048
1.00003
0.999995
1
1
1.12169
1.00007
1.00002
1
0.611644
1.00062
1
1
0.999999
1
1
1
1
1
1
1
1.02692
1
1
0.99999
1
0.996947
1.00002
0.999974
1
1.0153
1
1
1
1
1
1
1.01919
1.00002
1
1
1
1
1
0.999993
1.00182
1.00872
0.999389
1
0.999977
1
1.00012
1
0.999989
0.999999
1
1
0.999993
0.996186
1.01647
1
1
1
1.0476
0.999999
0.43039
0.999873
1
1
1.00154
0.998905
1
0.999999
1
1.00302
1.03973
1
1
1.00071
0.999995
1
1
1.02727
1
1
0.999976
1
1
0.99998
0.999999
1
1.00001
1
0.992648
1
1
1
1.01807
1
1.00452
0.999999
0.999995
1.00239
1.01967
1
0.999997
1.02999
0.757401
0.333725
1
1
1
1
1
0.999994
1
1
1.00006
1
1
1.02742
1
1
1
1
1
0.999524
1
1
1
1
1.00206
0.999995
1
1
0.999999
1.00083
1
1.01793
1.00005
1
1
0.999999
1
0.999998
1
1
1.00003
0.351573
0.999976
1.00015
1
1
0.999999
1
1
1
1.049
1
1
1
1
1.03289
0.999658
1
1
1.00001
1
0.999993
1
1.03288
0.994924
1
1
1
0.999912
0.957289
1
1
1
1.00179
1
1
1
1
1.0324
1
1.00512
0.999975
1
1.04529
1.00052
1
0.99707
1.00003
1.04873
1
1.04111
1.00006
1
0.999429
1
1
1
1
1
1.00021
1
1
0.999992
1
0.999951
1
1.00077
0.999964
1.02116
1
1.0003
0.993209
1.04831
1.00531
0.999977
0.999819
0.976477
1
1.00164
1.00005
0.995203
1
1
0.999895
1.00372
1
1.00046
1
1
1.0003
1
1
0.999613
1
1
1
1.00002
1.00645
1.00001
1.00001
1
1
0.999981
0.999998
1
1.00564
1
1
1.00003
0.999999
1.00002
1.00019
1
0.999927
1
1
1.00023
1
1
1
1
1.00002
1.00347
1
1.00092
1
0.96258
1
1
1
1
1
1
1.00001
1
1
1
1.00021
1.01932
1
1
0.999999
1
1
1
1
1
0.999999
1
1.00952
1
0.999997
0.972374
1.05327
1
1
0.991185
1
1
0.981887
1
0.999989
1
0.999993
0.999999
1.01444
1
0.993722
1.03261
0.999999
1
1
1
1
1
0.993228
1
1.00024
1
1
1
1
1
1.00937
0.996467
0.999401
0.999998
1
0.816748
1.02326
0.999998
1.00117
1
1
0.995097
1
0.999998
1
1
1
1
1
1
1
1
1
1
0.999997
1
1
1
1
0.999999
1
1.00188
0.999994
1
1
1
1.00004
1
0.999996
1
1
1.00487
1.00003
1.09147
1
0.999826
1
1
0.999949
1.0332
1.00005
1.00005
0.999977
1
1.00001
1
1.11123
1
1
1
1
1.02423
1
0.9936
1
1
1
1.03317
1
1.00001
0.99535
1
1
1
1
0.999999
1.03592
0.99999
1.00499
1.02052
0.999995
1.00959
1
1
1.00046
1
1
1
1
1.0431
1
1
1
1.00975
1.00005
1.00774
1.00016
1
1
1
1
1
0.978021
1
0.909563
1
0.955441
1.00003
1
1.00034
0.999944
1
1
0.999856
1
0.999842
1.00001
1
0.999956
1.00005
0.999996
0.999977
0.999999
1.00001
1
1.01404
1
1
1
1.00682
1.04652
0.999991
1
1.05679
1.00006
1.00003
1
1.01653
1
1
0.999943
1
1
1
1.02196
1
1
1
1
1
1
1
0.991379
1
1
1
0.999999
1.00227
1
1.01922
0.999985
1
1.00003
0.999993
0.999412
0.999989
0.999987
0.999996
1
1
1
1.00003
1.00001
0.999876
1.00076
1
1
1
1.01257
0.999999
1
1.00069
1.00002
1
1
1
1.00046
0.987771
0.999999
1
1
1.00001
1
1
0.986936
0.983255
1
0.999996
0.999999
1.00013
1
1.15562
1
1.00006
1
1
1.06037
1.00599
1.00002
1.00243
0.989286
1.04207
1.05345
0.999994
1.00003
1.01245
1.01558
1.05335
1
1
1.01166
1
1
1.05944
1.00001
1
1.01108
1
1.01276
1
1
0.999996
1.03038
1
1
1
1
0.999916
1.03886
1
1
1
0.999999
1.00274
1
0.999999
1
1
1.02757
1
1
1.00005
0.994609
1
1
1
1
0.909109
1
1
1.0342
1.00671
1.00079
1
1.0039
1.00239
1.00068
1.01939
0.997609
1
1
1
1
1
1
0.999994
1.00002
1
1
1
1
0.999999
0.999981
1.03239
1.00002
1
0.989025
1.01713
0.998827
1.00652
1
1
1
1.00004
1.01255
1.00204
1.04406
1
1
0.999995
0.999988
1.00628
1
1.00072
0.968272
1
0.544554
1
1
1
1
0.999956
1
1
1
0.968089
1.00064
0.998417
1
1
1
1
1
0.510925
1
1.00016
1
1
1
1.00001
1
1
1
1
1
1.00496
1.00321
1
1
1.02666
1
0.998683
1
1
1
1.00001
1
1
0.955843
1.01145
1.00107
1
1
1
1
1
1.00567
1.00001
1.00304
1
1
1.00307
1
1
1.0138
1.00932
1.00867
1.02634
1
1
1
1
0.999995
0.999874
1.00167
1.00625
0.99999
1.00002
1
1.00242
0.98305
1
1
1
0.999893
1
1.00002
0.999999
1.00053
1.00877
0.999996
1.00111
1
1
1
1
1
1.00264
1
1
1.00324
1.00332
1
1.02815
0.999999
1
0.99986
1
1.04331
1
1
1.02643
0.799663
1
1.04206
1.00791
1
1
1
1
1
1
1
1.00125
1
1
1.01468
0.963881
1.00032
1
1
0.999994
1
1
1.00294
0.999306
0.999938
0.88359
1
1
1.00452
1
1
1
1
1
1
1
1
1
0.845975
1
1
0.997826
1
1.00001
1
0.999998
1
1
1
1
1
0.999999
1
1.0041
1
1
1.0143
0.999545
1
1
1
1
1
1
1
1
1
0.999995
1
1
1
1.00513
1
1
1
1.00935
1.00001
1.00001
1.00002
1
0.883759
1
1
1
0.999987
1.00029
0.999978
0.999911
1
1
1
0.997197
1
0.731502
1
1
1
0.999953
0.999627
1
1
1.04938
1
1
1
1.05446
0.99988
1.00337
1
1
1.04002
1
1.01002
1
1
1
0.999964
1
0.999999
1.03898
1
1
1.00002
1
0.999985
0.999999
1
1.00001
1
1.00001
1
0.999765
0.924734
1.00601
1.00104
1
0.999947
0.999997
1
1
1
1.00378
1.00003
1
1
1.00001
1
0.999587
1.00436
1.00001
1
1
1
1
1.03028
1.00001
0.99737
0.999726
1
1
1.00636
1.00004
1
1
1
1
1
1
1
1
1
1
1.00406
1
0.999929
1.0071
1
0.999695
1
1
1.02367
1.12065
1.01464
1
1
1
0.999999
0.999997
1
0.999993
1.00025
0.99997
1
1.00516
1
1.00017
0.999677
1
1.00024
0.966934
0.994824
1
1.0159
1
1.00864
1
1
0.999896
1
0.999986
1
1.00893
1
0.999994
0.998895
0.871144
1
0.955538
1
0.999994
1.00004
1
1.00002
1
1
1
1
1
1
1
1
0.999195
1
1.00551
0.90033
0.956316
1
1
1.01054
0.985798
1
1
1.00061
1.0407
1.00811
0.999927
1
1
0.758937
0.988299
1
1
1
1
1
1
1
1
1.01023
1.03973
0.844531
1
0.974512
1
1.00216
1
1
1.038
1
0.999999
1
1.00254
0.999984
1
1
1
1
0.997103
0.999923
1
1
1
1.00053
0.986
1
1
1
1
1
1.01956
1
1
1.0292
0.999969
1
1
1.00146
1
1
0.999991
1
1
0.999815
1
1.01077
1
1
1
1
1
0.999998
1.00093
1
1.01484
1.04027
1.03506
1
1
1.00016
1.00339
1.00241
1
1.05421
1
0.999964
0.919621
1
0.88422
1
1
1
1
1
1.00247
1
1.01701
1
0.99701
1
0.999956
1
1
1
1
1
1
0.999863
1
0.999991
1
1.03007
1.00001
0.992093
1
1
1.00071
1
1
1
1.05616
1.02493
1.00001
1
1
1
0.998887
1
1
0.971604
1.00748
1
1.0222
1
1.00012
1.00032
1.00001
1
1
1.00299
0.999997
0.999968
1
1
1
1.00122
1
1
1
1
1
1
1
0.999853
1.01002
1
0.839595
0.999976
1
1.00002
1.00289
1.01631
1
0.998922
1
1
1
1
1
1.00189
1
1
0.999997
0.999949
1.00002
1
0.992296
1
1.0003
1
1
1.04539
1.05394
1
1
0.998805
1
0.996202
1
1
1.00276
1
1
0.985154
0.999946
1.00002
1
1
1
1
1.05436
1
0.867084
1.00144
1
0.999798
1
0.999998
1
1
1.01828
1.00039
1
1
1
1
1.00001
1.00231
1
1
1
0.999164
0.981917
0.99568
1
1.00317
1
0.999715
1.00137
0.999999
1
1
1
0.990957
1
1.07688
1.00057
1
1
1
1
1
1
0.99999
1
0.999999
1
1
1
1
1
0.999999
1.0082
0.999968
1.04128
0.999958
1.00011
1.00032
1
0.999637
0.359541
0.999824
1
0.969404
1
1.00002
1.0094
1.01015
1
1
1.0005
0.999996
1
1
1
1.00018
1
1.05106
1.00003
1.00303
1
0.999989
0.999951
1
1
1
0.999998
1
1.00029
1.00334
1
1.00002
0.784142
1.00003
0.58775
1.0045
1.0003
1.00123
1
1.00037
1.00049
1
1.01606
0.999993
1
0.999988
1
1
1.00618
1.00228
1
1
1.07666
1
0.999997
1.00558
1.01073
1
0.995833
1
0.999999
1
1.0193
1
1
1
1
0.973609
0.999993
1
0.914575
1
1
0.698886
1
1.02573
0.999977
1.00004
1
1
1
1
0.999999
1
1
1
1
0.99997
0.999927
1
0.619461
1
1
0.998504
1
1.00001
1
1
1.00003
1
1.00002
1
1
1
1
1
1
0.999999
1
1
1
1
1
1.0011
0.999417
1.0009
1
1.00398
1.00295
1.00002
1
1
1.00001
1.00713
1
1
1
1.00848
1
1
0.560953
1
1
1
1
1
1.00003
1
0.999996
1
0.991545
1
0.999992
0.999185
1
1.00002
1.03552
1
1
1.00098
0.789015
1
0.999932
1
1
1
1.02197
0.999958
1
1.00228
0.827887
0.496021
1
0.763163
1
1
1
1
1
1
1.00056
0.999992
0.500457
0.999985
1.00008
0.999989
1
1
0.999955
1
1
1.00001
1
1.00029
0.999949
0.999999
1
1
1
1
1
0.775182
1
0.999999
1
1
1.34469
1
1.0002
1
1
0.999983
1.00623
1.00357
1
1
1
1
1
1.00013
0.997478
1
1
1
1
1
1
1.00018
1
1
1
1.01229
1
1.06331
1
1
1
1.01274
1
1
0.999958
1
1.00005
1.00001
1
1
1
0.999993
1.00006
1
0.999987
1
1
1
0.456814
1
1.00075
1
1.00002
1.00396
0.999875
1.00721
1.05314
1.00097
1
1.06074
1
0.328067
1
1.00416
1
1
1
1
1.00176
1.00173
1.00099
1
1.04675
1.00528
1.00098
1
1.03033
1
1
1
0.99997
0.998769
0.999973
0.282168
1
1
1.00009
1.00259
1.03186
0.999999
1
1
1.00029
1
1.00009
0.999912
1
1
1
1
1
1.00112
1.00013
1.04347
0.413785
1
1
1
1
1.00031
1.00369
1.00018
0.999829
1
1
1.00053
1
0.999999
1
0.999726
1.01578
1.01191
1.00005
1
0.999965
1.00019
1.02478
1
0.966296
1
0.890189
1
0.999641
1
1.00008
1
1.02522
0.80199
1
1
1
1.00007
1.0109
1
1
1
1
1.01533
1
1
1.00004
1.00183
1
1
1.00089
0.957555
1
1
0.660153
1
1.00002
1
1
1
1
1
0.999997
1
1.00003
1
1
1
1
1
1
1
1
1.00017
1
1.00001
1.00114
0.999998
1.00634
1
1
1
1.00002
1
1.02318
1
1
0.999994
1
1
1
1
1
1.0398
1
1
0.999998
0.373351
1
1.00205
1
1.04105
1
1.00001
1
0.767511
1
1
1.0005
1
0.999999
1.00628
0.998946
1.08198
0.433113
1
1
1
1.02117
1
1
1.00351
1
1
1
0.999998
1
1
1.00452
1
1
1
1
1.0645
0.999999
1
1
1.00448
1
1
1
0.999998
1
1
1
1.00007
1
1
1
1
1
0.999992
1.00042
1
1
0.999999
1
1
1.00659
0.999996
1
1
1
1.00017
0.707434
1
0.999664
0.999996
1.00004
1
0.999917
1
1.00023
1.00326
0.999999
1
1.09796
1.03773
1
0.99748
1
1
0.444747
1
1
1.00002
1
1
1.00005
0.4561
1
1
1
1
1
0.999827
1
1
1.00208
1
0.999999
1
1
1
0.99891
1.00053
1
1
1
0.999998
1
1
1
1
1
1
0.963234
1.00796
0.999993
1
1
1.02629
1
1
1
0.999996
1
1
0.999926
1
1.03397
1
1
1
1
1
1
1.00712
1.00015
1
1
1.00191
1
1
1
1.01581
1
1
1
1
1
1
1
0.999998
0.999866
0.536208
1
1
1
1
1.00003
1
1
1
1
1.00037
0.999971
1
1
1
1
1
0.842164
1
1
1
1
1
1
0.94005
1
0.990021
1
0.999998
1.0182
0.991782
1
0.999997
1
1.05824
1.00001
1
1
1
1
1
1.00659
1
1.00087
0.999998
1
1
1
1.00116
1
1.03387
0.999993
1
1.04136
1
1
1.00036
1
1.00548
0.999999
1
1
1
1.00006
1
1
1
1
1.00352
1
1
1.04426
1
1
1.00214
0.872147
1.04279
1
1.00355
1
0.999991
0.992733
1.00862
1
1
1.00084
1
1.00003
1.00001
1
1
1
1
1.00337
1
1
1.00426
1
1.03467
1
1
1
1
1.08375
1
1
1
1.00004
1
1
1
0.793083
1.00692
1
1
1
1
1
0.999969
1
0.899317
0.68335
0.998635
1
1.00033
1
1.00005
0.998359
1
1
1.00438
1
1
0.999997
0.493953
1
0.999999
1.0276
0.998151
0.999984
0.992393
1.00315
0.999974
1
1.0307
1
1
1.0001
1.00002
1
1
1
1
1
1
1.00013
1
1
1.04018
1
1
1
1
1.02032
1
0.999115
1
0.999969
1
1
0.999997
1
1
0.999998
0.999986
0.999987
1
1
0.474682
1
1
1
1
1
1
1.00051
1
1
1
1
1
0.998629
1
1
1
1.02041
1
1
0.999984
1
1.00005
1.00005
1
0.978596
1
1
0.995982
1.00069
0.999884
1
1
1
1
0.999998
0.516368
1.00573
1.00011
1.00035
1
1
1
1
1
0.999235
0.999999
1.01719
1
1.00135
1
0.999996
1
1
1
1
1
1
1
0.999592
0.999987
1.01765
1.0028
1
1.01586
0.999884
0.999861
1
1
1.0002
0.999995
0.999992
1.02795
1
1
1
1.00291
1.0494
1
1
1
1
1
1
0.999843
0.999999
1
0.697263
1
1
0.999888
1
1.01919
1
0.999999
1
1
1
1.00067
1
1
1
1
1.00001
1
0.999994
1.00011
1.00001
0.999984
1
0.999994
0.999988
1
1
1
1
1
0.976506
1
1.00036
1
1
1.00126
1.00006
1
1
1
1.00052
1
1
1.03189
1
1.00192
1.00679
1
1
1
1.02269
1
1.0037
1.00121
0.999993
0.999989
1.00711
1.00018
1
1.00009
1
0.999929
1
1
0.996719
0.999935
0.999947
0.592681
1
1.00005
1
1
1.00001
1
1.00002
1
1.0008
1.02996
1
1
1
1
1
1
1
1
1
1
1
1
1
1
1
0.999995
1
1
0.999999
1.00004
1
1
1
0.542669
1
1
1
1
0.999987
1
1
1.00011
1.00139
1
1.00021
1
1
1
1
0.999999
1.00061
0.999999
1
1
1.00036
0.999999
1
1
1.10051
1
1
1
1.00003
1
1
1
1
0.999982
0.999962
1
1
1
1
1
1
0.999009
1
0.999997
1
1
1
0.667436
0.999993
0.999998
1
1
1
1.00006
0.99867
1
1
1.04252
1.00483
0.999997
1
1
1
1
1
1
1
1
0.999999
1
1
0.999999
1
1
1
1
1
1
1
1
1.00044
0.714833
1.00775
1
1
0.999115
1
0.755941
1
1
1
1
1
1
0.996703
1
0.999988
1
1.03676
1.00007
1.00002
1
1
0.999992
1
1.00005
0.999999
1
1.00013
1
1
0.999964
1.00131
1
1
1
0.99984
1
1
1
1
0.999995
0.999992
0.999613
1.00063
1
0.999545
0.999964
1
0.999995
0.999986
1
1
1
1
0.996793
0.999998
1
0.99991
1.00025
1
1
1
0.999287
1.13428
1
1
1
0.999992
1
1.0002
1
0.999997
1
1
1
1
1
1
0.970662
1
1
1
1.00002
1
1.0288
0.999993
1
0.991854
1
1
1
1
0.999964
1
1
0.999257
1
1
1.12542
1.00064
1
1
1.03606
1.00071
1
1
1
0.991841
0.991885
1
1
0.999859
1
0.999995
0.999848
1
0.999954
0.999989
1
1.03113
1
1
1
1
1.00901
0.348036
1
0.999933
1.02442
1
1
1
1
1
0.792422
1.00022
1
1
1
1
0.991827
1
1
1.00035
1.00001
1
1
1
1
1
1
1
1
1
1.00026
1
0.999982
0.851755
1.00299
1
1
0.982895
1
0.999879
1
0.993932
1
1
1.03966
1
1
1.00074
1
1
1.0002
1
1
0.9989
1.01187
1
1.02148
1
1
1
1
1.0312
1
1
1
1
1.00069
0.998183
1.00179
1
1
1.00007
1.00004
0.999125
1
1.00369
1
1
1
1
1.00471
1.00004
1
1
0.999999
1
1
1
1
1.05394
1
1.03903
1
1
1
1
1.00001
1
0.927961
0.995758
1
0.999996
0.995341
1
1
1
1
0.987078
1
1.08935
0.999999
1
1
1.00002
1
1
1
0.999959
1
1.00014
0.999999
1
1
1
1.00499
1.0001
1
1
1
1
0.999948
1
1
1.02463
0.994587
0.995645
1
1.00591
0.999638
1
1
1.06618
1
0.999918
1
1.00001
1.04115
1
1
1.00038
1.00762
1
1
1.00001
0.966523
1
1.00345
0.999976
1
1
1
0.999996
1
1
1.00001
1
1
1.00003
1
1
0.999997
0.999999
1
0.652476
1
0.999993
1
1.00008
1.00007
1
1
1.00001
1
1
1.00001
1.00001
1
1
0.83138
1
1
1
1
1
1
0.727635
1.03734
1.02681
1.00102
0.999999
1
1
1
1
1
1.00002
1
1
1
1
1.0035
1
1.00152
1.00001
1
0.991201
0.999997
0.963654
1.00268
1.00681
1
0.999999
1.0004
1
1
1
1
1.00004
1
0.999996
1.04122
0.999874
1
1.00025
1
1.00688
1
1
1
1.00009
1
1
1
1
1.04441
1.00012
1
1
0.86425
1
0.999893
1
0.999998
1
1
1
1
1
1
1
1
1
0.999999
0.999995
1
1
1
1
1
1.00333
1
1.03823
1
1
1
1
1
1
0.999999
1
1
1
0.978762
1
1
1
1.00012
1.00001
1
1.00068
1
1.00006
1.05623
1
1.02677
1.00051
1
1
1
1
1.00008
1
1
1.01488
1.02122
1.00003
1
1
1.00003
1
1.00021
1
1
0.952591
0.999977
0.747308
1.00002
1.00009
1
1
1.00012
0.999995
0.999997
1
1
1
1
0.99981
0.999985
1.01921
0.999995
1
1
1
1
1
1
1
0.999898
0.999999
1
1
1.02139
0.998357
1
1.0429
1
1
0.999997
1
0.997747
1.00665
1
1
1
1
1.00003
1
1
1.05291
1
1
0.977816
0.999838
1
1
1.00838
1
1
1
0.92672
0.999993
1
1.00071
1
1.00042
0.98928
0.986433
1.00003
1.01599
1
0.983684
0.998775
0.446974
1
1
1.00002
1
1
1
1
1
0.999998
1
1
1.00076
0.812023
0.999934
1
1.0107
1
1.00299
1.006
0.999812
1
1.04155
1
1
1
1.01035
1.00002
1
1.0001
1
0.999999
1
1
1
1.0016
1
0.999991
1
1
1
0.726455
1
1
1
0.398827
1
1.00001
1
1
1
1
1
1
1
1
1.00028
0.999392
0.988684
1
0.995998
0.999998
1
1
1
1.00486
0.999877
1
0.791813
1
1.00003
1
1
1.00028
1.00123
1.06997
1.01282
0.999999
0.99998
1.00018
1.02436
0.999945
1
1
1
0.999982
1.02162
1
1
1
1
1
1.02956
1.00126
1
1.00012
1
1
0.996243
1.00482
1.04906
1
1.00024
1
1
1
1.00043
1
1
1
1.05226
1
1
1
1
1.03703
1
0.986752
0.999999
0.999999
1.00036
1
0.999982
1.01175
1.00018
0.843714
1
1
1
1
1
1
1
1
1
0.980863
1
1
1
1
1
1
1
1.00001
0.986981
1
1.01706
1
1
1.02765
1.00112
1.00013
1
1
1
0.436245
1
1.00817
1
1.00238
1
0.999999
1
1
1
1
1.00029
1
0.999975
1
1
1
1
1
1
1
1
1.02345
1
1.01167
1
1.00062
0.999998
1
1
1.03456
1
1
1
1
1.01465
0.996454
1
0.999591
0.999999
1.00066
1.09894
1
1
0.999434
1
1
1
1
1.0194
1
1
1
1
1.0022
1
1
0.999966
1
1
1.00039
0.999753
1
1
1
1.00017
1.02055
1.03199
1
1
1.0006
1
1.03273
1
0.998956
1
1
1
1
1.08944
0.999272
1.02128
1
1
1
1
1
1
1
1
1
1.0075
1
1
1
1.04455
1.04329
0.998759
0.987372
0.999999
0.88709
1
1
1
0.999993
1
0.999989
0.979661
1
1.00309
1
1
1.06876
1.03477
1
1
1.00592
0.999504
1.04668
1
1.00056
0.330873
0.91162
1
1
0.999997
1
1.00792
1.02722
0.988656
1
1
1.05061
1
0.999991
0.948643
1
0.405923
1
1.03711
1
1.00002
0.509262
1
1
1
1.03786
1
0.563117
1
1.13732
1
0.999993
0.418037
1
1
1
0.999999
0.999493
1
1.02489
1
0.999997
0.997821
1.00129
0.999999
1
0.999999
1
1.05548
1
0.999988
0.997703
1.00005
1.00025
1.01318
0.999645
1
0.999036
1
1
1.05184
1
1.03144
1.00006
1
0.999971
0.999199
1.02421
1
0.998898
1
1.00003
1.00084
1
0.785488
1.02883
1
1.0597
1.02778
1
1
1
1.00001
1
0.999993
0.999976
1
1
0.999562
1
1.00001
1
0.999202
1.00003
1.01008
1
1
1
1
1
0.760406
1.00002
1
0.999745
1
1
1
0.905001
1
1
0.998247
0.999779
1
0.999996
1.00015
0.999811
1
1.00009
1
1.00453
1
1
1
1
1
0.878892
0.996281
1
1
1.00009
1.0838
1.00054
1
1
1.00005
1
0.986443
1
1.00008
1
1
0.999996
1
1
1
1.0001
0.999986
1
0.999995
0.999999
0.924336
1.00681
0.999583
1
1
1.00812
1
1
1
1
0.627582
1
1
1
1
1.00001
1
0.513886
1
1
1
0.985226
1
1
1
1.00001
1
0.814393
0.989521
1.08266
1
1.00041
1.01541
1
0.993881
1.01625
1.00019
1
1
1
1
1
1
1
0.999509
1.00224
1
0.993696
0.999997
0.999998
1
0.999977
1
1.00079
1
0.999992
0.999999
0.999989
1.00025
0.999978
1
0.999998
1
1.00003
1.01891
1.05146
1
1
1
1
0.868857
0.999998
1
1
1
1
0.99999
1.00605
1
1.01147
1
1
1
1
1
0.999938
1
0.999998
1.05275
1
1.00067
1.00024
1
1
1
1
1
1
1
1
0.999984
1.02327
1
1
1.00012
1
0.874035
0.999999
1.00002
1
1
1
1
1
1.0118
1
1
0.999563
1
1
1
1
1
1
1
1
1
1.00424
0.999656
1.00004
1.00272
1
0.999995
0.999985
1
1
1.06537
0.980857
0.99996
0.999964
1
0.999991
1
1
1.00004
1
1
0.787185
1.00065
0.999999
1
1.00024
1.03369
1
1.00029
1
1
1
0.99998
1
1
1
0.999999
0.753448
0.9962
0.999997
1
1
1
0.810333
1
0.999979
0.999999
1.00122
1
1
1
0.6198
1
1
1.02505
1
0.999828
1
1
1
0.999752
1
1
1
1
1
1.00602
0.999999
1
1
1.00031
1
1
1.00033
1
1
1.00018
0.655302
1.00001
1.00002
1
1
1
1
1.00379
1
1
0.999873
0.999993
1
0.999998
1
1
1
1
0.99961
1
1
1
1
1
1
1
1
1.00002
1
1
1
1.00001
1
1
1
1.00005
1
1.00001
0.999999
1.00001
1.00002
1.12604
1.00033
1
1
1
1
0.999991
1
1
1.00011
0.989224
1
1.03576
0.999999
1.00031
1.01822
0.999983
1
0.5526
1
1
1
1.00011
0.999989
0.855977
1
1
1
0.99998
1
1
1.00002
1
1.00044
1
1
1
1.00004
1
1.00006
1
1
0.999947
1.00002
1.03064
1.03
1
1
0.686374
1
1
1
1
1.03192
1
1
1
1.00006
1
1.00415
1.01036
1
1
1
1.09143
0.987066
0.999996
1
0.998959
1
0.996949
1.01874
1
1
0.99999
1
0.995751
1.00001
1
1.00889
1
1.00131
0.994966
1
1.0001
1.00035
0.999979
0.981296
1
1
0.999999
1
1
1
1.00029
1.02787
1.00003
1.00458
1
1
1.00006
0.974859
1
1
1
1
1
0.999998
1.00001
1
1
1
0.999991
1
1
1
1
0.451755
1
1
1
0.999996
1
1
1
0.999999
1
1.00765
1
1
1
1.00001
1
1
1
0.636462
1
1
1
1
1
1.00001
0.999076
1
0.986325
1
1
1.00051
0.999999
1
1
1.00326
1
0.999993
0.999998
1
1.02706
0.378414
1.00164
1.10141
1
1
1.00028
1.03605
0.999954
0.999999
1
1.00001
1.0266
1
1
1
1.00125
1
1
1.00001
0.999999
1
1
1
1.0033
1
1.00004
1
1
0.750154
1
1.00002
0.998367
0.999997
1
1
1
1
1
1
1.04739
1
1
1
1
0.889541
1
1
0.999982
1
1
1
0.836193
1
1
0.999998
1.00835
1.05272
0.999996
1
1
1
1
1.04725
0.977141
1
1
1
1
1
1.00007
1
1.01651
1
0.999999
1.00022
0.999947
0.999989
1
1
1.0003
1
1
0.999996
1
1
1
1.00003
0.999995
0.999999
1
1
1
0.822141
1
1.00003
1.00086
1
1.00928
1.01543
1
1
1
1.00009
1
1.01297
1
0.999987
1
0.999987
1
1
1.00466
1
1.00426
1
0.996567
1.00773
1
1
1
1
1.00003
1
1.00006
1
1.00118
1.01667
1
1
0.85944
1
1
1
1
1.00001
1.03573
1.00075
1
0.983104
1
1
0.99868
1
1
1
0.980067
1
1
1
1
1
1.00168
1.00022
1
1
1.03654
0.977011
1
0.999948
1.00008
1.00327
1
0.999997
0.999931
1
1.00001
1.00004
1
0.750723
0.999464
1
1
1
1.00011
1.00006
1
1
0.999868
1
1.00109
0.999805
1.00001
0.999999
1.0001
1.01223
1
1
0.881602
1
1
0.999382
1
1
1.00045
1
0.922593
1.00002
1.03622
1
0.341887
1.00134
1
1
0.845963
0.925659
0.999986
0.496844
0.86209
1
1.00042
1
0.984674
0.999991
1
1
1
0.993821
1
1.02549
1
0.999948
1
1
1.02496
1
1
1.00002
0.443431
1
1.00005
1.00293
1
1
1
0.999987
1
1.03287
1
0.846051
1.01351
0.999988
0.999997
1
0.930288
1.00178
1
1
0.999942
1.00212
1
1
0.999931
1.00028
1.02398
1
1.00004
1
0.994242
1
1.00017
1
1.01477
1
1.04052
0.999957
1
1.00008
1
0.999998
1.00093
1.01191
1
1.02643
1
1
0.999999
1.00001
1
1
1
1
1.00034
1
0.999981
1
1
0.922906
1.00002
1
1.00002
1
1
1
0.96186
1
1
1
0.999999
1
1.001
1.00002
1
1.00433
1
1.00052
1
1.00416
1.05956
0.272207
1
1
1
1
1
1.00002
1.04591
1
1.00119
0.999745
0.904756
1
0.999956
1
1
1
1.02118
1
0.998713
0.999985
1
1.00396
0.992903
1
1
0.99386
0.999976
1.00008
1.00114
1
0.999999
1
1
1.02406
0.999998
1
1
1
1
1
1
1.00478
1
1.00001
0.712281
1
1
0.999989
1
1
0.980678
1
0.999999
0.999999
1
0.998904
1
1.00001
1.04169
1
1
1
0.999767
1
1
1
1.02459
1.05028
1
1.05012
0.999983
1
1
0.990529
1.00126
1.08165
1
0.999999
1
1
1
1
1
1
1
1
1.00571
1.00655
1.00015
1
1.00452
1.00554
1
1
0.999982
1
0.999979
1
1.00646
1
1
0.999997
1
1
1.00214
1
1
1
1
1
1
1.00228
1
1
1
0.999561
0.999994
1
0.999992
1.07701
1
1
1
1
1
1.02451
1.00013
1
1
1
1
1
0.999176
1.00053
1
0.999989
1
0.99998
0.991995
1
1
1
0.998521
1
0.999999
1
0.999866
1
1.00002
1.00214
1.008
1
1
1.01582
0.998528
1.00604
1
1
1
1
1
1
1.00001
1
1.00065
0.999045
0.999963
1
1
1.00004
1
1
1
1
1.00018
1
1
1.00181
0.960733
1
1.00446
1.00073
1
1
1
1
0.999947
1
1
1
0.999999
1
1
1
0.999995
1
1
1
0.99999
1.00002
1
1
0.999999
1.01075
1
1.00039
0.98471
1
0.999998
1
1
1
1
1
0.747212
0.999686
1
0.999899
1.00001
1.00015
1.02892
1.00097
1.00003
1
1.00001
1
0.999978
1
1
1
1
1.00981
1.00058
1
1
1
1
1
1.03048
1
1
1
1
1.02703
0.999999
1
1
0.990056
1
0.998251
1.02384
1.07462
1
1.0009
1
1
1
0.459892
1
1
1
1
1.01296
1
1.00004
1.00848
1
1
1
1.00001
0.999893
1.00038
1
1.01754
1
1
1
0.999978
1
1
1.00002
0.999999
1
0.999997
1.02152
1
1
1
0.999965
1
1
1
1
1.00009
1.00077
1
0.999795
1
1.00104
1.03271
0.999984
0.984697
1.0008
0.501062
1.00002
1.00004
0.999987
0.639224
1
1.00004
1
0.965057
1
0.999968
1.00082
1.00039
0.998681
1
1
1
1.00006
1.0086
1
1
1
1.00008
1
1
1
1
1
1
1.03422
1
0.999998
1.00029
1
1
0.992485
1
1
0.999989
1
1
1.06732
1
1.00049
1.00004
1
1
1.0514
0.999998
1
1
1
1
1
0.618524
1
1
1.00032
1.00528
0.999998
1
1.00017
1.00001
1.0008
1.00012
1
1
1
1.01116
1
0.999998
1
0.969977
1.02618
0.999666
1
1
1
1
1
1
1.00004
1.00025
1
1
1
1
0.999968
1.04035
1.00356
1
1.00001
1
0.999988
0.999995
1
1.00012
1
1.00051
1
1
1
0.999999
1
1
1.00026
1
1
0.999925
1.00025
1
1
0.999973
1
1
1
0.999979
1.01224
1.01554
1
1
1
1
1.00001
1.01873
1.00037
1
0.99952
1
1
1
0.970402
0.999989
1
0.999307
1
1
1
1.04003
1
1.00056
1.02577
1.00714
1.00001
0.99241
0.455921
1.00265
1
1
1
1.00849
0.951013
1
1.00043
1
1
1.00437
1
1
1.00681
1.00025
1
1
0.999561
1.00628
1.00656
0.999854
1
1.00062
1.0016
1
1
1
1
1
1.0026
1
1
0.999992
0.802286
1
1
1
1
0.999999
1.00001
1
1.00375
1.00017
1
0.999995
0.996034
1
0.993654
1.00004
1
1.01256
0.422924
1.04936
1
1
1
1
1
1
1.00652
0.999998
0.99998
1.00405
1
1.00093
1.0234
1
1.00008
0.999986
1.00094
1.02552
1
1
1.01936
1
1
1
1
1
1.00657
0.999997
1
0.999995
1.00019
1
1
1
1
1
1
1
1.01118
1
1
1
0.999998
1
0.99999
1
1
1
1
0.999972
1
1
1.00001
1
0.9996
1
1.00651
1
1
1
1.00572
0.999886
1
1.01229
1
1.00007
1.00007
1
0.967514
1
1
0.999936
1
1
1.01354
0.99436
1.0261
0.739062
1
1
1
0.999991
1.0011
1
1.00165
0.999991
1
0.86002
0.661472
0.999992
1
1
1
0.999936
1
0.999903
1
0.999976
1
1
1
1.0531
1
1
1
1
1.00031
1
1
1
1
1
1
1.01212
1.04055
1
1
1
1.03457
1
1
1
1.00042
1.00148
0.999994
1
1.03645
1
1
1
1
0.99999
1.00007
0.999996
1
1
1
1
0.997895
1
1
1
1
1
1
1.00007
1.03563
1
1.00133
1.0618
0.830743
1
1
1
1
1.0001
1
1
1.03032
1
1
0.99922
1
0.848158
0.999985
1
1
0.999982
1
1
1
1
0.994171
1
0.999999
1
1
1
1
0.999722
1.00932
0.999998
1
0.783197
0.999997
1
1
1.03473
0.425904
1
1
0.99999
1.00353
0.999998
1
1
0.997331
1
0.914191
1
0.999992
1
1
1.00035
1
0.999902
1.03844
1
1
0.999998
0.999647
1
1
1
1.01986
1
1
1
1.00141
1
1
0.840752
1
1
1
1.01782
1
1
1
1
1.02461
1
1.00191
1
1.0002
0.999995
1
1
0.946694
1
1.01683
1
1
1
1.00039
1
1
1
1
1
1.01096
1.00219
1
1.00877
1
0.656635
1
1
1
1.00001
1.02193
1
1
1
1.00143
1
1
1
1.08033
1
1.03929
1
1.00006
1
1
1
1
1
1
0.999996
1
0.999997
1
0.98592
1
1
0.746825
1
0.999987
1.01978
0.999998
0.986733
0.277248
1
1
1.00177
1
1
1
0.999999
1
1
1.00048
1
0.999713
1.06157
1.00091
1
1
1
1
1
1.00002
0.999988
1
0.999999
1.00016
1.00365
1
1
1
0.341149
1
1
1
1
1
0.999292
1
1
1
1
1.00686
1
1
0.999991
0.742871
1
1.00033
0.999999
1
1
1
1.00002
0.833914
0.992839
1
1.04822
1
1
1
1.00001
0.999943
0.99999
1
1
1.01621
1
0.999998
1.00012
1
0.999998
1
1.05607
1.00022
1
0.99903
0.999967
1.0001
1.00019
1.02072
1
1
1
1
0.641616
1
1.00247
1
0.998446
0.992834
0.999994
1
1
1
1
0.997061
1
1.01931
1
0.999985
1.00001
1
1.00031
0.999989
1
0.999996
1
1.00005
0.999989
1
0.99948
1.02355
1
0.999998
1
1