/*--------------------------------*- C++ -*----------------------------------*\
  =========                 |
  \\      /  F ield         | OpenFOAM: The Open Source CFD Toolbox
   \\    /   O peration     | Website:  https://openfoam.org
    \\  /    A nd           | Version:  6
     \\/     M anipulation  |
\*---------------------------------------------------------------------------*/
FoamFile
{
    version     2.0;
    format      ascii;
    class       surfaceVectorField;
    location    "2.68";
    object      Uf;
}
// * * * * * * * * * * * * * * * * * * * * * * * * * * * * * * * * * * * * * //

dimensions      [0 1 -1 0 0 0 0];

internalField   nonuniform List<vector> 
8193
(
(11.7322 0.0884369 -2.19354e-18)
(12.0106 0.0571095 2.51506e-19)
(11.043 -0.0724607 -5.98453e-19)
(12.0139 0.259883 2.55485e-19)
(12.2753 0.272676 2.61437e-19)
(12.0928 0.46183 2.83458e-21)
(12.3257 0.473885 0)
(12.1203 0.666479 2.85445e-21)
(12.3398 0.653972 -1.18947e-19)
(12.1373 0.881926 0)
(12.3683 0.852732 0)
(12.1492 1.11534 4.9978e-22)
(12.4053 1.08305 2.97026e-21)
(12.153 1.3735 4.99705e-22)
(12.4413 1.34237 -1.22561e-20)
(12.1469 1.66662 3.62471e-21)
(12.4756 1.64148 -2.31776e-19)
(12.1358 2.0079 3.60773e-21)
(12.5166 1.99658 1.91208e-19)
(12.1143 2.41393 3.87038e-19)
(12.5704 2.42419 -5.86761e-19)
(12.0555 2.88962 3.19906e-18)
(12.5901 2.93137 1.59902e-18)
(11.9235 3.41805 -8.84578e-20)
(12.5149 3.49675 -9.76031e-19)
(11.684 3.96891 2.84604e-18)
(12.2997 4.07547 1.02396e-18)
(11.314 4.50302 -3.8299e-19)
(11.9173 4.61801 -1.06982e-18)
(10.8094 4.97866 -8.4672e-20)
(11.3666 5.07904 3.32099e-19)
(10.1943 5.36247 9.8729e-20)
(10.6801 5.43057 -4.3465e-19)
(9.518 5.62776 1.74466e-18)
(9.91851 5.66764 3.65902e-19)
(8.83231 5.77219 -4.25307e-19)
(9.15203 5.78445 -1.36258e-19)
(8.17873 5.81582 1.14537e-19)
(8.4367 5.81068 -4.2417e-19)
(7.58544 5.77659 2.05674e-19)
(7.7954 5.75131 3.26973e-19)
(7.05244 5.65297 2.35073e-21)
(7.21643 5.59059 1.10387e-20)
(6.56334 5.41264 4.37549e-20)
(6.67315 5.3421 3.68284e-19)
(6.11867 5.07628 7.72681e-21)
(6.17766 5.01426 0)
(5.73441 4.6644 1.03624e-19)
(5.75073 4.61152 7.57198e-21)
(5.43917 4.20592 -1.37584e-20)
(5.4103 4.14818 1.93722e-19)
(5.34197 3.75777 2.92334e-20)
(5.16591 3.68122 -7.5052e-20)
(5.65638 3.34515 2.86647e-20)
(5.14792 3.24746 -2.47609e-19)
(6.52995 3.01039 0)
(5.57818 2.8659 -1.08804e-19)
(7.80524 2.79429 0)
(6.57424 2.64124 0)
(9.10379 2.61643 -3.7871e-21)
(7.90702 2.54732 -2.65279e-20)
(10.0915 2.36518 1.61793e-19)
(9.18553 2.45195 3.20982e-20)
(10.6684 2.00774 -2.00172e-18)
(10.0991 2.22889 2.17559e-20)
(10.9576 1.60359 -1.26639e-20)
(10.5952 1.87642 1.38939e-20)
(11.1165 1.23759 -1.86032e-18)
(10.85 1.48727 1.95694e-19)
(11.2206 0.943698 -1.54015e-18)
(11.014 1.14975 -1.17214e-19)
(11.2866 0.711027 -8.39375e-20)
(11.1288 0.880946 -1.10601e-19)
(11.3259 0.519312 0)
(11.199 0.663613 -1.21601e-19)
(11.345 0.356187 0)
(11.2397 0.482416 2.14756e-20)
(11.2998 0.213535 0)
(11.2866 0.321276 0)
(11.0986 0.111358 1.14693e-20)
(11.2797 0.188899 7.72294e-20)
(11.1209 0.116135 3.19046e-19)
(10.6821 0.0541927 9.15618e-20)
(12.4442 0.308286 2.03169e-21)
(12.4163 0.206588 1.47786e-19)
(12.2786 0.00572092 -6.44806e-21)
(12.4635 0.48456 0)
(12.4697 0.417762 -5.37431e-20)
(12.4831 0.661208 -2.75217e-21)
(12.5271 0.606034 2.40324e-20)
(12.5242 0.854286 -2.75861e-21)
(12.58 0.774623 -2.79614e-21)
(12.5802 1.07352 2.99982e-21)
(12.6532 0.97733 0)
(12.6422 1.32993 3.02582e-21)
(12.7414 1.22393 2.50647e-20)
(12.7072 1.635 -2.32866e-19)
(12.8395 1.51525 5.16217e-19)
(12.783 2.00312 -1.06619e-18)
(12.9568 1.87139 -8.27523e-21)
(12.8792 2.45158 -3.38549e-19)
(13.1055 2.31165 -4.89423e-19)
(12.9625 2.991 -9.79818e-19)
(13.2562 2.8408 -8.53343e-19)
(12.9556 3.60274 3.08666e-18)
(13.3034 3.44142 1.40421e-18)
(12.7931 4.23658 1.48319e-19)
(13.1631 4.06612 -5.45847e-19)
(12.441 4.82778 1.94299e-18)
(12.7992 4.63241 7.23642e-19)
(11.8939 5.31726 -6.67884e-19)
(12.2163 5.10053 -1.44015e-19)
(11.1829 5.66808 -3.45415e-19)
(11.4616 5.42967 -2.80205e-18)
(10.3721 5.87322 -3.12789e-19)
(10.614 5.62271 3.34882e-18)
(9.53839 5.94155 2.23687e-19)
(9.74729 5.69955 1.58727e-18)
(8.75105 5.89577 -2.19193e-19)
(8.92986 5.67214 -1.93128e-18)
(8.04693 5.76855 -1.95085e-19)
(8.20363 5.55311 -1.22893e-18)
(7.41748 5.56251 1.56108e-19)
(7.55187 5.35073 -9.4477e-19)
(6.83899 5.27017 3.00704e-19)
(6.95906 5.07571 1.74804e-20)
(6.31264 4.90983 2.65078e-19)
(6.42033 4.75162 -5.9174e-19)
(5.85511 4.50755 0)
(5.94608 4.39165 2.84887e-19)
(5.48016 4.08407 6.02491e-21)
(5.54525 3.99939 1.30991e-19)
(5.20873 3.64103 -6.9781e-20)
(5.21639 3.58156 9.87047e-20)
(5.06105 3.22026 -1.04888e-19)
(4.98312 3.1749 4.1192e-19)
(5.1421 2.87747 -1.396e-19)
(4.94401 2.80894 4.39465e-19)
(5.68519 2.62782 -1.09078e-19)
(5.22843 2.49291 -1.89592e-19)
(6.74831 2.49862 -2.64364e-20)
(6.01362 2.32672 0)
(8.05548 2.45759 -2.30713e-20)
(7.21863 2.31575 -7.88943e-20)
(9.23042 2.37376 -1.38558e-19)
(8.51155 2.34401 3.88761e-21)
(10.0367 2.14916 1.04233e-18)
(9.55175 2.26602 3.26749e-19)
(10.4896 1.80569 2.19497e-19)
(10.1926 1.99656 -1.76649e-19)
(10.7494 1.4364 -1.34339e-19)
(10.5405 1.63361 7.99185e-20)
(10.9263 1.11673 1.05321e-18)
(10.7635 1.28548 -2.40523e-19)
(11.0478 0.858252 -4.57749e-20)
(10.9284 0.99813 2.10155e-20)
(11.1263 0.643836 3.53418e-19)
(11.0362 0.764955 2.49829e-20)
(11.1808 0.463533 2.15879e-20)
(11.0996 0.570653 -3.54435e-19)
(11.2374 0.304672 7.34582e-20)
(11.1481 0.398501 1.70615e-19)
(11.2575 0.175828 7.38744e-19)
(11.1753 0.248924 7.37231e-20)
(11.1438 0.155661 8.85525e-20)
(11.158 0.129158 -1.86609e-19)
(12.5558 0.390368 1.89032e-18)
(12.6256 0.324593 7.43321e-21)
(12.5576 0.187145 2.793e-18)
(12.5904 0.548728 -3.06284e-20)
(12.6649 0.476217 9.00101e-20)
(12.6614 0.717788 2.44856e-20)
(12.765 0.647255 -2.25505e-19)
(12.7553 0.915662 0)
(12.8718 0.817132 0)
(12.8614 1.1484 -2.99679e-21)
(12.9989 1.02392 4.49775e-19)
(12.9828 1.42774 5.13264e-19)
(13.1568 1.2812 2.06553e-19)
(13.1338 1.77596 1.87346e-18)
(13.3602 1.60159 -1.66927e-19)
(13.3238 2.21056 8.17917e-19)
(13.6092 2.00904 2.22875e-19)
(13.5273 2.73678 -9.54028e-19)
(13.877 2.50948 -1.06951e-18)
(13.6476 3.33556 -2.54624e-19)
(14.0596 3.07427 1.0875e-19)
(13.5676 3.95741 -2.88706e-19)
(14.0078 3.65859 4.63292e-19)
(13.2375 4.5277 -2.08143e-19)
(13.6563 4.19283 -2.07649e-19)
(12.6628 4.98519 6.10591e-19)
(13.0266 4.61629 1.6091e-18)
(11.8914 5.30881 -2.28628e-18)
(12.1939 4.87562 5.04423e-18)
(11.0021 5.49329 -1.45211e-18)
(11.2415 4.99223 -2.12659e-18)
(10.0763 5.54646 5.6214e-18)
(10.2621 5.00954 -9.51955e-19)
(9.19327 5.48674 -6.02751e-19)
(9.32963 4.95468 -1.92417e-18)
(8.40605 5.34809 -2.7412e-18)
(8.50305 4.82703 -6.15837e-19)
(7.71223 5.13425 -1.85573e-18)
(7.77469 4.63976 -1.44051e-18)
(7.09493 4.8632 -1.07085e-18)
(7.1399 4.41287 -1.52278e-18)
(6.54222 4.55581 -8.91812e-19)
(6.58474 4.15832 -3.32984e-19)
(6.05086 4.22417 -5.72542e-19)
(6.09242 3.88188 6.85328e-19)
(5.62702 3.86817 4.5383e-19)
(5.66025 3.58646 2.02128e-19)
(5.28895 3.49241 2.26219e-19)
(5.29368 3.26972 1.29646e-19)
(5.0486 3.11109 -1.44891e-20)
(4.99176 2.9383 9.72374e-20)
(4.91891 2.75346 3.29063e-19)
(4.78063 2.6165 -1.25883e-18)
(4.98782 2.44321 5.85609e-19)
(4.72274 2.32546 -3.52851e-19)
(5.40562 2.25712 1.15137e-19)
(4.92752 2.07591 6.00868e-19)
(6.2819 2.21678 2.72032e-20)
(5.5476 1.96225 -6.79602e-19)
(7.48226 2.2596 2.8051e-20)
(6.5902 2.01559 2.77973e-20)
(8.67341 2.28405 3.84606e-19)
(7.846 2.13401 -6.11624e-19)
(9.58019 2.16012 -1.70553e-18)
(8.96583 2.17503 9.25914e-19)
(10.1398 1.87134 -4.0268e-19)
(9.73384 2.00932 9.11213e-20)
(10.4739 1.52317 1.57012e-20)
(10.1855 1.69724 -4.50943e-19)
(10.7034 1.19994 1.10854e-19)
(10.4742 1.35914 -2.77095e-19)
(10.8709 0.93116 2.46065e-19)
(10.6931 1.06589 7.60862e-19)
(10.9829 0.709458 -9.44672e-19)
(10.8503 0.824434 3.88597e-19)
(11.049 0.523876 5.00377e-19)
(10.9537 0.623321 -8.86848e-20)
(11.0848 0.360515 1.72114e-19)
(11.0253 0.451466 3.17392e-19)
(11.1088 0.220003 1.58553e-19)
(11.0647 0.301064 -2.47716e-19)
(11.074 0.188743 -2.42445e-20)
(11.1233 0.139372 1.20898e-18)
(12.7581 0.447529 -9.4782e-22)
(12.8154 0.372564 2.20057e-19)
(12.7107 0.305739 -2.32392e-18)
(12.85 0.591631 7.55268e-19)
(12.8956 0.492185 1.85405e-20)
(12.9701 0.751219 -1.93426e-19)
(13.0387 0.64688 -4.1233e-19)
(13.1146 0.943541 4.54146e-19)
(13.2056 0.805882 0)
(13.291 1.17595 1.13214e-18)
(13.4065 0.998794 4.50582e-19)
(13.5243 1.46967 -3.14994e-19)
(13.6805 1.25123 2.09948e-19)
(13.8247 1.85364 -6.76129e-19)
(14.0409 1.58121 -6.78052e-19)
(14.1518 2.32919 -2.94535e-19)
(14.4176 2.00336 -3.24502e-19)
(14.404 2.8722 -4.86452e-20)
(14.7107 2.49247 -3.17999e-18)
(14.4207 3.42678 7.7646e-19)
(14.7411 2.98115 3.89319e-18)
(14.115 3.93424 5.29041e-19)
(14.4108 3.40698 -1.28251e-18)
(13.4841 4.33224 1.60569e-18)
(13.7086 3.70398 0)
(12.601 4.57599 5.87942e-18)
(12.7339 3.86928 -3.46649e-18)
(11.5832 4.65286 6.82133e-18)
(11.6239 3.87149 7.45716e-18)
(10.5328 4.60522 -2.82902e-18)
(10.5185 3.78097 -1.73712e-18)
(9.53629 4.47278 -8.64404e-18)
(9.48942 3.65227 -5.01321e-18)
(8.65305 4.31023 -1.94525e-18)
(8.59608 3.4938 -1.86018e-18)
(7.88449 4.12404 1.15823e-18)
(7.82292 3.32485 4.41832e-19)
(7.21923 3.92434 -5.19591e-19)
(7.1635 3.16207 2.64046e-19)
(6.64441 3.71311 -4.95365e-19)
(6.60236 3.00818 1.55682e-18)
(6.14298 3.48771 1.2916e-18)
(6.11799 2.85525 -3.25173e-19)
(5.70414 3.24526 1.49335e-18)
(5.6918 2.69538 5.94752e-19)
(5.33402 2.98706 -9.35079e-20)
(5.3201 2.52109 7.4992e-19)
(5.04718 2.70581 4.94376e-21)
(4.99719 2.33141 0)
(4.84148 2.42705 -1.31175e-19)
(4.74226 2.12734 -4.50437e-20)
(4.72549 2.17081 1.90995e-20)
(4.56996 1.92148 -1.21676e-20)
(4.75845 1.94443 8.48668e-19)
(4.51349 1.73589 1.66483e-18)
(5.06499 1.81039 -4.82558e-19)
(4.66994 1.5796 -5.02288e-19)
(5.76895 1.82644 -6.98017e-19)
(5.16921 1.53073 -6.93142e-19)
(6.83452 1.95603 -6.01679e-19)
(6.05145 1.64136 0)
(8.01682 2.08333 1.7871e-18)
(7.21071 1.8438 1.23673e-19)
(9.01527 2.07966 9.86752e-19)
(8.35835 1.99112 -9.3663e-19)
(9.69184 1.89066 -1.32144e-18)
(9.22957 1.95185 1.10603e-18)
(10.1142 1.58333 -7.49144e-19)
(9.78103 1.71534 -1.17701e-19)
(10.4079 1.26673 2.14439e-18)
(10.1396 1.40237 -2.28215e-20)
(10.6309 0.992404 9.14215e-19)
(10.4151 1.11203 5.05016e-19)
(10.7934 0.76258 4.06685e-19)
(10.6259 0.867498 6.77498e-19)
(10.9061 0.569765 3.04653e-19)
(10.7747 0.660305 2.74623e-20)
(10.9816 0.406315 -6.99361e-19)
(10.8808 0.483755 -1.86732e-19)
(11.0206 0.271069 -4.25497e-19)
(10.9546 0.332552 -2.38452e-19)
(10.9914 0.215851 -7.14721e-20)
(11.0327 0.160457 -1.18617e-18)
(12.9767 0.441279 1.6736e-18)
(13.027 0.352956 1.39842e-18)
(12.8926 0.318049 5.86576e-19)
(13.1116 0.566448 3.14075e-19)
(13.1515 0.440337 -6.34403e-19)
(13.2866 0.70057 -2.17795e-19)
(13.3387 0.553502 -1.16786e-19)
(13.5085 0.866108 -3.17647e-21)
(13.5795 0.676499 7.98612e-19)
(13.8064 1.08016 -3.14069e-21)
(13.894 0.829635 -8.38128e-19)
(14.204 1.36255 0)
(14.3196 1.04362 -1.69773e-18)
(14.648 1.73666 -3.25085e-19)
(14.8174 1.32863 2.17406e-18)
(14.9932 2.17167 -3.07101e-18)
(15.1821 1.67587 3.97397e-19)
(15.0691 2.61231 5.96516e-19)
(15.2691 2.02677 -2.96741e-18)
(14.7652 2.97609 1.45626e-18)
(14.9077 2.28762 -2.94015e-18)
(14.0509 3.19928 -2.07552e-18)
(14.086 2.41155 5.61703e-18)
(13.0101 3.26905 -5.73505e-18)
(12.9429 2.38816 0)
(11.8233 3.20718 -3.66885e-18)
(11.6798 2.25324 -5.5696e-18)
(10.6363 3.06425 -1.52194e-19)
(10.4478 2.03945 2.29244e-18)
(9.54221 2.87441 -2.38539e-18)
(9.33196 1.82258 5.12072e-18)
(8.59765 2.69011 2.19649e-18)
(8.38929 1.62533 -5.76697e-18)
(7.79879 2.52003 1.04951e-18)
(7.59999 1.46175 5.08038e-18)
(7.12613 2.37742 -1.22196e-19)
(6.94764 1.34481 -2.33155e-18)
(6.56016 2.26198 2.70466e-18)
(6.40746 1.27032 1.85816e-18)
(6.07939 2.16504 1.77461e-18)
(5.9565 1.23515 1.77503e-18)
(5.66651 2.07511 -9.99318e-19)
(5.5716 1.22395 -2.31737e-19)
(5.31469 1.97696 -1.18509e-19)
(5.23107 1.22374 -1.10076e-18)
(5.02547 1.85929 8.29661e-19)
(4.93162 1.21879 3.12705e-18)
(4.79667 1.72976 -5.02246e-20)
(4.67797 1.19869 3.3445e-19)
(4.62877 1.59103 4.82575e-20)
(4.4811 1.15567 1.09434e-19)
(4.53751 1.45476 2.98484e-19)
(4.35266 1.09196 -1.85092e-18)
(4.56283 1.34308 -1.14428e-19)
(4.31812 1.02946 4.25087e-19)
(4.8109 1.29393 -3.47022e-19)
(4.44581 0.986633 5.82173e-21)
(5.39109 1.37098 0)
(4.85915 1.02656 -5.10579e-19)
(6.30616 1.57559 7.29155e-19)
(5.6135 1.20025 9.26236e-19)
(7.4172 1.79928 -2.38119e-18)
(6.64601 1.47455 1.79135e-18)
(8.45108 1.91167 6.43699e-19)
(7.76658 1.72219 -2.36261e-18)
(9.21797 1.82776 9.73079e-19)
(8.70157 1.80023 6.73342e-19)
(9.72352 1.58388 5.78968e-19)
(9.34017 1.65974 3.84857e-19)
(10.0806 1.28966 6.04152e-20)
(9.76636 1.39043 -6.96194e-19)
(10.3599 1.02087 1.85059e-19)
(10.0987 1.11507 -6.96312e-19)
(10.5729 0.79101 -6.90419e-19)
(10.3668 0.877057 -2.91971e-19)
(10.7278 0.593981 -1.07818e-18)
(10.5664 0.671937 -1.10436e-19)
(10.8396 0.426496 -3.16072e-19)
(10.713 0.494576 -2.6361e-19)
(10.9151 0.289711 4.70189e-20)
(10.8245 0.342035 3.48586e-19)
(10.8951 0.2224 7.99132e-20)
(10.9587 0.179162 1.07462e-18)
(13.214 0.36179 5.8531e-19)
(13.241 0.250984 5.93103e-19)
(13.0833 0.280954 1.21958e-18)
(13.4057 0.440777 -6.62258e-19)
(13.4125 0.280389 -7.44571e-19)
(13.6541 0.524937 7.57163e-19)
(13.6486 0.322105 -7.69426e-19)
(13.988 0.633272 -5.27295e-19)
(13.9789 0.37681 1.50424e-18)
(14.4406 0.790516 -2.52548e-18)
(14.4327 0.450179 -8.24028e-19)
(14.966 1.00843 4.75853e-19)
(14.9689 0.572988 -1.79147e-18)
(15.3671 1.26751 2.93078e-18)
(15.3973 0.741004 2.74809e-18)
(15.4804 1.54992 2.98457e-19)
(15.5395 0.898111 -3.53853e-18)
(15.15 1.72417 -6.9674e-18)
(15.1061 0.964409 -3.09289e-18)
(14.2885 1.74969 1.32228e-18)
(14.1106 0.890827 -7.33534e-18)
(13.0468 1.62708 8.31155e-18)
(12.7694 0.677149 2.10593e-17)
(11.6816 1.3982 0)
(11.3441 0.369054 2.17161e-19)
(10.3648 1.1154 0)
(9.98991 0.0300566 -5.39704e-18)
(9.19786 0.83521 8.09762e-18)
(8.81257 -0.305832 5.70728e-18)
(8.21961 0.602577 2.00231e-18)
(7.8384 -0.578043 4.64026e-18)
(7.42131 0.425504 -2.61476e-18)
(7.05025 -0.778353 -1.16498e-17)
(6.77548 0.313242 1.57461e-18)
(6.4259 -0.891172 2.84835e-18)
(6.25326 0.263256 4.87896e-20)
(5.93321 -0.919901 -1.23938e-18)
(5.82776 0.26685 1.24631e-18)
(5.54296 -0.874632 2.63807e-18)
(5.47564 0.311964 -2.32274e-19)
(5.23035 -0.766568 -2.50185e-18)
(5.17902 0.379226 -3.55288e-19)
(4.96756 -0.613204 -2.26041e-19)
(4.92825 0.454654 4.41769e-19)
(4.73715 -0.435078 -1.22093e-19)
(4.71669 0.524618 8.84616e-19)
(4.53425 -0.253727 2.98733e-18)
(4.5431 0.576919 4.56677e-19)
(4.36096 -0.0890726 3.3242e-19)
(4.41439 0.604817 -8.60051e-21)
(4.2271 0.0421424 3.95858e-18)
(4.34735 0.614714 -1.13695e-19)
(4.1468 0.138044 4.09218e-18)
(4.37899 0.630885 5.56415e-19)
(4.14284 0.215378 2.05436e-19)
(4.58736 0.695132 -1.44209e-19)
(4.26742 0.3006 -1.4118e-18)
(5.07775 0.849843 3.67113e-19)
(4.61521 0.447003 -2.2525e-18)
(5.87131 1.11906 1.98091e-18)
(5.26581 0.696618 9.56296e-19)
(6.87585 1.43229 -1.08442e-18)
(6.18201 1.041 9.26874e-19)
(7.8973 1.65086 -8.92594e-19)
(7.22572 1.37347 -8.94568e-19)
(8.72224 1.67778 6.25775e-20)
(8.17898 1.55922 -8.88074e-19)
(9.29917 1.51357 -9.1933e-19)
(8.88046 1.52049 5.48503e-19)
(9.71592 1.25744 -1.51072e-18)
(9.36437 1.31151 -1.21059e-18)
(10.0517 1.00492 -1.21977e-18)
(9.74828 1.06352 -5.93669e-19)
(10.3212 0.783809 2.10748e-19)
(10.0726 0.841476 -7.9062e-19)
(10.5265 0.590879 6.70726e-19)
(10.3272 0.646677 5.97507e-19)
(10.6802 0.424622 3.8987e-19)
(10.5204 0.475064 -1.15191e-19)
(10.792 0.286314 4.07581e-19)
(10.6738 0.325656 -1.97566e-20)
(10.7811 0.204679 -1.4998e-20)
(10.868 0.170846 -3.00522e-19)
(13.4561 0.16052 -4.74536e-19)
(13.4254 0.0260678 -2.35633e-19)
(13.2796 0.14562 1.57284e-18)
(13.7035 0.169563 -6.83168e-19)
(13.6427 -0.0245845 -1.0051e-18)
(14.0325 0.171484 1.72495e-19)
(13.9244 -0.0801399 3.65568e-19)
(14.4863 0.183386 7.48229e-19)
(14.3478 -0.126958 7.49559e-19)
(15.0304 0.222592 -3.72813e-19)
(14.878 -0.172819 0)
(15.4783 0.307183 -3.02507e-19)
(15.3578 -0.200376 1.33687e-18)
(15.6509 0.382703 -4.79018e-18)
(15.5053 -0.234881 -3.00583e-18)
(15.2491 0.341818 -8.45168e-18)
(14.9854 -0.359271 -5.4073e-18)
(14.1498 0.163297 -4.73457e-18)
(13.7742 -0.617853 -2.66607e-18)
(12.6678 -0.151279 1.11468e-17)
(12.2404 -0.998341 -4.88784e-18)
(11.1297 -0.543864 1.29272e-17)
(10.674 -1.45966 2.08971e-17)
(9.69736 -0.95958 -4.98674e-18)
(9.21689 -1.9341 -4.47405e-18)
(8.46748 -1.35146 4.70598e-19)
(7.96043 -2.37977 -5.18882e-18)
(7.47188 -1.67951 2.28823e-18)
(6.95754 -2.76856 2.90428e-18)
(6.68615 -1.91731 -9.26205e-18)
(6.18405 -3.05313 -3.43328e-19)
(6.08135 -2.05551 -5.94408e-18)
(5.59804 -3.23271 -3.12137e-18)
(5.62845 -2.09416 0)
(5.1705 -3.29071 -4.70044e-21)
(5.29387 -2.04128 2.75142e-18)
(4.86266 -3.23042 -5.84393e-18)
(5.04493 -1.9063 1.60019e-19)
(4.64792 -3.06528 3.30669e-18)
(4.85154 -1.70694 -2.42904e-18)
(4.49364 -2.81573 -9.84332e-19)
(4.68974 -1.46478 0)
(4.37169 -2.50309 0)
(4.54477 -1.20378 -1.49834e-18)
(4.26378 -2.15334 1.56087e-18)
(4.41227 -0.943895 -1.47238e-18)
(4.16605 -1.79774 -9.93675e-19)
(4.29756 -0.706347 -7.21466e-19)
(4.07588 -1.46053 4.79215e-19)
(4.21299 -0.503435 -7.27006e-19)
(4.00633 -1.16089 -1.22523e-18)
(4.17844 -0.332826 -4.36778e-20)
(3.9759 -0.903038 -4.75714e-18)
(4.2278 -0.173492 -3.60772e-19)
(4.00682 -0.676938 1.90724e-19)
(4.42155 0.0141988 -1.30048e-18)
(4.14192 -0.457042 -6.68886e-19)
(4.84304 0.268843 -9.78721e-19)
(4.44978 -0.199215 1.19654e-18)
(5.53713 0.607255 -1.32432e-19)
(5.00932 0.137679 -7.11208e-19)
(6.43753 0.994141 -1.70592e-19)
(5.82306 0.555651 -1.12554e-18)
(7.39687 1.30934 -8.87058e-19)
(6.77566 0.959741 1.00224e-18)
(8.23724 1.43814 5.30434e-19)
(7.69524 1.23458 1.08417e-18)
(8.86276 1.35956 3.70556e-19)
(8.42611 1.29078 -1.35045e-18)
(9.32836 1.1555 -2.1076e-19)
(8.95083 1.15177 1.30705e-18)
(9.71444 0.931184 -1.0365e-19)
(9.37561 0.94348 -7.08428e-19)
(10.0386 0.728753 4.83507e-19)
(9.75066 0.747774 1.47817e-19)
(10.2959 0.548207 -5.9037e-20)
(10.0606 0.573287 -1.24417e-19)
(10.4951 0.38936 -5.6285e-19)
(10.3041 0.415964 4.77441e-19)
(10.6481 0.254974 -1.85297e-19)
(10.5018 0.27551 -8.76704e-19)
(10.6484 0.157541 -6.09273e-20)
(10.761 0.139749 2.26737e-19)
(13.651 -0.185666 -1.09617e-18)
(13.546 -0.329345 2.02168e-19)
(13.4358 -0.121948 1.78848e-19)
(13.9427 -0.271044 1.64463e-19)
(13.7855 -0.482849 -1.04902e-18)
(14.3466 -0.380296 1.07261e-18)
(14.1046 -0.65398 1.07271e-18)
(14.8619 -0.498121 0)
(14.5727 -0.831467 0)
(15.3586 -0.604421 2.87006e-18)
(15.0533 -1.02693 -1.86582e-18)
(15.5571 -0.742255 -8.03761e-19)
(15.1871 -1.23271 9.48209e-19)
(15.009 -0.957382 -5.85609e-18)
(14.5726 -1.4918 -2.72927e-18)
(13.6577 -1.29413 -1.0606e-19)
(13.1977 -1.87418 -1.71799e-18)
(11.9693 -1.74503 -2.38999e-18)
(11.5024 -2.36521 2.60626e-18)
(10.2916 -2.26454 4.40606e-18)
(9.808 -2.91493 -4.50923e-19)
(8.77367 -2.79708 3.7873e-18)
(8.26813 -3.48448 4.72416e-18)
(7.48007 -3.29474 -4.51805e-18)
(6.94728 -4.02887 -4.48981e-18)
(6.4449 -3.72901 -2.56716e-18)
(5.88028 -4.52572 0)
(5.66211 -4.07987 2.21101e-19)
(5.08743 -4.94169 1.08127e-18)
(5.09406 -4.31276 5.40179e-18)
(4.54537 -5.24036 -3.69918e-18)
(4.69823 -4.41766 2.68943e-18)
(4.18926 -5.40136 -1.00805e-18)
(4.44665 -4.39521 -5.89555e-18)
(3.98147 -5.41928 3.44701e-18)
(4.30684 -4.24845 -4.9924e-18)
(3.88324 -5.29508 -2.8583e-18)
(4.23708 -3.99913 5.09545e-18)
(3.84881 -5.04194 6.24161e-19)
(4.20311 -3.6662 4.33576e-18)
(3.85315 -4.69012 4.33627e-18)
(4.18083 -3.27468 1.56529e-18)
(3.86811 -4.26164 -2.48335e-18)
(4.15416 -2.85196 2.01271e-18)
(3.87703 -3.78414 4.507e-18)
(4.11643 -2.43106 9.55589e-19)
(3.87296 -3.2891 -9.81081e-19)
(4.07364 -2.03135 -1.00649e-19)
(3.86166 -2.80919 -2.99046e-19)
(4.04415 -1.66594 -3.33295e-19)
(3.85508 -2.36536 -5.06814e-19)
(4.05176 -1.33854 5.20487e-19)
(3.87182 -1.96303 -1.9207e-19)
(4.12688 -1.03489 -9.76742e-20)
(3.9367 -1.5977 -4.41449e-18)
(4.31835 -0.724456 7.35536e-19)
(4.08571 -1.24974 1.50061e-18)
(4.69245 -0.36709 3.95537e-19)
(4.37229 -0.885773 2.82693e-18)
(5.29964 0.0553535 -1.74763e-18)
(4.86208 -0.458714 -1.43894e-18)
(6.10448 0.505887 4.63438e-21)
(5.57369 0.0313408 -1.05708e-18)
(6.98306 0.894349 3.03223e-18)
(6.43154 0.49439 1.06963e-18)
(7.79372 1.1118 -1.21646e-18)
(7.2866 0.838289 2.06895e-18)
(8.43687 1.11533 -5.17642e-19)
(8.00557 0.972451 -1.36734e-18)
(8.93458 0.970953 1.02506e-18)
(8.54737 0.902119 7.62886e-19)
(9.3601 0.785879 3.9664e-19)
(8.99827 0.742769 -1.28874e-18)
(9.73304 0.612721 1.81933e-19)
(9.41391 0.583496 1.49731e-19)
(10.0418 0.45432 2.09931e-19)
(9.77494 0.439288 -3.39356e-20)
(10.2884 0.310851 2.17106e-19)
(10.0689 0.305587 5.75235e-19)
(10.4851 0.186131 -4.65792e-19)
(10.3115 0.181462 -2.81305e-19)
(10.4978 0.0729216 1.78819e-19)
(10.6377 0.0750254 -5.54503e-20)
(13.7141 -0.669953 2.34653e-19)
(13.5459 -0.778634 2.05951e-19)
(13.4864 -0.516738 -4.69295e-18)
(14.0214 -0.86799 -6.52669e-21)
(13.7688 -1.05215 2.82694e-19)
(14.4538 -1.10797 0)
(14.1004 -1.35257 -3.15169e-19)
(14.93 -1.37686 -1.86127e-18)
(14.5138 -1.67517 7.8454e-19)
(15.077 -1.65878 -2.58812e-18)
(14.6425 -2.00217 -2.78126e-18)
(14.3982 -1.97004 1.907e-18)
(14.0099 -2.33192 -5.06745e-19)
(12.9134 -2.38908 4.91634e-18)
(12.5574 -2.72747 3.70247e-18)
(11.1204 -2.90953 2.25904e-18)
(10.7588 -3.22118 1.14863e-18)
(9.36315 -3.48776 4.36643e-18)
(8.96842 -3.78574 -4.29041e-19)
(7.77908 -4.08059 -1.29908e-19)
(7.33948 -4.38397 4.07616e-18)
(6.42343 -4.65864 -3.37409e-18)
(5.94076 -4.98617 -3.34845e-18)
(5.33302 -5.19168 0)
(4.81514 -5.5647 -3.58122e-18)
(4.51958 -5.64851 2.70815e-18)
(3.97929 -6.09431 5.6737e-18)
(3.96465 -6.01096 -2.76394e-18)
(3.42095 -6.53375 4.78287e-18)
(3.62911 -6.25439 -8.13504e-18)
(3.11641 -6.84989 -1.9954e-18)
(3.46591 -6.34506 1.40909e-19)
(3.01708 -7.01444 -2.82144e-18)
(3.42992 -6.27915 5.82621e-18)
(3.05165 -7.01757 -2.74996e-18)
(3.47856 -6.07582 2.84671e-18)
(3.1572 -6.86188 4.64713e-20)
(3.57011 -5.75652 -2.51956e-18)
(3.28852 -6.56866 0)
(3.67225 -5.34299 -4.93629e-18)
(3.42889 -6.17167 -5.02164e-18)
(3.76548 -4.86101 -4.07406e-18)
(3.55482 -5.69085 -2.8844e-18)
(3.83955 -4.33782 -3.11227e-18)
(3.65415 -5.15207 -5.78542e-18)
(3.89049 -3.80091 -2.28624e-18)
(3.72473 -4.58244 -4.24677e-18)
(3.92254 -3.27883 -7.76935e-19)
(3.77248 -4.01158 -7.75518e-19)
(3.95074 -2.78694 -3.6918e-19)
(3.81514 -3.46653 0)
(4.0001 -2.3299 -5.69131e-19)
(3.87066 -2.95692 -4.80312e-18)
(4.10184 -1.90091 -1.50293e-19)
(3.96221 -2.48115 -3.82614e-19)
(4.2962 -1.47864 5.01116e-19)
(4.12235 -2.02653 2.14463e-18)
(4.64001 -1.02633 2.16169e-19)
(4.39652 -1.56664 4.73826e-19)
(5.17571 -0.523293 -2.89324e-19)
(4.83602 -1.06115 -2.82908e-19)
(5.88294 -0.0128804 0)
(5.45075 -0.515967 -1.20406e-18)
(6.6733 0.425778 0)
(6.20038 -0.00909672 2.29961e-18)
(7.42276 0.709192 4.78114e-19)
(6.97639 0.383618 1.1595e-18)
(8.04916 0.780368 -2.2608e-19)
(7.64612 0.572345 4.99534e-21)
(8.55634 0.695452 -1.52491e-18)
(8.17864 0.559947 -2.17411e-18)
(9.00542 0.557695 -7.56844e-19)
(8.63944 0.452954 2.09304e-18)
(9.41802 0.422347 7.30067e-19)
(9.07997 0.337989 -1.28285e-18)
(9.77484 0.2963 7.99877e-19)
(9.48385 0.232132 -2.2015e-19)
(10.0671 0.179339 3.81889e-19)
(9.82725 0.131934 0)
(10.3063 0.0722303 6.77341e-19)
(10.1119 0.0330556 8.60605e-19)
(10.3365 -0.0569692 -1.46268e-19)
(10.4975 -0.0273289 2.6452e-19)
(13.5879 -1.23177 3.18064e-19)
(13.3616 -1.25805 -6.18491e-19)
(13.3777 -0.978157 -6.26823e-19)
(13.8678 -1.5501 -2.06506e-18)
(13.5216 -1.64404 1.03788e-18)
(14.2117 -1.92092 4.72794e-19)
(13.7922 -2.05778 -3.05719e-19)
(14.3101 -2.29509 2.96087e-19)
(13.9402 -2.48753 6.02385e-19)
(13.6779 -2.65526 -9.42067e-19)
(13.4407 -2.84622 -6.22084e-19)
(12.2404 -3.05724 0)
(12.0768 -3.17294 3.34226e-19)
(10.4195 -3.52361 0)
(10.2312 -3.54938 2.6271e-20)
(8.59117 -4.05588 -4.90761e-19)
(8.3455 -4.01424 7.93078e-20)
(6.92007 -4.63571 4.21045e-19)
(6.61743 -4.55638 -2.013e-18)
(5.47923 -5.24135 8.68611e-19)
(5.12157 -5.15127 -2.39226e-19)
(4.3158 -5.84526 -3.55658e-18)
(3.90792 -5.76957 9.25278e-19)
(3.4543 -6.41274 1.98197e-18)
(3.01062 -6.37679 -5.23811e-18)
(2.89056 -6.90474 7.60989e-18)
(2.43647 -6.93575 2.7715e-18)
(2.59302 -7.28275 4.77793e-18)
(2.15508 -7.40586 1.39806e-18)
(2.51603 -7.53449 2.59066e-18)
(2.10405 -7.74665 7.60395e-18)
(2.60283 -7.6366 -5.40372e-18)
(2.24927 -7.93459 2.94023e-18)
(2.78521 -7.56878 -8.17565e-18)
(2.50378 -7.97646 1.86024e-18)
(3.00496 -7.35265 -2.68568e-18)
(2.78272 -7.84231 7.96674e-19)
(3.22576 -7.01353 -2.58233e-18)
(3.05253 -7.55473 2.88879e-18)
(3.42622 -6.5767 -5.71564e-20)
(3.29665 -7.16235 -2.10919e-18)
(3.59403 -6.0664 -1.79045e-18)
(3.50082 -6.6842 2.21459e-18)
(3.72632 -5.50718 -2.32344e-18)
(3.65876 -6.14359 -6.85286e-18)
(3.82725 -4.92339 1.75702e-18)
(3.77379 -5.56251 -6.65398e-20)
(3.90529 -4.33704 0)
(3.85731 -4.96492 -1.41866e-18)
(3.97486 -3.76829 5.6374e-19)
(3.92771 -4.37364 -3.60646e-19)
(4.05699 -3.22495 2.1556e-19)
(4.0058 -3.8037 9.42605e-19)
(4.17952 -2.70488 6.36493e-20)
(4.11241 -3.25732 -1.91107e-19)
(4.3794 -2.19194 2.7272e-19)
(4.27809 -2.72685 -2.69479e-19)
(4.70097 -1.66046 0)
(4.54049 -2.194 5.1714e-19)
(5.17409 -1.10309 -1.17372e-18)
(4.93207 -1.637 -1.05294e-18)
(5.78363 -0.551978 9.35663e-19)
(5.46041 -1.06723 -2.79771e-19)
(6.47293 -0.0779066 3.53858e-18)
(6.09704 -0.539334 2.39803e-18)
(7.14761 0.239419 6.2503e-19)
(6.76774 -0.12374 -1.06452e-18)
(7.72436 0.360225 -2.31915e-18)
(7.37263 0.098283 1.52576e-18)
(8.21654 0.326783 1.35003e-18)
(7.86789 0.129273 -1.84126e-18)
(8.67254 0.239046 1.77015e-18)
(8.32313 0.0708203 2.41651e-18)
(9.11086 0.149427 -2.30855e-18)
(8.77354 0.00480807 -1.30967e-18)
(9.50618 0.0659948 -1.04336e-18)
(9.20977 -0.0567637 4.602e-19)
(9.8425 -0.0161658 4.43738e-19)
(9.59341 -0.115939 0)
(10.1217 -0.0974428 8.8944e-20)
(9.91678 -0.180151 -6.60678e-20)
(10.1759 -0.2415 6.20489e-20)
(10.3496 -0.177616 -4.0944e-19)
(13.2285 -1.78082 -1.03027e-17)
(12.9456 -1.68649 3.6789e-19)
(13.0666 -1.42408 -5.81357e-19)
(13.4234 -2.19251 6.97803e-19)
(13.0245 -2.13634 9.28369e-19)
(13.5229 -2.62966 -1.54626e-19)
(13.1414 -2.6066 -7.01551e-19)
(13.0868 -3.01175 -1.18148e-19)
(12.8851 -3.0376 -2.6538e-19)
(11.8414 -3.32443 -1.04051e-19)
(11.8229 -3.30235 7.82818e-19)
(10.0435 -3.63727 3.48594e-19)
(10.0613 -3.49558 1.19102e-18)
(8.12863 -4.01831 1.03877e-19)
(8.09742 -3.75019 1.20114e-19)
(6.35127 -4.49327 -6.35446e-19)
(6.253 -4.13036 -5.1185e-19)
(4.80976 -5.04804 -1.09514e-18)
(4.64339 -4.62658 -6.05068e-19)
(3.55253 -5.65597 5.24813e-19)
(3.31433 -5.20828 -8.21494e-19)
(2.61514 -6.28194 -9.33553e-19)
(2.31248 -5.84034 -2.71725e-19)
(2.0098 -6.8824 -4.24744e-18)
(1.66612 -6.47983 -4.90965e-18)
(1.71778 -7.40849 -2.67916e-18)
(1.36642 -7.0882 2.64785e-18)
(1.68764 -7.82547 4.51379e-18)
(1.34859 -7.61479 -5.95765e-18)
(1.85911 -8.10662 7.6415e-18)
(1.53663 -8.0199 -1.55094e-18)
(2.16623 -8.25628 9.99171e-18)
(1.86639 -8.26696 7.37887e-18)
(2.53278 -8.25675 1.13397e-17)
(2.2803 -8.37588 2.69221e-18)
(2.89384 -8.08369 7.14169e-18)
(2.70491 -8.33315 2.42708e-18)
(3.21566 -7.76857 5.68109e-18)
(3.09119 -8.10656 2.66612e-18)
(3.48603 -7.35166 2.62528e-18)
(3.41803 -7.74973 -9.96455e-19)
(3.70122 -6.8588 4.21981e-18)
(3.68152 -7.3011 -1.63284e-19)
(3.8646 -6.31191 2.48607e-18)
(3.88146 -6.78669 -4.4214e-19)
(3.98653 -5.73167 -3.23045e-18)
(4.02521 -6.22603 -4.04324e-18)
(4.0814 -5.13566 -1.7871e-18)
(4.12882 -5.64007 -2.81851e-18)
(4.16595 -4.53942 7.47321e-20)
(4.21278 -5.04699 -3.64775e-19)
(4.2618 -3.95525 3.78478e-19)
(4.29695 -4.45884 1.0169e-18)
(4.39413 -3.38225 -5.32576e-19)
(4.40609 -3.88265 -5.74183e-20)
(4.59234 -2.81251 -1.65274e-19)
(4.56666 -3.31428 -6.02053e-19)
(4.88641 -2.23637 -4.80874e-19)
(4.80626 -2.74719 5.39038e-19)
(5.29542 -1.65687 -2.58963e-19)
(5.14481 -2.17249 -2.05226e-18)
(5.81032 -1.09792 1.05071e-18)
(5.5911 -1.60783 2.99087e-18)
(6.39047 -0.615456 -2.19322e-18)
(6.12088 -1.08944 -9.94605e-19)
(6.96655 -0.283253 -3.7349e-19)
(6.67678 -0.682782 -2.49085e-18)
(7.47894 -0.137378 1.75222e-18)
(7.19149 -0.448429 2.12082e-18)
(7.93577 -0.128825 -1.23847e-18)
(7.63549 -0.383457 -4.73603e-19)
(8.38118 -0.167627 -8.27933e-19)
(8.07386 -0.398826 -7.99881e-19)
(8.83135 -0.20935 1.98117e-18)
(8.51922 -0.415981 -6.58585e-19)
(9.25562 -0.246453 2.16945e-18)
(8.97531 -0.430968 2.41616e-18)
(9.63115 -0.287805 -5.12119e-19)
(9.38651 -0.444015 -8.13121e-19)
(9.94581 -0.333716 -2.15695e-19)
(9.74664 -0.46616 -1.14712e-18)
(10.0343 -0.489382 4.89186e-19)
(10.2072 -0.384574 1.9191e-19)
(12.6517 -2.16392 5.66136e-18)
(12.3407 -1.95334 4.17023e-19)
(12.5707 -1.74967 2.10832e-19)
(12.693 -2.61811 2.87816e-18)
(12.3137 -2.38938 2.10558e-19)
(12.4835 -3.04684 -5.14288e-19)
(12.2419 -2.85068 -2.50256e-18)
(11.6161 -3.3271 4.44157e-19)
(11.6631 -3.19759 2.85139e-18)
(10.0327 -3.46973 6.14556e-19)
(10.2827 -3.29505 9.08046e-19)
(8.10296 -3.61233 -9.38931e-20)
(8.36465 -3.283 1.00313e-19)
(6.2142 -3.86967 -5.33432e-19)
(6.39704 -3.37818 -1.19124e-18)
(4.54717 -4.26934 -7.02096e-20)
(4.63136 -3.65618 9.69313e-19)
(3.16219 -4.7897 -1.90245e-19)
(3.14795 -4.10025 2.67913e-20)
(2.09463 -5.39673 -1.24494e-18)
(1.98741 -4.66583 -7.53941e-19)
(1.37897 -6.04026 -3.75537e-18)
(1.20241 -5.3279 -8.06242e-20)
(1.02048 -6.67585 1.27616e-18)
(0.785586 -6.03504 1.34715e-18)
(0.978334 -7.27081 -6.7205e-19)
(0.692758 -6.72584 1.50858e-18)
(1.18115 -7.78363 -9.99933e-18)
(0.861731 -7.34688 -4.34187e-18)
(1.54557 -8.17329 -7.43215e-19)
(1.22186 -7.85486 1.56139e-18)
(2.00068 -8.40844 -4.81842e-19)
(1.69978 -8.22484 1.242e-18)
(2.49565 -8.49375 -7.74887e-18)
(2.2251 -8.4479 -5.59295e-19)
(2.97516 -8.42121 -5.4059e-18)
(2.75253 -8.51407 -6.15068e-18)
(3.39276 -8.17875 -6.13174e-18)
(3.24087 -8.40622 -2.15796e-19)
(3.73278 -7.80578 -3.68396e-18)
(3.65459 -8.12615 -2.22169e-18)
(3.99646 -7.34495 -4.74601e-18)
(3.98236 -7.72186 -1.69279e-19)
(4.19172 -6.82448 -2.76975e-18)
(4.22966 -7.23789 -6.93759e-18)
(4.33204 -6.26455 4.91864e-18)
(4.40803 -6.70114 4.60606e-18)
(4.43634 -5.6834 3.04414e-18)