/*--------------------------------*- C++ -*----------------------------------*\
  =========                 |
  \\      /  F ield         | OpenFOAM: The Open Source CFD Toolbox
   \\    /   O peration     | Website:  https://openfoam.org
    \\  /    A nd           | Version:  6
     \\/     M anipulation  |
\*---------------------------------------------------------------------------*/
FoamFile
{
    version     2.0;
    format      ascii;
    class       volVectorField;
    location    "2.77";
    object      U;
}
// * * * * * * * * * * * * * * * * * * * * * * * * * * * * * * * * * * * * * //

dimensions      [0 1 -1 0 0 0 0];

internalField   nonuniform List<vector> 
5625
(
(0.905387 0.350029 0)
(0.927117 0.326664 0)
(0.954258 0.299583 0)
(0.987211 0.268856 0)
(1.02629 0.235138 0)
(1.07139 0.199929 0)
(1.12186 0.165509 0)
(1.17652 0.134646 0)
(1.23386 0.110219 0)
(1.29225 0.0948601 0)
(1.35 0.0906875 0)
(1.40536 0.099105 0)
(1.45665 0.120783 0)
(1.50241 0.155691 0)
(1.54132 0.202874 0)
(1.57224 0.260469 0)
(1.59438 0.326338 0)
(1.60729 0.398302 0)
(1.61044 0.473454 0)
(1.60313 0.548005 0)
(1.58524 0.618381 0)
(1.55757 0.682035 0)
(1.52136 0.736872 0)
(1.4777 0.780487 0)
(1.4277 0.810487 0)
(1.37307 0.825462 0)
(1.3163 0.82561 0)
(1.26013 0.812662 0)
(1.20683 0.78928 0)
(1.158 0.758389 0)
(1.11467 0.722719 0)
(1.0775 0.68462 0)
(1.04676 0.64609 0)
(1.02223 0.608834 0)
(1.00315 0.574287 0)
(0.988329 0.543594 0)
(0.976416 0.517524 0)
(0.966173 0.496409 0)
(0.956712 0.480142 0)
(0.947586 0.468243 0)
(0.938742 0.459987 0)
(0.930379 0.454557 0)
(0.922774 0.451175 0)
(0.916159 0.449183 0)
(0.91065 0.448079 0)
(0.906245 0.447511 0)
(0.902849 0.447245 0)
(0.900315 0.447141 0)
(0.898477 0.447115 0)
(0.897176 0.447123 0)
(0.896275 0.44714 0)
(0.895662 0.447157 0)
(0.895249 0.447171 0)
(0.894974 0.447182 0)
(0.894792 0.447188 0)
(0.89467 0.447193 0)
(0.894587 0.447196 0)
(0.894531 0.447197 0)
(0.894492 0.447198 0)
(0.894465 0.447198 0)
(0.894446 0.447199 0)
(0.894432 0.447199 0)
(0.894422 0.447199 0)
(0.894415 0.4472 0)
(0.89441 0.4472 0)
(0.894407 0.4472 0)
(0.894405 0.4472 0)
(0.894403 0.4472 0)
(0.894402 0.4472 0)
(0.894401 0.4472 0)
(0.894401 0.4472 0)
(0.8944 0.4472 0)
(0.8944 0.4472 0)
(0.8944 0.4472 0)
(0.8944 0.4472 0)
(0.901568 0.358641 0)
(0.921765 0.338122 0)
(0.947203 0.314509 0)
(0.978139 0.28791 0)
(1.01486 0.258826 0)
(1.05741 0.228378 0)
(1.10539 0.198392 0)
(1.15783 0.17124 0)
(1.21336 0.149524 0)
(1.27034 0.13571 0)
(1.32696 0.131796 0)
(1.38143 0.139124 0)
(1.43205 0.1584 0)
(1.47729 0.189643 0)
(1.51573 0.231928 0)
(1.54617 0.283569 0)
(1.56789 0.342711 0)
(1.58037 0.407251 0)
(1.58297 0.474293 0)
(1.5752 0.540461 0)
(1.55732 0.602882 0)
(1.53029 0.659379 0)
(1.49516 0.70781 0)
(1.45284 0.745767 0)
(1.40448 0.771182 0)
(1.3519 0.783095 0)
(1.29759 0.781955 0)
(1.24409 0.769417 0)
(1.19345 0.747841 0)
(1.14712 0.719758 0)
(1.10607 0.68753 0)
(1.0709 0.653211 0)
(1.04184 0.618591 0)
(1.0186 0.585233 0)
(1.00039 0.554472 0)
(0.986024 0.527362 0)
(0.974234 0.504589 0)
(0.96391 0.486406 0)
(0.954304 0.472647 0)
(0.945087 0.462804 0)
(0.936273 0.456158 0)
(0.928074 0.451935 0)
(0.92074 0.449421 0)
(0.914453 0.448032 0)
(0.909285 0.447335 0)
(0.905197 0.447033 0)
(0.902074 0.446939 0)
(0.899759 0.446945 0)
(0.89809 0.446988 0)
(0.896914 0.447038 0)
(0.896102 0.447083 0)
(0.895551 0.447118 0)
(0.895179 0.447144 0)
(0.894931 0.447162 0)
(0.894765 0.447174 0)
(0.894654 0.447183 0)
(0.894578 0.447188 0)
(0.894526 0.447192 0)
(0.894489 0.447194 0)
(0.894463 0.447196 0)
(0.894445 0.447197 0)
(0.894431 0.447198 0)
(0.894422 0.447199 0)
(0.894415 0.447199 0)
(0.89441 0.447199 0)
(0.894407 0.4472 0)
(0.894405 0.4472 0)
(0.894403 0.4472 0)
(0.894402 0.4472 0)
(0.894401 0.4472 0)
(0.894401 0.4472 0)
(0.8944 0.4472 0)
(0.8944 0.4472 0)
(0.8944 0.4472 0)
(0.8944 0.4472 0)
(0.897583 0.366605 0)
(0.915989 0.348691 0)
(0.939479 0.328212 0)
(0.968189 0.305317 0)
(1.0023 0.280432 0)
(1.04189 0.254427 0)
(1.0867 0.228738 0)
(1.136 0.205322 0)
(1.18864 0.186433 0)
(1.24306 0.174279 0)
(1.29749 0.170697 0)
(1.35013 0.177003 0)
(1.39927 0.193957 0)
(1.44328 0.221581 0)
(1.48067 0.258999 0)
(1.51029 0.304784 0)
(1.53142 0.357327 0)
(1.5434 0.41455 0)
(1.5456 0.473692 0)
(1.53785 0.531911 0)
(1.52064 0.586886 0)
(1.49487 0.636606 0)
(1.46136 0.678855 0)
(1.42093 0.711366 0)
(1.37484 0.732479 0)
(1.32501 0.741643 0)
(1.27387 0.73947 0)
(1.22372 0.727497 0)
(1.17639 0.707772 0)
(1.13317 0.682464 0)
(1.09493 0.653595 0)
(1.06224 0.622957 0)
(1.03525 0.592152 0)
(1.0136 0.562612 0)
(0.996481 0.53557 0)
(0.982747 0.511984 0)
(0.971227 0.492446 0)
(0.960956 0.477125 0)
(0.951339 0.465788 0)
(0.942163 0.457902 0)
(0.933501 0.452764 0)
(0.925569 0.449652 0)
(0.918585 0.447922 0)
(0.912683 0.447066 0)
(0.907891 0.446719 0)
(0.90414 0.446644 0)
(0.901299 0.446694 0)
(0.899208 0.446788 0)
(0.897708 0.446886 0)
(0.896656 0.446971 0)
(0.895932 0.447037 0)
(0.89544 0.447086 0)
(0.895109 0.447121 0)
(0.894887 0.447146 0)
(0.894738 0.447162 0)
(0.894637 0.447174 0)
(0.894568 0.447181 0)
(0.894519 0.447187 0)
(0.894485 0.447191 0)
(0.894461 0.447193 0)
(0.894443 0.447195 0)
(0.894431 0.447197 0)
(0.894421 0.447198 0)
(0.894415 0.447199 0)
(0.89441 0.447199 0)
(0.894407 0.447199 0)
(0.894404 0.4472 0)
(0.894403 0.4472 0)
(0.894402 0.4472 0)
(0.894401 0.4472 0)
(0.894401 0.4472 0)
(0.8944 0.4472 0)
(0.8944 0.4472 0)
(0.8944 0.4472 0)
(0.8944 0.4472 0)
(0.89366 0.37388 0)
(0.910081 0.358296 0)
(0.9314 0.340634 0)
(0.957691 0.321031 0)
(0.989028 0.299866 0)
(1.02543 0.277854 0)
(1.06671 0.256143 0)
(1.11231 0.236308 0)
(1.16127 0.220228 0)
(1.21221 0.209797 0)
(1.26349 0.206676 0)
(1.31341 0.21214 0)
(1.36024 0.22693 0)
(1.40231 0.251044 0)
(1.43813 0.283751 0)
(1.46661 0.323913 0)
(1.48696 0.370075 0)
(1.49842 0.420207 0)
(1.50049 0.471847 0)
(1.49324 0.522684 0)
(1.47723 0.570734 0)
(1.45314 0.613997 0)
(1.42161 0.650295 0)
(1.38351 0.677651 0)
(1.34023 0.694843 0)
(1.29376 0.701633 0)
(1.24639 0.698703 0)
(1.20015 0.687432 0)
(1.15662 0.669575 0)
(1.11694 0.646965 0)
(1.08192 0.621331 0)
(1.05204 0.594234 0)
(1.02738 0.567112 0)
(1.00753 0.541274 0)
(0.991647 0.517849 0)
(0.978654 0.497692 0)
(0.967506 0.481287 0)
(0.957401 0.468711 0)
(0.947896 0.45967 0)
(0.938885 0.453608 0)
(0.93049 0.449849 0)
(0.92292 0.447731 0)
(0.916356 0.446686 0)
(0.910885 0.446286 0)
(0.906495 0.446234 0)
(0.903092 0.446343 0)
(0.900537 0.446506 0)
(0.898669 0.446669 0)
(0.897337 0.446809 0)
(0.896406 0.44692 0)
(0.895767 0.447002 0)
(0.895333 0.447061 0)
(0.89504 0.447103 0)
(0.894843 0.447132 0)
(0.89471 0.447152 0)
(0.89462 0.447166 0)
(0.894557 0.447176 0)
(0.894512 0.447183 0)
(0.894481 0.447188 0)
(0.894458 0.447191 0)
(0.894441 0.447194 0)
(0.894429 0.447196 0)
(0.89442 0.447197 0)
(0.894414 0.447198 0)
(0.89441 0.447199 0)
(0.894406 0.447199 0)
(0.894404 0.447199 0)
(0.894403 0.4472 0)
(0.894402 0.4472 0)
(0.894401 0.4472 0)
(0.894401 0.4472 0)
(0.8944 0.4472 0)
(0.8944 0.4472 0)
(0.8944 0.4472 0)
(0.8944 0.4472 0)
(0.889993 0.380482 0)
(0.904317 0.366925 0)
(0.923297 0.351741 0)
(0.946997 0.335036 0)
(0.975428 0.317135 0)
(1.00854 0.298637 0)
(1.04613 0.280468 0)
(1.08776 0.263903 0)
(1.1326 0.250464 0)
(1.17947 0.241742 0)
(1.22693 0.239199 0)
(1.27341 0.243999 0)
(1.31722 0.256801 0)
(1.35673 0.277623 0)
(1.39053 0.305936 0)
(1.41758 0.34082 0)
(1.43695 0.380908 0)
(1.44787 0.424324 0)
(1.45005 0.469009 0)
(1.44366 0.513058 0)
(1.42911 0.554634 0)
(1.40688 0.59174 0)
(1.37756 0.622382 0)
(1.34216 0.644987 0)
(1.30217 0.658717 0)
(1.25958 0.663536 0)
(1.21642 0.660114 0)
(1.17447 0.649656 0)
(1.13507 0.633648 0)
(1.09923 0.61363 0)
(1.06767 0.591074 0)
(1.04081 0.56735 0)
(1.01864 0.543752 0)
(1.00067 0.521474 0)
(0.986089 0.501537 0)
(0.973894 0.484678 0)
(0.963189 0.471267 0)
(0.953345 0.46128 0)
(0.944065 0.454368 0)
(0.935337 0.449964 0)
(0.927314 0.447432 0)
(0.920188 0.446177 0)
(0.9141 0.445713 0)
(0.909093 0.445689 0)
(0.905122 0.445872 0)
(0.902073 0.446124 0)
(0.899801 0.446373 0)
(0.898152 0.446587 0)
(0.896981 0.446757 0)
(0.896167 0.446884 0)
(0.895608 0.446977 0)
(0.895229 0.447043 0)
(0.894974 0.44709 0)
(0.894801 0.447122 0)
(0.894683 0.447145 0)
(0.894602 0.44716 0)
(0.894545 0.447172 0)
(0.894505 0.44718 0)
(0.894476 0.447186 0)
(0.894455 0.44719 0)
(0.894439 0.447193 0)
(0.894428 0.447195 0)
(0.894419 0.447196 0)
(0.894413 0.447198 0)
(0.894409 0.447198 0)
(0.894406 0.447199 0)
(0.894404 0.447199 0)
(0.894403 0.4472 0)
(0.894402 0.4472 0)
(0.894401 0.4472 0)
(0.894401 0.4472 0)
(0.8944 0.4472 0)
(0.8944 0.4472 0)
(0.8944 0.4472 0)
(0.8944 0.4472 0)
(0.886732 0.386478 0)
(0.898927 0.374624 0)
(0.915487 0.361561 0)
(0.936484 0.347363 0)
(0.961904 0.332288 0)
(0.99166 0.31683 0)
(1.02553 0.301745 0)
(1.0631 0.288057 0)
(1.10365 0.276994 0)
(1.14619 0.269877 0)
(1.18946 0.267949 0)
(1.23204 0.272205 0)
(1.27233 0.28322 0)
(1.30885 0.301075 0)
(1.34031 0.325402 0)
(1.36561 0.355404 0)
(1.38378 0.389818 0)
(1.39417 0.427033 0)
(1.3966 0.465367 0)
(1.39116 0.503168 0)
(1.37808 0.538657 0)
(1.35775 0.569953 0)
(1.33085 0.595371 0)
(1.29847 0.613738 0)
(1.26219 0.62451 0)
(1.22383 0.627749 0)
(1.18517 0.624066 0)
(1.14772 0.614496 0)
(1.11262 0.600287 0)
(1.08076 0.582731 0)
(1.05279 0.563082 0)
(1.02902 0.542549 0)
(1.00935 0.522302 0)
(0.993278 0.503426 0)
(0.979987 0.486821 0)
(0.968602 0.473097 0)
(0.95839 0.462499 0)
(0.948889 0.454909 0)
(0.939939 0.449925 0)
(0.931601 0.446989 0)
(0.924043 0.445515 0)
(0.917432 0.444983 0)
(0.911864 0.444992 0)
(0.907343 0.445264 0)
(0.903796 0.445625 0)
(0.901098 0.445982 0)
(0.899103 0.44629 0)
(0.897664 0.446537 0)
(0.896647 0.446725 0)
(0.895942 0.446863 0)
(0.895459 0.446961 0)
(0.895132 0.447031 0)
(0.89491 0.44708 0)
(0.89476 0.447115 0)
(0.894656 0.447139 0)
(0.894585 0.447156 0)
(0.894534 0.447168 0)
(0.894497 0.447177 0)
(0.894471 0.447184 0)
(0.894451 0.447188 0)
(0.894437 0.447192 0)
(0.894426 0.447194 0)
(0.894418 0.447196 0)
(0.894413 0.447197 0)
(0.894409 0.447198 0)
(0.894406 0.447199 0)
(0.894404 0.447199 0)
(0.894403 0.4472 0)
(0.894402 0.4472 0)
(0.894401 0.4472 0)
(0.894401 0.4472 0)
(0.8944 0.4472 0)
(0.8944 0.4472 0)
(0.8944 0.4472 0)
(0.8944 0.4472 0)
(0.884014 0.39196 0)
(0.894099 0.381493 0)
(0.908227 0.370188 0)
(0.926488 0.3581 0)
(0.948865 0.345424 0)
(0.975245 0.332556 0)
(1.00539 0.320103 0)
(1.03892 0.308882 0)
(1.07519 0.299889 0)
(1.11334 0.294203 0)
(1.1523 0.29284 0)
(1.19074 0.296629 0)
(1.22727 0.306081 0)
(1.26058 0.321321 0)
(1.28944 0.342061 0)
(1.31272 0.367591 0)
(1.32955 0.39682 0)
(1.3394 0.428429 0)
(1.34204 0.46101 0)
(1.33744 0.493038 0)
(1.32574 0.522842 0)
(1.30735 0.548783 0)
(1.28306 0.569537 0)
(1.254 0.584254 0)
(1.2217 0.592564 0)
(1.18777 0.594573 0)
(1.15372 0.590818 0)
(1.12081 0.582178 0)
(1.09004 0.569697 0)
(1.06217 0.554458 0)
(1.03778 0.537539 0)
(1.01705 0.520014 0)
(0.999828 0.502943 0)
(0.985558 0.487297 0)
(0.973498 0.473847 0)
(0.962907 0.463063 0)
(0.953221 0.455062 0)
(0.944141 0.449637 0)
(0.935619 0.446353 0)
(0.927769 0.444675 0)
(0.920757 0.444079 0)
(0.914713 0.444128 0)
(0.909692 0.444502 0)
(0.905665 0.444993 0)
(0.902538 0.44548 0)
(0.900181 0.445905 0)
(0.898451 0.44625 0)
(0.897209 0.446515 0)
(0.896336 0.446711 0)
(0.895733 0.446853 0)
(0.89532 0.446954 0)
(0.89504 0.447025 0)
(0.89485 0.447075 0)
(0.89472 0.44711 0)
(0.894631 0.447135 0)
(0.894568 0.447153 0)
(0.894522 0.447166 0)
(0.894489 0.447175 0)
(0.894465 0.447182 0)
(0.894447 0.447188 0)
(0.894434 0.447191 0)
(0.894424 0.447194 0)
(0.894417 0.447196 0)
(0.894412 0.447197 0)
(0.894408 0.447198 0)
(0.894405 0.447199 0)
(0.894404 0.447199 0)
(0.894402 0.447199 0)
(0.894402 0.4472 0)
(0.894401 0.4472 0)
(0.894401 0.4472 0)
(0.8944 0.4472 0)
(0.8944 0.4472 0)
(0.8944 0.4472 0)
(0.8944 0.4472 0)
(0.881937 0.397029 0)
(0.889987 0.387666 0)
(0.901736 0.377771 0)
(0.917296 0.367396 0)
(0.936652 0.3567 0)
(0.959687 0.345989 0)
(0.986173 0.335736 0)
(1.01574 0.32659 0)
(1.04782 0.319348 0)
(1.08166 0.314868 0)
(1.1163 0.313974 0)
(1.15058 0.317358 0)
(1.18332 0.325454 0)
(1.21331 0.338381 0)
(1.23939 0.355895 0)
(1.26051 0.377397 0)
(1.27593 0.401991 0)
(1.28514 0.428586 0)
(1.28785 0.455944 0)
(1.28393 0.482664 0)
(1.27355 0.507275 0)
(1.25719 0.528448 0)
(1.23568 0.54518 0)
(1.21015 0.55683 0)
(1.18195 0.563132 0)
(1.15248 0.564206 0)
(1.12299 0.560529 0)
(1.09454 0.552838 0)
(1.06798 0.542 0)
(1.04401 0.528931 0)
(1.02305 0.51457 0)
(1.00523 0.49988 0)
(0.990283 0.485813 0)
(0.977677 0.473216 0)
(0.966755 0.462718 0)
(0.956926 0.454644 0)
(0.947797 0.448986 0)
(0.939213 0.445463 0)
(0.931211 0.443628 0)
(0.923932 0.442987 0)
(0.917524 0.443088 0)
(0.912082 0.44358 0)
(0.907621 0.444219 0)
(0.904084 0.444858 0)
(0.901365 0.445423 0)
(0.899332 0.445886 0)
(0.89785 0.446246 0)
(0.896792 0.446516 0)
(0.896052 0.446712 0)
(0.895542 0.446853 0)
(0.895193 0.446953 0)
(0.894956 0.447023 0)
(0.894795 0.447073 0)
(0.894684 0.447108 0)
(0.894606 0.447133 0)
(0.894551 0.447151 0)
(0.894511 0.447165 0)
(0.894481 0.447174 0)
(0.89446 0.447181 0)
(0.894443 0.447187 0)
(0.894431 0.447191 0)
(0.894422 0.447193 0)
(0.894416 0.447196 0)
(0.894411 0.447197 0)
(0.894407 0.447198 0)
(0.894405 0.447199 0)
(0.894403 0.447199 0)
(0.894402 0.447199 0)
(0.894401 0.4472 0)
(0.894401 0.4472 0)
(0.894401 0.4472 0)
(0.8944 0.4472 0)
(0.8944 0.4472 0)
(0.8944 0.4472 0)
(0.8944 0.4472 0)
(0.880565 0.401794 0)
(0.886702 0.393286 0)
(0.896178 0.384483 0)
(0.909124 0.375456 0)
(0.925545 0.366338 0)
(0.945333 0.357364 0)
(0.968268 0.348899 0)
(0.994005 0.341452 0)
(1.02205 0.335637 0)
(1.05171 0.332132 0)
(1.08215 0.331603 0)
(1.11239 0.334608 0)
(1.14138 0.341496 0)
(1.16802 0.352363 0)
(1.19126 0.367012 0)
(1.2102 0.384956 0)
(1.22415 0.405451 0)
(1.23261 0.427563 0)
(1.23523 0.450198 0)
(1.23192 0.472134 0)
(1.22289 0.492154 0)
(1.20868 0.509221 0)
(1.19007 0.522561 0)
(1.16811 0.531677 0)
(1.14397 0.536368 0)
(1.11883 0.536759 0)
(1.09371 0.533274 0)
(1.06951 0.526532 0)
(1.04697 0.517256 0)
(1.02667 0.506222 0)
(1.00894 0.494264 0)
(0.993771 0.482245 0)
(0.98088 0.471008 0)
(0.969761 0.461264 0)
(0.95987 0.453488 0)
(0.950773 0.447856 0)
(0.942235 0.444251 0)
(0.934216 0.442344 0)
(0.926814 0.441696 0)
(0.920174 0.441869 0)
(0.914414 0.442493 0)
(0.90959 0.443297 0)
(0.905685 0.444109 0)
(0.902622 0.444836 0)
(0.900289 0.445438 0)
(0.898559 0.445912 0)
(0.897306 0.446271 0)
(0.896416 0.446535 0)
(0.895796 0.446726 0)
(0.895369 0.446861 0)
(0.895078 0.446957 0)
(0.89488 0.447025 0)
(0.894744 0.447073 0)
(0.894649 0.447107 0)
(0.894583 0.447132 0)
(0.894535 0.447151 0)
(0.8945 0.447164 0)
(0.894474 0.447174 0)
(0.894454 0.447181 0)
(0.89444 0.447187 0)
(0.894429 0.447191 0)
(0.89442 0.447193 0)
(0.894414 0.447196 0)
(0.89441 0.447197 0)
(0.894407 0.447198 0)
(0.894405 0.447199 0)
(0.894403 0.447199 0)
(0.894402 0.447199 0)
(0.894401 0.4472 0)
(0.894401 0.4472 0)
(0.8944 0.4472 0)
(0.8944 0.4472 0)
(0.8944 0.4472 0)
(0.8944 0.4472 0)
(0.8944 0.4472 0)
(0.879916 0.406357 0)
(0.88431 0.398506 0)
(0.891659 0.39052 0)
(0.902136 0.382511 0)
(0.915766 0.374598 0)
(0.932458 0.366964 0)
(0.952007 0.359898 0)
(0.9741 0.353782 0)
(0.998287 0.349084 0)
(1.02397 0.346334 0)
(1.05042 0.346053 0)
(1.07678 0.348673 0)
(1.10213 0.354464 0)
(1.1255 0.363504 0)
(1.14596 0.375637 0)
(1.16274 0.390455 0)
(1.1752 0.407332 0)
(1.18281 0.425464 0)
(1.18528 0.443911 0)
(1.18259 0.46166 0)
(1.17499 0.477741 0)
(1.16298 0.491349 0)
(1.14728 0.501873 0)
(1.1288 0.508917 0)
(1.10854 0.512336 0)
(1.08747 0.512262 0)
(1.06644 0.509066 0)
(1.0462 0.503271 0)
(1.02738 0.495481 0)
(1.01046 0.486369 0)
(0.995627 0.476676 0)
(0.982823 0.467174 0)
(0.971729 0.458587 0)
(0.961907 0.451476 0)
(0.952943 0.446156 0)
(0.944559 0.442663 0)
(0.936652 0.440795 0)
(0.929268 0.440199 0)
(0.922532 0.440473 0)
(0.916574 0.441247 0)
(0.911481 0.442232 0)
(0.907273 0.443234 0)
(0.903906 0.44414 0)
(0.901292 0.444902 0)
(0.899319 0.445509 0)
(0.897866 0.445973 0)
(0.89682 0.446319 0)
(0.896081 0.44657 0)
(0.895568 0.446749 0)
(0.895215 0.446876 0)
(0.894975 0.446967 0)
(0.89481 0.447031 0)
(0.894697 0.447076 0)
(0.894617 0.447109 0)
(0.894561 0.447133 0)
(0.89452 0.447151 0)
(0.894489 0.447164 0)
(0.894466 0.447174 0)
(0.894449 0.447181 0)
(0.894436 0.447187 0)
(0.894426 0.447191 0)
(0.894418 0.447193 0)
(0.894413 0.447196 0)
(0.894409 0.447197 0)
(0.894406 0.447198 0)
(0.894404 0.447199 0)
(0.894403 0.447199 0)
(0.894402 0.447199 0)
(0.894401 0.4472 0)
(0.894401 0.4472 0)
(0.8944 0.4472 0)
(0.8944 0.4472 0)
(0.8944 0.4472 0)
(0.8944 0.4472 0)
(0.8944 0.4472 0)
(0.87995 0.410789 0)
(0.882821 0.40347 0)
(0.888245 0.396087 0)
(0.896438 0.388804 0)
(0.907461 0.381762 0)
(0.921249 0.375116 0)
(0.937622 0.369083 0)
(0.956295 0.363952 0)
(0.976869 0.360081 0)
(0.998822 0.357868 0)
(1.02152 0.357704 0)
(1.04422 0.359912 0)
(1.06611 0.364703 0)
(1.08636 0.372134 0)
(1.10418 0.382061 0)
(1.11887 0.394136 0)
(1.12983 0.407838 0)
(1.1366 0.422495 0)
(1.13898 0.437324 0)
(1.13697 0.451504 0)
(1.13082 0.464281 0)
(1.12097 0.47502 0)
(1.10805 0.483232 0)
(1.09284 0.488604 0)
(1.07618 0.491047 0)
(1.05884 0.4907 0)
(1.04154 0.487883 0)
(1.0249 0.483033 0)
(1.00945 0.476666 0)
(0.995525 0.469381 0)
(0.983239 0.461838 0)
(0.972462 0.454704 0)
(0.962895 0.448567 0)
(0.954193 0.443832 0)
(0.946076 0.440659 0)
(0.938403 0.438969 0)
(0.931172 0.438504 0)
(0.924479 0.438917 0)
(0.918453 0.43986 0)
(0.913201 0.441039 0)
(0.908773 0.442242 0)
(0.90516 0.443343 0)
(0.902302 0.444279 0)
(0.900104 0.445034 0)
(0.898458 0.44562 0)
(0.897254 0.446059 0)
(0.896393 0.446381 0)
(0.895787 0.446614 0)
(0.895368 0.446779 0)
(0.89508 0.446896 0)
(0.894883 0.446979 0)
(0.894748 0.447038 0)
(0.894655 0.447081 0)
(0.894589 0.447112 0)
(0.894541 0.447135 0)
(0.894505 0.447152 0)
(0.894479 0.447165 0)
(0.894459 0.447174 0)
(0.894444 0.447182 0)
(0.894432 0.447187 0)
(0.894423 0.447191 0)
(0.894416 0.447194 0)
(0.894412 0.447196 0)
(0.894408 0.447197 0)
(0.894405 0.447198 0)
(0.894404 0.447199 0)
(0.894402 0.447199 0)
(0.894402 0.447199 0)
(0.894401 0.4472 0)
(0.894401 0.4472 0)
(0.8944 0.4472 0)
(0.8944 0.4472 0)
(0.8944 0.4472 0)
(0.8944 0.4472 0)
(0.8944 0.4472 0)
(0.88058 0.415129 0)
(0.88219 0.408281 0)
(0.885929 0.401359 0)
(0.892066 0.394583 0)
(0.900708 0.388129 0)
(0.91182 0.382154 0)
(0.925259 0.376827 0)
(0.940774 0.372372 0)
(0.958013 0.369057 0)
(0.976518 0.367167 0)
(0.995742 0.366986 0)
(1.01505 0.368753 0)
(1.03373 0.372623 0)
(1.05109 0.378623 0)
(1.06643 0.386614 0)
(1.07914 0.396303 0)
(1.08869 0.407268 0)
(1.09472 0.418955 0)
(1.09707 0.430721 0)
(1.09576 0.44192 0)
(1.09101 0.451965 0)
(1.08318 0.460352 0)
(1.07282 0.466693 0)
(1.0606 0.470751 0)
(1.04717 0.472487 0)
(1.03317 0.47204 0)
(1.0192 0.469683 0)
(1.00575 0.465786 0)
(0.993253 0.460803 0)
(0.981925 0.455267 0)
(0.971797 0.449756 0)
(0.962714 0.444823 0)
(0.954428 0.440905 0)
(0.9467 0.438246 0)
(0.939375 0.436875 0)
(0.932422 0.436629 0)
(0.925907 0.43723 0)
(0.919945 0.438362 0)
(0.914653 0.439742 0)
(0.910105 0.441154 0)
(0.906322 0.442458 0)
(0.90327 0.443579 0)
(0.90088 0.444495 0)
(0.899058 0.445213 0)
(0.897705 0.445758 0)
(0.896721 0.446161 0)
(0.896021 0.446454 0)
(0.895532 0.446664 0)
(0.895194 0.446813 0)
(0.894962 0.446918 0)
(0.894803 0.446994 0)
(0.894694 0.447048 0)
(0.894617 0.447087 0)
(0.894562 0.447116 0)
(0.894522 0.447138 0)
(0.894492 0.447154 0)
(0.89447 0.447166 0)
(0.894452 0.447175 0)
(0.894439 0.447182 0)
(0.894428 0.447187 0)
(0.894421 0.447191 0)
(0.894415 0.447194 0)
(0.89441 0.447196 0)
(0.894407 0.447197 0)
(0.894405 0.447198 0)
(0.894403 0.447199 0)
(0.894402 0.447199 0)
(0.894401 0.4472 0)
(0.894401 0.4472 0)
(0.894401 0.4472 0)
(0.8944 0.4472 0)
(0.8944 0.4472 0)
(0.8944 0.4472 0)
(0.8944 0.4472 0)
(0.8944 0.4472 0)
(0.881679 0.419367 0)
(0.882313 0.412996 0)
(0.884652 0.406476 0)
(0.888999 0.400068 0)
(0.895512 0.393991 0)
(0.90421 0.388424 0)
(0.914986 0.383529 0)
(0.927628 0.379476 0)
(0.94183 0.376461 0)
(0.957202 0.374693 0)
(0.973268 0.374372 0)
(0.989479 0.375664 0)
(1.00524 0.37867 0)
(1.01995 0.383386 0)
(1.03303 0.389686 0)
(1.04392 0.397333 0)
(1.05222 0.405975 0)
(1.05761 0.41516 0)
(1.05998 0.424378 0)
(1.05933 0.433127 0)
(1.05585 0.440947 0)
(1.04985 0.447437 0)
(1.04179 0.452295 0)
(1.03221 0.455362 0)
(1.02162 0.456633 0)
(1.01054 0.456242 0)
(0.99945 0.454424 0)
(0.988766 0.451501 0)
(0.978779 0.447873 0)
(0.969623 0.444011 0)
(0.961271 0.440399 0)
(0.953578 0.43746 0)
(0.946368 0.43548 0)
(0.939508 0.434557 0)
(0.932949 0.434616 0)
(0.926734 0.43545 0)
(0.920965 0.436792 0)
(0.915754 0.438381 0)
(0.911192 0.440001 0)
(0.907324 0.441507 0)
(0.904145 0.442817 0)
(0.901609 0.443899 0)
(0.899641 0.444758 0)
(0.898154 0.445417 0)
(0.897057 0.44591 0)
(0.896265 0.446272 0)
(0.895704 0.446532 0)
(0.895314 0.446717 0)
(0.895045 0.446849 0)
(0.894861 0.446943 0)
(0.894734 0.44701 0)
(0.894646 0.447059 0)
(0.894584 0.447095 0)
(0.894539 0.447121 0)
(0.894505 0.447142 0)
(0.89448 0.447157 0)
(0.894461 0.447168 0)
(0.894446 0.447177 0)
(0.894434 0.447183 0)
(0.894425 0.447188 0)
(0.894418 0.447192 0)
(0.894413 0.447194 0)
(0.894409 0.447196 0)
(0.894406 0.447197 0)
(0.894404 0.447198 0)
(0.894403 0.447199 0)
(0.894402 0.447199 0)
(0.894401 0.4472 0)
(0.894401 0.4472 0)
(0.894401 0.4472 0)
(0.8944 0.4472 0)
(0.8944 0.4472 0)
(0.8944 0.4472 0)
(0.8944 0.4472 0)
(0.8944 0.4472 0)
(0.883083 0.42344 0)
(0.88303 0.417597 0)
(0.884273 0.411496 0)
(0.887134 0.405416 0)
(0.891815 0.399599 0)
(0.898384 0.394258 0)
(0.906786 0.389571 0)
(0.916857 0.38569 0)
(0.928341 0.382762 0)
(0.940903 0.380938 0)
(0.954137 0.380362 0)
(0.967577 0.381141 0)
(0.98072 0.383325 0)
(0.993058 0.38689 0)
(1.0041 0.391727 0)
(1.01339 0.397638 0)
(1.02058 0.404331 0)
(1.02543 0.411439 0)
(1.02782 0.418567 0)
(1.02775 0.425328 0)
(1.02538 0.43136 0)
(1.02098 0.436352 0)
(1.01492 0.440081 0)
(1.00761 0.442447 0)
(0.999452 0.443473 0)
(0.990863 0.443282 0)
(0.982224 0.442081 0)
(0.973846 0.440152 0)
(0.965925 0.437849 0)
(0.958525 0.435566 0)
(0.951602 0.433679 0)
(0.945048 0.432473 0)
(0.938765 0.432095 0)
(0.932709 0.432531 0)
(0.926907 0.43364 0)
(0.921445 0.435207 0)
(0.916432 0.437002 0)
(0.911965 0.438824 0)
(0.908107 0.440525 0)
(0.904876 0.442018 0)
(0.90225 0.443265 0)
(0.900175 0.444267 0)
(0.898579 0.445045 0)
(0.897383 0.445634 0)
(0.896507 0.446068 0)
(0.895879 0.446384 0)
(0.895436 0.44661 0)
(0.895129 0.446771 0)
(0.894918 0.446886 0)
(0.894774 0.446968 0)
(0.894675 0.447028 0)
(0.894605 0.447071 0)
(0.894555 0.447103 0)
(0.894518 0.447127 0)
(0.894491 0.447145 0)
(0.894469 0.447159 0)
(0.894453 0.44717 0)
(0.89444 0.447178 0)
(0.89443 0.447184 0)
(0.894422 0.447189 0)
(0.894416 0.447192 0)
(0.894411 0.447195 0)
(0.894408 0.447196 0)
(0.894405 0.447198 0)
(0.894404 0.447198 0)
(0.894402 0.447199 0)
(0.894402 0.447199 0)
(0.894401 0.4472 0)
(0.894401 0.4472 0)
(0.8944 0.4472 0)
(0.8944 0.4472 0)
(0.8944 0.4472 0)
(0.8944 0.4472 0)
(0.8944 0.4472 0)
(0.8944 0.4472 0)
(0.884634 0.427265 0)
(0.884151 0.422026 0)
(0.884606 0.416412 0)
(0.886306 0.410683 0)
(0.889478 0.405109 0)
(0.894236 0.399916 0)
(0.900575 0.395296 0)
(0.908385 0.39142 0)
(0.917467 0.388419 0)
(0.927544 0.386407 0)
(0.938276 0.385477 0)
(0.949271 0.385699 0)
(0.960106 0.387098 0)
(0.970355 0.389633 0)
(0.979603 0.393204 0)
(0.987485 0.397642 0)
(0.993704 0.402708 0)
(0.998059 0.408115 0)
(1.00045 0.413558 0)
(1.00087 0.418736 0)
(0.999458 0.423364 0)
(0.996412 0.427211 0)
(0.992021 0.430122 0)
(0.9866 0.432045 0)
(0.980473 0.433017 0)
(0.973954 0.433149 0)
(0.967329 0.432625 0)
(0.960817 0.431692 0)
(0.954544 0.43065 0)
(0.948536 0.429803 0)
(0.942756 0.429407 0)
(0.937149 0.429621 0)
(0.931688 0.430474 0)
(0.926397 0.431881 0)
(0.921347 0.433678 0)
(0.916639 0.435669 0)
(0.912371 0.437673 0)
(0.908616 0.439551 0)
(0.905413 0.441213 0)
(0.902762 0.442617 0)
(0.900628 0.443757 0)
(0.898958 0.444653 0)
(0.897685 0.445338 0)
(0.896738 0.445849 0)
(0.896049 0.446224 0)
(0.895558 0.446494 0)
(0.895214 0.446687 0)
(0.894977 0.446825 0)
(0.894813 0.446923 0)
(0.894702 0.446993 0)
(0.894624 0.447045 0)
(0.894569 0.447083 0)
(0.89453 0.447112 0)
(0.8945 0.447133 0)
(0.894477 0.44715 0)
(0.894459 0.447162 0)
(0.894445 0.447172 0)
(0.894434 0.44718 0)
(0.894426 0.447186 0)
(0.894419 0.44719 0)
(0.894414 0.447193 0)
(0.89441 0.447195 0)
(0.894407 0.447197 0)
(0.894405 0.447198 0)
(0.894403 0.447198 0)
(0.894402 0.447199 0)
(0.894401 0.447199 0)
(0.894401 0.4472 0)
(0.894401 0.4472 0)
(0.8944 0.4472 0)
(0.8944 0.4472 0)
(0.8944 0.4472 0)
(0.8944 0.4472 0)
(0.8944 0.4472 0)
(0.8944 0.4472 0)
(0.886192 0.430755 0)
(0.88549 0.42618 0)
(0.885433 0.421136 0)
(0.886294 0.415848 0)
(0.88829 0.41057 0)
(0.891566 0.405538 0)
(0.89617 0.400959 0)
(0.902046 0.397012 0)
(0.909053 0.393839 0)
(0.916971 0.391543 0)
(0.925519 0.390199 0)
(0.934378 0.38985 0)
(0.943199 0.390501 0)
(0.951626 0.392111 0)
(0.959314 0.394587 0)
(0.965961 0.397782 0)
(0.971326 0.401503 0)
(0.975233 0.405533 0)
(0.97759 0.409635 0)
(0.978398 0.413574 0)
(0.977751 0.417131 0)
(0.975808 0.420139 0)
(0.972776 0.422503 0)
(0.968888 0.4242 0)
(0.964394 0.425272 0)
(0.959534 0.425821 0)
(0.954511 0.426003 0)
(0.94947 0.426025 0)
(0.944485 0.426118 0)
(0.939573 0.426492 0)
(0.934722 0.427292 0)
(0.92993 0.428568 0)
(0.925225 0.430273 0)
(0.920669 0.432286 0)
(0.916355 0.434451 0)
(0.912377 0.436611 0)
(0.908815 0.438637 0)
(0.90572 0.440443 0)
(0.903109 0.441983 0)
(0.900971 0.443249 0)
(0.899267 0.444255 0)
(0.897944 0.445034 0)
(0.896944 0.445621 0)
(0.896205 0.446056 0)
(0.895672 0.446371 0)
(0.895294 0.446598 0)
(0.895031 0.446759 0)
(0.89485 0.446875 0)
(0.894726 0.446958 0)
(0.894641 0.447018 0)
(0.894581 0.447062 0)
(0.894539 0.447095 0)
(0.894507 0.44712 0)
(0.894483 0.447139 0)
(0.894465 0.447154 0)
(0.89445 0.447166 0)
(0.894438 0.447175 0)
(0.894429 0.447182 0)
(0.894422 0.447187 0)
(0.894416 0.447191 0)
(0.894412 0.447194 0)
(0.894408 0.447196 0)
(0.894406 0.447197 0)
(0.894404 0.447198 0)
(0.894403 0.447199 0)
(0.894402 0.447199 0)
(0.894401 0.447199 0)
(0.894401 0.4472 0)
(0.8944 0.4472 0)
(0.8944 0.4472 0)
(0.8944 0.4472 0)
(0.8944 0.4472 0)
(0.8944 0.4472 0)
(0.8944 0.4472 0)
(0.8944 0.4472 0)
(0.887659 0.433859 0)
(0.886888 0.429954 0)
(0.88654 0.425553 0)
(0.886836 0.420807 0)
(0.887975 0.415924 0)
(0.89011 0.411136 0)
(0.893319 0.406656 0)
(0.897595 0.402664 0)
(0.902851 0.399313 0)
(0.908927 0.396718 0)
(0.915608 0.39495 0)
(0.922631 0.394045 0)
(0.929712 0.394003 0)
(0.936561 0.394789 0)
(0.942896 0.396321 0)
(0.948466 0.398475 0)
(0.953066 0.4011 0)
(0.956549 0.404028 0)
(0.958834 0.407075 0)
(0.959916 0.410059 0)
(0.959857 0.412825 0)
(0.958767 0.415255 0)
(0.956795 0.417293 0)
(0.954108 0.418931 0)
(0.950888 0.420208 0)
(0.947309 0.421211 0)
(0.943514 0.422069 0)
(0.939597 0.422938 0)
(0.935609 0.423973 0)
(0.931572 0.425293 0)
(0.927503 0.426949 0)
(0.923439 0.428919 0)
(0.919441 0.431117 0)
(0.915591 0.43342 0)
(0.911979 0.435697 0)
(0.908686 0.437834 0)
(0.905773 0.439749 0)
(0.903269 0.441399 0)
(0.901179 0.442769 0)
(0.899483 0.443871 0)
(0.898144 0.444734 0)
(0.897113 0.445393 0)
(0.896339 0.445885 0)
(0.895772 0.446246 0)
(0.895366 0.446506 0)
(0.89508 0.446693 0)
(0.894883 0.446826 0)
(0.894747 0.446921 0)
(0.894655 0.44699 0)
(0.894591 0.447041 0)
(0.894546 0.447079 0)
(0.894513 0.447107 0)
(0.894488 0.447129 0)
(0.894469 0.447146 0)
(0.894454 0.447159 0)
(0.894442 0.447169 0)
(0.894433 0.447177 0)
(0.894425 0.447183 0)
(0.894419 0.447188 0)
(0.894414 0.447191 0)
(0.89441 0.447194 0)
(0.894407 0.447196 0)
(0.894405 0.447197 0)
(0.894403 0.447198 0)
(0.894402 0.447199 0)
(0.894402 0.447199 0)
(0.894401 0.4472 0)
(0.894401 0.4472 0)
(0.8944 0.4472 0)
(0.8944 0.4472 0)
(0.8944 0.4472 0)
(0.8944 0.4472 0)
(0.8944 0.4472 0)
(0.8944 0.4472 0)
(0.8944 0.4472 0)
(0.888968 0.436548 0)
(0.888228 0.433292 0)
(0.887751 0.429546 0)
(0.887708 0.425413 0)
(0.888268 0.421041 0)
(0.88957 0.416621 0)
(0.89171 0.412351 0)
(0.894718 0.408414 0)
(0.898549 0.404966 0)
(0.903096 0.402133 0)
(0.908205 0.399999 0)
(0.913672 0.398606 0)
(0.919269 0.39796 0)
(0.924764 0.398032 0)
(0.929927 0.398765 0)
(0.934551 0.400064 0)
(0.938465 0.401811 0)
(0.941542 0.403869 0)
(0.943712 0.4061 0)
(0.944957 0.408371 0)
(0.945309 0.41057 0)
(0.944839 0.412621 0)
(0.94365 0.414486 0)
(0.941861 0.41616 0)
(0.9396 0.417678 0)
(0.936983 0.419107 0)
(0.934109 0.420542 0)
(0.931045 0.422081 0)
(0.927833 0.423806 0)
(0.92451 0.425761 0)
(0.921117 0.427933 0)
(0.917716 0.430261 0)
(0.91438 0.432649 0)
(0.911192 0.434991 0)
(0.908232 0.437191 0)
(0.905562 0.439175 0)
(0.903223 0.440898 0)
(0.901234 0.442345 0)
(0.89959 0.443524 0)
(0.898267 0.444457 0)
(0.897231 0.445178 0)
(0.896441 0.445721 0)
(0.895853 0.446123 0)
(0.895425 0.446416 0)
(0.895122 0.446627 0)
(0.89491 0.446779 0)
(0.894764 0.446887 0)
(0.894665 0.446965 0)
(0.894597 0.447021 0)
(0.89455 0.447062 0)
(0.894516 0.447094 0)
(0.894491 0.447118 0)
(0.894472 0.447137 0)
(0.894457 0.447152 0)
(0.894445 0.447164 0)
(0.894435 0.447173 0)
(0.894427 0.44718 0)
(0.894421 0.447185 0)
(0.894416 0.44719 0)
(0.894412 0.447193 0)
(0.894408 0.447195 0)
(0.894406 0.447196 0)
(0.894404 0.447198 0)
(0.894403 0.447198 0)
(0.894402 0.447199 0)
(0.894401 0.447199 0)
(0.894401 0.4472 0)
(0.894401 0.4472 0)
(0.8944 0.4472 0)
(0.8944 0.4472 0)
(0.8944 0.4472 0)
(0.8944 0.4472 0)
(0.8944 0.4472 0)
(0.8944 0.4472 0)
(0.8944 0.4472 0)
(0.890094 0.43882 0)
(0.889433 0.436163 0)
(0.888935 0.433055 0)
(0.888718 0.429556 0)
(0.888919 0.425765 0)
(0.889657 0.421822 0)
(0.891023 0.417895 0)
(0.893064 0.414153 0)
(0.895778 0.410747 0)
(0.899102 0.407805 0)
(0.902922 0.405423 0)
(0.907094 0.40366 0)
(0.911446 0.402539 0)
(0.915792 0.402044 0)
(0.919946 0.402137 0)
(0.923739 0.402753 0)
(0.927031 0.403803 0)
(0.929711 0.405189 0)
(0.931712 0.406801 0)
(0.93301 0.408547 0)
(0.933614 0.410348 0)
(0.933564 0.412151 0)
(0.932922 0.413925 0)
(0.931773 0.415666 0)
(0.930206 0.417397 0)
(0.928298 0.419159 0)
(0.926111 0.421007 0)
(0.9237 0.422987 0)
(0.921109 0.425124 0)
(0.918387 0.427408 0)