/*--------------------------------*- C++ -*----------------------------------*\
  =========                 |
  \\      /  F ield         | OpenFOAM: The Open Source CFD Toolbox
   \\    /   O peration     | Website:  https://openfoam.org
    \\  /    A nd           | Version:  6
     \\/     M anipulation  |
\*---------------------------------------------------------------------------*/
FoamFile
{
    version     2.0;
    format      ascii;
    class       volScalarField;
    location    "2.17";
    object      p;
}
// * * * * * * * * * * * * * * * * * * * * * * * * * * * * * * * * * * * * * //

dimensions      [1 -1 -2 0 0 0 0];

internalField   nonuniform List<scalar> 
5625
(
1.01661
0.997004
0.972342
0.942673
0.908335
0.870107
0.82925
0.78741
0.746512
0.708606
0.675638
0.649114
0.629895
0.618357
0.614684
0.618975
0.631197
0.651082
0.67809
0.711352
0.749533
0.790736
0.832683
0.873216
0.910779
0.944528
0.974031
0.998908
1.01868
1.03289
1.04142
1.04468
1.04362
1.03951
1.0337
1.02735
1.02128
1.01597
1.01162
1.00824
1.00571
1.00389
1.00262
1.00174
1.00116
1.00077
1.00052
1.00035
1.00024
1.00017
1.00012
1.00008
1.00006
1.00004
1.00003
1.00002
1.00001
1.00001
1.00001
1
1
1
1
1
1
1
1
1
1
1
1
1
1
1
1
1.02327
1.00637
0.984905
0.958964
0.928843
0.895189
0.859062
0.82189
0.785394
0.751419
0.721694
0.697572
0.679919
0.669238
0.66581
0.669751
0.680995
0.699223
0.723826
0.753892
0.788113
0.824749
0.861816
0.897508
0.930563
0.960292
0.986261
1.00801
1.025
1.03676
1.04324
1.04492
1.04276
1.03803
1.032
1.02569
1.01983
1.01479
1.01071
1.00757
1.00524
1.00357
1.00241
1.00161
1.00108
1.00073
1.00049
1.00034
1.00023
1.00016
1.00012
1.00008
1.00006
1.00004
1.00003
1.00002
1.00001
1.00001
1.00001
1
1
1
1
1
1
1
1
1
1
1
1
1
1
1
1
1.02944
1.0152
0.996856
0.974537
0.948525
0.919372
0.887956
0.855498
0.823491
0.793534
0.767127
0.745497
0.72953
0.719801
0.71664
0.720171
0.730303
0.746681
0.768674
0.795374
0.825542
0.857612
0.889884
0.92088
0.949596
0.975444
0.997964
1.01662
1.03081
1.04012
1.04456
1.04469
1.04153
1.03628
1.0301
1.02391
1.0183
1.01356
1.00978
1.00689
1.00477
1.00325
1.0022
1.00148
1.001
1.00068
1.00046
1.00032
1.00023
1.00016
1.00011
1.00008
1.00006
1.00004
1.00003
1.00002
1.00001
1.00001
1.00001
1
1
1
1
1
1
1
1
1
1
1
1
1
1
1
1
1.03495
1.0233
1.00794
0.989059
0.966955
0.942095
0.91522
0.887358
0.859756
0.833764
0.810672
0.791604
0.777427
0.768728
0.765851
0.76893
0.77787
0.792296
0.811577
0.834858
0.861007
0.888643
0.916334
0.942892
0.967517
0.989681
1.00887
1.02449
1.03591
1.0428
1.04527
1.04396
1.0399
1.03424
1.02802
1.02202
1.01671
1.01231
1.00884
1.00621
1.00429
1.00293
1.00199
1.00135
1.00091
1.00063
1.00043
1.00031
1.00022
1.00015
1.00011
1.00008
1.00006
1.00004
1.00003
1.00002
1.00001
1.00001
1.00001
1
1
1
1
1
1
1
1
1
1
1
1
1
1
1
1
1.03963
1.03047
1.01795
1.00229
0.983805
0.962934
0.94031
0.916773
0.89335
0.871157
0.851305
0.834809
0.822468
0.814838
0.812258
0.814875
0.8226
0.835057
0.851649
0.871586
0.893873
0.917323
0.94075
0.963207
0.98404
1.00274
1.01875
1.0314
1.04013
1.04467
1.04528
1.04268
1.03788
1.03195
1.0258
1.02006
1.0151
1.01106
1.0079
1.00554
1.00383
1.00262
1.00178
1.00122
1.00083
1.00058
1.0004
1.00029
1.00021
1.00015
1.00011
1.00008
1.00006
1.00004
1.00003
1.00002
1.00001
1.00001
1.00001
1
1
1
1
1
1
1
1
1
1
1
1
1
1
1
1
1.04333
1.03656
1.0267
1.01403
0.998868
0.981633
0.962871
0.943284
0.923711
0.905075
0.888314
0.874311
0.863769
0.857198
0.854929
0.857113
0.863655
0.874206
0.888223
0.905012
0.923705
0.943304
0.962849
0.981584
0.998945
1.01441
1.02737
1.03716
1.04329
1.04562
1.04455
1.04085
1.0355
1.02945
1.02347
1.01807
1.01349
1.00982
1.007
1.0049
1.00338
1.00232
1.00159
1.00109
1.00075
1.00053
1.00037
1.00027
1.00019
1.00014
1.0001
1.00007
1.00005
1.00004
1.00003
1.00002
1.00001
1.00001
1.00001
1
1
1
1
1
1
1
1
1
1
1
1
1
1
1
1
1.04593
1.04142
1.03407
1.02416
1.01201
0.998045
0.982737
0.966685
0.95058
0.935182
0.921275
0.909595
0.900752
0.895204
0.893259
0.895052
0.90049
0.909258
0.920896
0.93481
0.950253
0.966394
0.982466
0.997858
1.01205
1.0245
1.03455
1.0416
1.04527
1.0456
1.04308
1.03851
1.03281
1.02679
1.02109
1.01608
1.01192
1.00863
1.00613
1.00428
1.00296
1.00204
1.0014
1.00097
1.00068
1.00048
1.00034
1.00025
1.00018
1.00013
1.0001
1.00007
1.00005
1.00004
1.00003
1.00002
1.00001
1.00001
1.00001
1
1
1
1
1
1
1
1
1
1
1
1
1
1
1
1
1.04734
1.04493
1.03993
1.03256
1.02316
1.01211
0.999866
0.986933
0.973897
0.961381
0.950025
0.940445
0.933162
0.928573
0.92695
0.928403
0.932841
0.940004
0.949508
0.960859
0.973425
0.986517
0.999521
1.01192
1.02321
1.03282
1.04012
1.04459
1.04601
1.04459
1.0409
1.03572
1.02987
1.02404
1.0187
1.01413
1.0104
1.00749
1.0053
1.0037
1.00257
1.00177
1.00123
1.00085
1.0006
1.00043
1.00031
1.00023
1.00017
1.00012
1.00009
1.00007
1.00005
1.00003
1.00002
1.00002
1.00001
1.00001
1
1
1
1
1
1
1
1
1
1
1
1
1
1
1
1
1
1.0475
1.04703
1.04419
1.03917
1.03226
1.02383
1.01429
1.00409
0.993729
0.983726
0.974616
0.966904
0.961013
0.957287
0.955964
0.957126
0.960685
0.966439
0.974084
0.983198
0.993249
1.00368
1.01397
1.02367
1.03228
1.03923
1.04394
1.04606
1.04552
1.04266
1.03809
1.03257
1.02677
1.02125
1.01636
1.01226
1.00897
1.00643
1.00454
1.00317
1.0022
1.00153
1.00106
1.00075
1.00053
1.00039
1.00028
1.00021
1.00015
1.00011
1.00008
1.00006
1.00004
1.00003
1.00002
1.00002
1.00001
1.00001
1
1
1
1
1
1
1
1
1
1
1
1
1
1
1
1
1
1.04643
1.04766
1.04679
1.04391
1.03927
1.03319
1.02605
1.01825
1.01022
1.0024
0.995237
0.989142
0.984468
0.981507
0.980456
0.981371
0.984177
0.988724
0.994768
1.00195
1.00981
1.0179
1.02579
1.03304
1.03916
1.04362
1.04597
1.04601
1.04385
1.0399
1.03479
1.02918
1.02362
1.01852
1.01412
1.01049
1.00764
1.00546
1.00385
1.00269
1.00187
1.0013
1.00092
1.00065
1.00047
1.00034
1.00025
1.00019
1.00014
1.0001
1.00008
1.00006
1.00004
1.00003
1.00002
1.00001
1.00001
1.00001
1
1
1
1
1
1
1
1
1
1
1
1
1
1
1
1
1
1.0442
1.04684
1.0477
1.04675
1.04417
1.04021
1.03521
1.02952
1.02353
1.0176
1.01212
1.00742
1.0038
1.0015
1.00068
1.00138
1.00355
1.00708
1.01175
1.01725
1.0232
1.02921
1.03493
1.03993
1.04375
1.04595
1.04623
1.04455
1.04115
1.0365
1.03116
1.02568
1.0205
1.01589
1.01201
1.00887
1.00642
1.00457
1.00322
1.00226
1.00158
1.00111
1.00078
1.00056
1.00041
1.0003
1.00023
1.00017
1.00013
1.00009
1.00007
1.00005
1.00004
1.00003
1.00002
1.00001
1.00001
1.00001
1
1
1
1
1
1
1
1
1
1
1
1
1
1
1
1
1
1.04095
1.04468
1.04697
1.0477
1.04695
1.0449
1.04181
1.038
1.03379
1.02951
1.02549
1.02199
1.01928
1.01756
1.01694
1.01745
1.01908
1.02173
1.0252
1.02921
1.03347
1.03763
1.04137
1.04431
1.04606
1.04629
1.04486
1.04187
1.03765
1.03264
1.02735
1.0222
1.0175
1.01343
1.01007
1.00739
1.00533
1.00379
1.00267
1.00187
1.00132
1.00093
1.00067
1.00048
1.00036
1.00027
1.0002
1.00015
1.00011
1.00009
1.00006
1.00005
1.00003
1.00002
1.00002
1.00001
1.00001
1.00001
1
1
1
1
1
1
1
1
1
1
1
1
1
1
1
1
1
1.03693
1.04136
1.04473
1.04684
1.04765
1.04727
1.04588
1.04374
1.04111
1.03828
1.03552
1.03307
1.03115
1.02991
1.02945
1.02981
1.03097
1.03284
1.03524
1.03794
1.04067
1.04317
1.04514
1.04624
1.0462
1.04482
1.0421
1.03824
1.03359
1.02856
1.02354
1.01885
1.01469
1.01118
1.00832
1.00607
1.00436
1.0031
1.00218
1.00154
1.00109
1.00078
1.00056
1.00041
1.00031
1.00023
1.00018
1.00013
1.0001
1.00008
1.00006
1.00004
1.00003
1.00002
1.00001
1.00001
1.00001
1
1
1
1
1
1
1
1
1
1
1
1
1
1
1
1
1
1
1.03243
1.03718
1.04123
1.04435
1.04641
1.04743
1.0475
1.04681
1.04557
1.04401
1.04236
1.04083
1.03958
1.03875
1.03843
1.03865
1.03939
1.04056
1.04199
1.04351
1.04489
1.04592
1.04633
1.04589
1.04441
1.04185
1.03829
1.03398
1.02926
1.02446
1.01987
1.01572
1.01213
1.00916
1.00677
1.00492
1.00353
1.0025
1.00177
1.00125
1.00089
1.00064
1.00047
1.00035
1.00026
1.0002
1.00015
1.00012
1.00009
1.00007
1.00005
1.00004
1.00003
1.00002
1.00001
1.00001
1.00001
1
1
1
1
1
1
1
1
1
1
1
1
1
1
1
1
1
1
1.02778
1.03248
1.03683
1.04056
1.04351
1.0456
1.04685
1.04737
1.04731
1.04684
1.04614
1.04539
1.04473
1.04425
1.04404
1.04412
1.04447
1.045
1.04558
1.04607
1.0463
1.04608
1.04523
1.04359
1.0411
1.03778
1.0338
1.02942
1.02489
1.0205
1.01645
1.01288
1.00986
1.00739
1.00543
1.00393
1.00281
1.002
1.00141
1.00101
1.00072
1.00053
1.00039
1.0003
1.00023
1.00017
1.00013
1.0001
1.00008
1.00006
1.00004
1.00003
1.00002
1.00002
1.00001
1.00001
1.00001
1
1
1
1
1
1
1
1
1
1
1
1
1
1
1
1
1
1
1.02323
1.02764
1.03194
1.0359
1.03934
1.04213
1.04424
1.04569
1.04656
1.04699
1.04708
1.04698
1.04679
1.04661
1.04648
1.04643
1.04643
1.04641
1.04628
1.04592
1.04522
1.04404
1.04225
1.03981
1.03671
1.03306
1.02903
1.02484
1.02071
1.01685
1.01337
1.01037
1.00788
1.00586
1.00429
1.0031
1.00221
1.00157
1.00112
1.0008
1.00058
1.00043
1.00032
1.00025
1.00019
1.00015
1.00012
1.00009
1.00007
1.00005
1.00004
1.00003
1.00002
1.00001
1.00001
1.00001
1
1
1
1
1
1
1
1
1
1
1
1
1
1
1
1
1
1
1
1.01902
1.02295
1.02695
1.03082
1.03439
1.03752
1.04014
1.04221
1.04375
1.04483
1.04553
1.04593
1.04612
1.04616
1.04609
1.04593
1.04564
1.04519
1.0445
1.04351
1.04214
1.0403
1.03795
1.03508
1.03175
1.0281
1.02428
1.02048
1.01687
1.01357
1.01067
1.00821
1.00619
1.00458
1.00334
1.0024
1.00171
1.00122
1.00088
1.00063
1.00047
1.00035
1.00027
1.00021
1.00016
1.00013
1.0001
1.00008
1.00006
1.00004
1.00003
1.00002
1.00002
1.00001
1.00001
1.00001
1
1
1
1
1
1
1
1
1
1
1
1
1
1
1
1
1
1
1
1.01527
1.01864
1.02218
1.02573
1.02915
1.03231
1.03511
1.03749
1.03942
1.04091
1.04201
1.04276
1.04322
1.04342
1.04339
1.04313
1.04264
1.04189
1.04083
1.03944
1.03767
1.03548
1.03288
1.02991
1.02665
1.02324
1.01982
1.01652
1.01345
1.01072
1.00835
1.00638
1.00478
1.00352
1.00255
1.00183
1.00131
1.00094
1.00067
1.00049
1.00037
1.00028
1.00022
1.00017
1.00013
1.00011
1.00008
1.00007
1.00005
1.00004
1.00003
1.00002
1.00002
1.00001
1.00001
1.00001
1
1
1
1
1
1
1
1
1
1
1
1
1
1
1
1
1
1
1
1.01205
1.01485
1.01785
1.02095
1.02404
1.027
1.02972
1.03214
1.03419
1.03587
1.03718
1.03813
1.03874
1.03903
1.03902
1.03872
1.03811
1.03719
1.03595
1.03436
1.03243
1.03016
1.02757
1.02475
1.02177
1.01875
1.01581
1.01303
1.01052
1.0083
1.00642
1.00486
1.00362
1.00265
1.00192
1.00138
1.00098
1.00071
1.00052
1.00038
1.00029
1.00022
1.00018
1.00014
1.00011
1.00009
1.00007
1.00006
1.00004
1.00003
1.00002
1.00002
1.00001
1.00001
1.00001
1
1
1
1
1
1
1
1
1
1
1
1
1
1
1
1
1
1
1
1
1.00936
1.01162
1.01408
1.01668
1.01934
1.02195
1.02442
1.02668
1.02868
1.03036
1.03171
1.03271
1.03338
1.03371
1.03371
1.03339
1.03275
1.03178
1.0305
1.0289
1.02701
1.02484
1.02246
1.01993
1.01734
1.01477
1.01233
1.01007
1.00805
1.00631
1.00484
1.00364
1.00269
1.00196
1.00141
1.00101
1.00073
1.00053
1.00039
1.00029
1.00022
1.00018
1.00014
1.00011
1.00009
1.00007
1.00006
1.00005
1.00004
1.00003
1.00002
1.00001
1.00001
1.00001
1.00001
1
1
1
1
1
1
1
1
1
1
1
1
1
1
1
1
1
1
1
1
1.00717
1.00894
1.01092
1.01303
1.01523
1.01743
1.01956
1.02155
1.02335
1.02489
1.02616
1.02713
1.02777
1.0281
1.02811
1.0278
1.02718
1.02625
1.02504
1.02355
1.02182
1.01988
1.0178
1.01565
1.01348
1.01138
1.00941
1.00762
1.00604
1.00469
1.00357
1.00267
1.00196
1.00142
1.00102
1.00073
1.00053
1.00038
1.00029
1.00022
1.00017
1.00014
1.00011
1.00009
1.00007
1.00006
1.00005
1.00004
1.00003
1.00002
1.00002
1.00001
1.00001
1.00001
1
1
1
1
1
1
1
1
1
1
1
1
1
1
1
1
1
1
1
1
1
1.00541
1.00679
1.00833
1.01001
1.01176
1.01355
1.01531
1.01698
1.01852
1.01986
1.02097
1.02183
1.02241
1.02271
1.02271
1.02243
1.02187
1.02104
1.01995
1.01865
1.01715
1.0155
1.01376
1.01199
1.01024
1.00857
1.00703
1.00564
1.00443
1.00341
1.00257
1.00191
1.00139
1.001
1.00072
1.00052
1.00037
1.00028
1.00021
1.00016
1.00013
1.00011
1.00009
1.00007
1.00006
1.00005
1.00004
1.00003
1.00002
1.00002
1.00001
1.00001
1.00001
1.00001
1
1
1
1
1
1
1
1
1
1
1
1
1
1
1
1
1
1
1
1
1
1.00405
1.00509
1.00627
1.00756
1.00893
1.01034
1.01175
1.0131
1.01435
1.01545
1.01638
1.01711
1.0176
1.01785
1.01785
1.0176
1.01712
1.0164
1.01548
1.01438
1.01314
1.01179
1.01039
1.00898
1.00761
1.00631
1.00513
1.00408
1.00318
1.00242
1.00181
1.00133
1.00096
1.00069
1.00049
1.00035
1.00026
1.00019
1.00015
1.00012
1.0001
1.00008
1.00007
1.00006
1.00005
1.00004
1.00003
1.00003
1.00002
1.00001
1.00001
1.00001
1.00001
1
1
1
1
1
1
1
1
1
1
1
1
1
1
1
1
1
1
1
1
1
1
1.00299
1.00378
1.00467
1.00564
1.00669
1.00777
1.00886
1.00991
1.0109
1.01178
1.01252
1.01309
1.01349
1.01369
1.01368
1.01347
1.01306
1.01247
1.01172
1.01083
1.00983
1.00876
1.00766
1.00657
1.00552
1.00454
1.00365
1.00288
1.00222
1.00167
1.00124
1.0009
1.00064
1.00046
1.00032
1.00023
1.00017
1.00013
1.0001
1.00009
1.00007
1.00006
1.00005
1.00005
1.00004
1.00003
1.00003
1.00002
1.00002
1.00001
1.00001
1.00001
1
1
1
1
1
1
1
1
1
1
1
1
1
1
1
1
1
1
1
1
1
1
1
1.0022
1.00278
1.00343
1.00416
1.00494
1.00575
1.00658
1.00738
1.00813
1.0088
1.00937
1.00982
1.01012
1.01026
1.01025
1.01007
1.00974
1.00926
1.00866
1.00796
1.00718
1.00636
1.00552
1.00469
1.00391
1.00318
1.00253
1.00197
1.0015
1.00111
1.00081
1.00058
1.00041
1.00029
1.0002
1.00015
1.00011
1.00009
1.00007
1.00006
1.00005
1.00005
1.00004
1.00004
1.00003
1.00003
1.00002
1.00002
1.00001
1.00001
1.00001
1.00001
1
1
1
1
1
1
1
1
1
1
1
1
1
1
1
1
1
1
1
1
1
1
1
1.00161
1.00203
1.00251
1.00304
1.00361
1.00421
1.00482
1.00541
1.00597
1.00647
1.00689
1.00722
1.00744
1.00754
1.00752
1.00737
1.0071
1.00673
1.00626
1.00572
1.00512
1.0045
1.00388
1.00327
1.00269
1.00216
1.0017
1.00131
1.00098
1.00071
1.00051
1.00035
1.00024
1.00017
1.00012
1.00008
1.00006
1.00005
1.00005
1.00004
1.00004
1.00003
1.00003
1.00003
1.00002
1.00002
1.00002
1.00001
1.00001
1.00001
1.00001
1
1
1
1
1
1
1
1
1
1
1
1
1
1
1
1
1
1
1
1
1
1
1
1
1.00117
1.00148
1.00182
1.0022
1.00262
1.00305
1.00348
1.00391
1.00432
1.00468
1.00498
1.00522
1.00537
1.00543
1.0054
1.00528
1.00507
1.00478
1.00442
1.00401
1.00357
1.00311
1.00265
1.00221
1.00179
1.00142
1.0011
1.00082
1.0006
1.00043
1.00029
1.0002
1.00013
1.00009
1.00006
1.00004
1.00003
1.00003
1.00003
1.00003
1.00003
1.00002
1.00002
1.00002
1.00002
1.00002
1.00001
1.00001
1.00001
1.00001
1
1
1
1
1
1
1
1
1
1
1
1
1
1
1
1
1
1
1
1
1
1
1
1
1
1.00086
1.00107
1.00132
1.00159
1.00188
1.00219
1.0025
1.0028
1.00308
1.00334
1.00355
1.00371
1.00381
1.00384
1.00381
1.00371
1.00354
1.00332
1.00305
1.00275
1.00242
1.00209
1.00176
1.00144
1.00115
1.0009
1.00067
1.00049
1.00034
1.00023
1.00015
1.00009
1.00005
1.00003
1.00002
1.00001
1.00001
1.00001
1.00002
1.00002
1.00002
1.00002
1.00002
1.00002
1.00001
1.00001
1.00001
1.00001
1.00001
1
1
1
1
1
1
1
1
1
1
1
1
1
1
1
1
1
1
1
1
1
1
1
1
1
1
1.00063
1.00078
1.00095
1.00115
1.00135
1.00156
1.00178
1.00199
1.00218
1.00235
1.0025
1.0026
1.00266
1.00267
1.00263
1.00255
1.00242
1.00225
1.00205
1.00183
1.00159
1.00135
1.00112
1.0009
1.0007
1.00053
1.00038
1.00026
1.00017
1.0001
1.00005
1.00002
1
0.999995
0.999994
0.999996
1
1
1.00001
1.00001
1.00001
1.00001
1.00001
1.00001
1.00001
1.00001
1.00001
1.00001
1
1
1
1
1
1
1
1
1
1
1
1
1
1
1
1
1
1
1
1
1
1
1
1
1
1
1
1.00046
1.00057
1.00069
1.00082
1.00097
1.00111
1.00126
1.0014
1.00153
1.00165
1.00173
1.00179
1.00183
1.00182
1.00179
1.00172
1.00162
1.00149
1.00134
1.00118
1.00101
1.00084
1.00068
1.00053
1.0004
1.00028
1.00019
1.00011
1.00006
1.00002
0.999994
0.999981
0.999975
0.999975
0.999979
0.999984
0.999991
0.999996
1
1
1.00001
1.00001
1.00001
1.00001
1.00001
1.00001
1.00001
1
1
1
1
1
1
1
1
1
1
1
1
1
1
1
1
1
1
1
1
1
1
1
1
1
1
1
1
1.00035
1.00042
1.00051
1.0006
1.00069
1.00079
1.00089
1.00098
1.00107
1.00114
1.00119
1.00123
1.00124
1.00123
1.00119
1.00113
1.00105
1.00096
1.00085
1.00073
1.00061
1.0005
1.00038
1.00028
1.0002
1.00012
1.00006
1.00002
0.999989
0.999969
0.999959
0.999956
0.999959
0.999965
0.999973
0.99998
0.999987
0.999993
0.999998
1
1
1
1.00001
1.00001
1.00001
1
1
1
1
1
1
1
1
1
1
1
1
1
1
1
1
1
1
1
1
1
1
1
1
1
1
1
1
1
1
1.00026
1.00032
1.00037
1.00043
1.0005
1.00057
1.00063
1.00069
1.00074
1.00078
1.00081
1.00083
1.00083
1.00081
1.00078
1.00073
1.00067
1.0006
1.00052
1.00043
1.00035
1.00027
1.00019
1.00013
1.00007
1.00002
0.999989
0.999966
0.999952
0.999945
0.999943
0.999946
0.999952
0.999961
0.999969
0.999977
0.999984
0.99999
0.999995
0.999999
1
1
1
1
1
1
1
1
1
1
1
1
1
1
1
1
1
1
1
1
1
1
1
1
1
1
1
1
1
1
1
1
1
1
1
1.0002
1.00024
1.00028
1.00032
1.00036
1.00041
1.00045
1.00049
1.00052
1.00054
1.00055
1.00056
1.00055
1.00053
1.0005
1.00046
1.00041
1.00036
1.0003
1.00024
1.00018
1.00012
1.00007
1.00003
0.999996
0.999969
0.999949
0.999938
0.999932
0.999932
0.999937
0.999944
0.999952
0.999961
0.99997
0.999978
0.999985
0.99999
0.999994
0.999997
1
1
1
1
1
1
1
1
1
1
1
1
1
1
1
1
1
1
1
1
1
1
1
1
1
1
1
1
1
1
1
1
1
1
1
1.00015
1.00018
1.00021
1.00024
1.00027
1.0003
1.00032
1.00034
1.00036
1.00037
1.00038
1.00037
1.00036
1.00034
1.00031
1.00028
1.00024
1.0002
1.00016
1.00012
1.00007
1.00004
1
0.999975
0.999954
0.99994
0.999931
0.999927
0.999928
0.999932
0.999938
0.999946
0.999955
0.999963
0.999971
0.999978
0.999985
0.99999
0.999994
0.999997
0.999999
1
1
1
1
1
1
1
1
1
1
1
1
1
1
1
1
1
1
1
1
1
1
1
1
1
1
1
1
1
1
1
1
1
1
1.00012
1.00014
1.00016
1.00018
1.0002
1.00022
1.00023
1.00025
1.00026
1.00026
1.00026
1.00025
1.00024
1.00022
1.00019
1.00017
1.00014
1.0001
1.00007
1.00004
1.00001
0.999987
0.999967
0.999949
0.999937
0.99993
0.999925
0.999925
0.999929
0.999935
0.999942
0.999951
0.99996
0.999968
0.999975
0.999981
0.999986
0.999991
0.999994
0.999997
0.999999
1
1
1
1
1
1
1
1
1
1
1
1
1
1
1
1
1
1
1
1
1
1
1
1
1
1
1
1
1
1
1
1
1
1
1.00009
1.00011
1.00012
1.00014
1.00015
1.00016
1.00017
1.00018
1.00018
1.00018
1.00018
1.00017
1.00015
1.00014
1.00012
1.0001
1.00007
1.00005
1.00002
1
0.99998
0.999963
0.999948
0.999938
0.999931
0.999928
0.999928
0.999931
0.999936
0.999943
0.999949
0.999957
0.999964
0.999971
0.999978
0.999983
0.999988
0.999992
0.999995
0.999997
0.999999
1
1
1
1
1
1
1
1
1
1
1
1
1
1
1
1
1
1
1
1
1
1
1
1
1
1
1
1
1
1
1
1
1
1
1.00007
1.00008
1.00009
1.00011
1.00011
1.00012
1.00013
1.00013
1.00013
1.00013
1.00012
1.00011
1.0001
1.00009
1.00007
1.00005
1.00003
1.00001
0.999997
0.99998
0.999965
0.999954
0.999944
0.999937
0.999934
0.999933
0.999935
0.999938
0.999944
0.99995
0.999957
0.999964
0.99997
0.999976
0.999981
0.999986
0.99999
0.999993
0.999995
0.999997
0.999998
0.999999
1
1
1
1
1
1
1
1
1
1
1
1
1
1
1
1
1
1
1
1
1
1
1
1
1
1
1
1
1
1
1
1
1
1.00006
1.00007
1.00007
1.00008
1.00009
1.00009
1.00009
1.0001
1.0001
1.00009
1.00009
1.00008
1.00007
1.00006
1.00004
1.00003
1.00001
0.999997
0.999983
0.999971
0.99996
0.999952
0.999946
0.999943
0.999941
0.999942
0.999944
0.999948
0.999953
0.999958
0.999964
0.99997
0.999975
0.99998
0.999985
0.999988
0.999991
0.999994
0.999996
0.999998
0.999999
0.999999
1
1
1
1
1
1
1
1
1
1
1
1
1
1
1
1
1
1
1
1
1
1
1
1
1
1
1
1
1
1
1
1
1
1.00004
1.00005
1.00006
1.00006
1.00007
1.00007
1.00007
1.00007
1.00007
1.00007
1.00006
1.00005
1.00004
1.00003
1.00002
1.00001
1
0.999989
0.999979
0.999969
0.999962
0.999956
0.999952
0.99995
0.99995
0.99995
0.999953
0.999956
0.999961
0.999966
0.99997
0.999975
0.99998
0.999984
0.999987
0.99999
0.999993
0.999995
0.999996
0.999998
0.999998
0.999999
1
1
1
1
1
1
1
1
1
1
1
1
1
1
1
1
1
1
1
1
1
1
1
1
1
1
1
1
1
1
1
1
1
1.00004
1.00004
1.00004
1.00005
1.00005
1.00005
1.00005
1.00005
1.00005
1.00005
1.00004
1.00004
1.00003
1.00002
1.00001
1
0.999995
0.999986
0.999978
0.999971
0.999966
0.999962
0.999959
0.999958
0.999959
0.99996
0.999962
0.999965
0.999968
0.999972
0.999977
0.999981
0.999984
0.999987
0.99999
0.999992
0.999994
0.999996
0.999997
0.999998
0.999999
0.999999
0.999999
1
1
1
1
1
1
1
1
1
1
1
1
1
1
1
1
1
1
1
1
1
1
1
1
1
1
1
1
1
1
1
1
1.00003
1.00003
1.00003
1.00004
1.00004
1.00004
1.00004
1.00004
1.00004
1.00004
1.00003
1.00003
1.00002
1.00001
1.00001
1
0.999993
0.999986
0.99998
0.999976
0.999971
0.999968
0.999967
0.999966
0.999966
0.999967
0.999969
0.999972
0.999975
0.999978
0.999981
0.999984
0.999988
0.99999
0.999992
0.999994
0.999996
0.999997
0.999998
0.999999
0.999999
1
1
1
1
1
1
1
1
1
1
1
1
1
1
1
1
1
1
1
1
1
1
1
1
1
1
1
1
1
1
1
1
1
1
1.00002
1.00002
1.00003
1.00003
1.00003
1.00003
1.00003
1.00003
1.00003
1.00003
1.00002
1.00002
1.00002
1.00001
1
0.999998
0.999993
0.999988
0.999983
0.999979
0.999976
0.999974
0.999973
0.999973
0.999974
0.999975
0.999976
0.999979
0.99998
0.999983
0.999986
0.999988
0.99999
0.999992
0.999994
0.999995
0.999996
0.999998
0.999998
0.999999
0.999999
0.999999
1
1
1
1
1
1
1
1
1
1
1
1
1
1
1
1
1
1
1
1
1
1
1
1
1
1
1
1
1
1
1
1
1
1.00002
1.00002
1.00002
1.00002
1.00002
1.00002
1.00002
1.00002
1.00002
1.00002
1.00002
1.00001
1.00001
1.00001
1
0.999998
0.999994
0.99999
0.999987
0.999984
0.999981
0.99998
0.99998
0.999979
0.999979
0.99998
0.999981
0.999983
0.999985
0.999987
0.999989
0.999991
0.999992
0.999994
0.999995
0.999997
0.999998
0.999998
0.999998
0.999999
0.999999
0.999999
1
1
1
1
1
1
1
1
1
1
1
1
1
1
1
1
1
1
1
1
1
1
1
1
1
1
1
1
1
1
1
1
1
1.00001
1.00001
1.00002
1.00002
1.00002
1.00002
1.00002
1.00002
1.00002
1.00001
1.00001
1.00001
1.00001
1
1
0.999997
0.999994
0.999992
0.999989
0.999987
0.999985
0.999984
0.999984
0.999984
0.999984
0.999985
0.999986
0.999987
0.999988
0.99999
0.999992
0.999993
0.999995
0.999996
0.999996
0.999997
0.999998
0.999999
0.999999
0.999999
1
1
1
1
1
1
1
1
1
1
1
1
1
1
1
1
1
1
1
1
1
1
1
1
1
1
1
1
1
1
1
1
1
1
1
1.00001
1.00001
1.00001
1.00001
1.00001
1.00001
1.00001
1.00001
1.00001
1.00001
1.00001
1.00001
1
1
1
0.999998
0.999996
0.999994
0.999992
0.99999
0.999989
0.999988
0.999988
0.999988
0.999988
0.999989
0.999989
0.99999
0.999992
0.999993
0.999994
0.999995
0.999996
0.999996
0.999997
0.999998
0.999999
0.999999
0.999999
0.999999
1
1
1
1
1
1
1
1
1
1
1
1
1
1
1
1
1
1
1
1
1
1
1
1
1
1
1
1
1
1
1
1
1
1
1
1.00001
1.00001
1.00001
1.00001
1.00001
1.00001
1.00001
1.00001
1.00001
1.00001
1.00001
1.00001
1
1
1
0.999998
0.999997
0.999995
0.999994
0.999992
0.999992
0.999992
0.999992
0.999991
0.999991
0.999992
0.999992
0.999993
0.999994
0.999994
0.999995
0.999996
0.999997
0.999997
0.999998
0.999999
0.999999
0.999999
0.999999
1
1
1
1
1
1
1
1
1
1
1
1
1
1
1
1
1
1
1
1
1
1
1
1
1
1
1
1
1
1
1
1
1
1
1
1
1.00001
1
1.00001
1.00001
1.00001
1.00001
1.00001
1.00001
1.00001
1.00001
1
1
1
1
1
0.999999
0.999997
0.999997
0.999995
0.999995
0.999994
0.999994
0.999993
0.999993
0.999993
0.999994
0.999995
0.999995
0.999995
0.999996
0.999997
0.999997
0.999998
0.999998
0.999999
0.999999
0.999999
1
1
1
1
1
1
1
1
1
1
1
1
1
1
1
1
1
1
1
1
1
1
1
1
1
1
1
1
1
1
1
1
1
1
1
1
1
1
1
1
1
1
1.00001
1
1.00001
1
1
1
1
1
1
1
1
0.999999
0.999998
0.999997
0.999997
0.999996
0.999996
0.999995
0.999995
0.999995
0.999995
0.999996
0.999996
0.999996
0.999997
0.999997
0.999998
0.999998
0.999998
0.999999
0.999999
0.999999
0.999999
1
1
1
1
1
1
1
1
1
1
1
1
1
1
1
1
1
1
1
1
1
1
1
1
1
1
1
1
1
1
1
1
1
1
1
1
1
1
1
1
1
1
1
1
1
1
1
1
1
1
1
1
1
1
0.999999
0.999998
0.999998
0.999997
0.999997
0.999997
0.999997
0.999996
0.999997
0.999997
0.999997
0.999997
0.999998
0.999998
0.999998
0.999998
0.999999
0.999999
0.999999
0.999999
0.999999
1
1
1
1
1
1
1
1
1
1
1
1
1
1
1
1
1
1
1
1
1
1
1
1
1
1
1
1
1
1
1
1
1
1
1
1
1
1
1
1
1
1
1
1
1
1
1
1
1
1
1
1
1
0.999999
0.999999
0.999999
0.999998
0.999998
0.999998
0.999998
0.999998
0.999998
0.999998
0.999998
0.999998
0.999998
0.999998
0.999998
0.999999
0.999999
0.999999
0.999999
0.999999
0.999999
1
1
1
1
1
1
1
1
1
1
1
1
1
1
1
1
1
1
1
1
1
1
1
1
1
1
1
1
1
1
1
1
1
1
1
1
1
1
1
1
1
1
1
1
1
1
1
1
1
1
1
1
1
1
1
0.999999
0.999999
0.999999
0.999999
0.999998
0.999998
0.999998
0.999998
0.999998
0.999998
0.999999
0.999999
0.999999
0.999999
0.999999
1
0.999999
0.999999
0.999999
1
1
1
1
1
1
1
1
1
1
1
1
1
1
1
1
1
1
1
1
1
1
1
1
1
1
1
1
1
1
1
1
1
1
1
1
1
1
1
1
1
1
1
1
1
1
1
1
1
1
1
1
1
1
1
1
1
0.999999
0.999999
0.999999
0.999999
0.999999
0.999999
0.999999
0.999999
0.999999
0.999999
0.999999
0.999999
1
0.999999
0.999999
0.999999
1
1
1
1
1
1
1
1
1
1
1
1
1
1
1
1
1
1
1
1
1
1
1
1
1
1
1
1
1
1
1
1
1
1
1
1
1
1
1
1
1
1
1
1
1
1
1
1
1
1
1
1
1
1
1
1
1
1
1
0.999999
0.999999
0.999999
1
0.999999
0.999999
0.999999
0.999999
1
1
0.999999
0.999999
0.999999
0.999999
1
1
1
1
1
1
1
1
1
1
1
1
1
1
1
1
1
1
1
1
1
1
1
1
1
1
1
1
1
1
1
1
1
1
1
1
1
1
1
1
1
1
1
1
1
1
1
1
1
1
1
1
1
1
1
1
1
1
1
1
1
1
1
1
0.999999
0.999999
0.999999
1
0.999999
0.999999
1
0.999999
0.999999
1
1
1
1
1
1
1
1
1
1
1
1
1
1
1
1
1
1
1
1
1
1
1
1
1
1
1
1
1
1
1
1
1
1
1
1
1
1
1
1
1
1
1
1
1
1
1
1
1
1
1
1
1
1
1
1
1
1
1
1
1
1
1
1
1
0.999999
1
1
1
1
1
1
1
1
1
1
1
1
1
1
1
1
1
1
1
1
1
1
1
1
1
1
1
1
1
1
1
1
1
1
1
1
1
1
1
1
1
1
1
1
1
1
1
1
1
1
1
1
1
1
1
1
1
1
1
1
1
1
1
1
1
1
1
1
1
1
1
1
1
1
1
1
1
1
1
1
1
1
1
1
1
1
1
1
1
1
1
1
1
1
1
1
1
1
1
1
1
1
1
1
1
1
1
1
1
1
1
1
1
1
1
1
1
1
1
1
1
1
1
1
1
1
1
1
1
1
1
1
1
1
1
1
1
1
1
1
1
1
1
1
1
1
1
1
1
1
1
1
1
1
1
1
1
1
1
1
1
1
1
1
1
1
1
1
1
1
1
1
1
1
1
1
1
1
1
1
1
1
1
1
1
1
1
1
1
1
1
1
1
1
1
1
1
1
1
1
1
1
1
1
1
1
1
1
1
1
1
1
1
1
1
1
1
1
1
1
1
1
1
1
1
1
1
1
1
1
1
1
1
1
1
1
1
1
1
1
1
1
1
1
1
1
1
1
1
1
1
1
1
1
1
1
1
1
1
1
1
1
1
1
1
1
1
1
1
1
1
1
1
1
1
1
1
1
1
1
1
1
1
1
1
1
1
1
1
1
1
1
1
1
1
1
1
1
1
1
1
1
1
1
1
1
1
1
1
1
1
1
1
1
1
1
1
1
1
1
1
1
1
1
1
1
1
1
1
1
1
1
1
1
1
1
1
1
1
1
1
1
1
1
1
1
1
1
1
1
1
1
1
1
1
1
1
1
1
1
1
1
1
1
1
1
1
1
1
1
1
1
1
1
1
1
1
1
1
1
1
1
1
1
1
1
1
1
1
1
1
1
1
1
1
1
1
1
1
1
1
1
1
1
1
1
1
1
1
1
1
1
1
1
1
1
1
1
1
1
1
1
1
1
1
1
1
1
1
1
1
1
1
1
1
1
1
1
1
1
1
1
1
1
1
1
1
1
1
1
1
1
1
1
1
1
1
1
1
1
1
1
1
1
1
1
1
1
1
1
1
1
1
1
1
1
1
1
1
1
1
1
1
1
1
1
1
1
1
1
1
1
1
1
1
1
1
1
1
1
1
1
1
1
1
1
1
1
1
1
1
1
1
1
1
1
1
1
1
1
1
1
1
1
1
1
1
1
1
1
1
1
1
1
1
1
1
1
1
1
1
1
1
1
1
1
1
1
1
1
1
1
1
1
1
1
1
1
1
1
1
1
1
1
1
1
1
1
1
1
1
1
1
1
1
1
1
1
1
1
1
1
1
1
1
1
1
1
1
1
1
1
1
1
1
1
1
1
1
1
1
1
1
1
1
1
1
1
1
1
1
1
1
1
1
1
1
1
1
1
1
1
1
1
1
1
1
1
1
1
1
1
1
1
1
1
1
1
1
1
1
1
1
1
1
1
1
1
1
1
1
1
1
1
1
1
1
1
1
1
1
1
1
1
1
1
1
1
1
1
1
1
1
1
1
1
1
1
1
1
1
1
1
1
1
1
1
1
1
1
1
1
1
1
1
1
1
1
1
1
1
1
1
1
1
1
1
1
1
1
1
1
1
1
1
1
1
1
1
1
1
1
1
1
1
1
1
1
1
1
1
1
1
1
1
1
1
1
1
1
1
1
1
1
1
1
1
1
1
1
1
1
1
1
1
1
1
1
1
1
1
1
1
1
1
1
1
1
1
1
1
1
1
1
1
1
1
1
1
1
1
1
1
1
1
1
1
1
1
1
1
1
1
1
1
1
1
1
1
1
1
1
1
1
1
1
1
1
1
1
1
1
1
1
1
1
1
1
1
1
1
1
1
1
1
1
1
1
1
1
1
1
1
1
1
1
1
1
1
1
1
1
1
1
1
1
1
1
1
1
1
1
1
1
1
1
1
1
1
1
1
1
1
1
1
1
1
1
1
1
1
1
1
1
1
1
1
1
1
1
1
1
1
1
1
1
1
1
1
1
1
1
1
1
1
1
1
1
1
1
1
1
1
1
1
1
1
1
1
1
1
1
1
1
1
1
1
1
1
1
1
1
1
1
1
1
1
1
1
1
1
1
1
1
1
1
1
1
1
1
1
1
1
1
1
1
1
1
1
1
1
1
1
1
1
1
1
1
1
1
1
1
1
1
1
1
1
1
1
1
1
1
1
1
1
1
1
1
1
1
1
1
1
1
1
1
1
1
1
1
1
1
1
1
1
1
1
1
1
1
1
1
1
1
1
1
1
1
1
1
1
1
1
1
1
1
1
1
1
1
1
1
1
1
1
1
1
1
1
1
1
1
1
1
1
1
1
1
1
1
1
1
1
1
1
1
1
1
1
1
1
1
1
1
1
1
1
1
1
1
1
1
1
1
1
1
1
1
1
1
1
1
1
1
1
1
1
1
1
1
1
1
1
1
1
1
1
1
1
1
1
1
1
1
1
1
1
1
1
1
1
1
1
1
1
1
1
1
1
1
1
1
1
1
1
1
1
1
1
1
1
1
1
1
1
1
1
1
1
1
1
1
1
1
1
1
1
1
1
1
1
1
1
1
1
1
1
1
1
1
1
1
1
1
1
1
1
1
1
1
1
1
1
1
1
1
1
1
1
1
1
1
1
1
1
1
1
1
1
1
1
1
1
1
1
1
1
1
1
1
1
1
1
1
1
1
1
1
1
1
1
1
1
1
1
1
1
1
1
1
1
1
1
1
1
1
1
1
1
1
1
1
1
1
1
1
1
1
1
1
1
1
1
1
1
1
1
1
1
1
1
1
1
1
1
1
1
1
1
1
1
1
1
1
1
1
1
1
1
1
1
1
1
1
1
1
1
1
1
1
1
1
1
1
1
1
1
1
1
1
1
1
1
1
1
1
1
1
1
1
1
1
1
1
1
1
1
1
1
1
1
1
1
1
1
1
1
1
1
1
1
1
1
1
1
1
1
1
1
1
1
1
1
1
1
1
1
1
1
1
1
1
1
1
1
1
1
1
1
1
1
1
1
1
1
1
1
1
1
1
1
1
1
1
1
1
1
1
1
1
1
1
1
1
1
1
1
1
1
1
1
1
1
1
1
1
1
1
1
1
1
1
1
1
1
1
1
1
1
1
1
1
1
1
1
1
1
1
1
1
1
1
1
1
1
1
1
1
1
1
1
1
1
1
1
1
1
1
1
1
1
1
1
1
1
1
1
1
1
1
1
1
1
1
1
1
1
1
1
1
1
1
1
1
1
1
1
1
1
1
1
1
1
1
1
1
1
1
1
1
1
1
1
1
1
1
1
1
1
1
1
1
1
1
1
1
1
1
1
1
1
1
1
1
1
1
1
1
1
1
1
1
1
1
1
1
1
1
1
1
1
1
1
1
1
1
1
1
1
1
1
1
1
1
1
1
1
1
1
1
1
1
1
1
1
1
1
1
1
1
1
1
1
1
1
1
1
1
1
1
1
1
1
1
1
1
1
1
1
1
1
1
1
1
1
)
;

boundaryField
{
    emptyPatches_empt
    {
        type            empty;
    }
    top_cyc
    {
        type            cyclic;
    }
    bottom_cyc
    {
        type            cyclic;
    }
    inlet_cyc
    {
        type            cyclic;
    }
    outlet_cyc
    {
        type            cyclic;
    }
    procBoundary1to0
    {
        type            processor;
        value           nonuniform List<scalar> 
75
(
1.03125
1.03561
1.0395
1.04276
1.04524
1.04684
1.04746
1.04706
1.04563
1.04323
1.03999
1.03609
1.03179
1.02734
1.023
1.01896
1.01533
1.01219
1.00954
1.00736
1.0056
1.00421
1.00314
1.00232
1.0017
1.00124
1.00091
1.00067
1.00049
1.00037
1.00028
1.00021
1.00016
1.00013
1.0001
1.00008
1.00006
1.00005
1.00004
1.00003
1.00002
1.00002
1.00001
1.00001
1.00001
1.00001
1
1
1
1
1
1
1
1
1
1
1
1
1
1
1
1
1
1
1
1
1
1
1
1
1
1
1
1
1
)
;
    }
    procBoundary1to0throughoutlet_cyc
    {
        type            processorCyclic;
        value           nonuniform List<scalar> 
75
(
1
1
1
1
1
1
1
1
1
1
1
1
1
1
1
1
1
1
1
1
1
1
1
1
1
1
1
1
1
1
1
1
1
1
1
1
1
1
1
1
1
1
1
1
1
1
1
1
1
1
1
1
1
1
1
1
1
1
1
1
1
1
1
1
1
1
1
1
1
1
1
1
1
1
1
)
;
    }
    procBoundary1to3
    {
        type            processor;
        value           nonuniform List<scalar> 
75
(
1.00967
0.987357
0.959475
0.926055
0.887523
0.844798
0.799339
0.753027
0.707968
0.666367
0.630329
0.601516
0.580828
0.568515
0.564615
0.56918
0.582204
0.603502
0.632637
0.66883
0.710756
0.756384
0.803154
0.848543
0.89067
0.928496
0.961563
0.989552
1.01206
1.02867
1.03922
1.04408
1.04414
1.0407
1.03519
1.02886
1.02263
1.01709
1.01249
1.00888
1.00617
1.0042
1.00282
1.00187
1.00123
1.00082
1.00054
1.00036
1.00025
1.00017
1.00012
1.00008
1.00006
1.00004
1.00003
1.00002
1.00001
1.00001
1.00001
1
1
1
1
1
1
1
1
1
1
1
1
1
1
1
1
)
;
    }
    procBoundary1to3throughbottom_cyc
    {
        type            processorCyclic;
        value           nonuniform List<scalar> 
75
(
1
1
1
1
1
1
1
0.999999
1
1
1
1
1
1
1
1
1
1
1
1
1
1
1
1
1
1
1
1
1
1
1
1
1
1
1
1
1
1
1
1
1
1
1
1
1
1
1
1
1
1
1
1
1
1
1
1
1
1
1
1
1
1
1
1
1
1
1
1
1
1
1
1
1
1
1
)
;
    }
}


// ************************************************************************* //
