/*--------------------------------*- C++ -*----------------------------------*\
  =========                 |
  \\      /  F ield         | OpenFOAM: The Open Source CFD Toolbox
   \\    /   O peration     | Website:  https://openfoam.org
    \\  /    A nd           | Version:  6
     \\/     M anipulation  |
\*---------------------------------------------------------------------------*/
FoamFile
{
    version     2.0;
    format      ascii;
    class       volScalarField;
    location    "4.99";
    object      epsilon;
}
// * * * * * * * * * * * * * * * * * * * * * * * * * * * * * * * * * * * * * //

dimensions      [0 2 -3 0 0 0 0];

internalField   nonuniform List<scalar> 
4214
(
0.0223373
0.0100397
0.00607141
0.00583724
0.00834804
0.0142621
0.0251581
0.0429453
0.068697
0.100988
0.135503
0.167359
0.191133
0.204409
0.207763
0.202915
0.191507
0.174924
0.155505
0.133927
0.111583
0.094654
0.0845685
0.0796915
0.0792164
0.0849968
0.103446
0.14182
0.194349
0.231144
0.225399
0.184665
0.131563
0.0843233
0.0497976
0.0275025
0.0145218
0.00784378
0.00546282
0.00705324
0.0153342
0.00648557
0.00433932
0.00431993
0.00614426
0.0105199
0.01904
0.0339295
0.057392
0.0899843
0.12888
0.168822
0.20339
0.226037
0.235573
0.234285
0.225756
0.212446
0.195011
0.173651
0.149572
0.126714
0.109633
0.0963884
0.0903893
0.0901251
0.101122
0.131448
0.179926
0.22155
0.235057
0.214247
0.17005
0.119934
0.0770385
0.0459842
0.0258656
0.0139062
0.00735439
0.00416704
0.00314762
0.00395724
0.00328278
0.00320976
0.0044627
0.00756803
0.0138538
0.0255454
0.0453739
0.0755862
0.115779
0.16207
0.208298
0.244149
0.264207
0.268133
0.260764
0.248092
0.233582
0.216849
0.195606
0.170245
0.144814
0.127
0.111096
0.106042
0.109955
0.132311
0.172005
0.212212
0.233574
0.226868
0.195649
0.150753
0.105119
0.0675913
0.0407467
0.0233173
0.0128187
0.0069096
0.00384446
0.0025176
0.00237123
0.00244178
0.00320927
0.00532433
0.009758
0.0183912
0.0341038
0.0600824
0.0983617
0.147318
0.202208
0.254156
0.290271
0.303831
0.297402
0.280939
0.263564
0.249672
0.236655
0.217651
0.191999
0.165377
0.147588
0.132803
0.133374
0.147567
0.178942
0.21506
0.237836
0.23711
0.213912
0.175455
0.131231
0.0903465
0.0580556
0.0352829
0.0205049
0.0115226
0.00637205
0.00360654
0.00229012
0.00189441
0.00231715
0.00366288
0.00666408
0.0127195
0.0243314
0.0450918
0.0785697
0.126205
0.185131
0.25028
0.306578
0.337855
0.336876
0.313548
0.285242
0.264121
0.253366
0.246435
0.232517
0.210266
0.186798
0.171841
0.167052
0.175105
0.19783
0.227002
0.247002
0.247269
0.227622
0.193596
0.152206
0.110874
0.075433
0.0484495
0.0296879
0.0175259
0.0100778
0.00574351
0.00335936
0.00216582
0.00171247
0.00249942
0.00441179
0.00846331
0.0165495
0.0318954
0.0589023
0.101324
0.159442
0.232334
0.306941
0.362305
0.377558
0.352582
0.308844
0.270356
0.248894
0.24318
0.241905
0.233895
0.219836
0.206488
0.200865
0.206751
0.223295
0.244944
0.259431
0.257775
0.238756
0.206799
0.167715
0.127342
0.0908072
0.061233
0.0393757
0.0243568
0.0146266
0.00862698
0.00509143
0.00310906
0.00208243
0.00164676
0.00287316
0.00542758
0.0107609
0.0213653
0.0413007
0.0759043
0.12849
0.201845
0.288215
0.367259
0.409046
0.396274
0.343489
0.283794
0.242537
0.225376
0.224824
0.227032
0.22562
0.222818
0.223227
0.230532
0.244906
0.260701
0.269843
0.265465
0.246165
0.215298
0.177859
0.138862
0.102617
0.0720471
0.0483364
0.0312018
0.0195296
0.0119641
0.00726834
0.0044694
0.0028738
0.0020248
0.00163773
0.00340958
0.00671623
0.0135975
0.0272441
0.0526783
0.0959836
0.162505
0.251061
0.347325
0.419411
0.433988
0.387974
0.313729
0.25012
0.21483
0.204774
0.207467
0.212405
0.217908
0.226012
0.238391
0.2535
0.266536
0.271778
0.265444
0.246567
0.217328
0.181911
0.144828
0.109893
0.0796867
0.0554289
0.0371671
0.0241715
0.0153639
0.00964424
0.00606967
0.00391539
0.00266825
0.00198849
0.00166077
0.00409997
0.00827691
0.0169739
0.0341727
0.0659884
0.119739
0.20033
0.302444
0.400302
0.452481
0.433656
0.36106
0.279699
0.223027
0.197395
0.193686
0.198363
0.206163
0.216993
0.230872
0.246025
0.258004
0.26201
0.255227
0.237467
0.210768
0.178501
0.144467
0.111996
0.0833864
0.0598081
0.0414741
0.0279346
0.0183868
0.011927
0.00771693
0.00506582
0.00345037
0.00250114
0.00197175
0.00170391
0.00492458
0.0100883
0.0208941
0.0422746
0.0816096
0.147236
0.242695
0.353692
0.441338
0.464622
0.417479
0.332782
0.254883
0.207286
0.189102
0.189517
0.196288
0.205111
0.216026
0.227976
0.237392
0.240479
0.234472
0.218917
0.195513
0.167291
0.137437
0.108655
0.082851
0.061078
0.0436583
0.0303701
0.0206615
0.0138411
0.00921975
0.00619155
0.00426836
0.00308321
0.00237646
0.00197344
0.00176077
0.00592314
0.0122695
0.0255586
0.051988
0.10078
0.180262
0.286726
0.394421
0.462355
0.461412
0.398955
0.313641
0.241858
0.19921
0.183347
0.184618
0.190884
0.197907
0.204926
0.210063
0.210909
0.205427
0.192687
0.173504
0.150123
0.125162
0.100819
0.0786282
0.0594899
0.0437624
0.0313902
0.0220429
0.0152398
0.010457
0.00720224
0.0050539
0.00367609
0.00281676
0.00229667
0.00199393
0.00182851
0.00675802
0.0139238
0.0288303
0.0581916
0.111312
0.195092
0.303027
0.407281
0.46866
0.463301
0.400696
0.315148
0.240997
0.195548
0.176689
0.17488
0.1778
0.180342
0.181216
0.179184
0.173436
0.163322
0.148746
0.130721
0.110963
0.0911986
0.0727496
0.0564401
0.0426722
0.0315188
0.022819
0.0162681
0.0114974
0.00812922
0.00582106
0.00428281
0.00328482
0.00265393
0.0022662
0.00203627
0.00190744
0.00715621
0.0143956
0.029458
0.059078
0.112395
0.195986
0.303352
0.407524
0.471212
0.471504
0.415156
0.331279
0.252053
0.197253
0.170598
0.162182
0.159596
0.15647
0.151949
0.14569
0.137461
0.126947
0.11408
0.0994202
0.0839649
0.0688135
0.0548431
0.0426098
0.0323558
0.0240889
0.0176586
0.012814
0.0092785
0.00676772
0.00503421
0.0038656
0.00309745
0.00260379
0.00229499
0.00210829
0.00200178
0.00708104
0.0137112
0.0276137
0.0552433
0.105556
0.185585
0.290636
0.396763
0.469114
0.483713
0.441204
0.362881
0.277766
0.209678
0.169438
0.151326
0.141975
0.134466
0.127343
0.120341
0.112968
0.104571
0.0946714
0.0833583
0.0711692
0.0589232
0.047369
0.0370878
0.028377
0.0212972
0.0157776
0.0115944
0.0085423
0.00635874
0.00484836
0.00381818
0.00313525
0.00268798
0.00240293
0.00222574
0.00212202
0.00661794
0.0122283
0.0241129
0.0481489
0.0929354
0.166279
0.26658
0.374646
0.459107
0.494341
0.473752
0.408628
0.321186
0.23753
0.177791
0.146217
0.130288
0.120907
0.113896
0.108565
0.103737
0.098333
0.0913666
0.0826814
0.0724772
0.0614959
0.0504481
0.0401285
0.0310854
0.02349
0.0175199
0.0128789
0.0095197
0.00706297
0.00538882
0.00422424
0.00346261
0.00295313
0.00262836
0.00241862
0.00229072
0.00590441
0.0103533
0.0198569
0.0394662
0.0770146
0.140957
0.232961
0.340091
0.436085
0.494985
0.504704
0.463894
0.384627
0.28711
0.202774
0.150771
0.127835
0.118604
0.113704
0.111205
0.10937
0.106919
0.10252
0.0959989
0.0870091
0.0764221
0.064689
0.0527972
0.0418947
0.0319748
0.0241963
0.0176281
0.0130535
0.00941539
0.00708268
0.00532838
0.00426167
0.0035011
0.00305067
0.00274334
0.00256148
0.00511009
0.00844405
0.0156262
0.0306956
0.0605127
0.113316
0.194438
0.296268
0.399228
0.478401
0.51663
0.511851
0.455767
0.368828
0.260602
0.180176
0.14162
0.129653
0.127175
0.127097
0.128449
0.128661
0.126095
0.121748
0.113755
0.103534
0.0911701
0.0767206
0.0636895
0.0491518
0.0389476
0.0278392
0.0214503
0.0146446
0.0112406
0.00773537
0.00613109
0.0045647
0.00388287
0.00326526
0.00300293
0.00278814
0.00244262
0.00221723
0.00206789
0.00194749
0.00184281
0.00174911
0.00166632
0.00159793
0.00155151
0.00154098
0.00159339
0.00176694
0.00220729
0.00335525
0.00746902
0.0402291
0.00269183
0.00241449
0.00223279
0.00209466
0.0019768
0.00187241
0.0017799
0.00170085
0.00163979
0.00160531
0.00161349
0.00169697
0.00192871
0.00249718
0.00399981
0.00909516
0.0422401
0.00262502
0.0024161
0.00226432
0.00213831
0.00202673
0.00192643
0.00183765
0.00176312
0.00170835
0.00168334
0.00170721
0.00181951
0.00211124
0.00281976
0.00468976
0.0108421
0.0446841
0.00260759
0.00243839
0.00230708
0.0021921
0.00208771
0.00199286
0.00190896
0.00183951
0.00179091
0.00177468
0.00181314
0.00195359
0.00230678
0.00316309
0.00541539
0.0125887
0.048064
0.00261309
0.00247516
0.00235886
0.00225338
0.00215599
0.00206695
0.00198838
0.00192438
0.00188208
0.00187439
0.00192678
0.00209465
0.00251006
0.00352115
0.00618412
0.0144978
0.052443
0.00264144
0.00252329
0.00241831
0.00232086
0.00222997
0.00214669
0.00207366
0.00201538
0.00197953
0.00198019
0.00204571
0.00223939
0.00271548
0.0038849
0.00698526
0.0165602
0.0579166
0.00268513
0.00258079
0.0024847
0.00239412
0.0023092
0.00223157
0.00216417
0.0021118
0.00208253
0.00209133
0.00216897
0.00238606
0.00291907
0.00424616
0.00780884
0.0187921
0.0646091
0.0027409
0.00264641
0.00255756
0.00247301
0.00239368
0.00232161
0.00225996
0.00221367
0.00219111
0.00220785
0.00229647
0.00253384
0.00311763
0.00459622
0.0086394
0.0211958
0.0726507
0.00280589
0.00271932
0.00263667
0.0025576
0.00248365
0.00241716
0.00236139
0.00232141
0.00230575
0.00233033
0.0024289
0.00268301
0.00330887
0.00492432
0.00944701
0.0237323
0.0821218
0.00287889
0.00279903
0.00272194
0.00264809
0.00257949
0.0025187
0.00246905
0.00243565
0.00242717
0.0024597
0.00256752
0.00283493
0.00349218
0.00522031
0.0101938
0.0263201
0.0929932
0.00295911
0.0028853
0.00281343
0.00274475
0.00268166
0.00262683
0.00258359
0.00255713
0.00255625
0.00259713
0.00271409
0.00299209
0.0036692
0.00547669
0.0108388
0.0288392
0.105104
0.00304604
0.00297804
0.00291133
0.00284799
0.0027907
0.00274217
0.00270573
0.00268667
0.00269398
0.00274397
0.00287076
0.00315802
0.00384411
0.00568983
0.0113375
0.0311181
0.118155
0.00313973
0.00307742
0.00301599
0.00295826
0.00290716
0.00286538
0.00283624
0.00282516
0.00284143
0.00290174
0.00304002
0.00333726
0.0040245
0.0058645
0.0116558
0.0329845
0.131707
0.00323985
0.00318363
0.00312783
0.00307613
0.00303168
0.00299716
0.0029759
0.00297353
0.00299977
0.00307204
0.00322451
0.00353516
0.00422151
0.00601777
0.0117847
0.0342804
0.145187
0.00334702
0.00329715
0.00324742
0.00320221
0.00316493
0.00313826
0.00312557
0.0031328
0.0031703
0.00325659
0.00342692
0.00375721
0.00444887
0.00617991
0.0117521
0.0348528
0.157907
0.00346074
0.0034183
0.00337537
0.00333722
0.00330768
0.00328951
0.00328623
0.00330414
0.00335448
0.00345734
0.00364994
0.00400844
0.0047201
0.00638994
0.0116291
0.0345846
0.1691
0.00358245
0.00354791
0.00351247
0.00348197
0.00346079
0.00345188
0.00345898
0.0034889
0.00355406
0.00367648
0.00389639
0.00429293
0.00504519
0.00668328
0.0115065
0.0333452
0.17792
0.00371076
0.00368621
0.00365951
0.00363744
0.00362531
0.00362653
0.00364514
0.00368877
0.00377118
0.00391665
0.0041694
0.00461414
0.00543017
0.00708957
0.0115159
0.031389
0.183489
0.00384974
0.00383463
0.00381765
0.0038049
0.00380266
0.00381495
0.0038465
0.00390595
0.00400853
0.00418128
0.00447311
0.00497608
0.00587751
0.00762285
0.0118155
0.0295944
0.185012
0.00399062
0.00399277
0.00398788
0.00398596
0.00399465
0.00401921
0.00406541
0.0041431
0.00426939
0.00447445
0.00481249
0.00538409
0.00638937
0.00827735
0.0124926
0.0287722
0.181945
0.00415683
0.00416465
0.00417218
0.00418246
0.00420346
0.00424174
0.00430454
0.00440327
0.00455732
0.00480042
0.00519252
0.00584351
0.00696863
0.00904008
0.0135297
0.0299343
0.174065
0.0043074
0.00434592
0.00437109
0.00439603
0.00443089
0.00448403
0.0045645
0.00468554
0.00486883
0.00515142
0.00559841
0.00632781
0.00756737
0.009808
0.0145461
0.031144
0.165328
0.00451019
0.00454884
0.004589
0.00462988
0.00468017
0.00474944
0.00484844
0.00499232
0.005205
0.00552647
0.00602608
0.00682828
0.00817027
0.0105556
0.015484
0.0320768
0.156359
0.00467257
0.00475717
0.00482366
0.00488566
0.00495463
0.005042
0.00516048
0.00532724
0.00556827
0.00592604
0.00647318
0.00733887
0.00876695
0.0112685
0.0163254
0.0326802
0.14744
0.00491939
0.00500007
0.0050848
0.00516854
0.00525877
0.00536665
0.00550603
0.0056956
0.00596314
0.00635302
0.00694023
0.00785714
0.00935186
0.0119394
0.0170691
0.0329957
0.138863
0.00509978
0.00524218
0.00536403
0.005478
0.00559509
0.00572764
0.00589063
0.00610395
0.00639648
0.00681385
0.00743245
0.00838651
0.00992664
0.0125697
0.0177274
0.0331321
0.13098
0.00539853
0.00553472
0.00567869
0.00582147
0.00596824
0.00612958
0.00632003
0.00655958
0.00687728
0.00731889
0.007961
0.00893836
0.0105027
0.0131717
0.0183224
0.0331854
0.124176
0.0056072
0.00582127
0.0060132
0.00619579
0.00637931
0.00657564
0.00679944
0.00707028
0.00741651
0.00788266
0.00854406
0.00953437
0.0111049
0.0137732
0.0188885
0.0332289
0.118678
0.00596965
0.00617568
0.00639407
0.00661274
0.00683548
0.0070721
0.00733617
0.00764601
0.00802815
0.00852469
0.00920787
0.0102083
0.0117748
0.0144231
0.0194792
0.0333274
0.114539
0.00621878
0.00652111
0.00679913
0.00706803
0.00733921
0.00762502
0.00793951
0.00830008
0.00873106
0.00927122
0.00998833
0.011008
0.0125739
0.015196
0.020177
0.0335672
0.111711
0.00665735
0.00695093
0.00726183
0.00757682
0.00790078
0.00824484
0.00862264
0.00905048
0.00955038
0.0101572
0.0109333
0.0119977
0.0135863
0.0161975
0.0211031
0.0340606
0.110027
0.00695586
0.00736666
0.00775114
0.00813058
0.00852111
0.00893861
0.00939868
0.0099178
0.0105166
0.0112264
0.0121039
0.0132608
0.014923
0.0175704
0.0224264
0.0349548
0.109199
0.00747232
0.00787468
0.00830118
0.00874191
0.00920776
0.00971534
0.0102818
0.0109246
0.0116645
0.0125312
0.0135758
0.0149022
0.0167254
0.0195003
0.0243785
0.0364673
0.108845
0.0078159
0.00835516
0.00887086
0.0093959
0.00995721
0.0105794
0.0112846
0.0120941
0.0130329
0.0141328
0.0154409
0.0170528
0.0191721
0.0222256
0.027272
0.0389515
0.108568
0.00838847
0.0089233
0.00949392
0.010103
0.0107754
0.0115395
0.0124225
0.0134525
0.0146658
0.0161044
0.0178123
0.0198765
0.0224905
0.0260546
0.0315287
0.0429697
0.108017
0.00876303
0.00944948
0.0101266
0.0108484
0.0116606
0.0126031
0.0137126
0.0150291
0.0166139
0.0185354
0.0208324
0.0235816
0.0269743
0.0313976
0.0377283
0.0493729
0.106855
0.00936184
0.010053
0.0108045
0.0116455
0.0126233
0.0137847
0.0151767
0.0168575
0.0189364
0.0215393
0.024685
0.0284408
0.0330176
0.0388269
0.0467152
0.0594542
0.104743
0.00975736
0.0106086
0.0114883
0.0124844
0.0136673
0.0150977
0.0168377
0.0189728
0.0217023
0.0252694
0.0296174
0.0348259
0.0411801
0.0491949
0.0598172
0.0753108
0.101352
0.010363
0.0112271
0.012211
0.0133794
0.0148051
0.0165581
0.018719
0.0214113
0.0249976
0.0299526
0.0359762
0.0432689
0.0523093
0.0638666
0.0792551
0.100688
0.0963869
0.0107608
0.0117919
0.012939
0.0143239
0.0160412
0.0181779
0.0208421
0.0242108
0.0289474
0.0359569
0.0442594
0.0545674
0.0677669
0.0851789
0.109031
0.142722
0.0898059
0.0127549
0.0133436
0.0139363
0.0145313
0.0151263
0.0157183
0.0163037
0.0168785
0.0174383
0.017978
0.0184924
0.0189761
0.0194234
0.0198287
0.0201863
0.0204908
0.0207375
0.0209235
0.0210494
0.0211308
0.0212804
0.0213457
0.0211596
0.0208634
0.0204753
0.0200022
0.0194503
0.0188198
0.018153
0.0174434
0.0167946
0.016086
0.0155029
0.0148322
0.014326
0.0137004
0.0132599
0.0126696
0.0122768
0.011707
0.0113385
0.0142991
0.0149465
0.0155972
0.0162496
0.0169014
0.0175493
0.0181896
0.0188179
0.0194294
0.0200186
0.0205801
0.0211079
0.0215962
0.0220387
0.0224296
0.0227629
0.0230335
0.0232378
0.0233761
0.0234627
0.0236121
0.0236684
0.023467
0.0231512
0.0227388
0.0222364
0.0216497
0.0209809
0.0202424
0.0194783
0.01871
0.017938
0.0172029
0.0164794
0.0158183
0.0151649
0.0145799
0.0139869
0.0134578
0.0129026
0.0124013
0.0161053
0.0168207
0.0175383
0.018257
0.0189741
0.0196863
0.0203896
0.0210791
0.0217497
0.0223957
0.023011
0.0235894
0.0241245
0.0246098
0.025039
0.0254056
0.0257041
0.0259302
0.0260833
0.026177
0.026326
0.0263725
0.0261545
0.0258168
0.0253769
0.0248413
0.0242155
0.023507
0.0226936
0.0218583
0.0210043
0.0201446
0.0192991
0.0184758
0.0176923
0.0169425
0.0162393
0.0155638
0.014927
0.0143029
0.0137029
0.0182383
0.0190326
0.0198279
0.0206232
0.0214158
0.0222021
0.0229777
0.0237376
0.0244761
0.0251871
0.0258642
0.0265007
0.0270898
0.0276246
0.0280982
0.0285038
0.0288351
0.0290872
0.0292587
0.0293617
0.0295112
0.0295479
0.0293125
0.0289509
0.0284802
0.0279071
0.0272372
0.0264779
0.0255911
0.0246733
0.0237283
0.0227723
0.0218214
0.020889
0.0199877
0.0191229
0.0182999
0.0175139
0.0167636
0.0160375
0.0153315
0.0207834
0.0216696
0.0225551
0.0234392
0.0243192
0.025191
0.0260501
0.0268909
0.0277075
0.0284935
0.0292419
0.0299456
0.0305974
0.0311898
0.0317153
0.0321668
0.0325372
0.0328208
0.0330153
0.0331314
0.0332829
0.033311
0.0330585
0.0326718
0.0321677
0.0315526
0.030833
0.0300164
0.0290727
0.0280425
0.0269875
0.025921
0.0248546
0.0238021
0.0227762
0.0217856
0.0208356
0.0199257
0.0190528
0.0182092
0.0173862
0.0238549
0.024848
0.0258384
0.0268257
0.0278069
0.0287776
0.029733
0.0306673
0.0315741
0.0324468
0.0332778
0.0340597
0.0347846
0.0354445
0.0360315
0.0365375
0.0369551
0.0372776
0.0375015
0.0376358
0.0377928
0.0378148
0.0375472
0.0371356
0.0365965
0.0359362
0.0351616
0.0342811
0.0333045
0.0321252
0.0309417
0.0297411
0.0285375
0.0273454
0.0261778
0.0250448
0.0239531
0.0229043
0.0218963
0.0209221
0.0199711
0.0276085
0.0287258
0.0298381
0.0309451
0.0320435
0.0331287
0.0341954
0.0352377
0.036249
0.0372222
0.0381495
0.0390227
0.0398335
0.0405732
0.0412334
0.0418053
0.0422805
0.0426516
0.0429138
0.0430739
0.0432418
0.0432626
0.0429843
0.0425505
0.0419771
0.0412702
0.040437
0.039487
0.0384317
0.0372256
0.0358389
0.0344596
0.0330841
0.0317207
0.0303823
0.0290799
0.0278216
0.026611
0.0254472
0.0243245
0.0232307
0.0322613
0.0335226
0.0347758
0.0360212
0.0372549
0.0384722
0.0396675
0.0408347
0.041967
0.0430571
0.0440967
0.0450771
0.0459893
0.0468241
0.0475723
0.0482243
0.048771
0.0492036
0.0495162
0.0497131
0.0499009
0.0499284
0.0496471
0.0491974
0.0485938
0.0478423
0.0469505
0.0459287
0.0447895
0.0435481
0.0420987
0.04046
0.0388483
0.0372593
0.035702
0.0341872
0.0327237
0.0313166
0.029967
0.0286711
0.0274179
0.0381229
0.0395499
0.0409651
0.0423691
0.0437578
0.0451266
0.0464697
0.0477809
0.0490532
0.0502789
0.0514497
0.0525562
0.0535887
0.0545374
0.0553921
0.0561426
0.0567785
0.05729
0.0576696
0.0579189
0.0581396
0.0581861
0.0579146
0.0574604
0.0568359
0.0560472
0.0551021
0.0540116
0.0527895
0.0514525
0.0500198
0.0484223
0.0465679
0.0446263
0.0427554
0.040951
0.0392198
0.0375687
0.0360073
0.0347263
0.0337722
0.0456452
0.0472611
0.0488595
0.0504427
0.0520068
0.0535472
0.0550584
0.0565341
0.0579673
0.05935
0.0606736
0.0619283
0.0631036
0.0641889
0.0651732
0.0660451
0.0667933
0.0674064
0.0678753
0.0681986
0.0684718
0.0685554
0.0683131
0.0678729
0.0672442
0.066433
0.0654474
0.0642988
0.0630022
0.061576
0.0600416
0.0584227
0.0567449
0.0549868
0.0531144
0.0512497
0.0494877
0.0479016
0.0465357
0.0452189
0.0438962
0.0555068
0.0573321
0.0591326
0.0609133
0.062671
0.0644019
0.0661009
0.0677617
0.0693772
0.0709395
0.0724396
0.0738673
0.0752113
0.07646
0.0776016
0.0786235
0.0795128
0.080257
0.0808446
0.0812714
0.0816238
0.0817708
0.081586
0.081187
0.0805803
0.079771
0.0787672
0.0775803
0.0762261
0.0747242
0.0730976
0.0713716
0.0695735
0.0677308
0.0658687
0.0640085
0.0621669
0.0603558
0.0585837
0.0568564
0.0551738
0.0687558
0.0708012
0.0728138
0.0748023
0.0767652
0.0786995
0.080601
0.0824637
0.0842807
0.0860438
0.0877439
0.0893703
0.090911
0.0923532
0.0936839
0.0948893
0.0959549
0.0968662
0.0976099
0.0981779
0.0986455
0.0988916
0.0988031
0.0984834
0.0979359
0.0971638
0.0961744
0.0949784
0.0935911
0.0920318
0.0903233
0.0884905
0.0865599
0.0845572
0.0825035
0.0804159
0.0783099
0.0762002
0.0741004
0.0720211
0.0699638
0.0870629
0.089315
0.0915285
0.0937164
0.095879
0.0980145
0.10012
0.10219
0.104218
0.106196
0.108114
0.109961
0.111724
0.113388
0.114941
0.116366
0.117646
0.118766
0.119709
0.120463
0.12109
0.121481
0.121538
0.121346
0.120906
0.120217
0.119285
0.118117
0.116727
0.115131
0.11335
0.111404
0.109318
0.107112
0.104806
0.102414
0.0999581
0.0974567
0.0949281
0.0923862
0.0898343
0.113181
0.11558
0.117939
0.120278
0.122598
0.1249
0.127181
0.129436
0.131661
0.133846
0.13598
0.138052
0.140049
0.141954
0.143751
0.145423
0.146951
0.148317
0.149501
0.150487
0.151319
0.151903
0.15216
0.152152
0.151874
0.151322
0.150498
0.149404
0.148048
0.146443
0.144603
0.142544
0.140286
0.137845
0.135238
0.132486
0.129613
0.126642
0.123595
0.120492
0.117338
0.151817
0.154223
0.156591
0.158954
0.161317
0.163681
0.166044
0.168404
0.170754
0.173084
0.175384
0.177641
0.179839
0.18196
0.183987
0.185899
0.187674
0.189293
0.190732
0.191972
0.193034
0.193844
0.194342
0.194564
0.194499
0.194138
0.193476
0.192511
0.191245
0.189681
0.187829
0.185697
0.1833
0.180651
0.177769
0.174673
0.17139
0.167945
0.164365
0.160677
0.15688
0.211371
0.213518
0.215615
0.217739
0.219894
0.222082
0.224303
0.226555
0.228831
0.23112
0.233411
0.235689
0.237936
0.240132
0.242257
0.244289
0.246204
0.247978
0.249588
0.251011
0.252248
0.253247
0.253964
0.254411
0.254572
0.254434
0.253988
0.253226
0.252142
0.250735
0.249005
0.246957
0.244595
0.241932
0.23898
0.235757
0.232285
0.228588
0.224694
0.220635
0.216374
0.307542
0.309026
0.310378
0.311782
0.313245
0.314774
0.316368
0.318025
0.31974
0.321502
0.323298
0.325114
0.326933
0.328735
0.3305
0.332208
0.333836
0.335364
0.33677
0.338034
0.339146
0.340076
0.340799
0.341311
0.341597
0.341647
0.341448
0.340992
0.340272
0.339281
0.338016
0.336474
0.334655
0.332563
0.3302
0.327577
0.324703
0.321594
0.318268
0.314747
0.310883
0.0573432
0.0126242
0.00487359
0.00270315
0.00200103
0.00180622
0.00183746
0.00200642
0.00228445
0.00265383
0.00308336
0.00351268
0.00385886
0.00404217
0.00402639
0.00383418
0.00354389
0.0586427
0.0135923
0.00519235
0.00284521
0.00207486
0.0018291
0.00179562
0.00186852
0.00200646
0.00218669
0.00238693
0.00257955
0.00273336
0.00282147
0.00283519
0.00278713
0.00271398
0.0597541
0.0141478
0.00543078
0.00297818
0.00215734
0.00187189
0.00179432
0.00181041
0.00187457
0.00196429
0.002064
0.00216017
0.00224094
0.00229842
0.00233246
0.00235092
0.00236941
0.0614965
0.0149634
0.0057368
0.00313421
0.00225329
0.00193157
0.00182237
0.0018047
0.00183068
0.00187819
0.00193503
0.00199355
0.00204908
0.00209975
0.00214724
0.00219612
0.00225327
0.0641796
0.0160342
0.0061177
0.00331483
0.0023636
0.00200739
0.00187438
0.00183595
0.00184177
0.00186961
0.00190868
0.00195351
0.00200163
0.00205259
0.00210784
0.00216956
0.0022421
0.0680251
0.0173145
0.00657957
0.00352661
0.00249074
0.00209896
0.001946
0.00189324
0.00188728
0.00190534
0.00193689
0.00197694
0.00202333
0.00207555
0.00213431
0.0022008
0.00227701
0.0731774
0.0188194
0.00711988
0.00376876
0.00263468
0.00220537
0.00203393
0.00196965
0.00195559
0.00196789
0.0019956
0.00203348
0.00207911
0.00213164
0.0021912
0.0022584
0.00233444
0.0797291
0.0205667
0.00773312
0.00404028
0.00279592
0.00232591
0.00213594
0.00206115
0.00204025
0.0020479
0.00207248
0.00210833
0.00215268
0.00220434
0.00226307
0.00232913
0.0024039
0.0877084
0.0225732
0.00841285
0.00433667
0.00297259
0.00246005
0.00225123
0.00216583
0.0021379
0.00214054
0.00216146
0.00219457
0.00223677
0.00228658
0.00234357
0.002408
0.00248091
0.0970565
0.0247456
0.00911739
0.0046454
0.00316322
0.00260885
0.00238058
0.00228346
0.00224734
0.00224387
0.0022601
0.00228952
0.00232871
0.002376
0.00243088
0.00249363
0.00256533
0.107625
0.0270189
0.00981013
0.00495684
0.00336784
0.00277439
0.0025258
0.00241521
0.00236917
0.00235809
0.00236838
0.00239308
0.00242849
0.00247277
0.00252537
0.00258663
0.0026578
0.119169
0.0292598
0.0104437
0.0052608
0.00358753
0.00295982
0.00268976
0.00256336
0.00250523
0.00248478
0.00248772
0.00250661
0.00253741
0.00257817
0.00262835
0.00268835
0.00275921
0.131331
0.0312881
0.0109698
0.00555284
0.00382682
0.00316981
0.00287603
0.00273064
0.0026578
0.00262601
0.00262009
0.00263198
0.00265732
0.00269406
0.00274168
0.00280058
0.00287155
0.143642
0.0328948
0.0113521
0.005839
0.00409465
0.00341035
0.00308844
0.00291983
0.00282919
0.00278387
0.00276752
0.00277128
0.00279043
0.00282279
0.00286786
0.00292585
0.00299733
0.155515
0.0338543
0.0115775
0.00613761
0.00440386
0.00368832
0.00333109
0.00313388
0.00302187
0.00296061
0.00293222
0.00292685
0.00293925
0.00296703
0.0030095
0.00306646
0.00313785
0.166242
0.033966
0.0116826
0.00648263
0.00476963
0.00401052
0.00360814
0.00337614
0.00323875
0.00315903
0.00311706
0.00310172
0.00310701
0.00313006
0.00316959
0.00322451
0.00329329
0.175022
0.0332119
0.0117664
0.00691761
0.00520549
0.00438258
0.00392356
0.00365018
0.00348339
0.0033827
0.00332577
0.00329982
0.00329765
0.00331551
0.00335121
0.00340262
0.00346651
0.18101
0.0318626
0.0119851
0.0074805
0.00571889
0.00480786
0.00428088
0.00395982
0.00375981
0.00363584
0.00356261
0.00352523
0.00351476
0.00352604
0.0035558
0.00360124
0.00366027
0.183372
0.0305154
0.0124902
0.00818245
0.00630824
0.00528755
0.00468288
0.00430845
0.00407178
0.00392248
0.00383146
0.00378114
0.00376043
0.00376242
0.00378268
0.00381756
0.00386782
0.181414
0.030022
0.0133575
0.00900501
0.00696541
0.00581951
0.00512972
0.0046975
0.00442143
0.00424478
0.00413399
0.0040682
0.00403413
0.00402342
0.00403043
0.0040502
0.00408067
0.174588
0.0314334
0.0145969
0.00992389
0.00768128
0.00639955
0.00561904
0.00512567
0.00480777
0.00460138
0.00446798
0.00438343
0.00433246
0.00430557
0.00429665
0.00430006
0.00430404
0.166569
0.0329553
0.0157897
0.0108145
0.00838677
0.00698206
0.00611961
0.00557112
0.00521492
0.00498018
0.00482393
0.00471929
0.00464941
0.0046041
0.00457721
0.00456513
0.00456754
0.158004
0.0341544
0.0168147
0.0116207
0.00904245
0.00753894
0.00661168
0.00601986
0.00563286
0.00537398
0.00519663
0.00507191
0.00498206
0.00491653
0.00486898
0.00483573
0.00482302
0.149283
0.0348946
0.0176427
0.0123073
0.00962252
0.00805282
0.00708442
0.0064656
0.0060582
0.00578105
0.00558519
0.00544078
0.00533001
0.00524282
0.0051736
0.00511715
0.00505898
0.140833
0.035133
0.0182545
0.0128608
0.0101217
0.00852439
0.00754217
0.00691424
0.00649696
0.00620669
0.00599379
0.00582888
0.00569514
0.00558394
0.00549204
0.00541879
0.00536119
0.132935
0.0349696
0.0186748
0.0133016
0.0105629
0.0089768
0.00800615
0.00738378
0.00696353
0.0066619
0.00643072
0.00624253
0.00608229
0.00594305
0.0058233
0.00572529
0.00566264
0.126038
0.0345894
0.0189705
0.0136837
0.0109947
0.00945142
0.00850974
0.00790006
0.0074774
0.00716138
0.0069074
0.00669098
0.00649941
0.00632751
0.00617507
0.00604349
0.00592488
0.12037
0.0341524
0.019231
0.0140831
0.0114807
0.00999887
0.00909173
0.00849232
0.00806078
0.00772251
0.00743786
0.00718599
0.00695654
0.00674595
0.00655604
0.00639341
0.00626285
0.115981
0.0337897
0.0195581
0.0145867
0.0120903
0.0106724
0.00979259
0.00919165
0.00873814
0.00836508
0.00803858
0.00774152
0.00746556
0.0072079
0.00697094
0.00676455
0.00661978
0.11277
0.0336137
0.0200614
0.0152862
0.0128952
0.0115269
0.0106548
0.0100316
0.00953652
0.00911118
0.00872779
0.00837272
0.00803911
0.00772434
0.00743007
0.00716375
0.00693613
0.110522
0.0337367
0.0208627
0.016282
0.0139728
0.0126224
0.0117255
0.0110495
0.0104856
0.0099846
0.00952439
0.00909433
0.00868855
0.00830426
0.0079425
0.00761183
0.0073323
0.108953
0.034301
0.0221107
0.0176915
0.0154127
0.0140279
0.0130583
0.0122871
0.0116177
0.0110099
0.0104467
0.00991952
0.00942297
0.00895357
0.00851059
0.00810112
0.00776866
0.107749
0.0355207
0.0239989
0.0196602
0.0173246
0.015827
0.014716
0.0137909
0.012967
0.0122117
0.0115116
0.0108592
0.010249
0.00967596
0.00913679
0.00863175
0.00817612
0.106613
0.0377344
0.0267891
0.022377
0.0198478
0.0181216
0.0167724
0.0156137
0.0145701
0.0136143
0.0127344
0.0119223
0.0111706
0.0104724
0.00982146
0.00921337
0.00865587
0.105288
0.0414658
0.0308444
0.0260967
0.023164
0.0210399
0.0193168
0.0178159
0.0164668
0.0152431
0.0141302
0.0131164
0.0121906
0.0113422
0.010561
0.00983667
0.0091787
0.103544
0.0475113
0.0366879
0.0311772
0.0275189
0.0247497
0.022461
0.0204707
0.0187039
0.0171265
0.0157154
0.01445
0.0133122
0.012285
0.0113526
0.0104967
0.00968916
0.101139
0.0571029
0.0451176
0.0381465
0.0332628
0.0294806
0.0263534
0.0236726
0.0213404
0.0193008
0.0175111
0.0159348
0.0145407
0.0133019
0.0121948
0.011194
0.0102459
0.0978215
0.0722886
0.0574307
0.0478314
0.040923
0.0355654
0.0312024
0.0275515
0.024457
0.0218153
0.019547
0.0175877
0.0158851
0.0143968
0.0130874
0.0119234
0.0108261
0.0933268
0.0967976
0.0758596
0.0616026
0.0513352
0.0435104
0.0373152
0.0322949
0.0281683
0.02474
0.0218653
0.0194336
0.0173596
0.0155768
0.0140328
0.0126833
0.011429
0.0875749
0.137901
0.104545
0.0818752
0.0658959
0.054124
0.0451651
0.0381834
0.0326416
0.0281747
0.0245252
0.0215071
0.0189837
0.0168527
0.0150363
0.0134744
0.01207
0.00713116
0.0251272
0.0927067
0.247629
0.42757
0.510873
0.45551
0.297392
0.158922
0.155066
0.162325
0.159439
0.142434
0.112381
0.0767141
0.0454263
0.0241366
0.0122172
0.00647669
0.00402952
0.0069795
0.0238477
0.0859155
0.226945
0.400096
0.509144
0.516101
0.398777
0.214979
0.198513
0.212718
0.215248
0.198585
0.163378
0.117027
0.0719588
0.0385805
0.0188453
0.00911131
0.0049768
0.00657457
0.0214244
0.07586
0.201345
0.366636
0.495791
0.553009
0.499941
0.314947
0.260497
0.28254
0.293925
0.278917
0.23633
0.175579
0.112295
0.0617322
0.0298471
0.0134992
0.00649387
0.00602841
0.0182524
0.0634659
0.171381
0.325987
0.46916
0.562384
0.574557
0.462746
0.353914
0.369585
0.39616
0.390324
0.341192
0.260487
0.171707
0.0971604
0.0473962
0.0206424
0.00892181
0.00549513
0.0149017
0.0501582
0.138622
0.277993
0.427456
0.546747
0.598475
0.586789
0.486971
0.4696
0.514453
0.531382
0.486269
0.382513
0.258332
0.149529
0.0742269
0.0319006
0.012761
0.00511443
0.0119405
0.0375955
0.105754
0.2245
0.370629
0.505825
0.592488
0.631393
0.606342
0.576084
0.634162
0.690232
0.66983
0.551833
0.381362
0.225057
0.113693
0.0489716
0.0186827
0.0049752
0.00977206
0.0272225
0.0760201
0.169923
0.301814
0.441539
0.549426
0.605319
0.644994
0.656519
0.7287
0.847014
0.878961
0.768397
0.553241
0.332042
0.169772
0.0738898
0.0275423
0.00511546
0.00857209
0.0199006
0.0522502
0.120199
0.228161
0.359394
0.47849
0.554697
0.608866
0.665318
0.759553
0.969487
1.09678
1.02147
0.775662
0.480443
0.248685
0.108923
0.0403459
0.00555105
0.00834181
0.0158249
0.0360575
0.0808796
0.160002
0.270117
0.386997
0.477857
0.534547
0.604818
0.724972
1.00041
1.2977
1.2983
1.04214
0.674455
0.356052
0.157184
0.058189