/*--------------------------------*- C++ -*----------------------------------*\
  =========                 |
  \\      /  F ield         | OpenFOAM: The Open Source CFD Toolbox
   \\    /   O peration     | Website:  https://openfoam.org
    \\  /    A nd           | Version:  6
     \\/     M anipulation  |
\*---------------------------------------------------------------------------*/
FoamFile
{
    version     2.0;
    format      ascii;
    class       surfaceVectorField;
    location    "4.99";
    object      Uf;
}
// * * * * * * * * * * * * * * * * * * * * * * * * * * * * * * * * * * * * * //

dimensions      [0 1 -1 0 0 0 0];

internalField   nonuniform List<vector> 
8193
(
(6.22083 0.105693 -1.40056e-19)
(6.27674 0.069537 1.25851e-19)
(5.79847 0.123025 -6.92498e-19)
(6.42425 0.0991944 8.80121e-19)
(6.47037 0.0973032 3.44964e-20)
(6.51125 0.108553 6.95521e-19)
(6.53798 0.0972761 2.20893e-20)
(6.56687 0.126126 -1.48775e-20)
(6.58548 0.0958174 6.43346e-21)
(6.62934 0.157068 0)
(6.65105 0.111169 0)
(6.71816 0.206148 1.42178e-20)
(6.74523 0.141192 8.39901e-20)
(6.8443 0.282262 5.83889e-19)
(6.88129 0.191474 -8.81475e-20)
(7.01079 0.397832 -1.2475e-20)
(7.0647 0.271083 -5.9078e-22)
(7.20148 0.566116 8.96965e-22)
(7.29039 0.396459 7.35692e-20)
(7.35654 0.781008 -1.00786e-21)
(7.50054 0.570727 9.80142e-20)
(7.38505 1.01693 0)
(7.58615 0.763045 -7.02845e-20)
(7.23821 1.28886 9.88341e-20)
(7.51304 0.964784 7.16985e-20)
(6.87388 1.56456 1.47967e-18)
(7.22509 1.16691 3.25992e-19)
(6.27912 1.8317 -3.66391e-20)
(6.69577 1.35047 -2.89549e-19)
(5.49512 2.09466 1.26021e-18)
(5.96902 1.53527 9.72188e-20)
(4.60025 2.35423 -7.06182e-20)
(5.1057 1.74117 -3.01474e-19)
(3.68876 2.59764 1.37094e-22)
(4.18871 1.96952 3.68148e-19)
(2.84789 2.81006 -9.76604e-21)
(3.30357 2.22142 -2.17441e-19)
(2.1639 2.95726 -6.83692e-21)
(2.51102 2.47672 1.54853e-19)
(1.70336 3.01742 -6.82504e-21)
(1.89598 2.65113 -4.08345e-20)
(1.4917 2.9956 8.03929e-22)
(1.51718 2.72147 0)
(1.52126 2.88781 -3.09788e-20)
(1.37573 2.69103 1.27403e-21)
(1.73352 2.72033 4.22541e-22)
(1.47231 2.57241 8.24648e-21)
(2.05458 2.53861 1.103e-21)
(1.73198 2.40596 5.80631e-21)
(2.42902 2.40827 -3.35298e-20)
(2.11757 2.23975 -9.68445e-20)
(2.81863 2.32801 1.30848e-18)
(2.53617 2.11529 5.6494e-20)
(3.19886 2.26597 2.62369e-20)
(2.93645 2.02282 -5.12739e-20)
(3.54842 2.16828 5.85123e-20)
(3.28387 1.91721 -2.81948e-20)
(3.87044 2.01233 -3.107e-18)
(3.57182 1.76728 7.22419e-20)
(4.21542 1.83551 -7.13932e-20)
(3.86041 1.60354 2.82369e-19)
(4.61889 1.67255 0)
(4.22096 1.47884 -1.37139e-19)
(5.03483 1.51276 -5.49655e-20)
(4.63638 1.3839 0)
(5.38292 1.33065 1.7799e-18)
(5.02295 1.26868 -1.47373e-19)
(5.62678 1.12424 -2.67653e-18)
(5.31948 1.11283 2.44995e-19)
(5.78239 0.912637 -1.74188e-19)
(5.52469 0.93418 -2.60476e-19)
(5.88144 0.713539 1.93876e-18)
(5.66484 0.75563 -5.25176e-20)
(5.94673 0.532417 1.49753e-19)
(5.76287 0.588429 7.89281e-20)
(5.98677 0.364856 -1.43028e-18)
(5.82978 0.435579 7.02787e-20)
(5.99198 0.207498 -1.61155e-20)
(5.87517 0.290872 -6.81973e-20)
(5.8904 0.0512876 -1.23607e-18)
(5.91243 0.145918 3.76321e-20)
(5.8292 0.0336752 -3.73222e-19)
(5.61222 -0.0790322 -7.33613e-20)
(6.48711 0.0600462 0)
(6.41483 0.0439708 0)
(6.35767 -0.0137134 0)
(6.53284 0.0626845 1.43785e-20)
(6.49441 0.06065 0)
(6.57575 0.0546415 1.0476e-20)
(6.54938 0.0441575 -7.21341e-20)
(6.63922 0.0544045 -3.75005e-21)
(6.61157 0.0289878 1.27236e-19)
(6.73375 0.066946 8.41408e-20)
(6.6991 0.0300708 -3.37325e-19)
(6.87201 0.100204 8.15253e-19)
(6.82455 0.0452643 2.67879e-19)
(7.06216 0.162285 -8.77541e-20)
(6.99814 0.0782491 -1.23862e-19)
(7.29835 0.261738 1.17659e-20)
(7.22003 0.137891 -7.16195e-20)
(7.53225 0.402051 -9.1192e-22)
(7.46853 0.23716 -1.9476e-21)
(7.66627 0.565687 -6.92618e-20)
(7.65915 0.362764 -3.45393e-20)
(7.64917 0.723302 1.24383e-19)
(7.69391 0.486097 -1.52931e-19)
(7.45152 0.879645 2.98892e-19)
(7.57479 0.586792 4.7976e-19)
(7.01769 1.00907 3.6823e-19)
(7.21961 0.652653 3.45534e-19)
(6.37355 1.1379 -1.72017e-19)
(6.66025 0.705049 -5.52858e-19)
(5.57826 1.29713 -2.04626e-19)
(5.94663 0.7907 9.03132e-20)
(4.69702 1.49832 -8.40669e-19)
(5.12083 0.928898 -2.19163e-19)
(3.8028 1.72673 6.04075e-19)
(4.24325 1.12427 3.3747e-19)
(2.96601 1.95689 -2.02635e-19)
(3.38688 1.37825 -5.14065e-20)
(2.2545 2.18203 1.04986e-19)
(2.61937 1.64276 -7.76988e-20)
(1.73012 2.35051 -2.65087e-20)
(1.99031 1.86706 -6.13916e-22)
(1.43239 2.40927 4.71848e-22)
(1.55316 2.00965 0)
(1.37587 2.36341 1.46494e-20)
(1.34502 2.04842 -1.06858e-21)
(1.52622 2.26397 8.93166e-21)
(1.39883 1.99914 3.38204e-20)
(1.83853 2.12738 -9.49469e-20)
(1.6185 1.90917 -4.72356e-21)
(2.2459 2.01684 3.54943e-19)
(2.00487 1.8156 -2.41296e-19)
(2.65558 1.93085 5.89542e-21)
(2.42993 1.72841 3.2974e-19)
(3.01322 1.82437 9.94389e-19)
(2.81446 1.62309 -2.11297e-19)
(3.30805 1.67049 2.15361e-18)
(3.13185 1.48131 -3.05731e-19)
(3.58275 1.50386 2.16032e-18)
(3.40691 1.32421 2.56363e-19)
(3.90314 1.38119 -1.36811e-18)
(3.70728 1.21053 1.35492e-19)
(4.2862 1.30665 -1.37192e-19)
(4.07618 1.16337 8.21247e-20)
(4.67933 1.23491 -9.17014e-20)
(4.47914 1.13762 5.38134e-20)
(5.01701 1.12843 7.20129e-19)
(4.84441 1.07803 -1.39058e-19)
(5.27247 0.987874 -7.03899e-20)
(5.13036 0.972175 8.93408e-20)
(5.45609 0.833201 9.75563e-19)
(5.33966 0.839782 1.32061e-20)
(5.58759 0.680958 1.26906e-19)
(5.49269 0.701309 -7.38909e-20)
(5.68158 0.537343 0)
(5.60547 0.567385 -1.88733e-19)
(5.74873 0.402951 0)
(5.68503 0.443177 1.83383e-19)
(5.80108 0.2784 -1.49889e-20)
(5.73962 0.324143 -4.83826e-20)
(5.84944 0.159821 -3.34321e-19)
(5.77828 0.203938 -9.74797e-21)
(5.78912 0.114245 -2.45064e-19)
(5.79644 0.0900279 -1.84097e-18)
(6.45206 0.0406949 0)
(6.4383 0.0219887 0)
(6.40969 0.0392343 0)
(6.5057 0.00960624 -5.91106e-20)
(6.48971 0.00215181 0)
(6.57751 -0.0137496 7.26893e-20)
(6.55928 -0.0307015 -2.57977e-19)
(6.66724 -0.0213752 4.49998e-19)
(6.64198 -0.0533716 1.46208e-19)
(6.78734 -0.0172401 -7.85076e-19)
(6.74984 -0.0659886 -9.72239e-20)
(6.95405 0.00240269 1.29417e-19)
(6.90303 -0.0702859 3.78801e-19)
(7.17001 0.0415219 -3.61038e-20)
(7.10519 -0.063096 -2.18739e-19)
(7.4196 0.105824 -1.39907e-20)
(7.35155 -0.034341 -1.40013e-20)
(7.63626 0.198675 -3.55812e-20)
(7.60332 0.0195182 -2.04231e-20)
(7.72006 0.282559 -1.87627e-20)
(7.73836 0.0726002 3.88315e-20)
(7.64723 0.348616 2.68347e-19)
(7.711 0.0940158 -2.5417e-19)
(7.37569 0.369344 6.68111e-19)
(7.50776 0.0599829 5.53323e-19)
(6.89587 0.36458 -1.49042e-19)
(7.09346 -0.0137643 1.18513e-19)
(6.26582 0.387776 -3.33922e-19)
(6.53882 -0.0668329 -1.1378e-19)
(5.52299 0.479914 7.37822e-20)
(5.87453 -0.0474905 -3.01401e-19)
(4.69997 0.648596 -3.6335e-20)
(5.11308 0.049412 0)
(3.85063 0.857184 1.23503e-19)
(4.28326 0.222256 -3.4993e-19)
(3.05318 1.08468 -6.60855e-20)
(3.46778 0.460986 3.68839e-19)
(2.36344 1.31957 -1.7432e-19)
(2.73372 0.714866 -4.11938e-19)
(1.82167 1.5147 2.2465e-20)
(2.10134 0.948358 9.31225e-20)
(1.47393 1.63377 -1.80944e-21)
(1.62905 1.13436 1.90842e-20)
(1.37156 1.66949 1.78049e-20)
(1.36959 1.25028 -3.32771e-20)
(1.49674 1.6468 2.15016e-20)
(1.37763 1.27949 3.07637e-20)
(1.78931 1.60451 -1.64962e-19)
(1.56968 1.27398 2.54958e-20)
(2.17922 1.55741 2.43811e-19)
(1.93734 1.26976 -3.00226e-19)
(2.56518 1.49427 -3.49112e-19)
(2.3435 1.23465 3.37155e-19)
(2.89708 1.38323 -4.07347e-19)
(2.69439 1.1425 -1.26627e-19)
(3.18512 1.24027 1.4372e-18)
(2.98909 1.01357 -3.69072e-19)
(3.48 1.12353 9.26734e-20)
(3.27283 0.907048 2.47893e-19)
(3.82559 1.07098 1.1933e-18)
(3.59802 0.870811 -3.70325e-20)
(4.21319 1.05833 2.71892e-19)
(3.9745 0.891338 -6.54301e-20)
(4.58934 1.03237 6.93838e-21)
(4.35928 0.910699 -3.30614e-19)
(4.90616 0.96419 -4.73467e-20)
(4.69928 0.886197 5.09982e-20)
(5.15052 0.860293 2.60847e-19)
(4.97088 0.816107 1.99293e-19)
(5.33389 0.740183 -9.10226e-19)
(5.17948 0.720233 2.61253e-19)
(5.47192 0.61836 -3.87266e-19)
(5.34006 0.615414 -2.49585e-19)
(5.57455 0.501387 8.05725e-19)
(5.46405 0.510411 6.31612e-20)
(5.64591 0.390823 1.35785e-19)
(5.55638 0.411371 -2.93765e-19)
(5.68964 0.284076 -3.33021e-20)
(5.62154 0.3163 2.4339e-19)
(5.71445 0.179421 3.23482e-20)
(5.66656 0.217683 1.52044e-20)
(5.68815 0.136775 1.70422e-20)
(5.73112 0.08644 -5.35768e-20)
(6.46008 -0.0363798 0)
(6.43152 -0.0428363 0)
(6.41488 -0.00971491 0)
(6.52423 -0.0657718 -1.68045e-19)
(6.48913 -0.0732383 -6.88692e-20)
(6.60641 -0.0965422 -8.1648e-19)
(6.56421 -0.118744 -1.66915e-19)
(6.71096 -0.120283 -3.45722e-19)
(6.66142 -0.15566 2.47673e-20)
(6.85428 -0.137756 4.80612e-19)
(6.78814 -0.189957 2.45294e-19)
(7.04817 -0.145934 2.75549e-19)
(6.9648 -0.223453 2.33913e-19)
(7.28586 -0.143613 -1.92566e-19)
(7.18523 -0.251098 -1.92759e-19)
(7.54094 -0.12605 -2.04375e-20)
(7.4418 -0.262539 5.88573e-20)
(7.722 -0.102408 5.60298e-20)
(7.6637 -0.274862 -3.48541e-20)
(7.74039 -0.119405 -1.53203e-19)
(7.70597 -0.3239 3.3401e-20)
(7.58133 -0.186115 -2.13549e-19)
(7.58481 -0.434633 -2.33842e-19)
(7.23343 -0.314428 1.2242e-19)
(7.28804 -0.611212 1.2233e-19)
(6.74173 -0.434904 2.93432e-19)
(6.85774 -0.801009 -9.81697e-20)
(6.15038 -0.489087 -1.73088e-20)
(6.35007 -0.931752 2.91123e-19)
(5.46933 -0.450464 -3.74469e-19)
(5.75936 -0.965821 -3.73765e-19)
(4.70612 -0.325645 -3.13168e-19)
(5.07118 -0.907801 -4.32428e-19)
(3.91008 -0.138046 -1.40548e-19)
(4.30618 -0.765451 2.35557e-19)
(3.15513 0.0951334 2.66625e-20)
(3.55071 -0.55865 4.24077e-19)
(2.48012 0.335021 -7.33012e-20)
(2.84945 -0.321021 -3.97795e-19)
(1.92218 0.552961 1.00066e-19)
(2.22694 -0.079937 2.55983e-19)
(1.53721 0.723464 -5.62097e-20)
(1.74111 0.139959 1.89162e-20)
(1.39104 0.842601 3.29216e-20)
(1.45459 0.317679 -2.7159e-20)
(1.49449 0.900017 5.5931e-20)
(1.41489 0.43328 1.11331e-20)
(1.77056 0.952279 -2.02292e-19)
(1.59062 0.525028 1.33783e-19)
(2.12424 0.964845 3.40381e-20)
(1.91861 0.600004 -3.56597e-19)
(2.47155 0.918575 1.04349e-19)
(2.27784 0.610912 3.47653e-19)
(2.77568 0.833185 -8.89221e-20)
(2.60058 0.5589 1.96453e-19)
(3.06239 0.748621 -8.94302e-20)
(2.89146 0.495003 -1.90572e-19)
(3.37712 0.716917 1.40399e-19)
(3.199 0.481123 9.98541e-20)
(3.73575 0.744573 -7.85506e-19)
(3.5476 0.53439 1.19035e-19)
(4.11217 0.788211 -6.34622e-19)
(3.92082 0.614894 -3.67287e-19)
(4.46278 0.801854 1.24446e-19)
(4.27949 0.670351 1.44792e-19)
(4.75845 0.770338 6.1261e-19)
(4.59102 0.676867 4.50757e-20)
(4.99448 0.704626 1.99641e-19)
(4.84549 0.641321 -4.67989e-20)
(5.17996 0.621677 -3.18148e-20)
(5.04907 0.581535 3.93803e-19)
(5.32558 0.533067 2.16336e-19)
(5.21196 0.51045 -4.14482e-19)
(5.43896 0.444375 -7.37977e-19)
(5.34173 0.434987 2.4901e-19)
(5.52471 0.358167 2.36561e-19)
(5.44169 0.361287 -4.72788e-19)
(5.58581 0.276126 2.75336e-19)
(5.51624 0.288745 5.34652e-19)
(5.62451 0.199001 0)
(5.57197 0.21217 -1.88741e-19)
(5.60078 0.150748 5.09211e-19)
(5.64331 0.123582 0)
(6.44637 -0.109828 -6.90257e-20)
(6.41078 -0.115643 -1.01615e-19)
(6.39411 -0.0687782 4.40248e-19)
(6.51795 -0.152442 -6.84187e-20)
(6.47577 -0.160934 6.11265e-19)
(6.61054 -0.198547 0)
(6.55522 -0.224024 0)
(6.73051 -0.245005 0)
(6.66202 -0.280554 -9.42369e-20)
(6.89408 -0.290356 0)
(6.80484 -0.341162 -3.39877e-19)
(7.10295 -0.335633 0)
(6.99393 -0.40979 5.8118e-19)
(7.35 -0.378357 5.89116e-20)
(7.22312 -0.479072 3.51816e-20)
(7.59818 -0.413224 4.37895e-20)
(7.47648 -0.547727 -5.77573e-19)
(7.69722 -0.497685 -3.13068e-20)
(7.59235 -0.650696 -1.44675e-20)
(7.60008 -0.638862 -4.87683e-20)
(7.51775 -0.817277 1.31096e-20)
(7.33835 -0.852575 -6.3072e-20)
(7.29027 -1.05696 -5.26425e-19)
(6.9495 -1.09427 -9.81017e-20)
(6.94691 -1.3421 -1.26485e-19)
(6.49305 -1.28962 -9.73933e-20)
(6.55314 -1.60421 2.52971e-19)
(5.97358 -1.39544 0)
(6.12076 -1.78652 3.0615e-19)
(5.36749 -1.40376 -4.31649e-19)
(5.60926 -1.86961 -3.13359e-19)
(4.67494 -1.32712 5.51635e-20)
(4.99379 -1.85888 -4.28379e-19)
(3.94751 -1.17584 7.63501e-19)
(4.30289 -1.7639 7.70725e-19)
(3.24481 -0.971237 -5.27675e-22)
(3.61253 -1.60482 -1.16866e-20)
(2.59745 -0.741731 -1.09146e-20)
(2.95678 -1.39775 -5.22128e-19)
(2.04612 -0.513128 1.7709e-19)
(2.35999 -1.16274 1.92849e-19)
(1.65901 -0.302836 3.25485e-21)
(1.88283 -0.921078 3.57371e-20)
(1.50249 -0.11376 3.25526e-21)
(1.59231 -0.6909 6.13948e-21)
(1.58196 0.0460529 1.14095e-20)
(1.52954 -0.480866 -2.77338e-20)
(1.81539 0.188774 -1.5645e-19)
(1.68437 -0.294101 -3.93839e-20)
(2.11188 0.261359 1.32897e-19)
(1.95425 -0.152933 -6.23955e-20)
(2.41545 0.266279 4.03957e-19)
(2.25989 -0.0820993 2.0739e-19)
(2.71042 0.249369 -3.08843e-20)
(2.56215 -0.0511598 1.9494e-19)
(3.01622 0.266418 -2.26857e-21)
(2.86803 -0.00530137 -1.0073e-19)
(3.35494 0.335764 8.81999e-20)
(3.1981 0.08849 4.12563e-19)
(3.71802 0.435085 -9.80323e-20)
(3.55358 0.218335 6.99654e-20)
(4.07453 0.520943 4.18504e-19)
(3.9085 0.341115 -1.85559e-20)
(4.39533 0.564858 2.7189e-19)
(4.2354 0.422537 -7.9611e-21)
(4.66675 0.564787 -4.48205e-19)
(4.5182 0.455826 2.67232e-19)
(4.88968 0.533512 1.45212e-19)
(4.7547 0.452076 -1.04601e-18)
(5.0712 0.484779 -2.87364e-19)
(4.95021 0.425634 8.95974e-19)
(5.21811 0.427705 -3.83463e-19)
(5.11152 0.385981 -2.6622e-19)
(5.33505 0.366799 0)
(5.24319 0.338939 -3.72443e-19)
(5.42558 0.304499 2.59394e-19)
(5.34702 0.290367 3.61784e-19)
(5.49299 0.243356 -3.26715e-19)
(5.42775 0.239748 2.59995e-19)
(5.53901 0.184573 3.15552e-19)
(5.4916 0.183621 1.88608e-19)
(5.52859 0.138388 8.06853e-19)
(5.56406 0.127168 7.52574e-19)
(6.42273 -0.198236 -1.06017e-18)
(6.37454 -0.201709 9.60853e-19)
(6.36274 -0.143239 7.47737e-19)
(6.50037 -0.256158 6.76144e-19)
(6.44478 -0.26108 -4.54079e-20)
(6.59943 -0.320425 -9.43946e-20)
(6.52568 -0.342636 0)
(6.72981 -0.392202 -4.339e-19)
(6.63663 -0.42263 -2.16563e-19)
(6.90367 -0.4706 2.2459e-20)
(6.78783 -0.514266 -1.12194e-19)
(7.11848 -0.561845 9.12674e-19)
(6.97493 -0.621593 6.2611e-19)
(7.37404 -0.656232 -2.94992e-19)
(7.20826 -0.741208 -2.22853e-19)
(7.52219 -0.78335 -3.47491e-19)
(7.37842 -0.887527 -4.33549e-19)
(7.46974 -0.975437 -1.71252e-21)
(7.35742 -1.08755 -5.9744e-20)
(7.26499 -1.23354 -1.17128e-19)
(7.17661 -1.35429 2.13727e-19)
(6.94368 -1.54481 -2.58121e-19)
(6.87798 -1.68208 -9.77121e-20)
(6.57971 -1.8499 2.62732e-19)
(6.54351 -2.02667 -3.04304e-19)
(6.1978 -2.09126 7.2457e-19)
(6.21518 -2.32938 6.73854e-19)
(5.76199 -2.24333 1.31643e-19)
(5.86082 -2.55498 3.0324e-19)
(5.23106 -2.30503 -3.10969e-19)
(5.4217 -2.69025 -3.10356e-19)
(4.61072 -2.28473 2.23478e-19)
(4.87664 -2.73285 0)
(3.9559 -2.18553 6.78851e-21)
(4.26378 -2.69348 1.68845e-20)
(3.31504 -2.0253 -5.27283e-19)
(3.64398 -2.58679 4.68456e-19)
(2.71484 -1.8224 -2.75313e-19)
(3.04649 -2.42032 -4.21471e-19)
(2.20163 -1.59278 8.10408e-20)
(2.49596 -2.20229 1.58691e-19)
(1.84401 -1.34501 3.38898e-20)
(2.05465 -1.9438 3.54101e-20)
(1.68969 -1.08547 -2.92836e-20)
(1.78558 -1.65852 -1.01082e-21)
(1.73033 -0.830265 -1.26313e-19)
(1.7214 -1.36909 -5.49239e-20)
(1.9066 -0.623201 7.56658e-20)
(1.83641 -1.11252 9.0831e-20)
(2.1503 -0.482964 1.04787e-19)
(2.05155 -0.90785 -8.1653e-20)
(2.42408 -0.389726 0)
(2.31621 -0.74974 -1.0213e-19)
(2.72158 -0.29435 0)
(2.61066 -0.604194 -1.12774e-19)
(3.04533 -0.164303 3.15429e-19)
(2.92959 -0.440085 -4.65323e-19)
(3.39017 -0.00813859 1.66538e-19)
(3.26598 -0.256667 5.38162e-19)
(3.73779 0.140901 -2.86556e-20)
(3.60661 -0.0768315 3.01148e-19)
(4.06432 0.25475 -5.48079e-19)
(3.93144 0.0710546 2.73489e-19)
(4.35404 0.323016 -2.2201e-19)
(4.22477 0.172118 -3.15312e-19)
(4.60228 0.351353 -5.63765e-19)
(4.48013 0.2298 4.40522e-19)
(4.8116 0.351512 -2.11592e-19)
(4.69835 0.255248 -1.69731e-18)
(4.9869 0.334067 6.18768e-19)
(4.88341 0.259006 1.06847e-18)
(5.13231 0.306006 -2.5497e-19)
(5.03976 0.248057 2.17665e-21)
(5.25068 0.271093 1.29783e-19)
(5.1697 0.227596 -6.00397e-19)
(5.34526 0.232238 3.62659e-19)
(5.27419 0.202395 7.49145e-19)
(5.41889 0.192759 3.69853e-19)
(5.35871 0.172264 -2.58392e-20)
(5.47211 0.152699 3.43297e-19)
(5.42734 0.13669 3.76318e-19)
(5.47055 0.108371 6.30279e-19)
(5.50407 0.111801 -2.44654e-19)
(6.38021 -0.295471 1.876e-18)
(6.31913 -0.295129 8.41117e-19)
(6.31705 -0.226853 4.26346e-19)
(6.45832 -0.370334 -7.17425e-19)
(6.38973 -0.368361 -1.15865e-18)
(6.55764 -0.456568 -1.2742e-19)
(6.46667 -0.46901 4.53699e-19)
(6.69111 -0.557219 9.94583e-20)
(6.57592 -0.575754 3.56204e-19)
(6.86284 -0.67305 2.07308e-19)
(6.7243 -0.701496 -2.82642e-19)
(7.07901 -0.810885 -1.03807e-19)
(6.90185 -0.85038 1.15122e-19)
(7.24759 -0.974234 -1.72862e-19)
(7.08068 -1.02611 1.66677e-19)
(7.25191 -1.19424 -1.44905e-19)
(7.125 -1.24658 2.46978e-20)
(7.09431 -1.46776 1.40353e-20)
(6.99615 -1.52052 6.04864e-20)
(6.80926 -1.8013 5.24011e-20)
(6.72761 -1.85218 -1.61142e-20)
(6.48346 -2.16252 -1.62356e-19)
(6.40806 -2.22447 -1.68369e-19)
(6.17545 -2.50068 6.6443e-21)
(6.11707 -2.59373 -4.19385e-19)
(5.86976 -2.7789 2.5344e-19)
(5.85772 -2.91926 2.5312e-19)
(5.50807 -2.97997 0)
(5.57153 -3.18071 -2.13936e-19)
(5.04868 -3.0971 0)
(5.19932 -3.36308 4.05045e-21)
(4.50386 -3.1324 -2.04473e-19)
(4.72506 -3.45665 1.34794e-19)
(3.92731 -3.0901 4.38558e-19)
(4.18949 -3.47253 1.22367e-19)
(3.35884 -2.97474 5.16022e-19)
(3.64891 -3.41426 4.43721e-19)
(2.82261 -2.80148 3.03324e-20)
(3.12039 -3.28471 -3.08053e-19)
(2.36746 -2.57087 1.41948e-19)
(2.63873 -3.08332 -3.63663e-21)
(2.05052 -2.28651 6.58261e-22)
(2.25974 -2.81091 1.5728e-20)
(1.90405 -1.96733 -2.66418e-20)
(2.03023 -2.48655 -1.3697e-20)
(1.9181 -1.65531 1.01882e-20)
(1.96477 -2.14939 -8.58551e-20)
(2.05165 -1.38957 -1.35764e-20)
(2.04291 -1.83755 -4.06371e-20)
(2.26216 -1.16422 -1.83717e-19)
(2.22215 -1.55909 1.87822e-19)
(2.52428 -0.956733 -2.14015e-19)
(2.46456 -1.30032 1.42643e-19)
(2.82455 -0.744899 -5.74792e-19)
(2.75074 -1.04643 -5.09064e-19)
(3.14883 -0.525563 -2.02639e-19)
(3.06367 -0.795106 -1.0904e-19)
(3.47834 -0.315699 4.43561e-19)
(3.38428 -0.55927 2.31096e-19)
(3.79605 -0.139033 4.29018e-19)
(3.69496 -0.355252 6.72615e-19)
(4.08834 -0.00658833 3.98301e-19)
(3.9849 -0.193652 -4.47752e-19)
(4.34778 0.0826397 3.41552e-19)
(4.2461 -0.0761332 3.81144e-19)
(4.57344 0.136733 -7.62122e-19)
(4.47608 0.00396898 -4.8444e-20)
(4.76777 0.165141 -3.13704e-19)
(4.67607 0.0555298 -2.56917e-19)
(4.93389 0.17568 4.54075e-19)
(4.84893 0.0860118 -5.46779e-20)
(5.07423 0.173429 -3.43923e-19)
(4.99723 0.100874 -9.11993e-19)
(5.19074 0.161808 1.55233e-19)
(5.12215 0.104717 7.55296e-19)
(5.28599 0.144791 3.5561e-19)
(5.22518 0.10099 1.85294e-19)
(5.36216 0.125349 -2.22765e-19)
(5.31126 0.0902769 -2.62144e-22)
(5.42011 0.102458 1.40736e-19)
(5.38069 0.0742963 2.18051e-19)
(5.42835 0.062052 -3.92386e-19)
(5.4591 0.078055 -3.47625e-19)
(6.31318 -0.397455 -6.29742e-19)
(6.23988 -0.38998 7.47185e-19)
(6.25124 -0.314465 4.03005e-19)
(6.38581 -0.490274 -6.23712e-19)
(6.30477 -0.475923 -1.40297e-18)
(6.4791 -0.59975 9.40776e-19)
(6.37204 -0.594966 -9.44018e-20)
(6.605 -0.730454 -1.07007e-20)
(6.4717 -0.728997 2.41168e-19)
(6.76245 -0.886581 -3.77867e-19)
(6.60391 -0.887425 9.02388e-19)
(6.91165 -1.06798 3.66821e-19)
(6.74498 -1.0769 -1.04401e-18)
(6.96741 -1.29832 3.39802e-19)
(6.82856 -1.30257 1.26282e-18)
(6.87103 -1.57445 2.07352e-19)
(6.76728 -1.57022 -4.66188e-19)
(6.62619 -1.90236 1.24624e-19)
(6.54233 -1.88597 1.18585e-19)
(6.31438 -2.2732 -2.97428e-20)
(6.22724 -2.24737 -4.38388e-20)
(6.02441 -2.65215 -1.60941e-19)
(5.92748 -2.63226 -1.47762e-20)
(5.78003 -3.00295 -9.48363e-20)
(5.69426 -3.0047 2.22144e-20)
(5.5382 -3.30325 -2.13677e-19)
(5.49693 -3.3375 1.74113e-19)
(5.23725 -3.54 -3.73891e-19)
(5.26766 -3.61726 -3.90316e-19)
(4.84381 -3.7027 1.38548e-19)
(4.95565 -3.82916 4.60535e-19)
(4.37544 -3.78648 4.58295e-19)
(4.55091 -3.96329 -1.30019e-19)
(3.87889 -3.79135 1.66992e-19)
(4.09292 -4.02845 1.99889e-19)
(3.38621 -3.71773 -3.3684e-19)
(3.6344 -4.01151 -1.76816e-19)
(2.92386 -3.5666 -2.82461e-19)
(3.18911 -3.90491 -3.55579e-19)
(2.53712 -3.33514 -1.1409e-19)
(2.79265 -3.71682 4.29653e-20)
(2.27049 -3.03263 -2.43986e-20)
(2.48777 -3.44147 4.82751e-20)
(2.14467 -2.68661 -1.92575e-20)
(2.30377 -3.10307 -2.793e-20)
(2.15104 -2.33393 -1.87898e-21)
(2.24778 -2.73887 -2.4928e-21)
(2.2648 -2.00284 1.90113e-19)
(2.30742 -2.37863 -1.53309e-21)
(2.45945 -1.68892 3.13327e-19)
(2.46711 -2.03119 2.64795e-20)
(2.71173 -1.38447 -3.36117e-19)
(2.69284 -1.69573 4.29944e-19)
(2.99942 -1.09313 -8.66197e-20)
(2.95882 -1.37709 -1.6079e-19)
(3.30141 -0.826528 3.49037e-19)
(3.24452 -1.08555 -2.79326e-19)
(3.59955 -0.595216 4.50461e-19)
(3.53315 -0.83126 2.57451e-19)
(3.88176 -0.406445 -2.18711e-19)
(3.80897 -0.619279 6.83126e-19)
(4.14076 -0.260717 -4.61549e-19)
(4.06532 -0.449149 -1.10216e-18)
(4.3727 -0.152849 -2.30391e-20)
(4.29778 -0.317068 -4.25791e-19)
(4.57727 -0.0757481 4.31621e-19)
(4.50464 -0.216943 3.91183e-19)
(4.75602 -0.0224446 8.80177e-21)
(4.68682 -0.142545 1.31135e-18)
(4.91093 0.0126788 -1.40961e-18)
(4.84622 -0.0886618 -1.88925e-18)
(5.04371 0.0335953 1.94457e-19)
(4.98429 -0.0509533 8.76443e-20)
(5.15598 0.0438241 7.93158e-19)
(5.10205 -0.0255783 7.26667e-19)
(5.24951 0.0473223 -1.57219e-19)
(5.2017 -0.00971169 -4.35751e-19)
(5.32577 0.0456375 3.6551e-19)
(5.28591 -0.00175069 -6.35473e-19)
(5.3853 0.0388463 -5.07288e-19)
(5.35367 0.00102813 4.29466e-19)
(5.40287 0.00294574 2.62172e-19)
(5.42921 0.0292352 -2.66367e-19)
(6.21675 -0.4963 1.3564e-18)
(6.13381 -0.478483 9.29575e-19)
(6.16142 -0.399684 5.67449e-19)
(6.27837 -0.605391 -1.50309e-18)
(6.18784 -0.575564 -9.58361e-19)
(6.35827 -0.735873 -1.12542e-18)
(6.23977 -0.709482 -1.1574e-18)
(6.46494 -0.89542 8.84228e-19)
(6.3191 -0.866459 1.01367e-18)
(6.58198 -1.08536 4.69463e-19)
(6.42068 -1.05119 7.48476e-19)
(6.65774 -1.30959 -3.31064e-19)
(6.5023 -1.27254 -1.14667e-18)
(6.619 -1.57448 3.35326e-19)
(6.49321 -1.52837 8.52186e-19)
(6.42798 -1.88127 -5.48554e-19)
(6.33511 -1.81748 -5.48531e-19)
(6.13048 -2.22954 -1.71005e-19)
(6.04559 -2.1446 0)
(5.82597 -2.60501 -1.18943e-19)
(5.7241 -2.507 -4.48292e-20)
(5.58371 -2.98003 -1.58312e-20)
(5.46725 -2.88422 -1.79373e-19)
(5.39728 -3.32845 1.72769e-19)
(5.29404 -3.24792 -3.40523e-20)
(5.20912 -3.63377 2.38826e-19)
(5.15129 -3.57598 2.03902e-19)
(4.96193 -3.88575 4.485e-20)
(4.97049 -3.85595 -3.22091e-19)
(4.63187 -4.07498 8.15793e-20)
(4.71109 -4.07616 3.08258e-19)
(4.23828 -4.19289 -1.56804e-19)
(4.37069 -4.23097 -1.37657e-19)
(3.82192 -4.23188 7.39547e-20)
(3.99011 -4.32096 8.30179e-20)
(3.41247 -4.19035 -1.62462e-19)
(3.61308 -4.33809 -1.05566e-19)
(3.03738 -4.0565 -3.95096e-20)
(3.26056 -4.25227 -6.44953e-20)
(2.7308 -3.83088 1.83699e-19)
(2.95545 -4.07565 5.76357e-20)
(2.52174 -3.52583 7.43683e-21)
(2.72826 -3.8078 3.23793e-20)
(2.42403 -3.16816 -1.06958e-20)
(2.59495 -3.47046 -1.08161e-20)
(2.4365 -2.78668 7.15511e-20)
(2.56064 -3.09555 0)
(2.54406 -2.40539 -1.39848e-19)
(2.61747 -2.70865 1.9863e-20)
(2.72414 -2.03493 7.54944e-20)
(2.76258 -2.32654 -2.17855e-19)
(2.95414 -1.68515 5.33989e-19)
(2.96455 -1.96335 1.44066e-19)
(3.21224 -1.36701 -3.59466e-19)
(3.19884 -1.63068 1.41959e-19)
(3.47939 -1.08865 -3.57383e-19)
(3.44855 -1.33609 4.07244e-19)
(3.74198 -0.854059 4.74502e-19)
(3.7002 -1.08268 -2.39792e-19)
(3.99069 -0.660618 -2.28518e-19)
(3.94282 -0.869014 2.30697e-19)
(4.22012 -0.504167 -1.06749e-18)
(4.17022 -0.691728 -2.25585e-19)
(4.42771 -0.379913 -1.95202e-20)
(4.37787 -0.546821 -4.10876e-19)
(4.61276 -0.282779 1.26297e-18)
(4.56392 -0.429459 3.97733e-19)
(4.7759 -0.207877 -5.9976e-19)
(4.72905 -0.335386 3.07491e-19)
(4.91848 -0.151261 -3.90928e-19)
(4.87436 -0.261098 -1.26667e-18)
(5.0419 -0.10957 6.28145e-19)
(5.00094 -0.203234 5.63847e-19)
(5.14758 -0.0793225 -4.88388e-19)
(5.11021 -0.158719 -7.99178e-19)
(5.23708 -0.0575151 -8.89288e-19)
(5.20411 -0.125081 2.96147e-19)
(5.31128 -0.0427434 -3.8714e-19)
(5.28386 -0.099707 -4.26797e-19)
(5.37037 -0.0338399 1.17402e-18)
(5.34849 -0.0794969 4.58638e-19)
(5.39889 -0.0642514 -1.00431e-19)
(5.41577 -0.027566 9.48053e-20)
(6.09072 -0.581812 0)
(6.00297 -0.55073 -1.48113e-18)
(6.04783 -0.475524 -3.1493e-19)
(6.13605 -0.703702 -6.17118e-19)
(6.04041 -0.657449 -3.19995e-19)
(6.19435 -0.850413 4.05061e-19)
(6.07181 -0.799811 -6.11516e-19)
(6.2686 -1.03235 9.17165e-19)
(6.11992 -0.970793 1.27197e-18)
(6.33452 -1.24809 -6.61489e-19)
(6.1799 -1.17221 -6.6153e-19)
(6.33321 -1.49443 0)
(6.19714 -1.40931 -4.08782e-19)
(6.2049 -1.77193 0)
(6.10395 -1.67556 0)
(5.94646 -2.08224 0)
(5.87263 -1.9635 0)
(5.63212 -2.42335 1.83322e-19)
(5.55353 -2.27851 -7.61042e-19)
(5.35904 -2.78485 -7.78918e-20)
(5.25205 -2.62379 9.85406e-19)
(5.17191 -3.14643 -3.30787e-19)
(5.04532 -2.98502 -5.45277e-19)
(5.04143 -3.48509 -7.11932e-20)
(4.92742 -3.33816 -5.56299e-20)
(4.90296 -3.78371 8.52386e-20)
(4.83304 -3.65989 -3.98925e-20)
(4.7052 -4.03239 -1.37296e-19)
(4.69618 -3.93427 -6.33819e-20)
(4.43247 -4.22321 8.76051e-20)
(4.48558 -4.152 8.74053e-20)
(4.10517 -4.34763 1.01402e-19)
(4.20592 -4.31107 -1.16079e-19)
(3.76394 -4.40475 8.55514e-20)
(3.89312 -4.40632 2.88234e-19)
(3.44234 -4.38649 2.54537e-20)
(3.59242 -4.44176 -9.87894e-20)
(3.16145 -4.27285 6.61809e-20)
(3.33301 -4.36937 -4.9717e-20)
(2.93993 -4.05893 -5.65107e-20)
(3.12278 -4.20403 -1.10142e-19)
(2.79354 -3.76172 -1.17725e-22)
(2.97293 -3.95153 1.09824e-20)
(2.73219 -3.40654 -1.17789e-22)
(2.89214 -3.62981 -6.67979e-21)
(2.7576 -3.02178 -2.99151e-22)
(2.88283 -3.26709 5.03193e-20)
(2.85833 -2.63048 -3.00012e-22)
(2.94241 -2.88737 -1.10338e-19)
(3.01676 -2.25378 -1.04803e-19)
(3.07155 -2.51326 1.84119e-19)
(3.21555 -1.90755 -2.26942e-19)
(3.24435 -2.1635 2.57742e-20)
(3.43797 -1.59863 8.4938e-19)
(3.44481 -1.84654 -1.15412e-19)
(3.67002 -1.32887 4.8404e-19)
(3.66053 -1.56511 7.36763e-19)
(3.90046 -1.09695 -4.81808e-19)
(3.88048 -1.31841 -2.43633e-19)
(4.12056 -0.899493 2.24346e-19)
(4.09527 -1.10381 0)
(4.32506 -0.733682 4.38291e-19)
(4.29774 -0.919409 6.69884e-19)
(4.51114 -0.595859 1.85122e-20)
(4.48375 -0.76271 -2.26018e-19)
(4.67769 -0.481592 -5.60902e-19)
(4.65193 -0.63026 -1.9095e-19)
(4.82543 -0.387973 -3.67434e-19)
(4.80119 -0.519476 -2.27444e-20)
(4.95539 -0.312506 -3.06771e-19)
(4.93219 -0.427646 0)
(5.06851 -0.252211 -8.50362e-19)
(5.04673 -0.351965 -1.05615e-20)
(5.1661 -0.204035 -6.81009e-21)
(5.14647 -0.290273 -5.41255e-19)
(5.24964 -0.16565 7.58239e-19)
(5.23274 -0.240518 2.54707e-19)
(5.32 -0.135639 4.57438e-19)
(5.30596 -0.199494 2.28933e-19)
(5.37749 -0.11218 -7.22959e-19)
(5.36596 -0.163935 2.26901e-19)
(5.41586 -0.135929 -1.05544e-18)
(5.42334 -0.0920929 9.96428e-19)
(5.94174 -0.642156 -1.78847e-18)
(5.8562 -0.596359 -1.18938e-18)
(5.91585 -0.533116 -3.18939e-19)
(5.96362 -0.771333 -3.17161e-19)
(5.86796 -0.707829 -7.01497e-19)
(5.99144 -0.928174 0)
(5.87385 -0.850822 7.10996e-19)
(6.02502 -1.12103 0)
(5.88679 -1.02611 3.91494e-19)
(6.03473 -1.34822 -4.0875e-19)
(5.89904 -1.23358 -8.17944e-19)
(5.96292 -1.59869 -4.04741e-19)
(5.85718 -1.47074 8.30016e-19)
(5.76845 -1.86879 0)
(5.69935 -1.72756 -4.32142e-19)
(5.47606 -2.16177 -7.6081e-19)
(5.42313 -1.99671 0)
(5.17084 -2.48096 6.05443e-20)
(5.09837 -2.28684 -3.36346e-19)
(4.93769 -2.82268 4.56427e-19)
(4.82565 -2.60938 1.26083e-18)
(4.80084 -3.17157 -2.36605e-19)
(4.66325 -2.95627 -3.14887e-19)
(4.71814 -3.50442 5.14546e-20)
(4.5903 -3.30397 1.59429e-19)
(4.62351 -3.80015 2.10473e-19)
(4.53741 -3.62551 -2.81279e-19)
(4.47114 -4.04576 7.9752e-20)
(4.44213 -3.90054 2.82397e-20)
(4.25137 -4.23406 -1.15824e-19)
(4.27897 -4.11925 -2.08411e-20)
(3.98566 -4.36077 1.05362e-21)
(4.0555 -4.28142 -7.21038e-20)
(3.71597 -4.42246 2.85029e-19)
(3.80758 -4.38448 2.0164e-19)
(3.47887 -4.40715 -7.09433e-20)
(3.58499 -4.42312 -4.37779e-20)
(3.28906 -4.30077 -2.03509e-19)
(3.41367 -4.35877 -2.26933e-19)
(3.14977 -4.10272 -2.69637e-20)
(3.28827 -4.21177 -2.10192e-21)
(3.06576 -3.82671 4.27214e-21)
(3.20876 -3.98679 1.08712e-20)
(3.04219 -3.49546 3.53129e-20)
(3.17687 -3.69749 -1.41377e-20)
(3.07886 -3.13783 5.75234e-21)
(3.19007 -3.36659 1.55507e-20)
(3.16935 -2.77171 1.10667e-19)
(3.25591 -3.01737 1.0638e-20)
(3.30534 -2.42301 3.20335e-19)
(3.36877 -2.67347 1.88871e-19)
(3.4752 -2.10223 1.37958e-19)
(3.51637 -2.35024 -6.47672e-20)
(3.66698 -1.81258 -2.21902e-19)
(3.68926 -2.05315 -2.19625e-19)
(3.8698 -1.55401 2.70466e-21)
(3.87802 -1.78367 4.73826e-19)
(4.0739 -1.325 2.34212e-19)
(4.07306 -1.54123 -9.30733e-19)
(4.27093 -1.12369 4.40876e-19)
(4.26538 -1.32416 2.34083e-19)
(4.45463 -0.948173 1.31956e-20)
(4.44783 -1.13192 -4.95746e-21)
(4.6218 -0.796908 -4.33944e-19)
(4.61542 -0.963701 -1.73151e-20)
(4.77167 -0.668095 3.95106e-19)
(4.76651 -0.817465 3.32146e-23)
(4.90452 -0.559192 3.85048e-19)
(4.90045 -0.691489 3.62269e-19)
(5.02115 -0.467287 3.1199e-19)
(5.0183 -0.583788 3.45706e-19)
(5.12291 -0.390226 3.15642e-19)
(5.12102 -0.492394 3.1266e-19)
(5.21125 -0.326025 -2.67744e-19)
(5.21022 -0.415671 -5.85403e-19)
(5.28733 -0.27278 -2.7083e-19)
(5.2873 -0.351483 1.09595e-18)
(5.35207 -0.228866 0)
(5.35249 -0.296591 -1.4661e-20)
(5.40635 -0.191956 0)
(5.40669 -0.248026 -9.84088e-19)
(5.45413 -0.208355 4.7361e-19)
(5.4515 -0.159187 7.54819e-19)
(5.77759 -0.669568 -6.06753e-20)
(5.69965 -0.604974 6.37367e-19)
(5.77299 -0.56078 -3.91253e-19)
(5.77275 -0.797639 1.84003e-19)
(5.68443 -0.715713 1.10003e-20)
(5.76702 -0.954131 1.09554e-18)
(5.66181 -0.852565 3.3954e-19)
(5.75756 -1.1452 -3.5914e-19)
(5.63881 -1.02209 8.02688e-19)
(5.71454 -1.36828 4.78613e-19)
(5.60387 -1.22381 -8.09282e-19)
(5.58793 -1.60958 1.10415e-18)
(5.51148 -1.44799 1.27512e-18)
(5.35218 -1.85891 -4.27719e-19)
(5.31232 -1.68194 -1.43612e-18)
(5.04529 -2.12397 4.15537e-19)
(5.01299 -1.92166 -5.26468e-19)
(4.75475 -2.41767 8.5576e-19)
(4.69164 -2.18264 4.11158e-19)
(4.5552 -2.74319 4.40039e-19)
(4.44289 -2.48393 -5.73264e-20)
(4.45845 -3.08628 8.1524e-20)
(4.31291 -2.82264 -4.65403e-19)
(4.41605 -3.42032 -2.74007e-19)
(4.27408 -3.17325 6.06756e-19)
(4.36215 -3.72015 -2.79188e-19)
(4.25626 -3.50325 -5.13833e-19)
(4.25449 -3.97034 -4.71394e-20)
(4.19966 -3.78786 -3.95507e-19)
(4.08583 -4.16397 -4.17997e-21)
(4.08149 -4.01679 -6.37024e-20)
(3.88029 -4.29803 5.83352e-20)
(3.91116 -4.19171 8.83144e-20)
(3.68172 -4.36437 6.77241e-20)
(3.72938 -4.3139 -1.11366e-20)