/*--------------------------------*- C++ -*----------------------------------*\
  =========                 |
  \\      /  F ield         | OpenFOAM: The Open Source CFD Toolbox
   \\    /   O peration     | Website:  https://openfoam.org
    \\  /    A nd           | Version:  6
     \\/     M anipulation  |
\*---------------------------------------------------------------------------*/
FoamFile
{
    version     2.0;
    format      ascii;
    class       volScalarField;
    location    "1.88";
    object      rho;
}
// * * * * * * * * * * * * * * * * * * * * * * * * * * * * * * * * * * * * * //

dimensions      [1 -3 0 0 0 0 0];

internalField   nonuniform List<scalar> 
5625
(
1.40001
1.40001
1.40001
1.40001
1.4
1.40001
1.40001
1.40001
1.40001
1.40001
1.40001
1.40001
1.40001
1.40001
1.40001
1.40001
1.40001
1.40001
1.40001
1.40001
1.40001
1.40001
1.40001
1.4
1.4
1.4
1.4
1.4
1.4
1.4
1.4
1.4
1.4
1.4
1.4
1.40001
1.40001
1.40001
1.40001
1.40001
1.40001
1.40001
1.40001
1.40001
1.40001
1.40001
1.40001
1.40001
1.40001
1.40001
1.40001
1.40001
1.40001
1.40001
1.40001
1.40001
1.40001
1.40001
1.40001
1.40001
1.40001
1.40001
1.40001
1.40001
1.40001
1.40001
1.40001
1.40001
1.40001
1.40001
1.40001
1.40001
1.40001
1.40001
1.40001
1.4
1.4
1.4
1.4
1.4
1.4
1.4
1.4
1.4
1.4
1.4
1.4
1.40001
1.40001
1.40001
1.40001
1.40001
1.40001
1.40001
1.40001
1.40001
1.40001
1.40001
1.40001
1.40001
1.40001
1.40001
1.40001
1.40001
1.40001
1.40001
1.4
1.4
1.4
1.4
1.4
1.4
1.40001
1.40001
1.40001
1.40001
1.40001
1.40001
1.40001
1.40001
1.40001
1.40001
1.40001
1.40001
1.40001
1.40001
1.40001
1.40001
1.40001
1.40001
1.40001
1.40001
1.40001
1.40001
1.40001
1.40001
1.40001
1.40001
1.40001
1.40001
1.40001
1.40001
1.40001
1.40001
1.40001
1.40001
1.40001
1.40001
1.40001
1.40001
1.4
1.4
1.4
1.4
1.4
1.4
1.4
1.4
1.4
1.4
1.4
1.40001
1.4
1.40001
1.40001
1.40001
1.40001
1.40001
1.40001
1.40001
1.40001
1.40001
1.40001
1.40001
1.40001
1.40001
1.40001
1.40001
1.40001
1.40001
1.40001
1.40001
1.40001
1.4
1.4
1.4
1.4
1.4
1.40001
1.40001
1.40001
1.40001
1.40001
1.40001
1.40001
1.40001
1.40001
1.40001
1.40001
1.40001
1.40001
1.40001
1.40001
1.40001
1.40001
1.40001
1.40001
1.40001
1.40001
1.40001
1.40001
1.40001
1.40001
1.40001
1.40001
1.40001
1.40001
1.40001
1.40001
1.40001
1.40001
1.40001
1.40001
1.40001
1.40001
1.4
1.4
1.4
1.4
1.4
1.4
1.4
1.4
1.4
1.4
1.4
1.4
1.4
1.40001
1.40001
1.40001
1.40001
1.40001
1.40001
1.40001
1.40001
1.40001
1.40001
1.40001
1.40001
1.40001
1.40001
1.40001
1.40001
1.40001
1.40001
1.40001
1.40001
1.40001
1.40001
1.4
1.4
1.4
1.4
1.40001
1.40001
1.40001
1.40001
1.40001
1.40001
1.40001
1.40001
1.40001
1.40001
1.40001
1.40001
1.40001
1.40001
1.40001
1.40001
1.40001
1.40001
1.40001
1.40001
1.40001
1.40001
1.40001
1.40001
1.40001
1.40001
1.40001
1.40001
1.40001
1.40001
1.40001
1.40001
1.40001
1.40001
1.40001
1.40001
1.4
1.4
1.4
1.4
1.4
1.4
1.4
1.4
1.4
1.4
1.4
1.4
1.4
1.40001
1.40001
1.40001
1.40001
1.40001
1.40001
1.40001
1.40001
1.40001
1.40001
1.40001
1.40001
1.40001
1.40001
1.40001
1.40001
1.40001
1.40001
1.40001
1.40001
1.40001
1.40001
1.40001
1.40001
1.4
1.4
1.4
1.40001
1.40001
1.40001
1.40001
1.40001
1.40001
1.40001
1.40001
1.40001
1.40001
1.40001
1.40001
1.40001
1.40001
1.40001
1.40001
1.40001
1.40001
1.40001
1.40001
1.40001
1.40001
1.40001
1.40001
1.40001
1.40001
1.40001
1.40001
1.40001
1.40001
1.40001
1.40001
1.40001
1.40001
1.40001
1.4
1.4
1.4
1.4
1.4
1.4
1.4
1.4
1.4
1.4
1.4
1.4
1.4
1.40001
1.40001
1.40001
1.40001
1.40001
1.40001
1.40001
1.40001
1.40001
1.40001
1.40001
1.40001
1.40001
1.40001
1.40001
1.40001
1.40001
1.40001
1.40001
1.40001
1.40001
1.40001
1.40001
1.40001
1.40001
1.4
1.4
1.4
1.40001
1.40001
1.40001
1.40001
1.40001
1.40001
1.40001
1.40001
1.40001
1.40001
1.40001
1.40001
1.40001
1.40001
1.40001
1.40001
1.40001
1.40001
1.40001
1.40001
1.40001
1.40001
1.40001
1.40001
1.40001
1.40001
1.40001
1.40001
1.40001
1.40001
1.40001
1.40001
1.40001
1.40001
1.4
1.4
1.4
1.4
1.4
1.4
1.4
1.4
1.4
1.4
1.4
1.4
1.40001
1.40001
1.40001
1.40001
1.40001
1.40001
1.40001
1.40001
1.40001
1.40001
1.40001
1.40001
1.40001
1.40001
1.40001
1.40001
1.40001
1.40001
1.40001
1.40001
1.40001
1.40001
1.40001
1.40001
1.40001
1.40001
1.40001
1.40001
1.4
1.4
1.40001
1.40001
1.40001
1.40001
1.40001
1.40001
1.40001
1.40001
1.40001
1.40001
1.40001
1.40001
1.40001
1.40001
1.40001
1.40001
1.40001
1.40001
1.40001
1.40001
1.40001
1.40001
1.40001
1.40001
1.40001
1.40001
1.40001
1.40001
1.40001
1.40001
1.40001
1.40001
1.40001
1.4
1.4
1.4
1.4
1.4
1.4
1.4
1.4
1.4
1.4
1.4
1.4
1.40001
1.40001
1.40001
1.40001
1.40001
1.40001
1.40001
1.40001
1.40001
1.40001
1.40001
1.40001
1.40001
1.40001
1.40001
1.40001
1.40001
1.40001
1.40001
1.40001
1.40001
1.40001
1.40001
1.40001
1.40001
1.40001
1.40001
1.40001
1.40001
1.40001
1.4
1.40001
1.40001
1.40001
1.40001
1.40001
1.40001
1.40001
1.40001
1.40001
1.40001
1.40001
1.40001
1.40001
1.40001
1.40001
1.40001
1.40001
1.40001
1.40001
1.40001
1.40001
1.40001
1.40001
1.40001
1.40001
1.40001
1.40001
1.40001
1.40001
1.40001
1.40001
1.40001
1.4
1.4
1.4
1.4
1.4
1.4
1.4
1.4
1.4
1.4
1.4
1.4
1.40001
1.40001
1.40001
1.40001
1.40001
1.40001
1.40001
1.40001
1.40001
1.40001
1.40001
1.40001
1.40001
1.40001
1.40001
1.40001
1.40001
1.40001
1.40001
1.40001
1.40001
1.40001
1.40001
1.40001
1.40001
1.40001
1.40001
1.40001
1.40001
1.40001
1.40001
1.40001
1.40001
1.40001
1.40001
1.40001
1.40001
1.40001
1.40001
1.40001
1.40001
1.40001
1.40001
1.40001
1.40001
1.40001
1.40001
1.40001
1.40001
1.40001
1.40001
1.40001
1.40001
1.40001
1.40001
1.40001
1.40001
1.40001
1.40001
1.40001
1.40001
1.40001
1.40001
1.4
1.4
1.4
1.4
1.4
1.4
1.4
1.4
1.4
1.4
1.4
1.4
1.40001
1.40001
1.40001
1.40001
1.40001
1.40001
1.40001
1.40001
1.40001
1.40001
1.40001
1.40001
1.40001
1.40001
1.40001
1.40001
1.40001
1.40001
1.40001
1.40001
1.40001
1.40001
1.40001
1.40001
1.40001
1.40001
1.40001
1.40001
1.40001
1.40001
1.40001
1.40001
1.40001
1.40001
1.40001
1.40001
1.40001
1.40001
1.40001
1.40001
1.40001
1.40001
1.40001
1.40001
1.40001
1.40001
1.40001
1.40001
1.40001
1.40001
1.40001
1.40001
1.40001
1.40001
1.40001
1.40001
1.40001
1.40001
1.40001
1.40001
1.40001
1.40001
1.40001
1.4
1.4
1.4
1.4
1.4
1.4
1.4
1.4
1.4
1.4
1.4
1.4
1.40001
1.40001
1.40001
1.40001
1.40001
1.40001
1.40001
1.40001
1.40001
1.40001
1.40001
1.40001
1.40001
1.40001
1.40001
1.40001
1.40001
1.40001
1.40001
1.40001
1.40001
1.40001
1.40001
1.40001
1.40001
1.40001
1.40001
1.40001
1.40001
1.40001
1.40001
1.40001
1.40001
1.40001
1.40001
1.40001
1.40001
1.40001
1.40001
1.40001
1.40001
1.40001
1.40001
1.40001
1.40001
1.40001
1.40001
1.40001
1.40001
1.40001
1.40001
1.40001
1.40001
1.40001
1.40001
1.40001
1.40001
1.40001
1.40001
1.40001
1.40001
1.40001
1.40001
1.4
1.4
1.4
1.4
1.4
1.4
1.4
1.4
1.4
1.4
1.4
1.4
1.40001
1.40001
1.40001
1.40001
1.40001
1.40001
1.40001
1.40001
1.40001
1.40001
1.40001
1.40001
1.40001
1.40001
1.40001
1.40001
1.40001
1.40001
1.40001
1.40001
1.40001
1.40001
1.40001
1.40001
1.40001
1.40001
1.40001
1.40001
1.40001
1.40001
1.40001
1.40001
1.40001
1.40001
1.40001
1.40001
1.40001
1.40001
1.40001
1.40001
1.40001
1.40001
1.40001
1.40001
1.40001
1.40001
1.40001
1.40001
1.40001
1.40001
1.40001
1.40001
1.40001
1.40001
1.40001
1.40001
1.40001
1.40001
1.40001
1.40001
1.40001
1.40001
1.40001
1.4
1.4
1.4
1.4
1.4
1.4
1.4
1.4
1.4
1.4
1.4
1.4
1.40001
1.40001
1.40001
1.40001
1.40001
1.40001
1.40001
1.40001
1.40001
1.40001
1.40001
1.40001
1.40001
1.40001
1.40001
1.40001
1.40001
1.40001
1.40001
1.40001
1.40001
1.40001
1.40001
1.40001
1.40001
1.40001
1.40001
1.40001
1.40001
1.40001
1.40001
1.40001
1.40001
1.40001
1.40001
1.40001
1.40001
1.40001
1.40001
1.40001
1.40001
1.40001
1.40001
1.40001
1.40001
1.40001
1.40001
1.40001
1.40001
1.40001
1.40001
1.40001
1.40001
1.40001
1.40001
1.40001
1.40001
1.40001
1.40001
1.40001
1.40001
1.40001
1.40001
1.39999
1.39999
1.39999
1.39999
1.39999
1.39999
1.39999
1.39999
1.4
1.4
1.4
1.4
1.40001
1.40001
1.40001
1.40001
1.40001
1.40002
1.40002
1.40002
1.40002
1.40002
1.40002
1.40002
1.40002
1.40001
1.40001
1.40001
1.40001
1.40001
1.40001
1.40001
1.40001
1.40001
1.40001
1.40001
1.40001
1.40001
1.40001
1.40001
1.40001
1.40001
1.40001
1.40001
1.40001
1.40001
1.40001
1.40001
1.40001
1.40001
1.40001
1.40001
1.40001
1.40001
1.40001
1.40001
1.40001
1.40001
1.40001
1.40001
1.40001
1.40001
1.40001
1.40001
1.40001
1.40001
1.40001
1.40001
1.40001
1.40001
1.40001
1.40001
1.40001
1.40001
1.40001
1.39999
1.39999
1.39999
1.39999
1.39999
1.39999
1.39999
1.39999
1.39999
1.4
1.4
1.4
1.40001
1.40001
1.40001
1.40002
1.40002
1.40002
1.40002
1.40002
1.40002
1.40002
1.40002
1.40002
1.40002
1.40002
1.40002
1.40001
1.40001
1.40001
1.40001
1.40001
1.40001
1.40001
1.40001
1.40001
1.40001
1.40001
1.40001
1.40001
1.40001
1.40001
1.40001
1.40001
1.40001
1.40001
1.40001
1.40001
1.40001
1.40001
1.40001
1.40001
1.40001
1.40001
1.40001
1.40001
1.40001
1.40001
1.40001
1.40001
1.40001
1.40001
1.40001
1.40001
1.40001
1.40001
1.40001
1.40001
1.40001
1.40001
1.40001
1.40001
1.40001
1.40001
1.40001
1.39999
1.39998
1.39998
1.39998
1.39998
1.39998
1.39999
1.39999
1.39999
1.39999
1.4
1.4
1.40001
1.40001
1.40002
1.40002
1.40002
1.40003
1.40003
1.40003
1.40003
1.40003
1.40003
1.40003
1.40002
1.40002
1.40002
1.40002
1.40002
1.40001
1.40001
1.40001
1.40001
1.40001
1.40001
1.40001
1.40001
1.40001
1.40001
1.40001
1.4
1.4
1.40001
1.40001
1.40001
1.40001
1.40001
1.40001
1.40001
1.40001
1.40001
1.40001
1.40001
1.40001
1.40001
1.40001
1.40001
1.40001
1.40001
1.40001
1.40001
1.40001
1.40001
1.40001
1.40001
1.40001
1.40001
1.40001
1.40001
1.40001
1.40001
1.40001
1.40001
1.40001
1.40001
1.39998
1.39998
1.39998
1.39998
1.39998
1.39998
1.39998
1.39998
1.39999
1.39999
1.4
1.4
1.40001
1.40001
1.40002
1.40003
1.40003
1.40003
1.40004
1.40004
1.40004
1.40004
1.40003
1.40003
1.40003
1.40003
1.40003
1.40002
1.40002
1.40002
1.40001
1.40001
1.40001
1.40001
1.40001
1.40001
1.40001
1.40001
1.40001
1.40001
1.40001
1.4
1.4
1.40001
1.40001
1.40001
1.40001
1.40001
1.40001
1.40001
1.40001
1.40001
1.40001
1.40001
1.40001
1.40001
1.40001
1.40001
1.40001
1.40001
1.40001
1.40001
1.40001
1.40001
1.40001
1.40001
1.40001
1.40001
1.40001
1.40001
1.40001
1.40001
1.40001
1.40001
1.40001
1.39997
1.39997
1.39997
1.39997
1.39997
1.39997
1.39997
1.39998
1.39998
1.39999
1.4
1.4
1.40001
1.40002
1.40003
1.40003
1.40004
1.40004
1.40005
1.40005
1.40005
1.40005
1.40004
1.40004
1.40004
1.40004
1.40003
1.40003
1.40002
1.40002
1.40002
1.40001
1.40001
1.40001
1.40001
1.40001
1.40001
1.40001
1.40001
1.40001
1.40001
1.4
1.4
1.4
1.4
1.40001
1.40001
1.40001
1.40001
1.40001
1.40001
1.40001
1.40001
1.40001
1.40001
1.40001
1.40001
1.40001
1.40001
1.40001
1.40001
1.40001
1.40001
1.40001
1.40001
1.40001
1.40001
1.40001
1.40001
1.40001
1.40001
1.40001
1.40001
1.40001
1.40001
1.39996
1.39996
1.39996
1.39996
1.39996
1.39996
1.39996
1.39997
1.39998
1.39999
1.4
1.40001
1.40002
1.40003
1.40004
1.40004
1.40005
1.40006
1.40006
1.40006
1.40006
1.40006
1.40006
1.40005
1.40005
1.40004
1.40004
1.40003
1.40003
1.40002
1.40002
1.40002
1.40001
1.40001
1.40001
1.40001
1.40001
1.40001
1.40001
1.40001
1.40001
1.40001
1.4
1.4
1.4
1.4
1.4
1.4
1.4
1.40001
1.40001
1.40001
1.40001
1.40001
1.40001
1.40001
1.40001
1.40001
1.40001
1.40001
1.40001
1.40001
1.40001
1.40001
1.40001
1.40001
1.40001
1.40001
1.40001
1.40001
1.40001
1.40001
1.40001
1.40001
1.40001
1.39995
1.39995
1.39995
1.39995
1.39995
1.39995
1.39996
1.39996
1.39997
1.39999
1.4
1.40001
1.40002
1.40004
1.40005
1.40006
1.40007
1.40007
1.40008
1.40008
1.40008
1.40008
1.40007
1.40007
1.40006
1.40006
1.40005
1.40004
1.40004
1.40003
1.40002
1.40002
1.40002
1.40001
1.40001
1.40001
1.40001
1.40001
1.40001
1.40001
1.40001
1.40001
1.4
1.4
1.4
1.4
1.4
1.4
1.4
1.4
1.40001
1.40001
1.40001
1.40001
1.40001
1.40001
1.40001
1.40001
1.40001
1.40001
1.40001
1.40001
1.40001
1.40001
1.40001
1.40001
1.40001
1.40001
1.40001
1.40001
1.40001
1.40001
1.40001
1.40001
1.40001
1.39994
1.39994
1.39993
1.39993
1.39994
1.39994
1.39995
1.39996
1.39997
1.39999
1.4
1.40002
1.40004
1.40005
1.40007
1.40008
1.40009
1.4001
1.4001
1.4001
1.4001
1.4001
1.40009
1.40009
1.40008
1.40007
1.40006
1.40005
1.40005
1.40004
1.40003
1.40002
1.40002
1.40002
1.40001
1.40001
1.40001
1.40001
1.40001
1.40001
1.40001
1.4
1.4
1.4
1.4
1.4
1.4
1.4
1.4
1.4
1.4
1.40001
1.40001
1.40001
1.40001
1.40001
1.40001
1.40001
1.40001
1.40001
1.40001
1.40001
1.40001
1.40001
1.40001
1.40001
1.40001
1.40001
1.40001
1.40001
1.40001
1.40001
1.40001
1.40001
1.40001
1.39993
1.39992
1.39992
1.39992
1.39993
1.39994
1.39995
1.39996
1.39998
1.4
1.40002
1.40004
1.40006
1.40008
1.4001
1.40011
1.40012
1.40013
1.40014
1.40014
1.40014
1.40013
1.40012
1.40011
1.4001
1.40009
1.40008
1.40007
1.40006
1.40005
1.40004
1.40003
1.40002
1.40002
1.40001
1.40001
1.40001
1.40001
1.40001
1.40001
1.4
1.4
1.4
1.4
1.4
1.4
1.4
1.4
1.4
1.4
1.4
1.4
1.40001
1.40001
1.40001
1.40001
1.40001
1.40001
1.40001
1.40001
1.40001
1.40001
1.40001
1.40001
1.40001
1.40001
1.40001
1.40001
1.40001
1.40001
1.40001
1.40001
1.40001
1.40001
1.40001
1.39992
1.39991
1.39991
1.39991
1.39992
1.39993
1.39995
1.39997
1.39999
1.40002
1.40005
1.40007
1.4001
1.40012
1.40014
1.40016
1.40017
1.40018
1.40018
1.40018
1.40018
1.40017
1.40016
1.40014
1.40013
1.40011
1.4001
1.40008
1.40007
1.40006
1.40005
1.40004
1.40003
1.40002
1.40002
1.40001
1.40001
1.40001
1.40001
1.40001
1.4
1.4
1.4
1.4
1.4
1.4
1.4
1.4
1.4
1.4
1.4
1.4
1.4
1.40001
1.40001
1.40001
1.40001
1.40001
1.40001
1.40001
1.40001
1.40001
1.40001
1.40001
1.40001
1.40001
1.40001
1.40001
1.40001
1.40001
1.40001
1.40001
1.40001
1.40001
1.40001
1.3999
1.3999
1.3999
1.39991
1.39992
1.39994
1.39997
1.39999
1.40003
1.40006
1.40009
1.40013
1.40016
1.40019
1.40021
1.40023
1.40024
1.40025
1.40025
1.40025
1.40024
1.40022
1.4002
1.40019
1.40017
1.40014
1.40012
1.4001
1.40009
1.40007
1.40005
1.40004
1.40003
1.40002
1.40002
1.40001
1.40001
1.40001
1.40001
1.4
1.4
1.4
1.4
1.4
1.4
1.4
1.4
1.4
1.4
1.4
1.4
1.4
1.4
1.40001
1.40001
1.40001
1.40001
1.40001
1.40001
1.40001
1.40001
1.40001
1.40001
1.40001
1.40001
1.40001
1.40001
1.40001
1.40001
1.40001
1.40001
1.40001
1.40001
1.40001
1.40001
1.3999
1.3999
1.39991
1.39992
1.39994
1.39997
1.4
1.40004
1.40009
1.40013
1.40018
1.40022
1.40026
1.40029
1.40032
1.40034
1.40035
1.40035
1.40034
1.40033
1.40032
1.40029
1.40027
1.40024
1.40021
1.40018
1.40016
1.40013
1.40011
1.40009
1.40007
1.40005
1.40004
1.40003
1.40002
1.40001
1.40001
1.40001
1.40001
1.4
1.4
1.4
1.4
1.4
1.4
1.4
1.4
1.4
1.4
1.4
1.4
1.4
1.4
1.4
1.40001
1.40001
1.40001
1.40001
1.40001
1.40001
1.40001
1.40001
1.40001
1.40001
1.40001
1.40001
1.40001
1.40001
1.40001
1.40001
1.40001
1.40001
1.40001
1.40001
1.40001
1.3999
1.39991
1.39992
1.39995
1.39998
1.40003
1.40008
1.40013
1.40019
1.40025
1.40031
1.40036
1.40041
1.40045
1.40047
1.40049
1.4005
1.40049
1.40048
1.40046
1.40043
1.40039
1.40035
1.40031
1.40027
1.40024
1.4002
1.40016
1.40013
1.4001
1.40008
1.40006
1.40005
1.40003
1.40002
1.40002
1.40001
1.40001
1.4
1.4
1.4
1.4
1.4
1.4
1.4
1.4
1.4
1.4
1.4
1.4
1.4
1.4
1.4
1.4
1.40001
1.40001
1.40001
1.40001
1.40001
1.40001
1.40001
1.40001
1.40001
1.40001
1.40001
1.40001
1.40001
1.40001
1.40001
1.40001
1.40001
1.40001
1.40001
1.40001
1.40001
1.39992
1.39994
1.39997
1.40001
1.40006
1.40013
1.4002
1.40028
1.40036
1.40044
1.40051
1.40058
1.40064
1.40068
1.40071
1.40072
1.40072
1.4007
1.40067
1.40063
1.40058
1.40053
1.40047
1.40041
1.40036
1.4003
1.40025
1.40021
1.40016
1.40013
1.4001
1.40007
1.40005
1.40004
1.40002
1.40002
1.40001
1.40001
1.4
1.4
1.4
1.4
1.4
1.4
1.4
1.4
1.4
1.4
1.4
1.4
1.4
1.4
1.4
1.4
1.4
1.40001
1.40001
1.40001
1.40001
1.40001
1.40001
1.40001
1.40001
1.40001
1.40001
1.40001
1.40001
1.40001
1.40001
1.40001
1.40001
1.40001
1.40001
1.40001
1.40001
1.39996
1.4
1.40005
1.40012
1.4002
1.4003
1.4004
1.40052
1.40063
1.40073
1.40083
1.40092
1.40098
1.40103
1.40105
1.40106
1.40104
1.401
1.40095
1.40088
1.4008
1.40072
1.40064
1.40055
1.40047
1.40039
1.40033
1.40026
1.40021
1.40016
1.40012
1.40009
1.40006
1.40004
1.40003
1.40002
1.40001
1.4
1.4
1.4
1.4
1.4
1.4
1.4
1.4
1.4
1.4
1.4
1.4
1.4
1.4
1.4
1.4
1.4
1.4
1.4
1.40001
1.40001
1.40001
1.40001
1.40001
1.40001
1.40001
1.40001
1.40001
1.40001
1.40001
1.40001
1.40001
1.40001
1.40001
1.40001
1.40001
1.40001
1.40001
1.40004
1.40011
1.4002
1.4003
1.40043
1.40057
1.40072
1.40088
1.40103
1.40118
1.40131
1.40141
1.40149
1.40154
1.40156
1.40154
1.4015
1.40143
1.40134
1.40123
1.40111
1.40099
1.40086
1.40074
1.40063
1.40052
1.40042
1.40034
1.40026
1.4002
1.40015
1.40011
1.40007
1.40005
1.40003
1.40002
1.40001
1.4
1.4
1.4
1.4
1.4
1.4
1.4
1.4
1.4
1.4
1.4
1.4
1.4
1.4
1.4
1.4
1.4
1.4
1.4
1.40001
1.40001
1.40001
1.40001
1.40001
1.40001
1.40001
1.40001
1.40001
1.40001
1.40001
1.40001
1.40001
1.40001
1.40001
1.40001
1.40001
1.40001
1.40001
1.40017
1.40029
1.40043
1.40059
1.40078
1.40099
1.40121
1.40142
1.40164
1.40183
1.402
1.40213
1.40222
1.40227
1.40228
1.40224
1.40215
1.40204
1.40189
1.40173
1.40155
1.40136
1.40118
1.401
1.40084
1.40069
1.40055
1.40044
1.40034
1.40025
1.40019
1.40013
1.40009
1.40006
1.40003
1.40002
1.40001
1.4
1.39999
1.39999
1.39999
1.39999
1.4
1.4
1.4
1.4
1.4
1.4
1.4
1.4
1.4
1.4
1.4
1.4
1.4
1.4
1.4
1.40001
1.40001
1.40001
1.40001
1.40001
1.40001
1.40001
1.40001
1.40001
1.40001
1.40001
1.40001
1.40001
1.40001
1.40001
1.40001
1.40001
1.40001
1.40039
1.40057
1.40078
1.40103
1.40131
1.4016
1.40191
1.40222
1.4025
1.40276
1.40298
1.40315
1.40326
1.40331
1.40329
1.40321
1.40307
1.40289
1.40267
1.40242
1.40215
1.40188
1.40162
1.40137
1.40113
1.40092
1.40073
1.40057
1.40044
1.40033
1.40024
1.40016
1.40011
1.40007
1.40004
1.40002
1.4
1.39999
1.39999
1.39999
1.39999
1.39999
1.39999
1.39999
1.4
1.4
1.4
1.4
1.4
1.4
1.4
1.4
1.4
1.4
1.4
1.4
1.4
1.40001
1.40001
1.40001
1.40001
1.40001
1.40001
1.40001
1.40001
1.40001
1.40001
1.40001
1.40001
1.40001
1.40001
1.40001
1.40001
1.40001
1.40001
1.40073
1.401
1.40131
1.40168
1.40207
1.40249
1.40292
1.40333
1.40373
1.40407
1.40436
1.40457
1.4047
1.40474
1.40469
1.40456
1.40435
1.40407
1.40374
1.40338
1.40299
1.4026
1.40222
1.40187
1.40153
1.40124
1.40098
1.40076
1.40058
1.40042
1.4003
1.40021
1.40014
1.40008
1.40004
1.40002
1.4
1.39999
1.39998
1.39998
1.39998
1.39999
1.39999
1.39999
1.39999
1.4
1.4
1.4
1.4
1.4
1.4
1.4
1.4
1.4
1.4
1.4
1.4
1.40001
1.40001
1.40001
1.40001
1.40001
1.40001
1.40001
1.40001
1.40001
1.40001
1.40001
1.40001
1.40001
1.40001
1.40001
1.40001
1.40001
1.40001
1.40122
1.40161
1.40207
1.40259
1.40315
1.40373
1.40432
1.40488
1.4054
1.40586
1.40623
1.4065
1.40665
1.40668
1.40659
1.40638
1.40607
1.40567
1.4052
1.40468
1.40414
1.40359
1.40305
1.40255
1.40209
1.40168
1.40132
1.40101
1.40076
1.40056
1.40039
1.40027
1.40017
1.4001
1.40005
1.40002
1.4
1.39998
1.39998
1.39998
1.39998
1.39998
1.39998
1.39999
1.39999
1.39999
1.4
1.4
1.4
1.4
1.4
1.4
1.4
1.4
1.4
1.4
1.4
1.4
1.40001
1.40001
1.40001
1.40001
1.40001
1.40001
1.40001
1.40001
1.40001
1.40001
1.40001
1.40001
1.40001
1.40001
1.40001
1.40001
1.40001
1.40191
1.40248
1.40314
1.40386
1.40463
1.40542
1.40621
1.40697
1.40766
1.40825
1.40873
1.40906
1.40924
1.40926
1.40912
1.40881
1.40837
1.40781
1.40715
1.40643
1.40567
1.40491
1.40417
1.40347
1.40284
1.40227
1.40178
1.40136
1.40102
1.40074
1.40052
1.40035
1.40022
1.40013
1.40006
1.40002
1.39999
1.39998
1.39997
1.39997
1.39997
1.39997
1.39998
1.39998
1.39999
1.39999
1.39999
1.4
1.4
1.4
1.4
1.4
1.4
1.4
1.4
1.4
1.4
1.4
1.40001
1.40001
1.40001
1.40001
1.40001
1.40001
1.40001
1.40001
1.40001
1.40001
1.40001
1.40001
1.40001
1.40001
1.40001
1.40001
1.40001
1.40288
1.40368
1.40458
1.40557
1.40661
1.40767
1.40872
1.40971
1.41061
1.41137
1.41198
1.4124
1.41261
1.41261
1.41239
1.41198
1.41137
1.41061
1.40971
1.40873
1.40771
1.40667
1.40566
1.40471
1.40384
1.40307
1.4024
1.40183
1.40136
1.40099
1.40069
1.40046
1.40029
1.40017
1.40009
1.40003
1.39999
1.39997
1.39996
1.39996
1.39996
1.39996
1.39997
1.39998
1.39998
1.39999
1.39999
1.39999
1.4
1.4
1.4
1.4
1.4
1.4
1.4
1.4
1.4
1.4
1.4
1.40001
1.40001
1.40001
1.40001
1.40001
1.40001
1.40001
1.40001
1.40001
1.40001
1.40001
1.40001
1.40001
1.40001
1.40001
1.40001
1.40419
1.40529
1.40651
1.40783
1.40921
1.4106
1.41196
1.41323
1.41437
1.41534
1.41609
1.41661
1.41686
1.41684
1.41654
1.41599
1.41519
1.41418
1.41301
1.41171
1.41035
1.40897
1.40762
1.40634
1.40517
1.40413
1.40323
1.40246
1.40183
1.40132
1.40092
1.40062
1.40039
1.40023
1.40012
1.40004
1.39999
1.39996
1.39995
1.39995
1.39995
1.39995
1.39996
1.39997
1.39998
1.39998
1.39999
1.39999
1.4
1.4
1.4
1.4
1.4
1.4
1.4
1.4
1.4
1.4
1.4
1.40001
1.40001
1.40001
1.40001
1.40001
1.40001
1.40001
1.40001
1.40001
1.40001
1.40001
1.40001
1.40001
1.40001
1.40001
1.40001
1.40592
1.40739
1.40901
1.41074
1.41252
1.4143
1.41602
1.41762
1.41904
1.42023
1.42115
1.42177
1.42207
1.42203
1.42165
1.42094
1.41993
1.41865
1.41714
1.41548
1.41371
1.41191
1.41014
1.40846
1.40691
1.40552
1.40432
1.40329
1.40245
1.40177
1.40124
1.40083
1.40053
1.40031
1.40016
1.40006
1.4
1.39996
1.39994
1.39993
1.39994
1.39994
1.39995
1.39996
1.39997
1.39998
1.39998
1.39999
1.39999
1.4
1.4
1.4
1.4
1.4
1.4
1.4
1.4
1.4
1.4
1.4
1.40001
1.40001
1.40001
1.40001
1.40001
1.40001
1.40001
1.40001
1.40001
1.40001
1.40001
1.40001
1.40001
1.40001
1.40001
1.40816
1.41008
1.41218
1.41439
1.41664
1.41887
1.42099
1.42293
1.42464
1.42607
1.42716
1.42789
1.42823
1.42818
1.42772
1.42686
1.42563
1.42406
1.4222
1.42011
1.41788
1.41559
1.41332
1.41115
1.40913
1.40732
1.40573
1.40438
1.40327
1.40237
1.40166
1.40112
1.40072
1.40043
1.40023
1.40009
1.40001
1.39996
1.39993
1.39992
1.39992
1.39993
1.39994
1.39995
1.39996
1.39997
1.39998
1.39999
1.39999
1.39999
1.4
1.4
1.4
1.4
1.4
1.4
1.4
1.4
1.4
1.4
1.40001
1.40001
1.40001
1.40001
1.40001
1.40001
1.40001
1.40001
1.40001
1.40001
1.40001
1.40001
1.40001
1.40001
1.40001
1.41098
1.41345
1.4161
1.41886
1.42162
1.42431
1.42684
1.42914
1.43113
1.43276
1.43401
1.43484
1.43523
1.43517
1.43465
1.43367
1.43224
1.43039
1.42817
1.42566
1.42293
1.42009
1.41725
1.4145
1.41192
1.40959
1.40753
1.40578
1.40432
1.40314
1.40221
1.4015
1.40097
1.40059
1.40032
1.40014
1.40003
1.39996
1.39992
1.39991
1.39991
1.39992
1.39993
1.39994
1.39995
1.39996
1.39997
1.39998
1.39999
1.39999
1.4
1.4
1.4
1.4
1.4
1.4
1.4
1.4
1.4
1.4
1.4
1.40001
1.40001
1.40001
1.40001
1.40001
1.40001
1.40001
1.40001
1.40001
1.40001
1.40001
1.40001
1.40001
1.40001
1.41447
1.41756
1.42082
1.42415
1.42744
1.43058
1.43348
1.43607
1.43828
1.44007
1.44143
1.44233
1.44276
1.4427
1.44215
1.4411
1.43954
1.43749
1.43497
1.43206
1.42884
1.42544
1.42197
1.41857
1.41536
1.41241
1.4098
1.40755
1.40567
1.40414
1.40293
1.402
1.40131
1.4008
1.40045
1.40021
1.40006
1.39997
1.39992
1.3999
1.39989
1.3999
1.39991
1.39993
1.39994
1.39996
1.39997
1.39998
1.39998
1.39999
1.39999
1.4
1.4
1.4
1.4
1.4
1.4
1.4
1.4
1.4
1.4
1.40001
1.40001
1.40001
1.40001
1.40001
1.40001
1.40001
1.40001
1.40001
1.40001
1.40001
1.40001
1.40001
1.40001
1.41867
1.42243
1.42633
1.43022
1.43399
1.4375
1.44066
1.44341
1.44572
1.44755
1.44892
1.44982
1.45026
1.45024
1.44973
1.44871
1.44714
1.44502
1.44233
1.43914
1.43551
1.43158
1.42749
1.42341
1.41949
1.41584
1.41258
1.40974
1.40735
1.4054
1.40384
1.40264
1.40174
1.40109
1.40063
1.40032
1.40011
1.39999
1.39992
1.39989
1.39988
1.39989
1.3999
1.39992
1.39993
1.39995
1.39996
1.39997
1.39998
1.39999
1.39999
1.4
1.4
1.4
1.4
1.4
1.4
1.4
1.4
1.4
1.4
1.40001
1.40001
1.40001
1.40001
1.40001
1.40001
1.40001
1.40001
1.40001
1.40001
1.40001
1.40001
1.40001
1.40001
1.42359
1.42803
1.43253
1.4369
1.44101
1.44471
1.44794
1.45065
1.45283
1.45452
1.45574
1.45655
1.45697
1.457
1.45662
1.45577
1.4544
1.45242
1.44981
1.44654
1.44269
1.43836
1.43372
1.42898
1.42432
1.41992
1.41592
1.41241
1.40942
1.40696
1.40499
1.40346
1.4023
1.40146
1.40086
1.40045
1.40019
1.40002
1.39993
1.39988
1.39987
1.39987
1.39989
1.3999
1.39992
1.39994
1.39995
1.39997
1.39998
1.39998
1.39999
1.4
1.4
1.4
1.4
1.4
1.4
1.4
1.4
1.4
1.4
1.40001
1.40001
1.40001
1.40001
1.40001
1.40001
1.40001
1.40001
1.40001
1.40001
1.40001
1.40001
1.40001
1.40001
1.42918
1.43425
1.43922
1.44389
1.4481
1.45171
1.45469
1.45703
1.45879
1.46006
1.46093
1.46151
1.46184
1.46196
1.46182
1.46135
1.46043
1.45893
1.45672
1.45372
1.44994
1.44547
1.44046
1.43516
1.42981
1.42464
1.41985
1.41559
1.41192
1.40886
1.4064
1.40447
1.40301
1.40193
1.40117
1.40064
1.40029
1.40008
1.39995
1.39989
1.39986
1.39986
1.39987
1.39989
1.39991
1.39993
1.39995
1.39996
1.39997
1.39998
1.39999
1.39999
1.4
1.4
1.4
1.4
1.4
1.4
1.4
1.4
1.4
1.4
1.40001
1.40001
1.40001
1.40001
1.40001
1.40001
1.40001
1.40001
1.40001
1.40001
1.40001
1.40001
1.40001
1.43531
1.44086
1.44609
1.45075
1.45468
1.45779
1.46008
1.46163
1.46256
1.46308
1.46333
1.4635
1.46367
1.4639
1.46415
1.4643
1.46417
1.46354
1.46219
1.45993
1.45668
1.45244
1.44738
1.44174
1.43582
1.42993
1.42435
1.41928
1.41486
1.41113
1.4081
1.40571
1.40388
1.40252
1.40155
1.40088
1.40043
1.40015
1.39998
1.39989
1.39986
1.39985
1.39986
1.39988
1.3999
1.39992
1.39994
1.39995
1.39997
1.39998
1.39999
1.39999
1.4
1.4
1.4
1.4
1.4
1.4
1.4
1.4
1.4
1.4
1.40001
1.40001
1.40001
1.40001
1.40001
1.40001
1.40001
1.40001
1.40001
1.40001
1.40001
1.40001
1.40001
1.44176
1.44754
1.45266
1.45688
1.46004
1.4621
1.46316
1.46339
1.46303
1.46239
1.46172
1.46128
1.46122
1.46159
1.46238
1.46341
1.46444
1.46516
1.46521
1.46427
1.46212
1.45867
1.45401
1.44838
1.44214
1.43567
1.42935
1.42348
1.41826
1.41379
1.41012
1.40719
1.40493
1.40325
1.40204
1.40119
1.40062
1.40025
1.40003
1.39991
1.39986
1.39984
1.39985
1.39986
1.39989
1.39991
1.39993
1.39995
1.39996
1.39997
1.39998
1.39999
1.39999
1.4
1.4
1.4
1.4
1.4
1.4
1.4
1.4
1.4
1.40001
1.40001
1.40001
1.40001
1.40001
1.40001
1.40001
1.40001
1.40001
1.40001
1.40001
1.40001
1.40001
1.44821
1.45382
1.45836
1.46156
1.46333
1.46372
1.46292
1.46124
1.45908
1.45686
1.45496
1.45371
1.45332
1.45388
1.45536
1.45755
1.46014
1.4627
1.46474
1.46577
1.46541
1.4634
1.45975
1.45464
1.44845
1.44166
1.43474
1.42811
1.42208
1.41684
1.41246
1.40893
1.40619
1.40412
1.40262
1.40157
1.40085
1.40039
1.4001
1.39994
1.39986
1.39983
1.39983
1.39985
1.39987
1.3999
1.39992
1.39994
1.39996
1.39997
1.39998
1.39999
1.39999
1.4
1.4
1.4
1.4
1.4
1.4
1.4
1.4
1.4
1.40001
1.40001
1.40001
1.40001
1.40001
1.40001
1.40001
1.40001
1.40001
1.40001
1.40001
1.40001
1.40001
1.45424
1.45919
1.46254
1.46405
1.46373
1.46173
1.4584
1.45422
1.44974
1.44553
1.44209
1.43984
1.43905
1.43985
1.44217
1.4458
1.45033
1.45522
1.45984
1.46353
1.46569
1.46589
1.46395
1.45998
1.45436
1.44761
1.44033
1.43307
1.42628
1.42024
1.41512
1.41094
1.40765
1.40516
1.40333
1.40203
1.40114
1.40056
1.4002
1.39999
1.39988
1.39984
1.39983
1.39984
1.39986
1.39989
1.39991
1.39994
1.39995
1.39997
1.39998
1.39999
1.39999
1.4
1.4
1.4
1.4
1.4
1.4
1.4
1.4
1.4
1.40001
1.40001
1.40001
1.40001
1.40001
1.40001
1.40001
1.40001
1.40001
1.40001
1.40001
1.40001
1.40001
1.45939
1.46306
1.46452
1.46362
1.46045
1.45535
1.44883
1.44156
1.43428
1.42769
1.42244
1.41903
1.41779
1.41887
1.42219
1.4275
1.43433
1.44202
1.44979
1.4568
1.46221
1.46539
1.46595
1.46385
1.45941
1.45319
1.44589
1.43821
1.43076
1.42397
1.41808
1.41321
1.40933
1.40635
1.40415
1.40258
1.40149
1.40077
1.40032
1.40005
1.39991
1.39984
1.39983
1.39983
1.39985
1.39988
1.39991
1.39993
1.39995
1.39996
1.39998
1.39998
1.39999
1.4
1.4
1.4
1.4
1.4
1.4
1.4
1.4
1.4
1.4
1.40001
1.40001
1.40001
1.40001
1.40001
1.40001
1.40001
1.40001
1.40001
1.40001
1.40001
1.40001
1.46315
1.46486
1.46371
1.45964
1.4529
1.44399
1.43367
1.42278
1.41225
1.40295
1.39566
1.39094
1.3892
1.3906
1.39507
1.4023
1.41176
1.42267
1.43412
1.44504
1.45441
1.46133
1.46517
1.46571
1.46314
1.45802
1.45114
1.44334
1.43541
1.42793
1.4213
1.41571
1.41121
1.40771
1.4051
1.40322
1.40191
1.40103
1.40047
1.40014
1.39995
1.39986
1.39983
1.39983
1.39985
1.39987
1.3999
1.39992
1.39994
1.39996
1.39997
1.39998
1.39999
1.39999
1.4
1.4
1.4
1.4
1.4
1.4
1.4
1.4
1.4
1.40001
1.40001
1.40001
1.40001
1.40001
1.40001
1.40001
1.40001
1.40001
1.40001
1.40001
1.40001
1.46508
1.46413
1.45964
1.45168
1.44067
1.42735
1.41265
1.39767
1.38351
1.37121
1.36165
1.35551
1.35322
1.35498
1.36072
1.37009
1.38247
1.397
1.41259
1.428
1.44195
1.45331
1.46119
1.46512
1.46515
1.46176
1.4558
1.44825
1.44006
1.43204
1.42473
1.41843
1.41328
1.40923
1.40617
1.40395
1.40239
1.40134
1.40066
1.40024
1.4
1.39988
1.39984
1.39983
1.39984
1.39987
1.39989
1.39992
1.39994
1.39996
1.39997
1.39998
1.39999
1.39999
1.4
1.4
1.4
1.4
1.4
1.4
1.4
1.4
1.4
1.40001
1.40001
1.40001
1.40001
1.40001
1.40001
1.40001
1.40001
1.40001
1.40001
1.40001
1.40001
1.4648
1.46053
1.45203
1.43953
1.42365
1.40533
1.38578
1.3663
1.34818
1.33261
1.32059
1.31289
1.31
1.31214
1.31926
1.33095
1.34655
1.36505
1.38521
1.40559
1.42471
1.44113
1.45372
1.46177
1.46509
1.46408
1.45959
1.45271
1.44458
1.43619
1.42828
1.42132
1.41551
1.41089
1.40736
1.40477
1.40294
1.40169
1.40088
1.40037
1.40008
1.39992
1.39985
1.39983
1.39984
1.39986
1.39989
1.39991
1.39994
1.39995
1.39997
1.39998
1.39999
1.39999
1.4
1.4
1.4
1.4
1.4
1.4
1.4
1.4
1.4
1.40001
1.40001
1.40001
1.40001
1.40001
1.40001
1.40001
1.40001
1.40001
1.40001
1.40001
1.40001
1.4621
1.4539
1.44079
1.42318
1.4019
1.37813
1.3533
1.32896
1.30658
1.28751
1.27285
1.26347
1.25992
1.26245
1.27102
1.2852
1.30424
1.32703
1.35215
1.37797
1.40274
1.42479
1.4427
1.45549
1.46276
1.46476
1.46229
1.45653
1.44878
1.44025
1.43188
1.42431
1.41788
1.41268
1.40866
1.40568
1.40355
1.40209
1.40113
1.40052
1.40016
1.39996
1.39987
1.39984
1.39984
1.39986
1.39989
1.39991
1.39993
1.39995
1.39997
1.39998
1.39999
1.39999
1.4
1.4
1.4
1.4
1.4
1.4
1.4
1.4
1.4
1.40001
1.40001
1.40001
1.40001
1.40001
1.40001
1.40001
1.40001
1.40001
1.40001
1.40001
1.40001
1.45689
1.44425
1.42604
1.40286
1.37573
1.34611
1.31566
1.28616
1.25928
1.23651
1.21906
1.20789
1.20361
1.20652
1.21658
1.23337
1.25605
1.2834
1.31381
1.34543
1.37628
1.40443
1.42818
1.44627
1.45807
1.46365
1.46373
1.45955
1.45254
1.44412
1.43545
1.42736
1.42033
1.41456
1.41004
1.40666
1.40422
1.40253
1.40141
1.40069
1.40026
1.40002
1.3999
1.39985
1.39985
1.39986
1.39988
1.39991
1.39993
1.39995
1.39997
1.39998
1.39999
1.39999
1.4
1.4
1.4
1.4
1.4
1.4
1.4
1.4
1.4
1.4
1.40001
1.40001
1.40001
1.40001
1.40001
1.40001
1.40001
1.40001
1.40001
1.40001
1.40001
1.44926
1.43177
1.40808
1.37894
1.34563
1.30983
1.2735
1.23862
1.20706
1.18045
1.16012
1.14708