/*--------------------------------*- C++ -*----------------------------------*\
  =========                 |
  \\      /  F ield         | OpenFOAM: The Open Source CFD Toolbox
   \\    /   O peration     | Website:  https://openfoam.org
    \\  /    A nd           | Version:  6
     \\/     M anipulation  |
\*---------------------------------------------------------------------------*/
FoamFile
{
    version     2.0;
    format      ascii;
    class       surfaceScalarField;
    location    "3.06";
    object      phi;
}
// * * * * * * * * * * * * * * * * * * * * * * * * * * * * * * * * * * * * * //

dimensions      [0 3 -1 0 0 0 0];

internalField   nonuniform List<scalar> 
8193
(
0.193083
-0.394459
-0.192312
0.187349
-0.400106
0.178906
-0.401125
0.169538
-0.40149
0.159844
-0.402358
0.149997
-0.403692
0.139906
-0.405296
0.129442
-0.407032
0.118507
-0.408906
0.107007
-0.411136
0.0947477
-0.414403
0.0807905
-0.418416
0.0642223
-0.412946
0.0429029
-0.380928
0.0191052
-0.313288
-0.00469475
-0.230269
-0.0281121
-0.150798
-0.0518129
-0.101155
-0.0765028
-0.0999781
-0.100772
-0.131361
-0.122146
-0.173091
-0.138968
-0.220218
-0.151549
-0.269771
-0.159899
-0.316905
-0.163321
-0.357027
-0.162643
-0.386241
-0.160127
-0.403662
-0.157539
-0.411814
-0.156397
-0.414544
-0.157153
-0.415544
-0.159462
-0.416448
-0.162734
-0.417174
-0.166663
-0.417244
-0.171189
-0.416614
-0.17627
-0.415619
-0.181826
-0.414614
-0.187678
-0.413765
-0.193415
-0.413316
-0.198024
-0.413348
-0.19939
-0.412232
-0.404829
-0.192891
0.205023
-0.387599
-0.211882
0.193902
-0.388985
0.182776
-0.389999
0.172001
-0.390715
0.161308
-0.391665
0.150551
-0.392935
0.139552
-0.394297
0.128176
-0.395656
0.116285
-0.397015
0.103777
-0.398628
0.0902869
-0.400913
0.0750417
-0.403171
0.0574687
-0.395373
0.0359321
-0.359391
0.0138147
-0.291171
-0.00694452
-0.20951
-0.0263981
-0.131344
-0.0461891
-0.0813639
-0.0678882
-0.078279
-0.091663
-0.107586
-0.115139
-0.149615
-0.136005
-0.199352
-0.153026
-0.25275
-0.16553
-0.304401
-0.173569
-0.348987
-0.176032
-0.383779
-0.174122
-0.405572
-0.170478
-0.415459
-0.167528
-0.417494
-0.166634
-0.416438
-0.167899
-0.415183
-0.170681
-0.414392
-0.174398
-0.413526
-0.178848
-0.412165
-0.184009
-0.410458
-0.189903
-0.40872
-0.196518
-0.407151
-0.20381
-0.406024
-0.211736
-0.405422
-0.219538
-0.40443
-0.402854
-0.221512
0.206568
-0.377064
-0.217103
0.195102
-0.377519
0.183781
-0.378678
0.172732
-0.379666
0.161747
-0.38068
0.150622
-0.381811
0.139254
-0.382929
0.127522
-0.383924
0.115279
-0.384772
0.102365
-0.385714
0.0884074
-0.386956
0.0727338
-0.387497
0.0547954
-0.377434
0.0343884
-0.338984
0.0145603
-0.271343
-0.00323142
-0.191718
-0.0191241
-0.115452
-0.0359262
-0.0645618
-0.0559941
-0.058211
-0.0793351
-0.0842451
-0.103548
-0.125403
-0.126783
-0.176117
-0.147549
-0.231984
-0.164168
-0.287782
-0.175016
-0.338139
-0.180125
-0.37867
-0.180435
-0.405262
-0.177494
-0.4184
-0.173979
-0.421008
-0.17201
-0.418406
-0.172364
-0.414829
-0.174683
-0.412073
-0.178252
-0.409957
-0.182658
-0.407759
-0.187821
-0.405294
-0.193717
-0.402824
-0.200282
-0.400586
-0.207598
-0.398709
-0.215802
-0.397218
-0.224517
-0.395714
-0.395184
-0.232187
0.209083
-0.364842
-0.221304
0.197263
-0.365699
0.185558
-0.366974
0.174056
-0.368163
0.16264
-0.369264
0.151119
-0.37029
0.139373
-0.371182
0.127253
-0.371804
0.114593
-0.372112
0.101226
-0.372347
0.0868557
-0.372585
0.0708526
-0.371494
0.0528927
-0.359474
0.0342087
-0.3203
0.0173213
-0.254456
0.00304993
-0.177447
-0.00910514
-0.103297
-0.0223956
-0.0512713
-0.0408712
-0.0397353
-0.063474
-0.0616424
-0.0877579
-0.101119
-0.112053
-0.151822
-0.135182
-0.208856
-0.155564
-0.267399
-0.171436
-0.322267
-0.18148
-0.368626
-0.185175
-0.401567
-0.184125
-0.41945
-0.180847
-0.424287
-0.178128
-0.421125
-0.177513
-0.415445
-0.179215
-0.41037
-0.182594
-0.406578
-0.187005
-0.403348
-0.19225
-0.400049
-0.198319
-0.396755
-0.205202
-0.393702
-0.212824
-0.391086
-0.221283
-0.388759
-0.230508
-0.386489
-0.385252
-0.240441
0.211
-0.35261
-0.223233
0.199008
-0.353706
0.187129
-0.355094
0.175379
-0.356414
0.163669
-0.357554
0.151877
-0.358498
0.139866
-0.359171
0.127496
-0.359434
0.114587
-0.359202
0.100934
-0.358695
0.0863954
-0.358046
0.070413
-0.355512
0.0531655
-0.342227
0.0366005
-0.303735
0.022684
-0.240539
0.0119652
-0.166728
0.00353147
-0.0948628
-0.00631046
-0.0414294
-0.0225872
-0.0234586
-0.0438989
-0.0403308
-0.0676776
-0.0773399
-0.0923682
-0.127131
-0.116945
-0.184279
-0.140443
-0.243901
-0.160702
-0.302008
-0.176273
-0.353055
-0.185263
-0.392578
-0.187821
-0.416891
-0.18618
-0.425928
-0.183378
-0.423927
-0.181936
-0.416887
-0.182933
-0.409373
-0.186047
-0.403464
-0.190477
-0.398918
-0.195813
-0.394713
-0.202007
-0.390561
-0.209052
-0.386658
-0.216948
-0.383191
-0.225638
-0.38007
-0.234993
-0.377133
-0.375166
-0.245079
0.213518
-0.339894
-0.226234
0.201148
-0.341336
0.189037
-0.342983
0.177062
-0.344439
0.165128
-0.34562
0.153126
-0.346497
0.140939
-0.346984
0.128435
-0.346931
0.115432
-0.346199
0.101745
-0.345008
0.0871377
-0.343439
0.0715343
-0.339908
0.0553672
-0.32606
0.0409159
-0.289284
0.0298689
-0.229492
0.0222736
-0.159133
0.0176059
-0.090195
0.0114301
-0.0352536
-0.00176154
-0.0102669
-0.0213322
-0.0207601
-0.0442336
-0.0544385
-0.0688672
-0.102498
-0.0943811
-0.158765
-0.119883
-0.218399
-0.143927
-0.277964
-0.164697
-0.332284
-0.179619
-0.377656
-0.187262
-0.409248
-0.188989
-0.424201
-0.187468
-0.425449
-0.185822
-0.418533
-0.186065
-0.40913
-0.188751
-0.400777
-0.193207
-0.394463
-0.198712
-0.389208
-0.205098
-0.384176
-0.21235
-0.379405
-0.220458
-0.375083
-0.229425
-0.371102
-0.239282
-0.367276
-0.364431
-0.250017
0.216002
-0.327027
-0.228868
0.203508
-0.328843
0.191257
-0.330731
0.179131
-0.332313
0.167043
-0.333532
0.154924
-0.334378
0.142671
-0.33473
0.130152
-0.334412
0.117232
-0.333278
0.103737
-0.331513
0.0894756
-0.329177
0.0743302
-0.324763
0.0593931
-0.311123
0.046966
-0.276856
0.038446
-0.220972
0.0337476
-0.154434
0.0319075
-0.088355
0.029425
-0.0327711
0.020251
-0.00109297
0.00341498
-0.00392403
-0.0183257
-0.0326979
-0.0425762
-0.078247
-0.0683443
-0.132997
-0.0948817
-0.191862
-0.121635
-0.25121
-0.146663
-0.307256
-0.167399
-0.35692
-0.181201
-0.395447
-0.187581
-0.41782
-0.18905
-0.42398
-0.188345
-0.419238
-0.18833
-0.409145
-0.190589
-0.398518
-0.194962
-0.39009
-0.200624
-0.383546
-0.207246
-0.377553
-0.214766
-0.371885
-0.223114
-0.366735
-0.232318
-0.361898
-0.242374
-0.357221
-0.353449
-0.253355
0.218891
-0.314022
-0.231897
0.206283
-0.316234
0.193908
-0.318357
0.181678
-0.320083
0.169525
-0.321379
0.157396
-0.322248
0.145185
-0.32252
0.132772
-0.321999
0.120051
-0.320557
0.106958
-0.31842
0.0932866
-0.315506
0.0789945
-0.310471
0.0652513
-0.297379
0.0544744
-0.26608
0.0480996
-0.214597
0.0457541
-0.152089
0.0463048
-0.0889057
0.0469586
-0.0334248
0.0421462
0.00371945
0.0290597
0.00916245
0.00909873
-0.0127369
-0.0145456
-0.0546027
-0.0401995
-0.107343
-0.0671808
-0.164881
-0.0952064
-0.223185
-0.123077
-0.279386
-0.148709
-0.331288
-0.168966
-0.37519
-0.181181
-0.405606
-0.186884
-0.418277
-0.188593
-0.417529
-0.189186
-0.408552
-0.191232
-0.396472
-0.19559
-0.385732
-0.201509
-0.377627
-0.208413
-0.370649
-0.216154
-0.364144
-0.224794
-0.358094
-0.234325
-0.352367
-0.244613
-0.346934
-0.342236
-0.255826
0.22213
-0.301008
-0.235143
0.209476
-0.303581
0.19704
-0.30592
0.184774
-0.307817
0.172654
-0.30926
0.160619
-0.310213
0.148557
-0.310458
0.136373
-0.309815
0.124005
-0.30819
0.111442
-0.305856
0.0985339
-0.302598
0.0852847
-0.297222
0.0727726
-0.284867
0.0634007
-0.256708
0.0586044
-0.209801
0.0579964
-0.151481
0.0603571
-0.0912663
0.0635884
-0.0366561
0.0631887
0.00411916
0.0540641
0.018287
0.0368706
0.00445657
0.0142923
-0.0320243
-0.0110878
-0.0819629
-0.0381324
-0.137836
-0.0664999
-0.194817
-0.0957156
-0.25017
-0.124596
-0.302408
-0.150356
-0.349429
-0.169281
-0.386681
-0.179905
-0.407654
-0.185526
-0.411908
-0.187986
-0.406092
-0.19036
-0.394098
-0.194773
-0.381319
-0.200991
-0.37141
-0.208309
-0.36333
-0.216459
-0.355995
-0.225441
-0.349113
-0.235261
-0.342547
-0.245798
-0.336397
-0.330881
-0.257152
0.22582
-0.287989
-0.238839
0.213131
-0.290891
0.200686
-0.293476
0.18848
-0.295611
0.176491
-0.297271
0.164643
-0.298365
0.152827
-0.298642
0.140992
-0.297981
0.129126
-0.296323
0.117259
-0.29399
0.105255
-0.290594
0.0931594
-0.285126
0.0818461
-0.273554
0.0735302
-0.248392
0.0697758
-0.206047
0.0702442
-0.151949
0.0737511
-0.0947732
0.0786767
-0.0415817
0.081731
0.00106485
0.0766339
0.0233841
0.063507
0.0175835
0.0428922
-0.0114095
0.0181112
-0.0571819
-0.00879005
-0.110935
-0.0370764
-0.166531
-0.0665483
-0.220698
-0.0968838
-0.272072
-0.126414
-0.319899
-0.151646
-0.361448
-0.168362
-0.390938
-0.178095
-0.402175
-0.183914
-0.400273
-0.187555
-0.390457
-0.192294
-0.376579
-0.198874
-0.36483
-0.2067
-0.355504
-0.215392
-0.347302
-0.224813
-0.339692
-0.235009
-0.332351
-0.245914
-0.325492
-0.319214
-0.257581
0.229882
-0.274991
-0.24288
0.217215
-0.278224
0.204855
-0.281115
0.192814
-0.28357
0.181046
-0.285503
0.169467
-0.286785
0.15799
-0.287165
0.146623
-0.286614
0.135392
-0.285092
0.124362
-0.282961
0.113377
-0.279608
0.102518
-0.274267
0.0923607
-0.263397
0.0847932
-0.240824
0.0814975
-0.202751
0.082366
-0.152818
0.0863109
-0.098718
0.0919882
-0.0472591
0.0970291
-0.003976
0.0960672
0.0243459
0.0872504
0.0264003
0.0698344
0.00600645
0.0464705
-0.0338181
0.0200129
-0.0844773
-0.00800998
-0.138508
-0.0372602
-0.191448
-0.0677754
-0.241557
-0.0990006
-0.288674
-0.128597
-0.331852
-0.152185
-0.367349
-0.166848
-0.387513
-0.17621
-0.390911
-0.182358
-0.384308
-0.187951
-0.370987
-0.195055
-0.357726
-0.203442
-0.347117
-0.212787
-0.337958
-0.22276
-0.329719
-0.23341
-0.321701
-0.244745
-0.314157
-0.307156
-0.256803
0.23422
-0.262113
-0.247098
0.22169
-0.265694
0.209528
-0.268953
0.197746
-0.271787
0.186274
-0.274032
0.175038
-0.275548
0.16399
-0.276118
0.153208
-0.275831
0.142734
-0.274618
0.132665
-0.272892
0.122781
-0.269724
0.113218
-0.264705
0.104159
-0.254338
0.0971158
-0.233781
0.0937654
-0.199401
0.0943489
-0.153401
0.0980053
-0.102374
0.10361
-0.0528643
0.109531
-0.00989622
0.112206
0.0216702
0.106915
0.0316917
0.0934507
0.0194709
0.0726597
-0.0130271
0.0473532
-0.0591709
0.0197981
-0.110953
-0.00906721
-0.162583
-0.0392116
-0.211413
-0.0705497
-0.257336
-0.102133
-0.300269
-0.130777
-0.338704
-0.15191
-0.36638
-0.16523
-0.377591
-0.17454
-0.374998
-0.181678
-0.363849
-0.189583
-0.34982
-0.198541
-0.338159
-0.208583
-0.327916
-0.219219
-0.319083
-0.230394
-0.310525
-0.242247
-0.302304
-0.294484
-0.25492
0.238793
-0.24944
-0.251467
0.226507
-0.253408
0.214642
-0.257089
0.203188
-0.260333
0.192067
-0.262911
0.181246
-0.264727
0.170723
-0.265595
0.160648
-0.265756
0.151043
-0.265013
0.142043
-0.263892
0.13331
-0.260991
0.125073
-0.256468
0.117007
-0.246271
0.110347
-0.227121
0.106536
-0.19559
0.106186
-0.153051
0.108833
-0.105021
0.113586
-0.0576176
0.119272
-0.0155821
0.123728
0.0172139
0.121421
0.0339987
0.112305
0.0285875
0.0950866
0.00419096
0.071946
-0.0360303
0.0454468
-0.0844536
0.0171687
-0.134305
-0.0124257
-0.181818
-0.0432314
-0.22653
-0.0752337
-0.268267
-0.106013
-0.307926
-0.132637
-0.339755
-0.151229
-0.358999
-0.164617
-0.36161
-0.173489
-0.354977
-0.18258
-0.340729
-0.192161
-0.328578
-0.202855
-0.317221
-0.21422
-0.307718
-0.225979
-0.298766
-0.238322
-0.289961
-0.28147
-0.251336
0.243518
-0.23698
-0.255978
0.231576
-0.241466
0.22007
-0.245582
0.208999
-0.249262
0.19825
-0.252162
0.187938
-0.254414
0.178041
-0.255698
0.16882
-0.256535
0.160181
-0.256374
0.152356
-0.256068
0.144755
-0.253389
0.137825
-0.249538
0.130492
-0.238938
0.124137
-0.220767
0.119535
-0.190988
0.117734
-0.151249
0.11874
-0.106027
0.121942
-0.06082
0.126491
-0.0201309
0.130888
0.0128171
0.13107
0.0338163
0.12538
0.034278
0.112207
0.0173641
0.0922624
-0.016086
0.0676908
-0.0598821
0.0404862
-0.1071
0.0115436
-0.152876
-0.0184241
-0.196562
-0.050021
-0.23667
-0.0811994
-0.276747
-0.110696
-0.310258
-0.133403
-0.336293
-0.151424
-0.343589
-0.163519
-0.342882
-0.174215
-0.330033
-0.184606
-0.318187
-0.195859
-0.305968
-0.207976
-0.295601
-0.220342
-0.2864
-0.233188
-0.277115
-0.268158
-0.246501
0.248093
-0.224829
-0.260244
0.236589
-0.229963
0.225386
-0.234379
0.214823
-0.238699
0.204552
-0.241892
0.194932
-0.244794
0.18575
-0.246516
0.177576
-0.248361
0.169936
-0.248733
0.16342
-0.249552
0.156776
-0.246745
0.151105
-0.243867
0.143929
-0.231763
0.137975
-0.214813
0.132031
-0.185044
0.12863
-0.147848
0.127517
-0.104914
0.128653
-0.0619561
0.13141
-0.0228876
0.134693
0.00953397
0.136458
0.0320509
0.132788
0.0379478
0.123219
0.0269337
0.106893
0.000239548
0.0850652
-0.0380541
0.0596157
-0.0816505
0.0316637
-0.124924
0.00292127
-0.16782
-0.0280818
-0.205667
-0.0584433
-0.246386
-0.0895962
-0.279106
-0.114392
-0.311498
-0.136293
-0.321687
-0.15169
-0.327486
-0.164563
-0.31716
-0.176222
-0.306528
-0.187935
-0.294255
-0.200808
-0.282729
-0.213724
-0.273484
-0.22715
-0.263689
-0.254542
-0.240765
0.252373
-0.212932
-0.26427
0.241321
-0.21891
0.230385
-0.223443
0.22039
-0.228704
0.210441
-0.231943
0.201687
-0.23604
0.19332
-0.23815
0.186405
-0.241445
0.179855
-0.242183
0.174721
-0.244419
0.168711
-0.240735
0.164295
-0.239451
0.156366
-0.223834
0.151161
-0.209607
0.142824
-0.176708
0.13842
-0.143444
0.134478
-0.100971
0.133464
-0.0609424
0.133891
-0.023315
0.135133
0.00829216
0.136814
0.0303697
0.13436
0.0404016
0.128016
0.0332782
0.114918
0.0133373
0.0963395
-0.0194753
0.0735833
-0.0588943
0.046726
-0.0980664
0.0200922
-0.141186
-0.010526
-0.175049
-0.0388299
-0.218082
-0.0711796
-0.246756
-0.0959918
-0.286685
-0.121325
-0.296355
-0.138799
-0.310011
-0.153836
-0.302123
-0.167348
-0.293016
-0.179388
-0.282215
-0.193203
-0.268914
-0.206481
-0.260206
-0.220719
-0.249451
-0.240694
-0.234567
0.255933
-0.268036
0.245678
0.234764
0.225687
0.21598
0.208402
0.20063
0.195086
0.189128
0.185458
0.179669
0.176217
0.167284
0.162608
0.151083
0.146245
0.138349
0.135529
0.133198
0.131697
0.132735
0.12953
0.126099
0.11625
0.100681
0.0814233
0.0555015
0.0320169
0.00190397
-0.0238137
-0.0566377
-0.0806391
-0.107655
-0.125874
-0.14247
-0.157799
-0.170824
-0.185644
-0.1994
-0.214364
-0.228501
0.209288
-0.217097
0.196337
-0.221616
0.181824
-0.226252
0.166145
-0.230822
0.149743
-0.234934
0.133003
-0.23818
0.116355
-0.240155
0.0999783
-0.241204
0.0842886
-0.241463
0.069397
-0.240934
0.0555424
-0.239501
0.0429568
-0.237432
0.0314479
-0.23357
0.0219611
-0.230954
0.0134306
-0.223657
0.0108215
-0.218903
-0.18207
0.20006
-0.205347
0.187477
-0.209033
0.174122
-0.212897
0.159901
-0.216601
0.144974
-0.220007
0.129677
-0.222882
0.114402
-0.22488
0.0991559
-0.225958
0.0842908
-0.226597
0.070005
-0.226649
0.0564865
-0.225982
0.0437697
-0.224715
0.0322755
-0.222076
0.0215352
-0.220213
0.0128249
-0.214947
0.00507261
-0.211151
-0.176997
0.189693
-0.194772
0.178328
-0.197668
0.166009
-0.200578
0.152935
-0.203527
0.139256
-0.206328
0.125164
-0.208791
0.110973
-0.210689
0.0969672
-0.211952
0.0830657
-0.212696
0.0695519
-0.213135
0.0565788
-0.213009
0.0441967
-0.212333
0.0330318
-0.210911
0.0222054
-0.209387
0.0131711
-0.205912
0.00444442
-0.202424
-0.172553
0.180316
-0.184205
0.16928
-0.186632
0.157803
-0.189101
0.145782
-0.191507
0.133257
-0.193803
0.120327
-0.195861
0.107244
-0.197605
0.094244
-0.198953
0.0814273
-0.199879
0.0687143
-0.200422
0.056369
-0.200664
0.0444092
-0.200373
0.0333112
-0.199813
0.0226195
-0.198695
0.0133418
-0.196635
0.00383234
-0.192915
-0.16872
0.170002
-0.174644
0.15999
-0.17662
0.149397
-0.178508
0.138328
-0.180438
0.126843
-0.182318
0.115015
-0.184033
0.102974
-0.185564
0.0909334
-0.186912
0.0790403
-0.187986
0.0672878
-0.188669
0.0556399
-0.189016
0.0443207
-0.189054
0.0334906
-0.188983
0.0231123
-0.188317
0.013911
-0.187433
0.00462707
-0.183631
-0.164093
0.160359
-0.165304
0.15073
-0.166991
0.14086
-0.168638
0.130654
-0.170231
0.120118
-0.171782
0.109306
-0.173221
0.0983036
-0.174562
0.0872079
-0.175817
0.0761334
-0.176911
0.0651881
-0.177724
0.0544175
-0.178246
0.0438038
-0.17844
0.0334209
-0.1786
0.0234141
-0.17831
0.0141759
-0.178195
0.00523131
-0.174686
-0.158862
0.149991
-0.156834
0.141279
-0.158278
0.132171
-0.159531
0.12277
-0.16083
0.113118
-0.16213
0.103247
-0.16335
0.0932183
-0.164533
0.0830731
-0.165671
0.0728382
-0.166677
0.062624
-0.16751
0.052544
-0.168166
0.042707
-0.168603
0.0329243
-0.168818
0.0234973
-0.168883
0.0144592
-0.169157
0.00583956
-0.166066
-0.153022
0.140078
-0.148754
0.131776
-0.149977
0.123346
-0.151101
0.114709
-0.152193
0.105878
-0.153299
0.0968932
-0.154365
0.0877758
-0.155416
0.078527
-0.156423
0.0691662
-0.157316
0.059748
-0.158092
0.0503445
-0.158762
0.0410642
-0.159323
0.0320582
-0.159812
0.0232017
-0.160027
0.0145739
-0.160529
0.00630836
-0.157801
-0.146714
0.129613
-0.141427
0.122147
-0.142511
0.114403
-0.143357
0.106485
-0.144275
0.0984296
-0.145243
0.0902538
-0.14619
0.081957
-0.147119
0.0735405
-0.148006
0.0650264
-0.148802
0.0564623
-0.149527
0.0478778
-0.150178
0.0393045
-0.150749
0.0307772
-0.151284
0.0223987
-0.151648
0.0142462
-0.152377
0.0063896
-0.149944
-0.140324
0.119443
-0.134622
0.112439
-0.135506
0.105359
-0.136277
0.0981641
-0.13708
0.0908579
-0.137937
0.0834418
-0.138773
0.0759035
-0.139581
0.0682482
-0.140351
0.0604985
-0.141052
0.052695
-0.141724
0.044849
-0.142332
0.0370196
-0.14292
0.0292103
-0.143475
0.0214697
-0.143908
0.0136674
-0.144574
0.00629694
-0.142574
-0.134027
0.108907
-0.128474
0.102678
-0.129278
0.0962724
-0.129871
0.0897727
-0.13058
0.083187
-0.131351
0.076493
-0.132079
0.0696798
-0.132768
0.0627608
-0.133432
0.055756
-0.134047
0.0486932
-0.134661
0.0415688
-0.135207
0.0344415
-0.135793
0.0272642
-0.136298
0.0201855
-0.136829
0.0130075
-0.137396
0.00613432
-0.135701
-0.127893
0.098541
-0.122961
0.0928512
-0.123588
0.0871327
-0.124153
0.0813408
-0.124788
0.0754464
-0.125457
0.0694418
-0.126075
0.0633301
-0.126656
0.0571264
-0.127228
0.0508458
-0.127766
0.0445042
-0.12832
0.0380976
-0.128801
0.0316735
-0.129368
0.0251688
-0.129793
0.0187313
-0.130391
0.0121441
-0.130809
0.00581352
-0.12937
-0.12208
0.0879921
-0.118044
0.083044
-0.11864
0.0779981
-0.119107
0.0728728
-0.119663
0.0676488
-0.120233
0.0623208
-0.120747
0.0568988
-0.121234
0.051395
-0.121724
0.0458189
-0.12219
0.0401772
-0.122678
0.0344722
-0.123096
0.0287348
-0.123631
0.0229209
-0.123979
0.0171355
-0.124606
0.011184
-0.124858
0.00545289
-0.123639
-0.116627
0.0775257
-0.11386
0.0731938
-0.114308
0.0688382
-0.114752
0.0643888
-0.115213
0.0598243
-0.115668
0.0551648
-0.116087
0.0504242
-0.116494
0.0456069
-0.116907
0.0407193
-0.117303
0.0357637
-0.117722
0.030747
-0.118079
0.0256778
-0.118562
0.0205392
-0.118841
0.0154059
-0.119473
0.0100731
-0.119525
0.0049357
-0.118502
-0.111691
0.0670503
-0.110231
0.0634199
-0.110678
0.0597102
-0.111042
0.0559017
-0.111405
0.0519947
-0.111761
0.0480043
-0.112097
0.0439376
-0.112427
0.0397941
-0.112763
0.0355812
-0.11309
0.0312979
-0.113439
0.0269553
-0.113736
0.0225479
-0.114155
0.0180845
-0.114377
0.0135848
-0.114973
0.00893546
-0.114876
0.0043774
-0.113944
-0.107314
0.056596
-0.1074
0.0536239
-0.107706
0.0505792
-0.107997
0.0474325
-0.108258
0.0441866
-0.108515
0.0408612
-0.108772
0.0374621
-0.109028
0.0339861
-0.109287
0.030439
-0.109543
0.0268157
-0.109816
0.0231342
-0.110055
0.0193782
-0.110399
0.0155834
-0.110582
0.0117222
-0.111111
0.00774116
-0.110895
0.00383219
-0.110035
-0.103481
0.0462895
-0.105084
0.0439564
-0.105372
0.0415204
-0.105561
0.0390077
-0.105746
0.0364206
-0.105928
0.0337593
-0.10611
0.0310234
-0.106292
0.0282111
-0.106475
0.025326
-0.106658
0.022361
-0.106851
0.0193334
-0.107027
0.016215
-0.10728
0.0130542
-0.107422
0.00978086
-0.107838
0.00645423
-0.107568
0.0031505
-0.106731
-0.100331
0.0359384
-0.103606
0.0342931
-0.103727
0.0325413
-0.103809
0.030697
-0.103901
0.0287634
-0.103995
0.0267478
-0.104095
0.0246538
-0.104198
0.0224847
-0.104306
0.0202467
-0.10442
0.0179356
-0.10454
0.0155644
-0.104656
0.0131063
-0.104822
0.0106134
-0.104929
0.00797855
-0.105203
0.00532572
-0.104915
0.00258275
-0.103988
-0.0977482
0.0258013
-0.102556
0.0247298
-0.102656
0.0235901
-0.10267
0.0223856
-0.102697
0.0211091
-0.102718
0.0197582
-0.102744
0.0183299
-0.10277
0.0168217
-0.102798
0.015231
-0.102829
0.0135551
-0.102864
0.0118061
-0.102907
0.0099688
-0.102985
0.00807961
-0.10304
0.00606977
-0.103194
0.00407173
-0.102917
0.00188625
-0.101802
-0.095862
0.01553
-0.102353
0.0151083
-0.102234
0.0145988
-0.10216
0.0140084
-0.102106
0.0133434
-0.102053
0.0126038
-0.102004
0.0117911
-0.101957
0.0109051
-0.101912
0.00994589
-0.10187
0.00891425
-0.101832
0.00781213
-0.101805
0.00662353
-0.101796
0.0053866
-0.101803
0.003999
-0.101806
0.00265297
-0.101571
0.00110486
-0.100254
-0.0947571
0.00569699
-0.102495
0.00586485
-0.102402
0.00599259
-0.102288
0.00604334
-0.102157
0.00601856
-0.102028
0.00591307
-0.101899
0.00572896
-0.101773
0.00546572
-0.101649
0.00512321
-0.101527
0.00470222
-0.101411
0.00420071
-0.101303
0.00361639
-0.101212
0.00296782
-0.101154
0.00219843
-0.101037
0.00145497
-0.100828
0.000509383
-0.0993087
-0.0942477
-0.00418431
-0.103674
-0.00329629
-0.10329
-0.00252378
-0.10306
-0.00184828
-0.102833
-0.00125138
-0.102625
-0.000738037
-0.102412
-0.000307716
-0.102203
3.93404e-05
-0.101996
0.000304388
-0.101792
0.000487906
-0.101595
0.000589538
-0.101405
0.000613118
-0.101235
0.000557781
-0.101099
0.000403574
-0.100882
0.000247544
-0.100672
-8.76652e-05
-0.0989735
-0.0943354
-0.0138368
-0.104992
-0.012415
-0.104711
-0.0110244
-0.104451
-0.00972986
-0.104127
-0.00852889
-0.103826
-0.00741594
-0.103525
-0.00638739
-0.103232
-0.00544182
-0.102941
-0.0045777
-0.102656
-0.00379428
-0.102378
-0.00309147
-0.102108
-0.00246395
-0.101863
-0.00191674
-0.101646
-0.00145219
-0.101347
-0.000999078
-0.101125
-0.000707014
-0.0992655
-0.0950424
-0.0233678
-0.10746
-0.0212756
-0.106804
-0.0193182
-0.106408
-0.0174491
-0.105996
-0.0156641
-0.105611
-0.0139661
-0.105223
-0.0123536
-0.104844
-0.0108246
-0.10447
-0.00937652
-0.104104
-0.00800784
-0.103747
-0.00671621
-0.103399
-0.0054967
-0.103082
-0.00435848
-0.102784
-0.00328352
-0.102422
-0.00223917
-0.102169
-0.00130555
-0.100199
-0.096348
-0.0326769
-0.109913
-0.0300493
-0.109431
-0.0274774
-0.10898
-0.0250134
-0.10846
-0.0226503
-0.107974
-0.0203812
-0.107492
-0.0182012
-0.107024
-0.0161064
-0.106565
-0.0140936
-0.106117
-0.0121604
-0.10568
-0.0103022
-0.105257
-0.00851474
-0.10487
-0.00680443
-0.104494
-0.00514159
-0.104085
-0.00351479
-0.103796
-0.00192187
-0.101792
-0.0982698
-0.0417903
-0.113618
-0.0385321
-0.11269
-0.0354196
-0.112093
-0.0324049
-0.111475
-0.0294863
-0.110893
-0.0266623
-0.110316
-0.0239296
-0.109757
-0.0212836
-0.109211
-0.0187206
-0.10868
-0.0162374
-0.108163
-0.0138289
-0.107666
-0.011492
-0.107207
-0.00922404
-0.106762
-0.00698874
-0.10632
-0.00480492
-0.10598
-0.00245836
-0.104139
-0.100728
-0.0507022
-0.117175
-0.0469182
-0.116474
-0.0432192
-0.115792
-0.0396413
-0.115053
-0.0361764
-0.114358
-0.0328132
-0.113679
-0.0295448
-0.113025
-0.0263652
-0.112391
-0.0232688
-0.111777
-0.0202467
-0.111185
-0.017287
-0.110626
-0.014386
-0.110108
-0.0115442
-0.109604
-0.00868079
-0.109183
-0.00592844
-0.108732
-0.00298121
-0.107086
-0.103709
-0.059391
-0.122059
-0.0550164
-0.120848
-0.0508078
-0.12
-0.0467097
-0.119151
-0.0427205
-0.118347
-0.0388353
-0.117565
-0.0350475
-0.116813
-0.0313486
-0.11609
-0.0277268
-0.115399
-0.0241682
-0.114744
-0.0206544
-0.114139
-0.0171906
-0.113572
-0.0137605
-0.113034
-0.0103525
-0.112591
-0.00702364
-0.112061
-0.00351831
-0.110591
-0.107228
-0.0678957
-0.126687
-0.0630141
-0.12573
-0.0582478
-0.124767
-0.053621
-0.123778
-0.0491176
-0.12285
-0.0447227
-0.12196
-0.0404247
-0.121111
-0.036212
-0.120302
-0.0320606
-0.11955
-0.0279621
-0.118842
-0.0239186
-0.118183
-0.0199243
-0.117566
-0.0159632
-0.116995
-0.0120228
-0.116532
-0.00811992
-0.115964
-0.00406722
-0.114644
-0.111295
-0.0761427
-0.132676
-0.07073
-0.131143
-0.0654909
-0.130006
-0.0603719
-0.128897
-0.0553696
-0.127853
-0.0504738
-0.126855
-0.045673
-0.125912
-0.0409469
-0.125028
-0.0362854
-0.124211
-0.0316807
-0.123447
-0.0271238
-0.12274
-0.0226077
-0.122082
-0.0181189
-0.121484
-0.0136526
-0.120998
-0.00921751
-0.120399
-0.00462493
-0.119236
-0.11592
-0.0842668
-0.138323
-0.0783563
-0.137053
-0.0725899
-0.135772
-0.0669753
-0.134511
-0.0614857
-0.133342
-0.056101
-0.13224
-0.0508052
-0.131208
-0.0455893
-0.130244
-0.0404347
-0.129366
-0.0353311
-0.128551
-0.0302706
-0.1278
-0.0252443
-0.127108
-0.0202427
-0.126486
-0.0152667
-0.125974
-0.0102986
-0.125367
-0.00518263
-0.124352
-0.121102
-0.0920846
-0.145321
-0.0857156
-0.143422
-0.0795156
-0.141972
-0.07344
-0.140587
-0.0674811
-0.139301
-0.0616225
-0.138099
-0.0558477
-0.136983
-0.0501439
-0.135948
-0.0445092
-0.135001
-0.0389182
-0.134142
-0.0333636
-0.133355
-0.0278366
-0.132635
-0.0223276
-0.131995
-0.0168382
-0.131464
-0.0113421
-0.130863
-0.00572657
-0.129968
-0.126829
-0.0998504
-0.151913
-0.0929953
-0.150277
-0.0863081
-0.148659
-0.079776
-0.147119
-0.0733643
-0.145713
-0.0670485
-0.144414
-0.0608102
-0.143221
-0.0546333
-0.142125
-0.0485134
-0.141121
-0.0424435
-0.140212
-0.036401
-0.139397
-0.0303803
-0.138656
-0.0243737
-0.138001
-0.0183817
-0.137456
-0.0123757
-0.136869
-0.00626779
-0.136076
-0.133097
-0.107268
-0.159812
-0.100024
-0.157521
-0.0929444
-0.155739
-0.0859866
-0.154077
-0.0791386
-0.152561
-0.0723798
-0.151173
-0.0656915
-0.149909
-0.0590578
-0.148759
-0.0524653
-0.147713
-0.0459127
-0.146764
-0.0393926
-0.145917
-0.0328836
-0.145165
-0.026384
-0.144501
-0.0198971
-0.143942
-0.0133948
-0.143371
-0.00680274
-0.142668
-0.1399
-0.11467
-0.167261
-0.106966
-0.165224
-0.0994418
-0.163264
-0.0920644
-0.161454
-0.0847938
-0.159831
-0.0776041
-0.158363
-0.0704764
-0.157037
-0.0633953
-0.15584
-0.0563482
-0.15476
-0.0493244
-0.153788
-0.0423272
-0.152915
-0.0353455
-0.152147
-0.0283658
-0.151481
-0.0213924
-0.150916
-0.014401
-0.150363
-0.00733285
-0.149736
-0.147232
-0.121687
-0.175949
-0.113661
-0.17325
-0.105778
-0.171146
-0.0980032
-0.16923
-0.0903209
-0.167514
-0.0827094
-0.165974
-0.0751511
-0.164595
-0.0676312
-0.16336
-0.0601375
-0.162254
-0.05266
-0.161266
-0.0451898
-0.160385
-0.0377357
-0.159601
-0.0302883
-0.158928
-0.0228486
-0.158356
-0.0153899
-0.157821
-0.00785452
-0.157272
-0.155087
-0.128721
-0.184155
-0.120264
-0.181708
-0.111978
-0.179431
-0.103814
-0.177394
-0.0957332
-0.175594
-0.0877117
-0.173996
-0.0797336
-0.172573
-0.0717851
-0.171308
-0.0638554
-0.170184
-0.0559353
-0.169186
-0.0480174
-0.168303
-0.0400938
-0.167525
-0.0321749
-0.166847
-0.024267
-0.166263
-0.0163448
-0.165744
-0.00835769
-0.165259
-0.163445
-0.135369
-0.193485
-0.126655
-0.190422
-0.118051
-0.188036
-0.109523
-0.185922
-0.10106
-0.184057
-0.0926453
-0.182411
-0.0842627
-0.180956
-0.0758996
-0.179671
-0.067546
-0.178537
-0.0591944
-0.177537
-0.0508395
-0.176658
-0.0424768
-0.175887
-0.0341056
-0.175218
-0.0257223
-0.174647
-0.0173109
-0.174155
-0.00886998
-0.1737
-0.172315
-0.142032
-0.202304
-0.132931
-0.199523
-0.123966
-0.197
-0.115083
-0.194806
-0.106251
-0.192889
-0.0974544
-0.191208
-0.0886791
-0.189731
-0.0799133
-0.188437
-0.0711481
-0.187302
-0.062377
-0.186308
-0.0535951
-0.18544
-0.0447993
-0.184683
-0.0359893
-0.184028
-0.0271669
-0.183469
-0.0183192
-0.183003
-0.00939828
-0.182621
-0.181713
-0.148216
-0.212178
-0.138889
-0.208851
-0.129607
-0.206281
-0.120352
-0.204061
-0.111132
-0.202109
-0.101936
-0.200404
-0.0927547
-0.198912
-0.0835782
-0.197614
-0.074401
-0.19648
-0.0652199
-0.195489
-0.0560316
-0.194628
-0.0468308
-0.193884
-0.037609
-0.19325
-0.0283598
-0.192718
-0.0190782
-0.192284
-0.00975738
-0.191941
-0.19147
-0.204322
-0.173133
0.218528
-0.191341
-0.178396
-0.17813
-0.183598
-0.165942
-0.188465
-0.153684
-0.193155
-0.142239
-0.197614
-0.130765
-0.201886
-0.119933
-0.20588
-0.109155
-0.209639
-0.0988848
-0.213123
-0.0887127
-0.216343
-0.0789249
-0.219285
-0.0692573
-0.221941
-0.059866
-0.22431
-0.050598
-0.226377
-0.0415115
-0.228145
-0.032536
-0.2296
-0.0236582
-0.230748
-0.0148649
-0.231576
-0.00609736
-0.232088
0.00262527
-0.232277
0.0113813
-0.232145
0.0201467
-0.231692
0.0289896
-0.230921
0.0379098
-0.229829
0.0469384
-0.228426
0.0561225
-0.226706
0.0654329
-0.224685
0.0749875
-0.222357
0.0846729
-0.219737
0.0947019
-0.216826
0.10485
-0.213631
0.115453
-0.210164
0.126144
-0.206418
0.137413
-0.202427
0.148703
-0.198152
0.160712
-0.19367
0.172717
-0.188951
0.185626
-0.184045
0.198372
-0.178817
-0.173497
-0.20099
-0.186379
0.214236
-0.188088
-0.191298
-0.1756
-0.196087
-0.163476
-0.200589
-0.151715
-0.204916
-0.140292
-0.209037
-0.129207
-0.212972
-0.118436
-0.216651
-0.107957
-0.220119
-0.0977557
-0.223323
-0.0878008
-0.226298
-0.0780849
-0.229001
-0.068571
-0.231455
-0.0592515
-0.23363
-0.0500898
-0.235538
-0.0410741
-0.237161
-0.032171
-0.238503
-0.0233633
-0.239556
-0.0146216
-0.240318
-0.00592384
-0.240786
0.00275643
-0.240957
0.0114431
-0.240832
0.0201625
-0.240411
0.0289372
-0.239696
0.0377958
-0.238687
0.0467563
-0.237387
0.0558514
-0.235801
0.0650935
-0.233927
0.0745191
-0.231782
0.0841362
-0.229355
0.0939817
-0.226671
0.104062
-0.223712
0.114412
-0.220514
0.125041
-0.217047
0.135975
-0.213361
0.147237
-0.209414
0.158832
-0.205265
0.170775
-0.200894
0.183085
-0.196355
0.195798
-0.19153
-0.18655
-0.198005
-0.199325
0.210952
-0.185427
-0.203876
-0.173244
-0.20827
-0.16138
-0.212452
-0.149856
-0.216439
-0.138647
-0.220247
-0.127762
-0.223856
-0.11716
-0.227253
-0.106842
-0.230436
-0.096773
-0.233393
-0.0869494
-0.236122
-0.0773373
-0.238613
-0.0679282
-0.240865
-0.0586915
-0.242866
-0.0496129
-0.244617
-0.0406649
-0.246109
-0.0318286
-0.24734
-0.0230787
-0.248306
-0.0143929
-0.249004
-0.00574759
-0.249431
0.00288146
-0.249586
0.0115171
-0.249468
0.020184
-0.249078
0.0289051
-0.248417
0.0377036
-0.247486
0.046604
-0.246287
0.0556259
-0.244823
0.0647962
-0.243098
0.0741307
-0.241117
0.0836588
-0.238883
0.0933906
-0.236403
0.103359
-0.23368
0.113568
-0.230723
0.124055
-0.227534
0.134817
-0.224123
0.145896
-0.220493
0.157286
-0.216655
0.169008
-0.212616
0.18106
-0.208407
0.193487
-0.203956
-0.199345