/*--------------------------------*- C++ -*----------------------------------*\
  =========                 |
  \\      /  F ield         | OpenFOAM: The Open Source CFD Toolbox
   \\    /   O peration     | Website:  https://openfoam.org
    \\  /    A nd           | Version:  6
     \\/     M anipulation  |
\*---------------------------------------------------------------------------*/
FoamFile
{
    version     2.0;
    format      ascii;
    class       volVectorField;
    location    "2.73";
    object      U;
}
// * * * * * * * * * * * * * * * * * * * * * * * * * * * * * * * * * * * * * //

dimensions      [0 1 -1 0 0 0 0];

internalField   nonuniform List<vector> 
5625
(
(0.894401 0.447199 0)
(0.894401 0.447198 0)
(0.894401 0.447198 0)
(0.894401 0.447198 0)
(0.894401 0.447197 0)
(0.8944 0.447197 0)
(0.894401 0.447197 0)
(0.8944 0.447197 0)
(0.8944 0.447196 0)
(0.8944 0.447196 0)
(0.8944 0.447196 0)
(0.8944 0.447197 0)
(0.894399 0.447197 0)
(0.894399 0.447197 0)
(0.894399 0.447198 0)
(0.894399 0.447198 0)
(0.894399 0.447199 0)
(0.894398 0.4472 0)
(0.894398 0.4472 0)
(0.894399 0.447201 0)
(0.894399 0.447202 0)
(0.894399 0.447202 0)
(0.894399 0.447203 0)
(0.894399 0.447203 0)
(0.8944 0.447204 0)
(0.8944 0.447204 0)
(0.8944 0.447204 0)
(0.8944 0.447204 0)
(0.8944 0.447204 0)
(0.8944 0.447203 0)
(0.894401 0.447203 0)
(0.894401 0.447203 0)
(0.894401 0.447202 0)
(0.894401 0.447202 0)
(0.894401 0.447202 0)
(0.894401 0.447202 0)
(0.894401 0.447201 0)
(0.8944 0.447201 0)
(0.8944 0.447201 0)
(0.8944 0.447201 0)
(0.8944 0.4472 0)
(0.8944 0.4472 0)
(0.8944 0.4472 0)
(0.8944 0.4472 0)
(0.8944 0.4472 0)
(0.8944 0.4472 0)
(0.8944 0.4472 0)
(0.8944 0.4472 0)
(0.8944 0.4472 0)
(0.8944 0.4472 0)
(0.8944 0.4472 0)
(0.8944 0.4472 0)
(0.8944 0.4472 0)
(0.8944 0.4472 0)
(0.8944 0.4472 0)
(0.8944 0.4472 0)
(0.8944 0.4472 0)
(0.8944 0.4472 0)
(0.8944 0.4472 0)
(0.8944 0.4472 0)
(0.8944 0.4472 0)
(0.8944 0.4472 0)
(0.8944 0.4472 0)
(0.8944 0.4472 0)
(0.8944 0.4472 0)
(0.8944 0.4472 0)
(0.8944 0.4472 0)
(0.8944 0.4472 0)
(0.8944 0.4472 0)
(0.8944 0.4472 0)
(0.8944 0.4472 0)
(0.8944 0.4472 0)
(0.8944 0.4472 0)
(0.8944 0.4472 0)
(0.8944 0.4472 0)
(0.894401 0.447198 0)
(0.894401 0.447198 0)
(0.894401 0.447197 0)
(0.894401 0.447197 0)
(0.894401 0.447196 0)
(0.894401 0.447196 0)
(0.894401 0.447195 0)
(0.8944 0.447195 0)
(0.8944 0.447195 0)
(0.8944 0.447195 0)
(0.8944 0.447195 0)
(0.894399 0.447195 0)
(0.894399 0.447196 0)
(0.894399 0.447196 0)
(0.894398 0.447197 0)
(0.894398 0.447198 0)
(0.894398 0.447199 0)
(0.894398 0.4472 0)
(0.894398 0.447201 0)
(0.894398 0.447202 0)
(0.894398 0.447203 0)
(0.894398 0.447203 0)
(0.894399 0.447204 0)
(0.894399 0.447205 0)
(0.894399 0.447205 0)
(0.8944 0.447205 0)
(0.8944 0.447205 0)
(0.8944 0.447205 0)
(0.894401 0.447205 0)
(0.894401 0.447205 0)
(0.894401 0.447204 0)
(0.894401 0.447204 0)
(0.894401 0.447204 0)
(0.894401 0.447203 0)
(0.894401 0.447203 0)
(0.894401 0.447202 0)
(0.894401 0.447202 0)
(0.894401 0.447201 0)
(0.894401 0.447201 0)
(0.8944 0.447201 0)
(0.8944 0.447201 0)
(0.8944 0.4472 0)
(0.8944 0.4472 0)
(0.8944 0.4472 0)
(0.8944 0.4472 0)
(0.8944 0.4472 0)
(0.8944 0.4472 0)
(0.8944 0.4472 0)
(0.8944 0.4472 0)
(0.8944 0.4472 0)
(0.8944 0.4472 0)
(0.8944 0.4472 0)
(0.8944 0.4472 0)
(0.8944 0.4472 0)
(0.8944 0.4472 0)
(0.8944 0.4472 0)
(0.8944 0.4472 0)
(0.8944 0.4472 0)
(0.8944 0.4472 0)
(0.8944 0.4472 0)
(0.8944 0.4472 0)
(0.8944 0.4472 0)
(0.8944 0.4472 0)
(0.8944 0.4472 0)
(0.8944 0.4472 0)
(0.8944 0.4472 0)
(0.8944 0.4472 0)
(0.8944 0.4472 0)
(0.8944 0.4472 0)
(0.8944 0.4472 0)
(0.8944 0.4472 0)
(0.8944 0.4472 0)
(0.8944 0.4472 0)
(0.8944 0.4472 0)
(0.8944 0.4472 0)
(0.894401 0.447197 0)
(0.894401 0.447197 0)
(0.894401 0.447196 0)
(0.894401 0.447195 0)
(0.894401 0.447195 0)
(0.894401 0.447194 0)
(0.894401 0.447194 0)
(0.894401 0.447193 0)
(0.8944 0.447193 0)
(0.8944 0.447193 0)
(0.894399 0.447193 0)
(0.894399 0.447194 0)
(0.894398 0.447194 0)
(0.894398 0.447195 0)
(0.894398 0.447196 0)
(0.894397 0.447197 0)
(0.894397 0.447198 0)
(0.894397 0.4472 0)
(0.894397 0.447201 0)
(0.894397 0.447202 0)
(0.894397 0.447203 0)
(0.894398 0.447204 0)
(0.894398 0.447205 0)
(0.894399 0.447206 0)
(0.894399 0.447207 0)
(0.8944 0.447207 0)
(0.8944 0.447207 0)
(0.8944 0.447207 0)
(0.894401 0.447207 0)
(0.894401 0.447206 0)
(0.894401 0.447206 0)
(0.894401 0.447205 0)
(0.894401 0.447205 0)
(0.894401 0.447204 0)
(0.894401 0.447204 0)
(0.894401 0.447203 0)
(0.894401 0.447203 0)
(0.894401 0.447202 0)
(0.894401 0.447202 0)
(0.894401 0.447201 0)
(0.894401 0.447201 0)
(0.8944 0.447201 0)
(0.8944 0.4472 0)
(0.8944 0.4472 0)
(0.8944 0.4472 0)
(0.8944 0.4472 0)
(0.8944 0.4472 0)
(0.8944 0.4472 0)
(0.8944 0.4472 0)
(0.8944 0.4472 0)
(0.8944 0.4472 0)
(0.8944 0.4472 0)
(0.8944 0.4472 0)
(0.8944 0.4472 0)
(0.8944 0.4472 0)
(0.8944 0.4472 0)
(0.8944 0.4472 0)
(0.8944 0.4472 0)
(0.8944 0.4472 0)
(0.8944 0.4472 0)
(0.8944 0.4472 0)
(0.8944 0.4472 0)
(0.8944 0.4472 0)
(0.8944 0.4472 0)
(0.8944 0.4472 0)
(0.8944 0.4472 0)
(0.8944 0.4472 0)
(0.8944 0.4472 0)
(0.8944 0.4472 0)
(0.8944 0.4472 0)
(0.8944 0.4472 0)
(0.8944 0.4472 0)
(0.8944 0.4472 0)
(0.8944 0.4472 0)
(0.8944 0.4472 0)
(0.894402 0.447196 0)
(0.894402 0.447196 0)
(0.894402 0.447195 0)
(0.894402 0.447194 0)
(0.894402 0.447193 0)
(0.894402 0.447192 0)
(0.894401 0.447192 0)
(0.894401 0.447191 0)
(0.894401 0.447191 0)
(0.8944 0.447191 0)
(0.894399 0.447191 0)
(0.894398 0.447192 0)
(0.894398 0.447192 0)
(0.894397 0.447193 0)
(0.894397 0.447195 0)
(0.894396 0.447196 0)
(0.894396 0.447198 0)
(0.894396 0.4472 0)
(0.894396 0.447202 0)
(0.894396 0.447203 0)
(0.894396 0.447205 0)
(0.894397 0.447206 0)
(0.894397 0.447208 0)
(0.894398 0.447209 0)
(0.894399 0.447209 0)
(0.894399 0.44721 0)
(0.8944 0.44721 0)
(0.894401 0.44721 0)
(0.894401 0.447209 0)
(0.894401 0.447209 0)
(0.894402 0.447208 0)
(0.894402 0.447207 0)
(0.894402 0.447206 0)
(0.894402 0.447206 0)
(0.894402 0.447205 0)
(0.894402 0.447204 0)
(0.894402 0.447203 0)
(0.894401 0.447203 0)
(0.894401 0.447202 0)
(0.894401 0.447202 0)
(0.894401 0.447201 0)
(0.894401 0.447201 0)
(0.8944 0.447201 0)
(0.8944 0.4472 0)
(0.8944 0.4472 0)
(0.8944 0.4472 0)
(0.8944 0.4472 0)
(0.8944 0.4472 0)
(0.8944 0.4472 0)
(0.8944 0.4472 0)
(0.8944 0.4472 0)
(0.8944 0.4472 0)
(0.8944 0.4472 0)
(0.8944 0.4472 0)
(0.8944 0.4472 0)
(0.8944 0.4472 0)
(0.8944 0.4472 0)
(0.8944 0.4472 0)
(0.8944 0.4472 0)
(0.8944 0.4472 0)
(0.8944 0.4472 0)
(0.8944 0.4472 0)
(0.8944 0.4472 0)
(0.8944 0.4472 0)
(0.8944 0.4472 0)
(0.8944 0.4472 0)
(0.8944 0.4472 0)
(0.8944 0.4472 0)
(0.8944 0.4472 0)
(0.8944 0.4472 0)
(0.8944 0.4472 0)
(0.8944 0.4472 0)
(0.8944 0.4472 0)
(0.8944 0.4472 0)
(0.8944 0.4472 0)
(0.894402 0.447195 0)
(0.894402 0.447194 0)
(0.894403 0.447193 0)
(0.894403 0.447192 0)
(0.894402 0.447191 0)
(0.894402 0.44719 0)
(0.894402 0.447189 0)
(0.894401 0.447188 0)
(0.8944 0.447188 0)
(0.8944 0.447188 0)
(0.894399 0.447188 0)
(0.894398 0.447189 0)
(0.894397 0.44719 0)
(0.894396 0.447191 0)
(0.894395 0.447193 0)
(0.894395 0.447195 0)
(0.894394 0.447198 0)
(0.894394 0.4472 0)
(0.894394 0.447202 0)
(0.894394 0.447205 0)
(0.894395 0.447207 0)
(0.894396 0.447209 0)
(0.894396 0.44721 0)
(0.894397 0.447212 0)
(0.894398 0.447213 0)
(0.894399 0.447213 0)
(0.8944 0.447213 0)
(0.894401 0.447213 0)
(0.894401 0.447213 0)
(0.894402 0.447212 0)
(0.894402 0.447211 0)
(0.894403 0.44721 0)
(0.894403 0.447209 0)
(0.894403 0.447208 0)
(0.894402 0.447206 0)
(0.894402 0.447205 0)
(0.894402 0.447204 0)
(0.894402 0.447204 0)
(0.894402 0.447203 0)
(0.894401 0.447202 0)
(0.894401 0.447202 0)
(0.894401 0.447201 0)
(0.894401 0.447201 0)
(0.894401 0.447201 0)
(0.8944 0.4472 0)
(0.8944 0.4472 0)
(0.8944 0.4472 0)
(0.8944 0.4472 0)
(0.8944 0.4472 0)
(0.8944 0.4472 0)
(0.8944 0.4472 0)
(0.8944 0.4472 0)
(0.8944 0.4472 0)
(0.8944 0.4472 0)
(0.8944 0.4472 0)
(0.8944 0.4472 0)
(0.8944 0.4472 0)
(0.8944 0.4472 0)
(0.8944 0.4472 0)
(0.8944 0.4472 0)
(0.8944 0.4472 0)
(0.8944 0.4472 0)
(0.8944 0.4472 0)
(0.8944 0.4472 0)
(0.8944 0.4472 0)
(0.8944 0.4472 0)
(0.8944 0.4472 0)
(0.8944 0.4472 0)
(0.8944 0.4472 0)
(0.8944 0.4472 0)
(0.8944 0.4472 0)
(0.8944 0.4472 0)
(0.8944 0.4472 0)
(0.8944 0.4472 0)
(0.8944 0.4472 0)
(0.894403 0.447193 0)
(0.894403 0.447192 0)
(0.894404 0.447191 0)
(0.894404 0.447189 0)
(0.894403 0.447188 0)
(0.894403 0.447187 0)
(0.894402 0.447186 0)
(0.894402 0.447185 0)
(0.894401 0.447184 0)
(0.894399 0.447184 0)
(0.894398 0.447185 0)
(0.894397 0.447186 0)
(0.894396 0.447187 0)
(0.894394 0.447189 0)
(0.894393 0.447192 0)
(0.894393 0.447194 0)
(0.894392 0.447197 0)
(0.894392 0.447201 0)
(0.894392 0.447204 0)
(0.894392 0.447207 0)
(0.894393 0.44721 0)
(0.894394 0.447212 0)
(0.894395 0.447214 0)
(0.894396 0.447216 0)
(0.894397 0.447217 0)
(0.894399 0.447218 0)
(0.8944 0.447218 0)
(0.894401 0.447217 0)
(0.894402 0.447217 0)
(0.894402 0.447216 0)
(0.894403 0.447214 0)
(0.894403 0.447213 0)
(0.894404 0.447212 0)
(0.894404 0.44721 0)
(0.894403 0.447209 0)
(0.894403 0.447207 0)
(0.894403 0.447206 0)
(0.894403 0.447205 0)
(0.894402 0.447204 0)
(0.894402 0.447203 0)
(0.894402 0.447202 0)
(0.894401 0.447202 0)
(0.894401 0.447201 0)
(0.894401 0.447201 0)
(0.894401 0.447201 0)
(0.8944 0.4472 0)
(0.8944 0.4472 0)
(0.8944 0.4472 0)
(0.8944 0.4472 0)
(0.8944 0.4472 0)
(0.8944 0.4472 0)
(0.8944 0.4472 0)
(0.8944 0.4472 0)
(0.8944 0.4472 0)
(0.8944 0.4472 0)
(0.8944 0.4472 0)
(0.8944 0.4472 0)
(0.8944 0.4472 0)
(0.8944 0.4472 0)
(0.8944 0.4472 0)
(0.8944 0.4472 0)
(0.8944 0.4472 0)
(0.8944 0.4472 0)
(0.8944 0.4472 0)
(0.8944 0.4472 0)
(0.8944 0.4472 0)
(0.8944 0.4472 0)
(0.8944 0.4472 0)
(0.8944 0.4472 0)
(0.8944 0.4472 0)
(0.8944 0.4472 0)
(0.8944 0.4472 0)
(0.8944 0.4472 0)
(0.8944 0.4472 0)
(0.8944 0.4472 0)
(0.894404 0.447191 0)
(0.894404 0.44719 0)
(0.894405 0.447188 0)
(0.894405 0.447186 0)
(0.894404 0.447184 0)
(0.894404 0.447183 0)
(0.894403 0.447181 0)
(0.894402 0.44718 0)
(0.8944 0.44718 0)
(0.894399 0.44718 0)
(0.894397 0.447181 0)
(0.894395 0.447182 0)
(0.894394 0.447184 0)
(0.894392 0.447187 0)
(0.894391 0.44719 0)
(0.89439 0.447194 0)
(0.894389 0.447198 0)
(0.894389 0.447202 0)
(0.894389 0.447206 0)
(0.894389 0.44721 0)
(0.89439 0.447214 0)
(0.894391 0.447217 0)
(0.894393 0.44722 0)
(0.894395 0.447222 0)
(0.894396 0.447223 0)
(0.894398 0.447224 0)
(0.8944 0.447224 0)
(0.894401 0.447223 0)
(0.894402 0.447222 0)
(0.894403 0.447221 0)
(0.894404 0.447219 0)
(0.894405 0.447217 0)
(0.894405 0.447215 0)
(0.894405 0.447213 0)
(0.894405 0.447211 0)
(0.894404 0.447209 0)
(0.894404 0.447208 0)
(0.894403 0.447206 0)
(0.894403 0.447205 0)
(0.894402 0.447204 0)
(0.894402 0.447203 0)
(0.894402 0.447202 0)
(0.894401 0.447202 0)
(0.894401 0.447201 0)
(0.894401 0.447201 0)
(0.894401 0.4472 0)
(0.8944 0.4472 0)
(0.8944 0.4472 0)
(0.8944 0.4472 0)
(0.8944 0.4472 0)
(0.8944 0.4472 0)
(0.8944 0.4472 0)
(0.8944 0.4472 0)
(0.8944 0.4472 0)
(0.8944 0.4472 0)
(0.8944 0.4472 0)
(0.8944 0.4472 0)
(0.8944 0.4472 0)
(0.8944 0.4472 0)
(0.8944 0.4472 0)
(0.8944 0.4472 0)
(0.8944 0.4472 0)
(0.8944 0.4472 0)
(0.8944 0.4472 0)
(0.8944 0.4472 0)
(0.8944 0.4472 0)
(0.8944 0.4472 0)
(0.8944 0.4472 0)
(0.8944 0.4472 0)
(0.8944 0.4472 0)
(0.8944 0.4472 0)
(0.8944 0.4472 0)
(0.8944 0.4472 0)
(0.8944 0.4472 0)
(0.8944 0.4472 0)
(0.894406 0.447189 0)
(0.894406 0.447187 0)
(0.894406 0.447184 0)
(0.894406 0.447182 0)
(0.894406 0.44718 0)
(0.894405 0.447178 0)
(0.894404 0.447176 0)
(0.894402 0.447176 0)
(0.8944 0.447175 0)
(0.894398 0.447175 0)
(0.894395 0.447176 0)
(0.894393 0.447178 0)
(0.894391 0.447181 0)
(0.894389 0.447185 0)
(0.894387 0.447189 0)
(0.894386 0.447194 0)
(0.894385 0.447199 0)
(0.894384 0.447204 0)
(0.894384 0.44721 0)
(0.894385 0.447215 0)
(0.894386 0.447219 0)
(0.894388 0.447223 0)
(0.89439 0.447227 0)
(0.894392 0.447229 0)
(0.894395 0.447231 0)
(0.894397 0.447232 0)
(0.894399 0.447232 0)
(0.894401 0.447231 0)
(0.894403 0.447229 0)
(0.894404 0.447227 0)
(0.894405 0.447225 0)
(0.894406 0.447223 0)
(0.894406 0.44722 0)
(0.894407 0.447217 0)
(0.894406 0.447215 0)
(0.894406 0.447212 0)
(0.894405 0.44721 0)
(0.894405 0.447208 0)
(0.894404 0.447206 0)
(0.894403 0.447205 0)
(0.894403 0.447203 0)
(0.894402 0.447203 0)
(0.894402 0.447202 0)
(0.894401 0.447201 0)
(0.894401 0.447201 0)
(0.894401 0.447201 0)
(0.8944 0.4472 0)
(0.8944 0.4472 0)
(0.8944 0.4472 0)
(0.8944 0.4472 0)
(0.8944 0.4472 0)
(0.8944 0.4472 0)
(0.8944 0.4472 0)
(0.8944 0.4472 0)
(0.8944 0.4472 0)
(0.8944 0.4472 0)
(0.8944 0.4472 0)
(0.8944 0.4472 0)
(0.8944 0.4472 0)
(0.8944 0.4472 0)
(0.8944 0.4472 0)
(0.8944 0.4472 0)
(0.8944 0.4472 0)
(0.8944 0.4472 0)
(0.8944 0.4472 0)
(0.8944 0.4472 0)
(0.8944 0.4472 0)
(0.8944 0.4472 0)
(0.8944 0.4472 0)
(0.8944 0.4472 0)
(0.8944 0.4472 0)
(0.8944 0.4472 0)
(0.8944 0.4472 0)
(0.8944 0.4472 0)
(0.8944 0.4472 0)
(0.894407 0.447186 0)
(0.894408 0.447184 0)
(0.894408 0.44718 0)
(0.894408 0.447178 0)
(0.894407 0.447175 0)
(0.894406 0.447172 0)
(0.894404 0.447171 0)
(0.894402 0.44717 0)
(0.8944 0.447169 0)
(0.894396 0.44717 0)
(0.894393 0.447172 0)
(0.89439 0.447174 0)
(0.894387 0.447179 0)
(0.894384 0.447183 0)
(0.894382 0.447189 0)
(0.89438 0.447195 0)
(0.894379 0.447202 0)
(0.894378 0.447209 0)
(0.894378 0.447216 0)
(0.89438 0.447222 0)
(0.894382 0.447228 0)
(0.894384 0.447233 0)
(0.894386 0.447237 0)
(0.894389 0.44724 0)
(0.894393 0.447242 0)
(0.894396 0.447242 0)
(0.894399 0.447242 0)
(0.894402 0.447241 0)
(0.894404 0.447239 0)
(0.894406 0.447236 0)
(0.894407 0.447233 0)
(0.894408 0.447229 0)
(0.894408 0.447226 0)
(0.894409 0.447222 0)
(0.894408 0.447219 0)
(0.894408 0.447216 0)
(0.894407 0.447213 0)
(0.894406 0.44721 0)
(0.894405 0.447208 0)
(0.894404 0.447206 0)
(0.894404 0.447204 0)
(0.894403 0.447203 0)
(0.894402 0.447202 0)
(0.894402 0.447202 0)
(0.894401 0.447201 0)
(0.894401 0.447201 0)
(0.894401 0.4472 0)
(0.8944 0.4472 0)
(0.8944 0.4472 0)
(0.8944 0.4472 0)
(0.8944 0.4472 0)
(0.8944 0.4472 0)
(0.8944 0.4472 0)
(0.8944 0.4472 0)
(0.8944 0.4472 0)
(0.8944 0.4472 0)
(0.8944 0.4472 0)
(0.8944 0.4472 0)
(0.8944 0.4472 0)
(0.8944 0.4472 0)
(0.8944 0.4472 0)
(0.8944 0.4472 0)
(0.8944 0.4472 0)
(0.8944 0.4472 0)
(0.8944 0.4472 0)
(0.8944 0.4472 0)
(0.8944 0.4472 0)
(0.8944 0.4472 0)
(0.8944 0.4472 0)
(0.8944 0.4472 0)
(0.8944 0.4472 0)
(0.8944 0.4472 0)
(0.8944 0.4472 0)
(0.8944 0.4472 0)
(0.8944 0.4472 0)
(0.89441 0.447183 0)
(0.89441 0.44718 0)
(0.89441 0.447176 0)
(0.89441 0.447172 0)
(0.894409 0.447169 0)
(0.894407 0.447166 0)
(0.894404 0.447164 0)
(0.894402 0.447163 0)
(0.894398 0.447163 0)
(0.894394 0.447165 0)
(0.89439 0.447167 0)
(0.894385 0.447172 0)
(0.894381 0.447177 0)
(0.894377 0.447184 0)
(0.894374 0.447191 0)
(0.894372 0.4472 0)
(0.894371 0.447208 0)
(0.89437 0.447217 0)
(0.89437 0.447226 0)
(0.894372 0.447234 0)
(0.894375 0.447241 0)
(0.894378 0.447247 0)
(0.894381 0.447251 0)
(0.894386 0.447254 0)
(0.89439 0.447256 0)
(0.894394 0.447257 0)
(0.894398 0.447256 0)
(0.894402 0.447254 0)
(0.894405 0.447251 0)
(0.894407 0.447247 0)
(0.894409 0.447243 0)
(0.89441 0.447238 0)
(0.894411 0.447233 0)
(0.894411 0.447229 0)
(0.894411 0.447224 0)
(0.89441 0.44722 0)
(0.894409 0.447216 0)
(0.894408 0.447213 0)
(0.894407 0.44721 0)
(0.894406 0.447208 0)
(0.894405 0.447206 0)
(0.894404 0.447204 0)
(0.894403 0.447203 0)
(0.894402 0.447202 0)
(0.894402 0.447201 0)
(0.894401 0.447201 0)
(0.894401 0.4472 0)
(0.894401 0.4472 0)
(0.8944 0.4472 0)
(0.8944 0.4472 0)
(0.8944 0.4472 0)
(0.8944 0.4472 0)
(0.8944 0.4472 0)
(0.8944 0.4472 0)
(0.8944 0.4472 0)
(0.8944 0.4472 0)
(0.8944 0.4472 0)
(0.8944 0.4472 0)
(0.8944 0.4472 0)
(0.8944 0.4472 0)
(0.8944 0.4472 0)
(0.8944 0.4472 0)
(0.8944 0.4472 0)
(0.8944 0.4472 0)
(0.8944 0.4472 0)
(0.8944 0.4472 0)
(0.8944 0.4472 0)
(0.8944 0.4472 0)
(0.8944 0.4472 0)
(0.8944 0.4472 0)
(0.8944 0.4472 0)
(0.8944 0.4472 0)
(0.8944 0.4472 0)
(0.8944 0.4472 0)
(0.8944 0.4472 0)
(0.894412 0.447179 0)
(0.894413 0.447175 0)
(0.894413 0.447171 0)
(0.894412 0.447166 0)
(0.89441 0.447163 0)
(0.894408 0.44716 0)
(0.894404 0.447158 0)
(0.8944 0.447157 0)
(0.894396 0.447158 0)
(0.89439 0.447161 0)
(0.894384 0.447165 0)
(0.894378 0.447171 0)
(0.894373 0.447178 0)
(0.894368 0.447187 0)
(0.894364 0.447198 0)
(0.894361 0.447208 0)
(0.89436 0.44722 0)
(0.894359 0.447231 0)
(0.89436 0.447242 0)
(0.894362 0.447251 0)
(0.894366 0.44726 0)
(0.89437 0.447267 0)
(0.894375 0.447272 0)
(0.894381 0.447275 0)
(0.894387 0.447277 0)
(0.894392 0.447277 0)
(0.894398 0.447275 0)
(0.894402 0.447272 0)
(0.894406 0.447267 0)
(0.89441 0.447262 0)
(0.894412 0.447256 0)
(0.894414 0.44725 0)
(0.894414 0.447243 0)
(0.894415 0.447237 0)
(0.894414 0.447231 0)
(0.894413 0.447225 0)
(0.894412 0.44722 0)
(0.894411 0.447216 0)
(0.894409 0.447213 0)
(0.894408 0.44721 0)
(0.894406 0.447207 0)
(0.894405 0.447205 0)
(0.894404 0.447203 0)
(0.894403 0.447202 0)
(0.894402 0.447201 0)
(0.894402 0.447201 0)
(0.894401 0.4472 0)
(0.894401 0.4472 0)
(0.8944 0.4472 0)
(0.8944 0.4472 0)
(0.8944 0.4472 0)
(0.8944 0.4472 0)
(0.8944 0.4472 0)
(0.8944 0.4472 0)
(0.8944 0.4472 0)
(0.8944 0.4472 0)
(0.8944 0.4472 0)
(0.8944 0.4472 0)
(0.8944 0.4472 0)
(0.8944 0.4472 0)
(0.8944 0.4472 0)
(0.8944 0.4472 0)
(0.8944 0.4472 0)
(0.8944 0.4472 0)
(0.8944 0.4472 0)
(0.8944 0.4472 0)
(0.8944 0.4472 0)
(0.8944 0.4472 0)
(0.8944 0.4472 0)
(0.8944 0.4472 0)
(0.8944 0.4472 0)
(0.8944 0.4472 0)
(0.8944 0.4472 0)
(0.8944 0.4472 0)
(0.8944 0.4472 0)
(0.894415 0.447175 0)
(0.894416 0.44717 0)
(0.894415 0.447165 0)
(0.894414 0.44716 0)
(0.894411 0.447156 0)
(0.894408 0.447153 0)
(0.894403 0.447152 0)
(0.894398 0.447152 0)
(0.894391 0.447154 0)
(0.894384 0.447159 0)
(0.894376 0.447165 0)
(0.894368 0.447174 0)
(0.894361 0.447185 0)
(0.894355 0.447197 0)
(0.89435 0.447211 0)
(0.894346 0.447225 0)
(0.894344 0.447239 0)
(0.894344 0.447254 0)
(0.894346 0.447267 0)
(0.894349 0.447278 0)
(0.894354 0.447288 0)
(0.89436 0.447296 0)
(0.894367 0.447302 0)
(0.894374 0.447305 0)
(0.894382 0.447305 0)
(0.89439 0.447304 0)
(0.894397 0.447301 0)
(0.894403 0.447295 0)
(0.894408 0.447289 0)
(0.894412 0.447281 0)
(0.894416 0.447273 0)
(0.894418 0.447264 0)
(0.894419 0.447256 0)
(0.894419 0.447247 0)
(0.894418 0.44724 0)
(0.894417 0.447232 0)
(0.894415 0.447226 0)
(0.894414 0.44722 0)
(0.894412 0.447216 0)
(0.89441 0.447212 0)
(0.894408 0.447209 0)
(0.894407 0.447206 0)
(0.894405 0.447204 0)
(0.894404 0.447203 0)
(0.894403 0.447201 0)
(0.894402 0.447201 0)
(0.894401 0.4472 0)
(0.894401 0.4472 0)
(0.894401 0.4472 0)
(0.8944 0.4472 0)
(0.8944 0.4472 0)
(0.8944 0.4472 0)
(0.8944 0.4472 0)
(0.8944 0.4472 0)
(0.8944 0.4472 0)
(0.8944 0.4472 0)
(0.8944 0.4472 0)
(0.8944 0.4472 0)
(0.8944 0.4472 0)
(0.8944 0.4472 0)
(0.8944 0.4472 0)
(0.8944 0.4472 0)
(0.8944 0.4472 0)
(0.8944 0.4472 0)
(0.8944 0.4472 0)
(0.8944 0.4472 0)
(0.8944 0.4472 0)
(0.8944 0.4472 0)
(0.8944 0.4472 0)
(0.8944 0.4472 0)
(0.8944 0.4472 0)
(0.8944 0.4472 0)
(0.8944 0.4472 0)
(0.8944 0.4472 0)
(0.8944 0.4472 0)
(0.894418 0.44717 0)
(0.894418 0.447165 0)
(0.894418 0.447159 0)
(0.894415 0.447154 0)
(0.894412 0.44715 0)
(0.894407 0.447148 0)
(0.894401 0.447148 0)
(0.894393 0.44715 0)
(0.894384 0.447154 0)
(0.894374 0.447162 0)
(0.894364 0.447172 0)
(0.894354 0.447185 0)
(0.894344 0.447199 0)
(0.894336 0.447217 0)
(0.89433 0.447235 0)
(0.894325 0.447254 0)
(0.894323 0.447272 0)
(0.894323 0.44729 0)
(0.894326 0.447306 0)
(0.894331 0.44732 0)
(0.894338 0.447332 0)
(0.894347 0.44734 0)
(0.894356 0.447345 0)
(0.894366 0.447347 0)
(0.894377 0.447346 0)
(0.894387 0.447342 0)
(0.894396 0.447336 0)
(0.894404 0.447328 0)
(0.894411 0.447318 0)
(0.894416 0.447307 0)
(0.89442 0.447295 0)
(0.894423 0.447283 0)
(0.894424 0.447272 0)
(0.894424 0.447261 0)
(0.894424 0.447251 0)
(0.894422 0.447241 0)
(0.89442 0.447233 0)
(0.894418 0.447225 0)
(0.894415 0.447219 0)
(0.894413 0.447214 0)
(0.89441 0.44721 0)
(0.894408 0.447207 0)
(0.894406 0.447205 0)
(0.894405 0.447203 0)
(0.894403 0.447202 0)
(0.894402 0.447201 0)
(0.894402 0.4472 0)
(0.894401 0.4472 0)
(0.894401 0.4472 0)
(0.8944 0.4472 0)
(0.8944 0.4472 0)
(0.8944 0.4472 0)
(0.8944 0.4472 0)
(0.8944 0.4472 0)
(0.8944 0.4472 0)
(0.8944 0.4472 0)
(0.8944 0.4472 0)
(0.8944 0.4472 0)
(0.8944 0.4472 0)
(0.8944 0.4472 0)
(0.8944 0.4472 0)
(0.8944 0.4472 0)
(0.8944 0.4472 0)
(0.8944 0.4472 0)
(0.8944 0.4472 0)
(0.8944 0.4472 0)
(0.8944 0.4472 0)
(0.8944 0.4472 0)
(0.8944 0.4472 0)
(0.8944 0.4472 0)
(0.8944 0.4472 0)
(0.8944 0.4472 0)
(0.8944 0.4472 0)
(0.8944 0.4472 0)
(0.8944 0.4472 0)
(0.894421 0.447166 0)
(0.894421 0.44716 0)
(0.89442 0.447154 0)
(0.894416 0.44715 0)
(0.894411 0.447147 0)
(0.894404 0.447146 0)
(0.894395 0.447148 0)
(0.894384 0.447153 0)
(0.894371 0.447161 0)
(0.894358 0.447173 0)
(0.894345 0.447188 0)
(0.894331 0.447207 0)
(0.894319 0.447228 0)
(0.894309 0.447252 0)
(0.894301 0.447277 0)
(0.894296 0.447301 0)
(0.894294 0.447325 0)
(0.894295 0.447347 0)
(0.894299 0.447367 0)
(0.894307 0.447384 0)
(0.894316 0.447397 0)
(0.894328 0.447405 0)
(0.894342 0.447409 0)
(0.894355 0.447408 0)
(0.894369 0.447404 0)
(0.894382 0.447396 0)
(0.894395 0.447385 0)
(0.894405 0.447372 0)
(0.894414 0.447357 0)
(0.894421 0.447341 0)
(0.894426 0.447325 0)
(0.894429 0.447308 0)
(0.894431 0.447293 0)
(0.894431 0.447278 0)
(0.89443 0.447264 0)
(0.894428 0.447252 0)
(0.894426 0.447241 0)
(0.894422 0.447232 0)
(0.894419 0.447224 0)
(0.894416 0.447217 0)
(0.894413 0.447212 0)
(0.89441 0.447208 0)
(0.894408 0.447206 0)
(0.894406 0.447203 0)
(0.894404 0.447202 0)
(0.894403 0.447201 0)
(0.894402 0.4472 0)
(0.894401 0.4472 0)
(0.894401 0.447199 0)
(0.8944 0.447199 0)
(0.8944 0.447199 0)
(0.8944 0.447199 0)
(0.8944 0.4472 0)
(0.8944 0.4472 0)
(0.8944 0.4472 0)
(0.8944 0.4472 0)
(0.8944 0.4472 0)
(0.8944 0.4472 0)
(0.8944 0.4472 0)
(0.8944 0.4472 0)
(0.8944 0.4472 0)
(0.8944 0.4472 0)
(0.8944 0.4472 0)
(0.8944 0.4472 0)
(0.8944 0.4472 0)
(0.8944 0.4472 0)
(0.8944 0.4472 0)
(0.8944 0.4472 0)
(0.8944 0.4472 0)
(0.8944 0.4472 0)
(0.8944 0.4472 0)
(0.8944 0.4472 0)
(0.8944 0.4472 0)
(0.8944 0.4472 0)
(0.8944 0.4472 0)
(0.894424 0.447163 0)
(0.894423 0.447157 0)
(0.89442 0.447152 0)
(0.894415 0.447148 0)
(0.894407 0.447147 0)
(0.894397 0.447149 0)
(0.894384 0.447155 0)
(0.894368 0.447165 0)
(0.894351 0.447179 0)
(0.894333 0.447198 0)
(0.894315 0.447221 0)
(0.894298 0.447248 0)
(0.894282 0.447279 0)
(0.894269 0.447311 0)
(0.89426 0.447345 0)
(0.894254 0.447378 0)
(0.894252 0.447409 0)
(0.894255 0.447437 0)
(0.894262 0.447461 0)
(0.894273 0.44748 0)
(0.894287 0.447493 0)
(0.894303 0.4475 0)
(0.894322 0.447501 0)
(0.894341 0.447497 0)
(0.894359 0.447487 0)
(0.894377 0.447473 0)
(0.894393 0.447455 0)
(0.894407 0.447434 0)
(0.894419 0.447412 0)
(0.894428 0.447388 0)
(0.894434 0.447365 0)
(0.894438 0.447342 0)
(0.89444 0.44732 0)
(0.89444 0.4473 0)
(0.894438 0.447282 0)
(0.894436 0.447266 0)
(0.894432 0.447252 0)
(0.894429 0.44724 0)
(0.894424 0.44723 0)
(0.89442 0.447221 0)
(0.894417 0.447215 0)
(0.894413 0.44721 0)
(0.89441 0.447206 0)
(0.894407 0.447204 0)
(0.894405 0.447202 0)
(0.894404 0.4472 0)
(0.894402 0.4472 0)
(0.894401 0.447199 0)
(0.894401 0.447199 0)
(0.8944 0.447199 0)
(0.8944 0.447199 0)
(0.8944 0.447199 0)
(0.8944 0.447199 0)
(0.8944 0.447199 0)
(0.8944 0.4472 0)
(0.8944 0.4472 0)
(0.8944 0.4472 0)
(0.8944 0.4472 0)
(0.8944 0.4472 0)
(0.8944 0.4472 0)
(0.8944 0.4472 0)
(0.8944 0.4472 0)
(0.8944 0.4472 0)
(0.8944 0.4472 0)
(0.8944 0.4472 0)
(0.8944 0.4472 0)
(0.8944 0.4472 0)
(0.8944 0.4472 0)
(0.8944 0.4472 0)
(0.8944 0.4472 0)
(0.8944 0.4472 0)
(0.8944 0.4472 0)
(0.8944 0.4472 0)
(0.8944 0.4472 0)
(0.8944 0.4472 0)
(0.894427 0.447161 0)
(0.894424 0.447156 0)
(0.894419 0.447152 0)
(0.89441 0.447151 0)
(0.894398 0.447154 0)
(0.894383 0.44716 0)
(0.894365 0.447172 0)
(0.894343 0.44719 0)
(0.89432 0.447214 0)
(0.894295 0.447243 0)
(0.894271 0.447278 0)
(0.894248 0.447318 0)
(0.894228 0.447362 0)
(0.894212 0.447407 0)
(0.8942 0.447452 0)
(0.894194 0.447496 0)
(0.894194 0.447537 0)
(0.894199 0.447572 0)
(0.894211 0.447601 0)
(0.894227 0.447623 0)
(0.894247 0.447636 0)
(0.89427 0.44764 0)
(0.894295 0.447636 0)
(0.894321 0.447625 0)
(0.894346 0.447606 0)
(0.89437 0.447582 0)
(0.894391 0.447553 0)
(0.894409 0.447522 0)
(0.894425 0.447488 0)
(0.894436 0.447454 0)
(0.894444 0.44742 0)
(0.894449 0.447388 0)
(0.894452 0.447358 0)
(0.894451 0.44733 0)
(0.894449 0.447305 0)
(0.894446 0.447284 0)
(0.894441 0.447265 0)
(0.894436 0.44725 0)
(0.894431 0.447237 0)
(0.894426 0.447226 0)
(0.894421 0.447218 0)
(0.894416 0.447212 0)
(0.894412 0.447207 0)
(0.894409 0.447204 0)
(0.894407 0.447201 0)
(0.894404 0.4472 0)
(0.894403 0.447199 0)
(0.894402 0.447199 0)
(0.894401 0.447198 0)
(0.8944 0.447198 0)
(0.8944 0.447199 0)
(0.8944 0.447199 0)
(0.8944 0.447199 0)
(0.8944 0.447199 0)
(0.8944 0.447199 0)
(0.8944 0.4472 0)
(0.8944 0.4472 0)
(0.8944 0.4472 0)
(0.8944 0.4472 0)
(0.8944 0.4472 0)
(0.8944 0.4472 0)
(0.8944 0.4472 0)
(0.8944 0.4472 0)
(0.8944 0.4472 0)
(0.8944 0.4472 0)
(0.8944 0.4472 0)
(0.8944 0.4472 0)
(0.8944 0.4472 0)
(0.8944 0.4472 0)
(0.8944 0.4472 0)
(0.8944 0.4472 0)
(0.8944 0.4472 0)
(0.8944 0.4472 0)
(0.8944 0.4472 0)
(0.8944 0.4472 0)
(0.894427 0.447163 0)
(0.894422 0.44716 0)
(0.894412 0.447159 0)
(0.894399 0.447162 0)
(0.894382 0.447171 0)
(0.894359 0.447185 0)
(0.894333 0.447208 0)
(0.894303 0.447238 0)
(0.894271 0.447275 0)
(0.894238 0.447321 0)
(0.894205 0.447373 0)
(0.894175 0.447431 0)
(0.894149 0.447493 0)
(0.894129 0.447556 0)
(0.894115 0.447617 0)
(0.894109 0.447676 0)
(0.894111 0.447729 0)
(0.894121 0.447774 0)
(0.894139 0.447809 0)
(0.894163 0.447832 0)
(0.894192 0.447844 0)
(0.894225 0.447843 0)
(0.89426 0.447831 0)
(0.894295 0.447808 0)
(0.894329 0.447776 0)
(0.894361 0.447737 0)
(0.894389 0.447692 0)
(0.894413 0.447644 0)
(0.894433 0.447594 0)
(0.894448 0.447544 0)
(0.894458 0.447496 0)
(0.894464 0.44745 0)
(0.894467 0.447408 0)
(0.894466 0.44737 0)
(0.894463 0.447337 0)
(0.894458 0.447308 0)
(0.894452 0.447283 0)
(0.894445 0.447262 0)
(0.894438 0.447246 0)
(0.894432 0.447232 0)
(0.894426 0.447222 0)
(0.89442 0.447214 0)
(0.894415 0.447208 0)
(0.894411 0.447204 0)
(0.894408 0.447201 0)
(0.894405 0.447199 0)
(0.894403 0.447198 0)
(0.894402 0.447198 0)
(0.894401 0.447198 0)
(0.8944 0.447198 0)
(0.8944 0.447198 0)
(0.8944 0.447198 0)
(0.894399 0.447199 0)
(0.894399 0.447199 0)
(0.8944 0.447199 0)
(0.8944 0.447199 0)
(0.8944 0.4472 0)
(0.8944 0.4472 0)
(0.8944 0.4472 0)
(0.8944 0.4472 0)
(0.8944 0.4472 0)
(0.8944 0.4472 0)
(0.8944 0.4472 0)
(0.8944 0.4472 0)
(0.8944 0.4472 0)
(0.8944 0.4472 0)
(0.8944 0.4472 0)
(0.8944 0.4472 0)
(0.8944 0.4472 0)
(0.8944 0.4472 0)
(0.8944 0.4472 0)
(0.8944 0.4472 0)
(0.8944 0.4472 0)
(0.8944 0.4472 0)
(0.8944 0.4472 0)
(0.894423 0.447169 0)
(0.894414 0.447169 0)
(0.894399 0.447174 0)
(0.894379 0.447186 0)
(0.894352 0.447204 0)
(0.89432 0.447231 0)
(0.894282 0.447269 0)
(0.89424 0.447317 0)
(0.894196 0.447375 0)
(0.894151 0.447444 0)
(0.894108 0.447521 0)
(0.894068 0.447604 0)
(0.894034 0.447691 0)
(0.894009 0.447779 0)
(0.893993 0.447864 0)
(0.893988 0.447942 0)
(0.893994 0.448012 0)
(0.89401 0.448069 0)
(0.894037 0.448111 0)
(0.894073 0.448136 0)
(0.894115 0.448145 0)
(0.894162 0.448136 0)
(0.894211 0.448111 0)
(0.894259 0.448071 0)
(0.894306 0.448019 0)
(0.894349 0.447957 0)
(0.894387 0.447889 0)
(0.894419 0.447816 0)
(0.894444 0.447743 0)
(0.894463 0.44767 0)
(0.894476 0.447601 0)
(0.894484 0.447536 0)
(0.894486 0.447477 0)
(0.894485 0.447425 0)
(0.894481 0.447379 0)
(0.894474 0.44734 0)
(0.894466 0.447306 0)
(0.894457 0.447279 0)
(0.894448 0.447257 0)
(0.89444 0.44724 0)
(0.894432 0.447226 0)
(0.894425 0.447216 0)
(0.894419 0.447209 0)
(0.894414 0.447204 0)
(0.894409 0.4472 0)
(0.894406 0.447198 0)
(0.894404 0.447197 0)
(0.894402 0.447197 0)
(0.894401 0.447197 0)
(0.8944 0.447197 0)
(0.8944 0.447197 0)
(0.894399 0.447198 0)
(0.894399 0.447198 0)
(0.894399 0.447198 0)
(0.894399 0.447199 0)
(0.894399 0.447199 0)
(0.8944 0.447199 0)
(0.8944 0.4472 0)
(0.8944 0.4472 0)
(0.8944 0.4472 0)
(0.8944 0.4472 0)
(0.8944 0.4472 0)
(0.8944 0.4472 0)
(0.8944 0.4472 0)
(0.8944 0.4472 0)
(0.8944 0.4472 0)
(0.8944 0.4472 0)
(0.8944 0.4472 0)
(0.8944 0.4472 0)
(0.8944 0.4472 0)
(0.8944 0.4472 0)
(0.8944 0.4472 0)
(0.8944 0.4472 0)
(0.8944 0.4472 0)
(0.8944 0.4472 0)
(0.894414 0.447184 0)
(0.894398 0.44719 0)
(0.894375 0.447204 0)
(0.894344 0.447228 0)
(0.894304 0.447261 0)
(0.894258 0.447308 0)
(0.894204 0.447368 0)
(0.894146 0.447442 0)
(0.894084 0.44753 0)
(0.894023 0.447632 0)
(0.893964 0.447743 0)
(0.893912 0.447862 0)
(0.893868 0.447984 0)
(0.893837 0.448106 0)
(0.893818 0.448222 0)
(0.893815 0.448328 0)
(0.893827 0.448419 0)
(0.893854 0.448492 0)
(0.893895 0.448543 0)
(0.893947 0.44857 0)
(0.894007 0.448573 0)
(0.894074 0.448551 0)
(0.894142 0.448507 0)
(0.89421 0.448443 0)
(0.894274 0.448362 0)
(0.894333 0.448268 0)
(0.894384 0.448166 0)
(0.894426 0.448059 0)
(0.89446 0.447951 0)
(0.894485 0.447846 0)
(0.894501 0.447747 0)
(0.89451 0.447656 0)
(0.894512 0.447573 0)
(0.89451 0.4475 0)
(0.894504 0.447436 0)
(0.894495 0.447383 0)
(0.894484 0.447338 0)
(0.894472 0.447302 0)
(0.894461 0.447273 0)
(0.89445 0.44725 0)
(0.894439 0.447232 0)
(0.89443 0.447219 0)
(0.894423 0.44721 0)
(0.894416 0.447204 0)
(0.894411 0.447199 0)
(0.894407 0.447197 0)
(0.894404 0.447196 0)
(0.894402 0.447195 0)
(0.894401 0.447195 0)
(0.8944 0.447196 0)
(0.894399 0.447196 0)
(0.894399 0.447197 0)
(0.894399 0.447197 0)
(0.894399 0.447198 0)
(0.894399 0.447198 0)
(0.894399 0.447199 0)
(0.894399 0.447199 0)
(0.8944 0.447199 0)
(0.8944 0.4472 0)
(0.8944 0.4472 0)
(0.8944 0.4472 0)
(0.8944 0.4472 0)
(0.8944 0.4472 0)
(0.8944 0.4472 0)
(0.8944 0.4472 0)
(0.8944 0.4472 0)
(0.8944 0.4472 0)
(0.8944 0.4472 0)
(0.8944 0.4472 0)
(0.8944 0.4472 0)
(0.8944 0.4472 0)
(0.8944 0.4472 0)
(0.8944 0.4472 0)
(0.8944 0.4472 0)
(0.8944 0.4472 0)
(0.894395 0.447209 0)
(0.894369 0.447226 0)
(0.894333 0.447254 0)
(0.894287 0.447296 0)
(0.894229 0.447352 0)
(0.894162 0.447427 0)
(0.894086 0.44752 0)
(0.894004 0.447632 0)
(0.893919 0.447762 0)
(0.893835 0.447908 0)
(0.893756 0.448068 0)
(0.893686 0.448235 0)
(0.89363 0.448406 0)