/*--------------------------------*- C++ -*----------------------------------*\
  =========                 |
  \\      /  F ield         | OpenFOAM: The Open Source CFD Toolbox
   \\    /   O peration     | Website:  https://openfoam.org
    \\  /    A nd           | Version:  6
     \\/     M anipulation  |
\*---------------------------------------------------------------------------*/
FoamFile
{
    version     2.0;
    format      ascii;
    class       volScalarField;
    location    "1.07";
    object      rho;
}
// * * * * * * * * * * * * * * * * * * * * * * * * * * * * * * * * * * * * * //

dimensions      [1 -3 0 0 0 0 0];

internalField   nonuniform List<scalar> 
5835
(
1.42641e-05
1.18566e-05
1.46292e-05
1.18614e-05
1.19695e-05
1.18576e-05
1.18953e-05
1.18564e-05
1.19137e-05
1.18563e-05
1.19075e-05
1.21182e-05
1.18596e-05
1.18631e-05
1.26573e-05
1.18576e-05
3.63058e-05
3.51315e-05
1.18573e-05
1.1857e-05
3.96015e-05
1.1857e-05
3.82196e-05
1.22721e-05
1.18572e-05
1.18596e-05
1.28217e-05
1.18595e-05
1.1891e-05
1.18766e-05
1.1858e-05
1.18575e-05
1.18614e-05
1.18607e-05
1.18568e-05
1.18605e-05
1.18574e-05
1.18625e-05
1.18572e-05
1.1857e-05
1.18576e-05
1.18568e-05
1.18602e-05
1.18569e-05
1.18611e-05
1.1857e-05
1.18592e-05
1.18568e-05
1.18571e-05
1.18574e-05
1.18585e-05
1.18576e-05
1.1857e-05
1.18577e-05
1.1857e-05
1.18572e-05
1.18583e-05
1.18597e-05
1.18569e-05
1.18573e-05
1.18578e-05
1.18607e-05
1.1872e-05
1.18573e-05
1.18609e-05
1.18569e-05
1.18576e-05
1.18664e-05
1.18577e-05
1.18569e-05
1.18568e-05
1.18569e-05
1.18573e-05
1.18637e-05
1.18574e-05
1.18641e-05
1.18615e-05
1.18568e-05
1.18585e-05
1.18575e-05
1.18754e-05
1.18568e-05
1.18568e-05
1.5268e-05
1.44819e-05
1.19075e-05
1.1908e-05
1.1857e-05
1.18565e-05
1.1857e-05
1.19111e-05
1.18564e-05
1.19417e-05
1.18706e-05
1.18684e-05
1.18568e-05
1.18592e-05
1.18573e-05
1.18907e-05
1.19034e-05
1.1884e-05
1.18709e-05
1.18622e-05
1.18593e-05
1.25665e-05
1.1859e-05
1.18652e-05
1.26676e-05
1.1858e-05
1.1872e-05
1.18628e-05
1.18569e-05
1.18861e-05
1.1856e-05
1.18579e-05
1.18562e-05
1.18561e-05
1.18569e-05
1.18567e-05
1.21387e-05
1.21753e-05
1.18612e-05
1.18614e-05
1.18787e-05
1.18652e-05
1.18574e-05
1.18568e-05
1.18567e-05
1.18568e-05
1.1885e-05
1.18703e-05
1.18577e-05
1.18571e-05
1.18599e-05
1.18568e-05
1.18652e-05
4.45061e-05
1.1862e-05
4.57001e-05
1.18569e-05
1.18599e-05
1.18569e-05
4.36454e-05
4.37476e-05
4.58217e-05
4.58669e-05
1.57325e-05
1.6382e-05
1.18599e-05
1.18566e-05
1.59173e-05
1.1857e-05
1.18815e-05
1.18569e-05
1.41376e-05
1.20455e-05
1.18834e-05
1.18938e-05
1.18574e-05
1.21325e-05
1.18563e-05
1.18803e-05
1.18629e-05
1.18877e-05
1.18637e-05
1.18575e-05
1.18565e-05
1.18959e-05
1.18613e-05
1.18566e-05
1.18584e-05
1.18987e-05
1.18787e-05
1.18974e-05
1.18698e-05
1.18706e-05
1.18585e-05
1.19147e-05
1.19019e-05
1.18857e-05
1.18566e-05
1.18585e-05
1.1865e-05
1.1865e-05
1.18564e-05
1.19126e-05
1.18565e-05
1.18732e-05
1.186e-05
1.18568e-05
1.18574e-05
1.18577e-05
1.18569e-05
1.18637e-05
1.18581e-05
1.18585e-05
1.18584e-05
1.18569e-05
1.18596e-05
1.18572e-05
4.27659e-05
4.24603e-05
1.18588e-05
1.1858e-05
1.18599e-05
1.18573e-05
1.18673e-05
1.18569e-05
1.18569e-05
1.187e-05
1.18933e-05
1.18584e-05
1.18839e-05
1.18589e-05
1.18636e-05
1.18642e-05
1.18571e-05
1.18587e-05
1.18579e-05
1.18569e-05
1.18568e-05
1.18653e-05
1.18762e-05
1.18638e-05
1.18563e-05
1.18816e-05
1.18803e-05
4.46037e-05
1.18709e-05
1.18618e-05
1.18691e-05
1.18566e-05
1.18569e-05
1.18569e-05
1.18651e-05
1.18566e-05
1.57555e-05
1.18627e-05
1.52895e-05
1.18599e-05
1.18583e-05
1.18569e-05
1.18641e-05
1.18691e-05
1.18564e-05
1.19031e-05
1.18567e-05
1.18821e-05
1.18688e-05
1.18583e-05
1.18714e-05
1.18585e-05
1.18568e-05
1.19161e-05
1.18592e-05
1.18563e-05
1.18569e-05
1.20054e-05
1.19117e-05
1.1862e-05
1.1858e-05
1.39981e-05
1.34265e-05
1.18599e-05
1.38268e-05
1.1886e-05
1.18696e-05
1.1867e-05
1.3572e-05
1.39439e-05
1.18594e-05
1.18583e-05
1.18573e-05
1.18566e-05
1.18587e-05
1.18884e-05
1.18568e-05
1.18623e-05
1.18567e-05
1.18638e-05
1.18984e-05
1.18649e-05
1.39652e-05
1.18568e-05
1.18606e-05
1.18682e-05
1.18609e-05
1.18618e-05
1.18577e-05
1.18569e-05
4.27333e-05
1.50391e-05
1.19074e-05
1.55587e-05
1.18637e-05
1.18752e-05
1.1859e-05
1.18568e-05
1.18601e-05
4.20978e-05
1.18676e-05
4.503e-05
4.57996e-05
3.98094e-05
1.51651e-05
4.08986e-05
1.1857e-05
4.09749e-05
1.18745e-05
1.59824e-05
4.68735e-05
1.61477e-05
3.90321e-05
1.40904e-05
1.18667e-05
1.18629e-05
1.1875e-05
1.35818e-05
1.18642e-05
1.18564e-05
1.18566e-05
1.18828e-05
1.18568e-05
1.38375e-05
1.18607e-05
1.43743e-05
1.18832e-05
1.18745e-05
4.41608e-05
1.18565e-05
1.19102e-05
1.20598e-05
1.18715e-05
1.18581e-05
1.18756e-05
1.18802e-05
1.18582e-05
1.18633e-05
1.18769e-05
1.18574e-05
1.18569e-05
4.1206e-05
1.19889e-05
4.24087e-05
1.18579e-05
1.18795e-05
1.1888e-05
1.18834e-05
1.18732e-05
1.18585e-05
1.21516e-05
1.1892e-05
1.18878e-05
1.18564e-05
1.19272e-05
1.18562e-05
1.1858e-05
1.18568e-05
1.21422e-05
1.18927e-05
1.18562e-05
1.18579e-05
1.1857e-05
1.18656e-05
1.21621e-05
1.1869e-05
1.19016e-05
1.18882e-05
1.18595e-05
1.18571e-05
1.18653e-05
1.18583e-05
1.18574e-05
1.18776e-05
1.18559e-05
1.18647e-05
1.18564e-05
1.1857e-05
1.18571e-05
1.18636e-05
1.18578e-05
1.18609e-05
1.18568e-05
1.18609e-05
1.18586e-05
1.18661e-05
1.18588e-05
1.18579e-05
1.18577e-05
1.1857e-05
1.18628e-05
1.18678e-05
1.18678e-05
1.1858e-05
1.18588e-05
1.18603e-05
1.18569e-05
1.18608e-05
1.18574e-05
1.18573e-05
1.18579e-05
1.1857e-05
1.18572e-05
1.18642e-05
1.18571e-05
1.18562e-05
1.18786e-05
1.18666e-05
1.18731e-05
1.18761e-05
1.18568e-05
1.18575e-05
1.18564e-05
1.18591e-05
1.19198e-05
1.18564e-05
1.18723e-05
1.18559e-05
1.18701e-05
1.18571e-05
1.18566e-05
1.18598e-05
1.18829e-05
1.18928e-05
1.18698e-05
1.18682e-05
1.19144e-05
1.18629e-05
1.18686e-05
1.18705e-05
1.18567e-05
1.19574e-05
1.18593e-05
1.18563e-05
1.18852e-05
1.18567e-05
1.19101e-05
1.19067e-05
1.18623e-05
1.1942e-05
1.19718e-05
1.18659e-05
1.18794e-05
1.19101e-05
1.18706e-05
1.1865e-05
1.18724e-05
1.18732e-05
1.1866e-05
1.18567e-05
1.19363e-05
1.18568e-05
1.19022e-05
1.1867e-05
1.18563e-05
1.1908e-05
1.19136e-05
1.18567e-05
1.18758e-05
1.18565e-05
1.18657e-05
1.18607e-05
1.18968e-05
1.18912e-05
1.18568e-05
1.18761e-05
1.18565e-05
1.18563e-05
1.19243e-05
1.1885e-05
1.18756e-05
1.1858e-05
1.18811e-05
1.18972e-05
1.18698e-05
1.18599e-05
1.18799e-05
1.19005e-05
1.18985e-05
1.18709e-05
1.18567e-05
1.18564e-05
1.19082e-05
1.18593e-05
1.1893e-05
1.18562e-05
1.18573e-05
1.1864e-05
1.18566e-05
1.18746e-05
1.18734e-05
1.187e-05
1.18714e-05
1.18688e-05
1.18578e-05
1.18567e-05
1.18935e-05
1.18567e-05
1.1857e-05
1.18571e-05
1.1909e-05
1.18816e-05
1.18558e-05
1.186e-05
1.20917e-05
1.18568e-05
1.18566e-05
1.1866e-05
1.22156e-05
1.18563e-05
1.18579e-05
1.18991e-05
1.1857e-05
1.19213e-05
1.18594e-05
1.18793e-05
4.2136e-05
1.18566e-05
1.1862e-05
4.25031e-05
4.25696e-05
4.21189e-05
1.18567e-05
1.186e-05
1.18719e-05
1.18575e-05
1.59435e-05
1.4915e-05
1.18606e-05
1.18568e-05
1.18562e-05
1.59198e-05
4.10041e-05
1.18573e-05
4.40688e-05
1.18663e-05
1.18594e-05
1.18562e-05
1.56873e-05
1.18802e-05
1.21493e-05
1.18554e-05
4.16299e-05
1.18568e-05
1.35984e-05
1.19098e-05
1.18913e-05
1.1873e-05
1.18703e-05
1.18606e-05
1.18561e-05
1.18629e-05
1.18662e-05
1.19134e-05
1.19006e-05
1.1858e-05
1.18576e-05
1.1859e-05
1.18582e-05
1.18578e-05
1.18636e-05
1.18826e-05
4.47582e-05
1.18566e-05
1.18727e-05
1.18569e-05
1.18569e-05
1.1855e-05
1.19072e-05
1.1873e-05
1.1856e-05
1.1857e-05
1.19145e-05
1.18859e-05
1.18567e-05
1.18767e-05
3.95979e-05
1.18568e-05
1.18565e-05
1.1863e-05
1.18722e-05
1.1857e-05
1.18681e-05
1.18609e-05
1.18801e-05
1.18564e-05
1.19172e-05
1.18971e-05
1.18661e-05
1.18759e-05
1.18788e-05
1.18654e-05
1.18565e-05
1.18571e-05
1.18563e-05
1.1892e-05
1.18674e-05
1.19024e-05
1.18564e-05
1.18562e-05
1.18602e-05
1.18561e-05
1.18562e-05
1.18565e-05
1.19995e-05
1.18577e-05
1.1863e-05
1.18595e-05
1.18604e-05
1.18694e-05
1.18689e-05
1.39789e-05
1.18663e-05
1.35616e-05
1.18753e-05
1.36374e-05
1.18728e-05
1.18562e-05
1.18559e-05
4.04947e-05
1.18569e-05
1.41841e-05
1.18562e-05
1.18574e-05
1.36083e-05
1.18568e-05
3.84914e-05
1.18567e-05
1.61807e-05
1.62077e-05
1.18562e-05
1.19114e-05
3.90584e-05
3.78867e-05
1.61229e-05
1.1857e-05
1.18683e-05
1.18763e-05
1.1856e-05
1.40577e-05
4.27717e-05
1.1859e-05
1.3968e-05
1.1875e-05
1.1871e-05
1.18698e-05
1.18678e-05
4.336e-05
3.93934e-05
1.18691e-05
1.39196e-05
1.18624e-05
3.83568e-05
1.18613e-05
1.18564e-05
1.18559e-05
3.89716e-05
1.1864e-05
3.93784e-05
1.1857e-05
1.1875e-05
1.18552e-05
1.20056e-05
1.20016e-05
1.18574e-05
1.18564e-05
1.1876e-05
1.19003e-05
1.18565e-05
1.21676e-05
1.18559e-05
1.18856e-05
1.21599e-05
1.18896e-05
1.18561e-05
1.18574e-05
1.18569e-05
1.18598e-05
1.18575e-05
1.18594e-05
1.18595e-05
1.18583e-05
1.18572e-05
1.18614e-05
1.18653e-05
1.18671e-05
1.18614e-05
1.18581e-05
1.18607e-05
1.18572e-05
1.18583e-05
1.18564e-05
1.18578e-05
1.18611e-05
1.18594e-05
1.1877e-05
1.18849e-05
1.18581e-05
1.18637e-05
1.18551e-05
1.18746e-05
1.18567e-05
1.1885e-05
1.1921e-05
1.18553e-05
1.1875e-05
1.18554e-05
1.19147e-05
1.18638e-05
1.18637e-05
1.1857e-05
1.18701e-05
1.18575e-05
1.18832e-05
1.1875e-05
1.18559e-05
1.19106e-05
1.18668e-05
1.19407e-05
1.18652e-05
1.18574e-05
1.18564e-05
1.18566e-05
1.18565e-05
1.19039e-05
1.18553e-05
1.19448e-05
1.18565e-05
1.18629e-05
1.1871e-05
1.18843e-05
1.19204e-05
1.19753e-05
1.18648e-05
1.18848e-05
1.18558e-05
1.19475e-05
1.19003e-05
1.18973e-05
1.19641e-05
1.19264e-05
1.18941e-05
1.18693e-05
1.18562e-05
1.19101e-05
1.19145e-05
1.18563e-05
1.18826e-05
1.18558e-05
1.18654e-05
1.19166e-05
1.18931e-05
1.18762e-05
1.18681e-05
1.18562e-05
1.18726e-05
1.18941e-05
1.18642e-05
1.18559e-05
1.19023e-05
1.19135e-05
1.18532e-05
1.18541e-05
1.18732e-05
1.18559e-05
1.18677e-05
1.18706e-05
1.18716e-05
1.18566e-05
1.18777e-05
1.18564e-05
1.1874e-05
1.1856e-05
1.19142e-05
1.18555e-05
1.18612e-05
1.18889e-05
1.18578e-05
1.18579e-05
1.18583e-05
1.18576e-05
1.18575e-05
1.18627e-05
1.1864e-05
1.18586e-05
1.18629e-05
1.18575e-05
1.18584e-05
1.18587e-05
1.18581e-05
1.1855e-05
1.18568e-05
1.18626e-05
1.18604e-05
1.18565e-05
1.18564e-05
1.18568e-05
1.18754e-05
1.18893e-05
1.18586e-05
1.18561e-05
1.18658e-05
1.18607e-05
1.18614e-05
1.19131e-05
1.18878e-05
1.18832e-05
1.18832e-05
1.18681e-05
1.1859e-05
1.18643e-05
1.18924e-05
1.18745e-05
1.18584e-05
1.18612e-05
1.18648e-05
1.18595e-05
1.18586e-05
1.18835e-05
1.18573e-05
1.18567e-05
1.19095e-05
1.18791e-05
1.18699e-05
1.18699e-05
1.18608e-05
1.18657e-05
1.45084e-05
1.69168e-05
1.81038e-05
1.43357e-05
1.18666e-05
1.18645e-05
1.18658e-05
1.18595e-05
1.18598e-05
1.18559e-05
1.18571e-05
1.18566e-05
1.18652e-05
1.18673e-05
1.18657e-05
1.18569e-05
1.18564e-05
1.18665e-05
1.18573e-05
1.18567e-05
1.18574e-05
1.18719e-05
1.18565e-05
1.18768e-05
1.18567e-05
1.18597e-05
1.1859e-05
1.18622e-05
1.18567e-05
1.20739e-05
1.18566e-05
1.18564e-05
1.20462e-05
1.18566e-05
1.19235e-05
1.19092e-05
1.23001e-05
1.18793e-05
1.18906e-05
1.1887e-05
1.18529e-05
1.18554e-05
1.19282e-05
1.18954e-05
1.18576e-05
1.18547e-05
1.18666e-05
1.18562e-05
1.18767e-05
1.20152e-05
1.18657e-05
1.18764e-05
1.18726e-05
1.18739e-05
1.1857e-05
1.21744e-05
1.20473e-05
1.18564e-05
1.18644e-05
1.19576e-05
1.18562e-05
1.18569e-05
1.19368e-05
1.65469e-05
1.18591e-05
1.80199e-05
1.19087e-05
1.18563e-05
1.18567e-05
1.18583e-05
1.1868e-05
1.18568e-05
1.18639e-05
1.18684e-05
1.18624e-05
1.21078e-05
1.21377e-05
1.18568e-05
1.18565e-05
1.20232e-05
1.18809e-05
1.20564e-05
1.18927e-05
1.19822e-05
1.18563e-05
1.18579e-05
6.25415e-05
6.48014e-05
1.18587e-05
1.18601e-05
1.18571e-05
6.1851e-05
6.42311e-05
6.58507e-05
1.18571e-05
6.07248e-05
1.18569e-05
1.18669e-05
1.18582e-05
6.56664e-05
6.29942e-05
1.1857e-05
6.38427e-05
6.04596e-05
1.18581e-05
1.18571e-05
1.18607e-05
6.52395e-05
1.18584e-05
1.1858e-05
6.53939e-05
1.18651e-05
6.46314e-05
1.18661e-05
1.18605e-05
1.18599e-05
6.69313e-05
6.12443e-05
6.0499e-05
1.18604e-05
1.18618e-05
1.18602e-05
5.86155e-05
6.41979e-05
6.26111e-05
6.06002e-05
6.10551e-05
1.18578e-05
1.18607e-05
6.3115e-05
1.1857e-05
1.18601e-05
6.10527e-05
6.11634e-05
6.21138e-05
1.18572e-05
6.26644e-05
1.18582e-05
1.18858e-05
1.18642e-05
1.1857e-05
1.18562e-05
1.18574e-05
1.18665e-05
1.18662e-05
1.18744e-05
1.18567e-05
1.18567e-05
1.2164e-05
1.21358e-05
1.1862e-05
1.18644e-05
1.20446e-05
1.18574e-05
1.18566e-05
4.87931e-05
1.18579e-05
1.18581e-05
4.73359e-05
1.18575e-05
1.22374e-05
1.1857e-05
1.18631e-05
1.18856e-05
1.18571e-05
1.18719e-05
1.18576e-05
1.18571e-05
1.1857e-05
1.1874e-05
1.18567e-05
1.1858e-05
1.18568e-05
1.18729e-05
1.18752e-05
1.18602e-05
1.18685e-05
1.1866e-05
1.18611e-05
1.18574e-05
1.1858e-05
1.18589e-05
1.18666e-05
1.18569e-05
1.18732e-05
1.18586e-05
1.18595e-05
1.18572e-05
1.18673e-05
1.19241e-05
1.18569e-05
1.18711e-05
1.18704e-05
1.1884e-05
1.46563e-05
3.08603e-05
1.18707e-05
1.18592e-05
1.23899e-05
3.10465e-05
1.18644e-05
1.4235e-05
1.24458e-05
1.18776e-05
1.18706e-05
1.18646e-05
1.18567e-05
1.186e-05
1.18582e-05
1.186e-05
1.18567e-05
1.18653e-05
1.18599e-05
1.18583e-05
1.18584e-05
1.18571e-05
1.18642e-05
1.18882e-05
1.18563e-05
1.20668e-05
1.18572e-05
1.18617e-05
1.18566e-05
1.18618e-05
1.18697e-05
1.22249e-05
1.24988e-05
1.18789e-05
1.18568e-05
1.18828e-05
1.18848e-05
1.18573e-05
1.18562e-05
1.18976e-05
1.18795e-05
1.18573e-05
1.18625e-05
1.18879e-05
1.18619e-05
1.18565e-05
1.18978e-05
1.18615e-05
1.18855e-05
1.18566e-05
1.18567e-05
1.18824e-05
1.1869e-05
1.18597e-05
1.18612e-05
1.18555e-05
1.18816e-05
1.18572e-05
1.18871e-05
1.18565e-05
1.18867e-05
1.18561e-05
1.1897e-05
1.18571e-05
1.18667e-05
1.18572e-05
1.19118e-05
1.18576e-05
1.18914e-05
1.18565e-05
1.18545e-05
1.18598e-05
1.18563e-05
1.18634e-05
1.1861e-05
1.18589e-05
1.1937e-05
1.18603e-05
1.18726e-05
1.18565e-05
1.18867e-05
1.18751e-05
1.18569e-05
1.18721e-05
1.1867e-05
1.18628e-05
1.19046e-05
1.18999e-05
1.18613e-05
1.18646e-05
1.18982e-05
1.18881e-05
1.18571e-05
1.18568e-05
1.18931e-05
1.18561e-05
1.19561e-05
1.1857e-05
1.18583e-05
1.18651e-05
1.18729e-05
1.18894e-05
1.1897e-05
1.18569e-05
1.19013e-05
1.18694e-05
1.18717e-05
1.19033e-05
1.18709e-05
1.19449e-05
1.19149e-05
1.18585e-05
1.18586e-05
1.18773e-05
1.18571e-05
1.18689e-05
1.18638e-05
1.18566e-05
1.18852e-05
1.18573e-05
1.18567e-05
1.18654e-05
1.18656e-05
1.18579e-05
1.1859e-05
1.18878e-05
1.18563e-05
1.18747e-05
1.18755e-05
1.19147e-05
1.18934e-05
1.18777e-05
1.18576e-05
1.18638e-05
1.1863e-05
1.19405e-05
1.19498e-05
1.18727e-05
1.18941e-05
1.18657e-05
1.18939e-05
1.18661e-05
1.18994e-05
1.18554e-05
1.18574e-05
1.18985e-05
1.18584e-05
1.18598e-05
1.1857e-05
1.18621e-05
1.18555e-05
1.18798e-05
1.19605e-05
1.18549e-05
1.18802e-05
1.18866e-05
1.18691e-05
1.18734e-05
1.18649e-05
1.18629e-05
1.18794e-05
1.18854e-05
1.18573e-05
1.18807e-05
1.18811e-05
1.18717e-05
1.18568e-05
1.18568e-05
1.18576e-05
1.1865e-05
1.18621e-05
1.18682e-05
1.1856e-05
1.18871e-05
1.18729e-05
1.18572e-05
1.18678e-05
1.18794e-05
1.18541e-05
1.18706e-05
1.18565e-05
1.18728e-05
1.18851e-05
1.18831e-05
1.18579e-05
1.18703e-05
1.18643e-05
1.18637e-05
1.18717e-05
1.18708e-05
1.18722e-05
1.1863e-05
1.18564e-05
1.18563e-05
1.18563e-05
1.18852e-05
1.1859e-05
1.18565e-05
1.18778e-05
1.19071e-05
1.1856e-05
1.18745e-05
1.18982e-05
1.18573e-05
1.18581e-05
1.18732e-05
1.18778e-05
1.18621e-05
1.18751e-05
1.18562e-05
1.18815e-05
1.18571e-05
1.18632e-05
1.18578e-05
1.18638e-05
1.18571e-05
1.19336e-05
1.18558e-05
1.18651e-05
1.18847e-05
1.18788e-05
1.18731e-05
1.18589e-05
1.18682e-05
1.18682e-05
1.18578e-05
1.18732e-05
1.18587e-05
1.18894e-05
1.18573e-05
1.18578e-05
1.18629e-05
1.18624e-05
1.1877e-05
1.18672e-05
1.1859e-05
1.18613e-05
1.18634e-05
1.18574e-05
1.18844e-05
1.18709e-05
1.18658e-05
1.18872e-05
1.18831e-05
1.18567e-05
1.18728e-05
1.18851e-05
1.19047e-05
1.18808e-05
1.19769e-05
1.18563e-05
1.18804e-05
1.18829e-05
1.18678e-05
1.18837e-05
1.18625e-05
1.1862e-05
1.18863e-05
1.19395e-05
1.18584e-05
1.18575e-05
1.18554e-05
1.1862e-05
1.18765e-05
1.18567e-05
1.1859e-05
1.19808e-05
1.18563e-05
1.18828e-05
1.18821e-05
1.18569e-05
1.19809e-05
1.19206e-05
1.18859e-05
1.20304e-05
1.18817e-05
1.20899e-05
1.18563e-05
1.1917e-05
1.18838e-05
1.19249e-05
1.18804e-05
1.18584e-05
1.18661e-05
1.18814e-05
1.18627e-05
1.18846e-05
1.19087e-05
1.18707e-05
1.18578e-05
1.18562e-05
1.19951e-05
1.18548e-05
1.18805e-05
1.18754e-05
1.1891e-05
1.18557e-05
1.62973e-05
2.50581e-05
1.18638e-05
1.18594e-05
1.18568e-05
1.18598e-05
1.18577e-05
1.18706e-05
1.18569e-05
1.18698e-05
1.1863e-05
1.23331e-05
6.38388e-05
1.18591e-05
1.1877e-05
1.18668e-05
1.69539e-05
1.77909e-05
1.18867e-05
1.18585e-05
2.8513e-05
1.18561e-05
1.18843e-05
1.1861e-05
1.22588e-05
1.1857e-05
1.18639e-05
1.62605e-05
2.12094e-05
3.30921e-05
1.18924e-05
6.08337e-05
2.44762e-05
1.18915e-05
3.90708e-05
1.18752e-05
2.46574e-05
3.21628e-05
1.7974e-05
2.55725e-05
2.19306e-05
1.19064e-05
1.35387e-05
1.24469e-05
2.15833e-05
1.18782e-05
1.6311e-05
1.74867e-05
2.61634e-05
1.18686e-05
1.18613e-05
1.18877e-05
1.18684e-05
1.18571e-05
3.06636e-05
1.99557e-05
1.1867e-05
1.18627e-05
1.18761e-05
1.27306e-05
1.57877e-05
1.18735e-05
1.18584e-05
1.34703e-05
1.19538e-05
1.18612e-05
2.15582e-05
1.19055e-05
1.18573e-05
1.18571e-05
2.51371e-05
1.25469e-05
1.1857e-05
1.18636e-05
1.25225e-05
1.18658e-05
1.26276e-05
1.18674e-05
1.23162e-05
1.19115e-05
1.18894e-05
1.18679e-05
1.20693e-05
1.18779e-05
1.18626e-05
1.87855e-05
1.18798e-05
1.18565e-05
1.18722e-05
1.18565e-05
1.19076e-05
1.18774e-05
1.18889e-05
1.18561e-05
1.18577e-05
1.18634e-05
3.0158e-05
1.18591e-05
1.18986e-05
1.18593e-05
2.40748e-05
1.18571e-05
1.18862e-05
1.18573e-05
1.18568e-05
1.18778e-05
1.18597e-05
1.23923e-05
1.18595e-05
1.18697e-05
1.18573e-05
1.18749e-05
1.18576e-05
1.1861e-05
1.18564e-05
1.18755e-05
1.20127e-05
1.73007e-05
1.18584e-05
1.23407e-05
1.55604e-05
1.18824e-05
1.18712e-05
1.18608e-05
1.21012e-05
2.625e-05
2.5906e-05
1.18579e-05
1.18573e-05
1.18916e-05
1.18576e-05
1.18601e-05
1.1857e-05
1.64308e-05
1.1857e-05
1.18578e-05
1.18561e-05
1.18699e-05
1.18578e-05
1.18641e-05
1.1858e-05
1.1857e-05
2.58024e-05
1.18568e-05
1.18569e-05
1.18709e-05
1.21224e-05
1.18805e-05
1.1872e-05
1.58822e-05
1.18666e-05
1.24859e-05
1.18669e-05
1.18658e-05
1.18567e-05
1.73233e-05
3.24919e-05
1.18615e-05
1.18674e-05
1.1858e-05
1.18569e-05
1.18563e-05
1.21258e-05
1.18619e-05
1.18645e-05
1.18564e-05
1.2135e-05
1.18769e-05
1.18581e-05
1.21749e-05
1.18611e-05
1.18589e-05
1.18665e-05
1.1862e-05
1.18578e-05
1.18576e-05
1.18627e-05
1.18578e-05
1.18597e-05
1.18575e-05
1.18572e-05
1.18576e-05
1.18574e-05
1.18763e-05
1.18568e-05
1.18572e-05
1.18574e-05
1.18711e-05
1.1862e-05
1.18615e-05
1.18599e-05
1.18646e-05
1.18595e-05
1.18562e-05
1.1857e-05
1.18605e-05
1.18569e-05
1.18588e-05
1.18682e-05
1.1858e-05
1.18608e-05
1.18566e-05
1.18604e-05
1.18587e-05
1.18635e-05
1.18598e-05
1.18592e-05
1.18568e-05
1.18596e-05
1.18572e-05
1.1866e-05
1.18589e-05
1.18597e-05
1.18585e-05
1.18595e-05
1.18571e-05
1.18581e-05
1.18616e-05
1.18568e-05
1.18579e-05
1.18613e-05
1.18582e-05
1.18721e-05
1.18566e-05
1.18583e-05
2.8384e-05
1.1857e-05
1.1871e-05
1.21411e-05
1.18566e-05
1.18567e-05
1.20883e-05
1.18566e-05
1.18702e-05
1.18599e-05
1.18913e-05
1.18679e-05
1.18647e-05
1.2479e-05
1.21471e-05
1.18602e-05
1.27484e-05
1.18569e-05
1.18563e-05
1.18722e-05
1.18575e-05
1.18744e-05
1.18569e-05
1.18819e-05
1.18675e-05
1.19169e-05
1.18557e-05
1.18796e-05
1.19185e-05
1.18588e-05
1.18563e-05
1.18864e-05
1.18561e-05
1.18797e-05
1.18563e-05
1.1926e-05
1.18562e-05
1.18564e-05
1.18748e-05
1.19045e-05
1.18578e-05
1.18576e-05
1.18581e-05
1.18569e-05
1.1859e-05
1.1897e-05
1.19534e-05
1.18597e-05
1.18603e-05
1.18579e-05
1.34957e-05
1.1858e-05
1.18619e-05
1.18583e-05
1.18576e-05
1.19125e-05
1.18581e-05
1.18564e-05
1.18569e-05
3.25017e-05
1.18648e-05
1.18575e-05
1.1866e-05
1.19145e-05
1.18553e-05
1.18792e-05
1.1858e-05
2.07441e-05
1.18578e-05
1.18792e-05
1.18676e-05
1.18593e-05
1.18667e-05
1.19019e-05
1.18765e-05
1.18593e-05
1.19118e-05
1.18563e-05
1.18582e-05
1.18762e-05
6.42112e-05
1.1857e-05
1.18573e-05
2.59804e-05
1.18685e-05
1.19039e-05
1.1885e-05
1.19738e-05
1.18577e-05
1.18569e-05
1.18806e-05
1.18657e-05
1.18699e-05
1.18561e-05
1.18559e-05
1.18563e-05
1.18653e-05
1.18572e-05
1.18581e-05
1.18566e-05
1.18572e-05
1.18554e-05
1.18556e-05
1.18692e-05
1.18891e-05
1.19209e-05
1.18568e-05
1.18577e-05
1.18588e-05
1.18924e-05
1.18666e-05
1.18623e-05
1.18714e-05
1.18708e-05
1.18558e-05
1.18622e-05
1.18616e-05
1.19273e-05
1.1867e-05
1.18605e-05
1.18704e-05
1.18714e-05
1.18662e-05
1.18573e-05
1.18615e-05
1.18635e-05
1.18695e-05
1.18565e-05
1.18567e-05
1.18734e-05
1.18658e-05
1.18572e-05
1.18703e-05
1.18644e-05
1.1856e-05
1.18592e-05
1.1857e-05
1.18663e-05
1.18583e-05
1.18605e-05
1.18613e-05
1.18585e-05
1.18622e-05
1.18571e-05
1.19111e-05
1.18611e-05
1.18919e-05
1.18576e-05
1.18608e-05
1.18712e-05
1.18607e-05
1.18673e-05
1.18617e-05
1.18898e-05
1.18582e-05
1.1861e-05
1.18573e-05
1.18577e-05
1.18568e-05
1.18574e-05
1.18593e-05
1.1858e-05
1.18587e-05
1.18878e-05
1.18981e-05
1.18573e-05
1.18606e-05
1.18586e-05
1.18566e-05
1.18597e-05
1.18598e-05
1.1857e-05
1.18574e-05
1.18576e-05
1.26476e-05
1.18571e-05
2.93748e-05
1.18596e-05
1.18589e-05
1.18629e-05
1.19005e-05
1.18574e-05
1.19737e-05
1.18657e-05
1.18628e-05
1.18582e-05
1.18738e-05
2.15599e-05
1.18654e-05
1.18612e-05
1.18596e-05
1.19234e-05
1.18572e-05
1.18566e-05
1.18589e-05
1.18581e-05
1.18644e-05
1.18587e-05
1.18572e-05
1.18566e-05
1.18606e-05
1.18625e-05
1.18678e-05
1.18581e-05
6.76032e-05
1.18659e-05
3.14707e-05
1.1864e-05
1.18595e-05
1.18624e-05
1.18576e-05
1.18587e-05
1.18616e-05
1.18818e-05
1.18778e-05
1.18566e-05
1.18589e-05
1.18563e-05
1.18637e-05
1.1868e-05
1.18579e-05
1.18864e-05
1.18564e-05
1.18564e-05
1.18777e-05
1.18848e-05
1.18591e-05
1.1866e-05
1.18611e-05
1.19066e-05
1.18585e-05
1.18672e-05
1.18568e-05
1.18611e-05
1.23357e-05
1.18575e-05
6.5263e-05
1.18575e-05
2.75032e-05
1.18579e-05
1.1874e-05
1.18702e-05
1.2526e-05
1.18687e-05
3.36562e-05
1.18831e-05
2.07409e-05
1.18644e-05
1.3337e-05
2.14874e-05
1.36289e-05
1.23939e-05
1.18567e-05
1.18576e-05
2.90893e-05
1.18701e-05
1.18594e-05
3.98919e-05
1.18565e-05
1.18563e-05
3.21325e-05
1.18583e-05
2.29422e-05
3.08595e-05
1.18571e-05
1.18575e-05
1.18582e-05
2.88838e-05
1.18602e-05
1.86906e-05
1.18573e-05
6.55222e-05
1.18585e-05
2.88751e-05
1.18589e-05
1.18768e-05
1.18574e-05
1.18862e-05
1.18584e-05
1.1858e-05
1.18884e-05
1.18594e-05
1.18574e-05
1.18614e-05
1.18639e-05
1.19246e-05
1.19103e-05
1.18961e-05
1.18575e-05
1.2849e-05
1.24825e-05
1.18577e-05
1.18576e-05
6.60769e-05
7.11593e-05
1.1857e-05
1.18573e-05
7.01769e-05
7.65455e-05
1.18571e-05
1.18569e-05
7.30368e-05
7.28815e-05
1.18582e-05
7.33089e-05
7.57458e-05
1.1857e-05
1.18572e-05
1.1858e-05
7.55671e-05
7.29822e-05
1.18579e-05
7.80803e-05
1.18608e-05
7.61414e-05
1.18585e-05
1.18571e-05
7.00951e-05
7.59354e-05
7.33076e-05
1.18588e-05
1.18576e-05
7.51557e-05
7.45005e-05
1.18572e-05
7.47336e-05
1.18581e-05
7.322e-05
1.18596e-05
1.18579e-05
7.2381e-05
7.01117e-05
1.18588e-05
1.18568e-05
7.65752e-05
1.18623e-05
1.18587e-05
7.43974e-05
7.54498e-05
1.18589e-05
1.18575e-05
7.45654e-05
7.41105e-05
1.18574e-05
1.18584e-05
7.82326e-05
7.64657e-05
1.18578e-05
7.49292e-05
7.51698e-05
1.18576e-05
1.186e-05
7.77384e-05
1.18572e-05
7.65971e-05
7.81217e-05
1.18574e-05
1.18572e-05
7.89182e-05
1.18571e-05
7.64484e-05
1.18573e-05
7.63897e-05
7.58447e-05
1.18571e-05
1.18571e-05
7.55397e-05
1.20174e-05
1.18721e-05
1.18571e-05
1.19644e-05
1.18758e-05
1.18564e-05
1.18688e-05
1.18833e-05
1.18915e-05
1.18627e-05
1.18813e-05
1.28202e-05
1.28251e-05
1.19733e-05
1.18572e-05
1.18628e-05
1.18593e-05
7.13888e-05
1.18579e-05
1.18577e-05
7.0277e-05
1.18581e-05
7.17325e-05
7.79286e-05
1.18577e-05
7.21811e-05
1.18576e-05
6.97317e-05
1.18611e-05
7.35097e-05
1.1858e-05
1.18609e-05
1.18595e-05
7.69265e-05
8.06346e-05
7.30855e-05
7.99105e-05
1.18602e-05
1.18572e-05
1.18589e-05
1.18568e-05
7.48464e-05
1.1858e-05
1.18586e-05
1.18579e-05
1.18607e-05
1.18568e-05
1.18594e-05
6.93419e-05
6.84475e-05
7.54043e-05
7.13591e-05
6.69467e-05
7.66841e-05
1.18567e-05
1.18581e-05
7.50486e-05
1.18573e-05
7.53472e-05
7.80168e-05
7.43235e-05
1.18574e-05
1.18579e-05
7.2175e-05
1.18599e-05
7.65164e-05
1.18575e-05
7.21184e-05
7.13742e-05
1.18574e-05
1.18715e-05
1.18705e-05
1.18568e-05
1.1881e-05
1.19028e-05
1.18866e-05
1.18955e-05
1.24856e-05
1.22943e-05
1.18589e-05
1.1862e-05
1.18871e-05
1.18579e-05
1.19002e-05
1.18571e-05
1.18581e-05
1.186e-05
1.22683e-05
1.26268e-05
5.41377e-05
1.18574e-05
1.18572e-05
1.18575e-05
5.83045e-05
1.18575e-05
5.64734e-05
5.93879e-05
1.18913e-05
1.1857e-05
1.18685e-05
1.18569e-05
1.18721e-05
1.18572e-05
1.1869e-05
1.18567e-05
1.18569e-05
1.18738e-05
1.18568e-05
1.18767e-05
1.18588e-05
1.18747e-05
1.18568e-05
1.1868e-05
1.18569e-05
1.18571e-05
1.18625e-05
1.18569e-05
1.18577e-05
1.18592e-05
1.18681e-05
1.1857e-05
1.18747e-05
1.18566e-05
1.18568e-05
1.18571e-05
1.18744e-05
1.18568e-05
1.18568e-05
1.1867e-05
1.18568e-05
1.18772e-05
1.18598e-05
1.99351e-05
1.18658e-05
1.64983e-05
1.56162e-05
1.18767e-05
1.18619e-05
1.18601e-05
1.93213e-05
1.19901e-05
1.18825e-05
1.18677e-05
1.18569e-05
1.18689e-05
1.19271e-05
1.18634e-05
1.18566e-05
1.18743e-05
1.18575e-05
1.18587e-05
1.18567e-05
1.18653e-05
1.18571e-05
1.18571e-05
1.18571e-05
1.18601e-05
1.1857e-05
1.18568e-05
1.18692e-05
1.18569e-05
1.18665e-05
1.18575e-05
1.18575e-05
1.18725e-05
1.1861e-05
1.1868e-05
1.18852e-05
1.18591e-05
1.18836e-05
1.18597e-05
1.18571e-05
1.1891e-05
1.18793e-05
1.18608e-05
1.18802e-05
1.18573e-05
1.18623e-05
1.18783e-05
1.18579e-05
1.18877e-05
1.18866e-05
1.18568e-05
1.18847e-05
1.18625e-05
1.18593e-05
1.18573e-05
1.18569e-05
1.18812e-05
1.18739e-05
1.19022e-05
1.18564e-05
1.18696e-05
1.18859e-05
1.18566e-05
1.18591e-05
1.18605e-05
1.18761e-05
1.18865e-05
1.18692e-05
1.18737e-05
1.18661e-05
1.18589e-05
1.19123e-05
1.18595e-05
1.18576e-05
1.18692e-05
1.18575e-05
1.18583e-05
1.1859e-05
1.18689e-05
1.18634e-05
1.18562e-05
1.18568e-05
1.18585e-05
1.19264e-05
1.18857e-05
1.18592e-05
1.18758e-05
1.18594e-05
1.18711e-05
1.18582e-05
1.18565e-05
1.18556e-05
1.18552e-05
1.18583e-05
1.19098e-05
1.18565e-05
1.18978e-05
1.18728e-05
1.18718e-05
1.1883e-05
1.18635e-05
1.18758e-05
1.18593e-05
1.18695e-05
1.18554e-05
1.18949e-05
1.18569e-05
1.19011e-05
1.18568e-05
1.18853e-05
1.18797e-05
1.18955e-05
1.18871e-05
1.19054e-05
1.18574e-05
1.18573e-05
1.186e-05
1.19247e-05
1.18724e-05
1.1873e-05
1.19038e-05
1.18573e-05
1.19033e-05
1.19294e-05
1.18611e-05
1.18596e-05
1.18788e-05
1.1911e-05
1.19162e-05
1.18573e-05
1.18761e-05
1.18781e-05
1.18571e-05
1.18572e-05
1.18572e-05
1.1872e-05
1.1889e-05
1.19019e-05
1.18861e-05
1.18591e-05
1.18739e-05
1.1857e-05
1.18758e-05
1.18565e-05
1.1857e-05
1.18811e-05
1.18592e-05
1.18567e-05
1.18775e-05
1.18566e-05
1.18706e-05
1.18578e-05
1.18608e-05
1.1884e-05
1.18589e-05
1.18676e-05
1.1857e-05
1.18569e-05
1.18966e-05
1.18567e-05
1.18565e-05
1.18687e-05
1.18727e-05
1.18649e-05
1.18732e-05
1.1873e-05
1.18572e-05
1.18814e-05
1.18722e-05
1.18806e-05
1.18643e-05
1.18671e-05
1.18556e-05
1.18576e-05
1.18568e-05
1.18566e-05
1.18588e-05
1.18586e-05
1.18742e-05
1.18747e-05
1.18937e-05
1.18611e-05
1.18648e-05
1.18575e-05
1.18566e-05
1.18565e-05
1.18591e-05
1.19331e-05
1.18641e-05
1.18757e-05
1.1916e-05
1.18828e-05
1.1858e-05
1.18809e-05
1.19218e-05
1.18857e-05
1.18878e-05
1.19044e-05
1.18892e-05
1.18793e-05
1.18558e-05
1.18662e-05
1.18707e-05
1.18724e-05
1.18701e-05
1.18897e-05
1.18592e-05
1.18767e-05
1.18904e-05
1.18648e-05
1.18853e-05
1.1857e-05
1.18924e-05
1.18757e-05
1.18772e-05
1.18756e-05
1.18782e-05
1.18696e-05
1.18641e-05
1.18571e-05
1.18661e-05
1.18577e-05
1.18852e-05
1.18565e-05
1.1858e-05
1.18898e-05
1.18604e-05
1.18721e-05
1.18744e-05
1.18777e-05
1.18728e-05
1.18761e-05
1.19035e-05
1.18641e-05
1.1857e-05
1.18553e-05
1.18582e-05
1.1885e-05
1.18565e-05
1.1864e-05
1.18556e-05
1.18928e-05
1.18568e-05
1.18573e-05
1.18613e-05
1.1868e-05
1.18808e-05
1.18557e-05
1.18663e-05
1.18564e-05
1.18564e-05
1.18546e-05
1.1873e-05
1.18718e-05
1.18596e-05
1.18734e-05
1.18681e-05
1.18593e-05
1.18661e-05
1.18592e-05
1.18661e-05
1.18607e-05
1.18667e-05
1.18748e-05
1.18684e-05
1.18746e-05
1.18574e-05
1.18633e-05
1.18777e-05
1.18681e-05
1.18739e-05
1.18666e-05
1.18955e-05
1.18569e-05
1.189e-05
1.19215e-05
1.1931e-05
1.18565e-05
1.18883e-05
1.18563e-05
1.18898e-05
1.18559e-05
1.18577e-05
1.18752e-05
1.18566e-05
1.18851e-05
1.18584e-05
1.18755e-05
1.1876e-05
1.18565e-05
1.18775e-05
1.18757e-05
1.18575e-05
1.18612e-05
1.18571e-05
1.18564e-05
1.18605e-05
1.18566e-05
1.18777e-05
1.18563e-05
1.18821e-05
1.187e-05
1.18681e-05
1.18607e-05
1.1881e-05
1.18589e-05
1.18577e-05
1.18576e-05
1.18619e-05
1.18746e-05
1.18599e-05
1.18612e-05
1.18919e-05
1.18937e-05
1.18868e-05
1.18627e-05
1.189e-05
1.18617e-05
1.18571e-05
1.19025e-05
1.18779e-05
1.18814e-05
1.1911e-05
1.18973e-05
1.1858e-05
1.19427e-05
1.18837e-05
1.1857e-05
1.18895e-05
1.18839e-05
1.18572e-05
1.18715e-05
1.18929e-05
1.18963e-05
1.18928e-05
1.18816e-05
1.19076e-05
1.18632e-05
1.18567e-05
1.18566e-05
1.18715e-05
1.18799e-05
1.18722e-05
1.18684e-05
1.18575e-05
1.1864e-05
1.18647e-05
1.18568e-05
1.1871e-05
1.18569e-05
1.18606e-05
1.18974e-05
1.18581e-05
1.18676e-05
1.18568e-05
1.18753e-05
1.18951e-05
1.18564e-05
1.18822e-05
1.18808e-05
1.18608e-05
1.18566e-05
1.1866e-05
1.18571e-05
1.18736e-05
1.18689e-05
1.18711e-05
1.18716e-05
1.18736e-05
1.18677e-05
1.18561e-05
1.18565e-05
1.18697e-05
1.18583e-05
1.18733e-05
1.18668e-05
1.18783e-05
1.18632e-05
1.18571e-05
1.18575e-05
1.18642e-05
1.18908e-05
1.18866e-05
1.1924e-05
1.18803e-05
1.186e-05
1.18568e-05
1.18759e-05
1.18777e-05
1.18595e-05
1.18747e-05
1.18572e-05
1.18612e-05
1.18865e-05
1.18856e-05
1.18564e-05
1.1859e-05
1.18617e-05
1.18568e-05
1.18697e-05
1.18589e-05
1.19246e-05
1.18575e-05
1.19218e-05
1.19219e-05
1.18634e-05
1.18708e-05
1.18586e-05
1.18884e-05
1.19029e-05
1.18888e-05
1.18631e-05
1.18571e-05
1.18568e-05
1.18633e-05
1.1858e-05
1.1867e-05
1.19287e-05
1.18569e-05
1.18584e-05
1.18811e-05
1.18597e-05
1.19336e-05