/*--------------------------------*- C++ -*----------------------------------*\
  =========                 |
  \\      /  F ield         | OpenFOAM: The Open Source CFD Toolbox
   \\    /   O peration     | Website:  https://openfoam.org
    \\  /    A nd           | Version:  6
     \\/     M anipulation  |
\*---------------------------------------------------------------------------*/
FoamFile
{
    version     2.0;
    format      ascii;
    class       surfaceScalarField;
    location    "2.77";
    object      phi;
}
// * * * * * * * * * * * * * * * * * * * * * * * * * * * * * * * * * * * * * //

dimensions      [0 3 -1 0 0 0 0];

internalField   nonuniform List<scalar> 
8193
(
0.105336
-0.18974
-0.0946153
0.112904
-0.189218
0.11873
-0.186972
0.123217
-0.184497
0.126425
-0.182287
0.128339
-0.180384
0.128877
-0.178733
0.127956
-0.177269
0.12557
-0.175967
0.121817
-0.17484
0.116858
-0.173964
0.110841
-0.173413
0.103951
-0.173346
0.0962636
-0.1739
0.087544
-0.174936
0.077143
-0.175689
0.0643797
-0.175127
0.0483467
-0.170906
0.0292612
-0.161243
0.0101634
-0.14753
-0.00498934
-0.13873
-0.01826
-0.146286
-0.0321705
-0.15644
-0.045553
-0.161496
-0.0579247
-0.165018
-0.0695694
-0.168848
-0.0806048
-0.173036
-0.0909605
-0.177244
-0.10047
-0.181279
-0.108931
-0.185027
-0.116151
-0.188383
-0.121966
-0.191278
-0.12625
-0.193685
-0.128905
-0.195598
-0.129865
-0.19701
-0.1291
-0.197889
-0.126607
-0.198276
-0.122335
-0.198246
-0.116143
-0.19779
-0.10761
-0.196467
-0.192961
-0.0953471
0.120723
-0.191635
-0.114658
0.124249
-0.186374
0.126924
-0.181325
0.128762
-0.176328
0.129652
-0.171778
0.12956
-0.167801
0.128429
-0.164328
0.126255
-0.161344
0.12313
-0.158916
0.119209
-0.157105
0.114622
-0.155951
0.10941
-0.155419
0.103419
-0.155448
0.0962271
-0.155888
0.0871837
-0.156342
0.0758038
-0.156188
0.0610914
-0.153852
0.0426956
-0.147611
0.0225497
-0.137936
0.00462142
-0.128226
-0.00843779
-0.126102
-0.0206423
-0.136312
-0.0341788
-0.146897
-0.0475172
-0.153852
-0.0602597
-0.159579
-0.0725232
-0.165379
-0.0844232
-0.171275
-0.0959045
-0.177073
-0.106755
-0.182711
-0.116734
-0.188076
-0.125575
-0.193069
-0.133041
-0.197569
-0.138937
-0.201489
-0.143107
-0.204772
-0.145441
-0.207354
-0.145864
-0.209167
-0.144377
-0.210176
-0.141051
-0.210399
-0.136039
-0.209758
-0.129271
-0.208063
-0.205417
-0.119287
0.129388
-0.187509
-0.12771
0.129929
-0.179215
0.13005
-0.172088
0.129664
-0.165187
0.128652
-0.158884
0.126973
-0.153393
0.124657
-0.148718
0.121808
-0.144915
0.118579
-0.142093
0.115052
-0.140228
0.111132
-0.139168
0.106562
-0.138699
0.100871
-0.138527
0.0934455
-0.138334
0.0837695
-0.137799
0.0710636
-0.136012
0.054657
-0.131485
0.0358018
-0.124391
0.016977
-0.116406
0.00122485
-0.111465
-0.0105534
-0.115024
-0.0225675
-0.126697
-0.0358888
-0.137636
-0.0492333
-0.146169
-0.062296
-0.153693
-0.075148
-0.161107
-0.0878242
-0.168447
-0.100232
-0.175622
-0.112197
-0.182626
-0.123462
-0.189407
-0.133737
-0.195878
-0.142737
-0.201893
-0.150211
-0.207314
-0.155948
-0.212031
-0.15978
-0.215932
-0.161575
-0.218903
-0.161259
-0.220859
-0.158866
-0.221713
-0.154539
-0.221296
-0.148368
-0.219493
-0.216783
-0.140091
0.13536
-0.178784
-0.136896
0.133486
-0.168567
0.131341
-0.15981
0.128976
-0.151566
0.126354
-0.144134
0.123485
-0.137776
0.120468
-0.132586
0.11747
-0.128685
0.114511
-0.126025
0.11144
-0.1244
0.107946
-0.123485
0.103523
-0.122849
0.097525
-0.122043
0.089344
-0.120768
0.0781707
-0.118478
0.0635227
-0.11457
0.0460829
-0.1087
0.0276978
-0.102182
0.0107486
-0.0972034
-0.00265714
-0.0974059
-0.0133097
-0.105325
-0.0249659
-0.117586
-0.0378453
-0.128858
-0.0509776
-0.138635
-0.0641493
-0.147535
-0.0773761
-0.156208
-0.0906377
-0.1647
-0.103834
-0.172979
-0.116788
-0.181093
-0.129235
-0.189062
-0.140882
-0.196802
-0.151425
-0.204162
-0.160562
-0.210987
-0.168033
-0.217114
-0.173617
-0.222383
-0.177133
-0.226636
-0.178458
-0.229734
-0.177545
-0.231518
-0.174401
-0.23178
-0.169071
-0.230385
-0.22772
-0.161717
0.13801
-0.166389
-0.142128
0.134028
-0.155028
0.130045
-0.145192
0.126162
-0.136186
0.122409
-0.128244
0.118843
-0.121656
0.115618
-0.116616
0.112726
-0.113075
0.109981
-0.110799
0.107044
-0.109419
0.103451
-0.10847
0.0985739
-0.107344
0.0916536
-0.105442
0.0819344
-0.10245
0.0690054
-0.0981516
0.0531443
-0.0926097
0.0357584
-0.0865915
0.0189385
-0.0820756
0.00459765
-0.0810535
-0.00649874
-0.0859985
-0.0163898
-0.0966231
-0.0276424
-0.109005
-0.0399622
-0.120656
-0.0527583
-0.131346
-0.0658828
-0.141232
-0.079307
-0.150822
-0.092972
-0.160175
-0.106764
-0.169293
-0.120504
-0.17827
-0.133951
-0.187166
-0.146813
-0.195934
-0.158778
-0.204426
-0.169538
-0.212468
-0.178784
-0.21989
-0.186242
-0.226487
-0.191681
-0.232056
-0.194927
-0.236402
-0.19587
-0.239309
-0.194442
-0.240539
-0.190603
-0.239947
-0.2378
-0.184456
0.137952
-0.151193
-0.144107
0.132319
-0.13936
0.127059
-0.129083
0.122144
-0.119794
0.117667
-0.111854
0.113758
-0.105595
0.110391
-0.101052
0.10742
-0.0980499
0.104459
-0.0961111
0.101105
-0.0948362
0.0969038
-0.0936972
0.091063
-0.0917371
0.0826479
-0.088196
0.0712261
-0.0832491
0.0569723
-0.0772685
0.0408379
-0.0710781
0.0247092
-0.0663633
0.0103453
-0.064958
-0.001217
-0.0681147
-0.0105154
-0.0767156
-0.0198675
-0.0886763
-0.0305677
-0.101081
-0.0422278
-0.113106
-0.0545843
-0.124381
-0.0675183
-0.134898
-0.0809712
-0.14509
-0.0948601
-0.15502
-0.109056
-0.16472
-0.123384
-0.17431
-0.137624
-0.183881
-0.151513
-0.19341
-0.164749
-0.202775
-0.177017
-0.211802
-0.188001
-0.220315
-0.19738
-0.228104
-0.204873
-0.234926
-0.210252
-0.240533
-0.213345
-0.244664
-0.214025
-0.24704
-0.212203
-0.247502
-0.246232
-0.207891
0.135977
-0.134154
-0.143558
0.129182
-0.122371
0.122962
-0.112084
0.117301
-0.10293
0.112313
-0.0954008
0.107972
-0.0896971
0.104155
-0.0857492
0.10062
-0.0832642
0.0970055
-0.0816352
0.093047
-0.0805529
0.0880695
-0.0790678
0.0808406
-0.0756535
0.0707503
-0.0701597
0.0579144
-0.0634733
0.0431023
-0.0566054
0.0278903
-0.0511726
0.0140107
-0.0490012
0.00245611
-0.0511707
-0.00669488
-0.058005
-0.0147978
-0.0689371
-0.0236478
-0.0814283
-0.0336581
-0.09393
-0.0446201
-0.106225
-0.0564779
-0.117775
-0.0691095
-0.128623
-0.0824423
-0.139135
-0.0963846
-0.149379
-0.110795
-0.159419
-0.125501
-0.169391
-0.140308
-0.179392
-0.15499
-0.189417
-0.169278
-0.199373
-0.182873
-0.209108
-0.195456
-0.218454
-0.206693
-0.227212
-0.216258
-0.235131
-0.223866
-0.241922
-0.22929
-0.247273
-0.23235
-0.250872
-0.232902
-0.252537
-0.252381
-0.230892
0.132814
-0.116006
-0.141436
0.125128
-0.104644
0.118146
-0.094671
0.111868
-0.0859636
0.106254
-0.0789794
0.101208
-0.0738636
0.0965699
-0.0704834
0.0921653
-0.0685295
0.0879806
-0.0675488
0.0834191
-0.0666426
0.077119
-0.0640873
0.0681866
-0.0588143
0.0566731
-0.0516069
0.0431546
-0.0438648
0.0289746
-0.037354
0.0157398
-0.0339418
0.00451393
-0.0348984
-0.00451695
-0.0404128
-0.0119549
-0.0500077
-0.019291
-0.0622145
-0.0275496
-0.0749481
-0.0367963
-0.0876054
-0.0470822
-0.0999705
-0.0584259
-0.111523
-0.0706768
-0.122463
-0.0837758
-0.13305
-0.0976231
-0.143377
-0.11207
-0.153543
-0.126953
-0.163687
-0.142101
-0.173894
-0.157327
-0.184168
-0.172408
-0.194438
-0.187078
-0.204584
-0.201041
-0.214465
-0.213963
-0.223911
-0.225498
-0.232684
-0.235312
-0.240488
-0.24312
-0.246967
-0.248691
-0.251767
-0.251848
-0.254666
-0.25572
-0.252493
0.12874
-0.0973665
-0.138129
0.120369
-0.0866874
0.112741
-0.0772215
0.105793
-0.0690674
0.0994377
-0.0626602
0.0935477
-0.0581119
0.088113
-0.0554054
0.0831263
-0.0542325
0.0781982
-0.0537542
0.0722859
-0.0524126
0.064329
-0.0484588
0.0540611
-0.0416096
0.0418325
-0.0332556
0.0287351
-0.0255275
0.0162354
-0.0205549
0.00543486
-0.0198295
-0.00337878
-0.0237959
-0.0105567
-0.0319935
-0.0169523
-0.0434314
-0.0236856
-0.0563626
-0.0312856
-0.069282
-0.0398262
-0.0820299
-0.0495373
-0.0942225
-0.0603791
-0.105597
-0.0722177
-0.116435
-0.0850092
-0.126892
-0.0986426
-0.137117
-0.112973
-0.147229
-0.127849
-0.157361
-0.143128
-0.167577
-0.158654
-0.177879
-0.174248
-0.188214
-0.189694
-0.198489
-0.204735
-0.208597
-0.219068
-0.21841
-0.23235
-0.227734
-0.244216
-0.236293
-0.254329
-0.243715
-0.262412
-0.249595
-0.268262
-0.253655
-0.255873
-0.27177
0.123863
-0.0788619
-0.133717
0.115035
-0.0690076
0.106945
-0.0601572
0.0994355
-0.0525466
0.0923871
-0.0466562
0.0857566
-0.0426772
0.0796233
-0.040716
0.07375
-0.0401473
0.0675986
-0.0398282
0.0602846
-0.0378497
0.0511521
-0.0326856
0.0401986
-0.0246986
0.0281929
-0.0160424
0.0164423
-0.00937732
0.00603906
-0.00660861
-0.00255773
-0.00858519
-0.00958312
-0.0150477
-0.0155025
-0.0252951
-0.0212266
-0.0378815
-0.0275019
-0.051214
-0.0345366
-0.0643157
-0.0426157
-0.0769398
-0.0518908
-0.088825
-0.0622783
-0.0999333
-0.0737117
-0.110517
-0.0861557
-0.120691
-0.0994875
-0.130677
-0.113579
-0.140588
-0.128297
-0.150552
-0.143522
-0.160608
-0.159125
-0.170756
-0.174962
-0.180947
-0.190866
-0.191109
-0.206632
-0.201163
-0.222013
-0.211023
-0.236702
-0.220555
-0.250339
-0.22954
-0.262553
-0.237626
-0.273019
-0.244372
-0.281512
-0.249416
-0.252632
-0.287931
0.118446
-0.061235
-0.128316
0.109524
-0.0522172
0.101307
-0.0440188
0.0935858
-0.0369215
0.0862032
-0.0314618
0.0791287
-0.0279617
0.0722695
-0.0264675
0.0653574
-0.0261783
0.0579768
-0.0258017
0.0494754
-0.0231889
0.0395328
-0.0171399
0.0285475
-0.00873094
0.0175047
-0.000694689
0.00745326
0.00425198
-0.00106451
0.00471895
-0.00803576
0.000394987
-0.0138519
-0.00804754
-0.0192146
-0.0195889
-0.0246872
-0.0329122
-0.0306616
-0.0465878
-0.0373591
-0.0597997
-0.0450616
-0.0722317
-0.053976
-0.0836875
-0.0640302
-0.0943986
-0.0751319
-0.104627
-0.0872173
-0.114448
-0.100188
-0.124109
-0.113953
-0.133703
-0.128398
-0.14337
-0.143421
-0.153128
-0.15891
-0.162978
-0.174753
-0.172861
-0.190815
-0.182723
-0.206946
-0.192496
-0.222965
-0.202121
-0.238636
-0.211523
-0.253647
-0.220563
-0.267623
-0.228958
-0.280214
-0.236257
-0.291167
-0.242015
-0.245982
-0.300369
0.112947
-0.0453448
-0.12223
0.104509
-0.0371035
0.096712
-0.0295261
0.0893712
-0.0229207
0.082245
-0.0177729
0.0750495
-0.0143668
0.0675292
-0.0127793
0.0595686
-0.0123503
0.0507928
-0.0115266
0.0412458
-0.00857549
0.0310212
-0.00234249
0.0206445
0.00566935
0.0109032
0.0124717
0.00231009
0.0156287
-0.00487714
0.0140128
-0.0110231
0.00794248
-0.0165082
-0.00188639
-0.0216967
-0.0144626
-0.0270924
-0.0283217
-0.0329878
-0.0422374
-0.0396335
-0.0554275
-0.0472311
-0.0676162
-0.0558707
-0.0787105
-0.0655843
-0.0889901
-0.0763624
-0.09875
-0.0881271
-0.108124
-0.10075
-0.117399
-0.114155
-0.126607
-0.128257
-0.135887
-0.142978
-0.14524
-0.158212
-0.154686
-0.173868
-0.164144
-0.189831
-0.173579
-0.206
-0.182906
-0.222256
-0.192081
-0.238444
-0.201069
-0.25434
-0.209802
-0.269619
-0.21811
-0.283949
-0.225556
-0.297041
-0.23167
-0.236119
-0.308708
0.108118
-0.0320491
-0.116162
0.100822
-0.0244932
0.0941282
-0.0174949
0.0877611
-0.0112384
0.0813116
-0.00608337
0.0742813
-0.00222851
0.0663124
0.000106235
0.0574085
0.00121866
0.0473452
0.00289096
0.0369235
0.00583219
0.0267667
0.0113784
0.0172541
0.0182748
0.00844726
0.0238562
0.000915749
0.0251847
-0.00567322
0.0220416
-0.0115928
0.0146923
-0.0171141
0.00383756
-0.0225357
-0.00947661
-0.0282057
-0.0237297
-0.0343158
-0.0378439
-0.0411322
-0.0509555
-0.0488249
-0.062877
-0.0574217
-0.0736495
-0.0669666
-0.0835285
-0.0774368
-0.0928667
-0.0888434
-0.101755
-0.101115
-0.110554
-0.114182
-0.119284
-0.127935
-0.128115
-0.142313
-0.13699
-0.157209
-0.145969
-0.172553
-0.154927
-0.188237
-0.16386
-0.204193
-0.172641
-0.220347
-0.181232
-0.236612
-0.189612
-0.252878
-0.197744
-0.26892
-0.205575
-0.284455
-0.212745
-0.29918
-0.218812
-0.223432
-0.312823
0.104516
-0.0220174
-0.110807
0.0989634
-0.0151083
0.0939651
-0.00860658
0.0891072
-0.00247401
0.0836602
0.00323995
0.0770354
0.00819149
0.0686512
0.012151
0.0587874
0.014554
0.0481914
0.0167156
0.0374144
0.0195427
0.0272746
0.0241079
0.0182486
0.0295013
0.0101321
0.0337441
0.00289884
0.0337255
-0.00354008
0.0292952
-0.00966086
0.0211122
-0.0156403
0.00958396
-0.0216605
-0.00423146
-0.0279423
-0.0187684
-0.0345476
-0.0331013
-0.0417481
-0.0461496
-0.0496887
-0.0578456
-0.0583744
-0.0683625
-0.0679276
-0.0778309
-0.0782217
-0.0868444
-0.0893709
-0.0952443
-0.10129
-0.103582
-0.114022
-0.111742
-0.127442
-0.120052
-0.141492
-0.128379
-0.15604
-0.136854
-0.171033
-0.145262
-0.186359
-0.153655
-0.20196
-0.161852
-0.217786
-0.169802
-0.233807
-0.17747
-0.249988
-0.184828
-0.266223
-0.191901
-0.282299
-0.198449
-0.297927
-0.204118
-0.208629
-0.312771
0.102277
-0.0158024
-0.106361
0.0989171
-0.00946865
0.095907
-0.00320136
0.0930259
0.00287894
0.0886544
0.0101159
0.0829108
0.0164241
0.0744583
0.0230271
0.0641175
0.0272017
0.0528839
0.0300889
0.0419177
0.0324326
0.0320438
0.035643
0.0230631
0.0398388
0.0150649
0.0427564
0.00771505
0.0417142
0.000945841
0.0363004
-0.00562443
0.0274939
-0.0122558
0.0155866
-0.0190701
0.00150406
-0.026211
-0.0131598
-0.0336436
-0.0276518
-0.0413865
-0.0408314
-0.0498318
-0.0522505
-0.0586282
-0.0628187
-0.0683243
-0.0717596
-0.0785205
-0.0806069
-0.0895975
-0.0884136
-0.101254
-0.0964051
-0.11374
-0.103907
-0.126819
-0.111722
-0.140583
-0.119386
-0.15484
-0.127304
-0.169511
-0.135143
-0.184532
-0.142934
-0.199756
-0.150579
-0.215226
-0.157836
-0.230801
-0.164856
-0.246578
-0.171379
-0.262421
-0.177668
-0.278324
-0.183368
-0.293881
-0.188535
-0.19272
-0.308873
0.100446
-0.0134968
-0.10227
0.0995587
-0.00787554
0.0987341
-0.0014803
0.0982995
0.00436152
0.0946012
0.0149699
0.0907825
0.0214593
0.0822093
0.0328287
0.072648
0.0379533
0.0606984
0.0431419
0.0495043
0.0445956
0.0383575
0.0475796
0.0295022
0.0492638
0.0214726
0.0510985
0.0142879
0.0489224
0.00720722
0.0430887
3.83198e-05
0.0340332
-0.00717007
0.0218123
-0.0149503
0.00793859
-0.0227537
-0.0070692
-0.0315091
-0.0209744
-0.0396422
-0.0351336
-0.0491204
-0.0455502
-0.0579764
-0.0570619
-0.0681563
-0.0649722
-0.0782224
-0.0741907
-0.0894454
-0.0810545
-0.100859
-0.0890184
-0.113262
-0.0956336
-0.126102
-0.103048
-0.139627
-0.10999
-0.153753
-0.117188
-0.168138
-0.124563
-0.183124
-0.131459
-0.197959
-0.138865
-0.213306
-0.145129
-0.228199
-0.152031
-0.243585
-0.157403
-0.258302
-0.163627
-0.273594
-0.167949
-0.287581
-0.173561
-0.176529
-0.301888
0.0970814
-0.0974263
0.0987783
0.0989759
0.101405
0.0989175
0.0978827
0.0894585
0.0814392
0.069186
0.0575829
0.0458312
0.0371774
0.0285129
0.0219748
0.014861
0.00676921
8.9278e-05
-0.00993943
-0.016789
-0.0277991
-0.035904
-0.0470824
-0.0559626
-0.0670655
-0.0769631
-0.0886097
-0.0998736
-0.112351
-0.125152
-0.138498
-0.152771
-0.166908
-0.182171
-0.196667
-0.212212
-0.226359
-0.241484
-0.254458
-0.268579
-0.279542
-0.29199
0.153734
-0.268507
0.134882
-0.280353
0.116487
-0.288713
0.0976713
-0.293058
0.0785017
-0.293552
0.05949
-0.290296
0.0413554
-0.283422
0.0249106
-0.273136
0.010904
-0.259738
-0.000109704
-0.243636
-0.00781951
-0.225377
-0.0122019
-0.205602
-0.0135867
-0.184932
-0.0123409
-0.164473
-0.00909335
-0.144398
-0.00334203
-0.125568
-0.0986309
0.155061
-0.247324
0.137207
-0.259142
0.118947
-0.267883
0.100478
-0.272768
0.0820548
-0.274003
0.0640129
-0.271747
0.0467902
-0.266223
0.0309163
-0.257715
0.0169687
-0.246561
0.00548782
-0.233125
-0.00312451
-0.217814
-0.00866563
-0.201069
-0.0112047
-0.183244
-0.0111199
-0.165145
-0.00878025
-0.146966
-0.00450702
-0.129627
-0.102417
0.158864
-0.223384
0.139914
-0.23632
0.121233
-0.245998
0.102924
-0.251897
0.0850855
-0.2542
0.0679127
-0.253151
0.0516486
-0.249008
0.0365981
-0.242105
0.023113
-0.232819
0.0116116
-0.221572
0.00247018
-0.208727
-0.00402665
-0.194631
-0.00773817
-0.179497
-0.00883203
-0.163824
-0.00749056
-0.147799
-0.00428193
-0.131968
-0.105403
0.157894
-0.202484
0.140502
-0.214699
0.122513
-0.224338
0.104628
-0.230881
0.0872949
-0.234246
0.0708019
-0.234505
0.0553653
-0.231832
0.0411661
-0.226517
0.0283921
-0.218937
0.0172493
-0.209525
0.00800678
-0.198702
0.000916258
-0.186796
-0.00379759
-0.17399
-0.00612029
-0.160577
-0.00600872
-0.146775
-0.00392499
-0.132629
-0.107552
0.158674
-0.180728
0.141234
-0.192813
0.123538
-0.202657
0.105975
-0.209782
0.0889789
-0.214142
0.0729292
-0.215744
0.058081
-0.214631
0.04458
-0.210973
0.03252
-0.205089
0.0219606
-0.197373
0.0129914
-0.188269
0.00574027
-0.17814
0.000378989
-0.167213
-0.00296044
-0.155739
-0.00412627
-0.143957
-0.00322302
-0.131658
-0.108614
0.154661
-0.162094
0.139379
-0.172996
0.123058
-0.182174
0.106434
-0.189364
0.0900936
-0.194362
0.0745046
-0.197048
0.0600535
-0.197376
0.0469893
-0.195375
0.0354258
-0.191219
0.0253935
-0.185215
0.0168409
-0.17772
0.00975097
-0.169127
0.00415918
-0.159714
0.000160216
-0.149788
-0.00206589
-0.139673
-0.00233524
-0.129165
-0.108502
0.151731
-0.144151
0.137328
-0.154076
0.122078
-0.162704
0.106433
-0.169794
0.0908437
-0.175136
0.0757689
-0.17861
0.0616256
-0.180125
0.048765
-0.179636
0.0374103
-0.177186
0.0276315
-0.172922
0.0193878
-0.167087
0.0125459
-0.159977
0.00702317
-0.151917
0.00277583
-0.143251
-8.41422e-05
-0.134458
-0.00131967
-0.125457
-0.107181
0.144647
-0.128794
0.132488
-0.137507
0.119212
-0.145248
0.105149
-0.151785
0.0907558
-0.157025
0.0765361
-0.160895
0.0629137
-0.163217
0.0502802
-0.16391
0.038964
-0.162949
0.0291739
-0.160358
0.0209563
-0.156212
0.0142279
-0.150675
0.00884493
-0.144007
0.00467154
-0.13656
0.00163049
-0.128866
-0.000279625
-0.12092
-0.104713
0.138603
-0.114868
0.127779
-0.12245
0.115853
-0.129262
0.103191
-0.135242
0.0901177
-0.140248
0.0769316
-0.144182
0.0640286
-0.146957
0.0517855
-0.148471
0.0405585
-0.148671
0.0306467
-0.147524
0.0222397
-0.14499
0.0153748
-0.141079
0.0099825
-0.13594
0.0059044
-0.129833
0.00294002
-0.123246
0.000694556
-0.115978
-0.101244
0.129695
-0.103066
0.120726
-0.109473
0.110725
-0.11538
0.099859
-0.120626
0.088379
-0.125154
0.0765735
-0.1289
0.0647318
-0.131774
0.0532167
-0.133745
0.0423707
-0.134737
0.0325108
-0.134688
0.0239036
-0.133505
0.0167425
-0.131122
0.0110982
-0.127562
0.00691806
-0.122959
0.00394335
-0.117593
0.0015248
-0.11087
-0.0969903
0.121406
-0.0927804
0.113849
-0.0981659
0.105279
-0.103146
0.0959079
-0.107685
0.0859169
-0.111694
0.0755163
-0.115135
0.0649522
-0.117952
0.0544573
-0.120097
0.0443061
-0.121536
0.0347892
-0.122218
0.0261817
-0.122034
0.0187479
-0.120903
0.0127087
-0.118805
0.00814781
-0.115732
0.00487119
-0.111684
0.00219194
-0.105573
-0.092175
0.111689
-0.084133
0.105547
-0.0885471
0.0985323
-0.0927094
0.0907448
-0.096539
0.0823377
-0.1
0.0734647
-0.103053
0.0642996
-0.10566
0.0550378
-0.107793
0.0458803
-0.109422
0.037025
-0.110492
0.0287166
-0.110937
0.0212367
-0.110713
0.0148344
-0.109763
0.0097243
-0.108043
0.00584311
-0.105276
0.00270755
-0.0999488
-0.0870018
0.102463
-0.0767563
0.0974896
-0.0803716
0.0917163
-0.0837642
0.0852466
-0.0869373
0.0781923
-0.0898626
0.0706769
-0.092511
0.0628334
-0.0948535
0.0547893
-0.0968557
0.0466707
-0.0984838
0.0386335
-0.0997109
0.0308763
-0.100514
0.0236235
-0.100871
0.0170899
-0.100715
0.0114701
-0.0999812
0.00684577
-0.0982756
0.00312121
-0.0939077
-0.081615
0.0928332
-0.0705997
0.088867
-0.0734698
0.0842458
-0.0762185
0.0790183
-0.0788071
0.0732548
-0.0812286
0.0670348
-0.0834619
0.0604384
-0.0854782
0.0535503
-0.0872468
0.0464659
-0.0887431
0.039298
-0.0899572
0.0321857
-0.090891
0.0253005
-0.0915536
0.0188418
-0.091905
0.0129731
-0.0918429
0.00778123
-0.0908956
0.00345303
-0.0874711
-0.0761303
0.0837343
-0.0654454
0.0806585
-0.0677063
0.0769758
-0.0698462
0.0727578
-0.0719089
0.0680599
-0.073871
0.0629246
-0.075698
0.0573959
-0.0773624
0.0515313
-0.0788459
0.0454042
-0.0801397
0.039099
-0.0812439
0.0327028
-0.0821624
0.0263091
-0.0829097
0.020055
-0.0834888
0.0141178
-0.0838363
0.00863414
-0.0834393
0.00381008
-0.0807739
-0.0705483
0.0748855
-0.0611897
0.0725111
-0.0628679
0.0696653
-0.0645261
0.0663536
-0.0661248
0.0625854
-0.067644
0.0583808
-0.0690603
0.0537731
-0.0703585
0.04881
-0.0715348
0.0435487
-0.0725893
0.0380463
-0.0735218
0.0323575
-0.0743329
0.026532
-0.0750322
0.0206295
-0.0756313
0.014781
-0.0761381
0.00923807
-0.0761592
0.00410037
-0.0740183
-0.0649552
0.0666812
-0.0576871
0.0649885
-0.0589062
0.0628316
-0.0600862
0.060237
-0.0612459
0.057213
-0.0623471
0.0537698
-0.0633683
0.0499341
-0.0643108
0.045742
-0.06518
0.0412299
-0.0659762
0.0364324
-0.066697
0.0313853
-0.0673442
0.0261261
-0.0679286
0.0206961
-0.0684653
0.0151243
-0.0689494
0.00958777
-0.0691353
0.0042838
-0.0673662
-0.0594718
0.0591048
-0.0548767
0.0579381
-0.0556349
0.0563872
-0.0564168
0.054424
-0.0571637
0.0520405
-0.0578579
0.0492543
-0.0585031
0.0460892
-0.0591072
0.042566
-0.0596725
0.0387039
-0.0601977
0.0345237
-0.060682
0.0300504
-0.0611311
0.0253105
-0.0615573
0.0203285
-0.0619735
0.0151018
-0.0623475
0.00965806
-0.0624636
0.00435941
-0.0609992
-0.0542156
0.0522602
-0.0526224
0.051616
-0.053019
0.050572
-0.0533914
0.0491232
-0.0537376
0.0472797
-0.0540557
0.0450558
-0.0543537
0.0424614
-0.0546352
0.0395046
-0.0549007
0.0361948
-0.0551503
0.0325451
-0.0553872
0.0285719
-0.0556201
0.0242897
-0.0558594
0.0197013
-0.0561063
0.0147902
-0.056309
0.00955736
-0.0562691
0.00438699
-0.0550473
-0.0492412
0.0462073
-0.0509133
0.0459657
-0.0509083
0.0453576
-0.0509117
0.0443688
-0.0508898
0.0430013
-0.0508569
0.0412617
-0.0508259
0.0391534
-0.0507975
0.0366779
-0.0507703
0.0338397
-0.0507474
0.0306464
-0.0507355
0.0271063
-0.0507436
0.0232223
-0.050777
0.0189844
-0.0508238
0.0143773
-0.0508267
0.00941782
-0.0506195
0.00441126
-0.049551
-0.0445557
0.0408925
-0.0495922
0.0410571
-0.0492773
0.0408276
-0.0488952
0.0402262
-0.0485258
0.0392656
-0.0481741
0.0379391
-0.0478339
0.0362431
-0.0475091
0.0341784
-0.0472028
0.0317471
-0.0469195
0.0289521
-0.0466666
0.0257938
-0.0464506
0.0222652
-0.0462695
0.0183499
-0.0461017
0.0140338
-0.0458921
0.00933707
-0.0455085
0.00445697
-0.0444766
-0.0401399
0.0363556
-0.0487069
0.0368179
-0.0479913
0.0369152
-0.0472673
0.0366609
-0.0465863
0.0360454
-0.0459302
0.0350631
-0.0452969
0.0337138
-0.0446958
0.0319965
-0.0441294
0.0299107
-0.0436025
0.0274548
-0.0431212
0.0246216
-0.0426865
0.0213968
-0.0422889
0.0177617
-0.0419021
0.0137044
-0.0414778
0.00923618
-0.0409062
0.00445627
-0.0398009
-0.0360407
0.0324322
-0.0480063
0.0332152
-0.0470498
0.0336041
-0.0459734
0.0336293
-0.0449881
0.0332979
-0.0440521
0.0326004
-0.0431471
0.0315343
-0.0422893
0.0300997
-0.0414836
0.028294
-0.0407319
0.0261101
-0.0400354
0.0235352
-0.0393894
0.0205518
-0.0387789
0.0171439
-0.0381786
0.0133058
-0.0375502
0.00904203
-0.0367933
0.00439495
-0.0355586
-0.0323174
0.0291987
-0.0477122
0.0301947
-0.0463254
0.0308238
-0.0449466
0.0310862
-0.0436773
0.030976
-0.0424695
0.0304978
-0.0413153
0.029651
-0.0402253
0.0284324
-0.0392013
0.0268364
-0.0382424
0.0248526
-0.0373446
0.0224668
-0.0364986
0.0196649
-0.0356884
0.0164388
-0.0348946
0.012792
-0.0340888
0.00873417
-0.0331764
0.0042918
-0.0318234
-0.0290088
0.0264774
-0.0473534
0.0276866
-0.0458024
0.0285145
-0.0441341
0.0289573
-0.0425904
0.0290244
-0.041136
0.0287145
-0.0397517
0.028028
-0.0384495
0.0269618
-0.0372268
0.0255093
-0.0360781
0.0236611
-0.034996
0.0214078
-0.0339698
0.0187435
-0.0329861
0.0156701
-0.032032
0.0121981
-0.0310861
0.00834425
-0.0300586
0.00415099
-0.0286401
-0.0261468
0.0242874
-0.0474433
0.0256683
-0.0454279
0.0266564
-0.043491
0.0272397
-0.041686
0.0274273
-0.0399976
0.0272285
-0.0384064
0.0266424
-0.0369127
0.0256666
-0.0355112
0.0242969
-0.0341938
0.02253
-0.0329519
0.0203646
-0.0317755
0.0178043
-0.0306543
0.0148599
-0.0295807
0.0115481
-0.0285375
0.00789117
-0.0274384
0.00395157
-0.026012
-0.0237806
0.0225571
-0.0472819
0.0240553
-0.0451406
0.025152
-0.0429647
0.0258328
-0.0409254
0.0261014
-0.0390244
0.0259649
-0.037244
0.025427
-0.0355797
0.0244886
-0.0340217
0.0231511
-0.0325603
0.0214185
-0.0311874
0.0192988
-0.0298947
0.0168059
-0.0286755
0.013962
-0.0275283
0.0107948
-0.0264383
0.00733681
-0.0253221
0.00367621
-0.0239606
-0.0219728
0.0211911
-0.0475604
0.0228302
-0.0449626
0.0239986
-0.0425232
0.024721
-0.0402634
0.0250106
-0.0381723
0.0248777
-0.0362265
0.0243287
-0.0344156
0.0233697
-0.0327268
0.0220096
-0.0311506
0.0202618
-0.0296806
0.0181449
-0.0283105
0.0156854
-0.0270387
0.0129196
-0.0258702
0.00989131
-0.0247943
0.00665376
-0.0237339
0.00331887
-0.0225255
-0.0207861
0.0202126
-0.0474973
0.021876
-0.0447818
0.023075
-0.0421368
0.0238051
-0.0396844
0.0240759
-0.0374251
0.0239005
-0.0353361
0.0232914
-0.0334029
0.0222622
-0.0316106
0.0208311
-0.0299508
0.0190227
-0.0284194
0.0168688
-0.0270138
0.0144116
-0.0257386
0.0117077
-0.0246095
0.00881691
-0.0236148
0.00582186
-0.0226967
0.00285779
-0.0217402
-0.0202989
0.0194113
-0.0478069
0.0211645
-0.0446742
0.0223668
-0.0417967
0.0230556
-0.0391649
0.0232559
-0.0367628
0.022986
-0.0345573
0.0222642
-0.0325289
0.0211123
-0.0306623
0.0195595
-0.0289514
0.0176435
-0.027396
0.015412
-0.0259989
0.0129307
-0.0247775
0.0102744
-0.0237521
0.00752763
-0.0229162
0.00480708
-0.0222397
0.00227328
-0.0216472
-0.0206016
0.0189327
-0.0477529
0.0206379
-0.0445197
0.0217912
-0.0414771
0.0224033
-0.0387036
0.0224929
-0.0361859
0.0220821
-0.033889
0.021197
-0.0317916
0.0198707
-0.0298796
0.0181456
-0.0281502
0.0160739
-0.0266074
0.0137245
-0.0252645
0.0111837
-0.024151
0.00855623
-0.0232998
0.00596514
-0.0227181
0.00356227
-0.0223992
0.00154282
-0.0223072
-0.021799
0.0184994
-0.0480106
0.020243
-0.0444296
0.0213361
-0.0412014
0.0218321
-0.0383041
0.0217628
-0.035696
0.0211588
-0.0333336
0.0200543
-0.031192
0.0184935
-0.02926
0.0165331
-0.0275396
0.0142469
-0.0260451
0.0117282
-0.0248023
0.00909519
-0.0238589
0.0064906
-0.0232668
0.00407906
-0.0230491
0.00205319
-0.0232227
0.000646261
-0.0237881
-0.0240074
0.0183426
-0.0479507
0.0199838
-0.0442961
0.0209695
-0.0409656
0.0213071
-0.0379764
0.0210307
-0.035304
0.0201755
-0.0328973
0.0187861
-0.0307312
0.0169201
-0.0287985
0.0146545
-0.027112
0.0120881
-0.025699
0.00934819
-0.0246062
0.00659355
-0.0239055
0.00401209
-0.0236716
0.00181684
-0.0239474
0.000246286
-0.0247707
-0.000426413
-0.0261736
-0.0273443
0.0181739
-0.0481713
0.0198221
-0.044269
0.0206716
-0.0407929
0.020805
-0.0377362
0.0202632
-0.0350208
0.0190898
-0.0325865
0.0173402
-0.030409
0.0150897
-0.0284895
0.0124389
-0.0268558
0.00952134
-0.0255582
0.00650863
-0.024673
0.00360896
-0.0243008
0.00106351
-0.0245432
-0.000860191
-0.0254646
-0.00187552
-0.0271187
-0.00167401
-0.0295577
-0.0319174
0.0182193
-0.0481796
0.019722
-0.0442441
0.0204027
-0.0407111
0.0202876
-0.0376097
0.0194204
-0.0348643
0.0178534
-0.0324088
0.0156581
-0.0302236
0.0129322
-0.028323
0.00980762
-0.0267565
0.00646502
-0.0256124
0.00313072
-0.0250032
7.26331e-05
-0.0250635
-0.00240686
-0.0259239
-0.00398169
-0.0276688
-0.00431989
-0.0303567
-0.00309211
-0.0340384
-0.0378219
0.0182432
-0.0484852
0.0196824
-0.0443583
0.0201492
-0.0407431
0.0197248
-0.0376151
0.0184564
-0.0348457
0.0164071
-0.0323663
0.0136689
-0.0301689
0.0103644
-0.0282826
0.00667294
-0.0267995
0.00283216
-0.0258541
-0.000864895
-0.0256048
-0.00407991
-0.0262245
-0.00644281
-0.0278714
-0.00756906
-0.0306434
-0.00708942
-0.0345857
-0.00467187
-0.0397168
-0.0451375
0.018351
-0.0487143
0.0196376
-0.0445832
0.0198565
-0.0409297
0.0190621
-0.0377779
0.0173103
-0.0349768
0.0146821
-0.0324606
0.0112908
-0.0302322
0.00730084
-0.0283535
0.00294871
-0.0269725
-0.0014579
-0.0262821
-0.00554601
-0.0264969
-0.00889562
-0.0278312
-0.0110648
-0.0304638
-0.0116173
-0.0344895
-0.0101623
-0.039915
-0.00638781
-0.0466904
-0.0539132
0.0184217
-0.0493028
0.0195586
-0.0449864
0.0194742
-0.0412948
0.0182367
-0.0381165
0.0159094
-0.0352655
0.0125934
-0.0326862
0.00842824
-0.0303946
0.00363522
-0.0285127
-0.00147797
-0.0272572
-0.00651672
-0.0268948
-0.0110126
-0.0277058
-0.0144537
-0.0299453
-0.0163257
-0.0337972
-0.0161511
-0.0393272
-0.0135371
-0.0464711
-0.00823356
-0.0550545
-0.0641881
0.0183979
-0.0499418
0.0193576
-0.0456069
0.0189249
-0.0418756
0.0171654
-0.0386468
0.0141558
-0.0357083
0.0100202
-0.033018
0.00494631
-0.0306253
-0.000776655
-0.0287288
-0.00675062
-0.0276347
-0.0124746
-0.0277001
-0.0173704
-0.0292765
-0.0208288
-0.0326514
-0.0222648
-0.0379932
-0.0211768
-0.0452995
-0.0172022
-0.0543897
-0.0101916
-0.0649043
-0.0759831
0.0181927
-0.0510447
0.018946
-0.0464811
0.0180989
-0.0426881
0.0157304
-0.0393772
0.0119345
-0.0363055
0.00685788
-0.0334418
0.000754586
-0.0309074
-0.00600308
-0.0289904
-0.012908
-0.0281116
-0.0193363
-0.0287333
-0.0245865
-0.0312826
-0.0279475
-0.0360638
-0.0287638
-0.0432066
-0.0265312
-0.0525831
-0.0209726
-0.0638192
-0.0120974
-0.0763097
-0.0891564
-0.222125
-0.125216
0.230581
-0.213206
-0.141489
-0.20312
-0.157898
-0.192675
-0.174044
-0.181128
-0.189585
-0.169404
-0.204086
-0.15675
-0.217197
-0.144161
-0.228587
-0.130881
-0.237958
-0.117908
-0.245135
-0.104504
-0.24995
-0.0915807
-0.252392
-0.078667
-0.25226
-0.0663341
-0.249964
-0.0543522
-0.245381
-0.0429871
-0.238871
-0.0323167
-0.230482
-0.0223189
-0.220416
-0.0131575
-0.208895
-0.00470414
-0.196078
0.00283112
-0.182342
0.00960305
-0.167693
0.015513
-0.15252
0.0206516
-0.136923
0.0250323
-0.121205
0.0286808
-0.105603
0.0317013
-0.0903214
0.0340756
-0.0756584
0.0359987
-0.0617663
0.0373997
-0.0488829
0.0385346
-0.0371242
0.0393105
-0.0266304
0.0400231
-0.017458
0.0405562
-0.00963712
0.0412443
-0.00314956
0.0419296
0.00207512
0.0429817
0.00612459
0.0442103
0.0091054
0.046034
0.0111726
0.0481609
0.0124792
0.0131617
-0.198609
-0.133439
0.204947
-0.191335
-0.149749
-0.183179
-0.166181
-0.17418
-0.182368
-0.164425
-0.197929
-0.15401
-0.212433
-0.143032
-0.225534
-0.131642
-0.236856
-0.119927
-0.246164
-0.108048
-0.253208
-0.0960801
-0.257908
-0.0842355
-0.260108
-0.0725268
-0.259802
-0.0611907
-0.25717
-0.0502261
-0.252319
-0.0397928
-0.24544
-0.0299377
-0.236688
-0.0207285
-0.226233
-0.0122204
-0.214303
-0.00442493
-0.201095
0.00258803
-0.18692
0.00886537
-0.171892
0.014374
-0.156316
0.0191605
-0.140364
0.0232458
-0.124307
0.0266649
-0.108393
0.0294831
-0.0928473
0.0317413
-0.07794
0.0335239
-0.0638614
0.0348827
-0.0508113
0.0359121
-0.0389433
0.036682
-0.0283692
0.0372872
-0.0191666
0.0378128
-0.0113531
0.038351
-0.00491599
0.0389898
0.000219882
0.0398163
0.00414234
0.0409118
0.00696194
0.0423478
0.00884012