/*--------------------------------*- C++ -*----------------------------------*\
  =========                 |
  \\      /  F ield         | OpenFOAM: The Open Source CFD Toolbox
   \\    /   O peration     | Website:  https://openfoam.org
    \\  /    A nd           | Version:  6
     \\/     M anipulation  |
\*---------------------------------------------------------------------------*/
FoamFile
{
    version     2.0;
    format      ascii;
    class       surfaceVectorField;
    location    "2.77";
    object      Uf;
}
// * * * * * * * * * * * * * * * * * * * * * * * * * * * * * * * * * * * * * //

dimensions      [0 1 -1 0 0 0 0];

internalField   nonuniform List<vector> 
8193
(
(5.04076 -0.0599087 -2.05562e-18)
(5.11991 -0.0787651 -1.94152e-19)
(4.84198 -0.115884 2.34663e-19)
(5.12842 -0.0138505 1.07987e-18)
(5.19228 -0.0249392 2.31471e-19)
(5.16217 0.0386244 -9.53742e-19)
(5.21694 0.0304296 -2.0304e-19)
(5.18386 0.0889269 5.44594e-20)
(5.23198 0.0752965 -9.97123e-21)
(5.20357 0.136137 0)
(5.24888 0.118408 6.55082e-20)
(5.22289 0.181382 3.17778e-20)
(5.26755 0.16285 1.49695e-22)
(5.24131 0.224631 5.96148e-19)
(5.28553 0.206595 3.26632e-20)
(5.25666 0.266106 -3.1943e-20)
(5.30027 0.248918 -3.20817e-20)
(5.26655 0.30728 0)
(5.31047 0.291297 0)
(5.27047 0.350538 5.5879e-22)
(5.31614 0.336206 0)
(5.27043 0.398029 1.67048e-20)
(5.31939 0.386035 -3.24565e-20)
(5.26943 0.450937 1.39537e-19)
(5.32247 0.442692 7.22112e-21)
(5.27319 0.510518 -1.60726e-20)
(5.33027 0.507128 -1.04098e-20)
(5.28846 0.575456 -9.55634e-21)
(5.34716 0.576474 8.36847e-22)
(5.3126 0.6397 3.42054e-21)
(5.36932 0.642271 -1.88331e-20)
(5.32836 0.686795 8.81371e-21)
(5.37465 0.693626 2.20928e-20)
(5.29442 0.697124 -8.55641e-21)
(5.33241 0.70957 -4.81036e-20)
(5.14057 0.629881 8.96604e-20)
(5.17292 0.657087 1.16081e-20)
(4.81122 0.448876 -4.25026e-20)
(4.8421 0.490833 -2.188e-20)
(4.39847 0.19466 7.4191e-21)
(4.38166 0.214085 2.07032e-20)
(4.25296 0.0131305 0)
(4.06245 -0.0284189 0)
(4.42681 -0.0807956 -7.63912e-21)
(4.22679 -0.107491 2.1407e-20)
(4.58442 -0.184992 1.40637e-19)
(4.46493 -0.190294 -7.48732e-21)
(4.63152 -0.293663 6.32038e-21)
(4.55158 -0.300822 1.67236e-20)
(4.66377 -0.372042 5.67405e-21)
(4.59398 -0.386919 1.61761e-20)
(4.71544 -0.417153 -1.41096e-19)
(4.64695 -0.435289 -2.05113e-20)
(4.77743 -0.438947 -6.42023e-21)
(4.7118 -0.45904 -9.64918e-22)
(4.83968 -0.445503 0)
(4.77894 -0.467641 0)
(4.89709 -0.440425 -7.81875e-23)
(4.84325 -0.466124 0)
(4.94687 -0.425258 8.52021e-21)
(4.90217 -0.455548 -1.09656e-20)
(4.9877 -0.401453 -2.93335e-19)
(4.9535 -0.436466 1.85268e-20)
(5.01961 -0.37036 -3.93789e-19)
(4.99619 -0.409878 3.64747e-21)
(5.04348 -0.333243 4.26308e-19)
(5.03046 -0.37675 -3.05519e-20)
(5.06027 -0.291306 -4.28219e-19)
(5.05721 -0.337949 3.11605e-20)
(5.07069 -0.245781 -5.1994e-19)
(5.07724 -0.294437 2.55507e-20)
(5.0756 -0.197366 -1.49538e-20)
(5.09075 -0.24718 -2.79453e-20)
(5.07584 -0.146114 3.28564e-21)
(5.09982 -0.197305 -2.46767e-21)
(5.06961 -0.0906957 3.13939e-20)
(5.10735 -0.146038 -3.23836e-20)
(5.04768 -0.0313734 -6.96875e-19)
(5.11362 -0.0922668 1.71457e-19)
(4.97256 0.0234463 2.25889e-18)
(5.1068 -0.0298921 -7.09042e-20)
(5.05223 0.0388173 -3.11881e-19)
(4.78106 0.0881334 -3.2644e-20)
(5.23775 -0.00625055 8.33925e-20)
(5.21937 -0.0357272 5.92233e-20)
(5.18292 -0.0732743 2.46004e-19)
(5.2537 0.0364094 5.04238e-19)
(5.2453 0.00999463 -2.99526e-20)
(5.26799 0.0791183 -1.4372e-19)
(5.27001 0.0615065 -7.86977e-20)
(5.28535 0.120555 -4.64702e-19)
(5.28694 0.099092 -1.78124e-19)
(5.3029 0.160824 6.63057e-20)
(5.30356 0.135835 8.02402e-20)
(5.31925 0.200726 -8.53498e-22)
(5.32149 0.176036 1.03592e-19)
(5.33261 0.240543 -9.96439e-22)
(5.33754 0.216749 -5.72081e-21)
(5.34188 0.281195 0)
(5.35039 0.257507 7.51015e-20)
(5.34782 0.324848 0)
(5.36146 0.301101 -7.16823e-20)
(5.35266 0.374489 -1.30331e-20)
(5.3726 0.350961 0)
(5.35919 0.432687 4.11089e-20)
(5.38553 0.409577 -2.89205e-20)
(5.37006 0.500277 5.96157e-20)
(5.40001 0.47785 5.13061e-20)
(5.38648 0.573617 6.35589e-21)
(5.41497 0.55349 5.50842e-21)
(5.40379 0.643302 -8.61632e-21)
(5.426 0.626959 -3.23367e-20)
(5.40455 0.694625 -1.2344e-19)
(5.42028 0.682478 5.92853e-20)
(5.35925 0.714411 5.25945e-20)
(5.37797 0.710118 1.19719e-20)
(5.20509 0.66827 -5.63947e-20)
(5.24746 0.678424 -3.67616e-22)
(4.89002 0.513464 -3.91687e-21)
(4.97111 0.549753 -7.63872e-21)
(4.45672 0.253037 4.43674e-21)
(4.56324 0.31406 -1.00285e-19)
(4.10067 -0.0166022 1.29893e-20)
(4.13758 0.0185588 1.90437e-19)
(4.08267 -0.146993 2.14059e-20)
(3.95273 -0.176595 0)
(4.29753 -0.207008 2.09662e-20)
(4.16483 -0.221533 1.00364e-19)
(4.45729 -0.298006 8.80114e-21)
(4.38177 -0.299357 2.89619e-20)
(4.53094 -0.384948 -6.56054e-20)
(4.48093 -0.389704 -8.56519e-21)
(4.58865 -0.443645 -1.3783e-20)
(4.54211 -0.456203 1.05545e-20)
(4.65315 -0.473219 6.93203e-20)
(4.60736 -0.489977 -6.28989e-21)
(4.72142 -0.485653 5.44453e-21)
(4.67715 -0.503374 5.43316e-21)
(4.78985 -0.488618 0)
(4.74583 -0.505368 -2.32377e-21)
(4.85527 -0.483405 -1.01048e-20)
(4.81242 -0.501184 2.31782e-21)
(4.91558 -0.470475 9.44991e-20)
(4.87492 -0.490813 -1.01893e-20)
(4.96836 -0.449994 9.50668e-21)
(4.93197 -0.473544 1.09451e-20)
(5.01266 -0.42252 -4.43803e-21)
(4.98175 -0.449713 -4.32073e-20)
(5.04876 -0.388709 -4.60761e-21)
(5.02377 -0.419711 -5.45197e-21)
(5.07743 -0.349303 2.9202e-21)
(5.05847 -0.383913 4.46564e-20)
(5.09945 -0.305429 -6.92356e-21)
(5.08632 -0.342867 2.9719e-21)
(5.11524 -0.258234 2.05847e-20)
(5.10756 -0.297432 -1.24213e-20)
(5.12619 -0.208868 -2.51542e-19)
(5.12344 -0.249133 1.20761e-19)
(5.13458 -0.157979 -6.39726e-20)
(5.1365 -0.200069 -1.18233e-19)
(5.14432 -0.105939 2.49439e-19)
(5.1461 -0.150109 -1.27663e-19)
(5.15111 -0.0504057 5.36839e-20)
(5.14763 -0.0938406 2.04249e-19)
(5.14423 -0.0316055 -9.04929e-21)
(5.11542 0.0309357 -2.45926e-19)
(5.2711 0.0192074 1.65435e-18)
(5.27603 -0.00937284 -7.55975e-20)
(5.26178 -0.0310191 -7.6267e-19)
(5.28493 0.053017 -1.1188e-19)
(5.28971 0.0224113 -1.11726e-19)
(5.30338 0.0883113 -1.12721e-19)
(5.32005 0.0701631 -1.67647e-19)
(5.32189 0.125731 -5.96892e-19)
(5.3402 0.105845 -1.1341e-19)
(5.33873 0.16342 -4.24727e-19)
(5.35662 0.140072 8.64015e-21)
(5.35332 0.200864 1.03735e-19)
(5.37316 0.177799 1.03479e-19)
(5.3659 0.239039 7.66242e-20)
(5.38886 0.216833 1.08815e-21)
(5.3781 0.2802 9.36162e-20)
(5.40482 0.257707 5.65393e-20)
(5.39235 0.328032 -7.08651e-20)
(5.42463 0.304272 -5.93555e-20)
(5.40994 0.385799 -3.02822e-20)
(5.44872 0.360044 0)
(5.42966 0.454081 3.30402e-20)
(5.47395 0.426475 -2.97269e-20)
(5.44764 0.530228 2.81274e-20)
(5.49484 0.502087 2.80943e-20)
(5.45739 0.605387 -8.80493e-22)
(5.50241 0.579809 1.63035e-21)
(5.44882 0.664659 1.05447e-21)
(5.48521 0.644325 -2.57869e-21)
(5.40173 0.694532 1.873e-21)
(5.43073 0.680544 -1.92152e-20)
(5.2713 0.671798 8.54685e-21)
(5.30549 0.665492 2.23986e-20)
(5.01193 0.557868 -4.37839e-21)
(5.05506 0.570185 1.28924e-20)
(4.63345 0.349438 -2.68742e-21)
(4.68267 0.380411 -8.31367e-21)
(4.22291 0.0824413 1.99048e-20)
(4.25056 0.121538 9.47872e-21)
(3.96736 -0.147781 1.01617e-20)
(3.90544 -0.148319 -4.57727e-20)
(4.02312 -0.243344 9.41571e-21)
(3.85775 -0.292084 0)
(4.23957 -0.302675 3.81907e-20)
(4.09329 -0.332426 -2.49413e-20)
(4.39496 -0.383707 1.12422e-20)
(4.2935 -0.407235 -7.09842e-20)
(4.48179 -0.45371 8.37386e-20)
(4.4085 -0.477595 1.64907e-20)
(4.55188 -0.497289 1.78273e-20)
(4.48914 -0.525592 1.77861e-20)
(4.62316 -0.516385 0)
(4.567 -0.54559 -2.29017e-20)
(4.69382 -0.520984 -2.31266e-21)
(4.64279 -0.548294 3.3609e-20)
(4.76194 -0.517915 -1.63587e-20)
(4.71389 -0.542722 -6.92578e-22)
(4.82756 -0.509855 2.34884e-21)
(4.78152 -0.534066 2.32433e-21)
(4.88977 -0.496403 4.25034e-22)
(4.84607 -0.521811 1.54076e-20)
(4.9467 -0.477058 -4.18877e-20)
(4.9071 -0.504593 -1.60644e-20)
(4.99676 -0.451732 1.38078e-19)
(4.96274 -0.482136 -4.33342e-20)
(5.0395 -0.420546 2.69443e-19)
(5.01179 -0.454319 -1.03496e-20)
(5.07517 -0.383793 4.57707e-20)
(5.05419 -0.421005 4.45393e-20)
(5.10421 -0.342115 9.79087e-21)
(5.08999 -0.38234 0)
(5.12684 -0.296177 9.63886e-20)
(5.11944 -0.338984 8.12195e-20)
(5.14339 -0.246799 -2.29033e-19)
(5.14352 -0.292127 3.80547e-20)
(5.15532 -0.196035 -1.80351e-19)
(5.16303 -0.243074 -4.9545e-20)
(5.16497 -0.146497 3.22031e-19)
(5.17597 -0.191938 -3.8017e-20)
(5.17508 -0.0955703 3.32468e-20)
(5.181 -0.137243 1.76735e-19)
(5.19242 -0.0828889 -5.67667e-20)
(5.18536 -0.0301609 -2.64381e-19)
(5.32016 0.0332576 1.51706e-18)
(5.32297 0.00398066 1.42169e-19)
(5.30149 0.000904867 -1.25463e-18)
(5.3398 0.064569 9.34606e-19)
(5.33715 0.0320405 -1.9462e-19)
(5.35952 0.0961132 -1.68944e-19)
(5.36868 0.0772996 -1.69086e-19)
(5.37761 0.129638 -1.95407e-21)
(5.39053 0.111668 0)
(5.39347 0.164459 -1.92844e-21)
(5.4073 0.144468 -1.63961e-19)
(5.40837 0.200226 0)
(5.4246 0.180425 2.09257e-20)
(5.42514 0.238477 -5.65583e-21)
(5.44469 0.218105 2.32857e-20)
(5.44731 0.283043 6.17729e-21)
(5.47171 0.259342 2.3248e-19)
(5.47551 0.336795 1.15021e-20)
(5.50597 0.308079 -1.37306e-19)
(5.5065 0.40103 0)
(5.54322 0.366249 -8.34349e-20)
(5.53298 0.474734 0)
(5.57508 0.434175 2.55731e-20)
(5.54382 0.551735 1.62938e-21)
(5.58854 0.508967 5.25539e-20)
(5.52601 0.619178 1.47433e-20)
(5.5671 0.577959 1.58706e-21)
(5.46384 0.660903 -2.27243e-20)
(5.49718 0.624966 -1.67044e-21)
(5.33018 0.650772 -5.19886e-20)
(5.35436 0.627008 -5.26502e-20)
(5.08608 0.564248 1.39099e-20)
(5.11001 0.555708 2.81964e-20)
(4.72453 0.392128 -1.73467e-20)
(4.7484 0.400694 -6.46418e-20)
(4.30059 0.150736 8.6902e-22)
(4.31954 0.170074 5.27968e-20)
(3.93638 -0.109779 -2.66905e-20)
(3.91689 -0.0928657 0)
(3.80115 -0.297783 -2.605e-20)
(3.69439 -0.323162 -2.59832e-20)
(3.934 -0.369551 -1.66327e-20)
(3.77073 -0.425445 0)
(4.15088 -0.427334 -1.4077e-19)
(4.01015 -0.468472 -4.08344e-20)
(4.30862 -0.494047 1.50953e-20)
(4.20188 -0.534309 -5.50196e-20)
(4.41539 -0.543131 3.3078e-20)
(4.33605 -0.581905 3.29712e-20)
(4.50213 -0.568522 -2.28396e-20)
(4.43632 -0.609499 0)
(4.58307 -0.573962 7.75997e-20)
(4.52718 -0.613831 -8.42179e-20)
(4.65824 -0.568317 3.54773e-20)
(4.60968 -0.604144 9.61071e-20)
(4.72821 -0.558392 1.6549e-21)
(4.68303 -0.589605 2.49525e-20)
(4.79518 -0.546544 1.51747e-20)
(4.75072 -0.57486 0)
(4.85972 -0.531458 -2.55729e-20)
(4.81607 -0.559213 4.74817e-20)
(4.92096 -0.51222 -1.69856e-20)
(4.87936 -0.540975 -3.56548e-20)
(4.97734 -0.488431 -7.57719e-21)
(4.93911 -0.519272 0)
(5.02764 -0.459479 -8.05221e-21)
(4.99423 -0.493428 8.53984e-20)
(5.0716 -0.425183 0)
(5.04387 -0.462679 -6.87054e-20)
(5.1092 -0.385824 6.85843e-20)
(5.0876 -0.426614 0)
(5.14047 -0.341966 -1.48946e-19)
(5.12542 -0.385646 2.02387e-19)
(5.16568 -0.294339 -1.63482e-19)
(5.15794 -0.34086 -1.00282e-19)
(5.18561 -0.244307 3.79909e-20)
(5.18503 -0.293144 -4.45557e-20)
(5.20054 -0.193353 1.73611e-19)
(5.20462 -0.242076 3.33951e-20)
(5.21054 -0.142045 -7.5593e-19)
(5.21587 -0.186939 1.4176e-19)
(5.23206 -0.13345 -3.78345e-19)
(5.2186 -0.0901685 -3.37543e-19)
(5.36617 0.039084 1.41142e-18)
(5.37075 0.0111492 1.98743e-19)
(5.34712 0.00837465 1.87562e-19)
(5.38607 0.0713566 -1.93767e-19)
(5.38764 0.0423936 -2.01094e-19)
(5.40611 0.101534 4.39358e-21)
(5.41782 0.0859144 -2.18797e-19)
(5.42443 0.13287 -1.63707e-19)
(5.44033 0.119505 2.37673e-19)
(5.44158 0.165952 -2.85057e-19)
(5.45872 0.151721 -3.73739e-19)
(5.46174 0.200491 3.56307e-20)
(5.48031 0.185197 7.38242e-20)
(5.4901 0.239138 2.93437e-19)
(5.51127 0.219278 7.62634e-20)
(5.52769 0.284322 6.67445e-20)
(5.55218 0.257329 4.50256e-19)
(5.57027 0.337753 -2.12993e-19)
(5.59848 0.302069 -3.24849e-20)
(5.60835 0.399872 -3.09361e-20)
(5.64075 0.35375 -2.9031e-19)
(5.62733 0.468815 1.1899e-19)
(5.66541 0.413566 1.18427e-19)
(5.60933 0.536396 5.11602e-20)
(5.65173 0.477978 5.54372e-20)
(5.53453 0.585727 0)
(5.57391 0.529297 -1.34064e-20)
(5.38378 0.591655 -3.21512e-20)
(5.4133 0.547085 0)
(5.13398 0.531669 -3.28951e-20)
(5.15151 0.502741 -5.34154e-20)
(4.77382 0.391749 -2.52187e-20)
(4.78437 0.381496 4.78181e-20)
(4.34437 0.177957 1.55532e-20)
(4.34076 0.181839 3.69328e-20)
(3.93533 -0.0744679 4.48727e-20)
(3.90987 -0.0667531 1.36789e-19)
(3.6738 -0.30599 0)
(3.59347 -0.310503 0)
(3.66439 -0.447944 0)
(3.51426 -0.493478 0)
(3.8479 -0.509858 -2.45405e-20)
(3.67878 -0.571994 -1.61608e-20)
(4.06078 -0.566391 3.77778e-20)
(3.91264 -0.620852 1.0356e-19)
(4.22759 -0.615503 2.54543e-20)
(4.10865 -0.672321 1.14403e-19)
(4.35422 -0.643173 0)
(4.26455 -0.697503 -5.85082e-20)
(4.45672 -0.65013 -6.11647e-20)
(4.38447 -0.705131 4.65572e-20)
(4.54748 -0.640836 2.55795e-20)
(4.48882 -0.69316 -7.38171e-20)
(4.62726 -0.623818 2.70615e-20)
(4.57873 -0.670327 2.43876e-21)
(4.69819 -0.605731 1.70543e-21)
(4.65459 -0.645909 3.28248e-20)
(4.76468 -0.588285 2.1032e-20)
(4.72211 -0.623724 -8.94106e-21)
(4.82953 -0.570275 -2.18275e-20)
(4.78685 -0.602951 2.16571e-20)
(4.89264 -0.550217 -1.97185e-20)
(4.85076 -0.582131 4.34358e-20)
(4.95282 -0.527189 7.97497e-20)
(4.91287 -0.560133 -5.67141e-20)
(5.0091 -0.500345 -7.95121e-20)
(4.97214 -0.535722 7.10503e-21)
(5.06043 -0.468599 -7.13833e-20)
(5.028 -0.507374 -8.34674e-20)
(5.1061 -0.431637 1.26555e-19)
(5.07939 -0.473897 3.62349e-20)
(5.14567 -0.389866 -8.58217e-20)
(5.12563 -0.435192 5.56089e-20)
(5.17917 -0.344044 -1.20704e-19)
(5.1667 -0.392152 -7.91519e-20)
(5.20707 -0.295162 -4.14169e-20)
(5.20184 -0.345569 -1.48234e-19)
(5.22961 -0.244009 0)
(5.22903 -0.294945 9.8899e-20)
(5.24647 -0.190707 -1.58876e-19)
(5.24807 -0.23955 0)
(5.27002 -0.184396 -2.57878e-19)
(5.25917 -0.136777 -4.68207e-19)
(5.4145 0.0483898 0)
(5.42203 0.0248899 -9.49541e-21)
(5.39326 0.0177564 -2.57508e-20)
(5.43612 0.0808211 -2.25971e-19)
(5.44154 0.0614994 -5.52581e-19)
(5.45708 0.112056 -2.6066e-19)
(5.47083 0.104767 3.58597e-19)
(5.47594 0.142668 2.51312e-20)
(5.49169 0.137162 4.95877e-19)
(5.49694 0.17312 -1.59704e-19)
(5.51206 0.16643 -4.76992e-19)
(5.52712 0.204251 1.34991e-19)
(5.54156 0.193034 2.14778e-19)
(5.56895 0.237354 2.8821e-19)
(5.58287 0.217513 -5.23602e-20)
(5.61858 0.275325 2.81538e-19)
(5.63345 0.243877 -1.52336e-20)
(5.66546 0.318708 -1.48968e-19)
(5.68098 0.274737 3.22942e-19)
(5.69474 0.368428 -9.58259e-20)
(5.71441 0.311659 -2.2039e-19)
(5.68631 0.424049 9.51918e-20)
(5.71707 0.357211 9.07721e-20)
(5.6127 0.474184 2.34274e-20)
(5.65229 0.404945 2.9924e-20)
(5.44859 0.49376 -1.29876e-20)
(5.48218 0.43251 -2.55164e-20)
(5.17942 0.458809 -2.22386e-20)
(5.19984 0.412918 1.48737e-20)
(4.80296 0.352626 8.50268e-21)
(4.80875 0.325486 -1.46223e-20)
(4.35141 0.170573 9.64531e-20)
(4.33786 0.162122 1.38861e-19)
(3.90635 -0.0628522 1.57198e-19)
(3.86518 -0.0624941 -3.98531e-20)
(3.56804 -0.303408 8.91861e-20)
(3.49176 -0.306351 4.26098e-20)
(3.43568 -0.496174 0)
(3.30125 -0.518656 3.5311e-20)
(3.53212 -0.606155 -1.61438e-20)
(3.35441 -0.664338 -3.76359e-20)
(3.74557 -0.668098 1.41909e-19)
(3.56924 -0.736003 -1.57304e-20)
(3.9612 -0.718886 2.4221e-19)
(3.80255 -0.785977 1.70723e-19)
(4.14476 -0.74832 -1.4787e-20)
(4.01569 -0.819191 8.74426e-20)
(4.29199 -0.755344 -1.17447e-20)
(4.19443 -0.824286 -1.17152e-19)
(4.41093 -0.744193 7.38513e-20)
(4.33404 -0.81315 1.12614e-19)
(4.51262 -0.719865 5.17768e-21)
(4.45245 -0.784872 2.73767e-20)
(4.5979 -0.690991 -1.7494e-20)
(4.5504 -0.749004 -6.79397e-20)
(4.67029 -0.66374 -9.42115e-21)
(4.62939 -0.714305 5.71069e-21)
(4.73625 -0.639269 -9.23253e-21)
(4.69699 -0.683657 -9.04549e-21)
(4.8003 -0.616515 5.95745e-20)
(4.76046 -0.656202 -1.95996e-20)
(4.86377 -0.594323 -4.65558e-20)
(4.82324 -0.631137 1.55969e-20)
(4.9261 -0.571305 -1.32623e-19)
(4.88573 -0.607513 2.61275e-21)
(4.98661 -0.545924 -3.58013e-20)
(4.94724 -0.583683 -1.2465e-20)
(5.04441 -0.516552 9.86061e-20)
(5.00755 -0.557349 -1.03462e-19)
(5.09803 -0.481968 -4.75558e-21)
(5.06576 -0.526326 2.26855e-20)
(5.14623 -0.442085 -4.60317e-20)
(5.12033 -0.489707 1.74885e-19)
(5.18848 -0.39754 -1.03907e-19)
(5.17019 -0.447983 -2.27565e-19)
(5.22479 -0.349104 5.06272e-20)
(5.21392 -0.401813 -2.46323e-19)
(5.2552 -0.297643 1.01659e-19)
(5.24919 -0.350722 3.3702e-19)
(5.27933 -0.243878 -2.30854e-19)
(5.27617 -0.294239 -1.20174e-19)
(5.30479 -0.237246 -3.30977e-21)
(5.29771 -0.189513 -7.2211e-19)
(5.46938 0.0710064 -5.6887e-19)
(5.47876 0.0551021 -5.73668e-20)
(5.448 0.0375356 1.62431e-20)
(5.4901 0.1049 -1.33326e-18)
(5.49887 0.0974135 -5.79405e-19)
(5.509 0.135686 8.37848e-19)
(5.52425 0.13961 -1.05578e-19)
(5.52781 0.162916 9.51572e-21)
(5.54155 0.167852 2.13561e-19)
(5.55373 0.186582 -7.41151e-20)
(5.56353 0.188679 -2.26218e-19)
(5.59166 0.206273 8.38879e-20)
(5.59675 0.201729 1.86499e-19)
(5.63999 0.224047 -3.26858e-19)
(5.64115 0.208212 -6.11157e-20)
(5.68874 0.244295 -1.05355e-20)
(5.69064 0.212866 -1.43039e-19)
(5.72387 0.269474 8.15454e-20)
(5.72827 0.221575 -6.99595e-20)
(5.73176 0.302569 -7.66559e-20)
(5.74632 0.239736 -3.07619e-19)
(5.6802 0.341421 7.80337e-21)
(5.71079 0.268198 8.31059e-20)
(5.52002 0.367542 -3.07903e-20)
(5.55637 0.295458 -4.76556e-20)
(5.23299 0.354768 2.83467e-20)
(5.26051 0.295878 2.29498e-20)
(4.83017 0.280183 -1.89083e-21)
(4.84134 0.241025 -4.57813e-20)
(4.344 0.133825 4.46998e-20)
(4.33194 0.116307 -1.56443e-20)
(3.85097 -0.0726071 1.4744e-20)
(3.80659 -0.0737507 1.05659e-19)
(3.45026 -0.305007 -2.39963e-19)
(3.36717 -0.30365 -1.73735e-20)
(3.22503 -0.521266 -6.16166e-20)
(3.09673 -0.52993 -1.72118e-19)
(3.22221 -0.680221 -3.45724e-20)
(3.04259 -0.713414 1.14971e-19)
(3.3945 -0.775953 -3.66036e-20)
(3.19565 -0.838424 1.54185e-19)
(3.62768 -0.839768 1.7639e-20)
(3.43773 -0.911778 0)
(3.85753 -0.87947 1.7346e-20)
(3.68512 -0.956174 6.8589e-20)
(4.06322 -0.889618 -5.91931e-20)
(3.92427 -0.971234 -8.37306e-20)
(4.23111 -0.878362 -3.27074e-20)
(4.12541 -0.960203 2.76994e-20)
(4.36728 -0.850424 1.11092e-20)
(4.28515 -0.932305 1.27362e-19)
(4.48058 -0.811771 2.3662e-20)
(4.41828 -0.889199 -1.1679e-19)
(4.57197 -0.771342 2.44502e-20)
(4.52487 -0.841561 2.40638e-20)
(4.64644 -0.734416 0)
(4.60806 -0.796706 0)
(4.7119 -0.701756 -1.91321e-20)
(4.67672 -0.756904 0)
(4.77429 -0.672718 -4.71616e-20)
(4.739 -0.721557 -2.83661e-21)
(4.83626 -0.646754 5.42372e-20)
(4.79954 -0.690745 3.36127e-21)
(4.89858 -0.622597 1.46912e-19)
(4.86028 -0.663976 -2.2838e-22)
(4.9613 -0.598022 -3.41102e-20)
(4.92173 -0.639497 -1.96394e-20)
(5.02384 -0.57048 -1.54008e-19)
(4.9844 -0.614331 8.07976e-21)
(5.08466 -0.537957 2.00816e-19)
(5.04781 -0.585301 1.25666e-19)
(5.14153 -0.499567 -4.21714e-20)
(5.11014 -0.550363 1.05441e-19)
(5.19282 -0.455566 -3.45082e-19)
(5.16908 -0.509293 -9.11314e-20)
(5.23792 -0.406593 1.23144e-19)
(5.22198 -0.46255 6.46106e-20)
(5.27666 -0.353431 1.30862e-19)
(5.26587 -0.409662 1.22341e-19)
(5.30857 -0.297081 -2.48286e-20)
(5.30101 -0.350445 -3.45801e-20)
(5.33651 -0.289886 1.01558e-19)
(5.33365 -0.239873 4.84882e-19)
(5.52845 0.11562 2.6168e-18)
(5.53664 0.108738 -5.38817e-20)
(5.51084 0.0808277 -1.35922e-18)
(5.5442 0.14832 4.41392e-19)
(5.55393 0.153472 1.197e-21)
(5.55808 0.174894 -7.19659e-19)
(5.57179 0.191698 -7.32105e-19)
(5.57456 0.19417 -1.92345e-21)
(5.58288 0.211457 -2.43602e-20)
(5.59989 0.203914 3.89573e-20)
(5.59974 0.218349 -6.23703e-20)
(5.6363 0.2041 0)
(5.62757 0.21212 -2.8738e-19)
(5.67923 0.197827 5.19003e-20)
(5.66427 0.194432 5.46278e-19)
(5.71637 0.192216 1.07617e-20)
(5.70326 0.171917 -2.11744e-19)
(5.73921 0.195729 -1.17811e-19)
(5.73363 0.154098 -3.38633e-19)
(5.71911 0.209863 -4.12305e-20)
(5.72622 0.149481 6.84751e-20)
(5.58568 0.227803 1.1259e-19)
(5.61136 0.15761 5.72387e-20)
(5.29783 0.2283 -1.05747e-19)
(5.3314 0.163791 -2.02866e-20)
(4.87097 0.184512 -6.91593e-21)
(4.89607 0.138342 -7.29488e-21)
(4.3451 0.076596 -1.54673e-20)
(4.34738 0.0544473 -7.15999e-20)
(3.79546 -0.0944591 0)
(3.7622 -0.0943181 -2.53234e-20)
(3.32304 -0.30705 1.21926e-19)
(3.24401 -0.294297 0)
(3.01383 -0.527349 4.22368e-20)
(2.88588 -0.517092 -6.63924e-20)
(2.91478 -0.720853 -3.78195e-21)
(2.73636 -0.726 -1.61198e-19)
(3.01891 -0.861121 2.68707e-19)
(2.80302 -0.892494 1.7258e-19)
(3.24183 -0.954913 1.85315e-19)
(3.02347 -1.01126 -2.16872e-19)
(3.49668 -1.01663 1.49927e-20)
(3.29026 -1.087 1.39576e-20)
(3.75145 -1.04203 -6.87401e-20)
(3.56703 -1.12281 -1.48649e-19)
(3.98166 -1.03604 2.99612e-20)
(3.83423 -1.12479 -1.40723e-19)
(4.171 -1.0102 2.01845e-19)
(4.05636 -1.10215 -1.54758e-20)
(4.32542 -0.967937 -1.05704e-20)
(4.23733 -1.06065 1.85456e-19)
(4.4509 -0.917208 -1.18752e-19)
(4.38555 -1.00589 -1.86421e-19)
(4.54933 -0.866476 0)
(4.50163 -0.948752 0)
(4.62722 -0.819934 0)
(4.59071 -0.894528 0)
(4.69316 -0.778342 1.6634e-20)
(4.6622 -0.845442 0)
(4.75382 -0.741842 4.82762e-20)
(4.72428 -0.801548 1.7394e-20)
(4.81307 -0.710616 -4.29377e-20)
(4.78232 -0.763911 5.15334e-20)
(4.87325 -0.683801 -1.68421e-19)
(4.83974 -0.732534 3.94881e-20)
(4.93577 -0.658843 1.11898e-20)
(4.89877 -0.705863 -2.11319e-19)
(5.00103 -0.632366 2.85068e-19)
(4.96119 -0.680521 1.3121e-19)
(5.06762 -0.601236 5.83834e-20)
(5.02764 -0.652482 -9.62626e-20)
(5.13281 -0.563681 1.08528e-20)
(5.0964 -0.618539 1.287e-20)
(5.19358 -0.519299 2.80664e-19)
(5.16433 -0.577432 1.37943e-19)
(5.24806 -0.468511 2.64591e-20)
(5.22718 -0.529198 -6.74271e-20)
(5.2954 -0.41221 -1.49458e-20)
(5.28065 -0.473268 -2.86383e-19)
(5.33513 -0.351952 1.23769e-19)
(5.32437 -0.40993 1.19772e-19)
(5.36698 -0.344865 0)
(5.36706 -0.290784 -2.99201e-19)
(5.58388 0.182498 2.89875e-20)
(5.58904 0.184264 1.8871e-20)
(5.5738 0.149971 -1.40927e-19)
(5.59074 0.210563 -2.69872e-20)
(5.59991 0.227812 1.38989e-18)
(5.59503 0.229121 -5.71107e-20)
(5.60533 0.259968 -4.6206e-19)
(5.60173 0.23564 -4.73494e-20)
(5.60361 0.268973 5.04808e-19)
(5.61687 0.22714 -3.28342e-19)
(5.60721 0.259855 -4.8208e-19)
(5.64211 0.203337 3.30025e-19)
(5.62015 0.232188 -2.78859e-19)
(5.67491 0.170048 4.13832e-19)
(5.64424 0.18789 2.68965e-19)
(5.70947 0.135517 -4.20921e-19)
(5.67357 0.135352 9.56505e-20)
(5.71487 0.110463 -9.46727e-20)
(5.68362 0.0889203 -5.52034e-19)
(5.61953 0.102108 1.17098e-19)
(5.61594 0.0588362 8.16319e-20)
(5.36099 0.0995313 -1.20349e-19)
(5.391 0.0457294 -8.04665e-20)
(4.93316 0.0778722 -6.11572e-20)
(4.97619 0.0332757 5.67353e-20)
(4.37547 0.00910089 -7.18213e-20)
(4.40597 -0.0121079 -8.33039e-20)
(3.76728 -0.119566 -1.39694e-19)
(3.76329 -0.114685 -5.5936e-20)
(3.2146 -0.300067 -2.43004e-20)
(3.15914 -0.274329 6.79779e-20)
(2.81276 -0.508831 -1.33108e-19)
(2.69693 -0.474264 -1.43322e-19)
(2.61495 -0.717625 -2.1661e-19)
(2.43988 -0.688257 3.90563e-20)
(2.63034 -0.899199 -1.9789e-20)
(2.40395 -0.887814 -8.5003e-20)
(2.81365 -1.03582 -3.39004e-19)
(2.56611 -1.04919 9.11165e-20)
(3.07611 -1.13041 -3.98431e-19)
(2.83833 -1.17061 -6.4868e-19)
(3.36104 -1.18574 -2.55803e-19)
(3.13929 -1.24582 1.35649e-20)
(3.64494 -1.19892 -3.17036e-19)
(3.4526 -1.27656 -2.63924e-19)
(3.89864 -1.1834 -1.76838e-19)
(3.74343 -1.27358 5.01528e-20)
(4.10999 -1.14743 -3.18886e-20)
(3.98624 -1.24505 -9.99316e-20)
(4.28362 -1.09501 -7.34202e-22)
(4.18878 -1.19555 1.50385e-19)
(4.42229 -1.03573 -7.08133e-20)
(4.35211 -1.13394 -1.49861e-19)
(4.52953 -0.976689 0)
(4.47933 -1.07018 1.38421e-19)
(4.61302 -0.921301 0)
(4.57681 -1.00805 -8.18378e-20)
(4.68125 -0.870804 0)
(4.65371 -0.950372 1.62296e-20)
(4.74103 -0.826348 0)
(4.71747 -0.898117 -2.67449e-20)
(4.79721 -0.788849 9.82832e-20)
(4.77385 -0.853232 -5.78787e-20)
(4.85367 -0.757844 -2.05014e-20)
(4.8275 -0.816111 1.31109e-19)
(4.91356 -0.730874 -7.71002e-20)
(4.88236 -0.785597 8.38813e-20)
(4.97881 -0.704049 -1.63762e-19)
(4.94194 -0.758284 -1.85798e-19)
(5.04906 -0.673367 -6.85264e-20)
(5.00853 -0.72973 -2.08381e-19)
(5.12151 -0.635889 1.35525e-19)
(5.08148 -0.695738 4.72724e-20)
(5.19194 -0.590316 -1.36206e-19)
(5.15754 -0.653993 0)
(5.25671 -0.536716 -3.01953e-19)
(5.23098 -0.60384 -1.42648e-19)
(5.3136 -0.476271 -1.66377e-19)
(5.29535 -0.54436 -9.958e-21)
(5.36166 -0.411345 0)
(5.34867 -0.476308 -3.33104e-19)
(5.39885 -0.407002 -2.08915e-19)
(5.40087 -0.34605 -5.24154e-19)
(5.62829 0.267151 -1.6612e-18)
(5.63093 0.275541 1.17849e-18)
(5.62865 0.239367 -1.2982e-18)
(5.6215 0.289212 1.39764e-18)
(5.63145 0.317269 2.00066e-19)
(5.61011 0.299584 6.00005e-20)
(5.62002 0.344954 -2.58009e-19)
(5.59993 0.292947 -1.58866e-20)
(5.59814 0.345993 -1.86332e-19)
(5.59612 0.266092 -4.28051e-19)
(5.5802 0.324843 1.01668e-19)
(5.60381 0.218606 -2.59146e-19)
(5.57248 0.279322 -1.11835e-19)
(5.6247 0.15649 2.63453e-19)
(5.58114 0.209938 -4.34138e-19)
(5.63738 0.0904795 1.5411e-19)
(5.58881 0.128575 3.89738e-19)
(5.58541 0.0379498 -2.31993e-19)
(5.55668 0.0509697 -1.56239e-19)
(5.39314 0.00653516 -4.80393e-20)
(5.40746 -0.00573774 -7.86443e-20)
(5.01095 -0.014674 3.29067e-20)
(5.06421 -0.036629 7.08983e-21)
(4.45137 -0.0529521 -1.05882e-19)
(4.51663 -0.0636094 2.19954e-19)
(3.79484 -0.136758 -6.69192e-20)
(3.8381 -0.12202 -1.09214e-19)
(3.15822 -0.275062 7.17992e-20)
(3.15092 -0.234661 7.33723e-20)
(2.6502 -0.457946 -1.42259e-19)
(2.5736 -0.398342 1.46675e-19)
(2.33979 -0.663577 2.91773e-20)
(2.18967 -0.597383 5.15437e-19)
(2.24703 -0.868565 1.60169e-19)
(2.02961 -0.808718 -6.27196e-19)
(2.3549 -1.04608 0)
(2.09322 -1.00977 0)
(2.60053 -1.18506 -2.08667e-19)
(2.32789 -1.17582 -1.99395e-19)
(2.90624 -1.28274 -2.0298e-19)
(2.6462 -1.30189 2.02366e-19)
(3.22977 -1.33299 0)
(2.99182 -1.37784 1.50146e-20)
(3.54178 -1.34369 4.50462e-19)
(3.33793 -1.40829 0)
(3.81577 -1.32634 4.49171e-19)
(3.64969 -1.40825 4.68588e-19)
(4.04729 -1.28598 8.02856e-20)
(3.91428 -1.38128 -1.01989e-19)
(4.23891 -1.22927 -7.38632e-23)
(4.13689 -1.33236 1.82859e-19)
(4.39168 -1.16595 5.40502e-20)
(4.31502 -1.27042 1.31459e-19)
(4.51049 -1.10125 7.63535e-20)
(4.45584 -1.20398 1.59662e-19)
(4.6028 -1.03865 -6.95028e-20)
(4.56489 -1.13644 -8.31458e-20)
(4.6762 -0.980251 9.92555e-21)
(4.65041 -1.07199 2.54724e-20)
(4.73717 -0.92822 -6.61264e-20)
(4.71866 -1.0126 -3.72906e-20)
(4.79121 -0.884018 1.96837e-20)
(4.77556 -0.960824 -4.83715e-20)
(4.84356 -0.847595 1.92996e-19)
(4.82651 -0.917394 1.961e-19)
(4.89911 -0.816793 -1.47729e-20)
(4.87685 -0.881597 -1.00875e-19)
(4.96159 -0.787747 -1.58137e-19)
(4.93182 -0.850366 -1.48661e-19)
(5.03251 -0.75603 -7.97717e-20)
(4.99557 -0.819476 1.50502e-19)
(5.11009 -0.717767 -8.7483e-20)
(5.06945 -0.784175 7.88344e-20)
(5.18966 -0.670631 0)
(5.15145 -0.741385 0)
(5.2656 -0.614152 1.55468e-19)
(5.23523 -0.689573 2.05426e-19)
(5.3335 -0.549777 -1.529e-19)
(5.31189 -0.627234 1.75897e-19)
(5.39118 -0.480892 -5.53805e-20)
(5.37647 -0.555285 6.39994e-20)
(5.43534 -0.483458 -1.20571e-19)
(5.43855 -0.412949 -8.62047e-19)
(5.65862 0.365433 3.34015e-18)
(5.66331 0.375707 -9.82007e-19)
(5.67203 0.340218 1.07356e-18)
(5.63463 0.384077 -9.51991e-19)
(5.64972 0.420226 -2.07233e-19)
(5.60258 0.390468 -4.93494e-19)
(5.61914 0.45006 -5.59176e-19)
(5.56861 0.3777 -8.84151e-20)
(5.57343 0.45159 1.59665e-19)
(5.54112 0.339325 3.98528e-19)
(5.52954 0.42887 5.0706e-19)
(5.52845 0.273299 -2.91791e-19)
(5.49763 0.376305 7.05468e-19)
(5.52595 0.184392 2.10252e-19)
(5.47988 0.290341 -1.19213e-18)
(5.49838 0.0881713 2.42327e-19)
(5.45032 0.184753 1.55085e-19)
(5.37557 0.0086285 -2.33818e-20)
(5.35968 0.0761668 8.97922e-20)
(5.077 -0.042962 -2.2387e-20)
(5.11699 -0.00752473 3.28972e-20)
(4.56838 -0.0787114 2.48376e-19)
(4.65572 -0.0559648 5.84894e-20)
(3.90074 -0.128973 1.6279e-19)
(3.99762 -0.0947772 -1.86788e-21)
(3.19187 -0.221641 5.35375e-20)
(3.25328 -0.162056 5.03309e-20)
(2.56984 -0.365156 2.37645e-19)
(2.56325 -0.282328 -2.08757e-19)
(2.12628 -0.55096 4.61698e-19)
(2.03536 -0.450228 4.81246e-20)
(1.90104 -0.758301 1.42879e-20)
(1.73072 -0.653132 3.81286e-19)
(1.89579 -0.964639 -3.46212e-19)
(1.65549 -0.872087 -6.03277e-19)
(2.07829 -1.15317 -1.99059e-19)
(1.79311 -1.07872 0)
(2.38114 -1.30496 2.69772e-19)
(2.08536 -1.25788 3.17553e-20)
(2.73709 -1.40867 4.38523e-19)
(2.45306 -1.39519 2.82664e-19)
(3.10264 -1.46094 1.46803e-20)
(2.8447 -1.47942 9.33863e-22)
(3.44166 -1.47187 -2.39696e-19)
(3.22219 -1.51854 -2.44835e-19)
(3.73492 -1.45658 -3.40892e-19)
(3.55224 -1.52473 -3.34669e-20)
(3.98438 -1.41994 -1.48729e-20)
(3.83585 -1.50384 -1.61139e-19)
(4.19127 -1.367 3.12852e-19)
(4.07679 -1.46377 2.83907e-19)
(4.35788 -1.30484 4.92606e-20)
(4.27155 -1.40882 3.52653e-19)
(4.49031 -1.23804 -1.95426e-19)
(4.42894 -1.3456 -1.90862e-19)
(4.59457 -1.17113 8.68713e-21)
(4.55256 -1.27711 5.6754e-20)
(4.67654 -1.1071 -2.72862e-22)
(4.65021 -1.20948 4.86768e-20)
(4.74194 -1.04893 2.08133e-20)
(4.72655 -1.14552 -1.08353e-20)
(4.79643 -0.998337 1.20033e-19)
(4.78762 -1.08832 -1.06547e-20)
(4.84621 -0.955824 -1.49345e-19)
(4.83859 -1.03893 1.6342e-19)
(4.89731 -0.919575 -2.35252e-19)
(4.88614 -0.99702 -2.51968e-19)
(4.95521 -0.886357 1.65152e-19)
(4.93639 -0.960277 -1.19734e-19)
(5.02372 -0.851924 2.39724e-19)
(4.99526 -0.925349 2.05525e-19)
(5.10323 -0.811976 8.88073e-20)
(5.06659 -0.887488 -1.38804e-19)
(5.18997 -0.763408 1.97313e-19)
(5.15091 -0.843409 3.20933e-19)
(5.27696 -0.705089 2.58788e-19)
(5.24319 -0.790722 -3.28921e-20)
(5.35738 -0.638502 2.66757e-19)
(5.33263 -0.727544 2.47239e-19)
(5.42694 -0.567692 -1.53824e-19)
(5.41029 -0.6542 -2.46201e-19)
(5.4799 -0.582467 4.28583e-19)
(5.48442 -0.499181 8.42015e-21)
(5.68007 0.473043 -2.99332e-18)
(5.69634 0.479842 -2.00396e-18)
(5.70861 0.442431 -5.95368e-19)
(5.63735 0.497069 2.37217e-19)
(5.6679 0.536241 5.75245e-19)
(5.58325 0.509247 1.10238e-19)
(5.61932 0.578818 -1.16324e-18)
(5.52599 0.50172 6.44965e-19)
(5.55267 0.593745 9.77971e-19)
(5.47407 0.4656 5.46183e-19)
(5.48347 0.58379 0)
(5.4323 0.393407 -2.31242e-19)
(5.41888 0.540917 5.2223e-19)
(5.3894 0.287102 -6.88582e-19)
(5.35717 0.45351 -2.87425e-19)
(5.30327 0.166849 1.82128e-19)
(5.27343 0.332347 -1.24787e-19)
(5.09404 0.0577351 1.20741e-19)
(5.10345 0.199773 1.85059e-19)
(4.68879 -0.0160727 1.06951e-19)
(4.7686 0.0837921 1.80077e-19)
(4.07821 -0.0654404 -4.11954e-19)
(4.21163 0.0134109 -2.30284e-19)
(3.34496 -0.124082 -3.35671e-19)
(3.47908 -0.039373 -5.24782e-19)
(2.62245 -0.221847 -3.7227e-19)
(2.70617 -0.115882 1.7935e-20)
(2.03171 -0.372519 -2.80706e-19)
(2.03196 -0.24279 6.89106e-20)