/*--------------------------------*- C++ -*----------------------------------*\
  =========                 |
  \\      /  F ield         | OpenFOAM: The Open Source CFD Toolbox
   \\    /   O peration     | Website:  https://openfoam.org
    \\  /    A nd           | Version:  6
     \\/     M anipulation  |
\*---------------------------------------------------------------------------*/
FoamFile
{
    version     2.0;
    format      ascii;
    class       volScalarField;
    location    "2.25";
    object      rho;
}
// * * * * * * * * * * * * * * * * * * * * * * * * * * * * * * * * * * * * * //

dimensions      [1 -3 0 0 0 0 0];

internalField   nonuniform List<scalar> 
5625
(
1.43201
1.40994
1.38289
1.35124
1.31539
1.27589
1.23357
1.18965
1.14571
1.10369
1.06569
1.0337
1.00905
0.992231
0.983412
0.982983
0.991365
1.00844
1.03341
1.06521
1.10275
1.14474
1.18936
1.23431
1.27748
1.31751
1.35377
1.38594
1.41352
1.4357
1.45164
1.4609
1.46376
1.46129
1.45505
1.44674
1.43783
1.42939
1.42205
1.41605
1.41139
1.40791
1.4054
1.40363
1.40243
1.40162
1.40108
1.40073
1.4005
1.40034
1.40024
1.40017
1.40012
1.40009
1.40006
1.40004
1.40003
1.40002
1.40002
1.40001
1.40001
1.40001
1.40001
1.40001
1.40001
1.40001
1.40001
1.40001
1.40001
1.40001
1.40001
1.40001
1.40001
1.40001
1.40001
1.43964
1.42045
1.39659
1.36848
1.33657
1.30144
1.26387
1.22494
1.18606
1.14888
1.1152
1.08667
1.06445
1.04911
1.04104
1.04071
1.0484
1.06385
1.08623
1.11459
1.14797
1.18522
1.22468
1.26437
1.30252
1.33803
1.37033
1.399
1.4234
1.44262
1.45582
1.46269
1.46365
1.45985
1.45287
1.4443
1.43549
1.42735
1.42039
1.41478
1.41045
1.40725
1.40495
1.40334
1.40224
1.4015
1.40102
1.40069
1.40048
1.40033
1.40023
1.40017
1.40012
1.40009
1.40006
1.40004
1.40003
1.40002
1.40002
1.40001
1.40001
1.40001
1.40001
1.40001
1.40001
1.40001
1.40001
1.40001
1.40001
1.40001
1.40001
1.40001
1.40001
1.40001
1.40001
1.44671
1.43044
1.4098
1.38524
1.35725
1.3264
1.29344
1.25935
1.22535
1.19283
1.16327
1.13807
1.11827
1.10451
1.09728
1.09704
1.10397
1.11766
1.13735
1.16224
1.19153
1.22419
1.25871
1.29339
1.32678
1.35796
1.38644
1.41166
1.43283
1.449
1.4594
1.46386
1.46296
1.45793
1.45031
1.4416
1.43298
1.42521
1.41868
1.41347
1.4095
1.40658
1.40449
1.40304
1.40205
1.40139
1.40094
1.40065
1.40045
1.40032
1.40023
1.40016
1.40012
1.40009
1.40006
1.40004
1.40003
1.40002
1.40002
1.40001
1.40001
1.40001
1.40001
1.40001
1.40001
1.40001
1.40001
1.40001
1.40001
1.40001
1.40001
1.40001
1.40001
1.40001
1.40001
1.453
1.43964
1.42219
1.40111
1.37693
1.35021
1.32167
1.29217
1.26277
1.23461
1.20893
1.18694
1.16955
1.1574
1.15104
1.15086
1.1569
1.16875
1.18578
1.20732
1.23272
1.26103
1.29092
1.32092
1.34985
1.37699
1.40179
1.42362
1.44155
1.45462
1.46219
1.46427
1.46161
1.45549
1.4474
1.43868
1.43034
1.42301
1.41694
1.41217
1.40856
1.40592
1.40405
1.40275
1.40187
1.40127
1.40087
1.40061
1.40043
1.40031
1.40022
1.40016
1.40012
1.40008
1.40006
1.40004
1.40003
1.40002
1.40002
1.40001
1.40001
1.40001
1.40001
1.40001
1.40001
1.40001
1.40001
1.40001
1.40001
1.40001
1.40001
1.40001
1.40001
1.40001
1.40001
1.45833
1.44782
1.43346
1.41575
1.3952
1.37239
1.348
1.32279
1.29763
1.27351
1.25146
1.23251
1.21744
1.20688
1.20135
1.20115
1.20624
1.21627
1.23076
1.2492
1.271
1.29529
1.3209
1.34661
1.37146
1.39482
1.41612
1.4346
1.44927
1.45922
1.464
1.46382
1.45958
1.45256
1.44417
1.43557
1.42762
1.42077
1.4152
1.41087
1.40763
1.40528
1.40361
1.40246
1.40168
1.40116
1.4008
1.40056
1.4004
1.40029
1.40021
1.40015
1.40011
1.40008
1.40006
1.40004
1.40003
1.40002
1.40002
1.40001
1.40001
1.40001
1.40001
1.40001
1.40001
1.40001
1.40001
1.40001
1.40001
1.40001
1.40001
1.40001
1.40001
1.40001
1.40001
1.46249
1.45478
1.44341
1.42889
1.41176
1.3926
1.37203
1.35072
1.32943
1.309
1.29031
1.27417
1.26127
1.25221
1.24743
1.24715
1.25131
1.25965
1.27184
1.28747
1.30601
1.32667
1.3484
1.37021
1.39134
1.4112
1.42914
1.4443
1.45571
1.46259
1.4647
1.46245
1.45684
1.44916
1.44066
1.43233
1.42486
1.41855
1.4135
1.40962
1.40674
1.40466
1.4032
1.40219
1.40151
1.40104
1.40073
1.40052
1.40037
1.40027
1.4002
1.40015
1.40011
1.40008
1.40006
1.40004
1.40003
1.40002
1.40002
1.40001
1.40001
1.40001
1.40001
1.40001
1.40001
1.40001
1.40001
1.40001
1.40001
1.40001
1.40001
1.40001
1.40001
1.40001
1.40001
1.4653
1.4603
1.45182
1.44035
1.42642
1.41061
1.3935
1.37572
1.35792
1.34082
1.32514
1.31153
1.30062
1.29293
1.28881
1.28842
1.29175
1.29862
1.3088
1.32195
1.3376
1.355
1.37325
1.39157
1.40931
1.42588
1.44057
1.45246
1.46065
1.46456
1.46418
1.46013
1.45345
1.44536
1.43695
1.42903
1.42211
1.41638
1.41186
1.40842
1.40589
1.40407
1.40281
1.40193
1.40134
1.40094
1.40066
1.40048
1.40035
1.40025
1.40019
1.40014
1.4001
1.40007
1.40005
1.40004
1.40003
1.40002
1.40002
1.40001
1.40001
1.40001
1.40001
1.40001
1.40001
1.40001
1.40001
1.40001
1.40001
1.40001
1.40001
1.40001
1.40001
1.40001
1.40001
1.46662
1.46421
1.45852
1.44995
1.43902
1.42629
1.41232
1.39769
1.383
1.36884
1.3558
1.34445
1.33534
1.32887
1.32534
1.32488
1.32752
1.33316
1.34163
1.35263
1.36571
1.3802
1.39537
1.41054
1.42516
1.43862
1.45013
1.4588
1.46387
1.465
1.46243
1.45691
1.44948
1.44125
1.43312
1.42573
1.41942
1.41429
1.4103
1.40729
1.40509
1.40353
1.40244
1.40169
1.40118
1.40083
1.4006
1.40043
1.40032
1.40024
1.40017
1.40013
1.4001
1.40007
1.40005
1.40004
1.40003
1.40002
1.40002
1.40001
1.40001
1.40001
1.40001
1.40001
1.40001
1.40001
1.40001
1.40001
1.40001
1.40001
1.40001
1.40001
1.40001
1.40001
1.40001
1.46638
1.4664
1.46335
1.45754
1.44943
1.43955
1.42844
1.41664
1.4047
1.39311
1.3824
1.37306
1.36553
1.36014
1.35712
1.35665
1.35877
1.36341
1.37042
1.37955
1.39036
1.40227
1.41467
1.42699
1.43869
1.44914
1.45754
1.46309
1.46524
1.4639
1.45951
1.45289
1.44506
1.43695
1.42928
1.42251
1.41685
1.41232
1.40884
1.40624
1.40436
1.40303
1.4021
1.40147
1.40103
1.40074
1.40053
1.40039
1.40029
1.40022
1.40016
1.40012
1.40009
1.40007
1.40005
1.40004
1.40003
1.40002
1.40001
1.40001
1.40001
1.40001
1.40001
1.40001
1.40001
1.40001
1.40001
1.40001
1.40001
1.40001
1.40001
1.40001
1.40001
1.40001
1.40001
1.46457
1.46675
1.46616
1.46297
1.45752
1.45031
1.44183
1.4326
1.4231
1.41379
1.40513
1.39755
1.3914
1.38695
1.38444
1.38403
1.38576
1.38956
1.39532
1.40279
1.41159
1.42118
1.43106
1.44074
1.44968
1.45721
1.46259
1.4652
1.46472
1.4613
1.45553
1.44825
1.44035
1.43259
1.42551
1.41942
1.41443
1.41049
1.4075
1.40529
1.4037
1.40258
1.4018
1.40126
1.4009
1.40065
1.40048
1.40035
1.40026
1.4002
1.40015
1.40011
1.40008
1.40006
1.40005
1.40003
1.40002
1.40002
1.40001
1.40001
1.40001
1.40001
1.40001
1.40001
1.40001
1.40001
1.40001
1.40001
1.40001
1.40001
1.40001
1.40001
1.40001
1.40001
1.40001
1.46125
1.46527
1.46689
1.46611
1.46317
1.45847
1.45244
1.44556
1.43827
1.43101
1.42418
1.41815
1.41322
1.40964
1.40762
1.40729
1.40869
1.41178
1.41643
1.42243
1.42939
1.43686
1.44443
1.45161
1.45788
1.4626
1.46515
1.4651
1.4624
1.4574
1.45073
1.44318
1.43551
1.42828
1.4219
1.41652
1.41219
1.40882
1.40629
1.40443
1.4031
1.40217
1.40152
1.40108
1.40078
1.40057
1.40042
1.40032
1.40024
1.40018
1.40014
1.4001
1.40008
1.40006
1.40004
1.40003
1.40002
1.40002
1.40001
1.40001
1.40001
1.40001
1.40001
1.40001
1.40001
1.40001
1.40001
1.40001
1.40001
1.40001
1.40001
1.40001
1.40001
1.40001
1.40001
1.45661
1.46205
1.46554
1.46692
1.46629
1.46392
1.46019
1.4555
1.45025
1.44486
1.43969
1.43504
1.4312
1.42841
1.42686
1.42663
1.42775
1.43019
1.43384
1.43846
1.44371
1.44922
1.4546
1.45941
1.46313
1.46521
1.46521
1.46293
1.45853
1.45245
1.44535
1.4379
1.4307
1.42416
1.41852
1.41386
1.41017
1.40733
1.40521
1.40367
1.40258
1.40181
1.40128
1.40092
1.40067
1.40049
1.40037
1.40028
1.40021
1.40016
1.40012
1.40009
1.40007
1.40005
1.40004
1.40003
1.40002
1.40002
1.40001
1.40001
1.40001
1.40001
1.40001
1.40001
1.40001
1.40001
1.40001
1.40001
1.40001
1.40001
1.40001
1.40001
1.40001
1.40001
1.40001
1.45097
1.45732
1.46223
1.46542
1.46683
1.4666
1.46499
1.46234
1.459
1.45534
1.45168
1.44831
1.44549
1.44342
1.44227
1.44211
1.44296
1.4448
1.4475
1.45082
1.45447
1.45812
1.46144
1.46399
1.46535
1.46508
1.46295
1.45897
1.45342
1.4468
1.43969
1.43264
1.42608
1.4203
1.41542
1.41146
1.40836
1.40601
1.40427
1.40301
1.40212
1.4015
1.40107
1.40078
1.40057
1.40043
1.40032
1.40025
1.40019
1.40014
1.40011
1.40008
1.40006
1.40005
1.40003
1.40003
1.40002
1.40001
1.40001
1.40001
1.40001
1.40001
1.40001
1.40001
1.40001
1.40001
1.40001
1.40001
1.40001
1.40001
1.40001
1.40001
1.40001
1.40001
1.40001
1.44471
1.45147
1.45729
1.46183
1.46491
1.46652
1.46681
1.46602
1.46445
1.46239
1.46013
1.45794
1.45605
1.45464
1.45384
1.45372
1.45431
1.45555
1.45732
1.45941
1.46155
1.46347
1.46486
1.46537
1.46466
1.46247
1.45873
1.45362
1.44747
1.44078
1.43401
1.42757
1.42177
1.41678
1.41265
1.40935
1.40679
1.40486
1.40345
1.40244
1.40173
1.40123
1.40089
1.40065
1.40049
1.40037
1.40028
1.40022
1.40017
1.40013
1.4001
1.40007
1.40006
1.40004
1.40003
1.40002
1.40002
1.40001
1.40001
1.40001
1.40001
1.40001
1.40001
1.40001
1.40001
1.40001
1.40001
1.40001
1.40001
1.40001
1.40001
1.40001
1.40001
1.40001
1.40001
1.43827
1.44495
1.45116
1.45652
1.4608
1.46386
1.46575
1.46658
1.46658
1.46597
1.46499
1.46388
1.46284
1.46201
1.46151
1.46141
1.46172
1.46238
1.46326
1.46418
1.46494
1.4653
1.465
1.46378
1.46141
1.45782
1.45306
1.44737
1.44113
1.43473
1.42854
1.42286
1.41787
1.41365
1.41022
1.40751
1.40543
1.40388
1.40276
1.40196
1.40139
1.401
1.40073
1.40054
1.40041
1.40031
1.40024
1.40019
1.40015
1.40011
1.40009
1.40007
1.40005
1.40004
1.40003
1.40002
1.40002
1.40001
1.40001
1.40001
1.40001
1.40001
1.40001
1.40001
1.40001
1.40001
1.40001
1.40001
1.40001
1.40001
1.40001
1.40001
1.40001
1.40001
1.40001
1.432
1.43824
1.44437
1.45005
1.45501
1.45905
1.46212
1.46425
1.46555
1.46618
1.46633
1.46617
1.46585
1.46553
1.46529
1.46518
1.46521
1.46532
1.46539
1.46528
1.46484
1.46388
1.46222
1.45968
1.45617
1.45172
1.44649
1.44074
1.43478
1.42894
1.42348
1.4186
1.41441
1.41092
1.40812
1.40594
1.40428
1.40306
1.40218
1.40155
1.40111
1.40081
1.4006
1.40045
1.40034
1.40027
1.40021
1.40016
1.40013
1.4001
1.40008
1.40006
1.40004
1.40003
1.40003
1.40002
1.40001
1.40001
1.40001
1.40001
1.40001
1.40001
1.40001
1.40001
1.40001
1.40001
1.40001
1.40001
1.40001
1.40001
1.40001
1.40001
1.40001
1.40001
1.40001
1.4262
1.43176
1.43745
1.44301
1.44815
1.45269
1.45649
1.45951
1.46178
1.46337
1.4644
1.46502
1.46532
1.46541
1.46537
1.46524
1.46501
1.46463
1.46402
1.46309
1.4617
1.45975
1.45713
1.45375
1.44962
1.44484
1.4396
1.43414
1.42873
1.42361
1.41895
1.41487
1.41142
1.4086
1.40636
1.40463
1.40333
1.40238
1.4017
1.40122
1.40088
1.40065
1.40049
1.40037
1.40029
1.40023
1.40018
1.40014
1.40011
1.40009
1.40007
1.40005
1.40004
1.40003
1.40002
1.40002
1.40001
1.40001
1.40001
1.40001
1.40001
1.40001
1.40001
1.40001
1.40001
1.40001
1.40001
1.40001
1.40001
1.40001
1.40001
1.40001
1.40001
1.40001
1.40001
1.42105
1.42581
1.43085
1.43594
1.44089
1.44548
1.44956
1.45305
1.4559
1.45813
1.45979
1.46096
1.46171
1.46212
1.46223
1.46207
1.46163
1.46089
1.45978
1.45825
1.45624
1.45367
1.4505
1.44673
1.44243
1.43774
1.43284
1.42793
1.42322
1.41887
1.415
1.41167
1.4089
1.40665
1.40489
1.40355
1.40255
1.40182
1.4013
1.40094
1.40069
1.40051
1.40039
1.4003
1.40024
1.40019
1.40015
1.40012
1.40009
1.40007
1.40006
1.40004
1.40003
1.40003
1.40002
1.40002
1.40001
1.40001
1.40001
1.40001
1.40001
1.40001
1.40001
1.40001
1.40001
1.40001
1.40001
1.40001
1.40001
1.40001
1.40001
1.40001
1.40001
1.40001
1.40001
1.41661
1.42057
1.42485
1.4293
1.43377
1.43808
1.44208
1.44565
1.44873
1.45127
1.45327
1.45478
1.45582
1.45642
1.45663
1.45644
1.45587
1.45489
1.45349
1.45163
1.44929
1.44645
1.44311
1.43934
1.43523
1.43092
1.42656
1.42233
1.41837
1.41479
1.41165
1.40899
1.4068
1.40506
1.4037
1.40268
1.40192
1.40138
1.40099
1.40072
1.40054
1.40041
1.40031
1.40025
1.4002
1.40016
1.40013
1.4001
1.40008
1.40006
1.40005
1.40004
1.40003
1.40002
1.40002
1.40001
1.40001
1.40001
1.40001
1.40001
1.40001
1.40001
1.40001
1.40001
1.40001
1.40001
1.40001
1.40001
1.40001
1.40001
1.40001
1.40001
1.40001
1.40001
1.40001
1.41291
1.41611
1.41963
1.42337
1.42722
1.43104
1.43469
1.43806
1.44106
1.44363
1.44574
1.44736
1.44852
1.44922
1.44947
1.44928
1.44864
1.44757
1.44606
1.4441
1.4417
1.43887
1.43567
1.43217
1.42847
1.4247
1.42099
1.41747
1.41423
1.41136
1.40887
1.4068
1.40511
1.40377
1.40275
1.40198
1.40142
1.40102
1.40074
1.40055
1.40041
1.40032
1.40025
1.4002
1.40016
1.40013
1.40011
1.40009
1.40007
1.40005
1.40004
1.40003
1.40003
1.40002
1.40002
1.40001
1.40001
1.40001
1.40001
1.40001
1.40001
1.40001
1.40001
1.40001
1.40001
1.40001
1.40001
1.40001
1.40001
1.40001
1.40001
1.40001
1.40001
1.40001
1.40001
1.4099
1.41242
1.41524
1.41829
1.42148
1.42471
1.42786
1.43085
1.43358
1.43596
1.43797
1.43956
1.44071
1.44141
1.44166
1.44148
1.44085
1.43979
1.43831
1.43643
1.43416
1.43156
1.42868
1.4256
1.42243
1.41927
1.41622
1.41338
1.4108
1.40854
1.40662
1.40503
1.40376
1.40276
1.402
1.40144
1.40103
1.40075
1.40054
1.40041
1.40031
1.40025
1.4002
1.40016
1.40013
1.40011
1.40009
1.40007
1.40006
1.40005
1.40004
1.40003
1.40002
1.40002
1.40001
1.40001
1.40001
1.40001
1.40001
1.40001
1.40001
1.40001
1.40001
1.40001
1.40001
1.40001
1.40001
1.40001
1.40001
1.40001
1.40001
1.40001
1.40001
1.40001
1.40001
1.40748
1.40944
1.41165
1.41406
1.41662
1.41925
1.42188
1.4244
1.42674
1.42883
1.43061
1.43204
1.43309
1.43374
1.43398
1.4338
1.43323
1.43225
1.4309
1.4292
1.42719
1.42492
1.42245
1.41987
1.41725
1.41469
1.41226
1.41002
1.40803
1.4063
1.40484
1.40365
1.4027
1.40197
1.40142
1.40102
1.40073
1.40053
1.40039
1.4003
1.40023
1.40019
1.40016
1.40013
1.40011
1.40009
1.40007
1.40006
1.40005
1.40004
1.40003
1.40002
1.40002
1.40002
1.40001
1.40001
1.40001
1.40001
1.40001
1.40001
1.40001
1.40001
1.40001
1.40001
1.40001
1.40001
1.40001
1.40001
1.40001
1.40001
1.40001
1.40001
1.40001
1.40001
1.40001
1.4056
1.40709
1.40878
1.41065
1.41265
1.41474
1.41683
1.41888
1.42081
1.42255
1.42405
1.42527
1.42616
1.42672
1.42692
1.42677
1.42626
1.42541
1.42424
1.42279
1.42108
1.41919
1.41716
1.41506
1.41298
1.41096
1.40906
1.40735
1.40583
1.40453
1.40345
1.40258
1.40189
1.40137
1.40098
1.4007
1.40051
1.40037
1.40028
1.40022
1.40017
1.40014
1.40012
1.4001
1.40009
1.40007
1.40006
1.40005
1.40004
1.40003
1.40003
1.40002
1.40002
1.40001
1.40001
1.40001
1.40001
1.40001
1.40001
1.40001
1.40001
1.40001
1.40001
1.40001
1.40001
1.40001
1.40001
1.40001
1.40001
1.40001
1.40001
1.40001
1.40001
1.40001
1.40001
1.40414
1.40526
1.40654
1.40796
1.40949
1.4111
1.41273
1.41434
1.41586
1.41726
1.41847
1.41945
1.42018
1.42064
1.4208
1.42066
1.42022
1.41951
1.41854
1.41734
1.41595
1.41442
1.4128
1.41116
1.40954
1.40798
1.40655
1.40526
1.40413
1.40318
1.4024
1.40177
1.40129
1.40092
1.40066
1.40047
1.40034
1.40025
1.40019
1.40015
1.40013
1.40011
1.40009
1.40008
1.40007
1.40006
1.40005
1.40004
1.40003
1.40003
1.40002
1.40002
1.40001
1.40001
1.40001
1.40001
1.40001
1.40001
1.40001
1.40001
1.40001
1.40001
1.40001
1.40001
1.40001
1.40001
1.40001
1.40001
1.40001
1.40001
1.40001
1.40001
1.40001
1.40001
1.40001
1.40305
1.40387
1.40482
1.40588
1.40703
1.40824
1.40948
1.41071
1.41188
1.41295
1.4139
1.41467
1.41523
1.41558
1.41569
1.41557
1.41521
1.41463
1.41384
1.41288
1.41178
1.41059
1.40934
1.40807
1.40684
1.40568
1.40461
1.40367
1.40285
1.40217
1.40161
1.40118
1.40084
1.4006
1.40042
1.4003
1.40022
1.40017
1.40013
1.40011
1.40009
1.40008
1.40007
1.40006
1.40005
1.40005
1.40004
1.40003
1.40003
1.40002
1.40002
1.40002
1.40001
1.40001
1.40001
1.40001
1.40001
1.40001
1.40001
1.40001
1.40001
1.40001
1.40001
1.40001
1.40001
1.40001
1.40001
1.40001
1.40001
1.40001
1.40001
1.40001
1.40001
1.40001
1.40001
1.40223
1.40284
1.40353
1.4043
1.40515
1.40604
1.40696
1.40788
1.40875
1.40956
1.41027
1.41084
1.41127
1.41153
1.4116
1.41148
1.41119
1.41073
1.41011
1.40936
1.40851
1.4076
1.40665
1.4057
1.40479
1.40393
1.40316
1.40248
1.4019
1.40143
1.40104
1.40075
1.40052
1.40036
1.40025
1.40018
1.40013
1.4001
1.40008
1.40007
1.40006
1.40006
1.40005
1.40005
1.40004
1.40004
1.40003
1.40003
1.40002
1.40002
1.40002
1.40001
1.40001
1.40001
1.40001
1.40001
1.40001
1.40001
1.40001
1.40001
1.40001
1.40001
1.40001
1.40001
1.40001
1.40001
1.40001
1.40001
1.40001
1.40001
1.40001
1.40001
1.40001
1.40001
1.40001
1.40163
1.40207
1.40256
1.40313
1.40374
1.40439
1.40505
1.40572
1.40636
1.40695
1.40746
1.40788
1.40819
1.40836
1.4084
1.4083
1.40806
1.40769
1.40722
1.40665
1.40601
1.40532
1.40462
1.40392
1.40326
1.40265
1.4021
1.40162
1.40122
1.40089
1.40063
1.40044
1.4003
1.4002
1.40014
1.4001
1.40007
1.40006
1.40005
1.40005
1.40005
1.40004
1.40004
1.40004
1.40003
1.40003
1.40003
1.40002
1.40002
1.40002
1.40001
1.40001
1.40001
1.40001
1.40001
1.40001
1.40001
1.40001
1.40001
1.40001
1.40001
1.40001
1.40001
1.40001
1.40001
1.40001
1.40001
1.40001
1.40001
1.40001
1.40001
1.40001
1.40001
1.40001
1.40001
1.40119
1.40151
1.40186
1.40226
1.4027
1.40316
1.40364
1.40411
1.40456
1.40498
1.40534
1.40564
1.40585
1.40596
1.40597
1.40588
1.40569
1.4054
1.40504
1.40461
1.40413
1.40363
1.40312
1.40262
1.40215
1.40171
1.40133
1.40101
1.40074
1.40052
1.40036
1.40023
1.40015
1.40009
1.40006
1.40004
1.40003
1.40003
1.40003
1.40003
1.40003
1.40003
1.40003
1.40003
1.40003
1.40002
1.40002
1.40002
1.40002
1.40001
1.40001
1.40001
1.40001
1.40001
1.40001
1.40001
1.40001
1.40001
1.40001
1.40001
1.40001
1.40001
1.40001
1.40001
1.40001
1.40001
1.40001
1.40001
1.40001
1.40001
1.40001
1.40001
1.40001
1.40001
1.40001
1.40088
1.4011
1.40135
1.40163
1.40194
1.40226
1.40259
1.40292
1.40324
1.40353
1.40377
1.40397
1.40411
1.40418
1.40417
1.40408
1.40393
1.40371
1.40344
1.40312
1.40277
1.40241
1.40204
1.40169
1.40136
1.40106
1.4008
1.40058
1.4004
1.40027
1.40017
1.4001
1.40005
1.40002
1.40001
1.4
1.4
1.40001
1.40001
1.40002
1.40002
1.40002
1.40002
1.40002
1.40002
1.40002
1.40002
1.40001
1.40001
1.40001
1.40001
1.40001
1.40001
1.40001
1.40001
1.40001
1.40001
1.40001
1.40001
1.40001
1.40001
1.40001
1.40001
1.40001
1.40001
1.40001
1.40001
1.40001
1.40001
1.40001
1.40001
1.40001
1.40001
1.40001
1.40001
1.40065
1.4008
1.40098
1.40118
1.40139
1.40162
1.40185
1.40207
1.40228
1.40248
1.40264
1.40276
1.40284
1.40288
1.40286
1.40278
1.40266
1.40249
1.40229
1.40205
1.4018
1.40154
1.40128
1.40104
1.40081
1.40061
1.40044
1.4003
1.40019
1.40011
1.40005
1.40001
1.39999
1.39998
1.39998
1.39998
1.39999
1.4
1.4
1.40001
1.40001
1.40002
1.40002
1.40002
1.40002
1.40002
1.40001
1.40001
1.40001
1.40001
1.40001
1.40001
1.40001
1.40001
1.40001
1.40001
1.40001
1.40001
1.40001
1.40001
1.40001
1.40001
1.40001
1.40001
1.40001
1.40001
1.40001
1.40001
1.40001
1.40001
1.40001
1.40001
1.40001
1.40001
1.40001
1.40049
1.40059
1.40072
1.40086
1.401
1.40115
1.40131
1.40146
1.4016
1.40172
1.40183
1.4019
1.40195
1.40195
1.40193
1.40186
1.40176
1.40163
1.40148
1.40131
1.40113
1.40094
1.40077
1.4006
1.40045
1.40031
1.4002
1.40012
1.40005
1.4
1.39997
1.39996
1.39995
1.39995
1.39996
1.39997
1.39998
1.39999
1.4
1.4
1.40001
1.40001
1.40001
1.40001
1.40001
1.40001
1.40001
1.40001
1.40001
1.40001
1.40001
1.40001
1.40001
1.40001
1.40001
1.40001
1.40001
1.40001
1.40001
1.40001
1.40001
1.40001
1.40001
1.40001
1.40001
1.40001
1.40001
1.40001
1.40001
1.40001
1.40001
1.40001
1.40001
1.40001
1.40001
1.40037
1.40045
1.40054
1.40062
1.40073
1.40083
1.40093
1.40103
1.40112
1.4012
1.40126
1.40129
1.40131
1.40131
1.40128
1.40122
1.40114
1.40104
1.40093
1.4008
1.40067
1.40055
1.40042
1.40031
1.40021
1.40012
1.40006
1.40001
1.39997
1.39995
1.39994
1.39993
1.39994
1.39994
1.39995
1.39997
1.39998
1.39999
1.39999
1.4
1.4
1.40001
1.40001
1.40001
1.40001
1.40001
1.40001
1.40001
1.40001
1.40001
1.40001
1.40001
1.40001
1.40001
1.40001
1.40001
1.40001
1.40001
1.4
1.4
1.4
1.40001
1.40001
1.40001
1.40001
1.40001
1.40001
1.40001
1.40001
1.40001
1.40001
1.40001
1.40001
1.40001
1.40001
1.40028
1.40033
1.4004
1.40047
1.40053
1.4006
1.40067
1.40073
1.40078
1.40083
1.40086
1.40088
1.40088
1.40087
1.40083
1.40078
1.40072
1.40064
1.40056
1.40047
1.40038
1.40029
1.4002
1.40013
1.40007
1.40001
1.39997
1.39994
1.39993
1.39992
1.39992
1.39992
1.39993
1.39994
1.39995
1.39997
1.39998
1.39999
1.39999
1.4
1.4
1.40001
1.40001
1.40001
1.40001
1.40001
1.40001
1.40001
1.40001
1.40001
1.40001
1.40001
1.40001
1.40001
1.40001
1.40001
1.40001
1.40001
1.40001
1.40001
1.40001
1.40001
1.40001
1.40001
1.40001
1.40001
1.40001
1.40001
1.40001
1.40001
1.40001
1.40001
1.40001
1.40001
1.40001
1.40022
1.40026
1.4003
1.40034
1.4004
1.40044
1.40048
1.40052
1.40055
1.40058
1.40059
1.4006
1.40059
1.40057
1.40054
1.40049
1.40044
1.40038
1.40032
1.40025
1.40019
1.40013
1.40007
1.40002
1.39998
1.39995
1.39993
1.39991
1.39991
1.39991
1.39991
1.39992
1.39993
1.39994
1.39996
1.39997
1.39998
1.39998
1.39999
1.4
1.4
1.4
1.40001
1.40001
1.40001
1.40001
1.40001
1.40001
1.40001
1.40001
1.40001
1.40001
1.40001
1.40001
1.40001
1.40001
1.40001
1.40001
1.40001
1.4
1.40001
1.40001
1.40001
1.40001
1.40001
1.40001
1.40001
1.40001
1.40001
1.40001
1.40001
1.40001
1.40001
1.40001
1.40001
1.40017
1.4002
1.40023
1.40027
1.40029
1.40032
1.40035
1.40037
1.40039
1.4004
1.40041
1.4004
1.40039
1.40037
1.40034
1.4003
1.40026
1.40022
1.40017
1.40012
1.40007
1.40003
1.39999
1.39996
1.39994
1.39992
1.39991
1.3999
1.3999
1.39991
1.39992
1.39993
1.39994
1.39995
1.39996
1.39997
1.39998
1.39999
1.39999
1.4
1.4
1.4
1.4
1.40001
1.40001
1.40001
1.40001
1.40001
1.40001
1.40001
1.40001
1.40001
1.40001
1.40001
1.40001
1.40001
1.40001
1.40001
1.40001
1.40001
1.40001
1.40001
1.40001
1.40001
1.40001
1.40001
1.40001
1.40001
1.40001
1.40001
1.40001
1.40001
1.40001
1.40001
1.40001
1.40014
1.40016
1.40018
1.4002
1.40022
1.40024
1.40026
1.40027
1.40028
1.40029
1.40028
1.40027
1.40026
1.40024
1.40021
1.40018
1.40015
1.40011
1.40008
1.40004
1.40001
1.39998
1.39995
1.39993
1.39992
1.39991
1.3999
1.39991
1.39991
1.39992
1.39993
1.39994
1.39995
1.39996
1.39997
1.39997
1.39998
1.39999
1.39999
1.4
1.4
1.4
1.4
1.40001
1.40001
1.40001
1.40001
1.40001
1.40001
1.40001
1.40001
1.40001
1.40001
1.40001
1.40001
1.40001
1.40001
1.40001
1.4
1.4
1.40001
1.40001
1.40001
1.40001
1.40001
1.40001
1.40001
1.40001
1.40001
1.40001
1.40001
1.40001
1.40001
1.40001
1.40001
1.40011
1.40012
1.40014
1.40016
1.40017
1.40019
1.40019
1.4002
1.4002
1.4002
1.4002
1.40019
1.40018
1.40016
1.40013
1.40011
1.40008
1.40005
1.40003
1.4
1.39998
1.39995
1.39994
1.39993
1.39992
1.39991
1.39991
1.39991
1.39992
1.39993
1.39994
1.39995
1.39996
1.39996
1.39997
1.39998
1.39999
1.39999
1.4
1.4
1.4
1.4
1.4
1.4
1.40001
1.40001
1.40001
1.40001
1.40001
1.40001
1.40001
1.40001
1.4
1.4
1.4
1.40001
1.40001
1.40001
1.40001
1.40001
1.40001
1.40001
1.40001
1.40001
1.40001
1.40001
1.40001
1.40001
1.40001
1.40001
1.40001
1.40001
1.40001
1.40001
1.40001
1.40009
1.4001
1.40011
1.40012
1.40013
1.40014
1.40015
1.40015
1.40015
1.40015
1.40014
1.40013
1.40012
1.4001
1.40009
1.40006
1.40004
1.40002
1.4
1.39998
1.39996
1.39995
1.39994
1.39993
1.39992
1.39992
1.39992
1.39993
1.39993
1.39994
1.39995
1.39995
1.39996
1.39997
1.39998
1.39998
1.39999
1.39999
1.4
1.4
1.4
1.4
1.4
1.4
1.40001
1.40001
1.40001
1.40001
1.40001
1.40001
1.40001
1.40001
1.40001
1.40001
1.40001
1.40001
1.40001
1.40001
1.40001
1.40001
1.40001
1.40001
1.40001
1.40001
1.40001
1.40001
1.40001
1.40001
1.40001
1.40001
1.40001
1.40001
1.40001
1.40001
1.40001
1.40007
1.40008
1.40009
1.4001
1.4001
1.40011
1.40011
1.40011
1.40011
1.40011
1.4001
1.40009
1.40008
1.40007
1.40005
1.40004
1.40002
1.4
1.39999
1.39997
1.39996
1.39995
1.39994
1.39993
1.39993
1.39993
1.39993
1.39994
1.39994
1.39995
1.39996
1.39996
1.39997
1.39998
1.39998
1.39999
1.39999
1.4
1.4
1.4
1.4
1.4
1.4
1.4
1.4
1.40001
1.40001
1.40001
1.40001
1.40001
1.40001
1.40001
1.40001
1.40001
1.40001
1.40001
1.40001
1.40001
1.40001
1.40001
1.40001
1.40001
1.40001
1.40001
1.40001
1.40001
1.40001
1.40001
1.40001
1.40001
1.40001
1.40001
1.40001
1.40001
1.40001
1.40005
1.40006
1.40007
1.40007
1.40008
1.40008
1.40009
1.40009
1.40009
1.40008
1.40008
1.40007
1.40006
1.40005
1.40003
1.40002
1.40001
1.39999
1.39998
1.39997
1.39996
1.39995
1.39995
1.39995
1.39994
1.39994
1.39995
1.39995
1.39996
1.39996
1.39997
1.39997
1.39998
1.39998
1.39999
1.39999
1.39999
1.4
1.4
1.4
1.4
1.4
1.4
1.4
1.4
1.40001
1.40001
1.40001
1.40001
1.40001
1.4
1.4
1.40001
1.40001
1.40001
1.40001
1.40001
1.40001
1.40001
1.40001
1.40001
1.40001
1.40001
1.40001
1.40001
1.40001
1.40001
1.40001
1.40001
1.40001
1.40001
1.40001
1.40001
1.40001
1.40001
1.40004
1.40005
1.40006
1.40006
1.40006
1.40006
1.40007
1.40007
1.40006
1.40006
1.40006
1.40005
1.40004
1.40003
1.40002
1.40001
1.4
1.39999
1.39998
1.39997
1.39997
1.39996
1.39996
1.39996
1.39996
1.39996
1.39996
1.39996
1.39997
1.39997
1.39997
1.39998
1.39998
1.39999
1.39999
1.39999
1.4
1.4
1.4
1.4
1.4
1.4
1.4
1.40001
1.40001
1.40001
1.40001
1.40001
1.40001
1.40001
1.40001
1.40001
1.40001
1.40001
1.40001
1.40001
1.40001
1.40001
1.40001
1.40001
1.40001
1.40001
1.40001
1.40001
1.40001
1.40001
1.40001
1.40001
1.40001
1.40001
1.40001
1.40001
1.40001
1.40001
1.40001
1.40004
1.40004
1.40004
1.40005
1.40005
1.40005
1.40005
1.40005
1.40005
1.40005
1.40004
1.40004
1.40003
1.40002
1.40002
1.40001
1.4
1.39999
1.39998
1.39998
1.39997
1.39997
1.39997
1.39996
1.39996
1.39997
1.39997
1.39997
1.39997
1.39998
1.39998
1.39999
1.39999
1.39999
1.39999
1.4
1.4
1.4
1.4
1.4
1.4
1.4
1.4
1.4
1.40001
1.40001
1.40001
1.4
1.4
1.4
1.4
1.4
1.40001
1.40001
1.40001
1.40001
1.40001
1.40001
1.40001
1.40001
1.40001
1.40001
1.40001
1.40001
1.40001
1.40001
1.40001
1.40001
1.40001
1.40001
1.40001
1.40001
1.40001
1.40001
1.40001
1.40003
1.40003
1.40003
1.40004
1.40004
1.40004
1.40004
1.40004
1.40004
1.40004
1.40003
1.40003
1.40002
1.40002
1.40001
1.40001
1.4
1.39999
1.39999
1.39998
1.39998
1.39998
1.39998
1.39997
1.39997
1.39997
1.39998
1.39998
1.39998
1.39998
1.39999
1.39999
1.39999
1.39999
1.4
1.4
1.4
1.4
1.4
1.4
1.4
1.4
1.4
1.4
1.4
1.4
1.40001
1.40001
1.40001
1.40001
1.40001
1.40001
1.40001
1.40001
1.40001
1.40001
1.4
1.40001
1.40001
1.40001
1.40001
1.40001
1.40001
1.40001
1.40001
1.40001
1.40001
1.40001
1.40001
1.40001
1.40001
1.40001
1.40001
1.40001
1.40001
1.40002
1.40002
1.40003
1.40003
1.40003
1.40003
1.40003
1.40003
1.40003
1.40003
1.40003
1.40002
1.40002
1.40001
1.40001
1.4
1.4
1.39999
1.39999
1.39999
1.39999
1.39998
1.39998
1.39998
1.39998
1.39998
1.39998
1.39998
1.39999
1.39999
1.39999
1.39999
1.4
1.4
1.4
1.4
1.4
1.4
1.4
1.4
1.4
1.4
1.4
1.4
1.4
1.4
1.4
1.4
1.40001
1.40001
1.40001
1.40001
1.40001
1.40001
1.40001
1.40001
1.40001
1.40001
1.40001
1.40001
1.40001
1.40001
1.40001
1.40001
1.40001
1.40001
1.40001
1.40001
1.40001
1.40001
1.40001
1.40001
1.40001
1.40001
1.40001
1.40002
1.40002
1.40002
1.40002
1.40002
1.40002
1.40003
1.40002
1.40002
1.40002
1.40002
1.40002
1.40001
1.40001
1.40001
1.4
1.4
1.4
1.39999
1.39999
1.39999
1.39999
1.39999
1.39999
1.39999
1.39999
1.39999
1.39999
1.39999
1.39999
1.39999
1.4
1.4
1.4
1.4
1.4
1.4
1.4
1.4
1.4
1.4
1.4
1.4
1.4
1.40001
1.40001
1.40001
1.4
1.4
1.4
1.40001
1.40001
1.40001
1.40001
1.4
1.4
1.4
1.4
1.40001
1.40001
1.40001
1.40001
1.40001
1.40001
1.40001
1.40001
1.40001
1.40001
1.40001
1.40001
1.40001
1.40001
1.40001
1.40001
1.40001
1.40001
1.40002
1.40002
1.40002
1.40002
1.40002
1.40002
1.40002
1.40002
1.40002
1.40002
1.40001
1.40001
1.40001
1.40001
1.4
1.4
1.4
1.4
1.39999
1.39999
1.39999
1.39999
1.39999
1.39999
1.39999
1.39999
1.39999
1.39999
1.4
1.4
1.4
1.4
1.4
1.4
1.4
1.4
1.4
1.4
1.4
1.4
1.4
1.4
1.4
1.4
1.4
1.40001
1.40001
1.40001
1.40001
1.4
1.4
1.40001
1.40001
1.40001
1.40001
1.40001
1.40001
1.40001
1.4
1.4
1.4
1.4
1.40001
1.40001
1.40001
1.40001
1.40001
1.40001
1.40001
1.40001
1.40001
1.40001
1.40001
1.40001
1.40001
1.40001
1.40001
1.40001
1.40002
1.40002
1.40002
1.40001
1.40001
1.40001
1.40001
1.40001
1.40001
1.40001
1.40001
1.4
1.4
1.4
1.4
1.4
1.4
1.4
1.4
1.39999
1.39999
1.4
1.4
1.4
1.4
1.4
1.4
1.4
1.4
1.4
1.4
1.4
1.4
1.4
1.4
1.4
1.4
1.4
1.40001
1.40001
1.40001
1.40001
1.4
1.4
1.4
1.40001
1.40001
1.40001
1.40001
1.4
1.4
1.4
1.4
1.40001
1.40001
1.40001
1.40001
1.40001
1.40001
1.40001
1.40001
1.40001
1.40001
1.40001
1.40001
1.40001
1.40001
1.40001
1.40001
1.40001
1.40001
1.40001
1.40001
1.40001
1.40001
1.40001
1.40001
1.40001
1.40001
1.40001
1.40001
1.40001
1.40001
1.40001
1.40001
1.40001
1.4
1.4
1.4
1.4
1.4
1.4
1.4
1.4
1.4
1.4
1.4
1.4
1.4
1.4
1.4
1.4
1.4
1.4
1.4
1.4
1.4
1.4
1.4
1.4
1.4
1.4
1.40001
1.40001
1.4
1.4
1.4
1.4
1.40001
1.4
1.4
1.4
1.40001
1.40001
1.40001
1.40001
1.40001
1.40001
1.40001
1.4
1.4
1.4
1.4
1.40001
1.40001
1.40001
1.40001
1.40001
1.40001
1.40001
1.40001
1.40001
1.40001
1.40001
1.40001
1.40001
1.40001
1.40001
1.40001
1.40001
1.40001
1.40001
1.40001
1.40001
1.40001
1.40001
1.40001
1.40001
1.40001
1.40001
1.40001
1.4
1.4
1.4
1.4
1.4
1.4
1.4
1.4
1.4
1.4
1.4
1.4
1.4
1.4
1.4
1.4
1.4
1.4
1.4
1.4
1.4
1.4
1.4
1.4
1.4
1.4
1.4
1.4
1.40001
1.40001
1.40001
1.4
1.40001
1.40001
1.40001
1.40001
1.40001
1.4
1.4
1.4
1.40001
1.40001
1.40001
1.40001
1.40001
1.40001
1.40001
1.40001
1.40001
1.40001
1.40001
1.40001
1.40001
1.40001
1.40001
1.40001
1.40001
1.40001
1.40001
1.40001
1.40001
1.40001
1.40001
1.40001
1.40001
1.40001
1.40001
1.40001
1.40001
1.40001
1.40001
1.40001
1.40001
1.40001
1.40001
1.4
1.4
1.4
1.4
1.4
1.4
1.4
1.4
1.4
1.4
1.4
1.4
1.4
1.4
1.4
1.4
1.4
1.4
1.4
1.4
1.4
1.4
1.4
1.4
1.40001
1.40001
1.40001
1.4
1.4
1.4
1.4
1.40001
1.40001
1.40001
1.40001
1.40001
1.40001
1.40001
1.40001
1.40001
1.40001
1.4
1.4
1.4
1.4
1.4
1.40001
1.40001
1.40001
1.40001
1.40001
1.40001
1.40001
1.40001
1.40001
1.40001
1.40001
1.40001
1.40001
1.40001
1.40001
1.40001
1.40001
1.40001
1.40001
1.40001
1.40001
1.40001
1.40001
1.40001
1.40001
1.40001
1.40001
1.40001
1.40001
1.40001
1.4
1.4
1.4
1.4
1.4
1.4
1.4
1.4
1.4
1.4
1.4
1.4
1.4
1.4
1.4
1.4
1.4
1.4
1.4
1.4
1.4
1.4
1.4
1.4
1.4
1.4
1.40001
1.40001
1.40001
1.4
1.4
1.4
1.40001
1.40001
1.40001
1.40001
1.40001
1.40001
1.40001
1.40001
1.40001
1.40001
1.40001
1.40001
1.40001
1.40001
1.40001
1.40001
1.40001
1.40001
1.40001
1.40001
1.40001
1.40001
1.40001
1.40001
1.40001
1.40001
1.40001
1.40001
1.40001
1.40001
1.40001
1.40001
1.40001
1.40001
1.40001
1.40001
1.40001
1.40001
1.40001
1.40001
1.40001
1.40001
1.4
1.4
1.4
1.4
1.4
1.4
1.4
1.4
1.4
1.4
1.4
1.4
1.4
1.4
1.4
1.4
1.4
1.4
1.4
1.4
1.4
1.4
1.4
1.4
1.4
1.4
1.4
1.4
1.4
1.40001