/*--------------------------------*- C++ -*----------------------------------*\
  =========                 |
  \\      /  F ield         | OpenFOAM: The Open Source CFD Toolbox
   \\    /   O peration     | Website:  https://openfoam.org
    \\  /    A nd           | Version:  6
     \\/     M anipulation  |
\*---------------------------------------------------------------------------*/
FoamFile
{
    version     2.0;
    format      ascii;
    class       volScalarField;
    location    "3.66";
    object      epsilon;
}
// * * * * * * * * * * * * * * * * * * * * * * * * * * * * * * * * * * * * * //

dimensions      [0 2 -3 0 0 0 0];

internalField   nonuniform List<scalar> 
4214
(
0.0950373
0.0415873
0.0220574
0.0147496
0.0123618
0.0125446
0.0151934
0.0221509
0.0385715
0.0761917
0.158442
0.322901
0.60925
1.02458
1.50976
1.94696
2.22515
2.28448
2.19839
2.01464
1.78679
1.57642
1.42417
1.36824
1.41648
1.58278
1.84212
2.07299
2.03496
1.62116
1.01358
0.510098
0.216886
0.0844758
0.0347154
0.0181543
0.0138221
0.0153809
0.0235582
0.0461804
0.107985
0.0223465
0.0150631
0.0120845
0.0110883
0.0112843
0.0126664
0.0159931
0.0232713
0.0391839
0.0737101
0.145948
0.285449
0.522418
0.860778
1.25362
1.60312
1.82177
1.8795
1.80331
1.64864
1.47248
1.31893
1.22353
1.20772
1.29533
1.50011
1.79026
2.038
2.05184
1.70999
1.13706
0.607548
0.271697
0.109489
0.0448477
0.021775
0.0139677
0.0117067
0.012001
0.0145265
0.0209301
0.0129397
0.0112996
0.0107065
0.0108123
0.0116373
0.0135182
0.0173422
0.0249892
0.0405484
0.072168
0.134584
0.249128
0.435778
0.694813
0.98787
1.24241
1.39894
1.44012
1.38777
1.28378
1.16774
1.07168
1.02001
1.03925
1.16277
1.41156
1.74555
2.01659
2.04379
1.72979
1.18826
0.664894
0.313615
0.132872
0.0559969
0.0267563
0.0160612
0.0121961
0.0110209
0.0111409
0.0122293
0.0111015
0.010653
0.0106844
0.0112
0.0124305
0.0148141
0.019287
0.0275588
0.0431565
0.0725374
0.126672
0.22004
0.364643
0.557773
0.7699
0.951749
1.06433
1.09793
1.06825
1.00322
0.930291
0.873347
0.855538
0.906973
1.07179
1.37634
1.76651
2.06191
2.07545
1.74965
1.20834
0.692461
0.341044
0.152509
0.0673464
0.032665
0.0190277
0.0136093
0.0115204
0.0109153
0.0110577
0.0107413
0.0107271
0.0110638
0.0118922
0.0135806
0.0166242
0.0220205
0.0312878
0.0474557
0.0754576
0.123182
0.199881
0.312082
0.455649
0.609186
0.740356
0.824391
0.855861
0.845574
0.81108
0.770774
0.743109
0.750132
0.827616
1.03175
1.39503
1.84529
2.15988
2.13448
1.75326
1.18821
0.681164
0.345783
0.163462
0.076831
0.0388354
0.0226117
0.0155788
0.0125462
0.0113841
0.0111239
0.0109074
0.0111072
0.0116896
0.0128769
0.0151926
0.0191657
0.025908
0.0367186
0.0542488
0.0821197
0.1259
0.191212
0.281213
0.391851
0.508356
0.609628
0.679724
0.714609
0.720817
0.70884
0.691151
0.68273
0.706331
0.806161
1.05236
1.48366
2.00168
2.3213
2.22171
1.74226
1.13435
0.637408
0.329261
0.164213
0.0829723
0.0445431
0.0265598
0.0180029
0.013953
0.0121949
0.0116337
0.0113224
0.0116815
0.012563
0.0142485
0.0174877
0.0228028
0.0315294
0.044687
0.0647388
0.094214
0.137168
0.196923
0.27486
0.367728
0.465444
0.55379
0.621078
0.662852
0.682023
0.685334
0.682216
0.685848
0.720954
0.842885
1.14066
1.6548
2.24601
2.54039
2.31481
1.6995
1.04302
0.568318
0.297813
0.156726
0.0854941
0.0491815
0.0305087
0.0207258
0.0156793
0.0132687
0.0123812
0.0118985
0.0124461
0.0137806
0.0162098
0.020855
0.0281354
0.039816
0.0564999
0.0807445
0.114158
0.160013
0.220368
0.295603
0.383098
0.475471
0.562009
0.632985
0.682718
0.711563
0.724479
0.730435
0.741829
0.787709
0.937875
1.30491
1.92393
2.58942
2.80164
2.38029
1.60221
0.917121
0.486092
0.26155
0.145825
0.0857903
0.0526702
0.0341395
0.0235182
0.0176188
0.014562
0.013309
0.0126388
0.0134768
0.0155578
0.0191306
0.0259704
0.0361638
0.0522851
0.0742196
0.10502
0.145409
0.198409
0.265412
0.345968
0.437323
0.532975
0.623351
0.699726
0.755927
0.791578
0.810755
0.822455
0.840524
0.900152
1.09134
1.55597
2.30647
3.03624
3.06579
2.37033
1.42928
0.770613
0.406472
0.23094
0.136696
0.0861202
0.0554753
0.0373453
0.0261523
0.0196267
0.0160148
0.0143923
0.0136332
0.0149527
0.0183154
0.0236814
0.0340336
0.0486007
0.0714513
0.101126
0.141713
0.192842
0.257488
0.336482
0.428123
0.528638
0.631329
0.726634
0.807101
0.867737
0.908563
0.932813
0.947517
0.972618
1.05379
1.30752
1.91118
2.81884
3.57274
3.25826
2.22142
1.19253
0.635175
0.346619
0.21439
0.132798
0.0884777
0.0582244
0.0403236
0.0285261
0.0216013
0.017556
0.0156113
0.0151018
0.0172287
0.0228758
0.0311134
0.0472365
0.0684463
0.101525
0.142441
0.197013
0.263181
0.343658
0.438423
0.543952
0.654977
0.764618
0.863297
0.945995
1.00952
1.05519
1.08103
1.09722
1.13155
1.24724
1.59702
2.39833
3.4772
4.15048
3.24882
1.93062
0.959988
0.54443
0.318432
0.216226
0.135902
0.0948463
0.0617562
0.0437847
0.0308271
0.0236422
0.0191764
0.016994
0.0175072
0.0209986
0.0309023
0.0438389
0.069678
0.101036
0.149563
0.206392
0.279917
0.36535
0.464566
0.576383
0.695353
0.814984
0.929324
1.02906
1.11284
1.17884
1.2247
1.24995
1.26543
1.31296
1.48353
1.97962
3.05755
4.28762
4.57161
2.96897
1.59664
0.803636
0.51661
0.326672
0.238697
0.148863
0.108742
0.0678079
0.0494104
0.0336913
0.0262185
0.0209914
0.0185912
0.0218385
0.0276721
0.045895
0.0666289
0.109118
0.155855
0.227234
0.305559
0.402966
0.510567
0.628944
0.756062
0.885199
1.00944
1.1255
1.22423
1.30897
1.37143
1.4139
1.43402
1.44617
1.51556
1.77286
2.49601
3.9779
5.09639
4.64214
2.51959
1.34121
0.758541
0.551477
0.374139
0.287065
0.179155
0.136981
0.0799412
0.0604109
0.0382779
0.0302921
0.023248
0.0205926
0.0303477
0.0402355
0.0754449
0.108994
0.180188
0.249398
0.353213
0.458183
0.582656
0.712182
0.846734
0.984656
1.11873
1.24266
1.35778
1.45279
1.53247
1.5845
1.61716
1.62645
1.6331
1.74278
2.15134
3.31922
5.07832
5.54222
4.35843
2.10624
1.23808
0.813531
0.645174
0.470545
0.375189
0.241128
0.191437
0.104385
0.0821665
0.0463982
0.0375207
0.0263701
0.0233937
0.0485025
0.0651668
0.13616
0.189491
0.309752
0.408805
0.555747
0.688769
0.839601
0.98603
1.13014
1.27233
1.40475
1.5234
1.63349
1.71293
1.7813
1.81095
1.82672
1.82021
1.82517
2.03047
2.83995
4.56323
5.8811
5.48693
3.8213
1.88119
1.28071
0.947079
0.803239
0.635641
0.528227
0.356824
0.290993
0.150653
0.123044
0.0607792
0.0505517
0.0309989
0.0276685
0.0900971
0.116335
0.263671
0.341923
0.544559
0.6743
0.874441
1.02722
1.19906
1.35145
1.49545
1.63437
1.75709
1.85848
1.95092
2.00061
2.04886
2.03939
2.03578
2.01607
2.05949
2.61926
4.09818
5.61852
6.13379
5.15909
3.32327
1.87838
1.4328
1.15654
1.0446
0.897773
0.784132
0.557931
0.467343
0.232729
0.196762
0.0855635
0.0736267
0.0382121
0.0345755
0.189456
0.221315
0.530171
0.619845
0.960548
1.0961
1.36226
1.50695
1.69489
1.83352
1.96606
2.08863
2.1767
2.24869
2.30662
2.3067
2.32337
2.26261
2.25542
2.26135
2.54434
3.53649
4.69668
5.78804
5.90994
4.75122
3.28029
1.95939
1.75608
1.43101
1.40729
1.30127
1.19945
0.888704
0.776763
0.36825
0.326767
0.126237
0.113504
0.049637
0.0460068
0.0297074
0.0259589
0.0231435
0.0209172
0.019094
0.0175626
0.0162299
0.0150246
0.013929
0.0129578
0.0121374
0.0115119
0.0112068
0.0116777
0.01467
0.0364029
0.283969
0.0291167
0.0255355
0.0228871
0.0208317
0.0191446
0.0176989
0.0164154
0.0152649
0.0142457
0.013351
0.0126005
0.0120302
0.0117778
0.0122997
0.0153795
0.0368303
0.27214
0.0260799
0.0240336
0.0222727
0.0207098
0.0192926
0.0180024
0.0168204
0.0157456
0.0147809
0.0139291
0.0132062
0.0126629
0.0124468
0.0130188
0.0162099
0.0380213
0.267002
0.0259311
0.0240288
0.022411
0.020982
0.0196825
0.0184877
0.0173839
0.0163661
0.0154388
0.0146131
0.0139095
0.0133848
0.0131946
0.0138132
0.0171386
0.0396756
0.268796
0.0251785
0.0238058
0.0225318
0.0213274
0.0201782
0.0190864
0.0180566
0.0170898
0.016195
0.0153882
0.0146959
0.0141808
0.0140067
0.0146666
0.0181478
0.041859
0.277125
0.0252563
0.0239985
0.0228354
0.0217421
0.0206979
0.0196987
0.0187456
0.0178399
0.016988
0.0162066
0.0155276
0.0150204
0.0148583
0.0155593
0.0192278
0.0444859
0.291518
0.0253162
0.0242518
0.0232315
0.0222484
0.0212944
0.0203691
0.0194753
0.0186166
0.0177986
0.0170389
0.0163733
0.0158774
0.015734
0.0164917
0.020398
0.0475809
0.311923
0.0255214
0.0245643
0.0236369
0.0227366
0.0218572
0.020997
0.0201585
0.0193464
0.0185693
0.0178449
0.0172102
0.0167444
0.01664
0.0174839
0.0217123
0.0512408
0.338674
0.0259045
0.0250157
0.0241521
0.0233101
0.0224843
0.0216722
0.0208758
0.0201008
0.0193594
0.0186717
0.0180754
0.0176518
0.0176065
0.0185786
0.0232554
0.0556315
0.37232
0.0261897
0.0254107
0.0246338
0.0238636
0.0230992
0.022341
0.021593
0.0208639
0.0201682
0.0195284
0.0189833
0.018619
0.0186611
0.0198271
0.0251367
0.0610126
0.413567
0.0267286
0.0259647
0.0252195
0.0244874
0.0237636
0.0230474
0.0223436
0.0216623
0.0210187
0.0204349
0.0199525
0.0196674
0.0198374
0.021294
0.0274911
0.0676914
0.463169
0.0270711
0.0264243
0.025764
0.0250985
0.0244315
0.0237689
0.0231203
0.0224983
0.0219184
0.0214033
0.0209999
0.0208221
0.0211792
0.023063
0.0304855
0.0760422
0.522346
0.0277117
0.0270511
0.0264082
0.0257748
0.0251493
0.0245368
0.0239473
0.023392
0.022885
0.0224513
0.022148
0.0221176
0.0227466
0.0252451
0.0343304
0.08653
0.592505
0.0281068
0.027574
0.0270172
0.0264522
0.0258908
0.0253459
0.0248298
0.0243535
0.0239324
0.0235982
0.0234264
0.0236021
0.024621
0.0279802
0.0392854
0.0997142
0.675287
0.0288343
0.0282679
0.027725
0.0271996
0.0266961
0.0262229
0.0257882
0.0254014
0.0250813
0.0248719
0.0248769
0.025343
0.0269144
0.0314487
0.0456414
0.116163
0.772436
0.0292895
0.0288641
0.0284154
0.0279726
0.0275539
0.0271711
0.0268327
0.0265512
0.0263551
0.0263087
0.026556
0.0274306
0.0297708
0.035878
0.0537721
0.136502
0.885746
0.0300977
0.02963
0.0292087
0.0288302
0.0284971
0.0282125
0.0279826
0.0278261
0.0277864
0.0279569
0.0285386
0.0299811
0.0333651
0.0415272
0.0640784
0.161142
1.0151
0.0306307
0.0303224
0.0300158
0.0297456
0.0295232
0.0293549
0.0292538
0.0292518
0.0294151
0.0298783
0.0309194
0.0331349
0.0379026
0.0486937
0.0769949
0.190543
1.16019
0.0315138
0.0311773
0.0309329
0.0307612
0.0306542
0.030616
0.0306682
0.0308605
0.0312909
0.0321486
0.033809
0.0370521
0.0436097
0.0576994
0.0929129
0.225753
1.32142
0.0321503
0.0320003
0.031899
0.031861
0.0318912
0.032007
0.0322477
0.0326892
0.0334707
0.0348516
0.0373291
0.041905
0.0507226
0.0688709
0.112373
0.267638
1.49697
0.0331039
0.0329693
0.032973
0.0330653
0.0332461
0.0335438
0.0340188
0.0347791
0.0360164
0.0380764
0.0416041
0.0478612
0.0594598
0.0825076
0.135824
0.316893
1.67977
0.0338712
0.0339496
0.034116
0.0343645
0.0347225
0.0352405
0.0360071
0.0371706
0.0389874
0.0419075
0.046751
0.055078
0.0700299
0.0989014
0.163783
0.375106
1.86654
0.0348891
0.0350442
0.0353505
0.0357642
0.0363272
0.0371106
0.0382353
0.0398984
0.0424334
0.0464131
0.0528575
0.0636568
0.0825507
0.118206
0.196572
0.443471
2.04675
0.0358033
0.0361761
0.0366547
0.0372594
0.0380627
0.0391621
0.0407177
0.0429834
0.046382
0.0516247
0.0599505
0.0736053
0.0970068
0.140352
0.23403
0.520291
2.21333
0.0368785
0.0373816
0.0380295
0.0388475
0.0399282
0.0413964
0.0434561
0.0464248
0.0508225
0.0575096
0.0679588
0.0848088
0.113251
0.165179
0.276025
0.602128
2.36168
0.0379459
0.0386255
0.0394636
0.0405218
0.0419164
0.0438064
0.0464442
0.0502116
0.0557284
0.0639956
0.0766962
0.0968213
0.130252
0.190568
0.317405
0.677391
2.50063
0.0390767
0.0399154
0.0409549
0.0422753
0.0440117
0.0463545
0.0495992
0.054194
0.0608441
0.0706762
0.0855634
0.108823
0.146978
0.215004
0.35595
0.744397
2.61782
0.040228
0.0412318
0.042483
0.0440765
0.0461668
0.0489745
0.0528341
0.058247
0.0659897
0.0772881
0.094165
0.120196
0.162407
0.236838
0.388887
0.797779
2.69582
0.0414014
0.042575
0.04404
0.0459087
0.0483526
0.0516169
0.0560653
0.0622371
0.0709552
0.0835063
0.102003
0.130177
0.175355
0.254168
0.413053
0.831332
2.71623
0.0426026
0.0439467
0.0456247
0.0477618
0.0505446
0.0542351
0.0592134
0.0660345
0.0755346
0.089011
0.108588
0.138018
0.18466
0.265156
0.425512
0.840075
2.66528
0.043846
0.045366
0.0472516
0.0496424
0.052736
0.0568031
0.0622243
0.0695449
0.079576
0.0935693
0.113572
0.143207
0.189583
0.268736
0.424736
0.822276
2.53979
0.0451513
0.04686
0.0489578
0.0515891
0.054959
0.0593404
0.0651025
0.0727582
0.0830583
0.0971565
0.116943
0.145771
0.190234
0.265227
0.411527
0.780115
2.35
0.0465348
0.0484685
0.0508066
0.05369
0.0573182
0.0619584
0.0679655
0.0758142
0.0861789
0.100084
0.119205
0.146527
0.187938
0.256735
0.389337
0.720199
2.11682
0.0479925
0.0502017
0.05285
0.0560613
0.0600087
0.0649268
0.0711393
0.0790988
0.0894397
0.103084
0.121481
0.147191
0.185278
0.247163
0.36419
0.652547
1.86502
0.0494943
0.0520135
0.0550257
0.0586557
0.0630648
0.0684575
0.0750986
0.0833557
0.0937986
0.107354
0.125448
0.15027
0.18596
0.241968
0.344153
0.589176
1.61646
0.051052
0.0539083
0.0573303
0.061447
0.0664245
0.0724702
0.0798467
0.0888805
0.100079
0.114309
0.133139
0.158721
0.194363
0.247603
0.338644
0.543706
1.38625
0.0527111
0.0559503
0.0598538
0.0645736
0.0702989
0.0772696
0.0857007
0.0960307
0.108902
0.125234
0.146613
0.175624
0.215103
0.27115
0.358602
0.531233
1.18239
0.0545126
0.0582002
0.0626824
0.0681484
0.0748478
0.0829708
0.092936
0.105329
0.120966
0.141105
0.167831
0.204288
0.253347
0.320784
0.417539
0.573458
1.00736
0.0564571
0.0606741
0.0658487
0.0722401
0.0801355
0.0898627
0.102037
0.117465
0.137356
0.163619
0.199481
0.248983
0.315896
0.407721
0.53504
0.705739
0.860176
0.0585268
0.0634073
0.0695362
0.077151
0.0865786
0.0985047
0.113781
0.133654
0.160027
0.195958
0.246708
0.317097
0.414148
0.5506
0.74441
0.998308
0.738044
0.163509
0.178912
0.193583
0.207441
0.220299
0.231743
0.241422
0.248989
0.254247
0.25707
0.257464
0.255512
0.251389
0.245327
0.23759
0.228482
0.218323
0.207445
0.196176
0.184781
0.172235
0.160007
0.150215
0.141069
0.132595
0.124773
0.11758
0.110982
0.10495
0.0994575
0.0944563
0.0899051
0.0857592
0.0819879
0.0785586
0.0754266
0.0724936
0.0696156
0.0666096
0.0634209
0.0603874
0.189097
0.207529
0.224867
0.241294
0.256478
0.269911
0.281098
0.289638
0.295262
0.297841
0.297398
0.294078
0.288147
0.279942
0.269852
0.258294
0.245695
0.232467
0.218984
0.205557
0.191085
0.177172
0.165864
0.155376
0.145716
0.136843
0.128723
0.121301
0.114555
0.108427
0.10288
0.097839
0.0932767
0.089137
0.0854016
0.0820002
0.0788299
0.0756989
0.0723786
0.0687661
0.0653031
0.218437
0.240289
0.260885
0.280496
0.298606
0.314536
0.327639
0.337414
0.343517
0.34581
0.344342
0.339349
0.331214
0.320421
0.307512
0.293046
0.277569
0.261582
0.245513
0.229715
0.213024
0.197164
0.184108
0.172072
0.161043
0.150964
0.141783
0.133439
0.12588
0.119053
0.112883
0.107315
0.102286
0.0977603
0.0936936
0.0900224
0.0866183
0.0832627
0.0796558
0.0756166
0.0716095
0.251677
0.277409
0.302018
0.325593
0.347371
0.366453
0.382005
0.393384
0.400156
0.402162
0.399499
0.392514
0.381752
0.367883
0.351636
0.333742
0.314887
0.295668
0.276578
0.258012
0.238759
0.220642
0.205563
0.19174
0.179135
0.167672
0.157278
0.147874
0.139396
0.131769
0.124909
0.118746
0.113213
0.108264
0.103852
0.0999085
0.0962946
0.0927636
0.0889393
0.0845012
0.0798169
0.288869
0.319123
0.348679
0.377159
0.403502
0.426554
0.445241
0.458727
0.466462
0.468257
0.464267
0.454985
0.441158
0.423688
0.403533
0.381628
0.358822
0.335829
0.313215
0.291418
0.269196
0.248458
0.231034
0.215142
0.200714
0.187652
0.175862
0.165246
0.155717
0.147183
0.139544
0.132719
0.126631
0.121226
0.116453
0.112243
0.108458
0.10484
0.100927
0.0961616
0.0905667
0.330072
0.365791
0.401378
0.43584
0.467806
0.495817
0.518497
0.534756
0.543886
0.545652
0.540278
0.528431
0.511108
0.48949
0.464814
0.438256
0.410858
0.38347
0.356752
0.331189
0.305523
0.281737
0.261584
0.243286
0.226741
0.211826
0.19842
0.186405
0.175669
0.166099
0.157579
0.150013
0.143314
0.137419
0.132272
0.12781
0.123909
0.120323
0.116538
0.111687
0.105018
0.375447
0.418021
0.460821
0.50245
0.541241
0.575364
0.603073
0.622948
0.634072
0.636133
0.62943
0.614829
0.59362
0.567316
0.53748
0.505578
0.472881
0.440404
0.408921
0.378976
0.349314
0.321978
0.298644
0.277538
0.258523
0.241449
0.226163
0.212524
0.200392
0.189631
0.180108
0.17171
0.164339
0.15792
0.152396
0.147706
0.143753
0.14034
0.136975
0.13253
0.12499
0.426863
0.476803
0.528077
0.578132
0.625052
0.666573
0.700502
0.725016
0.738916
0.741771
0.733949
0.716531
0.691133
0.659653
0.62403
0.586071
0.547319
0.508991
0.472004
0.436978
0.402682
0.371213
0.344165
0.319774
0.297867
0.278262
0.260777
0.245242
0.231485
0.219349
0.208678
0.199344
0.191236
0.184265
0.178371
0.1735
0.169581
0.166489
0.16386
0.160556
0.153177
0.48711
0.544135
0.604816
0.664592
0.720987
0.771261
0.812707
0.843025
0.860656
0.865004
0.856468
0.836348
0.806612
0.769574
0.727604
0.682897
0.637323
0.592344
0.549051
0.508168
0.468519
0.432245
0.40086
0.37262
0.347317
0.324737
0.304667
0.286905
0.271248
0.257513
0.245525
0.235138
0.226224
0.218686
0.212458
0.207491
0.203737
0.201142
0.199532
0.198138
0.193147
0.558401
0.624534
0.693656
0.764448
0.831626
0.891976
0.942242
0.979593
1.00204
1.00876
1.00015
0.977683
0.943689
0.900912
0.852188
0.80015
0.747042
0.694624
0.644199
0.596632
0.550843
0.509012
0.472578
0.439831
0.410537
0.384453
0.361338
0.340952
0.323065
0.307468
0.293966
0.282393
0.272613
0.264515
0.25803
0.253118
0.249749
0.24792
0.247617
0.248624
0.248844
0.645649
0.721627
0.800937
0.881779
0.960883
1.03245
1.09268
1.13821
1.16658
1.17669
1.16886
1.14471
1.10687
1.0585
1.0029
0.943187
0.88201
0.821479
0.763158
0.708093
0.655362
0.607171
0.564902
0.526908
0.492943
0.462743
0.43604
0.412566
0.392061
0.374296
0.359058
0.346165
0.335473
0.326862
0.320266
0.315659
0.313033
0.312429
0.313924
0.317619
0.323529
0.756593
0.842889
0.933136
1.02462
1.11478
1.19827
1.26921
1.32373
1.35896
1.37347
1.36748
1.34266
1.30182
1.24849
1.1864
1.11911
1.04972
0.980711
0.913958
0.850733
0.790351
0.735041
0.686145
0.642131
0.602762
0.567773
0.536882
0.509798
0.486244
0.465976
0.448771
0.434437
0.422828
0.413823
0.407366
0.403457
0.402119
0.40347
0.407657
0.41495
0.424964
0.903515
1.00019
1.10118
1.2036
1.30361
1.398
1.47954
1.54315
1.58566
1.60538
1.60235
1.57821
1.53582
1.47889
1.41147
1.3375
1.26048
1.18329
1.10812
1.03652
0.968127
0.905191
0.849047
0.798346
0.752905
0.71249
0.676822
0.645614
0.61859
0.595503
0.576136
0.560297
0.547855
0.538695
0.532785
0.530161
0.530911
0.535268
0.543501
0.555459
0.570765
1.10641
1.2126
1.32299
1.43459
1.54343
1.64499
1.73532
1.80679
1.85597
1.88107
1.88198
1.86016
1.81835
1.7602
1.68986
1.61146
1.52877
1.44498
1.36258
1.28342
1.20754
1.13721
1.07378
1.0162
0.964401
0.918214
0.877419
0.841769
0.811023
0.784959
0.763389
0.746143
0.733122
0.724244
0.719514
0.719011
0.722958
0.731724
0.745048
0.762997
0.785463
1.39922
1.51191
1.62781
1.74408
1.85686
1.96171
2.05435
2.13016
2.18351
2.21284
2.21808
2.2004
2.16214
2.1066
2.03766
1.95931
1.87531
1.78894
1.70288
1.61919
1.5384
1.46272
1.39356
1.33028
1.27299
1.22168
1.17626
1.13656
1.10245
1.07378
1.05041
1.03225
1.01925
1.01139
1.00872
1.0114
1.01988
1.03382
1.05342
1.07877
1.10958
1.84276
1.95353
2.06536
2.17603
2.28219
2.38016
2.46611
2.53698
2.58866
2.61869
2.62732
2.61539
2.58461
2.53753
2.47728
2.40717
2.33048
2.25014
2.16869
2.08819
2.00958
1.93487
1.86545
1.80123
1.74255
1.68962
1.64254
1.60134
1.56604
1.53663
1.5131
1.49546
1.48372
1.47797
1.47833
1.48508
1.49809
1.51744
1.54317
1.57529
1.61305
2.55336
2.63997
2.72455
2.80651
2.88373
2.95401
3.01515
3.06515
3.10269
3.12555
3.13405
3.12866
3.1103
3.08038
3.04069
2.99322
2.93998
2.88291
2.82376
2.76407
2.70477
2.64733
2.59283
2.54163
2.49422
2.451
2.41226
2.37825
2.34917
2.32516
2.30637
2.2929
2.28486
2.28242
2.2857
2.29468
2.30934
2.32964
2.35548
2.38664
2.42146
0.251364
0.0402775
0.0165466
0.01221
0.0110563
0.01091
0.0111719
0.0116304
0.0122075
0.0129042
0.0138014
0.0150868
0.0171032
0.0204254
0.0260112
0.0355557
0.0522728
0.248656
0.0426432
0.0172541
0.0127182
0.0115054
0.0113234
0.011554
0.01198
0.0125198
0.0131664
0.0139799
0.0151175
0.0169026
0.0199353
0.0252476
0.0345899
0.0511065
0.24915
0.0450772
0.0179289
0.0132256
0.0119728
0.0117643
0.0119691
0.0123638
0.0128603
0.0134417
0.0141447
0.0150733
0.016456
0.0187837
0.0230785
0.0313914
0.0478336
0.254965
0.0474141
0.0185609
0.0137318
0.0124564
0.0122291
0.0124133
0.0127809
0.0132348
0.0137419
0.0143075
0.0149595
0.0157386
0.016705
0.0179635
0.0196944
0.0221625
0.26566
0.0495612
0.019163
0.0142474
0.0129638
0.0127239
0.0128927
0.0132436
0.0136758
0.0141476
0.0146545
0.0152181
0.0158771
0.0166789
0.0176761
0.0189441
0.0205901
0.281042
0.0515699
0.0197712
0.0147915
0.0135062
0.0132558
0.0134094
0.0137456
0.0141656
0.0146236
0.0151052
0.01562
0.0161978
0.0168894
0.0177655
0.0189201
0.020492
0.30124
0.0535896
0.0204418
0.0153911
0.0141
0.0138363
0.01397
0.0142844
0.0146833
0.0151201
0.0155744
0.0160432
0.0165349
0.0170658
0.0176579
0.0183309
0.0191001
0.32669
0.0558387
0.0212455
0.016077
0.0147642
0.0144816
0.0145925
0.0148835
0.0152599
0.0156722
0.0160964
0.0165253
0.016961
0.0174097
0.0178832
0.018403
0.0189961
0.358092
0.0585906
0.0222633
0.0168827
0.015517
0.0152044
0.0152877
0.0155556
0.015917
0.0163223
0.0167428
0.017166
0.0175901
0.0180162
0.0184429
0.0188655
0.0192801
0.396351
0.0621552
0.023589
0.0178461
0.0163778
0.0160167
0.0160611
0.016295
0.0166309
0.0170225
0.017441
0.0178714
0.0183122
0.018772
0.0192639
0.0197991
0.0203866
0.442462
0.0668818
0.0253338
0.0190141
0.0173714
0.0169366
0.0169311
0.0171215
0.0174195
0.0177799
0.0181726
0.0185758
0.0189772
0.0193753
0.0197803
0.0202129
0.020703
0.497713
0.0732148
0.0276442
0.0204464
0.0185279
0.0179825
0.0179135
0.0180553
0.0183141
0.0186467
0.0190254
0.019427
0.0198312
0.0202212
0.0205826
0.0208993
0.0211478
0.563754
0.0816429
0.030703
0.0222276
0.01989
0.0191773
0.0190209
0.0191007
0.0193081
0.0195997
0.0199534
0.0203521
0.0207808
0.0212306
0.0217014
0.0222018
0.0227436
0.642374
0.092672
0.0347468
0.0244808
0.0215225
0.020558
0.0202791
0.02028
0.0204225
0.0206544
0.0209535
0.0213038
0.0216875
0.0220857
0.0224868
0.022898
0.0233575
0.734763
0.106738
0.0400815
0.0273762
0.0235199
0.022179
0.0217222
0.0216215
0.0216898
0.0218582
0.0221013
0.0224073
0.0227622
0.0231407
0.0235047
0.0238049
0.0239805
0.841851
0.124441
0.0470599
0.0311412
0.0260178
0.0241199
0.0233974
0.0231525
0.0231256
0.0232168
0.0233899
0.0236362
0.0239553
0.0243442
0.0247909
0.025278
0.0257899
0.964553
0.146547
0.0561335
0.0360672
0.0292027
0.0264976
0.0253774
0.0249198
0.0247626
0.0247559
0.0248394
0.0249929
0.025215
0.0255078
0.0258656
0.0262759
0.0267477
1.10328
0.173811
0.0678194
0.0425092
0.0333158
0.0294722
0.0277671
0.0269923
0.0266481
0.026516
0.0264987
0.0265569
0.0266812
0.0268755
0.0271346
0.0274124
0.0275814
1.25757
0.206937
0.0826588
0.0508698
0.0386488
0.0332487
0.0307067
0.0294639
0.028843
0.0285333
0.0283871
0.0283356
0.0283545
0.0284526
0.0286614
0.0290146
0.029507
1.42523
0.246436
0.10115
0.0615595
0.0455234
0.0380682
0.0343715
0.0324591
0.0314345
0.0308671
0.0305418
0.0303488
0.030234
0.0301825
0.0302166
0.0303985
0.0308456
1.60315
0.292713
0.123754
0.0749669
0.054265
0.044192
0.0389627
0.0361287
0.0345335
0.0335986
0.0330231
0.0326458
0.0323778
0.0321757
0.0320308
0.0319593
0.0319704
1.78782
0.34632
0.150892
0.0914178
0.0651633
0.0518723
0.0446888
0.0406388
0.0382688
0.0368252
0.0359018
0.0352733
0.0348106
0.0344454
0.0341535
0.0339613
0.0340315
1.97331
0.408059
0.182864
0.111095
0.0784022
0.0612965
0.0517266
0.0461438
0.0427694
0.0406519
0.0392614
0.0382949
0.0375739
0.0369998
0.0365128
0.0360993
0.0359476
2.15174
0.479354
0.219893
0.134037
0.0940345
0.0725572
0.0601931
0.0527667
0.0481515
0.0451816
0.0431904
0.0417853
0.04073
0.0398871
0.0391637
0.0385125
0.0378892
2.31351
0.562063
0.26217
0.160158
0.111984
0.0856404
0.0701283
0.060581
0.054503
0.0505042
0.047773
0.04582
0.0443446
0.0431637
0.0421581
0.0412644
0.0404053
2.4662
0.643979
0.306079
0.187851
0.131336
0.0999962
0.0812151
0.0694223
0.0617575
0.0566129
0.0530357
0.0504415
0.0484645
0.0468755
0.0455278
0.0443308
0.043204
2.59791
0.719687
0.348934
0.215667
0.15121
0.115064
0.0931019
0.0790846
0.0698095
0.0634695
0.0589836
0.0556808
0.0531347
0.0510739
0.049321
0.047755
0.0463197
2.69141
0.783588
0.3878
0.241953
0.170613
0.13023
0.105413
0.0893509
0.0785496
0.0710359
0.0656239
0.0615717
0.0584033
0.0558123
0.0535929
0.0516164
0.0497981
2.72845
0.829213
0.419325
0.264824
0.188439
0.144832
0.117759
0.100006
0.0878762
0.0792848
0.0729759
0.0681603
0.0643295
0.0611514
0.0584033
0.0559469
0.0536721
2.69481
0.850869
0.44026
0.282455
0.203656
0.158294
0.129834
0.11091
0.0977535
0.0882434
0.0811033
0.075529
0.071002
0.0671781
0.0638302
0.0608013
0.0580115
2.58604
0.845681
0.448665
0.29374
0.215695
0.170364
0.141573
0.122105
0.108282
0.098043
0.0901489
0.0838203
0.0785538
0.0740134
0.0699769
0.0662937
0.0628893
2.41051
0.815101
0.444944
0.299005
0.224925
0.181433
0.153358
0.133951
0.119794
0.108983
0.100377
0.093265
0.0871816
0.08182
0.0769744
0.0725179
0.0683525
2.18757
0.765282
0.432471
0.30056
0.233059
0.192813
0.166214
0.147262
0.132942
0.121591
0.11222
0.104212
0.097165
0.090816
0.0849911
0.0795829
0.0745278
1.94135
0.706312
0.417673
0.302909
0.243339
0.206876
0.181908
0.163373
0.148753
0.136665
0.126299
0.117145
0.108877
0.101286
0.0942437
0.0876714
0.0815543
1.69402
0.650941
0.40958
0.312483
0.260368
0.226961
0.2029
0.184124
0.168617
0.15527
0.143425
0.132679
0.12278
0.113578
0.105
0.0970307
0.0896593
1.46161
0.614072
0.419305
0.337117
0.289711
0.257103
0.232168
0.211755
0.194235
0.178689
0.16457
0.151543
0.139414
0.128112
0.117675
0.108086
0.0992095
1.25315
0.613609
0.459858
0.385682
0.33759
0.301822
0.273083
0.248795
0.227514
0.208371
0.190826
0.174551
0.159419
0.145535
0.132817
0.121002
0.10996
1.07201
0.673932
0.547256
0.468611
0.411206
0.366259
0.329397
0.298045
0.27057
0.245911
0.223387
0.202581
0.183635
0.166413
0.150422
0.135521
0.121718
0.917906
0.833976
0.704168
0.59985
0.519728
0.45675
0.405639
0.362812
0.325848
0.293127
0.263589
0.236798
0.212758
0.190594
0.170141
0.151398
0.134348
0.788592
1.16838
0.967017
0.800591
0.676586
0.582215
0.507949
0.447439
0.396476
0.352276
0.313052
0.278244
0.246845
0.218256
0.192313
0.168893
0.147894
0.426697
1.08869
1.72278
2.16483
2.46166
2.64367
2.7032
2.62477
2.49451
2.87389
4.10184
5.21882
4.13305
2.01528
1.83267
1.91465
1.39785
0.575597
0.188401
0.0673097
0.759516
1.76376
2.54168
2.97024
3.18114
3.25699
3.16177
2.93138
2.82431
3.28484
4.25138
4.88062
3.85648
2.26546
2.36974
2.75805
2.11611
0.858647
0.268702
0.0897952
1.33197
2.79373
3.67965
4.00792
4.05211
3.93817
3.62067
3.28522
3.25092
3.54425
4.13606
4.50078
3.55178
2.48892
3.04926
3.82012
3.15792
1.27938
0.38268
0.122053
2.28386
4.30748
5.17663
5.23082
4.97222
4.5636
4.03681
3.64029
3.51112
3.68243
4.00997
4.14979
3.3529
2.76832
3.7302
4.87651
4.52051
1.89334
0.543088
0.16778
3.80692
6.40736
6.9288
6.46274
5.77058
5.03492
4.32364
3.83545
3.65496
3.73619
3.89167
3.88525
3.16738
3.10466
4.32355
5.68271
5.99512
2.7899
0.769522
0.231983
6.14174
8.95001
8.63739
7.52781
6.34353
5.27058
4.41489
3.89238
3.70462
3.71227
3.77377
3.60495
3.07591
3.45359
4.83504
6.24365
7.28725
4.04856
1.08691
0.321442
9.33945
11.4507
10.1457
8.36988
6.6586
5.29921
4.37573
3.88058
3.67976
3.61831
3.60309
3.37994
3.06722
3.84294
5.27513
6.73565
8.26279
5.62982
1.53385
0.445891
12.95
13.688
11.5318
9.01928
6.80778
5.2313
4.29335
3.82381
3.61288
3.52997
3.44059
3.22614
3.10485
4.28917
5.63684
7.26108
8.99592
7.42777
2.16499
0.620213
16.1815
15.918
12.8853
9.58482
6.90535
5.17388
4.21712
3.74698
3.54267
3.42551
3.30894
3.13914
3.26589
4.63724
6.01788
7.8189
9.61034
9.1953
3.07294
0.865551
19.3021
18.2317
14.3687
10.2809
7.12783
5.22273
4.20693
3.70547
3.46432
3.32569
3.20607
3.09462
3.66099
4.88626
6.41966
8.36535
10.1602
10.6961
4.27957
1.21366
22.5043
20.748
16.2388
11.4166
7.74773
5.50019
4.29918
3.69856
3.40104
3.24115
3.12032
3.09977
3.90549
5.14155
6.81753
8.86007
10.6536
11.7698
5.83299
1.71931
25.7953
23.5447
18.7475
13.3263
8.99045
6.1462
4.57709
3.77988
3.38905
3.19374
3.06972
3.30624
4.10122
5.42725
7.19745
9.27197
11.0566
12.3026
7.7471
2.48096
28.9139
26.444
21.8849
16.286
11.1543
7.42227
5.21522
4.07897
3.50718
3.22203
3.14631
3.5005
4.37779
5.79188
7.57763
9.58461
11.3158
12.4031
9.74689
3.58494
30.879
28.6536
24.8965
19.8114
14.2905
9.67076
6.5068
4.90568
3.96154
3.56177
3.53604
3.92879
4.89098
6.30599
7.98329
9.79193
11.3847
12.276
11.4387
5.1255
29.4423
28.7239
26.0273
22.0384
17.2672
12.5905
8.89869
6.64497
5.35204
4.71034
4.61031
5.02124
5.88034
7.06977
8.443
9.90137
11.2572
12.0256
12.4493
7.24548
24.9111
25.49
23.7069
21.3449
18.2863
14.8765
11.7754
9.41482
7.90921
7.07017
6.72911
6.82125
7.31904
8.05
8.93722
9.9268
10.9587
11.6565
12.5045
9.96654
19.5482
19.8883
18.66
17.6989
16.5078
14.9786
13.2124
11.6021
10.3999
9.62893
9.11957
8.87985
8.85253
9.02531
9.38332
9.88435
10.5215
11.1035
11.8351
12.4688
14.3947
13.5493
13.2397
13.3047
13.3632
13.2143
12.757
12.1401
11.5266
11.015
10.5868
10.2339
9.96379
9.8012
9.76001
9.86546
10.1003
10.4135
11.0601
13.0102
9.40741
9.15745
9.61746
10.2617
10.9719
11.5262
11.8873
11.9708
11.878
11.6866
11.4348
11.1751
10.921
10.6923
10.5025
10.3472
10.2029
10.0368
10.1346
11.5486
4.69436
6.41019
8.49013
10.6425
12.6395
14.2998
15.485
16.217
16.5765
16.5422
16.1875
15.8715
15.555
15.2005
14.8125
14.3726
13.8454
13.2031
12.508
12.732
9.47635
11.9036
12.5302
9.32772
5.54923
3.23589
1.92878
1.20194
0.788924
0.535889
0.373063
0.264946
0.19135
0.140348
0.104691
0.0796574
0.0620585
0.0496916
0.0409963
0.0348825
6.48878
9.77374
8.70336
4.51429
2.3046
1.26813
0.758485
0.485808
0.327376
0.229248
0.165561
0.122762
0.093275
0.0726318
0.0580489
0.0476967
0.0403278
0.0350667
0.0312777
0.0285153
4.20256
9.14434
4.88928
2.18891
1.07814
0.603737
0.37455
0.249542
0.175039
0.12771
0.0962621
0.074756
0.0597972
0.0493011
0.0419043
0.0366711
0.0329399
0.0302372
0.0282234
0.0266703
2.39313
6.17701
2.60539
1.1096
0.566316
0.336743
0.220108
0.153181
0.1115
0.0842486
0.0659655
0.0535431
0.0450516
0.039221
0.0351855
0.032346
0.0302873
0.0287265
0.0274758
0.0264206
1.22042
3.72155
1.4319
0.624949
0.347866
0.219977
0.149709
0.106962
0.0796983
0.0620231
0.0505107
0.0429917
0.0380528
0.0347616
0.0325032
0.0308753
0.0296205
0.0285799
0.0276607