/*--------------------------------*- C++ -*----------------------------------*\
  =========                 |
  \\      /  F ield         | OpenFOAM: The Open Source CFD Toolbox
   \\    /   O peration     | Website:  https://openfoam.org
    \\  /    A nd           | Version:  6
     \\/     M anipulation  |
\*---------------------------------------------------------------------------*/
FoamFile
{
    version     2.0;
    format      ascii;
    class       surfaceScalarField;
    location    "1.78";
    object      meshPhi;
}
// * * * * * * * * * * * * * * * * * * * * * * * * * * * * * * * * * * * * * //

dimensions      [0 3 -1 0 0 0 0];

internalField   nonuniform List<scalar> 
8193
(
-0.00180903
0.00281984
0.000657993
-0.00285292
0.00532314
-0.0037629
0.00756264
-0.00451622
0.00950407
-0.00509583
0.0111236
-0.00549165
0.0124073
-0.00570119
0.0133502
-0.0057297
0.0139552
-0.00558964
0.0142319
-0.00529983
0.0141953
-0.00488421
0.0138648
-0.00437038
0.0132629
-0.0037881
0.0124145
-0.00316778
0.0113459
-0.00253912
0.0100841
-0.00192989
0.00865686
-0.00136489
0.0070917
-0.000865206
0.00541619
-0.000447587
0.00365767
-0.000124064
0.00184328
9.82734e-05
1.12055e-18
0.000217342
-0.00184523
0.000235981
-0.0036654
0.000161739
-0.00543332
6.50334e-06
-0.00712153
-0.000214019
-0.0087022
-0.000480986
-0.0101472
-0.000773285
-0.0114282
-0.00106857
-0.0125168
-0.00134444
-0.013385
-0.00157976
-0.0140054
-0.001756
-0.0143522
-0.00185858
-0.0144018
-0.00187801
-0.0141339
-0.0018108
-0.0135323
-0.00165997
-0.0125865
-0.00143508
-0.011293
-0.00115161
-0.00965596
-0.000829867
-0.00768904
-0.000493142
-0.00541591
-0.00287094
-0.000165547
-0.00686918
0.00836902
0.00344121
-0.00990862
0.0129421
-0.0124912
0.0169547
-0.0145641
0.0203537
-0.0160928
0.0231075
-0.017064
0.0252043
-0.017485
0.0266495
-0.0173838
0.0274626
-0.0168068
0.0276744
-0.0158159
0.027324
-0.0144845
0.026456
-0.0128942
0.0251186
-0.0111304
0.0233617
-0.00927873
0.0212353
-0.00742124
0.0187891
-0.00563388
0.0160712
-0.00398387
0.0131286
-0.00252791
0.0100065
-0.00131086
0.00674915
-0.00036488
0.00339949
0.000291023
9.41666e-15
0.000651093
-0.0034071
0.000722586
-0.00677931
0.000525231
-0.0100735
9.03578e-05
-0.0132452
-0.000540332
-0.0162488
-0.00131638
-0.0190366
-0.00218065
-0.0215592
-0.00307175
-0.0237651
-0.00392701
-0.0256016
-0.0046857
-0.0270148
-0.00529241
-0.027951
-0.00570062
-0.0283579
-0.0058758
-0.028187
-0.00579819
-0.0273953
-0.00546465
-0.0259485
-0.00488943
-0.0238239
-0.00410367
-0.0210136
-0.00315341
-0.0175278
-0.0020962
-0.0133968
-0.00867399
-0.000996422
-0.0147079
0.016315
0.00926437
-0.0194017
0.0224345
-0.0232622
0.027694
-0.026233
0.032037
-0.0282886
0.0354386
-0.0294347
0.0379016
-0.0297075
0.0394522
-0.0291713
0.0401349
-0.0279145
0.0400073
-0.0260451
0.0391359
-0.0236847
0.037592
-0.0209631
0.0354484
-0.0180129
0.032777
-0.0149641
0.0296474
-0.0119399
0.0261255
-0.00905239
0.0222734
-0.00640016
0.0181497
-0.00406567
0.0138091
-0.00211385
0.00930406
-0.000591128
0.00468469
0.000475044
1.76465e-20
0.00107617
-0.00470133
0.00122235
-0.00937012
0.000941572
-0.0139558
0.000278589
-0.0184055
-0.000706628
-0.0226636
-0.00194092
-0.0266702
-0.00334051
-0.0303617
-0.00481423
-0.0336694
-0.00626719
-0.0365202
-0.00760515
-0.038837
-0.00873907
-0.0405396
-0.00958994
-0.0415467
-0.0100935
-0.0417785
-0.0102041
-0.0411604
-0.00989855
-0.0396269
-0.00917761
-0.0371267
-0.00806687
-0.0336278
-0.0066154
-0.0291229
-0.00489275
-0.0236342
-0.0172175
-0.00298408
-0.0252559
0.0261333
0.0182277
-0.031132
0.0332306
-0.0357836
0.0391957
-0.0391763
0.0439812
-0.0413142
0.0475789
-0.0422392
0.0500141
-0.0420281
0.0513389
-0.0407886
0.0516255
-0.0386534
0.0509592
-0.0357746
0.0494329
-0.0323163
0.047142
-0.0284488
0.04418
-0.0243415
0.0406364
-0.0201579
0.0365942
-0.0160504
0.0321301
-0.0121567
0.0273136
-0.00859633
0.0222081
-0.0054688
0.0168716
-0.00285204
0.0113578
-0.000801643
0.0057176
0.000649473
8.10339e-15
0.0014909
-0.00574632
0.00173428
-0.0114718
0.00141248
-0.0171249
0.000578452
-0.0226505
-0.00069641
-0.027989
-0.00232432
-0.0330748
-0.00420376
-0.0378355
-0.00622283
-0.042191
-0.00826316
-0.0460532
-0.0102045
-0.049326
-0.0119299
-0.0519064
-0.0133308
-0.0536869
-0.0143129
-0.0545578
-0.0148008
-0.0544126
-0.0147424
-0.0531526
-0.0141125
-0.0506937
-0.0129145
-0.0469735
-0.0111804
-0.0419588
-0.00896955
-0.0356522
-0.0280985
-0.00636468
-0.0382353
0.0371426
0.0301923
-0.0447278
0.0446553
-0.0496321
0.0508156
-0.0529536
0.0555931
-0.0547404
0.0590016
-0.0550799
0.0610908
-0.0540942
0.0619393
-0.051935
0.0616451
-0.0487764
0.0603186
-0.0448086
0.0580748
-0.0402301
0.0550279
-0.0352415
0.0512872
-0.0300386
0.0469535
-0.0248072
0.0421183
-0.0197186
0.0368627
-0.0149255
0.0312585
-0.0105597
0.0253686
-0.00673021
0.019249
-0.00352199
0.0129502
-0.00099546
0.006519
0.00081349
0
0.00189327
-0.00656245
0.00225599
-0.0131228
0.00193665
-0.0196327
0.000991985
-0.0260393
-0.000500999
-0.0322835
-0.00244693
-0.0382987
-0.00473454
-0.0440087
-0.00723971
-0.0493268
-0.00982921
-0.0541549
-0.0123651
-0.0583831
-0.0147096
-0.0618907
-0.0167305
-0.0645482
-0.0183066
-0.0662206
-0.0193332
-0.0667725
-0.019727
-0.0660742
-0.01943
-0.0640096
-0.0184129
-0.0604847
-0.0166764
-0.055437
-0.0142514
-0.0488438
-0.04073
-0.0111972
-0.0531596
0.0485615
0.0447592
-0.0596608
0.0559834
-0.0642738
0.0619007
-0.0670545
0.0663029
-0.0681005
0.0692254
-0.0675463
0.070741
-0.0655577
0.0709507
-0.0623254
0.0699742
-0.0580582
0.0679407
-0.0529754
0.0649818
-0.0473001
0.0612245
-0.0412526
0.0567875
-0.0350445
0.0517776
-0.0288738
0.0462891
-0.0229207
0.0404031
-0.0173447
0.0341888
-0.0122822
0.0277051
-0.00784538
0.0210022
-0.00412132
0.0141243
-0.00117182
0.00711101
0.000966322
6.91348e-15
0.00228094
-0.00717144
0.00278382
-0.0143644
0.00250986
-0.0215364
0.0015161
-0.0286395
-0.000119587
-0.0356186
-0.00230013
-0.042409
-0.00491132
-0.0489346
-0.00782442
-0.0551062
-0.0108994
-0.0608201
-0.0139887
-0.0659577
-0.0169419
-0.0703859
-0.0196102
-0.0739588
-0.0218516
-0.0765216
-0.0235366
-0.0779155
-0.0245525
-0.0779849
-0.0248081
-0.076586
-0.0242377
-0.0735961
-0.022803
-0.0689246
-0.0204955
-0.0625226
-0.0543922
-0.017336
-0.0693584
0.0595792
0.0612793
-0.0752759
0.0665022
-0.0790969
0.0718416
-0.0809287
0.075605
-0.0809162
0.0778464
-0.0792364
0.0786564
-0.0760915
0.0781529
-0.0717029
0.0764704
-0.0663039
0.0737507
-0.0601329
0.0701348
-0.053427
0.0657567
-0.0464161
0.0607387
-0.0393179
0.0551886
-0.0323333
0.0491988
-0.0256436
0.0428466
-0.0194075
0.0361956
-0.0137603
0.0292977
-0.00881225
0.0221955
-0.0046487
0.0149247
-0.00133017
0.00751649
0.00110726
0
0.00265132
-0.00759573
0.0033129
-0.0152396
0.0031252
-0.0228965
0.00214288
-0.030525
0.000440994
-0.0380755
-0.0018863
-0.0454875
-0.00472739
-0.0526876
-0.00795526
-0.0595871
-0.0114301
-0.0660807
-0.0150025
-0.0720452
-0.0185168
-0.0773401
-0.0218157
-0.0818088
-0.0247443
-0.0852828
-0.0271548
-0.0875864
-0.028911
-0.0885446
-0.0298928
-0.0879919
-0.03
-0.085783
-0.0291553
-0.0818037
-0.0273072
-0.0759822
-0.0682989
-0.0244314
-0.0860221
0.0694322
0.0788939
-0.0908362
0.0755728
-0.0934514
0.0801194
-0.0940199
0.0830934
-0.0927257
0.0845617
-0.089778
0.0846265
-0.0854055
0.0834158
-0.0798491
0.0810718
-0.0733558
0.0777424
-0.0661727
0.0735719
-0.0585408
0.0686955
-0.0506903
0.0632341
-0.0428365
0.0572924
-0.0351759
0.0509575
-0.0278842
0.0443004
-0.0211142
0.0373769
-0.0149948
0.0302305
-0.00963109
0.022895
-0.00510378
0.0153968
-0.00147013
0.00775842
0.00123565
3.5293e-20
0.00300163
-0.00785787
0.00383741
-0.0157922
0.00377338
-0.0237754
0.00285996
-0.0317732
0.00116676
-0.0397422
-0.00121839
-0.0476272
-0.00419065
-0.055359
-0.00762972
-0.0628517
-0.0114017
-0.0700011
-0.0153617
-0.0766829
-0.0193562
-0.0827534
-0.0232268
-0.0880504
-0.0268135
-0.0923974
-0.0299585
-0.0956082
-0.0325102
-0.0974953
-0.034327
-0.0978786
-0.0352809
-0.096597
-0.0352612
-0.0935194
-0.034177
-0.0885565
-0.0816712
-0.0319601
-0.102264
0.0774743
0.0966022
-0.105577
0.0826835
-0.106694
0.0863444
-0.105802
0.088487
-0.10311
0.0891851
-0.0988485
0.0885461
-0.0932598
0.0867013
-0.0865933
0.0837949
-0.0790992
0.0799745
-0.0710231
0.0753827
-0.0626015
0.0701511
-0.0540572
0.0643958
-0.0455962
0.058215
-0.0374052
0.0516888
-0.0296492
0.0448797
-0.022471
0.037835
-0.0159904
0.0305891
-0.0103043
0.0231667
-0.00548714
0.0155856
-0.00159155
0.00785941
0.00135093
5.38275e-15
0.00332897
-0.00798002
0.00435073
-0.0160653
0.00444312
-0.0242353
0.00365116
-0.0324627
0.00203733
-0.0407101
-0.000319117
-0.0489282
-0.00332299
-0.0570525
-0.00686421
-0.0650012
-0.0108191
-0.0726727
-0.0150522
-0.0799445
-0.0194181
-0.0866729
-0.0237638
-0.0926942
-0.0279316
-0.0978287
-0.031762
-0.101885
-0.0350965
-0.104671
-0.0377812
-0.105996
-0.03967
-0.105693
-0.0406275
-0.103618
-0.0405326
-0.0996724
-0.0938069
-0.0392809
-0.117193
0.0832329
0.113348
-0.118762
0.0874882
-0.118234
0.0902806
-0.115811
0.0916437
-0.111717
0.0916528
-0.106191
0.0904151
-0.0994753
0.0880599
-0.0918187
0.084728
-0.0834647
0.0805623
-0.07465
0.0757
-0.0655992
0.0702657
-0.056522
0.064368
-0.0476106
0.0580971
-0.0390373
0.0515242
-0.0309538
0.0447033
-0.0234902
0.0376726
-0.0167551
0.0304579
-0.0108361
0.0230753
-0.00580015
0.0155345
-0.00169442
0.00784121
0.00145261
-3.5293e-20
0.00363042
-0.00798351
0.00484569
-0.0161005
0.00512156
-0.024337
0.0044971
-0.0326712
0.00302681
-0.0410717
0.000780155
-0.0494943
-0.00215898
-0.0578795
-0.0056929
-0.0661498
-0.00971094
-0.0742075
-0.0140905
-0.0819333
-0.0186984
-0.0891857
-0.0233925
-0.0958026
-0.0280233
-0.101605
-0.0324366
-0.106401
-0.0364754
-0.109997
-0.0399827
-0.112202
-0.0428039
-0.112842
-0.0447903
-0.111774
-0.0458016
-0.108891
-0.104138
-0.0457091
-0.129989
0.0864433
0.128115
-0.129746
0.0898265
-0.127572
0.0918547
-0.123677
0.0925612
-0.118283
0.0920189
-0.111625
0.0903306
-0.103941
0.0876199
-0.0954652
0.0840207
-0.08643
0.0796681
-0.0770564
0.0746908
-0.0675527
0.0692049
-0.0581118
0.06331
-0.0489086
0.0570872
-0.0400995
0.0505989
-0.0318208
0.0438901
-0.0241888
0.0369909
-0.0173003
0.0299188
-0.0112326
0.0226826
-0.00604494
0.0152847
-0.00177891
0.00772434
0.0015403
3.5293e-20
0.00390314
-0.00788842
0.00531483
-0.0159375
0.00579478
-0.0241382
0.00537605
-0.0324737
0.00410498
-0.0409173
0.00204089
-0.0494292
-0.000744191
-0.0579545
-0.0041659
-0.0664198
-0.0081279
-0.0747316
-0.0125225
-0.0827743
-0.0172312
-0.0904103
-0.0221261
-0.0974809
-0.0270705
-0.10381
-0.0319208
-0.10921
-0.036528
-0.113487
-0.0407397
-0.116455
-0.0444024
-0.117941
-0.0473639
-0.117801
-0.0494763
-0.11593
-0.11227
-0.0505994
-0.139971
0.0870582
0.140022
-0.138015
0.0897235
-0.134339
0.0911492
-0.129143
0.0913662
-0.122643
0.0904421
-0.115059
0.088473
-0.106615
0.0855743
-0.0975303
0.0818708
-0.0880179
0.0774883
-0.0782805
0.0725455
-0.0685074
0.067149
-0.0588728
0.0613887
-0.0495335
0.0553367
-0.0406289
0.0490469
-0.0322796
0.042556
-0.0245882
0.0358865
-0.0176395
0.0290492
-0.011501
0.0220462
-0.00622428
0.0148744
-0.00184537
0.00752776
0.00161373
-2.08405e-15
0.00414442
-0.0077133
0.00575063
-0.0156127
0.00644826
-0.0236929
0.00626468
-0.0319409
0.00523843
-0.0403332
0.00341905
-0.0488338
0.000866928
-0.0573912
-0.00234674
-0.0659359
-0.00614009
-0.0743781
-0.0104208
-0.0826063
-0.0150863
-0.0904872
-0.0200244
-0.0978665
-0.0251136
-0.104573
-0.0302245
-0.110424
-0.0352206
-0.11523
-0.0399597
-0.118811
-0.0442961
-0.120998
-0.0480825
-0.121651
-0.0511732
-0.120668
-0.117992
-0.0534268
-0.146653
0.0852315
0.148402
-0.143233
0.0873701
-0.138314
0.0883813
-0.132083
0.0882924
-0.124739
0.0871647
-0.116486
0.0850861
-0.107528
0.0821627
-0.0980663
0.0785093
-0.0882932
0.0742412
-0.0783918
0.0694672
-0.0685316
0.0642837
-0.0588679
0.0587716
-0.0495398
0.0529942
-0.0406701
0.0469972
-0.0323646
0.0408105
-0.0247129
0.0344498
-0.0177885
0.0279203
-0.0116499
0.0212191
-0.00634145
0.0143385
-0.00189425
0.00726867
0.00167272
1.91574e-15
0.00435179
-0.00747493
0.00614578
-0.0151594
0.00706744
-0.0230505
0.00713901
-0.0311376
0.00639195
-0.0393996
0.00486687
-0.047803
0.00261346
-0.0562988
-0.000309369
-0.0648204
-0.00383342
-0.0732814
-0.00788109
-0.0815741
-0.0123654
-0.0895691
-0.01719
-0.0971174
-0.0222494
-0.104053
-0.0274296
-0.110199
-0.0326088
-0.115373
-0.0376584
-0.1194
-0.0424445
-0.122119
-0.0468304
-0.123395
-0.0506786
-0.123131
-0.121273
-0.0538543
-0.149783
0.0812817
0.15286
-0.145257
0.0830881
-0.13944
0.0838707
-0.1325
0.0836522
-0.12462
0.0824873
-0.115983
0.0804554
-0.106774
0.0776528
-0.0971747
0.0741841
-0.0873578
0.070154
-0.0774868
0.0656613
-0.0677128
0.060793
-0.0581733
0.055621
-0.048991
0.0502006
-0.0402737
0.0445707
-0.032114
0.0387547
-0.0245896
0.0327632
-0.0177643
0.0265967
-0.0116885
0.0202486
-0.00640017
0.0137079
-0.00192616
0.00696233
0.00171722
1.75961e-15
0.00452312
-0.00718821
0.00649341
-0.014607
0.00763816
-0.0222549
0.00797518
-0.0301222
0.0075298
-0.0381894
0.00633483
-0.0464239
0.00443062
-0.0547788
0.00186521
-0.0631893
-0.00130535
-0.0715715
-0.00501675
-0.0798209
-0.0091962
-0.0878121
-0.0137621
-0.0954007
-0.0186243
-0.102426
-0.0236839
-0.108718
-0.0288338
-0.114101
-0.03396
-0.118407
-0.0389422
-0.121483
-0.0436563
-0.123199
-0.0479765
-0.123464
-0.122228
-0.0517784
-0.14935
0.0756391
0.153297
-0.144143
0.0772849
-0.137816
0.078
-0.130525
0.0778027
-0.122431
0.0767407
-0.113701
0.0748848
-0.104503
0.0723215
-0.0949985
0.0691451
-0.0853432
0.0654504
-0.0756831
0.0613264
-0.0661529
0.056851
-0.0568747
0.0520881
-0.0479569
0.0470859
-0.0394944
0.0418769
-0.0315684
0.0364795
-0.0242467
0.0308999
-0.0175849
0.0251353
-0.0116266
0.0191762
-0.0064045
0.0130098
-0.00194182
0.00662199
0.00174729
1.62463e-15
0.00465665
-0.00686604
0.00678735
-0.0139812
0.00814721
-0.0213444
0.00875036
-0.028946
0.00861704
-0.0367667
0.00777356
-0.0447745
0.00625242
-0.0529228
0.00409257
-0.0611484
0.00133975
-0.0693689
-0.0019531
-0.0774824
-0.00572537
-0.0853669
-0.00990845
-0.0928822
-0.0144254
-0.0998733
-0.0191911
-0.106175
-0.0241122
-0.111621
-0.0290881
-0.116048
-0.0340117
-0.119311
-0.0387715
-0.121289
-0.0432536
-0.121894
-0.12108
-0.0473449
-0.145577
0.0687873
0.149907
-0.140127
0.0704044
-0.133687
0.0711753
-0.126395
0.0711133
-0.118401
0.0702591
-0.109856
0.0686748
-0.100911
0.0664372
-0.0917131
0.0636308
-0.0824034
0.0603406
-0.0731132
0.0566461
-0.0639635
0.052617
-0.0550637
0.0483096
-0.0465105
0.0437657
-0.0383884
0.0390126
-0.0307693
0.0340643
-0.0237132
0.0289236
-0.0172688
0.0235851
-0.0114743
0.0180377
-0.00635871
0.0122672
-0.00194203
0.00625894
0.00176314
1.51008e-15
0.00475111
-0.00651937
0.0070223
-0.0133039
0.00858269
-0.0203517
0.00944346
-0.0276528
0.00962074
-0.0351869
0.00913565
-0.0429219
0.00801438
-0.0508111
0.00628851
-0.0587914
0.00399544
-0.0667816
0.00117892
-0.0746816
-0.00211046
-0.0823722
-0.00581475
-0.089717
-0.0098682
-0.0965658
-0.0141971
-0.10276
-0.0187197
-0.108137
-0.0233472
-0.112545
-0.027984
-0.115843
-0.0325297
-0.117917
-0.0368812
-0.118685
-0.118105
-0.0409354
-0.138885
0.143138
-0.133602
-0.12741
-0.120438
-0.112823
-0.104705
-0.0962243
-0.0875149
-0.078706
-0.0699179
-0.0612608
-0.0528342
-0.044726
-0.0370124
-0.0297582
-0.0230176
-0.0168341
-0.011242
-0.00626721
-0.00192771
0.00176509
0.00480573
0.00719401
0.00893445
0.0100359
0.0105112
0.0103775
0.00965596
0.00837257
0.00655817
0.00424927
0.00148858
-0.0016744
-0.00518283
-0.00897224
-0.0129705
-0.0170982
-0.0212696
-0.0253935
-0.029376
-0.0331223
0.113153
-0.0307538
0.108932
-0.0375313
0.102187
-0.0431504
0.0933918
-0.0471544
0.0831412
-0.0492275
0.0720804
-0.0492277
0.0608376
-0.0472007
0.0499622
-0.0433718
0.0398798
-0.0381184
0.0308691
-0.0319258
0.0230647
-0.0253323
0.0164824
-0.0188687
0.0110628
-0.0130023
0.00672333
-0.00808912
0.00340959
-0.00434167
0.00113479
-0.00181562
-0.000416182
0.110072
-0.0283315
0.106297
-0.034154
0.100252
-0.0390319
0.0923326
-0.0426028
0.0830336
-0.0446068
0.0728978
-0.0449106
0.0624627
-0.0435201
0.0522117
-0.0405779
0.0425361
-0.0363471
0.0337127
-0.031184
0.0258997
-0.0255012
0.0191498
-0.0197261
0.0134391
-0.0142589
0.00870543
-0.00943512
0.00488943
-0.00549584
0.0019719
-0.00256936
-0.000665756
0.105811
-0.0259342
0.102523
-0.0308873
0.0972048
-0.0350783
0.0901817
-0.0382215
0.08186
-0.0401043
0.0726897
-0.0406054
0.0631245
-0.0397051
0.0535833
-0.0374861
0.0444188
-0.0341254
0.0358968
-0.029877
0.0281876
-0.025049
0.021372
-0.0199756
0.0154577
-0.0149874
0.010406
-0.0103825
0.00616327
-0.00640252
0.00269251
-0.0032134
-0.000894935
0.100489
-0.0236239
0.0977052
-0.0277952
0.0931184
-0.0313572
0.0869899
-0.0340862
0.0796481
-0.0358097
0.071461
-0.03642
0.0628061
-0.0358827
0.0540405
-0.0342388
0.0454757
-0.0316012
0.0373593
-0.0281454
0.0298647
-0.0240946
0.0230911
-0.0197026
0.0170722
-0.0152326
0.0117931
-0.0109375
0.00721275
-0.00704024
0.00328849
-0.00371765
-0.00108852
0.0942637
-0.0214447
0.0919802
-0.0249214
0.088107
-0.0279145
0.0828494
-0.0302499
0.0764682
-0.0317891
0.0692596
-0.0324386
0.0615325
-0.0321569
0.0535863
-0.0309573
0.0456907
-0.0289067
0.0380701
-0.0261213
0.030893
-0.0227576
0.0242685
-0.019002
0.0182498
-0.0150571
0.0128438
-0.0111281
0.0080253
-0.00740829
0.00375527
-0.00406657
-0.00123632
0.087317
-0.0194238
0.0855126
-0.0222907
0.0823171
-0.0247754
0.077888
-0.0267437
0.0724284
-0.0280853
0.0661723
-0.0287208
0.0593684
-0.028607
0.0522631
-0.0277397
0.0450852
-0.0261542
0.0380326
-0.0239229
0.0312631
-0.0211514
0.0248884
-0.0179717
0.0189747
-0.0145341
0.0135465
-0.0109983
0.00859537
-0.00752322
0.00409198
-0.00425807
-0.00133324
0.079848
-0.0175727
0.078487
-0.0199107
0.0759185
-0.0219469
0.0722601
-0.0235788
0.0676664
-0.0247196
0.0623186
-0.0253032
0.0564129
-0.0252882
0.0501483
-0.0246605
0.0437147
-0.0234341
0.0372827
-0.0216509
0.0309946
-0.0193782
0.0249591
-0.0167058
0.019249
-0.0137408
0.013902
-0.0106021
0.00892512
-0.00741445
0.00430149
-0.00430129
-0.00137893
0.0720602
-0.0158902
0.0710964
-0.0177745
0.0690937
-0.01942
0.0661368
-0.0207491
0.0623403
-0.0216943
0.0578412
-0.0222015
0.0527911
-0.0222333
0.0473473
-0.0217708
0.0416641
-0.0208148
0.0358845
-0.0193863
0.0301331
-0.0175253
0.0245112
-0.0152897
0.0190927
-0.0127523
0.0139239
-0.00999795
0.00902428
-0.0071195
0.00439009
-0.0042137
-0.00137685
0.064151
-0.0143643
0.0635315
-0.015864
0.0620265
-0.0171736
0.0596945
-0.0182349
0.0566173
-0.0189959
0.0528961
-0.0194135
0.0486449
-0.019455
0.0439852
-0.0191004
0.0390393
-0.018343
0.0339242
-0.01719
0.0287457
-0.015663
0.0235943
-0.0137965
0.0185413
-0.0116374
0.0136368
-0.00924315
0.00890939
-0.00667944
0.00436704
-0.00401788
-0.00133323
0.0563019
-0.0129754
0.0559706
-0.0141528
0.0548923
-0.0151773
0.0531047
-0.0160057
0.0506641
-0.0165988
0.0476422
-0.0169224
0.0441228
-0.0169494
0.040197
-0.0166605
0.0359592
-0.0160455
0.0315024
-0.0151037
0.0269142
-0.013844
0.0222724
-0.0122851
0.0176423
-0.0104551
0.0130744
-0.00839038
0.00860249
-0.00613487
0.0042439
-0.00373854
-0.00125588
0.0486709
-0.0116982
0.0485715
-0.0126084
0.0478489
-0.0133942
0.0465251
-0.0140238
0.0446364
-0.014468
0.0422318
-0.0147004
0.0393703
-0.014699
0.0361182
-0.0144469
0.0325463
-0.0139326
0.0287265
-0.0131511
0.0247286
-0.0121041
0.0206178
-0.0107996
0.0164512
-0.00925263
0.0122764
-0.00748462
0.00812942
-0.00552286
0.00403375
-0.00339998
-0.00115315
0.0413871
-0.0105042
0.0414655
-0.0111954
0.0410303
-0.011784
0.0400921
-0.012247
0.0386722
-0.0125629
0.0368021
-0.0127118
0.0345215
-0.0126766
0.0318768
-0.0124429
0.0289191
-0.012
0.0257023
-0.011341
0.0222805
-0.0104634
0.0187058
-0.00936923
0.0150266
-0.00806493
0.0112856
-0.00656161
0.00751798
-0.00487476
0.00375039
-0.00302407
-0.00103306
0.0345484
-0.00936262
0.0347539
-0.00987632
0.0345424
-0.0103043
0.0339162
-0.0106305
0.0328859
-0.0108392
0.0314698
-0.010916
0.0296929
-0.0108477
0.0275863
-0.0106229
0.0251852
-0.0102324
0.0225285
-0.00966916
0.0196564
-0.00892897
0.0166094
-0.00801038
0.0134267
-0.00691496
0.0101448
-0.00564731
0.0067961
-0.0042151
0.00340753
-0.00262901
-0.000902642
0.0282209
-0.00824157
0.0285077
-0.00861291
0.0284616
-0.00891234
0.0280797
-0.0091287
0.0273652
-0.00925112
0.0263269
-0.0092692
0.0249792
-0.00917335
0.0233412
-0.00895492
0.0214362
-0.00860643
0.0192908
-0.00812183
0.0169337
-0.00749659
0.014395
-0.00672791
0.0117054
-0.00581483
0.00889441
-0.0047583
0.00599021
-0.00356126
0.00301813
-0.0022287
-0.000767569
0.022441
-0.00710821
0.0227681
-0.00736678
0.0228353
-0.00756529
0.0226368
-0.00769628
0.0221707
-0.0077524
0.0214398
-0.00772654
0.0204509
-0.00761201
0.0192147
-0.00740261
0.0177451
-0.0070928
0.0160594
-0.00667778
0.0141771
-0.00615365
0.0121196
-0.00551748
0.00990952
-0.00476741
0.00757002
-0.00390271
0.0051241
-0.00292387
0.00259387
-0.00183263
-0.000632012
0.0172188
-0.00592863
0.01755
-0.0060992
0.0176846
-0.00622063
0.0176151
-0.00628814
0.0173374
-0.00629705
0.0168502
-0.00624277
0.0161554
-0.00612094
0.0152578
-0.00592743
0.0141651
-0.00565848
0.0128874
-0.00531071
0.0114371
-0.00488121
0.00982862
-0.00436762
0.00807777
-0.00376814
0.00620164
-0.00308162
0.00421797
-0.00230757
0.0021448
-0.00144626
-0.000498663
0.012543
-0.00466735
0.0128465
-0.00477072
0.0130079
-0.00483573
0.0130199
-0.00485957
0.0128773
-0.00483951
0.0125769
-0.00477285
0.0121178
-0.00465703
0.0115012
-0.0044896
0.0107306
-0.00426829
0.00981106
-0.00399105
0.00874991
-0.00365606
0.00755601
-0.00326175
0.00623977
-0.00280689
0.0048129
-0.00229055
0.00328818
-0.00171216
0.00167917
-0.00107154
-0.000368896
0.00838605
-0.00328665
0.0086336
-0.00334048
0.00878635
-0.00336733
0.00883807
-0.00336578
0.00878387
-0.00333447
0.00862024
-0.00327206
0.00834511
-0.00317729
0.00795784
-0.00304898
0.00745926
-0.00288602
0.00685159
-0.00268742
0.00613843
-0.0024523
0.00532472
-0.0021799
0.0044166
-0.00186961
0.00342134
-0.00152098
0.00234725
-0.00113371
0.0012035
-0.000707696
-0.000242995
0.00470968
-0.00174571
0.0048758
-0.0017655
0.00498838
-0.0017709
0.0050432
-0.00176141
0.00503675
-0.00173655
0.00496626
-0.00169589
0.00482981
-0.00163903
0.00462628
-0.00156559
0.00435539
-0.00147525
0.00401771
-0.00136771
0.00361463
-0.00124275
0.00314837
-0.00110018
0.00262195
-0.00093985
0.00203912
-0.000761698
0.00140434
-0.000565701
0.000722733
-0.000351902
-0.000120409
0.00147007
-3.03022e-18
0.0015311
-2.40304e-18
0.00157521
-2.5755e-18
0.00160081
-2.50622e-18
0.0016066
-1.95075e-18
0.00159146
-1.85665e-18
0.00155457
-1.76687e-18
0.00149535
-1.32428e-18
0.00141352
-9.21337e-19
0.00130906
-6.57278e-19
0.00118222
-3.71501e-19
0.00103356
-3.73409e-19
0.000863866
-4.641e-19
0.000674224
-3.25304e-19
0.000465955
-1.66107e-19
0.00024062
-6.65839e-20
-1.33241e-20
-0.00137746
0.00199926
-0.00144404
0.00200506
-0.00149441
0.00199408
-0.00152686
0.00196623
-0.00153991
0.00192149
-0.00153234
0.00185986
-0.00150315
0.00178143
-0.00145164
0.0016863
-0.00137736
0.00157466
-0.00128013
0.0014467
-0.00116006
0.00130268
-0.00101754
0.00114288
-0.00085322
0.000967638
-0.000668014
0.000777304
-0.000463098
0.000572265
-0.000239882
0.000352934
0.000119746
-0.00387422
0.00430523
-0.00409054
0.00430206
-0.00425972
0.00426236
-0.00437632
0.0041864
-0.00443556
0.0040746
-0.0044334
0.00392752
-0.00436655
0.00374585
-0.00423255
0.00353036
-0.00402974
0.00328197
-0.00375729
0.00300164
-0.00341521
0.00269044
-0.00300431
0.00234949
-0.00252621
0.00197996
-0.0019833
0.00158307
-0.00137867
0.00116003
-0.000716103
0.00071211
0.000240544
-0.00605476
0.00697512
-0.00644291
0.00694637
-0.00675417
0.00685772
-0.00697885
0.00671038
-0.00710849
0.00650582
-0.00713593
0.00624574
-0.00705534
0.00593207
-0.00686227
0.00556694
-0.00655367
0.00515261
-0.00612788
0.00469148
-0.00558463
0.00418602
-0.00492495
0.00363876
-0.00415115
0.00305227
-0.0032667
0.0024291
-0.00227619
0.00177174
-0.00118516
0.00108265
0.000364176
-0.00794384
0.0100694
-0.00852627
0.00999542
-0.00900207
0.00983397
-0.00935698
0.00958785
-0.00957857
0.00926032
-0.0096564
0.00885505
-0.00958204
0.00837601
-0.00934912
0.00782741
-0.00895329
0.00721365
-0.00839217
0.00653925
-0.00766529
0.00580876
-0.00677397
0.00502671
-0.00572112
0.00419755
-0.00451116
0.00332556
-0.00314972
0.00241486
-0.0016435
0.00146928
0.000492384
-0.00955421
0.0136502
-0.0103537
0.0135072
-0.0110159
0.0132442
-0.0115217
0.0128666
-0.0118544
0.0123804
-0.0120004
0.0117922
-0.0119488
0.0111091
-0.0116918
0.0103383
-0.0112239
0.00948715
-0.0105424
0.00856315
-0.00964723
0.00757358
-0.00854007
0.00652551
-0.00722464
0.00542568
-0.00570617
0.0042804
-0.00399104
0.00309546
-0.00208644
0.00187606
0.000626773
-0.0108847
0.0177796
-0.0119243
0.0175384
-0.0127942
0.017139
-0.0134699
0.0165905
-0.0139308
0.0159034
-0.0141602
0.0150882
-0.0141452
0.0141564
-0.0138768
0.0131194
-0.0133496
0.0119886
-0.012561
0.0107752
-0.0115118
0.00948981
-0.0102047
0.00814259
-0.00864439
0.00674279
-0.00683696
0.00529875
-0.00478915
0.00381779
-0.00250796
0.0023061
0.000768707
-0.0119193
0.0225168
-0.0132221
0.0221414
-0.0143202
0.0215632
-0.0151836
0.020797
-0.0157877
0.019859
-0.0161133
0.0187658
-0.0161464
0.0175346
-0.0158776
0.0161822
-0.0153022
0.0147253
-0.0144192
0.0131797
-0.0132308
0.01156
-0.0117412
0.00987961
-0.00995673
0.00815034
-0.00788405
0.00638229
-0.00552997
0.00458375
-0.00290045
0.00276116
0.000919145
-0.0126261
0.0279152
-0.014215
0.0273616
-0.0155609
0.0265536
-0.0166283
0.0255141
-0.017389
0.0242669
-0.017822
0.0228371
-0.0179129
0.0212491
-0.0176537
0.0195273
-0.0170413
0.0176945
-0.0160774
0.0157719
-0.0147665
0.0137787
-0.0131155
0.0117315
-0.011132
0.00964435
-0.00882353
0.00752846
-0.00619642
0.00539218
-0.0032548
0.00324114
0.00107842
-0.0129583
0.0340192
-0.0148556
0.0332343
-0.016468
0.0321358
-0.0177545
0.0307573
-0.0186837
0.0291338
-0.0192339
0.0273007
-0.0193919
0.0252927
-0.0191522
0.0231428
-0.0185152
0.0208816
-0.0174861
0.0185365
-0.0160734
0.0161311
-0.0142867
0.0136853
-0.0121355
0.0112143
-0.00962784
0.00872943
-0.00676898
0.00623791
-0.00356054
0.00374326
0.00124587
-0.0128556
0.0408604
-0.0150828
0.0397811
-0.0169794
0.0383206
-0.0184988
0.0365273
-0.0196076
0.0344507
-0.0202846
0.0321401
-0.0205194
0.0296428
-0.0203105
0.0270027
-0.0196638
0.0242592
-0.0185896
0.0214464
-0.0171007
0.0185924
-0.0152104
0.015719
-0.0129299
0.0128419
-0.0102674
0.00997087
-0.0072266
0.00711049
-0.00380624
0.00426099
0.00141938
-0.0122463
0.0484549
-0.0148243
0.0470071
-0.0170221
0.0451018
-0.018788
0.0428068
-0.0200875
0.0401908
-0.0209015
0.037321
-0.0212242
0.0342601
-0.0210607
0.0310652
-0.0204235
0.0277855
-0.0193293
0.0244619
-0.0177965
0.0211261
-0.0158416
0.0178007
-0.0134777
0.0144998
-0.0107126
0.0112302
-0.00754801
0.00799242
-0.00398003
0.00478264
0.00159474
-0.0110524
0.0567996
-0.0140014
0.0548984
-0.0165174
0.0524537
-0.0185437
0.0495592
-0.020046
0.0463084
-0.0210093
0.0427907
-0.0214346
0.0390881
-0.0213353
0.0352726
-0.0207324
0.0314042
-0.0196503
0.0275298
-0.0181128
0.0236835
-0.0161398
0.0198866
-0.0137455
0.0161498
-0.0109366
0.0124747
-0.00771329
0.0088571
-0.00407029
0.00528957
0.00176488
-0.0091945
0.0658705
-0.0125348
0.06342
-0.0153866
0.0603299
-0.0176889
0.0567273
-0.0194087
0.0527374
-0.0205372
0.0484775
-0.0210847
0.0440523
-0.0210747
0.0395508
-0.0205381
0.0350438
-0.0195074
0.0305832
-0.0180117
0.0262028
-0.0160736
0.0219204
-0.0137071
0.0177406
-0.010918
0.0136589
-0.00770555
0.00966629
-0.00406638
0.00575421
0.00191903
-0.00659927
0.0756207
-0.0103517
0.0725151
-0.0135589
0.0686626
-0.0161556
0.0642334
-0.0181119
0.0593926
-0.0194272
0.0542914
-0.020123
0.0490616
-0.020235
0.0438103
-0.0198046
0.0386186
-0.0188722
0.0335411
-0.0174714
0.0286084
-0.0156258
0.0238312
-0.0133483
0.019206
-0.0106436
0.0147219
-0.0075126
0.0103674
-0.00395937
0.00613804
0.00204192
-0.00320701
0.0859796
-0.0073939
0.0821049
-0.0109792
0.0773635
-0.0138935
0.0719805
-0.0161113
0.0661704
-0.0176421
0.060126
-0.0185209
0.0540095
-0.0187962
0.0479476
-0.0185204
0.0420296
-0.0177404
0.0363093
-0.0164922
0.0308099
-0.0147983
0.0255318
-0.0126696
0.020462
-0.0101107
0.0155846
-0.00712828
0.010891
-0.00374274
0.0063897
0.0021131
0.00101982
0.0968531
-0.00362615
0.0920895
-0.00761678
0.0863252
-0.0108782
0.0798541
-0.0133901
0.0729518
-0.0151743
0.0658604
-0.01628
0.0587768
-0.0167694
0.051847
-0.0167045
0.0451654
-0.0161364
0.03878
-0.0151004
0.0327018
-0.0136153
0.0269176
-0.0116889
0.021405
-0.00932832
0.0161474
-0.00655341
0.0111486
-0.0034129
0.00644379
0.00210662
0.00608858
0.108125
0.000955976
0.10235
-0.00347288
0.0954242
-0.00711848
0.0877256
-0.00996655
0.0796052
-0.0120518
0.0713633
-0.0134388
0.0632348
-0.0142025
0.0553836
-0.0144116
0.0479044
-0.0141179
0.0408332
-0.0133515
0.034163
-0.0121246
0.0278647
-0.010442
0.0219091
-0.00831803
0.0162879
-0.00579604
0.0110315
-0.00296958
0.00622062
0.00199117
0.0119695
0.119657
0.00631958
0.112753
0.00141326
0.104524
-0.00266228
0.0954564
-0.0058985
0.0859913
-0.00834352
0.0764966
-0.0100764
0.0672486
-0.0111826
0.0584259
-0.0117336
0.0501169
-0.011776
0.0423371
-0.0113297
0.0350563
-0.0103971
0.028229
-0.00898172
0.0218257
-0.0071125
0.0158605
-0.00487101
0.0104109
-0.00241584
0.00562739
0.00173102
0.0185905
0.131295
0.01239
0.123149
0.00696058
0.11348
0.00240046
0.102902
-0.00128621
0.0919669
-0.00416005
0.0811201
-0.00631282
0.0706815
-0.00783615
0.0608395
-0.00879832
0.0516666
-0.00923344
0.0431493
-0.009145
0.0352289
-0.0085234
0.0278461
-0.0073744
0.0209832
-0.00575333
0.0146975
-0.00379869
0.00914082
-0.00175803
0.00456125
0.0012876
0.0258351
0.142866
0.0190495
0.133383
0.0130456
0.122143
0.00793804
0.109918
0.00372914
0.0973905
0.000348096
0.0850962
-0.00230584
0.073399
-0.00432448
0.0624898
-0.00576439
0.0524138
-0.0066384
0.0431184
-0.00692703
0.034513
-0.00660753
0.0265319
-0.00569505
0.0191885
-0.00428733
0.0126122
-0.0026032
0.00706229
-0.00100538
0.00291441
0.0006222
-0.0302052
-0.0961048
0.0328502
-0.0272585
-0.103181
-0.0240539
-0.109739
-0.0206458
-0.115551
-0.0170983
-0.120391
-0.0134833
-0.124039
-0.00987867
-0.126299
-0.00636647
-0.127005
-0.00303031
-0.126032
4.66654e-05
-0.123298
0.0027838
-0.118773
0.00510468
-0.112479
0.00693851
-0.104483
0.00822124
-0.0949023
0.00889627