/*--------------------------------*- C++ -*----------------------------------*\
  =========                 |
  \\      /  F ield         | OpenFOAM: The Open Source CFD Toolbox
   \\    /   O peration     | Website:  https://openfoam.org
    \\  /    A nd           | Version:  6
     \\/     M anipulation  |
\*---------------------------------------------------------------------------*/
FoamFile
{
    version     2.0;
    format      ascii;
    class       volScalarField;
    location    "1.78";
    object      p;
}
// * * * * * * * * * * * * * * * * * * * * * * * * * * * * * * * * * * * * * //

dimensions      [0 2 -2 0 0 0 0];

internalField   nonuniform List<scalar> 
4214
(
-0.182985
-0.152489
-0.108692
-0.0749762
-0.0629132
-0.0612823
-0.055898
-0.0417148
-0.0276499
-0.0170512
-0.00706086
0.00263378
0.011842
0.0255796
0.0389486
0.0504491
0.0594214
0.055418
0.05296
0.0477324
0.0465914
0.0432259
0.0469595
0.0363546
0.0359483
0.0385258
0.0390687
0.0242762
0.00675257
-0.00859032
-0.0245567
-0.0413138
-0.0585877
-0.0783532
-0.0946195
-0.101442
-0.103105
-0.11215
-0.135581
-0.159397
-0.16874
-0.150919
-0.171113
-0.15806
-0.120596
-0.0945435
-0.0783244
-0.0661005
-0.0538803
-0.0413059
-0.0288257
-0.0177313
-0.00677978
0.00606141
0.022607
0.0406004
0.0602386
0.0802117
0.0914537
0.102988
0.113475
0.130648
0.136718
0.146767
0.153239
0.14112
0.114107
0.091852
0.060216
0.0291025
-0.000702702
-0.0282582
-0.0590143
-0.0902659
-0.118277
-0.141508
-0.160896
-0.179623
-0.205431
-0.23093
-0.203648
-0.173452
-0.258248
-0.248585
-0.23209
-0.186475
-0.149469
-0.124348
-0.100887
-0.0791514
-0.0593971
-0.0393011
-0.0193875
0.00332477
0.0277119
0.0551896
0.0846515
0.113257
0.139636
0.161294
0.183799
0.205298
0.238185
0.254073
0.25796
0.261015
0.248556
0.217419
0.178346
0.131695
0.0803176
0.0265774
-0.0263539
-0.0770958
-0.128932
-0.177915
-0.223676
-0.264938
-0.302593
-0.343716
-0.373911
-0.338084
-0.327665
-0.334661
-0.297046
-0.276992
-0.233466
-0.189026
-0.154607
-0.12326
-0.0935161
-0.0664473
-0.0392827
-0.011203
0.0196855
0.0528916
0.0883696
0.125637
0.16182
0.198517
0.230704
0.267077
0.302186
0.347766
0.373629
0.381361
0.38117
0.373953
0.331587
0.277826
0.217474
0.149585
0.0761752
0.00167706
-0.0726378
-0.144068
-0.214171
-0.279657
-0.338162
-0.394153
-0.450223
-0.488612
-0.467849
-0.470568
-0.3944
-0.354507
-0.326301
-0.276246
-0.222002
-0.177715
-0.138881
-0.102926
-0.0676035
-0.0316432
0.00585258
0.0456082
0.0874491
0.131184
0.176428
0.221195
0.26828
0.311892
0.361046
0.407937
0.462811
0.499199
0.509023
0.516273
0.502073
0.458433
0.396722
0.323477
0.239184
0.146529
0.0482102
-0.0506206
-0.146856
-0.23849
-0.326261
-0.406077
-0.479017
-0.550351
-0.603429
-0.604526
-0.613549
-0.441815
-0.40234
-0.369143
-0.307851
-0.243899
-0.191033
-0.14548
-0.101855
-0.0567858
-0.0128383
0.0330677
0.0807128
0.130325
0.181427
0.234179
0.287561
0.345293
0.40078
0.46279
0.52106
0.584504
0.631353
0.645395
0.656029
0.640938
0.601624
0.533974
0.449204
0.349659
0.237713
0.116058
-0.00778461
-0.130649
-0.247991
-0.360748
-0.464378
-0.558619
-0.647856
-0.717628
-0.735113
-0.754516
-0.480096
-0.44248
-0.404401
-0.33072
-0.256475
-0.195986
-0.142597
-0.0893698
-0.0352583
0.0167794
0.0702212
0.125318
0.182382
0.240903
0.301446
0.363576
0.431374
0.497941
0.572742
0.64152
0.713376
0.770472
0.792142
0.809169
0.799632
0.76289
0.691265
0.596164
0.481671
0.350275
0.205482
0.0533267
-0.0991073
-0.247413
-0.388903
-0.519982
-0.638978
-0.750686
-0.836395
-0.868405
-0.899182
-0.51498
-0.47593
-0.429971
-0.34403
-0.260188
-0.192208
-0.12936
-0.0672869
-0.00462532
0.055551
0.116671
0.179015
0.242908
0.308922
0.377807
0.44867
0.525818
0.602653
0.690181
0.769305
0.850146
0.91727
0.950257
0.977078
0.975999
0.940678
0.869737
0.765877
0.636704
0.484879
0.314527
0.130587
-0.0550597
-0.238495
-0.416151
-0.580091
-0.727865
-0.863747
-0.968813
-1.01356
-1.0566
-0.550194
-0.503344
-0.446053
-0.348832
-0.256315
-0.17816
-0.106285
-0.0358666
0.0341473
0.101299
0.169369
0.238532
0.310198
0.383403
0.460282
0.539855
0.626872
0.714402
0.814717
0.904445
0.99542
1.07291
1.11999
1.16007
1.17299
1.13931
1.071
0.959986
0.816345
0.641765
0.440977
0.221019
-0.00556834
-0.233849
-0.454141
-0.656791
-0.838055
-1.00069
-1.12465
-1.18071
-1.23625
-0.585334
-0.524924
-0.453537
-0.346103
-0.241301
-0.152432
-0.0704176
0.00957682
0.0882315
0.162663
0.237416
0.312781
0.390274
0.468591
0.55134
0.637072
0.732838
0.831436
0.944835
1.04634
1.14975
1.23962
1.30281
1.36039
1.39286
1.36423
1.29187
1.17807
1.02061
0.819818
0.582028
0.318302
0.0388393
-0.245373
-0.516591
-0.764634
-0.984133
-1.17537
-1.31691
-1.38147
-1.44883
-0.617764
-0.541054
-0.453333
-0.331883
-0.215311
-0.115218
-0.0225059
0.0676078
0.155204
0.240698
0.324788
0.408012
0.492696
0.577045
0.66631
0.757428
0.858584
0.961558
1.08494
1.19748
1.31432
1.41949
1.5031
1.58346
1.63702
1.61256
1.53526
1.41857
1.24408
1.00953
0.723511
0.401254
0.0572536
-0.288933
-0.619124
-0.919199
-1.18078
-1.40297
-1.56412
-1.63413
-1.70965
-0.649508
-0.554506
-0.448386
-0.31199
-0.183153
-0.0717582
0.030634
0.129108
0.224114
0.316198
0.408882
0.502176
0.599957
0.697183
0.800494
0.904205
1.01779
1.13103
1.25804
1.37165
1.49573
1.61423
1.72445
1.83385
1.90538
1.8828
1.80064
1.67032
1.46912
1.18625
0.837569
0.445047
0.0392021
-0.376073
-0.776027
-1.14158
-1.46039
-1.72598
-1.90634
-1.97931
-2.06109
-0.687983
-0.569932
-0.441863
-0.289749
-0.147661
-0.0238413
0.0896928
0.198194
0.301515
0.399084
0.494665
0.585741
0.683428
0.780518
0.893299
1.01132
1.14565
1.28406
1.43563
1.56733
1.7046
1.83113
1.96545
2.10519
2.18791
2.1632
2.07173
1.92045
1.67643
1.34157
0.925146
0.4523
-0.0547255
-0.571095
-1.06494
-1.51226
-1.89449
-2.20391
-2.39863
-2.47114
-2.56116
-0.736928
-0.590115
-0.433918
-0.261726
-0.101484
0.0380861
0.169058
0.294181
0.410801
0.521057
0.629603
0.73205
0.842811
0.942614
1.06122
1.16942
1.30137
1.42604
1.57768
1.72317
1.89987
2.06485
2.22439
2.37975
2.45885
2.42749
2.323
2.14896
1.86031
1.4593
0.957148
0.369734
-0.276479
-0.937957
-1.55535
-2.10736
-2.5594
-2.91062
-3.10963
-3.17168
-3.25836
-0.807514
-0.616757
-0.428466
-0.23314
-0.0509064
0.107075
0.254163
0.397763
0.534097
0.668127
0.798389
0.926563
1.06144
1.1864
1.33066
1.44326
1.59021
1.69763
1.83934
1.94878
2.12225
2.29457
2.47424
2.63763
2.68869
2.64453
2.52039
2.32767
1.98104
1.50529
0.870335
0.120213
-0.719392
-1.58191
-2.36243
-3.05332
-3.57326
-3.94724
-4.12998
-4.16408
-4.21854
-0.972347
-0.688388
-0.465882
-0.230078
-0.0399231
0.154134
0.311778
0.471245
0.608933
0.759081
0.890295
1.03104
1.15966
1.27603
1.42641
1.529
1.71532
1.83211
2.04713
2.19731
2.43252
2.58815
2.74173
2.8815
2.86359
2.77813
2.61266
2.36356
1.93961
1.37329
0.548919
-0.398836
-1.54401
-2.69365
-3.74571
-4.60109
-5.14371
-5.45315
-5.54295
-5.49153
-5.44057
-1.29355
-0.875787
-0.602611
-0.271038
-0.0592221
0.187916
0.365026
0.545108
0.671627
0.814898
0.900816
1.02442
1.11696
1.21022
1.36246
1.41418
1.65026
1.73434
2.04098
2.24619
2.59635
2.87022
3.02121
3.15907
3.11516
2.98976
2.81043
2.36142
1.8916
0.952085
-0.103897
-1.55403
-3.23281
-4.77745
-6.41647
-6.94215
-7.52637
-7.40116
-7.29993
-7.00825
-6.81252
-6.531
-5.44578
-4.42515
-3.53382
-2.84432
-2.32223
-1.9531
-1.67519
-1.44901
-1.25834
-1.09249
-0.941818
-0.795045
-0.65607
-0.503517
-0.395446
-0.305532
-6.30195
-5.38691
-4.57313
-3.80625
-3.1503
-2.61711
-2.2118
-1.91011
-1.6679
-1.46284
-1.28399
-1.12429
-0.975233
-0.835342
-0.675528
-0.580511
-0.423582
-5.98713
-5.28378
-4.61162
-3.97031
-3.38543
-2.88294
-2.46273
-2.14882
-1.89598
-1.68181
-1.49552
-1.32838
-1.17412
-1.02883
-0.868072
-0.774571
-0.586671
-5.72062
-5.15389
-4.59081
-4.06569
-3.56541
-3.11061
-2.70974
-2.38166
-2.12373
-1.90524
-1.71314
-1.54125
-1.38385
-1.23589
-1.0764
-0.980391
-0.778372
-5.42936
-5.00047
-4.54196
-4.10686
-3.68687
-3.29027
-2.92618
-2.60172
-2.34119
-2.12348
-1.93117
-1.75868
-1.60094
-1.45408
-1.29863
-1.19998
-0.991476
-5.18081
-4.83411
-4.46884
-4.10266
-3.75757
-3.42118
-3.10054
-2.80398
-2.54299
-2.33004
-2.14367
-1.97518
-1.8207
-1.67865
-1.52887
-1.43097
-1.22102
-4.92502
-4.66456
-4.37621
-4.07501
-3.79275
-3.51259
-3.23734
-2.97465
-2.72993
-2.52218
-2.34474
-2.18453
-2.03729
-1.90265
-1.76175
-1.66909
-1.4621
-4.70889
-4.49678
-4.27366
-4.02947
-3.7954
-3.56796
-3.33896
-3.11306
-2.89661
-2.69715
-2.52971
-2.38147
-2.24491
-2.11955
-1.99174
-1.90439
-1.71309
-4.48995
-4.33499
-4.16326
-3.96784
-3.77546
-3.59455
-3.40913
-3.22108
-3.03573
-2.8568
-2.69869
-2.56268
-2.43898
-2.32554
-2.21291
-2.13004
-1.96668
-4.30851
-4.1804
-4.05055
-3.89607
-3.74118
-3.59505
-3.44902
-3.29821
-3.14558
-2.9946
-2.85038
-2.72655
-2.61695
-2.51657
-2.42004
-2.34356
-2.2115
-4.12335
-4.03231
-3.93245
-3.81372
-3.69148
-3.57414
-3.46176
-3.34546
-3.2253
-3.10357
-2.98239
-2.87108
-2.7757
-2.68912
-2.61018
-2.54124
-2.44038
-3.97195
-3.89432
-3.81922
-3.72703
-3.63126
-3.5391
-3.45103
-3.36419
-3.27411
-3.18115
-3.0868
-2.99323
-2.9114
-2.83932
-2.77822
-2.71872
-2.64849
-3.81523
-3.76152
-3.70396
-3.63578
-3.56192
-3.49021
-3.4215
-3.35591
-3.29123
-3.22484
-3.15646
-3.08663
-3.0202
-2.9619
-2.91585
-2.8677
-2.82765
-3.68539
-3.63884
-3.59605
-3.54302
-3.4857
-3.42971
-3.37647
-3.32593
-3.27853
-3.23323
-3.18763
-3.14152
-3.095
-3.05137
-3.01774
-2.98242
-2.96729
-3.55411
-3.52121
-3.48576
-3.44555
-3.40303
-3.36002
-3.31832
-3.27926
-3.24303
-3.21
-3.18021
-3.15242
-3.12483
-3.09849
-3.07712
-3.05439
-3.05471
-3.4328
-3.40587
-3.38163
-3.34968
-3.31602
-3.28317
-3.25103
-3.2201
-3.19168
-3.1666
-3.1452
-3.1279
-3.11323
-3.10251
-3.09118
-3.08501
-3.09054
-3.32532
-3.30336
-3.27743
-3.24968
-3.22304
-3.19778
-3.17337
-3.15029
-3.12928
-3.11107
-3.09636
-3.0852
-3.07698
-3.07335
-3.06901
-3.07194
-3.08242
-3.20069
-3.18292
-3.16679
-3.14502
-3.12408
-3.1044
-3.08485
-3.06677
-3.05068
-3.03653
-3.02476
-3.0156
-3.00874
-3.00549
-3.0004
-3.00689
-3.0129
-3.11613
-3.09382
-3.06524
-3.04037
-3.01964
-3.00061
-2.98333
-2.96782
-2.95393
-2.94181
-2.93164
-2.92276
-2.9152
-2.91004
-2.90375
-2.91078
-2.905
-2.97519
-2.96175
-2.94852
-2.92862
-2.90876
-2.8902
-2.8729
-2.85701
-2.8425
-2.82937
-2.81784
-2.80793
-2.7993
-2.79408
-2.78814
-2.79471
-2.7793
-2.90325
-2.8829
-2.84616
-2.81889
-2.79872
-2.77877
-2.75961
-2.74202
-2.72552
-2.70998
-2.69558
-2.6818
-2.66832
-2.65895
-2.64293
-2.64356
-2.61185
-2.75909
-2.74605
-2.72676
-2.7049
-2.68373
-2.66276
-2.64272
-2.623
-2.60274
-2.58186
-2.55999
-2.53624
-2.5113
-2.48751
-2.45067
-2.43503
-2.36942
-2.68549
-2.66197
-2.61876
-2.58963
-2.56458
-2.53754
-2.51011
-2.48116
-2.44862
-2.41147
-2.36876
-2.31983
-2.26605
-2.20692
-2.1359
-2.08686
-1.97253
-2.54398
-2.52462
-2.48549
-2.4505
-2.41488
-2.37251
-2.32372
-2.26782
-2.20318
-2.13005
-2.04953
-1.96294
-1.87291
-1.77922
-1.67847
-1.59974
-1.46238
-2.43112
-2.3991
-2.33237
-2.27528
-2.21395
-2.1411
-2.05653
-1.96302
-1.86304
-1.75751
-1.64607
-1.53109
-1.41579
-1.29894
-1.18229
-1.08796
-0.945984
-2.2672
-2.22435
-2.13728
-2.0554
-1.95777
-1.85144
-1.74064
-1.62109
-1.49461
-1.36375
-1.23024
-1.09706
-0.967146
-0.839147
-0.718627
-0.617878
-0.480365
-2.09973
-2.04103
-1.9185
-1.8037
-1.68697
-1.55673
-1.42012
-1.27787
-1.13177
-0.984577
-0.838797
-0.697697
-0.563537
-0.435195
-0.318741
-0.220127
-0.0967111
-1.92147
-1.83141
-1.69251
-1.55824
-1.41563
-1.26416
-1.10813
-0.949967
-0.7921
-0.637357
-0.488317
-0.347897
-0.217561
-0.0963354
0.0111359
0.101363
0.207133
-1.73404
-1.62693
-1.4614
-1.3093
-1.14973
-0.982895
-0.814358
-0.647363
-0.484976
-0.330045
-0.184889
-0.0515778
0.0693331
0.178879
0.274632
0.353632
0.44248
-1.54461
-1.42177
-1.24062
-1.07208
-0.89873
-0.720805
-0.544932
-0.375153
-0.214575
-0.0655152
0.0704393
0.192212
0.300308
0.396282
0.479315
0.547148
0.622063
-1.34768
-1.22285
-1.03085
-0.848536
-0.66417
-0.480062
-0.302374
-0.135424
0.0181123
0.156897
0.280463
0.388839
0.483555
0.566779
0.63716
0.694362
0.758769
-1.18276
-1.03219
-0.83094
-0.639512
-0.447922
-0.262459
-0.0880539
0.0715959
0.214695
0.341026
0.451347
0.546669
0.628957
0.700553
0.760371
0.80914
0.86488
-1.00585
-0.856769
-0.646803
-0.448538
-0.253232
-0.0701695
0.0973249
0.246901
0.378066
0.491676
0.589431
0.673043
0.744482
0.805979
0.856974
0.899197
0.947363
-0.882423
-0.702067
-0.483439
-0.281011
-0.0848813
0.0936423
0.252597
0.391263
0.510608
0.61244
0.699048
0.772598
0.835031
0.888404
0.933039
0.970902
1.01348
-0.729694
-0.561799
-0.339285
-0.135906
0.0575208
0.229032
0.378711
0.507069
0.616038
0.70807
0.785866
0.851945
0.908315
0.956571
0.996823
1.03174
1.07072
-0.633981
-0.430815
-0.204523
-0.00391086
0.183246
0.346101
0.486439
0.605469
0.70586
0.790457
0.861966
0.922586
0.974112
1.01789
1.05384
1.08507
1.11992
-0.501875
-0.320414
-0.090901
0.109502
0.29254
0.448889
0.58165
0.692977
0.786199
0.864463
0.930435
0.986069
1.03289
1.07207
1.10368
1.13087
1.16107
-0.425205
-0.213621
0.0138685
0.211381
0.388735
0.538091
0.663702
0.768522
0.856152
0.929652
0.99124
1.04242
1.08449
1.1187
1.14547
1.16793
1.19267
-0.291927
-0.0842161
0.15049
0.344469
0.511767
0.649171
0.763416
0.858233
0.937212
1.00284
1.05677
1.10032
1.1349
1.16204
1.18259
1.19914
1.21706
-0.207284
0.0356745
0.26721
0.453892
0.611206
0.739577
0.846249
0.934435
1.00697
1.06582
1.11259
1.14887
1.17623
1.19621
1.20995
1.22112
1.23612
0.785496
0.846046
0.915035
0.976244
1.04468
1.10669
1.17678
1.24389
1.32169
1.39797
1.4859
1.57249
1.67135
1.76786
1.87496
1.97973
2.09144
2.20026
2.30407
2.40436
2.47522
2.53711
2.54287
2.53428
2.4862
2.4092
2.28214
2.101
1.91989
1.68272
1.49169
1.23562
1.06782
0.835785
0.694355
0.495286
0.379749
0.21634
0.124329
-0.010868
-0.0892087
0.807471
0.871913
0.936016
0.998177
1.06038
1.12243
1.18529
1.25115
1.32005
1.39342
1.4712
1.55399
1.64239
1.73481
1.83315
1.93308
2.03576
2.13598
2.23156
2.32045
2.38641
2.43762
2.44728
2.43446
2.39265
2.3197
2.20445
2.04643
1.87362
1.67931
1.48884
1.28639
1.09966
0.926132
0.770136
0.62494
0.496615
0.381615
0.280259
0.1895
0.10629
0.85974
0.915902
0.970958
1.02469
1.07907
1.13473
1.1931
1.25338
1.31709
1.38535
1.45823
1.53641
1.61937
1.70718
1.79919
1.8934
1.98846
2.08098
2.16849
2.24758
2.30798
2.3507
2.36081
2.34699
2.30789
2.24077
2.13593
1.99593
1.83846
1.66983
1.49635
1.32128
1.15332
1.00018
0.860902
0.736602
0.625795
0.529363
0.445907
0.372708
0.308251
0.902255
0.951974
1.00019
1.04798
1.09653
1.14714
1.20127
1.2576
1.31748
1.38146
1.4501
1.52369
1.60189
1.68482
1.7713
1.85962
1.94797
2.03348
2.11339
2.18435
2.23867
2.27515
2.28426
2.27035
2.2335
2.17179
2.07731
1.95227
1.81189
1.66201
1.50713
1.35286
1.20448
1.06794
0.945084
0.836276
0.740683
0.658135
0.588287
0.526773
0.476797
0.933811
0.979658
1.02369
1.06758
1.11247
1.15913
1.20881
1.26271
1.31891
1.3794
1.44448
1.51422
1.58836
1.6669
1.7484
1.83123
1.91347
1.99252
2.06552
2.12941
2.17786
2.209
2.2165
2.20285
2.16782
2.11111
2.02582
1.91434
1.78959
1.65629
1.51894
1.38287
1.25219
1.13116
1.02275
0.927281
0.844458
0.773701
0.714768
0.662405
0.624396
0.96082
1.00285
1.0438
1.08487
1.12705
1.17089
1.21727
1.26762
1.32163
1.37904
1.44122
1.50769
1.57831
1.65279
1.72974
1.80753
1.88419
1.95729
2.02403
2.08161
2.1246
2.15112
2.15682
2.14349
2.1101
2.05781
1.98073
1.88142
1.77053
1.65224
1.53086
1.41081
1.29544
1.18848
1.09257
1.00843
0.936001
0.874672
0.823944
0.778257
0.749279
0.984586
1.0231
1.06161
1.10041
1.14034
1.18198
1.22603
1.27341
1.32513
1.38012
1.4396
1.50341
1.57107
1.6419
1.71472
1.78791
1.85947
1.92711
1.98818
2.04008
2.07816
2.10055
2.10443
2.0914
2.05944
2.01095
1.94116
1.85267
1.75403
1.64916
1.54193
1.43615
1.33421
1.23957
1.15452
1.08004
1.01622
0.96244
0.918064
0.877678
0.855279
1.00636
1.04134
1.07775
1.11451
1.15249
1.19224
1.23448
1.27988
1.32918
1.38292
1.43978
1.5011
1.56616
1.6338
1.70289
1.77186
1.83876
1.90138
1.9573
2.00402
2.03787
2.05651
2.05866
2.0459
2.01507
1.96979
1.90652
1.82754
1.73962
1.64655
1.55171
1.45847
1.36825
1.28422
1.20857
1.1423
1.08556
1.03778
0.998364
0.962404
0.944175
1.02609
1.05835
1.09256
1.12733
1.16356
1.20169
1.24242
1.28634
1.33401
1.38577
1.44133
1.50045
1.56314
1.62805
1.69383
1.75897
1.8216
1.87964
1.93086
1.97283
2.00314
2.01836
2.01892
2.00635
1.97632
1.93379
1.87629
1.80557
1.72697
1.64412
1.56003
1.47756
1.39749
1.32258
1.25498
1.19568
1.14476
1.10176
1.06627
1.03419
1.01795
1.04411
1.0741
1.1062
1.13886
1.17355
1.21027
1.24979
1.29256
1.33909
1.38956
1.44375
1.50129
1.5619
1.6243
1.68719
1.74892
1.80767
1.86154
1.90846
1.94627
1.97321
1.98553
1.98474
1.97217
1.94274
1.90265
1.85012
1.78652
1.71595
1.64183
1.56687
1.49342
1.42199
1.35489
1.29414
1.2407
1.19458
1.15543
1.12299
1.09433
1.07831
1.06124
1.08838
1.1181
1.14912
1.18234
1.21784
1.25649
1.29846
1.34428
1.39392
1.44713
1.50343
1.56234
1.62245
1.68268
1.7413
1.79663
1.84673
1.88976
1.9239
1.9476
1.95768
1.95573
1.94285
1.91403
1.87624
1.82793
1.77036
1.70664
1.63983
1.57244
1.50652
1.44223
1.38158
1.32652
1.27796
1.23584
1.1998
1.16965
1.1438
1.1269
1.07747
1.10127
1.1283
1.15751
1.18982
1.22462
1.26244
1.30377
1.3493
1.39852
1.45107
1.50642
1.56382
1.62229
1.68011
1.73583
1.78805
1.83482
1.8744
1.90528
1.9259
1.93454
1.93148
1.91785
1.88984
1.85433
1.80957
1.757
1.69908
1.63807
1.57678
1.51714
1.45885
1.40333
1.3527
1.30797
1.26906
1.23552
1.20707
1.18318
1.16492
1.09155
1.11278
1.13714
1.16443
1.19549
1.2301
1.2676
1.30856
1.35365
1.40286
1.4552
1.50994
1.56632
1.62324
1.67909
1.7324
1.78162
1.82539
1.86196
1.88999
1.90799
1.91553
1.91152
1.89673
1.86988
1.83641
1.79453
1.74595
1.69259
1.63628
1.57969
1.52437
1.47157
1.42039
1.37306
1.33095
1.29426
1.2625
1.23531
1.21246
1.19266
1.10289
1.12245
1.1446
1.16975
1.19932
1.23337
1.27128
1.31261
1.35784
1.40702
1.4595
1.51407
1.56973
1.6253
1.67945
1.73101
1.77753
1.81846
1.85235
1.87787
1.89377
1.90005
1.89546
1.87946
1.85417
1.82214
1.7826
1.73711
1.68733
1.63489
1.58193
1.52988
1.48002
1.43265
1.3877
1.34705
1.31121
1.2801
1.25342
1.23079
1.20998
1.11057
1.12816
1.14843
1.17181
1.20025
1.23398
1.27279
1.31572
1.36216
1.41206
1.46476
1.51941
1.57484
1.62952
1.68217
1.73131
1.77624
1.81457
1.8459
1.86905
1.88315
1.88809
1.8832
1.86661
1.84301
1.81219
1.77466
1.7317
1.68474
1.63534
1.58479
1.53469
1.48615
1.44009
1.39694
1.35688
1.3205
1.28864
1.26171
1.23904
1.2194
1.11786
1.12894
1.14622
1.16927
1.19793
1.23238
1.27243
1.31726
1.36559
1.41693
1.47066
1.52567
1.58111
1.63536
1.68695
1.73453
1.7771
1.81363
1.84278
1.86387
1.87646
1.88027
1.87488
1.85908
1.83662
1.80716
1.77148
1.7306
1.68566
1.63789
1.58874
1.53961
1.49174
1.44584
1.40242
1.36196
1.32533
1.29303
1.26586
1.24403
1.22736
1.12879
1.12995
1.14351
1.16558
1.19525
1.2309
1.27175
1.31712
1.36615
1.41829
1.47292
1.52882
1.58472
1.63886
1.69004
1.73691
1.77845
1.81368
1.8418
1.86198
1.87375
1.87688
1.87108
1.8562
1.83432
1.8058
1.77122
1.73142
1.68745
1.64051
1.59196
1.54313
1.4951
1.44874
1.40472
1.36378
1.32681
1.29481
1.26864
1.25005
1.24336
-0.321233
-0.353277
-0.399097
-0.47983
-0.545125
-0.608817
-0.659137
-0.699197
-0.735628
-0.774752
-0.815284
-0.858382
-0.916684
-0.992539
-1.07357
-1.13703
-1.36338
-0.401662
-0.481539
-0.524226
-0.605055
-0.663553
-0.721138
-0.769757
-0.814584
-0.860118
-0.911042
-0.966187
-1.03085
-1.12345
-1.23003
-1.31256
-1.51832
-1.97115
-0.526152
-0.628967
-0.668305
-0.744789
-0.801074
-0.857804
-0.9092
-0.959795
-1.01344
-1.07371
-1.13952
-1.22115
-1.33854
-1.47234
-1.6371
-2.04708
-2.68307
-0.677545
-0.783299
-0.823092
-0.894744
-0.949588
-1.00612
-1.06068
-1.11804
-1.18158
-1.25249
-1.32992
-1.4274
-1.55735
-1.6974
-1.85677
-2.08855
-2.51304
-0.848903
-0.950725
-0.990892
-1.05783
-1.1122
-1.17018
-1.22929
-1.29447
-1.36832
-1.45063
-1.54446
-1.66559
-1.81368
-1.95631
-2.12212
-2.42471
-2.8251
-1.03603
-1.13118
-1.17096
-1.23355
-1.28736
-1.34671
-1.40957
-1.48059
-1.56089
-1.65129
-1.76065
-1.89783
-2.05799
-2.23624
-2.48151
-2.92383
-3.42446
-1.23749
-1.32438
-1.36301
-1.42203
-1.47578
-1.53681
-1.60321
-1.67809
-1.76202
-1.85836
-1.97449
-2.10978
-2.26379
-2.4388
-2.64064
-2.89294
-3.24023
-1.4493
-1.52687
-1.56377
-1.61947
-1.67367
-1.73609
-1.80515
-1.88272
-1.97141
-2.07569
-2.19545
-2.32975
-2.47657
-2.63154
-2.80131
-3.0013
-3.21249
-1.66609
-1.73281
-1.76834
-1.82024
-1.87408
-1.93553
-2.00415
-2.08299
-2.17598
-2.28204
-2.40173
-2.53821
-2.69101
-2.85624
-3.05223
-3.32634
-3.59929
-1.88244
-1.93738
-1.97263
-2.02028
-2.07208
-2.1305
-2.19725
-2.27547
-2.36453
-2.4625
-2.57063
-2.69035
-2.8207
-2.95748
-3.09724
-3.25765
-3.44759
-2.09166
-2.13561
-2.16985
-2.21284
-2.26097
-2.31644
-2.38187
-2.4567
-2.53819
-2.62633
-2.72146
-2.8232
-2.92882
-3.03457
-3.13829
-3.23833
-3.35128
-2.28709
-2.32138
-2.35258
-2.389
-2.43235
-2.485
-2.54568
-2.61266
-2.68608
-2.76651
-2.85381
-2.94747
-3.04631
-3.14824
-3.26238
-3.40757
-3.55038
-2.46045
-2.48603
-2.51138
-2.54186
-2.58001
-2.62643
-2.6776
-2.73399
-2.79549
-2.86186
-2.93238
-3.00649
-3.08308
-3.15976
-3.23701
-3.32869
-3.42785
-2.59983
-2.61604
-2.63409
-2.663
-2.6956
-2.73384
-2.77619
-2.8232
-2.87411
-2.9278
-2.98363
-3.04068
-3.09771
-3.15342
-3.2059
-3.25233
-3.30178
-2.68973
-2.7028
-2.71453
-2.74053
-2.76715
-2.79875
-2.83327
-2.87067
-2.91022
-2.95151
-2.99425
-3.03873
-3.08428
-3.1305
-3.18074
-3.23781
-3.30013
-2.73761
-2.74753
-2.75502
-2.77429
-2.79239
-2.81378
-2.83696
-2.86247
-2.89026
-2.92036
-2.95306
-2.98828
-3.02547
-3.06412
-3.108
-3.16227
-3.209
-2.73585
-2.74151
-2.74416
-2.75441
-2.76531
-2.77991
-2.7971
-2.81699
-2.83932
-2.86382
-2.8903
-2.91858
-2.94813
-2.97855
-3.00776
-3.03282
-3.05427
-2.66748
-2.67092
-2.67354
-2.68258
-2.69212
-2.7047
-2.71947
-2.73656
-2.7558
-2.77698
-2.8002
-2.82547
-2.85099
-2.87561
-2.90186
-2.93059
-2.96538
-2.54616
-2.55091
-2.55457
-2.56407
-2.5734
-2.58537
-2.59917
-2.61482
-2.63205
-2.65101
-2.67206
-2.69511
-2.71958
-2.74461
-2.77391
-2.8147
-2.84919
-2.39173
-2.40098
-2.40287
-2.41149
-2.41994
-2.43108
-2.44415
-2.45896
-2.47568
-2.49409
-2.5141
-2.53566
-2.55883
-2.58467
-2.61568
-2.65218
-2.67437
-2.18341
-2.19706
-2.19925
-2.21049
-2.22185
-2.23562
-2.25133
-2.26852
-2.28717
-2.30737
-2.32841
-2.34972
-2.37413
-2.402
-2.42563
-2.44526
-2.48045
-1.90859
-1.92833
-1.9365
-1.95358
-1.97046
-1.9893
-2.01043
-2.03313
-2.05767
-2.08415
-2.11106
-2.13972
-2.17376
-2.20233
-2.22271
-2.26952
-2.3144
-1.58548
-1.61257
-1.62738
-1.64912
-1.67159
-1.69584
-1.72266
-1.75161
-1.78274
-1.81594
-1.85084
-1.88986
-1.93232
-1.96823
-2.013
-2.0898
-2.11274
-1.23765
-1.26874
-1.28903
-1.31569
-1.34405
-1.3745
-1.40807
-1.44405
-1.48158
-1.52057
-1.56151
-1.60547
-1.65153
-1.7001
-1.7607
-1.83008
-1.87315
-0.889199
-0.923073
-0.947595
-0.977742
-1.01048
-1.04542
-1.08318
-1.12406
-1.16895
-1.21797
-1.27055
-1.32621
-1.3833
-1.43801
-1.49121
-1.55929
-1.60772
-0.556792
-0.593032
-0.621369
-0.654619
-0.691245
-0.730493
-0.773349
-0.819832
-0.869763
-0.923498
-0.981012
-1.04232
-1.10732
-1.17384
-1.248
-1.34461
-1.36706
-0.244848
-0.281376
-0.311724
-0.346482
-0.38551
-0.427485
-0.473167
-0.523155
-0.577365
-0.635917
-0.698868
-0.766538
-0.838489
-0.914187
-1.00776
-1.10837
-1.16015
0.0281633
-0.00697535
-0.0377176
-0.0733577
-0.112822
-0.155602
-0.203224
-0.255553
-0.312505
-0.374338
-0.441279
-0.513174
-0.589745
-0.670322
-0.755764
-0.847888
-0.91875
0.25068
0.217786
0.188919
0.154993
0.116561
0.0744148
0.027852
-0.0237363
-0.0805188
-0.142867
-0.21134
-0.286496
-0.368732
-0.453781
-0.547616
-0.665209
-0.697703
0.430118
0.399178
0.372613
0.340926
0.305172
0.265846
0.221957
0.172927
0.118704
0.0587495
-0.00772176
-0.081454
-0.16256
-0.250958
-0.362464
-0.481103
-0.539555
0.573463
0.544234
0.520429
0.491873
0.459371
0.42355
0.383172
0.337663
0.286903
0.230264
0.16693
0.0964582
0.0184517
-0.0683102
-0.164678
-0.26905
-0.367834
0.688051
0.66012
0.638642
0.613218
0.584414
0.552532
0.516283
0.475071
0.428645
0.376209
0.316799
0.249534
0.173191
0.0894353
-0.00336367
-0.123801
-0.168795
0.78028
0.753254
0.733782
0.711421
0.68624
0.658198
0.626074
0.589261
0.547391
0.499691
0.445214
0.382834
0.311622
0.232107
0.130096
0.0149958
-0.0225957
0.856152
0.829348
0.81118
0.791591
0.76968
0.745215
0.716989
0.68429
0.646672
0.603393
0.553517
0.496167
0.430961
0.356992
0.265555
0.176579
0.108974
0.921683
0.89374
0.875092
0.85734
0.838332
0.817308
0.792885
0.764187
0.730648
0.691489
0.645819
0.592842
0.531679
0.461474
0.380747
0.284862
0.240283
0.979273
0.950872
0.931251
0.913455
0.895655
0.877368
0.856525
0.831685
0.802081
0.766907
0.725465
0.677035
0.62071
0.555703
0.476158
0.383851
0.348892
1.02819
1.0009
0.981059
0.962635
0.944227
0.926572
0.908258
0.887027
0.861266
0.830146
0.793105
0.74944
0.698562
0.64005
0.566031
0.492584
0.454367
1.06747
1.04214
1.02296
1.00494
0.986445
0.968598
0.951113
0.932408
0.910232
0.88313
0.850452
0.811378
0.764979
0.71115
0.647968
0.578952
0.54997
1.09828
1.07823
1.06223
1.04605
1.02874
1.01147
0.994321
0.976813
0.957529
0.934235
0.905412
0.870282
0.828472
0.780493
0.721776
0.652735
0.629081
1.12283
1.10842
1.09669
1.08375
1.06803
1.05124
1.03425
1.01681
0.998466
0.977649
0.952361
0.922032
0.887532
0.848896
0.798639
0.737795
0.711252
-1.2273
-0.453905
0.122377
0.64354
1.04415
1.35477
1.63122
1.94478
2.38104
2.89149
3.2383
3.3029
3.01499
1.73154
-0.94585
-4.61658
-8.38715
-9.46519
-9.13994
-8.28552
-1.38143
-0.528483
0.126632
0.719566
1.20375
1.55878
1.89464
2.29312
2.75473
3.15739
3.34962
3.32241
3.01243
1.66971
-1.68746
-7.00601
-11.1537
-11.6663
-10.8491
-9.44759
-1.61712
-0.676033
0.0720979
0.758295
1.34656
1.78868
2.20066
2.63968
3.01668
3.23056
3.30588
3.08352
2.19512
0.0413487
-3.96812
-10.0299
-14.1498
-14.0235
-12.6973
-10.6538
-1.97629
-0.949651
-0.0775738
0.739501
1.41517
1.96606
2.43201
2.78994
2.99176
3.1034
3.04167
2.51791
1.0432
-2.17288
-7.35916
-13.5549
-17.086
-16.4255
-14.4601
-11.8543
-2.4842
-1.3941
-0.423095
0.503991
1.29691
1.91066
2.3823
2.6297
2.72383
2.73171
2.41972
1.41567
-0.75977
-4.71504
-10.8149
-17.0283
-19.7004
-18.5916
-15.9491
-12.9949
-3.19684
-2.05436
-1.08286
-0.0672347
0.89144
1.5956
1.98735
2.12478
2.10121
1.9359
1.26558
-0.317383
-3.32182
-8.11177
-14.3994
-20.0028
-21.6078
-20.1162
-17.1398
-13.9628
-4.26624
-3.10961
-2.17011
-1.05348
0.0438271
0.780431
1.07657
1.12349
0.993245
0.593175
-0.579436
-2.79925
-6.4483
-11.889
-17.943
-22.2608
-22.7385
-20.9012
-17.9415
-14.676
-5.84934
-4.61079
-3.61447
-2.45599
-1.34331
-0.647751
-0.420365
-0.449634
-0.670436
-1.43647
-3.15011
-5.97832
-10.1383
-15.5915
-20.9098
-23.6814
-23.2548
-21.2862
-18.3585
-15.1344
-7.71048
-6.47776
-5.58189
-4.44262
-3.33169
-2.70252
-2.51574
-2.54779
-2.96498
-4.21771
-6.3719
-9.56774
-13.9707
-18.9986
-23.0803
-24.4299
-23.4809
-21.4086
-18.5353
-15.4058
-9.7481
-8.6385
-7.74557
-6.71527
-5.70405
-5.17838
-5.00986
-5.08621
-5.84801
-7.51397
-9.97765
-13.3176
-17.4982
-21.6762
-24.3593
-24.6688
-23.4829
-21.2446
-18.4253
-15.4588
-11.4089
-10.581
-9.76125
-8.9033
-8.09377
-7.70641
-7.58688
-7.9413
-9.08498
-10.9871
-13.5487
-16.7747
-20.4084
-23.4209
-24.7538
-24.6083
-23.1286
-20.7235
-17.8875
-15.2569
-12.3779
-11.9044
-11.3003
-10.6846
-10.1579
-9.96716
-10.044
-10.8012
-12.2454
-14.1997
-16.6823
-19.5005
-22.2125
-24.0045
-24.5935
-24.1171
-22.4212
-19.9217
-17.1445
-14.8355
-12.6624
-12.5165
-12.2029
-11.884
-11.6707
-11.72
-12.2371
-13.2654
-14.7418
-16.6007
-18.7076
-20.869
-22.6753
-23.6912
-24.011
-23.2318
-21.3349
-18.8328
-16.2188
-14.1839
-12.4562
-12.5554
-12.5113
-12.4781
-12.5567
-12.9072
-13.6373
-14.7102
-16.0974
-17.7111
-19.3865
-20.9784
-22.2818
-22.9768
-23.0155
-21.8522
-19.8488
-17.5432
-15.1568
-13.3593
-11.9991
-12.2405
-12.3609
-12.5392
-12.823
-13.31
-14.0432
-15.0311
-16.2765
-17.6953
-19.1423
-20.4441
-21.3625
-21.7957
-21.4301
-20.0487
-18.1471
-16.1175
-14.0134
-12.4141
-11.4272
-11.7486
-11.9709
-12.2617
-12.6336
-13.1425
-13.8544
-14.7813
-15.9064
-17.1364
-18.3075
-19.2374
-19.8259
-19.9554
-19.2552
-17.9155
-16.3045
-14.6103
-12.841
-11.4316
-10.7954
-11.2022
-11.4782
-11.8179
-12.213
-12.6979
-13.3139
-14.0738
-14.95
-15.8504
-16.6094
-17.1964
-17.5017
-17.4381
-16.7109
-15.6413
-14.4427
-13.1327
-11.7275
-10.5481
-10.1594
-10.6715
-11.0144
-11.3423
-11.6587
-11.9919
-12.3703
-12.8018
-13.2623
-13.7331
-14.1742
-14.5184
-14.6998
-14.659
-14.1937
-13.5199
-12.7774
-11.8893
-10.8708
-9.96164
-9.69989
-10.2291
-10.5804
-10.8139
-10.9506
-11.0474
-11.14
-11.265
-11.4373
-11.6499
-11.8797
-12.0918
-12.2487
-12.3203
-12.1911
-11.8768
-11.5299
-11.0488
-10.449
-9.89915
-9.27779
-9.70636
-9.95792
-10.0434
-10.0117
-9.86314
-9.70057
-9.59035
-9.5664
-9.60084
-9.69353
-9.83576
-10.0019
-10.1541
-10.2356
-10.2329
-10.1776
-10.1032
-10.0661
-10.1993
-10.7515
-9.20776
-9.04304
-9.57961
-10.3271
-11.0806
-11.7468
-12.2694
-12.6462
-12.8562
-12.9106
-12.7683
-12.4121
-11.942
-11.3762
-10.6925
-9.91065
-9.07437
-8.22156
-7.37922
-10.695
-9.2863
-9.07427
-9.39043
-9.92377
-10.4448
-10.8628
-11.1487
-11.3174
-11.3563
-11.2426
-11.0285
-10.6727
-10.2277
-9.71318
-9.13328
-8.50117
-7.8407
-7.17785
-6.52354
-11.1547
-10.2482
-9.81805
-9.72943
-9.98132
-10.2814
-10.453
-10.4962
-10.4831
-10.4061
-10.1481
-9.81059
-9.40945
-8.9508
-8.45648
-7.93533
-7.3959
-6.85075
-6.31486
-5.79477
-11.9828
-11.4541
-10.7962
-10.3695
-10.3128
-10.3188
-10.2592
-10.1052
-9.88174
-9.60119
-9.24165
-8.83857
-8.40681
-7.94478
-7.46435
-6.98434
-6.50969
-6.04723
-5.60621
-5.18132
-12.8369
-12.641
-11.6787
-11.0145
-10.664
-10.3622
-10.0249
-9.65364
-9.27426
-8.87246
-8.43703
-7.98792
-7.53467
-7.07948
-6.63048
-6.19392
-5.77138
-5.37575
-5.01051
-4.66383
-13.61
-13.7741
-12.4492
-11.5207
-10.791
-10.2149
-9.6636
-9.1306
-8.64475
-8.16133
-7.67378
-7.20301
-6.75217
-6.32003
-5.91014
-5.52372
-5.16083
-4.82153
-4.51757
-4.23852
-14.2067
-14.6578
-13.1176
-11.8058
-10.6973
-9.87266
-9.17604
-8.5392
-7.98435
-7.45592
-6.95022
-6.48393
-6.05501
-5.65732
-5.29065
-4.95458
-4.64611
-4.36373
-4.11098
-3.88804
-14.7966
-14.9745
-13.584
-11.8701
-10.4036
-9.46391
-8.63463
-7.92995
-7.33282
-6.78455
-6.28388
-5.83823
-5.44042
-5.08143
-4.7587
-4.47021
-4.21053
-3.97865
-3.7746
-3.59731
-15.4825
-15.0554
-13.8202
-11.5372
-9.98033
-8.96198
-8.06264
-7.32958
-6.7064
-6.15869
-5.67971