/*--------------------------------*- C++ -*----------------------------------*\
  =========                 |
  \\      /  F ield         | OpenFOAM: The Open Source CFD Toolbox
   \\    /   O peration     | Website:  https://openfoam.org
    \\  /    A nd           | Version:  6
     \\/     M anipulation  |
\*---------------------------------------------------------------------------*/
FoamFile
{
    version     2.0;
    format      ascii;
    class       surfaceVectorField;
    location    "3.08";
    object      Uf;
}
// * * * * * * * * * * * * * * * * * * * * * * * * * * * * * * * * * * * * * //

dimensions      [0 1 -1 0 0 0 0];

internalField   nonuniform List<vector> 
8193
(
(13.3834 0.0592658 0)
(13.1777 0.0620471 0)
(12.7383 0.406205 0)
(13.732 -0.306151 0)
(13.4953 -0.222539 -2.39299e-19)
(13.9175 -0.676796 2.49566e-19)
(13.6283 -0.616915 -2.57732e-19)
(14.0877 -1.05237 1.90065e-18)
(13.7714 -0.989324 -2.95016e-19)
(14.3287 -1.46236 -1.85361e-19)
(13.9556 -1.38526 -6.10143e-19)
(14.6513 -1.9296 -1.20563e-19)
(14.227 -1.84458 2.90145e-19)
(14.8047 -2.46937 -8.75736e-19)
(14.5012 -2.37305 -2.75232e-19)
(14.3119 -3.10444 1.66654e-19)
(14.3117 -2.98422 2.79305e-19)
(12.9779 -3.85275 8.34439e-20)
(13.226 -3.69569 -4.58258e-20)
(11.1666 -4.64176 1.66925e-19)
(11.476 -4.48913 9.4464e-20)
(9.32687 -5.36037 -1.31931e-19)
(9.66059 -5.29968 -1.49067e-19)
(7.65557 -5.88728 5.97313e-20)
(8.0369 -6.0016 5.2135e-20)
(6.26592 -6.15602 -1.57669e-20)
(6.6611 -6.46375 7.59951e-21)
(5.26413 -6.1876 -8.14441e-21)
(5.60867 -6.63842 -6.45714e-21)
(4.68824 -6.07285 0)
(4.92478 -6.62664 0)
(4.47077 -5.9138 -4.5052e-21)
(4.59546 -6.50653 0)
(4.54684 -5.73297 2.49026e-21)
(4.54631 -6.34436 3.10011e-20)
(4.87892 -5.52875 7.04753e-21)
(4.78646 -6.15081 -2.81638e-20)
(5.39191 -5.29016 -2.49236e-22)
(5.25381 -5.93093 -2.4859e-22)
(6.01892 -5.00395 0)
(5.87142 -5.67235 0)
(6.70441 -4.66719 -9.17146e-21)
(6.57923 -5.35531 0)
(7.39618 -4.28607 -9.37237e-21)
(7.3142 -4.97211 1.13007e-19)
(8.05332 -3.87273 3.70005e-21)
(8.02441 -4.52862 -3.82768e-20)
(8.64845 -3.44533 6.18055e-21)
(8.67066 -4.0461 -1.18368e-19)
(9.1671 -3.02389 1.76502e-21)
(9.23072 -3.55477 -1.17391e-19)
(9.60492 -2.62382 -1.63322e-21)
(9.69863 -3.08297 -1.16457e-19)
(9.96474 -2.25393 -1.52185e-21)
(10.0786 -2.64837 1.64778e-21)
(10.2541 -1.91782 -1.08177e-20)
(10.38 -2.25708 -3.18101e-21)
(10.4834 -1.61707 -7.09912e-22)
(10.6135 -1.90891 3.0651e-21)
(10.6647 -1.35236 1.40533e-20)
(10.7913 -1.60246 9.21051e-20)
(10.8091 -1.12311 2.89519e-21)
(10.9263 -1.33661 -5.84459e-23)
(10.9252 -0.926925 1.46109e-20)
(11.0304 -1.10929 7.42564e-20)
(11.0188 -0.759915 -7.87632e-21)
(11.112 -0.916484 -7.5106e-21)
(11.0933 -0.61751 -9.2012e-21)
(11.1763 -0.75298 -2.46627e-20)
(11.1527 -0.494853 -3.21003e-20)
(11.2268 -0.613952 1.51069e-20)
(11.2018 -0.387501 1.45011e-20)
(11.2675 -0.494178 1.73938e-20)
(11.2434 -0.291986 7.97069e-20)
(11.3026 -0.387288 -2.86488e-20)
(11.2694 -0.204082 1.24076e-19)
(11.3367 -0.293664 2.46053e-20)
(11.2424 -0.121042 -3.29212e-20)
(11.369 -0.218423 -7.1369e-21)
(11.0408 -0.0593587 4.85971e-22)
(11.3619 -0.138072 -7.0071e-20)
(11.1729 -0.0290979 1.02e-19)
(10.5153 -0.0157835 4.2083e-22)
(13.2768 -0.338482 -2.36751e-19)
(13.0693 -0.231171 0)
(13.0681 -0.136789 2.44941e-18)
(13.3851 -0.665961 -4.88849e-19)
(13.2333 -0.5066 -7.38831e-20)
(13.5109 -1.0291 -5.87671e-19)
(13.3516 -0.892787 -1.46382e-19)
(13.6726 -1.42258 -7.54638e-19)
(13.4921 -1.2568 -2.23075e-19)
(13.8922 -1.86806 -1.59228e-18)
(13.6593 -1.66666 -1.1569e-18)
(14.1352 -2.38321 1.30333e-19)
(13.8916 -2.15347 -1.29949e-19)
(14.1083 -2.96319 9.54793e-22)
(14.0823 -2.71817 6.98514e-19)
(13.3718 -3.6296 3.30393e-19)
(13.7503 -3.35945 4.11928e-19)
(11.8944 -4.39773 5.74818e-19)
(12.5484 -4.06042 5.94672e-19)
(10.1344 -5.20132 1.463e-19)
(10.8 -4.81604 -5.55496e-19)
(8.49479 -5.96229 -3.40029e-20)
(9.06857 -5.60575 -1.99645e-19)
(7.10791 -6.57278 0)
(7.58737 -6.33684 5.63146e-20)
(6.00952 -6.94186 2.78209e-21)
(6.39312 -6.87349 -1.11742e-19)
(5.23167 -7.07936 2.79194e-21)
(5.50352 -7.14191 -5.99584e-20)
(4.77861 -7.05478 0)
(4.93176 -7.21732 0)
(4.6229 -6.94117 4.46987e-21)
(4.66519 -7.16817 0)
(4.74541 -6.76372 -2.21274e-21)
(4.66075 -7.05503 1.25067e-20)
(5.11801 -6.55233 -6.75534e-21)
(4.92668 -6.90787 -6.75448e-20)
(5.67955 -6.31496 0)
(5.41504 -6.7399 -6.26551e-21)
(6.36566 -6.02702 0)
(6.06961 -6.52092 6.12328e-21)
(7.11332 -5.66316 9.11012e-21)
(6.83154 -6.21224 0)
(7.86151 -5.21695 -2.87867e-20)
(7.6262 -5.79316 -1.07438e-19)
(8.55899 -4.7026 -4.20403e-20)
(8.38816 -5.27223 -6.86926e-20)
(9.17038 -4.15465 -6.02803e-21)
(9.06395 -4.68435 6.46634e-20)
(9.68125 -3.61256 -3.44153e-21)
(9.62659 -4.07793 -2.19769e-21)
(10.0941 -3.10636 -1.23851e-21)
(10.0753 -3.4984 -1.23131e-21)
(10.4196 -2.65045 0)
(10.4248 -2.9748 2.09055e-20)
(10.6704 -2.24696 5.80398e-21)
(10.6929 -2.51656 -3.14297e-21)
(10.8586 -1.89276 -8.29061e-21)
(10.8945 -2.11972 1.11034e-21)
(10.997 -1.58477 -7.37981e-22)
(11.0413 -1.77685 -5.21182e-21)
(11.0988 -1.32047 4.6377e-21)
(11.1458 -1.48264 -5.49318e-20)
(11.175 -1.09613 -4.35171e-22)
(11.2209 -1.23305 4.9208e-21)
(11.2333 -0.906555 3.32993e-22)
(11.2763 -1.02293 6.53621e-21)
(11.2785 -0.746008 2.87924e-21)
(11.3182 -0.846029 7.53282e-21)
(11.314 -0.608807 2.54255e-21)
(11.3503 -0.696564 -4.97507e-20)
(11.3429 -0.490512 -2.89636e-21)
(11.3756 -0.568625 2.58712e-20)
(11.3705 -0.388555 -2.8842e-20)
(11.3959 -0.456209 -3.71652e-20)
(11.4011 -0.299674 3.26001e-19)
(11.4164 -0.359962 -1.38759e-20)
(11.4267 -0.218832 -4.45018e-20)
(11.4422 -0.282721 6.81872e-20)
(11.4267 -0.134967 -1.07655e-18)
(11.4481 -0.201114 -1.68294e-19)
(11.4234 -0.0849463 1.73629e-19)
(11.2909 0.0431948 -4.66126e-20)
(12.9874 -0.495991 2.51566e-19)
(12.8147 -0.409951 -1.67104e-18)
(12.8353 -0.185588 -2.80981e-18)
(13.1376 -0.837171 5.1906e-19)
(12.9577 -0.7026 4.68944e-18)
(13.2817 -1.19086 5.43289e-19)
(13.0718 -1.07107 -2.4913e-18)
(13.4268 -1.57955 -4.6146e-19)
(13.195 -1.42283 2.20404e-18)
(13.6084 -2.03283 -2.37402e-18)
(13.3308 -1.83624 -1.72381e-18)
(13.7886 -2.56506 -6.59694e-19)
(13.514 -2.33528 7.92133e-19)
(13.668 -3.16584 1.03969e-18)
(13.6158 -2.91485 9.54794e-19)
(12.8503 -3.82764 4.98991e-19)
(13.1627 -3.55163 -7.77101e-19)
(11.3554 -4.54012 6.88825e-19)
(11.8859 -4.20318 6.69031e-19)
(9.63629 -5.28249 -4.06654e-19)
(10.1478 -4.88271 -4.74257e-19)
(8.08026 -6.00682 -2.43359e-19)
(8.4883 -5.61137 2.98166e-19)
(6.81023 -6.63168 -7.80001e-20)
(7.12174 -6.32163 -2.04273e-19)
(5.84328 -7.06791 -1.94687e-19)
(6.08035 -6.87976 1.39841e-19)
(5.18009 -7.28148 -6.6345e-20)
(5.35019 -7.21615 -6.62805e-20)
(4.80901 -7.32407 0)
(4.89686 -7.36321 0)
(4.7008 -7.28328 8.00148e-21)
(4.69035 -7.41211 0)
(4.84479 -7.19924 -5.18837e-20)
(4.71975 -7.41712 8.04299e-21)
(5.22969 -7.09382 -6.73541e-20)
(5.00611 -7.40863 7.65198e-21)
(5.81301 -6.94426 -1.59133e-21)
(5.52872 -7.36359 -2.3297e-19)
(6.54615 -6.70911 6.14698e-21)
(6.24327 -7.22364 2.50804e-19)
(7.35926 -6.34459 -1.16071e-19)
(7.09357 -6.93993 5.54565e-21)
(8.17136 -5.85011 -7.89656e-20)
(7.97881 -6.49712 4.66761e-19)
(8.91464 -5.25405 1.06243e-19)
(8.81497 -5.91297 3.87067e-19)
(9.54388 -4.60623 6.85113e-20)
(9.53317 -5.23159 -3.09405e-19)
(10.0456 -3.96155 0)
(10.101 -4.51463 0)
(10.4311 -3.36449 2.07949e-20)
(10.5229 -3.82479 0)
(10.7223 -2.83874 1.91483e-20)
(10.8271 -3.20774 -9.10519e-20)
(10.9396 -2.38729 -7.79268e-21)
(11.0464 -2.68175 -1.33353e-20)
(11.0976 -2.00167 -3.59149e-21)
(11.2043 -2.24121 1.92189e-20)
(11.2082 -1.6723 -4.56544e-21)
(11.3136 -1.87079 -1.69544e-20)
(11.2836 -1.39251 2.2034e-22)
(11.3843 -1.55789 -5.09636e-21)
(11.3356 -1.1569 1.18437e-20)
(11.428 -1.29487 -2.08524e-21)
(11.3725 -0.959232 1.36858e-20)
(11.4554 -1.07527 2.16234e-20)
(11.3996 -0.792878 -2.93348e-20)
(11.4735 -0.892001 -8.88122e-21)
(11.4201 -0.651758 1.63988e-20)
(11.4859 -0.738232 -2.65823e-20)
(11.4363 -0.530799 -2.25152e-20)
(11.4951 -0.607351 1.59052e-20)
(11.4503 -0.425145 -1.40188e-20)
(11.5028 -0.493825 -8.47089e-20)
(11.4636 -0.3322 2.52625e-19)
(11.5124 -0.396475 -2.04816e-20)
(11.4761 -0.256062 -3.76125e-20)
(11.5222 -0.312999 4.66843e-20)
(11.4882 -0.182555 -5.23302e-19)
(11.5261 -0.232169 -4.06983e-21)
(11.5369 -0.147131 7.59799e-20)
(11.4998 -0.078568 6.58334e-20)
(12.7451 -0.718176 -1.88864e-19)
(12.5705 -0.603747 -4.83886e-19)
(12.5987 -0.443456 1.58207e-19)
(12.8681 -1.01526 3.64188e-18)
(12.6944 -0.877001 1.06397e-18)
(12.9749 -1.35454 -1.41979e-18)
(12.7755 -1.22803 8.08043e-19)
(13.0864 -1.745 1.82449e-18)
(12.8705 -1.57464 6.71138e-19)
(13.2246 -2.20583 8.04083e-20)
(12.9703 -1.98629 -9.81042e-19)
(13.3328 -2.74936 1.0686e-18)
(13.0976 -2.4892 4.60881e-19)
(13.1085 -3.35379 -8.24274e-19)
(13.1129 -3.07266 0)
(12.2007 -3.98318 -1.10338e-18)
(12.5677 -3.68734 -8.23469e-19)
(10.6805 -4.62157 2.10915e-19)
(11.2522 -4.27196 1.40011e-18)
(9.00284 -5.28245 2.19638e-19)
(9.53507 -4.85662 -4.05729e-20)
(7.53604 -5.95005 4.33702e-19)
(7.93525 -5.49955 5.46479e-19)
(6.39685 -6.56104 3.01964e-20)
(6.65976 -6.16199 -7.85973e-19)
(5.58675 -7.01874 2.53255e-19)
(5.75237 -6.71721 1.00532e-20)
(5.06083 -7.2927 0)
(5.15871 -7.0989 2.42467e-19)
(4.77501 -7.4432 0)
(4.79466 -7.34668 -1.77959e-20)
(4.7059 -7.54307 0)
(4.62885 -7.53503 3.87914e-21)
(4.87091 -7.62486 5.29737e-20)
(4.67874 -7.70671 0)
(5.29194 -7.67741 -1.72617e-19)
(4.99243 -7.86121 1.12769e-19)
(5.94461 -7.63859 1.42198e-20)
(5.5796 -7.93914 -6.05484e-20)
(6.77509 -7.45472 2.50378e-19)
(6.39202 -7.88212 -7.24953e-19)
(7.69535 -7.09698 5.40535e-19)
(7.35895 -7.62833 5.53891e-21)
(8.60387 -6.56441 8.85724e-19)
(8.36407 -7.17696 -5.76958e-19)
(9.41582 -5.89376 1.5345e-20)
(9.29959 -6.5513 -1.80761e-20)
(10.0746 -5.14164 -3.35533e-19)
(10.082 -5.79367 -5.02891e-19)
(10.565 -4.37804 0)
(10.6671 -4.97229 0)
(10.908 -3.66732 -8.76778e-20)
(11.0602 -4.16607 -3.48868e-20)
(11.1422 -3.04992 -9.59542e-20)
(11.3041 -3.4418 2.49403e-20)
(11.3037 -2.53503 -2.71854e-21)
(11.4539 -2.83407 8.06578e-20)
(11.414 -2.10982 5.25109e-21)
(11.5503 -2.34141 -4.54407e-20)
(11.4843 -1.75583 -3.27594e-21)
(11.6111 -1.94147 3.38558e-20)
(11.524 -1.45955 -1.79734e-20)
(11.6425 -1.61141 -1.18896e-20)
(11.5438 -1.21249 -1.10393e-20)
(11.6517 -1.33735 -1.96077e-20)
(11.5529 -1.00713 -1.80694e-20)
(11.6487 -1.11066 1.75183e-20)
(11.5567 -0.8358 -6.86284e-21)
(11.6411 -0.923229 7.55557e-22)
(11.5579 -0.691696 6.86393e-21)
(11.6326 -0.767145 4.57832e-20)
(11.559 -0.569323 -4.65729e-20)
(11.6242 -0.635379 -8.17743e-20)
(11.5618 -0.463364 -5.05861e-20)
(11.6183 -0.522885 -3.72261e-20)
(11.566 -0.370469 9.1079e-20)
(11.6167 -0.426924 1.94952e-20)
(11.5702 -0.289148 5.48429e-20)
(11.6164 -0.342168 -1.06233e-19)
(11.5789 -0.212475 8.15129e-20)
(11.6152 -0.260979 6.38294e-20)
(11.6249 -0.184463 -9.8043e-21)
(11.6054 -0.131447 5.77486e-21)
(12.484 -0.851177 -2.08566e-18)
(12.3103 -0.741793 -1.28586e-19)
(12.3531 -0.578557 -2.50195e-18)
(12.5821 -1.1434 -1.09466e-18)
(12.4147 -1.00573 -3.15125e-18)
(12.6612 -1.47484 2.52192e-18)
(12.4663 -1.34055 3.41771e-18)
(12.7403 -1.85927 -1.20934e-18)
(12.5307 -1.68214 -1.13969e-18)
(12.8292 -2.31557 -6.18394e-19)
(12.5907 -2.08291 -5.8147e-20)
(12.8642 -2.85701 -6.20715e-19)
(12.6569 -2.57788 -6.82348e-19)
(12.5595 -3.44949 0)
(12.5924 -3.15286 7.73252e-19)
(11.6046 -4.02895 1.17605e-18)
(11.9867 -3.73119 9.41912e-19)
(10.0884 -4.57894 1.18415e-18)
(10.6635 -4.23385 3.50054e-19)
(8.45128 -5.13707 -5.18035e-20)
(8.97837 -4.71048 6.95775e-20)
(7.04977 -5.7259 -5.16189e-19)
(7.424 -5.2459 8.19821e-19)
(6.00841 -6.30431 -7.81119e-19)
(6.213 -5.8355 -8.69705e-20)
(5.31675 -6.78426 5.80426e-20)
(5.40762 -6.38042 -2.44126e-19)
(4.88765 -7.13777 2.26365e-19)
(4.91497 -6.81743 2.43727e-19)
(4.64918 -7.4301 8.59676e-22)
(4.60068 -7.18188 -1.78823e-20)
(4.6011 -7.69096 3.90361e-21)
(4.46418 -7.52063 6.95746e-20)
(4.79455 -7.93616 5.93548e-20)
(4.53404 -7.84887 7.19219e-21)
(5.27419 -8.12104 2.20427e-19)
(4.8942 -8.12683 -8.55216e-20)
(6.02307 -8.17532 -8.0907e-19)
(5.56816 -8.27222 2.42775e-19)
(6.97184 -8.04362 -9.74498e-19)
(6.50277 -8.28766 -2.1964e-19)
(8.02194 -7.71127 -1.09287e-18)
(7.60301 -8.08974 0)
(9.05385 -7.16942 -1.44585e-18)
(8.74989 -7.65416 -1.42955e-18)
(9.96009 -6.45621 -5.32416e-19)
(9.80811 -7.02587 -3.47154e-19)
(10.6696 -5.62727 -1.84417e-19)
(10.6814 -6.23891 2.67368e-19)
(11.1585 -4.76081 -3.47275e-20)
(11.3067 -5.35473 0)
(11.4539 -3.93909 7.85023e-20)
(11.6815 -4.45873 -3.46241e-20)
(11.6146 -3.22398 2.05263e-19)
(11.8588 -3.63654 3.91014e-20)
(11.7002 -2.63868 3.76246e-20)
(11.9201 -2.94479 1.18768e-19)
(11.7475 -2.17166 -1.55108e-20)
(11.9331 -2.39602 -2.01146e-20)
(11.7696 -1.79587 2.64529e-20)
(11.9298 -1.96721 -1.37324e-20)
(11.7704 -1.48801 -1.22931e-20)
(11.9145 -1.62455 -4.7512e-21)
(11.7568 -1.23438 9.97748e-21)
(11.8861 -1.34488 2.73806e-21)
(11.7372 -1.02562 2.84477e-20)
(11.8509 -1.1159 -7.80329e-21)
(11.7171 -0.853106 4.85975e-20)
(11.8163 -0.928351 1.66605e-20)
(11.6989 -0.709414 -4.34463e-20)
(11.7856 -0.773508 5.35757e-20)
(11.6839 -0.588035 -7.75211e-20)
(11.7596 -0.643879 -4.90622e-20)
(11.6735 -0.483986 7.60594e-20)
(11.7394 -0.534429 5.15208e-20)
(11.667 -0.393862 -4.91254e-20)
(11.726 -0.441476 -8.6724e-20)
(11.6632 -0.314406 -1.42586e-19)
(11.7166 -0.359529 -2.55355e-20)
(11.6649 -0.240759 -1.66888e-19)
(11.71 -0.282922 -4.17977e-20)
(11.7122 -0.213171 -2.19159e-20)
(11.6846 -0.169009 4.35853e-19)
(12.2169 -0.963437 -1.17396e-18)
(12.0471 -0.850285 -4.08955e-18)
(12.1098 -0.70865 -3.14156e-18)
(12.2877 -1.24208 0)
(12.1295 -1.09698 2.99228e-18)
(12.3362 -1.55449 5.90473e-20)
(12.1583 -1.4106 0)
(12.3753 -1.92696 -1.77751e-19)
(12.1826 -1.74367 -1.52173e-18)
(12.4113 -2.37298 -4.79822e-19)
(12.199 -2.12879 -5.76669e-20)
(12.3782 -2.89971 3.74382e-19)
(12.2053 -2.60517 1.83827e-18)
(12.0131 -3.46483 1.71277e-18)
(12.0713 -3.15951 7.94097e-19)
(11.0385 -3.9819 9.80512e-20)
(11.4349 -3.69132 3.40065e-21)
(9.54472 -4.43275 -7.86427e-19)
(10.1316 -4.10508 -8.53543e-19)
(7.94545 -4.87341 4.60209e-19)
(8.48978 -4.46517 -9.5245e-19)
(6.5861 -5.36399 1.33849e-18)
(6.96758 -4.87549 3.64821e-19)
(5.61086 -5.89453 4.54354e-19)
(5.79092 -5.36664 8.94982e-20)
(5.00413 -6.39431 0)
(5.04641 -5.89121 4.38581e-19)
(4.64277 -6.8364 0)
(4.61074 -6.38285 -2.17511e-19)
(4.43037 -7.26714 6.7194e-20)
(4.31265 -6.84868 2.08239e-19)
(4.3984 -7.66385 1.15921e-19)
(4.20667 -7.30947 6.7647e-20)
(4.63813 -8.02289 -1.12348e-19)
(4.31 -7.75048 7.21466e-21)
(5.1949 -8.27336 -6.76802e-20)
(4.74532 -8.10463 -1.45454e-19)
(6.04775 -8.37596 8.16548e-19)
(5.5148 -8.2982 1.15441e-18)
(7.12707 -8.30861 7.36547e-19)
(6.55744 -8.36115 -4.81769e-19)
(8.32681 -8.02897 -3.16682e-19)
(7.79014 -8.1596 -3.82449e-20)
(9.50348 -7.518 -3.18211e-19)
(9.09052 -7.76699 -6.54432e-19)
(10.5278 -6.81689 4.49947e-19)
(10.2844 -7.18474 -1.32246e-18)
(11.3153 -5.9722 4.51154e-19)
(11.2721 -6.43897 4.4927e-19)
(11.8257 -5.05493 0)
(11.9699 -5.56654 0)
(12.0827 -4.15495 -7.49797e-20)
(12.3551 -4.64278 0)
(12.1613 -3.35484 -5.2342e-20)
(12.4785 -3.7623 -7.46152e-20)
(12.1508 -2.69959 6.9932e-20)
(12.4442 -3.00291 9.92553e-20)
(12.1137 -2.18952 -1.42699e-20)
(12.3539 -2.40072 -2.86041e-19)
(12.0735 -1.79446 -4.57916e-20)
(12.2672 -1.94516 -8.89075e-21)
(12.029 -1.4801 1.13861e-20)
(12.1947 -1.59523 -8.82638e-20)
(11.9792 -1.22515 -1.68037e-20)
(12.1252 -1.31631 -2.52716e-20)
(11.9291 -1.01741 -1.72755e-20)
(12.0566 -1.09066 1.31088e-20)
(11.884 -0.847469 2.20109e-20)
(11.994 -0.907475 -4.09079e-20)
(11.8457 -0.707153 4.70806e-20)
(11.9407 -0.757627 -5.58227e-20)
(11.8146 -0.589565 7.73993e-20)
(11.8969 -0.633291 1.01083e-19)
(11.791 -0.489652 -1.10168e-19)
(11.8623 -0.529129 -3.29001e-20)
(11.7744 -0.403949 -1.81384e-20)
(11.8366 -0.441037 -8.2407e-20)
(11.7633 -0.328483 4.66477e-20)
(11.8186 -0.364126 1.10877e-19)
(11.758 -0.259596 -3.13e-20)
(11.8065 -0.293869 -1.65093e-19)
(11.8022 -0.230291 1.12848e-19)
(11.7662 -0.19433 -1.02734e-21)
(11.9431 -1.02661 -8.94712e-19)
(11.7846 -0.918842 -2.87182e-18)
(11.8584 -0.785526 1.59912e-18)
(11.9895 -1.29532 2.97359e-18)
(11.8409 -1.14775 4.65163e-18)
(12.007 -1.59497 -1.5854e-18)
(11.8496 -1.4368 7.73443e-20)
(12.0048 -1.94899 -1.59802e-18)
(11.8362 -1.75543 3.17616e-19)
(11.9881 -2.37556 1.89164e-18)
(11.8063 -2.12076 -1.1882e-20)
(11.8949 -2.87627 2.09586e-18)
(11.7565 -2.56921 -2.20941e-18)
(11.49 -3.40046 -9.23262e-19)
(11.5667 -3.09057 8.87092e-21)
(10.523 -3.8498 -9.626e-19)
(10.9229 -3.57014 1.40227e-19)
(9.07145 -4.19556 -1.01534e-18)
(9.66583 -3.89697 -1.19597e-18)
(7.50985 -4.50651 -1.534e-18)
(8.08067 -4.13623 -1.0249e-18)
(6.17162 -4.88247 -9.61145e-19)
(6.57734 -4.40805 -5.11908e-19)
(5.22866 -5.34184 1.48708e-19)
(5.40802 -4.77623 1.50008e-19)
(4.66739 -5.84737 2.25312e-19)
(4.67576 -5.25441 8.87266e-20)
(4.33214 -6.37558 1.35282e-20)
(4.24339 -5.77359 2.05665e-19)
(4.12861 -6.8808 2.09778e-19)
(3.96686 -6.29601 8.35736e-20)
(4.1194 -7.37189 0)
(3.87724 -6.82481 5.74512e-22)
(4.41711 -7.80581 0)
(4.0243 -7.31905 -2.16135e-19)
(5.06302 -8.12274 1.06603e-18)
(4.53592 -7.69367 -9.93305e-20)
(6.03392 -8.26988 -1.573e-19)
(5.40874 -7.89213 -1.14329e-18)
(7.24591 -8.18143 -1.24865e-18)
(6.59035 -7.91636 -1.76359e-18)
(8.57724 -7.89005 -2.5204e-19)
(7.94237 -7.70732 1.25503e-20)
(9.88603 -7.44082 -1.53904e-18)
(9.34298 -7.37774 -7.90875e-19)
(11.0388 -6.81828 -1.32081e-18)
(10.6597 -6.89128 1.24832e-18)
(11.9323 -6.04231 0)
(11.7723 -6.2623 -2.49425e-18)
(12.5011 -5.15917 0)
(12.5758 -5.49327 -3.60068e-19)
(12.7503 -4.24967 0)
(13.0155 -4.63122 6.00196e-19)
(12.7599 -3.40734 7.01406e-20)
(13.1222 -3.7646 -2.42945e-19)
(12.646 -2.70034 -2.38486e-19)
(13.0091 -2.98163 6.96682e-20)
(12.5061 -2.15319 -2.73312e-19)
(12.8076 -2.34328 -1.92398e-19)
(12.3875 -1.74395 -4.41319e-20)
(12.6187 -1.8681 9.46536e-20)
(12.2899 -1.42982 -1.17296e-19)
(12.4762 -1.51809 -4.30748e-20)
(12.2016 -1.18039 3.26827e-21)
(12.361 -1.24766 -5.04607e-20)
(12.1206 -0.979354 -1.55055e-20)
(12.2585 -1.03228 3.20195e-20)
(12.0501 -0.816387 -1.12568e-19)
(12.1683 -0.85883 -7.64701e-20)
(11.9915 -0.682902 8.22927e-21)
(12.0926 -0.718124 -1.68476e-20)
(11.9441 -0.572019 -5.86954e-21)
(12.0313 -0.602386 2.45045e-20)
(11.9072 -0.478697 -1.30915e-20)
(11.9824 -0.50596 -1.83946e-19)
(11.8802 -0.399121 9.14244e-20)
(11.9449 -0.424689 5.83937e-20)
(11.8619 -0.329711 -1.08748e-19)
(11.9179 -0.354611 -1.13602e-19)
(11.8513 -0.26708 -7.71e-20)
(11.9001 -0.292161 -1.02585e-19)
(11.8913 -0.235501 2.98148e-19)
(11.8522 -0.208018 1.03685e-19)
(11.6727 -1.05799 1.68797e-18)
(11.5307 -0.948208 -3.52238e-18)
(11.6174 -0.835656 -4.3535e-18)
(11.6932 -1.30999 2.06081e-18)
(11.5594 -1.15984 5.25629e-18)
(11.6806 -1.59399 1.96935e-18)
(11.5463 -1.42109 -1.78062e-18)
(11.6386 -1.92477 1.90039e-18)
(11.4996 -1.71861 1.8871e-18)
(11.5716 -2.32191 -3.97679e-18)
(11.4249 -2.05909 2.03969e-18)
(11.4264 -2.78784 -4.26473e-18)
(11.3217 -2.4716 -4.12745e-18)
(10.9997 -3.26512 1.01962e-18)
(11.0895 -2.94895 2.33214e-18)
(10.0649 -3.64444 -8.21837e-20)
(10.4596 -3.3743 -2.34331e-20)
(8.67374 -3.88401 -1.20756e-18)
(9.27299 -3.62259 1.53693e-20)
(7.15149 -4.06462 0)
(7.75486 -3.7421 -1.22551e-18)
(5.82307 -4.30294 5.05768e-19)
(6.27087 -3.86648 2.38481e-18)
(4.88351 -4.65771 1.59759e-19)
(5.0863 -4.09244 -6.51939e-19)
(4.32348 -5.14345 1.66892e-19)
(4.30978 -4.47192 -2.12091e-19)
(3.97439 -5.68992 3.37602e-19)
(3.85347 -4.95306 1.88745e-20)
(3.76696 -6.21313 9.89435e-20)
(3.59717 -5.47493 3.98507e-20)
(3.79226 -6.73548 -2.14884e-19)
(3.51293 -6.00648 1.98247e-19)
(4.16124 -7.17089 -4.0535e-19)
(3.71818 -6.47162 -4.93548e-19)
(4.91105 -7.44692 -2.5953e-18)
(4.32514 -6.77939 -4.82077e-19)
(5.99911 -7.52018 -2.80145e-18)
(5.31079 -6.8995 -1.04651e-18)
(7.3156 -7.42045 -2.87237e-19)
(6.57962 -6.85966 5.54221e-18)
(8.7346 -7.18793 -3.39881e-19)
(8.0008 -6.70609 5.05267e-20)
(10.1412 -6.83534 2.30874e-18)
(9.46786 -6.44719 3.17749e-18)
(11.413 -6.34967 2.27077e-19)
(10.8749 -6.08888 -2.67207e-18)
(12.4297 -5.72584 -2.84513e-18)
(12.1014 -5.63325 1.36015e-19)
(13.0978 -4.97408 2.88585e-19)
(13.0318 -5.0505 -2.68731e-18)
(13.3886 -4.14772 3.40405e-19)
(13.5741 -4.34559 -1.40147e-18)
(13.3687 -3.33693 -2.41286e-19)
(13.7192 -3.58325 -1.05811e-18)
(13.1676 -2.61997 1.37461e-19)
(13.5745 -2.84631 0)
(12.9179 -2.05375 1.57909e-19)
(13.2778 -2.20969 5.49823e-19)
(12.7059 -1.63975 1.04698e-19)
(12.9763 -1.73051 -2.88851e-20)
(12.546 -1.33402 5.57152e-20)
(12.751 -1.39012 1.84713e-19)
(12.4167 -1.09805 -1.00292e-20)
(12.5847 -1.13694 5.55494e-20)
(12.305 -0.910375 -3.93039e-20)
(12.4486 -0.939759 2.57132e-20)
(12.2098 -0.75941 1.51418e-20)
(12.3322 -0.78219 -3.65537e-20)
(12.1316 -0.636721 -1.23758e-21)
(12.2354 -0.655167 5.37399e-20)
(12.0688 -0.53548 -1.5191e-19)
(12.1575 -0.551477 -5.3775e-20)
(12.0192 -0.450723 -9.38395e-20)
(12.0955 -0.465421 -9.67949e-20)
(11.9817 -0.378896 -1.45556e-19)
(12.0469 -0.392901 -7.89809e-20)
(11.9557 -0.316936 -1.15917e-19)
(12.0107 -0.330952 1.7708e-19)
(11.9402 -0.261706 1.937e-19)
(11.9867 -0.277187 -1.29524e-19)
(11.9739 -0.228471 1.40346e-19)
(11.9364 -0.209916 1.65729e-19)
(11.4167 -1.05228 9.15051e-20)
(11.2999 -0.932002 -3.50562e-18)
(11.3943 -0.855224 -1.01642e-18)
(11.4079 -1.28311 1.74014e-18)
(11.2943 -1.12844 3.56124e-18)
(11.3656 -1.54701 -1.92113e-18)
(11.2563 -1.36319 -3.80292e-18)
(11.2871 -1.85134 2.03366e-18)
(11.1794 -1.63457 8.74161e-21)
(11.1736 -2.21238 2.05197e-18)
(11.0644 -1.94466 4.25333e-18)
(10.9839 -2.63484 2.34644e-18)
(10.9126 -2.31428 -2.35569e-18)
(10.5509 -3.06147 1.37965e-18)
(10.6484 -2.73942 4.73508e-18)
(9.66981 -3.37394 5.65401e-20)
(10.0499 -3.11143 -4.931e-18)
(8.3566 -3.51429 -6.30503e-21)
(8.95477 -3.29311 -8.79574e-20)
(6.88192 -3.56484 9.51518e-19)
(7.51689 -3.30229 -2.5042e-18)
(5.5608 -3.65253 1.21256e-18)
(6.06052 -3.27681 2.42738e-18)
(4.59474 -3.87491 -1.03155e-18)
(4.84462 -3.34081 -1.17265e-18)
(3.99261 -4.25851 -2.73508e-19)
(4.00256 -3.5572 6.54376e-19)
(3.6107 -4.72901 -3.47453e-19)
(3.5039 -3.9122 -4.44652e-19)
(3.40021 -5.22457 2.2215e-19)
(3.23381 -4.36817 -3.3704e-20)
(3.47176 -5.68845 2.0563e-19)
(3.17247 -4.82985 2.51017e-19)
(3.92423 -6.0313 -6.59573e-19)
(3.45207 -5.18499 -5.96291e-19)
(4.76906 -6.20394 1.23716e-18)
(4.15223 -5.37096 3.73351e-19)
(5.93149 -6.22259 7.79265e-18)
(5.20966 -5.41044 1.52908e-18)
(7.30037 -6.13426 6.14038e-18)
(6.51615 -5.35397 2.10626e-18)
(8.76579 -5.95547 3.7547e-18)
(7.96635 -5.22983 -1.42833e-19)
(10.2301 -5.70994 -1.75695e-18)
(9.45426 -5.04556 -2.74242e-19)
(11.5885 -5.38941 -2.60182e-18)
(10.9028 -4.82173 -1.67881e-18)
(12.7237 -4.97409 5.76993e-19)
(12.2064 -4.56162 2.44256e-18)
(13.522 -4.43601 -4.30728e-18)
(13.2604 -4.21717 3.7706e-19)
(13.9117 -3.78375 -2.78557e-18)
(13.9436 -3.74819 -6.22731e-19)
(13.9259 -3.09356 -8.11487e-19)
(14.1827 -3.17373 -2.82902e-19)
(13.6815 -2.43167 4.12601e-19)
(14.0758 -2.55894 -8.26461e-19)
(13.3332 -1.8802 3.29922e-19)
(13.7319 -1.98121 -1.13494e-19)
(13.0196 -1.47784 4.1724e-20)
(13.3257 -1.52647 5.23929e-21)
(12.7882 -1.19078 1.97119e-19)
(13.0101 -1.2098 3.42255e-19)
(12.6151 -0.977129 8.04428e-20)
(12.7869 -0.983957 3.34786e-20)
(12.4743 -0.81028 3.41544e-21)
(12.6176 -0.813515 2.08823e-20)
(12.3565 -0.676889 -5.3138e-21)
(12.4782 -0.678469 -1.00938e-20)
(12.2602 -0.569096 0)
(12.3627 -0.569925 -1.59941e-20)
(12.1833 -0.480596 0)
(12.2702 -0.481736 -9.28135e-21)
(12.1223 -0.406697 -7.97297e-20)
(12.1969 -0.408662 8.15274e-20)
(12.0751 -0.344218 2.4077e-19)
(12.1388 -0.346834 -3.01508e-19)
(12.0411 -0.290663 1.44233e-19)
(12.0942 -0.294242 4.95807e-19)
(12.02 -0.243559 -2.00628e-19)
(12.0633 -0.249682 1.1195e-19)
(12.0456 -0.209346 -1.77367e-19)
(12.0123 -0.200025 -3.81785e-20)
(11.1809 -1.00496 0)
(11.0893 -0.869975 -1.82994e-18)
(11.19 -0.826389 2.12591e-18)
(11.1412 -1.21332 -1.92819e-18)
(11.0512 -1.0513 0)
(11.0693 -1.45373 -1.95445e-18)
(10.9861 -1.26172 -3.96114e-18)
(10.9575 -1.72844 2.20004e-18)
(10.8821 -1.50439 -2.11898e-18)
(10.8032 -2.04872 -1.17904e-19)
(10.7329 -1.77964 -2.3003e-18)
(10.577 -2.4208 -1.27937e-19)
(10.5393 -2.10109 4.69029e-18)
(10.1494 -2.79404 -1.37219e-18)
(10.2511 -2.46837 2.49189e-18)
(9.33856 -3.04745 -5.11616e-18)
(9.69506 -2.78901 -6.32739e-18)
(8.12136 -3.10387 -2.58338e-18)
(8.70758 -2.91826 1.32644e-18)
(6.71023 -3.02976 -1.38273e-18)
(7.36972 -2.83562 -2.60012e-18)
(5.39704 -2.96338 2.09064e-20)
(5.95285 -2.66547 1.5231e-18)
(4.38338 -3.00498 2.2337e-19)
(4.71928 -2.54662 1.01547e-18)
(3.70664 -3.19949 1.52937e-19)
(3.81548 -2.55398 -7.9881e-19)
(3.28871 -3.52311 -1.32297e-19)
(3.2471 -2.71088 -5.71643e-20)
(3.09496 -3.90976 -2.44337e-19)
(2.93652 -3.01417 2.95845e-19)
(3.21455 -4.2465 -1.72525e-19)
(2.90628 -3.33321 3.41252e-20)
(3.735 -4.45997 2.71126e-19)
(3.25598 -3.53561 2.23714e-19)
(4.63807 -4.54176 6.78107e-19)
(4.01659 -3.60073 7.56195e-19)
(5.83115 -4.52708 -4.60463e-18)
(5.10052 -3.58654 -2.32325e-18)
(7.21287 -4.44564 -4.61889e-18)
(6.4094 -3.52235 -2.02383e-18)
(8.68133 -4.31468 -4.32126e-18)
(7.85071 -3.41746 1.28062e-20)
(10.1517 -4.17015 -6.412e-20)
(9.31362 -3.30682 -2.40555e-18)
(11.5444 -4.01338 3.65021e-18)
(10.7498 -3.2114 1.208e-19)
(12.7647 -3.82413 2.46922e-18)
(12.0755 -3.13941 -4.39853e-19)
(13.7001 -3.54885 4.35978e-18)
(13.2187 -3.04559 4.80579e-20)
(14.2304 -3.14081 2.28473e-18)
(14.0584 -2.85797 1.53113e-18)
(14.3472 -2.64099 -6.48858e-20)
(14.4423 -2.53133 1.86636e-19)
(14.1326 -2.10744 -1.41231e-18)
(14.4374 -2.09733 1.57003e-19)
(13.723 -1.61915 -5.67888e-19)
(14.1203 -1.63982 -4.36209e-19)
(13.3137 -1.25447 2.56322e-19)
(13.6427 -1.25087 2.17286e-20)
(13.0065 -1.0003 1.52835e-19)
(13.2411 -0.978579 8.36207e-20)
(12.7876 -0.818841 -5.44183e-20)
(12.9582 -0.791666 -5.02051e-20)
(12.6199 -0.68059 -2.36693e-21)
(12.7565 -0.656241 -3.23925e-20)
(12.483 -0.570599 -2.43204e-20)
(12.5984 -0.550256 -4.11067e-20)
(12.3715 -0.481831 -2.14532e-20)
(12.4685 -0.464964 5.65089e-20)
(12.2827 -0.409074 7.62547e-20)
(12.3642 -0.395543 8.72774e-20)
(12.2124 -0.348272 -1.43397e-19)
(12.2819 -0.337848 -1.61403e-20)
(12.157 -0.296662 -4.58228e-20)
(12.2167 -0.288581 -2.19229e-19)
(12.1155 -0.252378 4.51124e-19)
(12.1655 -0.246519 2.88374e-19)
(12.0879 -0.21382 8.68713e-20)
(12.1279 -0.211355 1.72456e-19)
(12.1037 -0.17932 -3.21444e-20)
(12.0752 -0.179031 -2.56965e-19)
(10.9633 -0.912732 -1.84899e-18)
(10.893 -0.766633 -7.52304e-20)
(10.999 -0.745418 -3.83027e-18)
(10.8967 -1.10048 -2.00626e-18)
(10.8314 -0.93143 7.65956e-18)
(10.7975 -1.31481 -4.15128e-18)
(10.7424 -1.11701 -1.9457e-18)
(10.6566 -1.55712 -6.64381e-18)
(10.6142 -1.32933 -4.3093e-18)
(10.4684 -1.83378 2.41755e-18)
(10.4372 -1.56711 -2.38057e-18)
(10.2131 -2.15098 7.38518e-18)
(10.21 -1.83716 4.77749e-18)
(9.7979 -2.46913 -2.27019e-18)
(9.90405 -2.14265 -4.89466e-18)
(9.06776 -2.67356 2.95405e-20)
(9.39415 -2.41331 5.11481e-18)
(7.96566 -2.66649 1.60373e-18)
(8.52486 -2.50592 3.98966e-18)
(6.63973 -2.48547 -8.29268e-20)
(7.30904 -2.35689 -5.33178e-18)
(5.34559 -2.25449 2.28224e-18)
(5.9629 -2.05727 3.85766e-18)
(4.28307 -2.08987 -3.38739e-20)
(4.73382 -1.75048 2.03648e-18)
(3.53009 -2.05872 -1.16967e-18)
(3.77951 -1.53638 -2.04874e-18)
(3.07784 -2.16824 4.68516e-19)
(3.13656 -1.46053 -5.94195e-20)
(2.91224 -2.35192 2.46787e-19)
(2.77954 -1.52739 1.09289e-20)
(3.0768 -2.50196 4.29879e-19)
(2.76476 -1.63627 -5.06883e-19)
(3.62765 -2.59241 5.45333e-19)
(3.13453 -1.66378 1.14673e-18)
(4.53833 -2.60378 -2.149e-18)
(3.91378 -1.61378 8.25103e-19)
(5.71568 -2.56699 2.63518e-19)
(4.98462 -1.55528 1.18756e-18)
(7.07037 -2.49744 2.59043e-18)
(6.26561 -1.49008 -4.34416e-18)
(8.50052 -2.41687 2.02044e-18)
(7.66417 -1.41024 4.69914e-19)
(9.92738 -2.3666 -2.07975e-18)
(9.06415 -1.37723 -3.05907e-18)
(11.2952 -2.3601 -3.98034e-18)
(10.4402 -1.40724 4.17978e-19)
(12.5445 -2.38254 -2.83655e-18)
(11.7321 -1.50672 0)
(13.5923 -2.37688 -2.83203e-18)
(12.9072 -1.64274 9.57443e-20)
(14.2787 -2.25997 -5.68573e-19)
(13.8787 -1.73526 9.21775e-19)
(14.5361 -1.99097 4.88914e-19)
(14.4577 -1.69121 -2.06797e-18)
(14.4289 -1.63582 1.26773e-18)
(14.6059 -1.48099 1.64039e-18)
(14.0374 -1.26394 3.56513e-20)
(14.3858 -1.19094 3.32278e-19)
(13.5655 -0.970136 -1.77335e-19)
(13.8941 -0.908894 8.15775e-20)
(13.1894 -0.767144 -1.16476e-19)
(13.4278 -0.703493 9.71906e-20)
(12.9252 -0.627513 -1.97053e-20)
(13.09 -0.566547 -4.63694e-20)
(12.7335 -0.525054 -6.05102e-20)
(12.8576 -0.473291 3.31712e-20)
(12.5824 -0.44393 5.31209e-20)
(12.6857 -0.402136 -1.24602e-19)
(12.4598 -0.378087 1.6799e-19)
(12.5469 -0.344381 4.79472e-20)
(12.3621 -0.323765 -6.8216e-21)
(12.4349 -0.296635 9.527e-20)
(12.2852 -0.278025 -9.4834e-20)
(12.3466 -0.256275 -2.04291e-19)
(12.2243 -0.238654 1.10498e-19)
(12.2772 -0.221149 3.6525e-19)
(12.1768 -0.2044 1.09792e-20)
(12.2221 -0.190628 2.26156e-19)
(12.1425 -0.174567 1.00404e-20)
(12.1796 -0.164877 -5.44499e-19)
(12.1486 -0.140775 2.19653e-19)
(12.1228 -0.148196 4.96487e-19)
(10.7663 -0.781428 9.5143e-18)
(10.7223 -0.631668 5.33271e-18)
(10.8223 -0.63304 1.26398e-18)
(10.6787 -0.946422 7.80078e-18)
(10.6404 -0.775591 2.28719e-18)
(10.5572 -1.13302 -2.09804e-18)
(10.5302 -0.933411 -3.91183e-18)
(10.3927 -1.3411 -9.71132e-20)
(10.3815 -1.11277 6.28041e-18)
(10.178 -1.57229 -1.41629e-19)
(10.1839 -1.31096 -6.52165e-18)
(9.90062 -1.83142 -7.39709e-18)
(9.9327 -1.52834 -1.23105e-19)
(9.50016 -2.09299 2.42859e-18)
(9.61316 -1.76925 -2.55755e-18)
(8.85311 -2.25782 9.10796e-18)
(9.14583 -1.98835 2.66081e-18)
(7.87903 -2.2114 -2.5591e-18)
(8.3972 -2.05691 -3.84082e-18)
(6.66182 -1.9447 -1.61469e-18)
(7.33016 -1.87309 1.20782e-18)
(5.41314 -1.56144 3.62959e-18)
(6.09187 -1.47978 6.63996e-20)
(4.33099 -1.19741 -8.16945e-21)
(4.89193 -1.01066 1.02087e-18)
(3.52473 -0.935915 -6.85485e-19)
(3.90609 -0.58653 -1.02404e-18)
(3.02531 -0.797442 -1.18088e-19)
(3.20259 -0.271503 -1.86223e-19)
(2.86839 -0.726937 -3.43883e-19)
(2.80913 -0.0634567 -3.5553e-19)
(3.05192 -0.655663 -1.39513e-20)
(2.78475 0.0819879 1.27708e-19)
(3.58154 -0.581858 8.04216e-19)
(3.12792 0.253129 -2.45764e-19)