/*--------------------------------*- C++ -*----------------------------------*\
  =========                 |
  \\      /  F ield         | OpenFOAM: The Open Source CFD Toolbox
   \\    /   O peration     | Website:  https://openfoam.org
    \\  /    A nd           | Version:  6
     \\/     M anipulation  |
\*---------------------------------------------------------------------------*/
FoamFile
{
    version     2.0;
    format      ascii;
    class       volScalarField;
    location    "3.29";
    object      mag(U);
}
// * * * * * * * * * * * * * * * * * * * * * * * * * * * * * * * * * * * * * //

dimensions      [0 1 -1 0 0 0 0];

internalField   nonuniform List<scalar> 
10000
(
0.99997
0.99997
0.99997
0.99997
0.99997
0.99997
0.99997
0.99997
0.99997
0.99997
0.99997
0.99997
0.99997
0.99997
0.99997
0.99997
0.99997
0.99997
0.99997
0.99997
0.99997
0.99997
0.99997
0.99997
0.99997
0.99997
0.99997
0.99997
0.99997
0.99997
0.99997
0.99997
0.99997
0.99997
0.99997
0.99997
0.99997
0.99997
0.99997
0.99997
0.99997
0.99997
0.99997
0.99997
0.99997
0.999971
0.99997
0.999972
0.999972
0.999972
0.999973
0.999972
0.99997
0.999967
0.999963
0.999959
0.999953
0.999947
0.999941
0.999937
0.999935
0.999935
0.999937
0.999943
0.999951
0.99996
0.999971
0.999982
0.999992
1
1.00001
1.00001
1.00001
1.00001
1.00001
1
0.999996
0.999991
0.999986
0.999982
0.999979
0.999975
0.999974
0.999972
0.999971
0.99997
0.99997
0.99997
0.99997
0.99997
0.99997
0.99997
0.99997
0.99997
0.99997
0.99997
0.99997
0.99997
0.99997
0.99997
0.99997
0.99997
0.99997
0.99997
0.99997
0.99997
0.99997
0.99997
0.99997
0.99997
0.99997
0.99997
0.99997
0.99997
0.99997
0.99997
0.99997
0.99997
0.99997
0.99997
0.99997
0.99997
0.99997
0.99997
0.99997
0.99997
0.99997
0.99997
0.99997
0.99997
0.99997
0.99997
0.99997
0.99997
0.99997
0.99997
0.99997
0.99997
0.99997
0.99997
0.99997
0.99997
0.99997
0.99997
0.99997
0.999971
0.999972
0.999973
0.999974
0.999974
0.999975
0.999974
0.999971
0.999967
0.999962
0.999955
0.999947
0.999939
0.999932
0.999926
0.999923
0.999924
0.999928
0.999936
0.999947
0.999962
0.999976
0.999992
1.00001
1.00002
1.00002
1.00003
1.00003
1.00003
1.00002
1.00002
1.00001
1
0.999994
0.999988
0.999983
0.999979
0.999976
0.999973
0.999972
0.99997
0.99997
0.99997
0.99997
0.99997
0.99997
0.99997
0.99997
0.99997
0.99997
0.99997
0.99997
0.99997
0.99997
0.99997
0.99997
0.99997
0.99997
0.99997
0.99997
0.99997
0.99997
0.99997
0.99997
0.99997
0.99997
0.99997
0.99997
0.99997
0.99997
0.99997
0.99997
0.99997
0.99997
0.99997
0.99997
0.99997
0.99997
0.99997
0.99997
0.99997
0.99997
0.99997
0.99997
0.99997
0.99997
0.99997
0.99997
0.99997
0.99997
0.99997
0.99997
0.99997
0.99997
0.99997
0.99997
0.99997
0.99997
0.999971
0.99997
0.999972
0.999973
0.999975
0.999976
0.999977
0.999977
0.999975
0.999973
0.999968
0.999961
0.999951
0.999941
0.999931
0.999921
0.999914
0.999911
0.999912
0.99992
0.999932
0.999948
0.999967
0.999987
1.00001
1.00003
1.00004
1.00005
1.00006
1.00006
1.00005
1.00005
1.00004
1.00003
1.00001
1
0.999996
0.999988
0.999983
0.999979
0.999975
0.999973
0.999971
0.99997
0.99997
0.99997
0.99997
0.99997
0.99997
0.99997
0.99997
0.99997
0.99997
0.99997
0.99997
0.99997
0.99997
0.99997
0.99997
0.99997
0.99997
0.99997
0.99997
0.99997
0.99997
0.99997
0.99997
0.99997
0.99997
0.99997
0.99997
0.99997
0.99997
0.99997
0.99997
0.99997
0.99997
0.99997
0.99997
0.99997
0.99997
0.99997
0.99997
0.99997
0.99997
0.99997
0.99997
0.99997
0.99997
0.99997
0.99997
0.99997
0.99997
0.99997
0.99997
0.99997
0.99997
0.99997
0.99997
0.99997
0.999971
0.999972
0.999974
0.999975
0.999977
0.999979
0.999981
0.999982
0.999979
0.999976
0.99997
0.99996
0.999949
0.999935
0.999921
0.999909
0.999902
0.9999
0.999904
0.999915
0.999934
0.999957
0.999984
1.00001
1.00004
1.00006
1.00008
1.00009
1.0001
1.0001
1.00009
1.00008
1.00007
1.00005
1.00003
1.00002
1.00001
0.999996
0.999987
0.999981
0.999977
0.999974
0.999971
0.99997
0.99997
0.99997
0.99997
0.99997
0.99997
0.99997
0.99997
0.99997
0.99997
0.99997
0.99997
0.99997
0.99997
0.99997
0.99997
0.99997
0.99997
0.99997
0.99997
0.99997
0.99997
0.99997
0.99997
0.99997
0.99997
0.99997
0.99997
0.99997
0.99997
0.99997
0.99997
0.99997
0.99997
0.99997
0.99997
0.99997
0.99997
0.99997
0.99997
0.99997
0.99997
0.99997
0.99997
0.99997
0.99997
0.99997
0.99997
0.99997
0.99997
0.99997
0.99997
0.99997
0.999969
0.99997
0.99997
0.99997
0.999971
0.999973
0.999975
0.999979
0.999981
0.999984
0.999987
0.999988
0.999986
0.999981
0.999973
0.999961
0.999945
0.999929
0.999913
0.9999
0.999893
0.999894
0.999904
0.999923
0.99995
0.999984
1.00002
1.00006
1.00009
1.00012
1.00015
1.00016
1.00016
1.00016
1.00014
1.00013
1.00011
1.00008
1.00006
1.00004
1.00002
1.00001
0.999995
0.999985
0.999979
0.999975
0.999972
0.99997
0.99997
0.999969
0.999969
0.999969
0.99997
0.99997
0.99997
0.99997
0.99997
0.99997
0.99997
0.99997
0.99997
0.99997
0.99997
0.99997
0.99997
0.99997
0.99997
0.99997
0.99997
0.99997
0.99997
0.99997
0.99997
0.99997
0.99997
0.99997
0.99997
0.99997
0.99997
0.99997
0.99997
0.99997
0.99997
0.99997
0.99997
0.99997
0.99997
0.99997
0.99997
0.99997
0.99997
0.99997
0.99997
0.99997
0.99997
0.99997
0.99997
0.99997
0.99997
0.999969
0.99997
0.99997
0.99997
0.99997
0.999972
0.999975
0.999978
0.999982
0.999987
0.999991
0.999995
0.999996
0.999995
0.999988
0.999978
0.999963
0.999945
0.999925
0.999908
0.999896
0.999893
0.999901
0.999921
0.999953
0.999994
1.00004
1.00009
1.00015
1.00019
1.00023
1.00025
1.00026
1.00026
1.00025
1.00022
1.0002
1.00016
1.00013
1.0001
1.00007
1.00004
1.00002
1
0.99999
0.999982
0.999976
0.999973
0.99997
0.99997
0.999969
0.999969
0.999969
0.999969
0.99997
0.99997
0.99997
0.99997
0.99997
0.99997
0.99997
0.99997
0.99997
0.99997
0.99997
0.99997
0.99997
0.99997
0.99997
0.99997
0.99997
0.99997
0.99997
0.99997
0.99997
0.99997
0.99997
0.99997
0.99997
0.99997
0.99997
0.99997
0.99997
0.99997
0.99997
0.99997
0.99997
0.99997
0.99997
0.99997
0.99997
0.99997
0.99997
0.99997
0.99997
0.99997
0.99997
0.99997
0.99997
0.999969
0.999969
0.99997
0.99997
0.99997
0.999971
0.999974
0.999976
0.999981
0.999986
0.999994
1
1.00001
1.00001
1.00001
0.999998
0.999985
0.999966
0.999945
0.999926
0.99991
0.999903
0.999909
0.999931
0.999968
1.00002
1.00008
1.00016
1.00023
1.0003
1.00035
1.0004
1.00042
1.00042
1.00041
1.00038
1.00034
1.0003
1.00025
1.00019
1.00015
1.0001
1.00007
1.00004
1.00001
0.999997
0.999985
0.999977
0.999973
0.99997
0.999968
0.999968
0.999968
0.999968
0.999968
0.999969
0.99997
0.99997
0.99997
0.99997
0.99997
0.99997
0.99997
0.99997
0.99997
0.99997
0.99997
0.99997
0.99997
0.99997
0.99997
0.99997
0.99997
0.99997
0.99997
0.99997
0.99997
0.99997
0.99997
0.99997
0.99997
0.99997
0.99997
0.99997
0.99997
0.99997
0.99997
0.99997
0.99997
0.99997
0.99997
0.99997
0.99997
0.99997
0.99997
0.99997
0.99997
0.99997
0.99997
0.999969
0.999969
0.999969
0.999969
0.999969
0.99997
0.999972
0.999975
0.999979
0.999985
0.999993
1
1.00001
1.00002
1.00002
1.00002
1.00001
0.999995
0.999974
0.999952
0.999932
0.999923
0.999927
0.999951
0.999997
1.00006
1.00015
1.00025
1.00036
1.00046
1.00055
1.00062
1.00067
1.00069
1.00068
1.00064
1.00059
1.00052
1.00044
1.00036
1.00029
1.00022
1.00016
1.0001
1.00006
1.00003
1.00001
0.999989
0.999978
0.999971
0.999969
0.999967
0.999967
0.999967
0.999968
0.999968
0.999968
0.999969
0.99997
0.99997
0.99997
0.99997
0.99997
0.99997
0.99997
0.99997
0.99997
0.99997
0.99997
0.99997
0.99997
0.99997
0.99997
0.99997
0.99997
0.99997
0.99997
0.99997
0.99997
0.99997
0.99997
0.99997
0.99997
0.99997
0.99997
0.99997
0.99997
0.99997
0.99997
0.99997
0.99997
0.99997
0.99997
0.99997
0.99997
0.99997
0.99997
0.99997
0.99997
0.999969
0.999969
0.999969
0.999968
0.999969
0.999969
0.99997
0.999972
0.999976
0.999982
0.999991
1
1.00001
1.00003
1.00003
1.00004
1.00004
1.00002
1.00001
0.999983
0.99996
0.999947
0.999951
0.999977
1.00003
1.00012
1.00023
1.00037
1.00052
1.00068
1.00083
1.00096
1.00105
1.0011
1.00111
1.00107
1.001
1.0009
1.00079
1.00066
1.00054
1.00042
1.00032
1.00023
1.00015
1.00009
1.00005
1.00002
0.999993
0.999979
0.99997
0.999967
0.999965
0.999965
0.999966
0.999966
0.999967
0.999968
0.999968
0.999968
0.99997
0.99997
0.99997
0.99997
0.99997
0.99997
0.99997
0.99997
0.99997
0.99997
0.99997
0.99997
0.99997
0.99997
0.99997
0.99997
0.99997
0.99997
0.99997
0.99997
0.99997
0.99997
0.99997
0.99997
0.99997
0.99997
0.99997
0.99997
0.99997
0.99997
0.99997
0.99997
0.99997
0.99997
0.99997
0.99997
0.99997
0.99997
0.99997
0.999969
0.999969
0.999968
0.999968
0.999968
0.999968
0.999968
0.999969
0.999972
0.999977
0.999985
0.999997
1.00001
1.00003
1.00004
1.00005
1.00006
1.00005
1.00004
1.00001
0.999989
0.999971
0.999971
0.999998
1.00006
1.00016
1.00031
1.0005
1.00071
1.00095
1.00118
1.0014
1.00158
1.0017
1.00176
1.00175
1.00167
1.00154
1.00138
1.00119
1.00099
1.0008
1.00062
1.00046
1.00033
1.00022
1.00014
1.00007
1.00003
0.999999
0.99998
0.999969
0.999964
0.999962
0.999962
0.999963
0.999965
0.999966
0.999967
0.999968
0.999968
0.999969
0.99997
0.99997
0.99997
0.99997
0.99997
0.99997
0.99997
0.99997
0.99997
0.99997
0.99997
0.99997
0.99997
0.99997
0.99997
0.99997
0.99997
0.99997
0.99997
0.99997
0.99997
0.99997
0.99997
0.99997
0.99997
0.99997
0.99997
0.99997
0.99997
0.99997
0.99997
0.99997
0.99997
0.99997
0.99997
0.99997
0.99997
0.999969
0.999969
0.999969
0.999968
0.999968
0.999967
0.999967
0.999966
0.999969
0.999972
0.999979
0.999989
1
1.00002
1.00004
1.00006
1.00007
1.00007
1.00006
1.00004
1.00001
0.999988
0.999979
1
1.00006
1.00018
1.00035
1.00059
1.00088
1.00121
1.00156
1.0019
1.00222
1.00248
1.00265
1.00272
1.00269
1.00256
1.00235
1.00208
1.00178
1.00147
1.00118
1.00091
1.00067
1.00048
1.00032
1.0002
1.00011
1.00005
1.00001
0.99998
0.999966
0.999959
0.999958
0.999958
0.999959
0.999962
0.999964
0.999966
0.999967
0.999968
0.999968
0.99997
0.99997
0.99997
0.99997
0.99997
0.99997
0.99997
0.99997
0.99997
0.99997
0.99997
0.99997
0.99997
0.99997
0.99997
0.99997
0.99997
0.99997
0.99997
0.99997
0.99997
0.99997
0.99997
0.99997
0.99997
0.99997
0.99997
0.99997
0.99997
0.99997
0.99997
0.99997
0.99997
0.99997
0.99997
0.99997
0.99997
0.999969
0.999969
0.999969
0.999967
0.999966
0.999966
0.999965
0.999965
0.999967
0.999971
0.999979
0.999993
1.00001
1.00003
1.00005
1.00007
1.00008
1.00008
1.00006
1.00002
0.999988
0.999964
0.99997
1.00002
1.00014
1.00033
1.0006
1.00095
1.00138
1.00186
1.00237
1.00287
1.00333
1.00371
1.00396
1.00408
1.00403
1.00384
1.00352
1.00311
1.00265
1.00218
1.00174
1.00133
1.00098
1.00069
1.00046
1.00029
1.00016
1.00008
1.00002
0.999982
0.999962
0.999953
0.999951
0.999953
0.999955
0.999958
0.999961
0.999964
0.999966
0.999967
0.999968
0.999968
0.99997
0.99997
0.99997
0.99997
0.99997
0.99997
0.99997
0.99997
0.99997
0.99997
0.99997
0.99997
0.99997
0.99997
0.99997
0.99997
0.99997
0.99997
0.99997
0.99997
0.99997
0.99997
0.99997
0.99997
0.99997
0.99997
0.99997
0.99997
0.99997
0.99997
0.99997
0.99997
0.99997
0.99997
0.99997
0.999969
0.999969
0.999968
0.999968
0.999966
0.999966
0.999964
0.999962
0.999963
0.999965
0.99997
0.99998
0.999996
1.00002
1.00004
1.00006
1.00008
1.00008
1.00006
1.00002
0.999973
0.999925
0.999899
0.999921
1.00001
1.00019
1.00048
1.00087
1.00137
1.00196
1.00263
1.00334
1.00405
1.00471
1.00527
1.00567
1.00587
1.00584
1.00559
1.00515
1.00456
1.0039
1.00321
1.00254
1.00195
1.00143
1.00101
1.00068
1.00042
1.00024
1.00012
1.00003
0.999985
0.999958
0.999945
0.999943
0.999945
0.999949
0.999953
0.999958
0.999961
0.999964
0.999966
0.999967
0.999968
0.999968
0.99997
0.99997
0.99997
0.99997
0.99997
0.99997
0.99997
0.99997
0.99997
0.99997
0.99997
0.99997
0.99997
0.99997
0.99997
0.99997
0.99997
0.99997
0.99997
0.99997
0.99997
0.99997
0.99997
0.99997
0.99997
0.99997
0.99997
0.99997
0.99997
0.99997
0.99997
0.99997
0.99997
0.99997
0.999969
0.999968
0.999969
0.999967
0.999965
0.999963
0.999962
0.999959
0.999959
0.999961
0.999966
0.999978
0.999996
1.00002
1.00005
1.00006
1.00007
1.00005
1.00001
0.99994
0.999859
0.999789
0.999757
0.999796
0.999931
1.00018
1.00056
1.00108
1.00173
1.00251
1.00338
1.00433
1.0053
1.00624
1.00706
1.0077
1.00807
1.00813
1.00787
1.00732
1.00654
1.00562
1.00464
1.00369
1.00283
1.00208
1.00147
1.00098
1.00062
1.00036
1.00018
1.00006
0.999991
0.999953
0.999936
0.999932
0.999935
0.99994
0.999947
0.999953
0.999958
0.999962
0.999964
0.999967
0.999967
0.999968
0.999969
0.99997
0.99997
0.99997
0.99997
0.99997
0.99997
0.99997
0.99997
0.99997
0.99997
0.99997
0.99997
0.99997
0.99997
0.99997
0.99997
0.99997
0.99997
0.99997
0.99997
0.99997
0.99997
0.99997
0.99997
0.99997
0.99997
0.99997
0.99997
0.99997
0.99997
0.99997
0.99997
0.999969
0.999969
0.999968
0.999968
0.999966
0.999964
0.999961
0.999958
0.999955
0.999954
0.999954
0.99996
0.999972
0.999992
1.00002
1.00004
1.00005
1.00003
0.999983
0.999894
0.999773
0.999643
0.999536
0.999486
0.999531
0.999698
1
1.00046
1.00107
1.00184
1.00277
1.00385
1.00504
1.00632
1.00761
1.00881
1.00982
1.01052
1.01081
1.01066
1.01007
1.00911
1.00791
1.00659
1.00528
1.00406
1.003
1.00212
1.00143
1.00091
1.00053
1.00027
1.00011
1.00001
0.999951
0.999926
0.99992
0.999922
0.99993
0.999939
0.999947
0.999953
0.999959
0.999963
0.999966
0.999967
0.999968
0.999968
0.99997
0.99997
0.99997
0.99997
0.99997
0.99997
0.99997
0.99997
0.99997
0.99997
0.99997
0.99997
0.99997
0.99997
0.99997
0.99997
0.99997
0.99997
0.99997
0.99997
0.99997
0.99997
0.99997
0.99997
0.99997
0.99997
0.99997
0.99997
0.99997
0.99997
0.99997
0.999969
0.999969
0.999968
0.999968
0.999966
0.999964
0.999962
0.999957
0.999953
0.999949
0.999945
0.999945
0.999951
0.999963
0.999982
1
1.00001
1
0.999948
0.999842
0.999682
0.999481
0.999274
0.999104
0.999014
0.999037
0.999193
0.999492
0.999941
1.00055
1.00134
1.00233
1.00353
1.00495
1.00654
1.00826
1.00997
1.01154
1.01279
1.01356
1.01373
1.01328
1.01226
1.01082
1.00914
1.00739
1.00573
1.00426
1.00303
1.00206
1.00132
1.00078
1.00042
1.00018
1.00003
0.999954
0.999916
0.999905
0.999907
0.999918
0.999929
0.99994
0.999948
0.999955
0.999961
0.999963
0.999966
0.999967
0.999968
0.999969
0.99997
0.99997
0.99997
0.99997
0.99997
0.99997
0.99997
0.99997
0.99997
0.99997
0.99997
0.99997
0.99997
0.99997
0.99997
0.99997
0.99997
0.99997
0.99997
0.99997
0.99997
0.99997
0.99997
0.99997
0.99997
0.99997
0.99997
0.99997
0.99997
0.99997
0.999969
0.999969
0.999968
0.999967
0.999965
0.999962
0.999958
0.999953
0.999947
0.999939
0.999934
0.999932
0.999936
0.999946
0.999961
0.999971
0.999959
0.999907
0.999789
0.999594
0.999324
0.999003
0.998684
0.998415
0.99824
0.998179
0.998232
0.998394
0.99867
0.999082
0.99968
1.00053
1.00171
1.00324
1.00514
1.00733
1.00971
1.01208
1.01419
1.01579
1.01664
1.01664
1.01581
1.01428
1.01229
1.0101
1.00793
1.00596
1.00428
1.00293
1.0019
1.00115
1.00063
1.00029
1.00008
0.999966
0.99991
0.99989
0.999892
0.999902
0.999916
0.99993
0.999941
0.99995
0.999957
0.999961
0.999965
0.999967
0.999968
0.999969
0.999969
0.99997
0.99997
0.99997
0.99997
0.99997
0.99997
0.99997
0.99997
0.99997
0.99997
0.99997
0.99997
0.99997
0.99997
0.99997
0.99997
0.99997
0.99997
0.99997
0.99997
0.99997
0.99997
0.99997
0.99997
0.99997
0.99997
0.99997
0.99997
0.99997
0.999969
0.999969
0.999969
0.999966
0.999964
0.999959
0.999954
0.999946
0.999938
0.999928
0.99992
0.999915
0.999915
0.99992
0.999924
0.999912
0.999861
0.999741
0.999523
0.999192
0.99876
0.998273
0.997792
0.997371
0.997036
0.996774
0.996553
0.996344
0.996154
0.996039
0.996107
0.996508
0.997392
0.99887
1.00099
1.00371
1.00691
1.01035
1.01371
1.01659
1.01864
1.01959
1.01936
1.01806
1.01595
1.01338
1.01069
1.00815
1.00593
1.00411
1.0027
1.00166
1.00094
1.00046
1.00016
0.999995
0.99991
0.999877
0.999874
0.999886
0.999902
0.999919
0.999933
0.999945
0.999953
0.999959
0.999963
0.999966
0.999967
0.999968
0.999969
0.99997
0.99997
0.99997
0.99997
0.99997
0.99997
0.99997
0.99997
0.99997
0.99997
0.99997
0.99997
0.99997
0.99997
0.99997
0.99997
0.99997
0.99997
0.99997
0.99997
0.99997
0.99997
0.99997
0.99997
0.99997
0.99997
0.99997
0.99997
0.999969
0.999969
0.999968
0.999968
0.999965
0.999962
0.999957
0.999949
0.999939
0.999926
0.999913
0.9999
0.99989
0.999885
0.99988
0.999864
0.999815
0.999698
0.999473
0.999103
0.998578
0.997925
0.997211
0.99651
0.995859
0.995239
0.994582
0.993802
0.992851
0.991753
0.990627
0.989683
0.989192
0.98943
0.99061
0.992844
0.996123
1.0003
1.00511
1.01012
1.01484
1.0187
1.02126
1.02226
1.0217
1.01985
1.01713
1.014
1.01087
1.00803
1.00564
1.00376
1.00236
1.00137
1.00071
1.00029
1.00005
0.999922
0.999869
0.999858
0.999867
0.999886
0.999906
0.999924
0.999938
0.999949
0.999957
0.999962
0.999965
0.999967
0.999968
0.999968
0.999969
0.99997
0.99997
0.99997
0.99997
0.99997
0.99997
0.99997
0.99997
0.99997
0.99997
0.99997
0.99997
0.99997
0.99997
0.99997
0.99997
0.99997
0.99997
0.99997
0.99997
0.99997
0.99997
0.99997
0.99997
0.99997
0.99997
0.99997
0.999969
0.999969
0.999968
0.999966
0.999964
0.99996
0.999953
0.999943
0.999929
0.999912
0.999894
0.999876
0.99986
0.999843
0.99982
0.999771
0.999662
0.999445
0.999064
0.998478
0.997686
0.996744
0.995742
0.994747
0.993752
0.992653
0.991297
0.989539
0.987319
0.984711
0.98194
0.979368
0.977444
0.976611
0.977216
0.979449
0.983321
0.988666
0.995144
1.00225
1.00935
1.0157
1.02063
1.02364
1.02454
1.02353
1.02105
1.01771
1.01408
1.01061
1.00759
1.00514
1.00329
1.00195
1.00105
1.00048
1.00014
0.999952
0.999869
0.999843
0.999849
0.999869
0.999892
0.999913
0.99993
0.999944
0.999953
0.999959
0.999964
0.999966
0.999967
0.999968
0.999969
0.99997
0.99997
0.99997
0.99997
0.99997
0.99997
0.99997
0.99997
0.99997
0.99997
0.99997
0.99997
0.99997
0.99997
0.99997
0.99997
0.99997
0.99997
0.99997
0.99997
0.99997
0.99997
0.99997
0.99997
0.99997
0.99997
0.99997
0.999969
0.999969
0.999967
0.999965
0.999962
0.999957
0.999947
0.999935
0.999918
0.999896
0.999871
0.999845
0.999819
0.999786
0.999735
0.999634
0.999435
0.99907
0.998469
0.997588
0.996451
0.995152
0.993797
0.992419
0.990911
0.989048
0.986566
0.983262
0.979093
0.974225
0.969045
0.96413
0.960162
0.957801
0.957562
0.959721
0.96429
0.971043
0.979543
0.98918
0.999183
1.00866
1.01671
1.02255
1.02577
1.02635
1.02472
1.02157
1.01764
1.01361
1.00993
1.00686
1.00447
1.00273
1.00152
1.00074
1.00027
1.00001
0.999882
0.999835
0.999833
0.999852
0.999877
0.999901
0.999922
0.999938
0.999949
0.999957
0.999962
0.999965
0.999967
0.999967
0.999969
0.99997
0.99997
0.99997
0.99997
0.99997
0.99997
0.99997
0.99997
0.99997
0.99997
0.99997
0.99997
0.99997
0.99997
0.99997
0.99997
0.99997
0.99997
0.99997
0.99997
0.99997
0.99997
0.99997
0.99997
0.99997
0.999969
0.99997
0.999969
0.999968
0.999966
0.999965
0.99996
0.999953
0.999941
0.999925
0.999904
0.999876
0.999844
0.999808
0.999766
0.99971
0.999616
0.99944
0.999109
0.998537
0.997636
0.996374
0.994815
0.9931
0.991333
0.989452
0.987196
0.984176
0.980011
0.974458
0.967527
0.95953
0.951081
0.943035
0.936379
0.932048
0.930756
0.932867
0.938361
0.946888
0.957851
0.970481
0.983873
0.997004
1.00879
1.01823
1.0246
1.02762
1.02758
1.02519
1.02134
1.01694
1.01265
1.00893
1.00594
1.00371
1.00214
1.0011
1.00046
1.0001
0.999912
0.999836
0.999822
0.999835
0.999862
0.999889
0.999913
0.999931
0.999945
0.999954
0.99996
0.999964
0.999966
0.999967
0.999969
0.999969
0.99997
0.99997
0.99997
0.99997
0.99997
0.99997
0.99997
0.99997
0.99997
0.99997
0.99997
0.99997
0.99997
0.99997
0.99997
0.99997
0.99997
0.99997
0.99997
0.99997
0.99997
0.99997
0.99997
0.99997
0.99997
0.999969
0.999969
0.999968
0.999966
0.999963
0.999957
0.999949
0.999935
0.999915
0.999887
0.999852
0.999812
0.999762
0.9997
0.999609
0.999455
0.999169
0.998658
0.997805
0.996515
0.994784
0.992742
0.990575
0.988336
0.985793
0.982469
0.977791
0.971269
0.962652
0.952046
0.939962
0.927306
0.915296
0.905302
0.898613
0.89618
0.898437
0.905274
0.916129
0.930145
0.946315
0.963564
0.980767
0.99674
1.01031
1.0205
1.02675
1.02909
1.02813
1.02486
1.02039
1.01565
1.0113
1.00769
1.00491
1.00292
1.00157
1.00073
1.00023
0.999967
0.99985
0.999815
0.999822
0.999848
0.999877
0.999903
0.999925
0.99994
0.999951
0.999958
0.999963
0.999965
0.999967
0.999969
0.999969
0.99997
0.99997
0.99997
0.99997
0.99997
0.99997
0.99997
0.99997
0.99997
0.99997
0.99997
0.99997
0.99997
0.99997
0.99997
0.99997
0.99997
0.99997
0.99997
0.99997
0.99997
0.99997
0.99997
0.99997
0.99997
0.99997
0.999969
0.999968
0.999965
0.999961
0.999955
0.999944
0.999926
0.999903
0.999869
0.999826
0.999774
0.999708
0.999618
0.99948
0.99924
0.998807
0.998053
0.996836
0.995063
0.992789
0.990234
0.987605
0.984822
0.981403
0.976608
0.969678
0.960042
0.947468
0.932199
0.914999
0.897136
0.880291
0.866336
0.857004
0.853526
0.856372
0.865243
0.879227
0.897076
0.917439
0.939026
0.960616
0.981004
0.998973
1.01339
1.02342
1.02881
1.02997
1.02787
1.02375
1.01879
1.01392
1.00969
1.00633
1.00386
1.00216
1.00107
1.00041
1.00005
0.999881
0.999819
0.999814
0.999836
0.999865
0.999894
0.999918
0.999935
0.999948
0.999957
0.999962
0.999965
0.999966
0.999967
0.999969
0.99997
0.99997
0.99997
0.99997
0.99997
0.99997
0.99997
0.99997
0.99997
0.99997
0.99997
0.99997
0.99997
0.99997
0.99997
0.99997
0.99997
0.99997
0.99997
0.99997
0.99997
0.99997
0.99997
0.99997
0.99997
0.999969
0.999969
0.999967
0.999964
0.999959
0.999952
0.999938
0.999918
0.999889
0.999848
0.999796
0.999729
0.999644
0.999517
0.999315
0.998963
0.998333
0.997264
0.995592
0.993252
0.990395
0.987341
0.98426
0.980838
0.976265
0.969523
0.959685
0.94612
0.928651
0.907685
0.884284
0.860165
0.837601
0.819122
0.807038
0.802895
0.807135
0.819088
0.837294
0.859937
0.885227
0.911611
0.937796
0.962629
0.98497
1.00367
1.01773
1.02661
1.03045
1.03007
1.02676
1.0219
1.01668
1.01189
1.00795
1.00498
1.00288
1.0015
1.00065
1.00018
0.999935
0.999835
0.999813
0.999827
0.999856
0.999885
0.999911
0.99993
0.999945
0.999954
0.99996
0.999964
0.999966
0.999967
0.999969
0.99997
0.99997
0.99997
0.99997
0.99997
0.99997
0.99997
0.99997
0.99997
0.99997
0.99997
0.99997
0.99997
0.99997
0.99997
0.99997
0.99997
0.99997
0.99997
0.99997
0.99997
0.99997
0.99997
0.99997
0.99997
0.999969
0.999968
0.999966
0.999963
0.999958
0.999948
0.999933
0.999908
0.999874
0.999827
0.999763
0.999681
0.999569
0.999396
0.999109
0.99861
0.997731
0.996268
0.994051
0.991082
0.987649
0.984155
0.980637
0.976443
0.970386
0.961172
0.947739
0.929424
0.906117
0.878403
0.847689
0.81624
0.787092
0.763655
0.748986
0.744989
0.751921
0.768466
0.792305
0.820844
0.851761
0.883265
0.914052
0.943118
0.969516
0.992218
1.01019
1.02268
1.02952
1.0313
1.02923
1.02481
1.01946
1.01423
1.00974
1.00624
1.00372
1.00202
1.00096
1.00034
1.00001
0.999866
0.99982
0.999824
0.999848
0.999878
0.999904
0.999926
0.999941
0.999952
0.999959
0.999963
0.999966
0.999967
0.999969
0.999969
0.99997
0.99997
0.99997
0.99997
0.99997
0.99997
0.99997
0.99997
0.99997
0.99997
0.99997
0.99997
0.99997
0.99997
0.99997
0.99997
0.99997
0.99997
0.99997
0.99997
0.99997
0.99997
0.99997
0.99997
0.999969
0.999968
0.999966
0.999962
0.999956
0.999945
0.999928
0.999898
0.999859
0.999805
0.999727
0.999626
0.999485
0.999252
0.998857
0.998174
0.996986
0.995048
0.992208
0.98859
0.984645
0.980802
0.97685
0.97171
0.963797
0.951578
0.933883
0.910041
0.880004
0.844539
0.805419
0.765585
0.729069
0.700451
0.683777
0.68133
0.692922
0.716138
0.747359
0.782938
0.819987
0.856591
0.891613
0.924342
0.954143
0.980228
1.00165
1.01751
1.02738
1.03155
1.03105
1.02739
1.02215
1.01662
1.01165
1.00764
1.00467
1.00263
1.00132
1.00054
1.00012
0.999914
0.999837
0.999826
0.999845
0.999873
0.9999
0.999923
0.999939
0.99995
0.999958
0.999962
0.999966
0.999968
0.999969
0.999969
0.99997
0.99997
0.99997
0.99997
0.99997
0.99997
0.99997
0.99997
0.99997
0.99997
0.99997
0.99997
0.99997
0.99997
0.99997
0.99997
0.99997
0.99997
0.99997
0.99997
0.99997
0.99997
0.999969
0.99997
0.999969
0.999968
0.999965
0.999962
0.999954
0.999941
0.999921
0.999888
0.999842
0.999782
0.999691
0.999566
0.999388
0.999084
0.998554
0.997646
0.996091
0.993601
0.990086
0.985849
0.98151
0.977421
0.973008
0.966715
0.956573
0.940851
0.918313
0.888289
0.850773
0.80668
0.758179
0.709011
0.664487
0.630747
0.613168
0.614439
0.633501
0.666138
0.70681
0.750516
0.793826
0.834954
0.873239
0.908518
0.94062
0.969094
0.993139
1.01182
1.02444
1.03099
1.03223
1.02957
1.02465
1.01898
1.01361
1.00912
1.00572
1.00332
1.00175
1.00079
1.00025
0.999981
0.999867
0.999837
0.999846
0.999871
0.999897
0.99992
0.999937
0.999949
0.999957
0.999962
0.999965
0.999967
0.999969
0.999969
0.99997
0.99997
0.99997
0.99997
0.99997
0.99997
0.99997
0.99997
0.99997
0.99997
0.99997
0.99997
0.99997
0.99997
0.99997
0.99997
0.99997
0.99997
0.99997
0.99997
0.99997
0.99997
0.99997
0.999969
0.999969
0.999968
0.999964
0.999961
0.999953
0.999936
0.999917
0.99988
0.999826
0.99976
0.999654
0.999501
0.999282
0.998892
0.998199
0.997022
0.995045
0.991942
0.987731
0.982963
0.978381
0.97414
0.969209
0.961545
0.948847
0.929229
0.901433
0.864791
0.819302
0.765979
0.707384
0.64816
0.595164
0.556601
0.539746
0.547801
0.578122
0.623621
0.676063
0.728814
0.778027
0.822412
0.862225
0.89822
0.930931
0.960337
0.985833
1.00645
1.02128
1.02995
1.0329
1.03135
1.02693
1.02125
1.01558
1.01066
1.00683
1.00407
1.00223
1.00108
1.00042
1.00007
0.999909
0.999855
0.999852
0.999872
0.999896
0.999918
0.999936
0.999947
0.999956
0.999962
0.999965
0.999967
0.999968
0.999969
0.99997
0.99997
0.99997
0.99997
0.99997
0.99997
0.99997
0.99997
0.99997
0.99997
0.99997
0.99997
0.99997
0.99997
0.99997
0.99997
0.99997
0.99997
0.99997
0.99997
0.99997
0.99997
0.99997
0.99997
0.999968
0.999967
0.999964
0.99996
0.999951
0.999932
0.999912
0.999873
0.999809
0.999738
0.99962
0.999431
0.999163
0.998681
0.997792
0.996301
0.993859
0.990105
0.98522
0.980046
0.975388
0.971066
0.965537
0.95632
0.940837
0.917109
0.883897
0.840541
0.787004
0.724334
0.655424
0.585793
0.523968
0.48085
0.466708
0.485541
0.531827
0.594071
0.660617
0.723097
0.777442
0.823233
0.862133
0.896278
0.927233
0.955577
0.980936
1.0023
1.0185
1.02881
1.03327
1.03281
1.02897
1.0234
1.01751
1.01222
1.00798
1.00487
1.00275
1.0014
1.00061
1.00017
0.999964
0.999882
0.999865
0.999876
0.999897
0.999918
0.999935
0.999947
0.999955
0.999961
0.999965
0.999967
0.999968
0.999969
0.99997
0.99997
0.99997
0.99997
0.99997
0.99997
0.99997
0.99997
0.99997
0.99997
0.99997
0.99997
0.99997
0.99997
0.99997
0.99997
0.99997
0.99997
0.99997
0.99997
0.99997
0.99997
0.999969
0.999969
0.999969
0.999967
0.999964
0.999958
0.999951
0.999929
0.999907
0.999869
0.999794
0.999718
0.999591
0.99936
0.999032
0.998453
0.997342
0.995492
0.992551
0.988147
0.982643
0.977208
0.972635
0.968282
0.962078
0.951194
0.932868
0.905074
0.866635
0.816937
0.755892
0.684524
0.605905
0.526082
0.454982
0.40697
0.397447
0.431696
0.498921
0.58148
0.664102
0.736846
0.795532
0.840803
0.876086
0.905373
0.931682
0.956461
0.979675
1.00026
1.01677
1.02801
1.03359
1.03408
1.03081
1.0254
1.01936
1.01376
1.00915
1.0057
1.0033
1.00175
1.00082
1.0003
1.00003
0.999918
0.999882
0.999884
0.999901
0.999919
0.999935
0.999947
0.999956
0.999961
0.999965
0.999967
0.999968
0.999969
0.99997
0.99997
0.99997
0.99997
0.99997
0.99997
0.99997
0.99997
0.99997
0.99997
0.99997
0.99997
0.99997
0.99997
0.99997
0.99997
0.99997
0.99997
0.99997
0.99997
0.99997
0.99997
0.99997
0.999969
0.999969
0.999968
0.999963
0.999957
0.999951
0.999928
0.999901
0.999867
0.999784
0.999696
0.999569
0.999292
0.998889
0.99821
0.996861
0.994603
0.991154
0.986142
0.980093
0.974532
0.970192
0.965853
0.958928
0.946383
0.925378
0.893883
0.850839
0.795758
0.728577
0.650263
0.563762
0.474859
0.393882
0.339275
0.335235
0.389032
0.480897
0.586021
0.686095
0.769808
0.832681
0.876231
0.905719
0.927329
0.945997
0.964438
0.983185
1.00119
1.01669
1.02798
1.03415
1.03531
1.0325
1.02727
1.02113
1.01525
1.01031
1.00653
1.00387
1.00212
1.00105
1.00044
1.00011
0.999963
0.999907
0.999897
0.999907
0.999922
0.999936
0.999948
0.999956
0.999962
0.999965
0.999967
0.999968
0.999969
0.99997
0.99997
0.99997
0.99997
0.99997
0.99997
0.99997
0.99997
0.99997
0.99997
0.99997
0.99997
0.99997
0.99997
0.99997
0.99997
0.99997
0.99997
0.99997
0.99997
0.99997
0.99997
0.99997
0.999969
0.999968
0.999968
0.999963
0.999956
0.999951
0.999929
0.999895
0.999869
0.999779
0.999674
0.999551
0.999235
0.998737
0.997955
0.996368
0.993661
0.989703
0.984161
0.977659
0.972073
0.968092
0.963832
0.956204
0.942152
0.918895
0.884431
0.837876
0.779046
0.708089
0.625938
0.534967
0.439557
0.348728
0.284206
0.283444
0.357909
0.475188
0.603413
0.721877
0.817743
0.88571
0.927654
0.950399
0.962414
0.970939
0.98042
0.992317
1.0058
1.0188
1.02911
1.03519
1.03664
1.03413
1.02901
1.02278
1.01667
1.01142
1.00735
1.00444
1.0025
1.00129
1.00058
1.0002
1.00002
0.999937
0.999914
0.999917
0.999928
0.999939
0.999949
0.999957
0.999962
0.999966
0.999967
0.999968
0.999969
0.99997
0.99997
0.99997
0.99997
0.99997
0.99997
0.99997
0.99997
0.99997
0.99997
0.99997
0.99997
0.99997
0.99997
0.99997
0.99997
0.99997
0.99997
0.99997
0.99997
0.99997
0.999969
0.99997
0.99997
0.999968
0.999967
0.999964
0.999955
0.999951
0.999931
0.99989
0.99987
0.999784
0.999652
0.999536
0.999194
0.99858
0.99769
0.995884
0.9927
0.988235
0.982272
0.975415
0.969863
0.966342
0.962272
0.954049
0.938793
0.913987
0.877659
0.829157
0.768869
0.697476
0.615899
0.525436
0.428146
0.330168
0.25287
0.247532
0.337462
0.477259
0.627642
0.765102
0.874623
0.949385
0.991002
1.0074
1.00917
1.006
1.00448
1.00741
1.01448
1.02349
1.0317
1.03695
1.03823
1.03577
1.03067
1.02433
1.01799
1.01248
1.00814
1.005
1.00288
1.00154
1.00074
1.0003
1.00007
0.999972
0.999934
0.999928
0.999934
0.999943
0.999952
0.999958
0.999962
0.999966
0.999967
0.999969
0.999969
0.99997
0.99997
0.99997
0.99997
0.99997
0.99997
0.99997
0.99997
0.99997
0.99997
0.99997
0.99997
0.99997
0.99997
0.99997
0.99997
0.99997
0.99997
0.99997
0.99997
0.99997
0.999969
0.99997
0.99997
0.999967
0.999967
0.999966
0.999955
0.99995
0.999937
0.999888
0.999871
0.999799
0.999637
0.999519
0.999175
0.998432
0.997416
0.995425
0.991764
0.98679
0.980519
0.973421
0.967919
0.964915
0.961204
0.952614
0.936607
0.911181
0.874433
0.825947
0.766992
0.699157
0.623296
0.539156
0.446222
0.347475
0.260046
0.239423
0.330818
0.485589
0.655134
0.811328
0.935642
1.01883
1.06172
1.07296
1.06488
1.04953
1.03579
1.02819
1.02726
1.03089
1.03592
1.03955
1.04016
1.03746
1.03224
1.02575
1.01921
1.01345
1.00887
1.00552
1.00324
1.00178
1.0009
1.0004
1.00014
1.00001
0.999959
0.999943
0.999943
0.999949