/*--------------------------------*- C++ -*----------------------------------*\
  =========                 |
  \\      /  F ield         | OpenFOAM: The Open Source CFD Toolbox
   \\    /   O peration     | Website:  https://openfoam.org
    \\  /    A nd           | Version:  6
     \\/     M anipulation  |
\*---------------------------------------------------------------------------*/
FoamFile
{
    version     2.0;
    format      ascii;
    class       volScalarField;
    location    "1.19";
    object      rho;
}
// * * * * * * * * * * * * * * * * * * * * * * * * * * * * * * * * * * * * * //

dimensions      [1 -3 0 0 0 0 0];

internalField   nonuniform List<scalar> 
5625
(
1.114
1.02563
0.940242
0.863086
0.798125
0.748001
0.714311
0.69792
0.699064
0.717475
0.752568
0.803633
0.869589
0.948301
1.03582
1.12621
1.21242
1.28775
1.3475
1.38994
1.41615
1.42918
1.43291
1.43096
1.42624
1.4207
1.41547
1.41108
1.40767
1.40517
1.40341
1.40222
1.40144
1.40093
1.40061
1.40041
1.40027
1.40019
1.40013
1.40009
1.40006
1.40004
1.40003
1.40002
1.40002
1.40001
1.40001
1.40001
1.40001
1.40001
1.40001
1.40001
1.40001
1.40001
1.40001
1.40001
1.40001
1.40001
1.40001
1.40001
1.40001
1.40001
1.40001
1.40001
1.40001
1.40001
1.40001
1.40001
1.40001
1.40001
1.40001
1.40001
1.40001
1.40001
1.40001
1.15276
1.07105
0.991199
0.918284
0.856346
0.808257
0.77591
0.760336
0.76186
0.780136
0.814405
0.863714
0.926677
1.00089
1.08233
1.16531
1.24334
1.31051
1.3629
1.3993
1.42105
1.43111
1.43309
1.43029
1.42528
1.41975
1.41468
1.41049
1.40727
1.40491
1.40326
1.40215
1.40141
1.40093
1.40062
1.40042
1.40029
1.4002
1.40014
1.4001
1.40007
1.40005
1.40003
1.40002
1.40002
1.40001
1.40001
1.40001
1.40001
1.40001
1.40001
1.40001
1.40001
1.40001
1.40001
1.4
1.4
1.40001
1.40001
1.40001
1.40001
1.40001
1.40001
1.40001
1.40001
1.40001
1.40001
1.40001
1.40001
1.40001
1.40001
1.40001
1.40001
1.40001
1.40001
1.19383
1.11972
1.04639
0.978693
0.920677
0.875376
0.844886
0.830398
0.832267
0.85008
0.882958
0.929753
0.988817
1.05754
1.13187
1.20645
1.27544
1.33377
1.37832
1.40841
1.42556
1.43264
1.43291
1.42932
1.42408
1.41864
1.41378
1.40982
1.4068
1.40461
1.40308
1.40205
1.40136
1.40091
1.40062
1.40042
1.40029
1.40021
1.40015
1.4001
1.40007
1.40005
1.40004
1.40003
1.40002
1.40001
1.40001
1.40001
1.40001
1.40001
1.40001
1.40001
1.40001
1.40001
1.40001
1.40001
1.40001
1.40001
1.40001
1.40001
1.40001
1.40001
1.40001
1.40001
1.40001
1.40001
1.40001
1.40001
1.40001
1.40001
1.40001
1.40001
1.40001
1.40001
1.40001
1.2357
1.17003
1.10413
1.0426
0.989384
0.947618
0.919497
0.906307
0.908411
0.925364
0.956217
0.999683
1.05392
1.11618
1.18248
1.24788
1.30724
1.35637
1.39291
1.41669
1.42934
1.43357
1.43229
1.42803
1.42266
1.41737
1.41277
1.40908
1.40629
1.40428
1.40288
1.40193
1.4013
1.40088
1.40061
1.40042
1.4003
1.40021
1.40015
1.40011
1.40008
1.40005
1.40004
1.40003
1.40002
1.40001
1.40001
1.40001
1.40001
1.40001
1.40001
1.40001
1.40001
1.40001
1.40001
1.40001
1.4
1.40001
1.40001
1.40001
1.40001
1.40001
1.40001
1.40001
1.40001
1.40001
1.40001
1.40001
1.40001
1.40001
1.40001
1.40001
1.40001
1.40001
1.40001
1.27675
1.22013
1.16244
1.1079
1.06029
1.02272
0.997395
0.985638
0.98781
1.00348
1.03168
1.07104
1.11959
1.17455
1.23212
1.28783
1.33732
1.37723
1.40593
1.42366
1.43213
1.43379
1.43118
1.42642
1.42104
1.41598
1.41168
1.40829
1.40575
1.40393
1.40266
1.4018
1.40123
1.40084
1.40059
1.40042
1.4003
1.40021
1.40015
1.40011
1.40008
1.40006
1.40004
1.40003
1.40002
1.40001
1.40001
1.40001
1.40001
1.40001
1.40001
1.40001
1.40001
1.40001
1.40001
1.40001
1.40001
1.40001
1.40001
1.40001
1.40001
1.40001
1.40001
1.40001
1.40001
1.40001
1.40001
1.40001
1.40001
1.40001
1.40001
1.40001
1.40001
1.40001
1.40001
1.31535
1.26809
1.21912
1.17218
1.13079
1.09791
1.0757
1.06544
1.0675
1.0815
1.1065
1.14109
1.1833
1.23037
1.27879
1.32466
1.36438
1.39542
1.41678
1.429
1.43376
1.43325
1.42959
1.42453
1.41926
1.4145
1.41054
1.40747
1.40519
1.40356
1.40243
1.40166
1.40114
1.4008
1.40056
1.4004
1.40029
1.40021
1.40015
1.40011
1.40008
1.40006
1.40004
1.40003
1.40002
1.40001
1.40001
1.40001
1.40001
1.40001
1.40001
1.40001
1.40001
1.40001
1.40001
1.4
1.4
1.40001
1.40001
1.40001
1.40001
1.40001
1.40001
1.40001
1.40001
1.40001
1.40001
1.40001
1.40001
1.40001
1.40001
1.40001
1.40001
1.40001
1.40001
1.34995
1.31203
1.27192
1.23288
1.19807
1.17018
1.15126
1.1425
1.14429
1.15632
1.17772
1.20711
1.24256
1.28147
1.32071
1.35698
1.38744
1.4103
1.42508
1.43251
1.43418
1.43195
1.42757
1.42241
1.41737
1.41296
1.40939
1.40664
1.40462
1.40318
1.40219
1.40151
1.40106
1.40075
1.40053
1.40039
1.40028
1.4002
1.40015
1.40011
1.40008
1.40006
1.40004
1.40003
1.40002
1.40002
1.40001
1.40001
1.40001
1.40001
1.40001
1.40001
1.40001
1.40001
1.40001
1.40001
1.40001
1.40001
1.40001
1.40001
1.40001
1.40001
1.40001
1.40001
1.40001
1.40001
1.40001
1.40001
1.40001
1.40001
1.40001
1.40001
1.40001
1.40001
1.40001
1.37935
1.35031
1.31883
1.28764
1.25943
1.2366
1.22097
1.21368
1.21511
1.22502
1.24262
1.26663
1.29523
1.32608
1.3565
1.3838
1.40587
1.42153
1.43069
1.43419
1.43344
1.42999
1.4252
1.42012
1.41542
1.41142
1.40824
1.40582
1.40406
1.40282
1.40195
1.40137
1.40096
1.40069
1.4005
1.40036
1.40027
1.4002
1.40014
1.4001
1.40008
1.40005
1.40004
1.40003
1.40002
1.40001
1.40001
1.40001
1.40001
1.40001
1.40001
1.40001
1.40001
1.40001
1.40001
1.4
1.4
1.40001
1.40001
1.40001
1.40001
1.40001
1.40001
1.40001
1.40001
1.40001
1.40001
1.40001
1.40001
1.40001
1.40001
1.40001
1.40001
1.40001
1.40001
1.40276
1.38179
1.35833
1.33453
1.31264
1.29469
1.28225
1.27635
1.27738
1.28515
1.29898
1.31771
1.33971
1.36298
1.38531
1.40463
1.41945
1.42909
1.43373
1.43419
1.4317
1.42748
1.42258
1.41776
1.41346
1.40991
1.40712
1.40504
1.40352
1.40246
1.40172
1.40122
1.40087
1.40063
1.40046
1.40034
1.40025
1.40019
1.40014
1.4001
1.40007
1.40005
1.40004
1.40003
1.40002
1.40001
1.40001
1.40001
1.40001
1.40001
1.40001
1.40001
1.40001
1.40001
1.40001
1.40001
1.40001
1.40001
1.40001
1.40001
1.40001
1.40001
1.40001
1.40001
1.40001
1.40001
1.40001
1.40001
1.40001
1.40001
1.40001
1.40001
1.40001
1.40001
1.40001
1.41994
1.40593
1.38953
1.37237
1.35623
1.34276
1.33328
1.32868
1.32931
1.33505
1.34533
1.35916
1.37514
1.39163
1.40691
1.41948
1.42837
1.43325
1.43445
1.43277
1.42917
1.4246
1.41983
1.41538
1.41156
1.40846
1.40607
1.4043
1.40302
1.40212
1.4015
1.40108
1.40078
1.40057
1.40042
1.40032
1.40023
1.40017
1.40013
1.40009
1.40007
1.40005
1.40004
1.40003
1.40002
1.40001
1.40001
1.40001
1.40001
1.40001
1.40001
1.40001
1.40001
1.40001
1.40001
1.4
1.4
1.40001
1.40001
1.40001
1.40001
1.40001
1.40001
1.40001
1.40001
1.40001
1.40001
1.40001
1.40001
1.40001
1.40001
1.40001
1.40001
1.40001
1.40001
1.43116
1.42281
1.4123
1.4008
1.38964
1.38009
1.37323
1.36978
1.37006
1.374
1.38113
1.39063
1.4014
1.41216
1.42165
1.42882
1.43313
1.4345
1.43331
1.43026
1.42609
1.42151
1.41706
1.41309
1.40976
1.40711
1.4051
1.40361
1.40256
1.40181
1.4013
1.40094
1.40069
1.40051
1.40039
1.40029
1.40022
1.40016
1.40012
1.40009
1.40006
1.40005
1.40003
1.40002
1.40002
1.40001
1.40001
1.40001
1.40001
1.40001
1.40001
1.40001
1.40001
1.40001
1.40001
1.40001
1.40001
1.40001
1.40001
1.40001
1.40001
1.40001
1.40001
1.40001
1.40001
1.40001
1.40001
1.40001
1.40001
1.40001
1.40001
1.40001
1.40001
1.40001
1.40001
1.43714
1.43311
1.42724
1.42029
1.4132
1.40691
1.40224
1.39977
1.39976
1.40219
1.40667
1.4126
1.41913
1.42534
1.43033
1.43347
1.43449
1.43347
1.4308
1.42702
1.42272
1.41839
1.41438
1.41092
1.40809
1.40588
1.40421
1.403
1.40213
1.40153
1.40111
1.40081
1.40061
1.40046
1.40035
1.40026
1.4002
1.40015
1.40011
1.40008
1.40006
1.40004
1.40003
1.40002
1.40002
1.40001
1.40001
1.40001
1.40001
1.40001
1.40001
1.40001
1.40001
1.40001
1.4
1.4
1.40001
1.40001
1.40001
1.40001
1.40001
1.40001
1.40001
1.40001
1.40001
1.40001
1.40001
1.40001
1.40001
1.40001
1.40001
1.40001
1.40001
1.40001
1.40001
1.4389
1.43794
1.43546
1.43193
1.42797
1.42423
1.42132
1.41964
1.41942
1.42065
1.42307
1.42622
1.42951
1.43232
1.43407
1.43443
1.43329
1.43083
1.4274
1.42341
1.41929
1.41537
1.41188
1.40895
1.40659
1.40478
1.40343
1.40245
1.40176
1.40127
1.40094
1.4007
1.40053
1.4004
1.40031
1.40023
1.40018
1.40013
1.4001
1.40007
1.40005
1.40004
1.40003
1.40002
1.40002
1.40001
1.40001
1.40001
1.40001
1.40001
1.40001
1.40001
1.40001
1.40001
1.40001
1.40001
1.40001
1.40001
1.40001
1.40001
1.40001
1.40001
1.40001
1.40001
1.40001
1.40001
1.40001
1.40001
1.40001
1.40001
1.40001
1.40001
1.40001
1.40001
1.40001
1.43755
1.43856
1.43838
1.43725
1.43554
1.43368
1.43206
1.43099
1.43064
1.43099
1.4319
1.43306
1.43406
1.43453
1.43415
1.43276
1.43039
1.42722
1.42356
1.41971
1.41596
1.41255
1.40961
1.40718
1.40527
1.40382
1.40274
1.40197
1.40143
1.40105
1.40078
1.40059
1.40045
1.40035
1.40027
1.40021
1.40016
1.40012
1.40009
1.40007
1.40005
1.40004
1.40003
1.40002
1.40001
1.40001
1.40001
1.40001
1.40001
1.40001
1.40001
1.40001
1.40001
1.40001
1.40001
1.40001
1.40001
1.40001
1.40001
1.40001
1.40001
1.40001
1.40001
1.40001
1.40001
1.40001
1.40001
1.40001
1.40001
1.40001
1.40001
1.40001
1.40001
1.40001
1.40001
1.43421
1.43631
1.43751
1.43791
1.43768
1.43709
1.43637
1.43575
1.43531
1.4351
1.435
1.43483
1.43437
1.43339
1.43175
1.42943
1.42651
1.42316
1.41963
1.41614
1.4129
1.41003
1.40761
1.40565
1.40413
1.40299
1.40216
1.40157
1.40115
1.40086
1.40065
1.4005
1.40039
1.4003
1.40024
1.40018
1.40014
1.40011
1.40008
1.40006
1.40004
1.40003
1.40002
1.40002
1.40001
1.40001
1.40001
1.40001
1.40001
1.40001
1.40001
1.40001
1.40001
1.40001
1.40001
1.40001
1.40001
1.40001
1.40001
1.40001
1.40001
1.40001
1.40001
1.40001
1.40001
1.40001
1.40001
1.40001
1.40001
1.40001
1.40001
1.40001
1.40001
1.40001
1.40001
1.42978
1.43234
1.43425
1.43548
1.43614
1.43632
1.43618
1.43584
1.43539
1.43484
1.43414
1.4332
1.43191
1.43016
1.42793
1.42526
1.42225
1.41907
1.41589
1.41288
1.41017
1.40782
1.40589
1.40436
1.40318
1.4023
1.40167
1.40122
1.40091
1.40069
1.40053
1.40042
1.40033
1.40026
1.4002
1.40016
1.40012
1.40009
1.40007
1.40005
1.40004
1.40003
1.40002
1.40002
1.40001
1.40001
1.40001
1.40001
1.40001
1.40001
1.40001
1.40001
1.40001
1.40001
1.40001
1.40001
1.40001
1.40001
1.40001
1.40001
1.40001
1.40001
1.40001
1.40001
1.40001
1.40001
1.40001
1.40001
1.40001
1.40001
1.40001
1.40001
1.40001
1.40001
1.40001
1.42501
1.4276
1.42973
1.43132
1.43239
1.43299
1.43317
1.43302
1.43257
1.43186
1.43087
1.42956
1.42789
1.42586
1.42349
1.42085
1.41805
1.41523
1.41251
1.41001
1.40782
1.40596
1.40446
1.40328
1.40239
1.40174
1.40127
1.40094
1.40071
1.40055
1.40043
1.40034
1.40027
1.40022
1.40017
1.40014
1.40011
1.40008
1.40006
1.40005
1.40003
1.40003
1.40002
1.40001
1.40001
1.40001
1.40001
1.40001
1.40001
1.40001
1.40001
1.40001
1.40001
1.40001
1.40001
1.40001
1.40001
1.40001
1.40001
1.40001
1.40001
1.40001
1.40001
1.40001
1.40001
1.40001
1.40001
1.40001
1.40001
1.40001
1.40001
1.40001
1.40001
1.40001
1.40001
1.42037
1.42276
1.4248
1.42643
1.42762
1.42837
1.42871
1.42865
1.42823
1.42749
1.4264
1.42499
1.42327
1.42126
1.41902
1.41663
1.41419
1.41181
1.40958
1.40758
1.40585
1.40442
1.40329
1.40241
1.40175
1.40128
1.40095
1.40071
1.40055
1.40043
1.40034
1.40028
1.40023
1.40018
1.40015
1.40012
1.40009
1.40007
1.40005
1.40004
1.40003
1.40002
1.40002
1.40001
1.40001
1.40001
1.40001
1.40001
1.40001
1.40001
1.40001
1.40001
1.40001
1.40001
1.40001
1.40001
1.40001
1.40001
1.40001
1.40001
1.40001
1.40001
1.40001
1.40001
1.40001
1.40001
1.40001
1.40001
1.40001
1.40001
1.40001
1.40001
1.40001
1.40001
1.40001
1.41619
1.41822
1.42002
1.42152
1.42264
1.4234
1.42376
1.42374
1.42336
1.42264
1.42161
1.42027
1.41867
1.41685
1.41488
1.41284
1.41082
1.4089
1.40713
1.40558
1.40427
1.4032
1.40236
1.40172
1.40125
1.40092
1.40069
1.40053
1.40041
1.40033
1.40027
1.40022
1.40018
1.40015
1.40012
1.4001
1.40008
1.40006
1.40005
1.40003
1.40003
1.40002
1.40002
1.40001
1.40001
1.40001
1.40001
1.40001
1.40001
1.40001
1.40001
1.40001
1.40001
1.40001
1.40001
1.40001
1.40001
1.40001
1.40001
1.40001
1.40001
1.40001
1.40001
1.40001
1.40001
1.40001
1.40001
1.40001
1.40001
1.40001
1.40001
1.40001
1.40001
1.40001
1.40001
1.41257
1.41424
1.41573
1.41699
1.41798
1.41864
1.41896
1.41895
1.41861
1.41797
1.41704
1.41586
1.41447
1.41292
1.41128
1.40962
1.40801
1.4065
1.40515
1.40398
1.40301
1.40223
1.40163
1.40119
1.40087
1.40064
1.40049
1.40038
1.40031
1.40025
1.40021
1.40018
1.40015
1.40012
1.4001
1.40008
1.40006
1.40005
1.40004
1.40003
1.40002
1.40002
1.40001
1.40001
1.40001
1.40001
1.40001
1.40001
1.40001
1.40001
1.40001
1.40001
1.40001
1.40001
1.40001
1.40001
1.40001
1.40001
1.40001
1.40001
1.40001
1.40001
1.40001
1.40001
1.40001
1.40001
1.40001
1.40001
1.40001
1.40001
1.40001
1.40001
1.40001
1.40001
1.40001
1.40959
1.41089
1.41208
1.41309
1.41388
1.41441
1.41467
1.41465
1.41435
1.41379
1.413
1.41201
1.41086
1.4096
1.40829
1.40699
1.40574
1.4046
1.4036
1.40274
1.40205
1.4015
1.40109
1.40079
1.40057
1.40043
1.40033
1.40027
1.40022
1.40019
1.40016
1.40014
1.40012
1.4001
1.40008
1.40007
1.40005
1.40004
1.40003
1.40003
1.40002
1.40002
1.40001
1.40001
1.40001
1.40001
1.40001
1.40001
1.40001
1.40001
1.40001
1.40001
1.40001
1.40001
1.40001
1.40001
1.40001
1.40001
1.40001
1.40001
1.40001
1.40001
1.40001
1.40001
1.40001
1.40001
1.40001
1.40001
1.40001
1.40001
1.40001
1.40001
1.40001
1.40001
1.40001
1.40719
1.40818
1.40908
1.40986
1.41047
1.41087
1.41106
1.41101
1.41075
1.41028
1.40963
1.40882
1.4079
1.40691
1.4059
1.40491
1.40398
1.40314
1.40242
1.40181
1.40133
1.40095
1.40068
1.40049
1.40036
1.40027
1.40022
1.40018
1.40016
1.40014
1.40013
1.40011
1.4001
1.40008
1.40007
1.40006
1.40004
1.40004
1.40003
1.40002
1.40002
1.40001
1.40001
1.40001
1.40001
1.40001
1.40001
1.40001
1.40001
1.40001
1.40001
1.40001
1.40001
1.40001
1.40001
1.40001
1.40001
1.40001
1.40001
1.40001
1.40001
1.40001
1.40001
1.40001
1.40001
1.40001
1.40001
1.40001
1.40001
1.40001
1.40001
1.40001
1.40001
1.40001
1.40001
1.40532
1.40605
1.40672
1.40729
1.40773
1.40801
1.40813
1.40808
1.40784
1.40745
1.40693
1.4063
1.40558
1.40482
1.40406
1.40333
1.40265
1.40205
1.40154
1.40113
1.4008
1.40056
1.40039
1.40028
1.40021
1.40016
1.40014
1.40012
1.40011
1.4001
1.40009
1.40009
1.40008
1.40007
1.40005
1.40005
1.40004
1.40003
1.40002
1.40002
1.40001
1.40001
1.40001
1.40001
1.40001
1.40001
1.40001
1.40001
1.40001
1.40001
1.40001
1.40001
1.4
1.4
1.40001
1.40001
1.40001
1.40001
1.40001
1.40001
1.40001
1.40001
1.40001
1.40001
1.40001
1.40001
1.40001
1.40001
1.40001
1.40001
1.40001
1.40001
1.40001
1.40001
1.40001
1.40389
1.40442
1.4049
1.40529
1.4056
1.40579
1.40585
1.40578
1.40558
1.40526
1.40485
1.40436
1.40382
1.40325
1.40269
1.40216
1.40168
1.40127
1.40092
1.40065
1.40044
1.40029
1.40019
1.40013
1.4001
1.40008
1.40008
1.40007
1.40008
1.40007
1.40007
1.40007
1.40006
1.40005
1.40004
1.40004
1.40003
1.40002
1.40002
1.40002
1.40001
1.40001
1.40001
1.40001
1.40001
1.40001
1.40001
1.40001
1.40001
1.40001
1.40001
1.40001
1.40001
1.40001
1.40001
1.40001
1.40001
1.40001
1.40001
1.40001
1.40001
1.40001
1.40001
1.40001
1.40001
1.40001
1.40001
1.40001
1.40001
1.40001
1.40001
1.40001
1.40001
1.40001
1.40001
1.40283
1.40319
1.40352
1.4038
1.40399
1.40411
1.40413
1.40405
1.40387
1.40362
1.4033
1.40292
1.40252
1.40211
1.4017
1.40133
1.401
1.40072
1.40049
1.40032
1.40019
1.40011
1.40006
1.40004
1.40003
1.40003
1.40003
1.40004
1.40005
1.40005
1.40005
1.40005
1.40004
1.40004
1.40004
1.40003
1.40003
1.40002
1.40002
1.40001
1.40001
1.40001
1.40001
1.40001
1.40001
1.40001
1.40001
1.40001
1.40001
1.40001
1.4
1.4
1.4
1.40001
1.40001
1.40001
1.40001
1.40001
1.40001
1.40001
1.40001
1.40001
1.40001
1.40001
1.40001
1.40001
1.40001
1.40001
1.40001
1.40001
1.40001
1.40001
1.40001
1.40001
1.40001
1.40205
1.4023
1.40251
1.40269
1.40282
1.40287
1.40286
1.40277
1.40263
1.40243
1.40217
1.40189
1.40159
1.4013
1.40101
1.40075
1.40053
1.40035
1.40021
1.4001
1.40003
1.39999
1.39998
1.39998
1.39998
1.39999
1.40001
1.40002
1.40003
1.40003
1.40004
1.40004
1.40003
1.40003
1.40003
1.40002
1.40002
1.40002
1.40001
1.40001
1.40001
1.40001
1.40001
1.40001
1.40001
1.40001
1.40001
1.40001
1.40001
1.40001
1.40001
1.40001
1.40001
1.40001
1.40001
1.40001
1.40001
1.40001
1.40001
1.40001
1.40001
1.40001
1.40001
1.40001
1.40001
1.40001
1.40001
1.40001
1.40001
1.40001
1.40001
1.40001
1.40001
1.40001
1.40001
1.40148
1.40164
1.40179
1.40189
1.40195
1.40198
1.40194
1.40187
1.40175
1.40158
1.40139
1.40118
1.40096
1.40075
1.40055
1.40037
1.40022
1.40011
1.40002
1.39997
1.39994
1.39993
1.39993
1.39994
1.39996
1.39997
1.39999
1.4
1.40001
1.40002
1.40003
1.40003
1.40003
1.40002
1.40002
1.40002
1.40002
1.40001
1.40001
1.40001
1.40001
1.40001
1.40001
1.40001
1.40001
1.40001
1.40001
1.40001
1.40001
1.40001
1.4
1.40001
1.40001
1.40001
1.40001
1.40001
1.40001
1.40001
1.40001
1.40001
1.40001
1.40001
1.40001
1.40001
1.40001
1.40001
1.40001
1.40001
1.40001
1.40001
1.40001
1.40001
1.40001
1.40001
1.40001
1.40107
1.40117
1.40126
1.40132
1.40135
1.40135
1.40131
1.40123
1.40113
1.401
1.40085
1.40069
1.40053
1.40038
1.40025
1.40013
1.40004
1.39997
1.39992
1.3999
1.39989
1.39989
1.39991
1.39992
1.39994
1.39996
1.39998
1.4
1.40001
1.40001
1.40002
1.40002
1.40002
1.40002
1.40002
1.40002
1.40001
1.40001
1.40001
1.40001
1.40001
1.40001
1.40001
1.40001
1.40001
1.4
1.4
1.40001
1.40001
1.40001
1.40001
1.40001
1.40001
1.40001
1.40001
1.40001
1.40001
1.40001
1.40001
1.40001
1.40001
1.40001
1.40001
1.40001
1.40001
1.40001
1.40001
1.40001
1.40001
1.40001
1.40001
1.40001
1.40001
1.40001
1.40001
1.40078
1.40084
1.40089
1.40092
1.40093
1.40091
1.40087
1.4008
1.40071
1.40061
1.40049
1.40038
1.40026
1.40016
1.40007
1.39999
1.39993
1.39989
1.39987
1.39986
1.39987
1.39988
1.3999
1.39992
1.39994
1.39996
1.39998
1.39999
1.4
1.40001
1.40001
1.40001
1.40002
1.40001
1.40001
1.40001
1.40001
1.40001
1.40001
1.40001
1.40001
1.40001
1.40001
1.40001
1.40001
1.40001
1.40001
1.40001
1.40001
1.40001
1.40001
1.40001
1.40001
1.40001
1.40001
1.40001
1.40001
1.40001
1.40001
1.40001
1.40001
1.40001
1.40001
1.40001
1.40001
1.40001
1.40001
1.40001
1.40001
1.40001
1.40001
1.40001
1.40001
1.40001
1.40001
1.40057
1.40061
1.40064
1.40065
1.40064
1.40061
1.40057
1.40051
1.40044
1.40036
1.40027
1.40018
1.4001
1.40002
1.39996
1.39991
1.39988
1.39986
1.39985
1.39985
1.39986
1.39988
1.3999
1.39992
1.39994
1.39996
1.39998
1.39999
1.4
1.4
1.40001
1.40001
1.40001
1.40001
1.40001
1.40001
1.40001
1.40001
1.40001
1.40001
1.40001
1.40001
1.40001
1.40001
1.40001
1.40001
1.40001
1.40001
1.40001
1.40001
1.40001
1.40001
1.40001
1.40001
1.40001
1.40001
1.40001
1.40001
1.40001
1.40001
1.40001
1.40001
1.40001
1.40001
1.40001
1.40001
1.40001
1.40001
1.40001
1.40001
1.40001
1.40001
1.40001
1.40001
1.40001
1.40042
1.40044
1.40046
1.40046
1.40044
1.40042
1.40038
1.40032
1.40026
1.4002
1.40013
1.40006
1.4
1.39995
1.39991
1.39988
1.39986
1.39985
1.39985
1.39986
1.39987
1.39989
1.39991
1.39993
1.39995
1.39996
1.39998
1.39999
1.4
1.4
1.40001
1.40001
1.40001
1.40001
1.40001
1.40001
1.40001
1.40001
1.40001
1.40001
1.40001
1.40001
1.40001
1.40001
1.40001
1.40001
1.40001
1.40001
1.40001
1.40001
1.40001
1.40001
1.40001
1.40001
1.40001
1.40001
1.40001
1.40001
1.40001
1.40001
1.40001
1.40001
1.40001
1.40001
1.40001
1.40001
1.40001
1.40001
1.40001
1.40001
1.40001
1.40001
1.40001
1.40001
1.40001
1.40031
1.40033
1.40033
1.40032
1.40031
1.40028
1.40024
1.4002
1.40015
1.4001
1.40005
1.4
1.39995
1.39992
1.39989
1.39987
1.39986
1.39986
1.39986
1.39987
1.39988
1.3999
1.39992
1.39994
1.39995
1.39997
1.39998
1.39999
1.4
1.4
1.4
1.40001
1.40001
1.40001
1.40001
1.40001
1.40001
1.40001
1.40001
1.40001
1.40001
1.40001
1.40001
1.40001
1.40001
1.40001
1.40001
1.40001
1.40001
1.40001
1.40001
1.40001
1.40001
1.40001
1.40001
1.40001
1.40001
1.40001
1.40001
1.40001
1.40001
1.40001
1.40001
1.40001
1.40001
1.40001
1.40001
1.40001
1.40001
1.40001
1.40001
1.40001
1.40001
1.40001
1.40001
1.40023
1.40024
1.40024
1.40023
1.40022
1.40019
1.40016
1.40013
1.40009
1.40005
1.40001
1.39997
1.39994
1.39991
1.39989
1.39987
1.39987
1.39987
1.39988
1.39989
1.3999
1.39992
1.39993
1.39995
1.39996
1.39997
1.39998
1.39999
1.4
1.4
1.4
1.4
1.40001
1.40001
1.40001
1.40001
1.40001
1.40001
1.40001
1.40001
1.40001
1.40001
1.40001
1.40001
1.40001
1.40001
1.40001
1.40001
1.40001
1.40001
1.40001
1.40001
1.40001
1.40001
1.40001
1.40001
1.40001
1.40001
1.40001
1.40001
1.40001
1.40001
1.40001
1.40001
1.40001
1.40001
1.40001
1.40001
1.40001
1.40001
1.40001
1.40001
1.40001
1.40001
1.40001
1.40018
1.40018
1.40018
1.40017
1.40015
1.40013
1.40011
1.40008
1.40005
1.40002
1.39998
1.39996
1.39993
1.39991
1.3999
1.39989
1.39989
1.39989
1.3999
1.39991
1.39992
1.39993
1.39994
1.39996
1.39997
1.39998
1.39998
1.39999
1.4
1.4
1.4
1.4
1.40001
1.40001
1.40001
1.40001
1.40001
1.40001
1.40001
1.40001
1.40001
1.40001
1.40001
1.40001
1.40001
1.40001
1.40001
1.40001
1.40001
1.4
1.4
1.40001
1.40001
1.40001
1.40001
1.40001
1.40001
1.40001
1.40001
1.40001
1.40001
1.40001
1.40001
1.40001
1.40001
1.40001
1.40001
1.40001
1.40001
1.40001
1.40001
1.40001
1.40001
1.40001
1.40001
1.40014
1.40014
1.40013
1.40013
1.40011
1.40009
1.40007
1.40005
1.40002
1.4
1.39998
1.39995
1.39994
1.39992
1.39991
1.39991
1.39991
1.39991
1.39992
1.39992
1.39993
1.39994
1.39996
1.39996
1.39997
1.39998
1.39999
1.39999
1.4
1.4
1.4
1.4
1.40001
1.40001
1.40001
1.40001
1.40001
1.40001
1.40001
1.40001
1.40001
1.40001
1.40001
1.40001
1.40001
1.40001
1.40001
1.40001
1.40001
1.40001
1.40001
1.40001
1.40001
1.40001
1.40001
1.40001
1.40001
1.40001
1.40001
1.40001
1.40001
1.40001
1.40001
1.40001
1.40001
1.40001
1.40001
1.40001
1.40001
1.40001
1.40001
1.40001
1.40001
1.40001
1.40001
1.40011
1.4001
1.4001
1.40009
1.40008
1.40007
1.40005
1.40003
1.40001
1.39999
1.39997
1.39996
1.39995
1.39993
1.39993
1.39993
1.39992
1.39993
1.39993
1.39994
1.39995
1.39996
1.39997
1.39997
1.39998
1.39999
1.39999
1.4
1.4
1.4
1.4
1.4
1.4
1.4
1.40001
1.4
1.4
1.40001
1.40001
1.40001
1.40001
1.40001
1.40001
1.40001
1.40001
1.40001
1.4
1.4
1.4
1.4
1.4
1.40001
1.40001
1.40001
1.40001
1.40001
1.40001
1.40001
1.40001
1.40001
1.40001
1.40001
1.40001
1.40001
1.40001
1.40001
1.40001
1.40001
1.40001
1.40001
1.40001
1.40001
1.40001
1.40001
1.40001
1.40008
1.40008
1.40008
1.40007
1.40006
1.40005
1.40004
1.40002
1.40001
1.39999
1.39998
1.39997
1.39996
1.39995
1.39994
1.39994
1.39994
1.39994
1.39995
1.39995
1.39996
1.39997
1.39997
1.39998
1.39999
1.39999
1.39999
1.4
1.4
1.4
1.4
1.4
1.4
1.40001
1.40001
1.40001
1.40001
1.40001
1.40001
1.40001
1.40001
1.40001
1.40001
1.40001
1.40001
1.40001
1.40001
1.40001
1.40001
1.40001
1.40001
1.40001
1.40001
1.40001
1.40001
1.40001
1.40001
1.40001
1.40001
1.40001
1.40001
1.40001
1.40001
1.40001
1.40001
1.40001
1.40001
1.40001
1.40001
1.40001
1.40001
1.40001
1.40001
1.40001
1.40001
1.40006
1.40006
1.40006
1.40005
1.40005
1.40004
1.40003
1.40002
1.4
1.39999
1.39998
1.39997
1.39997
1.39996
1.39996
1.39996
1.39995
1.39996
1.39996
1.39996
1.39997
1.39998
1.39998
1.39998
1.39999
1.39999
1.4
1.4
1.4
1.4
1.4
1.4
1.4
1.40001
1.40001
1.40001
1.40001
1.40001
1.40001
1.40001
1.40001
1.40001
1.40001
1.40001
1.40001
1.4
1.4
1.4
1.4
1.4
1.4
1.40001
1.40001
1.40001
1.40001
1.40001
1.40001
1.40001
1.40001
1.40001
1.40001
1.40001
1.40001
1.40001
1.40001
1.40001
1.40001
1.40001
1.40001
1.40001
1.40001
1.40001
1.40001
1.40001
1.40001
1.40005
1.40005
1.40004
1.40004
1.40003
1.40003
1.40002
1.40001
1.4
1.39999
1.39999
1.39998
1.39997
1.39997
1.39997
1.39997
1.39997
1.39997
1.39997
1.39997
1.39998
1.39998
1.39999
1.39999
1.39999
1.4
1.4
1.4
1.4
1.4
1.4
1.4
1.4
1.4
1.4
1.4
1.40001
1.40001
1.40001
1.40001
1.40001
1.4
1.4
1.4
1.40001
1.40001
1.40001
1.40001
1.40001
1.40001
1.40001
1.40001
1.40001
1.40001
1.40001
1.40001
1.40001
1.40001
1.40001
1.40001
1.40001
1.40001
1.40001
1.40001
1.40001
1.40001
1.40001
1.40001
1.40001
1.40001
1.40001
1.40001
1.40001
1.40001
1.40001
1.40004
1.40004
1.40003
1.40003
1.40003
1.40002
1.40002
1.40001
1.4
1.4
1.39999
1.39999
1.39998
1.39998
1.39998
1.39998
1.39998
1.39998
1.39998
1.39998
1.39998
1.39999
1.39999
1.39999
1.4
1.4
1.4
1.4
1.4
1.4
1.4
1.4
1.4
1.4
1.40001
1.40001
1.4
1.4
1.4
1.4
1.40001
1.40001
1.40001
1.40001
1.4
1.4
1.4
1.4
1.4
1.40001
1.40001
1.40001
1.40001
1.40001
1.40001
1.40001
1.40001
1.40001
1.40001
1.40001
1.40001
1.40001
1.40001
1.40001
1.40001
1.40001
1.40001
1.40001
1.40001
1.40001
1.40001
1.40001
1.40001
1.40001
1.40001
1.40003
1.40003
1.40003
1.40002
1.40002
1.40002
1.40001
1.40001
1.4
1.4
1.39999
1.39999
1.39999
1.39998
1.39998
1.39998
1.39998
1.39998
1.39999
1.39999
1.39999
1.39999
1.39999
1.4
1.4
1.4
1.4
1.4
1.4
1.4
1.4
1.4
1.4
1.40001
1.40001
1.4
1.4
1.4
1.40001
1.40001
1.40001
1.40001
1.40001
1.40001
1.40001
1.40001
1.40001
1.40001
1.40001
1.40001
1.40001
1.40001
1.40001
1.40001
1.40001
1.40001
1.40001
1.40001
1.40001
1.40001
1.40001
1.40001
1.40001
1.40001
1.40001
1.40001
1.40001
1.40001
1.40001
1.40001
1.40001
1.40001
1.40001
1.40001
1.40001
1.40002
1.40002
1.40002
1.40002
1.40002
1.40001
1.40001
1.40001
1.4
1.4
1.4
1.39999
1.39999
1.39999
1.39999
1.39999
1.39999
1.39999
1.39999
1.39999
1.39999
1.4
1.4
1.4
1.4
1.4
1.4
1.4
1.4
1.4
1.4
1.4
1.4
1.40001
1.40001
1.40001
1.40001
1.40001
1.40001
1.40001
1.40001
1.40001
1.40001
1.4
1.4
1.4
1.4
1.4
1.40001
1.40001
1.40001
1.40001
1.40001
1.40001
1.40001
1.40001
1.40001
1.40001
1.40001
1.40001
1.40001
1.40001
1.40001
1.40001
1.40001
1.40001
1.40001
1.40001
1.40001
1.40001
1.40001
1.40001
1.40001
1.40001
1.40001
1.40002
1.40002
1.40002
1.40002
1.40001
1.40001
1.40001
1.40001
1.4
1.4
1.4
1.4
1.4
1.39999
1.39999
1.39999
1.39999
1.39999
1.39999
1.4
1.4
1.4
1.4
1.4
1.4
1.4
1.4
1.4
1.4
1.4
1.4
1.4
1.4
1.4
1.40001
1.40001
1.40001
1.40001
1.40001
1.40001
1.40001
1.40001
1.40001
1.40001
1.40001
1.40001
1.40001
1.40001
1.40001
1.40001
1.40001
1.40001
1.40001
1.40001
1.40001
1.40001
1.40001
1.40001
1.40001
1.40001
1.40001
1.40001
1.40001
1.40001
1.40001
1.40001
1.40001
1.40001
1.40001
1.40001
1.40001
1.40001
1.40001
1.40001
1.40001
1.40001
1.40001
1.40001
1.40001
1.40001
1.40001
1.40001
1.40001
1.4
1.4
1.4
1.4
1.4
1.4
1.4
1.4
1.4
1.4
1.4
1.4
1.4
1.4
1.4
1.4
1.4
1.4
1.4
1.4
1.4
1.4
1.4
1.4
1.40001
1.40001
1.40001
1.40001
1.4
1.4
1.4
1.4
1.40001
1.40001
1.40001
1.40001
1.40001
1.40001
1.40001
1.40001
1.40001
1.40001
1.40001
1.40001
1.40001
1.40001
1.40001
1.40001
1.40001
1.40001
1.40001
1.40001
1.40001
1.40001
1.40001
1.40001
1.40001
1.40001
1.40001
1.40001
1.40001
1.40001
1.40001
1.40001
1.40001
1.40001
1.40001
1.40001
1.40001
1.40001
1.40001
1.40001
1.40001
1.40001
1.40001
1.4
1.4
1.4
1.4
1.4
1.4
1.4
1.4
1.4
1.4
1.4
1.4
1.4
1.4
1.4
1.4
1.4
1.4
1.4
1.4
1.4
1.4
1.4
1.4
1.40001
1.4
1.4
1.4
1.4
1.4
1.40001
1.40001
1.40001
1.40001
1.40001
1.40001
1.40001
1.40001
1.40001
1.40001
1.40001
1.40001
1.40001
1.40001
1.40001
1.40001
1.40001
1.40001
1.40001
1.40001
1.40001
1.40001
1.40001
1.40001
1.40001
1.40001
1.40001
1.40001
1.40001
1.40001
1.40001
1.40001
1.40001
1.40001
1.40001
1.40001
1.40001
1.40001
1.40001
1.40001
1.40001
1.40001
1.40001
1.40001
1.40001
1.4
1.4
1.4
1.4
1.4
1.4
1.4
1.4
1.4
1.4
1.4
1.4
1.4
1.4
1.4
1.4
1.4
1.4
1.4
1.4
1.4
1.4
1.4
1.40001
1.40001
1.40001
1.4
1.4
1.4
1.40001
1.40001
1.40001
1.40001
1.40001
1.40001
1.40001
1.40001
1.40001
1.40001
1.40001
1.40001
1.40001
1.40001
1.40001
1.40001
1.40001
1.40001
1.40001
1.40001
1.40001
1.40001
1.40001
1.40001
1.40001
1.40001
1.40001
1.40001
1.40001
1.40001
1.40001
1.40001
1.40001
1.40001
1.40001
1.40001
1.40001
1.40001
1.40001
1.40001
1.40001
1.40001
1.40001
1.40001
1.40001
1.4
1.4
1.4
1.4
1.4
1.4
1.4
1.4
1.4
1.4
1.4
1.4
1.4
1.4
1.4
1.4
1.4
1.4
1.4
1.4
1.4
1.4
1.4
1.4
1.40001
1.4
1.4
1.4
1.4
1.4
1.4
1.4
1.40001
1.40001
1.40001
1.40001
1.40001
1.40001
1.40001
1.40001
1.40001
1.40001
1.40001
1.40001
1.40001
1.40001
1.40001
1.40001
1.40001
1.40001
1.40001
1.40001
1.40001
1.40001
1.40001
1.40001
1.40001
1.40001
1.40001
1.40001
1.40001
1.40001
1.40001
1.40001
1.40001
1.40001
1.40001
1.40001
1.40001
1.40001
1.40001
1.40001
1.40001
1.40001
1.40001
1.40001
1.40001
1.4
1.4
1.4
1.4
1.4
1.4
1.4
1.4
1.4
1.4
1.4
1.4
1.4
1.4
1.4
1.4
1.4
1.4
1.4
1.4
1.40001
1.40001
1.40001
1.4
1.4
1.4
1.40001
1.40001
1.40001
1.40001
1.40001
1.40001
1.40001
1.40001
1.40001
1.40001
1.40001
1.40001
1.40001
1.40001
1.40001
1.40001
1.40001
1.40001
1.40001
1.40001
1.40001
1.40001
1.40001
1.40001
1.40001
1.40001
1.40001
1.40001
1.40001
1.40001
1.40001
1.40001
1.40001
1.40001
1.40001
1.40001
1.40001
1.40001
1.40001
1.40001
1.40001
1.40001
1.40001
1.40001
1.40001
1.40001
1.40001
1.40001
1.4
1.4
1.4
1.4
1.4
1.4
1.4
1.4
1.4
1.4
1.4
1.4
1.4
1.4
1.4
1.4
1.4
1.4
1.4
1.4
1.40001
1.40001
1.4
1.4
1.4
1.4
1.4
1.40001
1.40001
1.40001
1.40001
1.40001
1.40001
1.40001
1.40001
1.40001
1.40001
1.40001
1.40001
1.40001
1.40001
1.40001
1.40001
1.40001
1.40001
1.40001
1.40001
1.40001
1.40001
1.40001
1.40001
1.40001
1.40001
1.40001
1.40001
1.40001
1.40001
1.40001
1.40001
1.40001
1.40001
1.40001
1.40001
1.40001
1.40001
1.40001
1.40001
1.40001
1.40001
1.40001
1.40001
1.40001
1.40001
1.4
1.40001
1.40001
1.4
1.4
1.4
1.4
1.4
1.4
1.4
1.4
1.4
1.4
1.4
1.4
1.4
1.4
1.4
1.4
1.4
1.40001
1.40001
1.40001
1.4
1.4
1.4
1.4
1.40001
1.40001
1.40001
1.40001
1.40001
1.40001
1.40001
1.40001
1.40001
1.40001
1.40001
1.40001
1.40001
1.40001
1.40001
1.40001
1.40001
1.40001
1.40001
1.40001
1.40001
1.40001
1.40001
1.40001
1.40001
1.40001
1.40001
1.40001
1.40001
1.40001
1.40001
1.40001
1.40001
1.40001
1.40001
1.40001
1.40001
1.40001
1.40001
1.40001
1.40001
1.40001
1.40001
1.40001
1.40001
1.40001
1.40001
1.40001
1.40001
1.4
1.4
1.4
1.4
1.4
1.4
1.40001
1.4
1.4
1.4
1.4
1.4
1.4
1.40001
1.4
1.4
1.4
1.4
1.40001
1.40001
1.4
1.4
1.4
1.4
1.40001
1.40001
1.40001
1.40001
1.40001
1.40001
1.40001
1.40001
1.40001
1.40001
1.40001
1.40001
1.40001
1.40001
1.40001
1.40001
1.40001
1.40001
1.40001
1.40001
1.40001
1.40001
1.40001
1.40001
1.40001
1.40001
1.40001
1.40001
1.40001
1.40001
1.40001
1.40001
1.40001
1.40001
1.40001
1.40001
1.40001
1.40001
1.40001
1.40001
1.40001
1.40001
1.40001
1.40001
1.40001
1.40001
1.40001
1.40001
1.4
1.40001
1.40001
1.4
1.40001
1.4
1.4
1.4
1.4
1.4
1.4
1.4
1.4
1.4
1.40001
1.4
1.4
1.4
1.4
1.40001
1.40001
1.40001
1.40001
1.4
1.4
1.4
1.4
1.4
1.40001
1.40001
1.40001
1.40001
1.40001
1.40001
1.40001
1.40001
1.40001
1.40001
1.40001
1.40001
1.40001
1.40001