/*--------------------------------*- C++ -*----------------------------------*\
  =========                 |
  \\      /  F ield         | OpenFOAM: The Open Source CFD Toolbox
   \\    /   O peration     | Website:  https://openfoam.org
    \\  /    A nd           | Version:  6
     \\/     M anipulation  |
\*---------------------------------------------------------------------------*/
FoamFile
{
    version     2.0;
    format      ascii;
    class       volScalarField;
    location    "1.94";
    object      p;
}
// * * * * * * * * * * * * * * * * * * * * * * * * * * * * * * * * * * * * * //

dimensions      [0 2 -2 0 0 0 0];

internalField   nonuniform List<scalar> 
4214
(
-2.20686
-2.12299
-1.77812
-1.30542
-0.984538
-0.794601
-0.664795
-0.576612
-0.513046
-0.45735
-0.396932
-0.322669
-0.229798
-0.12569
-0.0157579
0.132564
0.328305
0.60653
0.885034
1.17198
1.33949
1.22994
0.973722
0.614775
0.356813
0.112188
-0.00241321
-0.0963863
-0.177658
-0.260503
-0.335615
-0.398138
-0.458036
-0.532883
-0.63897
-0.779092
-0.975056
-1.29834
-1.77865
-2.15486
-2.2262
-1.54272
-1.77425
-1.92512
-1.64106
-1.43647
-1.35059
-1.28435
-1.21247
-1.13461
-1.04386
-0.927941
-0.780236
-0.601255
-0.38974
-0.110265
0.221134
0.644868
1.1521
1.65865
2.14098
2.31641
1.91043
1.56462
1.2164
0.955281
0.500536
0.182303
-0.09954
-0.337239
-0.527964
-0.693453
-0.834091
-0.952994
-1.06175
-1.16415
-1.25481
-1.36337
-1.58346
-1.88377
-1.75638
-1.47686
-2.68019
-2.91352
-3.01286
-2.71514
-2.46771
-2.33712
-2.22993
-2.10284
-1.95517
-1.78282
-1.57108
-1.31294
-1.00887
-0.626528
-0.150584
0.410386
1.11505
1.93936
2.78806
3.45848
3.72444
3.29759
2.80641
2.11745
1.56077
0.901124
0.320083
-0.137131
-0.555267
-0.89287
-1.17138
-1.41772
-1.63477
-1.82659
-1.99273
-2.13848
-2.30573
-2.57643
-2.87993
-2.81776
-2.59977
-3.65527
-3.64232
-3.88313
-3.64746
-3.38989
-3.22554
-3.08464
-2.91928
-2.72093
-2.48163
-2.18966
-1.84317
-1.41239
-0.875325
-0.21612
0.574927
1.512
2.61091
3.71695
4.54364
4.87696
4.443
3.84329
2.95612
2.12329
1.31146
0.487187
-0.157336
-0.733447
-1.21338
-1.6116
-1.94538
-2.24182
-2.50303
-2.72682
-2.92393
-3.14212
-3.43381
-3.67773
-3.52235
-3.57946
-4.8499
-4.70852
-4.85447
-4.64849
-4.38267
-4.17973
-3.9985
-3.79075
-3.53845
-3.2315
-2.86456
-2.41753
-1.85918
-1.16838
-0.324482
0.718196
1.8773
3.22225
4.56557
5.54403
5.9471
5.5513
4.86437
3.81478
2.71036
1.67957
0.650774
-0.187214
-0.924792
-1.55145
-2.07292
-2.51129
-2.88208
-3.21237
-3.49848
-3.75445
-4.02584
-4.33486
-4.55928
-4.53247
-4.7164
-5.89551
-5.72533
-5.81993
-5.64142
-5.38348
-5.15785
-4.94455
-4.70006
-4.4005
-4.03508
-3.60051
-3.0536
-2.37534
-1.53975
-0.520796
0.71975
2.17031
3.7297
5.2707
6.39396
6.87303
6.5418
5.80004
4.61776
3.2833
2.0033
0.836977
-0.236094
-1.14516
-1.91341
-2.55541
-3.09438
-3.54988
-3.93866
-4.28122
-4.58931
-4.89837
-5.21529
-5.44087
-5.48206
-5.70197
-6.97653
-6.81155
-6.86575
-6.69544
-6.44161
-6.20125
-5.96292
-5.68724
-5.34803
-4.93535
-4.42933
-3.79246
-3.00141
-2.02621
-0.836567
0.593057
2.30066
4.10366
5.81643
7.07029
7.63643
7.39783
6.63281
5.34144
3.81701
2.30993
0.963006
-0.344097
-1.41818
-2.32812
-3.08937
-3.72706
-4.26472
-4.71959
-5.1108
-5.4641
-5.80621
-6.14185
-6.39203
-6.4761
-6.70256
-8.08775
-7.92939
-7.97605
-7.81499
-7.56984
-7.32662
-7.07495
-6.77786
-6.40941
-5.95993
-5.39073
-4.67462
-3.78105
-2.67555
-1.32412
0.30073
2.1887
4.23572
6.14338
7.51731
8.18446
8.06642
7.31609
5.95464
4.29103
2.59345
0.946246
-0.532854
-1.77045
-2.81938
-3.69761
-4.43116
-5.04705
-5.56655
-6.00676
-6.39422
-6.76228
-7.11608
-7.38451
-7.48896
-7.71849
-9.2658
-9.12581
-9.18197
-9.03058
-8.80037
-8.56716
-8.31574
-8.00977
-7.62475
-7.14914
-6.53126
-5.74975
-4.76847
-3.54865
-2.05105
-0.249735
1.83301
4.05952
6.12133
7.65649
8.45211
8.4839
7.79384
6.40914
4.6383
2.70153
0.818217
-0.823327
-2.23173
-3.41819
-4.41084
-5.23656
-5.92672
-6.50462
-6.99258
-7.41035
-7.79547
-8.16334
-8.44553
-8.56643
-8.79616
-10.5016
-10.4027
-10.5053
-10.3682
-10.1631
-9.95632
-9.72284
-9.4252
-9.04137
-8.55199
-7.90676
-7.08032
-6.03417
-4.72454
-3.10636
-1.1545
1.09564
3.48779
5.71404
7.40046
8.35659
8.57219
7.99178
6.61893
4.71054
2.58936
0.545048
-1.27804
-2.84732
-4.16792
-5.27029
-6.18106
-6.9388
-7.56662
-8.09203
-8.5326
-8.93086
-9.30767
-9.59013
-9.71435
-9.93337
-11.8353
-11.7942
-11.98
-11.8677
-11.6988
-11.5339
-11.3384
-11.0707
-10.7112
-10.2331
-9.59096
-8.75125
-7.67535
-6.31145
-4.60937
-2.54333
-0.154799
2.38992
4.77847
6.64349
7.80229
8.24056
7.81686
6.4946
4.52614
2.27327
0.0473583
-1.96039
-3.68899
-5.13294
-6.33383
-7.31445
-8.12759
-8.79273
-9.34427
-9.7977
-10.2003
-10.5788
-10.8473
-10.9539
-11.1367
-13.3295
-13.3554
-13.6192
-13.564
-13.4499
-13.3415
-13.2045
-12.9926
-12.6886
-12.2574
-11.6646
-10.8593
-9.80786
-8.44336
-6.70808
-4.56867
-2.06927
0.623682
3.19302
5.27545
6.68542
7.38595
7.16454
5.9446
3.966
1.60515
-0.782784
-2.95614
-4.8304
-6.37533
-7.65817
-8.68605
-9.5386
-10.2254
-10.791
-11.245
-11.6388
-12.0022
-12.2572
-12.3295
-12.4643
-15.0173
-15.1131
-15.4161
-15.4889
-15.4575
-15.4253
-15.3715
-15.241
-15.0293
-14.6828
-14.1964
-13.4789
-12.531
-11.2394
-9.52952
-7.36825
-4.78681
-1.94621
0.832769
3.18395
4.89976
5.90245
5.91694
4.84756
2.90563
0.486447
-2.01328
-4.304
-6.2977
-7.91404
-9.27216
-10.3309
-11.2118
-11.9023
-12.4674
-12.9051
-13.273
-13.6052
-13.8394
-13.8714
-13.9805
-16.9798
-17.0672
-17.4057
-17.6119
-17.7311
-17.8223
-17.9075
-17.8826
-17.8131
-17.5908
-17.28
-16.6834
-15.9416
-14.7746
-13.1654
-11.0617
-8.43033
-5.43604
-2.4104
0.270601
2.3517
3.68523
3.9685
3.06731
1.2168
-1.18282
-3.72177
-6.04263
-8.14057
-9.79317
-11.2327
-12.305
-13.2031
-13.8662
-14.4043
-14.8025
-15.1285
-15.4146
-15.6141
-15.6042
-15.715
-19.153
-19.2891
-19.643
-19.9753
-20.2834
-20.5406
-20.8049
-20.9733
-21.1641
-21.1396
-21.1561
-20.7094
-20.3306
-19.2202
-17.9023
-15.8401
-13.1524
-9.91282
-6.57486
-3.50943
-1.01136
0.683532
1.23702
0.513097
-1.20762
-3.53557
-6.19465
-8.437
-10.732
-12.3116
-13.8041
-14.7739
-15.635
-16.2036
-16.6742
-17.0009
-17.2785
-17.4972
-17.6313
-17.5871
-17.6998
-21.3414
-21.7099
-22.1457
-22.5971
-23.0943
-23.592
-24.1081
-24.5776
-25.1584
-25.4567
-26.1341
-25.9242
-26.2805
-24.9921
-24.2658
-21.8064
-19.1393
-15.3613
-11.5973
-8.11016
-5.22191
-3.17432
-2.26637
-2.77839
-4.48825
-6.76288
-9.98486
-11.9657
-14.7425
-15.8945
-17.4041
-17.9519
-18.6751
-19.0309
-19.4209
-19.6123
-19.8312
-19.8917
-19.9254
-19.8514
-19.9197
-23.6692
-24.2681
-24.8994
-25.4747
-26.2131
-26.9579
-27.8407
-28.6376
-29.8043
-30.4213
-31.895
-31.9943
-33.4876
-31.8806
-31.7283
-28.8192
-26.2671
-21.873
-17.59
-13.5326
-9.80055
-7.68842
-6.48148
-6.92496
-8.96511
-11.1476
-14.9376
-16.5249
-19.6552
-20.1174
-21.683
-21.7146
-22.2953
-22.2961
-22.6138
-22.5988
-22.6663
-22.5523
-22.5174
-22.3276
-22.2512
-22.04
-20.1095
-18.2407
-16.4669
-14.8334
-13.3724
-12.1007
-10.9665
-9.88069
-8.85178
-7.85923
-6.93898
-6.00122
-5.17955
-4.26755
-3.85947
-3.43784
-21.8608
-20.2379
-18.645
-17.0685
-15.5822
-14.2164
-12.9906
-11.9166
-10.8919
-9.91818
-8.96616
-8.10307
-7.16745
-6.401
-5.41718
-5.00087
-4.11526
-21.541
-20.2063
-18.9027
-17.5554
-16.2351
-14.9964
-13.8369
-12.828
-11.876
-10.9612
-10.0616
-9.23744
-8.35995
-7.6704
-6.73781
-6.32732
-5.17284
-21.2745
-20.1497
-19.0933
-17.9514
-16.7974
-15.69
-14.6322
-13.6858
-12.8133
-11.971
-11.1384
-10.3569
-9.53957
-8.86278
-7.98127
-7.55595
-6.37111
-20.8721
-19.9909
-19.1441
-18.2382
-17.2655
-16.2954
-15.3561
-14.4768
-13.6844
-12.9237
-12.1685
-11.447
-10.7022
-10.0611
-9.24063
-8.81861
-7.68642
-20.5223
-19.7915
-19.1127
-18.4144
-17.6296
-16.8089
-15.993
-15.1959
-14.4765
-13.8008
-13.1337
-12.4831
-11.809
-11.2167
-10.4762
-10.0662
-9.03371
-20.0366
-19.4915
-18.9738
-18.4371
-17.8592
-17.21
-16.5274
-15.8398
-15.1828
-14.5853
-14.0094
-13.4402
-12.8596
-12.3259
-11.675
-11.28
-10.3717
-19.619
-19.1549
-18.7614
-18.3541
-17.9256
-17.462
-16.939
-16.3798
-15.8085
-15.2753
-14.781
-14.298
-13.815
-13.3457
-12.808
-12.4372
-11.6621
-19.0839
-18.7407
-18.448
-18.1635
-17.8508
-17.5251
-17.1773
-16.7737
-16.3304
-15.8711
-15.4421
-15.0376
-14.6468
-14.2562
-13.841
-13.5109
-12.9067
-18.6505
-18.3408
-18.1127
-17.8891
-17.663
-17.4303
-17.1913
-16.9446
-16.66
-16.3341
-15.9818
-15.6458
-15.3383
-15.0307
-14.7253
-14.4491
-14.0243
-18.0494
-17.8497
-17.7048
-17.5579
-17.3904
-17.2216
-17.0601
-16.8967
-16.7277
-16.5473
-16.3365
-16.103
-15.8528
-15.6214
-15.42
-15.2109
-14.9495
-17.5707
-17.3743
-17.2754
-17.1797
-17.0677
-16.9485
-16.8311
-16.7175
-16.6096
-16.5074
-16.4002
-16.2901
-16.1566
-16.0106
-15.8828
-15.733
-15.6116
-16.8948
-16.7962
-16.7551
-16.7166
-16.6604
-16.5975
-16.5336
-16.4694
-16.4046
-16.3434
-16.2827
-16.2301
-16.1773
-16.1334
-16.0833
-16.0101
-15.999
-16.3548
-16.2356
-16.2124
-16.197
-16.1734
-16.1506
-16.1299
-16.1107
-16.0926
-16.0788
-16.0648
-16.0589
-16.0493
-16.0527
-16.0502
-16.0461
-16.0867
-15.605
-15.5629
-15.5638
-15.5858
-15.5896
-15.5933
-15.601
-15.6106
-15.6207
-15.6396
-15.6541
-15.6919
-15.7075
-15.761
-15.7893
-15.8316
-15.9376
-15.0024
-14.915
-14.9038
-14.9099
-14.9141
-14.9253
-14.9446
-14.9684
-14.9953
-15.0309
-15.0625
-15.1191
-15.1497
-15.2378
-15.2777
-15.3565
-15.4875
-14.1824
-14.1585
-14.1524
-14.1574
-14.1571
-14.1593
-14.1705
-14.1909
-14.2207
-14.2589
-14.2934
-14.3503
-14.3813
-14.4771
-14.5015
-14.6149
-14.7381
-13.4954
-13.4078
-13.3751
-13.3528
-13.3346
-13.3212
-13.3132
-13.3097
-13.3128
-13.3277
-13.3501
-13.3983
-13.4215
-13.5029
-13.4989
-13.6112
-13.6515
-12.5182
-12.4846
-12.45
-12.4149
-12.3821
-12.3524
-12.3269
-12.3052
-12.2885
-12.2769
-12.27
-12.2738
-12.269
-12.3174
-12.3008
-12.3856
-12.36
-11.6791
-11.5286
-11.4488
-11.3762
-11.3118
-11.2524
-11.1998
-11.1523
-11.1094
-11.0709
-11.0368
-11.0104
-10.9799
-10.9731
-10.9362
-10.9736
-10.9137
-10.5674
-10.4866
-10.3904
-10.2856
-10.1849
-10.0859
-9.99208
-9.90198
-9.81603
-9.73313
-9.65414
-9.58143
-9.5006
-9.45176
-9.35376
-9.35795
-9.21286
-9.73687
-9.48721
-9.31548
-9.15413
-9.00605
-8.85712
-8.71239
-8.57092
-8.43338
-8.29777
-8.16692
-8.03912
-7.90269
-7.8123
-7.63231
-7.60396
-7.36801
-8.54187
-8.39532
-8.20412
-7.98513
-7.77872
-7.57632
-7.37988
-7.18731
-6.99812
-6.81105
-6.62888
-6.44635
-6.26113
-6.10884
-5.8712
-5.80873
-5.48299
-7.70332
-7.31208
-7.03853
-6.77314
-6.51933
-6.26746
-6.02126
-5.77939
-5.54121
-5.30637
-5.0766
-4.84549
-4.61638
-4.40936
-4.13246
-4.03105
-3.61907
-6.44783
-6.18703
-5.88442
-5.5633
-5.25657
-4.95598
-4.66312
-4.37573
-4.09296
-3.81518
-3.54299
-3.27034
-3.00465
-2.75577
-2.45167
-2.30674
-1.83188
-5.58579
-5.08597
-4.71543
-4.35349
-4.00535
-3.66315
-3.3294
-3.00249
-2.68204
-2.36866
-2.06125
-1.7546
-1.45794
-1.17026
-0.835267
-0.640873
-0.137714
-4.34822
-3.98152
-3.58192
-3.17431
-2.78449
-2.40518
-2.03697
-1.67816
-1.32847
-0.987823
-0.653512
-0.320398
0.00416975
0.325837
0.674191
0.897751
1.40912
-3.48918
-2.9111
-2.4592
-2.02147
-1.60156
-1.19339
-0.798598
-0.41617
-0.0447992
0.31817
0.676699
1.02967
1.3673
1.69687
2.04283
2.27745
2.77604
-2.30819
-1.85774
-1.38425
-0.915209
-0.468714
-0.039231
0.373557
0.772286
1.16036
1.53691
1.90124
2.2541
2.58875
2.91597
3.25092
3.48637
3.95655
-1.47069
-0.84473
-0.336515
0.146487
0.606427
1.04702
1.46888
1.87491
2.26449
2.63754
2.99594
3.33925
3.66344
3.98162
4.29608
4.52669
4.96216
-0.358111
0.13809
0.653936
1.14947
1.61569
2.05794
2.47836
2.87881
3.25955
3.62072
3.96539
4.29299
4.60127
4.90351
5.19253
5.41269
5.80874
0.445313
1.08189
1.60567
2.09586
2.55615
2.98981
3.39862
3.78446
4.14903
4.49286
4.81752
5.1244
5.41235
5.69238
5.95443
6.16183
6.51463
1.47152
1.98055
2.49733
2.98032
3.42722
3.84356
4.2325
4.59671
4.93704
5.25851
5.56015
5.84247
6.10723
6.3621
6.59593
6.78721
7.09569
2.23508
2.84679
3.3482
3.80746
4.23094
4.62239
4.98509
5.32219
5.63607
5.92789
6.20339
6.4591
6.69696
6.92496
7.13178
7.30347
7.56555
3.18032
3.66278
4.14055
4.57401
4.96765
5.3281
5.65996
5.96652
6.2505
6.51433
6.75912
6.988
7.19845
7.39611
7.57372
7.7247
7.94151
3.89881
4.44546
4.88513
5.27832
5.63485
5.95973
6.25765
6.5318
6.78463
7.01821
7.23377
7.43242
7.61709
7.78775
7.93707
8.06381
8.23558
4.75932
5.17116
5.56937
5.92055
6.23588
6.52232
6.78458
7.02524
7.24636
7.44947
7.63552
7.80452
7.95775
8.09978
8.22377
8.32915
8.46006
5.44074
5.87783
6.22053
6.52065
6.79207
7.03887
7.2644
7.47026
7.65816
7.82928
7.98425
8.12347
8.24835
8.3589
8.44982
8.5268
8.62589
6.25266
6.55422
6.84394
7.09599
7.32403
7.53084
7.71845
7.88768
8.04006
8.17653
8.29746
8.40332
8.49484
8.57131
8.63064
8.68196
8.74728
6.90036
7.19603
7.41402
7.61055
7.79266
7.95735
8.10492
8.23663
8.35402
8.45729
8.54617
8.62047
8.67988
8.72425
8.75758
8.79369
8.83788
9.34162
9.84355
10.3906
10.8356
11.3238
11.7347
12.1818
12.557
12.9488
13.2774
13.6073
13.8827
14.1458
14.3619
14.554
14.7053
14.8235
14.905
14.9477
14.9558
14.9229
14.8555
14.7483
14.6049
14.4265
14.208
13.9627
13.6717
13.3651
13.0052
12.6434
12.2194
11.8089
11.3268
10.8757
10.3456
9.8668
9.29513
8.77553
8.13818
7.5803
9.40123
9.8706
10.3136
10.7457
11.1652
11.5693
11.9546
12.3207
12.6659
12.9875
13.2853
13.5553
13.7983
14.0101
14.1915
14.3391
14.4531
14.5317
14.5743
14.5806
14.5497
14.4825
14.3784
14.2384
14.0635
13.8538
13.6123
13.3379
13.0354
12.703
12.3461
11.9632
11.559
11.1333
10.6891
10.2274
9.75083
9.26331
8.7605
8.2513
7.71518
9.47212
9.88207
10.2756
10.6672
11.0462
11.4153
11.7679
12.1071
12.427
12.7292
13.0086
13.2657
13.4961
13.6998
13.8735
14.0164
14.1264
14.2025
14.2439
14.2495
14.2194
14.153
14.0513
13.9145
13.7437
13.5405
13.3055
13.0419
12.7498
12.4334
12.0924
11.7319
11.3507
10.9547
10.5415
10.1176
9.67956
9.2354
8.78029
8.32797
7.85945
9.54715
9.91048
10.2596
10.6106
10.9523
11.2868
11.6112
11.9242
12.2229
12.5055
12.7696
13.0129
13.233
13.4278
13.5949
13.7325
13.8388
13.9122
13.9522
13.9574
13.9275
13.8622
13.7625
13.6288
13.4622
13.2643
13.0367
12.7816
12.501
12.1975
11.8732
11.531
11.1729
10.8017
10.4194
10.0289
9.63065
9.22643
8.82129
8.41609
7.99713
9.62046
9.94285
10.2505
10.5657
10.8757
11.1803
11.4781
11.7678
12.0467
12.3123
12.5618
12.7929
13.003
13.1896
13.3503
13.483
13.5858
13.6566
13.6953
13.6995
13.67
13.6056
13.5077
13.3768
13.214
13.0212
12.8002
12.5533
12.2828
11.9916
11.682
11.3569
11.019
10.6713
10.3163
9.95552
9.58849
9.22183
8.85746
8.49774
8.12509
9.68867
9.97276
10.247
10.5289
10.8106
11.0915
11.3662
11.6347
11.8954
12.1454
12.3816
12.6015
12.8023
12.9814
13.1361
13.2643
13.3635
13.4319
13.4694
13.4725
13.4432
13.3796
13.2834
13.1549
12.9957
12.8075
12.5924
12.353
12.0918
11.8117
11.5153
11.2059
10.8865
10.5599
10.227
9.88968
9.55345
9.22049
8.89004
8.57009
8.24164
9.75313
10.005
10.2493
10.5026
10.7576
11.0147
11.2712
11.5217
11.7655
12.0011
12.2254
12.4351
12.6275
12.7997
12.949
13.0729
13.1689
13.235
13.2713
13.2733
13.2442
13.1812
13.0864
12.9601
12.8039
12.6198
12.4101
12.1773
11.9244
11.6542
11.3698
11.0748
10.772
10.4623
10.1487
9.83617
9.52638
9.22247
8.92289
8.63658
8.34591
9.81648
10.0388
10.2558
10.4836
10.7153
10.9512
11.188
11.4244
11.6541
11.8766
12.0899
12.2907
12.4756
12.6417
12.786
12.906
12.9992
13.0632
13.0983
13.0992
13.0702
13.0078
12.9141
12.7896
12.6361
12.4556
12.2505
12.0236
11.7777
11.5163
11.2427
10.9604
10.6706
10.3762
10.0822
9.79106
9.50489
9.22683
8.95529
8.69911
8.44064
9.87671
10.0725
10.2651
10.4702
10.681
10.8978
11.1177
11.3385
11.5577
11.7695
11.9731
12.1658
12.3441
12.5047
12.6447
12.7614
12.852
12.9142
12.9482
12.9481
12.9191
12.857
12.7641
12.6412
12.4899
12.3124
12.1113
11.8893
11.6496
11.396
11.1318
10.8589
10.5801
10.301
10.024
9.75203
9.48712
9.23213
8.9858
8.75665
8.52721
9.93228
10.1045
10.2755
10.4609
10.6535
10.8537
11.0586
11.2661
11.4735
11.6775
11.8727
12.058
12.2303
12.3863
12.5227
12.6366
12.7252
12.786
12.8189
12.8182
12.7889
12.727
12.6347
12.5127
12.3629
12.1877
11.9897
11.7719
11.538
11.2915
11.0345
10.7692
10.5021
10.2361
9.97408
9.71869
9.47205
9.23688
9.01278
8.80774
8.60409
9.98189
10.1332
10.2851
10.4535
10.6305
10.8163
11.0082
11.2041
11.4012
11.5967
11.7857
11.9647
12.1318
12.2841
12.4179
12.5298
12.617
12.6768
12.7089
12.7078
12.6782
12.6163
12.5241
12.4025
12.2536
12.0796
11.8835
11.669
11.4399
11.1987
10.9468
10.6905
10.4333
10.1788
9.92969
9.68863
9.45768
9.23947
9.03457
8.85109
8.67032
10.0242
10.1572
10.292
10.4443
10.6069
10.7795
10.9599
11.1458
11.3346
11.5228
11.7078
11.8833
12.0475
12.1973
12.3294
12.4401
12.5264
12.5856
12.6171
12.6157
12.5857
12.5236
12.4312
12.3096
12.1609
11.9875
11.7924
11.5795
11.3519
11.1124
10.8651
10.6154
10.3662
10.121
9.88308
9.65507
9.43906
9.23733
9.04982
8.8855
8.72492
10.0575
10.1745
10.2958
10.4338
10.584
10.7452
10.9156
11.0932
11.2752
11.4578
11.6384
11.8138
11.9782
12.1265
12.2569
12.3664
12.452
12.511
12.542
12.5404
12.5099
12.4475
12.3547
12.2329
12.0843
11.9116
11.7175
11.5047
11.2745
11.0357
10.7919
10.5471
10.304
10.0666
9.83797
9.62105
9.41784
9.23007
9.05842
8.90949
8.76639
10.0806
10.1835
10.2968
10.4255
10.5675
10.7209
10.8839
11.0539
11.2301
11.4084
11.586
11.7583
11.9213
12.0685
12.1978
12.3067
12.3922
12.4513
12.4821
12.4805
12.4495
12.3866
12.2932
12.1706
12.0216
11.8488
11.6549
11.4423
11.2142
10.9774
10.7357
10.4944
10.2563
10.0261
9.80579
9.59687
9.40222
9.2234
9.06187
8.92165
8.79395
10.0986
10.1854
10.2897
10.4084
10.5418
10.6881
10.8461
11.011
11.1829
11.3583
11.5332
11.7039
11.865
12.0141
12.1462
12.2578
12.3451
12.4054
12.4369
12.4356
12.4041
12.3403
12.2452
12.1205
11.9682
11.7913
11.5934
11.3785
11.1522
10.9157
10.6762
10.4368
10.2022
9.97606
9.76171
9.55905
9.37248
9.20352
9.05359
8.92311
8.81277
10.1255
10.1879
10.271
10.3723
10.4926
10.6298
10.7816
10.947
11.1176
11.2927
11.4669
11.6402
11.8053
11.961
12.1005
12.2189
12.3107
12.3742
12.4077
12.4076
12.3754
12.3097
12.2115
12.0824
11.9234
11.7378
11.5309
11.3081
11.0768
10.8354
10.5959
10.3554
10.1224
9.89487
9.68095
9.4859
9.31037
9.15652
9.02635
8.91963
8.83782
10.1693
10.1973
10.2637
10.3555
10.469
10.6008
10.7472
10.9068
11.0767
11.2524
11.431
11.6061
11.7757
11.9336
12.075
12.1957
12.2922
12.3599
12.3957
12.3971
12.3643
12.2966
12.1948
12.0606
11.8976
11.7094
11.5
11.274
11.0359
10.7938
10.5472
10.3055
10.0698
9.84764
9.63944
9.44963
9.28009
9.13409
9.01498
8.92654
8.87955
-3.51122
-4.00766
-4.43068
-5.37606
-6.2351
-7.23579
-8.22026
-9.29441
-10.3985
-11.5545
-12.8076
-14.2418
-15.8264
-17.5629
-19.3146
-20.9837
-22.6095
-4.25947
-5.17267
-5.5866
-6.62028
-7.41571
-8.39931
-9.31653
-10.3295
-11.352
-12.4307
-13.6314
-14.9644
-16.4029
-17.9214
-19.3881
-20.7423
-21.9646
-5.35382
-6.52753
-6.94874
-7.91046
-8.61881
-9.53042
-10.3935
-11.3292
-12.2673
-13.2665
-14.3945
-15.5904
-16.8477
-18.1014
-19.2749
-20.4652
-21.8021
-6.56514
-7.75553
-8.19334
-9.09008
-9.78001
-10.6173
-11.4176
-12.2625
-13.1126
-14.0387
-15.0582
-16.1126
-17.1797
-18.1804
-19.08
-19.9519
-20.8992
-7.8784
-9.00234
-9.42986
-10.2558
-10.8996
-11.6521
-12.3695
-13.115
-13.8807
-14.7361
-15.6292
-16.5285
-17.3884
-18.153
-18.8812
-19.5192
-20.0746
-9.20735
-10.2216
-10.6244
-11.3585
-11.9351
-12.598
-13.2285
-13.8784
-14.5729
-15.3284
-16.0789
-16.7889
-17.4157
-17.9985
-18.5518
-19.11
-19.7753
-10.5
-11.376
-11.7551
-12.3843
-12.8951
-13.4432
-13.9828
-14.5493
-15.177
-15.7958
-16.3709
-16.8689
-17.3174
-17.7343
-18.1042
-18.4847
-18.9586
-11.7341
-12.4514
-12.7995
-13.2907
-13.7257
-14.1691
-14.6317
-15.1323
-15.628
-16.0769
-16.4534
-16.7905
-17.1119
-17.4135
-17.6958
-17.9228
-18.1673
-12.8849
-13.403
-13.7048
-14.0627
-14.4132
-14.7636
-15.1554
-15.5253
-15.8442
-16.1088
-16.3527
-16.5817
-16.8134
-17.0446
-17.2547
-17.4777
-17.8233
-13.8527
-14.1744
-14.4109
-14.6471
-14.9217
-15.1933
-15.4344
-15.6344
-15.8071
-15.9688
-16.1275
-16.29
-16.4515
-16.5917
-16.6937
-16.8074
-17.0318
-14.5491
-14.703
-14.8832
-15.0277
-15.1856
-15.3152
-15.421
-15.5227
-15.6266
-15.7348
-15.8409
-15.9397
-16.0297
-16.1043
-16.1407
-16.1411
-16.1989
-14.9577
-14.9791
-15.067
-15.1174
-15.1609
-15.2127
-15.2649
-15.3203
-15.3721
-15.4219
-15.4671
-15.5069
-15.5424
-15.5745
-15.5902
-15.612
-15.768
-15.0463
-15.0049
-15.0132
-15.0055
-14.9954
-14.9996
-14.9994
-15.0025
-14.9999
-14.9986
-14.9922
-14.9789
-14.9613
-14.9478
-14.9033
-14.8702
-14.9428
-14.9085
-14.7845
-14.7476
-14.6983
-14.643
-14.612
-14.5607
-14.525
-14.4803
-14.4421
-14.4005
-14.3543
-14.3081
-14.2718
-14.1953
-14.0538
-14.0076
-14.4954
-14.326
-14.2522
-14.1812
-14.0851
-14.0243
-13.9387
-13.8763
-13.8072
-13.7468
-13.6855
-13.6252
-13.5726
-13.527
-13.4491
-13.3754
-13.4504
-13.7833
-13.6125
-13.505
-13.4274
-13.3015
-13.2333
-13.138
-13.0677
-12.9924
-12.9246
-12.8566
-12.79
-12.7278
-12.6637
-12.58
-12.5386
-12.5806
-12.7847
-12.6332
-12.4924
-12.4431
-12.3222
-12.2662
-12.1817
-12.1188
-12.0522
-11.993
-11.9367
-11.8832
-11.8334
-11.7836
-11.7214
-11.6572
-11.6166
-11.4744
-11.4206
-11.291
-11.283
-11.1817
-11.1412
-11.0767
-11.033
-10.9879
-10.9494
-10.9182
-10.8934
-10.877
-10.8671
-10.8618
-10.8733
-10.9489
-9.99044
-10.0148
-9.91776
-9.93016
-9.86776
-9.86268
-9.83462
-9.82327
-9.81522
-9.81282
-9.81461
-9.81865
-9.82586
-9.83519
-9.8462
-9.86637
-9.92278
-8.39488
-8.45444
-8.41403
-8.44795
-8.45083
-8.47439
-8.49185
-8.51622
-8.54449
-8.5766
-8.61274
-8.65195
-8.69524
-8.74094
-8.78587
-8.81577
-8.82757
-6.61474
-6.75853
-6.75322
-6.84856
-6.88963
-6.96617
-7.0342
-7.10703
-7.18215
-7.25917
-7.33932
-7.42269
-7.51361
-7.61224
-7.72116
-7.83644
-8.02083
-4.74217
-4.97478
-5.00014
-5.17661
-5.26202
-5.39312
-5.51401
-5.6375
-5.76478
-5.89258
-6.02211
-6.1522
-6.28283
-6.40368
-6.52822
-6.67326
-6.8825
-2.87494
-3.18984
-3.24861
-3.47672
-3.62202
-3.79829
-3.97104
-4.14275
-4.31875
-4.4963
-4.67715
-4.86259
-5.05287
-5.24206
-5.43909
-5.59618
-5.67679
-1.06561
-1.45889
-1.55499
-1.81718
-2.01276
-2.22889
-2.44623
-2.66126
-2.88025
-3.10124
-3.32451
-3.55099
-3.78335
-4.02562
-4.29424
-4.56762
-4.91833
0.632897
0.189203
0.0533457
-0.231712
-0.464373
-0.712036
-0.966183
-1.21899
-1.4765
-1.73816
-2.00331
-2.27179
-2.54365
-2.81363
-3.08329
-3.3547
-3.74359
2.21213
1.74777
1.56956
1.26169
0.99777
0.725445
0.443001
0.160119
-0.127996
-0.422229
-0.722059
-1.02874
-1.34516
-1.66838
-1.99975
-2.30597
-2.54173
3.63147
3.16546
2.96246
2.64532
2.35441
2.06206
1.76007
1.45608
1.14608
0.827864
0.502196
0.169208
-0.173
-0.526537
-0.909134
-1.3157
-1.78449
4.86914
4.42084
4.20925
3.89755
3.59989
3.29649
2.98027
2.66085
2.33645
2.00241
1.65758
1.3024
0.936782
0.563621
0.183839
-0.195167
-0.716675
5.92396
5.50605
5.29659
4.99887
4.70673
4.4091
4.09507
3.77026
3.43655
3.09405
2.7396
2.37159
1.98786
1.58798
1.17101
0.758756
0.41699
6.81247
6.42938
6.22684
5.95129
5.6704
5.38531
5.08295
4.76697
4.43818
4.09541
3.73938
3.36843
2.98066
2.57512
2.13834
1.6628
1.13476
7.5524
7.20733
7.01635
6.76622
6.50252
6.23387
5.94855
5.64855
5.33336
5.00144
4.65282
4.28664
3.90107
3.49651
3.07366
2.64274
2.05661
8.16304
7.85825
7.67963
7.45468
7.21373
6.96595
6.70214
6.42191
6.12502
5.81165
5.47949
5.12753
4.75294
4.35254
3.92455
3.47925
3.095
8.65875
8.3953
8.23347
8.0344
7.81719
7.59215
7.35153
7.09403
6.82223
6.53175
6.22206
5.89146
5.53734
5.15731
4.74146
4.27131
3.75934
9.05731
8.83521
8.69093
8.5162
8.32415
8.12405
7.9086
7.67861
7.43263
7.16899
6.88608
6.58181
6.25341
5.89867
5.51519
5.11092
4.54876
9.37268
9.1898
9.06464
8.91623
8.75114
8.57556
8.38595
8.18264
7.96412
7.7291
7.47571
7.20189
6.90458
6.57916
6.22045
5.83052
5.47811
9.61897
9.47417
9.37011
9.2459
9.10397
8.95177
8.78898
8.61216
8.42143
8.21559
7.99297
7.75173
7.48927
7.20263
6.88279
6.5044
6.08219
9.80739
9.69525
9.60863
9.5062
9.38988
9.26481
9.12695
8.97635
8.81303
8.63623
8.44481
8.23703
8.01084
7.76392
7.49266
7.20454
6.76061
9.94703
9.85997
9.79706
9.72258
9.63168
9.5303
9.41802
9.29416
9.15877
9.01161
8.85196
8.67834
8.48951
8.28151
8.05215
7.80229
7.58401
10.0518
9.99291
9.94856
9.8991
9.83597
9.7617
9.67709
9.58183
9.47593
9.35954
9.23252
9.0937
8.94234
8.77601
8.5956
8.36548
8.13765
10.1338
10.0885
10.0542
10.0249
9.98772
9.93957
9.88085
9.81218
9.73417
9.64757
9.55306
9.45037
9.33809
9.21587
9.08884
8.94082
8.71025
-25.8262
-27.7384
-29.7885
-32.1773
-35.2633
-37.6631
-39.0375
-36.9758
-30.3251
-21.3711
-14.4917
-13.556
-17.3225
-21.3753
-23.8043
-25.4534
-25.4747
-25.3293
-24.8268
-24.2026
-27.5306
-30.0198
-32.6901
-36.0578
-40.3731
-44.2323
-46.8113
-45.4366
-38.7846
-29.3476
-21.7603
-20.934
-24.4162
-27.5504
-28.8574
-29.5374
-28.6526
-27.9077
-26.9633
-25.9271
-29.3281
-32.357
-35.7594
-40.3636
-45.3074
-51.0808
-54.4527
-53.2494
-46.7999
-37.3308
-29.4859
-28.9447
-32.1061
-34.3413
-34.7031
-33.9007
-32.2038
-30.7116
-29.261
-27.7767
-31.2173
-34.7369
-39.0227
-44.9065
-50.5942
-57.6473
-61.2315
-59.9914
-53.8873
-44.8019
-37.4167
-37.2144
-40.1407
-41.7314
-41.0692
-38.6721
-36.2721
-33.7894
-31.7345
-29.7789
-33.1351
-37.1289
-42.4099
-48.8306
-56.0921
-63.2078
-66.485
-65.1948
-59.6869
-51.2353
-44.972
-45.2053
-47.9535
-49.2433
-47.6861
-43.8017
-40.7579
-37.1176
-34.3329
-31.9089
-35.0333
-39.5713
-45.8295
-52.3512
-60.9532
-67.3411
-70.0082
-68.7696
-63.9989
-56.4611
-51.5759
-52.3587
-54.9616
-56.0343
-54.1769
-49.4684
-45.0582
-40.6416
-37.0354
-34.1448
-36.8729
-42.0241
-48.5983
-56.0627
-64.5254
-69.8416
-71.9021
-70.8189
-66.7961
-60.4986
-56.9824
-58.2345
-60.6845
-61.6279
-59.8553
-55.0721
-49.0288
-44.4056
-39.8566
-36.4384
-38.6024
-44.2757
-50.7218
-59.2312
-66.4267
-70.7227
-72.3907
-71.5249
-68.2542
-63.3799
-61.117
-62.6047
-64.8599
-65.7224
-64.2974
-59.9987
-53.2133
-48.0626
-42.7812
-38.744
-40.1819
-46.0039
-52.9609
-61.1881
-66.7851
-70.2578
-71.7137
-71.0825
-68.5592
-65.0976
-63.9035
-65.4743
-67.4631
-68.2632
-67.209
-63.6713
-57.4331
-51.0666
-45.7588
-41.0599
-41.5847
-47.3939
-54.7503
-61.2774
-65.7854
-68.7308
-70.0518
-69.6487
-67.843
-65.6936
-65.3261
-66.9094
-68.6348
-69.3794
-68.614
-65.9201
-60.8902
-53.8854
-48.535
-43.3846
-42.8201
-48.6453
-54.9706
-59.9879
-63.6936
-66.3165
-67.5245
-67.3396
-66.1989
-65.2652
-65.4264
-67.0782
-68.6303
-69.3207
-68.7796
-66.7726
-62.9511
-56.7949
-50.6461
-45.6589
-43.7377
-48.7481
-53.7619
-57.668
-60.8576
-63.1681
-64.2367
-64.2802
-63.7173
-63.7805
-64.361
-66.1829
-67.6492
-68.3211
-67.9388
-66.3712
-63.5572
-59.1086
-52.8641
-47.6809
-44.0608
-47.7914
-51.3575
-54.6381
-57.4694
-59.446
-60.4045
-60.6212
-60.5765
-61.1424
-62.2932
-64.3943
-65.8796
-66.5742
-66.3172
-65.0716
-62.9056
-59.6823
-54.9982
-49.5527
-43.8831
-45.9426
-48.3977
-51.3094
-53.7362
-55.36
-56.2252
-56.5941
-56.9065
-57.7954
-59.4565
-61.8155
-63.4168
-64.2103
-64.0371
-63.0609
-61.2282
-58.8282
-55.9841
-51.7664
-42.7296
-43.573
-45.4029
-47.9205
-49.8727
-51.1803
-51.943
-52.3958
-53.0037
-54.2112
-56.151
-58.5894
-60.3333
-61.2881
-61.2192
-60.5133
-58.9832
-56.973
-55.2495
-53.0531
-40.2848
-40.9048
-42.5403
-44.6221
-46.1704
-47.2017
-47.8556
-48.3637
-49.1413
-50.5315
-52.5633
-54.9091
-56.75
-57.8837
-58.0119
-57.4822
-56.2394
-54.4137
-53.2023
-52.3367
-37.1939
-38.2618
-39.9803
-41.7135
-42.9479
-43.7275
-44.2705
-44.7704
-45.5792
-46.9463
-48.8623
-51.018
-52.8723
-54.1468
-54.5888
-54.1995
-53.241
-51.6169
-50.2791
-49.5921
-35.0672
-36.6419
-38.232
-39.5191
-40.3971
-40.9668
-41.3912
-41.8036
-42.5004
-43.6799
-45.3375
-47.2411
-49.0193
-50.3904
-51.1901
-51.0427
-50.4135
-49.204
-47.7011
-46.3335
-34.641
-36.0531
-37.2497
-38.0007
-38.4417
-38.7224
-38.9114
-39.1312
-39.5792
-40.517
-41.933
-43.6368
-45.356
-46.8581
-48.0227
-48.5059
-48.2851
-47.5825
-46.2551
-44.5826
-34.7595
-35.2725
-35.6093
-35.7714
-35.8254
-35.8118
-35.7049
-35.758
-36.067
-36.7816
-37.8984
-39.285
-40.7704
-42.2559
-43.5769
-44.5641
-45.1123
-45.0906
-44.8775
-44.4998
-44.2998
-42.1988
-43.2268
-46.1787
-47.1458
-46.8781
-46.0378
-44.8035
-43.3289
-41.6623
-39.8014
-37.8373
-35.8222
-33.8067
-31.8386
-29.9511
-28.1659
-26.4875
-24.9368
-23.4836
-44.0503
-41.7411
-42.11
-44.2254
-44.9082
-44.362
-42.854
-41.5968
-40.1686
-38.531
-36.7892
-35.0061
-33.2199
-31.464
-29.7655
-28.1415
-26.6074
-25.1653
-23.837
-22.5806
-44.3923
-42.2936
-41.8834
-42.4507
-42.4407
-41.3895
-39.898
-38.584
-37.1535
-35.6109
-34.0209
-32.4151
-30.8235
-29.2742
-27.7883
-26.3769
-25.0518
-23.8083
-22.6683
-21.5817
-44.9657
-42.9704
-42.0338
-41.4598
-40.8647
-38.6982
-37.3399
-35.9843
-34.5065
-32.9983
-31.4927
-30.0088
-28.5688
-27.1894
-25.881
-24.6483
-23.4992
-22.422
-21.4422
-20.4991
-45.407
-43.6035
-41.9264
-40.715
-39.0042
-36.7257
-35.0692
-33.5294
-32.0152
-30.5368
-29.101
-27.7217
-26.4105
-25.1734
-24.0136
-22.9333
-21.9356
-21.004
-20.1732
-19.3647
-45.7449
-44.2851
-41.7098
-39.925
-36.8019
-34.7678
-32.9412
-31.226
-29.656
-28.1901
-26.8085
-25.514
-24.3083
-23.19
-22.1568
-21.2089
-20.3405
-19.5414
-18.8506
-18.1617
-46.0127
-45.0202
-41.6522
-39.0717
-34.9809
-32.7576
-30.7966
-28.9791
-27.357
-25.8965
-24.562
-23.3406
-22.2249
-21.2078
-20.2841
-19.4491
-18.6906
-18.0172
-17.4425
-16.847
-46.1927
-45.5583
-41.5824
-37.9217
-33.393
-30.7766
-28.6164
-26.7311
-25.0718
-23.6176
-22.3251
-21.1687
-20.1313
-19.2017
-18.3712
-17.6288
-16.9667
-16.4072
-15.9031
-15.3989
-46.3352
-45.7824
-41.1683
-36.0743
-31.7257
-28.7597
-26.3658
-24.4284
-22.753
-21.3164
-20.0669
-18.9718
-18.0059
-17.1537
-16.4013
-15.7345
-15.1574
-14.676
-14.1997
-13.8382
-46.5652
-45.6689
-40.164
-33.7511
-29.6866
-26.5752
-24.0118
-22.0391
-20.368
-18.9651
-17.7651
-16.7325
-15.8354
-15.054
-14.3689
-13.7696
-13.2632
-12.8145
-12.3629
-12.1615
-46.8938
-45.0456
-38.7479
-31.3415
-27.3029
-24.1672
-21.521
-19.5394
-17.894
-16.544
-15.4049
-14.4405
-13.6136
-12.8997
-12.2779
-11.7437
-11.292
-10.865
-10.4874
-10.37
-47.1386
-43.71
-37.1586
-28.9094
-24.652
-21.5164
-18.8621
-16.9112
-15.3184
-14.0425
-12.98
-12.0933
-11.3414
-10.6962
-10.139
-9.66642
-9.25376
-8.84661
-8.55104
-8.494
-47.2004
-41.2981
-34.9677
-26.3362
-21.7315
-18.6083
-16.016
-14.1462
-12.6392
-11.4603
-10.4929
-9.69644
-9.02721
-8.45591
-7.96685
-7.55282
-7.17298
-6.79494
-6.57641
-6.54797
-46.7346
-37.6995
-31.4723
-23.2986
-18.5311
-15.4671
-12.988
-11.2486
-9.86329
-8.80525
-7.9527
-7.26008
-6.68327