/*--------------------------------*- C++ -*----------------------------------*\
  =========                 |
  \\      /  F ield         | OpenFOAM: The Open Source CFD Toolbox
   \\    /   O peration     | Website:  https://openfoam.org
    \\  /    A nd           | Version:  6
     \\/     M anipulation  |
\*---------------------------------------------------------------------------*/
FoamFile
{
    version     2.0;
    format      ascii;
    class       surfaceScalarField;
    location    "1.26";
    object      meshPhi;
}
// * * * * * * * * * * * * * * * * * * * * * * * * * * * * * * * * * * * * * //

dimensions      [0 3 -1 0 0 0 0];

internalField   nonuniform List<scalar> 
11670
(
-0.0143754
-0.0860082
0.064495
0.023203
0.00598634
0.0105712
-0.00758523
-0.00501756
-0.0888867
-0.0809375
0.0578175
0.0955577
-0.0241209
-0.248895
0.225973
0.037337
0.0432967
-0.0725848
0.108691
-0.066852
-0.000919792
0.00645276
0.00212579
0.000196212
-0.137492
0.132672
-0.129746
0.145836
0.0165945
-0.0253043
0.0295719
-0.0170532
0.0242809
-0.123668
0.117005
-0.0243137
0.0380241
0.0336627
-0.0233436
-0.0415221
-0.0119879
0.24491
-0.252335
0.0171977
0.00232813
-0.00191951
-0.000333484
0.000465759
0.00469702
-0.00484679
-0.000729955
0.000350419
-0.00602929
0.00579391
0.000345963
-0.000774557
-0.00338835
0.0034166
0.000982695
-0.000356088
-0.00320148
0.003139
-0.000417146
0.000171779
-0.00122022
0.00129239
0.000317007
-0.00013902
0.00118031
-0.00103972
-0.000139911
0.000194701
-0.0034924
0.00327041
-0.000585227
0.000367548
-0.0021965
0.00202449
0.000136163
-0.000200664
-0.00257987
0.0026267
0.000406061
-0.000150063
-0.00148156
0.00131563
0.000120503
-0.000120672
0.00157987
-0.00145013
-0.000130625
0.000189959
-0.00179035
0.00212088
0.000557702
-0.000356403
0.00317651
-0.00323759
-0.000461241
0.000170558
-0.0121132
0.0119365
0.0003493
-0.00115968
0.00503383
-0.00498719
-0.000367986
0.00114048
-0.00753164
0.00702974
-0.000840445
0.000550222
-0.00181703
0.00214605
-0.00056859
0.000899865
0.0168685
-0.0169428
0.000568104
-0.00181987
-0.00170372
0.00211326
-0.000707738
0.00112683
-0.00994075
0.00932187
-0.00103211
0.000684415
0.0223225
-0.0224214
0.000706659
-0.00224982
0.00263341
-0.00196461
0.00111194
-0.000744442
-0.00494662
0.00504617
-0.000768636
0.00245045
-0.0253736
0.0252739
0.000768459
-0.00245631
0.00990971
-0.0105763
-0.00110669
0.00074427
-0.0114007
0.0112045
-0.00163863
0.000751736
-0.00153702
0.00207832
0.00110355
-0.000736427
0.00759412
-0.00732981
-0.000854026
0.0026942
0.00683916
-0.00722964
-0.00102938
0.000646497
0.00421071
-0.00416018
0.00176893
-0.000625853
0.0238022
-0.0241034
0.000614401
-0.00200352
-0.00177974
0.00248339
-0.000586125
0.000794679
-0.00730424
0.00702504
0.000446884
-0.000888902
0.00343987
-0.00324318
0.000965486
-0.000452294
0.00752761
-0.00773983
-0.00107262
0.000452639
-0.00271843
0.00301778
-0.000446543
0.00097968
0.00205465
-0.0022061
-0.000399252
0.000250747
-0.00137443
0.00162988
-0.000226804
0.000279774
0.00727605
-0.00739176
0.000238299
-0.000781418
0.00284383
-0.00282325
0.000732891
-0.000242177
-0.000106572
0.000120256
-1.10252e-06
2.63635e-05
-0.000328912
0.000325566
-5.78185e-05
-1.35665e-06
-1.9053e-14
2.06052e-14
-2.61937e-15
4.21673e-15
0.00322128
-0.00367445
0.000217112
-0.00018557
-0.00187585
0.0022413
0.000268217
-0.000222176
0.00584855
-0.00583395
-0.000891653
0.000291662
-0.00217496
0.00209529
-0.000253694
0.000726816
-0.00708813
0.00660416
-0.000797448
0.000548813
-0.00192854
0.00246776
-0.000508454
0.00073443
0.0167348
-0.0168091
0.000566649
-0.00183523
0.00703049
-0.00690082
0.00197455
-0.00063177
0.00452566
-0.00481214
-0.000755238
0.000474322
0.0164837
-0.0167118
0.000450774
-0.00149658
0.00577222
-0.00581324
0.00168232
-0.000488833
-0.00217036
0.00270341
-0.000454296
0.000574688
0.00863779
-0.00908347
0.000770192
-0.00122624
-0.00169528
0.00258266
-0.000738111
0.000967873
0.00547505
-0.00554049
0.00266959
-0.000794224
0.00551133
-0.00542594
-0.00074732
0.00242303
-0.0016935
0.00233975
0.00107126
-0.000723797
-0.0118391
0.0109729
0.000718098
-0.000948048
0.0250446
-0.024987
-0.00260138
0.00077269
-0.00963991
0.00903166
-0.00100661
0.00068358
0.0223368
-0.0224288
0.000705796
-0.00226869
0.00309938
-0.00229183
-0.000677909
0.00087698
-0.00545193
0.00539141
0.00247415
-0.000729446
-0.00252524
0.00346748
0.00069154
-0.000572833
0.00839553
-0.00904727
-0.000704942
0.000517019
0.0218195
-0.0220813
0.000815483
-0.00225538
-0.00321748
0.00301209
-0.000654094
0.00187394
-0.01415
0.0156563
0.00768383
0.0893345
-0.10112
-0.0927289
0.0364464
-0.0460064
-0.0128848
-0.073382
0.0808151
-0.134859
0.0492763
-0.0338197
0.0355717
0.000660233
0.00495966
-0.000625841
0.0265103
-0.0261393
0.0190937
0.147724
-0.155495
-0.022911
0.108457
-0.11051
0.0206262
-0.0455983
0.0477388
0.0416216
-0.135196
0.134125
-0.0120396
-0.136227
0.117396
0.0789698
-0.0676294
-0.102819
-0.0341226
0.112689
0.0214263
2.56409e-07
-0.00121013
0.00104507
0.000295797
0.00214131
0.0241884
-0.0184413
-0.00946675
0.00103558
0.0465658
-0.0164259
-0.0331566
0.00436216
-0.099678
0.0354968
0.0579605
0.000729838
0.0998849
-0.0243494
-0.072798
0.00400415
-0.164732
0.0638331
0.0923668
-0.125781
0.0789698
-0.063687
-0.000454761
0.00878233
0.000605562
-0.013465
0.000122611
-0.00216552
-0.00106981
0.0033308
0.00111917
-0.0584838
0.0291733
0.0296604
-0.00315363
0.00204834
0.00147858
0.00581247
0.00263176
-0.00897579
-0.00050847
-0.0375365
0.0199786
0.0201313
-0.0134765
0.00103043
0.00761432
0.107927
-0.0775917
-0.0263612
0.0575473
-0.0390451
-0.019458
0.00131068
-0.000774931
-0.000406599
-0.0725119
0.0472344
0.027807
-0.147001
0.0872546
0.0595214
0.0212569
-0.00710337
-0.0135601
-0.00611354
0.05975
0.0533993
-0.119665
0.049848
0.0570596
-0.125651
2.29762e-05
0.0189039
-0.000191539
-0.0177815
-0.0166322
-0.000172573
0.0177815
-0.00510992
-0.0742489
-0.115284
0.19724
-0.160113
-0.115914
0.273514
0.00079729
-0.0274107
0.0420691
-0.0200516
-0.0344752
-0.0276611
0.0583376
0.0382184
-0.299899
-0.295797
0.543782
-0.269817
-0.27664
0.570981
-0.00215868
0.140483
0.122239
-0.262818
0.102744
0.120601
-0.227759
-0.00387024
0.0369492
0.0517828
-0.0872665
0.0636266
0.0511116
-0.121013
-0.0197156
0.15538
0.161929
-0.288792
0.16182
0.160512
-0.333246
-4.26256e-07
-0.00669692
-3.75809e-05
0.00693952
0.0071792
-3.55088e-05
-0.00693952
-0.0877261
-0.0850472
-0.0309349
-0.0150827
0.0392156
0.0246709
0.0500652
-0.021798
0.0354175
-0.0390779
-0.00880063
0.0160491
-0.0273792
0.00767757
0.0321714
-0.0142445
0.0258401
-0.0250708
0.020115
0.0129404
-0.0350928
-0.0151824
-0.0144307
-0.0105895
0.0239051
0.0121757
0.0141757
-0.00712216
0.015746
-0.0105577
-0.00274292
-0.00571511
0.00987596
0.00261065
-0.000273682
0.0081599
-0.0126037
0.000268951
0.00713686
0.00706816
-0.0201349
-0.00516538
-0.0339023
0.0227059
-0.0380327
0.0277034
0.0433209
0.0204948
-0.0536502
-0.0355786
-0.0547745
-0.109087
0.101051
0.0455823
0.0950626
-0.147039
0.103603
-0.0752291
0.0903171
0.0619899
-0.0638924
-0.0681053
-0.0393604
0.058217
-0.0397433
0.0329156
-0.0920777
0.0997045
-0.0880241
0.0634037
-0.140613
0.138376
-0.0871464
0.113665
0.142909
0.0972976
-0.108068
-0.108607
0.0395511
-0.0271005
0.0242946
-0.026189
-0.00029779
0.0353542
-0.0397779
0.000249998
0.103567
-0.169012
0.091775
-0.0384183
0.0444095
-0.0965492
0.0691417
-0.0207406
0.0644128
0.148759
-0.159843
-0.0495848
-0.017646
-0.237387
0.24015
0.0114061
-0.060442
0.160278
-0.147869
0.0362629
-0.0891316
-0.17881
0.153818
0.12746
0.0988689
0.0473102
-0.0783228
-0.0558831
0.0235344
0.0328691
-0.0370056
-0.016053
0.122461
-0.180398
0.161076
-0.0949371
0.0815675
-0.296902
0.266729
-0.0642081
0.0897481
0.0467944
-0.0676401
-0.0619592
-0.0441483
0.127431
-0.115522
0.0352842
-0.02645
-0.103302
0.113309
0.0123612
-0.0969908
-0.061136
0.110634
0.0548868
-0.00973972
0.0290574
-0.0260926
0.00980438
0.00743198
0.101061
-0.105081
-0.00590576
-0.0723141
0.167644
-0.110667
0.0180891
-0.0742636
-0.249076
0.270933
0.0558209
-0.0185535
0.0677089
-0.0596331
0.00832747
-0.00933631
0.0737787
-0.0743393
0.00701639
-0.0234679
0.0625491
-0.0501601
0.0114921
0.00244879
0.0325867
-0.034212
-0.00171453
-0.058764
-0.248517
0.250744
0.0459452
0.0126258
0.119054
-0.126769
-0.00616916
-0.0087344
0.173441
-0.177744
0.0066042
0.0569276
-0.0392006
-0.051967
0.039513
-0.0118383
0.0231792
-0.0156953
0.00818187
-0.0287952
-0.0288662
0.049584
0.0204917
0.00545946
-0.0234316
0.0266142
-0.00529617
-0.00304021
0.0680607
-0.0690164
0.00267686
0.0365178
-0.205972
0.201269
-0.0305758
-0.00604031
0.0268315
-0.0256344
0.0060686
-0.04311
-0.013173
0.0546221
0.0113383
0.0227493
-0.0320547
0.0213664
-0.00600019
0.00305027
0.00365511
-0.00211337
2.50759e-16
-0.000771576
-0.000801876
-3.58745e-17
0.000629555
0.000943897
-5.925e-17
2.86862e-17
-0.00351872
-0.000267337
0.000158187
-0.036648
0.0821501
-0.0990226
0.0708417
0.0661482
-0.0528091
0.04799
-0.0481494
2.37401e-14
-0.00519101
-0.00455141
-1.57714e-14
-9.23531e-17
-0.00202851
-0.00204732
1.08806e-15
-0.00017184
8.36474e-05
-0.00344444
9.47513e-05
0.00517123
0.00410363
-0.00333413
-0.00246956
0.00207556
9.54755e-05
0.00345424
-0.00116153
0.00017184
0.000100533
-0.00421967
-9.47428e-05
-0.00207569
0.000107611
0.00459
0.00116153
2.74536e-05
0.00545971
0.00436652
-3.51127e-06
-7.44956e-08
-0.0064479
-0.00699326
6.23113e-07
1.21867e-06
-0.0100784
-0.0085781
-9.44398e-08
0.00788848
0.0105203
-7.58874e-06
3.55768e-05
-0.086548
0.0639038
-0.0628076
0.0633321
-0.102774
-0.0370471
0.0953157
0.0611138
0.0463828
-0.0859612
0.0713259
-0.0528583
-0.0928292
-0.110329
0.125499
0.0661903
-0.109468
0.159147
-0.0716247
0.0286816
0.0224438
0.0130892
-0.0156461
-0.012469
-0.108556
0.230002
-0.192895
0.0817066
-0.0279226
0.0242495
-0.00838649
0.0190069
-0.0338027
0.0558916
-0.0352678
0.0152613
-0.0140583
-0.0355758
0.0349095
0.00983907
8.2023e-05
0.0130127
0.00987528
-8.00966e-06
-1.19966e-05
0.0118334
0.0158116
7.958e-05
-0.00100116
-0.00369296
-0.00914404
-0.00106514
0.063901
-0.094783
0.0557736
-0.0480038
0.0674331
-0.0348174
-0.0665218
0.0509211
0.096244
0.0472279
-0.0529512
-0.0704225
-0.0463946
-0.0844206
0.07115
0.0386071
0.0800222
0.0910122
-0.145037
-0.0209817
-0.120441
0.0969189
0.0550322
-0.0407956
-0.00679674
0.0163292
-0.0140617
0.00337487
0.0495448
0.163357
-0.16608
-0.041549
-0.0427008
0.0242475
-0.0237917
0.0239907
0.0507349
-0.0253582
0.0375615
-0.0393308
-0.0595867
-0.0211701
0.0602311
0.0476108
0.00985516
0.0333454
-0.0385548
-0.00446899
-0.00249178
-0.0282143
0.0276808
0.00250904
-0.0682546
0.0853518
-0.109759
0.0785227
-0.0900245
0.0862142
-0.0471387
0.0726487
0.115021
0.0754395
-0.0716449
-0.0927095
-0.157636
0.13091
-0.071037
0.117743
-0.105438
-0.0913742
0.097615
0.0794209
0.0949405
-0.11226
0.148607
-0.111046
-0.139944
0.0924582
0.114417
-0.0908088
-0.104425
0.147901
0.0789456
-0.0623446
-0.0569934
0.0625035
0.0435925
0.190592
-0.118379
-0.181433
0.129244
-0.046356
0.0906134
-0.069042
0.033807
-0.00413893
-0.0230745
0.0220356
0.00216125
0.0669551
-0.0807128
0.0518584
-0.0487367
0.0473461
0.0999668
-0.0393016
0.0245278
-0.0552535
0.0422495
-0.0193093
0.163996
0.132684
-0.157907
-0.121306
0.00940663
0.0530894
-0.0512113
-0.00934142
0.0012935
-0.00406219
-0.000667027
-0.00238645
-0.0164879
0.0149901
0.00116728
0.184273
0.179309
-0.205838
-0.139953
0.00738628
0.00528004
-0.00449879
-0.00372349
0.0626202
0.248381
-0.260696
-0.0484501
0.00168027
0.00193739
-0.00267907
-0.000773849
-0.193526
0.206178
-0.141433
0.145722
0.000779493
-0.00562022
0.00398656
-0.000396322
0.0531404
-0.0552021
-0.00459113
0.00649685
-0.028888
0.249131
-0.249259
0.0223744
-0.0734498
0.285785
-0.268361
0.0583265
-0.101602
0.0578786
-0.0311243
0.0622436
-0.113784
-0.0142521
0.0860119
0.0514387
0.100051
-0.0711578
0.0250121
-0.0452294
0.0544492
0.0341105
-0.0638573
-0.033733
-0.107356
-0.0519879
0.112853
0.0593253
0.0243429
0.0112585
-0.0218549
-0.0115142
0.0570425
-0.026936
-0.074455
0.0360977
0.0783564
0.0177679
-0.0664799
-0.0379891
-0.0796836
0.134246
-0.157644
0.12493
0.143162
-0.095997
0.0796066
-0.10839
0.00988738
0.0141178
8.08883e-13
-6.33545e-13
-6.24881e-13
0.0124278
0.00797181
4.87881e-13
-0.0367573
0.022667
-0.00930662
0.0186226
0.0152321
0.0131007
-0.0246047
-0.00774382
0.0357081
0.264826
-0.279661
-0.0283692
0.0970047
-0.173447
0.136338
-0.0559292
0.0402728
0.0188336
-0.0496268
-0.0324516
-0.041225
0.0247661
-0.0420541
0.0343398
-0.103845
0.0845629
-0.040181
0.0787447
0.0712394
-0.0722133
0.114571
-0.0909671
-0.0797192
-0.024989
0.0943692
0.0209506
0.0254672
0.0282855
-0.0557162
-0.00636383
-0.0222488
-0.0313896
0.0444227
0.0185326
-0.0472189
0.0100072
0.0553513
-0.0268357
-0.00319426
0.00686526
-0.0111008
0.00204828
-0.0156628
0.036626
-0.0582269
0.0282299
-0.0309555
-0.0376011
0.0482079
0.013651
-0.0436396
0.0208147
-0.0308897
0.0328276
-0.00625019
0.0345665
-0.0346094
0.00156061
0.01588
-0.0444556
0.0361651
-0.0274295
0.0367335
-0.0100126
0.00940997
-0.0231312
0.0063732
-0.0232419
0.0149971
-0.00163451
0.0501809
-0.068365
0.0391164
-0.0132338
-0.0257964
-0.0176434
0.0295557
0.00665305
0.00911014
-0.011966
-0.0146153
0.00915835
-0.0639468
0.0860065
-0.0727515
0.0383133
0.098112
-0.0946378
0.0640888
-0.0565802
0.0397046
0.00976156
-0.0451568
-0.0221397
0.0563645
-0.0654085
0.0253364
-0.0248459
-0.0246575
0.0331506
0.0489558
-0.0362576
-0.0375924
-0.0147748
0.0429417
0.0287827
0.0278594
0.013081
-0.0352396
-0.0214769
0.0203979
-0.0333632
-0.0422958
0.0333363
-0.0390279
-0.0166906
0.0453093
0.0307655
-0.00538587
-0.00989785
0.00844216
0.00314736
0.056018
-0.0245943
0.0389165
-0.0441669
0.00228885
0.00271092
-0.00934852
-0.000975336
-0.0587568
-0.0159778
0.0537108
0.043339
0.0248389
-0.0200337
0.031994
-0.0211922
-0.0701613
-0.0684636
0.0681008
0.0519606
-0.0263841
0.00987072
-0.0129279
0.0166036
0.0414204
-0.0800115
0.0584998
-0.0349004
-0.00255739
0.00298945
-0.00749031
0.00147397
0.0639567
-0.0497082
0.0475226
-0.0442013
-0.0212001
-0.0093763
0.030507
0.0133741
0.00660644
-0.0312798
0.0218718
-0.00422718
-0.00929472
-0.1513
0.151773
0.00520202
-0.103248
0.0727957
-0.0226557
0.0668246
-0.0570086
0.0524684
0.000251426
-0.000234507
-0.00715768
0.0179857
-0.0145187
0.00502733
-0.0106647
0.0295006
-0.0243289
0.0107771
0.00986472
-0.104288
0.101186
-0.00854275
0.0188691
0.000310101
-0.000286317
-0.0394426
-0.0380597
0.0272817
-0.0183032
0.0221628
0.0130053
-0.0364387
0.00895365
-0.00774573
0.00845717
-0.132926
0.12534
-0.00463828
0.00249779
-0.0961633
0.0913491
-0.00250745
0.0315944
-0.0129882
0.0133383
-0.0197309
0.204433
-0.144383
-0.176082
0.129292
-0.0964456
-0.209207
0.216726
0.0744765
0.00724945
-0.0482627
0.0431527
-0.00669825
0.0945458
0.122296
-0.14812
-0.0616918
-0.0260091
-0.129121
0.136454
0.0176402
0.0155259
0.0507853
-0.0568478
-0.0093661
-0.400249
0.561773
0.0292003
-0.192104
0.0197312
-0.0685726
0.0538773
-0.0137735
0.0421927
0.0320921
-0.0337851
-0.0295029
-0.0245737
-0.121766
0.113062
0.0215927
-0.00711747
0.00646558
-0.0150809
0.00516279
0.00027401
0.00682647
-0.0106724
-0.000271688
0.00274454
-0.00797605
0.011456
-0.00257423
-0.00540389
-0.0153534
0.0141
0.00364401
-0.0145106
-0.00793002
0.024235
0.0105596
-0.0211896
0.0396253
-0.0292963
0.0134131
-0.24831
0.249015
-0.025992
0.0190192
0.0244383
0.0847865
-0.0939606
-0.0142955
-0.0171966
-0.14329
0.139454
0.0136714
0.0428173
0.0245703
-0.0357137
-0.0254059
0.0140189
-0.121577
0.108354
-0.00960479
0.0294591
0.0211609
-0.0395925
-0.0148733
0.0178758
0.13021
-0.13503
-0.0142789
0.087515
0.186122
-0.188554
-0.0739193
-0.0120461
0.0445022
-0.0411175
0.0101486
0.0571906
-0.188133
0.167636
-0.0358749
-0.0187461
-0.168365
0.172371
0.0135359
0.000419464
-0.0152139
0.0140905
-0.000281629
0.115878
-0.25424
0.21369
-0.0918179
-0.0363761
-0.0511903
0.0515343
0.0268601
0.188775
0.157798
-0.194328
-0.139337
0.0193012
-0.0801289
-0.0160586
0.0859746
-0.0919332
0.00487065
-0.00124443
0.0585437
-0.136128
0.105935
-0.0439749
0.035115
-0.241416
0.225526
-0.0255326
0.0793075
-0.0957114
0.0583627
-0.0497307
-0.0928948
0.065082
-0.0159785
0.0533185
-0.0799961
0.087742
-0.02228
0.0210135
0.0520321
0.254551
-0.263435
-0.0423903
0.108782
-0.0787755
0.0552959
-0.0742794
-0.180125
0.154484
0.0509608
-0.0363145
0.0165911
0.0564566
-0.0606157
-0.0116429
0.191121
-0.180902
-0.036566
0.0256462
-0.126554
0.206047
-0.158803
0.0933577
-0.00309471
-0.204937
0.20126
0.00189493
0.0467199
-0.153615
0.135807
-0.0369071
0.0171115
-0.0161179
0.0127065
-0.0106876
0.114893
-0.11193
0.0568331
-0.0733969
0.0068667
0.017082
-0.0243084
-0.00534686
-0.0270108
0.0226516
-0.0248742
0.0184278
-0.00576267
-0.0302949
0.0259905
0.00402916
-2.58082e-13
-0.00825952
-0.00728131
1.96598e-13
-0.00119184
0.00428122
0.00987162
0.000393386
0.0260343
-0.0622225
0.0519036
-0.0277333
0.000241899
-0.00253412
-0.00194649
8.06281e-14
-0.00442672
-0.004631
-7.33395e-14
-0.0620477
-0.0572692
0.0571552
0.0457859
0.000838497
0.00600591
0.00253841
0.000997089
-0.000180504
0.00261499
0.00356863
-8.94669e-05
-1.87206e-06
-0.0114648
-0.00950232
1.53862e-07
-0.0797394
0.0386576
0.0781111
-0.0550394
0.0397264
-0.0599425
0.0184608
-0.00994571
-0.0804255
-0.0361399
0.0808703
0.0541792
0.015921
0.039455
-0.0369608
-0.0115624
0.0256383
0.014128
-0.0331118
-0.0152096
-0.0219922
-0.0296229
0.0373597
0.00550586
0.0736158
-0.0571281
0.0437969
-0.0490717
-0.0586388
0.0483822
-0.00920688
0.028713
1.45911e-07
-0.00805406
-0.00904347
-1.15686e-06
-6.23218e-14
-0.0032776
-0.00303325
3.67183e-14
-0.0132242
0.0218675
-0.0113091
0.00851742
0.00367857
0.00873449
-0.0165517
-0.0013114
-0.00427952
-0.00839823
0.00586981
0.00240773
0.00914174
-0.00508843
0.00483004
-0.00507957
-0.00386747
-0.151722
0.14474
0.00345044
0.0457351
-0.0933476
0.0041297
0.0507954
-0.0831265
-0.0899509
0.125425
0.0521157
0.00197449
0.099476
-0.104105
-0.000507521
0.0546011
0.0449955
-0.059332
-0.0347573
-0.049713
-0.0962408
0.0389858
0.0316786
-0.0114719
-0.020991
0.00525522
0.0198866
0.00969834
-0.014147
-0.0115111
0.00323025
0.0499391
-0.0563425
-0.00208018
-0.0682712
0.300654
-0.285576
0.0544661
0.109426
0.0338227
-0.106946
-0.028725
-0.118735
0.132202
-0.0359838
0.0303146
0.186779
-0.12356
-0.127711
0.0701172
-0.0756909
-0.174383
0.180331
0.0590653
0.030682
0.21725
-0.235794
-0.0182428
-0.0338106
-0.0667188
0.0841991
0.00857437
0.0325598
-0.192871
0.171459
-0.0234424
-0.00364874
-0.023695
0.0240879
0.00358788
0.0120736
-0.0420713
0.0502264
-0.0125744
0.0352077
-0.0645726
0.0437076
-0.0220848
0.0724254
0.114571
-0.164872
-0.0185207
-0.103939
0.0829472
0.0361576
-0.0204378
0.162718
0.0277121
-0.0784134
-0.100521
0.134251
0.0574981
-0.149314
-0.03428
0.0622046
-0.108545
0.0519206
-0.0158007
-0.0350835
0.0930896
-0.0750786
0.0189919
-0.00762684
-0.0386864
0.0375385
0.00549177
-0.00102616
-0.0243237
0.0231382
0.00101992
0.0129104
0.0701976
-0.0698635
-0.0120324
-0.0245385
-0.124834
0.139388
0.00638082
-0.0972763
0.175154
-0.12954
0.0556726
0.170608
-0.0928154
-0.0978222
0.0249908
0.0208667
0.0375467
-0.0169622
-0.0680955
0.15449
-0.124379
0.0309747
0.0226194
-0.115167
0.0953183
-0.00588174
-0.0203134
-0.0376821
0.0359761
0.0148435
-0.0452619
0.0878514
-0.0687011
0.0315119
0.15412
0.172838
-0.18753
-0.124319
0.0627352
-0.0637766
0.0485029
-0.0944245
-0.0568177
0.0835655
0.0569951
-0.195795
0.230666
-0.174037
0.157536
-0.099186
0.0872688
0.0536076
-0.038639
-0.0184092
0.303898
-0.303412
0.0140083
0.267262
-0.235843
-0.118766
0.0924071
-0.0322155
-0.127036
0.131853
0.0231751
0.0327552
-0.0546544
0.0489595
-0.0237438
-0.0888902
0.233207
-0.205339
0.064445
0.177715
0.15917
-0.182569
-0.136294
0.0897854
-0.10203
0.0482479
-0.0436851
0.141698
0.137169
-0.182551
-0.0893966
-0.00951182
0.0653275
-0.0644774
0.00638635
-0.0388472
-0.0686613
0.0798337
0.0303083
0.0160921
0.246048
-0.252121
-0.0131071
0.0837791
0.197844
-0.213344
-0.0648913
-0.111142
0.102751
0.0186812
-0.0135027
-0.0888751
0.141172
-0.0811784
0.0207892
-0.0191175
-0.0426376
0.0474021
0.0174241
0.00438156
-0.0130347
0.0114838
-0.00276581
0.208157
-0.219094
0.057948
-0.0448782
-0.19267
0.215019
-0.156963
0.154355
0.0217274
0.101972
-0.109111
-0.0146158
-0.00543866
-0.0243311
0.0265786
0.00318971
0.0768126
-0.128996
0.0642866
-0.0196715
-0.195454
0.115935
-0.0834291
-0.260477
0.228564
0.0718942
-0.0508444
0.143651
0.0969501
-0.112742
-0.109247
-0.0904915
-0.156609
0.0687215
0.0410217
-0.164152
0.137096
-0.0283758
-0.0891395
-0.0382444
0.110362
0.0227542
-0.0525579
-0.229846
0.233941
0.0392073
-0.0771516
0.0961508
-0.069238
0.0627686
0.0202291
-0.208783
0.192863
-0.0139912
0.0619804
0.0499534
-0.0587502
-0.0447993
-0.0716268
0.0834384
-0.0522729
0.0347066
0.0197889
0.0116416
-0.015242
-0.0114428
-0.00689236
-0.12058
0.113714
0.00573053
-0.0753616
0.0960244
-0.119031
0.0838728
-0.15842
0.152317
-0.0968015
0.118341
-0.0287927
0.0523198
-0.0437956
0.0262733
0.000531646
-0.159705
0.153741
-0.000442178
-0.0216982
0.028461
-0.0202989
0.0105149
0.0745529
0.110725
-0.132978
-0.0472009
0.0282436
-0.0531427
0.0373137
-0.0169058
-0.0180944
0.0412735
-0.030915
0.00924046
-0.0081966
0.00799412
-0.00223266
0.00124057
-0.101742
0.0642058
0.093909
-0.0692968
0.138767
-0.151024
0.143999
-0.115765
-0.0501075
0.0789828
-0.0350396
0.0125313
-0.0379002
-0.0494056
0.0484873
0.0274349
0.0713131
0.0917845
-0.108604
-0.0465264
-0.0222871
0.0429318
-0.0305662
0.0142606
0.0209505
0.0407258
-0.0534956
-0.00523777
0.00875335
-0.0474038
0.0406132
-0.00796104
0.259511
-0.0384522
-0.000224097
-0.00594543
0.0152107
0.0251735
0.0099794
0.0720295
-0.00696286
-0.170991
0.207888
0.0141253
0.124035
-0.0132375
-0.233879
-0.00258287
0.0475246
-0.00645664
-0.119884
-0.00159101
0.0193341
-0.00228915
-0.0117965
0.002213
-0.0356125
-0.00948869
-0.0421225
0.00348018
0.0223875
0.0152098
0.0809103
0.0465356
0.0470548
6.06442e-05
0.00744131
-0.0386077
-0.0475396
0.128625
-0.000414911
0.0274072
-0.0491288
-0.144767
-0.0689138
0.0342839
-0.0355452
-0.0179327
0.0298647
-0.0231507
-0.016242
0.0424132
0.0278333
-0.0611838
0.0284904
0.0235426
0.0132739
-0.0299532
-0.00642218
0.012829
-0.0249576
0.00633381
-0.0110137
0.0196808
-0.0102008
-0.0105557
0.0260238
0.0129856
0.0731166
-0.0344511
0.0512367
0.158569
-0.129074
-0.134683
-0.150427
0.105131
-0.0687947
0.144118
-0.171681
-0.0559081
-0.0993968
0.121775
0.0969701
-0.0372384
0.0542312
0.0358861
-0.0409698
0.0417178
-0.0280565
-0.145169
0.13672
0.0793313
0.00439726
-0.00912606
0.00019694
-0.00369369
0.00850771
0.00246824
0.0243646
-0.0658346
-0.0324009
0.0820477
-0.0399659
-0.0584169
-0.012502
0.0163795
0.00660061
-0.113751
0.108982
-0.12923
0.0857173
-0.139654
-0.074103
0.112741
-0.0959644
0.100593
0.249105
-0.26574
-0.0656362
-0.192125
0.161565
-0.144471
0.00484018
-0.0101641
-0.000154632
-0.0035848
0.00703834
-0.00149356
-0.0371736
0.0303941
-0.000169495
-0.407934
0.394688
-0.0626888
0.41634
-0.426248
0.0179576
0.0521577
-0.0379326
0.0197461
0.0757094
-0.0552527
-0.032935
0.446893
-0.450725
-0.0193959
-0.128995
0.134989
-0.0453117
-0.349012
0.325723
0.0532485
0.0193217
-0.0134599
0.00336044
0.257209
-0.269239
-0.0251159
0.272731
-0.270124
0.066482
-0.0760785
0.0737811
0.0303488
-0.0067767
-0.00624443
-2.28787e-14
0.00748779
0.0062674
0.000294493
-0.00559882
-0.00613047
5.35558e-08
-0.0148314
-0.0138305
6.84226e-05
0.3547
-0.351621
-0.0725204
0.411013
-0.40044
-0.0794592
0.0312195
-0.0530735
0.0326034
0.1508
-0.154018
-0.0110187
0.259901
-0.273372
-0.00730112
0.0146639
0.0115723
0.00118375
-0.0192874
-0.0180349
-8.89526e-05
0.475558
-0.433895
-0.105394
0.276176
-0.276431
-0.0271467
-0.170134
0.180884
-0.0331427
-0.0515157
0.0495804
-0.00221787
-0.0452819
0.0445608
0.00218786
-0.221872
0.222629
0.0371011
-0.0787218
0.127266
0.115827
0.0185174
-0.0152096
0.00897378
-0.109598
0.0786704
-0.0430127
-0.00408787
0.00934498
0.00149368
0.00402371
-0.00834065
0.000154632
0.0595077
-0.0574491
-0.0707161
0.342254
-0.351782
0.0350934
0.364177
-0.375326
0.117583
0.0810083
-0.12465
0.0769696
0.0862481
-0.0478621
0.081424
0.0103907
0.0141101
8.62527e-06
0.101394
-0.105415
-0.00469696
0.0700084
-0.0679925
-0.0826583
0.211714
-0.196797
0.0744288
0.307461
-0.286605
-0.115854
-0.2425
0.226304
-0.0965189
-0.231362
0.266301
0.158423
0.206653
-0.195513
0.0459813
0.0545236
-0.0594244
-0.0149703
0.178516
-0.161205
-0.0447073
-0.219205
0.253276
-0.114432
-0.311699
0.290123
0.114413
-0.247048
0.281417
0.171885
0.101709
-0.0968306
-0.0418913
0.101909
-0.0795539
0.0334604
0.0500514
-0.0559035
0.0197579
-0.0182363
0.0184072
-0.00546138
0.0957531
-0.0976151
0.00514051
-0.0168778
0.0159652
-0.00358153
0.163424
-0.19498
0.119927
-0.0144071
0.0135542
0.00174909
-0.297714
0.23804
0.136612
0.0178517
-0.0178023
-0.00668719
-0.110081
0.0739683
-0.0809749
0.137059
-0.0879763
-0.115687
0.0154476
0.0117581
5.72875e-13
0.0386671
-0.0328178
0.00577747
0.10276
-0.0568486
0.0949052
-0.159702
0.179309
0.157011
0.356256
-0.373772
0.0816739
-0.162313
0.168517
0.123893
0.0710326
-0.0363517
0.0540453
-0.142361
0.204408
-0.138061
0.0906021
-0.0870327
0.0070053
-0.0186601
0.0170969
-0.00143949
0.0194068
-0.0188208
-0.00449779
-0.00479962
0.00962649
-0.00246936
0.00361053
-0.00759185
-0.000196906
-0.122131
0.166971
-0.130309
-0.049399
0.0376011
0.0163738
-0.0597261
0.0519162
-0.0241872
0.0983621
-0.0836685
-0.0413766
-0.042801
0.025137
0.0320807
0.0784621
-0.0368079
0.0564401
-0.0514985
0.0300331
0.0308316
0.0456187
-0.056373
-0.0284037
0.0809726
-0.103903
-0.0685571
-0.16896
0.1279
0.0406417
0.10826
-0.0884437
0.0457805
-0.0216685
0.0480986
0.035147
-0.0241797
0.0469396
-0.0357524
0.0664627
-0.0818172
0.0373463
-0.0236369
0.0116224
0.00299597
-0.165062
0.143823
-0.03685
0.151935
-0.172448
-0.0740013
0.137571
-0.185035
0.0738194
-0.0800906
0.0975182
0.0711608
0.0233829
-0.0463705
0.0256414
-0.0258957
0.0128639
-0.00261397
-0.0282967
0.0327448
-0.0156499
-0.0179181
0.0432731
0.0188816
0.0695025
-0.0313868
-0.043067
0.0591882
-0.071541
-0.00508698
0.0798574
-0.0974661
0.00904378
0.0214828
-0.0467064
-0.0253361
-0.0218089
0.0107938
-0.0034842
-0.0184665
0.0324045
-0.0178964
-0.108315
0.150272
-0.112541
-0.0685971
0.0259814
-0.0303157
0.0820729
-0.0397789
-0.058919
-0.0589489
0.0230279
-0.0361391
-0.0162641
0.0180471
-0.00630588
-0.287755
0.277723
-0.0566775
0.0638657
-0.0329425
0.0316873
0.295226
-0.310034
-0.0768868
0.0445383
-0.0223089
-0.0166257
-0.0293054
0.0147329
-0.00890111
-0.0729822
0.0669336
0.00139117
0.308527
-0.312153
0.0261485
-0.0337365
0.0291992
-0.00523236
-0.0368095
0.0343773
0.00474846
-0.141443
0.160614
-0.0330191
-0.0146083
0.0130023
-0.000560767
0.0790569
-0.0816363
-0.0056713
-0.142135
0.149279
0.019094
0.0513671
-0.0538509
0.000599503
-0.0780879
0.0644881
0.0330127
0.0341827
-0.0357127
-0.00851744
-0.224459
0.250103
0.0774594
-0.0915166
0.0890037
-0.046573
0.152509
-0.149335
0.0127211
-0.0170304
0.0165963
-0.0026562
-0.0046295
-0.00441099
-5.17267e-14
0.0116791
0.00631127
0.00101943
-0.011895
-0.0119147
1.69582e-06
0.0407846
-0.031705
-0.0130865
0.00385947
0.0053878
-0.000241505
-0.00896434
-0.0079783
2.33511e-13
-0.0118442
-0.0130893
-0.000234606
-0.00715302
-0.00813993
-1.04962e-07
0.0119684
0.00735662
-0.00083074
0.0356773
-0.0307705
0.0170526
0.0432931
-0.0286165
0.0102441
-0.0604064
0.116211
-0.0817803
-0.00498686
-0.00520538
5.5785e-14
-0.0503803
0.0362429
-0.00508833
-0.0431595
0.0300575
0.00544197
-0.104513
0.097271
0.0192792
-0.088931
0.089573
0.0166177
0.270315
-0.223489
-0.154814
-0.0606488
0.0613379
0.0562625
-0.0932753
0.0848949
0.0176679
-0.107989
0.089866
-0.0180325
0.066217
-0.0773572
0.043072
-0.112077
0.104733
0.00317764
-0.112637
0.103877
-0.00249557
-0.23627
0.229601
0.0022562
-0.331042
0.321835
-0.00283914
-0.118505
0.121494
0.061466
0.307736
-0.302054
0.0469073
-0.244699
0.259634
0.049143
-0.115053
0.11878
0.0354446
-0.135502
0.119838
-0.0423399
-0.183655
0.201275
-0.0897437
0.286089
-0.299435
-0.0232583
0.217515
-0.226127
0.0284613
0.224772
-0.225009
-0.0270621
-0.170101
0.151096
0.0590918
-0.0446113
0.0557907
0.0408701
-0.134898
0.128302
0.0126357
-0.151276
0.137981
-0.012677
0.162074
-0.166035
0.0194114
0.187173
-0.24598
0.094728
-0.259404
0.236088
-0.0895759
0.264723
-0.266359
0.107593
0.403335
-0.407022
0.062352
-0.264324
0.261869
-0.017973
0.107234
-0.10017
-0.0745181
0.156418
-0.145353
0.11597
-0.015934
0.0145279
0.000928744
-0.0139733
0.0127767
0.00331371
-0.240462
0.233968
-0.0245786
0.334324
-0.301357
-0.120033
-0.127872
0.138672
-0.0482505
-0.0456059
0.0451005
0.0146392
-0.0542647
0.0451357
-0.0186179
0.0603716
-0.0640912
-0.00787184
-0.23614
0.256377
-0.050564
0.342786
-0.349391
0.0886982
-0.207087
0.238492
0.140418
-0.224581
0.216884
-0.112448
-0.344995
0.335325
0.0354136
-0.287916
0.218464
0.132334
0.19907
-0.145599
0.140937
0.182711
-0.199203
-0.16085
-0.288464
0.295586
0.147924
-0.292806
0.25355
0.194468
0.273787
-0.282454
-0.0734389
-0.224557
0.248408
-0.18749
-0.448503
0.444322
-0.0192431
-0.15878
0.174179
-0.151621
-0.172705
0.191295
0.150955
0.249275
-0.226932
0.0652381
0.261103
-0.269337
-0.0764973
-0.312986
0.282383
-0.0861636
-0.0745414
0.0685823
-0.0296318
-0.0601247
0.0673203
0.0285426
0.318492
-0.323313
0.0160511
-0.0834544
0.100866
-0.0761196
0.235845
-0.260519
0.0456814
0.215561
-0.216298
-0.0136001
-0.0372429
0.0358855
-0.0136831
-0.223234
0.239759
-0.106876
-0.161118
0.165104
0.0176261
-0.039011
0.03786
0.0056715
-0.0376984
0.0366825
-0.00428776
-0.108252
0.0966185
-0.00488415
-0.050972
0.0506241
0.0324196
-0.265352
0.214678
0.108036
0.203304
-0.162996
-0.113878
0.377024
-0.395859
-0.0498708
0.169831
-0.137311
-0.0669998
0.0656309
-0.0779939
-0.0387403
0.192642
-0.17555
0.0730742
0.321512
-0.337081
0.0225223
0.109271
-0.110497
0.0752852
0.094327
-0.083585
0.0171612
-0.0408054
0.035921
0.00629183
0.129985
-0.112258
-0.0305531
0.0397792
-0.0403255
-0.020634
-0.140802
0.133848
0.000376258
-0.102273
0.0870564
0.0333857
-0.0836032
0.0856662
-0.0327902
0.292255
-0.281039
0.075157
0.18161
-0.161882
-0.0330222
0.168555
-0.113187
0.0464672
-0.181372
0.268541
-0.119706
-0.130732
0.245038
-0.0942749
-0.0501328
0.0624119
0.160525
-0.192668
-0.0689572
-0.0804469
0.0752055
-0.0817833
0.0406078
-0.101826
-0.0508244
6.65429e-16
-0.000150068