/*--------------------------------*- C++ -*----------------------------------*\
  =========                 |
  \\      /  F ield         | OpenFOAM: The Open Source CFD Toolbox
   \\    /   O peration     | Website:  https://openfoam.org
    \\  /    A nd           | Version:  6
     \\/     M anipulation  |
\*---------------------------------------------------------------------------*/
FoamFile
{
    version     2.0;
    format      ascii;
    class       volVectorField;
    location    "3.9";
    object      U;
}
// * * * * * * * * * * * * * * * * * * * * * * * * * * * * * * * * * * * * * //

dimensions      [0 1 -1 0 0 0 0];

internalField   nonuniform List<vector> 
4214
(
(12.3901 0.0988269 0)
(12.7924 0.125431 1.92357e-20)
(12.938 0.149249 5.08427e-20)
(13.0126 0.183785 -7.49525e-20)
(13.0978 0.235308 -5.53563e-20)
(13.2154 0.298224 1.41631e-20)
(13.3672 0.37455 6.08897e-20)
(13.5477 0.471921 2.72575e-21)
(13.7526 0.593478 -2.77934e-21)
(14.0464 0.775984 0)
(14.4334 1.05927 7.32865e-21)
(14.634 1.37853 2.96632e-19)
(14.391 1.64279 -2.88542e-19)
(13.5366 1.75466 0)
(12.1479 1.7087 -3.07603e-19)
(10.4701 1.6658 3.15725e-19)
(8.65622 1.70057 -4.63192e-20)
(6.82751 1.84373 -4.88148e-20)
(5.12105 2.10081 0)
(3.74136 2.40354 8.87074e-21)
(2.88764 2.64435 0)
(2.6451 2.71252 -2.06453e-22)
(2.91021 2.60153 0)
(3.43188 2.3419 -2.19841e-20)
(4.06804 2.07344 -2.53424e-20)
(4.81572 1.90528 -2.60604e-19)
(5.70532 1.84766 2.55559e-19)
(6.70659 1.86523 0)
(7.76758 1.93089 3.78653e-19)
(8.85658 2.01506 -3.69008e-19)
(9.87808 2.04373 3.02433e-20)
(10.6203 1.87476 0)
(11.0174 1.57472 -2.32781e-19)
(11.2592 1.29547 2.26832e-19)
(11.4343 1.04884 3.153e-19)
(11.5633 0.831792 -4.40351e-20)
(11.6572 0.638441 -2.73645e-19)
(11.7224 0.46827 -1.96318e-19)
(11.7559 0.310327 8.38523e-20)
(11.7305 0.143041 1.10547e-19)
(11.4556 0.0211986 0)
(12.9018 0.0389781 0)
(13.0032 0.124389 -1.35659e-20)
(13.0535 0.122966 6.99459e-20)
(13.1221 0.121124 4.67877e-19)
(13.2352 0.13921 -5.53474e-19)
(13.3869 0.171063 0)
(13.5718 0.215172 0)
(13.788 0.275174 -2.09259e-19)
(14.0606 0.356101 2.13325e-19)
(14.4831 0.508281 4.27666e-20)
(14.9015 0.734065 -5.07732e-20)
(14.8962 0.954322 6.63528e-20)
(14.4105 0.986675 -3.20793e-20)
(13.2149 0.762993 0)
(11.7063 0.452003 0)
(10.0948 0.203644 0)
(8.43294 0.0624469 5.77506e-19)
(6.76049 0.0451239 1.78986e-19)
(5.19755 0.14691 -3.10882e-19)
(3.91172 0.316687 -2.51004e-19)
(3.03239 0.513291 -5.013e-20)
(2.64614 0.674248 4.84022e-20)
(2.78183 0.738656 1.57626e-19)
(3.20645 0.765135 1.5758e-19)
(3.85307 0.811508 -2.24746e-19)
(4.63211 0.897665 0)
(5.52912 1.03402 0)
(6.52041 1.20761 0)
(7.559 1.39201 -3.71973e-20)
(8.585 1.55505 1.55999e-19)
(9.47345 1.60904 -6.38971e-19)
(10.1014 1.47641 5.97994e-19)
(10.5125 1.27478 3.89661e-19)
(10.8177 1.08592 -3.79667e-19)
(11.0471 0.907742 0)
(11.2219 0.745744 0)
(11.3532 0.597175 -2.50399e-19)
(11.448 0.463986 3.02937e-19)
(11.5249 0.336568 -4.76386e-20)
(11.597 0.209863 9.31995e-21)
(11.6187 0.134695 -8.90586e-19)
(12.8998 0.0726578 1.82619e-18)
(12.9658 0.0633781 6.95479e-19)
(13.0493 0.0444004 -7.85387e-19)
(13.1528 0.0382663 0)
(13.285 0.0450249 -6.60539e-19)
(13.4488 0.0578488 1.6555e-20)
(13.6449 0.0779665 7.54461e-19)
(13.879 0.106294 0)
(14.2007 0.154583 1.42911e-19)
(14.6778 0.268113 -2.34979e-19)
(15.0019 0.423433 -2.80688e-19)
(14.8546 0.488593 2.36313e-19)
(14.0227 0.280617 0)
(12.7083 -0.134907 0)
(11.26 -0.562997 -8.38386e-19)
(9.75849 -0.916139 1.12993e-18)
(8.20361 -1.18551 -3.50222e-19)
(6.61742 -1.3527 -1.57406e-19)
(5.15751 -1.40706 -1.59204e-19)
(3.95193 -1.35837 5.41329e-20)
(3.13036 -1.21081 0)
(2.78048 -0.992637 4.7749e-24)
(2.86855 -0.772852 -5.54343e-20)
(3.30345 -0.523315 -6.97777e-20)
(3.93404 -0.259468 -2.08264e-19)
(4.70652 0.0218549 -7.96991e-19)
(5.58998 0.322214 1.0019e-18)
(6.56233 0.637785 0)
(7.56909 0.93943 0)
(8.53688 1.17592 -1.2889e-18)
(9.35416 1.26401 1.45758e-18)
(9.94727 1.18628 -8.3685e-19)
(10.3629 1.05259 1.02938e-18)
(10.6747 0.91186 0)
(10.9141 0.773861 8.70248e-19)
(11.101 0.645565 -1.36926e-19)
(11.2444 0.52666 -7.51908e-19)
(11.3482 0.420483 -1.59254e-19)
(11.4209 0.321132 -4.07142e-19)
(11.4669 0.218868 4.43141e-19)
(11.4863 0.142698 -1.00952e-18)
(12.9251 0.00516218 1.97651e-18)
(12.9978 -0.0111104 -2.74385e-19)
(13.0884 -0.0424292 0)
(13.2044 -0.0619507 -1.03988e-18)
(13.3488 -0.0771913 1.06624e-18)
(13.5246 -0.0928601 1.06422e-18)
(13.7341 -0.105949 -1.08903e-18)
(13.9931 -0.120371 7.47846e-19)
(14.3716 -0.117574 -3.76954e-19)
(14.8643 -0.0624251 8.14985e-20)
(15.0427 -0.00925319 -8.26607e-20)
(14.5775 -0.154184 -9.55261e-19)
(13.4587 -0.579157 9.75076e-19)
(12.0952 -1.12051 0)
(10.7074 -1.63817 -1.4602e-18)
(9.29195 -2.10053 1.21985e-18)
(7.82963 -2.49355 3.56175e-19)
(6.35513 -2.78838 3.38644e-19)
(5.02719 -2.94898 -2.56352e-19)
(3.95588 -2.94497 -2.26833e-19)
(3.25588 -2.77334 0)
(2.98705 -2.46494 7.85454e-20)
(3.11248 -2.0818 3.01146e-19)
(3.5274 -1.65128 -5.13884e-19)
(4.14134 -1.20959 2.10782e-19)
(4.89728 -0.763687 -9.95466e-19)
(5.75309 -0.322756 7.5611e-19)
(6.68058 0.106781 0)
(7.62212 0.491764 -1.71221e-18)
(8.49344 0.76481 1.69078e-18)
(9.20796 0.865883 -1.64029e-18)
(9.74534 0.837387 1.29676e-18)
(10.1569 0.769352 -1.11156e-18)
(10.4796 0.685147 4.34513e-19)
(10.7339 0.596097 -1.17888e-18)
(10.9365 0.508895 1.14702e-18)
(11.0951 0.425285 8.11686e-19)
(11.2153 0.348328 -6.26856e-19)
(11.3091 0.276378 0)
(11.3793 0.205558 1.55918e-19)
(11.4092 0.1507 -1.04741e-18)
(12.9248 -0.0638652 6.04524e-19)
(13.0017 -0.0998511 1.54766e-18)
(13.0985 -0.150016 -1.6708e-18)
(13.2257 -0.186309 1.35986e-18)
(13.3788 -0.225082 -1.39467e-18)
(13.5607 -0.271065 -1.80908e-18)
(13.7772 -0.321653 1.44161e-18)
(14.0591 -0.38457 -9.15643e-19)
(14.4793 -0.43089 6.31744e-19)
(14.9206 -0.453011 0)
(14.8581 -0.553906 0)
(14.0197 -0.903088 0)
(12.7299 -1.46048 4.38072e-19)
(11.3887 -2.07127 -1.60762e-18)
(10.0745 -2.66527 -1.74158e-19)
(8.73546 -3.22886 1.11492e-18)
(7.36772 -3.72211 3.6055e-19)
(6.03443 -4.10163 2.94805e-19)
(4.87613 -4.30482 -7.40573e-19)
(3.98893 -4.28353 -8.80157e-20)
(3.45244 -4.04793 3.8852e-20)
(3.28835 -3.6426 -1.21304e-20)
(3.45222 -3.13501 3.62295e-19)
(3.86955 -2.5781 3.28054e-19)
(4.46581 -2.0053 -7.47844e-19)
(5.19439 -1.4346 -1.15519e-18)
(6.01323 -0.886502 5.90774e-19)
(6.87872 -0.379642 2.25157e-18)
(7.73384 0.0451231 -1.65893e-18)
(8.50305 0.32305 0)
(9.13473 0.441416 0)
(9.63571 0.471771 0)
(10.0365 0.46459 1.0972e-18)
(10.3566 0.432737 -6.22348e-19)
(10.615 0.389692 1.4773e-18)
(10.8248 0.342364 -1.08283e-18)
(10.9918 0.294411 -1.02339e-18)
(11.1208 0.248116 9.95161e-19)
(11.2212 0.202782 -5.41201e-19)
(11.2989 0.158446 5.73529e-19)
(11.346 0.125771 -3.3699e-19)
(12.9096 -0.151366 -3.35096e-19)
(12.9929 -0.205616 2.39393e-18)
(13.0947 -0.272881 -7.81059e-19)
(13.2267 -0.328347 -4.64786e-19)
(13.3807 -0.394204 0)
(13.563 -0.473598 -9.26229e-20)
(13.7824 -0.566475 0)
(14.0841 -0.680894 3.42526e-19)
(14.5165 -0.782815 -1.49856e-18)
(14.8399 -0.909773 9.20766e-19)
(14.3725 -1.17352 -2.70618e-19)
(13.2536 -1.65541 6.43606e-19)
(11.9147 -2.27911 -4.01395e-19)
(10.625 -2.9334 0)
(9.36931 -3.59232 0)
(8.10369 -4.22936 0)
(6.85397 -4.77872 2.94375e-19)
(5.70113 -5.18312 2.11419e-19)
(4.75163 -5.36814 3.0326e-19)
(4.07658 -5.29476 0)
(3.71445 -4.99462 0)
(3.6607 -4.52034 0)
(3.87404 -3.93645 1.74423e-19)
(4.29869 -3.29596 2.44886e-19)
(4.87973 -2.636 2.77098e-19)
(5.57472 -1.98368 0)
(6.34201 -1.37058 3.96458e-20)
(7.12746 -0.831291 0)
(7.87937 -0.410188 2.89889e-18)
(8.54477 -0.141356 -2.28986e-18)
(9.10385 0.00660173 -1.80424e-18)
(9.56963 0.0929057 3.28548e-18)
(9.95397 0.139128 -2.75057e-18)
(10.2682 0.157094 1.8275e-18)
(10.5264 0.158693 0)
(10.7389 0.150514 4.75899e-20)
(10.9116 0.136865 0)
(11.0494 0.120144 2.8793e-19)
(11.1584 0.102174 -1.3408e-18)
(11.2415 0.0867147 4.27284e-19)
(11.2991 0.073812 5.82858e-19)
(12.8743 -0.248789 0)
(12.9614 -0.321695 5.5091e-20)
(13.063 -0.40669 -2.39633e-18)
(13.1934 -0.484288 4.75162e-19)
(13.3417 -0.579272 -2.17617e-18)
(13.5193 -0.693438 1.12129e-18)
(13.7377 -0.830309 2.29633e-18)
(14.0509 -0.995881 -1.18956e-18)
(14.4738 -1.17309 5.09052e-19)
(14.4622 -1.40882 0)
(13.6964 -1.78564 1.5019e-19)
(12.4015 -2.33334 1.55417e-20)
(11.0597 -2.97682 -1.72298e-19)
(9.81571 -3.65944 4.80836e-20)
(8.61264 -4.3626 -5.94279e-19)
(7.43713 -5.03322 3.21454e-19)
(6.34029 -5.59141 0)
(5.40109 -5.97259 2.14951e-19)
(4.67948 -6.10965 -4.90792e-19)
(4.2176 -5.98572 0)
(4.02242 -5.64442 0)
(4.07754 -5.1341 0)
(4.34703 -4.51113 2.66243e-19)
(4.78804 -3.82566 -6.90791e-19)
(5.3565 -3.11927 0)
(6.01094 -2.42999 -2.03512e-18)
(6.70972 -1.80045 -1.44154e-20)
(7.40125 -1.27368 6.841e-19)
(8.04689 -0.879738 2.50246e-18)
(8.62221 -0.612211 -4.71531e-18)
(9.12512 -0.426662 2.20701e-18)
(9.55846 -0.292095 0)
(9.92274 -0.198555 2.1758e-18)
(10.2261 -0.134882 -1.33513e-18)
(10.479 -0.0915276 1.9624e-18)
(10.6897 -0.0621523 -1.14129e-18)
(10.8637 -0.042508 -1.59372e-18)
(11.0056 -0.0304066 -2.93906e-19)
(11.1195 -0.0225021 -7.47773e-19)
(11.2066 -0.0121587 1.88215e-18)
(11.2733 -0.00270611 -4.07875e-19)
(12.817 -0.352823 1.05874e-18)
(12.9043 -0.442427 2.15255e-18)
(12.9986 -0.546155 1.25656e-18)
(13.1202 -0.647765 0)
(13.2568 -0.771788 0)
(13.4237 -0.920945 -6.31666e-19)
(13.6352 -1.10161 0)
(13.9433 -1.3208 -7.14851e-19)
(14.2209 -1.57499 1.98265e-18)
(13.9499 -1.89312 2.79736e-19)
(12.8933 -2.31904 -9.55795e-19)
(11.4984 -2.87957 -4.74382e-19)
(10.1826 -3.51989 4.81824e-19)
(8.97815 -4.21558 2.96028e-19)
(7.83883 -4.93333 -6.36443e-21)
(6.78064 -5.60063 2.53181e-19)
(5.8641 -6.1358 1.08558e-19)
(5.15069 -6.47489 -1.25936e-19)
(4.65724 -6.56812 -1.42907e-19)
(4.39533 -6.41413 -1.68691e-21)
(4.35527 -6.05855 2.45211e-20)
(4.51734 -5.54058 -8.70308e-20)
(4.84823 -4.90922 4.69856e-19)
(5.31054 -4.21376 1.16579e-19)
(5.8628 -3.50097 -1.20577e-18)
(6.46772 -2.81952 -7.20464e-19)
(7.08731 -2.2171 6.86961e-19)
(7.68294 -1.72818 -6.73843e-19)
(8.23932 -1.35613 2.55675e-18)
(8.74959 -1.07228 -2.51073e-18)
(9.20882 -0.848778 -2.01094e-18)
(9.60927 -0.674271 2.87186e-18)
(9.94961 -0.539241 6.94269e-19)
(10.2363 -0.434707 -2.09532e-18)
(10.4775 -0.353344 0)
(10.6806 -0.289208 4.62717e-19)
(10.851 -0.238388 -8.00226e-19)
(10.9932 -0.198949 0)
(11.1094 -0.166288 -5.71694e-19)
(11.1988 -0.132844 -4.86098e-19)
(11.2702 -0.104723 -4.51126e-19)
(12.7336 -0.458767 1.34161e-19)
(12.8171 -0.561729 2.71684e-18)
(12.8988 -0.683414 -2.48849e-18)
(13.003 -0.808825 0)
(13.1217 -0.959609 0)
(13.2706 -1.14171 0)
(13.4634 -1.36324 0)
(13.7379 -1.63603 0)
(13.841 -1.94604 -1.63772e-18)
(13.2816 -2.303 3.26308e-18)
(12.0154 -2.73031 0)
(10.587 -3.26722 0)
(9.3037 -3.88938 5.49949e-19)
(8.14054 -4.57955 -8.69093e-19)
(7.08196 -5.28456 9.71078e-19)
(6.16417 -5.92628 -5.57539e-19)
(5.43956 -6.42865 9.19646e-20)
(4.94338 -6.72592 -7.89177e-20)
(4.67011 -6.80505 0)
(4.59048 -6.65197 -3.22267e-20)
(4.69458 -6.30699 -4.02104e-20)
(4.96052 -5.80977 2.35738e-19)
(5.35304 -5.2008 2.03639e-19)
(5.83452 -4.52972 0)
(6.36644 -3.84996 2.57333e-18)
(6.91713 -3.21416 -2.71893e-18)
(7.45896 -2.65912 2.73481e-20)
(7.9737 -2.20302 5.56535e-20)
(8.4652 -1.83222 1.33812e-18)
(8.92746 -1.52017 0)
(9.34911 -1.2598 0)
(9.71939 -1.04672 -9.19388e-20)
(10.0362 -0.872766 -9.16357e-19)
(10.3044 -0.73103 0)
(10.5305 -0.615162 0)
(10.722 -0.519701 0)
(10.8843 -0.440805 8.1703e-19)
(11.0221 -0.376422 0)
(11.1362 -0.321045 -1.09204e-18)
(11.2251 -0.266905 5.76159e-19)
(11.2975 -0.22216 1.22953e-20)
(12.6236 -0.561774 8.1533e-18)
(12.6975 -0.673624 -4.11997e-18)
(12.7638 -0.808054 -1.47861e-18)
(12.8448 -0.953415 -3.45264e-18)
(12.9383 -1.12751 7.27598e-18)
(13.0617 -1.3375 -1.73355e-18)
(13.2187 -1.59592 2.25699e-18)
(13.4316 -1.90864 0)
(13.3416 -2.24973 4.60157e-18)
(12.5274 -2.60589 -2.26381e-18)
(11.1254 -2.99085 -2.14375e-18)
(9.70063 -3.48476 -8.10056e-19)
(8.44522 -4.07595 3.01395e-18)
(7.32866 -4.74135 -9.84959e-19)
(6.36309 -5.41774 1.13837e-18)
(5.59607 -6.0312 -1.98076e-19)
(5.06338 -6.50936 -4.27342e-19)
(4.76813 -6.79341 2.83637e-19)
(4.69028 -6.87518 -5.80589e-20)
(4.77842 -6.77176 1.37697e-19)
(5.01843 -6.46809 0)
(5.38284 -6.02513 -3.88411e-20)
(5.83493 -5.47302 -3.83913e-19)
(6.33534 -4.86201 -4.8137e-19)
(6.84948 -4.24317 -1.88778e-18)
(7.35219 -3.6613 -7.9713e-20)
(7.83195 -3.13845 1.46363e-18)
(8.28826 -2.68572 -1.28315e-18)
(8.72904 -2.29536 3.64112e-18)
(9.14811 -1.95273 -3.38474e-18)
(9.53371 -1.65971 -1.89488e-18)
(9.87606 -1.41142 1.10548e-18)
(10.1705 -1.20111 -5.95608e-19)
(10.4202 -1.02418 0)
(10.6305 -0.875143 0)
(10.8085 -0.749665 -2.62887e-18)
(10.96 -0.643947 3.17508e-18)
(11.0897 -0.555846 -1.43641e-18)
(11.1979 -0.478871 5.79867e-19)
(11.2831 -0.404919 -4.49122e-19)
(11.3539 -0.343723 9.65384e-19)
(12.4909 -0.649385 4.42059e-18)
(12.5477 -0.766645 0)
(12.5953 -0.908592 1.82319e-18)
(12.6501 -1.06781 0)
(12.7133 -1.25966 0)
(12.8041 -1.48998 -2.15153e-18)
(12.9097 -1.77743 -2.31923e-18)
(13.0367 -2.11385 2.85642e-18)
(12.7519 -2.45752 -5.50358e-18)
(11.7505 -2.77624 -1.83095e-18)
(10.2737 -3.09291 0)
(8.86171 -3.53099 -4.06341e-18)
(7.62706 -4.07829 4.44754e-18)
(6.55832 -4.70475 -2.82226e-18)
(5.68868 -5.34923 1.38231e-18)
(5.06739 -5.94627 -2.60838e-18)
(4.71329 -6.42744 1.22345e-18)
(4.60063 -6.74467 -4.57711e-19)
(4.68181 -6.87025 3.20923e-19)
(4.92601 -6.84142 2.31734e-21)
(5.2947 -6.62513 0)
(5.75349 -6.27554 1.48915e-20)
(6.26833 -5.81485 2.56638e-19)
(6.79841 -5.28468 -8.06604e-19)
(7.31083 -4.7261 1.61471e-18)
(7.78841 -4.17484 -1.78276e-18)
(8.23118 -3.64907 2.57997e-18)
(8.64746 -3.16988 -1.28793e-19)
(9.04385 -2.74644 1.13788e-18)
(9.42106 -2.36937 -1.00532e-18)
(9.76982 -2.04149 0)
(10.0824 -1.75926 0)
(10.352 -1.51561 2.69674e-18)
(10.5815 -1.30703 -1.06813e-18)
(10.7734 -1.12761 9.11035e-19)
(10.9356 -0.974281 9.02075e-19)
(11.0733 -0.843199 0)
(11.1918 -0.732596 0)
(11.2914 -0.635302 -4.69916e-19)
(11.3707 -0.543276 0)
(11.4386 -0.466493 4.34639e-19)
(12.3428 -0.706226 6.26002e-18)
(12.3746 -0.827889 3.64432e-18)
(12.3991 -0.973285 -7.62028e-18)
(12.4254 -1.13931 6.66607e-18)
(12.4546 -1.34234 -2.11069e-18)
(12.5065 -1.58345 -2.73795e-18)
(12.552 -1.88575 0)
(12.5846 -2.22861 3.7948e-19)
(12.1216 -2.55229 3.07749e-18)
(11.0071 -2.80743 1.04154e-17)
(9.49129 -3.0403 3.23535e-19)
(8.08554 -3.41089 -3.59937e-18)
(6.8631 -3.90204 1.82148e-18)
(5.83721 -4.48315 1.66801e-18)
(5.05328 -5.10088 -2.63282e-19)
(4.55638 -5.69907 -6.08606e-19)
(4.35043 -6.21495 2.12065e-18)
(4.39029 -6.60109 -1.08423e-18)
(4.61815 -6.83118 -8.7757e-20)
(4.99502 -6.91132 8.3315e-20)
(5.48056 -6.83592 0)
(6.04009 -6.61645 1.40959e-19)
(6.63539 -6.26694 -3.86567e-20)
(7.22375 -5.81611 2.70688e-19)
(7.76989 -5.29549 1.24597e-18)
(8.2544 -4.74143 -3.04216e-18)
(8.68186 -4.18482 2.01508e-18)
(9.06788 -3.65895 -2.76717e-18)
(9.42127 -3.18926 4.40472e-18)
(9.75385 -2.77108 -1.00621e-18)
(10.0618 -2.40363 -2.68097e-18)
(10.3422 -2.08628 2.64918e-19)
(10.5846 -1.80975 -2.24346e-18)
(10.7923 -1.57153 1.09123e-18)
(10.964 -1.36361 -2.1716e-19)
(11.1078 -1.18454 6.06376e-19)
(11.2286 -1.02969 -1.64093e-18)
(11.3328 -0.898105 1.09711e-18)
(11.4202 -0.781555 1.10033e-20)
(11.4899 -0.672611 8.07836e-19)
(11.5513 -0.58163 -1.22093e-18)
(12.1841 -0.723495 1.71471e-18)
(12.1883 -0.845293 0)
(12.187 -0.990654 2.05171e-18)
(12.1818 -1.15624 -2.27911e-18)
(12.1736 -1.36344 -2.53179e-18)
(12.1817 -1.60433 -3.29801e-18)
(12.1627 -1.90907 2.89296e-18)
(12.1102 -2.23741 -7.11782e-18)
(11.4998 -2.52319 -3.09263e-19)
(10.338 -2.70501 -3.85894e-18)
(8.79273 -2.84519 -3.99011e-18)
(7.38561 -3.13621 6.64261e-18)
(6.16229 -3.56016 -7.8277e-20)
(5.16721 -4.09453 -3.91172e-18)
(4.44571 -4.69168 3.76881e-18)
(4.03916 -5.30672 -1.46604e-18)
(3.94292 -5.88297 4.63448e-20)
(4.09975 -6.37342 6.64821e-19)
(4.44472 -6.74696 -4.84278e-19)
(4.93405 -6.98777 5.875e-20)
(5.53666 -7.08753 0)
(6.22034 -7.02144 1.00339e-19)
(6.93427 -6.78585 -5.82211e-20)
(7.6234 -6.40228 -1.33961e-19)
(8.24459 -5.90563 -7.06726e-20)
(8.76867 -5.33376 7.31239e-19)
(9.20095 -4.73828 6.22172e-19)
(9.5633 -4.15647 1.81641e-19)
(9.87523 -3.6259 -2.39699e-18)
(10.1603 -3.1563 5.448e-20)
(10.4171 -2.743 1.28974e-18)
(10.659 -2.38758 1.14372e-18)
(10.8678 -2.07697 2.37599e-18)
(11.0509 -1.81032 -7.55528e-19)
(11.2001 -1.57556 8.387e-19)
(11.3241 -1.37267 -1.71655e-18)
(11.4253 -1.19554 5.23565e-19)
(11.5123 -1.0443 0)
(11.5841 -0.909441 -3.70089e-19)
(11.6413 -0.784458 0)
(11.6934 -0.678641 -1.82072e-19)
(12.0216 -0.694917 5.03429e-18)
(12.0009 -0.811963 4.16341e-18)
(11.974 -0.953869 -4.2885e-18)
(11.9348 -1.11015 0)
(11.8881 -1.31576 0)
(11.8509 -1.54348 0)
(11.7681 -1.84004 7.19988e-18)
(11.6447 -2.13652 -4.17346e-18)
(10.9211 -2.37483 8.7922e-18)
(9.77162 -2.48103 -4.66448e-18)
(8.18803 -2.52458 0)
(6.77522 -2.72509 -5.03057e-18)
(5.5324 -3.07045 3.73774e-20)
(4.54835 -3.55644 -1.41196e-20)
(3.85676 -4.13444 4.08106e-18)
(3.49716 -4.77424 -3.44299e-18)
(3.4638 -5.42626 2.02377e-18)
(3.69328 -6.04193 -5.09922e-19)
(4.12497 -6.57948 0)
(4.71543 -7.00611 -1.39389e-21)
(5.44685 -7.2775 -3.58105e-20)
(6.28259 -7.36375 -1.95442e-20)
(7.15339 -7.25294 0)
(7.98339 -6.93958 1.09258e-19)
(8.72153 -6.48384 1.59375e-19)
(9.32538 -5.90635 1.59267e-20)
(9.79081 -5.28019 2.73368e-19)
(10.1474 -4.64721 -1.389e-19)
(10.4169 -4.05284 6.52811e-19)
(10.6556 -3.52161 4.73311e-19)
(10.8485 -3.05444 0)
(11.0418 -2.65605 -4.31776e-19)
(11.2052 -2.30981 -1.97731e-19)
(11.3574 -2.01359 1.11956e-19)
(11.4796 -1.75455 -5.35944e-19)
(11.5821 -1.52912 0)
(11.6615 -1.33243 0)
(11.7293 -1.16269 0)
(11.7817 -1.01122 -2.50624e-19)
(11.8245 -0.872625 2.43589e-19)
(11.866 -0.752828 -1.07511e-19)
(11.8649 -0.622619 1.74394e-18)
(11.8254 -0.725232 0)
(11.7743 -0.86226 0)
(11.7019 -0.998116 0)
(11.6203 -1.20096 0)
(11.5428 -1.39876 -7.2e-18)
(11.4039 -1.68144 3.60532e-18)
(11.2299 -1.93203 8.88689e-18)
(10.4179 -2.11851 2.03717e-19)
(9.33588 -2.15546 5.47955e-18)
(7.68482 -2.10115 5.69952e-18)
(6.27056 -2.1997 -2.83172e-18)
(4.97597 -2.45366 5.65774e-18)
(3.98125 -2.88184 -2.53289e-18)
(3.27951 -3.43599 -2.24941e-18)
(2.91945 -4.09468 -1.54791e-18)
(2.89798 -4.8181 1.40686e-18)
(3.15541 -5.55751 -4.83902e-19)
(3.64983 -6.25439 -4.17453e-20)
(4.34054 -6.85223 4.55097e-20)
(5.21599 -7.2869 -1.11057e-19)
(6.21344 -7.48072 6.52015e-20)
(7.25922 -7.50442 0)
(8.2579 -7.30994 5.16281e-19)
(9.15878 -6.92912 -1.63508e-18)
(9.89367 -6.38079 8.38202e-19)
(10.4277 -5.75172 -2.21361e-19)
(10.8198 -5.08692 -8.60344e-20)
(11.0499 -4.44333 -4.35155e-19)
(11.2522 -3.8513 -4.83642e-19)
(11.3682 -3.33176 7.01282e-19)
(11.5025 -2.87867 5.49083e-19)
(11.6037 -2.50133 5.99566e-19)
(11.7138 -2.16775 -2.44615e-19)
(11.8006 -1.89212 -1.39999e-19)
(11.8787 -1.64136 2.2138e-19)
(11.9341 -1.43205 0)
(11.981 -1.24235 2.63483e-19)
(12.0098 -1.07908 0)
(12.0376 -0.928823 0)
(12.0649 -0.801143 1.89201e-19)
(11.7349 -0.515896 -3.42698e-18)
(11.6792 -0.590314 0)
(11.5992 -0.728179 0)
(11.5007 -0.825415 8.11537e-18)
(11.386 -1.03185 -5.74467e-18)
(11.2794 -1.17575 0)
(11.0968 -1.45053 0)
(10.908 -1.64188 0)
(10.0217 -1.7653 -1.54389e-17)
(9.07527 -1.74463 -1.68563e-19)
(7.28917 -1.59405 1.80094e-19)
(5.90233 -1.57857 -1.85728e-17)
(4.48682 -1.73377 9.04766e-18)
(3.47038 -2.07606 -5.51537e-18)
(2.69975 -2.6036 5.05861e-18)
(2.29968 -3.25564 1.54086e-18)
(2.23168 -4.03087 -6.05441e-19)
(2.48321 -4.86399 -4.13258e-19)
(3.01537 -5.68866 2.3335e-19)
(3.80191 -6.42646 -1.89847e-19)
(4.82961 -7.00521 0)
(5.9874 -7.37042 -5.53448e-19)
(7.23419 -7.52349 5.45589e-19)
(8.4192 -7.39995 1.07507e-18)
(9.49926 -7.10811 2.16143e-18)
(10.4171 -6.64234 -1.86052e-18)
(11.0393 -6.05812 6.79548e-19)
(11.542 -5.39836 2.31616e-18)
(11.744 -4.75092 -2.67432e-18)
(11.9435 -4.09737 1.76991e-18)
(11.9766 -3.56329 -1.99961e-18)
(12.0479 -3.03024 -1.44721e-18)
(12.0715 -2.64988 3.88009e-19)
(12.122 -2.25294 1.00274e-18)
(12.161 -1.98491 0)
(12.2074 -1.69213 0)
(12.2344 -1.49063 9.21412e-19)
(12.2608 -1.26774 -5.60665e-19)
(12.2648 -1.10964 0)
(12.2761 -0.938048 0)
(12.2825 -0.817471 -6.21042e-19)
(11.6399 -0.389076 1.68064e-18)
(11.5826 -0.415179 0)
(11.4497 -0.557898 0)
(11.3571 -0.596861 -2.76439e-19)
(11.1849 -0.81406 0)
(11.0777 -0.882619 -7.26844e-18)
(10.8378 -1.17011 7.49532e-18)
(10.698 -1.28603 0)
(9.70157 -1.31086 1.04809e-17)
(9.01853 -1.25729 0)
(6.97296 -0.9945 -6.25197e-18)
(5.74128 -0.868643 6.76458e-18)
(4.06589 -0.939226 9.51741e-18)
(3.06155 -1.12712 -3.06286e-18)
(2.12587 -1.66293 -3.63345e-19)
(1.66531 -2.23742 -3.63716e-18)
(1.49352 -3.0623 8.91606e-19)
(1.70265 -3.91128 0)
(2.26644 -4.81837 0)
(3.10746 -5.63959 6.14916e-19)
(4.30162 -6.29714 0)
(5.58454 -6.78295 -9.94514e-19)
(7.02431 -7.01062 -2.08307e-18)
(8.43359 -7.09756 0)
(9.61765 -6.8655 -4.50382e-18)
(10.8115 -6.55404 5.80861e-18)
(11.4801 -6.08838 -4.72098e-18)
(12.223 -5.47293 1.90242e-18)
(12.4083 -4.921 -5.01706e-18)
(12.6767 -4.1835 8.56527e-18)
(12.6494 -3.73312 -3.01411e-18)
(12.6596 -3.06742 0)
(12.6153 -2.75896 2.07965e-18)
(12.5764 -2.24207 -1.02682e-18)
(12.5651 -2.04012 -2.21796e-18)
(12.556 -1.65928 2.15745e-18)
(12.5544 -1.51533 0)
(12.5545 -1.22241 3.40432e-19)
(12.541 -1.11383 0)
(12.5251 -0.882437 0)
(12.511 -0.801607 4.37846e-19)
(12.4903 -0.62195 -5.73741e-19)
(12.3009 -0.694109 0)
(12.1096 -0.70466 0)
(11.9267 -0.67679 2.84007e-19)
(11.7633 -0.619149 2.41098e-19)
(11.6264 -0.536145 8.012e-19)
(11.5161 -0.43452 -6.50028e-20)
(11.4312 -0.325817 3.98278e-19)
(11.3739 -0.216914 4.63579e-19)
(11.3426 -0.111683 -4.62606e-19)
(11.3356 -0.0209528 0)
(11.344 0.0449849 0)
(11.3694 0.0980633 -8.62687e-19)
(11.4045 0.116195 1.76651e-18)
(11.5022 0.120075 1.74273e-18)
(11.4543 0.126285 1.45322e-18)
(10.994 -0.0144498 -7.0434e-20)
(12.4798 -0.556481 -8.65674e-19)
(12.3177 -0.590444 0)
(12.1641 -0.60776 0)
(12.0112 -0.598637 -7.36048e-20)
(11.8648 -0.565781 6.4346e-20)
(11.7335 -0.511147 4.2979e-19)
(11.624 -0.439148 -3.60576e-19)
(11.536 -0.357054 3.59702e-19)
(11.4699 -0.271206 -4.44098e-19)
(11.424 -0.186147 4.42805e-19)
(11.395 -0.104019 8.82852e-19)
(11.3779 -0.0362633 0)
(11.3717 0.0262171 9.12245e-19)
(11.3832 0.0515316 -8.65347e-19)
(11.4137 0.0963827 -8.16303e-19)
(11.3891 0.0528645 8.03526e-19)
(10.8202 0.0393808 0)
(12.4559 -0.401375 1.75347e-18)
(12.3272 -0.477809 1.66649e-19)
(12.1993 -0.5123 0)
(12.0707 -0.516573 4.76911e-20)
(11.9415 -0.500518 0)
(11.8187 -0.4655 -4.58063e-19)
(11.7131 -0.414293 3.11085e-19)
(11.6279 -0.351921 -3.09987e-19)
(11.5599 -0.282739 0)
(11.5059 -0.212572 -4.36125e-19)
(11.4643 -0.141642 -5.08822e-20)
(11.4343 -0.0831974 8.08149e-21)
(11.4155 -0.0218224 -6.83131e-19)
(11.4075 0.00471469 1.36803e-18)
(11.4221 0.0636621 -2.25005e-19)
(11.35 0.0150613 -9.54891e-19)
(10.6726 0.0684396 1.06859e-19)
(12.4386 -0.350338 -1.77157e-19)
(12.3251 -0.392664 -5.57683e-19)
(12.2203 -0.423564 -2.59411e-19)
(12.1163 -0.438375 -9.17459e-20)
(12.0073 -0.43601 -9.81137e-20)
(11.8978 -0.418317 3.51009e-19)
(11.7989 -0.385716 2.69725e-19)
(11.7182 -0.341398 -2.68431e-19)
(11.6512 -0.287966 0)
(11.5928 -0.232242 0)
(11.5423 -0.171933 1.21651e-18)
(11.5013 -0.12079 -8.75602e-19)
(11.4694 -0.0594859 4.44755e-19)
(11.4502 -0.035814 0)
(11.4444 0.0315702 0)
(11.3236 -0.0106721 0)
(10.5642 0.0858677 9.23111e-19)
(12.4061 -0.21962 1.19845e-18)
(12.32 -0.295157 1.58671e-19)
(12.2329 -0.339933 1.21113e-19)
(12.1458 -0.362517 9.84553e-20)
(12.0562 -0.369924 0)
(11.9645 -0.364558 -4.85099e-19)
(11.8775 -0.346741 0)
(11.8017 -0.317797 4.72996e-19)
(11.7367 -0.279181 -3.35626e-19)
(11.678 -0.235919 1.3623e-18)
(11.6243 -0.187023 -1.20468e-18)
(11.5783 -0.14435 -7.71054e-19)
(11.5388 -0.0883757 0)
(11.5128 -0.066153 -2.2726e-19)
(11.4907 0.00610399 2.25775e-19)
(11.3287 -0.0328557 5.89452e-20)
(10.4983 0.0894616 -8.54694e-20)
(12.3856 -0.179665 -5.39294e-19)
(12.3065 -0.225479 0)
(12.2341 -0.263281 -3.72209e-20)
(12.1614 -0.28957 3.69298e-20)
(12.088 -0.304849 0)
(12.016 -0.308815 2.29388e-19)
(11.9468 -0.302364 -1.96111e-19)
(11.8803 -0.286292 -5.64548e-19)
(11.8176 -0.261178 2.51983e-19)
(11.7595 -0.22959 -3.58114e-19)
(11.7063 -0.19152 -3.38015e-19)
(11.6591 -0.155768 6.19934e-19)
(11.6167 -0.108237 1.96923e-19)
(11.5861 -0.0867255 0)
(11.5532 -0.0167607 0)
(11.3616 -0.048866 -5.83576e-20)
(10.4702 0.0893543 -9.40453e-19)
(12.3485 -0.0701374 1.07184e-19)
(12.2909 -0.142818 -2.2514e-20)
(12.2307 -0.189975 3.19947e-20)
(12.1684 -0.220388 -1.0633e-19)
(12.1068 -0.240725 6.66424e-20)
(12.0503 -0.252133 -1.15292e-19)
(11.9986 -0.253798 1.61716e-19)
(11.9464 -0.247056 -1.80636e-19)
(11.8913 -0.233295 -5.07688e-19)
(11.8366 -0.213293 2.7215e-19)
(11.7857 -0.185757 3.4209e-19)
(11.7398 -0.157427 -6.71717e-19)
(11.6983 -0.119041 -3.55532e-19)
(11.6664 -0.0982928 -1.65225e-19)
(11.6274 -0.0364736 -7.04008e-19)
(11.4135 -0.0586396 -2.36839e-19)
(10.4779 0.0759184 -4.967e-19)
(12.3245 -0.0409192 2.72907e-21)
(12.2689 -0.0874964 -1.82471e-19)
(12.2191 -0.125566 1.23723e-19)
(12.1683 -0.155462 -1.22228e-19)
(12.1186 -0.179098 3.39606e-19)
(12.0738 -0.195527 -3.77983e-19)
(12.0332 -0.203721 1.76839e-19)
(11.9926 -0.204492 2.04608e-19)
(11.9493 -0.198087 0)
(11.9039 -0.186949 -2.94408e-19)
(11.8592 -0.169812 0)
(11.8169 -0.149955 2.81878e-20)
(11.7786 -0.120637 3.68338e-20)
(11.7481 -0.101058 3.97289e-20)
(11.7061 -0.0512603 3.18807e-19)
(11.4785 -0.0617634 1.44299e-19)
(10.5176 0.0587368 4.64304e-19)
(12.2814 0.0499907 0)
(12.2437 -0.0191781 -1.55001e-19)
(12.2035 -0.0639857 -3.20952e-19)
(12.1628 -0.0952975 5.78886e-19)
(12.1252 -0.121069 -7.99989e-19)
(12.0913 -0.140585 2.84772e-19)
(12.0582 -0.153352 -2.48138e-19)
(12.0236 -0.160315 2.39728e-19)
(11.9884 -0.160743 -3.37105e-19)
(11.9534 -0.156135 3.13615e-19)
(11.9187 -0.144796 0)
(11.8838 -0.132898 6.91629e-19)
(11.8517 -0.112752 3.5994e-19)
(11.8249 -0.0972191 3.71706e-19)
(11.7793 -0.0602066 -9.29114e-20)
(11.5499 -0.0598238 4.35831e-19)
(10.5822 0.0381445 4.78959e-20)
(12.2528 0.0696799 -7.57705e-19)
(12.2133 0.023 1.19673e-18)
(12.1807 -0.0111505 -5.86932e-19)
(12.1509 -0.0407019 -3.4289e-19)
(12.1251 -0.0683178 7.50782e-19)
(12.101 -0.0899322 -3.98215e-19)
(12.075 -0.10544 -3.52649e-19)
(12.0463 -0.116352 3.56167e-19)
(12.0171 -0.121712 3.59639e-19)
(11.9886 -0.123576 0)
(11.9618 -0.118284 -1.90475e-19)
(11.9351 -0.112777 -1.79808e-19)
(11.9109 -0.096876 2.05154e-19)
(11.89 -0.0869425 9.192e-20)
(11.8423 -0.0617281 9.21423e-20)
(11.6189 -0.0522334 4.20094e-19)
(10.6605 0.0141878 -4.63046e-20)
(12.2014 0.144394 8.00193e-19)
(12.178 0.0790473 6.77658e-19)
(12.1551 0.0408168 -1.0965e-19)
(12.1351 0.00968384 0)
(12.1182 -0.0197274 0)
(12.1011 -0.0428331 5.61282e-19)
(12.0811 -0.0607998 -5.50505e-19)
(12.0589 -0.0753338 0)
(12.0366 -0.0842669 0)
(12.0146 -0.090885 0)
(11.9938 -0.0899522 0)
(11.9733 -0.0911295 4.97338e-19)
(11.956 -0.0794328 -6.31156e-19)
(11.9409 -0.0761227 3.15836e-19)
(11.8959 -0.0577801 -1.02142e-19)
(11.679 -0.0427418 -3.91807e-19)
(10.74 -0.00821581 0)
(12.1664 0.155899 -2.99842e-19)
(12.138 0.111662 0)
(12.1229 0.0839155 5.26592e-19)
(12.1127 0.0545366 -3.6423e-19)
(12.103 0.0249773 8.40126e-19)
(12.0908 0.00107261 4.48144e-19)
(12.0757 -0.0186734 4.24632e-19)
(12.0595 -0.0360686 4.02737e-19)
(12.0436 -0.0482091 4.99762e-20)
(12.0281 -0.0593721 3.71719e-19)
(12.0134 -0.0619368 6.51743e-19)
(11.9993 -0.0696392 -4.84149e-19)
(11.9886 -0.0606868 2.76588e-19)
(11.9776 -0.0653348 2.87564e-19)
(11.9384 -0.0497375 2.69772e-19)
(11.7267 -0.0368148 2.57627e-19)
(10.8124 -0.0243785 2.35692e-19)
(12.1057 0.218443 -1.35289e-18)
(12.0938 0.15874 1.43445e-18)
(12.0882 0.126578 -5.96541e-19)
(12.0846 0.0966287 -5.52956e-19)
(12.0786 0.0666233 6.19228e-20)
(12.0697 0.0418755 4.7483e-20)
(12.0592 0.0207933 -9.66923e-19)
(12.0483 0.00143694 1.09923e-19)
(12.0378 -0.0131932 -4.0546e-19)
(12.0276 -0.0281249 -8.01147e-19)
(12.0181 -0.0337562 4.70472e-20)
(12.0098 -0.047881 -3.40262e-19)
(12.0053 -0.0404452 4.03837e-19)
(11.9977 -0.0550532 2.38648e-19)
(11.9662 -0.037674 -4.41408e-19)
(11.7591 -0.0354746 -2.68954e-19)
(10.8726 -0.0341613 -2.45581e-19)
(12.0655 0.224084 1.95534e-18)
(12.0481 0.184207 -1.72236e-18)
(12.0476 0.160754 0)
(12.0482 0.133318 -7.84633e-19)
(12.0444 0.104094 9.1584e-19)
(12.0383 0.0791757 0)
(12.0317 0.0572259 7.4875e-19)
(12.0252 0.0365384 -5.70686e-19)
(12.019 0.0199421 5.88168e-19)
(12.0133 0.00235675 -5.7296e-19)
(12.0081 -0.00557067 -5.21767e-19)
(12.0065 -0.025181 5.08891e-19)
(12.0082 -0.018764 -4.22732e-19)
(12.0047 -0.0451742 -6.0981e-19)
(11.9784 -0.0228407 2.10585e-19)
(11.7729 -0.0363633 0)
(10.9161 -0.0379747 0)
(11.9988 0.277978 -1.11135e-18)
(11.9992 0.224822 0)
(12.0034 0.195378 0)
(12.0044 0.167742 0)
(12.0012 0.138742 -8.89687e-19)
(11.9971 0.113371 -9.1166e-19)
(11.9934 0.0906281 -7.70773e-19)
(11.9901 0.0689419 8.3589e-19)
(11.9871 0.0505185 7.69811e-19)
(11.9847 0.0309161 -7.47965e-19)
(11.9829 0.0207955 -3.42662e-19)
(11.9831 -0.00293487 3.33433e-19)
(11.9862 0.00343233 0)
(11.9918 -0.0348277 2.85985e-19)
(11.9745 -0.00576969 -2.78882e-19)
(11.7662 -0.0402601 0)
(10.9417 -0.033272 0)
(11.9558 0.281021 0)
(11.9492 0.245201 -1.44281e-18)
(11.9519 0.222452 6.41355e-19)
(11.952 0.19721 0)
(11.9494 0.169553 0)
(11.9469 0.144368 0)
(11.9449 0.121116 1.09948e-18)
(11.9433 0.0987151 -1.06343e-18)
(11.9421 0.0786209 -5.51844e-19)
(11.9417 0.0574338 4.69263e-19)
(11.942 0.0445524 -8.99714e-19)
(11.945 0.0177682 4.31539e-19)
(11.9491 0.0239157 0)
(11.9536 -0.0237584 -1.88091e-19)
(11.9469 0.0138929 -2.27754e-19)
(11.7386 -0.0485873 8.33439e-20)
(10.949 -0.0192335 -8.1541e-20)
(11.8889 0.329978 -9.92849e-19)
(11.8947 0.281254 6.26687e-20)
(11.8954 0.251629 7.3183e-19)
(11.8934 0.225555 -7.97224e-19)
(11.8906 0.198352 -5.73561e-20)
(11.8883 0.172817 1.50679e-18)
(11.8867 0.149033 -1.44526e-18)
(11.8855 0.126191 0)
(11.8848 0.104789 1.19551e-18)
(11.885 0.0826572 -8.69724e-21)
(11.886 0.0669958 -5.73909e-19)
(11.89 0.0384322 0)
(11.8954 0.0419263 0)
(11.9018 -0.013381 0)
(11.8788 0.0337568 3.05975e-19)
(11.6928 -0.0586881 1.67798e-19)
(10.9362 0.00185571 -5.35235e-20)
(11.8417 0.335438 4.54317e-19)
(11.8364 0.299604 -1.00033e-18)