/*--------------------------------*- C++ -*----------------------------------*\
  =========                 |
  \\      /  F ield         | OpenFOAM: The Open Source CFD Toolbox
   \\    /   O peration     | Website:  https://openfoam.org
    \\  /    A nd           | Version:  6
     \\/     M anipulation  |
\*---------------------------------------------------------------------------*/
FoamFile
{
    version     2.0;
    format      ascii;
    class       surfaceScalarField;
    location    "2.28";
    object      meshPhi;
}
// * * * * * * * * * * * * * * * * * * * * * * * * * * * * * * * * * * * * * //

dimensions      [0 3 -1 0 0 0 0];

internalField   nonuniform List<scalar> 
8193
(
4.32693e-05
0.00209475
5.17962e-05
0.000339806
0.00399936
0.000777295
0.00575727
0.00129317
0.00734149
0.00182777
0.00872707
0.00232845
0.00989198
0.00275246
0.0108179
0.00306874
0.0114909
0.0032585
0.0119022
0.00331485
0.0120483
0.00324162
0.0119314
0.00305158
0.0115591
0.0027643
0.0109437
0.00240393
0.0101026
0.00199697
0.00905683
0.00157019
0.00783071
0.00114889
0.00645129
0.000755364
0.00494759
0.000407787
0.00335007
0.000119375
0.0016902
-0.00010212
0
-0.000254622
-0.00168826
-0.000341649
-0.00334237
-0.000371952
-0.00493052
-0.000358857
-0.00642157
-0.000319321
-0.00778554
-0.000272677
-0.00899398
-0.000239085
-0.0100206
-0.00023772
-0.0108418
-0.000284735
-0.0114375
-0.000391126
-0.0117914
-0.000560607
-0.011892
-0.000787699
-0.0117328
-0.00105622
-0.0113129
-0.00133844
-0.0106365
-0.00159506
-0.00971345
-0.0017763
-0.00855836
-0.00182409
-0.00719018
-0.00167558
-0.00563134
-0.00126763
-0.00390694
-0.00204385
-0.000542375
0.000689277
0.00557879
-4.50329e-05
0.00179663
0.00885032
0.0031972
0.0119299
0.00472416
0.0147667
0.00622489
0.017307
0.00756971
0.019497
0.00865772
0.0212861
0.0094197
0.0226306
0.00981851
0.0234959
0.00984712
0.0238588
0.00952488
0.0237089
0.00889263
0.0230487
0.00800715
0.0218938
0.00693534
0.0202717
0.00574877
0.0182208
0.00451856
0.0157883
0.00331114
0.0130294
0.00218465
0.0100047
0.00118625
0.00677921
0.000350233
0.00342107
-0.000303184
2.12817e-18
-0.000768258
-0.00341349
-0.00105352
-0.00674916
-0.00118086
-0.00993799
-0.00118398
-0.0129132
-0.00110606
-0.0156115
-0.000996822
-0.0179742
-0.000908724
-0.0199491
-0.000892581
-0.0214919
-0.000992562
-0.0225675
-0.00124085
-0.0231522
-0.00165227
-0.0232342
-0.0022192
-0.022815
-0.00290743
-0.021909
-0.00365334
-0.0205432
-0.00436302
-0.0187557
-0.0049138
-0.0165934
-0.00515857
-0.0141093
-0.00493298
-0.011359
-0.0040656
-0.00839734
-0.00527498
-0.00239048
0.00242519
0.00986775
-0.000850434
0.00452007
0.014151
0.00688715
0.0182782
0.0092943
0.0221689
0.0115379
0.0257315
0.0134523
0.02887
0.0149151
0.0314908
0.0158492
0.033509
0.016222
0.0348538
0.0160409
0.0354732
0.0153478
0.035336
0.0142117
0.0344339
0.0127211
0.0327808
0.0109762
0.0304115
0.00908121
0.0273802
0.00713832
0.0237569
0.00524166
0.0196254
0.00347301
0.0150797
0.00189844
0.0102216
0.000565868
0.00515829
-0.000496263
-1.03477e-14
-0.00127949
-0.00514171
-0.00179496
-0.0101558
-0.00207224
-0.0149336
-0.00215728
-0.0193705
-0.00210946
-0.0233683
-0.0019977
-0.0268375
-0.00189566
-0.0296999
-0.00187597
-0.0318918
-0.00200368
-0.0333661
-0.00232916
-0.0340957
-0.00288078
-0.0340748
-0.00365787
-0.0333203
-0.0046246
-0.0318715
-0.00570535
-0.0297891
-0.00678239
-0.0271512
-0.00769644
-0.0240498
-0.00825054
-0.0205842
-0.0082178
-0.0168548
-0.00735272
-0.0129558
-0.00896861
-0.00540605
0.00549732
0.0145784
-0.00286668
0.00853824
0.0196776
0.0117048
0.0247058
0.0147414
0.029544
0.0174328
0.0340553
0.0196118
0.0380943
0.021163
0.0415182
0.0220226
0.0441958
0.0221762
0.0460161
0.0216525
0.0468948
0.0205168
0.0467781
0.018862
0.0456447
0.0167999
0.043506
0.014453
0.0404039
0.0119461
0.0364077
0.00939939
0.0316106
0.00692275
0.0261251
0.00461088
0.0200789
0.00253992
0.0136109
0.000765131
0.00686753
-0.000680484
0
-0.00178656
-0.00683891
-0.0025649
-0.0134973
-0.00304812
-0.0198265
-0.00328749
-0.0256844
-0.00334973
-0.0309378
-0.00331295
-0.0354666
-0.00326148
-0.0391673
-0.00327974
-0.0419572
-0.00344519
-0.0437787
-0.00382061
-0.0446024
-0.00444608
-0.0444307
-0.00533105
-0.0432988
-0.00644716
-0.0412745
-0.00772258
-0.0384561
-0.0090383
-0.0349678
-0.0102274
-0.0309524
-0.0110776
-0.0265631
-0.0113377
-0.0219532
-0.0107273
-0.0172653
-0.0126206
-0.00895139
0.00990044
0.0195268
-0.00633195
0.0136613
0.0253608
0.0173341
0.0312235
0.0206762
0.0369518
0.0234922
0.0423593
0.0256382
0.0472495
0.0270237
0.0514296
0.0276102
0.0547228
0.0274069
0.056979
0.0264645
0.0580832
0.0248673
0.0579603
0.0227245
0.0565778
0.0201617
0.0539456
0.0173125
0.050113
0.0143104
0.0451653
0.0112825
0.0392183
0.00834358
0.0324128
0.00559235
0.024909
0.00310775
0.0168817
0.000947122
0.00851533
-0.000854971
3.17637e-20
-0.00228698
-0.00847205
-0.00335979
-0.0167098
-0.00410539
-0.0245268
-0.00457464
-0.0317446
-0.0048343
-0.0381972
-0.00496302
-0.0437348
-0.00504641
-0.0482297
-0.0051712
-0.0515813
-0.00541843
-0.053721
-0.00585598
-0.0546179
-0.00653076
-0.0542817
-0.00746085
-0.0527655
-0.00862829
-0.0501646
-0.00997299
-0.0466147
-0.0113885
-0.0422851
-0.0127203
-0.0373703
-0.0137668
-0.0320787
-0.0142837
-0.0266195
-0.0139925
-0.0211882
-0.0159531
-0.0125911
0.015364
0.0246897
-0.0111678
0.019493
0.0312375
0.0233108
0.0379005
0.0266145
0.0444702
0.029248
0.0507122
0.0311049
0.0563819
0.0321279
0.0612407
0.0323067
0.065071
0.0316733
0.0676887
0.0302955
0.0689525
0.0282694
0.0687701
0.0257116
0.0671009
0.0227513
0.063955
0.0195224
0.0593908
0.0161569
0.0535092
0.0127789
0.0464479
0.00949998
0.0383746
0.00641514
0.02948
0.00360043
0.0199721
0.00111118
0.0100701
-0.00101886
-1.07114e-14
-0.00277756
-0.0100099
-0.00417377
-0.0197329
-0.005236
-0.0289479
-0.00601035
-0.0374437
-0.00655779
-0.0450235
-0.00695054
-0.0515109
-0.00726766
-0.0567553
-0.00758983
-0.0606391
-0.00799333
-0.0630835
-0.00854337
-0.0640549
-0.0092871
-0.0635689
-0.0102467
-0.0616934
-0.0114125
-0.0585484
-0.012738
-0.0543023
-0.0141349
-0.0491654
-0.0154718
-0.0433796
-0.0165736
-0.0372047
-0.0172251
-0.0309033
-0.0171764
-0.0247231
-0.0188811
-0.0161514
0.021375
0.0301383
-0.016975
0.025468
0.0373884
0.0290659
0.0448093
0.0320189
0.0521511
0.0342189
0.0591368
0.0356003
0.0654808
0.0361389
0.0709065
0.0358493
0.0751631
0.03478
0.0780393
0.0330083
0.0793739
0.0306333
0.0790621
0.0277697
0.0770586
0.0245405
0.0733764
0.0210711
0.0680831
0.0174832
0.0612954
0.0138905
0.0531712
0.0103942
0.0439027
0.00708033
0.0337081
0.00401782
0.0228248
0.00125689
0.0115029
-0.0011713
0
-0.00325453
-0.011424
-0.00499886
-0.022511
-0.00642736
-0.0330097
-0.00757824
-0.04268
-0.00850244
-0.0512984
-0.00926049
-0.0586644
-0.00991884
-0.0646076
-0.0105454
-0.0689946
-0.0112043
-0.071737
-0.0119511
-0.0727975
-0.0128259
-0.0721959
-0.0138487
-0.0700117
-0.0150136
-0.0663841
-0.0162838
-0.0615088
-0.0175892
-0.0556301
-0.0188235
-0.0490298
-0.0198449
-0.0420117
-0.0204778
-0.0348849
-0.0205168
-0.0279443
-0.0214517
-0.0197333
0.027236
0.0359602
-0.023078
0.0309126
0.0438726
0.0339817
0.0519747
0.0363483
0.0599821
0.0379504
0.0675844
0.0387588
0.074464
0.038776
0.0803155
0.0380332
0.0848636
0.0365873
0.0878775
0.0345158
0.0891824
0.0319122
0.0886659
0.0288802
0.0862812
0.0255289
0.0820457
0.0219678
0.0760368
0.0183019
0.0683855
0.0146285
0.0592682
0.0110342
0.0488982
0.00759214
0.0375175
0.00436105
0.0253887
0.00138405
0.0127881
-0.00131148
0
-0.00371364
-0.012689
-0.0058253
-0.0249948
-0.00766289
-0.0366404
-0.00925474
-0.0473614
-0.010639
-0.0569119
-0.011861
-0.0650714
-0.0129704
-0.0716521
-0.0140172
-0.0765074
-0.0150482
-0.0795399
-0.0161026
-0.0807088
-0.0172076
-0.0800358
-0.0183744
-0.0776085
-0.0195939
-0.073581
-0.0208339
-0.0681693
-0.0220368
-0.0616441
-0.0231184
-0.054318
-0.0239683
-0.0465297
-0.0244517
-0.0386255
-0.0244126
-0.0309382
-0.0237676
-0.0236779
0.0321498
0.0421844
-0.028614
0.0351203
0.0506715
0.0374558
0.0593338
0.0391086
0.0678621
0.0400538
0.0759216
0.0402889
0.0831729
0.0398328
0.0892912
0.0387241
0.0939848
0.0370182
0.0970109
0.0347845
0.0981864
0.0321027
0.0973958
0.0290589
0.094593
0.0257421
0.0898009
0.0222405
0.0831061
0.0186383
0.0746522
0.0150131
0.0646312
0.0114334
0.0532744
0.00795756
0.0408431
0.00463237
0.0276204
0.00149268
0.0139042
-0.00143864
1.31438e-16
-0.00415032
-0.013784
-0.0066419
-0.0271426
-0.00892264
-0.0397785
-0.01101
-0.0514079
-0.0129281
-0.0617669
-0.014705
-0.070619
-0.0163709
-0.0777627
-0.0179552
-0.0830405
-0.0194834
-0.0863475
-0.0209742
-0.0876395
-0.0224367
-0.086939
-0.0238673
-0.0843393
-0.0252477
-0.0800042
-0.0265433
-0.0741646
-0.0277018
-0.0671096
-0.0286541
-0.059174
-0.0293143
-0.0507217
-0.0295826
-0.0421257
-0.0293476
-0.033747
-0.0259137
-0.0284899
0.0353218
0.0487236
-0.0326529
0.0374349
0.0576501
0.0389658
0.0667142
0.0399012
0.0755904
0.0402405
0.0839294
0.0399961
0.0913785
0.0391926
0.0976018
0.037866
0.102299
0.0360621
0.105221
0.0338349
0.10618
0.0312445
0.105062
0.0283544
0.101823
0.0252299
0.09649
0.0219348
0.089159
0.0185301
0.0799838
0.0150718
0.0691688
0.0116097
0.0569592
0.00818597
0.0436316
0.00483503
0.0294852
0.00158299
0.0148339
-0.00155211
1.07906e-14
-0.00455979
-0.0146922
-0.00743642
-0.0289214
-0.0101841
-0.0423748
-0.0128094
-0.0547543
-0.0153217
-0.0657825
-0.0177317
-0.0752109
-0.0200494
-0.0828279
-0.022282
-0.0884679
-0.0244319
-0.0920205
-0.026495
-0.0934389
-0.0284587
-0.0927459
-0.0303008
-0.0900381
-0.0319885
-0.085486
-0.0334783
-0.0793298
-0.0347162
-0.0718709
-0.0356395
-0.0634584
-0.0361779
-0.0544721
-0.0362567
-0.0453023
-0.035799
-0.0363285
-0.0278973
-0.0347292
0.0360659
0.0553444
-0.0343319
0.0373307
0.0645441
0.0381278
0.0738321
0.0384634
0.0828747
0.0383487
0.0913158
0.0377994
0.098797
0.0368362
0.104978
0.0354847
0.109555
0.0337747
0.112278
0.0317399
0.112959
0.0294172
0.111484
0.0268452
0.107813
0.0240634
0.101979
0.0211107
0.0940838
0.0180243
0.0842889
0.0148386
0.0728083
0.0115846
0.0598972
0.00828869
0.0458434
0.00497312
0.0309575
0.00165538
0.015565
-0.00165125
5.68488e-15
-0.00493725
-0.0154015
-0.00819603
-0.0303071
-0.011423
-0.0443934
-0.0146142
-0.057352
-0.0177653
-0.0688967
-0.02087
-0.0787708
-0.0239185
-0.0867562
-0.0268962
-0.0926821
-0.0297824
-0.0964349
-0.0325494
-0.097966
-0.0351618
-0.0972989
-0.0375764
-0.0945323
-0.0397426
-0.0898407
-0.0416032
-0.0834699
-0.0430967
-0.0757281
-0.044159
-0.0669723
-0.0447265
-0.057591
-0.0447386
-0.0479838
-0.0441413
-0.0385397
-0.0296157
-0.0428894
0.0339008
0.0616709
-0.0329874
0.0344808
0.0709727
0.0347421
0.0803122
0.0346979
0.0893539
0.03436
0.0977406
0.0337389
0.105114
0.0328443
0.111135
0.031686
0.1155
0.0302742
0.11796
0.02862
0.11833
0.0267358
0.116499
0.0246349
0.11243
0.0223315
0.10616
0.0198403
0.0977937
0.0171758
0.0875001
0.0143521
0.0754985
0.0113824
0.0620512
0.00827857
0.0474528
0.00505139
0.0320213
0.0017104
0.0160899
-0.00173559
0
-0.005278
-0.0159051
-0.00890771
-0.0312858
-0.0126141
-0.0458124
-0.0163838
-0.0591705
-0.0202
-0.0710687
-0.0240406
-0.0812461
-0.0278779
-0.089481
-0.0316769
-0.0956007
-0.0353951
-0.0994901
-0.0389824
-0.101101
-0.042381
-0.100457
-0.0455262
-0.0976586
-0.0483483
-0.0928833
-0.0507744
-0.0863794
-0.052731
-0.0784581
-0.0541475
-0.0694793
-0.0549592
-0.0598344
-0.0551108
-0.0499258
-0.05456
-0.0401457
-0.0308542
-0.0532794
0.0286241
0.0672206
-0.0282627
0.028805
0.0764769
0.0288224
0.0857255
0.0286874
0.0946336
0.0284053
0.102848
0.0279755
0.110014
0.027393
0.115796
0.0266495
0.119896
0.0257345
0.122069
0.0246365
0.122133
0.0233444
0.119978
0.0218475
0.115572
0.0201368
0.108953
0.0182046
0.100231
0.0160452
0.0895759
0.0136544
0.0772114
0.0110294
0.0634029
0.00816947
0.0484487
0.00507506
0.0326707
0.00174874
0.0164061
-0.00180471
-5.07121e-15
-0.00557764
-0.0162006
-0.00955875
-0.031853
-0.0137322
-0.0466242
-0.0180768
-0.0601978
-0.0225644
-0.0722804
-0.0271597
-0.08261
-0.0318188
-0.0909646
-0.0364891
-0.0971716
-0.0411086
-0.101117
-0.0456068
-0.102754
-0.0499056
-0.102107
-0.0539203
-0.0992796
-0.0575627
-0.0944496
-0.0607435
-0.0878665
-0.0633758
-0.0798417
-0.0653793
-0.0707345
-0.0666836
-0.0609352
-0.0672325
-0.0508442
-0.0669866
-0.0408516
-0.031316
-0.0659268
0.0203546
0.0714672
-0.020179
0.0204917
0.0805757
0.0206034
0.0896391
0.0206936
0.0983303
0.0207571
0.106303
0.0207804
0.11321
0.0207427
0.118723
0.0206177
0.12255
0.0203753
0.12445
0.0199833
0.124245
0.0194092
0.12183
0.0186215
0.117174
0.0175907
0.110317
0.01629
0.101369
0.014696
0.0905032
0.012789
0.0779423
0.010553
0.0639529
0.00797583
0.0488344
0.00504973
0.0329094
0.0017712
0.016516
-0.00185837
-6.35275e-20
-0.00583215
-0.0162909
-0.0101371
-0.0320138
-0.0147532
-0.0468357
-0.0196523
-0.0604407
-0.0247975
-0.0725367
-0.0301419
-0.082863
-0.0356285
-0.0911999
-0.0411894
-0.0973773
-0.0467466
-0.101284
-0.0522121
-0.102875
-0.05749
-0.102178
-0.0624786
-0.0992986
-0.0670729
-0.0944148
-0.0711686
-0.087776
-0.0746657
-0.079692
-0.0774732
-0.0705191
-0.079513
-0.0606432
-0.0807241
-0.0504596
-0.0810656
-0.0403527
-0.0306759
-0.0805194
0.00953627
0.0739178
-0.00915702
0.00999095
0.0828326
0.0105271
0.0916718
0.0111395
0.100117
0.0118121
0.107832
0.0125181
0.114478
0.0132221
0.119737
0.0138817
0.123322
0.0144495
0.125
0.0148759
0.124598
0.0151102
0.122013
0.0151035
0.117215
0.0148092
0.110246
0.0141848
0.101217
0.0131927
0.0902969
0.0118001
0.07771
0.00998027
0.0637208
0.00771221
0.0486272
0.00498111
0.0327502
0.00177868
0.0164264
-0.00189645
5.08925e-15
-0.00603811
-0.0161833
-0.0106319
-0.0317825
-0.0156543
-0.0464673
-0.0210719
-0.0599246
-0.0268404
-0.0718655
-0.0329039
-0.0820334
-0.0391946
-0.0902124
-0.0456327
-0.0962368
-0.0521266
-0.0999994
-0.0585746
-0.10146
-0.0648665
-0.100648
-0.0708859
-0.097672
-0.0765141
-0.0927103
-0.081634
-0.0860113
-0.0861338
-0.0778818
-0.0899126
-0.0686735
-0.092884
-0.058766
-0.0949807
-0.0485471
-0.0961574
-0.038393
-0.0286493
-0.0963933
-0.0030967
0.0741934
0.00401419
-0.00202205
0.0829203
-0.000792351
0.0915472
0.000577851
0.0997667
0.00206166
0.107253
0.0036207
0.113679
0.00520667
0.118736
0.00676354
0.122147
0.00822987
0.123684
0.00954133
0.123179
0.0106331
0.120534
0.011442
0.115719
0.0119081
0.108775
0.0119766
0.0998129
0.0115982
0.0889998
0.0107305
0.076556
0.00933804
0.0627437
0.00739292
0.0478572
0.00487497
0.0322145
0.00177216
0.0161485
-0.00191897
-4.9836e-15
-0.00619273
-0.0158891
-0.0110336
-0.0311817
-0.0164154
-0.045552
-0.0223005
-0.0586915
-0.0286388
-0.0703165
-0.0353674
-0.0801757
-0.0424101
-0.0880592
-0.0496777
-0.0938067
-0.0570683
-0.0973167
-0.0644692
-0.098553
-0.0717587
-0.0975508
-0.0788092
-0.0944186
-0.0854908
-0.0893365
-0.0916755
-0.0825513
-0.0972418
-0.0743662
-0.10208
-0.0651273
-0.106094
-0.0552063
-0.109212
-0.0449825
-0.11138
-0.0348225
-0.0250625
-0.112573
-0.0165907
0.0182578
-0.0147076
-0.0126202
-0.010353
-0.0079435
-0.00544085
-0.00290452
-0.000402037
0.00199358
0.00420643
0.00616033
0.0077811
0.00899859
0.00974823
0.00997227
0.00962062
0.00865145
0.0070316
0.00473693
0.00175267
-0.00192613
-0.00629403
-0.0113346
-0.0170194
-0.0233075
-0.0301445
-0.0374619
-0.0451772
-0.0531937
-0.0614016
-0.0696796
-0.077897
-0.0859172
-0.0936009
-0.100811
-0.107417
-0.113301
-0.118358
-0.122506
-0.125684
-0.127856
0.00454707
-0.11757
-0.000410625
-0.104395
-0.00376578
-0.0903981
-0.00566209
-0.0765372
-0.00641201
-0.0636067
-0.00641367
-0.0521733
-0.00606186
-0.0425427
-0.00566973
-0.0347612
-0.00541542
-0.0286495
-0.00532339
-0.0238648
-0.00528392
-0.0199807
-0.00510713
-0.0165753
-0.00460163
-0.0133136
-0.00366274
-0.0100149
-0.00235288
-0.00669526
-0.000957085
-0.0035785
-0.00107542
-0.00344488
-0.107267
-0.00792579
-0.0960442
-0.0108811
-0.0840603
-0.0124319
-0.0720723
-0.0128412
-0.0607221
-0.012451
-0.0504882
-0.0116131
-0.0416584
-0.0106261
-0.0343252
-0.00968864
-0.0284042
-0.00887718
-0.0236715
-0.00815083
-0.0198167
-0.00738365
-0.0165032
-0.00641848
-0.0134297
-0.00513345
-0.0103847
-0.00350962
-0.00728727
-0.00168731
-0.00420982
-0.00137906
-0.0103236
-0.0970676
-0.0143966
-0.0876231
-0.0170392
-0.0774711
-0.0183473
-0.0672055
-0.0185363
-0.0573406
-0.0178929
-0.0482757
-0.0167228
-0.0402731
-0.0153002
-0.0334505
-0.0138286
-0.0277895
-0.0124174
-0.0231571
-0.0110774
-0.0193391
-0.00973788
-0.0160798
-0.00828081
-0.0131262
-0.006588
-0.010269
-0.00459431
-0.00737809
-0.00233799
-0.00442733
-0.001507
-0.0159835
-0.0870872
-0.019705
-0.0792366
-0.0221037
-0.0707305
-0.0232509
-0.0620307
-0.023317
-0.0535455
-0.0225365
-0.0456039
-0.0211682
-0.0384383
-0.0194559
-0.0321762
-0.017596
-0.0268424
-0.0157148
-0.0223707
-0.0138594
-0.0186232
-0.0120039
-0.0154163
-0.0100688
-0.01255
-0.00795275
-0.00983774
-0.00557116
-0.00713429
-0.00289738
-0.00435868
-0.0015098
-0.0203876
-0.0774327
-0.0238005
-0.0709893
-0.0260062
-0.0639433
-0.0270524
-0.0566503
-0.0270693
-0.0494311
-0.0262435
-0.0425535
-0.0247881
-0.0362181
-0.0229137
-0.0305512
-0.0208008
-0.0256034
-0.0185803
-0.021355
-0.0163223
-0.0177266
-0.0140346
-0.0145948
-0.0116726
-0.0118109
-0.00915825
-0.00922156
-0.00640643
-0.00668924
-0.00335577
-0.00411056
-0.00143152
-0.0235615
-0.0682
-0.0266959
-0.0629811
-0.028742
-0.0572141
-0.029727
-0.0511701
-0.0297457
-0.0450986
-0.0289419
-0.0392141
-0.0274866
-0.0336861
-0.025556
-0.0286324
-0.0233098
-0.0241165
-0.0208744
-0.020149
-0.0183314
-0.0166931
-0.0157123
-0.0136731
-0.0130014
-0.0109861
-0.0101459
-0.00851514
-0.00707199
-0.00614302
-0.00370644
-0.00376635
-0.00130789
-0.0255824
-0.0594716
-0.0284575
-0.0553029
-0.0303628
-0.0506423
-0.0313085
-0.0456942
-0.0313595
-0.0406499
-0.0306227
-0.035679
-0.0292311
-0.0309215
-0.0273277
-0.0264825
-0.025049
-0.022429
-0.0225107
-0.0187897
-0.0197971
-0.0155569
-0.0169543
-0.0126909
-0.0139891
-0.0101268
-0.0108724
-0.00778195
-0.00754797
-0.00556517
-0.00394621
-0.00338639
-0.00116569
-0.0265668
-0.0513139
-0.0291932
-0.0480335
-0.030965
-0.0443182
-0.031879
-0.0403197
-0.0319757
-0.0361832
-0.0313311
-0.0320406
-0.0300453
-0.0280051
-0.0282306
-0.0241668
-0.0259998
-0.0205903
-0.0234543
-0.0173131
-0.0206749
-0.014346
-0.0177151
-0.0116748
-0.0145971
-0.0092639
-0.0113123
-0.00706033
-0.00782409
-0.00499934
-0.00407573
-0.00301034
-0.00102321
-0.0266559
-0.0437761
-0.0290382
-0.0412366
-0.0306757
-0.0383184
-0.031555
-0.035133
-0.0316978
-0.0317886
-0.0311547
-0.0283861
-0.0299981
-0.0250149
-0.0283136
-0.0217502
-0.0261911
-0.01865
-0.0237161
-0.0157544
-0.0209619
-0.0130842
-0.0179837
-0.0106422
-0.0148134
-0.00841388
-0.0114581
-0.00636984
-0.00789989
-0.00446873
-0.00409928
-0.00266072
-0.000891353
-0.0260015
-0.0368886
-0.0281414
-0.0349584
-0.0296388
-0.0327041
-0.0304738
-0.0302061
-0.0306536
-0.0275439
-0.0302094
-0.0247931
-0.0291909
-0.022023
-0.0276607
-0.019294
-0.0256884
-0.0166561
-0.0233434
-0.0141473
-0.0206895
-0.0117929
-0.0177793
-0.00960525
-0.0146495
-0.007584
-0.0113183
-0.005717
-0.00778388
-0.0039817
-0.00402437
-0.00234695
-0.000775171
-0.0247537
-0.0306638
-0.0266519
-0.0292276
-0.0280017
-0.027519
-0.0287793
-0.0255949
-0.0289818
-0.0235126
-0.0286257
-0.0213276
-0.027743
-0.0190921
-0.0263777
-0.0168534
-0.0245815
-0.0146526
-0.0224092
-0.0125234
-0.019914
-0.0104911
-0.0171434
-0.00857265
-0.0141352
-0.00677594
-0.0109146
-0.00510029
-0.00749182
-0.00353685
-0.00386097
-0.00206941
-0.00067546
-0.0230504
-0.025097
-0.0247085
-0.0240554
-0.0259036
-0.0227893
-0.02661
-0.0213382
-0.0268188
-0.0197422
-0.0265356
-0.0180413
-0.0257793
-0.0162737
-0.0245792
-0.0144752
-0.0229725
-0.0126783
-0.0210007
-0.0109108
-0.018707
-0.00919591
-0.0161324
-0.00755123
-0.0133131
-0.00598857
-0.0102777
-0.00451386
-0.00704461
-0.00312715
-0.00362069
-0.00182287
-0.000590271
-0.0210093
-0.0201684
-0.0224311
-0.0194369
-0.0234662
-0.0185245
-0.0240896
-0.0174578
-0.0242885
-0.0162643
-0.0240617
-0.0149716
-0.0234187
-0.0136069
-0.0223777
-0.0121964
-0.0209643
-0.0107644
-0.0192093
-0.0093331
-0.0171463
-0.00792171
-0.0148097
-0.00654633
-0.0122324
-0.00521953
-0.00944334
-0.00395011
-0.00646591
-0.00274301
-0.00331583
-0.00159927
-0.00051615
-0.0187235
-0.0158457
-0.0199152
-0.0153535
-0.0207883
-0.0147194
-0.0213195
-0.0139605
-0.0214949
-0.013095
-0.0213093
-0.0121413
-0.0207655
-0.011118
-0.0198742
-0.0100433
-0.0186521
-0.00893461
-0.0171213
-0.00780845
-0.0153075
-0.00667977
-0.0132385
-0.00556183
-0.010943
-0.00446593
-0.00844847
-0.00340116
-0.00577996
-0.0023743
-0.00295855
-0.00138967
-0.000449071
-0.0162585
-0.0120872
-0.017229
-0.0117754
-0.0179415
-0.011356
-0.0183756
-0.0108394
-0.0185176
-0.0102368
-0.0183605
-0.00956005
-0.0179036
-0.008821
-0.017152
-0.00803166
-0.0161163
-0.00720381
-0.014812
-0.00634883
-0.0132582
-0.00547747
-0.0114768
-0.00459968
-0.00949182
-0.00372442
-0.00732798
-0.00285948
-0.00500973
-0.00201142
-0.00256018
-0.00118538
-0.000385041
-0.0136524
-0.0088445
-0.0144131
-0.00866462
-0.01497
-0.0084066
-0.0153061
-0.00807639
-0.0154095
-0.00768041
-0.0152727
-0.00722548
-0.0148932
-0.00671871
-0.0142733
-0.00616733
-0.0134191
-0.00557862
-0.0123413
-0.00495979
-0.0110536
-0.00431784
-0.00957308
-0.00365944
-0.007919
-0.00299088
-0.00611244
-0.00231789
-0.00417553
-0.00164564
-0.00213071
-0.000978579
-0.000320429
-0.0109175
-0.0060661
-0.0114817
-0.00597781
-0.0118911
-0.00583655
-0.0121329
-0.00564522
-0.0121971
-0.00540701
-0.0120774
-0.0051254
-0.011771
-0.00480407
-0.0112782
-0.00444683
-0.0106027
-0.00405763
-0.0097517
-0.00364042
-0.00873487
-0.00319917
-0.00756483
-0.00273774
-0.0062565
-0.0022599
-0.00482679
-0.00176922
-0.00329423
-0.00126903
-0.0016785
-0.000762401
-0.000252088
-0.00804249
-0.0036995
-0.00842491
-0.00366896
-0.00869826
-0.00360659
-0.00885337
-0.00351341
-0.00888327
-0.00339063
-0.00878319
-0.00323958
-0.0085507
-0.00306175
-0.00818567
-0.00285869
-0.00769032
-0.00263205
-0.00706913
-0.00238355
-0.00632878
-0.00211492
-0.00547804
-0.00182793
-0.00452759
-0.00152433
-0.0034899
-0.00120584
-0.002379
-0.000874132
-0.00121022
-0.000530799
-0.00017735
-0.00499629
-0.00169357
-0.00521294
-0.00169153
-0.00536414
-0.00167515
-0.00544459
-0.00164457
-0.0054502
-0.00159996
-0.00537816
-0.00154155
-0.00522701
-0.00146962
-0.00499661
-0.0013845
-0.00468824
-0.00128655
-0.00430452
-0.00117618
-0.00384942
-0.0010538
-0.00332825
-0.000919876
-0.00274754
-0.000774877
-0.00211504
-0.00061929
-0.00143959
-0.000453608
-0.000731005
-0.00027833
-9.39557e-05
-0.00173195
-2.52395e-18
-0.00179973
-2.00156e-18
-0.00184541
-2.1452e-18
-0.00186729
-2.08749e-18
-0.00186411
-1.62483e-18
-0.00183498
-1.54645e-18
-0.00177947
-1.47167e-18
-0.0016976
-1.10303e-18
-0.00158985
-7.67405e-19
-0.00145713
-5.47464e-19
-0.00130084
-3.09433e-19
-0.00112281
-3.11022e-19
-0.000925311
-3.86561e-19
-0.000711024
-2.70954e-19
-0.000483027
-1.38355e-19
-0.000244762
-5.54595e-20
-1.1098e-20
0.00180909
0.00142572
0.00187225
0.00144907
0.00191271
0.0014608
0.0019289
0.00146028
0.00191965
0.00144692
0.00188422
0.00142014
0.00182229
0.00137937
0.00173401
0.00132409
0.00161997
0.00125379
0.00148122
0.00116802
0.0013193
0.00106635
0.00113615
0.000948424
0.000934179
0.00081392
0.000716196
0.000662586
0.000485407
0.000494234
0.000245377
0.000308746
0.000106076
0.00569217
0.00262397
0.00586701
0.00269671
0.00597106
0.00274838
0.00600005
0.002777
0.00595094
0.00278058
0.005822
0.00275713
0.00561287
0.00270471
0.00532456
0.00262141
0.00495949
0.00250542
0.00452143
0.00235502
0.00401553
0.0021686
0.00344824
0.00194471
0.00282728
0.00168208
0.00216154
0.0013796
0.00146097
0.00103639
0.000736528
0.000651795
0.000225402
0.00998429
0.00363122
0.0102496
0.00378166
0.0103909
0.00390323
0.010402
0.0039917
0.0102787
0.00404281
0.0100195
0.00405227
0.00962498
0.00401587
0.0090982
0.00392952
0.00844461
0.00378929
0.00767192
0.00359148
0.00679006
0.0033327
0.00581101
0.00300988
0.00474869
0.00262035
0.0036187
0.0021619
0.00243818
0.00163281
0.00122549
0.00103188
0.000358507
0.0147483
0.00448064
0.0150801
0.00474101
0.0152277
0.00496569
0.0151838
0.00514714
0.0149447
0.00527773
0.01451
0.00534989
0.0138831
0.00535618
0.0130707
0.00528944
0.0120831
0.00514291
0.0109335
0.00491035
0.00963828
0.00458612
0.00821622
0.00416534
0.00668849
0.00364395
0.00507812
0.00301881
0.00340956
0.0022878
0.00170821
0.00144985
0.00050504
0.0200365
0.00520304
0.0204071
0.00561111
0.0205245
0.00597684
0.0203815
0.00628801
0.0199764
0.00653231
0.0193122
0.00669765
0.018397
0.0067723
0.0172435
0.00674519
0.015869
0.00660606
0.0142944
0.00634574
0.0125445
0.0059563
0.0106463
0.00543124
0.00862959
0.00476567
0.00652513
0.00395644
0.00436455
0.00300223
0.00217932
0.00190369
0.000663434
0.025884
0.00582796
0.026261
0.0064286
0.026305
0.00697942
0.0260109
0.00746169
0.0253809
0.0078568
0.0244239
0.00814663
0.0231558
0.00831401
0.021598
0.00834305
0.0197775
0.00821955
0.0177259
0.00793136
0.0154782
0.00746865
0.0130718
0.0068242
0.0105456
0.00599364
0.00793857
0.00497561
0.00528871
0.0037719
0.00263174
0.00238749
0.000830533
0.0323016
0.00638478
0.032647
0.00723149
0.0325671
0.00801873
0.0320611
0.00871893
0.0311381
0.00930503
0.0298164
0.00975119
0.0281226
0.0100334
0.0260908
0.0101303
0.0237613
0.0100235
0.0211789
0.00969829
0.0183917
0.00914408
0.0154489
0.00835471
0.0123995
0.00732875
0.00929002
0.00606966
0.00616331
0.00458578
0.00305656
0.00289035
0.00100126
0.039269
0.00690354
0.0395386
0.00805983
0.0392764
0.00914313
0.0384891
0.010114
0.0371962
0.0109343
0.0354293
0.0115683
0.0332306
0.011984
0.0306508
0.0121536
0.0277476
0.012055
0.0245826
0.0116722
0.0212191
0.010996
0.0177198
0.0100241
0.0141437
0.00876195
0.0105439
0.00722212
0.00696539
0.00542445
0.00344304
0.00339559
0.00116843
0.0467294
0.00741543
0.0468726
0.00895604
0.0463621
0.0104041
0.0452156
0.0117045
0.0434678
0.0128045
0.0411686
0.0136563
0.0383811
0.0142181
0.0351779
0.014456
0.0316382
0.014345
0.0278442
0.0138701
0.023877
0.0130267
0.0198131
0.0118214
0.0157212
0.0102715
0.0116585
0.00840482
0.00766848
0.006259
0.00377883
0.00388038
0.00132274
0.0545852
0.00795268
0.0545456
0.00996453
0.0537138
0.0118557
0.0521231
0.01355
0.049829
0.0149765
0.0469061
0.0160723
0.0434444
0.0167848
0.0395443
0.0170742
0.0353117
0.0169148
0.0308525
0.0162963
0.0262675
0.0152242
0.0216473
0.0137201
0.0170682
0.0118207
0.012588
0.00957657
0.00824381
0.0070507
0.00405048
0.00431607
0.00145312
0.0626965
0.00854767
0.0624133
0.0111304
0.0611819
0.0135524
0.059057
0.0157102
0.0561216
0.0175096
0.0524825
0.0188695
0.0482637
0.0197258
0.0435998
0.0200341
0.0386285
0.0197716
0.0334827
0.0189386
0.0282839
0.0175583
0.0231356
0.0156759
0.0181183
0.0133565
0.0132855
0.010683
0.00866218
0.00775184
0.00424415
0.00466946
0.00154743
0.0708831
0.00923131
0.0702931
0.0124976
0.0685815
0.0155473
0.0658305
0.0182419
0.062159
0.020458
0.0577141
0.022093
0.0526623
0.0230711
0.0471794
0.0233461
0.0414394
0.0229042
0.0356051
0.0217646
0.0298184
0.0199779
0.0241928
0.0176245
0.018808
0.0148094
0.0137071
0.0116577
0.00889615
0.00830799
0.00434645
0.00490518
0.00159363
0.0789293
0.0100305
0.0779707
0.0141054
0.075699
0.0178881
0.0722325
0.0211949
0.0677346
0.0238661
0.0624026
0.0257749
0.0564544
0.026834
0.0501138
0.0270008
0.0435962
0.0262787
0.0370952
0.0247174
0.0307712
0.0224088
0.024743
0.0194819
0.0190829
0.0160948
0.013816
0.0124257
0.00892249
0.00866182
0.00434535
0.0049891
0.00158127
0.0865932
0.010965
0.0852092
0.0159852
0.0823038
0.0206129
0.0780394
0.0246072
0.0726348
0.027764
0.0663481
0.029929
0.0594579
0.0310061
0.0522433
0.0309635
0.0449644
0.0298345
0.0378452
0.0277143
0.0310608
0.0247532
0.0247283
0.0211456
0.0189039
0.0171169
0.0135864
0.0129078
0.0087245
0.00875857
0.00423117
0.00489284
0.00150338
0.0936189
0.0120438
0.0917631
0.0181557
0.0881612
0.0237455
0.0830296
0.0285001
0.0766537
0.0321619
0.0693639
0.0345459
0.0615096
0.0355521
0.0534314
0.0351707
0.0454363
0.0334813
0.0377764
0.030645
0.0306345
0.0268912
0.0241166
0.0224986
0.018253
0.017774
0.0130076
0.0130281
0.00829397
0.00855276
0.00399734
0.00459874
0.0013583
0.0997517
0.0132613
0.0973929
0.0206185
0.0930486
0.0272903
0.0869991
0.0328732
0.0796087
0.0370448
0.0712925
0.0395881
0.0624801
0.0404061
0.0535794
0.0395269
0.0449442
0.0370985
0.0368495
0.0333732
0.0294764
0.028684
0.022908
0.0234148
0.0171374
0.0179663
0.0120864
0.012722
0.0076324
0.0080157
0.00364094
0.00410505
0.00115152
0.104755
0.0145936
0.101882
0.0233541
0.0967718
0.0312279
0.0897779
0.0376992
0.0813566
0.0423686
0.07202
0.0449859
0.0622875
0.0454682
0.052638
0.0439031
0.0434702
0.0405353
0.0350732
0.0357392
0.0276137
0.0299802
0.0211382
0.0237677
0.0155912
0.0176058
0.0108472
0.0119454
0.00675118
0.00714314
0.00316301
0.00343051
0.000896916
0.108426
0.0159966
0.105054
0.0263181
0.0991807
0.0355112
0.0912445
0.0429208
0.0818066
0.0480564
0.0714885
0.050635
0.0609079
0.0506038
0.0506169
0.0481376
0.041053
0.0436138
0.0325082
0.0375661
0.0251188
0.0306232
0.0188792
0.0234399
0.0136748
0.0166261
0.00933123
0.0106847
0.00567067
0.0059619
0.00256844
0.00261747
0.000617278
0.110611
0.017404
0.106784
0.0294398
0.100181
0.0400633
0.0913375
0.0484489
0.0809307
0.0539977
0.0697045
0.0563969
0.0583818
0.0556445
0.0475876
0.0520391
0.0377897
0.0461348
0.0292666
0.0386673
0.0221062
0.0304622
0.0162346
0.0223346
0.0114699
0.0149938
0.00759234
0.00896466
0.00441812
0.00453466
0.00186544
0.00173296
0.000343703
0.11122
0.0187287
0.10701
0.0326213
0.0997458
0.0447774
0.0900624
0.0541619
0.0787686
0.060049
0.0667412
0.0621
0.0548145
0.060392
0.0436826
0.0553925
0.0338311
0.0478851
0.0255058
0.0388569
0.0187254
0.029363
0.0133322
0.0203873
0.00907255
0.012718
0.00569175
0.00685495
0.00302453
0.00296183
0.00106487
0.000866953
0.000113761
-0.124249
-0.0631496
0.128327
-0.119277
-0.0616635
-0.113538
-0.0591409
-0.107159
-0.0557113
-0.100271
-0.0515444
-0.0930016
-0.0468371
-0.0854714
-0.0417992
-0.0777942
-0.0366392
-0.0700739
-0.0315506
-0.062404
-0.0267005
-0.0548674
-0.0222214
-0.0475363
-0.018206
-0.0404728
-0.0147049
-0.0337291
-0.0117282
-0.0273487
-0.00924872
-0.021367
-0.00720688
-0.0158121
-0.00551716
-0.0107058
-0.00407424
-0.00606461
-0.00275909
-0.00190046
-0.00144451
0.00177833
-1.35904e-15
0.00496635
0.00170395
0.00766035
0.00379189