/*--------------------------------*- C++ -*----------------------------------*\
  =========                 |
  \\      /  F ield         | OpenFOAM: The Open Source CFD Toolbox
   \\    /   O peration     | Website:  https://openfoam.org
    \\  /    A nd           | Version:  6
     \\/     M anipulation  |
\*---------------------------------------------------------------------------*/
FoamFile
{
    version     2.0;
    format      ascii;
    class       volScalarField;
    location    "3.98";
    object      rho;
}
// * * * * * * * * * * * * * * * * * * * * * * * * * * * * * * * * * * * * * //

dimensions      [1 -3 0 0 0 0 0];

internalField   nonuniform List<scalar> 
10000
(
1.4
1.4
1.4
1.40001
1.40001
1.4
1.40001
1.4
1.40001
1.40001
1.40001
1.40001
1.40001
1.4
1.40001
1.4
1.40001
1.4
1.40001
1.4
1.40001
1.40001
1.4
1.40001
1.40001
1.40001
1.40001
1.40001
1.4
1.40001
1.4
1.4
1.40001
1.40001
1.4
1.40001
1.40001
1.40001
1.40001
1.40001
1.40001
1.40001
1.40001
1.40001
1.40001
1.40001
1.4
1.4
1.39998
1.39997
1.39995
1.39993
1.39991
1.39989
1.39989
1.3999
1.39994
1.40001
1.40011
1.40024
1.4004
1.40058
1.40076
1.40095
1.40113
1.40128
1.40141
1.4015
1.40154
1.40155
1.40152
1.40145
1.40135
1.40124
1.40111
1.40097
1.40083
1.4007
1.40057
1.40046
1.40036
1.40028
1.40021
1.40015
1.40011
1.40007
1.40005
1.40003
1.40002
1.40001
1.40001
1.4
1.4
1.4
1.4
1.4
1.4
1.4
1.4
1.4
1.4
1.4
1.40001
1.4
1.40001
1.4
1.40001
1.40001
1.40001
1.40001
1.40001
1.4
1.40001
1.4
1.40001
1.40001
1.4
1.40001
1.40001
1.4
1.40001
1.4
1.40001
1.4
1.40001
1.4
1.4
1.40001
1.40001
1.4
1.40001
1.40001
1.4
1.40001
1.40001
1.40001
1.40001
1.40001
1.40001
1.40001
1.40001
1.40001
1.40001
1.40001
1.40001
1.40001
1.40001
1.4
1.39998
1.39997
1.39994
1.39992
1.39991
1.39991
1.39993
1.39998
1.40007
1.40021
1.40039
1.40061
1.40087
1.40115
1.40144
1.40172
1.40197
1.40219
1.40236
1.40246
1.40251
1.40248
1.4024
1.40227
1.40209
1.40189
1.40167
1.40145
1.40122
1.40102
1.40083
1.40066
1.40051
1.40039
1.40029
1.4002
1.40014
1.40009
1.40006
1.40004
1.40002
1.40001
1.40001
1.4
1.4
1.4
1.4
1.4
1.4
1.4
1.4
1.4
1.4
1.4
1.4
1.4
1.40001
1.4
1.40001
1.40001
1.40001
1.40001
1.40001
1.40001
1.4
1.40001
1.4
1.40001
1.40001
1.4
1.40001
1.4
1.40001
1.40001
1.40001
1.40001
1.4
1.40001
1.40001
1.4
1.40001
1.40001
1.40001
1.4
1.40001
1.4
1.40001
1.40001
1.40001
1.40001
1.40001
1.40001
1.40001
1.40001
1.40002
1.40002
1.40002
1.40002
1.40001
1.4
1.39999
1.39997
1.39995
1.39993
1.39993
1.39996
1.40003
1.40014
1.40032
1.40057
1.40088
1.40124
1.40165
1.40208
1.40252
1.40293
1.4033
1.4036
1.40382
1.40395
1.40398
1.40391
1.40375
1.40352
1.40322
1.40289
1.40253
1.40217
1.40182
1.40149
1.4012
1.40094
1.40073
1.40054
1.4004
1.40028
1.40019
1.40012
1.40008
1.40004
1.40002
1.40001
1.4
1.4
1.4
1.4
1.4
1.4
1.4
1.4
1.4
1.4
1.4
1.4
1.4
1.4
1.40001
1.4
1.4
1.40001
1.4
1.40001
1.4
1.40001
1.40001
1.4
1.40001
1.4
1.40001
1.4
1.40001
1.4
1.40001
1.4
1.40001
1.4
1.40001
1.4
1.40001
1.40001
1.4
1.40001
1.40001
1.4
1.40001
1.40001
1.40001
1.40001
1.40001
1.40001
1.40001
1.40001
1.40001
1.40002
1.40002
1.40002
1.40003
1.40002
1.40002
1.40001
1.39999
1.39998
1.39996
1.39997
1.4
1.40008
1.40023
1.40045
1.40077
1.40118
1.40168
1.40226
1.40289
1.40354
1.40418
1.40478
1.40529
1.40571
1.406
1.40615
1.40615
1.40602
1.40575
1.40538
1.40491
1.40438
1.40382
1.40325
1.40271
1.40221
1.40176
1.40137
1.40104
1.40077
1.40056
1.40039
1.40026
1.40017
1.4001
1.40006
1.40003
1.40001
1.4
1.4
1.4
1.4
1.4
1.4
1.4
1.4
1.4
1.4
1.4
1.4
1.4
1.4
1.4
1.40001
1.4
1.40001
1.4
1.40001
1.40001
1.4
1.40001
1.40001
1.4
1.40001
1.40001
1.40001
1.4
1.40001
1.4
1.40001
1.40001
1.40001
1.4
1.40001
1.4
1.40001
1.4
1.40001
1.4
1.40001
1.4
1.40001
1.40001
1.40001
1.40001
1.40001
1.40001
1.40001
1.40002
1.40002
1.40003
1.40003
1.40004
1.40004
1.40003
1.40002
1.40001
1.4
1.40001
1.40005
1.40014
1.40031
1.40058
1.40098
1.40151
1.40217
1.40296
1.40384
1.40477
1.40572
1.40663
1.40747
1.40818
1.40874
1.40911
1.40929
1.40927
1.40904
1.40863
1.40805
1.40735
1.40655
1.40571
1.40485
1.40403
1.40327
1.40259
1.40201
1.40151
1.40111
1.40079
1.40055
1.40036
1.40023
1.40014
1.40007
1.40003
1.40001
1.4
1.39999
1.39999
1.39999
1.39999
1.4
1.4
1.4
1.4
1.4
1.4
1.4
1.4
1.4
1.4
1.4
1.4
1.40001
1.4
1.40001
1.40001
1.40001
1.40001
1.40001
1.40001
1.4
1.40001
1.40001
1.40001
1.40001
1.40001
1.40001
1.4
1.40001
1.4
1.4
1.40001
1.40001
1.4
1.40001
1.40001
1.40001
1.40001
1.40001
1.40001
1.40001
1.40001
1.40001
1.40001
1.40002
1.40002
1.40003
1.40004
1.40004
1.40005
1.40005
1.40005
1.40004
1.40004
1.40005
1.40009
1.4002
1.40039
1.4007
1.40118
1.40183
1.40268
1.4037
1.40488
1.40616
1.4075
1.40884
1.4101
1.41123
1.41218
1.4129
1.41338
1.41359
1.41352
1.41319
1.4126
1.41178
1.41078
1.40963
1.40841
1.40716
1.40595
1.40483
1.40382
1.40294
1.40221
1.40162
1.40115
1.40079
1.40052
1.40032
1.40019
1.4001
1.40004
1.40001
1.39999
1.39998
1.39998
1.39999
1.39999
1.39999
1.4
1.4
1.4
1.4
1.4
1.4
1.4
1.4
1.4
1.4
1.4
1.40001
1.40001
1.4
1.40001
1.4
1.40001
1.40001
1.4
1.40001
1.4
1.40001
1.4
1.40001
1.4
1.40001
1.4
1.40001
1.40001
1.40001
1.4
1.40001
1.4
1.4
1.4
1.40001
1.4
1.40001
1.40001
1.40001
1.40001
1.40001
1.40002
1.40002
1.40003
1.40004
1.40005
1.40006
1.40007
1.40008
1.40008
1.40008
1.4001
1.40014
1.40025
1.40045
1.4008
1.40135
1.40212
1.40315
1.40444
1.40595
1.40765
1.40946
1.41131
1.4131
1.41477
1.41623
1.41744
1.41834
1.41892
1.41916
1.41905
1.4186
1.41782
1.41674
1.41539
1.41383
1.41214
1.4104
1.40868
1.40705
1.40559
1.40431
1.40323
1.40236
1.40167
1.40114
1.40075
1.40046
1.40027
1.40014
1.40006
1.40001
1.39999
1.39998
1.39997
1.39998
1.39998
1.39999
1.39999
1.4
1.4
1.4
1.4
1.4
1.4
1.4
1.4
1.4
1.4
1.40001
1.40001
1.40001
1.40001
1.40001
1.4
1.40001
1.4
1.40001
1.40001
1.40001
1.40001
1.40001
1.40001
1.40001
1.4
1.40001
1.4
1.40001
1.4
1.40001
1.40001
1.4
1.4
1.40001
1.40001
1.40001
1.40001
1.40001
1.40001
1.40001
1.40002
1.40003
1.40004
1.40005
1.40007
1.40008
1.4001
1.40011
1.40012
1.40014
1.40019
1.4003
1.40051
1.40088
1.40147
1.40235
1.40356
1.40511
1.40699
1.40914
1.41149
1.41393
1.41635
1.41865
1.42074
1.42253
1.42397
1.42503
1.42569
1.42594
1.42579
1.42524
1.42429
1.42296
1.42128
1.41929
1.41709
1.41475
1.41241
1.41015
1.40808
1.40626
1.40471
1.40344
1.40243
1.40166
1.40109
1.40068
1.40039
1.40021
1.40009
1.40002
1.39998
1.39997
1.39996
1.39997
1.39997
1.39998
1.39999
1.39999
1.4
1.4
1.4
1.4
1.4
1.4
1.4
1.4
1.4
1.40001
1.4
1.40001
1.40001
1.40001
1.4
1.40001
1.40001
1.4
1.40001
1.4
1.40001
1.40001
1.4
1.40001
1.40001
1.4
1.40001
1.40001
1.4
1.40001
1.40001
1.4
1.40001
1.40001
1.40001
1.40001
1.40001
1.40001
1.40001
1.40002
1.40003
1.40004
1.40005
1.40007
1.40009
1.40011
1.40014
1.40016
1.40018
1.40023
1.40034
1.40054
1.40091
1.40154
1.40249
1.40385
1.40565
1.40789
1.41052
1.41346
1.41655
1.41968
1.42269
1.42546
1.42788
1.42991
1.43149
1.43262
1.43331
1.43355
1.43337
1.43276
1.43172
1.43024
1.42832
1.42598
1.42329
1.42035
1.41731
1.41431
1.41149
1.40896
1.40678
1.40498
1.40353
1.40242
1.4016
1.401
1.40059
1.40031
1.40014
1.40003
1.39998
1.39995
1.39995
1.39995
1.39996
1.39997
1.39998
1.39999
1.39999
1.4
1.4
1.4
1.4
1.4
1.4
1.4
1.4
1.4
1.4
1.40001
1.4
1.40001
1.4
1.40001
1.4
1.40001
1.40001
1.40001
1.4
1.40001
1.4
1.40001
1.40001
1.4
1.40001
1.40001
1.4
1.40001
1.40001
1.4
1.4
1.40001
1.40001
1.40001
1.40001
1.40001
1.40002
1.40002
1.40003
1.40005
1.40007
1.40009
1.40012
1.40015
1.40018
1.40022
1.40027
1.40037
1.40056
1.40092
1.40154
1.40253
1.404
1.40601
1.40859
1.4117
1.41523
1.41902
1.42289
1.42665
1.43012
1.43318
1.43575
1.4378
1.43933
1.44037
1.44097
1.44115
1.44095
1.44037
1.43939
1.43796
1.43602
1.43355
1.43056
1.42714
1.42344
1.41965
1.41598
1.41259
1.40962
1.40711
1.40509
1.40351
1.40233
1.40147
1.40088
1.40047
1.40022
1.40007
1.39998
1.39995
1.39993
1.39994
1.39995
1.39996
1.39997
1.39998
1.39999
1.39999
1.4
1.4
1.4
1.4
1.4
1.4
1.4
1.4
1.4
1.40001
1.4
1.40001
1.4
1.40001
1.40001
1.4
1.40001
1.4
1.40001
1.4
1.40001
1.4
1.40001
1.4
1.40001
1.4
1.40001
1.4
1.40001
1.4
1.40001
1.40001
1.40001
1.40001
1.40001
1.40001
1.40002
1.40003
1.40005
1.40006
1.40009
1.40012
1.40016
1.4002
1.40024
1.4003
1.4004
1.40057
1.40091
1.4015
1.40248
1.40398
1.40614
1.40901
1.41256
1.41668
1.42117
1.42581
1.43031
1.43447
1.4381
1.44111
1.44346
1.44519
1.44636
1.44707
1.44742
1.44747
1.44726
1.44682
1.44609
1.445
1.44342
1.44122
1.43832
1.43474
1.4306
1.42613
1.42161
1.41728
1.41337
1.41
1.40723
1.40504
1.40337
1.40216
1.4013
1.40073
1.40035
1.40013
1.4
1.39994
1.39992
1.39992
1.39993
1.39995
1.39996
1.39997
1.39998
1.39999
1.39999
1.4
1.4
1.4
1.4
1.4
1.4
1.4
1.4
1.40001
1.4
1.40001
1.4
1.40001
1.4
1.40001
1.4
1.40001
1.4
1.40001
1.40001
1.4
1.40001
1.40001
1.4
1.40001
1.4
1.40001
1.4
1.40001
1.40001
1.40001
1.40001
1.40001
1.40001
1.40002
1.40002
1.40004
1.40006
1.40008
1.40012
1.40016
1.40021
1.40026
1.40032
1.40042
1.40058
1.40087
1.40141
1.40233
1.40382
1.40604
1.4091
1.41301
1.41768
1.42287
1.42825
1.4335
1.4383
1.44241
1.44569
1.44811
1.44974
1.45069
1.45113
1.45123
1.45113
1.45094
1.45074
1.45054
1.4503
1.44989
1.44912
1.44775
1.44554
1.44238
1.43829
1.43348
1.42827
1.42304
1.41812
1.41375
1.41007
1.4071
1.40482
1.40312
1.40192
1.4011
1.40056
1.40023
1.40004
1.39995
1.39991
1.3999
1.39991
1.39993
1.39995
1.39996
1.39998
1.39999
1.39999
1.39999
1.4
1.4
1.4
1.4
1.4
1.4
1.4
1.4
1.4
1.40001
1.4
1.40001
1.4
1.40001
1.40001
1.4
1.40001
1.4
1.40001
1.4
1.4
1.40001
1.4
1.4
1.40001
1.4
1.4
1.40001
1.40001
1.40001
1.40001
1.40001
1.40001
1.40002
1.40003
1.40005
1.40007
1.40011
1.40015
1.4002
1.40026
1.40033
1.40043
1.40057
1.40083
1.4013
1.40213
1.40353
1.4057
1.40884
1.41302
1.41815
1.42397
1.4301
1.43607
1.44146
1.44594
1.44932
1.45156
1.45276
1.4531
1.45282
1.45216
1.45137
1.45064
1.45013
1.44992
1.45004
1.45045
1.45103
1.45153
1.45158
1.4508
1.44885
1.44556
1.44104
1.43561
1.42972
1.42386
1.41843
1.41371
1.40981
1.40675
1.40445
1.40278
1.40163
1.40088
1.4004
1.40012
1.39997
1.39991
1.39989
1.39989
1.39991
1.39993
1.39995
1.39997
1.39998
1.39998
1.39999
1.4
1.4
1.4
1.4
1.4
1.4
1.4
1.4
1.40001
1.40001
1.4
1.40001
1.4
1.40001
1.4
1.40001
1.4
1.40001
1.4
1.40001
1.4
1.40001
1.4
1.40001
1.4
1.40001
1.4
1.40001
1.40001
1.40001
1.40001
1.40001
1.40002
1.40003
1.40004
1.40006
1.40009
1.40013
1.40019
1.40025
1.40033
1.40043
1.40056
1.40078
1.40118
1.4019
1.40315
1.40519
1.40826
1.41255
1.41802
1.4244
1.43123
1.43791
1.44387
1.44865
1.452
1.45384
1.45432
1.45368
1.45226
1.45038
1.44838
1.44654
1.44508
1.44418
1.44393
1.44438
1.44551
1.44722
1.44927
1.45123
1.45257
1.45268
1.45115
1.44783
1.44291
1.43689
1.43038
1.424
1.4182
1.41325
1.40926
1.4062
1.40395
1.40238
1.40132
1.40065
1.40024
1.40002
1.39991
1.39988
1.39988
1.39989
1.39992
1.39994
1.39996
1.39997
1.39998
1.39999
1.39999
1.4
1.4
1.4
1.4
1.4
1.4
1.4
1.40001
1.4
1.4
1.40001
1.4
1.40001
1.4
1.40001
1.4
1.40001
1.4
1.4
1.40001
1.4
1.40001
1.4
1.40001
1.40001
1.4
1.40001
1.40001
1.40001
1.40001
1.40001
1.40002
1.40003
1.40005
1.40008
1.40011
1.40017
1.40023
1.40031
1.40041
1.40054
1.40073
1.40106
1.40166
1.40273
1.40454
1.40743
1.41164
1.41727
1.42409
1.43156
1.43896
1.4455
1.45058
1.45382
1.45513
1.45469
1.45281
1.44995
1.44652
1.44294
1.43956
1.43667
1.4345
1.43321
1.4329
1.43362
1.43538
1.43815
1.44175
1.44579
1.44964
1.45253
1.45368
1.45259
1.44919
1.44386
1.43727
1.43024
1.42346
1.41743
1.41241
1.40845
1.4055
1.40338
1.40194
1.40101
1.40044
1.40011
1.39994
1.39987
1.39986
1.39987
1.3999
1.39992
1.39995
1.39996
1.39997
1.39998
1.39999
1.4
1.4
1.4
1.4
1.4
1.4
1.4
1.4
1.40001
1.4
1.40001
1.40001
1.4
1.40001
1.40001
1.4
1.40001
1.40001
1.4
1.40001
1.40001
1.4
1.40001
1.40001
1.40001
1.40001
1.40001
1.40001
1.40001
1.40001
1.40001
1.40002
1.40004
1.40006
1.40009
1.40014
1.4002
1.40028
1.40038
1.4005
1.40067
1.40095
1.40143
1.40231
1.40385
1.40642
1.41037
1.41593
1.423
1.43103
1.43914
1.44633
1.45178
1.45496
1.45573
1.45429
1.45107
1.4466
1.44145
1.43612
1.43102
1.42647
1.42273
1.41998
1.41837
1.41797
1.41885
1.42104
1.42459
1.42944
1.43531
1.44165
1.44757
1.45203
1.45412
1.45332
1.4497
1.44387
1.43675
1.4293
1.42228
1.41619
1.41125
1.40746
1.40469
1.40277
1.40151
1.40071
1.40025
1.4
1.39989
1.39985
1.39986
1.39988
1.39991
1.39993
1.39996
1.39996
1.39998
1.39999
1.39999
1.4
1.4
1.4
1.4
1.4
1.4
1.4
1.40001
1.4
1.40001
1.40001
1.4
1.40001
1.40001
1.4
1.40001
1.40001
1.4
1.40001
1.40001
1.4
1.40001
1.4
1.40001
1.40001
1.40001
1.40001
1.40001
1.40001
1.40002
1.40003
1.40005
1.40007
1.40011
1.40017
1.40025
1.40034
1.40046
1.40061
1.40084
1.40123
1.40192
1.40318
1.40535
1.40887
1.41412
1.42117
1.42959
1.43839
1.44634
1.45232
1.4556
1.45595
1.45358
1.44904
1.44298
1.4361
1.42901
1.4222
1.41601
1.4107
1.40644
1.40335
1.40152
1.40103
1.40192
1.40427
1.4082
1.41377
1.4209
1.42922
1.4379
1.44579
1.45159
1.45428
1.45344
1.44937
1.44297
1.43537
1.42763
1.42055
1.41458
1.40986
1.40634
1.40385
1.40217
1.4011
1.40045
1.40009
1.39992
1.39985
1.39984
1.39986
1.39989
1.39992
1.39995
1.39996
1.39997
1.39998
1.39999
1.4
1.4
1.4
1.4
1.4
1.4
1.4
1.40001
1.4
1.4
1.40001
1.4
1.40001
1.4
1.4
1.4
1.40001
1.4
1.40001
1.40001
1.4
1.4
1.40001
1.40001
1.40001
1.40001
1.40001
1.40001
1.40001
1.40002
1.40003
1.40006
1.40009
1.40014
1.40021
1.40029
1.4004
1.40055
1.40075
1.40105
1.40159
1.40257
1.40432
1.4073
1.41199
1.41872
1.42726
1.43667
1.44546
1.45219
1.45585
1.45604
1.45297
1.44727
1.43975
1.43125
1.42251
1.41411
1.40645
1.39978
1.39421
1.38983
1.38667
1.38476
1.38416
1.38491
1.38714
1.391
1.39671
1.40437
1.41385
1.42457
1.4354
1.44488
1.45151
1.45428
1.45298
1.44823
1.44119
1.43319
1.42535
1.4184
1.41271
1.40835
1.40519
1.40302
1.4016
1.40073
1.40024
1.39998
1.39987
1.39984
1.39985
1.39988
1.39991
1.39993
1.39995
1.39997
1.39998
1.39999
1.4
1.4
1.4
1.4
1.4
1.4
1.4
1.4
1.4
1.4
1.40001
1.4
1.40001
1.40001
1.4
1.40001
1.4
1.40001
1.40001
1.40001
1.4
1.40001
1.40001
1.40001
1.40001
1.40001
1.40001
1.40001
1.40002
1.40002
1.40004
1.40007
1.4001
1.40016
1.40024
1.40034
1.40047
1.40065
1.4009
1.40131
1.40206
1.40341
1.4058
1.40977
1.41584
1.42413
1.43391
1.4436
1.45134
1.45573
1.45616
1.45274
1.44616
1.43741
1.42748
1.41727
1.40745
1.39851
1.39073
1.38419
1.3789
1.37478
1.3718
1.36992
1.36918
1.36965
1.37146
1.37487
1.38016
1.38763
1.3974
1.40916
1.42206
1.43463
1.44508
1.45185
1.45408
1.45189
1.44625
1.4386
1.43035
1.42259
1.41597
1.41072
1.40682
1.40408
1.40226
1.40111
1.40044
1.40007
1.3999
1.39984
1.39984
1.39986
1.39989
1.39992
1.39994
1.39996
1.39998
1.39999
1.39999
1.4
1.4
1.4
1.4
1.4
1.4
1.4
1.40001
1.4
1.40001
1.4
1.4
1.40001
1.4
1.4
1.40001
1.4
1.40001
1.4
1.40001
1.4
1.40001
1.40001
1.40001
1.40001
1.40001
1.40001
1.40002
1.40003
1.40005
1.40008
1.40012
1.40019
1.40028
1.4004
1.40055
1.40076
1.40109
1.40164
1.40264
1.40447
1.40765
1.41282
1.42042
1.43016
1.44062
1.4496
1.45516
1.4563
1.45301
1.44599
1.43631
1.42518
1.41366
1.40258
1.39253
1.38384
1.37663
1.37082
1.36624
1.36271
1.3601
1.35832
1.35738
1.35738
1.35851
1.36109
1.36552
1.37222
1.3815
1.39337
1.40729
1.422
1.43566
1.44631
1.45242
1.45349
1.45004
1.44344
1.43528
1.427
1.41954
1.41342
1.40873
1.40536
1.40307
1.40159
1.4007
1.40021
1.39996
1.39986
1.39983
1.39985
1.39988
1.39991
1.39993
1.39996
1.39997
1.39998
1.39999
1.4
1.4
1.4
1.4
1.4
1.4
1.40001
1.4
1.40001
1.4
1.40001
1.4
1.40001
1.40001
1.4
1.40001
1.4
1.40001
1.4
1.4
1.40001
1.40001
1.40001
1.4
1.40001
1.40001
1.40001
1.40002
1.40003
1.40005
1.40009
1.40014
1.40022
1.40032
1.40046
1.40063
1.40089
1.40131
1.40204
1.40338
1.4058
1.40994
1.41648
1.42563
1.43646
1.44673
1.4539
1.45634
1.45375
1.44679
1.43662
1.42457
1.41191
1.39968
1.3886
1.37911
1.37137
1.36532
1.36071
1.35719
1.35446
1.35232
1.35065
1.34943
1.34877
1.34895
1.35038
1.35356
1.35903
1.36727
1.3785
1.39249
1.40831
1.42428
1.43823
1.44816
1.45284
1.45223
1.44735
1.43984
1.4314
1.42332
1.41638
1.4109
1.40685
1.40403
1.40219
1.40104
1.40039
1.40004
1.39989
1.39984
1.39984
1.39987
1.3999
1.39992
1.39995
1.39997
1.39998
1.39999
1.4
1.4
1.4
1.4
1.4
1.4
1.4
1.4
1.40001
1.4
1.40001
1.4
1.4
1.40001
1.4
1.4
1.40001
1.40001
1.4
1.40001
1.40001
1.4
1.40001
1.40001
1.40001
1.40001
1.40001
1.40002
1.40004
1.40006
1.4001
1.40016
1.40024
1.40036
1.40052
1.40072
1.40103
1.40157
1.40252
1.40428
1.40742
1.41269
1.42071
1.43126
1.44252
1.45157
1.45594
1.45474
1.44845
1.43829
1.4257
1.41212
1.3988
1.38668
1.37636
1.36813
1.36193
1.35751
1.35441
1.35214
1.3503
1.34864
1.34703
1.34546
1.34403
1.34305
1.34302
1.3446
1.34846
1.35522
1.36527
1.37863
1.39468
1.41199
1.42847
1.44177
1.45008
1.45266
1.45006
1.44377
1.43559
1.42714
1.41952
1.41327
1.40853
1.40516
1.40289
1.40147
1.40062
1.40016
1.39994
1.39986
1.39984
1.39986
1.39989
1.39992
1.39994
1.39996
1.39998
1.39999
1.4
1.4
1.4
1.4
1.4
1.4
1.4
1.4
1.40001
1.4
1.40001
1.4
1.4
1.40001
1.40001
1.4
1.40001
1.40001
1.4
1.4
1.40001
1.40001
1.40001
1.40001
1.40001
1.40001
1.40002
1.40002
1.40004
1.40007
1.40011
1.40019
1.40027
1.4004
1.40058
1.40082
1.40119
1.40187
1.40311
1.40537
1.40936
1.41589
1.42541
1.43695
1.44777
1.4546
1.45557
1.4507
1.44115
1.42848
1.41427
1.39996
1.38674
1.37546
1.36657
1.36015
1.35594
1.35343
1.35196
1.35093
1.34988
1.34861
1.34702
1.34511
1.34294
1.34075
1.3391
1.33878
1.34068
1.34557
1.35402
1.36622
1.38182
1.39967
1.41784
1.43389
1.44553
1.45141
1.45147
1.44685
1.43937
1.43087
1.42273
1.4158
1.41038
1.40642
1.40371
1.40197
1.40091
1.40032
1.40001
1.39989
1.39985
1.39986
1.39989
1.39991
1.39994
1.39996
1.39998
1.39999
1.39999
1.4
1.4
1.4
1.4
1.4
1.4
1.4
1.40001
1.4
1.40001
1.4
1.40001
1.4
1.40001
1.4
1.4
1.40001
1.4
1.40001
1.4
1.40001
1.4
1.40001
1.40001
1.40001
1.40002
1.40002
1.40005
1.40008
1.40012
1.4002
1.4003
1.40043
1.40064
1.40092
1.40138
1.40223
1.40381
1.40666
1.41161
1.41951
1.43037
1.44228
1.45172
1.45562
1.45305
1.44486
1.43268
1.41823
1.40312
1.38879
1.37634
1.36652
1.3596
1.35541
1.35341
1.35283
1.35283
1.35273
1.35216
1.35104
1.34942
1.34733
1.34473
1.34166
1.33855
1.33625
1.33588
1.33851
1.34493
1.35552
1.37013
1.38786
1.40699
1.4251
1.43964
1.44869
1.45157
1.44899
1.4426
1.43436
1.42592
1.41841
1.41235
1.40781
1.40463
1.40254
1.40125
1.4005
1.40011
1.39993
1.39987
1.39986
1.39989
1.39991
1.39994
1.39996
1.39997
1.39999
1.39999
1.4
1.4
1.4
1.4
1.4
1.4
1.4
1.40001
1.4
1.4
1.40001
1.4
1.4
1.40001
1.4
1.4
1.40001
1.4
1.40001
1.40001
1.40001
1.40001
1.40001
1.40001
1.40001
1.40002
1.40003
1.40005
1.40009
1.40013
1.40022
1.40033
1.40047
1.4007
1.40104
1.40159
1.40264
1.40463
1.40817
1.41416
1.42343
1.43531
1.44684
1.4541
1.45476
1.44888
1.43794
1.42376
1.40817
1.39281
1.37906
1.36795
1.3601
1.35555
1.3538
1.35396
1.35494
1.35579
1.35588
1.35506
1.35357
1.35176
1.3498
1.34749
1.34448
1.34074
1.33692
1.33431
1.33437
1.33829
1.34678
1.35989
1.37694
1.3964
1.41594
1.43285
1.44479
1.4505
1.45017
1.44518
1.4375
1.42899
1.42104
1.41439
1.40929
1.40564
1.40319
1.40164
1.40073
1.40023
1.39999
1.39989
1.39987
1.39989
1.39991
1.39993
1.39996
1.39997
1.39998
1.39999
1.4
1.4
1.4
1.4
1.4
1.4
1.4
1.40001
1.4
1.40001
1.40001
1.4
1.40001
1.40001
1.40001
1.4
1.40001
1.4
1.40001
1.40001
1.40001
1.4
1.40001
1.40001
1.40001
1.40002
1.40003
1.40006
1.4001
1.40014
1.40023
1.40036
1.4005
1.40075
1.40117
1.40183
1.40311
1.40557
1.40987
1.41698
1.4275
1.43994
1.45033
1.4549
1.45239
1.44368
1.43053
1.41492
1.39874
1.38367
1.37102
1.36173
1.35624
1.35425
1.35485
1.35666
1.35829
1.35868
1.35749
1.35504
1.35216
1.34973
1.34824
1.34739
1.34619
1.34369
1.33984
1.33578
1.33338
1.33448
1.34035
1.3514
1.3672
1.38641
1.40678
1.42554
1.44001
1.44843
1.45045
1.44708
1.44021
1.43185
1.4236
1.41646
1.41083
1.40671
1.40389
1.40208
1.40099
1.40038
1.40006
1.39993
1.39989
1.39989
1.39991
1.39993
1.39996
1.39997
1.39998
1.39999
1.4
1.4
1.4
1.4
1.4
1.4
1.4
1.4
1.40001
1.4
1.40001
1.4
1.40001
1.4
1.40001
1.4
1.40001
1.4
1.40001
1.40001
1.4
1.4
1.40001
1.40001
1.40001
1.40003
1.40003
1.40005
1.40011
1.40014
1.40024
1.40039
1.40053
1.40079
1.4013
1.4021
1.40362
1.40661
1.41176
1.41997
1.43152
1.44397
1.45266
1.45437
1.44897
1.43793
1.42309
1.40651
1.39021
1.37589
1.36478
1.35768
1.35475
1.35526
1.35768
1.36003
1.36051
1.35818
1.35326
1.34696
1.34103
1.33718
1.33644
1.33854
1.3417
1.34354
1.34254
1.33906
1.33522
1.33366
1.33655
1.345
1.35897
1.37732
1.39796
1.41804
1.43465
1.44557
1.44991
1.44831
1.44246
1.43443
1.42604
1.4185
1.41239
1.40782
1.40464
1.40256
1.40128
1.40054
1.40015
1.39997
1.39991
1.3999
1.39992
1.39994
1.39996
1.39997
1.39998
1.39999
1.4
1.4
1.4
1.4
1.4
1.4
1.4
1.4
1.40001
1.4
1.40001
1.40001
1.40001
1.4
1.40001
1.40001
1.4
1.40001
1.4
1.40001
1.40001
1.4
1.40001
1.40001
1.4
1.40003
1.40003
1.40005
1.40012
1.40015
1.40023
1.40042
1.40057
1.40082
1.40144
1.40242
1.40419
1.40773
1.4138
1.42306
1.4353
1.44724
1.45391
1.45285
1.44492
1.43201
1.41593
1.39875
1.38273
1.36956
1.36032
1.35561
1.35522
1.3578
1.36096
1.36189
1.35838
1.34989
1.33784
1.32484
1.31384
1.30752
1.3077
1.31434
1.32487
1.33506
1.34107
1.34167
1.33862
1.33541
1.33545
1.34093
1.35251
1.36945
1.38977
1.41066
1.42899
1.44212
1.4487
1.44891
1.44422
1.4367
1.42831
1.42047
1.41393
1.40895
1.40542
1.40306
1.40159
1.40073
1.40026
1.40003
1.39994
1.39991
1.39993
1.39994
1.39996
1.39997
1.39998
1.39999
1.4
1.4
1.4
1.4
1.4
1.4
1.40001
1.4
1.40001
1.4
1.4
1.40001
1.40001
1.4
1.40001
1.40001
1.4
1.4
1.40001
1.4
1.40001
1.4
1.40001
1.40001
1.4
1.40003
1.40004
1.40004
1.40013
1.40017
1.40021
1.40043
1.40061
1.40085
1.40157
1.40277
1.4048
1.4089
1.41593
1.42614
1.43866
1.4497
1.45429
1.45066
1.44055
1.42619
1.40925
1.39179
1.37633
1.36463
1.35752
1.35521
1.35703
1.36079
1.36294
1.35952
1.34809
1.32921
1.3063
1.28387
1.26603
1.25633
1.25753
1.27012
1.29088
1.3135
1.33129
1.34043
1.34156
1.33867
1.33663
1.33916
1.348
1.363
1.38248
1.40366
1.42326
1.4383
1.44695
1.44896
1.44552
1.43864
1.43037
1.42232
1.41543
1.41007
1.4062
1.40358
1.40192
1.40093
1.40038
1.4001
1.39997
1.39993
1.39994
1.39995
1.39996
1.39997
1.39998
1.39999
1.4
1.4
1.4
1.4
1.4
1.4
1.40001
1.4
1.40001
1.40001
1.4
1.40001
1.4
1.40001
1.40001
1.40001
1.4
1.4
1.40001
1.4
1.40001
1.4
1.4
1.40002
1.4
1.40002
1.40006
1.40003
1.40012
1.4002
1.40019
1.40042
1.40067
1.40087
1.40167
1.40315
1.40547
1.41007
1.41806
1.4291
1.44153
1.45141
1.45404
1.4481
1.43609
1.42064
1.4032
1.38571
1.37101
1.361
1.35612
1.356
1.35936
1.36295
1.36165
1.3502
1.3264
1.29297
1.25626
1.22267
1.19695
1.18326
1.18551
1.20509
1.23828
1.27669
1.3105
1.33271
1.34192
1.34204
1.33934
1.33937
1.34535
1.35806
1.37625
1.39726
1.4177
1.4343
1.44481
1.44854
1.44639
1.44023
1.43219
1.42403
1.41685
1.41116
1.40698
1.40411
1.40226
1.40114
1.4005
1.40017
1.40001
1.39995
1.39995
1.39995
1.39996
1.39998
1.39999
1.39999
1.4
1.4
1.4
1.4
1.4
1.4
1.40001
1.40001
1.4
1.40001
1.4
1.40001
1.4
1.40001
1.4
1.40001
1.4
1.40001
1.40001
1.4
1.40001
1.40001
1.4
1.40002
1.4
1.40001
1.40007
1.40003
1.4001
1.40022
1.40018
1.40037
1.40073
1.40092
1.40173
1.40354
1.4062
1.41122
1.42011
1.43189
1.44391
1.45244
1.45334
1.44544
1.43173
1.41547
1.39787
1.38054
1.36666
1.35847
1.35579
1.35742
1.3613
1.36297
1.35541
1.33214
1.29201
1.24111
1.18914
1.14385
1.10983
1.09162
1.09484
1.12218
1.1693
1.22563
1.27838
1.31726
1.33823
1.34429
1.34273
1.34105
1.34434
1.35458
1.37114
1.39158
1.41248
1.43032
1.44245
1.44778
1.44688
1.44149
1.43376
1.42557
1.41817
1.41218
1.40772
1.40462
1.4026
1.40135
1.40064
1.40025
1.40006
1.39998
1.39997
1.39996
1.39997
1.39998
1.39999
1.39999
1.4
1.4
1.4
1.4
1.4
1.4
1.4
1.4
1.4
1.40001
1.4
1.40001
1.40001
1.4
1.40001
1.40001
1.4
1.40001
1.40001
1.4
1.40001
1.40001
1.4
1.40002
1.40001
1.4
1.40007
1.40003
1.40006
1.40024
1.40018
1.4003
1.40077
1.401
1.40176
1.40389
1.40698
1.41233
1.42197
1.43442
1.44588
1.45293
1.45234
1.44287
1.42764
1.41072
1.39329
1.37628
1.36317
1.35675
1.35617
1.35891
1.36201
1.35985
1.34348
1.30546
1.24655
1.17691
1.1095
1.05254
1.00983
0.986655
0.990897
1.02662
1.08859
1.1638
1.23679
1.29443
1.3299
1.34456
1.34606
1.34372
1.34467
1.3524
1.36712
1.3867
1.40773
1.42648
1.43999
1.44676
1.44705
1.44244
1.43507
1.42691
1.41936
1.41313
1.40843
1.40512
1.40293
1.40157
1.40077
1.40033
1.40011
1.40001
1.39999
1.39998
1.39998
1.39998
1.39999
1.39999
1.4
1.4
1.4
1.4
1.4
1.4
1.4
1.40001
1.4
1.40001
1.4
1.40001
1.4
1.4
1.40001
1.4
1.4
1.4
1.40001
1.4
1.40001
1.40001
1.4
1.40001
1.40002
1.39999
1.40007
1.40006
1.40002
1.40023
1.40022
1.40022
1.40077
1.40112
1.40179
1.40415
1.40778
1.41341
1.42354
1.43663
1.44755
1.453
1.45109
1.44055
1.42402
1.40642
1.3894
1.37294
1.36039
1.35553
1.35687
1.36001
1.36092
1.35325
1.32652
1.27254
1.19423
1.10591
1.02326
0.954526
0.902944
0.874978
0.880722
0.92522
1.00214
1.09606
1.18909
1.26586
1.31717
1.34238
1.34872
1.34686
1.346
1.35133
1.3641
1.38262
1.40352
1.42292
1.43755
1.44559
1.44698
1.44312
1.43614
1.42806
1.4204
1.41398
1.40907
1.40558
1.40325
1.40178
1.40091
1.40042
1.40016
1.40004
1.40001
1.39999
1.39999
1.39999
1.39999
1.4
1.4
1.4
1.4
1.4
1.4
1.4
1.4
1.40001
1.4
1.4
1.40001
1.4
1.40001
1.4
1.40001
1.4
1.4
1.4
1.40001
1.4
1.4
1.40001
1.4
1.40001
1.40003
1.39999
1.40005
1.40008
1.39999
1.40019
1.40026
1.40015
1.4007
1.40126
1.40184
1.4043
1.40853
1.41449
1.42481
1.43844
1.44902
1.45285
1.44967
1.43856
1.42104
1.4026
1.38607
1.37046
1.35826
1.35445
1.35753
1.36052
1.35796
1.34363
1.30643
1.23732
1.14072
1.03444
0.936681
0.856238
0.796728
0.765649
0.773845
0.826563
0.91701
1.02807
1.13955
1.23427
1.3012
1.33779
1.35027
1.34999
1.34795
1.35114
1.36197
1.3793
1.39988
1.41971
1.43524
1.44436
1.44672
1.44357
1.43696
1.429
1.42128
1.41471
1.40964
1.40599
1.40354
1.40197
1.40104
1.4005
1.40022
1.40007
1.40004
1.4
1.39999
1.39999
1.4
1.4
1.4
1.4
1.4
1.4
1.4
1.4
1.4
1.4
1.40001
1.4
1.40001
1.40001
1.4
1.40001
1.4
1.40001
1.4
1.4
1.40001
1.4
1.4
1.40001
1.4
1.4
1.40003
1.39999
1.40002
1.4001
1.39999
1.40012
1.4003
1.40013
1.40057
1.40137
1.40196
1.40435
1.40913
1.41555
1.42583
1.43976
1.45031
1.45271
1.44814
1.43681
1.41885
1.39939
1.38311
1.36874
1.35679
1.35326
1.35777
1.3605
1.35362
1.33207
1.28561
1.20407
1.09188
0.969173
0.856876
0.765917
0.701392
0.670424
0.681988
0.740821
0.841194
0.965875
1.09281
1.20297
1.28388
1.33141
1.35054
1.35267
1.35012
1.35154
1.36057
1.37669
1.39683
1.4169
1.43314
1.44314
1.44634
1.44381
1.43757
1.42975
1.422
1.41533
1.41012
1.40635
1.40379
1.40215
1.40116
1.40058
1.40027
1.40011
1.40006
1.40002
1.4
1.4
1.4
1.4
1.4
1.4
1.4
1.4
1.4
1.4
1.40001
1.4
1.40001
1.40001
1.4
1.40001
1.4
1.40001
1.4
1.40001
1.4
1.4
1.40001
1.4
1.4
1.40001
1.40001
1.4
1.40002
1.40001
1.4
1.40009
1.40001
1.40004
1.40029
1.40016
1.40042
1.40138
1.40215
1.40435
1.4095
1.41652
1.42669
1.44057
1.45135
1.45279
1.44668
1.43519
1.41745
1.39703
1.3804
1.36748
1.35608
1.35188
1.35719
1.36014
1.34895
1.31997
1.26597
1.17609
1.05287
0.916931
0.792173
0.69344
0.628065
0.600851
0.616169
0.677647
0.782427
0.915314
1.05323
1.17519
1.26735
1.32431
1.34975
1.35467
1.35215
1.35223
1.35969
1.37469
1.39435
1.41453
1.4313
1.44201
1.4459
1.4439
1.43798
1.43029
1.42255
1.41581
1.41051
1.40665
1.40401
1.40231
1.40127
1.40066
1.40032
1.40015
1.40008
1.40004
1.40001
1.40001
1.4
1.4
1.4
1.4
1.4
1.4
1.40001
1.4
1.40001
1.4
1.40001
1.40001
1.4
1.40001
1.40001
1.4
1.4
1.4
1.40001
1.4
1.40001
1.4
1.40001
1.40001
1.40001
1.4
1.40002
1.40002
1.39999
1.40006
1.40003
1.39999
1.40022
1.40021
1.40031
1.40129
1.40233
1.4044
1.4096
1.41729
1.42748
1.44095
1.45201
1.45318
1.4456
1.43357
1.41664
1.39578
1.37803
1.36626
1.35615
1.35062
1.35549
1.35945
1.34528
1.30904
1.2486
1.15466
1.0267
0.883246
0.750231
0.647201
0.584269
0.563134
0.581887
0.642325
0.745607
0.880544
1.02416
1.15355
1.2535
1.31758
1.34831
1.35593
1.3538
1.35295
1.35917
1.3732
1.39241
1.41263
1.42978
1.44102
1.44544
1.44386
1.4382
1.43064
1.42292
1.41615
1.4108
1.40688
1.40419
1.40244
1.40136
1.40073
1.40037
1.40018
1.4001
1.40005
1.40002
1.40001
1.40001
1.40001
1.40001
1.4
1.40001
1.4
1.4
1.40001
1.4
1.40001
1.4
1.40001
1.40001
1.4
1.40001
1.40001
1.4
1.4
1.40001
1.4
1.40001
1.4
1.40001
1.40001
1.40001
1.4
1.40001
1.40001
1.39999
1.40003
1.40004
1.39998
1.40013
1.40022
1.40028
1.40111
1.40242
1.40451
1.40953
1.4177
1.42817
1.44111
1.45219
1.45374
1.44518
1.43211
1.41601
1.39571
1.37645
1.36471
1.35663
1.35007
1.35276
1.35793
1.34357
1.30142
1.23453
1.13903
1.01253
0.869017
0.733772
0.629705
0.570129
0.554799
0.575961
0.632934
0.73059
0.862586
1.00709
1.13963
1.24369
1.31214
1.34662
1.35647
1.3549
1.35351
1.35883
1.37214
1.39099
1.41121
1.4286
1.44022
1.445
1.44371
1.43826
1.4308
1.42313
1.41636
1.41098
1.40703
1.40432
1.40254
1.40144
1.40079
1.40042
1.40021
1.40013
1.40007
1.40003
1.40002
1.40001
1.40001
1.40001
1.40001
1.40001
1.40001
1.40001
1.4
1.4
1.40001
1.4
1.40001
1.4
1.40001
1.40001
1.40001
1.40001
1.4
1.40001
1.4
1.40001
1.4
1.4
1.40001
1.4
1.40001
1.4
1.40001
1.4
1.4
1.40002
1.39999
1.40004
1.40018
1.40029
1.40094
1.40236
1.40462
1.4094
1.41769
1.42862
1.44121
1.452
1.45419
1.44552
1.43119
1.4153
1.39641
1.37623
1.36298
1.35673
1.35067
1.34992
1.35487
1.34342
1.29918
1.22618
1.12867
1.00637
0.86884
0.737625
0.636011
0.579545
0.567721
0.589717
0.642777
0.733739
0.860149
1.00195
1.13394
1.23867
1.30868
1.34507
1.35639
1.35538
1.35377
1.35859
1.37145
1.39007
1.41028
1.42781
1.43963
1.44461
1.4435
1.43816
1.43079
1.42316
1.41642
1.41106
1.40712
1.40439
1.40262
1.4015
1.40084
1.40046
1.40024
1.40015
1.40008
1.40004
1.40003
1.40002
1.40001
1.40001
1.40001
1.40001
1.40001
1.40001
1.40001
1.4
1.40001
1.4
1.40001
1.40001
1.4
1.40001
1.4
1.40001
1.4
1.40001
1.4
1.40001
1.40001
1.4
1.40001
1.4
1.4
1.40001
1.39999
1.4
1.4
1.39998
1.39999
1.4
1.40008
1.40028
1.40083
1.40218
1.40462
1.40927
1.41738
1.42863
1.44126
1.45169
1.45438
1.44638
1.43124
1.41465
1.39721
1.37752
1.36194
1.35577
1.35187
1.34846
1.35059
1.343
1.30244
1.22692
1.12636
1.0066
0.876418
0.753372
0.658492
0.606209
0.59582
0.617142
0.667021
0.75226
0.872201
1.00857
1.13658
1.2387
1.30755
1.34399
1.35585
1.35523
1.3537
1.35838
1.37109
1.38965
1.40986
1.42742
1.43928
1.4443
1.44321
1.43792
1.4306
1.42304
1.41635
1.41103
1.40712
1.40442
1.40265
1.40155
1.40088
1.40049
1.40027
1.40016
1.40009
1.40005
1.40003
1.40002
1.40001
1.40001
1.40001
1.40001
1.40001
1.40001
1.40001
1.4
1.40001
1.4
1.40001
1.40001
1.4
1.40001
1.4
1.40001
1.40001
1.4
1.40001
1.4
1.40001
1.4