/*--------------------------------*- C++ -*----------------------------------*\
  =========                 |
  \\      /  F ield         | OpenFOAM: The Open Source CFD Toolbox
   \\    /   O peration     | Website:  https://openfoam.org
    \\  /    A nd           | Version:  6
     \\/     M anipulation  |
\*---------------------------------------------------------------------------*/
FoamFile
{
    version     2.0;
    format      ascii;
    class       volScalarField;
    location    "3.92";
    object      k;
}
// * * * * * * * * * * * * * * * * * * * * * * * * * * * * * * * * * * * * * //

dimensions      [0 2 -2 0 0 0 0];

internalField   nonuniform List<scalar> 
4214
(
0.0794736
0.0389653
0.0243374
0.0192566
0.0183322
0.0200678
0.024625
0.0330711
0.0470779
0.0686737
0.0998714
0.142152
0.195779
0.259052
0.327774
0.395501
0.455163
0.500997
0.532393
0.553949
0.570179
0.584437
0.599203
0.64129
0.789006
1.11286
1.24959
1.01948
0.655107
0.34872
0.164906
0.0766235
0.0394166
0.0246448
0.0189311
0.0169061
0.0167363
0.0183736
0.0236322
0.0384436
0.0804372
0.027099
0.0198467
0.0173014
0.0170434
0.0185697
0.0223617
0.029603
0.0420879
0.0621058
0.0921736
0.134542
0.190459
0.259256
0.337504
0.418684
0.494384
0.556569
0.599613
0.6264
0.642628
0.653707
0.662373
0.670233
0.70812
0.887351
1.19764
1.22873
0.954059
0.590738
0.307732
0.146059
0.0701127
0.037855
0.0246001
0.0191587
0.0169248
0.0160824
0.0159728
0.0165352
0.0183196
0.0231524
0.0179041
0.0163716
0.0162571
0.0174287
0.0204425
0.0264782
0.0373716
0.0555915
0.0840631
0.125736
0.182843
0.255845
0.342313
0.436183
0.528326
0.609347
0.671973
0.714158
0.738421
0.751062
0.759361
0.76082
0.755298
0.791802
1.0036
1.23062
1.1688
0.861227
0.512623
0.261491
0.125292
0.0627374
0.0358733
0.0244105
0.0194486
0.0172693
0.0163261
0.0159721
0.0159682
0.0163177
0.0173004
0.0159329
0.0157806
0.0165736
0.0188446
0.0237041
0.0329593
0.0491861
0.0756419
0.115917
0.173221
0.249286
0.342983
0.449184
0.558687
0.660398
0.74532
0.808014
0.848316
0.868126
0.87916
0.884208
0.877535
0.862316
0.923856
1.13472
1.2542
1.09681
0.759909
0.432398
0.216303
0.1055
0.055651
0.0338926
0.0242005
0.0197651
0.0176937
0.0167243
0.0162878
0.0161356
0.0161868
0.0164796
0.0155101
0.0159606
0.0175562
0.0212991
0.028909
0.0429905
0.0670573
0.105276
0.161806
0.239674
0.339238
0.456645
0.583143
0.706555
0.815299
0.902274
0.964133
0.99924
1.01708
1.02485
1.02263
1.00389
0.987105
1.07919
1.2381
1.23591
0.993486
0.643969
0.34995
0.173061
0.0872283
0.0490958
0.0319995
0.0239871
0.0200949
0.0181615
0.0171934
0.0167111
0.0164854
0.0164165
0.0164835
0.0155957
0.0165932
0.0192985
0.0252943
0.0371254
0.0584636
0.0939915
0.14881
0.227283
0.331383
0.458858
0.60194
0.747962
0.883035
0.996764
1.08387
1.14138
1.17281
1.18365
1.18085
1.16448
1.13199
1.1314
1.22771
1.29575
1.17026
0.862343
0.521384
0.272003
0.13523
0.071885
0.043642
0.0304372
0.023872
0.020478
0.0186859
0.0177304
0.0172168
0.0169424
0.0168066
0.0167692
0.0159838
0.017741
0.0221922
0.0317358
0.0500636
0.082255
0.134352
0.212172
0.319457
0.455743
0.614786
0.784174
0.948191
1.09297
1.20996
1.29489
1.34629
1.36522
1.35839
1.33439
1.29704
1.26004
1.28008
1.33601
1.28642
1.05146
0.708697
0.400918
0.203963
0.104743
0.0600621
0.03955
0.0293576
0.0239397
0.0209558
0.0192841
0.0183388
0.0177976
0.0174841
0.017302
0.0172034
0.0166751
0.0196765
0.0269727
0.0421185
0.0703841
0.118626
0.19426
0.30315
0.446987
0.621211
0.814488
1.01004
1.19066
1.3437
1.46122
1.53724
1.56851
1.55922
1.52046
1.46501
1.40938
1.38566
1.40084
1.37325
1.19903
0.884908
0.546349
0.293145
0.150142
0.082604
0.0519624
0.036963
0.0288947
0.0242876
0.0215875
0.0199879
0.0190334
0.0184568
0.0181028
0.0178807
0.0177406
0.0178114
0.0229637
0.0349121
0.058831
0.102109
0.173674
0.281931
0.431491
0.620124
0.837684
1.06743
1.2889
1.48423
1.64081
1.74676
1.79307
1.78099
1.72419
1.63979
1.55309
1.50265
1.48194
1.45358
1.31457
1.03537
0.691
0.395864
0.20817
0.112606
0.0685755
0.0473577
0.0359004
0.0291543
0.0250134
0.0224391
0.0208364
0.0198359
0.019204
0.0187974
0.0185306
0.0183541
0.0197857
0.0286719
0.0481279
0.0855556
0.15108
0.255717
0.407869
0.609031
0.851197
1.11791
1.3857
1.6309
1.83412
1.97666
2.04152
2.02445
1.94303
1.8209
1.68869
1.60432
1.55944
1.51918
1.40071
1.15262
0.818863
0.501369
0.276214
0.150864
0.0906088
0.0616207
0.0459459
0.036427
0.0302855
0.0262462
0.0235998
0.0218844
0.0207772
0.0200556
0.0195757
0.0192516
0.0190355
0.0235159
0.0387098
0.0699675
0.127682
0.22533
0.375503
0.585061
0.850227
1.15566
1.4759
1.78011
2.04084
2.22807
2.31706
2.29534
2.18029
2.00782
1.81735
1.68653
1.61346
1.5534
1.44744
1.22511
0.912155
0.593245
0.346937
0.19687
0.119627
0.0815018
0.0607303
0.0477127
0.0388226
0.0325722
0.0282002
0.0252103
0.0232163
0.0219057
0.0210395
0.0204538
0.0200525
0.0197845
0.0309053
0.0561935
0.105321
0.192526
0.335159
0.546234
0.829254
1.17199
1.54888
1.92334
2.25509
2.49997
2.61965
2.59714
2.44461
2.20558
1.94145
1.74998
1.64098
1.55637
1.45155
1.24763
0.958983
0.655285
0.407733
0.246161
0.156648
0.10968
0.083113
0.0658359
0.0533067
0.0437917
0.0365764
0.0312649
0.0275164
0.0249768
0.0233027
0.0222014
0.0214598
0.020951
0.0206084
0.0452877
0.0854918
0.160524
0.289011
0.492935
0.783396
1.15694
1.59085
2.04401
2.46304
2.78237
2.94673
2.92809
2.74166
2.4277
2.06562
1.79581
1.64859
1.54218
1.43154
1.24651
0.98645
0.706532
0.467996
0.302467
0.204714
0.150449
0.118073
0.0958536
0.0787116
0.0646234
0.0529134
0.0434627
0.0362256
0.0310077
0.0274522
0.0251298
0.0236342
0.0226518
0.0219863
0.0215339
0.0710331
0.131249
0.242685
0.426495
0.712178
1.1015
1.58505
2.11871
2.63424
3.05159
3.28482
3.28756
3.07218
2.69
2.21647
1.83334
1.64144
1.51953
1.40248
1.23686
1.00978
0.761326
0.541233
0.379363
0.276642
0.215183
0.17618
0.147883
0.124685
0.104291
0.0859133
0.0695883
0.0557472
0.0447946
0.0367591
0.0312757
0.0277482
0.0255464
0.0241585
0.0232469
0.0226322
0.111694
0.196134
0.359266
0.612636
1.00538
1.50983
2.11319
2.72909
3.25733
3.60128
3.6621
3.44585
3.00309
2.43704
1.90147
1.63618
1.49293
1.37391
1.22848
1.0346
0.821489
0.627154
0.477586
0.376779
0.312645
0.269755
0.23676
0.207586
0.179615
0.152252
0.125686
0.100821
0.0788098
0.0607595
0.047207
0.0378839
0.0319526
0.0283727
0.026231
0.0248979
0.0240317
0.168315
0.277713
0.520048
0.846455
1.38143
1.98529
2.70217
3.3462
3.81646
4.02016
3.84242
3.39605
2.74868
2.08165
1.67359
1.48221
1.35825
1.23059
1.07264
0.895373
0.730213
0.598852
0.507483
0.448047
0.407559
0.376334
0.346079
0.314513
0.278838
0.240762
0.200635
0.161181
0.124323
0.0928186
0.068202
0.0508421
0.0397214
0.0331348
0.0294258
0.0272612
0.0259747
0.244519
0.361342
0.749269
1.09073
1.84574
2.4396
3.29136
3.85934
4.20677
4.26373
3.79247
3.21978
2.4437
1.8272
1.53205
1.36581
1.24215
1.11477
0.981542
0.849129
0.744033
0.667483
0.623013
0.596497
0.575238
0.555622
0.528511
0.496995
0.452166
0.403224
0.343108
0.282049
0.219217
0.162792
0.115817
0.0803543
0.0572481
0.0427988
0.0354128
0.0310063
0.0289442
0.0274886
0.0250909
0.0234462
0.0222254
0.0212379
0.0203832
0.019606
0.018888
0.0182333
0.0176535
0.0171691
0.0168312
0.0167347
0.0172107
0.0197957
0.0363647
0.202593
0.0266934
0.0247659
0.0233914
0.0223266
0.0214366
0.0206535
0.0199335
0.0192594
0.0186375
0.0180839
0.0176231
0.0173115
0.0172615
0.0178856
0.0211674
0.0418627
0.205981
0.0260431
0.0245528
0.0233894
0.0224517
0.0216453
0.0209256
0.0202596
0.0196297
0.019041
0.0185134
0.0180777
0.017797
0.0178052
0.0185968
0.0225516
0.0464146
0.209722
0.025672
0.0244284
0.0234318
0.0226007
0.0218667
0.0211994
0.0205774
0.0199872
0.019432
0.0189322
0.0185248
0.01828
0.0183553
0.019325
0.0239246
0.050323
0.214702
0.0253529
0.0243765
0.0235134
0.0227716
0.0221001
0.0214781
0.0208927
0.020337
0.0198148
0.0193458
0.018971
0.0187692
0.0189228
0.0200757
0.0252727
0.0538408
0.220739
0.0252217
0.0243834
0.0236286
0.0229605
0.0223436
0.0217619
0.0212083
0.0206826
0.0201929
0.0197585
0.0194226
0.0192728
0.0195162
0.0208544
0.0265784
0.0569518
0.227641
0.0251192
0.0244352
0.0237743
0.0231671
0.0225976
0.0220525
0.0215286
0.021031
0.0205734
0.0201776
0.0198886
0.0198023
0.0201502
0.0216775
0.0278445
0.059624
0.235208
0.0251406
0.0245298
0.0239475
0.023392
0.0228627
0.0223512
0.0218568
0.0213889
0.0209654
0.0206123
0.0203792
0.0203712
0.0208418
0.0225683
0.0290993
0.0619083
0.243224
0.0251902
0.0246625
0.0241433
0.0236358
0.0231416
0.0226607
0.0221965
0.021762
0.021378
0.0210741
0.020907
0.0209946
0.0216111
0.0235545
0.030382
0.0638275
0.25147
0.0253083
0.0248329
0.0243607
0.0238991
0.0234371
0.0229853
0.0225529
0.0221565
0.0218192
0.0215746
0.0214873
0.0216904
0.0224805
0.0246669
0.0317381
0.0653793
0.259726
0.0254729
0.0250377
0.0246048
0.0241794
0.0237523
0.0233301
0.0229324
0.0225796
0.0222975
0.0221243
0.0221344
0.0224768
0.0234733
0.0259411
0.0332231
0.0666376
0.267768
0.0256562
0.0252707
0.0248748
0.0244814
0.0240875
0.0237004
0.0233423
0.0230398
0.0228225
0.0227347
0.0228616
0.02337
0.0246101
0.0274067
0.0349019
0.0678185
0.275377
0.0259139
0.0255407
0.0251734
0.0248093
0.0244466
0.0240998
0.0237896
0.0235458
0.0234045
0.0234177
0.0236829
0.024387
0.0259078
0.029074
0.0368027
0.0690846
0.282319
0.0261462
0.0258297
0.0254973
0.0251647
0.0248366
0.0245326
0.0242789
0.024105
0.0240525
0.0241837
0.0246109
0.0255409
0.0273782
0.0309522
0.038979
0.0706441
0.288342
0.0264844
0.0261623
0.0258529
0.0255506
0.0252611
0.0250064
0.0248154
0.0247221
0.0247727
0.0250397
0.0256537
0.0268377
0.029022
0.0330297
0.0414256
0.0725454
0.293166
0.02676
0.0265045
0.0262332
0.0259678
0.0257226
0.0255237
0.0254032
0.0254001
0.0255681
0.0259909
0.0268133
0.0282752
0.0308319
0.0352828
0.0441091
0.0747176
0.296481
0.0271707
0.0268983
0.0266495
0.0264199
0.0262229
0.0260854
0.026042
0.0261366
0.0264333
0.0270295
0.0280846
0.0298499
0.0327922
0.0376811
0.0469764
0.0771383
0.297989
0.0274909
0.0272949
0.0270902
0.0269053
0.0267617
0.0266897
0.0267273
0.026925
0.0273585
0.0281378
0.0294362
0.0315171
0.0348526
0.0401747
0.049937
0.0803277
0.297429
0.0279681
0.0277498
0.0275707
0.0274273
0.0273381
0.0273332
0.0274525
0.0277554
0.0283277
0.0292927
0.0308371
0.033233
0.0369475
0.0426695
0.0528104
0.0834501
0.295824
0.0283389
0.0282052
0.0280758
0.0279816
0.0279488
0.0280103
0.0282102
0.028615
0.0293218
0.0304667
0.0322493
0.0349481
0.0390202
0.045104
0.0555414
0.0862902
0.293145
0.0288776
0.0287212
0.0286208
0.0285708
0.0285926
0.0287179
0.0289933
0.0294924
0.0303226
0.0316326
0.0336343
0.0366126
0.0410114
0.047417
0.0580798
0.0887344
0.289159
0.0293077
0.0292389
0.0291904
0.0291915
0.0292686
0.0294543
0.0297981
0.03038
0.0313163
0.0327683
0.0349596
0.0381841
0.0428706
0.0495622
0.06039
0.0907922
0.284326
0.0299021
0.0298141
0.0298003
0.0298496
0.0299801
0.0302219
0.030626
0.0312768
0.0322983
0.0338629
0.0362058
0.0396323
0.0445581
0.0515036
0.0624603
0.0924563
0.278691
0.0303968
0.0303967
0.0304413
0.030547
0.0307323
0.031027
0.0314839
0.03219
0.0332747
0.0349196
0.0373715
0.0409483
0.0460623
0.0532289
0.064296
0.093754
0.272844
0.0310425
0.0310371
0.0311308
0.0312933
0.0315343
0.0318804
0.0323845
0.0331345
0.0342629
0.0359576
0.0384755
0.0421496
0.0474021
0.0547607
0.0659418
0.0947254
0.267769
0.0316039
0.0316988
0.031866
0.0320951
0.0323962
0.0327954
0.0333451
0.0341326
0.0352906
0.0370107
0.0395586
0.0432844
0.0486342
0.0561694
0.0675152
0.0955905
0.264028
0.0322983
0.0324224
0.0326618
0.0329626
0.03333
0.033788
0.0343867
0.0352116
0.0363936
0.0381256
0.0406802
0.0444262
0.0498444
0.0575564
0.0691539
0.0967077
0.262311
0.0329345
0.0331844
0.0335179
0.0339025
0.034347
0.0348744
0.0355322
0.0364021
0.0376118
0.0393531
0.0419035
0.0456501
0.0511172
0.0590133
0.0709694
0.0983395
0.262914
0.0336835
0.0340111
0.0344428
0.0349223
0.0354579
0.0360707
0.0368039
0.0377339
0.0389841
0.0407428
0.0432897
0.047028
0.0525302
0.0606166
0.0730416
0.100647
0.265811
0.0344049
0.034886
0.0354349
0.036026
0.0366715
0.0373909
0.0382228
0.0392366
0.040549
0.0423434
0.0448979
0.0486279
0.0541531
0.0624251
0.0754117
0.103694
0.270677
0.035215
0.0358206
0.0364962
0.0372171
0.0379954
0.038848
0.0398083
0.040938
0.0423446
0.0442043
0.0467894
0.0505202
0.0560578
0.0644923
0.0780925
0.107468
0.276961
0.0360287
0.0368021
0.0376236
0.0384969
0.0394349
0.0404526
0.0415781
0.0428652
0.0444107
0.0463788
0.0490324
0.0527875
0.0583326
0.0668884
0.0810901
0.111901
0.28392
0.0369011
0.0378318
0.0388157
0.0398659
0.0409942
0.042214
0.0435493
0.0450457
0.0467885
0.048927
0.0517077
0.0555335
0.0610995
0.069728
0.0844402
0.116874
0.290725
0.0378085
0.0389011
0.0400695
0.0413242
0.0426766
0.0441407
0.0457378
0.047507
0.0495223
0.0519165
0.0549135
0.0588925
0.0645316
0.0732034
0.0882642
0.122255
0.29655
0.0387628
0.0400078
0.0413837
0.0428721
0.0444855
0.0462408
0.0481598
0.050278
0.0526602
0.0554235
0.0587676
0.0630359
0.0688677
0.0776188
0.0928472
0.128021
0.300763
0.0397686
0.0411523
0.0427581
0.0445114
0.0464258
0.0485243
0.0508331
0.0533898
0.0562551
0.0595347
0.0634071
0.0681781
0.0744227
0.0834172
0.0987187
0.13443
0.302949
0.0408045
0.0423685
0.0441952
0.0462464
0.0485058
0.0510053
0.0537809
0.0568801
0.0603687
0.0643513
0.0689953
0.0745774
0.0816038
0.0912073
0.106736
0.142259
0.302937
0.0418737
0.0436642
0.0457055
0.0480845
0.050739
0.053705
0.0570356
0.0607991
0.0650796
0.0699978
0.0757324
0.0825526
0.0909243
0.101806
0.118143
0.153204
0.30071
0.0429772
0.0450169
0.0473389
0.0500372
0.0531451
0.056653
0.0606425
0.065217
0.0704947
0.0766377
0.0838763
0.0925182
0.103035
0.116343
0.134593
0.168501
0.298063
0.0441191
0.0464328
0.0490897
0.0521522
0.0557544
0.0598889
0.0646665
0.0702382
0.076776
0.0845135
0.0937886
0.105084
0.118838
0.136006
0.15847
0.193023
0.295624
0.0547758
0.0563091
0.0581065
0.0596668
0.0613831
0.0629692
0.0645345
0.0659462
0.0672276
0.0683611
0.0693301
0.0701213
0.0707251
0.0711354
0.0713496
0.0713689
0.0711972
0.0708431
0.070314
0.0696053
0.068555
0.067229
0.066142
0.06501
0.0638329
0.0626201
0.0613832
0.0601331
0.0588798
0.0576313
0.0563943
0.0551747
0.0539756
0.0528006
0.0516504
0.0505268
0.0494297
0.0483596
0.0473157
0.0462975
0.0453026
0.0580485
0.0599277
0.0618212
0.0636774
0.0655023
0.0672708
0.0688619
0.0703227
0.0716406
0.0727973
0.0737769
0.0745654
0.0751538
0.0755356
0.0757096
0.0756767
0.0754432
0.0750178
0.0744115
0.0736215
0.0724904
0.0710886
0.069914
0.068693
0.0674268
0.0661271
0.0648059
0.0634743
0.0621432
0.0608207
0.0595142
0.0582288
0.0569687
0.055736
0.0545324
0.0533581
0.0522137
0.0510987
0.0500126
0.0489535
0.0479192
0.0620784
0.0641478
0.0662002
0.0682168
0.0701864
0.071986
0.0736402
0.0751575
0.0765172
0.0777016
0.0786947
0.0794825
0.0800554
0.0804078
0.0805386
0.0804503
0.0801499
0.0796484
0.0789586
0.0780814
0.0768652
0.0753828
0.0741151
0.0727988
0.071438
0.0700462
0.0686358
0.0672187
0.065806
0.0644067
0.0630282
0.061676
0.0603537
0.0590636
0.0578069
0.0565838
0.0553943
0.054238
0.0531137
0.0520193
0.0509511
0.0666816
0.0689443
0.0711868
0.0733531
0.0753496
0.0772128
0.0789466
0.0805281
0.0819363
0.0831533
0.0841629
0.0849513
0.0855087
0.0858299
0.0859145
0.0857664
0.0853942
0.0848108
0.0840313
0.0830604
0.0817539
0.0801866
0.0788193
0.0774015
0.0759401
0.0744504
0.072946
0.0714389
0.0699411
0.0684622
0.0670096
0.0655891
0.0642042
0.0628571
0.0615486
0.060279
0.059048
0.0578549
0.0566981
0.0555751
0.054481
0.0721283
0.0745084
0.0768015
0.0789913
0.0810831
0.0830526
0.0848759
0.08653
0.0879934
0.0892476
0.0902766
0.0910666
0.0916078
0.0918956
0.0919306
0.0917181
0.0912686
0.0905972
0.0897214
0.0886499
0.0872481
0.0855913
0.0841177
0.0825918
0.0810236
0.0794303
0.0778266
0.0762253
0.0746386
0.0730771
0.0715486
0.0700588
0.0686113
0.0672082
0.0658502
0.0645373
0.0632695
0.0620456
0.0608635
0.0597204
0.05861
0.0780277
0.0805204
0.0829526
0.0852986
0.08753
0.0896203
0.0915446
0.0932801
0.0948054
0.0961017
0.0971525
0.0979446
0.0984685
0.0987203
0.0987016
0.0984199
0.0978872
0.0971215
0.0961427
0.0949637
0.093461
0.0917102
0.0901234
0.0884826
0.0868014
0.0850985
0.0833903
0.0816904
0.0800114
0.0783647
0.0767586
0.0751989
0.0736895
0.0722322
0.0708276
0.0694762
0.0681775
0.0669303
0.065732
0.0645791
0.0634633
0.0846099
0.0872937
0.0899116
0.0924335
0.0948247
0.0970539
0.0990935
0.100921
0.102515
0.103859
0.104934
0.105729
0.106234
0.106446
0.10637
0.106014
0.105392
0.104525
0.103437
0.102143
0.100534
0.0986852
0.0969784
0.0952161
0.0934155
0.0915974
0.0897796
0.087977
0.0862025
0.0844684
0.0827835
0.0811541
0.0795841
0.0780754
0.0766287
0.0752447
0.073923
0.0726619
0.071458
0.070307
0.069198
0.0921278
0.0950213
0.0978427
0.10056
0.103132
0.105521
0.107694
0.109626
0.111299
0.112696
0.113799
0.114596
0.115081
0.115252
0.115113
0.114677
0.113961
0.112988
0.111783
0.110368
0.108648
0.106696
0.104863
0.102973
0.101048
0.0991089
0.097177
0.0952679
0.0933954
0.0915725
0.0898087
0.0881107
0.0864827
0.0849268
0.083444
0.0820353
0.0807002
0.0794364
0.0782395
0.0771037
0.0760146
0.10078
0.103911
0.106958
0.10989
0.112663
0.115233
0.11756
0.119614
0.121377
0.122834
0.123969
0.12477
0.125234
0.12536
0.125156
0.124636
0.12382
0.122735
0.121409
0.119867
0.118032
0.115974
0.114009
0.111987
0.109932
0.107869
0.10582
0.103802
0.10183
0.0999181
0.0980766
0.0963128
0.0946312
0.0930342
0.0915234
0.0901001
0.0887637
0.0875105
0.0863348
0.0852288
0.0841744
0.110843
0.114242
0.117542
0.12071
0.123701
0.12647
0.128969
0.131162
0.133027
0.134553
0.135725
0.136533
0.136976
0.137056
0.136785
0.136178
0.13526
0.134059
0.132608
0.130937
0.128984
0.126821
0.124721
0.122564
0.120378
0.118189
0.116021
0.113894
0.111824
0.109826
0.10791
0.106086
0.104357
0.102728
0.101201
0.0997758
0.0984525
0.0972257
0.0960877
0.0950286
0.0940262
0.122718
0.126409
0.129985
0.133407
0.13663
0.139608
0.142291
0.144635
0.146614
0.148217
0.149431
0.15025
0.150673
0.150709
0.15037
0.149677
0.148657
0.147343
0.145768
0.143968
0.141901
0.139633
0.137401
0.135112
0.132797
0.130485
0.128203
0.125971
0.123808
0.121729
0.119748
0.117872
0.116108
0.11446
0.11293
0.111521
0.110229
0.109047
0.107966
0.106975
0.106046
0.136992
0.140982
0.144843
0.148525
0.151982
0.155167
0.158031
0.160528
0.162625
0.164307
0.165566
0.166398
0.166806
0.1668
0.166399
0.165626
0.164511
0.16309
0.161401
0.159482
0.15731
0.15495
0.152596
0.150186
0.147754
0.145331
0.142945
0.14062
0.138377
0.136231
0.134198
0.132286
0.130504
0.128856
0.127346
0.125974
0.124736
0.123623
0.122624
0.121726
0.1209
0.154532
0.158795
0.162917
0.166838
0.170506
0.173874
0.176895
0.179523
0.181722
0.183476
0.184775
0.185619
0.186014
0.185974
0.185521
0.184682
0.18349
0.181984
0.180203
0.178189
0.175938
0.173511
0.171062
0.168558
0.166035
0.163527
0.161064
0.158672
0.156374
0.154188
0.152129
0.150209
0.148437
0.146817
0.145355
0.14405
0.142896
0.141882
0.140997
0.140223
0.139536
0.176629
0.181086
0.185391
0.189473
0.193281
0.196763
0.199875
0.202576
0.204832
0.206623
0.20794
0.208785
0.209168
0.209106
0.208621
0.207745
0.206512
0.204961
0.203135
0.201077
0.198798
0.196357
0.193868
0.191326
0.188768
0.18623
0.183743
0.181335
0.179032
0.176853
0.174815
0.172933
0.171215
0.169668
0.168297
0.1671
0.166069
0.165194
0.16446
0.16385
0.163342
0.205275
0.209741
0.214048
0.218118
0.221898
0.225342
0.228407
0.231059
0.233269
0.235019
0.236301
0.237118
0.237482
0.23741
0.236928
0.236065
0.234856
0.233341
0.231559
0.229553
0.227347
0.224994
0.222574
0.220103
0.217618
0.215155
0.212747
0.210422
0.208208
0.206125
0.204193
0.202427
0.200837
0.199432
0.198215
0.197183
0.196328
0.19564
0.195103
0.194696
0.194407
0.243656
0.247741
0.251673
0.255369
0.258784
0.261879
0.264622
0.266986
0.26895
0.270502
0.271637
0.272359
0.27268
0.272616
0.272189
0.271427
0.270361
0.269023
0.26745
0.265678
0.263735
0.261666
0.259524
0.257334
0.255131
0.252949
0.250817
0.248765
0.246819
0.245
0.243328
0.241817
0.240481
0.239326
0.238357
0.237569
0.236956
0.236506
0.236202
0.236025
0.235974
0.297103
0.300003
0.302783
0.305376
0.307755
0.309898
0.311785
0.313403
0.314743
0.315799
0.316572
0.317064
0.317285
0.317245
0.316962
0.316451
0.315734
0.314831
0.313767
0.312564
0.311246
0.30984
0.308376
0.306875
0.305362
0.303862
0.302398
0.300992
0.299663
0.298429
0.297307
0.296308
0.295443
0.294718
0.294135
0.293693
0.293384
0.2932
0.293126
0.293145
0.293268
0.196146
0.0465503
0.0221136
0.0170266
0.0157358
0.0154254
0.0154938
0.0157643
0.0161524
0.0166369
0.017402
0.019283
0.0245317
0.0370889
0.0606772
0.0940298
0.12361
0.200952
0.0505459
0.0228211
0.0173014
0.0159678
0.0156591
0.0157283
0.0159887
0.0163529
0.016787
0.0173573
0.018372
0.0207661
0.0265525
0.0389483
0.0614422
0.0935625
0.205706
0.0522071
0.0232303
0.0175667
0.0162296
0.0159246
0.0159915
0.016239
0.0165793
0.0169724
0.0174284
0.0180231
0.0190208
0.0210689
0.0256048
0.035882
0.059546
0.210981
0.0532596
0.0235762
0.0178668
0.0165332
0.0162262
0.0162852
0.0165164
0.0168325
0.0171912
0.0175832
0.018017
0.0185447
0.0192616
0.0202906
0.021775
0.0239019
0.216641
0.0538023
0.0238888
0.0182242
0.0168894
0.01657
0.0166135
0.0168245
0.0171161
0.0174453
0.0177967
0.0181661
0.0185759
0.0190751
0.0197293
0.0206129
0.0217267
0.222605
0.0541712
0.0242648
0.0186669
0.0173089
0.0169609
0.0169795
0.0171659
0.0174322
0.0177355
0.018057
0.0183869
0.0187332
0.0191202
0.0195855
0.0202031
0.0211363
0.228832
0.0545365
0.0247788
0.0192197
0.0178032
0.0174056
0.0173877
0.017544
0.0177839
0.0180632
0.0183613
0.0186658
0.0189781
0.0193088
0.019669
0.0200736
0.0205627
0.235308
0.0551283
0.0255036
0.0199076
0.0183852
0.0179123
0.0178441
0.0179635
0.0181744
0.0184301
0.0187079
0.0189935
0.0192857
0.0195912
0.0199168
0.0202684
0.0206474
0.242025
0.0560861
0.026488
0.020755
0.019071
0.0184919
0.0183567
0.01843
0.0186076
0.0188384
0.0190964
0.0193649
0.0196407
0.0199273
0.0202304
0.0205575
0.0208949
0.248953
0.0574596
0.0277659
0.0217865
0.0198797
0.0191587
0.0189358
0.0189511
0.0190886
0.0192908
0.0195275
0.0197791
0.0200397
0.0203096
0.0205924
0.0209015
0.0212757
0.256003
0.0592176
0.02935
0.0230258
0.0208324
0.0199291
0.0195935
0.0195358
0.0196237
0.0197914
0.0200031
0.0202358
0.020481
0.0207351
0.0209972
0.0212684
0.0215593
0.263012
0.0612973
0.0312339
0.0244933
0.0219507
0.0208211
0.0203437
0.0201947
0.0202209
0.0203457
0.0205263
0.0207364
0.0209638
0.0212017
0.0214481
0.0217012
0.0219315
0.26976
0.0636688
0.0334142
0.0262026
0.0232535
0.0218529
0.0212009
0.0209389
0.0208888
0.0209601
0.0211018
0.0212838
0.0214888
0.0217065
0.0219342
0.0221824
0.0224884
0.275988
0.0662389
0.0358779
0.0281578
0.0247549
0.0230398
0.0221796
0.0217799
0.0216366
0.0216417
0.0217352
0.0218819
0.0220593
0.0222528
0.0224525
0.0226555
0.0228788
0.281397
0.0689157
0.038582
0.0303495
0.0264606
0.0243935
0.0232921
0.0227283
0.0224728
0.0223981
0.0224326
0.0225351
0.0226786
0.022845
0.0230217
0.0231967
0.0233318
0.285637
0.0716206
0.0414748
0.0327548
0.0283676
0.0259192
0.0245463
0.0237943
0.0234061
0.0232359
0.0231997
0.0232481
0.0233493
0.0234811
0.0236306
0.0237989
0.024013
0.288321
0.0743598
0.0445029
0.0353331
0.0304594
0.0276178
0.0259508
0.0249838
0.024441
0.0241594
0.0240411
0.0240261
0.0240767
0.0241659
0.0242728
0.024386
0.0245247
0.289028
0.0773004
0.0476428
0.0380537
0.0327194
0.0294729
0.0274918
0.0262916
0.0255783
0.0251711
0.0249589
0.0248718
0.0248649
0.0249078
0.0249751
0.0250415
0.0250587
0.288073
0.0802719
0.0507511
0.0408202
0.035079
0.031447
0.0291512
0.0277088
0.0268137
0.0262701
0.0259539
0.0257857
0.0257138
0.0257033
0.0257291
0.025777
0.0258558
0.286062
0.0827825
0.05373
0.0435662
0.0374877
0.0335029
0.0309039
0.0292198
0.0281382
0.0274514
0.0270245
0.0267687
0.0266251
0.0265533
0.0265211
0.0265046
0.0265197
0.283113
0.0849371
0.0565006
0.0462415
0.0398966
0.0356005
0.0327197
0.0308032
0.0295376
0.0287066
0.028166
0.0278191
0.0276006
0.0274661
0.0273786
0.0272956
0.0271553
0.279623
0.0868358
0.0590823
0.0488162
0.0422628
0.0377001
0.0345668
0.0324358
0.030996
0.0300252
0.0293717
0.0289322
0.0286362
0.0284366
0.0282974
0.0281845
0.028081
0.275926
0.0885627
0.0615048
0.0512711
0.044551
0.0397653
0.0364144
0.0340944
0.0324973
0.0313972
0.0306364
0.0301061
0.0297316
0.0294621
0.0292564
0.0290748
0.0289279
0.272382
0.0902212
0.0638179
0.0536053
0.0467394
0.0417691
0.0382385
0.0357606
0.0340291
0.0328151
0.0319565
0.0313408
0.0308906
0.0305528
0.0302814
0.0300187
0.0296859
0.26937
0.0919275
0.0660842
0.0558333
0.0488225
0.0436994
0.0400278
0.0374266
0.0355875
0.0342783
0.0333335
0.0326386
0.0321147
0.0317098
0.0313817
0.031081
0.0307649
0.267316
0.0937761
0.0683547
0.0579774
0.0508079
0.0455591
0.0417855
0.0390974
0.0371793
0.0357947
0.0347762
0.0340077
0.0334107
0.0329334
0.0325333
0.0321613
0.0318294
0.266808
0.095889
0.0706979
0.0600753
0.0527239
0.0473735
0.0435355
0.0407954
0.0388253
0.0373837
0.0363016
0.0354641
0.0347945
0.0342422
0.0337616
0.0332859
0.0327228
0.268218
0.0984619
0.0731967
0.0621853
0.0546262
0.0491959
0.0453265
0.0425638
0.0405625
0.0390757
0.0379346
0.0370275
0.0362805
0.0356473
0.0350914
0.034561
0.0339862
0.271549
0.101649
0.0759166
0.0643774
0.0565945
0.0511063
0.0472317
0.0444654
0.0424428
0.0409128
0.039709
0.0387234
0.0378854
0.0371541
0.0364985
0.0358783
0.0353128
0.276602
0.105548
0.0789091
0.0667293
0.0587269
0.0532051
0.0493421
0.0465773
0.044529
0.0429449
0.0416635
0.0405812
0.039634
0.0387858
0.0380038
0.0372279
0.0363548
0.282955
0.110182
0.0822029
0.0693258
0.0611376
0.055608
0.0517606
0.0489849
0.0468891
0.045225
0.0438373
0.0426302
0.0415473
0.040559
0.0396448
0.0387647
0.0378226
0.28994
0.115461
0.0858129
0.0722702
0.0639608
0.0584449
0.0545986
0.0517777
0.0495925
0.0478043
0.046268
0.044897
0.043641
0.0424761
0.04139
0.0403657
0.0394461
0.296767
0.121206
0.0897724
0.0757034
0.0673568
0.0618597
0.0579734
0.0550463
0.0527062
0.050731
0.0489899
0.0474058
0.0459343
0.0445544
0.0432507
0.0419817
0.0406488
0.302675
0.127231
0.0941991
0.0798372
0.0715256
0.0660139
0.0620071
0.0588801
0.056292
0.0540473
0.0520312
0.0501753
0.0484396
0.0468062
0.0452686
0.0438059
0.0423088
0.307037
0.133499
0.0993864
0.0849937
0.0767229
0.0710932
0.066831
0.0633663
0.0604079
0.0577908
0.0554151
0.0532177
0.0511588
0.0492198
0.0473992
0.0457064
0.0442214
0.309399
0.140308
0.105895
0.0916358
0.0832721
0.0773149
0.0725839
0.0685946
0.0651124
0.061999
0.0591634
0.0565431
0.0540943
0.0517931
0.0496313
0.0475865
0.0455786
0.309489
0.148532
0.114625
0.100393
0.0915807
0.0849313
0.0794214
0.0746659
0.0704731
0.0667156
0.0633014
0.0601624
0.0572464
0.0545222
0.0519914
0.0496432
0.0473648
0.30717
0.159935
0.12686
0.112091
0.10215
0.0942424
0.0875318
0.0817077
0.0765783
0.0719987
0.0678631
0.0640907
0.0606123
0.057382
0.0544234
0.0517448
0.0494603
0.303894
0.175857
0.144383
0.12778
0.1156
0.10562
0.0971619
0.0898946
0.0835475
0.0779253
0.0728944
0.0683526
0.0641999
0.0603616
0.0569042
0.0537696
0.050908
0.300585
0.200795
0.169087
0.148691
0.132793
0.119576
0.108685
0.0994826
0.0915435
0.084594
0.0784531
0.0729828
0.0680291
0.0634622
0.0594625
0.0558983
0.0526901
0.382918
1.17988
2.62632
4.09543
4.38469
3.15305
1.76438
1.30101
1.09302
0.942974
0.860119
0.831054
0.814954
0.781346
0.682863
0.512908
0.311479
0.14901
0.0636687
0.0364498
0.425064
1.31637
2.91367
4.43852
4.52316
3.04736
1.73047
1.32146
1.17494
1.1081
1.12011
1.19058
1.25856
1.23802
1.08269
0.807255
0.483546
0.223252
0.0864687
0.0426887
0.454998
1.41408
3.1223
4.69396
4.67652
3.11413
1.81736
1.38386
1.29082
1.31648
1.45991
1.68256
1.87451
1.88939
1.66017
1.23591
0.738302
0.334714
0.120984
0.0518815
0.46823
1.46119
3.24079
4.88461
4.90921
3.37186
2.01296
1.48638
1.39923
1.50179
1.76971
2.15635
2.51589
2.6386
2.40105
1.82637
1.10259
0.498137
0.172208
0.0652793
0.460654
1.44384
3.2474
4.99345
5.22279
3.82341
2.34405
1.64689
1.48381
1.61602
1.97405
2.51351
3.05816
3.35704
3.228
2.5908
1.6129
0.737008
0.248048
0.0850109
0.429194
1.35005
3.11652
4.98704
5.56646
4.45871
2.87567
1.9308
1.59216
1.64773
2.0223
2.673
3.41925
3.94146
4.05658
3.51005
2.31354
1.07981
0.36024
0.114269
0.375109
1.17981
2.82734
4.80171
5.83312
5.22896
3.68143
2.4634
1.85097
1.72879
1.96173
2.61527
3.53054
4.3456
4.81476
4.53488
3.23305
1.5708
0.526254
0.158173
0.305389
0.950845
2.387
4.37282
5.87254
5.97844
4.80188
3.40935
2.44645
2.04454
2.06686
2.46379
3.41396
4.52057
5.4185
5.56434
4.35253
2.26347
0.771796
0.225126
0.231479
0.697422
1.83903
3.67728
5.52032
6.41297
5.99581
4.73716
3.54379
2.77434
2.49245
2.61884
3.22769
4.47656
5.81618
6.46493
5.57485
3.19519
1.13714
0.329299
0.165814
0.462147
1.2642
2.77237
4.6847
6.21385
6.70376
6.12919
5.00683
3.99552
3.34859
3.12365
3.42049
4.37773
5.96381
7.14831
6.74009
4.36313
1.6892
0.494502
0.117674
0.282146
0.76536
1.8211
3.46914
5.25467
6.48383
6.76818
6.23641
5.34023
4.51453
4.00185
3.96309
4.6291
5.97401
7.55855
7.67026
5.65032
2.49253
0.764729
0.0903812
0.174201
0.42413
1.04082
2.2
3.79234
5.33508
6.29929
6.46228
6.0689
5.45832
4.9401
4.75099
5.15242
6.20389
7.59568
8.16758
6.79651
3.59222
1.22258
0.0822648
0.132046
0.259558
0.578438
1.26273
2.40337
3.81934
5.0653
5.82752
5.98341
5.75384
5.45414
5.33619
5.6192
6.39545
7.41564
8.09724
7.46826
4.88332
1.98974
0.091506
0.141561
0.235681
0.425986
0.831091
1.5696
2.66305
3.81593
4.73309
5.26377
5.47327
5.4996
5.55599
5.817
6.34703
7.0411
7.54649
7.38999
6.03782
3.20637
0.123355
0.203403
0.320159
0.498329
0.822836
1.35491
2.11962
3.02672
3.87783
4.58115
5.0913
5.34095
5.5615
5.81314
6.14278
6.51528
6.79049
6.7919
6.30536
4.80863
0.204205
0.353709
0.53497
0.768677
1.10158
1.58085
2.20692
2.92985
3.68105
4.37677
4.97751
5.302
5.55542
5.73891
5.86684
5.95557
6.0009
5.96838
5.82132
5.44633
0.417485
0.684428
0.961466
1.28054
1.68251
2.16776
2.71152
3.31729
3.94616
4.55436
5.06214
5.39977
5.58575
5.63523
5.5715
5.4399
5.2925
5.17488
5.08599
4.97659
1.00745
1.33676
1.61273
1.92439
2.3276
2.80137
3.33959
3.88713
4.4264
4.8977
5.253
5.45815
5.51405
5.42761
5.2283
4.96444
4.69976
4.50437
4.39998
4.34688
2.06896
1.99819
1.98818
2.29582
2.78799
3.25785
3.69427
4.11068
4.4883
4.79444
4.99348
5.08078
5.02457
4.8636
4.62629
4.34682
4.07695
3.86788
3.74496
3.71521
0.96165
1.14029
1.39946
1.65061
1.88239
2.099
2.31429
2.49666
2.63917
2.73821
2.78956
2.78807
2.72816
2.63233
2.51865
2.40452
2.30861
2.25417
2.25135