/*--------------------------------*- C++ -*----------------------------------*\
  =========                 |
  \\      /  F ield         | OpenFOAM: The Open Source CFD Toolbox
   \\    /   O peration     | Website:  https://openfoam.org
    \\  /    A nd           | Version:  6
     \\/     M anipulation  |
\*---------------------------------------------------------------------------*/
FoamFile
{
    version     2.0;
    format      ascii;
    class       surfaceVectorField;
    location    "3.92";
    object      Uf;
}
// * * * * * * * * * * * * * * * * * * * * * * * * * * * * * * * * * * * * * //

dimensions      [0 1 -1 0 0 0 0];

internalField   nonuniform List<vector> 
8193
(
(10.6056 -0.000739533 0)
(10.7822 -0.0322064 0)
(10.1046 -0.10952 2.38373e-19)
(10.7965 0.109496 0)
(10.9445 0.112071 0)
(10.8361 0.24158 -4.99102e-20)
(10.9569 0.245956 -2.39153e-20)
(10.8383 0.377831 -5.45625e-19)
(10.9407 0.368082 -1.82898e-19)
(10.8332 0.517388 6.67825e-19)
(10.9291 0.499573 2.20596e-19)
(10.8268 0.669778 -5.26328e-20)
(10.9284 0.648095 -1.08775e-20)
(10.8176 0.841075 -6.48989e-20)
(10.9285 0.816278 -4.36469e-20)
(10.8025 1.03495 -7.48186e-19)
(10.9253 1.00692 -1.33081e-19)
(10.7775 1.25501 6.60624e-20)
(10.9146 1.22417 1.11405e-19)
(10.7381 1.50719 0)
(10.8944 1.47345 -9.61208e-20)
(10.6786 1.80061 0)
(10.8612 1.76421 9.85446e-20)
(10.5934 2.1477 7.49532e-20)
(10.8122 2.11009 0)
(10.4744 2.5599 8.19521e-19)
(10.7402 2.52479 1.97312e-19)
(10.311 3.03998 -1.23111e-18)
(10.6312 3.01365 -2.98641e-19)
(10.0843 3.56944 9.83123e-20)
(10.4609 3.56431 8.19805e-20)
(9.77352 4.10245 0)
(10.1902 4.12595 1.59119e-19)
(9.37367 4.58092 0)
(9.80023 4.63189 -1.27071e-19)
(8.90199 4.92766 0)
(9.29295 5.00364 -7.03679e-20)
(8.40931 5.08351 0)
(8.6998 5.163 7.13159e-20)
(7.98689 5.05495 0)
(8.12482 5.15492 -1.22522e-19)
(7.71094 4.87499 0)
(7.68431 4.93743 -1.05652e-20)
(7.59114 4.5489 5.48338e-21)
(7.3987 4.53686 -2.12824e-20)
(7.60331 4.09421 -9.35765e-21)
(7.25439 4.01649 -1.0564e-19)
(7.7324 3.55092 -1.50314e-20)
(7.24132 3.4149 1.55266e-19)
(7.98526 2.95994 -1.23113e-19)
(7.36685 2.76927 2.9328e-19)
(8.3641 2.41227 2.2154e-18)
(7.68136 2.1698 -6.29248e-19)
(8.84236 1.98853 -6.16938e-20)
(8.17369 1.72962 1.41442e-19)
(9.34947 1.69832 2.9362e-18)
(8.7535 1.47075 1.32987e-19)
(9.79105 1.4752 2.00635e-19)
(9.30049 1.30316 -1.27944e-19)
(10.1119 1.26494 0)
(9.71511 1.14101 2.2435e-19)
(10.3427 1.06522 5.99362e-21)
(10.0001 0.970668 -1.81779e-19)
(10.5374 0.894477 6.03956e-21)
(10.2297 0.816999 -1.17828e-19)
(10.7145 0.751423 4.49189e-20)
(10.4381 0.692507 1.21969e-20)
(10.864 0.628655 -2.03758e-19)
(10.6264 0.590079 6.97236e-20)
(10.979 0.521097 -1.09087e-19)
(10.782 0.500534 8.49007e-21)
(11.0646 0.426426 -3.16333e-20)
(10.9016 0.41954 -5.15297e-20)
(11.1282 0.342084 -6.22176e-22)
(10.9927 0.346974 2.02885e-20)
(11.1687 0.26923 -4.67998e-22)
(11.0668 0.279654 -1.58737e-20)
(11.1522 0.206768 0)
(11.1366 0.213382 0)
(11.0131 0.166602 1.59164e-19)
(11.1572 0.163296 -2.64281e-20)
(11.0664 0.144545 1.90511e-19)
(10.6819 0.155606 -1.31223e-18)
(11.0382 0.140127 0)
(11.0255 0.0856976 -6.51427e-20)
(10.9233 -0.0548295 0)
(11.0295 0.259169 -2.40275e-20)
(11.0446 0.224412 -2.45106e-19)
(11.0108 0.376662 -3.05704e-20)
(11.0453 0.346502 2.18957e-20)
(11.0013 0.50303 1.42503e-20)
(11.0362 0.461499 -6.95148e-21)
(11.0023 0.645825 6.29236e-20)
(11.0383 0.593427 1.6842e-19)
(11.0082 0.809258 2.7204e-19)
(11.051 0.749625 -5.20383e-20)
(11.0135 0.997493 -1.12367e-19)
(11.064 0.929798 4.07013e-20)
(11.0139 1.21315 -4.01967e-19)
(11.0729 1.13565 -2.17372e-19)
(11.0071 1.46196 -5.19373e-20)
(11.077 1.37342 2.01409e-20)
(10.992 1.753 -6.34848e-19)
(11.0773 1.65193 -2.98395e-19)
(10.9675 2.10043 9.7686e-20)
(11.0736 1.98465 3.4211e-19)
(10.9282 2.51954 1.32778e-19)
(11.0623 2.38805 -3.10757e-20)
(10.8607 3.01877 7.20032e-19)
(11.0301 2.8733 -1.66414e-19)
(10.7378 3.58752 -1.31552e-19)
(10.9489 3.43521 1.74639e-19)
(10.5173 4.18095 1.55986e-19)
(10.7728 4.03937 1.68369e-20)
(10.16 4.72465 6.66861e-19)
(10.4504 4.60451 2.06114e-19)
(9.65634 5.12322 -1.96419e-19)
(9.95929 5.05252 -1.39784e-19)
(9.04269 5.30119 6.02501e-22)
(9.31996 5.27943 -3.15127e-19)
(8.39492 5.27015 -5.02439e-20)
(8.61614 5.29068 7.04107e-19)
(7.81977 5.0338 -1.32554e-19)
(7.93739 5.10418 -2.13628e-19)
(7.38951 4.59465 -1.86939e-20)
(7.38603 4.65281 3.98066e-21)
(7.11386 4.00992 -2.69749e-20)
(7.0107 4.03673 2.44818e-20)
(6.9818 3.34469 9.83783e-21)
(6.80439 3.34877 -5.73798e-21)
(6.99874 2.66219 3.05145e-19)
(6.75739 2.64233 7.26412e-20)
(7.20823 2.05091 -3.29213e-19)
(6.89151 1.97584 3.2048e-19)
(7.62722 1.59641 -2.43984e-19)
(7.26073 1.45601 -2.40524e-19)
(8.19822 1.30994 3.33062e-19)
(7.81863 1.14029 3.37332e-19)
(8.79779 1.14801 -1.04746e-18)
(8.46003 0.999 7.32124e-21)
(9.3036 1.02341 -1.04334e-19)
(9.04165 0.918182 2.00436e-19)
(9.67297 0.887282 -3.82192e-19)
(9.47509 0.813852 -1.10315e-19)
(9.94794 0.750135 -2.06736e-19)
(9.7808 0.690697 7.03466e-20)
(10.1857 0.632628 -1.29666e-20)
(10.0315 0.579734 -3.61341e-19)
(10.4037 0.541561 -5.45732e-21)
(10.2629 0.493902 1.01168e-19)
(10.5936 0.467259 3.18204e-22)
(10.4723 0.427725 2.62574e-21)
(10.7466 0.400979 -1.63823e-20)
(10.6478 0.371007 -3.10457e-20)
(10.8647 0.33836 1.55823e-19)
(10.7846 0.318957 -3.63927e-20)
(10.9587 0.279891 4.40302e-20)
(10.8892 0.271472 9.84768e-20)
(11.0426 0.226987 4.65231e-22)
(10.9718 0.225698 -1.81566e-19)
(11.1197 0.171654 -2.66085e-20)
(11.0416 0.178569 -3.44216e-20)
(11.1599 0.122334 1.65633e-18)
(11.0873 0.140991 2.61132e-19)
(11.0955 0.121849 -9.04662e-20)
(11.1066 0.12118 3.34128e-19)
(11.0954 0.208372 1.32035e-18)
(11.1367 0.17026 2.14998e-19)
(11.1157 0.0751308 -1.40711e-18)
(11.0826 0.31503 -3.60017e-19)
(11.1305 0.278985 -4.76831e-19)
(11.0806 0.427567 1.26036e-19)
(11.1385 0.395665 1.66096e-19)
(11.0899 0.558779 7.4781e-20)
(11.147 0.515836 2.61728e-19)
(11.107 0.710024 4.8488e-19)
(11.1646 0.654375 -2.27171e-19)
(11.1259 0.882677 -7.33789e-21)
(11.1901 0.818343 4.44743e-20)
(11.1432 1.08145 5.30859e-19)
(11.2171 1.00819 9.2676e-20)
(11.1579 1.31179 -9.6963e-20)
(11.2428 1.22745 -4.11356e-19)
(11.1714 1.5824 -1.90338e-19)
(11.2704 1.48567 -8.72578e-20)
(11.1855 1.90667 -9.57106e-19)
(11.3038 1.79595 -3.43793e-19)
(11.1982 2.3008 2.10352e-19)
(11.3429 2.17431 3.84148e-19)
(11.198 2.77709 -3.36827e-19)
(11.3781 2.63476 3.42906e-19)
(11.1573 3.33347 -9.79357e-19)
(11.3824 3.17896 -3.03253e-19)
(11.0277 3.93931 3.20717e-19)
(11.3066 3.78429 3.07476e-19)
(10.7525 4.5255 6.75982e-20)
(11.0838 4.38962 -5.50966e-21)
(10.2949 5.00262 1.52201e-20)
(10.6612 4.89344 -5.40176e-19)
(9.67112 5.28422 -2.20098e-19)
(10.0319 5.21864 5.00853e-19)
(8.93796 5.34655 -4.19076e-19)
(9.26011 5.31196 -3.0788e-19)
(8.17864 5.15235 5.77259e-19)
(8.41358 5.16773 4.57554e-19)
(7.50614 4.71295 -4.3185e-20)
(7.60555 4.75152 -3.43043e-19)
(7.00132 4.08972 2.55022e-20)
(6.95594 4.09914 -1.35847e-20)
(6.68986 3.3777 -2.01013e-21)
(6.52888 3.34218 1.55824e-19)
(6.55591 2.65069 5.62431e-20)
(6.30436 2.56749 -3.6345e-22)
(6.60563 1.9561 -9.77581e-20)
(6.254 1.83169 4.62273e-20)
(6.88064 1.40393 -1.56566e-19)
(6.44419 1.21411 4.76066e-19)
(7.37609 1.05475 3.32363e-19)
(6.9018 0.809265 -4.08789e-19)
(8.00437 0.880818 -7.23771e-19)
(7.53632 0.621627 -9.01237e-20)
(8.63641 0.801831 1.90366e-19)
(8.22338 0.581151 8.59007e-20)
(9.15533 0.729088 -4.19747e-19)
(8.82047 0.562479 9.80892e-19)
(9.53428 0.629435 -2.28025e-19)
(9.26099 0.498304 -1.17127e-18)
(9.82293 0.526106 -8.38299e-20)
(9.58366 0.411703 3.53149e-19)
(10.0731 0.441602 -2.35699e-19)
(9.85538 0.337865 -2.20666e-19)
(10.3004 0.379401 5.113e-20)
(10.1077 0.287224 -1.63021e-19)
(10.4992 0.331147 8.01396e-21)
(10.3358 0.252764 2.09452e-19)
(10.6624 0.288629 -7.19009e-20)
(10.5286 0.22467 -4.29694e-20)
(10.7897 0.249316 1.44569e-19)
(10.6827 0.198118 -2.7315e-20)
(10.8868 0.214097 -8.4513e-20)
(10.8046 0.172661 7.20078e-20)
(10.9607 0.181283 -4.19659e-19)
(10.9001 0.148024 -1.83408e-19)
(11.0198 0.144779 5.27646e-19)
(10.973 0.125627 -1.49668e-19)
(11.0711 0.112351 -1.02597e-18)
(11.0255 0.109361 4.18495e-19)
(11.0702 0.0937218 -1.52886e-19)
(11.1099 0.11007 -1.15765e-19)
(11.1857 0.267134 3.78145e-20)
(11.2247 0.228476 2.76426e-19)
(11.1987 0.164134 1.12847e-18)
(11.1875 0.370677 -7.97561e-19)
(11.2233 0.328057 -2.32207e-19)
(11.2002 0.487183 2.3537e-19)
(11.2455 0.44524 9.98028e-20)
(11.2232 0.622212 2.17164e-19)
(11.2712 0.568969 5.27462e-19)
(11.2537 0.778815 -5.80549e-19)
(11.306 0.712421 -4.4047e-19)
(11.2874 0.960183 1.17153e-19)
(11.3479 0.883566 3.63395e-19)
(11.323 1.17166 -3.19992e-19)
(11.3943 1.08383 -2.77412e-19)
(11.3627 1.42182 -1.00669e-18)
(11.4462 1.31992 -2.29926e-19)
(11.4114 1.7233 -9.75396e-19)
(11.5109 1.60539 6.90669e-20)
(11.4711 2.09224 -9.13365e-19)
(11.5929 1.9565 -1.22931e-19)
(11.5341 2.54295 -8.85597e-20)
(11.6861 2.38766 1.40622e-19)
(11.5754 3.07892 3.5783e-19)
(11.7671 2.90421 3.04715e-19)
(11.5459 3.68114 6.00268e-21)
(11.7883 3.49248 0)
(11.3757 4.29471 -1.39359e-20)
(11.6759 4.10612 -1.08013e-18)
(11.005 4.82919 -5.97484e-19)
(11.3509 4.65932 1.17318e-18)
(10.4166 5.19173 -9.00363e-19)
(10.7767 5.04587 -5.73384e-19)
(9.64412 5.33834 4.067e-19)
(9.99169 5.22153 5.28287e-19)
(8.7482 5.20952 -2.43068e-19)
(9.04871 5.10567 -4.53833e-19)
(7.84109 4.7785 -3.82856e-19)
(8.03201 4.71843 6.13154e-19)
(7.05958 4.12494 -2.92421e-19)
(7.11565 4.0765 -7.23652e-19)
(6.49167 3.34696 1.54614e-19)
(6.41295 3.26837 -6.6364e-20)
(6.15568 2.53328 1.64752e-19)
(5.97409 2.41468 -4.55581e-20)
(6.02918 1.7579 1.01446e-19)
(5.77112 1.59306 -1.10717e-19)
(6.12492 1.09278 7.31602e-19)
(5.77318 0.876557 1.61413e-19)
(6.48222 0.638125 6.87704e-20)
(6.06744 0.366376 7.31551e-19)
(7.06817 0.413982 -8.23033e-19)
(6.63378 0.112248 -8.58043e-19)
(7.75737 0.361057 2.90052e-19)
(7.3484 0.0673079 -4.14051e-19)
(8.41184 0.366138 9.10442e-19)
(8.06115 0.118982 -2.89748e-20)
(8.93424 0.346455 -3.3562e-19)
(8.65306 0.149579 9.15321e-19)
(9.32073 0.289767 -5.98802e-19)
(9.08945 0.123136 -6.23886e-19)
(9.62693 0.228814 1.06022e-19)
(9.42362 0.076998 8.68785e-20)
(9.89761 0.185986 -1.48814e-19)
(9.71346 0.0451433 0)
(10.1445 0.161741 -6.00208e-21)
(9.98259 0.0342188 -8.57211e-20)
(10.3613 0.146959 1.40549e-19)
(10.2249 0.0357798 1.44497e-19)
(10.5416 0.133649 1.19104e-20)
(10.4303 0.0400217 -2.5004e-20)
(10.6869 0.119672 -6.66617e-20)
(10.5967 0.0418412 1.77613e-20)
(10.8041 0.106805 -1.31178e-20)
(10.7309 0.0405219 -8.54313e-20)
(10.8995 0.0952519 -1.39245e-19)
(10.8369 0.0375005 0)
(10.9746 0.0830455 3.68282e-19)
(10.9183 0.0378476 -1.8216e-19)
(11.0286 0.0695031 1.40906e-19)
(10.9801 0.0449186 1.42758e-19)
(11.0353 0.0443067 1.26425e-20)
(11.0643 0.0562032 -4.78988e-19)
(11.276 0.308634 0)
(11.3145 0.268082 0)
(11.2779 0.210699 -3.95753e-20)
(11.2913 0.414399 7.72157e-20)
(11.3272 0.36429 3.64676e-19)
(11.3204 0.532363 3.45834e-19)
(11.3648 0.479526 -3.06828e-19)
(11.3614 0.67011 4.43612e-19)
(11.4102 0.605183 2.71243e-19)
(11.4101 0.831848 9.14137e-20)
(11.4648 0.753584 -3.94478e-19)
(11.4646 1.02242 3.8125e-19)
(11.5287 0.931988 4.92362e-19)
(11.5276 1.24883 -1.88009e-19)
(11.6032 1.14398 1.18079e-19)
(11.606 1.5235 2.35774e-19)
(11.6956 1.40081 -3.48715e-19)
(11.7055 1.86246 1.65766e-19)
(11.8146 1.71967 2.74314e-20)
(11.8223 2.28066 0)
(11.9582 2.11581 0)
(11.9352 2.78409 -5.25959e-20)
(12.1058 2.59488 -8.28203e-19)
(11.9983 3.36097 -5.15103e-20)
(12.2138 3.14739 6.25713e-19)
(11.9384 3.96972 -1.0914e-18)
(12.2093 3.73975 0)
(11.6739 4.53296 -1.08119e-18)
(12.0001 4.29823 -1.05379e-18)
(11.1576 4.95376 1.18333e-18)
(11.5143 4.7269 3.01731e-18)
(10.3938 5.1677 0)
(10.7585 4.94215 -8.8203e-19)
(9.42802 5.09138 -3.29041e-19)
(9.76554 4.8638 -1.10036e-18)
(8.35151 4.68211 -1.93858e-19)
(8.61554 4.47684 -2.36882e-19)
(7.32224 4.0225 2.82416e-19)
(7.47577 3.86073 5.65181e-19)
(6.48383 3.20621 -4.60316e-19)
(6.50564 3.05219 -9.72929e-19)
(5.90837 2.32995 -2.36545e-19)
(5.7999 2.15228 -3.84299e-20)
(5.5992 1.47652 -3.90063e-19)
(5.39318 1.26699 -8.49384e-20)
(5.53499 0.715776 -1.95565e-19)
(5.25082 0.465208 -1.53678e-19)
(5.73756 0.159825 3.21593e-19)
(5.37426 -0.155479 2.76758e-19)
(6.2218 -0.144621 -2.66258e-19)
(5.80071 -0.49947 9.00495e-20)
(6.90316 -0.216113 -4.56117e-19)
(6.48315 -0.575142 -4.47928e-19)
(7.63632 -0.155297 -4.20017e-19)
(7.25831 -0.48486 0)
(8.28768 -0.0842097 1.25706e-19)
(7.97 -0.362859 -4.19402e-19)
(8.79391 -0.0652958 5.51683e-19)
(8.53717 -0.298378 4.0327e-19)
(9.17717 -0.0846814 3.56606e-20)
(8.96302 -0.290895 -3.05658e-19)
(9.49377 -0.104483 -1.09723e-19)
(9.30607 -0.295692 3.51234e-19)
(9.77873 -0.105849 6.24895e-20)
(9.6119 -0.284692 0)
(10.0389 -0.0918383 6.36055e-20)
(9.89431 -0.255523 -7.2101e-20)
(10.2675 -0.0717299 -1.9077e-20)
(10.1473 -0.217782 3.28544e-19)
(10.4592 -0.0534667 -1.93999e-20)
(10.3614 -0.180981 -3.58248e-19)
(10.6152 -0.0394122 6.36467e-21)
(10.536 -0.149436 8.45597e-20)
(10.742 -0.0283858 6.46283e-21)
(10.6782 -0.123837 -1.863e-19)
(10.8453 -0.0179721 -3.85224e-20)
(10.793 -0.102177 0)
(10.9294 -0.00799595 -5.36894e-20)
(10.882 -0.0783259 2.63662e-19)
(10.9962 0.0023712 -2.74706e-21)
(10.952 -0.0492589 -2.15675e-19)
(11.018 -0.02957 3.605e-19)
(11.0435 0.0127534 1.0993e-20)
(11.3757 0.338635 3.69021e-19)
(11.4095 0.291814 1.09415e-19)
(11.3636 0.244616 6.93669e-20)
(11.4089 0.441799 5.94236e-19)
(11.4406 0.383334 -7.51706e-20)
(11.4586 0.56029 -3.51277e-19)
(11.4985 0.495741 -1.69971e-19)
(11.5202 0.700548 -2.35208e-19)
(11.566 0.622748 1.40317e-20)
(11.5916 0.867712 -3.14874e-19)
(11.6445 0.774875 -2.53102e-19)
(11.6753 1.06799 6.36563e-19)
(11.7384 0.959884 2.65762e-19)
(11.7798 1.31223 3.32712e-19)
(11.8557 1.1852 1.01915e-18)
(11.9142 1.61652 -5.36327e-19)
(12.0072 1.46653 -9.80026e-19)
(12.0781 1.99637 -1.24918e-19)
(12.1951 1.82125 -1.26715e-19)
(12.2532 2.4584 -8.38566e-19)
(12.4006 2.25581 1.0411e-18)
(12.3975 2.99309 -6.49538e-19)
(12.5818 2.75962 -3.9445e-19)
(12.4402 3.56855 6.68951e-19)
(12.6717 3.30557 -3.22155e-19)
(12.2904 4.11901 2.61617e-20)
(12.5744 3.83755 0)
(11.8709 4.55577 1.85071e-18)
(12.1978 4.26531 -6.83589e-20)
(11.15 4.79617 2.43832e-18)
(11.5001 4.48595 -5.63498e-19)
(10.161 4.73806 -9.93766e-19)
(10.4943 4.42839 1.74026e-18)
(8.98644 4.35681 -1.06344e-18)
(9.27777 4.04471 3.06875e-19)
(7.76952 3.70923 1.04032e-19)
(7.98463 3.43198 -1.32307e-18)
(6.6842 2.88879 -5.57909e-19)
(6.79405 2.63752 5.86836e-19)
(5.84587 1.98301 -4.83253e-19)
(5.83041 1.72918 1.28193e-18)
(5.3079 1.08202 2.39914e-19)
(5.17327 0.810751 -6.10889e-20)
(5.06414 0.25784 2.01221e-19)
(4.84066 -0.0392928 5.3846e-19)
(5.10613 -0.40509 5.75852e-20)
(4.80954 -0.742238 -2.76484e-20)
(5.45455 -0.80305 8.84744e-20)
(5.0972 -1.18996 2.13724e-19)
(6.07316 -0.913202 -1.70647e-19)
(5.68742 -1.32878 -1.67546e-19)
(6.83461 -0.828441 0)
(6.46531 -1.22956 0)
(7.58278 -0.677726 0)
(7.26157 -1.03498 2.55067e-19)
(8.20786 -0.56426 0)
(7.94379 -0.871531 0)
(8.68876 -0.515302 -4.3814e-19)
(8.47487 -0.784027 0)
(9.06855 -0.497302 1.0386e-19)
(8.88799 -0.74231 -4.78422e-19)
(9.39646 -0.474429 4.597e-19)
(9.23776 -0.70348 3.0835e-19)
(9.69616 -0.434381 -3.38943e-19)
(9.55574 -0.648565 -2.28786e-19)
(9.96901 -0.382303 8.17304e-21)
(9.84792 -0.579041 -2.00046e-19)
(10.2081 -0.328444 1.79022e-19)
(10.1072 -0.505111 4.12848e-19)
(10.4092 -0.279137 -6.50154e-20)
(10.3264 -0.435577 -2.26295e-19)
(10.5744 -0.235542 3.90864e-20)
(10.5067 -0.373785 -3.52026e-20)
(10.7095 -0.196579 -5.33705e-20)
(10.6547 -0.319843 6.67869e-20)
(10.8198 -0.161231 2.85407e-19)
(10.7751 -0.271309 -4.12449e-20)
(10.9084 -0.128557 -3.59906e-19)
(10.8701 -0.221865 3.33934e-19)
(10.9792 -0.0992945 1.45776e-19)
(10.9442 -0.170102 1.08841e-19)
(11.017 -0.132423 1.79342e-20)
(11.0332 -0.0721649 1.11352e-18)
(11.4832 0.348517 -3.36077e-19)
(11.5114 0.29358 -3.41258e-21)
(11.4526 0.259311 2.68696e-19)
(11.5384 0.448411 -7.4279e-19)
(11.5653 0.37982 -3.05845e-19)
(11.6109 0.565836 5.02958e-20)
(11.6464 0.48832 3.61279e-19)
(11.6971 0.707418 -6.63132e-21)
(11.7394 0.614543 -2.46008e-20)
(11.799 0.878816 0)
(11.8488 0.767828 5.7105e-19)
(11.926 1.08916 6.57176e-19)
(11.9863 0.958245 -4.42619e-19)
(12.0906 1.35351 3.06792e-19)
(12.1657 1.19741 6.44369e-19)
(12.296 1.68832 -5.5574e-19)
(12.3925 1.50243 -1.30944e-18)
(12.5254 2.10117 1.0571e-18)
(12.6494 1.88399 1.03732e-18)
(12.7387 2.58229 1.73616e-18)
(12.8926 2.33126 6.7341e-19)
(12.8692 3.1025 -2.19005e-19)
(13.0572 2.81521 4.2144e-19)
(12.823 3.61044 -9.83659e-19)
(13.0569 3.2929 -5.44405e-19)
(12.5041 4.02854 -9.76454e-20)
(12.7877 3.68721 2.91117e-19)
(11.8521 4.25358 -2.47722e-18)
(12.1639 3.90167 -2.8132e-18)
(10.8761 4.19718 -1.19099e-18)
(11.1867 3.84016 3.81455e-19)
(9.65506 3.84119 3.98955e-18)
(9.94264 3.46848 2.59477e-18)
(8.31828 3.21156 6.98637e-19)
(8.55953 2.8503 5.02081e-19)
(7.0404 2.38766 -7.05743e-19)
(7.20082 2.05748 -2.78809e-18)
(5.96438 1.46593 2.5336e-18)
(6.03009 1.14844 1.32746e-18)
(5.1778 0.538497 1.82099e-18)
(5.1412 0.213243 3.94406e-19)
(4.72394 -0.319828 2.65371e-19)
(4.58693 -0.664139 -6.01088e-20)
(4.60104 -1.0398 3.92399e-19)
(4.37695 -1.41155 -3.89928e-19)
(4.80851 -1.52564 1.31919e-20)
(4.51082 -1.93392 9.09598e-20)
(5.33048 -1.70775 0)
(4.9917 -2.14889 0)
(6.07366 -1.63006 0)
(5.73 -2.07789 -2.2851e-19)
(6.88151 -1.42162 2.50074e-19)
(6.56679 -1.84351 2.19577e-19)
(7.61055 -1.21539 2.54857e-19)
(7.34403 -1.5937 7.17368e-21)
(8.19558 -1.07867 0)
(7.97581 -1.41603 0)
(8.65349 -1.0024 -1.6828e-19)
(8.46827 -1.30844 0)
(9.03297 -0.943905 -1.57693e-19)
(8.87109 -1.22733 -8.34348e-19)
(9.37083 -0.875916 -2.09812e-19)
(9.22635 -1.1412 5.20719e-19)
(9.6804 -0.793006 1.08776e-19)
(9.55305 -1.04072 -5.07021e-19)
(9.95938 -0.702184 3.98969e-19)
(9.85156 -0.930388 4.11545e-19)
(10.2013 -0.613271 -1.10836e-20)
(10.1139 -0.819998 2.04913e-19)
(10.4039 -0.53191 -2.13906e-19)
(10.3348 -0.717191 -4.89713e-20)
(10.5711 -0.45862 -5.42276e-20)
(10.5169 -0.624528 1.40412e-19)
(10.7087 -0.392118 7.94088e-20)
(10.6672 -0.541233 -1.28845e-19)
(10.8212 -0.331146 4.57585e-21)
(10.7904 -0.464285 7.29115e-20)
(10.9128 -0.27543 3.51439e-19)
(10.8874 -0.388688 -5.43693e-21)
(10.9873 -0.224232 -1.0315e-18)
(10.9631 -0.314424 7.51028e-19)
(11.0391 -0.258488 -7.6133e-19)
(11.0471 -0.17701 -3.06496e-19)
(11.6007 0.334427 2.32665e-20)
(11.622 0.26969 4.24938e-19)
(11.5465 0.251357 -4.44486e-19)
(11.6806 0.429077 2.80739e-19)
(11.7007 0.34861 -5.70917e-19)
(11.7791 0.542727 1.29572e-19)
(11.807 0.450023 -3.50923e-19)
(11.8961 0.682649 4.67311e-19)
(11.9308 0.571754 1.69991e-19)
(12.0411 0.855935 1.98898e-19)
(12.0825 0.722204 1.31289e-18)
(12.2302 1.07505 -4.33337e-19)
(12.2822 0.914326 -1.69209e-18)
(12.4717 1.35641 -7.57889e-19)
(12.5407 1.16207 1.20112e-18)
(12.7502 1.7105 2.68095e-19)
(12.843 1.47806 -9.93289e-19)
(13.0224 2.12919 6.55267e-19)
(13.1409 1.85916 1.03532e-18)
(13.222 2.5827 -3.50608e-19)
(13.3646 2.27441 -1.00636e-18)
(13.2566 3.02467 4.55855e-19)
(13.4328 2.68182 0)
(13.0352 3.39482 7.3763e-19)
(13.2619 3.02255 5.94622e-19)
(12.4648 3.59221 -2.44676e-18)
(12.7267 3.20385 3.7492e-19)
(11.5235 3.53473 -6.97162e-19)
(11.7977 3.14037 -2.80335e-18)
(10.2898 3.18517 2.68882e-18)
(10.549 2.78069 2.70008e-18)
(8.88673 2.57196 -8.81815e-19)
(9.12219 2.16048 -4.92434e-19)
(7.46809 1.7462 -2.38763e-18)
(7.64813 1.36548 1.84008e-18)
(6.19914 0.81915 -7.40562e-19)
(6.32001 0.460531 -1.69512e-18)
(5.18719 -0.126327 -5.98715e-19)
(5.24371 -0.484672 1.76005e-18)
(4.50727 -1.01668 -1.11921e-18)
(4.48505 -1.38556 -3.32972e-18)
(4.19825 -1.77363 -3.52471e-19)
(4.08925 -2.16545 -1.86163e-19)
(4.26444 -2.31309 -3.77819e-19)
(4.06457 -2.73577 -6.73944e-19)
(4.68456 -2.55651 -2.21925e-20)
(4.41015 -3.01136 5.20747e-19)
(5.38043 -2.51171 -2.24327e-19)
(5.07351 -2.98092 0)
(6.20909 -2.27935 5.07332e-20)
(5.91379 -2.74025 -4.14474e-19)
(7.01466 -2.00219 -4.21573e-20)
(6.75701 -2.43422 8.27564e-19)
(7.69621 -1.78018 -2.66713e-19)
(7.48359 -2.1757 -8.44357e-19)
(8.23704 -1.63185 0)
(8.06142 -1.99514 -1.48562e-19)
(8.67548 -1.52289 -6.51627e-19)
(8.52584 -1.86059 -1.15323e-19)
(9.05451 -1.41784 -3.07416e-20)
(8.92329 -1.73424 -3.77031e-19)
(9.39823 -1.30182 2.21349e-19)
(9.28181 -1.59909 6.09577e-19)
(9.71292 -1.17545 -1.24582e-19)
(9.61202 -1.45342 -3.23075e-19)
(9.99438 -1.04659 3.09172e-19)
(9.91157 -1.30325 1.5998e-19)
(10.2368 -0.923311 1.57544e-19)
(10.173 -1.15704 1.15554e-19)
(10.4394 -0.809597 2.93915e-19)
(10.3925 -1.02089 -2.06329e-19)
(10.6063 -0.705558 1.17705e-19)
(10.5738 -0.8966 9.34053e-20)
(10.7433 -0.610408 -1.48321e-19)
(10.7231 -0.782607 7.59662e-19)
(10.8558 -0.524318 5.50898e-20)
(10.8437 -0.676349 -4.9899e-19)
(10.9478 -0.445645 3.91889e-19)
(10.9392 -0.574519 5.40632e-19)
(11.0232 -0.372974 -1.13389e-18)
(11.0142 -0.478562 -8.72235e-19)
(11.0896 -0.405633 -2.96589e-20)
(11.0858 -0.306047 -1.26591e-18)
(11.7272 0.290965 7.81462e-20)
(11.7382 0.215423 1.13812e-18)
(11.6479 0.216785 1.41586e-18)
(11.8329 0.377093 -1.18549e-18)
(11.8419 0.283131 -1.51261e-18)
(11.9613 0.482107 -2.72806e-19)
(11.9754 0.371533 1.97782e-19)
(12.1204 0.615084 9.35849e-19)
(12.1396 0.481748 1.8571e-19)
(12.327 0.785579 -5.82693e-19)
(12.3503 0.62216 7.37691e-19)
(12.5957 1.0064 6.03796e-20)
(12.6275 0.806818 -8.39013e-19)
(12.9161 1.28933 9.19715e-19)
(12.9637 1.04647 1.21585e-19)
(13.2415 1.63399 -2.46221e-19)
(13.3113 1.34471 6.56278e-19)
(13.4974 2.01522 -6.61605e-19)
(13.589 1.6826 -2.47704e-18)
(13.5858 2.3814 -6.3842e-19)
(13.7009 2.01569 4.2722e-18)
(13.4453 2.69018 1.11168e-19)
(13.6053 2.29003 -1.76374e-18)
(12.9635 2.84824 1.66733e-19)
(13.1613 2.42335 -4.33452e-19)
(12.0713 2.76974 -5.00014e-20)
(12.2863 2.33531 -2.85858e-19)
(10.8433 2.41937 -1.04961e-19)
(11.0587 1.98518 -2.39355e-19)
(9.40576 1.81895 -4.94461e-19)
(9.60941 1.37896 0)
(7.89887 1.00364 2.26419e-18)
(8.07379 0.588201 2.05498e-18)
(6.48774 0.0874021 2.423e-18)
(6.6346 -0.303069 5.92996e-19)
(5.29591 -0.863258 3.41206e-19)
(5.40904 -1.24227 -1.67483e-18)
(4.41341 -1.78112 -8.82366e-19)
(4.47805 -2.15654 -1.03248e-18)
(3.91253 -2.57649 -1.75425e-18)
(3.91126 -2.96176 2.8895e-18)
(3.82095 -3.16235 -4.70576e-19)
(3.73726 -3.56931 -1.83157e-19)
(4.12732 -3.45158 -2.06944e-19)
(3.96207 -3.89239 1.27256e-18)
(4.76322 -3.43775 1.16583e-19)
(4.52449 -3.90377 1.14648e-19)
(5.58772 -3.20414 -1.87236e-19)
(5.32267 -3.67751 2.9362e-20)
(6.4428 -2.8849 4.77105e-19)
(6.1974 -3.348 -6.14696e-20)
(7.20743 -2.59384 -1.57413e-19)
(7.00248 -3.03638 4.77868e-19)
(7.83298 -2.37541 -7.28169e-19)
(7.66962 -2.79117 -4.35865e-19)
(8.33749 -2.21038 -2.61187e-19)
(8.20653 -2.5993 -2.48496e-20)
(8.76328 -2.06174 1.71312e-19)
(8.656 -2.42722 1.07309e-19)
(9.14171 -1.90853 3.87062e-19)
(9.05108 -2.25232 6.50546e-20)
(9.48735 -1.74579 9.58569e-20)
(9.40972 -2.06899 3.108e-20)
(9.80265 -1.57748 0)
(9.73844 -1.88 0)
(10.0829 -1.41106 0)
(10.0344 -1.69128 1.64974e-19)
(10.3229 -1.25297 -2.15775e-19)
(10.2913 -1.50908 1.00723e-19)
(10.5223 -1.10618 -4.08286e-19)
(10.5066 -1.33829 -1.07981e-18)
(10.6861 -0.971591 7.7475e-19)
(10.683 -1.18134 2.35748e-19)
(10.8207 -0.849156 2.13191e-19)
(10.826 -1.03678 9.86953e-19)
(10.9308 -0.737117 -1.26784e-20)
(10.9416 -0.901749 -5.80382e-19)
(11.0204 -0.633817 -2.19205e-18)
(11.0333 -0.77398 -4.72252e-19)
(11.0933 -0.538465 3.9024e-19)
(11.1047 -0.65552 -1.35186e-18)
(11.174 -0.565505 2.00152e-18)
(11.1557 -0.451783 1.66995e-18)
(11.8567 0.211614 -2.43119e-19)
(11.8515 0.125499 9.32457e-19)
(11.7527 0.151381 -2.60451e-19)
(11.9897 0.283023 -2.58909e-19)
(11.9797 0.175158 -1.36617e-18)
(12.1563 0.372517 6.80828e-19)
(12.1455 0.24115 8.87355e-19)
(12.3724 0.489386 0)
(12.3613 0.3292 0)
(12.6561 0.645147 4.16527e-19)
(12.6445 0.447368 3.32852e-19)
(13.004 0.849623 -7.6938e-19)
(12.9967 0.606927 7.09689e-19)
(13.37 1.10396 -9.08811e-20)
(13.3747 0.811152 -2.66937e-18)
(13.6727 1.39889 -1.63595e-18)
(13.7053 1.05448 1.27831e-18)
(13.8011 1.69027 2.66477e-18)
(13.8668 1.30503 -2.47215e-18)
(13.7212 1.92731 3.05206e-18)
(13.8107 1.50633 6.01059e-18)
(13.3262 2.03385 -2.33209e-18)
(13.4441 1.58322 -3.89082e-18)
(12.4898 1.92151 -9.5927e-19)
(12.6247 1.45667 -5.88765e-19)
(11.2784 1.55987 -4.95194e-19)
(11.423 1.09538 -4.09282e-18)
(9.82942 0.962783 -1.24189e-19)
(9.97693 0.511348 -1.13614e-20)
(8.28444 0.177516 2.57445e-18)
(8.42786 -0.254765 4.30042e-18)
(6.79053 -0.710973 3.75604e-19)
(6.92247 -1.12692 4.86021e-19)
(5.4718 -1.64912 -3.04239e-18)
(5.58373 -2.03987 2.41886e-18)
(4.42986 -2.573 -1.68882e-18)
(4.51315 -2.94281 -2.81737e-18)
(3.75661 -3.38964 1.42627e-18)
(3.79932 -3.75409 4.20089e-20)
(3.50345 -4.00885 2.19442e-18)
(3.48934 -4.38314 -2.29603e-18)
(3.67742 -4.34982 -4.4455e-21)
(3.59238 -4.74178 0)
(4.22905 -4.36889 -4.48723e-21)
(4.08814 -4.7964 1.81959e-18)
(5.02627 -4.15189 2.88543e-20)
(4.81623 -4.60521 0)
(5.90391 -3.81894 1.33606e-19)
(5.67711 -4.28358 4.629e-19)
(6.73276 -3.4882 -9.61262e-20)
(6.52976 -3.95418 2.14515e-19)
(7.44417 -3.21809 5.4812e-20)
(7.2791 -3.67623 -8.83827e-20)
(8.02703 -2.99925 3.31442e-19)
(7.9056 -3.43697 1.09312e-19)
(8.51101 -2.80375 4.04985e-19)
(8.4231 -3.21763 1.87475e-19)
(8.93086 -2.60869 -1.13397e-19)
(8.86798 -3.00118 3.21845e-19)
(9.30723 -2.40667 -3.54223e-19)
(9.26112 -2.77661 -6.85799e-19)
(9.64989 -2.19863 -6.24796e-20)
(9.61598 -2.54558 8.48387e-20)
(9.96035 -1.98976 1.60994e-19)
(9.93812 -2.31353 -4.72137e-19)
(10.2348 -1.78636 2.63462e-19)
(10.2259 -2.08557 7.37053e-19)
(10.4687 -1.59348 -7.69557e-19)
(10.4744 -1.86556 -5.91787e-19)
(10.6624 -1.41481 -3.00949e-19)
(10.6803 -1.65865 6.04573e-19)
(10.8204 -1.25028 4.31199e-19)
(10.8481 -1.46795 -4.51151e-19)
(10.9486 -1.09896 0)
(10.9831 -1.29287 -3.69198e-19)
(11.0527 -0.959607 -1.0334e-18)
(11.0912 -1.1309 0)
(11.137 -0.83148 8.27141e-19)
(11.1754 -0.97882 -7.75546e-19)
(11.2031 -0.713658 3.07734e-18)
(11.2407 -0.835448 -8.41593e-19)
(11.3014 -0.726681 2.54298e-18)
(11.2599 -0.605564 8.41092e-19)
(11.9766 0.0883223 -4.35877e-19)
(11.9447 -0.00535244 5.62229e-19)
(11.8493 0.0517177 6.74978e-19)
(12.1414 0.135135 -3.12693e-19)
(12.0996 0.0155783 6.92337e-19)
(12.3568 0.198158 1.89819e-19)
(12.3058 0.0481655 -2.8145e-19)
(12.6398 0.28541 3.39205e-19)
(12.5803 0.101411 -2.43134e-19)
(12.9957 0.408309 5.08151e-19)
(12.933 0.180697 1.45233e-19)
(13.3838 0.57037 -1.53147e-18)
(13.3245 0.290344 8.7637e-21)
(13.7215 0.760638 -1.24259e-18)
(13.6758 0.429717 -9.6688e-19)
(13.9082 0.967909 4.06663e-19)
(13.9127 0.58104 4.14581e-19)
(13.8765 1.12247 1.09636e-18)
(13.8819 0.694817 -1.73812e-18)
(13.5379 1.16915 -9.0497e-19)
(13.5523 0.704667 5.9036e-18)
(12.752 1.01432 -2.09265e-18)
(12.7854 0.537416 -4.56661e-18)
(11.5654 0.634496 -3.77042e-18)
(11.6161 0.160984 0)
(10.1218 0.0465545 -3.54073e-18)
(10.1909 -0.405805 -7.47648e-18)
(8.5707 -0.702597 4.42155e-18)
(8.6565 -1.13047 4.13642e-18)
(7.04454 -1.56233 2.18052e-18)
(7.12553 -1.96966 4.27531e-18)
(5.65655 -2.46656 2.63782e-18)
(5.73154 -2.84772 -2.04251e-18)
(4.50424 -3.36341 2.31194e-18)
(4.55825 -3.71173 3.77429e-18)
(3.69187 -4.17307 -9.19333e-19)
(3.71766 -4.5039 -3.46657e-18)
(3.29776 -4.80075 -1.31388e-18)
(3.29055 -5.13291 4.97323e-19)
(3.33597 -5.17752 -2.11264e-18)
(3.27818 -5.51222 1.45051e-18)
(3.78423 -5.23861 -2.27368e-20)
(3.69095 -5.60524 0)
(4.53102 -5.06161 -2.29441e-20)
(4.38336 -5.46307 2.68737e-18)
(5.4027 -4.75161 1.57315e-19)
(5.20122 -5.1871 2.88531e-19)
(6.26874 -4.41625 1.02689e-19)
(6.06502 -4.87591 -5.14287e-19)
(7.0519 -4.12337 -2.88592e-20)
(6.87405 -4.60147 -5.68495e-20)
(7.72148 -3.87041 -2.68587e-19)
(7.59053 -4.35315 -2.1321e-19)
(8.28429 -3.63827 2.11009e-19)
(8.20024 -4.1014 4.17373e-19)
(8.76384 -3.40405 1.06619e-19)
(8.71919 -3.8444 -1.44846e-19)
(9.18293 -3.16108 -1.47034e-19)
(9.16765 -3.58078 -7.84597e-19)
(9.55611 -2.91027 -2.43821e-19)
(9.56005 -3.30514 4.87455e-19)
(9.89158 -2.65606 -3.94634e-19)
(9.90857 -3.02389 -3.33757e-19)
(10.1919 -2.40468 3.14466e-20)
(10.2196 -2.74516 -4.59515e-19)
(10.4556 -2.16263 -9.80897e-20)
(10.493 -2.4745 1.50811e-19)
(10.68 -1.93476 8.53956e-19)
(10.7263 -2.21424 7.17114e-19)
(10.8645 -1.72216 1.40526e-19)
(10.9194 -1.96898 4.25501e-19)
(11.0128 -1.52544 -1.19096e-18)
(11.0755 -1.74343 -8.09435e-19)
(11.1313 -1.34433 -3.69369e-19)
(11.1992 -1.53858 -8.42034e-19)
(11.2262 -1.17723 2.47312e-19)
(11.2973 -1.3519 3.51848e-19)
(11.3009 -1.02364 -5.53186e-19)
(11.3716 -1.17609 2.47067e-19)
(11.3576 -0.884754 1.90371e-18)
(11.4242 -1.00671 -8.04915e-19)
(11.4747 -0.878024 1.25446e-18)
(11.406 -0.755937 8.87483e-19)
(12.0678 -0.0835961 1.93484e-18)
(11.9971 -0.178846 2.91145e-19)
(11.9178 -0.0856021 -5.73618e-19)
(12.2703 -0.0739051 4.97465e-19)
(12.1843 -0.198015 7.18523e-19)
(12.5423 -0.0498283 -8.09854e-19)
(12.4388 -0.212068 -3.82481e-19)
(12.8874 -0.0074231 -5.8385e-19)
(12.7642 -0.208854 -1.60484e-19)
(13.2762 0.0600203 -3.66382e-19)
(13.1496 -0.185675 -3.38493e-19)
(13.6293 0.146655 7.1421e-19)
(13.508 -0.150099 8.43466e-20)
(13.8849 0.251214 7.16256e-19)
(13.7867 -0.111962 4.98836e-19)
(13.9055 0.307411 -1.77167e-18)
(13.8021 -0.103031 0)
(13.5801 0.277711 3.29011e-18)
(13.4699 -0.171563 -1.73348e-18)
(12.8233 0.0762709 2.68156e-18)
(12.7431 -0.379017 2.76697e-18)
(11.6664 -0.318171 -2.39538e-18)
(11.6256 -0.761344 -1.18381e-18)
(10.2514 -0.88381 -3.82139e-18)
(10.2455 -1.31046 -3.23311e-18)
(8.71401 -1.59276 4.57505e-19)
(8.73127 -1.984 -3.84029e-18)
(7.18415 -2.41289 3.95523e-18)
(7.20614 -2.76193 9.64043e-18)
(5.77556 -3.2676 0)
(5.80177 -3.60435 -1.98565e-18)
(4.5634 -4.11503 -5.09797e-19)
(4.58319 -4.41905 0)
(3.65204 -4.89122 -1.37521e-18)
(3.6465 -5.16552 -5.03932e-19)
(3.14687 -5.50729 -1.15721e-18)
(3.11051 -5.77679 -8.628e-19)
(3.06492 -5.89524 1.11324e-18)
(3.00463 -6.16477 -8.30792e-21)
(3.40802 -6.00005 1.33894e-18)
(3.31646 -6.29134 1.04797e-18)
(4.09183 -5.86703 1.10209e-18)
(3.96352 -6.20427 0)
(4.93529 -5.61985 1.3647e-18)
(4.74455 -5.99911 1.74427e-19)
(5.8113 -5.32451 -1.3945e-19)
(5.59391 -5.75017 -2.71716e-19)
(6.64428 -5.04636 -4.3362e-19)
(6.43836 -5.51373 2.77914e-19)
(7.3919 -4.7868 -2.37127e-19)
(7.23399 -5.29009 5.1344e-19)