/*--------------------------------*- C++ -*----------------------------------*\
  =========                 |
  \\      /  F ield         | OpenFOAM: The Open Source CFD Toolbox
   \\    /   O peration     | Website:  https://openfoam.org
    \\  /    A nd           | Version:  6
     \\/     M anipulation  |
\*---------------------------------------------------------------------------*/
FoamFile
{
    version     2.0;
    format      ascii;
    class       volVectorField;
    location    "2.93";
    object      U;
}
// * * * * * * * * * * * * * * * * * * * * * * * * * * * * * * * * * * * * * //

dimensions      [0 1 -1 0 0 0 0];

internalField   nonuniform List<vector> 
4214
(
(4.94558 -0.109223 0)
(5.104 -0.0624991 1.98383e-21)
(5.15462 -0.0159546 9.31929e-20)
(5.176 0.0259587 -9.27062e-20)
(5.19738 0.0661512 2.99243e-20)
(5.21995 0.105561 -1.5301e-21)
(5.2421 0.144565 -1.53045e-21)
(5.26406 0.183381 -2.78905e-21)
(5.28606 0.222696 -2.34877e-20)
(5.30912 0.264674 0)
(5.335 0.312985 0)
(5.36507 0.371594 0)
(5.39855 0.442825 -5.80909e-22)
(5.43184 0.524263 0)
(5.45075 0.604347 0)
(5.43637 0.659715 -4.73594e-21)
(5.34184 0.657972 4.90449e-21)
(5.08371 0.554068 1.57035e-21)
(4.64167 0.2936 -2.38118e-21)
(4.17388 -0.0580151 2.40173e-21)
(4.04876 -0.271324 2.36533e-21)
(4.27353 -0.370223 2.79017e-22)
(4.43215 -0.495412 -1.17064e-20)
(4.51857 -0.56793 1.84677e-20)
(4.59452 -0.591924 -6.68569e-21)
(4.66575 -0.590808 1.43652e-21)
(4.73154 -0.580481 -1.4275e-21)
(4.79613 -0.563773 0)
(4.85947 -0.54188 0)
(4.9186 -0.513755 1.22166e-20)
(4.97065 -0.478961 1.61912e-20)
(5.01374 -0.438058 -2.75472e-20)
(5.04728 -0.392452 3.44632e-20)
(5.07164 -0.343595 7.75122e-22)
(5.08763 -0.292408 -3.59317e-20)
(5.09542 -0.238997 4.47071e-20)
(5.09764 -0.183407 -8.0738e-20)
(5.09411 -0.125552 4.52323e-20)
(5.08229 -0.0633735 0)
(5.03906 0.00750779 -9.99972e-21)
(4.8868 0.0801088 2.45556e-19)
(5.19909 -0.0526609 -1.47653e-19)
(5.22971 -0.0130387 -1.14418e-19)
(5.24209 0.0230205 1.18349e-19)
(5.25521 0.048902 -1.4657e-21)
(5.27335 0.0763504 -4.30961e-21)
(5.29393 0.107487 2.87705e-21)
(5.31483 0.140658 -1.08953e-21)
(5.33587 0.174899 -3.32332e-21)
(5.35945 0.211317 0)
(5.38933 0.253094 0)
(5.42819 0.304316 0)
(5.47447 0.368384 0)
(5.5205 0.445375 5.98634e-22)
(5.5511 0.527295 0)
(5.53233 0.600084 0)
(5.44382 0.639282 -8.04991e-22)
(5.2016 0.563765 -8.01294e-22)
(4.76101 0.343387 1.53579e-21)
(4.2027 -0.00789841 2.49087e-21)
(3.82067 -0.355064 5.05812e-21)
(3.89229 -0.49655 0)
(4.13888 -0.591125 1.48394e-20)
(4.31647 -0.680396 1.71541e-20)
(4.45446 -0.709539 -1.01883e-20)
(4.56429 -0.700864 -9.33499e-21)
(4.6479 -0.678687 4.04701e-23)
(4.71696 -0.655592 -1.58671e-20)
(4.78338 -0.632657 1.53633e-20)
(4.85033 -0.608009 -1.93393e-21)
(4.91634 -0.579125 0)
(4.97796 -0.543945 -4.79657e-21)
(5.03184 -0.502441 6.17215e-20)
(5.07618 -0.456088 -7.47629e-21)
(5.11091 -0.406547 -5.76412e-20)
(5.1368 -0.354887 0)
(5.15475 -0.301588 -3.11815e-21)
(5.1666 -0.247869 -7.18576e-20)
(5.1758 -0.195993 3.95012e-20)
(5.18373 -0.144349 0)
(5.18641 -0.0802839 9.96156e-21)
(5.17113 -0.00345114 1.79457e-20)
(5.22495 -0.0307858 2.01716e-19)
(5.23539 -0.0110273 1.82034e-19)
(5.2589 0.018335 9.50361e-21)
(5.27856 0.0438145 -2.03027e-19)
(5.29754 0.0706026 4.32322e-21)
(5.31784 0.100326 7.63326e-20)
(5.33908 0.131914 -8.23334e-20)
(5.36266 0.164673 1.34988e-20)
(5.3925 0.200096 5.13783e-20)
(5.43233 0.241443 -5.27817e-20)
(5.4824 0.292177 0)
(5.53582 0.354167 3.23765e-21)
(5.5785 0.424503 0)
(5.58819 0.49453 0)
(5.53352 0.548949 5.92691e-21)
(5.35529 0.541101 -6.11394e-21)
(5.00537 0.419744 0)
(4.4934 0.157932 1.40374e-20)
(3.95899 -0.198776 -1.15535e-22)
(3.69451 -0.495459 -5.48282e-20)
(3.83039 -0.626621 -9.77723e-23)
(4.07998 -0.730328 -1.78549e-20)
(4.28569 -0.791776 -1.0292e-20)
(4.44685 -0.797519 2.26158e-21)
(4.56614 -0.773454 -3.32763e-21)
(4.65163 -0.741919 1.46083e-20)
(4.7192 -0.712315 -3.41682e-20)
(4.78241 -0.684817 2.44538e-20)
(4.84772 -0.657169 4.38764e-20)
(4.91462 -0.625796 -4.10399e-20)
(4.97952 -0.58824 1.05703e-19)
(5.038 -0.544291 -2.03492e-19)
(5.08726 -0.495468 1.12598e-19)
(5.12661 -0.443599 -1.60117e-20)
(5.15665 -0.389925 3.22049e-20)
(5.17845 -0.335112 -1.43342e-19)
(5.19385 -0.280088 1.06524e-19)
(5.20472 -0.226324 2.31161e-20)
(5.21093 -0.173122 -3.50394e-20)
(5.21048 -0.114567 0)
(5.21643 -0.055125 2.52033e-19)
(5.25051 -0.0174489 1.27105e-20)
(5.26829 -0.00792818 -2.518e-19)
(5.29777 0.0198826 2.76846e-19)
(5.32092 0.0463523 2.56083e-19)
(5.34057 0.0721938 -2.62577e-19)
(5.36061 0.099552 9.31757e-20)
(5.38292 0.128397 -1.40248e-20)
(5.41066 0.158214 -1.11987e-19)
(5.44829 0.190339 6.89027e-20)
(5.49796 0.227613 -7.10211e-20)
(5.55692 0.273103 0)
(5.61268 0.327132 -1.24454e-20)
(5.64343 0.385142 0)
(5.62147 0.441961 0)
(5.50322 0.472504 -3.17449e-21)
(5.21499 0.425968 -3.94039e-21)
(4.74462 0.254732 -8.52267e-21)
(4.15544 -0.0479923 4.19876e-20)
(3.65273 -0.406984 1.8086e-20)
(3.52174 -0.66308 6.7664e-20)
(3.73483 -0.792938 0)
(4.00436 -0.888336 8.39958e-20)
(4.24549 -0.921796 -3.62516e-20)
(4.43455 -0.905191 0)
(4.56732 -0.86619 -1.49604e-21)
(4.65659 -0.824313 0)
(4.72241 -0.786667 0)
(4.78241 -0.753646 4.87316e-20)
(4.84615 -0.721685 1.49431e-20)
(4.91467 -0.686377 -1.14369e-19)
(4.98419 -0.645141 6.39743e-20)
(5.04909 -0.597499 0)
(5.1052 -0.544892 0)
(5.15099 -0.489283 1.68501e-19)
(5.18685 -0.432222 -3.30712e-19)
(5.21422 -0.374799 3.30314e-19)
(5.23497 -0.318022 -2.58479e-19)
(5.25036 -0.262538 1.04713e-19)
(5.25934 -0.206982 -5.28346e-20)
(5.26053 -0.148218 -2.7781e-19)
(5.26633 -0.0959415 2.65468e-19)
(5.28057 -0.0154735 0)
(5.30274 -0.00344273 0)
(5.33266 0.0247912 2.76524e-19)
(5.35649 0.0525058 -3.54278e-19)
(5.37591 0.0779963 -4.54208e-20)
(5.39558 0.103033 -1.25185e-19)
(5.41944 0.128001 1.46528e-19)
(5.45227 0.152385 0)
(5.49771 0.17738 0)
(5.55516 0.205482 0)
(5.61865 0.24012 1.50425e-20)
(5.66802 0.280599 -1.66022e-21)
(5.67334 0.323693 -8.02313e-21)
(5.6186 0.364418 -3.18998e-21)
(5.40765 0.367734 3.31189e-21)
(4.99745 0.278881 8.20036e-21)
(4.41737 0.0634063 -3.30272e-20)
(3.79564 -0.26285 2.54223e-20)
(3.37855 -0.600436 -5.83256e-20)
(3.38047 -0.822635 -2.58546e-20)
(3.64097 -0.958292 -9.82487e-21)
(3.94564 -1.03747 -1.64031e-21)
(4.22272 -1.04839 -3.1586e-20)
(4.43394 -1.01652 -2.5978e-20)
(4.57785 -0.967637 3.26166e-20)
(4.67025 -0.917458 -6.67693e-21)
(4.73396 -0.872166 -6.24359e-22)
(4.78972 -0.832485 -6.47319e-20)
(4.85014 -0.794427 5.9333e-20)
(4.91842 -0.753521 -2.06529e-20)
(4.99092 -0.707208 1.85994e-19)
(5.06106 -0.654724 -1.79526e-19)
(5.12331 -0.597274 0)
(5.17499 -0.536806 0)
(5.21598 -0.475064 0)
(5.24771 -0.413429 0)
(5.27208 -0.353046 -1.52312e-19)
(5.29028 -0.294426 -1.57168e-19)
(5.30193 -0.236295 4.68288e-19)
(5.30657 -0.176434 -2.756e-19)
(5.31307 -0.123702 0)
(5.31876 -0.00230127 5.75399e-20)
(5.34317 0.0111314 5.61432e-20)
(5.37269 0.0399468 -3.74422e-19)
(5.39575 0.0687457 4.36929e-19)
(5.41355 0.0931277 4.61674e-20)
(5.43211 0.114108 -5.01843e-20)
(5.45693 0.132335 -1.96507e-19)
(5.4932 0.147543 1.57565e-19)
(5.54264 0.160565 -1.0251e-19)
(5.60251 0.173601 1.29654e-19)
(5.66528 0.191827 -1.55763e-20)
(5.69664 0.216147 -7.71123e-21)
(5.68298 0.245684 2.82771e-20)
(5.57103 0.268016 3.32676e-21)
(5.24478 0.239864 0)
(4.71013 0.112902 0)
(4.04336 -0.133993 0)
(3.42975 -0.465278 0)
(3.12315 -0.773173 0)
(3.23554 -0.980852 9.58928e-20)
(3.54316 -1.11724 -1.07737e-20)
(3.89393 -1.17722 9.25707e-20)
(4.2046 -1.17385 2.54003e-20)
(4.43743 -1.13485 2.15207e-21)
(4.59345 -1.08099 -3.23015e-20)
(4.69035 -1.02421 -2.45306e-20)
(4.75296 -0.971268 -3.14572e-20)
(4.80477 -0.923691 5.98593e-20)
(4.86133 -0.878034 1.00032e-19)
(4.92826 -0.830317 -8.52808e-20)
(5.00268 -0.778028 3.16291e-20)
(5.07751 -0.720116 0)
(5.14589 -0.657416 0)
(5.20384 -0.59171 0)
(5.25045 -0.524779 -2.49931e-19)
(5.28683 -0.458111 2.38387e-19)
(5.31476 -0.392879 2.43427e-19)
(5.33553 -0.329622 0)
(5.34934 -0.267387 0)
(5.35567 -0.20448 2.11194e-19)
(5.3613 -0.149961 1.10254e-19)
(5.36735 0.0221046 -6.21365e-19)
(5.3892 0.039365 5.21435e-19)
(5.41421 0.0691576 5.08443e-19)
(5.43325 0.0976264 -5.26431e-19)
(5.4471 0.11853 4.5649e-19)
(5.46264 0.132508 -5.67337e-19)
(5.48601 0.141232 2.57122e-19)
(5.52177 0.144101 -4.32523e-20)
(5.56954 0.140798 -1.14251e-19)
(5.62725 0.133819 1.5659e-20)
(5.68562 0.131009 8.20019e-20)
(5.70121 0.138799 0)
(5.6639 0.155218 0)
(5.4608 0.155229 -7.4682e-21)
(5.00991 0.0964356 4.45914e-20)
(4.36056 -0.0591601 -5.82641e-20)
(3.64081 -0.321782 5.51645e-20)
(3.07437 -0.64236 0)
(2.88865 -0.923926 -4.95341e-20)
(3.08826 -1.12881 5.56995e-20)
(3.45151 -1.25751 0)
(3.85023 -1.3047 -8.52695e-20)
(4.19109 -1.29818 2.56707e-20)
(4.44405 -1.26025 -1.74748e-22)
(4.61301 -1.20594 -2.71557e-20)
(4.71688 -1.14522 -2.11694e-21)
(4.7808 -1.08527 -8.15322e-20)
(4.82974 -1.029 7.96649e-20)
(4.88211 -0.974681 0)
(4.94623 -0.919344 3.70547e-20)
(5.02091 -0.860679 -3.22241e-20)
(5.09918 -0.797367 0)
(5.17321 -0.729767 0)
(5.23761 -0.659306 3.09424e-19)
(5.29033 -0.587594 -7.11724e-20)
(5.33186 -0.516073 -1.28714e-19)
(5.36378 -0.445935 -2.96073e-19)
(5.38773 -0.377811 1.60795e-19)
(5.40417 -0.310688 -1.57728e-19)
(5.41156 -0.242307 -2.51965e-19)
(5.41617 -0.183084 -1.10654e-19)
(5.42233 0.0671535 8.21814e-19)
(5.43681 0.0854784 -8.60217e-20)
(5.45433 0.113693 -6.15019e-19)
(5.46687 0.139062 7.4353e-19)
(5.47477 0.15374 -1.02094e-18)
(5.48438 0.158608 2.16112e-19)
(5.50258 0.156036 -8.46064e-20)
(5.53287 0.144206 9.02875e-20)
(5.5747 0.122188 1.69906e-19)
(5.62979 0.0930137 7.70067e-20)
(5.68643 0.0658974 -8.02025e-20)
(5.68769 0.0545887 3.52465e-22)
(5.59705 0.0537335 -3.67009e-22)
(5.27954 0.0309938 2.32958e-21)
(4.71039 -0.0497529 1.53675e-20)
(3.97005 -0.220255 -2.09206e-20)
(3.23398 -0.482447 -8.19966e-20)
(2.74059 -0.783952 1.31254e-19)
(2.66609 -1.04959 3.61226e-21)
(2.93982 -1.25415 -5.65796e-20)
(3.36598 -1.37494 0)
(3.80707 -1.42125 3.98358e-20)
(4.17377 -1.42188 0)
(4.44634 -1.39299 0)
(4.63184 -1.34417 -7.28561e-21)
(4.74774 -1.28304 1.51732e-20)
(4.81723 -1.21737 0)
(4.86583 -1.15246 9.03676e-21)
(4.9145 -1.08897 1.6183e-19)
(4.97473 -1.02549 -1.822e-20)
(5.04793 -0.960301 6.46793e-20)
(5.12808 -0.891927 3.02525e-19)
(5.20697 -0.820236 -3.60799e-19)
(5.27796 -0.746101 -2.7561e-19)
(5.33761 -0.670722 4.43574e-19)
(5.38538 -0.595343 3.18756e-20)
(5.42253 -0.521203 1.62881e-19)
(5.45095 -0.449103 -5.19827e-19)
(5.47109 -0.377762 4.99079e-19)
(5.4804 -0.303887 7.14932e-19)
(5.48572 -0.238879 -4.08225e-19)
(5.47696 0.130365 -8.5915e-19)
(5.48119 0.146939 7.20036e-19)
(5.48916 0.171492 0)
(5.49284 0.191469 -1.67506e-19)
(5.49164 0.198418 2.61136e-20)
(5.49204 0.193501 5.28559e-20)
(5.50104 0.178527 -6.56183e-20)
(5.52126 0.151102 3.3413e-19)
(5.55695 0.109517 -7.34721e-20)
(5.60808 0.0569779 0)
(5.65384 0.00459049 0)
(5.63588 -0.0309152 0)
(5.45915 -0.0530992 0)
(5.03753 -0.090863 5.89024e-20)
(4.36649 -0.180536 9.80485e-21)
(3.56352 -0.352198 -1.05148e-19)
(2.8416 -0.602251 0)
(2.42995 -0.884612 -5.75029e-20)
(2.44749 -1.1427 5.71629e-20)
(2.79339 -1.34694 -1.28626e-19)
(3.27919 -1.46846 1.03229e-19)
(3.75272 -1.52749 -8.15682e-21)
(4.14165 -1.54643 -1.96106e-20)
(4.4361 -1.5351 4.48656e-21)
(4.64408 -1.49805 5.43355e-21)
(4.77929 -1.44081 4.82889e-20)
(4.86096 -1.37192 9.87531e-20)
(4.91368 -1.2993 -3.38389e-19)
(4.96038 -1.22647 3.84228e-19)
(5.0163 -1.15431 2.25555e-20)
(5.08625 -1.08221 -2.63225e-19)
(5.16625 -1.00881 -1.03652e-19)
(5.24857 -0.933573 0)
(5.32575 -0.856697 2.14098e-20)
(5.39291 -0.778775 0)
(5.44818 -0.700716 -1.99599e-19)
(5.49216 -0.6238 -4.33291e-19)
(5.52674 -0.549019 4.11426e-19)
(5.55218 -0.474835 0)
(5.5653 -0.397032 -6.70497e-19)
(5.57423 -0.32739 4.95083e-19)
(5.52573 0.205993 0)
(5.51894 0.219577 0)
(5.51565 0.239296 0)
(5.50895 0.253334 0)
(5.49679 0.2529 -1.78732e-19)
(5.48497 0.238771 -1.69559e-19)
(5.48021 0.211951 -2.38414e-19)
(5.48766 0.16904 1.43198e-19)
(5.51286 0.106998 7.79813e-21)
(5.5542 0.0305886 0)
(5.58261 -0.045579 1.94061e-20)
(5.52403 -0.10526 -2.02928e-20)
(5.27573 -0.146593 9.0113e-20)
(4.75897 -0.191453 1.12886e-19)
(4.00164 -0.279253 4.53185e-20)
(3.16305 -0.440387 2.46399e-20)
(2.47316 -0.672114 0)
(2.13539 -0.937135 -6.32142e-20)
(2.22827 -1.19312 -5.95081e-20)
(2.6453 -1.40242 9.29913e-20)
(3.17854 -1.53831 -9.40984e-20)
(3.67516 -1.62347 -3.48784e-20)
(4.08441 -1.67176 2.04168e-20)
(4.4042 -1.6868 -3.24285e-20)
(4.64214 -1.66876 -4.00691e-22)
(4.80615 -1.62127 -1.01578e-20)
(4.90924 -1.55317 0)
(4.97303 -1.4746 3.21317e-20)
(5.02157 -1.39253 7.14297e-20)
(5.07411 -1.31084 2.81003e-19)
(5.13947 -1.23062 -2.69231e-19)
(5.21698 -1.15114 0)
(5.30052 -1.07168 4.18991e-19)
(5.38256 -0.991765 -6.75304e-19)
(5.45702 -0.9113 5.48048e-19)
(5.52055 -0.830782 -2.31377e-19)
(5.57269 -0.751466 -2.40237e-19)
(5.61466 -0.674442 4.92697e-19)
(5.64621 -0.598026 0)
(5.66459 -0.517791 2.23698e-19)
(5.68 -0.445252 0)
(5.56582 0.286795 2.62303e-19)
(5.5489 0.298513 2.56657e-19)
(5.53393 0.314108 0)
(5.51578 0.323113 6.84746e-19)
(5.49099 0.317548 -4.56654e-19)
(5.46361 0.296994 3.65466e-19)
(5.44115 0.261354 1.53784e-19)
(5.43127 0.205911 1.72972e-19)
(5.44186 0.127007 -1.1061e-19)
(5.46869 0.029849 1.30801e-20)
(5.47518 -0.0705102 -1.37453e-20)
(5.3752 -0.153608 1.02054e-19)
(5.05625 -0.209277 -8.11534e-20)
(4.4558 -0.255487 -5.38261e-20)
(3.63712 -0.332684 3.3908e-20)
(2.78584 -0.474017 -2.52185e-19)
(2.12973 -0.682656 2.72846e-19)
(1.85019 -0.933225 -6.25773e-21)
(2.00741 -1.19447 0)
(2.48547 -1.41791 3.58118e-20)
(3.04981 -1.58287 0)
(3.5624 -1.70608 2.0869e-21)
(3.99129 -1.79388 0)
(4.34091 -1.8442 9.83888e-21)
(4.6171 -1.85351 1.32178e-20)
(4.82092 -1.82358 2.57967e-21)
(4.95725 -1.76225 9.58106e-21)
(5.0423 -1.68095 -3.09435e-19)
(5.09967 -1.59039 4.85698e-19)
(5.15199 -1.49807 -3.30997e-19)
(5.21262 -1.40741 5.65557e-19)
(5.28539 -1.31909 -3.48224e-19)
(5.36715 -1.23264 1.60611e-19)
(5.45141 -1.14719 0)
(5.53155 -1.06202 0)
(5.60285 -0.977223 5.96111e-20)
(5.66331 -0.893847 3.41575e-19)
(5.71269 -0.81283 -9.20941e-19)
(5.75008 -0.732554 0)
(5.77397 -0.649344 -2.26959e-19)
(5.79651 -0.574093 4.78394e-19)
(5.59832 0.366045 -2.69799e-19)
(5.57246 0.378415 -1.66597e-18)
(5.54602 0.392937 1.14673e-18)
(5.51449 0.400226 -4.16676e-20)
(5.47519 0.393355 -5.23304e-19)
(5.43161 0.371188 2.19059e-20)
(5.39117 0.33259 -4.35074e-19)
(5.36187 0.271178 2.89448e-19)
(5.35137 0.182246 0)
(5.35512 0.0693922 2.39458e-20)
(5.33213 -0.0526351 4.84905e-20)
(5.18909 -0.157774 -2.63612e-19)
(4.8123 -0.226553 -3.69892e-19)
(4.15374 -0.270359 4.09002e-19)
(3.29841 -0.329984 -5.50318e-19)
(2.44383 -0.444421 3.01702e-19)
(1.81269 -0.628638 -1.48649e-19)
(1.5742 -0.87037 -6.80439e-20)
(1.78058 -1.1397 -5.57803e-20)
(2.29964 -1.38892 -1.44082e-19)
(2.87938 -1.59633 4.07194e-21)
(3.4024 -1.76744 -2.92339e-20)
(3.8512 -1.90316 3.68898e-20)
(4.23529 -1.99715 -3.624e-20)
(4.55767 -2.04275 -1.83434e-19)
(4.81293 -2.03989 1.47324e-19)
(4.99687 -1.99384 -9.87631e-21)
(5.11751 -1.9158 -4.46767e-20)
(5.19512 -1.81919 9.65437e-20)
(5.25389 -1.7156 -4.64004e-19)
(5.31216 -1.61154 2.3811e-19)
(5.3791 -1.50999 0)
(5.45592 -1.41147 -6.49162e-19)
(5.53853 -1.31534 2.20021e-18)
(5.62091 -1.22065 7.66013e-21)
(5.69743 -1.12714 -1.14484e-18)
(5.76444 -1.03552 0)
(5.8199 -0.94636 1.05602e-18)
(5.86213 -0.858107 -6.8461e-19)
(5.89037 -0.768453 0)
(5.91771 -0.687157 -4.86654e-19)
(5.62839 0.438534 -1.43908e-18)
(5.5943 0.455156 6.71986e-19)
(5.55645 0.47337 -1.61675e-18)
(5.5111 0.484427 1.02974e-18)
(5.45663 0.481589 6.12491e-19)
(5.39643 0.463446 -2.27556e-19)
(5.33748 0.42865 0)
(5.28723 0.370444 1.45651e-19)
(5.25164 0.281172 6.97122e-20)
(5.22546 0.15962 2.82905e-20)
(5.1665 0.0197686 -8.71542e-20)
(4.98229 -0.106324 -5.94764e-20)
(4.56429 -0.187535 5.32337e-19)
(3.87267 -0.226521 -7.19118e-20)
(3.00012 -0.264009 -2.02554e-19)
(2.14443 -0.349021 1.76511e-19)
(1.52408 -0.510546 -1.56474e-20)
(1.30586 -0.743934 1.27537e-19)
(1.53762 -1.02204 7.20657e-21)
(2.07484 -1.30739 -4.17937e-21)
(2.65587 -1.56709 5.73736e-21)
(3.18453 -1.79355 1.95482e-20)
(3.65335 -1.98299 -7.62649e-20)
(4.07533 -2.12766 7.47196e-20)
(4.44996 -2.21804 4.20086e-20)
(4.7671 -2.25253 9.03302e-21)
(5.01442 -2.23297 0)
(5.1895 -2.16809 0)
(5.30445 -2.0714 7.70715e-19)
(5.38185 -1.95813 -5.75768e-19)
(5.44476 -1.83885 0)
(5.50782 -1.71936 0)
(5.57785 -1.60231 -2.55226e-19)
(5.65446 -1.48821 -4.92142e-19)
(5.73394 -1.37682 0)
(5.81074 -1.26777 -5.44178e-19)
(5.88032 -1.16163 0)
(5.93901 -1.05861 -4.84948e-19)
(5.98367 -0.956914 -4.45583e-19)
(6.01392 -0.855734 1.02136e-18)
(6.04164 -0.763151 -1.34764e-18)
(5.66276 0.50203 1.58454e-18)
(5.62133 0.52729 -4.64158e-19)
(5.57281 0.554442 -1.25917e-18)
(5.51436 0.575024 -2.91083e-19)
(5.44551 0.582595 7.37595e-19)
(5.36928 0.575476 0)
(5.29102 0.552028 2.65693e-19)
(5.21636 0.504969 -1.51812e-19)
(5.14972 0.424567 -1.99986e-19)
(5.08661 0.306074 2.10441e-20)
(4.98944 0.15887 1.27397e-19)
(4.77152 0.0156948 0)
(4.3303 -0.0804906 4.13294e-19)
(3.62781 -0.118324 2.07565e-19)
(2.75177 -0.135546 7.95835e-21)
(1.89324 -0.191378 2.27178e-19)
(1.26607 -0.328957 -2.43617e-19)
(1.04024 -0.550606 4.27036e-20)
(1.26943 -0.835786 3.66306e-20)
(1.80237 -1.16085 1.0635e-19)
(2.37155 -1.47722 2.05187e-20)
(2.90091 -1.76385 1.04819e-19)
(3.38902 -2.00984 0)
(3.84967 -2.20964 -1.53325e-19)
(4.27931 -2.35179 9.9904e-20)
(4.66434 -2.43273 3.56956e-19)
(4.98847 -2.45249 -3.56723e-19)
(5.2389 -2.41466 0)
(5.41529 -2.3295 -1.74083e-19)
(5.53148 -2.21289 0)
(5.61349 -2.08093 -4.45808e-19)
(5.68034 -1.94125 0)
(5.74556 -1.80029 -1.86407e-18)
(5.81336 -1.6605 1.37835e-18)
(5.88427 -1.5242 7.27407e-19)
(5.95459 -1.39181 1.23689e-18)
(6.02039 -1.26379 1.14589e-18)
(6.0767 -1.1404 -5.88985e-19)
(6.11899 -1.01962 -5.02568e-19)
(6.14769 -0.902177 -4.28377e-19)
(6.17131 -0.793911 2.55995e-18)
(5.70851 0.557158 1.39697e-18)
(5.66095 0.594647 -2.02252e-18)
(5.60494 0.634505 -9.3435e-19)
(5.53718 0.669434 -8.45197e-19)
(5.45777 0.693062 9.17812e-19)
(5.36891 0.703299 6.6797e-19)
(5.2738 0.697798 -9.78733e-19)
(5.17447 0.669253 3.39721e-19)
(5.07158 0.607079 -2.54841e-19)
(4.96136 0.50282 -3.78135e-20)
(4.81696 0.361725 -1.33037e-19)
(4.56846 0.212486 0)
(4.1207 0.102098 -3.70491e-19)
(3.42871 0.0565805 0)
(2.56028 0.0512185 2.52615e-19)
(1.69648 0.0218432 -2.52988e-19)
(1.04171 -0.0860756 0)
(0.775892 -0.289322 0)
(0.971974 -0.575465 0)
(1.48121 -0.934239 -1.45392e-19)
(2.02547 -1.30488 2.58021e-20)
(2.5488 -1.65312 6.91951e-20)
(3.05503 -1.95652 4.45582e-19)
(3.55109 -2.21125 -4.39444e-19)
(4.0353 -2.40969 2.79047e-19)
(4.48741 -2.54229 -5.32303e-19)
(4.89446 -2.61214 5.15802e-19)
(5.2353 -2.61516 0)
(5.4998 -2.56173 0)
(5.68326 -2.4557 6.16497e-19)
(5.8092 -2.3208 4.57605e-19)
(5.89791 -2.16497 0)
(5.96853 -1.99918 4.20277e-19)
(6.03071 -1.82932 0)
(6.08926 -1.66065 -2.3773e-18)
(6.14621 -1.49849 -5.78413e-21)
(6.19907 -1.34067 0)
(6.24486 -1.19125 0)
(6.27801 -1.04551 1.16438e-18)
(6.30087 -0.909156 -1.10613e-18)
(6.31639 -0.782443 -3.74061e-19)
(5.77264 0.607296 -1.8472e-18)
(5.72211 0.656429 2.51799e-18)
(5.65714 0.712757 1.16663e-18)
(5.58363 0.765182 4.24412e-19)
(5.49224 0.813445 -7.71617e-19)
(5.39438 0.847009 -1.05709e-18)
(5.27819 0.869742 0)
(5.15593 0.868394 0)
(5.01143 0.838726 -1.479e-19)
(4.85619 0.761978 -1.03038e-19)
(4.65731 0.64189 -1.71593e-19)
(4.38188 0.49189 1.80547e-19)
(3.92759 0.369831 -2.21358e-19)
(3.2687 0.304725 4.64798e-19)
(2.41999 0.299542 8.21582e-21)
(1.56309 0.28487 -6.15971e-20)
(0.871316 0.207615 -6.2077e-20)
(0.536516 0.0251026 0)
(0.658853 -0.246184 0)
(1.11957 -0.614588 0)
(1.62722 -1.03264 0)
(2.13021 -1.43441 8.45313e-20)
(2.65407 -1.79717 -2.46385e-19)
(3.17513 -2.10073 1.91099e-19)
(3.71224 -2.35673 -5.16677e-20)
(4.22619 -2.54312 7.79838e-19)
(4.71557 -2.66761 -1.8501e-19)
(5.14983 -2.7075 -7.59728e-19)
(5.51329 -2.70875 4.49511e-19)
(5.7965 -2.64702 -6.34377e-19)
(5.99861 -2.52577 0)
(6.14585 -2.36823 -1.30401e-18)
(6.24391 -2.18229 1.23708e-18)
(6.31832 -1.98474 1.29178e-18)
(6.36657 -1.78108 0)
(6.40875 -1.58498 1.69819e-18)
(6.43867 -1.39172 -2.80714e-18)
(6.46642 -1.21154 1.57567e-18)
(6.48025 -1.03704 -1.4953e-18)
(6.49009 -0.880111 -1.30883e-18)
(6.48604 -0.73365 6.78842e-19)
(5.87069 0.644129 7.05769e-19)
(5.81948 0.715832 7.90191e-19)
(5.76981 0.772278 -1.60609e-18)
(5.68511 0.852275 0)
(5.60764 0.911259 1.44117e-18)
(5.4872 0.986847 0)
(5.38306 1.0307 -1.03864e-18)
(5.21468 1.07607 6.86486e-19)
(5.05741 1.07889 7.10643e-19)
(4.8174 1.05335 -1.9363e-19)
(4.58225 0.97044 -1.61511e-19)
(4.23496 0.848196 0)
(3.80522 0.708875 2.75091e-19)
(3.14547 0.609225 -5.10401e-19)
(2.33862 0.578779 4.02329e-20)
(1.46135 0.567942 -2.33898e-19)
(0.701363 0.549249 -1.53804e-19)
(0.284911 0.396618 0)
(0.292292 0.18301 -7.08023e-20)
(0.698808 -0.178984 7.33003e-20)
(1.18805 -0.655988 0)
(1.63964 -1.07841 -5.02456e-19)
(2.18793 -1.50681 4.22441e-19)
(2.71207 -1.85604 5.43373e-19)
(3.29431 -2.16055 -4.12809e-19)
(3.86774 -2.41296 1.47266e-19)
(4.41665 -2.58919 2.37847e-19)
(4.96609 -2.71295 0)
(5.39473 -2.73592 -4.64477e-19)
(5.83126 -2.73044 0)
(6.10512 -2.64361 -1.89158e-18)
(6.39004 -2.50375 7.95016e-19)
(6.52549 -2.32037 2.59196e-18)
(6.66828 -2.08688 -7.51449e-18)
(6.70914 -1.88051 2.81097e-18)
(6.75567 -1.62412 1.11368e-18)
(6.75811 -1.42574 2.31524e-18)
(6.76135 -1.18063 0)
(6.74481 -1.00567 -1.7729e-18)
(6.72137 -0.795364 1.68618e-18)
(6.68613 -0.655267 0)
(6.64108 -0.490688 1.43516e-18)
(6.47977 -0.605221 0)
(6.33029 -0.671129 0)
(6.19822 -0.701485 -2.71952e-18)
(6.07878 -0.691472 1.71928e-18)
(5.96207 -0.634525 -6.61784e-19)
(5.84205 -0.535515 -2.88009e-19)
(5.72106 -0.415294 2.88493e-19)
(5.60784 -0.301104 2.23735e-19)
(5.51261 -0.212871 -2.92029e-20)
(5.43899 -0.156543 -1.98259e-19)
(5.38298 -0.123265 0)
(5.3368 -0.0987343 0)
(5.29749 -0.0749389 0)
(5.25218 -0.0264493 -3.39083e-19)
(5.13816 0.0212448 0)
(4.64048 0.106061 -1.21149e-19)
(6.5973 -0.37818 0)
(6.47228 -0.472695 -1.22768e-18)
(6.35327 -0.551656 0)
(6.2431 -0.604028 2.92466e-18)
(6.14119 -0.626519 -1.68944e-18)
(6.0415 -0.610361 2.17057e-18)
(5.93597 -0.550437 -3.2578e-19)
(5.82275 -0.455026 1.18037e-18)
(5.70694 -0.34373 -2.73122e-19)
(5.59929 -0.240442 0)
(5.5092 -0.163675 0)
(5.43984 -0.116687 0)
(5.38835 -0.0914549 2.89851e-19)
(5.35053 -0.0758359 8.13e-20)
(5.3085 -0.0427166 0)
(5.21095 -0.0292945 -6.99618e-21)
(4.66001 0.0570024 -1.91335e-19)
(6.54171 -0.24952 0)
(6.45 -0.355689 5.26948e-20)
(6.35355 -0.436107 0)
(6.26328 -0.497545 -4.57113e-20)
(6.1772 -0.536682 -4.4683e-20)
(6.09151 -0.546913 7.819e-19)
(5.99979 -0.520544 -1.83187e-18)
(5.89799 -0.45773 -2.81436e-19)
(5.78799 -0.367912 -8.91745e-19)
(5.67741 -0.268772 2.81474e-19)
(5.57612 -0.180966 0)
(5.49141 -0.117333 1.06871e-19)
(5.42752 -0.0816975 -4.96249e-20)
(5.38423 -0.0623316 0)
(5.34419 -0.0375647 -4.00634e-19)
(5.25544 -0.0372714 4.05979e-20)
(4.68266 0.0584517 0)
(6.48698 -0.16908 0)
(6.41712 -0.251333 7.11123e-20)
(6.3436 -0.329975 2.41871e-18)
(6.27236 -0.395974 -1.08143e-18)
(6.20353 -0.446574 -9.83179e-19)
(6.13335 -0.477194 -8.51988e-19)
(6.05757 -0.479389 4.59194e-19)
(5.97108 -0.448402 1.12741e-18)
(5.87227 -0.386145 -4.29096e-20)
(5.76445 -0.302529 3.36556e-19)
(5.6557 -0.214243 2.90015e-19)
(5.55544 -0.138324 0)
(5.47362 -0.088285 -8.44937e-19)
(5.41685 -0.0590132 -1.15608e-19)
(5.37448 -0.0369783 8.01374e-19)
(5.2964 -0.0407862 0)
(4.7221 0.0451969 0)
(6.42618 -0.0767948 -1.3636e-18)
(6.37956 -0.161365 3.93033e-18)
(6.3239 -0.23344 -1.31389e-18)
(6.26846 -0.297859 1.15202e-18)
(6.21476 -0.352242 1.01569e-18)
(6.15862 -0.39419 -1.00039e-18)
(6.09759 -0.417194 -4.23886e-19)
(6.02795 -0.414393 -3.66789e-19)
(5.94578 -0.382535 7.16248e-19)
(5.84922 -0.324031 -6.55995e-19)
(5.74151 -0.248134 3.03911e-19)
(5.63139 -0.170072 -9.13502e-19)
(5.53155 -0.107507 5.25903e-19)
(5.45549 -0.0628996 0)
(5.40287 -0.0362397 -9.50163e-19)
(5.32793 -0.0360827 0)
(4.77028 0.0376706 0)
(6.37031 -0.0239053 1.38795e-18)
(6.33572 -0.0857527 -2.75515e-18)
(6.29722 -0.149039 -3.80867e-18)
(6.25535 -0.208922 1.22471e-18)
(6.21446 -0.26217 1.08369e-18)
(6.17148 -0.308156 -1.06475e-18)
(6.12398 -0.342933 -9.61798e-19)
(6.07035 -0.360287 4.66986e-19)
(6.00656 -0.35481 -1.39387e-20)
(5.9273 -0.323951 -3.92495e-19)
(5.83019 -0.269968 0)
(5.72039 -0.202146 1.64352e-18)
(5.61004 -0.135728 -3.21912e-19)
(5.51567 -0.0780472 0)
(5.4452 -0.0376523 1.10511e-18)
(5.35528 -0.0303206 3.17981e-20)
(4.81983 0.0300725 -5.48411e-19)
(6.31155 0.0381213 0)
(6.29122 -0.0233211 6.72571e-19)
(6.26518 -0.0775374 2.65106e-18)
(6.23486 -0.130305 -1.88286e-18)
(6.20411 -0.179124 0)
(6.17233 -0.223693 0)
(6.13734 -0.262312 1.02649e-18)
(6.09815 -0.290949 -9.52168e-19)
(6.05202 -0.304209 1.33872e-18)
(5.9926 -0.29739 4.08948e-19)
(5.91385 -0.26822 -4.05016e-19)
(5.81591 -0.219567 -1.47936e-18)
(5.70768 -0.16047 0)
(5.60391 -0.0981844 5.26098e-19)
(5.5132 -0.0467221 -1.1822e-18)
(5.38605 -0.0233905 4.11336e-20)
(4.86419 0.0243254 5.70528e-19)
(6.26013 0.0693301 -1.50295e-18)
(6.24492 0.0260942 -2.82779e-18)
(6.22939 -0.0187173 1.3744e-18)
(6.2089 -0.0637275 1.57143e-20)
(6.18666 -0.106499 1.25086e-18)
(6.16394 -0.146595 0)
(6.1401 -0.183486 5.48467e-19)
(6.11378 -0.215281 -5.10133e-19)
(6.08286 -0.238456 -4.76838e-19)
(6.04219 -0.248238 0)
(5.98505 -0.240324 -4.26371e-19)
(5.90816 -0.213484 1.22474e-18)
(5.81535 -0.169946 1.91985e-19)
(5.71541 -0.11331 -9.11783e-19)
(5.6095 -0.0590534 1.06118e-18)
(5.43438 -0.0208626 3.58392e-19)
(4.89879 0.021543 0)
(6.20763 0.109216 -1.49623e-18)
(6.20068 0.0654191 2.21247e-18)
(6.19146 0.0280631 0)
(6.17865 -0.00949422 1.30616e-18)
(6.16387 -0.0456818 -1.30143e-18)
(6.14883 -0.0802311 0)
(6.13409 -0.112732 -1.16862e-18)
(6.11864 -0.142463 0)
(6.10014 -0.167999 5.27585e-19)
(6.07501 -0.186184 0)
(6.03828 -0.19278 0)
(5.98614 -0.184573 4.62389e-19)
(5.91817 -0.159266 -2.13516e-19)
(5.83475 -0.116686 6.35879e-19)
(5.72318 -0.0680549 -3.88702e-19)
(5.50577 -0.0210523 2.33871e-20)
(4.92316 0.0188738 3.83831e-19)
(6.16248 0.124995 7.87382e-19)
(6.1567 0.0946773 -7.26576e-19)
(6.15252 0.0645942 -7.04804e-19)
(6.14546 0.0332652 1.3537e-18)
(6.1371 0.00301217 -2.01559e-18)
(6.12884 -0.0260297 -6.20249e-19)
(6.12124 -0.0536406 2.46277e-18)
(6.1136 -0.0795061 -5.96201e-19)
(6.10425 -0.103028 0)
(6.09099 -0.123074 -1.07493e-18)
(6.071 -0.136977 1.03921e-18)
(6.04203 -0.141126 -4.9555e-19)
(6.00128 -0.131669 7.17974e-19)
(5.94223 -0.106793 -2.14428e-19)
(5.83712 -0.0708166 0)
(5.59026 -0.0234801 7.33976e-20)
(4.94237 0.0139161 -8.79881e-19)
(6.11615 0.150039 7.92861e-19)
(6.11503 0.117574 1.54448e-18)
(6.11337 0.0920663 4.656e-20)
(6.11041 0.0656786 -2.88091e-18)
(6.10746 0.0404328 6.96342e-19)
(6.10501 0.0161798 1.33453e-18)
(6.10279 -0.00700843 -6.54823e-19)
(6.09996 -0.0289867 6.15235e-19)
(6.09591 -0.0496429 -7.54214e-21)
(6.09045 -0.0685438 -5.70365e-19)
(6.08289 -0.0843332 5.57261e-19)
(6.07225 -0.0945465 -1.06306e-18)
(6.05447 -0.0959222 -2.55394e-19)
(6.02081 -0.0873832 -7.4528e-19)
(5.93258 -0.0665356 0)
(5.67424 -0.0273485 1.36887e-20)
(4.96476 0.00576893 -1.7801e-20)
(6.0756 0.155442 -8.14267e-19)
(6.07379 0.133239 -3.00451e-20)
(6.07448 0.112614 7.91798e-19)
(6.07456 0.0895759 7.62776e-19)
(6.07592 0.0681314 -7.13506e-19)
(6.07793 0.0476664 -1.73238e-20)
(6.07935 0.0281178 -6.63743e-19)
(6.07925 0.00935381 1.28437e-18)
(6.07779 -0.00863855 -6.22333e-19)
(6.07639 -0.0257623 0)
(6.07744 -0.0416772 0)
(6.07809 -0.0549199 2.8926e-19)
(6.07389 -0.0626376 5.4135e-19)
(6.05884 -0.0642509 -5.31355e-19)
(5.99295 -0.0544015 3.88693e-19)
(5.7456 -0.0286496 -3.75036e-19)
(4.99521 -0.00323126 4.88484e-19)
(6.03296 0.171639 3.97114e-19)
(6.03415 0.146128 0)
(6.03612 0.127261 -1.15463e-18)
(6.0386 0.10681 7.50415e-19)
(6.0431 0.0880176 -7.28565e-19)
(6.0478 0.0701322 7.02587e-19)
(6.05106 0.0531169 -6.80472e-19)
(6.05244 0.0368614 1.31645e-18)
(6.05261 0.0211861 -8.17284e-22)
(6.05289 0.00598987 -3.18251e-19)
(6.05548 -0.00895603 0)
(6.06319 -0.0234824 4.66632e-21)
(6.07294 -0.0357217 2.74059e-19)
(6.06882 -0.0443796 2.76156e-19)
(6.02083 -0.0407857 -4.04971e-19)
(5.79468 -0.0264598 -3.92478e-19)
(5.03089 -0.00910049 0)
(5.99493 0.170759 4.05001e-19)
(5.99432 0.153406 -8.08739e-19)
(5.99796 0.137928 3.42189e-20)
(6.00249 0.11926 0)
(6.0089 0.10209 3.48973e-19)
(6.01466 0.0859598 0)
(6.01828 0.0704881 0)
(6.02018 0.0556628 -3.18281e-19)
(6.02149 0.0413517 -6.45163e-19)
(6.02315 0.0275354 3.02698e-19)
(6.02611 0.0139926 3.16123e-19)
(6.03271 0.000283413 -5.91964e-19)
(6.04644 -0.0132536 -2.95404e-19)
(6.06028 -0.0274429 -2.73589e-19)
(6.02848 -0.0293702 0)
(5.81705 -0.02373 2.74603e-19)
(5.06473 -0.0117828 0)
(5.95367 0.183002 0)
(5.95555 0.161304 0)
(5.95976 0.145331 5.92442e-19)
(5.96576 0.128153 9.29152e-19)
(5.97274 0.112147 -2.01394e-19)
(5.97821 0.0970958 -6.95783e-19)
(5.98141 0.0825459 0)
(5.98339 0.0685355 3.42569e-19)
(5.98528 0.0549499 6.39568e-19)
(5.98771 0.0417871 -1.24009e-18)
(5.99135 0.0288985 1.36231e-18)
(5.99775 0.0160959 -2.93659e-19)
(6.00922 0.00379717 -1.37291e-19)
(6.02347 -0.0114443 5.73087e-19)
(6.02542 -0.0180363 -4.06913e-19)
(5.81509 -0.0218362 -6.17341e-20)
(5.09249 -0.0121438 -1.9487e-19)
(5.91706 0.178553 0)
(5.91628 0.164079 1.85222e-19)
(5.92129 0.151009 5.5989e-19)
(5.92787 0.135019 -1.64788e-18)
(5.93417 0.119721 1.21575e-18)
(5.93841 0.105251 5.3437e-21)
(5.94084 0.0911717 -4.97427e-19)
(5.94268 0.0775498 -1.48485e-19)
(5.94471 0.0643085 6.17549e-19)
(5.94729 0.051437 -8.96179e-19)
(5.95108 0.0387405 2.73644e-19)
(5.95767 0.0261254 4.19334e-19)
(5.96916 0.0144098 -2.61645e-19)
(5.98537 0.000302227 0)
(5.98212 -0.00848774 1.39885e-19)
(5.79719 -0.0208029 1.37144e-19)
(5.11406 -0.0116997 1.34457e-20)
(5.87537 0.189695 -5.63746e-19)
(5.87768 0.170969 -1.98985e-19)
(5.88222 0.155578 -7.20211e-19)
(5.88828 0.14023 5.27837e-19)
(5.89309 0.125651 -1.53534e-19)
(5.89568 0.111628 -6.38259e-19)
(5.8971 0.0978187 1.20502e-18)
(5.89843 0.0843244 -4.32348e-19)
(5.90005 0.0711214 -2.88489e-19)
(5.90224 0.058182 -2.36538e-21)
(5.90582 0.0453288 1.25213e-19)