/*--------------------------------*- C++ -*----------------------------------*\
  =========                 |
  \\      /  F ield         | OpenFOAM: The Open Source CFD Toolbox
   \\    /   O peration     | Website:  https://openfoam.org
    \\  /    A nd           | Version:  6
     \\/     M anipulation  |
\*---------------------------------------------------------------------------*/
FoamFile
{
    version     2.0;
    format      ascii;
    class       volScalarField;
    location    "4.46";
    object      k;
}
// * * * * * * * * * * * * * * * * * * * * * * * * * * * * * * * * * * * * * //

dimensions      [0 2 -2 0 0 0 0];

internalField   nonuniform List<scalar> 
4214
(
0.0259776
0.0135587
0.00785647
0.00551087
0.00469676
0.00452014
0.00464867
0.00503191
0.00575702
0.00698461
0.00894251
0.0118246
0.0158199
0.0208455
0.0264703
0.0333157
0.043928
0.0640363
0.101869
0.162662
0.241336
0.31417
0.360336
0.390064
0.402553
0.406516
0.417523
0.453995
0.51379
0.556128
0.513799
0.385368
0.237342
0.121223
0.0528612
0.0215474
0.00976766
0.00645478
0.00722335
0.0117631
0.0230029
0.0144717
0.00857588
0.00586166
0.00480822
0.00452095
0.00459135
0.00493251
0.00563214
0.00689836
0.00901007
0.012323
0.0170415
0.0233288
0.0306454
0.0373321
0.0432854
0.0498628
0.0612197
0.0851955
0.130229
0.196792
0.271766
0.337118
0.389758
0.41015
0.406625
0.409207
0.442893
0.507071
0.560852
0.54081
0.42548
0.275464
0.148613
0.0683678
0.0285181
0.0122218
0.00664525
0.00549158
0.00651277
0.00934688
0.00786762
0.00594922
0.00492008
0.00455319
0.00457101
0.00487983
0.00557838
0.00689927
0.00922371
0.0130122
0.0188329
0.0268262
0.0370998
0.0482692
0.0567187
0.0618314
0.0645313
0.067883
0.0778888
0.103156
0.148637
0.20766
0.266964
0.314804
0.345159
0.361584
0.38224
0.427104
0.497928
0.560658
0.559425
0.462627
0.314724
0.17918
0.0872042
0.0378024
0.0159822
0.00777558
0.0052947
0.00513854
0.00607858
0.00596549
0.00506307
0.00462876
0.00459199
0.00487276
0.00555423
0.00691718
0.00941954
0.0137105
0.0205279
0.0306116
0.0438027
0.0603453
0.0769607
0.0876508
0.0914497
0.0897399
0.0859236
0.0849208
0.0940726
0.120934
0.164805
0.216156
0.263601
0.299626
0.326544
0.357645
0.40959
0.485947
0.557821
0.571896
0.495472
0.354837
0.213064
0.109659
0.0498307
0.0213265
0.00973555
0.00572927
0.00476378
0.00498062
0.00515406
0.00471381
0.00463883
0.00487588
0.00551976
0.00686777
0.00944032
0.0140194
0.0216467
0.0334234
0.0502311
0.0712321
0.0959584
0.118719
0.131328
0.132378
0.124352
0.112488
0.101694
0.0975775
0.107375
0.134813
0.175262
0.219904
0.260084
0.294385
0.333241
0.390171
0.470607
0.550619
0.579149
0.520168
0.392366
0.249696
0.135485
0.0648915
0.0285585
0.0126735
0.00668544
0.00483839
0.00456394
0.00480357
0.0046992
0.00488926
0.00547156
0.00674115
0.00923699
0.0138252
0.0217457
0.0345606
0.0537548
0.0800842
0.111439
0.146278
0.174004
0.187572
0.184015
0.166971
0.145287
0.125182
0.110188
0.106063
0.117885
0.145357
0.183116
0.223834
0.263377
0.307557
0.36851
0.452425
0.539552
0.581632
0.540027
0.424869
0.284784
0.164554
0.0833113
0.0379806
0.0168405
0.00823261
0.00524978
0.00447648
0.00477054
0.00490868
0.00541246
0.00654471
0.0088209
0.0131063
0.0207318
0.0335379
0.0537155
0.0830466
0.121721
0.165842
0.212066
0.24274
0.255485
0.245844
0.216623
0.184347
0.154234
0.129159
0.113693
0.112191
0.12664
0.15488
0.191859
0.23311
0.280201
0.343762
0.431686
0.524945
0.579265
0.554648
0.453512
0.318103
0.193563
0.10362
0.0499181
0.0225558
0.0105211
0.00602176
0.00461283
0.00493735
0.00534784
0.00630108
0.00824193
0.0119587
0.018728
0.0304675
0.0497643
0.0795382
0.121769
0.175696
0.235281
0.293162
0.325223
0.334117
0.317842
0.273953
0.229678
0.188872
0.15393
0.128173
0.115584
0.118221
0.136151
0.166449
0.205639
0.254061
0.319751
0.409565
0.507603
0.572573
0.564018
0.477627
0.348935
0.222302
0.125011
0.0631625
0.0296119
0.0137952
0.00723994
0.00496856
0.00528898
0.00603874
0.0075785
0.0105541
0.0160681
0.0258855
0.0426401
0.0698417
0.111309
0.169251
0.241709
0.319557
0.387984
0.419362
0.421835
0.396991
0.340207
0.283755
0.227938
0.181876
0.14759
0.125988
0.118841
0.126733
0.148743
0.182928
0.230018
0.296526
0.38748
0.488848
0.562667
0.568548
0.496756
0.376268
0.24964
0.146698
0.0774817
0.0377147
0.0177986
0.00900953
0.00559842
0.00579096
0.00691644
0.00909969
0.0131899
0.0206285
0.0337388
0.0560225
0.0921586
0.14717
0.223612
0.317721
0.414269
0.491898
0.51964
0.511678
0.473431
0.410717
0.34673
0.275666
0.216444
0.17199
0.142268
0.127537
0.126937
0.140262
0.167159
0.210146
0.275819
0.367118
0.470791
0.551434
0.56935
0.510858
0.399198
0.274363
0.167609
0.0921941
0.0466113
0.0225232
0.0112321
0.0065281
0.00633585
0.00778871
0.0105258
0.0155809
0.0247367
0.040933
0.0687047
0.114189
0.183959
0.280836
0.398488
0.513219
0.59752
0.615803
0.591125
0.537658
0.469869
0.406514
0.331154
0.258017
0.203241
0.165003
0.143213
0.135796
0.141979
0.162032
0.199593
0.261993
0.352503
0.457153
0.541874
0.568227
0.520374
0.417033
0.295243
0.186524
0.106426
0.0558368
0.0278033
0.0139252
0.00775488
0.00675994
0.00839302
0.0114392
0.0170738
0.0273904
0.045961
0.0784829
0.132792
0.21736
0.335089
0.476601
0.607741
0.694945
0.697311
0.649798
0.580245
0.508144
0.44701
0.381223
0.307925
0.240634
0.194276
0.165399
0.152172
0.152395
0.166868
0.200535
0.261023
0.350122
0.453581
0.538123
0.567569
0.526085
0.429285
0.311098
0.20214
0.119169
0.0647899
0.033376
0.0170179
0.00929597
0.00692841
0.00853627
0.0115556
0.0172337
0.0278997
0.0476836
0.0834726
0.144875
0.242699
0.379574
0.544133
0.688196
0.775899
0.757251
0.683777
0.598698
0.522988
0.466599
0.413134
0.355898
0.286665
0.229223
0.194474
0.175533
0.171357
0.182399
0.214513
0.275035
0.363171
0.462949
0.542612
0.569011
0.528471
0.435377
0.320735
0.213132
0.129366
0.0727786
0.0388973
0.0203721
0.0111247
0.00682191
0.00821375
0.0108874
0.0160705
0.0262125
0.0458029
0.0828597
0.148431
0.256631
0.408577
0.595656
0.748116
0.836644
0.795565
0.695617
0.598043
0.520407
0.471396
0.432809
0.392087
0.340053
0.273166
0.230743
0.205632
0.199981
0.211368
0.245546
0.308068
0.39514
0.487947
0.556765
0.573009
0.527175
0.434213
0.322775
0.218128
0.135995
0.0790675
0.0439649
0.0237586
0.0131529
0.00654539
0.00760869
0.0097388
0.0140312
0.0229571
0.0409589
0.0772855
0.143091
0.258694
0.418254
0.629554
0.784617
0.878799
0.8198
0.693597
0.588245
0.509398
0.469202
0.447182
0.42355
0.388201
0.338368
0.278352
0.245057
0.240529
0.258256
0.299315
0.36537
0.448765
0.529292
0.579454
0.577054
0.519568
0.42334
0.315479
0.21561
0.138174
0.0828173
0.0481056
0.0267671
0.0151813
0.00625577
0.00697451
0.00854586
0.0117556
0.0192098
0.0343409
0.0689084
0.129397
0.252135
0.405677
0.648658
0.797469
0.904985
0.841224
0.685821
0.577901
0.495331
0.461899
0.455494
0.450066
0.438457
0.41413
0.366757
0.319103
0.309139
0.332056
0.378829
0.444224
0.516883
0.576681
0.600045
0.570997
0.498434
0.397362
0.296686
0.203709
0.135427
0.0827862
0.0508007
0.0285921
0.0168691
0.00607976
0.00648461
0.0076981
0.00969808
0.0162365
0.0267298
0.0616244
0.106841
0.245335
0.36628
0.658961
0.787535
0.913844
0.8734
0.676225
0.572004
0.479493
0.446333
0.452848
0.461669
0.48221
0.48818
0.481104
0.460515
0.450009
0.463262
0.500627
0.550234
0.599709
0.622019
0.602753
0.536757
0.453218
0.348286
0.266717
0.179588
0.128993
0.0763489
0.0520451
0.0275542
0.0179431
0.00997894
0.0100071
0.00923326
0.00818799
0.00714524
0.0062353
0.00550507
0.00495946
0.00459376
0.00439538
0.00434075
0.00444759
0.00480279
0.00566806
0.00778944
0.0146573
0.0488191
0.00716487
0.00688541
0.00643313
0.00590834
0.00540936
0.00499069
0.00467134
0.00445071
0.00432266
0.00428545
0.00434346
0.00453617
0.00497241
0.00593523
0.00816943
0.0145197
0.0489091
0.00534265
0.00531565
0.00513201
0.00489926
0.00467766
0.00449653
0.00436649
0.00428925
0.00426562
0.00430349
0.00442227
0.00467432
0.00518152
0.00623477
0.00858049
0.015049
0.048572
0.00482448
0.00474028
0.00463131
0.00451669
0.0044153
0.00433853
0.00429199
0.00427937
0.00430655
0.00438749
0.00454971
0.00485364
0.0054294
0.00657193
0.009022
0.0156186
0.0486099
0.00472326
0.00462005
0.00452589
0.00444619
0.00438548
0.00434708
0.00433396
0.00435045
0.00440544
0.00451622
0.00471563
0.00506932
0.00571222
0.00694049
0.0094976
0.0163763
0.0490881
0.00472413
0.00462985
0.00454942
0.00448641
0.00444324
0.00442214
0.00442621
0.00446087
0.0045381
0.00467662
0.00491298
0.00531596
0.00602366
0.00733482
0.0100178
0.0174318
0.0503095
0.00492312
0.00479172
0.00469091
0.00461799
0.00457167
0.00455227
0.00456231
0.00460806
0.00470319
0.0048669
0.00513745
0.00558561
0.00635239
0.00774248
0.0105822
0.0189133
0.052403
0.00498054
0.00487714
0.00479243
0.00473041
0.00469333
0.00468371
0.00470551
0.00476956
0.00488541
0.00507519
0.00537728
0.00586452
0.00668305
0.00814896
0.0111786
0.0207116
0.0551745
0.00523475
0.00510416
0.00500063
0.00492563
0.00488063
0.00486819
0.00489635
0.0049689
0.00509756
0.00530331
0.00562597
0.00614174
0.00700195
0.00853653
0.011764
0.0223899
0.0579498
0.00528137
0.00518153
0.00510166
0.00504727
0.00502562
0.00503857
0.00508551
0.00517281
0.00531373
0.00553242
0.00587164
0.00640993
0.00730179
0.00889128
0.0122909
0.0236199
0.0603335
0.00558755
0.00547482
0.00538377
0.00531959
0.00528273
0.00527886
0.00531403
0.00539651
0.00553976
0.00576681
0.00611885
0.00667288
0.00758338
0.00920536
0.0127202
0.024475
0.0626424
0.00563486
0.00556161
0.00550345
0.00546504
0.00545081
0.00546564
0.00551612
0.00561184
0.00576761
0.00600729
0.00637177
0.00693625
0.00785263
0.00948011
0.0130311
0.0250967
0.0652491
0.0059447
0.00584324
0.00576137
0.00570539
0.0056805
0.00569126
0.00574298
0.0058441
0.00600853
0.00625903
0.00663443
0.00720597
0.00811898
0.00972737
0.0132483
0.0255555
0.0681558
0.00601389
0.00596205
0.00591726
0.00588863
0.00588339
0.00590806
0.00597055
0.00608177
0.00625713
0.00651978
0.00690711
0.00748564
0.00839091
0.00996253
0.013403
0.0258353
0.0711378
0.00630522
0.00621554
0.00615181
0.00611617
0.00611056
0.00613843
0.00620648
0.00632546
0.00651103
0.00678622
0.00718683
0.00777426
0.0086722
0.0101994
0.0135305
0.0259298
0.073906
0.00640484
0.00636965
0.00633906
0.00632421
0.00633164
0.00636835
0.00644381
0.0065707
0.00676607
0.0070537
0.00746846
0.0080673
0.00896209
0.0104481
0.0136652
0.0258628
0.0761451
0.00667235
0.00659904
0.00656029
0.00654761
0.00655976
0.00660158
0.00668242
0.00681548
0.00701888
0.00731728
0.00774543
0.00835718
0.00925485
0.0107131
0.0138411
0.0257065
0.0775544
0.00680061
0.00678198
0.0067692
0.00676958
0.00678932
0.00683654
0.0069218
0.00705918
0.00726792
0.0075739
0.00801251
0.00863653
0.00954299
0.0109983
0.0141013
0.0255778
0.0778816
0.00703681
0.00699958
0.00699106
0.00699803
0.00702346
0.0070751
0.00716351
0.0073033
0.00751434
0.00782354
0.00826775
0.00890118
0.00982264
0.0113086
0.0144815
0.0256113
0.0769358
0.00721947
0.00721518
0.00721791
0.00723254
0.00726389
0.00731963
0.00741026
0.00755061
0.00776098
0.00806922
0.00851401
0.00915368
0.0100982
0.0116582
0.0150396
0.0259347
0.0746585
0.00743534
0.00744132
0.00745323
0.00747571
0.00751321
0.00757316
0.00766583
0.00780584
0.0080136
0.00831767
0.0087593
0.00940423
0.0103845
0.0120683
0.0157521
0.0266634
0.0713356
0.00765912
0.00767573
0.00769726
0.00772757
0.00777094
0.00783434
0.00792765
0.00806512
0.00826708
0.00856287
0.00899683
0.00964371
0.0106588
0.0124586
0.0163815
0.0273329
0.0683071
0.00789383
0.00792222
0.00795369
0.00799226
0.0080417
0.00810843
0.00820175
0.00833534
0.00852928
0.00881371
0.00923638
0.00988159
0.010927
0.0128295
0.0169498
0.0278903
0.0657513
0.00814161
0.0081828
0.00822602
0.00827423
0.00833094
0.0084019
0.00849569
0.00862528
0.00881037
0.00908172
0.00949046
0.0101302
0.011199
0.0131883
0.0174761
0.0284315
0.063764
0.00840566
0.00846231
0.00851906
0.00857898
0.00864496
0.00872205
0.00881794
0.00894473
0.00912148
0.00937936
0.00977227
0.010402
0.0114849
0.013542
0.0179688
0.0289609
0.0623767
0.00868856
0.00876275
0.00883653
0.0089115
0.00899005
0.00907639
0.00917734
0.0093039
0.00947423
0.00971934
0.010095
0.0107094
0.0117932
0.0138913
0.0184117
0.0294096
0.0615774
0.00899348
0.00909005
0.00918412
0.00927793
0.00937311
0.00947296
0.00958314
0.00971343
0.00988067
0.010115
0.0104728
0.011066
0.0121362
0.0142474
0.0188279
0.0298764
0.0613339
0.00932341
0.00944541
0.00956538
0.00968344
0.00980077
0.00991972
0.0100448
0.0101843
0.0103534
0.0105805
0.010921
0.0114881
0.0125295
0.0146245
0.019227
0.0303386
0.0615987
0.00968109
0.00983562
0.00998621
0.0101344
0.0102802
0.010425
0.010572
0.0107278
0.0109055
0.011131
0.0114568
0.0119942
0.012992
0.0150394
0.0196213
0.0308128
0.0623159
0.0100732
0.0102617
0.0104508
0.0106365
0.0108186
0.0109974
0.0111749
0.0113559
0.011551
0.0117827
0.0120991
0.0126062
0.013548
0.0155159
0.0200277
0.0312954
0.0634233
0.0105162
0.010744
0.0109687
0.0111967
0.011424
0.0116463
0.0118644
0.0120812
0.0123046
0.0125534
0.0128697
0.0133504
0.0142281
0.0160859
0.0204673
0.0317685
0.06485
0.010994
0.0112742
0.0115529
0.0118281
0.0121051
0.012382
0.0126524
0.0129175
0.0131828
0.0134629
0.0137927
0.0142574
0.0150705
0.0167925
0.0209742
0.03222
0.0665124
0.0115114
0.0118547
0.0121971
0.0125382
0.0128753
0.013216
0.0135523
0.0138804
0.0142038
0.014533
0.0148955
0.0153626
0.0161216
0.0176925
0.0216003
0.0326478
0.068308
0.0120721
0.012489
0.0129085
0.0133281
0.0137464
0.0141615
0.0145794
0.0149878
0.0153882
0.0157883
0.0162091
0.0167065
0.0174368
0.0188599
0.0224261
0.0330777
0.0701161
0.0126814
0.0131854
0.0136952
0.0142085
0.0147228
0.0152349
0.0157513
0.0162599
0.0167599
0.0172575
0.0177687
0.0183364
0.0190827
0.0203906
0.0235739
0.0335845
0.071806
0.0133413
0.0139474
0.0145649
0.0151901
0.01582
0.0164521
0.0170881
0.0177206
0.0183471
0.018974
0.0196161
0.0203073
0.0211389
0.0224068
0.0252225
0.0343326
0.0732549
0.0140552
0.0147813
0.0155257
0.0162841
0.0170528
0.0178292
0.0186136
0.0193985
0.0201839
0.0209794
0.0218029
0.0226868
0.0237019
0.0250613
0.0276225
0.0356276
0.074369
0.0148232
0.01569
0.0165847
0.017502
0.0184375
0.0193882
0.0203548
0.0213277
0.0223126
0.0233264
0.0243961
0.0255627
0.0268941
0.0285463
0.0311121
0.0379911
0.0750949
0.0156446
0.0166755
0.0177474
0.0188538
0.0199896
0.0211518
0.0223414
0.0235469
0.0247846
0.0260829
0.0274856
0.0290556
0.0308823
0.0331122
0.036137
0.0422579
0.0754114
0.016515
0.0177368
0.0190167
0.0203471
0.0217225
0.0231406
0.0246011
0.0260958
0.0276569
0.0293314
0.0311901
0.0333343
0.0359064
0.0391105
0.0432913
0.049698
0.0753101
0.00910943
0.00922553
0.00938086
0.00956883
0.00978447
0.0100253
0.0102931
0.0105894
0.0109161
0.0112739
0.0116628
0.0120837
0.0125365
0.0130214
0.0135361
0.0140771
0.014642
0.015231
0.015847
0.0164947
0.0173539
0.018284
0.0189958
0.0196745
0.020313
0.0209012
0.0214299
0.021887
0.022258
0.0225269
0.0226783
0.0226993
0.0225811
0.022321
0.0219227
0.0213966
0.020759
0.020029
0.0192253
0.0183587
0.0174354
0.00954545
0.00966078
0.009826
0.0100278
0.0102576
0.0105123
0.0107947
0.011107
0.0114516
0.011829
0.0122404
0.0126862
0.0131673
0.013683
0.0142311
0.0148087
0.0154154
0.0160543
0.0167297
0.0174468
0.0183891
0.0194099
0.0202221
0.0210099
0.0217607
0.0224613
0.0230982
0.0236562
0.0241175
0.0244629
0.0246735
0.024733
0.0246304
0.0243613
0.0239296
0.0233471
0.0226331
0.0218116
0.0209067
0.019932
0.0188741
0.0100781
0.0102007
0.0103828
0.010601
0.0108434
0.0111094
0.011403
0.0117282
0.0120873
0.0124823
0.0129141
0.0133839
0.013892
0.0144375
0.0150178
0.0156323
0.0162834
0.0169764
0.0177164
0.0185092
0.0195389
0.020653
0.0215729
0.0224779
0.0233518
0.0241769
0.024935
0.0256064
0.0261692
0.0265997
0.0268747
0.0269744
0.0268847
0.0265997
0.0261234
0.0254698
0.0246619
0.0237293
0.0227035
0.0216072
0.0204175
0.0107386
0.0108817
0.011088
0.0113216
0.0115715
0.0118422
0.0121411
0.0124738
0.0128438
0.013253
0.013703
0.0141946
0.0147275
0.0153003
0.0159119
0.0165645
0.0172634
0.0180155
0.0188261
0.0197007
0.0208215
0.0220314
0.023065
0.0240945
0.0251007
0.0260612
0.0269523
0.0277489
0.0284233
0.0289466
0.0292902
0.0294296
0.0293476
0.0290368
0.0285016
0.0277589
0.0268366
0.0257704
0.0246
0.0233609
0.0220417
0.0115656
0.0117506
0.0119856
0.0122269
0.0124735
0.0127389
0.0130351
0.0133692
0.013745
0.0141645
0.014629
0.0151385
0.0156924
0.0162898
0.0169324
0.0176258
0.0183773
0.0191941
0.0200812
0.0210438
0.0222588
0.023567
0.0247197
0.0258798
0.0270256
0.0281302
0.0291642
0.0300957
0.0308903
0.0315121
0.0319261
0.0321024
0.03202
0.0316703
0.0310587
0.0302063
0.0291466
0.0279231
0.0265836
0.0251756
0.0237177
0.0126102
0.0128638
0.0131223
0.0133543
0.0135816
0.0138297
0.0141142
0.0144427
0.0148183
0.0152423
0.0157153
0.0162371
0.0168074
0.017428
0.0181039
0.0188427
0.0196526
0.02054
0.0215095
0.0225661
0.0238775
0.0252863
0.0265628
0.0278582
0.029149
0.0304039
0.0315877
0.0326609
0.0335811
0.0343041
0.0347873
0.0349942
0.0349002
0.0344954
0.0337877
0.032803
0.0315824
0.030178
0.0286466
0.0270451
0.0254238
0.0139319
0.0142734
0.0145321
0.0147298
0.0149212
0.0151413
0.015406
0.0157213
0.0160892
0.0165103
0.0169848
0.0175134
0.0180984
0.0187445
0.019459
0.02025
0.0211246
0.0220885
0.0231459
0.0243014
0.0257113
0.0272222
0.0286261
0.0300601
0.0314989
0.0329073
0.0342438
0.0354613
0.0365082
0.037331
0.0378779
0.0381055
0.0379854
0.0375072
0.036682
0.0355426
0.0341386
0.0325317
0.0307909
0.0289731
0.027161
0.0155882
0.0160018
0.0162173
0.0163571
0.0165031
0.0166897
0.016929
0.0172247
0.0175782
0.0179906
0.0184632
0.0189991
0.0196031
0.0202819
0.021043
0.0218931
0.0228386
0.0238844
0.0250345
0.0262931
0.027802
0.0294159
0.0309494
0.0325232
0.0341102
0.0356712
0.0371589
0.0385179
0.0396871
0.0406024
0.0412028
0.0414371
0.0412735
0.0407024
0.0397391
0.0384243
0.0368198
0.0349914
0.0330289
0.031019
0.0290103
0.0176276
0.0180345
0.0181578
0.0182297
0.0183309
0.0184847
0.0186978
0.018973
0.0193124
0.0197187
0.0201954
0.0207475
0.0213808
0.0221018
0.0229169
0.0238324
0.0248538
0.0259859
0.0272324
0.0285968
0.0302038
0.0319199
0.0335827
0.0352945
0.0370259
0.0387341
0.0403656
0.0418567
0.0431365
0.0441307
0.0447684
0.0449916
0.0447655
0.0440826
0.0429652
0.0414574
0.0396411
0.0376092
0.035438
0.0332077
0.0309878
0.0201249
0.0203858
0.0203853
0.0203907
0.0204508
0.0205748
0.020766
0.0210273
0.0213618
0.0217734
0.0222666
0.0228466
0.0235188
0.0242892
0.0251639
0.0261489
0.0272496
0.0284706
0.029815
0.0312853
0.0329874
0.0348022
0.03659
0.0384332
0.0402999
0.0421432
0.0439035
0.0455094
0.04688
0.0479318
0.048585
0.0487761
0.0484695
0.0476566
0.0463782
0.0446945
0.0426826
0.0404335
0.038041
0.0355935
0.0331669
0.0232122
0.0231833
0.0230584
0.0229978
0.0230132
0.0231058
0.0232775
0.0235305
0.0238677
0.0242925
0.0248091
0.0254225
0.0261379
0.0269611
0.0278979
0.0289542
0.0301349
0.0314441
0.0328842
0.0344563
0.0362466
0.038152
0.0400543
0.0420152
0.0439997
0.0459569
0.0478213
0.0495145
0.0509468
0.0520263
0.0526691
0.0528044
0.0524057
0.0514758
0.0500484
0.0481877
0.0459806
0.0435265
0.0409271
0.0382775
0.0356592
0.0269922
0.0266625
0.0264296
0.0262941
0.026253
0.026305
0.0264505
0.0266906
0.0270274
0.0274636
0.0280027
0.028649
0.0294073
0.0302827
0.0312804
0.0324056
0.0336624
0.0350539
0.0365811
0.0382436
0.0401082
0.0420885
0.0440845
0.0461381
0.048211
0.0502482
0.0521784
0.0539187
0.0553759
0.0564424
0.0570432
0.0571173
0.0566321
0.0555886
0.0540239
0.0520077
0.0496326
0.0470042
0.0442298
0.0414091
0.0386281
0.0316198
0.0311569
0.0308024
0.0305739
0.0304598
0.0304574
0.0305651
0.0307828
0.0311112
0.0315519
0.0321074
0.0327808
0.0335759
0.0344967
0.0355472
0.0367314
0.0380519
0.0395102
0.0411054
0.0428349
0.0447473
0.0467731
0.0488263
0.0509304
0.0530434
0.0551095
0.0570532
0.0587768
0.0601961
0.0612199
0.0617657
0.0617707
0.0612034
0.0600663
0.0583989
0.0562727
0.0537828
0.0510369
0.0481443
0.0452066
0.0423119
0.0376741
0.0370732
0.0366025
0.0362611
0.0360566
0.0359849
0.0360406
0.0362223
0.0365292
0.0369614
0.0375198
0.0382061
0.0390223
0.0399707
0.0410537
0.0422729
0.0436292
0.0451214
0.0467465
0.0484988
0.0504115
0.0524294
0.0544771
0.0565648
0.0586423
0.0606491
0.0625156
0.0641603
0.0654957
0.0664347
0.0668997
0.0668323
0.0662035
0.0650169
0.063311
0.0611551
0.0586409
0.0558723
0.0529553
0.049989
0.0470614
0.0457574
0.0450208
0.0444334
0.0439926
0.0436972
0.0435448
0.0435343
0.0436642
0.0439311
0.0443333
0.0448697
0.0455401
0.0463444
0.0472824
0.048354
0.0495581
0.0508928
0.0523542
0.0539361
0.0556301
0.0574573
0.0593745
0.061309
0.0632596
0.0651825
0.067023
0.0687162
0.0701893
0.0713648
0.0721669
0.0725282
0.0723986
0.071753
0.0705949
0.0689579
0.0669026
0.0645095
0.0618708
0.0590817
0.0562326
0.0534074
0.0567564
0.0559464
0.05529
0.0547814
0.0544198
0.0542033
0.0541291
0.0541947
0.0543975
0.0547349
0.0552043
0.0558032
0.0565287
0.0573782
0.0583483
0.059435
0.0606336
0.0619373
0.0633381
0.0648255
0.0664126
0.0680578
0.0697033
0.0713441
0.0729427
0.0744539
0.0758257
0.0770011
0.0779204
0.0785259
0.0787668
0.0786055
0.0780226
0.0770198
0.075621
0.0738707
0.0718289
0.0695661
0.0671563
0.0646725
0.0621873
0.072039
0.071358
0.070798
0.0703517
0.0700205
0.0698037
0.0696998
0.0697064
0.0698207
0.0700395
0.0703592
0.0707762
0.0712864
0.0718855
0.0725688
0.0733309
0.074166
0.0750669
0.0760255
0.0770319
0.0780881
0.0791673
0.0802358
0.0812865
0.0822954
0.0832347
0.0840739
0.0847801
0.0853197
0.0856609
0.0857757
0.0856431
0.0852517
0.0846006
0.0837008
0.082574
0.0812513
0.0797702
0.078172
0.0764993
0.0748026
0.0518872
0.0269527
0.010708
0.00701884
0.00561177
0.00503795
0.00484888
0.00489936
0.00510197
0.00540352
0.00573318
0.00599962
0.00613046
0.00611523
0.00600924
0.00589406
0.00582698
0.0560644
0.0288167
0.0111302
0.00725898
0.00578006
0.0051617
0.00492961
0.00491416
0.00502738
0.00521513
0.00542604
0.00560619
0.00571606
0.00575012
0.00573767
0.00572261
0.0057395
0.0590373
0.030206
0.0114589
0.00747071
0.00594568
0.005288
0.00502038
0.00496004
0.0050158
0.00513561
0.00527929
0.00541208
0.00551084
0.00557211
0.00561114
0.00565135
0.00571245
0.0616844
0.030376
0.0116699
0.0076607
0.00611334
0.0054205
0.00512335
0.00502859
0.00504425
0.00512048
0.00522388
0.0053296
0.00542231
0.00549867
0.0055659
0.00563575
0.00571758
0.063577
0.0295223
0.0117897
0.00783366
0.00627946
0.00556241
0.00523884
0.00511518
0.00510006
0.00514543
0.00522183
0.00530947
0.00539644
0.00547851
0.00555761
0.00563822
0.00572365
0.0647077
0.0281194
0.0118588
0.00800297
0.00645146
0.00571586
0.00536725
0.00521722
0.00517598
0.00519675
0.00525218
0.00532485
0.00540404
0.00548448
0.00556492
0.00564609
0.00572889
0.0652887
0.0266029
0.0119069
0.008179
0.00663551
0.00588279
0.0055095
0.00533428
0.00526945
0.00526935
0.00530792
0.00536911
0.00544308
0.00552457
0.00561184
0.00570563
0.00580815
0.0656588
0.0252035
0.0119458
0.00836488
0.00683505
0.00606311
0.00566551
0.00546563
0.00537838
0.00535913
0.00538247
0.00543288
0.00550046
0.00557885
0.00566399
0.00575291
0.00584275
0.0661742
0.0240525
0.0119777
0.00855012
0.00704186
0.00625378
0.00583348
0.00560968
0.00550038
0.00546195
0.00546913
0.00550618
0.0055624
0.00563011
0.00570368
0.0057792
0.00585473
0.067101
0.0232351
0.0120074
0.00872279
0.00724535
0.00645692
0.00601104
0.00576554
0.00563589
0.00557985
0.00557284
0.00559954
0.00564967
0.00571599
0.00579322
0.00587751
0.005966
0.0685398
0.0227725
0.012064
0.00888714
0.00744034
0.00666228
0.00620989
0.00593969
0.00578728
0.00571264
0.00569039
0.0057042
0.00574341
0.00580006
0.00586726
0.00593969
0.00601362
0.0704547
0.0226225
0.0121754
0.00905885
0.00763121
0.00685304
0.00639488
0.00611802
0.00595356
0.00586272
0.00582303
0.00581951
0.00584117
0.00587986
0.00592962
0.00598473
0.00603961
0.0726933
0.0226948
0.0123402
0.00925112
0.00783588
0.00705099
0.00657724
0.00628313
0.00610283
0.00599862
0.00594693
0.00593225
0.00594415
0.0059757
0.0060221
0.00607943
0.00614377
0.0750198
0.0229131
0.0125363
0.00946407
0.00805785
0.00726264
0.00677061
0.00645749
0.00626016
0.00614132
0.00607675
0.00605005
0.00605001
0.00606931
0.00610365
0.00615068
0.00620914
0.0771188
0.0232219
0.0127508
0.00969437
0.00829567
0.0074871
0.00697458
0.00664106
0.00642583
0.00629182
0.0062142
0.00617568
0.00616408
0.00617099
0.006191
0.00622023
0.00625354
0.0786137
0.0235118
0.0129833
0.00994148
0.00854702
0.00772224
0.00718772
0.00683299
0.00659935
0.00644974
0.00635883
0.00630866
0.0062865
0.00628361
0.00629483
0.00631847
0.00635489
0.0792382
0.0237112
0.0132415
0.0102077
0.00880926
0.0079652
0.00740796
0.00703201
0.00677995
0.00661458
0.00651002
0.00644779
0.0064146
0.0064011
0.00640122
0.00641278
0.00644034
0.0788279
0.0239223
0.0135472
0.010497
0.00907961
0.00821317
0.00763328
0.00723687
0.00696691
0.00678591
0.00666751
0.00659283
0.00654832
0.0065242
0.00651341
0.0065107
0.00651082
0.0772783
0.0243161
0.0139546
0.0108202
0.00935838
0.00846468
0.00786249
0.00744676
0.00715962
0.00696321
0.00683088
0.00674349
0.00668729
0.00665239
0.00663171
0.00662034
0.00661545
0.0746049
0.0250011
0.0145187
0.0111941
0.00965012
0.00872009
0.00809485
0.00766059
0.0073571
0.0071457
0.00699952
0.00689927
0.00683107
0.00678494
0.00675381
0.00673261
0.0067178
0.0708954
0.0260491
0.0152735
0.0116386
0.0099636
0.00898207
0.00833096
0.0078784
0.00755908
0.007333
0.00717297
0.00705965
0.00697915
0.00692145
0.00687946
0.00684807
0.00682371
0.0676227
0.0268401
0.0159598
0.0120676
0.0102655
0.00923123
0.00855563
0.0080877
0.00775564
0.00751745
0.00734549
0.00722043
0.00712848
0.00705972
0.0070071
0.00696557
0.00693154
0.0649503
0.0274715
0.0165793
0.0124755
0.0105557
0.00946987
0.00877131
0.00829036
0.00794804
0.0076999
0.00751764
0.00738194
0.00727917
0.00719963
0.00713639
0.00708451
0.00704054
0.0629363
0.0279963
0.0171296
0.012855
0.0108325
0.00970002
0.00898131
0.00848972
0.00813912
0.00788251
0.00769095
0.00754518
0.00743185
0.0073415
0.00726744
0.00720495
0.0071506
0.0615846
0.0284736
0.0176147
0.0132033
0.0110964
0.0099252
0.00919025
0.00869036
0.00833291
0.00806858
0.00786794
0.00771194
0.00758765
0.00748597
0.00740054
0.00732687
0.00726161
0.0608707
0.0289419
0.0180512
0.0135277
0.0113534
0.010152
0.00940488
0.00889844
0.00853459
0.00826223
0.00805175
0.00788452
0.00774813
0.00763398
0.00753608
0.00745003
0.00737293
0.0607502
0.029432
0.0184561
0.0138368
0.0116121
0.0103899
0.00963418
0.00912178
0.00875054
0.0084684
0.00824601
0.00806545
0.00791498
0.00778658
0.00767462
0.00757496
0.00748493
0.0611667
0.029951
0.0188397
0.0141413
0.0118839
0.0106501
0.00988858
0.00936926
0.00898787
0.00869247
0.00845461
0.00825738
0.00808988
0.00794469
0.00781656
0.00770187
0.00759766
0.0620533
0.0304904
0.0192068
0.0144531
0.0121829
0.0109463
0.01018
0.00965058
0.00925414
0.00894006
0.00868179
0.00846384
0.00827548
0.00810971
0.00796241
0.00783027
0.00771007
0.0633322
0.0310246
0.0195593
0.0147859
0.0125258
0.011294
0.0105214
0.00997703
0.00956448
0.00923236
0.00895341
0.00871209
0.00849972
0.00831022
0.0081386
0.007981
0.00783605
0.0649148
0.0315224
0.019902
0.0151582
0.0129328
0.0117111
0.0109312
0.0103752
0.0099357
0.00956867
0.00925232
0.00897482
0.00872876
0.00850891
0.00831116
0.00813244
0.00796987
0.0666969
0.0319499
0.0202488
0.0155972
0.0134297
0.0122196
0.0114331
0.0108405
0.0103552
0.00993913
0.0095745
0.00925183
0.00896487
0.0087088
0.00847948
0.00827332
0.00808735
0.0685551
0.0322825
0.0206311
0.0161425
0.0140491
0.0128512
0.0120284
0.0113806
0.0108318
0.0103513
0.00992577
0.00954787
0.00921228
0.00891418
0.00864902
0.0084121
0.00819976
0.0703462
0.0325206
0.0211087
0.0168512
0.0148319
0.0136206
0.0127354
0.0120071
0.0113734
0.0108109
0.0103103
0.00986602
0.00947338
0.00912707
0.00882158
0.00855151
0.00831182
0.0719167
0.0327167
0.0217847
0.0178025
0.0158287
0.0145572
0.0135716
0.0127322
0.0119888
0.0113243
0.0107325
0.0102096
0.00975062
0.00934937
0.00899887
0.0086923
0.00842373
0.0731215
0.0330172
0.0228215
0.0191016
0.0171003
0.0156948
0.0145576
0.0135698
0.0126884
0.0118992
0.0111983
0.0105827
0.0100469
0.00958329
0.00918269
0.00883594
0.00853483
0.0738527
0.0337185
0.0244565
0.0208826
0.0187185
0.0170725
0.0157168
0.0145366
0.0134849
0.0125455
0.0117149
0.0109905
0.010366
0.00983145
0.00937499
0.00898497
0.00865014
0.0740642
0.0353428
0.0270179
0.0233141
0.0207719
0.0187391
0.0170783
0.0156522
0.0143934
0.0132751
0.0122915
0.0114398
0.0107125
0.0100971
0.00957826
0.00914078
0.00877127
0.0737785
0.0387318
0.0309439
0.0266215
0.0233888
0.020772
0.0186839
0.0169414
0.0154317
0.0141023
0.0129392
0.0119387
0.0110922
0.0103842
0.00979512
0.00930492
0.00889588
0.0730691
0.0451962
0.0368575
0.0311752
0.026818
0.0233579
0.0206194
0.0184476
0.0166255
0.0150456
0.0136732
0.0124993
0.0115141
0.0106989
0.0100298
0.00948141
0.00902937
0.00611757
0.0076689
0.016722
0.0695548
0.290496
0.758096
0.93354
0.573557
0.417525
0.442387
0.51987
0.577851
0.621651
0.643528
0.576733
0.431379
0.267042
0.135441
0.0558088
0.0194704
0.00618807
0.00745712
0.0140244
0.056107
0.263021
0.763868
0.974366
0.555036
0.374133
0.393756
0.481386
0.577068
0.638682
0.602782
0.498332
0.355097
0.213891
0.10723
0.0446534
0.016459
0.00632842
0.00754482
0.0124116
0.0438239
0.229083
0.760947
1.02994
0.544176
0.324487
0.322777
0.390431
0.480424
0.538244
0.490189
0.389497
0.267099
0.156376
0.0775764
0.0329874
0.0131994
0.00654417
0.00789743
0.0119187
0.0340292
0.191065
0.744817
1.1019
0.545822
0.278957
0.250569
0.284233
0.345639
0.386511
0.341387
0.261918
0.174737
0.100833
0.0503881
0.0225409
0.0102715
0.00685662
0.00850863
0.0124339
0.0275948
0.151767
0.711099
1.18995
0.56746
0.247604
0.19584
0.198336
0.219149
0.23102
0.197095
0.148258
0.0980596
0.0570608
0.0297235
0.0147747
0.00813232
0.0072808
0.00942358
0.0138185
0.0248941
0.115223
0.655529
1.28885
0.615903
0.236723
0.169454
0.155355
0.146961
0.132088
0.102204
0.0745134
0.0495214
0.0300515
0.017255
0.0101984
0.00694783
0.0078636
0.0106811
0.0160084
0.025648
0.0860873
0.576162
1.38236
0.696468
0.248053
0.169344
0.151099
0.128695
0.0991002
0.0638567
0.0418795
0.0275266
0.017835
0.011743
0.0083152
0.00659839
0.00867615
0.0124107
0.0189516
0.0291272
0.0688057
0.47748
1.44482
0.811692
0.281834
0.189722
0.171076
0.142538
0.105528
0.0662723
0.0374304
0.0231523
0.0152725
0.0107964
0.00826923
0.00686626
0.0098269
0.0147941
0.0228594
0.0339187
0.0667842