/*--------------------------------*- C++ -*----------------------------------*\
  =========                 |
  \\      /  F ield         | OpenFOAM: The Open Source CFD Toolbox
   \\    /   O peration     | Website:  https://openfoam.org
    \\  /    A nd           | Version:  6
     \\/     M anipulation  |
\*---------------------------------------------------------------------------*/
FoamFile
{
    version     2.0;
    format      ascii;
    class       volVectorField;
    location    "4.46";
    object      U;
}
// * * * * * * * * * * * * * * * * * * * * * * * * * * * * * * * * * * * * * //

dimensions      [0 1 -1 0 0 0 0];

internalField   nonuniform List<vector> 
4214
(
(5.30574 0.0342306 0)
(5.72827 0.107809 -7.90942e-20)
(5.80953 0.164511 7.07957e-20)
(5.79373 0.222981 0)
(5.76957 0.300219 4.87473e-22)
(5.75276 0.380291 3.60343e-22)
(5.735 0.462248 5.82909e-23)
(5.70974 0.551327 1.16209e-20)
(5.67171 0.649115 -1.15187e-20)
(5.61571 0.755699 -6.55525e-22)
(5.53518 0.870038 -7.34433e-21)
(5.42304 0.989509 2.68267e-22)
(5.27436 1.1101 7.50593e-21)
(5.08737 1.2272 -8.67622e-21)
(4.86142 1.33524 -3.00122e-21)
(4.598 1.42448 -6.90423e-21)
(4.30216 1.48239 0)
(3.98196 1.5017 1.5788e-22)
(3.63304 1.49043 -9.91324e-21)
(3.23482 1.48414 6.64204e-21)
(2.78573 1.5251 5.02572e-23)
(2.33183 1.59042 -4.71142e-21)
(1.96515 1.61667 0)
(1.77461 1.62332 4.04358e-21)
(1.79874 1.68003 0)
(2.06143 1.81507 6.8136e-21)
(2.65861 1.99544 -3.78279e-21)
(3.53546 2.10494 8.67819e-21)
(4.57815 2.0422 0)
(5.63328 1.80542 -4.35091e-21)
(6.54081 1.46006 0)
(7.07584 1.11944 0)
(7.18052 0.870208 5.57626e-20)
(6.9918 0.68036 -7.00179e-20)
(6.77016 0.522627 0)
(6.6193 0.385106 2.52174e-20)
(6.51789 0.274127 0)
(6.44737 0.179268 0)
(6.39933 0.0813701 -3.0336e-20)
(6.30253 -0.0254783 1.00668e-19)
(5.94646 -0.0970591 1.98326e-19)
(5.92093 0.0693204 0)
(5.95868 0.2025 -3.05465e-21)
(5.94151 0.253892 2.53926e-20)
(5.91709 0.296305 -1.91439e-20)
(5.91069 0.365017 -2.44783e-20)
(5.91096 0.445168 2.44771e-20)
(5.90815 0.535732 -2.49019e-22)
(5.89842 0.640344 -7.43728e-21)
(5.87628 0.7608 7.32882e-21)
(5.83346 0.898052 1.11984e-20)
(5.76034 1.05217 -6.83762e-21)
(5.64883 1.22266 0)
(5.49331 1.40685 0)
(5.29125 1.59867 5.53077e-21)
(5.0381 1.78462 2.7476e-20)
(4.73344 1.94695 -1.79363e-20)
(4.38349 2.06463 5.27118e-20)
(4.01133 2.11993 0)
(3.64098 2.10732 5.24947e-20)
(3.27514 2.0476 -4.01184e-20)
(2.88302 2.02129 6.20539e-22)
(2.44283 2.10766 -6.93672e-22)
(2.04093 2.26568 -8.34004e-21)
(1.84192 2.39933 -1.69875e-20)
(1.86882 2.46736 -1.52803e-21)
(2.12402 2.52535 -5.18356e-21)
(2.64894 2.58314 -6.85733e-21)
(3.40775 2.56367 2.90314e-21)
(4.32805 2.40377 4.26468e-21)
(5.30682 2.10841 4.3003e-21)
(6.21506 1.72715 0)
(6.85574 1.34402 0)
(7.08233 1.04912 8.56559e-20)
(6.9695 0.839436 -2.7063e-20)
(6.75327 0.670277 -4.4786e-21)
(6.58797 0.517834 -2.65761e-19)
(6.47719 0.391228 2.88947e-19)
(6.3886 0.287164 -1.30357e-19)
(6.33257 0.185615 1.25716e-19)
(6.33326 0.0720194 4.37137e-19)
(6.24229 0.0261997 -6.93112e-19)
(5.98783 0.151382 -1.2004e-19)
(5.97954 0.210953 1.09789e-19)
(5.9796 0.25999 -5.71119e-21)
(5.98198 0.316475 -9.30372e-21)
(5.99304 0.38593 0)
(6.00739 0.467454 -1.26109e-21)
(6.0204 0.562557 -7.87496e-22)
(6.02792 0.67471 1.9796e-20)
(6.02313 0.806935 1.9228e-21)
(5.99735 0.962354 -3.79006e-21)
(5.94184 1.14496 -8.596e-20)
(5.84837 1.35846 1.01952e-19)
(5.7064 1.59989 -1.30147e-19)
(5.50566 1.85711 0)
(5.235 2.1069 -4.56603e-20)
(4.89593 2.32364 8.87524e-20)
(4.49715 2.47458 1.51367e-19)
(4.06978 2.53926 0)
(3.64921 2.52388 -4.32865e-20)
(3.25712 2.44266 2.00642e-19)
(2.89906 2.33548 -7.78248e-22)
(2.53501 2.31139 7.37394e-20)
(2.18347 2.44266 8.35772e-21)
(1.95165 2.64107 4.34908e-20)
(1.9319 2.79275 3.39682e-21)
(2.14264 2.87928 -5.20976e-21)
(2.61874 2.90698 0)
(3.31537 2.83473 -3.88719e-20)
(4.17635 2.62799 3.06381e-20)
(5.11466 2.3002 0)
(6.01055 1.90027 3.83941e-20)
(6.68854 1.49551 -5.25102e-20)
(6.99088 1.16762 1.69496e-19)
(6.93951 0.935278 -9.03441e-20)
(6.73906 0.754845 1.55965e-19)
(6.567 0.5954 -1.41522e-19)
(6.45303 0.460118 0)
(6.36336 0.351396 0)
(6.2844 0.256744 -1.86486e-19)
(6.22032 0.148545 7.2018e-20)
(6.16155 0.0438952 0)
(6.04773 0.177902 4.03143e-20)
(6.0487 0.222577 1.39578e-20)
(6.06446 0.273885 0)
(6.08548 0.32976 5.30372e-20)
(6.11136 0.395956 -3.71042e-20)
(6.14254 0.475854 0)
(6.17578 0.57268 -1.99454e-20)
(6.20569 0.690309 -3.82472e-20)
(6.22605 0.83447 2.95113e-20)
(6.23097 1.01367 -4.81795e-20)
(6.21314 1.23804 2.30647e-19)
(6.15824 1.51323 -4.89459e-20)
(6.04071 1.82948 1.33874e-19)
(5.83771 2.16281 0)
(5.53584 2.48422 -1.44156e-19)
(5.14257 2.76526 1.51555e-19)
(4.67163 2.96079 -3.30644e-19)
(4.16799 3.04248 -3.61296e-19)
(3.68614 3.0149 -1.55383e-20)
(3.25445 2.90596 -4.74993e-19)
(2.8947 2.7424 -6.59845e-21)
(2.58364 2.60335 -6.80348e-20)
(2.29337 2.61056 0)
(2.07529 2.77029 -3.45645e-20)
(2.02229 2.96456 7.70438e-20)
(2.18312 3.10612 1.03803e-20)
(2.58674 3.15167 -1.87955e-19)
(3.20056 3.07122 5.8708e-20)
(3.9859 2.84559 -7.34417e-20)
(4.87224 2.4985 -2.60607e-20)
(5.75151 2.08403 -6.4433e-20)
(6.46886 1.66475 5.33743e-20)
(6.85844 1.31041 0)
(6.88779 1.05089 2.37775e-19)
(6.71487 0.854303 -2.23147e-19)
(6.53737 0.685961 0)
(6.41605 0.540583 7.93777e-19)
(6.32515 0.422842 -7.21545e-19)
(6.24664 0.324162 0)
(6.18527 0.232271 -2.69645e-19)
(6.12722 0.134435 6.7846e-19)
(6.10705 0.194828 -8.8826e-20)
(6.12271 0.222198 0)
(6.15107 0.26821 -1.77713e-20)
(6.1862 0.317886 -4.61441e-20)
(6.22982 0.378923 5.97419e-20)
(6.28108 0.453753 -2.82247e-20)
(6.33726 0.547117 6.36823e-20)
(6.39563 0.665839 -1.40087e-19)
(6.45503 0.820811 1.57744e-19)
(6.51352 1.02746 -8.46507e-20)
(6.55787 1.29911 -1.25043e-19)
(6.55493 1.63577 0)
(6.45761 2.01636 0)
(6.23903 2.40816 0)
(5.89181 2.7874 0)
(5.43533 3.12425 1.42545e-19)
(4.88323 3.36829 -1.71527e-18)
(4.28982 3.48887 1.96024e-18)
(3.72662 3.46408 0)
(3.24107 3.33802 1.44536e-18)
(2.86015 3.13809 1.22053e-20)
(2.57869 2.91884 0)
(2.35593 2.79351 0)
(2.18337 2.84247 0)
(2.12411 3.01226 -7.98668e-20)
(2.23614 3.19228 4.60898e-20)
(2.55896 3.26301 1.08734e-19)
(3.08746 3.21483 0)
(3.79545 3.01759 0)
(4.62481 2.67423 -1.51111e-19)
(5.48021 2.25641 0)
(6.22511 1.83053 1.50364e-19)
(6.6918 1.4576 -1.24366e-19)
(6.80604 1.17118 -2.2831e-20)
(6.67876 0.95459 4.01219e-21)
(6.5038 0.775168 -2.69915e-19)
(6.37539 0.619904 -4.35285e-19)
(6.28355 0.493966 -8.85985e-20)
(6.20239 0.388963 0)
(6.13272 0.296865 0)
(6.08027 0.192575 0)
(6.17188 0.188306 2.5269e-19)
(6.20104 0.20167 -2.24097e-19)
(6.24043 0.239216 2.88386e-20)
(6.28946 0.278522 4.68537e-20)
(6.35035 0.329546 -4.82507e-20)
(6.4221 0.394057 0)
(6.50447 0.478013 -4.63419e-21)
(6.60224 0.592712 0)
(6.72182 0.755834 -1.30033e-19)
(6.85671 0.986244 1.32209e-19)
(6.97183 1.29179 0)
(7.00852 1.65952 0)
(6.90781 2.06685 0)
(6.65506 2.4847 3.51434e-19)
(6.24623 2.89969 -3.66437e-19)
(5.72389 3.27653 2.18822e-18)
(5.09405 3.57995 1.84017e-18)
(4.4095 3.74386 -1.68023e-18)
(3.76215 3.75786 -1.15433e-19)
(3.21863 3.66269 6.12157e-19)
(2.80406 3.46923 -6.77643e-21)
(2.52589 3.21969 8.83615e-19)
(2.35342 3.00051 -4.73167e-19)
(2.24395 2.9204 -1.3791e-20)
(2.21067 3.00483 0)
(2.29419 3.18124 -6.66682e-20)
(2.54356 3.28201 -3.00804e-19)
(2.98563 3.26175 1.00633e-19)
(3.6099 3.12526 -3.67926e-19)
(4.36926 2.8132 3.50398e-19)
(5.1895 2.409 -1.36501e-19)
(5.95018 1.98761 -5.23987e-21)
(6.48688 1.60642 0)
(6.69145 1.29878 3.17124e-19)
(6.62345 1.06054 0)
(6.46192 0.866775 -3.91041e-19)
(6.32826 0.700609 -3.03523e-19)
(6.23538 0.56478 -1.25673e-18)
(6.1574 0.452396 5.13439e-19)
(6.08591 0.360011 -4.94588e-19)
(6.03633 0.253438 9.37128e-19)
(6.23437 0.157886 2.37405e-19)
(6.27191 0.156758 2.64504e-20)
(6.32075 0.182047 7.59345e-20)
(6.38198 0.207133 -8.69586e-20)
(6.4574 0.242547 -2.33132e-20)
(6.54847 0.290101 2.69018e-20)
(6.66281 0.358233 -1.0308e-20)
(6.81374 0.460961 1.97441e-19)
(7.00714 0.618793 -2.36177e-20)
(7.21796 0.849003 1.11019e-19)
(7.38259 1.14667 -2.96753e-19)
(7.4271 1.494 0)
(7.30396 1.88487 0)
(7.00616 2.29587 0)
(6.52476 2.7173 0)
(5.94022 3.10825 -2.25792e-18)
(5.25243 3.4798 0)
(4.49908 3.73886 0)
(3.7811 3.82862 -1.40327e-19)
(3.18289 3.78515 -1.62394e-18)
(2.73239 3.65713 -2.02826e-20)
(2.4403 3.43631 1.71796e-18)
(2.29424 3.18576 4.71141e-19)
(2.24865 3.00837 0)
(2.26312 2.99036 0)
(2.3425 3.10605 0)
(2.53736 3.23391 3.64219e-19)
(2.89839 3.25527 0)
(3.43566 3.1614 9.84292e-20)
(4.11522 2.89747 1.60453e-19)
(4.88745 2.52757 2.00061e-19)
(5.6498 2.12609 3.75523e-19)
(6.24389 1.74881 -5.51825e-19)
(6.53713 1.42878 3.8327e-19)
(6.54073 1.171 1.26147e-18)
(6.40673 0.960495 7.70131e-19)
(6.27378 0.782188 -4.026e-19)
(6.17962 0.63532 -8.42863e-19)
(6.10585 0.514504 6.09241e-19)
(6.03493 0.417716 0)
(5.98935 0.307926 1.11613e-18)
(6.2857 0.104567 7.78349e-20)
(6.32681 0.0862781 0)
(6.38281 0.0969815 -4.59899e-21)
(6.45222 0.104616 1.42729e-21)
(6.53812 0.119858 8.61374e-21)
(6.64809 0.144485 1.45115e-20)
(6.79869 0.188278 1.06268e-20)
(7.00514 0.264979 0)
(7.25914 0.390836 -1.29274e-19)
(7.50902 0.576264 0)
(7.66489 0.814411 -5.33955e-19)
(7.6824 1.10606 1.10739e-18)
(7.54835 1.44697 8.04086e-19)
(7.20128 1.81591 3.32061e-18)
(6.65705 2.20754 -7.07087e-19)
(6.02489 2.58339 -4.47059e-19)
(5.30758 3.01381 4.69922e-19)
(4.54631 3.33925 -2.23394e-19)
(3.78736 3.65976 -3.69944e-18)
(3.12774 3.73218 -3.93248e-20)
(2.63598 3.67072 4.19023e-20)
(2.32793 3.51357 -4.41333e-18)
(2.19632 3.28783 0)
(2.20035 3.06893 0)
(2.2677 2.97014 2.20866e-19)
(2.36736 3.01174 5.87817e-20)
(2.5332 3.11984 -1.34341e-19)
(2.82552 3.18217 1.41027e-19)
(3.27339 3.1241 0)
(3.86863 2.91814 0)
(4.58152 2.59925 -1.91814e-19)
(5.32936 2.23426 -4.33041e-19)
(5.96529 1.87501 -2.06937e-19)
(6.34095 1.55433 4.35181e-19)
(6.42379 1.28297 -8.29207e-19)
(6.3311 1.05576 -8.01365e-19)
(6.20786 0.863825 1.59726e-18)
(6.11489 0.705122 1.39563e-18)
(6.04624 0.574921 0)
(5.9796 0.471651 6.55084e-19)
(5.93789 0.35895 -3.6547e-18)
(6.31525 0.0287395 -1.62211e-20)
(6.35612 -0.005079 3.63722e-19)
(6.41494 -0.0104777 -3.5365e-19)
(6.48678 -0.0222386 0)
(6.57936 -0.0301854 -1.28546e-20)
(6.70702 -0.0333419 7.19683e-20)
(6.88933 -0.0230644 -5.45928e-20)
(7.13296 0.0109164 0)
(7.4113 0.0768977 4.19011e-19)
(7.65298 0.178961 -1.88157e-19)
(7.7426 0.329704 0)
(7.74456 0.537796 -1.92511e-18)
(7.56107 0.781313 -8.91735e-19)
(7.15677 1.06993 2.0915e-19)
(6.57772 1.40288 -9.56855e-19)
(5.93159 1.7507 1.00603e-18)
(5.21376 2.19985 4.86323e-18)
(4.49981 2.59251 5.6419e-19)
(3.75018 2.99738 3.4533e-18)
(3.055 3.33456 -4.22949e-18)
(2.51823 3.46948 3.87525e-20)
(2.18955 3.42266 -2.93155e-18)
(2.07175 3.25908 -1.25262e-18)
(2.11011 3.05889 -4.7571e-20)
(2.22328 2.92723 -4.95957e-19)
(2.35742 2.90997 -8.25015e-19)
(2.51996 2.97884 -5.80451e-19)
(2.76193 3.04781 3.73773e-19)
(3.12749 3.02659 8.32449e-19)
(3.636 2.87463 -4.50248e-19)
(4.28004 2.61499 -5.33699e-19)
(4.99811 2.29997 0)
(5.65762 1.97365 -1.31821e-19)
(6.10349 1.66578 -5.22384e-19)
(6.26733 1.39014 4.84597e-19)
(6.22797 1.14938 -1.39613e-18)
(6.12511 0.943288 6.49713e-20)
(6.03831 0.772521 0)
(5.97609 0.632564 0)
(5.91685 0.520934 -7.89308e-19)
(5.87997 0.406338 -7.76281e-19)
(6.31519 -0.0621183 -5.38945e-19)
(6.35248 -0.107001 5.02846e-19)
(6.40854 -0.128021 -3.53808e-20)
(6.4769 -0.159264 -2.22237e-19)
(6.57118 -0.19182 3.50624e-19)
(6.70905 -0.227087 -4.96464e-19)
(6.90595 -0.259709 1.49263e-19)
(7.15559 -0.283041 -2.31192e-20)
(7.4191 -0.292866 3.68295e-21)
(7.63209 -0.283938 -3.0252e-20)
(7.72592 -0.236014 -3.23837e-19)
(7.65271 -0.155361 5.57356e-19)
(7.34072 -0.0496977 3.04946e-18)
(6.87909 0.127009 -3.02153e-18)
(6.27872 0.378775 0)
(5.64645 0.688795 5.90535e-18)
(4.96168 1.12214 -6.90825e-18)
(4.32247 1.56656 -4.25981e-18)
(3.63655 2.05376 4.83957e-18)
(2.95503 2.56457 4.34052e-18)
(2.39756 2.94798 4.93991e-20)
(2.04695 3.0992 4.73208e-18)
(1.92652 3.0567 1.24767e-18)
(1.98524 2.93514 6.13237e-20)
(2.13603 2.82755 2.79948e-19)
(2.30823 2.78586 7.48974e-19)
(2.48545 2.81658 1.19895e-18)
(2.6983 2.87165 -1.15589e-18)
(2.99666 2.87317 4.33696e-19)
(3.42217 2.76999 0)
(3.99115 2.56978 1.09536e-18)
(4.66576 2.31267 -6.9628e-19)
(5.3304 2.03281 1.30681e-19)
(5.82988 1.75197 1.02766e-18)
(6.06958 1.48343 0)
(6.09134 1.23525 -9.91547e-19)
(6.01969 1.01654 1.94857e-18)
(5.94596 0.834153 0)
(5.89316 0.685036 0)
(5.84402 0.564686 -1.26231e-19)
(5.81421 0.448661 1.37332e-18)
(6.2822 -0.155122 0)
(6.3123 -0.206018 -4.69899e-20)
(6.36072 -0.240478 3.6769e-20)
(6.42038 -0.288865 9.54959e-20)
(6.50813 -0.345213 -1.23308e-19)
(6.6412 -0.414205 1.23826e-19)
(6.82887 -0.494902 -1.74654e-19)
(7.0552 -0.583288 -4.98958e-20)
(7.27556 -0.674229 2.29387e-20)
(7.42629 -0.759882 3.00427e-19)
(7.43761 -0.831104 1.51975e-20)
(7.26694 -0.892294 -3.30121e-19)
(6.93244 -0.929835 -1.33138e-18)
(6.43932 -0.886619 2.7688e-18)
(5.83535 -0.746971 0)
(5.22385 -0.507294 -4.8302e-18)
(4.59444 -0.115767 -6.01894e-18)
(4.03938 0.354688 6.45683e-18)
(3.4697 0.908104 -5.67918e-18)
(2.84743 1.53667 0)
(2.29896 2.11545 -5.89327e-20)
(1.92904 2.49376 6.18982e-20)
(1.78156 2.64501 0)
(1.83966 2.65723 -6.59074e-19)
(2.01442 2.62709 -2.17376e-20)
(2.22101 2.60738 -8.55284e-19)
(2.42115 2.62343 -1.96211e-18)
(2.6243 2.66189 -1.33619e-18)
(2.8745 2.67103 4.66686e-19)
(3.22796 2.60527 -5.77374e-19)
(3.72211 2.46052 1.97361e-20)
(4.34318 2.26477 -7.71579e-19)
(4.99586 2.04158 -4.20499e-19)
(5.52968 1.80145 2.2818e-18)
(5.83375 1.55194 -2.79172e-18)
(5.91804 1.30446 -4.388e-20)
(5.88664 1.0772 -9.43242e-19)
(5.83401 0.885269 -5.48273e-20)
(5.79462 0.728651 -8.70618e-19)
(5.7588 0.600719 3.2154e-18)
(5.73791 0.483016 7.61848e-19)
(6.21987 -0.235991 0)
(6.24062 -0.288584 -8.21849e-19)
(6.277 -0.333735 8.62769e-19)
(6.32307 -0.3938 -9.99281e-20)
(6.39437 -0.468869 4.58108e-19)
(6.50517 -0.567176 4.56252e-19)
(6.66117 -0.692099 -5.40908e-19)
(6.84185 -0.840648 3.33372e-19)
(6.99918 -1.00659 -3.3651e-19)
(7.07014 -1.18474 -2.22926e-19)
(6.99633 -1.36557 -6.43173e-19)
(6.74731 -1.54517 0)
(6.35917 -1.72418 0)
(5.859 -1.83405 -2.86643e-18)
(5.28791 -1.82783 -1.00244e-18)
(4.72512 -1.68769 -1.64697e-19)
(4.1722 -1.37377 6.05425e-18)
(3.69284 -0.921223 -1.78704e-21)
(3.23759 -0.351674 6.6156e-18)
(2.744 0.341579 -1.1303e-17)
(2.25095 1.05937 6.5634e-20)
(1.86123 1.64572 -7.33104e-18)
(1.66709 2.01079 -2.47647e-18)
(1.69824 2.19627 -1.87637e-19)
(1.87574 2.29125 -6.61835e-20)
(2.10629 2.33963 1.18796e-18)
(2.32945 2.37572 -3.71855e-19)
(2.53373 2.41163 1.34034e-18)
(2.75326 2.42373 6.73127e-20)
(3.04939 2.38397 -5.63748e-19)
(3.47702 2.28792 6.33968e-19)
(4.04158 2.15316 -3.27134e-19)
(4.66828 1.9928 -1.47241e-19)
(5.21639 1.80411 0)
(5.56775 1.5843 -5.97515e-19)
(5.70923 1.34623 2.16736e-18)
(5.72362 1.11679 -1.07402e-18)
(5.6995 0.919852 9.14355e-19)
(5.67834 0.758571 8.75146e-19)
(5.65861 0.625443 -2.43276e-18)
(5.64775 0.506529 0)
(6.13761 -0.295009 -1.29867e-19)
(6.14926 -0.344915 -1.06195e-18)
(6.1714 -0.395649 4.99241e-19)
(6.19978 -0.461495 5.49674e-19)
(6.24682 -0.546942 -2.70774e-19)
(6.32291 -0.663558 0)
(6.43232 -0.820117 6.40291e-19)
(6.553 -1.01322 7.43823e-19)
(6.63834 -1.23377 -7.27374e-19)
(6.62454 -1.48006 2.33674e-19)
(6.46037 -1.74556 -2.59375e-19)
(6.12275 -2.02359 -5.64382e-20)
(5.67523 -2.33253 -7.36826e-19)
(5.17904 -2.59563 6.1778e-19)
(4.66118 -2.73513 -6.39033e-19)
(4.1812 -2.71867 1.09817e-18)
(3.73118 -2.51766 -1.14656e-18)
(3.3316 -2.12654 0)
(2.95393 -1.58303 -5.96721e-18)
(2.58442 -0.880763 1.14083e-17)
(2.20331 -0.0939555 8.58417e-20)
(1.84763 0.64795 7.59338e-18)
(1.60114 1.19632 2.33173e-18)
(1.59846 1.55931 8.25638e-19)
(1.75017 1.80199 -3.15729e-20)
(1.98534 1.95338 2.83715e-19)
(2.22043 2.04428 -3.4917e-19)
(2.42645 2.09958 0)
(2.6271 2.12141 -1.13538e-18)
(2.88316 2.10437 -6.28828e-19)
(3.25853 2.05333 -6.30473e-19)
(3.77138 1.97918 -1.6611e-18)
(4.36281 1.88474 1.29618e-18)
(4.90545 1.75327 0)
(5.28304 1.56979 6.22394e-19)
(5.4706 1.34868 -2.28837e-18)
(5.53134 1.1252 3.18667e-18)
(5.54108 0.930532 1.97283e-18)
(5.54321 0.769099 -9.23272e-19)
(5.54168 0.634043 3.38792e-18)
(5.54334 0.514762 -4.75929e-18)
(6.04923 -0.326606 2.81852e-19)
(6.05214 -0.37164 -6.12572e-19)
(6.06023 -0.422442 1.25484e-18)
(6.06906 -0.487657 -6.43362e-19)
(6.08805 -0.574892 7.48525e-19)
(6.1239 -0.696164 -7.47244e-19)
(6.18219 -0.864853 -3.80496e-19)
(6.24094 -1.08235 -7.8503e-19)
(6.25295 -1.33531 1.20602e-18)
(6.15238 -1.6187 5.88072e-19)
(5.89759 -1.9455 1.67265e-19)
(5.47927 -2.29525 -2.91679e-19)
(4.97451 -2.70355 7.71001e-19)
(4.49161 -3.10068 -9.18665e-19)
(4.03357 -3.38691 0)
(3.64864 -3.50154 0)
(3.30741 -3.44775 3.89662e-18)
(3.00501 -3.15761 -4.69798e-18)
(2.69086 -2.6703 0)
(2.39462 -2.00442 -5.29155e-18)
(2.11136 -1.22816 1.596e-20)
(1.86443 -0.419919 -3.7408e-18)
(1.60592 0.27734 -2.58632e-18)
(1.56126 0.793138 1.25591e-18)
(1.64688 1.17413 1.41674e-19)
(1.86431 1.44135 -5.65996e-20)
(2.10332 1.60936 1.42683e-18)
(2.31002 1.7045 0)
(2.49983 1.74951 1.10581e-18)
(2.73144 1.76181 1.22625e-18)
(3.07122 1.75907 0)
(3.54286 1.74885 4.98939e-19)
(4.09408 1.72131 1.32853e-18)
(4.61193 1.64523 -1.29299e-18)
(4.99291 1.49829 4.16045e-20)
(5.21119 1.2998 1.11241e-18)
(5.31448 1.092 -1.03556e-18)
(5.36115 0.908257 -9.56847e-19)
(5.39103 0.752307 0)
(5.40999 0.619163 -1.63671e-18)
(5.42804 0.501269 1.51982e-18)
(5.96781 -0.331617 -1.54104e-19)
(5.96296 -0.369505 -3.18177e-19)
(5.95851 -0.416369 0)
(5.94877 -0.47458 0)
(5.94078 -0.556489 0)
(5.93756 -0.669704 0)
(5.94499 -0.834003 0)
(5.94829 -1.05009 5.77666e-19)
(5.89588 -1.31779 -5.80947e-19)
(5.71396 -1.60312 -1.09077e-18)
(5.36287 -1.97125 5.23004e-19)
(4.87593 -2.35845 8.0996e-20)
(4.30869 -2.83392 -7.21363e-19)
(3.85848 -3.32524 9.62403e-19)
(3.45837 -3.75428 -1.18204e-18)
(3.17953 -3.97682 -2.38939e-18)
(2.93971 -4.08381 -7.80921e-18)
(2.7453 -3.94556 5.34878e-18)
(2.50621 -3.5786 4.37098e-18)
(2.25821 -2.98401 1.04494e-17)
(2.01129 -2.24892 6.49032e-20)
(1.84165 -1.4824 1.11012e-17)
(1.72278 -0.681158 8.8458e-20)
(1.62572 -0.0587879 -1.18593e-18)
(1.63738 0.428064 -1.77921e-19)
(1.76764 0.801802 8.53429e-20)
(1.97238 1.05811 0)
(2.1709 1.21241 0)
(2.361 1.29916 0)
(2.59299 1.35623 0)
(2.92539 1.4133 0)
(3.37202 1.47246 -1.66224e-19)
(3.87914 1.5083 -1.34481e-18)
(4.35259 1.47587 1.30383e-18)
(4.71421 1.36096 6.24211e-19)
(4.94732 1.18898 -3.47722e-18)
(5.08637 1.00847 -1.00438e-18)
(5.16994 0.842695 3.04753e-18)
(5.22912 0.698882 9.24405e-19)
(5.27095 0.569265 -1.63398e-18)
(5.30745 0.456548 3.06937e-18)
(5.90269 -0.318464 -3.01002e-19)
(5.89237 -0.345768 -3.4973e-19)
(5.87736 -0.387066 2.69467e-19)
(5.85309 -0.431019 1.10373e-18)
(5.82013 -0.503308 9.12753e-19)
(5.78766 -0.593588 -2.89407e-18)
(5.74775 -0.747264 1.02968e-18)
(5.7067 -0.929761 0)
(5.59699 -1.21402 0)
(5.35748 -1.45583 0)
(4.88502 -1.84823 -8.00096e-19)
(4.36321 -2.22047 1.52029e-18)
(3.68255 -2.76137 -1.37068e-18)
(3.30249 -3.28759 -9.95879e-20)
(2.94001 -3.86769 1.16241e-18)
(2.7916 -4.16749 5.08089e-18)
(2.65798 -4.39987 2.80928e-19)
(2.57261 -4.43495 3.74477e-18)
(2.41707 -4.26404 -5.34325e-18)
(2.21811 -3.79251 -9.3164e-18)
(1.96706 -3.09711 4.17139e-18)
(1.75666 -2.41742 -1.05307e-17)
(1.68687 -1.5976 2.62048e-18)
(1.69559 -0.909721 1.09589e-18)
(1.72583 -0.351124 -1.03928e-19)
(1.81487 0.0711739 2.42813e-19)
(1.96025 0.37279 -6.43525e-19)
(2.12278 0.585054 -1.07219e-18)
(2.30653 0.739683 5.13949e-19)
(2.54385 0.876327 -1.29968e-18)
(2.86853 1.01868 1.26939e-18)
(3.28601 1.1538 1.25791e-18)
(3.73335 1.24159 -1.30044e-18)
(4.1494 1.23739 1.2658e-18)
(4.4713 1.15523 -1.22027e-18)
(4.71101 1.01178 3.37985e-18)
(4.87003 0.873828 -1.11532e-18)
(4.98851 0.723486 1.91549e-18)
(5.06885 0.603392 -2.7012e-18)
(5.13735 0.471799 2.40993e-18)
(5.18836 0.373383 -7.74468e-20)
(5.85805 -0.297205 1.24624e-18)
(5.8477 -0.30999 0)
(5.81986 -0.344825 -3.5585e-19)
(5.79351 -0.366246 -3.9545e-19)
(5.72834 -0.429733 0)
(5.68746 -0.478632 -4.72144e-20)
(5.59399 -0.635637 1.06623e-18)
(5.53505 -0.741084 0)
(5.34097 -1.04743 0)
(5.12015 -1.19657 0)
(4.44369 -1.6116 0)
(4.00225 -1.88135 0)
(3.11471 -2.57091 1.29998e-18)
(2.82408 -3.03898 -8.83279e-19)
(2.48886 -3.82158 2.2483e-19)
(2.46253 -4.19329 -2.26747e-18)
(2.46553 -4.4904 3.02459e-18)
(2.46772 -4.586 -6.97791e-18)
(2.38606 -4.58359 0)
(2.27177 -4.3628 8.30416e-18)
(2.04866 -3.67972 -4.19005e-18)
(1.79683 -3.11218 9.52696e-18)
(1.60489 -2.34252 0)
(1.434 -1.66513 -1.2524e-18)
(1.4494 -1.08222 -2.69852e-19)
(1.54136 -0.630066 2.02262e-19)
(1.69898 -0.290001 -2.61716e-19)
(1.90484 -0.0262832 2.94539e-18)
(2.13016 0.194881 5.23879e-20)
(2.44274 0.410899 -1.33067e-18)
(2.80902 0.608115 9.64962e-19)
(3.24829 0.797876 1.24263e-19)
(3.6285 0.89851 0)
(4.02138 0.926184 -2.37243e-18)
(4.27053 0.887289 2.27986e-18)
(4.54003 0.774027 -1.08902e-18)
(4.67267 0.697909 0)
(4.84174 0.540024 -1.82409e-18)
(4.91032 0.469733 1.74422e-18)
(5.02691 0.315436 -7.819e-19)
(5.07234 0.256457 -1.45239e-18)
(5.16129 0.127505 1.3362e-18)
(5.22984 0.258138 -4.27142e-18)
(5.31799 0.343429 -1.49363e-18)
(5.41235 0.390901 1.57609e-18)
(5.50464 0.41075 3.27545e-18)
(5.59047 0.411522 -8.26097e-19)
(5.66753 0.399734 -8.17615e-19)
(5.73508 0.378691 8.30118e-19)
(5.79405 0.350367 8.07622e-19)
(5.84663 0.316724 7.14031e-19)
(5.89436 0.277864 0)
(5.93886 0.233143 -5.73735e-19)
(5.9841 0.179926 -5.72277e-19)
(6.03277 0.129536 -1.82369e-18)
(6.08291 0.0536546 1.75823e-19)
(6.04084 0.0823554 3.62104e-19)
(5.42765 -0.141686 -2.55959e-19)
(5.19481 0.0777508 0)
(5.25857 0.173593 -1.36085e-18)
(5.32709 0.246289 0)
(5.39889 0.29378 -1.5918e-18)
(5.47033 0.32006 1.63521e-18)
(5.53848 0.330642 8.37441e-19)
(5.60185 0.329396 0)
(5.66013 0.3184 -8.36666e-19)
(5.71333 0.299924 -8.16664e-19)
(5.76231 0.275703 0)
(5.80804 0.246208 0)
(5.85169 0.211539 -4.71271e-20)
(5.89606 0.169577 -5.75103e-20)
(5.94268 0.127947 7.81398e-19)
(5.98793 0.0583666 2.5678e-19)
(5.99124 0.0505054 9.51991e-20)
(5.40993 -0.155268 6.4478e-19)
(5.28 -0.0265463 -1.32358e-18)
(5.3022 0.0768226 1.47072e-18)
(5.34324 0.151064 0)
(5.39391 0.200604 -3.63508e-20)
(5.44778 0.231537 -2.60642e-20)
(5.50115 0.248286 -8.45743e-19)
(5.55235 0.253769 0)
(5.60082 0.250923 8.72914e-19)
(5.64656 0.242102 0)
(5.68955 0.228238 8.36729e-19)
(5.73035 0.209331 -8.35676e-19)
(5.77033 0.184528 -8.09472e-19)
(5.81209 0.153274 7.0168e-19)
(5.85584 0.118298 -6.84133e-19)
(5.89754 0.0712976 0)
(5.89349 0.04334 -4.48293e-19)
(5.31774 -0.107878 -1.90753e-18)
(5.30937 -0.0580473 1.31593e-18)
(5.33277 0.0156592 1.41728e-18)
(5.36176 0.0745802 0)
(5.39743 0.120089 0)
(5.43691 0.153352 -1.62852e-18)
(5.47742 0.174798 8.44805e-19)
(5.51712 0.185925 -8.57115e-19)
(5.55499 0.189065 -1.76992e-18)
(5.59113 0.186167 9.06493e-19)
(5.62618 0.178895 0)
(5.66101 0.167502 0)
(5.6967 0.151369 8.47681e-19)
(5.73445 0.129287 1.99754e-18)
(5.77321 0.101598 -3.86525e-19)
(5.80874 0.0644555 7.33243e-19)
(5.79915 0.0343201 6.15036e-19)
(5.22948 -0.080723 1.07217e-18)
(5.39701 -0.127358 0)
(5.38825 -0.0542121 1.32146e-18)
(5.39438 0.00211411 0)
(5.41227 0.0466385 -7.57391e-19)
(5.43723 0.0816619 7.91112e-19)
(5.46557 0.106416 0)
(5.49492 0.122118 1.73721e-18)
(5.52372 0.130375 1.77492e-18)
(5.55131 0.132759 -9.15544e-19)
(5.57815 0.130496 0)
(5.6055 0.124455 0)
(5.63485 0.115257 -4.35923e-19)
(5.66715 0.102071 4.32097e-19)
(5.69936 0.0833017 -4.23496e-19)
(5.72791 0.0576424 -1.17134e-18)
(5.70567 0.0299603 3.81956e-19)
(5.13767 -0.0462407 0)
(5.42312 -0.140958 -6.05322e-20)
(5.42171 -0.0899486 -6.71352e-20)
(5.42378 -0.0480026 -7.09723e-19)
(5.43249 -0.00961499 7.95084e-19)
(5.44699 0.0236613 -3.84281e-20)
(5.46518 0.0488791 0)
(5.48537 0.0665254 -8.84932e-19)
(5.50605 0.0783792 -2.5999e-20)
(5.52622 0.0855595 -4.52001e-19)
(5.54593 0.0880742 -4.58182e-19)
(5.5662 0.0862784 0)
(5.5885 0.0811004 -4.63953e-19)
(5.61368 0.0733381 0)
(5.63829 0.0619251 0)
(5.66092 0.046732 0)
(5.62389 0.0236331 0)
(5.04902 -0.0143577 0)
(5.51252 -0.173353 -1.36956e-18)
(5.48692 -0.128358 1.85964e-20)
(5.47248 -0.0910264 7.88258e-19)
(5.46774 -0.0570717 -1.53721e-18)
(5.47035 -0.0266218 -5.38912e-20)
(5.47769 -0.00239403 -8.16071e-21)
(5.48793 0.0162135 2.58993e-18)
(5.4997 0.0306676 -2.25009e-18)
(5.5123 0.0410842 1.54378e-20)
(5.52577 0.0474122 -4.60355e-19)
(5.5406 0.0504204 4.64612e-19)
(5.55744 0.0506353 4.79523e-19)
(5.5761 0.0477447 0)
(5.59315 0.0410826 0)
(5.61031 0.0334228 2.30139e-19)
(5.55742 0.0185354 -1.12714e-19)
(4.96541 0.0119317 -1.09901e-19)
(5.53405 -0.172181 -1.91383e-18)
(5.51992 -0.140951 2.003e-18)
(5.50734 -0.115536 2.18913e-18)
(5.49988 -0.0875065 -7.54474e-19)
(5.49752 -0.0608546 -1.62649e-18)
(5.49879 -0.0389982 8.2471e-19)
(5.50237 -0.0211525 -1.75497e-18)
(5.50732 -0.00630376 9.08246e-19)
(5.51314 0.00535709 -4.49454e-19)
(5.52026 0.0137997 9.2745e-19)
(5.52933 0.0195901 -9.51945e-19)
(5.54082 0.0230418 4.81766e-19)
(5.55386 0.0243891 -1.05274e-21)
(5.5656 0.0231836 4.78017e-19)
(5.57654 0.0215038 4.68128e-19)
(5.50755 0.0132516 1.17948e-19)
(4.89083 0.0247356 -1.15887e-19)
(5.61832 -0.172701 4.9e-20)
(5.58896 -0.151143 -2.07603e-21)
(5.56593 -0.129335 -1.45938e-18)
(5.54946 -0.107286 0)
(5.53828 -0.0862516 0)
(5.53091 -0.0675122 -4.33645e-19)
(5.52655 -0.0510515 8.45975e-19)
(5.52478 -0.0365449 -6.14715e-21)
(5.5253 -0.0243011 -8.41099e-21)
(5.52805 -0.0143798 9.14321e-19)
(5.53274 -0.00632728 4.55001e-19)
(5.53953 8.90613e-07 -4.74875e-19)
(5.5476 0.00469482 1.0254e-20)
(5.5558 0.00738049 -2.28568e-19)
(5.55883 0.0107912 -7.28889e-19)
(5.47544 0.00758065 -1.20256e-19)
(4.83962 0.0292956 -1.1489e-19)
(5.6314 -0.162721 1.30955e-18)
(5.61205 -0.145588 -1.34756e-18)
(5.59487 -0.132697 1.42522e-18)
(5.58161 -0.116435 -1.49758e-18)
(5.57201 -0.0990838 1.55577e-18)
(5.56469 -0.0839808 -1.21468e-18)
(5.55863 -0.0703266 -4.36872e-19)
(5.5536 -0.0571664 -7.5875e-21)
(5.55001 -0.0452041 0)
(5.54849 -0.0348934 4.3575e-19)
(5.54945 -0.0259458 -9.30417e-19)
(5.55271 -0.0181679 9.30377e-19)
(5.55686 -0.0113972 1.35249e-20)
(5.56261 -0.00583139 7.18187e-19)
(5.55619 0.000897291 0)
(5.46072 0.00226382 1.20323e-19)
(4.81668 0.0293738 1.26135e-19)
(5.70323 -0.139422 3.50742e-20)
(5.67698 -0.133909 2.91656e-20)
(5.65367 -0.123726 0)
(5.63389 -0.111453 7.60519e-19)
(5.61747 -0.0997677 -1.547e-18)
(5.60427 -0.0884148 -1.75641e-20)
(5.59388 -0.076985 3.87946e-19)
(5.58592 -0.0660509 4.3292e-19)
(5.58019 -0.0559754 4.14125e-19)
(5.57672 -0.0465954 -4.51518e-19)
(5.57558 -0.0378268 4.48123e-19)
(5.57658 -0.0297441 -4.51099e-19)
(5.57877 -0.022202 0)
(5.58309 -0.0152148 -4.64417e-19)
(5.57234 -0.0071071 -3.44944e-19)
(5.45961 -0.00249437 1.17531e-19)
(4.81932 0.0258555 0)
(5.71105 -0.124735 -1.32995e-18)
(5.69109 -0.117929 1.00186e-18)
(5.67419 -0.114506 0)
(5.66131 -0.107519 0)
(5.65102 -0.0979732 3.82224e-19)
(5.64153 -0.0888313 9.45849e-21)
(5.63212 -0.0798068 -7.94193e-19)
(5.62326 -0.0704578 8.01993e-21)
(5.61588 -0.0612247 -6.31781e-19)
(5.61073 -0.0524026 0)
(5.60813 -0.0440152 -4.33304e-19)
(5.6079 -0.0359952 6.55468e-19)
(5.60892 -0.0282578 -2.21005e-19)
(5.61147 -0.0207685 2.32258e-19)
(5.59704 -0.0125898 2.34658e-19)
(5.474 -0.00620526 -1.64114e-19)
(4.84455 0.0205007 -5.76009e-20)
(5.75681 -0.0878138 0)
(5.73628 -0.092086 3.78937e-21)
(5.71759 -0.0903015 -3.62577e-19)
(5.70156 -0.0851115 3.60996e-19)
(5.68821 -0.0808112 0)
(5.67682 -0.0760254 3.90568e-19)
(5.66672 -0.0698689 6.73999e-21)
(5.65786 -0.0634809 -1.77984e-19)
(5.65058 -0.0570634 8.13872e-19)
(5.64533 -0.0503113 -2.09184e-19)
(5.64242 -0.0434135 0)
(5.64177 -0.0365348 0)
(5.64218 -0.0296136 0)
(5.64345 -0.0225739 -3.18087e-19)
(5.62604 -0.0151205 -7.50467e-22)
(5.49849 -0.00811995 1.759e-19)
(4.88588 0.013908 1.63001e-19)
(5.76206 -0.0705871 5.38258e-21)
(5.74771 -0.0700021 8.48484e-21)
(5.73568 -0.071473 7.29967e-21)
(5.7258 -0.0704812 -7.4754e-19)
(5.7164 -0.0673998 0)
(5.70666 -0.0636144 0)
(5.69715 -0.0596127 -3.88861e-19)
(5.6887 -0.0551321 5.88204e-19)
(5.68179 -0.0501899 -4.02662e-19)
(5.67673 -0.0450323 -7.66051e-21)
(5.67394 -0.0396783 0)
(5.67351 -0.0341632 -5.98877e-21)
(5.67398 -0.0283073 1.01711e-19)
(5.6745 -0.0224056 3.1787e-19)
(5.65469 -0.0158625 -1.01878e-19)
(5.52659 -0.0095009 2.11548e-19)
(4.93702 0.00702448 -1.10042e-19)
(5.77894 -0.0287062 3.81147e-19)
(5.76828 -0.0376104 1.96538e-19)
(5.75811 -0.0409784 1.95432e-19)
(5.74817 -0.0417788 -1.89874e-19)
(5.73849 -0.0423545 0)
(5.72925 -0.0423502 -1.93435e-19)
(5.72071 -0.0413302 3.81845e-19)
(5.71328 -0.0395296 0)
(5.70717 -0.0372174 0)
(5.70255 -0.0344832 0)
(5.69998 -0.0313954 0)
(5.69991 -0.0280782 -2.03433e-19)
(5.70074 -0.0240083 1.00023e-19)
(5.70057 -0.0202727 -9.99732e-20)
(5.67973 -0.0140665 1.54121e-19)
(5.55253 -0.010885 -1.29419e-19)
(4.99074 0.00224465 -2.54291e-20)
(5.77796 -0.0146122 -4.07419e-19)
(5.76918 -0.0163833 -4.05487e-19)
(5.76212 -0.0187527 -3.518e-21)
(5.7551 -0.0207155 1.99722e-19)
(5.74767 -0.0221807 1.99424e-19)
(5.74024 -0.0230469 0)
(5.7334 -0.0233843 -3.95053e-19)
(5.72754 -0.0232402 -9.81322e-20)
(5.72261 -0.022604 -1.04867e-21)
(5.71913 -0.0215176 -9.788e-20)
(5.71718 -0.0201023 2.43964e-19)
(5.71779 -0.0185177 -9.75612e-20)
(5.71921 -0.0165591 -4.87914e-20)
(5.71842 -0.0156784 0)
(5.69845 -0.0093745 -9.83249e-20)
(5.5725 -0.014191 0)
(5.04064 0.00173121 0)
(5.77182 0.0267926 4.54744e-19)
(5.76743 0.0168297 -2.1907e-19)
(5.76137 0.0108623 0)
(5.75441 0.00628811 -1.06881e-19)
(5.74753 0.00234178 -1.032e-19)
(5.74119 -0.000790666 -1.04075e-19)
(5.73553 -0.0031942 4.09522e-19)
(5.73086 -0.0050355 0)
(5.72734 -0.00635931 2.34224e-20)
(5.72487 -0.00719844 -5.01668e-20)
(5.72348 -0.00765747 -7.46288e-20)
(5.72451 -0.00792294 9.30066e-20)
(5.72593 -0.00813139 5.63161e-20)
(5.72493 -0.0094033 -1.54624e-21)
(5.70826 -0.00231797 1.00408e-19)
(5.58359 -0.0167356 0)
(5.08172 0.00748714 -4.9853e-20)
(5.76474 0.0401672 -1.74302e-19)
(5.75774 0.0370078 1.21381e-19)
(5.75113 0.0331138 5.74377e-20)
(5.74491 0.0285393 1.4269e-20)
(5.73904 0.0242339 -1.28484e-19)
(5.73366 0.0202759 0)
(5.72885 0.0166489 -1.3367e-19)
(5.72499 0.0133405 2.65608e-20)
(5.72314 0.0102804 1.04057e-19)