/*--------------------------------*- C++ -*----------------------------------*\
  =========                 |
  \\      /  F ield         | OpenFOAM: The Open Source CFD Toolbox
   \\    /   O peration     | Website:  https://openfoam.org
    \\  /    A nd           | Version:  6
     \\/     M anipulation  |
\*---------------------------------------------------------------------------*/
FoamFile
{
    version     2.0;
    format      ascii;
    class       volVectorField;
    location    "1.99";
    object      U;
}
// * * * * * * * * * * * * * * * * * * * * * * * * * * * * * * * * * * * * * //

dimensions      [0 1 -1 0 0 0 0];

internalField   nonuniform List<vector> 
5625
(
(1.05965 0.063867 0)
(1.11509 0.0134712 0)
(1.17499 -0.028238 0)
(1.23703 -0.0573537 0)
(1.29906 -0.0709402 0)
(1.3591 -0.0671651 0)
(1.41539 -0.0452872 0)
(1.46634 -0.00553938 0)
(1.51051 0.0509926 0)
(1.54653 0.122432 0)
(1.57334 0.206232 0)
(1.5905 0.299394 0)
(1.59825 0.39845 0)
(1.59706 0.499305 0)
(1.58745 0.597628 0)
(1.56992 0.689795 0)
(1.5451 0.773152 0)
(1.51354 0.845026 0)
(1.47564 0.901962 0)
(1.43207 0.940451 0)
(1.38411 0.958457 0)
(1.33377 0.956339 0)
(1.28339 0.936585 0)
(1.23507 0.902923 0)
(1.19023 0.859477 0)
(1.14941 0.810216 0)
(1.11251 0.758708 0)
(1.07906 0.707968 0)
(1.04865 0.660374 0)
(1.02106 0.617598 0)
(0.996311 0.580585 0)
(0.974569 0.54961 0)
(0.955982 0.524436 0)
(0.940579 0.504486 0)
(0.928223 0.489019 0)
(0.918622 0.477258 0)
(0.911384 0.468475 0)
(0.906082 0.462029 0)
(0.902297 0.457378 0)
(0.899659 0.454078 0)
(0.89786 0.451775 0)
(0.896656 0.450196 0)
(0.895864 0.449133 0)
(0.895348 0.448427 0)
(0.895016 0.447967 0)
(0.894802 0.447672 0)
(0.894665 0.447487 0)
(0.894577 0.447372 0)
(0.894519 0.447302 0)
(0.89448 0.447259 0)
(0.894454 0.447234 0)
(0.894437 0.447219 0)
(0.894425 0.447211 0)
(0.894416 0.447206 0)
(0.894411 0.447203 0)
(0.894407 0.447202 0)
(0.894405 0.447201 0)
(0.894403 0.447201 0)
(0.894402 0.4472 0)
(0.894401 0.4472 0)
(0.894401 0.4472 0)
(0.8944 0.4472 0)
(0.8944 0.4472 0)
(0.8944 0.4472 0)
(0.8944 0.4472 0)
(0.8944 0.4472 0)
(0.8944 0.4472 0)
(0.8944 0.4472 0)
(0.8944 0.4472 0)
(0.8944 0.4472 0)
(0.8944 0.4472 0)
(0.8944 0.4472 0)
(0.8944 0.4472 0)
(0.8944 0.4472 0)
(0.8944 0.4472 0)
(1.05785 0.0955382 0)
(1.11346 0.0485352 0)
(1.17429 0.00906563 0)
(1.23791 -0.0190256 0)
(1.30191 -0.0327525 0)
(1.36411 -0.0302051 0)
(1.42255 -0.010579 0)
(1.47554 0.025953 0)
(1.52155 0.0783671 0)
(1.55923 0.144817 0)
(1.58762 0.222791 0)
(1.60632 0.309356 0)
(1.61541 0.401159 0)
(1.61515 0.494359 0)
(1.60588 0.585043 0)
(1.58819 0.669997 0)
(1.56277 0.746705 0)
(1.53018 0.812434 0)
(1.49088 0.863843 0)
(1.44562 0.897834 0)
(1.39587 0.912859 0)
(1.34373 0.909535 0)
(1.29162 0.890286 0)
(1.24164 0.858571 0)
(1.19518 0.81818 0)
(1.15278 0.772773 0)
(1.11437 0.725646 0)
(1.07957 0.679557 0)
(1.04807 0.636632 0)
(1.01969 0.598306 0)
(0.994496 0.565328 0)
(0.972602 0.537845 0)
(0.954094 0.515569 0)
(0.938916 0.497937 0)
(0.926853 0.484267 0)
(0.917554 0.473866 0)
(0.910591 0.466091 0)
(0.905516 0.460376 0)
(0.901908 0.456246 0)
(0.899401 0.453312 0)
(0.897695 0.451264 0)
(0.896554 0.449859 0)
(0.895804 0.448912 0)
(0.895315 0.448284 0)
(0.894998 0.447876 0)
(0.894794 0.447615 0)
(0.894661 0.447451 0)
(0.894575 0.447349 0)
(0.894518 0.447287 0)
(0.89448 0.44725 0)
(0.894454 0.447229 0)
(0.894437 0.447216 0)
(0.894425 0.447209 0)
(0.894417 0.447205 0)
(0.894411 0.447203 0)
(0.894407 0.447201 0)
(0.894405 0.447201 0)
(0.894403 0.4472 0)
(0.894402 0.4472 0)
(0.894401 0.4472 0)
(0.894401 0.4472 0)
(0.8944 0.4472 0)
(0.8944 0.4472 0)
(0.8944 0.4472 0)
(0.8944 0.4472 0)
(0.8944 0.4472 0)
(0.8944 0.4472 0)
(0.8944 0.4472 0)
(0.8944 0.4472 0)
(0.8944 0.4472 0)
(0.8944 0.4472 0)
(0.8944 0.4472 0)
(0.8944 0.4472 0)
(0.8944 0.4472 0)
(0.8944 0.4472 0)
(1.05236 0.127318 0)
(1.10685 0.0840502 0)
(1.16723 0.0471723 0)
(1.23108 0.0203461 0)
(1.2959 0.00655654 0)
(1.35928 0.0077907 0)
(1.41909 0.0249513 0)
(1.47346 0.05797 0)
(1.5208 0.105887 0)
(1.55974 0.1669 0)
(1.5894 0.238597 0)
(1.60937 0.318172 0)
(1.61956 0.402431 0)
(1.62004 0.487797 0)
(1.61115 0.570767 0)
(1.59353 0.648485 0)
(1.56788 0.718493 0)
(1.53473 0.778 0)
(1.49458 0.823837 0)
(1.44836 0.853384 0)
(1.39767 0.865587 0)
(1.34474 0.861282 0)
(1.29197 0.8428 0)
(1.24139 0.813312 0)
(1.19432 0.776266 0)
(1.15127 0.735002 0)
(1.1122 0.692516 0)
(1.07682 0.651288 0)
(1.04488 0.613174 0)
(1.01631 0.579369 0)
(0.991156 0.550435 0)
(0.969518 0.526412 0)
(0.951409 0.506979 0)
(0.9367 0.491604 0)
(0.925107 0.479677 0)
(0.916234 0.470591 0)
(0.909629 0.463786 0)
(0.904838 0.458776 0)
(0.901446 0.455149 0)
(0.899095 0.45257 0)
(0.897498 0.450768 0)
(0.896431 0.449532 0)
(0.895729 0.448698 0)
(0.89527 0.448146 0)
(0.894973 0.447787 0)
(0.89478 0.447558 0)
(0.894654 0.447415 0)
(0.894572 0.447327 0)
(0.894517 0.447273 0)
(0.89448 0.447242 0)
(0.894455 0.447224 0)
(0.894437 0.447213 0)
(0.894425 0.447207 0)
(0.894417 0.447204 0)
(0.894411 0.447202 0)
(0.894407 0.447201 0)
(0.894405 0.4472 0)
(0.894403 0.4472 0)
(0.894402 0.4472 0)
(0.894401 0.4472 0)
(0.894401 0.4472 0)
(0.8944 0.4472 0)
(0.8944 0.4472 0)
(0.8944 0.4472 0)
(0.8944 0.4472 0)
(0.8944 0.4472 0)
(0.8944 0.4472 0)
(0.8944 0.4472 0)
(0.8944 0.4472 0)
(0.8944 0.4472 0)
(0.8944 0.4472 0)
(0.8944 0.4472 0)
(0.8944 0.4472 0)
(0.8944 0.4472 0)
(0.8944 0.4472 0)
(1.04394 0.158483 0)
(1.09615 0.119142 0)
(1.15473 0.0851565 0)
(1.21744 0.0598819 0)
(1.28176 0.0462104 0)
(1.34517 0.0461643 0)
(1.40537 0.0607604 0)
(1.46037 0.0900528 0)
(1.50844 0.133165 0)
(1.54822 0.188401 0)
(1.57882 0.253504 0)
(1.59976 0.325846 0)
(1.61082 0.402411 0)
(1.61198 0.479897 0)
(1.6036 0.555198 0)
(1.58635 0.625721 0)
(1.56087 0.689019 0)
(1.52764 0.742283 0)
(1.48725 0.782611 0)
(1.4408 0.807893 0)
(1.39008 0.817533 0)
(1.33736 0.812538 0)
(1.28497 0.795104 0)
(1.23482 0.768102 0)
(1.1881 0.734639 0)
(1.14527 0.697727 0)
(1.10633 0.660049 0)
(1.07107 0.623787 0)
(1.03934 0.590515 0)
(1.01112 0.561193 0)
(0.986479 0.536216 0)
(0.965472 0.515538 0)
(0.948053 0.498829 0)
(0.934026 0.485604 0)
(0.923055 0.47533 0)
(0.914713 0.467486 0)
(0.908536 0.4616 0)
(0.904076 0.457257 0)
(0.900928 0.454107 0)
(0.898753 0.451865 0)
(0.897277 0.450296 0)
(0.896292 0.449218 0)
(0.895643 0.448493 0)
(0.895219 0.448013 0)
(0.894942 0.447703 0)
(0.894762 0.447505 0)
(0.894644 0.447381 0)
(0.894566 0.447305 0)
(0.894513 0.44726 0)
(0.894478 0.447234 0)
(0.894453 0.447218 0)
(0.894436 0.44721 0)
(0.894425 0.447205 0)
(0.894417 0.447202 0)
(0.894411 0.447201 0)
(0.894407 0.4472 0)
(0.894405 0.4472 0)
(0.894403 0.4472 0)
(0.894402 0.4472 0)
(0.894401 0.4472 0)
(0.894401 0.4472 0)
(0.8944 0.4472 0)
(0.8944 0.4472 0)
(0.8944 0.4472 0)
(0.8944 0.4472 0)
(0.8944 0.4472 0)
(0.8944 0.4472 0)
(0.8944 0.4472 0)
(0.8944 0.4472 0)
(0.8944 0.4472 0)
(0.8944 0.4472 0)
(0.8944 0.4472 0)
(0.8944 0.4472 0)
(0.8944 0.4472 0)
(0.8944 0.4472 0)
(1.03332 0.188496 0)
(1.08236 0.153083 0)
(1.138 0.122152 0)
(1.19825 0.0986798 0)
(1.26074 0.0853538 0)
(1.32293 0.0841709 0)
(1.38245 0.0962362 0)
(1.43717 0.121715 0)
(1.48528 0.159856 0)
(1.52539 0.209134 0)
(1.55654 0.267502 0)
(1.57816 0.332524 0)
(1.58989 0.401368 0)
(1.59174 0.471045 0)
(1.58407 0.538805 0)
(1.56751 0.60222 0)
(1.54257 0.658828 0)
(1.50973 0.705895 0)
(1.46972 0.740885 0)
(1.42384 0.762203 0)
(1.374 0.769631 0)
(1.32247 0.764272 0)
(1.27144 0.748163 0)
(1.22264 0.723873 0)
(1.17712 0.694172 0)
(1.13531 0.661736 0)
(1.09721 0.628928 0)
(1.06272 0.597619 0)
(1.03178 0.569107 0)
(1.00441 0.544126 0)
(0.980695 0.522928 0)
(0.96065 0.505409 0)
(0.94417 0.49125 0)
(0.931003 0.480028 0)
(0.920775 0.471289 0)
(0.913045 0.464598 0)
(0.907351 0.459563 0)
(0.903255 0.455839 0)
(0.900373 0.453134 0)
(0.898386 0.451204 0)
(0.89704 0.449854 0)
(0.896141 0.448926 0)
(0.895549 0.448301 0)
(0.895161 0.447889 0)
(0.894907 0.447623 0)
(0.894741 0.447454 0)
(0.894631 0.447349 0)
(0.894558 0.447286 0)
(0.894508 0.447248 0)
(0.894475 0.447226 0)
(0.894452 0.447214 0)
(0.894435 0.447207 0)
(0.894424 0.447203 0)
(0.894416 0.447201 0)
(0.894411 0.4472 0)
(0.894407 0.4472 0)
(0.894405 0.4472 0)
(0.894403 0.4472 0)
(0.894402 0.4472 0)
(0.894401 0.4472 0)
(0.894401 0.4472 0)
(0.8944 0.4472 0)
(0.8944 0.4472 0)
(0.8944 0.4472 0)
(0.8944 0.4472 0)
(0.8944 0.4472 0)
(0.8944 0.4472 0)
(0.8944 0.4472 0)
(0.8944 0.4472 0)
(0.8944 0.4472 0)
(0.8944 0.4472 0)
(0.8944 0.4472 0)
(0.8944 0.4472 0)
(0.8944 0.4472 0)
(0.8944 0.4472 0)
(1.02122 0.216994 0)
(1.06646 0.185343 0)
(1.11827 0.157472 0)
(1.17499 0.135944 0)
(1.23443 0.123176 0)
(1.29421 0.121064 0)
(1.35193 0.13074 0)
(1.40543 0.152466 0)
(1.45282 0.185647 0)
(1.49265 0.228977 0)
(1.52389 0.280641 0)
(1.54584 0.338389 0)
(1.5581 0.399616 0)
(1.56066 0.461658 0)
(1.55389 0.522057 0)
(1.53826 0.578482 0)
(1.51418 0.628473 0)
(1.48218 0.669489 0)
(1.44319 0.699431 0)
(1.39867 0.717185 0)
(1.3506 0.722817 0)
(1.30116 0.717442 0)
(1.25235 0.70291 0)
(1.20571 0.681504 0)
(1.16214 0.655668 0)
(1.122 0.627743 0)
(1.08537 0.599759 0)
(1.05222 0.573277 0)
(1.02257 0.549326 0)
(0.996493 0.528444 0)
(0.974063 0.510766 0)
(0.955255 0.496161 0)
(0.939913 0.484338 0)
(0.927744 0.474941 0)
(0.918352 0.467598 0)
(0.911291 0.461957 0)
(0.906112 0.457698 0)
(0.902401 0.454539 0)
(0.899797 0.452239 0)
(0.898005 0.450596 0)
(0.896793 0.449446 0)
(0.895984 0.448657 0)
(0.89545 0.448125 0)
(0.895099 0.447775 0)
(0.894869 0.44755 0)
(0.894717 0.447408 0)
(0.894617 0.44732 0)
(0.894549 0.447268 0)
(0.894503 0.447237 0)
(0.894471 0.447219 0)
(0.894449 0.44721 0)
(0.894434 0.447204 0)
(0.894423 0.447202 0)
(0.894415 0.4472 0)
(0.89441 0.4472 0)
(0.894407 0.4472 0)
(0.894404 0.4472 0)
(0.894403 0.4472 0)
(0.894402 0.4472 0)
(0.894401 0.4472 0)
(0.894401 0.4472 0)
(0.8944 0.4472 0)
(0.8944 0.4472 0)
(0.8944 0.4472 0)
(0.8944 0.4472 0)
(0.8944 0.4472 0)
(0.8944 0.4472 0)
(0.8944 0.4472 0)
(0.8944 0.4472 0)
(0.8944 0.4472 0)
(0.8944 0.4472 0)
(0.8944 0.4472 0)
(0.8944 0.4472 0)
(0.8944 0.4472 0)
(0.8944 0.4472 0)
(1.00827 0.24376 0)
(1.0493 0.2156 0)
(1.09671 0.190652 0)
(1.14909 0.171089 0)
(1.20455 0.159025 0)
(1.26088 0.156191 0)
(1.31579 0.163692 0)
(1.36712 0.18186 0)
(1.41299 0.21027 0)
(1.4519 0.247841 0)
(1.48272 0.292973 0)
(1.50465 0.343622 0)
(1.51726 0.397456 0)
(1.52053 0.45213 0)
(1.51472 0.505387 0)
(1.50015 0.554964 0)
(1.47719 0.598499 0)
(1.44649 0.633745 0)
(1.40915 0.659058 0)
(1.36676 0.673724 0)
(1.32127 0.677995 0)
(1.2747 0.672936 0)
(1.22885 0.660195 0)
(1.18501 0.641783 0)
(1.14396 0.619833 0)
(1.10606 0.596354 0)
(1.0714 0.57304 0)
(1.04006 0.551145 0)
(1.01213 0.531453 0)
(0.987715 0.514338 0)
(0.966856 0.499861 0)
(0.949495 0.487879 0)
(0.935438 0.478147 0)
(0.924361 0.47038 0)
(0.915861 0.464283 0)
(0.909502 0.45958 0)
(0.904857 0.456016 0)
(0.901539 0.453365 0)
(0.899217 0.45143 0)
(0.897622 0.450047 0)
(0.896544 0.449077 0)
(0.895824 0.448412 0)
(0.895348 0.447966 0)
(0.895035 0.447672 0)
(0.894829 0.447484 0)
(0.894692 0.447366 0)
(0.894601 0.447294 0)
(0.894539 0.447251 0)
(0.894496 0.447227 0)
(0.894467 0.447213 0)
(0.894446 0.447206 0)
(0.894432 0.447202 0)
(0.894422 0.4472 0)
(0.894415 0.4472 0)
(0.89441 0.447199 0)
(0.894406 0.447199 0)
(0.894404 0.4472 0)
(0.894403 0.4472 0)
(0.894402 0.4472 0)
(0.894401 0.4472 0)
(0.894401 0.4472 0)
(0.8944 0.4472 0)
(0.8944 0.4472 0)
(0.8944 0.4472 0)
(0.8944 0.4472 0)
(0.8944 0.4472 0)
(0.8944 0.4472 0)
(0.8944 0.4472 0)
(0.8944 0.4472 0)
(0.8944 0.4472 0)
(0.8944 0.4472 0)
(0.8944 0.4472 0)
(0.8944 0.4472 0)
(0.8944 0.4472 0)
(0.8944 0.4472 0)
(0.995056 0.268681 0)
(1.03166 0.243697 0)
(1.07431 0.221446 0)
(1.12185 0.203768 0)
(1.17267 0.192473 0)
(1.22477 0.189094 0)
(1.27603 0.19466 0)
(1.32439 0.209558 0)
(1.368 0.233505 0)
(1.40533 0.265622 0)
(1.43519 0.30451 0)
(1.45672 0.348364 0)
(1.46946 0.39515 0)
(1.47333 0.442779 0)
(1.46843 0.489147 0)
(1.45498 0.532092 0)
(1.43338 0.569457 0)
(1.40442 0.599365 0)
(1.36934 0.620578 0)
(1.32977 0.632674 0)
(1.28753 0.636006 0)
(1.24446 0.631551 0)
(1.20209 0.620764 0)
(1.16154 0.60539 0)
(1.12346 0.587257 0)
(1.0882 0.568048 0)
(1.05593 0.549131 0)
(1.02678 0.531478 0)
(1.00091 0.515658 0)
(0.978419 0.501919 0)
(0.95934 0.490274 0)
(0.943573 0.480598 0)
(0.930891 0.472698 0)
(0.920958 0.466357 0)
(0.913375 0.461353 0)
(0.907728 0.457474 0)
(0.903618 0.454522 0)
(0.900691 0.45232 0)
(0.898647 0.45071 0)
(0.897245 0.449557 0)
(0.896298 0.448748 0)
(0.895666 0.448194 0)
(0.895247 0.447823 0)
(0.894971 0.447581 0)
(0.894788 0.447426 0)
(0.894666 0.447329 0)
(0.894584 0.447271 0)
(0.894528 0.447237 0)
(0.894489 0.447218 0)
(0.894462 0.447208 0)
(0.894443 0.447203 0)
(0.89443 0.4472 0)
(0.894421 0.447199 0)
(0.894414 0.447199 0)
(0.894409 0.447199 0)
(0.894406 0.447199 0)
(0.894404 0.447199 0)
(0.894402 0.4472 0)
(0.894402 0.4472 0)
(0.894401 0.4472 0)
(0.894401 0.4472 0)
(0.8944 0.4472 0)
(0.8944 0.4472 0)
(0.8944 0.4472 0)
(0.8944 0.4472 0)
(0.8944 0.4472 0)
(0.8944 0.4472 0)
(0.8944 0.4472 0)
(0.8944 0.4472 0)
(0.8944 0.4472 0)
(0.8944 0.4472 0)
(0.8944 0.4472 0)
(0.8944 0.4472 0)
(0.8944 0.4472 0)
(0.8944 0.4472 0)
(0.982092 0.29172 0)
(1.0142 0.269594 0)
(1.05193 0.249782 0)
(1.09438 0.233839 0)
(1.14014 0.223306 0)
(1.18747 0.219511 0)
(1.23448 0.223386 0)
(1.27922 0.235334 0)
(1.31994 0.255187 0)
(1.35511 0.282228 0)
(1.38351 0.315265 0)
(1.40425 0.352748 0)
(1.41684 0.392905 0)
(1.42109 0.433857 0)
(1.41698 0.47365 0)
(1.40468 0.510297 0)
(1.3847 0.54193 0)
(1.35792 0.567049 0)
(1.32565 0.584752 0)
(1.28943 0.594802 0)
(1.25095 0.597576 0)
(1.21179 0.593961 0)
(1.17326 0.585221 0)
(1.13629 0.572849 0)
(1.10148 0.558371 0)
(1.06916 0.54315 0)
(1.03956 0.528256 0)
(1.01289 0.514408 0)
(0.989312 0.502006 0)
(0.968938 0.491207 0)
(0.951768 0.482006 0)
(0.937674 0.47431 0)
(0.926406 0.467982 0)
(0.917629 0.462866 0)
(0.910961 0.458802 0)
(0.906013 0.455636 0)
(0.902425 0.453216 0)
(0.899876 0.451404 0)
(0.8981 0.450077 0)
(0.896883 0.449126 0)
(0.896061 0.448459 0)
(0.895512 0.448003 0)
(0.895148 0.447699 0)
(0.894907 0.4475 0)
(0.894747 0.447375 0)
(0.894639 0.447298 0)
(0.894566 0.447252 0)
(0.894516 0.447225 0)
(0.894482 0.447211 0)
(0.894457 0.447204 0)
(0.89444 0.4472 0)
(0.894427 0.447199 0)
(0.894419 0.447198 0)
(0.894413 0.447198 0)
(0.894408 0.447199 0)
(0.894406 0.447199 0)
(0.894404 0.447199 0)
(0.894402 0.4472 0)
(0.894401 0.4472 0)
(0.894401 0.4472 0)
(0.894401 0.4472 0)
(0.8944 0.4472 0)
(0.8944 0.4472 0)
(0.8944 0.4472 0)
(0.8944 0.4472 0)
(0.8944 0.4472 0)
(0.8944 0.4472 0)
(0.8944 0.4472 0)
(0.8944 0.4472 0)
(0.8944 0.4472 0)
(0.8944 0.4472 0)
(0.8944 0.4472 0)
(0.8944 0.4472 0)
(0.8944 0.4472 0)
(0.8944 0.4472 0)
(0.969789 0.312894 0)
(0.997479 0.293329 0)
(1.03031 0.275692 0)
(1.06756 0.261312 0)
(1.10808 0.251489 0)
(1.15037 0.247367 0)
(1.19271 0.24977 0)
(1.23338 0.259092 0)
(1.27071 0.275241 0)
(1.30322 0.297638 0)
(1.32972 0.325292 0)
(1.34932 0.356886 0)
(1.36146 0.390876 0)
(1.36583 0.425576 0)
(1.36238 0.459214 0)
(1.35131 0.490046 0)
(1.3332 0.516524 0)
(1.30899 0.537481 0)
(1.27993 0.552262 0)
(1.24743 0.560744 0)
(1.21299 0.563293 0)
(1.17795 0.560685 0)
(1.14342 0.554007 0)
(1.1102 0.544509 0)
(1.07881 0.533426 0)
(1.04961 0.521819 0)
(1.02288 0.510485 0)
(0.99886 0.49994 0)
(0.977724 0.49046 0)
(0.959569 0.482149 0)
(0.944364 0.475005 0)
(0.931958 0.468972 0)
(0.922095 0.463964 0)
(0.91445 0.459881 0)
(0.908666 0.456614 0)
(0.904391 0.454054 0)
(0.901299 0.452088 0)
(0.899108 0.450613 0)
(0.897584 0.449529 0)
(0.896541 0.448753 0)
(0.895837 0.448209 0)
(0.895367 0.447838 0)
(0.895054 0.447591 0)
(0.894846 0.447431 0)
(0.894707 0.447331 0)
(0.894613 0.44727 0)
(0.894549 0.447235 0)
(0.894505 0.447215 0)
(0.894474 0.447205 0)
(0.894452 0.4472 0)
(0.894437 0.447198 0)
(0.894425 0.447197 0)
(0.894417 0.447198 0)
(0.894412 0.447198 0)
(0.894408 0.447199 0)
(0.894405 0.447199 0)
(0.894403 0.447199 0)
(0.894402 0.4472 0)
(0.894401 0.4472 0)
(0.894401 0.4472 0)
(0.894401 0.4472 0)
(0.8944 0.4472 0)
(0.8944 0.4472 0)
(0.8944 0.4472 0)
(0.8944 0.4472 0)
(0.8944 0.4472 0)
(0.8944 0.4472 0)
(0.8944 0.4472 0)
(0.8944 0.4472 0)
(0.8944 0.4472 0)
(0.8944 0.4472 0)
(0.8944 0.4472 0)
(0.8944 0.4472 0)
(0.8944 0.4472 0)
(0.8944 0.4472 0)
(0.958467 0.332244 0)
(0.981949 0.314985 0)
(1.01003 0.299292 0)
(1.04217 0.2863 0)
(1.07744 0.277121 0)
(1.11456 0.272735 0)
(1.15205 0.273858 0)
(1.18836 0.280856 0)
(1.22195 0.293689 0)
(1.25145 0.311902 0)
(1.2757 0.33468 0)
(1.29382 0.360902 0)
(1.30521 0.38923 0)
(1.30952 0.418181 0)
(1.30667 0.446207 0)
(1.29693 0.471835 0)
(1.28092 0.493817 0)
(1.25953 0.511252 0)
(1.23389 0.523662 0)
(1.20527 0.530988 0)
(1.17495 0.533562 0)
(1.14408 0.532055 0)
(1.11356 0.527375 0)
(1.0841 0.520531 0)
(1.05619 0.512487 0)
(1.03019 0.504031 0)
(1.00642 0.495737 0)
(0.985128 0.487963 0)
(0.966487 0.480902 0)
(0.950565 0.474635 0)
(0.93731 0.469177 0)
(0.926555 0.464509 0)
(0.918048 0.46059 0)
(0.911482 0.457364 0)
(0.906533 0.454762 0)
(0.902887 0.452711 0)
(0.900258 0.451129 0)
(0.898399 0.449938 0)
(0.897108 0.449062 0)
(0.896226 0.448435 0)
(0.89563 0.447996 0)
(0.895231 0.447697 0)
(0.894966 0.4475 0)
(0.894788 0.447373 0)
(0.894669 0.447295 0)
(0.894588 0.447248 0)
(0.894533 0.447221 0)
(0.894494 0.447207 0)
(0.894466 0.4472 0)
(0.894447 0.447197 0)
(0.894433 0.447196 0)
(0.894423 0.447196 0)
(0.894415 0.447197 0)
(0.89441 0.447198 0)
(0.894407 0.447198 0)
(0.894405 0.447199 0)
(0.894403 0.447199 0)
(0.894402 0.4472 0)
(0.894401 0.4472 0)
(0.894401 0.4472 0)
(0.8944 0.4472 0)
(0.8944 0.4472 0)
(0.8944 0.4472 0)
(0.8944 0.4472 0)
(0.8944 0.4472 0)
(0.8944 0.4472 0)
(0.8944 0.4472 0)
(0.8944 0.4472 0)
(0.8944 0.4472 0)
(0.8944 0.4472 0)
(0.8944 0.4472 0)
(0.8944 0.4472 0)
(0.8944 0.4472 0)
(0.8944 0.4472 0)
(0.8944 0.4472 0)
(0.948311 0.349824 0)
(0.967905 0.334664 0)
(0.991521 0.320719 0)
(1.01878 0.308974 0)
(1.04894 0.300382 0)
(1.08095 0.29578 0)
(1.11356 0.295793 0)
(1.14539 0.300757 0)
(1.17507 0.310665 0)
(1.20133 0.325162 0)
(1.22309 0.34358 0)
(1.23949 0.364974 0)
(1.24992 0.388194 0)
(1.25404 0.411977 0)
(1.2518 0.435026 0)
(1.24348 0.45613 0)
(1.22966 0.474289 0)
(1.21117 0.488809 0)
(1.189 0.499332 0)
(1.16423 0.505834 0)
(1.13795 0.508606 0)
(1.11112 0.508209 0)
(1.08451 0.505373 0)
(1.05872 0.500875 0)
(1.03424 0.495432 0)
(1.01143 0.489608 0)
(0.990619 0.483805 0)
(0.972049 0.47827 0)
(0.955873 0.473146 0)
(0.942129 0.468511 0)
(0.93075 0.464403 0)
(0.921563 0.460833 0)
(0.914327 0.457796 0)
(0.908766 0.45527 0)
(0.904589 0.453216 0)
(0.90152 0.451585 0)
(0.899313 0.450323 0)
(0.897756 0.449371 0)
(0.896676 0.44867 0)
(0.895938 0.448168 0)
(0.89544 0.447817 0)
(0.895107 0.44758 0)
(0.894884 0.447424 0)
(0.894734 0.447326 0)
(0.894633 0.447265 0)
(0.894564 0.44723 0)
(0.894516 0.44721 0)
(0.894483 0.4472 0)
(0.894459 0.447196 0)
(0.894442 0.447195 0)
(0.894429 0.447195 0)
(0.89442 0.447196 0)
(0.894414 0.447197 0)
(0.894409 0.447198 0)
(0.894406 0.447198 0)
(0.894404 0.447199 0)
(0.894403 0.447199 0)
(0.894402 0.447199 0)
(0.894401 0.4472 0)
(0.894401 0.4472 0)
(0.8944 0.4472 0)
(0.8944 0.4472 0)
(0.8944 0.4472 0)
(0.8944 0.4472 0)
(0.8944 0.4472 0)
(0.8944 0.4472 0)
(0.8944 0.4472 0)
(0.8944 0.4472 0)
(0.8944 0.4472 0)
(0.8944 0.4472 0)
(0.8944 0.4472 0)
(0.8944 0.4472 0)
(0.8944 0.4472 0)
(0.8944 0.4472 0)
(0.8944 0.4472 0)
(0.939391 0.365663 0)
(0.955502 0.352447 0)
(0.975047 0.340112 0)
(0.997773 0.329518 0)
(1.02312 0.321485 0)
(1.05024 0.316733 0)
(1.07809 0.315806 0)
(1.10548 0.31901 0)
(1.13121 0.326368 0)
(1.15415 0.33761 0)
(1.17329 0.352188 0)
(1.18783 0.369317 0)
(1.1972 0.388042 0)
(1.20107 0.407311 0)
(1.19944 0.426057 0)
(1.19255 0.44331 0)
(1.18092 0.458281 0)
(1.16526 0.470425 0)
(1.14642 0.479463 0)
(1.12533 0.485387 0)
(1.10288 0.488438 0)
(1.07986 0.489065 0)
(1.05694 0.487829 0)
(1.03467 0.485296 0)
(1.01349 0.481971 0)
(0.993775 0.478243 0)
(0.975838 0.474389 0)
(0.9599 0.470591 0)
(0.946084 0.466969 0)
(0.934404 0.463602 0)
(0.924779 0.460549 0)
(0.917042 0.457846 0)
(0.910974 0.455513 0)
(0.906328 0.453549 0)
(0.902848 0.45194 0)
(0.900299 0.450655 0)
(0.89847 0.449656 0)
(0.897182 0.4489 0)
(0.89629 0.448344 0)
(0.895681 0.447947 0)
(0.89527 0.44767 0)
(0.894995 0.447484 0)
(0.89481 0.447363 0)
(0.894685 0.447287 0)
(0.8946 0.447241 0)
(0.894542 0.447215 0)
(0.894501 0.447202 0)
(0.894472 0.447196 0)
(0.894452 0.447194 0)
(0.894437 0.447193 0)
(0.894426 0.447194 0)
(0.894418 0.447195 0)
(0.894412 0.447197 0)
(0.894408 0.447198 0)
(0.894406 0.447198 0)
(0.894404 0.447199 0)
(0.894402 0.447199 0)
(0.894402 0.447199 0)
(0.894401 0.4472 0)
(0.894401 0.4472 0)
(0.8944 0.4472 0)
(0.8944 0.4472 0)
(0.8944 0.4472 0)
(0.8944 0.4472 0)
(0.8944 0.4472 0)
(0.8944 0.4472 0)
(0.8944 0.4472 0)
(0.8944 0.4472 0)
(0.8944 0.4472 0)
(0.8944 0.4472 0)
(0.8944 0.4472 0)
(0.8944 0.4472 0)
(0.8944 0.4472 0)
(0.8944 0.4472 0)
(0.8944 0.4472 0)
(0.931678 0.379775 0)
(0.944766 0.368385 0)
(0.960701 0.357577 0)
(0.979347 0.348081 0)
(1.00029 0.340615 0)
(1.02287 0.335801 0)
(1.04622 0.33412 0)
(1.06936 0.33585 0)
(1.09126 0.341035 0)
(1.11091 0.349475 0)
(1.12743 0.360738 0)
(1.14008 0.37419 0)
(1.14835 0.389051 0)
(1.15197 0.404464 0)
(1.1509 0.419574 0)
(1.14536 0.433609 0)
(1.13578 0.44595 0)
(1.12276 0.456161 0)
(1.10701 0.464022 0)
(1.0893 0.469525 0)
(1.07037 0.472854 0)
(1.05087 0.47434 0)
(1.03139 0.474383 0)
(1.01241 0.473384 0)
(0.99435 0.47168 0)
(0.977571 0.469532 0)
(0.96235 0.467135 0)
(0.948879 0.464633 0)
(0.937255 0.462134 0)
(0.927476 0.459727 0)
(0.919452 0.457481 0)
(0.913029 0.45545 0)
(0.908009 0.453668 0)
(0.904177 0.452152 0)
(0.901316 0.450899 0)
(0.899226 0.449894 0)
(0.89773 0.44911 0)
(0.896678 0.448515 0)
(0.895951 0.448078 0)
(0.895456 0.447766 0)
(0.89512 0.447551 0)
(0.894895 0.447407 0)
(0.894743 0.447314 0)
(0.894641 0.447256 0)
(0.894571 0.447222 0)
(0.894522 0.447204 0)
(0.894487 0.447195 0)
(0.894462 0.447192 0)
(0.894444 0.447192 0)
(0.894432 0.447193 0)
(0.894422 0.447194 0)
(0.894415 0.447195 0)
(0.894411 0.447196 0)
(0.894407 0.447197 0)
(0.894405 0.447198 0)
(0.894403 0.447199 0)
(0.894402 0.447199 0)
(0.894401 0.4472 0)
(0.894401 0.4472 0)
(0.894401 0.4472 0)
(0.8944 0.4472 0)
(0.8944 0.4472 0)
(0.8944 0.4472 0)
(0.8944 0.4472 0)
(0.8944 0.4472 0)
(0.8944 0.4472 0)
(0.8944 0.4472 0)
(0.8944 0.4472 0)
(0.8944 0.4472 0)
(0.8944 0.4472 0)
(0.8944 0.4472 0)
(0.8944 0.4472 0)
(0.8944 0.4472 0)
(0.8944 0.4472 0)
(0.8944 0.4472 0)
(0.925071 0.392178 0)
(0.935602 0.382496 0)
(0.948441 0.373152 0)
(0.963519 0.364754 0)
(0.98055 0.357906 0)
(0.999028 0.353153 0)
(1.01827 0.350921 0)
(1.03747 0.351468 0)
(1.05576 0.354861 0)
(1.07229 0.360961 0)
(1.08629 0.369435 0)
(1.09712 0.379787 0)
(1.10431 0.391396 0)
(1.10763 0.403583 0)
(1.10704 0.415673 0)
(1.1027 0.427053 0)
(1.09496 0.437234 0)
(1.0843 0.445866 0)
(1.07133 0.452762 0)
(1.05665 0.457907 0)
(1.04087 0.461426 0)
(1.02456 0.46354 0)
(1.00821 0.464516 0)
(0.992257 0.464615 0)
(0.97709 0.464059 0)
(0.963025 0.463028 0)
(0.950307 0.461665 0)
(0.939097 0.460089 0)
(0.929462 0.458405 0)
(0.921389 0.456705 0)
(0.914792 0.455066 0)
(0.90953 0.453549 0)
(0.905432 0.452197 0)
(0.902313 0.451032 0)
(0.899992 0.450061 0)
(0.8983 0.449279 0)
(0.897091 0.448668 0)
(0.896244 0.448204 0)
(0.895658 0.447864 0)
(0.895259 0.447621 0)
(0.894989 0.447455 0)
(0.894807 0.447345 0)
(0.894684 0.447275 0)
(0.894601 0.447232 0)
(0.894543 0.447208 0)
(0.894503 0.447196 0)
(0.894474 0.447191 0)
(0.894453 0.44719 0)
(0.894438 0.447191 0)
(0.894427 0.447192 0)
(0.894419 0.447194 0)
(0.894414 0.447195 0)
(0.894409 0.447197 0)
(0.894406 0.447198 0)
(0.894404 0.447198 0)
(0.894403 0.447199 0)
(0.894402 0.447199 0)
(0.894401 0.4472 0)
(0.894401 0.4472 0)
(0.8944 0.4472 0)
(0.8944 0.4472 0)
(0.8944 0.4472 0)
(0.8944 0.4472 0)
(0.8944 0.4472 0)
(0.8944 0.4472 0)
(0.8944 0.4472 0)
(0.8944 0.4472 0)
(0.8944 0.4472 0)
(0.8944 0.4472 0)
(0.8944 0.4472 0)
(0.8944 0.4472 0)
(0.8944 0.4472 0)
(0.8944 0.4472 0)
(0.8944 0.4472 0)
(0.8944 0.4472 0)
(0.919464 0.402898 0)
(0.927865 0.394808 0)
(0.938106 0.386868 0)
(0.950153 0.379568 0)
(0.963804 0.373412 0)
(0.978695 0.368867 0)
(0.994295 0.366305 0)
(1.00995 0.365969 0)
(1.02497 0.367948 0)
(1.03863 0.37216 0)
(1.05028 0.378359 0)
(1.05939 0.386167 0)
(1.06555 0.395102 0)
(1.06854 0.404638 0)
(1.06831 0.414245 0)
(1.06498 0.423444 0)
(1.05882 0.431841 0)
(1.05022 0.439152 0)
(1.03966 0.445214 0)
(1.02764 0.449992 0)
(1.01465 0.453554 0)
(1.00116 0.456036 0)
(0.987617 0.457601 0)
(0.974401 0.458405 0)
(0.961848 0.458594 0)
(0.950236 0.458294 0)
(0.93977 0.457621 0)
(0.930577 0.456678 0)
(0.922706 0.455567 0)
(0.916135 0.454377 0)
(0.910785 0.453186 0)
(0.906531 0.452056 0)
(0.903229 0.451033 0)
(0.900723 0.450142 0)
(0.898863 0.449395 0)
(0.897511 0.44879 0)
(0.896548 0.448316 0)
(0.895873 0.447956 0)
(0.895408 0.447693 0)
(0.895091 0.447507 0)
(0.894876 0.44738 0)
(0.894731 0.447297 0)
(0.894633 0.447245 0)
(0.894566 0.447215 0)
(0.894519 0.447198 0)
(0.894486 0.44719 0)
(0.894463 0.447188 0)
(0.894445 0.447188 0)
(0.894433 0.44719 0)
(0.894423 0.447192 0)
(0.894417 0.447194 0)
(0.894412 0.447195 0)
(0.894408 0.447197 0)
(0.894405 0.447198 0)
(0.894404 0.447198 0)
(0.894402 0.447199 0)
(0.894402 0.447199 0)
(0.894401 0.4472 0)
(0.894401 0.4472 0)
(0.8944 0.4472 0)
(0.8944 0.4472 0)
(0.8944 0.4472 0)
(0.8944 0.4472 0)
(0.8944 0.4472 0)
(0.8944 0.4472 0)
(0.8944 0.4472 0)
(0.8944 0.4472 0)
(0.8944 0.4472 0)
(0.8944 0.4472 0)
(0.8944 0.4472 0)
(0.8944 0.4472 0)
(0.8944 0.4472 0)
(0.8944 0.4472 0)
(0.8944 0.4472 0)
(0.8944 0.4472 0)
(0.914737 0.412004 0)
(0.921391 0.405366 0)
(0.929487 0.398746 0)
(0.939013 0.39253 0)
(0.94983 0.387132 0)
(0.961668 0.382932 0)
(0.974126 0.380264 0)
(0.986697 0.379347 0)
(0.99882 0.380281 0)
(1.00992 0.383033 0)
(1.01947 0.387435 0)
(1.027 0.393208 0)
(1.03217 0.399991 0)
(1.0348 0.40738 0)
(1.03481 0.414965 0)
(1.03229 0.422369 0)
(1.02744 0.429275 0)
(1.02059 0.435446 0)
(1.01209 0.440737 0)
(1.00235 0.445099 0)
(0.99179 0.448547 0)
(0.980787 0.45115 0)
(0.969716 0.452996 0)
(0.958914 0.454179 0)
(0.94867 0.45479 0)
(0.939218 0.454927 0)
(0.930726 0.454683 0)
(0.923295 0.454154 0)
(0.916954 0.453431 0)
(0.911678 0.4526 0)
(0.907396 0.451735 0)
(0.904002 0.450894 0)
(0.901376 0.450121 0)
(0.899388 0.449442 0)
(0.897917 0.448869 0)
(0.896851 0.448403 0)
(0.896093 0.448038 0)
(0.895563 0.447762 0)
(0.895198 0.44756 0)
(0.894949 0.447418 0)
(0.894781 0.447322 0)
(0.894667 0.447261 0)
(0.89459 0.447223 0)
(0.894536 0.447202 0)
(0.894498 0.447191 0)
(0.894472 0.447187 0)
(0.894452 0.447187 0)
(0.894438 0.447188 0)
(0.894428 0.44719 0)
(0.89442 0.447192 0)
(0.894414 0.447194 0)
(0.89441 0.447196 0)
(0.894407 0.447197 0)
(0.894405 0.447198 0)
(0.894403 0.447199 0)
(0.894402 0.447199 0)
(0.894401 0.447199 0)
(0.894401 0.4472 0)
(0.894401 0.4472 0)
(0.8944 0.4472 0)
(0.8944 0.4472 0)
(0.8944 0.4472 0)
(0.8944 0.4472 0)
(0.8944 0.4472 0)
(0.8944 0.4472 0)
(0.8944 0.4472 0)
(0.8944 0.4472 0)
(0.8944 0.4472 0)
(0.8944 0.4472 0)
(0.8944 0.4472 0)
(0.8944 0.4472 0)
(0.8944 0.4472 0)
(0.8944 0.4472 0)
(0.8944 0.4472 0)
(0.8944 0.4472 0)
(0.910763 0.419605 0)
(0.916003 0.414254 0)
(0.922354 0.408842 0)
(0.929822 0.403667 0)
(0.938308 0.399052 0)
(0.94761 0.395319 0)
(0.957428 0.392732 0)
(0.967383 0.391497 0)
(0.977027 0.391725 0)
(0.985907 0.393407 0)
(0.993594 0.396439 0)
(0.999714 0.400631 0)
(1.00398 0.405717 0)
(1.00622 0.411392 0)
(1.00636 0.417338 0)
(1.00448 0.42326 0)
(1.00071 0.428901 0)
(0.995292 0.434066 0)
(0.988524 0.438623 0)
(0.980723 0.442505 0)
(0.972225 0.445698 0)
(0.963359 0.448218 0)
(0.954433 0.450105 0)
(0.945728 0.451415 0)
(0.937489 0.452214 0)
(0.929905 0.452575 0)
(0.92311 0.452577 0)
(0.917182 0.452304 0)
(0.91214 0.451839 0)
(0.907959 0.451258 0)
(0.904575 0.450627 0)
(0.901902 0.45 0)
(0.899839 0.449415 0)
(0.898284 0.448898 0)
(0.897135 0.448459 0)
(0.896305 0.448102 0)
(0.895717 0.447822 0)
(0.895306 0.447612 0)
(0.895024 0.447458 0)
(0.894831 0.447351 0)
(0.894701 0.447279 0)
(0.894612 0.447234 0)
(0.894552 0.447207 0)
(0.89451 0.447193 0)
(0.89448 0.447187 0)
(0.894459 0.447185 0)
(0.894443 0.447186 0)
(0.894432 0.447188 0)
(0.894423 0.44719 0)
(0.894416 0.447192 0)
(0.894412 0.447194 0)
(0.894408 0.447196 0)
(0.894406 0.447197 0)
(0.894404 0.447198 0)
(0.894402 0.447199 0)
(0.894402 0.447199 0)
(0.894401 0.447199 0)
(0.894401 0.4472 0)
(0.8944 0.4472 0)
(0.8944 0.4472 0)
(0.8944 0.4472 0)
(0.8944 0.4472 0)
(0.8944 0.4472 0)
(0.8944 0.4472 0)
(0.8944 0.4472 0)
(0.8944 0.4472 0)
(0.8944 0.4472 0)
(0.8944 0.4472 0)
(0.8944 0.4472 0)
(0.8944 0.4472 0)
(0.8944 0.4472 0)
(0.8944 0.4472 0)
(0.8944 0.4472 0)
(0.8944 0.4472 0)
(0.8944 0.4472 0)
(0.907437 0.425837 0)
(0.911544 0.421595 0)
(0.916498 0.417261 0)
(0.922306 0.413047 0)
(0.928903 0.409209 0)
(0.93614 0.405998 0)
(0.943791 0.403641 0)
(0.95157 0.402303 0)
(0.959143 0.402092 0)
(0.966148 0.403037 0)
(0.972244 0.405078 0)
(0.977131 0.408076 0)
(0.980579 0.411844 0)
(0.982438 0.416161 0)
(0.982648 0.420784 0)
(0.981235 0.42548 0)
(0.978318 0.430043 0)
(0.974077 0.434308 0)
(0.968737 0.43816 0)
(0.962554 0.44152 0)
(0.955796 0.444353 0)
(0.948734 0.446648 0)
(0.941628 0.448419 0)
(0.934709 0.449695 0)
(0.928171 0.450525 0)
(0.922166 0.450965 0)
(0.916802 0.451086 0)
(0.912135 0.450961 0)
(0.908178 0.450659 0)
(0.904906 0.450248 0)
(0.902266 0.449785 0)
(0.900186 0.449316 0)
(0.898587 0.448873 0)
(0.897385 0.448478 0)
(0.8965 0.448143 0)
(0.895862 0.44787 0)
(0.895411 0.447657 0)
(0.895097 0.447496 0)
(0.894881 0.44738 0)
(0.894735 0.447301 0)
(0.894635 0.447248 0)
(0.894567 0.447215 0)
(0.894521 0.447197 0)
(0.894488 0.447188 0)
(0.894465 0.447185 0)
(0.894448 0.447184 0)
(0.894435 0.447186 0)
(0.894426 0.447189 0)
(0.894419 0.447191 0)
(0.894413 0.447193 0)
(0.89441 0.447195 0)
(0.894407 0.447196 0)
(0.894405 0.447197 0)
(0.894403 0.447198 0)
(0.894402 0.447199 0)
(0.894401 0.447199 0)
(0.894401 0.4472 0)
(0.894401 0.4472 0)
(0.8944 0.4472 0)
(0.8944 0.4472 0)
(0.8944 0.4472 0)
(0.8944 0.4472 0)
(0.8944 0.4472 0)
(0.8944 0.4472 0)
(0.8944 0.4472 0)
(0.8944 0.4472 0)