/*--------------------------------*- C++ -*----------------------------------*\
  =========                 |
  \\      /  F ield         | OpenFOAM: The Open Source CFD Toolbox
   \\    /   O peration     | Website:  https://openfoam.org
    \\  /    A nd           | Version:  6
     \\/     M anipulation  |
\*---------------------------------------------------------------------------*/
FoamFile
{
    version     2.0;
    format      ascii;
    class       volScalarField;
    location    "4.5";
    object      p;
}
// * * * * * * * * * * * * * * * * * * * * * * * * * * * * * * * * * * * * * //

dimensions      [1 -1 -2 0 0 0 0];

internalField   nonuniform List<scalar> 
22500
(
0.999999
0.999999
0.999999
0.999999
0.999999
1
1
1
1
1
1
1
1
1
1
1
1
1
1
1
1
1
1
1
1
1
1
1
1
1
1
1
1
1
1
1
1
1
1
1
1
1
1
1
1
1
1
1
1
1
1
1
1
1
1
1
1
1
1
1
1
1
1
1
1
1.00001
1.00001
1.00001
1.00001
1.00001
1.00001
1.00001
1.00001
1.00001
1.00001
1.00001
1.00002
1.00003
1.00005
1.00008
1.00013
1.0002
1.00029
1.00041
1.00056
1.00075
1.00098
1.00125
1.00155
1.0019
1.00228
1.0027
1.00314
1.0036
1.00406
1.00453
1.00499
1.00542
1.00583
1.0062
1.00652
1.00679
1.00699
1.00713
1.00721
1.00721
1.00714
1.00701
1.00681
1.00655
1.00624
1.00588
1.00548
1.00506
1.00462
1.00417
1.00372
1.00328
1.00286
1.00247
1.00211
1.00177
1.00148
1.00122
1.00099
1.0008
1.00063
1.0005
1.00039
1.0003
1.00022
1.00017
1.00012
1.00009
1.00006
1.00004
1.00003
1.00001
1.00001
1
0.999999
0.999997
0.999996
0.999996
0.999996
0.999996
0.999997
0.999997
0.999998
0.999998
0.999998
0.999999
0.999999
0.999999
0.999999
1
1
1
1
1
1
1
1
1
1
1
1
1
1
1
1
1
1
1
1
1
1
1
1
1
1
1
1
1
1
1
1
1
1
1
1
1
1
1
1
1
0.999999
1
1
1
1
1
1
1
1
1
1
1
1
1
1
1
1
1.00001
1.00001
1.00001
1.00001
1.00001
1.00001
1.00001
1.00001
1.00001
1.00001
1.00001
1.00002
1.00002
1.00004
1.00006
1.0001
1.00015
1.00023
1.00033
1.00046
1.00064
1.00086
1.00112
1.00144
1.00181
1.00223
1.0027
1.00321
1.00376
1.00434
1.00494
1.00555
1.00616
1.00674
1.0073
1.00781
1.00828
1.00868
1.00901
1.00927
1.00944
1.00953
1.00953
1.00945
1.00928
1.00903
1.0087
1.0083
1.00784
1.00733
1.00678
1.00621
1.00562
1.00503
1.00445
1.00389
1.00336
1.00287
1.00242
1.00202
1.00166
1.00135
1.00109
1.00086
1.00068
1.00053
1.0004
1.0003
1.00022
1.00016
1.00012
1.00008
1.00005
1.00003
1.00002
1.00001
1
0.999998
0.999996
0.999995
0.999995
0.999995
0.999995
0.999996
0.999996
0.999997
0.999998
0.999998
0.999998
0.999999
0.999999
0.999999
0.999999
1
1
1
1
1
1
1
1
1
1
1
1
1
1
1
1
1
1
1
1
1
1
1
1
1
1
1
1
1
1
1
1
1
1
1
1
1
1
1
1
1
0.999999
1
1
1
1
1
1
1
1
1
1
1
1
1
1
1.00001
1.00001
1.00001
1.00001
1.00001
1.00001
1.00001
1.00001
1.00002
1.00002
1.00002
1.00002
1.00003
1.00005
1.00007
1.00011
1.00017
1.00025
1.00036
1.00051
1.0007
1.00095
1.00126
1.00162
1.00206
1.00256
1.00312
1.00375
1.00443
1.00515
1.0059
1.00667
1.00745
1.00821
1.00895
1.00964
1.01028
1.01085
1.01134
1.01175
1.01206
1.01227
1.01238
1.01238
1.01227
1.01206
1.01175
1.01135
1.01086
1.01029
1.00965
1.00896
1.00823
1.00747
1.00671
1.00595
1.00522
1.00453
1.00388
1.00328
1.00274
1.00226
1.00184
1.00148
1.00118
1.00092
1.00071
1.00054
1.00041
1.0003
1.00022
1.00015
1.00011
1.00007
1.00004
1.00003
1.00001
1
0.999998
0.999995
0.999993
0.999993
0.999993
0.999994
0.999994
0.999995
0.999996
0.999997
0.999997
0.999998
0.999998
0.999999
0.999999
0.999999
0.999999
1
1
1
1
1
1
1
1
1
1
1
1
1
1
1
1
1
1
1
1
1
1
1
1
1
1
1
1
1
1
1
1
1
1
1
1
1
0.999999
1
1
1
1
1
1
1
1
1
1
1
1
1
1
1
1
1.00001
1.00001
1.00001
1.00001
1.00001
1.00001
1.00002
1.00002
1.00002
1.00002
1.00002
1.00003
1.00004
1.00005
1.00008
1.00012
1.00018
1.00026
1.00038
1.00055
1.00076
1.00104
1.00138
1.0018
1.0023
1.00288
1.00355
1.00429
1.00511
1.00599
1.00691
1.00787
1.00884
1.00981
1.01075
1.01165
1.01249
1.01326
1.01394
1.01452
1.015
1.01537
1.01561
1.01574
1.01574
1.01562
1.01537
1.01501
1.01453
1.01394
1.01326
1.01248
1.01164
1.01073
1.00979
1.00883
1.00787
1.00693
1.00603
1.00518
1.0044
1.00368
1.00305
1.00249
1.00201
1.0016
1.00125
1.00097
1.00074
1.00055
1.00041
1.0003
1.00021
1.00014
1.0001
1.00006
1.00004
1.00002
1.00001
0.999998
0.999994
0.999992
0.999991
0.999991
0.999992
0.999993
0.999994
0.999995
0.999996
0.999996
0.999997
0.999998
0.999998
0.999999
0.999999
0.999999
1
1
1
1
1
1
1
1
1
1
1
1
1
1
1
1
1
1
1
1
1
1
1
1
1
1
1
1
1
1
1
1
1
1
1
1
1
1
1
1
1
1
1
1
1
1
1
1
1
1
1
1
1
1.00001
1.00001
1.00001
1.00001
1.00001
1.00002
1.00002
1.00002
1.00002
1.00003
1.00003
1.00004
1.00005
1.00006
1.00009
1.00013
1.00019
1.00028
1.0004
1.00057
1.00081
1.00111
1.00149
1.00195
1.00252
1.00319
1.00396
1.00483
1.0058
1.00685
1.00796
1.00912
1.0103
1.01149
1.01266
1.01379
1.01485
1.01584
1.01673
1.01751
1.01818
1.01872
1.01914
1.01942
1.01956
1.01956
1.01943
1.01916
1.01875
1.0182
1.01753
1.01674
1.01584
1.01484
1.01376
1.01263
1.01145
1.01026
1.00908
1.00794
1.00686
1.00584
1.00491
1.00408
1.00334
1.0027
1.00215
1.00169
1.00131
1.001
1.00075
1.00056
1.0004
1.00029
1.0002
1.00013
1.00008
1.00005
1.00003
1.00001
0.999999
0.999993
0.99999
0.999989
0.999989
0.99999
0.999991
0.999992
0.999994
0.999995
0.999995
0.999996
0.999997
0.999998
0.999998
0.999999
0.999999
0.999999
1
1
1
1
1
1
1
1
1
1
1
1
1
1
1
1
1
1
1
1
1
1
1
1
1
1
1
1
1
1
1
1
1
1
1
1
1
1
1
1
1
1
1
1
1
1
1
1
1
1
1
1.00001
1.00001
1.00001
1.00001
1.00001
1.00002
1.00002
1.00002
1.00003
1.00003
1.00003
1.00004
1.00005
1.00007
1.00009
1.00013
1.00019
1.00028
1.00041
1.00059
1.00084
1.00116
1.00157
1.00209
1.00272
1.00347
1.00435
1.00535
1.00647
1.0077
1.00901
1.01039
1.0118
1.01323
1.01464
1.01601
1.01731
1.01852
1.01963
1.02062
1.02148
1.02221
1.02279
1.02324
1.02353
1.02369
1.02369
1.02356
1.02327
1.02284
1.02226
1.02153
1.02067
1.01966
1.01854
1.0173
1.01597
1.01458
1.01316
1.01172
1.01031
1.00895
1.00767
1.00648
1.0054
1.00444
1.0036
1.00288
1.00227
1.00177
1.00135
1.00102
1.00075
1.00055
1.00039
1.00027
1.00018
1.00012
1.00007
1.00004
1.00002
1
0.999993
0.999989
0.999987
0.999987
0.999987
0.999989
0.99999
0.999992
0.999994
0.999994
0.999995
0.999996
0.999997
0.999998
0.999998
0.999999
0.999999
1
0.999999
1
1
1
1
1
1
1
1
1
1
1
1
1
1
1
1
1
1
1
1
1
1
1
1
1
1
1
1
1
1
1
1
1
1
1
1
1
1
1
1
1
1
1
1
1
1
1
1
1
1.00001
1.00001
1.00001
1.00001
1.00002
1.00002
1.00002
1.00003
1.00003
1.00004
1.00005
1.00006
1.00007
1.0001
1.00014
1.0002
1.00029
1.00042
1.0006
1.00085
1.00119
1.00163
1.00218
1.00287
1.00371
1.00469
1.00582
1.0071
1.00851
1.01003
1.01163
1.01329
1.01497
1.01663
1.01825
1.01979
1.02123
1.02254
1.02373
1.02477
1.02565
1.02639
1.02698
1.02742
1.02772
1.02787
1.02788
1.02775
1.02748
1.02705
1.02648
1.02575
1.02486
1.02381
1.02261
1.02126
1.01979
1.01821
1.01656
1.01486
1.01317
1.01151
1.00993
1.00844
1.00708
1.00585
1.00477
1.00383
1.00303
1.00236
1.00181
1.00137
1.00102
1.00074
1.00053
1.00037
1.00025
1.00016
1.0001
1.00005
1.00003
1.00001
0.999994
0.999988
0.999985
0.999984
0.999985
0.999986
0.999988
0.99999
0.999992
0.999992
0.999994
0.999995
0.999996
0.999997
0.999998
0.999999
0.999999
0.999999
1
1
1
1
1
1
1
1
1
1
1
1
1
1
1
1
1
1
1
1
1
1
1
1
1
1
1
1
1
1
1
1
1
1
1
1
1
1
1
1
1
1
1
1
1
1
1
1
1
1.00001
1.00001
1.00001
1.00001
1.00002
1.00002
1.00003
1.00003
1.00004
1.00004
1.00005
1.00006
1.00008
1.0001
1.00014
1.0002
1.00028
1.00041
1.0006
1.00085
1.0012
1.00166
1.00225
1.00299
1.00389
1.00497
1.00624
1.00767
1.00926
1.011
1.01283
1.01474
1.01667
1.01859
1.02045
1.02221
1.02386
1.02536
1.0267
1.02788
1.02889
1.02973
1.03042
1.03095
1.03135
1.03161
1.03175
1.03176
1.03165
1.03141
1.03104
1.03053
1.02986
1.02903
1.02802
1.02684
1.02546
1.02392
1.02222
1.0204
1.01849
1.01653
1.01457
1.01266
1.01084
1.00915
1.00761
1.00624
1.00503
1.004
1.00314
1.00242
1.00184
1.00137
1.001
1.00072
1.0005
1.00034
1.00022
1.00014
1.00008
1.00004
1.00001
0.999997
0.999987
0.999983
0.999981
0.999982
0.999983
0.999985
0.999988
0.99999
0.99999
0.999992
0.999994
0.999996
0.999997
0.999998
0.999998
0.999999
0.999999
0.999999
1
1
1
1
1
1
1
1
1
1
1
1
1
1
1
1
1
1
1
1
1
1
1
1
1
1
1
1
1
1
1
1
1
1
1
1
1
1
1
1
1
1
1
1
1
1
1
1.00001
1.00001
1.00001
1.00001
1.00002
1.00002
1.00003
1.00003
1.00004
1.00004
1.00005
1.00006
1.00008
1.0001
1.00014
1.00019
1.00028
1.0004
1.00058
1.00084
1.00119
1.00166
1.00227
1.00305
1.00402
1.00519
1.00657
1.00815
1.00993
1.01187
1.01395
1.0161
1.01828
1.02045
1.02254
1.02451
1.02634
1.02798
1.02943
1.03069
1.03175
1.03262
1.03332
1.03387
1.03429
1.03458
1.03478
1.03487
1.03489
1.03481
1.03465
1.03438
1.03399
1.03347
1.0328
1.03194
1.03089
1.02962
1.02813
1.02643
1.02454
1.02248
1.02032
1.01809
1.01587
1.01371
1.01167
1.00977
1.00806
1.00655
1.00524
1.00412
1.0032
1.00244
1.00183
1.00134
1.00097
1.00068
1.00047
1.00031
1.0002
1.00012
1.00006
1.00003
1
0.999988
0.999981
0.999979
0.999979
0.99998
0.999982
0.999985
0.999988
0.999988
0.999991
0.999993
0.999995
0.999996
0.999997
0.999998
0.999998
0.999999
0.999999
1
1
1
1
1
1
1
1
1
1
1
1
1
1
1
1
1
1
1
1
1
1
1
1
1
1
1
1
1
1
1
1
1
1
1
1
1
1
1
1
1
1
1
1
1
1
1
1.00001
1.00001
1.00001
1.00002
1.00002
1.00003
1.00003
1.00004
1.00005
1.00006
1.00007
1.00008
1.0001
1.00014
1.00019
1.00027
1.00039
1.00056
1.00081
1.00116
1.00163
1.00226
1.00306
1.00408
1.00533
1.00681
1.00854
1.01049
1.01264
1.01494
1.01734
1.01977
1.02217
1.02448
1.02663
1.02859
1.03033
1.03183
1.03308
1.03411
1.03492
1.03554
1.03599
1.03632
1.03654
1.03668
1.03676
1.0368
1.0368
1.03677
1.03671
1.03659
1.0364
1.03611
1.0357
1.03512
1.03435
1.03334
1.03207
1.03053
1.02872
1.02667
1.02441
1.022
1.01952
1.01704
1.01464
1.01237
1.01028
1.00841
1.00677
1.00537
1.00418
1.00321
1.00242
1.00179
1.0013
1.00092
1.00064
1.00043
1.00028
1.00017
1.00009
1.00004
1.00001
0.999992
0.999981
0.999976
0.999975
0.999977
0.999979
0.999982
0.999985
0.999986
0.999989
0.999991
0.999993
0.999995
0.999996
0.999997
0.999998
0.999999
0.999999
0.999999
1
1
1
1
1
1
1
1
1
1
1
1
1
1
1
1
1
1
1
1
1
1
1
1
1
1
1
1
1
1
1
1
1
1
1
1
1
1
1
1
1
1
1
1
1
1.00001
1.00001
1.00001
1.00002
1.00002
1.00002
1.00003
1.00004
1.00005
1.00006
1.00007
1.00008
1.0001
1.00014
1.00018
1.00026
1.00037
1.00053
1.00077
1.00111
1.00158
1.0022
1.00302
1.00407
1.00538
1.00695
1.0088
1.01091
1.01326
1.01579
1.01842
1.0211
1.02372
1.02622
1.02852
1.03058
1.03235
1.03383
1.035
1.0359
1.03654
1.03697
1.03722
1.03733
1.03735
1.03732
1.03725
1.03719
1.03715
1.03713
1.03715
1.0372
1.03726
1.03732
1.03733
1.03728
1.0371
1.03674
1.03616
1.0353
1.03412
1.0326
1.03074
1.02856
1.02612
1.02349
1.02077
1.01804
1.01541
1.01293
1.01067
1.00865
1.0069
1.00541
1.00418
1.00317
1.00236
1.00172
1.00123
1.00086
1.00058
1.00038
1.00024
1.00014
1.00007
1.00002
0.999998
0.999982
0.999975
0.999972
0.999973
0.999976
0.999979
0.999982
0.999983
0.999987
0.999989
0.999992
0.999994
0.999996
0.999997
0.999998
0.999998
0.999999
0.999999
1
1
1
1
1
1
1
1
1
1
1
1
1
1
1
1
1
1
1
1
1
1
1
1
1
1
1
1
1
1
1
1
1
1
1
1
1
1
1
1
1
1
1
1
1.00001
1.00001
1.00001
1.00001
1.00002
1.00002
1.00003
1.00004
1.00005
1.00006
1.00007
1.00008
1.0001
1.00013
1.00018
1.00024
1.00035
1.0005
1.00072
1.00104
1.0015
1.00211
1.00293
1.004
1.00534
1.00698
1.00893
1.01119
1.01372
1.01646
1.01933
1.02223
1.02507
1.02774
1.03016
1.03227
1.03402
1.0354
1.03642
1.0371
1.03748
1.0376
1.03754
1.03733
1.03703
1.03669
1.03636
1.03606
1.03583
1.03569
1.03565
1.03572
1.03588
1.03614
1.03646
1.03683
1.03718
1.03748
1.03765
1.03764
1.03736
1.03675
1.03575
1.03431
1.03245
1.03018
1.02759
1.02475
1.0218
1.01885
1.01599
1.01332
1.0109
1.00877
1.00693
1.00538
1.00411
1.00308
1.00226
1.00163
1.00115
1.00079
1.00052
1.00033
1.0002
1.00011
1.00005
1.00001
0.999986
0.999975
0.99997
0.99997
0.999972
0.999975
0.999979
0.99998
0.999984
0.999987
0.99999
0.999993
0.999995
0.999996
0.999997
0.999998
0.999999
0.999999
1
0.999999
1
1
1
1
1
1
1
1
1
1
1
1
1
1
1
1
1
1
1
1
1
1
1
1
1
1
1
1
1
1
1
1
1
1
1
1
1
1
1
1
1
1
1.00001
1.00001
1.00001
1.00002
1.00002
1.00003
1.00004
1.00004
1.00005
1.00007
1.00008
1.0001
1.00013
1.00017
1.00023
1.00032
1.00046
1.00067
1.00097
1.0014
1.00199
1.0028
1.00386
1.00521
1.0069
1.00893
1.01131
1.014
1.01694
1.02002
1.02315
1.02618
1.02901
1.03153
1.03366
1.03534
1.03657
1.03736
1.03774
1.03777
1.03752
1.03704
1.03642
1.0357
1.03497
1.03425
1.03361
1.03308
1.03268
1.03244
1.03236
1.03246
1.03274
1.03318
1.03377
1.03447
1.03525
1.03605
1.03681
1.03745
1.03788
1.038
1.03772
1.03696
1.03567
1.03384
1.03152
1.02879
1.02577
1.0226
1.01943
1.01638
1.01354
1.01099
1.00876
1.00685
1.00527
1.00398
1.00294
1.00214
1.00152
1.00105
1.0007
1.00045
1.00028
1.00016
1.00008
1.00002
0.999993
0.999976
0.999969
0.999967
0.999968
0.999971
0.999976
0.999976
0.999981
0.999985
0.999988
0.999991
0.999994
0.999995
0.999997
0.999997
0.999998
0.999999
0.999999
0.999999
1
1
1
1
1
1
1
1
1
1
1
1
1
1
1
1
1
1
1
1
1
1
1
1
1
1
1
1
1
1
1
1
1
1
1
1
1
1
1
1
1
1.00001
1.00001
1.00001
1.00001
1.00002
1.00003
1.00003
1.00004
1.00005
1.00007
1.00008
1.0001
1.00012
1.00016
1.00022
1.0003
1.00042
1.00061
1.00088
1.00128
1.00185
1.00262
1.00366
1.005
1.00671
1.00879
1.01126
1.01409
1.0172
1.0205
1.02383
1.02707
1.03004
1.03264
1.03475
1.03634
1.03737
1.03788
1.03791
1.03754
1.03683
1.03589
1.03478
1.03359
1.03239
1.03123
1.03017
1.02924
1.02849
1.02794
1.0276
1.02749
1.02762
1.02798
1.02857
1.02938
1.03038
1.03154
1.03281
1.03414
1.03544
1.03662
1.03757
1.03816
1.03828
1.03782
1.0367
1.03494
1.03257
1.02971
1.02651
1.02314
1.01978
1.01655
1.01358
1.01092
1.00862
1.00668
1.00508
1.00379
1.00277
1.00198
1.00138
1.00094
1.00062
1.00039
1.00023
1.00012
1.00005
1.00001
0.999981
0.999969
0.999964
0.999965
0.999967
0.999972
0.999973
0.999978
0.999982
0.999986
0.99999
0.999992
0.999994
0.999996
0.999997
0.999998
0.999998
0.999999
0.999999
1
1
1
1
1
1
1
1
1
1
1
1
1
1
1
1
1
1
1
1
1
1
1
1
1
1
1
1
1
1
1
1
1
1
1
1
1
1
1
1
1
1.00001
1.00001
1.00001
1.00002
1.00002
1.00003
1.00004
1.00005
1.00006
1.00008
1.0001
1.00012
1.00015
1.0002
1.00027
1.00038
1.00055
1.0008
1.00116
1.00169
1.00242
1.00341
1.00472
1.00641
1.00851
1.01104
1.01398
1.01725
1.02073
1.02428
1.0277
1.03082
1.03349
1.03559
1.03705
1.03787
1.03807
1.03771
1.03689
1.03571
1.03426
1.03264
1.03094
1.02925
1.02761
1.02609
1.02474
1.02359
1.02267
1.02199
1.02157
1.02143
1.02157
1.02199
1.02269
1.02366
1.02489
1.02635
1.02801
1.02982
1.03171
1.03359
1.03536
1.03688
1.03798
1.03852
1.03837
1.03745
1.03575
1.03333
1.03035
1.02698
1.02342
1.01988
1.01651
1.01343
1.0107
1.00837
1.00641
1.00482
1.00355
1.00256
1.00181
1.00124
1.00083
1.00053
1.00032
1.00018
1.00008
1.00002
0.999989
0.999971
0.999963
0.999961
0.999964
0.999968
0.999969
0.999974
0.99998
0.999984
0.999988
0.999991
0.999993
0.999995
0.999996
0.999998
0.999998
0.999999
0.999999
0.999999
1
1
1
1
1
1
1
1
1
1
1
1
1
1
1
1
1
0.999999
1
1
1
1
1
1
1
1
1
1
1
1
1
1
1
1
1
1
1
1
1
1.00001
1.00001
1.00001
1.00001
1.00002
1.00003
1.00004
1.00005
1.00006
1.00007
1.00009
1.00011
1.00014
1.00019
1.00025
1.00034
1.00049
1.00071
1.00104
1.00151
1.00219
1.00312
1.00438
1.00603
1.00811
1.01066
1.01367
1.01706
1.02072
1.02446
1.02808
1.03135
1.03411
1.03619
1.03754
1.03813
1.03801
1.03726
1.03599
1.03432
1.03236
1.03023
1.02802
1.02583
1.02372
1.02175
1.01997
1.01841
1.01709
1.01605
1.01529
1.01482
1.01465
1.01479
1.01524
1.016
1.01707
1.01845
1.02011
1.02204
1.0242
1.02655
1.02902
1.0315
1.03387
1.03596
1.03759
1.03856
1.03872
1.03797
1.03631
1.03383
1.0307
1.02716
1.02343
1.01974
1.01626
1.0131
1.01034
1.008
1.00606
1.00451
1.00328
1.00233
1.00162
1.00109
1.00071
1.00044
1.00025
1.00013
1.00005
1
0.999976
0.999963
0.999959
0.99996
0.999964
0.999965
0.999971
0.999977
0.999982
0.999986
0.999989
0.999992
0.999994
0.999996
0.999997
0.999998
0.999999
0.999999
0.999999
1
1
1
1
1
1
1
1
1
1
1
1
1
1
1
1
1
1
1
1
1
1
1
1
1
1
1
1
1
1
1
1
1
1
1
1
1
1
1
1.00001
1.00001
1.00001
1.00002
1.00002
1.00003
1.00004
1.00005
1.00007
1.00008
1.00011
1.00013
1.00017
1.00023
1.00031
1.00043
1.00062
1.00091
1.00134
1.00195
1.00281
1.004
1.00557
1.0076
1.01013
1.01317
1.01665
1.02046
1.02439
1.0282
1.03165
1.0345
1.0366
1.03785
1.03823
1.03781
1.03668
1.03497
1.03282
1.03037
1.02774
1.02505
1.02239
1.01983
1.01743
1.01524
1.01329
1.01161
1.0102
1.00909
1.00828
1.00778
1.00759
1.00773
1.00818
1.00897
1.01008
1.01152
1.01329
1.01537
1.01776
1.02041
1.02328
1.02631
1.02938
1.03234
1.035
1.03713
1.03849
1.03892
1.03829
1.03663
1.03405
1.03078
1.02706
1.02318
1.01936
1.0158
1.01261
1.00985
1.00753
1.00565
1.00414
1.00297
1.00208
1.00142
1.00094
1.00059
1.00035
1.00019
1.00009
1.00002
0.999985
0.999965
0.999958
0.999957
0.99996
0.999961
0.999967
0.999973
0.999979
0.999984
0.999988
0.999991
0.999993
0.999995
0.999997
0.999998
0.999998
0.999999
0.999999
1
1
1
1
1
1
1
1
1
1
1
1
1
1
1
1
1
1
1
1
1
1
1
1
1
1
1
1
1
1
1
1
1
1
1
1
1
1
1
1.00001
1.00001
1.00002
1.00002
1.00003
1.00004
1.00005
1.00006
1.00008
1.0001
1.00012
1.00016
1.00021
1.00028
1.00038
1.00055
1.00079
1.00117
1.00171
1.00249
1.00358
1.00506
1.007
1.00947
1.01249
1.01602
1.01994
1.02404
1.02806
1.0317
1.03469
1.03683
1.03802
1.03824
1.03755
1.03607
1.03395
1.03136
1.02845
1.02536
1.02222
1.01912
1.01615
1.01336
1.01079
1.00849
1.00647
1.00474
1.0033
1.00218
1.00136
1.00085
1.00065
1.00077
1.00121
1.00198
1.00308
1.00453
1.00632
1.00845
1.01093
1.01374
1.01685
1.02022
1.02378
1.02741
1.03094
1.03413
1.03671
1.03841
1.03903
1.03846
1.03674
1.03402
1.03057
1.02668
1.02266
1.01875
1.01515
1.01196
1.00924
1.00699
1.00517
1.00375
1.00265
1.00183
1.00122
1.00079
1.00048
1.00027
1.00014
1.00005
0.999999
0.999971
0.999958
0.999955
0.999956
0.999958
0.999964
0.99997
0.999976
0.999981
0.999986
0.999989
0.999992
0.999994
0.999996
0.999997
0.999998
0.999999
0.999999
0.999999
1
1
1
1
1
1
1
1
1
1
1
1
1
1
1
1
1
1
1
1
1
1
1
1
1
1
1
1
1
1
1
1
1
1
1
1
1
1.00001
1.00001
1.00001
1.00002
1.00002
1.00003
1.00004
1.00006
1.00007
1.00009
1.00011
1.00014
1.00019
1.00025
1.00034
1.00047
1.00069
1.001
1.00148
1.00217
1.00316
1.00451
1.00633
1.00869
1.01164
1.01517
1.01916
1.02342
1.02764
1.0315
1.03467
1.03692
1.03811
1.03821
1.0373
1.03551
1.03303
1.03004
1.02671
1.0232
1.01965
1.01615
1.0128
1.00966
1.00677
1.00415
1.00183
0.999815
0.998106
0.996702
0.995601
0.994799
0.994296
0.994092
0.994191
0.994598
0.995322
0.996376
0.997771
0.999518
1.00163
1.0041
1.00694
1.01013
1.01368
1.01752
1.02159
1.02575
1.0298
1.03346
1.03642
1.03837
1.03909
1.0385
1.03664
1.03373
1.03008
1.02602
1.02189
1.01793
1.01434
1.01119
1.00855
1.00639
1.00467
1.00333
1.00232
1.00157
1.00103
1.00064
1.00038
1.0002
1.00009
1.00002
0.999981
0.999961
0.999954
0.999954
0.999954
0.99996
0.999966
0.999973
0.999979
0.999984
0.999988
0.999991
0.999994
0.999995
0.999997
0.999998
0.999999
0.999999
0.999999
1
1
1
1
1
1
1
1
1
1
1
1
1
1
1
1
1
1
1
1
1
1
1
1
1
1
1
1
1
1
1
1
1
1
1
1
1
1.00001
1.00001
1.00001
1.00002
1.00003
1.00004
1.00005
1.00006
1.00008
1.0001
1.00013
1.00017
1.00022
1.00029
1.00041
1.00059
1.00086
1.00126
1.00187
1.00273
1.00396
1.00563
1.00785
1.01067
1.01414
1.01815
1.02252
1.02694
1.03104
1.03445
1.03686
1.03812
1.03818
1.03712
1.03509
1.0323
1.02896
1.02525
1.02137
1.01744
1.01358
1.00989
1.00643
1.00324
1.00035
0.997776
0.99552
0.993579
0.991946
0.990612
0.989568
0.988805
0.988319
0.98811
0.98818
0.988537
0.989192
0.990162
0.991463
0.993113
0.995129
0.997522
1.0003
1.00348
1.00704
1.01099
1.01528
1.01983
1.02449
1.02901
1.03307
1.03632
1.03841
1.03912
1.03839
1.03632
1.03318
1.02931
1.02511
1.0209
1.01693
1.01338
1.01032
1.00779
1.00574
1.00414
1.00291
1.00199
1.00132
1.00084
1.00051
1.00029
1.00014
1.00005
0.999995
0.999966
0.999954
0.999951
0.999951
0.999957
0.999963
0.99997
0.999976
0.999982
0.999986
0.99999
0.999993
0.999995
0.999996
0.999997
0.999998
0.999999
0.999999
0.999999
1
0.999999
1
1
1
1
1
1
1
1
1
1
1
1
1
1
1
1
1
1
1
1
1
1
1
1
1
1
1
1
1
1
1
1
1
1.00001
1.00001
1.00001
1.00002
1.00002
1.00003
1.00004
1.00006
1.00007
1.00009
1.00012
1.00015
1.00019
1.00026
1.00035
1.0005
1.00072
1.00107
1.00158
1.00233
1.00341
1.00492
1.00695
1.00961
1.01295
1.01692
1.02135
1.02595
1.03031
1.034
1.03666
1.03807
1.03817
1.03704
1.03484
1.03181
1.02817
1.02414
1.01991
1.01564
1.01146
1.00745
1.0037
1.00025
0.997115
0.994321
0.991864
0.989737
0.987925
0.986413
0.985183
0.984219
0.983511
0.98305
0.982833
0.982864
0.983154
0.983715
0.984567
0.985733
0.98724
0.989111
0.991366
0.994021
0.997089
1.00058
1.0045
1.00884
1.01357
1.01858
1.0237
1.02863
1.03301
1.03642
1.03853
1.0391
1.03813
1.03577
1.03235
1.02828
1.02395
1.0197
1.01577
1.01231
1.00938
1.00699
1.00508
1.00361
1.0025
1.00168
1.00109
1.00067
1.00039
1.00021
1.00009
1.00002
0.999976
0.999957
0.999951
0.99995
0.999953
0.99996
0.999967
0.999973
0.999979
0.999984
0.999989
0.999991
0.999994
0.999996
0.999997
0.999998
0.999999
0.999999
0.999999
1
1
1
1
1
1
1
1
1
1
1
1
1
1
1
1
1
1
1
1
1
1
1
1
1
1
1
1
1
1
1
1
1
1
1
1.00001
1.00001
1.00001
1.00002
1.00003
1.00004
1.00005
1.00006
1.00008
1.0001
1.00013
1.00017
1.00023
1.0003
1.00042
1.00061
1.00089
1.00132
1.00196
1.00289
1.00422
1.00605
1.0085
1.01165
1.0155
1.01993
1.02467
1.02928
1.03329
1.03627
1.03793
1.03818
1.03707
1.0348
1.03159
1.02771
1.0234
1.01887
1.01429
1.0098
1.00551
1.00148
0.997784
0.994435
0.99145
0.988828
0.986555
0.984612
0.982976
0.981623
0.980527
0.979666
0.979024
0.978592
0.978365
0.978347
0.978549
0.978989
0.97969
0.980681
0.981995
0.983668
0.985729
0.988201
0.991102
0.994449
0.998254
1.00253
1.00727
1.01242
1.01788
1.02342
1.02869
1.03327
1.03673
1.03869
1.039
1.03767
1.03496
1.03125
1.02699
1.02257
1.01833
1.01449
1.01116
1.0084
1.00617
1.00442
1.00309
1.0021
1.00138
1.00087
1.00052
1.00029
1.00014
1.00004
0.99999
0.999962
0.999951
0.999949
0.999951
0.999957
0.999964
0.999971
0.999977
0.999982
0.999987
0.999991
0.999993
0.999995
0.999997
0.999998
0.999998
0.999999
0.999999
1
1
1
1
1
1
1
1
1
1
1
1
1
1
1
1
1
1
1
1
1
1
1
1
1
1
1
1
1
1
1
1
1
1
1
1.00001
1.00001
1.00002
1.00002
1.00003
1.00004
1.00005
1.00007
1.00009
1.00012
1.00015
1.0002
1.00026
1.00036
1.00051
1.00074
1.00109
1.00162
1.00241
1.00356
1.00517
1.00738
1.01028
1.01394
1.01829
1.0231
1.02795
1.03231
1.03568
1.03769
1.03819
1.03721
1.03495
1.03165
1.0276
1.02306
1.01827
1.01341
1.00863
1.00406
0.999774
0.99584
0.992286
0.989129
0.986367
0.983983
0.981954
0.980249
0.978834
0.977675
0.976741
0.976005
0.975444
0.975047
0.974807
0.974729
0.974825
0.975115
0.97563
0.976403
0.977475
0.978891
0.980694
0.982919
0.985593
0.988735
0.992362
0.996488
1.00113
1.00628
1.01187
1.01776
1.02366
1.02918
1.03384
1.03717
1.03885
1.03875
1.03699
1.03388
1.02988
1.02545
1.021
1.01682
1.01312
1.00997
1.0074
1.00536
1.00378
1.0026
1.00173
1.00111
1.00068
1.00039
1.0002
1.00008
1.00001
0.999971
0.999954
0.99995
0.999949
0.999954
0.999961
0.999968
0.999975
0.99998
0.999986
0.999989
0.999992
0.999995
0.999996
0.999998
0.999998
0.999999
0.999999
0.999999
1
1
1
1
1
1
1
1
1
1
1
1
1
1
1
1
1
0.999999
1
1
1
1
1
1
1
1
1
1
1
1
1
1
1
1.00001
1.00001
1.00001
1.00002
1.00002
1.00003
1.00005
1.00006
1.00008
1.0001
1.00013
1.00017
1.00022
1.0003
1.00042
1.0006
1.00089
1.00133
1.00198
1.00295
1.00434
1.00629
1.00891
1.0123
1.01648
1.02127
1.02629
1.031
1.03482
1.03728
1.03816
1.03743
1.03529
1.03199
1.02784
1.02313
1.01811
1.01298
1.00794
1.00309
0.998555
0.994389
0.990637
0.987317
0.98443
0.981962
0.979883
0.978157
0.97674
0.975591
0.974665
0.973924
0.973335
0.972871
0.972516
0.972264
0.972119
0.972093
0.972209
0.972502
0.973013
0.973789
0.974887
0.976361
0.978264
0.980636
0.983506
0.986891
0.990809
0.995277
1.00031
1.00588
1.01192
1.01821
1.02442
1.03007
1.03465
1.03769
1.03893
1.0383
1.03603
1.03251
1.02825
1.02371
1.01928
1.01522
1.01171
1.00877
1.00641
1.00457
1.00317
1.00214
1.0014
1.00087
1.00051
1.00028
1.00013
1.00004
0.999985
0.999959
0.999952
0.999949
0.999952
0.999958
0.999965
0.999972
0.999979
0.999984
0.999988
0.999991
0.999994
0.999996
0.999997
0.999998
0.999999
0.999999
0.999999
1
1
1
1
1
1
1
1
1
1
1
1
1
1
1
1
1
1
1
1
1
1
1
1
1
1
1
1
1
1
1
1
1
1.00001
1.00001
1.00001
1.00002
1.00003
1.00004
1.00005
1.00007
1.00009
1.00011
1.00015
1.00019
1.00026
1.00035
1.0005
1.00072
1.00107
1.00161
1.00241
1.00358
1.00526
1.00757
1.01065
1.01455
1.01921
1.02432
1.02934
1.03364
1.03665
1.03802
1.03768
1.03578
1.03258
1.02841
1.02359
1.01838
1.01303
1.00772
1.00261
0.997815
0.993411
0.989454
0.985972
0.982968
0.980427
0.978323
0.976614
0.975249
0.974174
0.973336
0.972682
0.972166
0.971748
0.971399
0.971098
0.970837
0.970621
0.970462
0.970385
0.970427
0.970635
0.971066
0.971782
0.972854
0.97435
0.976332
0.978842
0.98191
0.985552
0.989783
0.994621
1.00007
1.0061
1.01258
1.01923
1.02564
1.03127
1.0356
1.03819
1.03882
1.03757
1.03476
1.03085
1.02638
1.02179
1.01745
1.01358
1.01028
1.00759
1.00547
1.00383
1.00261
1.00173
1.0011
1.00066
1.00037
1.00019
1.00007
1
0.999967
0.999957
0.999949
0.99995
0.999956
0.999963
0.99997
0.999977
0.999982
0.999987
0.99999
0.999993
0.999995
0.999997
0.999998
0.999999
0.999999
0.999999
0.999999
1
1
1
1
1
1
1
1
1
1
1
1
1
1
1
1
1
1
1
1
1
1
1
1
1
1
1
1
1
1
1
1
1.00001
1.00001
1.00002
1.00002
1.00003
1.00004
1.00006
1.00007
1.0001
1.00013
1.00016
1.00022
1.00029
1.00041
1.00058
1.00086
1.00129
1.00194
1.00291
1.00432
1.00631
1.00903
1.01259
1.01701
1.02207
1.02732
1.03209
1.03571
1.0377
1.03788
1.03635
1.03338
1.02929
1.02442
1.01908
1.01353
1.00798
1.0026
0.997539
0.992887
0.988713
0.985054
0.981926
0.979317
0.977201
0.975532
0.974257
0.973312
0.97263
0.972147
0.9718
0.971535
0.97131
0.971091
0.970855
0.970592
0.970305
0.97001
0.96973
0.969504
0.969381
0.969424
0.969706
0.970307
0.971313
0.972807
0.974857
0.977508
0.980787
0.984708
0.989286
0.994535
1.00045
1.00694
1.01383
1.02077
1.02725
1.0327
1.03659
1.03854
1.03845
1.03652
1.03317
1.02892
1.0243
1.01974
1.01556
1.01192
1.00889
1.00646
1.00458
1.00315
1.00211
1.00136
1.00084
1.00049
1.00026
1.00011
1.00003
0.999979
0.999964
0.999952
0.99995
0.999954
0.999961
0.999968
0.999975
0.999981
0.999986
0.99999
0.999992
0.999995
0.999996
0.999997
0.999998
0.999999
0.999999
0.999999
1
1
1
1
1
1
1
1
1
1
1
1
1
1
1
1
1
1
1
1
1
1
1
1
1
1
1
1
1
1
1
1.00001
1.00001
1.00001
1.00002
1.00002
1.00003
1.00005
1.00006
1.00008
1.00011
1.00014
1.00018
1.00024
1.00033
1.00047
1.00068
1.00102
1.00154
1.00232
1.00349
1.00516
1.00751
1.01067
1.01473
1.01962
1.02496
1.03014
1.03439
1.0371
1.03795
1.03694
1.03432
1.03042
1.02559
1.02018
1.01446
1.00869
1.00306
0.997722
0.992805
0.988393
0.984538
0.981263
0.978572
0.97644
0.974822
0.973658
0.97288
0.972408
0.972162
0.972065
0.972048
0.972051
0.972026
0.971941
0.971774
0.971514
0.971163
0.970735
0.970256
0.969761
0.9693
0.968938
0.968751
0.968831
0.969279
0.970197
0.97168
0.973804
0.976612
0.980129
0.984367
0.989335
0.995039
1.00144
1.00841
1.01567
1.02278
1.02916
1.03423
1.03747
1.03862
1.03773
1.0351
1.03125
1.02674
1.02206
1.01762
1.01366
1.0103
1.00756
1.00541
1.00376
1.00254
1.00166
1.00104
1.00062
1.00034
1.00016
1.00006
0.999995
0.999974
0.999956
0.999951
0.999953
0.999959
0.999966
0.999973
0.999979
0.999984
0.999989
0.999992
0.999994
0.999996
0.999997
0.999998
0.999999
0.999999
1
1
1
1
1
1
1
1
1
1
1
1
1
1
1
1
1
1
1
1
1
1
1
1
1
1
1
1
1
1
1
1
1.00001
1.00001
1.00001
1.00002
1.00003
1.00004
1.00005
1.00007
1.00009
1.00012
1.00015
1.0002
1.00027
1.00038
1.00055
1.0008
1.00121
1.00183
1.00276
1.00415
1.00612
1.00886
1.01249
1.01704
1.02231
1.02776
1.03261
1.03611
1.03776
1.03744
1.03532
1.03174
1.02706
1.02165
1.01582
1.00986
1.00397
0.99836
0.993162
0.988483
0.984399
0.980951
0.978148
0.975976
0.974398
0.97335
0.972755
0.972524
0.972562
0.972774
0.973071
0.97338
0.973638
0.973799
0.973835
0.973727
0.973469
0.973062
0.972519
0.97186
0.97112
0.970343
0.969589
0.968935
0.968477
0.968325
0.968603
0.969433
0.97092
0.973142
0.976142
0.979939
0.984543
0.989957
0.996162
1.00307
1.01048
1.01802
1.02515
1.03124
1.03569
1.0381
1.03834
1.03659
1.03331
1.02904
1.02436
1.01973
1.01548
1.0118
1.00875
1.00632
1.00444
1.00303
1.00201
1.00128
1.00078
1.00044
1.00023
1.00009
1.00002
0.999988
0.999962
0.999953
0.999952
0.999958
0.999964
0.999971
0.999978
0.999983
0.999987
0.999991
0.999993
0.999996
0.999997
0.999998
0.999999
0.999999
1
0.999999
1
1
1
1
1
1
1
1
1
1
1
1
1
1
1
1
1
1
1
1
1
1
1
1
1
1
1
1
1
1
1.00001
1.00001
1.00001
1.00002
1.00003
1.00004
1.00005
1.00007
1.0001
1.00013
1.00017
1.00022
1.00031
1.00043
1.00063
1.00094
1.00142
1.00216
1.00327
1.0049
1.0072
1.01035
1.01447
1.01947
1.02501
1.03035
1.03464
1.0372
1.03772
1.03628
1.03316
1.02876
1.02344
1.01758
1.01146
1.00535
0.999452
0.993955
0.988984
0.984634
0.980967
0.978009
0.975761
0.974189
0.973236
0.972819
0.972839
0.973183
0.973737
0.974391
0.975048
0.975636
0.976098
0.976396
0.976512
0.976436
0.976171
0.97572
0.975091
0.974298
0.973365
0.972329
0.971239
0.970164
0.969197
0.968453
0.968068
0.96819
0.968957
0.970487
0.972854
0.976098
0.980234
0.985267
0.991185
0.99793
1.00535
1.01314
1.02081
1.02775
1.0333
1.03693
1.03835
1.0376
1.03501
1.03114
1.02657
1.02184
1.01736
1.01338
1.01003
1.00731
1.00518
1.00357
1.00239
1.00155
1.00096
1.00056
1.0003
1.00014
1.00004
1.00001
0.999971
0.999956
0.999953
0.999957
0.999963
0.99997
0.999976
0.999982
0.999986
0.99999
0.999993
0.999995
0.999997
0.999998
0.999998
0.999999
0.999999
1
1
1
1
1
1
1
1
1
1
1
0.999999
1
1
1
1
1
1
1
1
1
1
1
1
1
1
1
1
1
1
1.00001
1.00001
1.00001
1.00001
1.00002
1.00003
1.00004
1.00006
1.00008
1.0001
1.00014
1.00018
1.00025
1.00034
1.00049
1.00073
1.00109
1.00166
1.00254
1.00384
1.00574
1.0084
1.01199
1.01658
1.02197
1.0276
1.03261
1.03614
1.03765
1.03707
1.03459
1.0306
1.02551
1.01968
1.01347
1.00716
1.001
0.995195
0.989903
0.985246
0.98131
0.978142
0.97576
0.974144
0.973243
0.972975
0.973231
0.973879
0.974782
0.975806
0.976829
0.977758
0.978524
0.979089
0.979436
0.979564
0.97948
0.979194
0.978715
0.978046
0.97719
0.976152
0.974954
0.973627
0.972227
0.970834
0.969559
0.968543
0.967952
0.967958
0.968718
0.970351
0.972931
0.976492
0.981044
0.986579
0.993057
1.00036
1.00825
1.01629
1.02391
1.03041
1.03518
1.03778
1.03809
1.03633
1.03299
1.02865
1.02392
1.01927
1.01503
1.01137
1.00837
1.00599
1.00417
1.00282
1.00185
1.00116
1.00069
1.00039
1.00019
1.00007
1.00003
0.999982
0.999962
0.999955
0.999957
0.999962
0.999968
0.999975
0.999981
0.999986
0.99999
0.999993
0.999995
0.999996
0.999998
0.999998
0.999999
0.999999
1
1
1
1
1
1
1
1
1
1
1
1
1
1
1
1
1
1
1
1
1
1
1
1
1
1
1
1
1
1
1.00001
1.00001