/*--------------------------------*- C++ -*----------------------------------*\
  =========                 |
  \\      /  F ield         | OpenFOAM: The Open Source CFD Toolbox
   \\    /   O peration     | Website:  https://openfoam.org
    \\  /    A nd           | Version:  6
     \\/     M anipulation  |
\*---------------------------------------------------------------------------*/
FoamFile
{
    version     2.0;
    format      ascii;
    class       surfaceVectorField;
    location    "1.45";
    object      Uf;
}
// * * * * * * * * * * * * * * * * * * * * * * * * * * * * * * * * * * * * * //

dimensions      [0 1 -1 0 0 0 0];

internalField   nonuniform List<vector> 
1540
(
(3.92449 0.767248 0)
(-10.1986 -0.632884 0)
(6.80009 1.0068 0)
(11.1223 -0.179924 0)
(10.8674 1.78988 0)
(1.03056 -0.254489 0)
(10.1888 1.52723 0)
(6.49065 0.0424616 0)
(11.075 1.60707 0)
(2.13276 -0.0554494 0)
(14.299 1.79424 0)
(7.65776 -0.201726 0)
(13.0805 2.13495 0)
(3.21082 0.0762383 0)
(14.945 2.04951 0)
(9.50532 -0.11666 0)
(14.7321 1.27576 0)
(17.8555 0.0133233 0)
(14.6472 1.31783 0)
(11.4626 0.00531234 0)
(12.6132 2.16517 0)
(19.2552 0.127123 0)
(10.9423 1.31228 0)
(11.0921 0.104428 0)
(13.6721 1.57901 0)
(2.16318 -0.17061 0)
(11.7064 0.89019 0)
(15.1739 0.122854 0)
(16.3815 0.483286 0)
(3.51809 -0.29219 0)
(19.4354 1.13139 0)
(19.3957 -0.190871 0)
(13.8579 0.163463 0)
(12.1799 0.348594 0)
(1.24963 -0.10055 0)
(11.5184 0.788019 0)
(-2.07997 -1.36804 0)
(-1.88826 0.2081 0)
(12.7623 -0.129996 0)
(1.70912 -1.62608 0)
(-6.90145 -0.729887 0)
(7.18013 -1.71219 0)
(7.00141 -0.522241 0)
(-4.40788 -2.16658 0)
(0.00175223 0.470566 0)
(-2.5772 -1.36758 0)
(7.48303 -0.0720807 0)
(-3.44903 -1.96514 0)
(3.05889 -0.00090163 0)
(-0.987803 -2.39078 0)
(7.66847 -0.355724 0)
(-3.03248 -2.41599 0)
(4.70748 0.204172 0)
(11.4486 -1.36639 0)
(8.55953 -1.02273 0)
(17.9191 -0.99538 0)
(22.4449 -0.391532 0)
(14.1801 -1.10318 0)
(2.64202 0.239259 0)
(17.058 -0.711148 0)
(11.8444 -0.0527517 0)
(3.09579 -0.0225331 0)
(7.61049 0.977068 0)
(3.729 -1.00435 0)
(-5.21362 -0.210187 0)
(6.84406 -0.847942 0)
(15.1979 -0.0718373 0)
(9.7118 -0.862107 0)
(-2.48103 -0.471425 0)
(10.0438 -0.498667 0)
(17.0193 -0.211622 0)
(9.33263 1.35835 0)
(8.90258 0.393044 0)
(10.783 0.480067 0)
(8.61316 0.697371 0)
(7.6789 0.99713 0)
(0.369496 0.402108 0)
(12.1417 0.349936 0)
(2.94165 0.549998 0)
(-5.66421 -0.904013 0)
(3.70716 0.839212 0)
(4.33762 -0.570138 0)
(9.43699 1.80207 0)
(-5.60578 0.112054 0)
(13.1706 1.3762 0)
(13.5696 -0.305687 0)
(12.2075 1.64861 0)
(-5.08656 0.0593533 0)
(15.516 2.69314 0)
(15.1015 -0.562733 0)
(14.227 1.96975 0)
(-5.97987 0.284826 0)
(18.9669 0.353928 0)
(15.4222 -1.31931 0)
(10.715 1.08689 0)
(13.8359 0.12479 0)
(-1.84469 0.599754 0)
(4.40696 1.02511 0)
(2.35849 0.357879 0)
(2.25812 -0.315451 0)
(-0.200262 -0.561897 0)
(10.1991 1.13699 0)
(6.45308 0.316103 0)
(1.12081 -0.626022 0)
(5.81641 0.11415 0)
(9.83979 -0.0320456 0)
(7.84462 -0.284249 0)
(-2.35314 -0.598188 0)
(13.508 0.487929 0)
(13.783 -0.565583 0)
(7.77727 0.109593 0)
(9.21732 0.751216 0)
(0.248367 1.39853 0)
(8.10358 1.16793 0)
(-0.497729 0.976323 0)
(3.64181 0.44874 0)
(3.93452 0.31883 0)
(0.0497315 -2.19455 0)
(-2.64833 -0.89719 0)
(-0.44611 -0.63584 0)
(0.913199 -0.539112 0)
(-4.54585 -1.03673 0)
(-1.92336 0.368573 0)
(-4.14653 -1.51391 0)
(6.89013 -0.330671 0)
(-4.7875 -2.01115 0)
(-0.560589 0.0994563 0)
(-3.95566 -2.93447 0)
(7.82882 -0.614781 0)
(-5.94162 -3.77223 0)
(-2.03672 0.409086 0)
(9.92845 -2.79785 0)
(10.5677 -2.31229 0)
(9.89017 -0.36018 0)
(8.42393 0.127184 0)
(7.50823 0.391124 0)
(4.92122 1.17414 0)
(10.1244 0.762873 0)
(0.532283 -0.478963 0)
(11.6152 1.83963 0)
(9.15433 1.04381 0)
(4.43923 -0.952588 0)
(2.82876 -0.177525 0)
(1.99614 -1.22896 0)
(11.8442 0.120648 0)
(6.41514 -0.556344 0)
(-1.56138 -0.874376 0)
(7.27093 -0.232061 0)
(10.7748 -0.619068 0)
(8.98952 0.638665 0)
(9.68373 0.643804 0)
(12.8891 -0.634547 0)
(9.65794 0.924204 0)
(3.40833 -0.99098 0)
(9.40815 1.04129 0)
(-0.059815 0.531852 0)
(2.46209 0.773028 0)
(-3.3047 -1.04131 0)
(3.91797 0.357658 0)
(-1.08375 -0.630206 0)
(6.27917 0.339474 0)
(-4.18249 0.220835 0)
(11.3431 0.906005 0)
(9.46068 -0.647518 0)
(9.12724 1.16998 0)
(-4.95889 0.238101 0)
(12.5314 2.39717 0)
(9.28164 -0.827774 0)
(13.3274 2.54467 0)
(-6.37506 0.35928 0)
(9.37461 1.12131 0)
(9.21481 -2.06497 0)
(4.73293 1.40196 0)
(-7.78945 0.417611 0)
(-2.52855 0.283643 0)
(2.95757 1.62849 0)
(-0.292182 -0.0560561 0)
(0.230111 -0.618737 0)
(0.690497 -0.773056 0)
(9.41699 0.982396 0)
(9.91787 1.07429 0)
(3.20122 -0.754237 0)
(8.77933 0.922055 0)
(3.73354 0.191807 0)
(5.71828 -0.899054 0)
(1.00433 -0.683061 0)
(10.7712 0.242985 0)
(9.03695 -0.934874 0)
(10.013 2.03599 0)
(6.27175 0.691189 0)
(7.32629 2.86514 0)
(0.0560211 1.09213 0)
(1.89657 2.5187 0)
(8.94549 1.38065 0)
(1.65759 0.650389 0)
(-2.65055 -2.0711 0)
(-2.07331 -0.865534 0)
(-4.98232 -0.227042 0)
(-4.02515 -0.484307 0)
(-3.92031 -0.106122 0)
(2.62987 0.154386 0)
(-6.20032 -0.811938 0)
(4.04912 -0.504857 0)
(-7.81612 -1.4711 0)
(-2.25917 0.339198 0)
(-6.42884 -2.96359 0)
(5.50778 -0.914575 0)
(-11.9854 -4.28755 0)
(-8.05301 0.706952 0)
(-7.27406 -1.75615 0)
(6.59601 -2.35976 0)
(-8.0683 1.2069 0)
(-1.07588 0.467306 0)
(5.09435 -0.0377347 0)
(9.0179 0.80491 0)
(10.1073 0.0292751 0)
(3.83186 -0.932045 0)
(11.9906 0.336858 0)
(6.25431 0.864686 0)
(-3.19535 -1.41767 0)
(7.39174 0.194884 0)
(-3.68011 -1.01238 0)
(-8.88015 0.222104 0)
(7.24259 -0.781743 0)
(1.8624 -1.36573 0)
(2.15468 -0.425613 0)
(10.296 -0.616879 0)
(-4.4739 -1.01407 0)
(1.73298 1.10548 0)
(3.44408 -0.838928 0)
(-9.53944 0.597254 0)
(4.33907 -0.237209 0)
(8.81448 1.32471 0)
(3.69502 0.921582 0)
(0.677807 0.189377 0)
(-2.44809 -0.898013 0)
(7.32413 -0.220765 0)
(-3.00763 -0.900164 0)
(8.13711 -0.205708 0)
(0.491643 0.103518 0)
(8.51634 0.341482 0)
(2.20181 -0.528583 0)
(7.96746 1.10865 0)
(-2.72638 0.37354 0)
(7.17945 2.58107 0)
(3.22898 -0.86527 0)
(9.03739 1.71454 0)
(-9.43979 0.590702 0)
(13.4481 -0.324013 0)
(9.35401 -2.63574 0)
(16.9255 0.502966 0)
(-2.99703 0.249726 0)
(7.72462 0.231703 0)
(14.8885 1.38061 0)
(0.124316 0.38539 0)
(8.78036 -0.457027 0)
(1.87767 1.58892 0)
(9.42099 0.755101 0)
(1.30784 1.2592 0)
(8.40678 0.230498 0)
(-3.05023 -1.4732 0)
(7.83394 0.494483 0)
(7.17081 -1.56986 0)
(3.81569 -2.00454 0)
(8.34568 0.842565 0)
(11.0083 -0.690307 0)
(-4.57602 2.62883 0)
(0.542156 1.91308 0)
(-1.87481 3.14069 0)
(-11.9199 0.428429 0)
(3.20323 2.47339 0)
(8.49085 1.00734 0)
(2.99477 1.12179 0)
(-1.93951 -1.50073 0)
(-2.40568 -0.766726 0)
(-6.50916 -0.492995 0)
(-4.13073 -0.614243 0)
(-7.59542 -0.371306 0)
(-0.362784 0.171485 0)
(-8.39874 -0.421194 0)
(0.953996 -0.478318 0)
(-10.3231 -1.47061 0)
(-2.64306 0.493943 0)
(-10.368 -2.75494 0)
(2.69943 -0.862458 0)
(-10.3862 -3.49475 0)
(-5.0621 0.591836 0)
(-6.54324 -2.61971 0)
(5.49857 -2.87619 0)
(-4.88893 0.0875891 0)
(-1.69809 0.146216 0)
(16.2866 0.689589 0)
(5.88631 0.055663 0)
(18.3641 -0.180591 0)
(6.85872 -0.586867 0)
(15.8653 -0.834944 0)
(8.40733 0.911275 0)
(15.0494 0.533019 0)
(3.58828 0.281489 0)
(14.8425 1.41387 0)
(4.88348 0.507417 0)
(9.69131 -0.505966 0)
(-1.03007 -1.6826 0)
(2.0635 0.344034 0)
(7.32371 -0.213567 0)
(-7.97258 -0.479371 0)
(-0.37319 2.54034 0)
(0.979921 -2.00704 0)
(-3.95154 -0.131101 0)
(3.0743 -0.352488 0)
(4.98595 0.876439 0)
(3.1087 1.31393 0)
(-0.308194 -0.248299 0)
(-3.18687 -0.737511 0)
(5.06913 -0.175777 0)
(-6.16008 -0.9507 0)
(6.16626 -0.119758 0)
(-3.52434 0.102838 0)
(7.51361 0.145223 0)
(-1.53619 -0.562619 0)
(7.8278 0.806739 0)
(-4.90193 0.474282 0)
(10.4847 2.66597 0)
(2.90373 -1.0287 0)
(9.71943 1.3071 0)
(-3.67524 0.639718 0)
(11.0132 0.290594 0)
(6.73915 -2.95714 0)
(9.24647 1.31327 0)
(-5.17889 0.256761 0)
(-3.33948 -0.782423 0)
(2.08939 0.843158 0)
(-2.89282 0.564228 0)
(4.12678 -0.614784 0)
(-4.57783 2.0258 0)
(5.33999 1.01659 0)
(-6.13612 -0.372983 0)
(-1.17014 0.378881 0)
(-10.8602 -3.14317 0)
(-5.82268 0.802673 0)
(-1.36758 -1.78216 0)
(-3.72608 -2.27589 0)
(3.89057 1.75447 0)
(1.91879 -0.542201 0)
(2.37167 3.11006 0)
(0.570834 2.63527 0)
(2.66049 2.70551 0)
(-3.08196 -0.149152 0)
(-0.0316125 2.20421 0)
(2.84341 1.0447 0)
(2.28878 1.31196 0)
(-4.76922 -0.806686 0)
(-2.95903 -0.429171 0)
(-11.9184 -0.377098 0)
(-5.37665 -0.50338 0)
(-13.0809 -0.34399 0)
(1.04037 0.175578 0)
(-13.0749 -0.171661 0)
(-2.50016 -0.562997 0)
(-11.775 -1.43836 0)
(-0.374081 0.392948 0)
(-9.56943 -2.98036 0)
(0.684404 -1.1667 0)
(-7.57216 -3.36315 0)
(-0.235296 0.51475 0)
(-8.6701 -3.12108 0)
(5.87214 -2.88844 0)
(-12.2847 -0.784735 0)
(-9.29327 0.482921 0)
(9.80392 0.690802 0)
(-5.20833 -0.538912 0)
(12.4738 -0.111582 0)
(6.48318 -0.781654 0)
(7.65772 -0.674895 0)
(5.6689 1.31759 0)
(-0.180982 1.14989 0)
(6.10848 0.868798 0)
(1.42746 1.3147 0)
(-7.22422 0.702145 0)
(1.56447 -1.02454 0)
(-3.12263 -2.28445 0)
(-2.22718 0.33283 0)
(-0.730573 -0.305221 0)
(-6.3349 -1.00214 0)
(0.327799 2.892 0)
(-0.2451 -1.82195 0)
(-5.20694 -0.529763 0)
(0.285163 0.496831 0)
(0.610977 1.01156 0)
(0.86629 1.32978 0)
(0.675978 -0.798621 0)
(-2.92618 -0.461536 0)
(10.1809 -0.104728 0)
(-0.93684 -1.0981 0)
(9.83209 0.324754 0)
(1.09569 0.197402 0)
(10.9825 0.199641 0)
(-2.63062 -0.634978 0)
(10.8101 0.692585 0)
(-1.75565 0.403737 0)
(11.0239 2.24863 0)
(-0.561195 -1.18008 0)
(12.3055 1.1209 0)
(-2.38792 0.434565 0)
(6.24034 1.22154 0)
(4.22756 -2.50895 0)
(-2.4035 1.29094 0)
(-2.27423 1.02376 0)
(-8.39139 -1.9686 0)
(-2.40731 -0.164254 0)
(-0.123479 0.0844796 0)
(1.06044 -1.2984 0)
(2.75998 2.66078 0)
(3.54018 1.13738 0)
(-0.00480968 0.821954 0)
(4.16192 1.0416 0)
(-11.7535 -2.70454 0)
(-8.39645 1.43644 0)
(-3.62892 -1.41964 0)
(-4.89787 -2.79224 0)
(1.15233 2.49668 0)
(-0.925778 -0.604048 0)
(-0.164718 3.7845 0)
(1.58531 2.97432 0)
(-1.7322 2.4356 0)
(-5.75085 -0.431794 0)
(-3.2535 1.64564 0)
(-0.57453 1.10664 0)
(-1.81914 1.12644 0)
(-0.15302 -0.330638 0)
(-3.65602 -0.442029 0)
(-7.55581 -0.603068 0)
(0.316215 -0.634908 0)
(-13.1017 -0.932706 0)
(-5.48411 0.544407 0)
(-14.6698 -0.909318 0)
(1.23455 -0.536866 0)
(-13.9509 -1.67557 0)
(-2.1612 0.358755 0)
(-13.4478 -2.37811 0)
(-0.837518 -1.21156 0)
(-11.3172 -3.16971 0)
(3.07103 0.301256 0)
(-3.16424 -3.25632 0)
(0.617439 -3.01908 0)
(-3.37171 -1.24663 0)
(0.293283 1.03674 0)
(6.94352 -0.100125 0)
(3.30955 -0.809672 0)
(5.17935 0.241678 0)
(-3.13437 -1.18814 0)
(3.55528 -0.37215 0)
(-0.380415 1.23888 0)
(-3.36284 1.0967 0)
(5.16634 1.47398 0)
(-1.58314 1.00823 0)
(-7.17898 1.32521 0)
(-0.646691 -2.32696 0)
(-4.25582 -2.85077 0)
(-0.996112 -0.361999 0)
(-5.24348 -0.582208 0)
(-5.75072 -1.24904 0)
(0.968301 3.27148 0)
(-2.04389 -1.74046 0)
(-8.96729 -0.663469 0)
(-3.12276 0.692918 0)
(-2.59978 1.17407 0)
(-2.48886 0.931266 0)
(1.29417 -1.00035 0)
(-4.54106 -0.513074 0)
(4.81194 0.397557 0)
(-1.39606 -0.855014 0)
(7.02729 0.91126 0)
(-4.72189 0.405794 0)
(14.1209 0.997833 0)
(7.09411 -0.980706 0)
(10.5287 0.768533 0)
(3.37717 0.583517 0)
(16.0746 0.8636 0)
(3.74587 -1.55856 0)
(14.0605 0.719999 0)
(6.70568 0.427278 0)
(5.45807 1.57505 0)
(-3.24687 -2.48083 0)
(5.10977 1.86717 0)
(-5.08044 1.05853 0)
(-6.92058 -0.824553 0)
(0.390466 -0.0569404 0)
(-7.99775 -0.420155 0)
(-4.4693 -1.12082 0)
(-0.159907 2.76674 0)
(2.50287 0.749016 0)
(2.20657 2.37316 0)
(3.0332 1.32607 0)
(-9.94491 -2.20173 0)
(-6.77255 2.08467 0)
(-7.54363 -1.16595 0)
(-4.26485 -3.00085 0)
(-3.52986 2.83758 0)
(-9.28051 -0.833067 0)
(-4.13759 3.49543 0)
(2.28021 3.30946 0)
(-7.05407 2.08946 0)
(-3.192 -0.481188 0)
(-5.50687 1.43915 0)
(-0.899339 1.07737 0)
(-1.15339 0.587088 0)
(-2.74326 0.0254344 0)
(-4.71971 -0.331497 0)
(-8.62473 -0.715869 0)
(-1.39376 -0.487013 0)
(-6.64665 -1.44197 0)
(0.909611 0.282026 0)
(-3.4986 -1.27581 0)
(4.20663 -1.17768 0)
(-3.65622 -1.46916 0)
(1.60244 0.593377 0)
(-5.37796 -1.49527 0)
(3.81741 -1.45084 0)
(-11.8294 -2.76699 0)
(-0.247666 0.83094 0)
(-12.2946 -3.27088 0)
(-2.10907 -2.45172 0)
(-11.8368 -0.882628 0)
(-1.74192 1.02989 0)
(3.08306 -0.91331 0)
(-9.79549 -0.990471 0)
(6.58217 0.348475 0)
(1.14605 -1.33951 0)
(4.72498 0.119116 0)
(4.05785 0.86509 0)
(-5.23191 0.596504 0)
(2.26497 1.94838 0)
(-1.25572 0.960806 0)
(-6.09997 1.83616 0)
(-4.94815 -2.52422 0)
(-2.97919 -2.77007 0)
(-3.43509 -0.35997 0)
(-9.5087 -0.927632 0)
(1.12858 -0.565545 0)
(2.28727 3.02423 0)
(5.61374 -1.21333 0)
(4.99579 -0.761509 0)
(0.00804004 0.366668 0)
(-2.49763 1.42773 0)
(1.79738 0.587592 0)
(1.16416 -1.24157 0)
(-4.47073 -0.394407 0)
(10.2653 -0.130601 0)
(2.29854 -1.05647 0)
(9.82823 0.33859 0)
(3.74593 0.309373 0)
(9.38886 1.09955 0)
(3.65205 -1.15018 0)
(8.91272 0.889814 0)
(1.40487 0.623167 0)
(9.21661 0.26453 0)
(3.42429 -1.46985 0)
(8.28438 0.503551 0)
(1.2395 0.889269 0)
(9.66909 1.99255 0)
(-0.962705 -2.53836 0)
(-1.90782 1.26799 0)
(5.21165 1.75425 0)
(-10.9395 -1.18324 0)
(-5.56654 -0.425363 0)
(-1.04965 -1.32404 0)
(-3.84585 -1.95763 0)
(0.820476 1.68852 0)
(-2.19777 0.748207 0)
(1.96288 3.14558 0)
(-0.559614 1.87698 0)
(-8.0313 -1.56757 0)
(-4.99028 2.4608 0)
(-6.63896 -1.10582 0)
(-2.86883 -2.85709 0)
(-3.58993 2.7962 0)
(-7.78871 -1.1182 0)
(3.85399 2.90263 0)
(3.83909 2.55899 0)
(-0.389307 1.57723 0)
(0.702272 -0.496302 0)
(-4.04272 1.4341 0)
(-2.99762 1.65606 0)
(2.99715 0.334924 0)
(1.31335 -0.0035322 0)
(-3.23694 -0.46665 0)
(-2.3062 0.0163882 0)
(2.57738 -0.829994 0)
(-4.1828 -0.787371 0)
(0.740521 0.426791 0)
(-4.70284 -1.92143 0)
(4.8403 -1.11764 0)
(-4.03953 -1.85484 0)
(-0.435321 0.581662 0)
(-4.23008 -0.332751 0)
(3.42873 -1.45793 0)
(-9.02629 -1.6978 0)
(0.829096 1.18936 0)
(-4.38244 -2.48544 0)
(-3.52353 -2.82893 0)
(-0.432936 -0.569287 0)
(8.22238 1.50714 0)
(2.34272 -1.68929 0)
(-8.71582 -0.599035 0)
(-4.48211 0.455561 0)
(-2.19614 -1.53108 0)
(-4.59728 1.31004 0)
(-10.1772 0.755405 0)
(-6.97211 1.22727 0)
(-0.236232 2.0254 0)
(-0.068205 0.74034 0)
(-4.2148 2.0293 0)
(-3.15902 -3.09515 0)
(-1.84742 -2.66392 0)
(-0.0969174 -1.32351 0)
(-8.12735 -1.30958 0)
(-1.85237 -0.236061 0)
(1.99261 2.6687 0)
(0.687762 -0.132771 0)
(5.01675 -0.655059 0)
(0.999834 0.484968 0)
(-4.5049 1.63656 0)
(4.94027 0.397415 0)
(2.6367 -1.39142 0)
(-2.53065 -0.621696 0)
(7.31598 -0.927132 0)
(2.71654 -1.12278 0)
(8.0599 -0.297556 0)
(2.57953 0.380244 0)
(8.54612 1.53955 0)
(5.25008 -1.14806 0)
(7.1719 0.966251 0)
(2.31325 0.667645 0)
(8.77796 -0.355974 0)
(4.34077 -1.55842 0)
(5.48963 -0.450359 0)
(4.48408 1.39511 0)
(9.85792 0.875967 0)
(-1.37337 -3.10225 0)
(-1.84153 2.50374 0)
(9.97034 2.23916 0)
(-12.0787 0.578233 0)
(-0.100663 0.0414981 0)
(-7.43967 -0.633884 0)
(-2.70593 -1.82102 0)
(-6.56592 1.76119 0)
(-11.9097 0.700795 0)
(3.05748 2.80239 0)
(-1.92897 1.42394 0)
(-6.28466 -0.810746 0)
(-2.41147 2.61319 0)
(-5.9939 -0.519131 0)
(-2.85993 -2.68209 0)
(-5.69684 2.5528 0)
(-4.45487 -1.32814 0)
(6.12057 1.50864 0)
(3.10346 1.93012 0)
(2.32491 0.937572 0)
(9.44674 -0.41783 0)
(-3.41212 1.6855 0)
(-4.53554 1.99513 0)
(5.2809 0.184159 0)
(2.15329 -0.283475 0)
(-0.177719 -0.746494 0)
(-0.489738 0.556266 0)
(1.94652 -0.957402 0)
(-1.81827 -0.193137 0)
(2.79417 0.46337 0)
(-1.87754 -2.10746 0)
(4.72237 -1.14435 0)
(-0.162055 -1.8467 0)
(3.78131 0.560307 0)
(0.243678 0.611226 0)
(3.9232 -1.5838 0)
(-3.0664 -0.630456 0)
(4.03258 1.60222 0)
(-0.655793 -2.01278 0)
(-3.15396 -3.25308 0)
(9.99229 -1.83483 0)
(10.5143 1.57292 0)
(10.97 -3.32059 0)
(2.33952 -0.0196764 0)
(-6.93491 -0.910976 0)
(5.2553 -0.701962 0)
(-8.13136 0.386688 0)
(-14.237 0.775573 0)
(-6.81605 1.486 0)
(-4.39153 1.34173 0)
(0.672825 0.112381 0)
(-1.5506 2.14513 0)
(-0.483907 -3.8443 0)
(-2.15129 -2.60979 0)
(4.84451 -1.73858 0)
(-5.00887 -1.66117 0)
(3.25993 0.777779 0)
(2.19929 2.02915 0)
(4.84456 0.982459 0)
(8.42587 -0.516868 0)
(1.64935 0.431998 0)
(-4.44608 2.19483 0)
(5.68406 0.287244 0)
(4.15662 -1.43531 0)
(0.984079 -0.99664 0)
(6.58627 -1.28219 0)
(2.01885 -1.10943 0)
(7.98375 -0.828719 0)
(2.08725 0.37593 0)
(9.1274 1.59217 0)
(4.90314 -1.21591 0)
(8.36279 1.02045 0)
(4.40201 0.608146 0)
(7.87537 -0.811097 0)
(2.50147 -1.55331 0)
(3.36799 -1.67989 0)
(5.89773 1.88425 0)
(8.58935 0.32693 0)
(-1.37221 -3.57977 0)
(0.899681 4.95534 0)
(8.30844 2.05406 0)
(-1.05714 2.88927 0)
(12.4125 0.10276 0)
(-2.33208 0.757114 0)
(-6.67556 -0.622279 0)
(-11.2525 1.87589 0)
(-12.3787 1.3331 0)
(1.47691 1.88562 0)
(-11.0106 0.546143 0)
(-4.78581 0.193399 0)
(0.347192 2.53655 0)
(-5.7755 -0.0199252 0)
(-5.60111 -2.54794 0)
(-6.97306 1.85532 0)
(-2.90788 -1.58632 0)
(3.85077 -0.1194 0)
(3.46456 1.35266 0)
(1.23155 0.152531 0)
(3.27085 -0.353167 0)
(-2.71864 1.99567 0)
(-4.32337 2.44171 0)
(5.77378 0.11733 0)
(3.38876 -0.575149 0)
(3.02083 -1.19874 0)
(-1.27187 0.807972 0)
(1.01763 -0.817812 0)
(-2.11616 0.112301 0)
(3.16114 0.428756 0)
(-1.55126 -2.21139 0)
(3.25479 -1.25125 0)
(-0.749309 -2.02848 0)
(6.19122 0.557967 0)
(0.7428 1.14254 0)
(1.87842 -1.64667 0)
(0.666931 0.36734 0)
(6.77517 1.88899 0)
(-1.12007 -2.34452 0)
(-2.2337 -3.46796 0)
(18.1021 -3.60372 0)
(-0.967786 0.851337 0)
(8.68191 -1.85511 0)
(10.1226 0.692174 0)
(-17.0713 0.983822 0)
(-16.0925 0.987296 0)
(-12.5575 -0.163453 0)
(-6.59413 1.05099 0)
(-11.7017 1.30043 0)
(-15.0427 0.492654 0)
(-0.897478 -0.91312 0)
(4.06476 1.86129 0)
(-1.85261 -4.54155 0)
(-3.1128 -2.48824 0)
(8.34126 -1.74716 0)
(-3.53876 -2.22344 0)
(-0.756233 1.9362 0)
(5.67073 1.92126 0)
(-0.221237 2.20475 0)
(3.35361 -0.386603 0)
(1.9189 0.456443 0)
(-5.03378 2.30796 0)
(6.88484 0.237263 0)
(5.18447 -1.5128 0)
(2.8015 -1.5132 0)
(6.48676 -1.19516 0)
(0.784397 -0.899296 0)
(7.69779 -1.0175 0)
(3.72915 0.352982 0)
(8.99859 1.24198 0)
(3.63866 -1.33264 0)
(9.61266 0.890874 0)
(5.34974 0.519542 0)
(8.19413 -0.811668 0)
(0.301114 -1.55791 0)
(3.34241 -2.12124 0)
(7.58342 2.19256 0)
(-1.63713 0.771468 0)
(-1.50544 -3.1564 0)
(-9.62312 5.43963 0)
(-2.44462 1.35102 0)
(-14.1573 1.39562 0)
(-0.352948 0.975877 0)
(-5.40908 -0.0321752 0)
(-11.0575 0.44053 0)
(-9.4714 1.60688 0)
(-7.45726 1.30488 0)
(0.846592 1.09061 0)
(-9.48984 -0.152222 0)
(1.39988 1.0972 0)
(4.12862 1.82671 0)
(-3.87631 0.23491 0)
(-7.0978 -2.15848 0)
(-5.28247 0.790297 0)
(-4.462 -2.13555 0)
(6.02637 -1.08575 0)
(2.27595 1.21445 0)
(0.598576 -0.18671 0)
(0.023113 -0.0473655 0)
(-2.2677 2.24931 0)
(-5.1265 2.4871 0)
(6.68509 0.0955327 0)
(2.79814 -0.937282 0)
(2.49434 -1.67835 0)
(-1.17777 0.568726 0)
(-1.54748 -0.650526 0)
(-0.868879 0.124456 0)
(5.86781 0.333655 0)
(-2.38428 -1.69716 0)
(2.58326 -1.23782 0)
(-3.10569 -1.70795 0)
(6.97605 0.564679 0)
(0.137006 1.29059 0)
(-0.0478451 -1.76081 0)
(2.11837 1.21845 0)
(8.18382 2.06859 0)
(-1.93941 -2.93631 0)
(-1.51393 -2.9025 0)
(7.06778 -3.42447 0)
(-5.83436 0.78744 0)
(2.69117 0.253554 0)
(2.15635 1.24972 0)
(-12.8465 1.78353 0)
(-12.5643 1.41163 0)
(-7.71061 -0.494102 0)
(-1.82788 0.98389 0)
(-6.29799 0.494844 0)
(-7.84711 -0.240512 0)
(-4.80267 -1.84231 0)
(2.9693 1.73325 0)
(-6.77698 -4.88355 0)
(-3.84921 -2.03508 0)
(3.99333 -1.40405 0)
(-6.43544 -2.80869 0)
(-7.18778 2.47691 0)
(0.864504 1.91327 0)
(-3.75231 2.38379 0)
(0.0993105 -0.262081 0)
(1.73883 0.257026 0)
(-5.91618 2.1439 0)
(7.59448 0.204211 0)
(2.42428 -1.61781 0)
(0.592422 -1.8201 0)
(6.08421 -0.861672 0)
(-2.15147 -0.879526 0)
(8.99457 -0.816041 0)
(-0.453225 0.151555 0)
(9.39106 0.720393 0)
(2.20602 -1.26263 0)
(10.9307 0.4388 0)
(2.35918 0.468344 0)
(8.51588 -0.574742 0)
(-1.23785 -1.60971 0)
(3.80825 -1.98558 0)
(9.30003 2.36315 0)
(-5.11395 0.860174 0)
(0.200757 -2.34425 0)
(-9.97311 5.33284 0)
(-6.54173 1.09147 0)
(-13.3839 2.13141 0)
(-3.07699 1.46313 0)
(-1.27103 0.663775 0)
(-10.1944 0.654577 0)
(-2.01176 1.46896 0)
(-2.14165 1.03019 0)
(1.12686 0.941409 0)
(-7.15844 -0.436677 0)
(3.52732 1.51541 0)
(0.479087 1.58322 0)
(-2.59425 0.335582 0)
(-5.98831 -1.65249 0)
(-8.74986 0.474897 0)
(-7.39431 -2.42397 0)
(5.15837 -0.805136 0)
(-0.542372 1.04401 0)
(-0.287751 -0.121566 0)
(0.66203 0.0783018 0)
(-2.07397 2.18723 0)
(-6.39148 2.25554 0)
(7.40685 0.0745888 0)
(0.163172 -0.763075 0)
(-0.176449 -1.82038 0)
(-8.24518 0.281366 0)
(-1.58727 -0.353421 0)
(-7.52836 -0.674442 0)
(-3.05953 0.106704 0)
(-7.07363 -1.50461 0)
(1.42766 -1.29108 0)
(-8.89311 -1.48218 0)
(-2.39006 0.582187 0)
(0.0949782 0.895903 0)
(-3.87603 -2.17209 0)
(4.75723 2.12619 0)
(9.71519 2.07143 0)
(-0.841903 -1.22757 0)
(1.64746 -1.99391 0)
(1.67694 -1.97775 0)
(-6.73897 0.933872 0)
(-0.349363 0.485356 0)
(-1.25012 1.58991 0)
(-10.7559 1.20198 0)
(-10.7069 1.30498 0)
(-7.24262 -0.84774 0)
(1.23047 0.810607 0)
(-8.15651 0.405519 0)
(-6.29249 -0.37956 0)
(-9.40046 -1.60228 0)
(-0.802818 1.66097 0)
(-9.88229 -4.72617 0)
(-4.31103 -1.62237 0)
(1.66371 -1.68814 0)
(-8.95104 -3.14559 0)
(-7.72569 2.02595 0)
(-2.20973 1.63085 0)
(-3.90041 2.06114 0)
(1.50872 -0.160777 0)
(1.15048 0.122705 0)
(-7.11611 1.93986 0)
(8.08499 0.146495 0)
(2.36566 -1.67205 0)
(-1.51348 -1.95846 0)
(3.97964 -0.475071 0)
(-4.19974 -0.454408 0)
(5.88354 0.217803 0)
(-4.4404 -0.0124218 0)
(3.22174 1.13982 0)
(-0.627467 -1.12453 0)
(3.70165 -0.250441 0)
(-3.23194 0.552157 0)
(6.23297 -0.854147 0)
(-2.95356 -2.33048 0)
(5.46634 -2.38998 0)
(9.67928 2.1194 0)
(-3.62632 -0.916053 0)
(-1.21479 -1.42499 0)
(-8.18368 3.77861 0)
(-6.53636 1.21902 0)
(-12.0938 2.00608 0)
(-4.8355 1.83457 0)
(1.3708 0.526869 0)
(-8.48835 0.463443 0)
(2.43342 1.25587 0)
(0.156678 0.744194 0)
(0.659077 0.72262 0)
(-5.32005 -0.268665 0)
(4.01897 1.35454 0)
(-2.26693 1.45097 0)
(-2.46821 0.0705787 0)
(-3.35015 -1.21692 0)
(-11.9294 -0.0986264 0)
(-9.83373 -2.55427 0)
(4.77497 -0.851141 0)
(-3.64448 0.586822 0)
(-0.445571 0.0105158 0)
(2.09739 0.165507 0)
(-2.06043 1.94077 0)
(-7.77804 2.04079 0)
(7.6897 0.0177187 0)
(-3.65282 -0.391219 0)
(-2.11222 -1.71998 0)
(-12.2996 0.137885 0)
(-2.43861 0.086616 0)
(-10.99 -1.70388 0)
(-3.47433 -0.094364 0)
(-9.9986 -2.10905 0)
(-2.75394 -1.18656 0)
(-8.72805 -1.8465 0)
(-0.190457 0.472657 0)
(0.858734 0.42346 0)
(-4.34348 -2.93032 0)
(1.57174 3.90431 0)
(8.79532 2.07479 0)
(-3.19391 2.20823 0)
(4.06783 -1.12681 0)
(-1.74165 0.105138 0)
(-4.7414 1.12816 0)
(-1.64744 0.681136 0)
(-3.09094 1.82867 0)
(-9.84563 1.015 0)
(-8.41191 0.975829 0)
(-7.16339 -0.840531 0)
(2.32712 0.576554 0)
(-8.70733 0.509914 0)
(-7.23947 -0.17217 0)
(-9.82852 -0.829129 0)
(0.446918 1.52105 0)
(-9.77084 -3.88192 0)
(-3.37086 -1.22053 0)
(-0.528854 -1.54132 0)
(-8.68808 -3.13189 0)
(-8.09979 2.05505 0)
(-8.09889 1.06001 0)
(-4.27408 2.05691 0)
(4.67306 -0.0735993 0)
(0.143458 0.172389 0)
(-8.01556 1.7647 0)
(8.13078 0.0266861 0)
(3.57622 -1.61492 0)
(-2.66455 -1.93381 0)
(6.66638 -0.755587 0)
(-0.944104 -0.106735 0)
(4.92574 0.11189 0)
(-0.535072 0.0145465 0)
(3.9165 1.52255 0)
(-2.25892 -1.12341 0)
(5.44608 -0.303121 0)
(-0.524042 0.37695 0)
(3.84947 -1.26843 0)
(-4.90961 -2.83042 0)
(9.74205 -3.88809 0)
(6.26501 1.70609 0)
(3.58828 -3.47125 0)
(-3.38063 -0.741769 0)
(-4.79107 2.24058 0)
(-3.296 1.65245 0)
(-10.192 1.8324 0)
(-5.86765 2.1666 0)
(3.36899 0.131234 0)
(-6.05047 0.128269 0)
(2.73251 1.06474 0)
(1.93724 0.616334 0)
(1.49327 0.586441 0)
(-5.53636 -0.0947179 0)
(6.73706 0.577951 0)
(1.87593 1.19331 0)
(-1.25082 -0.660959 0)
(2.63773 -0.721287 0)
(-15.2008 -0.940144 0)
(-8.38268 -2.26002 0)
(3.65279 -1.93416 0)
(-11.3948 -0.118342 0)
(1.5424 -0.521863 0)
(2.24592 0.0583 0)
(-1.82879 1.5985 0)
(-8.00569 1.97539 0)
(7.4455 -0.0876126 0)
(-2.69897 -0.131527 0)
(-3.82993 -1.755 0)
(-8.02467 1.27666 0)
(-0.24742 0.226491 0)
(-7.35986 -0.994119 0)
(-1.5662 -0.0270508 0)
(-10.0682 -2.23841 0)
(-0.721788 -0.953952 0)
(-9.53741 -2.07902 0)
(-3.18937 0.343737 0)
(-2.42889 0.409823 0)
(-6.09437 -3.27519 0)
(-7.95822 4.88075 0)
(3.45029 2.05206 0)
(-9.61456 4.12721 0)
(-2.97973 -0.638133 0)
(-3.41008 1.75309 0)
(0.183683 1.26424 0)
(-1.92315 0.730759 0)
(-3.85101 2.07357 0)
(-8.02425 0.941256 0)
(-5.49638 0.509587 0)
(-5.82379 -0.53928 0)
(2.26305 0.478805 0)
(-5.63292 0.571473 0)
(-2.76024 -0.106649 0)
(-2.44664 0.574916 0)
(0.486823 0.994168 0)
(-3.33778 -1.83865 0)
(-0.142285 -0.665591 0)
(-3.722 -0.778642 0)
(-5.68083 -2.236 0)
(-12.8926 2.75625 0)
(-14.7769 0.454818 0)
(-7.00156 2.53485 0)
(4.02818 -0.309886 0)
(-0.526139 0.221916 0)
(-7.79051 1.57068 0)
(7.41933 -0.120495 0)
(3.01005 -1.51142 0)
(-4.54078 -1.93341 0)
(6.20484 -1.45266 0)
(1.30364 0.0265939 0)
(5.65419 -0.230199 0)
(1.22919 0.00740279 0)
(2.36568 1.57283 0)
(-0.862626 -0.74819 0)
(1.71736 -0.89874 0)
(-2.11881 0.384299 0)
(-0.33512 -1.70976 0)
(-6.39444 -3.14677 0)
(7.68631 -2.89536 0)
(1.18443 1.55016 0)
(7.06197 -3.04941 0)
(-2.05954 -0.59907 0)
(0.562421 1.30446 0)
(0.768009 1.67091 0)
(-7.52044 1.73414 0)
(-5.48977 2.57931 0)
(4.17463 -0.226035 0)
(-5.20217 -0.221355 0)
(5.9961 0.950668 0)
(-0.682216 0.364963 0)
(2.37412 0.524701 0)
(-5.77877 0.119725 0)
(3.09087 -0.440454 0)
(-1.82406 0.949372 0)
(-1.47625 -1.14638 0)
(2.66989 -0.380147 0)
(-16.02 -0.983889 0)
(-7.79631 -1.32702 0)
(2.47389 -2.84164 0)
(-12.2927 -0.70105 0)
(3.37442 -1.05845 0)
(5.06053 -0.366169 0)
(-1.82853 1.35715 0)
(-5.05844 1.89587 0)
(7.34287 -0.234777 0)
(-1.98572 -0.531293 0)
(-6.04658 -1.79923 0)
(-3.7957 1.41378 0)
(-0.837477 0.139843 0)
(-4.42991 -0.176933 0)
(1.04762 0.0470851 0)
(-9.71585 -1.66925 0)
(1.53365 -0.417451 0)
(-8.75436 -1.96144 0)
(-2.38604 0.324138 0)
(-5.14961 0.259403 0)
(-7.35052 -3.37232 0)
(-9.02347 3.08867 0)
(0.30397 1.79255 0)
(-8.71513 3.11419 0)
(-8.99639 -0.618362 0)
(-4.62062 2.87582 0)
(2.10668 1.41472 0)
(-3.18707 0.707644 0)
(-3.52716 2.48961 0)
(-10.727 0.628603 0)
(-3.82964 0.24989 0)
(-11.6568 -0.234135 0)
(-4.01556 0.423079 0)
(-11.3536 0.966503 0)
(-4.47343 0.100769 0)
(-1.41824 1.16417 0)
(-0.0488875 0.328413 0)
(-2.86996 -0.876293 0)
(1.17868 -0.289414 0)
(-3.54794 -1.23342 0)
(-5.387 -1.28464 0)
(-9.0814 1.95846 0)
(-9.05803 -0.355209 0)
(-3.24358 2.28065 0)
(0.460532 -0.731033 0)
(1.8371 -0.170347 0)
(-5.13426 1.57832 0)
(8.93432 -0.119958 0)
(-0.448504 -1.21782 0)
(-7.63631 -1.76124 0)
(3.6954 -1.19163 0)
(-2.09001 -0.11944 0)
(7.7876 -0.116991 0)
(-1.35926 -0.208962 0)
(4.63092 1.31865 0)
(0.565733 -0.219937 0)
(0.451908 -1.24718 0)
(0.193591 0.585614 0)
(-2.30208 -1.92749 0)
(-7.58732 -3.2 0)
(0.0295137 -1.07458 0)
(0.803391 1.64666 0)
(0.704965 -1.53372 0)
(-3.21997 -0.660625 0)
(3.91491 0.909752 0)
(0.224895 1.21387 0)
(-4.15212 2.03009 0)
(-4.02133 2.99436 0)
(2.16824 -0.229828 0)
(-2.25652 -0.145133 0)
(4.06457 0.558766 0)
(-3.85726 0.304559 0)
(5.22923 -0.645098 0)
(0.127645 0.0279775 0)
(3.39657 -1.14569 0)
(3.91161 0.442955 0)
(-0.748985 -0.685942 0)
(1.80493 -0.0303172 0)
(-10.6625 -0.807895 0)
(-5.34402 -0.665052 0)
(1.4167 -3.55771 0)
(-9.79358 -1.11016 0)
(-1.08774 -1.26343 0)
(-3.42424 -0.574505 0)
(-0.811699 1.69718 0)
(-3.75015 1.56107 0)
(9.43231 -0.170689 0)
(-4.66726 -0.584103 0)
(-9.24937 -1.45928 0)
(-7.54882 1.05291 0)
(-1.26824 0.0608568 0)
(-7.62742 -0.409946 0)
(-3.31503 -0.204044 0)
(-8.20875 -0.75225 0)
(-0.725334 -0.183563 0)
(-6.48727 -1.04984 0)
(1.83337 0.4779 0)
(-4.91787 0.0380874 0)
(-8.19091 -3.2982 0)
(-2.77624 1.0147 0)
(-1.30665 1.51266 0)
(-5.28052 1.7459 0)
(-1.93722 -0.503935 0)
(-6.85998 3.60344 0)
(-1.81435 1.3127 0)
(-2.10325 0.744809 0)
(-2.20387 2.69674 0)
(-9.1487 0.647285 0)
(-3.21127 0.295207 0)
(-6.53669 0.00324308 0)
(-2.82205 0.141308 0)
(-3.19056 1.15219 0)
(-1.02947 -0.181156 0)
(3.29646 1.33905 0)
(4.14714 0.0375163 0)
(-2.2303 0.17162 0)
(8.23904 0.315105 0)
(-4.80799 -0.219261 0)
(-1.24996 -0.503946 0)
(-13.4058 1.78241 0)
(-6.5657 -0.572792 0)
(-5.74857 1.56794 0)
(-7.29024 -1.05308 0)
(3.2678 0.188147 0)
(-4.60021 0.997549 0)
(12.3152 0.0335499 0)
(-0.628429 -1.01613 0)
(-11.6262 -1.41002 0)
(2.39545 -1.39104 0)
(-5.90495 -0.128347 0)
(4.82589 -0.114282 0)
(-6.0557 -0.356115 0)
(4.99907 0.473457 0)
(-3.88147 -0.194396 0)
(1.31735 -2.10601 0)
(-0.836548 0.70826 0)
(-5.05101 -1.59449 0)
(-7.72176 -2.89973 0)
(-0.592772 0.46072 0)
(-3.17715 1.23371 0)
(-0.635181 -0.810367 0)
(-1.22835 -0.501281 0)
(3.87712 0.308448 0)
(-1.3208 1.03037 0)
(-3.27253 2.41201 0)
(-2.58017 3.14409 0)
(2.04048 -0.201563 0)
(0.477289 -0.0368557 0)
(4.02421 0.0759381 0)
(-4.46607 0.0173249 0)
(4.47941 -1.28248 0)
(0.846925 -0.209607 0)
(9.99465 -0.809363 0)
(4.93578 -0.307186 0)
(10.0298 -0.329421 0)
(12.2089 0.312908 0)
(-4.04271 -1.45711 0)
(2.88355 0.375587 0)
(1.07162 -3.20982 0)
(-2.60693 -0.892438 0)
(-6.00057 -0.752395 0)
(-4.70445 -0.611071 0)
(0.631367 0.29072 0)
(-5.05515 0.583053 0)
(9.34559 0.0730108 0)
(-11.029 0.0907754 0)
(-10.9107 -0.710015 0)
(-14.9071 1.1978 0)
(-3.07509 0.114305 0)
(-13.5608 -0.292726 0)
(-5.63863 -0.440352 0)
(-13.7451 0.652083 0)
(-3.78074 -0.182864 0)
(-8.85849 0.187046 0)
(2.4342 0.402507 0)
(-6.36507 -0.176004 0)
(-7.61391 -3.05575 0)
(-3.61353 -0.0357629 0)
(-8.0753 1.06155 0)
(-4.39694 1.01512 0)
(-2.97179 -0.452265 0)
(-6.62811 3.69641 0)
(-5.15518 1.16997 0)
(1.24166 0.484402 0)
(-1.38726 2.65168 0)
(-7.38883 0.287871 0)
(-1.32023 0.50255 0)
(-6.00489 -0.476687 0)
(-3.44657 -0.0691708 0)
(-0.613031 0.453159 0)
(-0.852629 -0.546599 0)
(7.86701 0.686516 0)
(5.66094 -0.837188 0)
(6.20451 0.646695 0)
(4.19549 0.416815 0)
(2.48941 0.894927 0)
(12.7466 0.607781 0)
(-6.38604 1.46627 0)
(-0.472898 -0.337723 0)
(-3.45455 0.283525 0)
(-0.482874 -0.794289 0)
(-0.756651 1.2751 0)
(-9.24781 0.414435 0)
(12.5361 0.0257206 0)
(3.60826 -0.878161 0)
(-10.6615 -0.92585 0)
(5.61097 -1.43721 0)
(0.220016 -0.0110038 0)
(5.10735 -0.338479 0)
(-4.33643 -0.408842 0)
(8.51239 -0.904904 0)
(-2.46922 -0.395913 0)
(4.5893 -2.9068 0)
(4.7862 0.647969 0)
(-9.85247 -1.37969 0)
(-8.6396 -2.15213 0)
(-6.77622 0.564309 0)
(-9.57964 0.869069 0)
(-6.364 -0.473577 0)
(-4.67452 -0.478058 0)
(1.32268 0.261388 0)
(-6.27777 0.689019 0)
(-3.78148 2.97352 0)
(-1.83635 2.97104 0)
(0.946711 0.138967 0)
(5.26414 0.207038 0)
(3.26849 0.00754582 0)
(-5.98782 -0.214282 0)
(3.82092 -1.74336 0)
(-0.415441 -0.581126 0)
(2.49754 -1.545 0)
(3.0078 -0.754477 0)
(11.9879 0.167262 0)
(-2.57897 -0.176332 0)
(7.23798 0.158623 0)
(9.77438 0.90465 0)
(8.04275 -1.5738 0)
(7.71574 -0.388022 0)
(-6.03584 -0.341338 0)
(-2.12891 0.0856232 0)