/*--------------------------------*- C++ -*----------------------------------*\
  =========                 |
  \\      /  F ield         | OpenFOAM: The Open Source CFD Toolbox
   \\    /   O peration     | Website:  https://openfoam.org
    \\  /    A nd           | Version:  6
     \\/     M anipulation  |
\*---------------------------------------------------------------------------*/
FoamFile
{
    version     2.0;
    format      ascii;
    class       volScalarField;
    location    "2.62";
    object      epsilon;
}
// * * * * * * * * * * * * * * * * * * * * * * * * * * * * * * * * * * * * * //

dimensions      [0 2 -3 0 0 0 0];

internalField   nonuniform List<scalar> 
4214
(
0.0190732
0.0103822
0.00673066
0.00522617
0.00475568
0.00481809
0.00521743
0.00592347
0.00698812
0.0085065
0.0105997
0.0134086
0.0171216
0.0219448
0.0282452
0.0363888
0.0470157
0.0613987
0.0808104
0.095924
0.0871217
0.0737822
0.0554148
0.0374156
0.0263623
0.0199203
0.0160115
0.0133924
0.0114363
0.00986519
0.00855749
0.0074597
0.00654996
0.00582376
0.00529124
0.00498665
0.00500008
0.00554133
0.00709436
0.0108146
0.0197712
0.00836294
0.00614196
0.00505979
0.00466754
0.0047205
0.00508997
0.00576496
0.00681002
0.00833008
0.0104545
0.0133329
0.0171293
0.0220374
0.0282352
0.0360714
0.0457848
0.0581767
0.0749044
0.0970232
0.110335
0.0940079
0.0780385
0.0590049
0.0404614
0.0287746
0.0218282
0.017573
0.0147054
0.0125628
0.010841
0.0094021
0.00818168
0.00715054
0.00629755
0.00562227
0.00513444
0.0048613
0.00486423
0.00527454
0.00636205
0.00871058
0.00564634
0.00494691
0.00461717
0.0046508
0.00499785
0.00566081
0.00671539
0.00828297
0.0105125
0.0135706
0.0176344
0.0228706
0.0294385
0.0374222
0.0471509
0.0587266
0.0733579
0.0928281
0.116397
0.124781
0.0999895
0.082589
0.0625089
0.0435364
0.0313393
0.0239468
0.0193346
0.0161969
0.0138479
0.0119605
0.0103792
0.00902807
0.00787033
0.00688978
0.00608191
0.0054493
0.00500195
0.00476129
0.00476956
0.00510162
0.00589062
0.00480007
0.00458882
0.00460797
0.00493424
0.00559365
0.0066728
0.00831259
0.0106885
0.0139994
0.0184545
0.0242474
0.0315101
0.0403005
0.0505581
0.0626121
0.0765137
0.0939484
0.115966
0.138785
0.138775
0.105922
0.0875732
0.0660932
0.0468128
0.0341433
0.0263231
0.0213389
0.0179042
0.0153234
0.0132499
0.0115114
0.0100188
0.00872652
0.00761253
0.00666934
0.00589719
0.0053017
0.00489161
0.00468237
0.00469367
0.00495237
0.00451264
0.00457044
0.00487462
0.00553016
0.00663536
0.00835065
0.0108734
0.0144476
0.01934
0.0258036
0.0340199
0.0440428
0.0557605
0.0689418
0.0839818
0.100904
0.121616
0.144673
0.162184
0.150041
0.112278
0.0927869
0.0696241
0.0501177
0.0371615
0.0289706
0.0236155
0.0198618
0.0170229
0.0147408
0.0128273
0.0111799
0.00974253
0.0084859
0.00739893
0.00648029
0.0057358
0.00517138
0.00479535
0.00460981
0.00460692
0.00450971
0.00481459
0.00545231
0.00655619
0.00829073
0.010897
0.0146646
0.0199314
0.0270526
0.0363319
0.0479144
0.0616706
0.0772433
0.0942901
0.113221
0.133953
0.1573
0.177381
0.183248
0.1587
0.12007
0.0984458
0.0731347
0.0535384
0.0404364
0.0319368
0.0262168
0.0221219
0.0189952
0.0164773
0.0143669
0.0125478
0.0109523
0.00954164
0.00829989
0.00722276
0.00631815
0.00559269
0.00505787
0.00471259
0.0045438
0.00472669
0.00533605
0.00638078
0.00806849
0.0106476
0.0144476
0.0198774
0.0274128
0.0375367
0.0506267
0.0667827
0.0856382
0.106541
0.128901
0.152818
0.177137
0.199391
0.210122
0.200592
0.166461
0.128803
0.10462
0.0767511
0.0571442
0.0440329
0.0352857
0.0292079
0.0247496
0.0213023
0.0185162
0.0161821
0.0141702
0.0124001
0.0108214
0.00941173
0.00816071
0.00707915
0.00617381
0.00546651
0.00495908
0.0046488
0.00515376
0.00610853
0.00765779
0.0100704
0.0136876
0.0189687
0.0264947
0.0369435
0.0509961
0.0691671
0.0915269
0.117394
0.145694
0.175169
0.204509
0.229488
0.244309
0.239981
0.214578
0.174563
0.138218
0.11126
0.0807517
0.0611568
0.0480916
0.0391216
0.0326816
0.0278326
0.0240265
0.0209336
0.0183425
0.0161109
0.0141457
0.0123811
0.0107879
0.0093439
0.0080647
0.00695217
0.00604609
0.00535036
0.00488874
0.00573535
0.00707766
0.00918709
0.0124079
0.0172031
0.0242104
0.0342559
0.0483177
0.0673934
0.0922479
0.122964
0.158516
0.196984
0.235203
0.268248
0.287685
0.28782
0.265069
0.226529
0.183775
0.14792
0.118212
0.085652
0.0659272
0.0528338
0.0436042
0.0367706
0.0314902
0.0272786
0.0238318
0.0209425
0.018457
0.0162702
0.0142964
0.0125001
0.0108386
0.00933738
0.00798162
0.00684194
0.00591381
0.00526949
0.00637751
0.00810202
0.0107693
0.0148137
0.0208514
0.0297518
0.0426744
0.061032
0.0863287
0.119786
0.161693
0.210483
0.262277
0.309479
0.341404
0.347202
0.326879
0.286154
0.238096
0.194105
0.157461
0.125308
0.0921553
0.0719167
0.0585715
0.0489622
0.0416562
0.0358892
0.0312115
0.0273497
0.0241112
0.0213287
0.0188863
0.0166709
0.0146467
0.0127335
0.0109811
0.00933396
0.00791945
0.00669639
0.00582146
0.00696206
0.00902828
0.0122051
0.0170245
0.0242744
0.0350988
0.0510934
0.0742942
0.107035
0.151347
0.207935
0.274059
0.341967
0.395968
0.41982
0.404414
0.361205
0.304781
0.250101
0.204975
0.16657
0.132635
0.100958
0.079611
0.0656954
0.0555275
0.0475989
0.0412195
0.0359976
0.0316675
0.0280316
0.0248924
0.0221494
0.019648
0.0173628
0.0151473
0.0131088
0.0111025
0.00936764
0.00776338
0.00659662
0.00743681
0.00980395
0.0134296
0.0189282
0.027254
0.0398405
0.0588379
0.0871405
0.128367
0.185785
0.260828
0.348381
0.434136
0.490894
0.499853
0.457661
0.391573
0.321742
0.262089
0.215651
0.17527
0.140677
0.112395
0.0894287
0.0745599
0.0636752
0.0549591
0.0478226
0.0419248
0.0370122
0.0328954
0.0293557
0.0262784
0.02343
0.0208349
0.0182406
0.0158737
0.0134083
0.0113068
0.00919925
0.00767327
0.00788386
0.0105558
0.0146079
0.0206827
0.0298763
0.0438486
0.0654346
0.0985538
0.148767
0.220983
0.317991
0.430046
0.53477
0.590247
0.579673
0.507012
0.418398
0.336852
0.273012
0.225297
0.183576
0.150037
0.126237
0.101698
0.0855401
0.0738099
0.0641151
0.0560627
0.0493585
0.0437578
0.0390742
0.0350272
0.0315329
0.0282504
0.025311
0.0222334
0.0194822
0.0164069
0.013899
0.0111084
0.00916573
0.00850435
0.011568
0.0161397
0.022746
0.0326548
0.0474668
0.0709384
0.107826
0.166657
0.253731
0.375107
0.512874
0.63892
0.690688
0.659848
0.553917
0.442486
0.350145
0.28238
0.233972
0.19219
0.161228
0.141856
0.116757
0.0990757
0.0864033
0.0754881
0.0663726
0.0587375
0.05235
0.0470216
0.0423529
0.038369
0.0344873
0.0311127
0.027354
0.0241923
0.020305
0.0173623
0.0136148
0.0112377
0.00952728
0.0131509
0.0185828
0.0257618
0.0365626
0.0515512
0.076244
0.114873
0.181189
0.280084
0.427194
0.5879
0.741799
0.788899
0.743832
0.602741
0.465967
0.362972
0.291005
0.243268
0.202602
0.174616
0.158959
0.135113
0.115797
0.101994
0.089538
0.0793039
0.0706352
0.06338
0.0573368
0.0518798
0.047344
0.0426077
0.0387566
0.033977
0.0303695
0.0252792
0.0219602
0.0168715
0.0141141
0.0111415
0.0154197
0.0225981
0.0302603
0.0429836
0.0571958
0.0832676
0.120218
0.193738
0.295833
0.472541
0.643661
0.839994
0.880623
0.834994
0.662449
0.491646
0.378667
0.29965
0.254063
0.21592
0.190684
0.177953
0.157483
0.136267
0.121224
0.106839
0.0956562
0.0858162
0.0776318
0.0707929
0.0642688
0.0591783
0.053133
0.0488851
0.0424874
0.0386055
0.0316179
0.0281253
0.0209317
0.0180457
0.0136226
0.017922
0.0291079
0.0361316
0.0537177
0.0650534
0.0951477
0.123869
0.210439
0.294867
0.518004
0.664556
0.931109
0.963394
0.92681
0.755248
0.522254
0.405914
0.307969
0.264984
0.231731
0.210677
0.199506
0.184855
0.160478
0.145264
0.128198
0.116689
0.105196
0.0960852
0.0883115
0.0802282
0.0747781
0.0665574
0.0623665
0.0532219
0.0497225
0.0395364
0.0366314
0.0258379
0.0235011
0.0136933
0.0118536
0.010111
0.00864333
0.00744256
0.00649054
0.00575903
0.00521652
0.00483344
0.00458724
0.00446952
0.00450166
0.00477025
0.00552032
0.00742569
0.0137886
0.0433327
0.0122256
0.0101982
0.00865258
0.0074594
0.0065422
0.0058441
0.00532022
0.00493634
0.00466827
0.00450256
0.0044404
0.00451206
0.00481267
0.00560147
0.00760825
0.0144759
0.0425675
0.00670311
0.00643234
0.00611522
0.0057801
0.00544724
0.00514036
0.00487617
0.0046642
0.00451015
0.00442049
0.00441007
0.00451908
0.00485103
0.00567789
0.00778638
0.0151981
0.0418567
0.00608944
0.0056341
0.0053303
0.00509526
0.00489486
0.00472038
0.00457303
0.00445681
0.00437723
0.00434361
0.00437535
0.00451726
0.00487836
0.00573966
0.00794365
0.015883
0.041723
0.00431802
0.00428673
0.00430255
0.00431792
0.00431704
0.00430048
0.00427572
0.00425253
0.004242
0.00425905
0.00432816
0.00449874
0.004884
0.00577169
0.00805144
0.0164747
0.0421364
0.00417702
0.0040619
0.00402969
0.00403483
0.00405147
0.00406835
0.00408366
0.00410076
0.00412703
0.00417543
0.00426998
0.00446035
0.00486011
0.00575973
0.00808667
0.0169091
0.0430803
0.00364045
0.00363818
0.00367485
0.0037304
0.00379077
0.00384875
0.00390247
0.00395421
0.0040105
0.00408382
0.00419792
0.00440159
0.00480655
0.0057023
0.00804043
0.0171307
0.0445083
0.00361172
0.00358325
0.00359269
0.0036259
0.00367249
0.00372624
0.00378346
0.00384391
0.00391167
0.00399718
0.0041222
0.00433281
0.00473616
0.00561661
0.00793415
0.017152
0.0464088
0.00344885
0.00343891
0.0034514
0.00348331
0.00353044
0.00358825
0.00365351
0.0037256
0.00380753
0.0039081
0.00404693
0.00426693
0.00467003
0.00553363
0.00782026
0.0171011
0.0488605
0.00344652
0.00343104
0.00343349
0.00344953
0.00347837
0.00351998
0.00357416
0.00364247
0.00372853
0.00383985
0.00399287
0.00422583
0.00463479
0.00549152
0.00777142
0.0172081
0.0520941
0.00345134
0.00342931
0.00341783
0.00341799
0.0034312
0.00345922
0.00350473
0.00357136
0.00366379
0.00378909
0.00396164
0.0042164
0.00464631
0.00552557
0.00788021
0.017835
0.0565378
0.00346799
0.00344957
0.00343862
0.00343469
0.0034392
0.0034556
0.00348938
0.00354755
0.00363802
0.00376974
0.00395798
0.00423837
0.00470718
0.00565865
0.0082464
0.0194675
0.0627875
0.0035518
0.00351981
0.00349466
0.00347624
0.00346683
0.00347089
0.0034949
0.00354668
0.00363487
0.00377027
0.00397139
0.00427956
0.00480443
0.00588951
0.00893968
0.0225517
0.0714294
0.0035884
0.00356787
0.0035464
0.00352689
0.00351365
0.00351287
0.00353207
0.00357961
0.00366485
0.00380077
0.00401047
0.00434444
0.00493459
0.00620542
0.0099597
0.0271421
0.0827032
0.00372698
0.00368342
0.00364524
0.00361328
0.00359177
0.00358636
0.00360306
0.00364863
0.00373213
0.00386858
0.0040859
0.00444519
0.00510529
0.0065889
0.0111963
0.0325667
0.0960741
0.00378722
0.00376362
0.00373408
0.00370721
0.00369038
0.00368945
0.00370956
0.00375707
0.0038419
0.00398154
0.00420947
0.00459785
0.00533337
0.00703046
0.012465
0.0382523
0.110699
0.00396913
0.0039154
0.00387212
0.00384189
0.00382757
0.00383112
0.0038554
0.0039064
0.0039953
0.00414246
0.00438682
0.00481217
0.00563312
0.00753586
0.013629
0.0434714
0.125742
0.00405662
0.00403318
0.00400896
0.0039945
0.00399296
0.00400608
0.00403765
0.00409515
0.00419207
0.0043523
0.00462133
0.00509698
0.00602319
0.00814786
0.0146979
0.0472406
0.140522
0.00427071
0.00421892
0.00419413
0.00418787
0.00419557
0.00421718
0.00425697
0.00432394
0.00443384
0.00461454
0.00491967
0.0054645
0.00652726
0.00891728
0.0158274
0.0490614
0.154708
0.0043937
0.00439045
0.00439471
0.00440722
0.00442822
0.00446118
0.00451288
0.00459455
0.0047248
0.00493676
0.00529497
0.00593688
0.00718421
0.00992434
0.0173692
0.0489928
0.167963
0.00463561
0.0046226
0.00463617
0.00466011
0.00469351
0.00474053
0.00480896
0.00491224
0.00507283
0.00533139
0.00576741
0.00654717
0.00804892
0.0112641
0.0194279
0.0480372
0.179486
0.00483126
0.00486719
0.00490167
0.00494262
0.00499273
0.00505886
0.00515067
0.00528479
0.00548941
0.00581602
0.00636446
0.00733834
0.00918751
0.0130318
0.0221746
0.0499338
0.188048
0.00509416
0.00514808
0.00519984
0.00525942
0.00533086
0.00542221
0.00554577
0.00572263
0.00598911
0.00641121
0.0071138
0.00834395
0.0106275
0.0152079
0.0255657
0.055197
0.195386
0.00538294
0.00545401
0.00552912
0.00561281
0.00571111
0.00583418
0.00599787
0.00622905
0.00657386
0.00711462
0.00800277
0.00952925
0.012294
0.0176712
0.0294041
0.0614812
0.203051
0.00570028
0.00579775
0.00589797
0.00600994
0.00614067
0.00630273
0.00651613
0.00681444
0.00725474
0.00793648
0.00903779
0.0108919
0.0141676
0.0203581
0.0334406
0.0678386
0.211064
0.00605121
0.00617615
0.0063095
0.00645651
0.00662708
0.00683663
0.00710994
0.00748779
0.00803821
0.00887689
0.010206
0.0123951
0.0161687
0.0231103
0.0373611
0.0735856
0.219063
0.00644121
0.00660302
0.00677314
0.00696171
0.00717942
0.00744488
0.00778733
0.00825425
0.00892334
0.00992397
0.0114777
0.0139816
0.0182014
0.0257856
0.0409858
0.0786074
0.226407
0.00687528
0.00707803
0.00729501
0.0075333
0.00780675
0.00813636
0.00855547
0.00911704
0.00990642
0.0110634
0.0128237
0.0156052
0.0202048
0.0283251
0.0443197
0.0831463
0.232341
0.00736489
0.00761882
0.00788775
0.00818354
0.0085203
0.00892156
0.00942263
0.0100801
0.010984
0.0122802
0.0142124
0.0172094
0.0220843
0.030565
0.0470373
0.0864089
0.235796
0.00799537
0.00828527
0.00859439
0.00893637
0.00933453
0.00981425
0.0104007
0.0111515
0.0121577
0.0135659
0.0156203
0.0187494
0.0237653
0.0323908
0.0489804
0.0882218
0.235854
0.00872187
0.00909273
0.00948025
0.00989512
0.0103491
0.0108704
0.0115149
0.0123499
0.0134431
0.0149309
0.0170495
0.0202148
0.0252173
0.0337383
0.0500251
0.0883341
0.231888
0.00948179
0.00994391
0.010428
0.010942
0.011501
0.0121273
0.0128548
0.0137346
0.014878
0.0164154
0.0185417
0.0216466
0.0264765
0.0346302
0.0501629
0.0866824
0.223722
0.0103334
0.0109082
0.0115076
0.01214
0.0128175
0.0135593
0.014395
0.0153712
0.0165622
0.0181044
0.0202004
0.0231713
0.0276967
0.0352503
0.049609
0.0835224
0.211731
0.0112884
0.0120022
0.0127477
0.0135294
0.0143568
0.0152449
0.0162177
0.0173128
0.0185908
0.0201524
0.0222084
0.025024
0.0291795
0.0359797
0.048826
0.0793804
0.196715
0.0123613
0.0132487
0.0141779
0.0151513
0.0161747
0.0172579
0.0184187
0.0196867
0.0211124
0.0227816
0.0248368
0.0275634
0.0314004
0.0374434
0.0486098
0.0751864
0.179729
0.0135612
0.0146661
0.0158293
0.017051
0.018334
0.0196842
0.021114
0.0226469
0.0243241
0.0262161
0.0284432
0.0312709
0.0350142
0.0405361
0.0501586
0.0723791
0.161869
0.0148993
0.0162744
0.0177343
0.0192779
0.0209055
0.0226208
0.0244343
0.0263677
0.0284617
0.0307866
0.0334637
0.0367413
0.0408491
0.0464369
0.05516
0.0731537
0.144096
0.0163807
0.0180915
0.0199273
0.0218865
0.0239692
0.0261797
0.0285309
0.0310517
0.0337963
0.0368605
0.0404061
0.0446849
0.0499229
0.0566537
0.0659332
0.0809365
0.127137
0.0180088
0.0201335
0.0224427
0.0249364
0.0276168
0.0304922
0.0335849
0.0369421
0.0406535
0.0448793
0.0498982
0.0559794
0.063515
0.0731528
0.0857246
0.101315
0.111476
0.0197784
0.0224108
0.0253138
0.0284927
0.0319556
0.0357203
0.0398277
0.0443605
0.0494737
0.0554503
0.0628138
0.0718584
0.0834233
0.0987153
0.119317
0.144233
0.0974005
0.00721234
0.00730608
0.00744892
0.00766608
0.00796668
0.00834106
0.00877463
0.00925502
0.00978113
0.0103559
0.0109873
0.0116811
0.0124422
0.0132728
0.0141732
0.0151435
0.0161835
0.0172949
0.0184798
0.0197436
0.0217048
0.0237486
0.0252118
0.026557
0.0277844
0.0289065
0.0299315
0.0308498
0.031632
0.032237
0.0326179
0.0327308
0.0325407
0.0320264
0.0311846
0.030029
0.028592
0.0269215
0.0250878
0.0231905
0.0213723
0.00790897
0.00798968
0.00813944
0.00838513
0.00872961
0.00915542
0.00964138
0.0101743
0.0107542
0.0113868
0.0120824
0.0128477
0.0136896
0.0146104
0.0156132
0.016699
0.0178712
0.0191336
0.0204911
0.0219515
0.0241493
0.0264699
0.0282261
0.0298893
0.03144
0.0328763
0.0341976
0.0353898
0.036419
0.0372357
0.037783
0.0380048
0.0378558
0.0373079
0.0363551
0.0350145
0.0333227
0.0313325
0.0291111
0.0267576
0.0244408
0.0087618
0.00883077
0.00899891
0.00928914
0.00969186
0.0101778
0.0107199
0.0113065
0.0119409
0.0126338
0.0133967
0.0142392
0.0151681
0.0161885
0.0173049
0.0185214
0.0198441
0.0212799
0.0228364
0.024524
0.0269886
0.0296168
0.0317106
0.033747
0.0356892
0.037516
0.0392115
0.0407509
0.0420911
0.0431716
0.0439219
0.0442716
0.0441625
0.0435588
0.0424531
0.0408693
0.038856
0.0364773
0.0338011
0.0309089
0.0279607
0.00980601
0.00987336
0.0100822
0.0104405
0.010917
0.0114686
0.0120664
0.0127044
0.0133927
0.0141468
0.0149811
0.0159065
0.0169312
0.0180625
0.0193072
0.0206729
0.0221687
0.0238047
0.0255916
0.0275426
0.0303095
0.0332825
0.0357634
0.0382331
0.0406407
0.042943
0.0451029
0.0470767
0.048805
0.0502106
0.0512049
0.0516996
0.0516211
0.0509249
0.0496042
0.047694
0.0452638
0.0424017
0.0391889
0.0356839
0.0319833
0.0110903
0.0111839
0.0114721
0.0119276
0.0124892
0.013104
0.0137499
0.0144331
0.015173
0.0159901
0.0169007
0.0179172
0.0190493
0.0203063
0.0216985
0.0232364
0.0249327
0.0268009
0.0288552
0.0311123
0.0342236
0.0375857
0.0405108
0.0434802
0.0464321
0.0493022
0.0520264
0.0545339
0.0567393
0.05854
0.0598224
0.0604752
0.0604067
0.0595636
0.0579423
0.0555952
0.0526216
0.0491481
0.0452899
0.0410977
0.0365549
0.0126913
0.0128718
0.0132958
0.0138739
0.0145167
0.0151781
0.0158564
0.0165759
0.0173656
0.0182494
0.0192444
0.0203637
0.0216187
0.0230213
0.0245848
0.0263235
0.0282534
0.0303921
0.0327577
0.0353712
0.0388766
0.0426811
0.0461168
0.0496603
0.0532417
0.0567769
0.0601718
0.0633203
0.0660998
0.0683709
0.0699854
0.0708019
0.0707079
0.0696421
0.0676094
0.0646874
0.0610153
0.0567713
0.0521259
0.0471565
0.0417204
0.0147446
0.0151242
0.0157451
0.0164442
0.0171353
0.0178093
0.018499
0.019247
0.0200881
0.0210461
0.0221378
0.0233764
0.0247751
0.0263485
0.0281129
0.0300869
0.0322902
0.034745
0.0374745
0.0405037
0.0444618
0.0487725
0.0527962
0.0569979
0.0613013
0.0656033
0.0697778
0.0736765
0.0771282
0.0799439
0.0819284
0.0829019
0.082728
0.0813401
0.0787591
0.075099
0.0705512
0.0653561
0.0597544
0.0538893
0.0475407
0.0175091
0.0182534
0.0190902
0.0198479
0.0205175
0.0211594
0.0218415
0.0226156
0.0235149
0.0245596
0.0257647
0.027144
0.0287124
0.0304873
0.0324887
0.0347394
0.0372639
0.0400895
0.0432448
0.0467599
0.0512397
0.0561319
0.0608329
0.0657879
0.0709132
0.0760866
0.0811478
0.0859002
0.090114
0.093537
0.0959145
0.0970197
0.0966894
0.0948558
0.0915667
0.0869865
0.0813725
0.0750374
0.0682986
0.0613912
0.054123
0.0214803
0.0227342
0.0236765
0.0243488
0.0249054
0.0254758
0.026141
0.0269453
0.0279132
0.0290597
0.0303981
0.0319431
0.0337119
0.0357249
0.0380062
0.0405831
0.043486
0.0467475
0.050402
0.0544849
0.059567
0.0651276
0.0706069
0.0764197
0.0824724
0.0886212
0.0946682
0.100363
0.105408
0.109477
0.112245
0.113431
0.112843
0.110421
0.106249
0.10056
0.0936885
0.0860307
0.0779809
0.0698685
0.061656
0.0275236
0.0291741
0.0299149
0.030316
0.0306859
0.0311645
0.0318105
0.0326489
0.0336935
0.0349553
0.0364472
0.0381853
0.0401891
0.0424828
0.0450946
0.048057
0.0514062
0.0551807
0.0594202
0.0641646
0.0699415
0.0762674
0.082634
0.0894139
0.0964982
0.103717
0.11083
0.117527
0.123437
0.128152
0.131271
0.132455
0.131489
0.128324
0.123098
0.116121
0.10782
0.0986789
0.0891683
0.0796912
0.0704355
0.0368758
0.0382173
0.0383558
0.038361
0.0385129
0.0388868
0.0395022
0.0403667
0.041487
0.0428722
0.0445358
0.0464952
0.0487728
0.0513963
0.0543982
0.0578159
0.0616909
0.0660671
0.0709887
0.0764985
0.0830699
0.0902634
0.0976258
0.105475
0.11368
0.122038
0.13026
0.137973
0.144728
0.150034
0.153417
0.154485
0.153005
0.148952
0.142527
0.134123
0.124266
0.11352
0.102443
0.0914563
0.0808891
0.0507965
0.0506411
0.0499776
0.0495624
0.0494672
0.0496958
0.0502421
0.0511043
0.0522857
0.0537941
0.0556437
0.0578528
0.0604464
0.0634549
0.0669144
0.0708663
0.0753557
0.0804302
0.0861365
0.0925175
0.0999798
0.108134
0.116581
0.125571
0.134943
0.144454
0.153762
0.162428
0.169928
0.175701
0.179207
0.180018
0.177897
0.172851
0.165144
0.155253
0.143791
0.131395
0.118701
0.106074
0.094378
0.0699926
0.0680399
0.0666317
0.0657428
0.0653037
0.065295
0.065698
0.0665045
0.0677141
0.0693332
0.0713751
0.0738583
0.0768086
0.0802578
0.0842439
0.0888095
0.0940005
0.0998642
0.106446
0.113783
0.122202
0.131366
0.140931
0.151058
0.161551
0.172122
0.182377
0.191814
0.199853
0.205878
0.209315
0.20972
0.206871
0.200811
0.191858
0.180557
0.167563
0.153621
0.139276
0.125535
0.112542
0.0966205
0.0937715
0.0914707
0.0899144
0.0889588
0.0885712
0.0887178
0.0893842
0.0905633
0.0922579
0.0944793
0.0972436
0.100575
0.104503
0.109064
0.114296
0.120241
0.12694
0.134429
0.142733
0.152082
0.162193
0.172769
0.183869
0.19526
0.206608
0.217476
0.227324
0.235542
0.241502
0.244634
0.244513
0.240945
0.234006
0.224036
0.211637
0.197379
0.182267
0.166985
0.152027
0.137798
0.136899
0.132984
0.129796
0.127303
0.125629
0.124687
0.124431
0.124837
0.125888
0.127582
0.129923
0.132923
0.136599
0.140972
0.146069
0.151918
0.158548
0.165982
0.174236
0.18331
0.193329
0.204058
0.21524
0.226828
0.238556
0.250064
0.260899
0.270526
0.278361
0.28382
0.286391
0.285705
0.281607
0.274194
0.263768
0.25091
0.236432
0.220953
0.205116
0.189474
0.17442
0.199819
0.194913
0.190784
0.187503
0.18506
0.183427
0.182643
0.182654
0.183431
0.184967
0.187255
0.190296
0.194093
0.198652
0.203979
0.210081
0.216961
0.224614
0.233024
0.242157
0.25203
0.262454
0.273208
0.284161
0.295043
0.305512
0.315162
0.323533
0.330146
0.334537
0.336314
0.335202
0.331084
0.324019
0.314397
0.30263
0.289242
0.274787
0.259802
0.244766
0.229997
0.301362
0.296699
0.292568
0.28917
0.28652
0.284623
0.283478
0.283077
0.283416
0.284481
0.286254
0.288718
0.29186
0.295664
0.300112
0.305183
0.310849
0.317076
0.323817
0.331013
0.338608
0.346471
0.354441
0.362375
0.370073
0.377299
0.383789
0.389262
0.393437
0.396056
0.396904
0.395818
0.392757
0.387793
0.381073
0.372826
0.363338
0.352919
0.341887
0.330543
0.31899
0.0418535
0.0130612
0.00685762
0.00516756
0.00457061
0.00442145
0.00450867
0.00475022
0.00509153
0.00545889
0.00578438
0.00604377
0.00628671
0.00661679
0.00711427
0.00772144
0.00805559
0.0410511
0.0135691
0.006969
0.00520898
0.00457526
0.00437619
0.0043795
0.00449504
0.00466801
0.00484955
0.00500065
0.00511079
0.00520914
0.00534891
0.00556671
0.00585248
0.00620417
0.0403805
0.0141948
0.0070936
0.0052344
0.00456448
0.00432565
0.00427
0.00430002
0.00436421
0.00442871
0.00447236
0.00449287
0.00451139
0.00456559
0.00469956
0.00497742
0.00554644
0.0403299
0.0148452
0.0072234
0.00526208
0.00455499
0.00428197
0.00418003
0.00414886
0.00414166
0.00413419
0.00411521
0.00408586
0.00405995
0.00405789
0.00409404
0.00415791
0.00416346
0.0408868
0.0155371
0.00736505
0.00529343
0.00454652
0.00424266
0.00410469
0.00403014
0.00397666
0.00392641
0.0038732
0.00381906
0.00377227
0.00374308
0.00373661
0.00374832
0.00376737
0.0420072
0.0162507
0.00751797
0.00533293
0.00454342
0.00420857
0.00403953
0.00393329
0.00385022
0.00377642
0.00370773
0.00364587
0.00359618
0.00356547
0.00356052
0.00358909
0.00366388
0.0436174
0.0169379
0.00767548
0.00538138
0.0045481
0.0041807
0.00398284
0.00385172
0.00375011
0.00366452
0.00359142
0.00353078
0.00348464
0.00345529
0.00344372
0.00344734
0.00345657
0.0456539
0.0175182
0.0078176
0.00543495
0.00456076
0.0041594
0.00393365
0.00378189
0.00366803
0.00357818
0.00350675
0.00345198
0.00341306
0.00338969
0.00338153
0.00338832
0.0034105
0.0481013
0.0179301
0.00791864
0.00548061
0.00457566
0.00414257
0.00389108
0.00372253
0.00360086
0.00351136
0.00344626
0.00340061
0.00337185
0.0033585
0.0033598
0.00337573
0.0034065
0.0510638
0.0182609
0.00798611
0.00551054
0.00458226
0.0041236
0.00385145
0.00367109
0.00354654
0.00346136
0.00340559
0.0033724
0.00335706
0.0033566
0.00336921
0.00339349
0.00342803
0.0549594
0.0189282
0.00812208
0.0055572
0.00458994
0.00410506
0.00381619
0.00362837
0.00350422
0.00342495
0.0033784
0.00335557
0.00334984
0.00335669
0.0033734
0.00339863
0.00343178
0.060629
0.020624
0.00850362
0.00569057
0.00463864
0.00411529
0.00380918
0.00361573
0.00349261
0.00341824
0.0033788
0.00336399
0.00336584
0.00337843
0.00339774
0.00342127
0.00344712
0.0687713
0.0239092
0.00926386
0.00594721
0.00474614
0.00416758
0.00383999
0.0036391
0.00351441
0.00344103
0.00340419
0.00339366
0.00340172
0.00342257
0.00345218
0.00348827
0.00352995
0.0794532
0.0286824
0.0104165
0.00632485
0.00491228
0.00426182
0.00390665
0.00369458
0.00356485
0.0034883
0.00344851
0.00343493
0.00343992
0.00345753
0.00348317
0.00351397
0.00354934
0.0921653
0.0342123
0.0118314
0.00679451
0.00513725
0.00440243
0.00401251
0.00378432
0.00364589
0.00356329
0.00351814
0.00349935
0.00349963
0.00351338
0.00353539
0.00356017
0.00358156
0.106217
0.0402742
0.0132899
0.0073296
0.00542498
0.00459445
0.00416045
0.00390932
0.00375722
0.00366488
0.00361151
0.00358505
0.00357839
0.00358726
0.00360885
0.00364081
0.0036811
0.121031
0.0462005
0.0146082
0.00793071
0.0057863
0.00484452
0.00435409
0.00407135
0.00389914
0.00379233
0.00372711
0.0036897
0.00367186
0.00366877
0.00367768
0.00369684
0.00372558
0.135914
0.0509075
0.0158261
0.00863859
0.00623902
0.00516202
0.00459851
0.00427295
0.00407293
0.00394616
0.00386531
0.00381467
0.0037847
0.00376967
0.0037661
0.00377089
0.00377741
0.15048
0.0534174
0.0171351
0.00951451
0.00680738
0.00555956
0.00490055
0.00451798
0.00428059
0.0041271
0.00402579
0.00395853
0.00391438
0.00388683
0.00387274
0.00387227
0.00388872
0.164522
0.0538788
0.0187497
0.0106307
0.00752369
0.00605548
0.00527052
0.00481201
0.00452518
0.00433681
0.00420915
0.00412092
0.00405924
0.004016
0.00398617
0.00396781
0.00396475
0.177013
0.0536965
0.0209225
0.0120517
0.00842982
0.0066737
0.00572246
0.00516313
0.00481128
0.00457785
0.00441687
0.0043027
0.00421999
0.00415903
0.00411328
0.00407779
0.00404619
0.186618
0.0549404
0.0239687
0.0138674
0.00957599
0.00744508
0.00627511
0.00558239
0.00514523
0.00485384
0.00465096
0.00450486
0.00439678
0.00431504
0.00425216
0.00420349
0.00416895
0.195267
0.0584696
0.0272303
0.0160342
0.0109867
0.0083987
0.0069509
0.0060849
0.00553631
0.00517014
0.00491431
0.00472865
0.00458993
0.00448363
0.00440043
0.00433403
0.00428073
0.20379
0.0639285
0.0307485
0.0183412
0.0125366
0.00947028
0.00771778
0.00665482
0.00597633
0.00552204
0.0052041
0.00497283
0.00479899
0.00466465
0.0045584
0.00447272
0.00440238
0.212264
0.0698328
0.034468
0.0207928
0.0142075
0.0106415
0.00856321
0.00728432
0.00646025
0.00590583
0.00551705
0.00523385
0.00502048
0.004855
0.00472357
0.0046172
0.00452924
0.220559
0.0755359
0.0381581
0.0232866
0.0159467
0.0118834
0.00947065
0.0079638
0.00698253
0.00631815
0.00585093
0.00551021
0.00525331
0.00505388
0.00489526
0.00476644
0.00466001
0.228069
0.0805842
0.0415587
0.0256676
0.0176609
0.0131406
0.0104081
0.00867531
0.0075333
0.00675369
0.00620287
0.00580037
0.00549674
0.0052611
0.00507373
0.00492161
0.00479633
0.23388
0.0845205
0.0444522
0.0277951
0.0192535
0.0143488
0.0113348
0.00939425
0.00809849
0.00720499
0.00656958
0.00610369
0.00575192
0.00547901
0.00526218
0.00508638
0.0049412
0.237024
0.0871927
0.0466794
0.0295538
0.0206415
0.0154493
0.0122119
0.0100974
0.00866636
0.00766884
0.00695424
0.00642809
0.00602974
0.0057198
0.00547244
0.00527031
0.0051014
0.236566
0.0882946
0.0480273
0.0308059
0.0217363
0.0163849
0.0130157
0.0108026
0.00929108
0.00822163
0.00743835
0.00684736
0.00638973
0.00602665
0.00573217
0.00548863
0.00528405
0.231916
0.0876238
0.0483753
0.0314646
0.0224776
0.0171519
0.0137582
0.0114773
0.00988765
0.00874429
0.00789714
0.00724937
0.0067378
0.00632205
0.00598108
0.00569773
0.00545933
0.222961
0.0851518
0.0477207
0.0315325
0.0228879
0.0176935
0.0143324
0.0120422
0.0104176
0.0092254
0.00832395
0.00762346
0.00706527
0.00661031
0.00622784
0.00590266
0.00562821
0.210086
0.0810693
0.0462136
0.0311204
0.023008
0.0180825
0.0148443
0.0125915
0.0109552
0.00972475
0.00877218
0.00801604
0.00740268
0.00689604
0.00647139
0.00610913
0.00579577
0.194105
0.0758497
0.0442202
0.0304958
0.0230633
0.0184794
0.0153967
0.0131936
0.011547
0.010274
0.00926318
0.00844319
0.0077665
0.00720052
0.00672236
0.00631564
0.00596593
0.176093
0.0703476
0.0423945
0.0301247
0.0233711
0.0190971
0.0161317
0.0139425
0.012255
0.0109136
0.00982314
0.00892179
0.00816755
0.00753087
0.0069903
0.00652997
0.00613758
0.157207
0.0658853
0.0417519
0.0307172
0.0243809
0.0202223
0.0172332
0.0149564
0.0131546
0.0116916
0.0104824
0.00947085
0.0086177
0.00789448
0.00727992
0.00675741
0.00631399
0.138523
0.0644555
0.0437631
0.0332364
0.0266601
0.0221998
0.0189144
0.0163681
0.0143288
0.0126596
0.011273
0.0101102
0.00912901
0.00829863
0.00759551
0.00700113
0.00650016
0.120916
0.0692178
0.0504584
0.038904
0.0308731
0.0254112
0.0214023
0.0183155
0.0158623
0.0138701
0.0122277
0.0108601
0.00971418
0.00875134
0.00794233
0.00726434
0.00669848
0.104981
0.0853424
0.0646921
0.0493026
0.0378894
0.0303319
0.0249707
0.0209573
0.0178476
0.0153774
0.0133786
0.0117397
0.0103846
0.00925933
0.00832442
0.00754937
0.00690968
0.091054
0.122237
0.0908559
0.0669061
0.0499752
0.037999
0.030097
0.0245286
0.0204107
0.0172538
0.0147688
0.0127755
0.0111568
0.0098333
0.00874892
0.00786186
0.00713894
0.0189133
0.0419298
0.0742877
0.121755
0.261244
0.627759
1.05144
0.946589
0.470195
0.27823
0.237782
0.219943
0.176511
0.144315
0.11996
0.100422
0.0832037
0.0663538
0.049131
0.0313358
0.0226406
0.0519951
0.0905273
0.134863
0.261399
0.647525
1.15879
1.08472
0.50213
0.286911
0.262845
0.260707
0.215023
0.177815
0.147826
0.123351
0.101849
0.0811798
0.0605009
0.0394765
0.0272697
0.0647029
0.111813
0.154687
0.262841
0.651233
1.255
1.26151
0.562174
0.305794
0.290616
0.30612
0.260901
0.219031
0.182098
0.151592
0.124918
0.0997798
0.0751936
0.050381
0.0330902
0.0804934
0.139136
0.182872
0.27034
0.640199
1.32686
1.46571
0.648154
0.326688
0.316571
0.35389
0.317451
0.269279
0.22426
0.18645
0.15361
0.123402
0.0945988
0.0654589
0.0405774
0.100045
0.174206
0.221264
0.289446
0.617485
1.36287
1.70943
0.76966
0.36564
0.341657
0.405922
0.382462
0.329595
0.276368
0.229893
0.189814
0.154019
0.120877
0.0869382
0.0505934
0.124229
0.219022
0.272352
0.319068
0.592348
1.35002
1.94761
0.926247
0.406183
0.374759
0.462175
0.452071
0.403243
0.341539
0.285229
0.236665
0.194692
0.157219
0.118124
0.0648265
0.154558
0.277102
0.338002
0.359722
0.580598
1.27758
2.10239
1.26885
0.515997
0.429968
0.517083
0.527936
0.489688
0.424582
0.358261
0.299535
0.250011
0.208069
0.163619
0.083221
0.195031
0.35402
0.415431
0.408781
0.564152
1.17219
2.1064
1.56484
0.706068
0.508447
0.57815
0.612286
0.589285
0.528307
0.455092
0.38651
0.327025
0.279563
0.229547
0.107354
0.248991
0.451844
0.495843
0.461669
0.548539