/*--------------------------------*- C++ -*----------------------------------*\
  =========                 |
  \\      /  F ield         | OpenFOAM: The Open Source CFD Toolbox
   \\    /   O peration     | Website:  https://openfoam.org
    \\  /    A nd           | Version:  6
     \\/     M anipulation  |
\*---------------------------------------------------------------------------*/
FoamFile
{
    version     2.0;
    format      ascii;
    class       volVectorField;
    location    "3.93";
    object      U;
}
// * * * * * * * * * * * * * * * * * * * * * * * * * * * * * * * * * * * * * //

dimensions      [0 1 -1 0 0 0 0];

internalField   nonuniform List<vector> 
5625
(
(0.894437 0.447194 0)
(0.894426 0.447196 0)
(0.894418 0.447197 0)
(0.894413 0.447198 0)
(0.894409 0.447199 0)
(0.894406 0.447199 0)
(0.894404 0.447199 0)
(0.894403 0.4472 0)
(0.894402 0.4472 0)
(0.894401 0.4472 0)
(0.894401 0.4472 0)
(0.8944 0.4472 0)
(0.894401 0.4472 0)
(0.8944 0.4472 0)
(0.8944 0.4472 0)
(0.8944 0.4472 0)
(0.8944 0.4472 0)
(0.8944 0.4472 0)
(0.8944 0.4472 0)
(0.8944 0.4472 0)
(0.8944 0.4472 0)
(0.8944 0.4472 0)
(0.8944 0.4472 0)
(0.8944 0.4472 0)
(0.8944 0.4472 0)
(0.8944 0.4472 0)
(0.8944 0.4472 0)
(0.8944 0.4472 0)
(0.8944 0.4472 0)
(0.8944 0.4472 0)
(0.8944 0.4472 0)
(0.894399 0.4472 0)
(0.894401 0.4472 0)
(0.894399 0.4472 0)
(0.894401 0.4472 0)
(0.8944 0.4472 0)
(0.894401 0.4472 0)
(0.894398 0.447199 0)
(0.894402 0.447201 0)
(0.894398 0.447199 0)
(0.894401 0.4472 0)
(0.894399 0.447201 0)
(0.894401 0.447199 0)
(0.894401 0.4472 0)
(0.894401 0.447201 0)
(0.894402 0.4472 0)
(0.894403 0.447201 0)
(0.894405 0.4472 0)
(0.894407 0.447202 0)
(0.894412 0.447202 0)
(0.894414 0.447201 0)
(0.894425 0.447204 0)
(0.89443 0.447203 0)
(0.894445 0.447208 0)
(0.894455 0.447208 0)
(0.89447 0.447209 0)
(0.894479 0.447211 0)
(0.894485 0.447208 0)
(0.894469 0.447201 0)
(0.894423 0.447179 0)
(0.894316 0.447143 0)
(0.894117 0.447069 0)
(0.893761 0.44694 0)
(0.893175 0.446725 0)
(0.892256 0.446373 0)
(0.890859 0.44583 0)
(0.888834 0.445015 0)
(0.886024 0.443834 0)
(0.882314 0.442217 0)
(0.877789 0.440143 0)
(0.872847 0.437717 0)
(0.868223 0.435237 0)
(0.864786 0.433075 0)
(0.863178 0.431499 0)
(0.863609 0.430606 0)
(0.894435 0.447193 0)
(0.894425 0.447195 0)
(0.894417 0.447197 0)
(0.894412 0.447198 0)
(0.894408 0.447198 0)
(0.894406 0.447199 0)
(0.894404 0.447199 0)
(0.894402 0.447199 0)
(0.894402 0.4472 0)
(0.894401 0.4472 0)
(0.894401 0.4472 0)
(0.8944 0.4472 0)
(0.8944 0.4472 0)
(0.8944 0.4472 0)
(0.8944 0.4472 0)
(0.8944 0.4472 0)
(0.8944 0.4472 0)
(0.8944 0.4472 0)
(0.8944 0.4472 0)
(0.8944 0.4472 0)
(0.8944 0.4472 0)
(0.8944 0.4472 0)
(0.8944 0.4472 0)
(0.8944 0.4472 0)
(0.8944 0.4472 0)
(0.8944 0.4472 0)
(0.8944 0.4472 0)
(0.8944 0.4472 0)
(0.8944 0.4472 0)
(0.894399 0.4472 0)
(0.894401 0.4472 0)
(0.894399 0.4472 0)
(0.8944 0.4472 0)
(0.8944 0.4472 0)
(0.8944 0.4472 0)
(0.894399 0.4472 0)
(0.894402 0.4472 0)
(0.894398 0.4472 0)
(0.894401 0.4472 0)
(0.894399 0.447199 0)
(0.894402 0.4472 0)
(0.894398 0.4472 0)
(0.894402 0.4472 0)
(0.8944 0.4472 0)
(0.894401 0.4472 0)
(0.894402 0.4472 0)
(0.894402 0.447202 0)
(0.894405 0.447199 0)
(0.894407 0.447202 0)
(0.894411 0.447202 0)
(0.894415 0.447202 0)
(0.894424 0.447205 0)
(0.894428 0.447204 0)
(0.894444 0.447208 0)
(0.894454 0.447211 0)
(0.894469 0.447211 0)
(0.894478 0.447215 0)
(0.894488 0.447214 0)
(0.894477 0.447207 0)
(0.894442 0.447193 0)
(0.894358 0.44716 0)
(0.894187 0.447099 0)
(0.893883 0.446981 0)
(0.893377 0.446788 0)
(0.892576 0.446468 0)
(0.891352 0.445966 0)
(0.889555 0.445209 0)
(0.887038 0.444097 0)
(0.883667 0.44255 0)
(0.879447 0.440523 0)
(0.874664 0.438077 0)
(0.869944 0.435458 0)
(0.866121 0.433045 0)
(0.863904 0.431175 0)
(0.86364 0.430009 0)
(0.894433 0.447193 0)
(0.894423 0.447195 0)
(0.894416 0.447197 0)
(0.894411 0.447198 0)
(0.894408 0.447198 0)
(0.894405 0.447199 0)
(0.894404 0.447199 0)
(0.894402 0.447199 0)
(0.894402 0.4472 0)
(0.894401 0.4472 0)
(0.894401 0.4472 0)
(0.8944 0.4472 0)
(0.8944 0.4472 0)
(0.8944 0.4472 0)
(0.8944 0.4472 0)
(0.8944 0.4472 0)
(0.8944 0.4472 0)
(0.8944 0.4472 0)
(0.8944 0.4472 0)
(0.894401 0.4472 0)
(0.8944 0.4472 0)
(0.8944 0.4472 0)
(0.8944 0.4472 0)
(0.8944 0.4472 0)
(0.8944 0.4472 0)
(0.8944 0.4472 0)
(0.8944 0.4472 0)
(0.8944 0.4472 0)
(0.8944 0.4472 0)
(0.8944 0.4472 0)
(0.8944 0.4472 0)
(0.8944 0.4472 0)
(0.8944 0.4472 0)
(0.8944 0.4472 0)
(0.8944 0.4472 0)
(0.894401 0.4472 0)
(0.894399 0.4472 0)
(0.894401 0.447201 0)
(0.894399 0.447199 0)
(0.8944 0.447201 0)
(0.894401 0.4472 0)
(0.894399 0.4472 0)
(0.894402 0.4472 0)
(0.8944 0.447201 0)
(0.894401 0.4472 0)
(0.894403 0.447199 0)
(0.894402 0.447201 0)
(0.894405 0.4472 0)
(0.894407 0.447203 0)
(0.894409 0.447201 0)
(0.894415 0.447204 0)
(0.894421 0.447204 0)
(0.894429 0.447206 0)
(0.894438 0.447208 0)
(0.894454 0.447212 0)
(0.894466 0.447214 0)
(0.894478 0.447217 0)
(0.894488 0.447219 0)
(0.894486 0.447215 0)
(0.894457 0.447204 0)
(0.894391 0.447179 0)
(0.894248 0.447124 0)
(0.893994 0.447023 0)
(0.893562 0.446851 0)
(0.892865 0.446563 0)
(0.891803 0.446106 0)
(0.89023 0.445408 0)
(0.887995 0.44438 0)
(0.884967 0.442922 0)
(0.881091 0.440969 0)
(0.876535 0.438547 0)
(0.871811 0.435838 0)
(0.867688 0.433198 0)
(0.864914 0.43102 0)
(0.863951 0.429536 0)
(0.89443 0.447192 0)
(0.894422 0.447195 0)
(0.894415 0.447196 0)
(0.894411 0.447197 0)
(0.894408 0.447198 0)
(0.894405 0.447199 0)
(0.894404 0.447199 0)
(0.894402 0.447199 0)
(0.894402 0.4472 0)
(0.894401 0.4472 0)
(0.894401 0.4472 0)
(0.8944 0.4472 0)
(0.8944 0.4472 0)
(0.8944 0.4472 0)
(0.8944 0.4472 0)
(0.8944 0.4472 0)
(0.8944 0.4472 0)
(0.8944 0.4472 0)
(0.8944 0.4472 0)
(0.8944 0.4472 0)
(0.8944 0.4472 0)
(0.8944 0.4472 0)
(0.8944 0.4472 0)
(0.8944 0.4472 0)
(0.8944 0.4472 0)
(0.8944 0.4472 0)
(0.8944 0.4472 0)
(0.8944 0.4472 0)
(0.8944 0.4472 0)
(0.8944 0.4472 0)
(0.8944 0.447201 0)
(0.8944 0.447199 0)
(0.8944 0.4472 0)
(0.894401 0.4472 0)
(0.894399 0.4472 0)
(0.894401 0.4472 0)
(0.894399 0.447199 0)
(0.894402 0.447201 0)
(0.894398 0.447199 0)
(0.894402 0.4472 0)
(0.894399 0.4472 0)
(0.894401 0.4472 0)
(0.894399 0.4472 0)
(0.894402 0.4472 0)
(0.8944 0.447201 0)
(0.894402 0.447199 0)
(0.894403 0.447201 0)
(0.894403 0.4472 0)
(0.894408 0.447202 0)
(0.894408 0.447202 0)
(0.894414 0.447203 0)
(0.894419 0.447204 0)
(0.89443 0.447208 0)
(0.894435 0.447209 0)
(0.894452 0.447211 0)
(0.894464 0.447218 0)
(0.894477 0.447218 0)
(0.894487 0.447223 0)
(0.89449 0.447222 0)
(0.894471 0.447214 0)
(0.894416 0.447196 0)
(0.894303 0.447146 0)
(0.894089 0.447063 0)
(0.893724 0.446911 0)
(0.893129 0.446656 0)
(0.892212 0.446245 0)
(0.890848 0.445612 0)
(0.888887 0.444671 0)
(0.886196 0.443318 0)
(0.882686 0.44147 0)
(0.878427 0.439111 0)
(0.873797 0.436367 0)
(0.869472 0.433549 0)
(0.866212 0.431064 0)
(0.864575 0.429229 0)
(0.894428 0.447192 0)
(0.89442 0.447194 0)
(0.894414 0.447196 0)
(0.89441 0.447197 0)
(0.894407 0.447198 0)
(0.894405 0.447199 0)
(0.894403 0.447199 0)
(0.894402 0.4472 0)
(0.894401 0.4472 0)
(0.894401 0.4472 0)
(0.894401 0.4472 0)
(0.8944 0.4472 0)
(0.8944 0.4472 0)
(0.8944 0.4472 0)
(0.8944 0.4472 0)
(0.8944 0.4472 0)
(0.8944 0.4472 0)
(0.8944 0.4472 0)
(0.8944 0.4472 0)
(0.8944 0.4472 0)
(0.8944 0.4472 0)
(0.8944 0.4472 0)
(0.8944 0.4472 0)
(0.8944 0.4472 0)
(0.8944 0.4472 0)
(0.8944 0.4472 0)
(0.8944 0.4472 0)
(0.8944 0.4472 0)
(0.8944 0.4472 0)
(0.8944 0.4472 0)
(0.8944 0.4472 0)
(0.8944 0.4472 0)
(0.8944 0.4472 0)
(0.894399 0.4472 0)
(0.8944 0.4472 0)
(0.8944 0.4472 0)
(0.894399 0.4472 0)
(0.8944 0.4472 0)
(0.8944 0.4472 0)
(0.8944 0.4472 0)
(0.8944 0.4472 0)
(0.894401 0.4472 0)
(0.894399 0.447199 0)
(0.894402 0.4472 0)
(0.8944 0.447201 0)
(0.894402 0.4472 0)
(0.894403 0.447201 0)
(0.894402 0.4472 0)
(0.894407 0.447202 0)
(0.894408 0.447202 0)
(0.894412 0.447203 0)
(0.894417 0.447205 0)
(0.894428 0.447206 0)
(0.894435 0.44721 0)
(0.894446 0.447212 0)
(0.894461 0.447217 0)
(0.894475 0.447223 0)
(0.894485 0.447224 0)
(0.894491 0.447229 0)
(0.894481 0.447223 0)
(0.894437 0.447208 0)
(0.894348 0.447172 0)
(0.894171 0.447099 0)
(0.893864 0.446968 0)
(0.893366 0.446745 0)
(0.89258 0.446381 0)
(0.891406 0.445815 0)
(0.889709 0.444964 0)
(0.887343 0.443726 0)
(0.884206 0.442007 0)
(0.880299 0.439751 0)
(0.875857 0.43703 0)
(0.871443 0.434092 0)
(0.867792 0.431334 0)
(0.86553 0.429131 0)
(0.894426 0.447192 0)
(0.894418 0.447194 0)
(0.894413 0.447196 0)
(0.894409 0.447197 0)
(0.894406 0.447198 0)
(0.894404 0.447199 0)
(0.894403 0.447199 0)
(0.894402 0.447199 0)
(0.894401 0.4472 0)
(0.894401 0.4472 0)
(0.894401 0.4472 0)
(0.8944 0.4472 0)
(0.8944 0.4472 0)
(0.8944 0.4472 0)
(0.8944 0.4472 0)
(0.8944 0.4472 0)
(0.8944 0.4472 0)
(0.8944 0.4472 0)
(0.8944 0.4472 0)
(0.8944 0.4472 0)
(0.8944 0.4472 0)
(0.8944 0.4472 0)
(0.8944 0.4472 0)
(0.8944 0.4472 0)
(0.8944 0.4472 0)
(0.8944 0.4472 0)
(0.8944 0.4472 0)
(0.8944 0.4472 0)
(0.894399 0.4472 0)
(0.894401 0.4472 0)
(0.8944 0.4472 0)
(0.894399 0.4472 0)
(0.894401 0.4472 0)
(0.894399 0.4472 0)
(0.894401 0.4472 0)
(0.894399 0.4472 0)
(0.894401 0.4472 0)
(0.894399 0.4472 0)
(0.894402 0.447201 0)
(0.894398 0.447199 0)
(0.894402 0.4472 0)
(0.894399 0.447201 0)
(0.8944 0.4472 0)
(0.8944 0.4472 0)
(0.894401 0.4472 0)
(0.894401 0.447201 0)
(0.894402 0.4472 0)
(0.894404 0.447201 0)
(0.894404 0.447201 0)
(0.89441 0.447203 0)
(0.894411 0.447204 0)
(0.894417 0.447204 0)
(0.894423 0.447207 0)
(0.894435 0.447211 0)
(0.894442 0.447214 0)
(0.894459 0.447217 0)
(0.89447 0.447225 0)
(0.894484 0.447228 0)
(0.89449 0.447231 0)
(0.894486 0.447231 0)
(0.894456 0.447219 0)
(0.894384 0.447192 0)
(0.894243 0.447131 0)
(0.893987 0.447022 0)
(0.893569 0.446828 0)
(0.892908 0.446511 0)
(0.891905 0.446012 0)
(0.890448 0.445248 0)
(0.888398 0.444135 0)
(0.885631 0.442561 0)
(0.882104 0.440447 0)
(0.877943 0.437806 0)
(0.873564 0.434819 0)
(0.869633 0.431841 0)
(0.866819 0.42928 0)
(0.894424 0.447192 0)
(0.894417 0.447194 0)
(0.894412 0.447196 0)
(0.894408 0.447197 0)
(0.894406 0.447198 0)
(0.894404 0.447199 0)
(0.894403 0.447199 0)
(0.894402 0.4472 0)
(0.894401 0.4472 0)
(0.894401 0.4472 0)
(0.894401 0.4472 0)
(0.8944 0.4472 0)
(0.8944 0.4472 0)
(0.8944 0.4472 0)
(0.8944 0.4472 0)
(0.8944 0.4472 0)
(0.8944 0.4472 0)
(0.8944 0.4472 0)
(0.8944 0.4472 0)
(0.8944 0.4472 0)
(0.8944 0.4472 0)
(0.8944 0.447199 0)
(0.8944 0.4472 0)
(0.8944 0.4472 0)
(0.8944 0.4472 0)
(0.8944 0.4472 0)
(0.8944 0.4472 0)
(0.8944 0.4472 0)
(0.8944 0.4472 0)
(0.8944 0.4472 0)
(0.8944 0.4472 0)
(0.8944 0.4472 0)
(0.8944 0.447199 0)
(0.8944 0.4472 0)
(0.8944 0.4472 0)
(0.8944 0.4472 0)
(0.8944 0.4472 0)
(0.8944 0.4472 0)
(0.8944 0.4472 0)
(0.8944 0.4472 0)
(0.894401 0.4472 0)
(0.894399 0.447199 0)
(0.894402 0.447201 0)
(0.894399 0.4472 0)
(0.894401 0.4472 0)
(0.894402 0.4472 0)
(0.8944 0.447201 0)
(0.894405 0.4472 0)
(0.894404 0.447202 0)
(0.894406 0.447201 0)
(0.894412 0.447205 0)
(0.894416 0.447204 0)
(0.894421 0.447207 0)
(0.894431 0.447209 0)
(0.894441 0.447214 0)
(0.894453 0.447219 0)
(0.894467 0.447223 0)
(0.89448 0.447231 0)
(0.894489 0.447235 0)
(0.894488 0.447235 0)
(0.894469 0.447231 0)
(0.894412 0.447208 0)
(0.894299 0.447161 0)
(0.894092 0.44707 0)
(0.893745 0.446904 0)
(0.893193 0.446632 0)
(0.892347 0.446197 0)
(0.891108 0.445525 0)
(0.88935 0.444533 0)
(0.886947 0.443114 0)
(0.883815 0.441169 0)
(0.879999 0.438666 0)
(0.875777 0.435707 0)
(0.871704 0.432582 0)
(0.868439 0.429705 0)
(0.894421 0.447192 0)
(0.894415 0.447195 0)
(0.894411 0.447196 0)
(0.894408 0.447197 0)
(0.894405 0.447198 0)
(0.894404 0.447199 0)
(0.894402 0.447199 0)
(0.894402 0.447199 0)
(0.894401 0.4472 0)
(0.894401 0.4472 0)
(0.8944 0.4472 0)
(0.8944 0.4472 0)
(0.8944 0.4472 0)
(0.8944 0.4472 0)
(0.8944 0.4472 0)
(0.8944 0.4472 0)
(0.8944 0.4472 0)
(0.8944 0.4472 0)
(0.8944 0.4472 0)
(0.8944 0.4472 0)
(0.8944 0.4472 0)
(0.894399 0.4472 0)
(0.8944 0.4472 0)
(0.8944 0.4472 0)
(0.8944 0.4472 0)
(0.8944 0.4472 0)
(0.8944 0.4472 0)
(0.8944 0.4472 0)
(0.8944 0.4472 0)
(0.8944 0.4472 0)
(0.8944 0.447199 0)
(0.8944 0.447201 0)
(0.8944 0.447199 0)
(0.8944 0.4472 0)
(0.8944 0.4472 0)
(0.894401 0.4472 0)
(0.894398 0.4472 0)
(0.894401 0.447201 0)
(0.894399 0.447199 0)
(0.894401 0.447201 0)
(0.894399 0.447199 0)
(0.894401 0.4472 0)
(0.894399 0.447201 0)
(0.894402 0.447199 0)
(0.894399 0.447201 0)
(0.894402 0.4472 0)
(0.894402 0.447201 0)
(0.894402 0.447199 0)
(0.894406 0.447203 0)
(0.894405 0.447202 0)
(0.89441 0.447203 0)
(0.894414 0.447206 0)
(0.894421 0.447206 0)
(0.894426 0.44721 0)
(0.894441 0.447213 0)
(0.894446 0.44722 0)
(0.894464 0.447224 0)
(0.894475 0.44723 0)
(0.894487 0.447238 0)
(0.894489 0.447239 0)
(0.894475 0.447238 0)
(0.894436 0.447224 0)
(0.894345 0.447186 0)
(0.89418 0.447111 0)
(0.893896 0.446976 0)
(0.893437 0.446742 0)
(0.892732 0.446367 0)
(0.891688 0.445787 0)
(0.890197 0.444912 0)
(0.888134 0.443652 0)
(0.885403 0.441899 0)
(0.881977 0.439575 0)
(0.878015 0.436719 0)
(0.873942 0.43354 0)
(0.870363 0.430415 0)
(0.894419 0.447192 0)
(0.894414 0.447195 0)
(0.89441 0.447196 0)
(0.894407 0.447198 0)
(0.894405 0.447198 0)
(0.894403 0.447199 0)
(0.894402 0.447199 0)
(0.894401 0.4472 0)
(0.894401 0.4472 0)
(0.894401 0.4472 0)
(0.8944 0.4472 0)
(0.8944 0.4472 0)
(0.8944 0.4472 0)
(0.8944 0.4472 0)
(0.8944 0.4472 0)
(0.8944 0.4472 0)
(0.8944 0.4472 0)
(0.8944 0.4472 0)
(0.8944 0.4472 0)
(0.8944 0.4472 0)
(0.8944 0.4472 0)
(0.8944 0.4472 0)
(0.8944 0.4472 0)
(0.8944 0.4472 0)
(0.8944 0.4472 0)
(0.8944 0.4472 0)
(0.8944 0.4472 0)
(0.8944 0.4472 0)
(0.8944 0.447199 0)
(0.8944 0.447201 0)
(0.8944 0.447199 0)
(0.8944 0.4472 0)
(0.8944 0.4472 0)
(0.8944 0.4472 0)
(0.8944 0.4472 0)
(0.8944 0.447201 0)
(0.894399 0.4472 0)
(0.894401 0.4472 0)
(0.894399 0.4472 0)
(0.894401 0.4472 0)
(0.894399 0.4472 0)
(0.894401 0.4472 0)
(0.894399 0.4472 0)
(0.894402 0.447201 0)
(0.894399 0.4472 0)
(0.894402 0.4472 0)
(0.894402 0.447201 0)
(0.894401 0.4472 0)
(0.894406 0.4472 0)
(0.894405 0.447204 0)
(0.894408 0.447202 0)
(0.894412 0.447204 0)
(0.894419 0.447207 0)
(0.894424 0.44721 0)
(0.894436 0.447213 0)
(0.894444 0.447218 0)
(0.894458 0.447225 0)
(0.894471 0.447231 0)
(0.894481 0.447239 0)
(0.894487 0.447243 0)
(0.894482 0.447243 0)
(0.894452 0.447236 0)
(0.894382 0.447207 0)
(0.894251 0.447147 0)
(0.894022 0.447037 0)
(0.893647 0.446842 0)
(0.893064 0.446524 0)
(0.892194 0.446022 0)
(0.890941 0.445268 0)
(0.889191 0.444164 0)
(0.886842 0.442606 0)
(0.883832 0.440499 0)
(0.880215 0.437816 0)
(0.876281 0.434682 0)
(0.872536 0.431402 0)
(0.894417 0.447193 0)
(0.894412 0.447195 0)
(0.894409 0.447196 0)
(0.894406 0.447198 0)
(0.894404 0.447198 0)
(0.894403 0.447199 0)
(0.894402 0.447199 0)
(0.894401 0.4472 0)
(0.894401 0.4472 0)
(0.894401 0.4472 0)
(0.8944 0.4472 0)
(0.8944 0.4472 0)
(0.8944 0.4472 0)
(0.8944 0.4472 0)
(0.8944 0.4472 0)
(0.8944 0.4472 0)
(0.8944 0.4472 0)
(0.8944 0.4472 0)
(0.8944 0.4472 0)
(0.8944 0.4472 0)
(0.8944 0.4472 0)
(0.8944 0.4472 0)
(0.8944 0.4472 0)
(0.8944 0.4472 0)
(0.8944 0.4472 0)
(0.8944 0.4472 0)
(0.8944 0.447201 0)
(0.8944 0.447199 0)
(0.8944 0.4472 0)
(0.8944 0.4472 0)
(0.8944 0.4472 0)
(0.894399 0.447199 0)
(0.894401 0.4472 0)
(0.894399 0.447201 0)
(0.8944 0.447199 0)
(0.8944 0.447201 0)
(0.8944 0.4472 0)
(0.894399 0.447199 0)
(0.894401 0.447201 0)
(0.894399 0.4472 0)
(0.894401 0.4472 0)
(0.8944 0.4472 0)
(0.8944 0.4472 0)
(0.8944 0.4472 0)
(0.894402 0.447199 0)
(0.894399 0.447201 0)
(0.894402 0.447199 0)
(0.894404 0.447203 0)
(0.894401 0.4472 0)
(0.894407 0.447202 0)
(0.894407 0.447204 0)
(0.89441 0.447202 0)
(0.894417 0.447208 0)
(0.894424 0.447209 0)
(0.894429 0.447213 0)
(0.894444 0.447217 0)
(0.894452 0.447224 0)
(0.894465 0.447231 0)
(0.894478 0.447239 0)
(0.894484 0.447244 0)
(0.894482 0.447248 0)
(0.894463 0.447244 0)
(0.894411 0.447223 0)
(0.894308 0.447179 0)
(0.894125 0.44709 0)
(0.893821 0.446929 0)
(0.893346 0.446663 0)
(0.892628 0.44624 0)
(0.891583 0.445594 0)
(0.890118 0.444638 0)
(0.888129 0.443276 0)
(0.885528 0.441403 0)
(0.88231 0.438949 0)
(0.878635 0.435955 0)
(0.874887 0.432636 0)
(0.894415 0.447193 0)
(0.894411 0.447195 0)
(0.894408 0.447197 0)
(0.894405 0.447198 0)
(0.894404 0.447199 0)
(0.894402 0.447199 0)
(0.894402 0.447199 0)
(0.894401 0.447199 0)
(0.894401 0.4472 0)
(0.8944 0.4472 0)
(0.8944 0.4472 0)
(0.8944 0.4472 0)
(0.8944 0.4472 0)
(0.8944 0.4472 0)
(0.8944 0.4472 0)
(0.8944 0.4472 0)
(0.8944 0.4472 0)
(0.8944 0.4472 0)
(0.8944 0.4472 0)
(0.8944 0.4472 0)
(0.8944 0.4472 0)
(0.8944 0.4472 0)
(0.8944 0.4472 0)
(0.8944 0.4472 0)
(0.8944 0.4472 0)
(0.8944 0.4472 0)
(0.8944 0.4472 0)
(0.8944 0.4472 0)
(0.8944 0.4472 0)
(0.8944 0.447199 0)
(0.8944 0.4472 0)
(0.8944 0.4472 0)
(0.894399 0.4472 0)
(0.8944 0.447201 0)
(0.8944 0.447199 0)
(0.8944 0.4472 0)
(0.8944 0.4472 0)
(0.8944 0.447199 0)
(0.8944 0.447201 0)
(0.894399 0.4472 0)
(0.894401 0.4472 0)
(0.894399 0.447201 0)
(0.894401 0.4472 0)
(0.894399 0.447199 0)
(0.894401 0.447201 0)
(0.8944 0.4472 0)
(0.894402 0.4472 0)
(0.894402 0.4472 0)
(0.894403 0.447202 0)
(0.894405 0.4472 0)
(0.894407 0.447204 0)
(0.89441 0.447203 0)
(0.894415 0.447206 0)
(0.894421 0.44721 0)
(0.894428 0.44721 0)
(0.894436 0.447219 0)
(0.894448 0.447222 0)
(0.89446 0.447229 0)
(0.894471 0.44724 0)
(0.894481 0.447244 0)
(0.894481 0.447251 0)
(0.894469 0.44725 0)
(0.894431 0.447237 0)
(0.894351 0.447204 0)
(0.894209 0.447135 0)
(0.893967 0.447004 0)
(0.893579 0.446785 0)
(0.892994 0.446433 0)
(0.892136 0.445884 0)
(0.89092 0.445071 0)
(0.889251 0.443897 0)
(0.887046 0.44226 0)
(0.884249 0.440067 0)
(0.880925 0.437295 0)
(0.877328 0.434059 0)
(0.894414 0.447194 0)
(0.89441 0.447195 0)
(0.894407 0.447197 0)
(0.894405 0.447198 0)
(0.894403 0.447199 0)
(0.894402 0.447199 0)
(0.894402 0.447199 0)
(0.894401 0.4472 0)
(0.894401 0.4472 0)
(0.8944 0.4472 0)
(0.8944 0.4472 0)
(0.8944 0.4472 0)
(0.8944 0.4472 0)
(0.8944 0.4472 0)
(0.8944 0.4472 0)
(0.8944 0.4472 0)
(0.8944 0.4472 0)
(0.8944 0.4472 0)
(0.8944 0.4472 0)
(0.8944 0.4472 0)
(0.8944 0.4472 0)
(0.8944 0.4472 0)
(0.8944 0.4472 0)
(0.8944 0.4472 0)
(0.8944 0.4472 0)
(0.8944 0.4472 0)
(0.8944 0.4472 0)
(0.8944 0.4472 0)
(0.8944 0.4472 0)
(0.8944 0.4472 0)
(0.8944 0.4472 0)
(0.8944 0.447201 0)
(0.8944 0.4472 0)
(0.8944 0.4472 0)
(0.894401 0.447201 0)
(0.894399 0.4472 0)
(0.8944 0.447199 0)
(0.8944 0.447201 0)
(0.894399 0.447199 0)
(0.894401 0.4472 0)
(0.894399 0.447201 0)
(0.8944 0.4472 0)
(0.894402 0.4472 0)
(0.894399 0.447201 0)
(0.8944 0.447199 0)
(0.894401 0.447201 0)
(0.8944 0.447201 0)
(0.894402 0.4472 0)
(0.894403 0.447201 0)
(0.894404 0.447201 0)
(0.894406 0.447201 0)
(0.894411 0.447207 0)
(0.894411 0.447203 0)
(0.894418 0.447209 0)
(0.894425 0.447212 0)
(0.894434 0.447215 0)
(0.894443 0.447223 0)
(0.894455 0.447227 0)
(0.894464 0.447239 0)
(0.894476 0.447244 0)
(0.894482 0.44725 0)
(0.89447 0.447256 0)
(0.894444 0.447247 0)
(0.894388 0.447222 0)
(0.894272 0.44717 0)
(0.894081 0.447069 0)
(0.893775 0.44689 0)
(0.8933 0.446597 0)
(0.892602 0.446143 0)
(0.891603 0.445459 0)
(0.890222 0.44446 0)
(0.888375 0.44305 0)
(0.885993 0.441135 0)
(0.883072 0.438639 0)
(0.879752 0.435597 0)
(0.894412 0.447194 0)
(0.894408 0.447196 0)
(0.894406 0.447197 0)
(0.894404 0.447198 0)
(0.894403 0.447199 0)
(0.894402 0.447199 0)
(0.894401 0.447199 0)
(0.894401 0.4472 0)
(0.894401 0.4472 0)
(0.8944 0.4472 0)
(0.8944 0.4472 0)
(0.8944 0.4472 0)
(0.8944 0.4472 0)
(0.8944 0.4472 0)
(0.8944 0.4472 0)
(0.8944 0.4472 0)
(0.8944 0.4472 0)
(0.8944 0.4472 0)
(0.8944 0.4472 0)
(0.8944 0.4472 0)
(0.8944 0.4472 0)
(0.8944 0.4472 0)
(0.8944 0.4472 0)
(0.8944 0.4472 0)
(0.8944 0.4472 0)
(0.8944 0.4472 0)
(0.894399 0.4472 0)
(0.894401 0.4472 0)
(0.8944 0.4472 0)
(0.8944 0.4472 0)
(0.8944 0.4472 0)
(0.894401 0.4472 0)
(0.8944 0.4472 0)
(0.8944 0.4472 0)
(0.894401 0.4472 0)
(0.8944 0.4472 0)
(0.894399 0.4472 0)
(0.894401 0.4472 0)
(0.8944 0.447201 0)
(0.8944 0.4472 0)
(0.894401 0.4472 0)
(0.894398 0.4472 0)
(0.894401 0.447201 0)
(0.8944 0.447199 0)
(0.894399 0.447201 0)
(0.894401 0.4472 0)
(0.894401 0.4472 0)
(0.894401 0.447202 0)
(0.894403 0.4472 0)
(0.894404 0.447202 0)
(0.894405 0.447201 0)
(0.894408 0.447204 0)
(0.894412 0.447207 0)
(0.894414 0.447205 0)
(0.894423 0.447212 0)
(0.89443 0.447215 0)
(0.894437 0.447219 0)
(0.894451 0.447229 0)
(0.89446 0.447233 0)
(0.894467 0.447245 0)
(0.894476 0.447253 0)
(0.894473 0.447254 0)
(0.894454 0.447255 0)
(0.89441 0.447239 0)
(0.894325 0.447198 0)
(0.894175 0.44712 0)
(0.893932 0.446978 0)
(0.893553 0.446742 0)
(0.892987 0.446368 0)
(0.892178 0.445798 0)
(0.891049 0.444958 0)
(0.889519 0.443765 0)
(0.887524 0.44212 0)
(0.885027 0.439932 0)
(0.882067 0.437167 0)
(0.89441 0.447195 0)
(0.894407 0.447196 0)
(0.894405 0.447197 0)
(0.894404 0.447198 0)
(0.894402 0.447199 0)
(0.894402 0.447199 0)
(0.894401 0.4472 0)
(0.894401 0.4472 0)
(0.894401 0.4472 0)
(0.8944 0.4472 0)
(0.8944 0.4472 0)
(0.8944 0.4472 0)
(0.8944 0.4472 0)
(0.8944 0.4472 0)
(0.8944 0.4472 0)
(0.8944 0.4472 0)
(0.8944 0.4472 0)
(0.8944 0.4472 0)
(0.8944 0.4472 0)
(0.8944 0.4472 0)
(0.8944 0.4472 0)
(0.8944 0.4472 0)
(0.8944 0.4472 0)
(0.8944 0.4472 0)
(0.8944 0.4472 0)
(0.8944 0.4472 0)
(0.8944 0.4472 0)
(0.8944 0.4472 0)
(0.8944 0.4472 0)
(0.8944 0.4472 0)
(0.8944 0.4472 0)
(0.8944 0.4472 0)
(0.8944 0.4472 0)
(0.8944 0.4472 0)
(0.8944 0.447199 0)
(0.894399 0.447201 0)
(0.894401 0.447199 0)
(0.8944 0.4472 0)
(0.8944 0.4472 0)
(0.894401 0.4472 0)
(0.894399 0.4472 0)
(0.894401 0.447201 0)
(0.894399 0.447199 0)
(0.894401 0.447201 0)
(0.8944 0.4472 0)
(0.894401 0.4472 0)
(0.894401 0.447201 0)
(0.8944 0.4472 0)
(0.894403 0.4472 0)
(0.894403 0.447202 0)
(0.894405 0.447202 0)
(0.894405 0.447202 0)
(0.894412 0.447206 0)
(0.894413 0.447207 0)
(0.894419 0.447209 0)
(0.894426 0.447214 0)
(0.894434 0.44722 0)
(0.894443 0.447225 0)
(0.894455 0.447233 0)
(0.894462 0.447242 0)
(0.894468 0.44725 0)
(0.894473 0.447258 0)
(0.894458 0.447256 0)
(0.894426 0.44725 0)
(0.894365 0.447221 0)
(0.894245 0.447161 0)
(0.894056 0.44705 0)
(0.893759 0.446863 0)
(0.893307 0.44656 0)
(0.892655 0.446091 0)
(0.891741 0.445397 0)
(0.890491 0.444399 0)
(0.888844 0.443003 0)
(0.886747 0.441124 0)
(0.884193 0.438692 0)
(0.894409 0.447195 0)
(0.894406 0.447197 0)
(0.894405 0.447198 0)
(0.894403 0.447198 0)
(0.894402 0.447199 0)
(0.894401 0.447199 0)
(0.894401 0.4472 0)
(0.894401 0.4472 0)
(0.8944 0.4472 0)
(0.8944 0.4472 0)
(0.8944 0.4472 0)
(0.8944 0.4472 0)
(0.8944 0.4472 0)
(0.8944 0.4472 0)
(0.8944 0.4472 0)
(0.8944 0.4472 0)
(0.8944 0.4472 0)
(0.8944 0.4472 0)
(0.8944 0.4472 0)
(0.8944 0.4472 0)
(0.8944 0.447199 0)
(0.8944 0.4472 0)
(0.8944 0.4472 0)
(0.8944 0.4472 0)
(0.8944 0.4472 0)
(0.8944 0.4472 0)
(0.8944 0.4472 0)
(0.8944 0.4472 0)
(0.8944 0.4472 0)
(0.8944 0.4472 0)
(0.8944 0.4472 0)
(0.8944 0.4472 0)
(0.8944 0.4472 0)
(0.8944 0.4472 0)
(0.8944 0.4472 0)
(0.8944 0.4472 0)
(0.8944 0.4472 0)
(0.894401 0.4472 0)
(0.8944 0.4472 0)
(0.8944 0.4472 0)
(0.8944 0.4472 0)
(0.894401 0.447199 0)
(0.894399 0.447201 0)
(0.8944 0.4472 0)
(0.894401 0.4472 0)
(0.894399 0.4472 0)
(0.894401 0.4472 0)
(0.8944 0.447201 0)
(0.894402 0.447201 0)
(0.894403 0.4472 0)
(0.894402 0.447203 0)
(0.894408 0.447204 0)
(0.894407 0.447202 0)
(0.894413 0.447208 0)
(0.894416 0.44721 0)
(0.894423 0.447211 0)
(0.894431 0.447219 0)
(0.894435 0.447224 0)
(0.894449 0.447229 0)
(0.894456 0.447242 0)
(0.894463 0.447247 0)
(0.894467 0.447254 0)
(0.894462 0.447261 0)
(0.894437 0.447255 0)
(0.894389 0.447237 0)
(0.894304 0.447194 0)
(0.894156 0.447108 0)
(0.89392 0.446961 0)
(0.893565 0.44672 0)
(0.893046 0.446339 0)
(0.892312 0.445772 0)
(0.891306 0.444951 0)
(0.889962 0.443786 0)
(0.888229 0.442196 0)
(0.886079 0.440105 0)
(0.894408 0.447196 0)
(0.894405 0.447197 0)
(0.894404 0.447198 0)
(0.894403 0.447199 0)
(0.894402 0.447199 0)
(0.894401 0.447199 0)
(0.894401 0.4472 0)
(0.894401 0.4472 0)
(0.8944 0.4472 0)
(0.8944 0.4472 0)
(0.8944 0.4472 0)
(0.8944 0.4472 0)
(0.8944 0.4472 0)
(0.8944 0.4472 0)
(0.8944 0.4472 0)
(0.8944 0.4472 0)
(0.8944 0.4472 0)
(0.8944 0.4472 0)
(0.8944 0.4472 0)
(0.8944 0.4472 0)
(0.8944 0.4472 0)
(0.8944 0.4472 0)
(0.8944 0.4472 0)
(0.8944 0.4472 0)
(0.8944 0.4472 0)
(0.8944 0.4472 0)
(0.8944 0.4472 0)
(0.8944 0.4472 0)
(0.8944 0.4472 0)
(0.8944 0.4472 0)
(0.8944 0.4472 0)
(0.8944 0.4472 0)
(0.8944 0.4472 0)
(0.8944 0.4472 0)
(0.8944 0.4472 0)
(0.8944 0.4472 0)
(0.8944 0.4472 0)
(0.8944 0.4472 0)
(0.894399 0.4472 0)
(0.894401 0.4472 0)
(0.8944 0.4472 0)
(0.894399 0.4472 0)
(0.894402 0.447199 0)
(0.894398 0.4472 0)
(0.894402 0.4472 0)
(0.8944 0.4472 0)
(0.8944 0.4472 0)
(0.894402 0.447201 0)
(0.894401 0.4472 0)
(0.894402 0.447201 0)
(0.894403 0.447201 0)
(0.894405 0.447203 0)
(0.894408 0.447204 0)
(0.89441 0.447205 0)
(0.894415 0.447208 0)
(0.894418 0.447213 0)
(0.894427 0.447214 0)
(0.894434 0.447222 0)
(0.89444 0.44723 0)
(0.894452 0.447235 0)
(0.894457 0.447245 0)
(0.894461 0.447254 0)
(0.89446 0.447258 0)
(0.894444 0.44726 0)
(0.894408 0.447246 0)
(0.894344 0.447216 0)
(0.894231 0.447157 0)
(0.894048 0.447039 0)
(0.893772 0.446848 0)
(0.893363 0.44655 0)
(0.892779 0.446091 0)
(0.891975 0.445416 0)
(0.890894 0.444463 0)
(0.889485 0.443144 0)
(0.887709 0.441377 0)
(0.894407 0.447196 0)
(0.894405 0.447197 0)
(0.894403 0.447198 0)
(0.894402 0.447199 0)
(0.894402 0.447199 0)
(0.894401 0.4472 0)
(0.894401 0.4472 0)
(0.8944 0.4472 0)
(0.8944 0.4472 0)
(0.8944 0.4472 0)
(0.8944 0.4472 0)
(0.8944 0.4472 0)
(0.8944 0.4472 0)
(0.8944 0.4472 0)
(0.8944 0.4472 0)
(0.8944 0.4472 0)
(0.8944 0.4472 0)
(0.8944 0.4472 0)
(0.8944 0.4472 0)
(0.8944 0.4472 0)
(0.8944 0.4472 0)
(0.8944 0.4472 0)
(0.8944 0.4472 0)
(0.8944 0.4472 0)
(0.8944 0.4472 0)
(0.8944 0.4472 0)
(0.8944 0.4472 0)
(0.8944 0.4472 0)
(0.894399 0.4472 0)
(0.894401 0.4472 0)
(0.8944 0.4472 0)
(0.8944 0.447199 0)
(0.8944 0.447201 0)
(0.8944 0.4472 0)
(0.8944 0.4472 0)
(0.8944 0.4472 0)
(0.894401 0.4472 0)
(0.894399 0.4472 0)
(0.8944 0.4472 0)
(0.8944 0.4472 0)
(0.894401 0.447201 0)
(0.894399 0.4472 0)
(0.8944 0.4472 0)
(0.8944 0.4472 0)
(0.894399 0.4472 0)
(0.894402 0.4472 0)
(0.894399 0.4472 0)
(0.8944 0.447201 0)
(0.894404 0.4472 0)
(0.8944 0.447202 0)
(0.894404 0.447201 0)
(0.894405 0.4472 0)
(0.894405 0.447205 0)
(0.894409 0.447206 0)
(0.894412 0.447206 0)
(0.894419 0.447211 0)
(0.89442 0.447215 0)
(0.894431 0.447219 0)
(0.894435 0.447226 0)
(0.894445 0.447233 0)
(0.89445 0.447241 0)
(0.894456 0.447252 0)
(0.894457 0.447256 0)
(0.894444 0.447259 0)
(0.894422 0.447256 0)
(0.894373 0.447234 0)
(0.894287 0.447187 0)
(0.894148 0.447104 0)
(0.893934 0.446953 0)
(0.893614 0.446717 0)
(0.893157 0.446355 0)
(0.892521 0.445811 0)
(0.891659 0.445034 0)
(0.890527 0.443958 0)
(0.889086 0.442493 0)
(0.894405 0.447197 0)
(0.894404 0.447198 0)
(0.894403 0.447198 0)
(0.894402 0.447199 0)
(0.894401 0.447199 0)
(0.894401 0.4472 0)
(0.894401 0.4472 0)
(0.8944 0.4472 0)
(0.8944 0.4472 0)
(0.8944 0.4472 0)
(0.8944 0.4472 0)
(0.8944 0.4472 0)
(0.8944 0.4472 0)
(0.8944 0.4472 0)
(0.8944 0.4472 0)
(0.8944 0.4472 0)
(0.8944 0.4472 0)
(0.8944 0.4472 0)
(0.8944 0.4472 0)
(0.8944 0.4472 0)
(0.8944 0.4472 0)
(0.8944 0.4472 0)
(0.8944 0.4472 0)
(0.8944 0.4472 0)
(0.8944 0.4472 0)
(0.8944 0.4472 0)
(0.8944 0.4472 0)
(0.8944 0.4472 0)
(0.8944 0.4472 0)
(0.8944 0.4472 0)
(0.8944 0.447201 0)
(0.8944 0.447199 0)
(0.8944 0.447201 0)
(0.8944 0.447199 0)
(0.8944 0.4472 0)
(0.894399 0.447201 0)
(0.894401 0.447199 0)
(0.894399 0.447201 0)
(0.894401 0.447199 0)
(0.894399 0.4472 0)
(0.8944 0.4472 0)
(0.894401 0.447199 0)
(0.8944 0.447201 0)
(0.8944 0.4472 0)
(0.894401 0.447199 0)
(0.8944 0.4472 0)
(0.8944 0.447201 0)
(0.894401 0.4472 0)
(0.8944 0.447201 0)
(0.894402 0.447201 0)
(0.894402 0.4472 0)
(0.894405 0.447203 0)
(0.894403 0.447203 0)
(0.894408 0.447204 0)
(0.894411 0.447207 0)
(0.894414 0.447208 0)
(0.894419 0.447213 0)
(0.894425 0.447218 0)
(0.894432 0.447222 0)
(0.894437 0.447231 0)
(0.894447 0.447238 0)
(0.89445 0.447245 0)
(0.894449 0.447254 0)
(0.894448 0.44726 0)
(0.894429 0.447258 0)
(0.894391 0.447244 0)
(0.89433 0.447213 0)
(0.894224 0.44715 0)
(0.894058 0.447038 0)
(0.893813 0.446853 0)
(0.893456 0.446567 0)
(0.892956 0.446139 0)
(0.892279 0.445516 0)
(0.891383 0.444642 0)
(0.890226 0.443448 0)
(0.894405 0.447197 0)
(0.894403 0.447198 0)
(0.894402 0.447199 0)
(0.894402 0.447199 0)
(0.894401 0.447199 0)
(0.894401 0.4472 0)
(0.894401 0.4472 0)
(0.8944 0.4472 0)
(0.8944 0.4472 0)
(0.8944 0.4472 0)
(0.8944 0.4472 0)
(0.8944 0.4472 0)
(0.8944 0.4472 0)
(0.8944 0.4472 0)
(0.8944 0.4472 0)
(0.8944 0.4472 0)
(0.8944 0.4472 0)
(0.8944 0.4472 0)
(0.8944 0.4472 0)
(0.8944 0.4472 0)
(0.8944 0.4472 0)
(0.8944 0.4472 0)
(0.8944 0.4472 0)
(0.8944 0.4472 0)
(0.8944 0.4472 0)
(0.8944 0.4472 0)
(0.8944 0.4472 0)
(0.8944 0.4472 0)
(0.8944 0.4472 0)
(0.8944 0.4472 0)
(0.8944 0.4472 0)
(0.8944 0.4472 0)
(0.894399 0.4472 0)
(0.894401 0.4472 0)
(0.894399 0.4472 0)
(0.894401 0.4472 0)
(0.894399 0.4472 0)
(0.8944 0.4472 0)
(0.8944 0.4472 0)
(0.8944 0.4472 0)
(0.894399 0.4472 0)
(0.894401 0.4472 0)
(0.894399 0.4472 0)
(0.8944 0.4472 0)
(0.894401 0.447201 0)
(0.894399 0.447199 0)
(0.8944 0.447201 0)
(0.894401 0.4472 0)
(0.8944 0.447201 0)
(0.894402 0.447201 0)
(0.894402 0.4472 0)
(0.894403 0.447202 0)
(0.894406 0.447202 0)
(0.894404 0.447203 0)
(0.894411 0.447206 0)
(0.89441 0.447209 0)
(0.894417 0.447209 0)
(0.894421 0.447217 0)
(0.894428 0.447221 0)
(0.894431 0.447227 0)
(0.894441 0.447234 0)
(0.894444 0.447242 0)
(0.894446 0.44725 0)
(0.894443 0.447255 0)
(0.894432 0.447258 0)
(0.894407 0.44725 0)
(0.894358 0.447229 0)
(0.89428 0.447184 0)
(0.894155 0.447099 0)
(0.893965 0.44696 0)
(0.893693 0.446739 0)
(0.893306 0.446403 0)
(0.892775 0.445912 0)
(0.892071 0.445211 0)
(0.891159 0.44425 0)
(0.894404 0.447197 0)
(0.894403 0.447198 0)
(0.894402 0.447199 0)
(0.894401 0.447199 0)
(0.894401 0.4472 0)
(0.894401 0.4472 0)
(0.8944 0.4472 0)
(0.8944 0.4472 0)
(0.8944 0.4472 0)
(0.8944 0.4472 0)
(0.8944 0.4472 0)
(0.8944 0.4472 0)
(0.8944 0.4472 0)
(0.8944 0.4472 0)
(0.8944 0.4472 0)
(0.8944 0.4472 0)
(0.8944 0.4472 0)
(0.8944 0.4472 0)
(0.8944 0.4472 0)
(0.8944 0.4472 0)
(0.8944 0.4472 0)
(0.8944 0.4472 0)
(0.8944 0.4472 0)