/*--------------------------------*- C++ -*----------------------------------*\
  =========                 |
  \\      /  F ield         | OpenFOAM: The Open Source CFD Toolbox
   \\    /   O peration     | Website:  https://openfoam.org
    \\  /    A nd           | Version:  6
     \\/     M anipulation  |
\*---------------------------------------------------------------------------*/
FoamFile
{
    version     2.0;
    format      ascii;
    class       volScalarField;
    location    "4.79";
    object      rho;
}
// * * * * * * * * * * * * * * * * * * * * * * * * * * * * * * * * * * * * * //

dimensions      [1 -3 0 0 0 0 0];

internalField   nonuniform List<scalar> 
10000
(
1.39999
1.39999
1.39999
1.4
1.4
1.4
1.4
1.4
1.4
1.4
1.4
1.40001
1.4
1.40001
1.4
1.40001
1.4
1.40001
1.4
1.40001
1.4
1.40001
1.4
1.40001
1.40001
1.4
1.40001
1.40001
1.4
1.4
1.40001
1.4
1.40001
1.40001
1.40001
1.40001
1.40001
1.40001
1.40001
1.40001
1.40002
1.40002
1.40003
1.40004
1.40005
1.40006
1.40007
1.40007
1.40008
1.40009
1.40013
1.40021
1.40038
1.40067
1.40113
1.40181
1.40274
1.40395
1.40543
1.40715
1.40907
1.41112
1.41322
1.41529
1.41725
1.41904
1.42059
1.42188
1.42287
1.42355
1.42392
1.42397
1.4237
1.42312
1.42224
1.42107
1.41963
1.41795
1.41608
1.41411
1.4121
1.41014
1.40829
1.40662
1.40516
1.40392
1.40291
1.4021
1.40147
1.401
1.40065
1.40041
1.40024
1.40013
1.40006
1.40002
1.39999
1.39998
1.39998
1.39998
1.39998
1.39999
1.39999
1.39999
1.4
1.4
1.4
1.4
1.4
1.4
1.4
1.4
1.40001
1.4
1.40001
1.40001
1.40001
1.40001
1.4
1.40001
1.4
1.40001
1.4
1.40001
1.4
1.40001
1.4
1.40001
1.4
1.40001
1.4
1.40001
1.4
1.40001
1.40001
1.40001
1.40001
1.40001
1.40001
1.40002
1.40002
1.40003
1.40004
1.40005
1.40007
1.40008
1.40009
1.4001
1.40012
1.40016
1.40024
1.40041
1.4007
1.40119
1.40194
1.40299
1.40439
1.40614
1.40824
1.41061
1.41318
1.41584
1.41849
1.42103
1.42337
1.42544
1.42719
1.4286
1.42965
1.43036
1.43073
1.43076
1.43047
1.42984
1.42888
1.42758
1.42595
1.424
1.42176
1.41932
1.41676
1.41419
1.41171
1.40943
1.40739
1.40565
1.40421
1.40305
1.40214
1.40146
1.40096
1.4006
1.40035
1.40019
1.40009
1.40003
1.39999
1.39998
1.39997
1.39998
1.39997
1.39998
1.39998
1.39999
1.39999
1.4
1.4
1.4
1.4
1.4
1.4
1.4
1.4
1.40001
1.4
1.40001
1.40001
1.40001
1.40001
1.40001
1.4
1.40001
1.4
1.40001
1.40001
1.4
1.40001
1.4
1.40001
1.4
1.40001
1.40001
1.40001
1.40001
1.40001
1.40001
1.40001
1.40001
1.40002
1.40002
1.40003
1.40004
1.40006
1.40007
1.40009
1.40011
1.40013
1.40015
1.40019
1.40027
1.40043
1.40072
1.40121
1.40199
1.40314
1.40471
1.40673
1.40919
1.41203
1.41515
1.41842
1.42169
1.42483
1.42773
1.4303
1.43248
1.43425
1.43562
1.4366
1.43723
1.43753
1.43753
1.43724
1.43664
1.43573
1.43448
1.43284
1.43079
1.42835
1.42556
1.4225
1.41932
1.41616
1.41316
1.41042
1.40804
1.40603
1.40439
1.40311
1.40213
1.4014
1.40089
1.40053
1.40029
1.40014
1.40005
1.4
1.39997
1.39996
1.39997
1.39996
1.39997
1.39998
1.39998
1.39999
1.4
1.4
1.4
1.4
1.4
1.4
1.4
1.40001
1.4
1.40001
1.4
1.40001
1.4
1.40001
1.40001
1.4
1.40001
1.40001
1.4
1.40001
1.40001
1.4
1.40001
1.40001
1.4
1.40001
1.40001
1.40001
1.40001
1.40001
1.40001
1.40001
1.40001
1.40002
1.40003
1.40004
1.40005
1.40007
1.4001
1.40012
1.40014
1.40017
1.40021
1.40029
1.40043
1.40071
1.40119
1.40198
1.40317
1.40487
1.40713
1.40994
1.41324
1.41693
1.42082
1.42473
1.42848
1.43191
1.43491
1.43742
1.43941
1.44092
1.44199
1.4427
1.44309
1.44324
1.44318
1.44293
1.44248
1.44179
1.44081
1.43946
1.43765
1.43532
1.43246
1.42913
1.42547
1.42167
1.41791
1.41438
1.41121
1.40849
1.40625
1.40446
1.40308
1.40205
1.4013
1.40079
1.40044
1.40022
1.40008
1.40001
1.39997
1.39996
1.39995
1.39995
1.39996
1.39997
1.39998
1.39999
1.39999
1.4
1.4
1.4
1.4
1.4
1.4
1.4
1.4
1.4
1.40001
1.40001
1.4
1.40001
1.4
1.40001
1.4
1.40001
1.4
1.40001
1.40001
1.40001
1.4
1.40001
1.4
1.4
1.40001
1.40001
1.40001
1.40001
1.40001
1.40001
1.40002
1.40002
1.40004
1.40005
1.40007
1.4001
1.40013
1.40016
1.40019
1.40024
1.40031
1.40044
1.40069
1.40113
1.4019
1.4031
1.40487
1.4073
1.41042
1.41417
1.41841
1.42293
1.42748
1.43182
1.43572
1.43905
1.44173
1.44374
1.44514
1.44602
1.44648
1.44666
1.44665
1.44653
1.44638
1.4462
1.44601
1.44574
1.44532
1.44462
1.44347
1.44173
1.43928
1.43611
1.43231
1.42807
1.42366
1.41932
1.4153
1.41174
1.40874
1.4063
1.40439
1.40295
1.40191
1.40117
1.40067
1.40035
1.40015
1.40003
1.39997
1.39995
1.39994
1.39994
1.39995
1.39996
1.39997
1.39998
1.39999
1.39999
1.4
1.4
1.4
1.4
1.4
1.4
1.4
1.4
1.4
1.40001
1.4
1.40001
1.40001
1.4
1.40001
1.40001
1.4
1.40001
1.40001
1.4
1.40001
1.40001
1.4
1.40001
1.40001
1.40001
1.40001
1.40001
1.40001
1.40001
1.40002
1.40003
1.40005
1.40007
1.40009
1.40012
1.40016
1.4002
1.40025
1.40032
1.40044
1.40066
1.40106
1.40176
1.40292
1.4047
1.40723
1.41059
1.41473
1.41949
1.42463
1.42981
1.43471
1.43902
1.44257
1.44523
1.44702
1.44802
1.44837
1.44824
1.4478
1.44721
1.44663
1.44615
1.44586
1.44579
1.44593
1.44624
1.44663
1.44692
1.4469
1.44631
1.44491
1.44253
1.43916
1.43495
1.43017
1.42518
1.42032
1.41585
1.41197
1.40874
1.40617
1.40421
1.40275
1.40172
1.40101
1.40054
1.40025
1.40008
1.39999
1.39995
1.39993
1.39992
1.39993
1.39995
1.39996
1.39997
1.39998
1.39999
1.4
1.4
1.4
1.4
1.4
1.4
1.4
1.4
1.4
1.40001
1.4
1.4
1.40001
1.4
1.40001
1.40001
1.4
1.4
1.40001
1.40001
1.4
1.40001
1.4
1.40001
1.40001
1.40001
1.40001
1.40001
1.40001
1.40002
1.40003
1.40004
1.40006
1.40008
1.40012
1.40016
1.4002
1.40026
1.40033
1.40044
1.40062
1.40097
1.4016
1.40267
1.40438
1.40692
1.41041
1.41486
1.4201
1.42583
1.43163
1.43706
1.44174
1.44538
1.44787
1.44921
1.44953
1.44903
1.44795
1.44651
1.44496
1.44347
1.44222
1.44133
1.44087
1.4409
1.44141
1.44236
1.44367
1.44518
1.44664
1.44772
1.44801
1.44718
1.44502
1.44153
1.43695
1.43167
1.42616
1.42083
1.41601
1.41188
1.40851
1.40588
1.40391
1.40248
1.40149
1.40083
1.40041
1.40016
1.40002
1.39995
1.39992
1.39991
1.39992
1.39993
1.39995
1.39996
1.39998
1.39999
1.39999
1.4
1.4
1.4
1.4
1.4
1.4
1.4
1.40001
1.4
1.40001
1.4
1.40001
1.4
1.40001
1.4
1.40001
1.4
1.40001
1.40001
1.40001
1.40001
1.4
1.40001
1.40001
1.40001
1.40001
1.40001
1.40001
1.40002
1.40003
1.40005
1.40007
1.40011
1.40015
1.4002
1.40026
1.40033
1.40043
1.40059
1.40088
1.40141
1.40236
1.40394
1.40638
1.4099
1.41454
1.42018
1.42646
1.43286
1.43883
1.44384
1.44752
1.4497
1.45042
1.44984
1.44824
1.44592
1.4432
1.44037
1.43766
1.43528
1.43338
1.43207
1.43145
1.43154
1.43236
1.43389
1.43608
1.43881
1.44187
1.44488
1.44737
1.44878
1.44866
1.44677
1.44318
1.43825
1.4325
1.42653
1.42083
1.41575
1.41147
1.40805
1.40544
1.40352
1.40216
1.40124
1.40065
1.40029
1.40008
1.39997
1.39992
1.3999
1.39991
1.39992
1.39994
1.39996
1.39997
1.39998
1.39999
1.39999
1.4
1.4
1.4
1.4
1.4
1.4
1.4
1.4
1.40001
1.4
1.40001
1.4
1.40001
1.40001
1.40001
1.4
1.40001
1.40001
1.4
1.40001
1.4
1.40001
1.40001
1.40001
1.40001
1.40001
1.40002
1.40003
1.40004
1.40006
1.40009
1.40013
1.40018
1.40025
1.40032
1.40042
1.40056
1.4008
1.40124
1.40204
1.40343
1.40568
1.40908
1.41377
1.41968
1.42644
1.43345
1.43997
1.44533
1.44904
1.45087
1.45087
1.44926
1.4464
1.44269
1.43852
1.43425
1.43016
1.42647
1.42335
1.42092
1.41928
1.4185
1.41862
1.41965
1.42159
1.42443
1.42814
1.43258
1.43746
1.44226
1.44632
1.44892
1.44951
1.44786
1.44413
1.43883
1.43265
1.42629
1.42032
1.41509
1.41078
1.40741
1.40488
1.40306
1.40181
1.40099
1.40047
1.40017
1.40001
1.39993
1.3999
1.3999
1.39991
1.39993
1.39994
1.39996
1.39997
1.39998
1.39999
1.4
1.4
1.4
1.4
1.4
1.4
1.40001
1.4
1.40001
1.40001
1.4
1.40001
1.4
1.4
1.40001
1.4
1.4
1.40001
1.40001
1.4
1.40001
1.40001
1.40001
1.40001
1.40001
1.40001
1.40002
1.40003
1.40005
1.40008
1.40012
1.40016
1.40023
1.4003
1.4004
1.40052
1.40072
1.40108
1.40173
1.4029
1.40488
1.40802
1.41258
1.4186
1.42575
1.43333
1.44045
1.44624
1.45005
1.45157
1.45084
1.44816
1.444
1.43886
1.43321
1.42748
1.42199
1.41699
1.41265
1.40907
1.40633
1.4045
1.40361
1.4037
1.40479
1.40691
1.41009
1.41436
1.41971
1.426
1.43282
1.43947
1.4451
1.4488
1.44995
1.44837
1.44439
1.43868
1.43211
1.42546
1.41934
1.41409
1.40986
1.40662
1.40424
1.40258
1.40146
1.40075
1.40032
1.40007
1.39995
1.39991
1.39989
1.39989
1.39991
1.39993
1.39995
1.39997
1.39998
1.39999
1.39999
1.4
1.4
1.4
1.4
1.4
1.4
1.4
1.4
1.40001
1.4
1.40001
1.4
1.40001
1.40001
1.40001
1.4
1.40001
1.4
1.40001
1.40001
1.40001
1.40001
1.40001
1.40001
1.40002
1.40003
1.40004
1.40006
1.40009
1.40014
1.4002
1.40027
1.40037
1.40048
1.40065
1.40094
1.40145
1.4024
1.40407
1.40683
1.41108
1.41699
1.42436
1.43246
1.44023
1.44658
1.45063
1.45196
1.45061
1.44694
1.44154
1.43501
1.42796
1.42086
1.41408
1.4079
1.40247
1.3979
1.3942
1.39141
1.38953
1.38859
1.38861
1.38963
1.39168
1.39483
1.39918
1.40486
1.41187
1.42002
1.42875
1.43716
1.44415
1.44867
1.4501
1.44836
1.44397
1.43782
1.43091
1.42408
1.41795
1.41281
1.40876
1.40573
1.40356
1.40208
1.40112
1.40052
1.40018
1.4
1.39994
1.39989
1.39989
1.3999
1.39992
1.39994
1.39996
1.39997
1.39999
1.39999
1.4
1.4
1.4
1.4
1.4
1.4
1.40001
1.4
1.4
1.40001
1.4
1.4
1.40001
1.4
1.40001
1.4
1.40001
1.4
1.40001
1.40001
1.40001
1.40001
1.40001
1.40001
1.40002
1.40003
1.40005
1.40008
1.40012
1.40017
1.40024
1.40033
1.40044
1.40059
1.40082
1.40122
1.40196
1.4033
1.40562
1.40938
1.41494
1.42229
1.43079
1.43925
1.44631
1.45082
1.4522
1.45043
1.44594
1.43943
1.43165
1.42331
1.41498
1.40709
1.39991
1.39361
1.38828
1.3839
1.38044
1.37784
1.37606
1.37512
1.37502
1.37582
1.37758
1.38039
1.38439
1.3898
1.3968
1.40543
1.41537
1.42587
1.43578
1.44377
1.44871
1.45002
1.44783
1.44289
1.43629
1.42911
1.42224
1.41623
1.41133
1.40756
1.40481
1.40289
1.40161
1.40081
1.40033
1.40007
1.39999
1.3999
1.39988
1.39989
1.39991
1.39993
1.39995
1.39997
1.39998
1.39999
1.4
1.4
1.4
1.4
1.4
1.4
1.4
1.4
1.4
1.40001
1.40001
1.4
1.40001
1.4
1.40001
1.4
1.40001
1.40001
1.40001
1.40001
1.40001
1.40001
1.40001
1.40001
1.40002
1.40004
1.40006
1.40009
1.40014
1.4002
1.40029
1.40039
1.40052
1.40071
1.40102
1.40158
1.40262
1.40448
1.40764
1.41261
1.41964
1.42832
1.43744
1.44536
1.45062
1.45236
1.45045
1.4454
1.43799
1.42915
1.41968
1.41027
1.40141
1.39342
1.38647
1.38063
1.37586
1.37207
1.36914
1.36695
1.3654
1.36449
1.36422
1.36467
1.36592
1.36811
1.3714
1.37607
1.38243
1.39072
1.40091
1.41253
1.42456
1.43558
1.44406
1.4489
1.44966
1.44674
1.44115
1.43412
1.42681
1.42004
1.4143
1.40974
1.40633
1.4039
1.40225
1.40119
1.40054
1.40018
1.40006
1.39993
1.39989
1.39988
1.3999
1.39992
1.39994
1.39996
1.39998
1.39999
1.39999
1.4
1.4
1.4
1.4
1.4
1.4
1.40001
1.4
1.40001
1.40001
1.4
1.40001
1.4
1.40001
1.40001
1.4
1.40001
1.40001
1.40001
1.40001
1.40001
1.40001
1.40002
1.40003
1.40004
1.40007
1.40011
1.40017
1.40024
1.40034
1.40046
1.40062
1.40086
1.40129
1.40206
1.40349
1.40602
1.41022
1.4166
1.4251
1.43472
1.44361
1.44991
1.45239
1.45075
1.44546
1.43744
1.42773
1.41731
1.40695
1.39724
1.38856
1.38113
1.37499
1.3701
1.3663
1.36343
1.36126
1.35963
1.3584
1.35752
1.35702
1.35697
1.35751
1.35882
1.36112
1.3647
1.36995
1.37727
1.38687
1.39861
1.41175
1.42496
1.43655
1.44494
1.4491
1.4489
1.44504
1.43876
1.43141
1.42411
1.4176
1.41225
1.40813
1.40513
1.40305
1.40168
1.40083
1.40033
1.40016
1.39998
1.3999
1.39988
1.39989
1.39991
1.39994
1.39996
1.39997
1.39998
1.39999
1.4
1.4
1.4
1.4
1.4
1.4
1.40001
1.4
1.4
1.40001
1.4
1.40001
1.4
1.40001
1.4
1.40001
1.40001
1.40001
1.40001
1.40001
1.40001
1.40001
1.40002
1.40003
1.40005
1.40008
1.40013
1.40019
1.40028
1.40039
1.40053
1.40073
1.40105
1.40162
1.40267
1.4046
1.40797
1.41342
1.42132
1.43108
1.44091
1.44852
1.45218
1.45126
1.44616
1.43785
1.42753
1.41631
1.40512
1.39463
1.38533
1.37748
1.37116
1.36633
1.36279
1.3603
1.35858
1.35735
1.35638
1.3555
1.35464
1.35383
1.35316
1.35279
1.35297
1.35399
1.35619
1.36
1.36591
1.37431
1.38534
1.3986
1.41302
1.42694
1.43849
1.44612
1.44907
1.44758
1.44267
1.43577
1.42825
1.42114
1.41505
1.4102
1.40657
1.40401
1.40229
1.40119
1.40053
1.4003
1.40004
1.39992
1.39989
1.39989
1.39991
1.39993
1.39995
1.39997
1.39998
1.39999
1.4
1.4
1.4
1.4
1.4
1.4
1.4
1.40001
1.4
1.40001
1.4
1.40001
1.4
1.40001
1.4
1.40001
1.40001
1.4
1.40001
1.40001
1.40001
1.40001
1.40002
1.40004
1.40006
1.4001
1.40015
1.40022
1.40032
1.40044
1.40061
1.40086
1.40127
1.40203
1.40345
1.40601
1.41039
1.41726
1.42664
1.43713
1.44621
1.45148
1.45181
1.44739
1.43921
1.42857
1.41674
1.40481
1.39357
1.38363
1.37533
1.36884
1.36413
1.36101
1.35916
1.35821
1.3578
1.35759
1.3573
1.35677
1.35593
1.35477
1.35338
1.35194
1.35076
1.35021
1.35073
1.35282
1.357
1.3638
1.37353
1.38612
1.40082
1.41616
1.4302
1.44101
1.44724
1.44854
1.44556
1.43964
1.43228
1.4248
1.41806
1.4125
1.40823
1.40514
1.40302
1.40164
1.40079
1.40048
1.40013
1.39997
1.3999
1.39989
1.3999
1.39992
1.39994
1.39996
1.39998
1.39999
1.39999
1.4
1.4
1.4
1.4
1.4
1.4
1.4
1.4
1.4
1.40001
1.40001
1.4
1.40001
1.4
1.40001
1.40001
1.4
1.40001
1.40001
1.40001
1.40002
1.40003
1.40004
1.40007
1.40011
1.40017
1.40025
1.40037
1.4005
1.4007
1.40101
1.40155
1.40255
1.40441
1.40775
1.41333
1.42172
1.43228
1.44269
1.44994
1.4521
1.44893
1.44137
1.43078
1.41858
1.40599
1.39401
1.38335
1.3745
1.36773
1.36308
1.36039
1.3593
1.35936
1.36008
1.36102
1.36179
1.36214
1.36193
1.36109
1.35963
1.35756
1.35502
1.35232
1.34994
1.34846
1.34849
1.35065
1.35552
1.36357
1.37492
1.38914
1.40504
1.42079
1.43425
1.4436
1.44788
1.44724
1.44277
1.43599
1.42842
1.4212
1.415
1.41008
1.40644
1.40388
1.40218
1.40111
1.4007
1.40025
1.40002
1.39992
1.39989
1.3999
1.39992
1.39994
1.39996
1.39997
1.39998
1.39999
1.4
1.4
1.4
1.4
1.4
1.4
1.4
1.40001
1.4
1.4
1.40001
1.4
1.40001
1.4
1.4
1.40001
1.4
1.40001
1.40001
1.40001
1.40002
1.40003
1.40004
1.40008
1.40013
1.40019
1.40028
1.40041
1.40057
1.4008
1.40119
1.40188
1.40318
1.4056
1.40987
1.4168
1.42663
1.43782
1.44716
1.45171
1.45045
1.44407
1.43399
1.42172
1.40865
1.39592
1.38445
1.37488
1.36762
1.36284
1.36045
1.3601
1.36125
1.36328
1.36561
1.36775
1.36933
1.37017
1.37018
1.36938
1.36776
1.36525
1.36183
1.3577
1.35337
1.34959
1.34719
1.34695
1.34956
1.35559
1.36529
1.37847
1.39423
1.41092
1.42639
1.43848
1.44571
1.44765
1.44501
1.43921
1.43186
1.42436
1.41762
1.41209
1.40788
1.40486
1.40281
1.4015
1.40097
1.4004
1.4001
1.39996
1.39991
1.3999
1.39991
1.39993
1.39995
1.39997
1.39998
1.39999
1.4
1.4
1.4
1.4
1.4
1.4
1.4
1.40001
1.4
1.4
1.40001
1.4
1.40001
1.40001
1.4
1.40001
1.4
1.40001
1.40001
1.40001
1.40002
1.40004
1.40005
1.40008
1.40015
1.40021
1.40031
1.40046
1.40064
1.40091
1.40139
1.40229
1.40396
1.40703
1.41237
1.42074
1.43175
1.44276
1.45008
1.45146
1.44694
1.4379
1.42598
1.41267
1.39929
1.38691
1.37642
1.3684
1.36319
1.36082
1.36101
1.36318
1.36657
1.3704
1.37402
1.37695
1.37895
1.37994
1.38001
1.37927
1.37775
1.37527
1.37156
1.36652
1.36051
1.35438
1.34922
1.34615
1.34608
1.34969
1.35737
1.36908
1.38414
1.40112
1.41794
1.43229
1.44225
1.44685
1.4463
1.44181
1.435
1.42744
1.42029
1.41421
1.40945
1.40595
1.40353
1.40195
1.40128
1.40058
1.4002
1.4
1.39993
1.39991
1.39991
1.39993
1.39995
1.39997
1.39998
1.39999
1.4
1.4
1.4
1.4
1.4
1.4
1.4
1.4
1.40001
1.4
1.40001
1.4
1.4
1.40001
1.4
1.40001
1.40001
1.4
1.40001
1.40001
1.40002
1.40004
1.40006
1.40009
1.40016
1.40024
1.40033
1.4005
1.40072
1.40103
1.40163
1.40278
1.40489
1.40872
1.41526
1.42504
1.43671
1.44664
1.4513
1.44948
1.44216
1.43108
1.4179
1.40405
1.39079
1.37919
1.3701
1.36407
1.36132
1.36168
1.36463
1.36928
1.37462
1.37971
1.38391
1.3869
1.38861
1.38919
1.38896
1.38823
1.38711
1.38533
1.3823
1.37744
1.37067
1.36268
1.35482
1.3486
1.34538
1.3461
1.35133
1.36114
1.37502
1.39174
1.40934
1.42543
1.43778
1.44495
1.44665
1.44373
1.43774
1.43035
1.42295
1.4164
1.41111
1.40714
1.40433
1.40246
1.40164
1.40079
1.40031
1.40007
1.39995
1.39992
1.39992
1.39993
1.39995
1.39997
1.39998
1.39999
1.39999
1.4
1.4
1.4
1.4
1.4
1.40001
1.4
1.40001
1.4
1.40001
1.40001
1.4
1.40001
1.4
1.40001
1.40001
1.4
1.40002
1.40002
1.40001
1.40005
1.40007
1.40009
1.40018
1.40027
1.40035
1.40054
1.4008
1.40117
1.40191
1.40336
1.40599
1.41067
1.41849
1.42949
1.44113
1.44921
1.45094
1.44624
1.43667
1.42407
1.41007
1.39608
1.38333
1.3729
1.36561
1.36196
1.36199
1.36527
1.3709
1.37764
1.3842
1.38957
1.39323
1.39512
1.3955
1.39485
1.39378
1.39286
1.39236
1.39201
1.3909
1.38783
1.38196
1.37347
1.36363
1.35441
1.34775
1.34512
1.34739
1.35484
1.36709
1.38305
1.40089
1.41822
1.4326
1.44214
1.4461
1.44493
1.44
1.43301
1.42551
1.41859
1.41283
1.4084
1.4052
1.40303
1.40203
1.40103
1.40045
1.40014
1.39999
1.39993
1.39992
1.39993
1.39995
1.39996
1.39998
1.39999
1.39999
1.4
1.4
1.4
1.4
1.4
1.4
1.4
1.40001
1.4
1.40001
1.40001
1.4
1.40001
1.4
1.40001
1.40001
1.4
1.40001
1.40002
1.40001
1.40005
1.40008
1.40009
1.40019
1.4003
1.40038
1.40057
1.4009
1.40133
1.40221
1.40402
1.40726
1.41287
1.42197
1.43383
1.44472
1.45044
1.44934
1.44224
1.43089
1.41715
1.4027
1.38891
1.37702
1.3681
1.36299
1.36203
1.36504
1.37117
1.37906
1.38704
1.3936
1.39778
1.39936
1.39872
1.39654
1.3937
1.39116
1.38976
1.38998
1.39161
1.39357
1.39407
1.39131
1.38449
1.37436
1.36305
1.35316
1.34693
1.34581
1.35041
1.36055
1.37529
1.39288
1.41097
1.42695
1.43863
1.44478
1.44545
1.44175
1.43535
1.42793
1.42075
1.41458
1.40971
1.40613
1.40365
1.40245
1.40129
1.4006
1.40023
1.40004
1.39996
1.39993
1.39994
1.39995
1.39996
1.39998
1.39999
1.39999
1.4
1.4
1.4
1.4
1.4
1.4
1.4
1.40001
1.4
1.40001
1.40001
1.4
1.40001
1.4
1.4
1.40002
1.4
1.40001
1.40003
1.40001
1.40004
1.4001
1.4001
1.40018
1.40033
1.4004
1.40059
1.40099
1.40153
1.40256
1.40477
1.4087
1.4153
1.42554
1.43778
1.44735
1.45053
1.44688
1.43781
1.42507
1.41051
1.3959
1.38265
1.37192
1.36484
1.36218
1.36413
1.37009
1.37868
1.38795
1.39583
1.40071
1.40192
1.39972
1.39506
1.38917
1.38333
1.3788
1.3767
1.37769
1.38164
1.38742
1.39289
1.39537
1.39278
1.38479
1.37318
1.361
1.35139
1.34666
1.34801
1.3556
1.36864
1.38552
1.4039
1.42109
1.4346
1.44281
1.44533
1.44299
1.43735
1.43015
1.42282
1.41631
1.41104
1.40709
1.4043
1.40291
1.40158
1.40078
1.40033
1.40009
1.39998
1.39995
1.39994
1.39995
1.39996
1.39998
1.39999
1.39999
1.4
1.4
1.4
1.4
1.4
1.4
1.4
1.40001
1.4
1.4
1.40001
1.4
1.40001
1.40001
1.4
1.40002
1.4
1.4
1.40004
1.40001
1.40003
1.40012
1.40011
1.40016
1.40036
1.40044
1.40059
1.40109
1.40177
1.40295
1.40558
1.41029
1.4179
1.42903
1.44114
1.44905
1.44975
1.44387
1.43321
1.4194
1.40427
1.38977
1.37733
1.36806
1.36305
1.36305
1.36794
1.37654
1.38679
1.3961
1.40215
1.40349
1.39994
1.39246
1.38265
1.37225
1.36287
1.35608
1.35322
1.35509
1.36161
1.37162
1.38281
1.39193
1.39575
1.39248
1.38292
1.37009
1.35792
1.34976
1.34766
1.35232
1.36326
1.379
1.39725
1.41524
1.43027
1.44034
1.44467
1.44374
1.43898
1.43213
1.42477
1.41799
1.41237
1.40807
1.40499
1.40337
1.40188
1.40096
1.40044
1.40015
1.40002
1.39996
1.39995
1.39995
1.39996
1.39998
1.39999
1.39999
1.4
1.4
1.4
1.4
1.4
1.4
1.4
1.40001
1.40001
1.4
1.40001
1.4
1.40001
1.40001
1.39999
1.40002
1.40001
1.39998
1.40005
1.40003
1.40001
1.40014
1.40013
1.40013
1.40038
1.4005
1.40059
1.40116
1.40205
1.4034
1.40643
1.41201
1.42063
1.43228
1.44382
1.44998
1.44838
1.44052
1.42858
1.41401
1.39854
1.38436
1.37299
1.3654
1.36263
1.36534
1.37297
1.38359
1.39428
1.40198
1.40438
1.40051
1.39084
1.37705
1.36135
1.34587
1.33254
1.3232
1.31955
1.32261
1.33221
1.34693
1.36426
1.3807
1.39224
1.39574
1.39055
1.37908
1.36564
1.35462
1.34915
1.3507
1.35921
1.37343
1.39116
1.40958
1.4258
1.43752
1.44355
1.44405
1.44024
1.43386
1.42656
1.4196
1.41367
1.40905
1.40568
1.40385
1.40219
1.40116
1.40055
1.40022
1.40006
1.39998
1.39996
1.39996
1.39997
1.39998
1.39999
1.39999
1.4
1.4
1.4
1.4
1.4
1.4
1.4
1.40001
1.40001
1.4
1.40001
1.4
1.4
1.40002
1.39999
1.40002
1.40003
1.39997
1.40005
1.40005
1.39998
1.40013
1.40018
1.4001
1.40036
1.40058
1.4006
1.4012
1.40236
1.40392
1.40729
1.41378
1.42338
1.43519
1.44581
1.45031
1.44666
1.43699
1.42403
1.40902
1.39341
1.37968
1.36957
1.36384
1.36336
1.36866
1.37862
1.39029
1.39995
1.40436
1.40166
1.39149
1.3749
1.35407
1.33167
1.31025
1.29207
1.27945
1.27472
1.27938
1.29315
1.31387
1.3383
1.36262
1.38253
1.39401
1.395
1.38681
1.37363
1.36066
1.35216
1.35058
1.35647
1.36889
1.38576
1.40426
1.42137
1.43448
1.44208
1.44397
1.44117
1.43533
1.42818
1.4211
1.41492
1.41001
1.40637
1.40432
1.4025
1.40136
1.40068
1.4003
1.4001
1.40001
1.39997
1.39997
1.39997
1.39998
1.39999
1.39999
1.4
1.4
1.4
1.4
1.4
1.4
1.4
1.4
1.40001
1.4
1.40001
1.40001
1.4
1.40002
1.39999
1.4
1.40004
1.39997
1.40003
1.40009
1.39996
1.4001
1.40024
1.40008
1.4003
1.40067
1.40065
1.40119
1.40267
1.40453
1.40818
1.41552
1.42607
1.43774
1.44717
1.45015
1.44478
1.43344
1.41961
1.40449
1.38895
1.3757
1.36698
1.36325
1.36498
1.37257
1.38421
1.39578
1.4029
1.40272
1.39415
1.37723
1.35312
1.32415
1.29348
1.26428
1.23948
1.22215
1.21564
1.22241
1.24212
1.2713
1.305
1.33851
1.36745
1.3876
1.39596
1.3926
1.38116
1.36727
1.35629
1.35173
1.35491
1.36533
1.38109
1.39939
1.41709
1.43137
1.44036
1.44358
1.44178
1.43653
1.42961
1.42247
1.4161
1.41093
1.40705
1.40478
1.40281
1.40156
1.40081
1.40038
1.40015
1.40004
1.39999
1.39997
1.39998
1.39998
1.39999
1.39999
1.4
1.4
1.4
1.4
1.4
1.4
1.4
1.4
1.40001
1.4
1.40001
1.40001
1.39999
1.40003
1.4
1.39998
1.40006
1.39997
1.39999
1.40012
1.39997
1.40004
1.40029
1.4001
1.40019
1.40073
1.40076
1.40116
1.40292
1.40522
1.4091
1.41715
1.4286
1.43997
1.448
1.44959
1.4429
1.43006
1.41537
1.40044
1.38522
1.3724
1.36508
1.36344
1.3672
1.37657
1.38909
1.3994
1.40281
1.3974
1.38285
1.35898
1.32628
1.28706
1.24535
1.20561
1.17185
1.14811
1.13903
1.14848
1.17634
1.21729
1.2636
1.30865
1.34776
1.37711
1.39352
1.39611
1.38769
1.37396
1.36114
1.35388
1.3544
1.36271
1.37716
1.39502
1.41307
1.42828
1.4385
1.44294
1.44211
1.43749
1.43083
1.42371
1.41718
1.41179
1.4077
1.40521
1.40311
1.40176
1.40093
1.40046
1.4002
1.40007
1.40001
1.39999
1.39998
1.39998
1.39999
1.39999
1.4
1.4
1.4
1.4
1.4
1.40001
1.4
1.40001
1.40001
1.4
1.4
1.40001
1.39999
1.40002
1.40001
1.39997
1.40006
1.4
1.39995
1.40013
1.40002
1.39996
1.4003
1.40017
1.40008
1.40072
1.40092
1.40114
1.40308
1.40596
1.41009
1.41858
1.43085
1.44197
1.44843
1.44866
1.44111
1.42702
1.41136
1.39678
1.38223
1.36976
1.36368
1.36418
1.36972
1.38018
1.39277
1.40096
1.40001
1.3893
1.369
1.33773
1.29455
1.24191
1.18572
1.13264
1.08808
1.05685
1.04488
1.05773
1.09569
1.15148
1.21388
1.27333
1.32422
1.36333
1.38808
1.39724
1.39283
1.38025
1.36634
1.35677
1.35475
1.36092
1.37395
1.3912
1.40938
1.42531
1.43659
1.44212
1.44222
1.43822
1.43187
1.42479
1.41816
1.41259
1.4083
1.40562
1.4034
1.40195
1.40106
1.40054
1.40025
1.4001
1.40003
1.4
1.39999
1.39999
1.39999
1.4
1.4
1.4
1.4
1.4
1.4
1.40001
1.4
1.40001
1.40001
1.4
1.4
1.40002
1.39999
1.40001
1.40003
1.39996
1.40004
1.40004
1.39992
1.40011
1.40008
1.3999
1.40026
1.40027
1.4
1.40062
1.40112
1.40121
1.40313
1.40665
1.41117
1.41983
1.43272
1.44376
1.44866
1.44742
1.4394
1.42452
1.40767
1.39338
1.37997
1.3678
1.36256
1.36522
1.37229
1.38305
1.39498
1.4007
1.39529
1.37947
1.35356
1.31405
1.25799
1.18864
1.11507
1.047
0.991242
0.952888
0.938779
0.955955
1.00502
1.07703
1.15754
1.2336
1.29781
1.34724
1.38035
1.39624
1.3964
1.38579
1.37148
1.36008
1.35575
1.35985
1.37141
1.38792
1.40607
1.42254
1.43469
1.4412
1.44215
1.43874
1.43271
1.42572
1.41902
1.41331
1.40886
1.40598
1.40366
1.40213
1.40118
1.40062
1.4003
1.40013
1.40005
1.40001
1.4
1.39999
1.4
1.4
1.4
1.4
1.4
1.4
1.4
1.40001
1.4
1.4
1.40001
1.40001
1.4
1.40001
1.4
1.4
1.40004
1.39997
1.40001
1.40007
1.39992
1.40006
1.40015
1.39988
1.40016
1.40037
1.39999
1.40045
1.40126
1.40139
1.40311
1.40719
1.41232
1.42097
1.43412
1.4453
1.44892
1.44601
1.43766
1.42263
1.40453
1.39009
1.37826
1.36661
1.36159
1.36621
1.37478
1.38502
1.39572
1.39916
1.38955
1.36869
1.33711
1.28858
1.21786
1.12967
1.03733
0.954275
0.888526
0.845068
0.831053
0.853796
0.913535
1.00056
1.09856
1.1916
1.26985
1.32991
1.3712
1.3936
1.39848
1.39033
1.37626
1.36351
1.35718
1.35934
1.36945
1.38516
1.40317
1.42001
1.43289
1.44023
1.44194
1.43909
1.43337
1.42649
1.41975
1.41394
1.40935
1.40631
1.40389
1.40229
1.40129
1.40069
1.40035
1.40016
1.40007
1.40002
1.4
1.4
1.4
1.4
1.4
1.4
1.4
1.4
1.4
1.40001
1.4
1.40001
1.4
1.40001
1.4
1.40001
1.40001
1.39999
1.40003
1.39999
1.39999
1.40008
1.39995
1.4
1.40017
1.39993
1.40004
1.4004
1.40007
1.40027
1.40128
1.40166
1.40312
1.40749
1.41342
1.4221
1.43508
1.44645
1.44933
1.44469
1.43576
1.42126
1.40224
1.38688
1.37676
1.36627
1.36074
1.36679
1.37705
1.3862
1.3951
1.39688
1.38366
1.35755
1.32002
1.26254
1.17722
1.07023
0.959549
0.862699
0.789156
0.743981
0.733545
0.763059
0.831614
0.930167
1.04243
1.15052
1.24204
1.31238
1.36141
1.38987
1.39929
1.39381
1.38042
1.3668
1.35881
1.35925
1.368
1.38291
1.40068
1.41778
1.43123
1.43927
1.44163
1.43928
1.43386
1.4271
1.42036
1.41446
1.40977
1.40657
1.40409
1.40244
1.40139
1.40076
1.40039
1.40019
1.40009
1.40004
1.40001
1.4
1.4
1.4
1.4
1.4
1.4
1.4
1.4
1.40001
1.4
1.40001
1.4
1.40001
1.4
1.40001
1.40001
1.39999
1.40002
1.40001
1.39997
1.40006
1.39999
1.39995
1.40015
1.4
1.39994
1.40034
1.40019
1.40015
1.40115
1.40194
1.40325
1.40757
1.41431
1.42326
1.43573
1.4471
1.44988
1.44379
1.43373
1.42006
1.40102
1.38402
1.37502
1.36666
1.36028
1.36661
1.37895
1.38697
1.39335
1.39413
1.37836
1.34671
1.3028
1.23759
1.14034
1.01728
0.890427
0.781547
0.702603
0.659565
0.656152
0.692649
0.766898
0.872237
0.994149
1.11384
1.21652
1.29587
1.35172
1.3855
1.39906
1.39625
1.38382
1.36973
1.36044
1.35941
1.36694
1.3811
1.39861
1.41586
1.42975
1.43837
1.44128
1.43935
1.4342
1.42756
1.42083
1.41489
1.41012
1.40679
1.40425
1.40256
1.40148
1.40082
1.40044
1.40022
1.40011
1.40005
1.40002
1.40001
1.4
1.4
1.4
1.4
1.4
1.4
1.4
1.40001
1.4
1.4
1.40001
1.4
1.40001
1.4
1.40001
1.4
1.40001
1.40001
1.39998
1.40003
1.40002
1.39996
1.40008
1.40006
1.39993
1.40021
1.40027
1.40015
1.40094
1.40209
1.40352
1.40756
1.41483
1.42438
1.43631
1.44725
1.45033
1.44355
1.43189
1.41865
1.40075
1.38207
1.37276
1.36731
1.36064
1.36562
1.38005
1.38783
1.39088
1.39083
1.37423
1.33726
1.28623
1.21502
1.11076
0.977363
0.838579
0.720044
0.637732
0.599458
0.604374
0.646349
0.72251
0.829788
0.956578
1.084
1.19509
1.28161
1.34292
1.38101
1.39805
1.39769
1.38637
1.37213
1.3619
1.35968
1.3662
1.3797
1.39695
1.41428
1.4285
1.43755
1.4409
1.43932
1.4344
1.42787
1.42117
1.4152
1.41039
1.40694
1.40438
1.40265
1.40155
1.40088
1.40048
1.40025
1.40013
1.40006
1.40003
1.40002
1.40001
1.40001
1.4
1.4
1.4
1.40001
1.4
1.40001
1.40001
1.4
1.40001
1.4
1.40001
1.40001
1.4
1.40001
1.40001
1.40001
1.4
1.40001
1.40002
1.39999
1.40002
1.40006
1.39997
1.40008
1.40026
1.40024
1.40076
1.40205
1.40383
1.4076
1.41496
1.42523
1.43697
1.44712
1.45042
1.44387
1.43077
1.41692
1.40085
1.38157
1.37026
1.36736
1.36206
1.36431
1.37972
1.389
1.38855
1.38669
1.37121
1.33074
1.27189
1.1953
1.08918
0.953392
0.809495
0.685103
0.600935
0.567018
0.57808
0.622807
0.697831
0.803346
0.930913
1.06228
1.17886
1.27046
1.3357
1.37687
1.39654
1.39823
1.38802
1.37388
1.36305
1.35996
1.36569
1.37866
1.39568
1.41306
1.4275
1.43686
1.44053
1.43921
1.43447
1.42805
1.42138
1.41541
1.41057
1.40703
1.40446
1.40272
1.40161
1.40092
1.40051
1.40028
1.40015
1.40008
1.40004
1.40002
1.40001
1.40001
1.40001
1.40001
1.40001
1.40001
1.4
1.4
1.40001
1.4
1.40001
1.4
1.4
1.40001
1.4
1.40001
1.40001
1.4
1.40001
1.40001
1.4
1.40002
1.4
1.40001
1.40003
1.40002
1.40015
1.40032
1.40069
1.40186
1.40401
1.40776
1.41484
1.42561
1.43765
1.44704
1.45009
1.44434
1.43072
1.41531
1.40053
1.38247
1.36846
1.36611
1.36403
1.36375
1.37763
1.38989
1.38754
1.38197
1.36835
1.32818
1.26257
1.17946
1.07345
0.941969
0.801071
0.676753
0.592663
0.560337
0.573005
0.617732
0.690465
0.792638
0.918129
1.04993
1.1688
1.26306
1.33048
1.37345
1.39482
1.39802
1.38878
1.37491
1.36379
1.36015
1.36536
1.37796
1.39481
1.4122
1.42677
1.43632
1.44018
1.43904
1.43443
1.42808
1.42146
1.41551
1.41067
1.40707
1.4045
1.40277
1.40165
1.40096
1.40054
1.4003
1.40016
1.40009
1.40005
1.40003
1.40002
1.40001
1.40001
1.40001
1.40001
1.40001
1.40001
1.4
1.40001
1.4
1.40001
1.4
1.4
1.40001
1.4
1.4
1.40002
1.39999
1.4
1.40003
1.39997
1.40001
1.40002
1.39996
1.40003
1.40004
1.40002
1.40031
1.40072
1.40166
1.40397
1.40793
1.41468
1.42547
1.43806
1.44724
1.44966
1.44452
1.43156
1.41467
1.39955
1.38379
1.3684
1.36387
1.36517
1.3648
1.37462
1.38914
1.38835
1.37829
1.36453
1.32853
1.26102
1.17123
1.06306
0.936889
0.804318
0.687081
0.607125
0.574918
0.585439
0.628232
0.698794
0.79749
0.919088
1.0482
1.16603
1.26016
1.32771
1.37104
1.3931
1.3972
1.38872
1.37521
1.36407
1.36021
1.36516
1.37757
1.39433
1.41171
1.42632
1.43594
1.43989
1.43882
1.43427
1.42799
1.42141
1.4155
1.41069
1.40704
1.40449
1.40278
1.40167
1.40098
1.40056
1.40032
1.40018
1.4001
1.40006
1.40003
1.40002
1.40001
1.40001
1.40001
1.40001
1.40001
1.4
1.40001
1.4
1.4
1.40001
1.40001
1.4
1.40001
1.40001
1.4
1.40002
1.4
1.39999
1.40003
1.39998
1.39999
1.40004
1.39994
1.39997
1.40006
1.39996
1.40019
1.40075
1.40155
1.40373
1.40794
1.41457
1.42502
1.43798
1.44757
1.44955
1.44437
1.43259
1.41547
1.39868
1.38432
1.37
1.3622
1.3643
1.3668
1.37268
1.38599
1.38956
1.3778
1.36064
1.32884
1.26641
1.17507
1.06348
0.93921
0.815251
0.710196
0.639226
0.608138
0.615159
0.654896
0.723034
0.817711
0.933631
1.05722
1.17089
1.26216
1.32774
1.36988
1.39157
1.3959
1.38791
1.37481
1.3639
1.36012
1.36508
1.37749
1.39424
1.41159
1.42616
1.43574
1.43964
1.43855
1.43402
1.42777
1.42124
1.41538
1.41062
1.40695
1.40445
1.40276
1.40167
1.40099
1.40058
1.40033
1.40019
1.40011
1.40006
1.40004
1.40002
1.40002
1.40001
1.40001
1.40001
1.40001
1.4
1.40001
1.40001
1.4
1.40001
1.40001
1.4
1.4
1.40001
1.4
1.40001
1.40001
1.39999
1.40002
1.4
1.39996
1.40003
1.39996
1.39991
1.40004
1.39997
1.40007
1.40068
1.40152
1.40347
1.40768
1.41438
1.42446
1.4374
1.44769
1.44993
1.44436
1.43323
1.41725
1.39915
1.38395
1.37174
1.36254
1.36208
1.36757
1.37306
1.38212
1.38852
1.38026
1.3601
1.32842
1.27371
1.18942
1.08024
0.958525
0.843381
0.752236
0.690958
0.660477
0.663221
0.698879
0.763212
0.852152
0.960249
1.07575
1.1826
1.26868
1.33046
1.37004
1.39034
1.39426
1.38644
1.37377
1.3633
1.3599
1.36515
1.37773
1.39456
1.41186
1.42631
1.43571
1.43945
1.43825
1.43366
1.42742
1.42095
1.41516
1.41047
1.4068
1.40436
1.40272
1.40166
1.40099
1.40059
1.40034
1.4002
1.40012
1.40007
1.40004
1.40003
1.40002
1.40001
1.40001
1.40001
1.40001
1.40001
1.40001
1.4
1.40001
1.40001
1.4