/*--------------------------------*- C++ -*----------------------------------*\
  =========                 |
  \\      /  F ield         | OpenFOAM: The Open Source CFD Toolbox
   \\    /   O peration     | Website:  https://openfoam.org
    \\  /    A nd           | Version:  6
     \\/     M anipulation  |
\*---------------------------------------------------------------------------*/
FoamFile
{
    version     2.0;
    format      ascii;
    class       volScalarField;
    location    "2.3";
    object      rho;
}
// * * * * * * * * * * * * * * * * * * * * * * * * * * * * * * * * * * * * * //

dimensions      [1 -3 0 0 0 0 0];

internalField   nonuniform List<scalar> 
5625
(
1.4
1.4
1.4
1.4
1.4
1.4
1.4
1.4
1.4
1.4
1.4
1.4
1.4
1.4
1.40001
1.40001
1.40001
1.40001
1.40001
1.40001
1.40001
1.40001
1.40001
1.40001
1.40001
1.40001
1.40001
1.40001
1.40001
1.40001
1.40001
1.40001
1.40001
1.40001
1.40001
1.40001
1.40001
1.40001
1.40001
1.40001
1.40001
1.40001
1.40001
1.40001
1.40001
1.40001
1.40001
1.40001
1.40001
1.40001
1.40001
1.40001
1.40001
1.40001
1.40001
1.40001
1.40001
1.40001
1.40001
1.40001
1.40001
1.40001
1.40001
1.40001
1.40001
1.40001
1.40001
1.40001
1.40001
1.40001
1.40001
1.40001
1.40001
1.40001
1.40001
1.4
1.4
1.4
1.4
1.4
1.4
1.4
1.4
1.4
1.4
1.4
1.4
1.4
1.4
1.4
1.40001
1.40001
1.40001
1.40001
1.40001
1.40001
1.40001
1.40001
1.40001
1.40001
1.40001
1.40001
1.40001
1.40001
1.40001
1.40001
1.40001
1.40001
1.40001
1.40001
1.40001
1.40001
1.40001
1.40001
1.40001
1.40001
1.40001
1.40001
1.4
1.4
1.4
1.40001
1.40001
1.40001
1.40001
1.40001
1.40001
1.40001
1.40001
1.40001
1.40001
1.40001
1.40001
1.40001
1.40001
1.40001
1.40001
1.40001
1.40001
1.40001
1.40001
1.40001
1.40001
1.40001
1.40001
1.40001
1.40001
1.40001
1.40001
1.40001
1.4
1.4
1.4
1.4
1.4
1.4
1.4
1.4
1.4
1.4
1.4
1.4
1.4
1.4
1.4
1.40001
1.40001
1.40001
1.40001
1.40001
1.40001
1.40001
1.40001
1.40001
1.40001
1.40001
1.40001
1.40001
1.40001
1.40001
1.40001
1.40001
1.40001
1.40001
1.40001
1.40001
1.40001
1.40001
1.40001
1.40001
1.40001
1.40001
1.40001
1.40001
1.40001
1.40001
1.40001
1.40001
1.40001
1.40001
1.40001
1.40001
1.40001
1.40001
1.40001
1.40001
1.40001
1.40001
1.40001
1.40001
1.40001
1.40001
1.40001
1.40001
1.40001
1.40001
1.40001
1.40001
1.40001
1.40001
1.40001
1.40001
1.40001
1.40001
1.40001
1.4
1.4
1.4
1.4
1.4
1.4
1.4
1.4
1.4
1.4
1.4
1.4
1.4
1.4
1.4
1.40001
1.40001
1.40001
1.40001
1.40001
1.40001
1.40001
1.40001
1.40001
1.40001
1.40001
1.40001
1.40001
1.40001
1.40001
1.40001
1.40001
1.40001
1.40001
1.40001
1.40001
1.40001
1.40001
1.40001
1.40001
1.40001
1.40001
1.40001
1.40001
1.40001
1.40001
1.40001
1.40001
1.40001
1.40001
1.40001
1.40001
1.40001
1.40001
1.40001
1.40001
1.40001
1.40001
1.40001
1.40001
1.40001
1.40001
1.40001
1.40001
1.40001
1.40001
1.40001
1.40001
1.40001
1.40001
1.40001
1.40001
1.40001
1.40001
1.40001
1.4
1.4
1.4
1.4
1.4
1.4
1.4
1.4
1.4
1.4
1.4
1.4
1.4
1.4
1.4
1.40001
1.40001
1.40001
1.40001
1.40001
1.40001
1.40001
1.40001
1.40001
1.40001
1.40001
1.40001
1.40001
1.40001
1.40001
1.40001
1.40001
1.40001
1.40001
1.40001
1.40001
1.40001
1.40001
1.40001
1.40001
1.40001
1.40001
1.40001
1.40001
1.40001
1.40001
1.40001
1.40001
1.40001
1.40001
1.40001
1.40001
1.40001
1.40001
1.40001
1.40001
1.40001
1.40001
1.40001
1.40001
1.40001
1.40001
1.40001
1.40001
1.40001
1.40001
1.40001
1.40001
1.40001
1.40001
1.40001
1.40001
1.40001
1.40001
1.40001
1.4
1.4
1.4
1.4
1.4
1.4
1.4
1.4
1.4
1.4
1.4
1.4
1.4
1.4
1.4
1.40001
1.40001
1.40001
1.40001
1.40001
1.40001
1.40001
1.40001
1.40001
1.40001
1.40001
1.40001
1.40001
1.40001
1.40001
1.40001
1.40001
1.40001
1.40001
1.40001
1.40001
1.40001
1.40001
1.40001
1.40001
1.40001
1.40001
1.40001
1.40001
1.40001
1.40001
1.40001
1.40001
1.40001
1.40001
1.40001
1.40001
1.40001
1.40001
1.40001
1.40001
1.40001
1.40001
1.40001
1.40001
1.40001
1.40001
1.40001
1.40001
1.40001
1.40001
1.40001
1.40001
1.40001
1.40001
1.40001
1.40001
1.40001
1.40001
1.40001
1.4
1.4
1.4
1.4
1.4
1.4
1.4
1.4
1.4
1.4
1.4
1.4
1.4
1.4
1.4
1.40001
1.40001
1.40001
1.40001
1.40001
1.40001
1.40001
1.40001
1.40001
1.40001
1.40001
1.40001
1.40001
1.40001
1.40001
1.40001
1.40001
1.40001
1.40001
1.40001
1.40001
1.40001
1.40001
1.40001
1.40001
1.40001
1.40001
1.40001
1.40001
1.40001
1.40001
1.40001
1.40001
1.40001
1.40001
1.40001
1.40001
1.40001
1.40001
1.40001
1.40001
1.40001
1.40001
1.40001
1.40001
1.40001
1.40001
1.40001
1.40001
1.40001
1.40001
1.40001
1.40001
1.40001
1.40001
1.40001
1.40001
1.40001
1.40001
1.40001
1.4
1.4
1.4
1.4
1.4
1.4
1.4
1.4
1.4
1.4
1.4
1.4
1.4
1.4
1.4
1.40001
1.40001
1.40001
1.40001
1.40001
1.40001
1.40001
1.40002
1.40002
1.40002
1.40001
1.40001
1.40001
1.40001
1.40001
1.40001
1.40001
1.40001
1.40001
1.40001
1.40001
1.40001
1.40001
1.40001
1.40001
1.40001
1.40001
1.40001
1.40001
1.40001
1.40001
1.40001
1.40001
1.40001
1.40001
1.40001
1.40001
1.40001
1.40001
1.40001
1.40001
1.40001
1.40001
1.40001
1.40001
1.40001
1.40001
1.40001
1.40001
1.40001
1.40001
1.40001
1.40001
1.40001
1.40001
1.40001
1.40001
1.40001
1.40001
1.40001
1.4
1.4
1.39999
1.39999
1.39999
1.39999
1.39999
1.39999
1.39999
1.39999
1.4
1.4
1.4
1.4
1.4
1.40001
1.40001
1.40001
1.40001
1.40002
1.40002
1.40002
1.40002
1.40002
1.40002
1.40002
1.40002
1.40002
1.40002
1.40001
1.40001
1.40001
1.40001
1.40001
1.40001
1.40001
1.40001
1.40001
1.40001
1.40001
1.40001
1.40001
1.40001
1.40001
1.40001
1.40001
1.40001
1.40001
1.40001
1.40001
1.40001
1.40001
1.40001
1.40001
1.40001
1.40001
1.40001
1.40001
1.40001
1.40001
1.40001
1.40001
1.40001
1.40001
1.40001
1.40001
1.40001
1.40001
1.40001
1.40001
1.40001
1.40001
1.40001
1.40001
1.40001
1.39999
1.39999
1.39999
1.39999
1.39999
1.39999
1.39999
1.39999
1.39999
1.39999
1.39999
1.39999
1.4
1.4
1.4
1.40001
1.40001
1.40001
1.40002
1.40002
1.40002
1.40002
1.40002
1.40002
1.40002
1.40002
1.40002
1.40002
1.40002
1.40002
1.40002
1.40001
1.40001
1.40001
1.40001
1.40001
1.40001
1.40001
1.40001
1.40001
1.40001
1.40001
1.40001
1.40001
1.40001
1.40001
1.40001
1.40001
1.40001
1.40001
1.40001
1.40001
1.40001
1.40001
1.40001
1.40001
1.40001
1.40001
1.40001
1.40001
1.40001
1.40001
1.40001
1.40001
1.40001
1.40001
1.40001
1.40001
1.40001
1.40001
1.40001
1.40001
1.40001
1.40001
1.40001
1.39999
1.39999
1.39999
1.39998
1.39998
1.39998
1.39998
1.39998
1.39998
1.39999
1.39999
1.39999
1.4
1.4
1.4
1.40001
1.40001
1.40002
1.40002
1.40002
1.40003
1.40003
1.40003
1.40003
1.40003
1.40003
1.40003
1.40003
1.40002
1.40002
1.40002
1.40002
1.40002
1.40001
1.40001
1.40001
1.40001
1.40001
1.40001
1.40001
1.40001
1.40001
1.40001
1.40001
1.40001
1.40001
1.40001
1.40001
1.40001
1.40001
1.40001
1.40001
1.40001
1.40001
1.40001
1.40001
1.40001
1.40001
1.40001
1.40001
1.40001
1.40001
1.40001
1.40001
1.40001
1.40001
1.40001
1.40001
1.40001
1.40001
1.40001
1.40001
1.40001
1.40001
1.40001
1.39999
1.39998
1.39998
1.39998
1.39998
1.39998
1.39998
1.39998
1.39998
1.39998
1.39998
1.39999
1.39999
1.4
1.40001
1.40001
1.40002
1.40002
1.40003
1.40003
1.40003
1.40004
1.40004
1.40004
1.40004
1.40004
1.40003
1.40003
1.40003
1.40003
1.40002
1.40002
1.40002
1.40002
1.40001
1.40001
1.40001
1.40001
1.40001
1.40001
1.40001
1.40001
1.40001
1.40001
1.40001
1.40001
1.40001
1.40001
1.40001
1.40001
1.40001
1.40001
1.40001
1.40001
1.40001
1.40001
1.40001
1.40001
1.40001
1.40001
1.40001
1.40001
1.40001
1.40001
1.40001
1.40001
1.40001
1.40001
1.40001
1.40001
1.40001
1.40001
1.40001
1.40001
1.40001
1.39998
1.39998
1.39997
1.39997
1.39997
1.39997
1.39997
1.39997
1.39997
1.39998
1.39998
1.39999
1.39999
1.4
1.40001
1.40002
1.40002
1.40003
1.40004
1.40004
1.40004
1.40005
1.40005
1.40005
1.40005
1.40005
1.40004
1.40004
1.40004
1.40003
1.40003
1.40003
1.40002
1.40002
1.40002
1.40001
1.40001
1.40001
1.40001
1.40001
1.40001
1.40001
1.40001
1.40001
1.40001
1.40001
1.4
1.4
1.40001
1.40001
1.40001
1.40001
1.40001
1.40001
1.40001
1.40001
1.40001
1.40001
1.40001
1.40001
1.40001
1.40001
1.40001
1.40001
1.40001
1.40001
1.40001
1.40001
1.40001
1.40001
1.40001
1.40001
1.40001
1.40001
1.40001
1.39997
1.39997
1.39996
1.39996
1.39996
1.39996
1.39996
1.39996
1.39996
1.39997
1.39998
1.39998
1.39999
1.4
1.40001
1.40002
1.40003
1.40004
1.40005
1.40005
1.40006
1.40006
1.40006
1.40006
1.40006
1.40006
1.40006
1.40005
1.40005
1.40004
1.40004
1.40003
1.40003
1.40002
1.40002
1.40002
1.40001
1.40001
1.40001
1.40001
1.40001
1.40001
1.40001
1.40001
1.40001
1.40001
1.4
1.4
1.4
1.4
1.4
1.4
1.40001
1.40001
1.40001
1.40001
1.40001
1.40001
1.40001
1.40001
1.40001
1.40001
1.40001
1.40001
1.40001
1.40001
1.40001
1.40001
1.40001
1.40001
1.40001
1.40001
1.40001
1.40001
1.40001
1.39996
1.39996
1.39996
1.39995
1.39995
1.39995
1.39995
1.39995
1.39996
1.39997
1.39997
1.39998
1.4
1.40001
1.40002
1.40003
1.40005
1.40006
1.40006
1.40007
1.40008
1.40008
1.40008
1.40008
1.40008
1.40008
1.40007
1.40007
1.40006
1.40005
1.40005
1.40004
1.40003
1.40003
1.40002
1.40002
1.40002
1.40001
1.40001
1.40001
1.40001
1.40001
1.40001
1.40001
1.40001
1.40001
1.4
1.4
1.4
1.4
1.4
1.4
1.4
1.4
1.40001
1.40001
1.40001
1.40001
1.40001
1.40001
1.40001
1.40001
1.40001
1.40001
1.40001
1.40001
1.40001
1.40001
1.40001
1.40001
1.40001
1.40001
1.40001
1.40001
1.40001
1.39996
1.39995
1.39994
1.39994
1.39994
1.39994
1.39994
1.39995
1.39995
1.39996
1.39998
1.39999
1.4
1.40002
1.40004
1.40005
1.40007
1.40008
1.40009
1.4001
1.4001
1.40011
1.40011
1.40011
1.4001
1.4001
1.40009
1.40008
1.40008
1.40007
1.40006
1.40005
1.40004
1.40004
1.40003
1.40002
1.40002
1.40002
1.40001
1.40001
1.40001
1.40001
1.40001
1.40001
1.40001
1.40001
1.4
1.4
1.4
1.4
1.4
1.4
1.4
1.4
1.4
1.40001
1.40001
1.40001
1.40001
1.40001
1.40001
1.40001
1.40001
1.40001
1.40001
1.40001
1.40001
1.40001
1.40001
1.40001
1.40001
1.40001
1.40001
1.40001
1.40001
1.39994
1.39994
1.39993
1.39993
1.39993
1.39993
1.39994
1.39994
1.39995
1.39997
1.39999
1.4
1.40002
1.40004
1.40006
1.40008
1.4001
1.40011
1.40013
1.40014
1.40014
1.40014
1.40014
1.40014
1.40014
1.40013
1.40012
1.40011
1.4001
1.40008
1.40007
1.40006
1.40005
1.40004
1.40004
1.40003
1.40002
1.40002
1.40001
1.40001
1.40001
1.40001
1.40001
1.40001
1.40001
1.4
1.4
1.4
1.4
1.4
1.4
1.4
1.4
1.4
1.4
1.4
1.40001
1.40001
1.40001
1.40001
1.40001
1.40001
1.40001
1.40001
1.40001
1.40001
1.40001
1.40001
1.40001
1.40001
1.40001
1.40001
1.40001
1.40001
1.40001
1.39993
1.39993
1.39992
1.39992
1.39992
1.39993
1.39994
1.39995
1.39996
1.39998
1.40001
1.40003
1.40006
1.40008
1.40011
1.40013
1.40015
1.40017
1.40018
1.40019
1.4002
1.4002
1.40019
1.40019
1.40018
1.40017
1.40015
1.40014
1.40012
1.40011
1.40009
1.40008
1.40007
1.40005
1.40004
1.40003
1.40003
1.40002
1.40002
1.40001
1.40001
1.40001
1.40001
1.40001
1.4
1.4
1.4
1.4
1.4
1.4
1.4
1.4
1.4
1.4
1.4
1.4
1.4
1.40001
1.40001
1.40001
1.40001
1.40001
1.40001
1.40001
1.40001
1.40001
1.40001
1.40001
1.40001
1.40001
1.40001
1.40001
1.40001
1.40001
1.40001
1.39993
1.39992
1.39992
1.39992
1.39992
1.39993
1.39995
1.39997
1.39999
1.40002
1.40005
1.40008
1.40012
1.40015
1.40018
1.40021
1.40023
1.40025
1.40026
1.40027
1.40027
1.40027
1.40026
1.40025
1.40024
1.40022
1.4002
1.40018
1.40016
1.40014
1.40012
1.4001
1.40008
1.40007
1.40005
1.40004
1.40003
1.40002
1.40002
1.40001
1.40001
1.40001
1.40001
1.40001
1.4
1.4
1.4
1.4
1.4
1.4
1.4
1.4
1.4
1.4
1.4
1.4
1.4
1.4
1.40001
1.40001
1.40001
1.40001
1.40001
1.40001
1.40001
1.40001
1.40001
1.40001
1.40001
1.40001
1.40001
1.40001
1.40001
1.40001
1.40001
1.39992
1.39991
1.39992
1.39992
1.39993
1.39995
1.39997
1.4
1.40004
1.40008
1.40012
1.40017
1.40021
1.40025
1.40029
1.40032
1.40035
1.40037
1.40038
1.40039
1.40038
1.40037
1.40036
1.40034
1.40031
1.40029
1.40026
1.40023
1.4002
1.40017
1.40015
1.40012
1.4001
1.40008
1.40006
1.40005
1.40004
1.40003
1.40002
1.40001
1.40001
1.40001
1.40001
1.4
1.4
1.4
1.4
1.4
1.4
1.4
1.4
1.4
1.4
1.4
1.4
1.4
1.4
1.4
1.40001
1.40001
1.40001
1.40001
1.40001
1.40001
1.40001
1.40001
1.40001
1.40001
1.40001
1.40001
1.40001
1.40001
1.40001
1.40001
1.40001
1.39992
1.39992
1.39992
1.39994
1.39996
1.39999
1.40003
1.40008
1.40013
1.40019
1.40025
1.40031
1.40037
1.40042
1.40047
1.40051
1.40053
1.40055
1.40056
1.40056
1.40055
1.40052
1.4005
1.40046
1.40042
1.40038
1.40034
1.4003
1.40026
1.40022
1.40019
1.40015
1.40012
1.4001
1.40008
1.40006
1.40004
1.40003
1.40002
1.40002
1.40001
1.40001
1.40001
1.4
1.4
1.4
1.4
1.4
1.4
1.4
1.4
1.4
1.4
1.4
1.4
1.4
1.4
1.4
1.4
1.40001
1.40001
1.40001
1.40001
1.40001
1.40001
1.40001
1.40001
1.40001
1.40001
1.40001
1.40001
1.40001
1.40001
1.40001
1.40001
1.39993
1.39994
1.39995
1.39998
1.40002
1.40007
1.40013
1.4002
1.40028
1.40036
1.40044
1.40053
1.4006
1.40067
1.40073
1.40078
1.40081
1.40082
1.40082
1.40081
1.40078
1.40074
1.40069
1.40064
1.40058
1.40052
1.40046
1.4004
1.40034
1.40029
1.40024
1.40019
1.40016
1.40012
1.40009
1.40007
1.40005
1.40004
1.40003
1.40002
1.40001
1.40001
1.4
1.4
1.4
1.4
1.4
1.4
1.4
1.4
1.4
1.4
1.4
1.4
1.4
1.4
1.4
1.4
1.4
1.40001
1.40001
1.40001
1.40001
1.40001
1.40001
1.40001
1.40001
1.40001
1.40001
1.40001
1.40001
1.40001
1.40001
1.40001
1.40001
1.39995
1.39997
1.40001
1.40006
1.40012
1.4002
1.40029
1.4004
1.40051
1.40063
1.40075
1.40086
1.40096
1.40105
1.40113
1.40118
1.40121
1.40122
1.4012
1.40117
1.40112
1.40105
1.40097
1.40089
1.4008
1.4007
1.40061
1.40053
1.40045
1.40037
1.40031
1.40025
1.4002
1.40015
1.40012
1.40009
1.40006
1.40004
1.40003
1.40002
1.40001
1.40001
1.4
1.4
1.4
1.4
1.4
1.4
1.4
1.4
1.4
1.4
1.4
1.4
1.4
1.4
1.4
1.4
1.4
1.4
1.40001
1.40001
1.40001
1.40001
1.40001
1.40001
1.40001
1.40001
1.40001
1.40001
1.40001
1.40001
1.40001
1.40001
1.40001
1.4
1.40005
1.40011
1.40019
1.40029
1.40041
1.40055
1.40071
1.40087
1.40104
1.4012
1.40135
1.40149
1.40161
1.4017
1.40176
1.40179
1.40178
1.40175
1.40168
1.4016
1.40149
1.40137
1.40124
1.4011
1.40096
1.40083
1.40071
1.40059
1.40049
1.4004
1.40032
1.40025
1.40019
1.40015
1.40011
1.40008
1.40005
1.40003
1.40002
1.40001
1.4
1.4
1.4
1.4
1.4
1.4
1.4
1.4
1.4
1.4
1.4
1.4
1.4
1.4
1.4
1.4
1.4
1.4
1.4
1.4
1.40001
1.40001
1.40001
1.40001
1.40001
1.40001
1.40001
1.40001
1.40001
1.40001
1.40001
1.40001
1.40001
1.40001
1.40009
1.40017
1.40027
1.4004
1.40056
1.40074
1.40095
1.40117
1.4014
1.40164
1.40186
1.40207
1.40226
1.40241
1.40252
1.40259
1.40261
1.40259
1.40252
1.40241
1.40227
1.40211
1.40192
1.40173
1.40153
1.40133
1.40114
1.40096
1.4008
1.40065
1.40053
1.40042
1.40032
1.40025
1.40018
1.40013
1.40009
1.40006
1.40004
1.40002
1.40001
1.4
1.4
1.4
1.4
1.4
1.4
1.4
1.4
1.4
1.4
1.4
1.4
1.4
1.4
1.4
1.4
1.4
1.4
1.4
1.4
1.40001
1.40001
1.40001
1.40001
1.40001
1.40001
1.40001
1.40001
1.40001
1.40001
1.40001
1.40001
1.40001
1.40001
1.40023
1.40036
1.40052
1.40072
1.40096
1.40123
1.40152
1.40184
1.40217
1.40249
1.4028
1.40309
1.40333
1.40353
1.40367
1.40374
1.40376
1.4037
1.40359
1.40343
1.40322
1.40297
1.4027
1.40241
1.40212
1.40183
1.40156
1.40131
1.40108
1.40088
1.4007
1.40055
1.40042
1.40032
1.40023
1.40017
1.40011
1.40007
1.40004
1.40002
1.40001
1.4
1.4
1.39999
1.39999
1.39999
1.39999
1.4
1.4
1.4
1.4
1.4
1.4
1.4
1.4
1.4
1.4
1.4
1.4
1.4
1.4
1.4
1.40001
1.40001
1.40001
1.40001
1.40001
1.40001
1.40001
1.40001
1.40001
1.40001
1.40001
1.40001
1.40001
1.40045
1.40065
1.40089
1.40119
1.40154
1.40192
1.40235
1.40279
1.40324
1.40369
1.40411
1.40449
1.40481
1.40507
1.40524
1.40533
1.40533
1.40524
1.40507
1.40482
1.40451
1.40415
1.40376
1.40335
1.40293
1.40253
1.40215
1.40179
1.40147
1.40118
1.40094
1.40073
1.40056
1.40042
1.4003
1.40021
1.40014
1.40009
1.40005
1.40003
1.40001
1.4
1.39999
1.39999
1.39999
1.39999
1.39999
1.39999
1.39999
1.4
1.4
1.4
1.4
1.4
1.4
1.4
1.4
1.4
1.4
1.4
1.4
1.4
1.40001
1.40001
1.40001
1.40001
1.40001
1.40001
1.40001
1.40001
1.40001
1.40001
1.40001
1.40001
1.40001
1.40078
1.40107
1.40143
1.40186
1.40235
1.4029
1.40349
1.4041
1.40472
1.40532
1.40588
1.40639
1.40681
1.40714
1.40736
1.40745
1.40743
1.4073
1.40704
1.40669
1.40625
1.40575
1.4052
1.40463
1.40405
1.40348
1.40294
1.40245
1.402
1.40161
1.40127
1.40098
1.40074
1.40055
1.4004
1.40028
1.40018
1.40012
1.40007
1.40003
1.40001
1.39999
1.39999
1.39998
1.39998
1.39998
1.39999
1.39999
1.39999
1.39999
1.4
1.4
1.4
1.4
1.4
1.4
1.4
1.4
1.4
1.4
1.4
1.4
1.4
1.40001
1.40001
1.40001
1.40001
1.40001
1.40001
1.40001
1.40001
1.40001
1.40001
1.40001
1.40001
1.40124
1.40167
1.40219
1.4028
1.40349
1.40424
1.40505
1.40587
1.4067
1.4075
1.40825
1.4089
1.40945
1.40987
1.41014
1.41025
1.41021
1.41
1.40965
1.40916
1.40856
1.40787
1.40712
1.40633
1.40554
1.40476
1.40402
1.40334
1.40272
1.40218
1.40171
1.40132
1.40099
1.40073
1.40052
1.40036
1.40024
1.40015
1.40008
1.40004
1.40001
1.39999
1.39998
1.39998
1.39998
1.39998
1.39998
1.39998
1.39999
1.39999
1.39999
1.4
1.4
1.4
1.4
1.4
1.4
1.4
1.4
1.4
1.4
1.4
1.4
1.40001
1.40001
1.40001
1.40001
1.40001
1.40001
1.40001
1.40001
1.40001
1.40001
1.40001
1.40001
1.40189
1.4025
1.40323
1.40407
1.40501
1.40604
1.40711
1.40822
1.40931
1.41035
1.41131
1.41215
1.41285
1.41337
1.4137
1.41384
1.41376
1.41348
1.41301
1.41236
1.41156
1.41064
1.40963
1.40857
1.4075
1.40646
1.40546
1.40453
1.40369
1.40295
1.40232
1.40178
1.40134
1.40098
1.4007
1.40048
1.40032
1.4002
1.40011
1.40005
1.40001
1.39999
1.39997
1.39997
1.39997
1.39997
1.39997
1.39998
1.39998
1.39999
1.39999
1.39999
1.4
1.4
1.4
1.4
1.4
1.4
1.4
1.4
1.4
1.4
1.4
1.4
1.40001
1.40001
1.40001
1.40001
1.40001
1.40001
1.40001
1.40001
1.40001
1.40001
1.40001
1.40277
1.40362
1.40462
1.40576
1.40703
1.40838
1.4098
1.41123
1.41264
1.41397
1.41518
1.41624
1.41711
1.41776
1.41816
1.41832
1.41821
1.41784
1.41723
1.4164
1.41536
1.41417
1.41285
1.41147
1.41006
1.40867
1.40733
1.4061
1.40497
1.40398
1.40312
1.4024
1.4018
1.40132
1.40094
1.40065
1.40043
1.40027
1.40015
1.40007
1.40002
1.39999
1.39997
1.39996
1.39996
1.39996
1.39997
1.39997
1.39998
1.39998
1.39999
1.39999
1.4
1.4
1.4
1.4
1.4
1.4
1.4
1.4
1.4
1.4
1.4
1.4
1.40001
1.40001
1.40001
1.40001
1.40001
1.40001
1.40001
1.40001
1.40001
1.40001
1.40001
1.40395
1.40511
1.40645
1.40797
1.40963
1.41139
1.41321
1.41502
1.41679
1.41845
1.41995
1.42125
1.4223
1.42308
1.42357
1.42374
1.4236
1.42315
1.42239
1.42135
1.42006
1.41855
1.41689
1.41512
1.4133
1.4115
1.40976
1.40813
1.40665
1.40533
1.40418
1.40322
1.40242
1.40178
1.40127
1.40088
1.40058
1.40036
1.40021
1.4001
1.40003
1.39999
1.39996
1.39995
1.39995
1.39995
1.39996
1.39996
1.39997
1.39998
1.39998
1.39999
1.39999
1.4
1.4
1.4
1.4
1.4
1.4
1.4
1.4
1.4
1.4
1.4
1.4
1.40001
1.40001
1.40001
1.40001
1.40001
1.40001
1.40001
1.40001
1.40001
1.40001
1.4055
1.40704
1.40881
1.41078
1.41291
1.41514
1.41742
1.41967
1.42183
1.42384
1.42563
1.42717
1.42841
1.42933
1.42989
1.43009
1.42993
1.42939
1.42849
1.42725
1.42569
1.42386
1.42181
1.41961
1.41733
1.41504
1.41282
1.41072
1.40879
1.40707
1.40557
1.40429
1.40324
1.40238
1.4017
1.40118
1.40079
1.4005
1.40029
1.40015
1.40006
1.4
1.39996
1.39995
1.39994
1.39994
1.39995
1.39996
1.39996
1.39997
1.39998
1.39999
1.39999
1.39999
1.4
1.4
1.4
1.4
1.4
1.4
1.4
1.4
1.4
1.4
1.4
1.40001
1.40001
1.40001
1.40001
1.40001
1.40001
1.40001
1.40001
1.40001
1.40001
1.40749
1.4095
1.41177
1.41427
1.41694
1.4197
1.42248
1.42518
1.42774
1.43008
1.43216
1.43391
1.43532
1.43634
1.43697
1.4372
1.43702
1.43642
1.43541
1.434
1.4322
1.43007
1.42764
1.42499
1.42221
1.41938
1.4166
1.41395
1.41149
1.40927
1.40733
1.40567
1.40429
1.40317
1.40228
1.40159
1.40106
1.40068
1.40041
1.40022
1.40009
1.40001
1.39996
1.39994
1.39993
1.39993
1.39994
1.39995
1.39996
1.39997
1.39997
1.39998
1.39999
1.39999
1.4
1.4
1.4
1.4
1.4
1.4
1.4
1.4
1.4
1.4
1.4
1.40001
1.40001
1.40001
1.40001
1.40001
1.40001
1.40001
1.40001
1.40001
1.40001
1.40999
1.41255
1.41542
1.41852
1.42177
1.42509
1.42836
1.43149
1.43441
1.43703
1.43932
1.44122
1.44273
1.44382
1.44449
1.44474
1.44455
1.44393
1.44287
1.44136
1.4394
1.43703
1.43428
1.43122
1.42794
1.42455
1.42117
1.41789
1.41482
1.41203
1.40955
1.40743
1.40564
1.40418
1.40302
1.40212
1.40143
1.40093
1.40056
1.40031
1.40014
1.40003
1.39997
1.39993
1.39992
1.39992
1.39993
1.39994
1.39995
1.39996
1.39997
1.39998
1.39998
1.39999
1.39999
1.4
1.4
1.4
1.4
1.4
1.4
1.4
1.4
1.4
1.4
1.4
1.40001
1.40001
1.40001
1.40001
1.40001
1.40001
1.40001
1.40001
1.40001
1.41307
1.41627
1.41979
1.42353
1.42739
1.43123
1.43495
1.43843
1.44159
1.44438
1.44674
1.44867
1.45017
1.45124
1.4519
1.45215
1.45199
1.45141
1.45039
1.44889
1.44692
1.44445
1.4415
1.43814
1.43444
1.43052
1.42652
1.42259
1.41884
1.41538
1.41229
1.40961
1.40734
1.40547
1.40397
1.4028
1.40191
1.40125
1.40077
1.40044
1.40021
1.40007
1.39998
1.39993
1.39991
1.39991
1.39991
1.39992
1.39994
1.39995
1.39996
1.39997
1.39998
1.39999
1.39999
1.4
1.4
1.4
1.4
1.4
1.4
1.4
1.4
1.4
1.4
1.4
1.40001
1.40001
1.40001
1.40001
1.40001
1.40001
1.40001
1.40001
1.40001
1.41678
1.42068
1.42489
1.42927
1.43368
1.43797
1.442
1.44566
1.44888
1.45162
1.45387
1.45565
1.45698
1.45792
1.45848
1.45871
1.4586
1.45813
1.45728
1.45598
1.45418
1.45183
1.44891
1.44543
1.44147
1.43715
1.4326
1.42802
1.42357
1.41939
1.4156
1.41227
1.40943
1.40707
1.40517
1.40367
1.40252
1.40167
1.40105
1.40061
1.40032
1.40012
1.40001
1.39994
1.39991
1.3999
1.3999
1.39991
1.39993
1.39994
1.39995
1.39997
1.39997
1.39998
1.39999
1.39999
1.4
1.4
1.4
1.4
1.4
1.4
1.4
1.4
1.4
1.4
1.40001
1.40001
1.40001
1.40001
1.40001
1.40001
1.40001
1.40001
1.40001
1.42114
1.42577
1.43066
1.43561
1.44045
1.445
1.44912
1.4527
1.4557
1.45812
1.45998
1.46136
1.46233
1.46298
1.46336
1.46352
1.46349
1.46323
1.46269
1.4618
1.46044
1.4585
1.45592
1.45264
1.44869
1.44417
1.43923
1.4341
1.42897
1.42405
1.41951
1.41546
1.41196
1.40903
1.40665
1.40475
1.4033
1.4022
1.40141
1.40084
1.40046
1.4002
1.40005
1.39995
1.39991
1.39989
1.39989
1.3999
1.39991
1.39993
1.39995
1.39996
1.39997
1.39998
1.39999
1.39999
1.4
1.4
1.4
1.4
1.4
1.4
1.4
1.4
1.4
1.4
1.4
1.40001
1.40001
1.40001
1.40001
1.40001
1.40001
1.40001
1.40001
1.42614
1.43148
1.43695
1.44232
1.44737
1.4519
1.45577
1.45893
1.46135
1.4631
1.46426
1.46497
1.46535
1.46553
1.46562
1.46568
1.46574
1.46578
1.46573
1.46546
1.46483
1.46367
1.4618
1.45911
1.45555
1.45118
1.44613
1.44062
1.43493
1.42932
1.42402
1.4192
1.41497
1.41139
1.40844
1.40609
1.40426
1.40288
1.40186
1.40114
1.40064
1.40031
1.4001
1.39998
1.39991
1.39988
1.39988
1.39989
1.3999
1.39992
1.39994
1.39995
1.39996
1.39997
1.39998
1.39999
1.39999
1.4
1.4
1.4
1.4
1.4
1.4
1.4
1.4
1.4
1.4
1.40001
1.40001
1.40001
1.40001
1.40001
1.40001
1.40001
1.40001
1.4317
1.43765
1.44353
1.44906
1.45398
1.4581
1.46133
1.46363
1.46507
1.46576
1.46589
1.46564
1.46521
1.46476
1.46445
1.46437
1.46455
1.46497
1.46555
1.46613
1.46653
1.46648
1.46576
1.46412
1.46143
1.45764
1.45286
1.44731
1.44127
1.43508
1.42906
1.42346
1.41847
1.41416
1.41058
1.40769
1.40542
1.4037
1.40243
1.40151
1.40088
1.40045
1.40018
1.40002
1.39993
1.39988
1.39987
1.39988
1.39989
1.39991
1.39993
1.39994
1.39996
1.39997
1.39998
1.39999
1.39999
1.4
1.4
1.4
1.4
1.4
1.4
1.4
1.4
1.4
1.4
1.40001
1.40001
1.40001
1.40001
1.40001
1.40001
1.40001
1.40001
1.43767
1.44405
1.45006
1.45538
1.45975
1.46301
1.46511
1.46611
1.46613
1.46541
1.46419
1.46272
1.46128
1.46008
1.45929
1.45903
1.45935
1.46022
1.46155
1.46316
1.46482
1.46623
1.46704
1.46693
1.46561
1.46295
1.45893
1.45374
1.44768
1.44115
1.43454
1.42821
1.42243
1.41736
1.41308
1.40959
1.40682
1.4047
1.40312
1.40198
1.40118
1.40064
1.40029
1.40007
1.39995
1.39989
1.39987
1.39987
1.39988
1.3999
1.39992
1.39994
1.39995
1.39997
1.39998
1.39998
1.39999
1.4
1.4
1.4
1.4
1.4
1.4
1.4
1.4
1.4
1.4
1.40001
1.40001
1.40001
1.40001
1.40001
1.40001
1.40001
1.40001
1.44383
1.45034
1.4561
1.46077
1.4641
1.466
1.4665
1.46575
1.46399
1.46153
1.45869
1.45582
1.45323
1.45117
1.44984
1.44939
1.44986
1.45123
1.4534
1.45618
1.4593
1.4624
1.46509
1.46691
1.46747
1.46647
1.46377
1.45946
1.45381
1.44726
1.44028
1.43334
1.42681
1.42097
1.41595
1.41179
1.40847
1.40589
1.40396
1.40255
1.40155
1.40087
1.40043
1.40015
1.39999
1.3999
1.39987
1.39986
1.39987
1.39989
1.39991
1.39993
1.39995
1.39996
1.39997
1.39998
1.39999
1.39999
1.4
1.4
1.4
1.4
1.4
1.4
1.4
1.4
1.4
1.4
1.40001
1.40001
1.40001
1.40001
1.40001
1.40001
1.40001
1.4499
1.45615
1.4612
1.46471
1.4665
1.46656
1.46502
1.46215
1.4583
1.45384
1.44921
1.4448
1.44095
1.43798
1.4361
1.43544
1.43609
1.438
1.44107
1.44511
1.44981
1.45479
1.45959
1.46367
1.46652
1.46768
1.46684
1.46397
1.45924
1.45309
1.44605
1.43869
1.43153
1.42494
1.41916
1.4143
1.41037
1.40728
1.40494
1.40323
1.402
1.40116
1.4006
1.40025
1.40004
1.39992
1.39987
1.39986
1.39986
1.39988
1.3999
1.39992
1.39994
1.39996
1.39997
1.39998
1.39999
1.39999
1.4
1.4
1.4
1.4
1.4
1.4
1.4
1.4
1.4
1.4
1.40001
1.40001
1.40001
1.40001
1.40001
1.40001
1.40001
1.45551
1.46107
1.4649
1.46675
1.46652
1.46432
1.4604
1.45512
1.44894
1.44233
1.43577
1.42972
1.42457
1.42065
1.41819
1.41735
1.41819
1.42069
1.42472
1.43008
1.43644
1.44341
1.45048
1.45704
1.46249
1.4662
1.46773
1.46683
1.46356
1.45829
1.45158
1.44409
1.43646
1.4292
1.42269
1.4171
1.41251
1.40888
1.40609
1.40402
1.40254
1.40151
1.40082
1.40038
1.40011
1.39996
1.39988
1.39986
1.39986
1.39987
1.39989
1.39991
1.39993
1.39995
1.39997
1.39998
1.39998
1.39999
1.4
1.4
1.4
1.4
1.4
1.4
1.4
1.4
1.4
1.4
1.40001
1.40001
1.40001
1.40001
1.40001
1.40001
1.40001
1.46033
1.46469
1.46683
1.46656
1.46392
1.45913
1.45256
1.44468
1.43601
1.42712
1.41855
1.41078
1.40427
1.39935
1.3963
1.39528
1.39635
1.39948
1.40454
1.41129
1.41941
1.42846
1.43789
1.44708
1.45532
1.46188
1.46615
1.4677
1.46641
1.46253
1.45659
1.44931
1.44144
1.43366
1.42647
1.42017
1.4149
1.41067
1.4074
1.40494
1.40317
1.40192
1.40108
1.40054
1.4002
1.4
1.3999
1.39986
1.39985
1.39987
1.39989
1.39991
1.39993
1.39995
1.39996
1.39997
1.39998
1.39999
1.39999
1.4
1.4
1.4
1.4
1.4
1.4
1.4
1.4
1.4
1.40001
1.40001
1.40001
1.40001
1.40001
1.40001
1.40001
1.46401
1.46671
1.46672
1.46397
1.45863
1.45102
1.44163
1.43099
1.41972
1.40843
1.39773
1.38815
1.38018
1.37421
1.37053
1.36932
1.37065
1.37448
1.38065
1.38892
1.3989
1.41014
1.42205
1.43397
1.44513
1.45474
1.46202
1.46639
1.46753
1.46552
1.4608
1.45412
1.44631
1.43819
1.43043
1.42345
1.41751
1.41266
1.40886
1.40599
1.40389
1.4024
1.40139
1.40073
1.40031
1.40007
1.39993
1.39987
1.39986
1.39986
1.39988
1.3999
1.39992
1.39994
1.39996
1.39997
1.39998
1.39999
1.39999
1.4
1.4
1.4
1.4
1.4
1.4
1.4
1.4
1.4
1.40001
1.40001
1.40001
1.40001
1.40001
1.40001
1.40001
1.46629
1.46694
1.46448
1.45899
1.45074
1.44016
1.42781
1.41429
1.40028
1.38645
1.37346
1.36192
1.35236
1.34523
1.34085
1.33943
1.34105
1.34566
1.35308
1.363
1.37502
1.38862
1.40316
1.41793
1.43213
1.4449
1.45539
1.46285
1.46677
1.46705
1.464
1.45831
1.45089
1.44267
1.43447
1.42689
1.42029
1.41482
1.41048
1.40715
1.4047
1.40295
1.40175
1.40095
1.40044
1.40014
1.39997
1.39989
1.39986
1.39986
1.39988
1.3999
1.39992
1.39994
1.39995
1.39997
1.39998
1.39999
1.39999
1.4
1.4
1.4
1.4
1.4
1.4
1.4
1.4
1.4
1.4
1.40001
1.40001
1.40001
1.40001
1.40001
1.40001
1.46703
1.46531
1.46015
1.45174
1.44046
1.4268
1.41136
1.39482
1.37788
1.36131
1.34581
1.33208
1.32074
1.31229
1.30712
1.30545
1.3074
1.3129
1.32172
1.33353
1.34781
1.36398
1.38135
1.39914
1.41652
1.43259
1.44641
1.45714
1.46411
1.46702
1.46602
1.46171
1.45501
1.44695
1.4385
1.43042
1.42321
1.41713
1.41222
1.40843
1.4056
1.40357
1.40216
1.40121
1.4006
1.40023
1.40002
1.39992
1.39987
1.39986
1.39987
1.39989
1.39991
1.39993
1.39995
1.39997
1.39998
1.39999
1.39999
1.4
1.4
1.4
1.4
1.4
1.4
1.4
1.4
1.4
1.4
1.40001
1.40001
1.40001
1.40001
1.40001
1.40001
1.46619
1.46188
1.45387
1.44245
1.42805
1.41121
1.39255
1.37278
1.35268
1.33306
1.31476
1.29857
1.28519
1.27523
1.26914
1.2672
1.26953
1.27605
1.28649
1.30042
1.31726
1.3363
1.35676
1.3778
1.39852
1.41801
1.43528
1.44941
1.45961
1.46541
1.46678
1.4642
1.45854
1.45091
1.44241
1.43396
1.42622
1.41954
1.41408
1.40981
1.40659
1.40425
1.40261
1.4015
1.40079
1.40034
1.40009
1.39995
1.39989
1.39987
1.39987
1.39989
1.39991
1.39993
1.39995
1.39996
1.39998
1.39998
1.39999
1.4
1.4
1.4
1.4
1.4
1.4
1.4
1.4
1.4
1.4
1.40001
1.40001
1.40001
1.40001
1.40001
1.40001
1.46382
1.4568
1.44588
1.4314
1.41381
1.39367
1.37159
1.34834
1.32476
1.30176
1.2803
1.26131
1.24561
1.23393
1.22679
1.22454
1.22731
1.23501
1.24731
1.26368
1.28341
1.30566
1.32952
1.35406
1.37833
1.40138
1.42221
1.43984
1.45341
1.46228
1.46627
1.4657
1.46139
1.45446
1.44611
1.43744
1.42924
1.42203
1.41603
1.41127
1.40764
1.40499
1.40311
1.40183
1.40099
1.40047
1.40016
1.39999
1.39991
1.39988
1.39988
1.39989
1.39991
1.39993
1.39995
1.39996
1.39997
1.39998
1.39999
1.4
1.4
1.4
1.4
1.4
1.4
1.4
1.4
1.4
1.4
1.40001
1.40001
1.40001
1.40001
1.40001
1.40001
1.46008
1.4503
1.43644
1.41887
1.39802
1.37442
1.3487
1.32166
1.29422
1.26745
1.24245
1.2203
1.20199
1.18837
1.18007
1.17748
1.18077
1.18981
1.20424
1.22339
1.24639
1.27222
1.29983
1.32817
1.35621
1.38296
1.40745
1.42866
1.44566
1.45773
1.46452
1.4662
1.46349
1.4575
1.44953
1.44079
1.43224
1.42454
1.41803
1.41279
1.40875
1.40577
1.40365
1.40219
1.40122
1.40061
1.40025
1.40004
1.39993
1.39989
1.39988
1.39989
1.39991
1.39993
1.39995
1.39996
1.39997
1.39998
1.39999
1.39999
1.4
1.4
1.4
1.4
1.4
1.4
1.4
1.4
1.4
1.40001
1.40001
1.40001
1.40001
1.40001
1.40001
1.45517
1.44264
1.42585
1.40516
1.38095
1.35372
1.3241
1.29292
1.26124
1.23029
1.20135
1.17571
1.15452
1.13877
1.12919
1.12624
1.13011
1.14067
1.15748
1.17976
1.20643
1.23627
1.26799
1.30042
1.33245
1.36306
1.39128
1.41611
1.43659
1.45193
1.46163
1.46573
1.46483
1.46
1.45259
1.44394
1.43516
1.42704
1.42005
1.41435
1.40991
1.4066
1.40422
1.40257
1.40147
1.40077
1.40034
1.4001
1.39997
1.39991
1.39989
1.3999
1.39991
1.39993
1.39995
1.39996
1.39997
1.39998
1.39999
1.39999
1.4
1.4
1.4
1.4
1.4
1.4
1.4
1.4
1.4
1.40001
1.40001
1.40001
1.40001
1.40001
1.40001
1.44931
1.43406
1.41437
1.39054
1.36289
1.33184
1.29803
1.26237
1.22608
1.19056
1.15734
1.12791
1.10362
1.08558
1.07462
1.07128
1.07578
1.088
1.10744
1.13317
1.1639
1.19814
1.23436
1.27119
1.30742
1.34202
1.37403
1.40249
1.42645
1.44506
1.45773
1.46436
1.46543
1.46194
1.45526
1.44684
1.43794
1.42949
1.42206
1.41592
1.41109
1.40745
1.40482
1.40298
1.40174
1.40094
1.40045
1.40016
1.40001
1.39993
1.3999
1.3999
1.39992
1.39993
1.39995
1.39996
1.39997
1.39998
1.39999
1.39999
1.4
1.4
1.4
1.4
1.4
1.4
1.4
1.4
1.4
1.40001
1.40001
1.40001
1.40001
1.40001
1.40001
1.44275
1.42485
1.4023
1.37531
1.34412
1.30908
1.27083
1.23039
1.18914
1.14874
1.11096
1.07752
1.04997
1.02955
1.01716
1.01339
1.01852
1.03248
1.05472
1.08418