# Probe 0 (1 1 0)
#       Probe             0
#        Time
   0.00111111             (0.412938 0.953687 0)
   0.00238095             (0.412907 0.95336 0)
   0.00390476             (0.41287 0.952967 0)
   0.00542857             (0.412835 0.952574 0)
   0.00695238             (0.412799 0.952181 0)
   0.00847619             (0.412765 0.951789 0)
         0.01             (0.412731 0.951396 0)
    0.0116667             (0.412694 0.950968 0)
    0.0133333             (0.412659 0.95054 0)
        0.015             (0.412624 0.950112 0)
    0.0166667             (0.412589 0.949685 0)
    0.0183333             (0.412556 0.949259 0)
         0.02             (0.412523 0.948834 0)
        0.022             (0.412484 0.948325 0)
        0.024             (0.412446 0.947818 0)
        0.026             (0.412409 0.947313 0)
        0.028             (0.412373 0.94681 0)
         0.03             (0.412337 0.946309 0)
        0.032             (0.412303 0.94581 0)
        0.034             (0.412269 0.945314 0)
        0.036             (0.412236 0.94482 0)
        0.038             (0.412203 0.944329 0)
         0.04             (0.412171 0.943841 0)
        0.042             (0.41214 0.943356 0)
        0.044             (0.412109 0.942874 0)
        0.046             (0.412079 0.942396 0)
        0.048             (0.412049 0.941921 0)
         0.05             (0.41202 0.941451 0)
        0.052             (0.411991 0.940984 0)
        0.054             (0.411962 0.940521 0)
        0.056             (0.411934 0.940063 0)
        0.058             (0.411906 0.939609 0)
         0.06             (0.411878 0.93916 0)
        0.062             (0.41185 0.938715 0)
        0.064             (0.411823 0.938276 0)
        0.066             (0.411795 0.937841 0)
        0.068             (0.411767 0.937412 0)
         0.07             (0.41174 0.936988 0)
        0.072             (0.411712 0.93657 0)
        0.074             (0.411684 0.936158 0)
        0.076             (0.411656 0.935751 0)
        0.078             (0.411627 0.935351 0)
         0.08             (0.411599 0.934957 0)
        0.082             (0.411569 0.934569 0)
        0.084             (0.41154 0.934188 0)
        0.086             (0.41151 0.933814 0)
        0.088             (0.411479 0.933446 0)
         0.09             (0.411448 0.933085 0)
        0.092             (0.411416 0.932732 0)
        0.094             (0.411384 0.932386 0)
        0.096             (0.411351 0.932047 0)
        0.098             (0.411316 0.931716 0)
          0.1             (0.411282 0.931392 0)
        0.102             (0.343922 0.927094 0)
        0.104             (0.343816 0.926863 0)
        0.106             (0.343709 0.926639 0)
        0.108             (0.343602 0.926422 0)
         0.11             (0.349272 0.977215 0)
        0.112             (0.349092 0.977067 0)
        0.114             (0.348913 0.976924 0)
        0.116             (0.348735 0.976787 0)
        0.118             (0.348558 0.976656 0)
         0.12             (0.348382 0.976531 0)
        0.122             (0.348207 0.976412 0)
        0.124             (0.348033 0.9763 0)
        0.126             (0.347861 0.976193 0)
        0.128             (0.347689 0.976094 0)
         0.13             (0.347519 0.976001 0)
        0.132             (0.347349 0.975914 0)
        0.134             (0.347181 0.975834 0)
        0.136             (0.347014 0.975761 0)
        0.138             (0.346847 0.975695 0)
         0.14             (0.346683 0.975635 0)
        0.142             (0.346519 0.975582 0)
        0.144             (0.346356 0.975537 0)
        0.146             (0.346195 0.975498 0)
        0.148             (0.346034 0.975467 0)
         0.15             (0.345875 0.975443 0)
        0.152             (0.345717 0.975426 0)
        0.154             (0.345561 0.975416 0)
        0.156             (0.345406 0.975414 0)
        0.158             (0.345252 0.975419 0)
         0.16             (0.345099 0.975431 0)
        0.162             (0.344948 0.975451 0)
        0.164             (0.344798 0.975479 0)
        0.166             (0.344649 0.975514 0)
        0.168             (0.344502 0.975557 0)
         0.17             (0.344356 0.975607 0)
        0.172             (0.344212 0.975666 0)
        0.174             (0.344069 0.975732 0)
        0.176             (0.343928 0.975805 0)
        0.178             (0.343788 0.975887 0)
         0.18             (0.34365 0.975977 0)
        0.182             (0.343514 0.976074 0)
        0.184             (0.343379 0.976179 0)
        0.186             (0.343246 0.976292 0)
        0.188             (0.343115 0.976414 0)
         0.19             (0.342986 0.976543 0)
        0.192             (0.342858 0.97668 0)
        0.194             (0.342733 0.976825 0)
        0.196             (0.342609 0.976978 0)
        0.198             (0.342488 0.97714 0)
          0.2             (0.342368 0.977309 0)
        0.202             (0.342251 0.977486 0)
        0.204             (0.342135 0.977672 0)
        0.206             (0.342022 0.977865 0)
        0.208             (0.341912 0.978067 0)
         0.21             (0.341803 0.978276 0)
        0.212             (0.341697 0.978494 0)
        0.214             (0.341594 0.978719 0)
        0.216             (0.341493 0.978953 0)
        0.218             (0.341394 0.979195 0)
         0.22             (0.341299 0.979444 0)
        0.222             (0.341206 0.979702 0)
        0.224             (0.341115 0.979967 0)
        0.226             (0.341028 0.980241 0)
        0.228             (0.340944 0.980522 0)
         0.23             (0.340863 0.980811 0)
        0.232             (0.340785 0.981108 0)
        0.234             (0.34071 0.981413 0)
        0.236             (0.340638 0.981726 0)
        0.238             (0.34057 0.982046 0)
         0.24             (0.340505 0.982374 0)
        0.242             (0.340444 0.982709 0)
        0.244             (0.340387 0.983052 0)
        0.246             (0.340333 0.983403 0)
        0.248             (0.340283 0.983761 0)
         0.25             (0.340237 0.984126 0)
        0.252             (0.340195 0.984499 0)
        0.254             (0.340157 0.984879 0)
        0.256             (0.340124 0.985266 0)
        0.258             (0.340094 0.985661 0)
         0.26             (0.34007 0.986062 0)
        0.262             (0.340049 0.98647 0)
        0.264             (0.340034 0.986886 0)
        0.266             (0.340023 0.987308 0)
        0.268             (0.340017 0.987736 0)
         0.27             (0.340017 0.988172 0)
        0.272             (0.340021 0.988613 0)
        0.274             (0.34003 0.989062 0)
        0.276             (0.340045 0.989516 0)
        0.278             (0.340066 0.989977 0)
         0.28             (0.340092 0.990444 0)
        0.282             (0.340124 0.990917 0)
        0.284             (0.340161 0.991396 0)
        0.286             (0.340205 0.99188 0)
        0.288             (0.340255 0.99237 0)
         0.29             (0.340311 0.992866 0)
        0.292             (0.340373 0.993367 0)
        0.294             (0.340442 0.993873 0)
        0.296             (0.340517 0.994385 0)
        0.298             (0.340599 0.994901 0)
          0.3             (0.340689 0.995422 0)
        0.302             (0.340785 0.995948 0)
        0.304             (0.340888 0.996479 0)
        0.306             (0.340999 0.997014 0)
        0.308             (0.341117 0.997553 0)
         0.31             (0.341243 0.998096 0)
        0.312             (0.341376 0.998643 0)
        0.314             (0.341518 0.999194 0)
        0.316             (0.341667 0.999748 0)
        0.318             (0.341825 1.00031 0)
         0.32             (0.341991 1.00087 0)
        0.322             (0.342165 1.00143 0)
        0.324             (0.342348 1.002 0)
        0.326             (0.342539 1.00257 0)
        0.328             (0.34274 1.00314 0)
         0.33             (0.34295 1.00371 0)
        0.332             (0.343168 1.00429 0)
        0.334             (0.343396 1.00487 0)
        0.336             (0.343634 1.00545 0)
        0.338             (0.343881 1.00603 0)
         0.34             (0.344138 1.00661 0)
        0.342             (0.344404 1.0072 0)
        0.344             (0.344681 1.00778 0)
        0.346             (0.344968 1.00837 0)
        0.348             (0.345265 1.00895 0)
         0.35             (0.345573 1.00954 0)
        0.352             (0.345891 1.01013 0)
        0.354             (0.34622 1.01071 0)
        0.356             (0.34656 1.0113 0)
        0.358             (0.346911 1.01188 0)
         0.36             (0.347273 1.01246 0)
        0.362             (0.347646 1.01305 0)
        0.364             (0.348031 1.01363 0)
        0.366             (0.348427 1.0142 0)
        0.368             (0.348835 1.01478 0)
         0.37             (0.349254 1.01536 0)
        0.372             (0.349686 1.01593 0)
        0.374             (0.350129 1.0165 0)
        0.376             (0.32707 0.975486 0)
        0.378             (0.327179 0.976305 0)
         0.38             (0.327298 0.977124 0)
        0.382             (0.327426 0.977942 0)
        0.384             (0.327565 0.97876 0)
        0.386             (0.327715 0.979576 0)
        0.388             (0.327875 0.980392 0)
         0.39             (0.328046 0.981205 0)
        0.392             (0.328229 0.982017 0)
        0.394             (0.328422 0.982826 0)
        0.396             (0.328626 0.983633 0)
        0.398             (0.328842 0.984438 0)
          0.4             (0.32907 0.985239 0)
        0.402             (0.329309 0.986036 0)
        0.404             (0.329561 0.98683 0)
        0.406             (0.329824 0.98762 0)
        0.408             (0.3301 0.988405 0)
         0.41             (0.330388 0.989186 0)
        0.412             (0.330688 0.989962 0)
        0.414             (0.331001 0.990732 0)
        0.416             (0.331327 0.991497 0)
        0.418             (0.331665 0.992256 0)
         0.42             (0.332017 0.993009 0)
        0.422             (0.332381 0.993755 0)
        0.424             (0.332759 0.994493 0)
        0.426             (0.33315 0.995225 0)
        0.428             (0.333555 0.995949 0)
         0.43             (0.333973 0.996665 0)
        0.432             (0.334404 0.997372 0)
        0.434             (0.33485 0.998071 0)
        0.436             (0.335309 0.998761 0)
        0.438             (0.335782 0.999442 0)
         0.44             (0.336269 1.00011 0)
        0.442             (0.33677 1.00077 0)
        0.444             (0.337285 1.00142 0)
        0.446             (0.337814 1.00206 0)
        0.448             (0.338358 1.00269 0)
         0.45             (0.338915 1.00331 0)
        0.452             (0.339487 1.00391 0)
        0.454             (0.340073 1.00451 0)
        0.456             (0.340674 1.00509 0)
        0.458             (0.341289 1.00566 0)
         0.46             (0.341919 1.00621 0)
        0.462             (0.342562 1.00675 0)
        0.464             (0.343221 1.00728 0)
        0.466             (0.343893 1.00779 0)
        0.468             (0.344581 1.00829 0)
         0.47             (0.345282 1.00877 0)
        0.472             (0.345998 1.00924 0)
        0.474             (0.346729 1.00969 0)
        0.476             (0.347473 1.01013 0)
        0.478             (0.348232 1.01055 0)
         0.48             (0.349006 1.01095 0)
        0.482             (0.349793 1.01134 0)
        0.484             (0.350595 1.01171 0)
        0.486             (0.351411 1.01206 0)
        0.488             (0.352241 1.01239 0)
         0.49             (0.295752 0.923864 0)
        0.492             (0.29666 0.923496 0)
        0.494             (0.297581 0.923109 0)
        0.496             (0.298513 0.922702 0)
        0.498             (0.299458 0.922276 0)
          0.5             (0.262827 0.904038 0)
        0.502             (0.263373 0.903935 0)
        0.504             (0.263933 0.903813 0)
        0.506             (0.264505 0.90367 0)
        0.508             (0.26509 0.903508 0)
         0.51             (0.265688 0.903325 0)
        0.512             (0.266298 0.903122 0)
        0.514             (0.266921 0.902898 0)
        0.516             (0.267556 0.902653 0)
        0.518             (0.268203 0.902387 0)
         0.52             (0.268863 0.9021 0)
        0.522             (0.269535 0.901791 0)
        0.524             (0.270218 0.90146 0)
        0.526             (0.270913 0.901107 0)
        0.528             (0.27162 0.900731 0)
         0.53             (0.272339 0.900333 0)
        0.532             (0.273069 0.899913 0)
        0.534             (0.27381 0.899469 0)
        0.536             (0.274561 0.899003 0)
        0.538             (0.275324 0.898513 0)
         0.54             (0.276098 0.898 0)
        0.542             (0.276881 0.897463 0)
        0.544             (0.277676 0.896903 0)
        0.546             (0.27848 0.896318 0)
        0.548             (0.279294 0.89571 0)
         0.55             (0.280117 0.895077 0)
        0.552             (0.280951 0.89442 0)
        0.554             (0.281793 0.893738 0)
        0.556             (0.282644 0.893032 0)
        0.558             (0.283504 0.892302 0)
         0.56             (0.284373 0.891546 0)
        0.562             (0.28525 0.890766 0)
        0.564             (0.286135 0.88996 0)
        0.566             (0.287027 0.889129 0)
        0.568             (0.287927 0.888274 0)
         0.57             (0.288835 0.887393 0)
        0.572             (0.289749 0.886486 0)
        0.574             (0.290671 0.885554 0)
        0.576             (0.291598 0.884597 0)
        0.578             (0.292532 0.883614 0)
         0.58             (0.293472 0.882606 0)
        0.582             (0.294417 0.881572 0)
        0.584             (0.295368 0.880513 0)
        0.586             (0.296323 0.879428 0)
        0.588             (0.297284 0.878317 0)
         0.59             (0.298249 0.877181 0)
        0.592             (0.299217 0.876019 0)
        0.594             (0.30019 0.874831 0)
        0.596             (0.301166 0.873618 0)
        0.598             (0.302146 0.872379 0)
          0.6             (0.303128 0.871115 0)
        0.602             (0.304113 0.869825 0)
        0.604             (0.3051 0.868509 0)
        0.606             (0.262282 0.861381 0)
        0.608             (0.262916 0.860347 0)
         0.61             (0.263553 0.859285 0)
        0.612             (0.264195 0.858195 0)
        0.614             (0.264841 0.857079 0)
        0.616             (0.265491 0.855935 0)
        0.618             (0.266143 0.854765 0)
         0.62             (0.266799 0.853567 0)
        0.622             (0.267457 0.852341 0)
        0.624             (0.268118 0.851089 0)
        0.626             (0.268781 0.84981 0)
        0.628             (0.269445 0.848504 0)
         0.63             (0.270111 0.847171 0)
        0.632             (0.270778 0.845811 0)
        0.634             (0.271445 0.844424 0)
        0.636             (0.272113 0.843011 0)
        0.638             (0.272781 0.841571 0)
         0.64             (0.273449 0.840105 0)
        0.642             (0.274117 0.838612 0)
        0.644             (0.274783 0.837094 0)
        0.646             (0.275448 0.835549 0)
        0.648             (0.276112 0.833978 0)
         0.65             (0.276774 0.832382 0)
        0.652             (0.277434 0.83076 0)
        0.654             (0.278092 0.829112 0)
        0.656             (0.278746 0.827439 0)
        0.658             (0.279398 0.825741 0)
         0.66             (0.280046 0.824018 0)
        0.662             (0.280691 0.82227 0)
        0.664             (0.281331 0.820497 0)
        0.666             (0.344171 0.94453 0)
        0.668             (0.344736 0.943165 0)
         0.67             (0.345293 0.941768 0)
        0.672             (0.345843 0.94034 0)
        0.674             (0.346386 0.938882 0)
        0.676             (0.34692 0.937394 0)
        0.678             (0.347445 0.935875 0)
         0.68             (0.347962 0.934326 0)
        0.682             (0.348469 0.932747 0)
        0.684             (0.348967 0.931138 0)
        0.686             (0.349455 0.9295 0)
        0.688             (0.349933 0.927832 0)
         0.69             (0.3504 0.926136 0)
        0.692             (0.350856 0.92441 0)
        0.694             (0.351301 0.922656 0)
        0.696             (0.351734 0.920873 0)
        0.698             (0.352155 0.919062 0)
          0.7             (0.352565 0.917223 0)
        0.702             (0.352961 0.915356 0)
        0.704             (0.353345 0.913461 0)
        0.706             (0.353716 0.911539 0)
        0.708             (0.354074 0.909591 0)
         0.71             (0.354418 0.907615 0)
        0.712             (0.354748 0.905613 0)
        0.714             (0.355064 0.903584 0)
        0.716             (0.355366 0.90153 0)
        0.718             (0.355654 0.899449 0)
         0.72             (0.355926 0.897344 0)
        0.722             (0.356183 0.895213 0)
        0.724             (0.356425 0.893057 0)
        0.726             (0.356652 0.890876 0)
        0.728             (0.356863 0.888671 0)
         0.73             (0.357058 0.886442 0)
        0.732             (0.357237 0.884189 0)
        0.734             (0.3574 0.881912 0)
        0.736             (0.357546 0.879612 0)
        0.738             (0.357676 0.877289 0)
         0.74             (0.357789 0.874944 0)
        0.742             (0.357885 0.872576 0)
        0.744             (0.357964 0.870186 0)
        0.746             (0.358026 0.867774 0)
        0.748             (0.358071 0.865341 0)
         0.75             (0.358098 0.862886 0)
        0.752             (0.358108 0.860411 0)
        0.754             (0.3581 0.857914 0)
        0.756             (0.358075 0.855398 0)
        0.758             (0.358032 0.852861 0)
         0.76             (0.35797 0.850305 0)
        0.762             (0.357892 0.847729 0)
        0.764             (0.357795 0.845134 0)
        0.766             (0.35768 0.842521 0)
        0.768             (0.357547 0.839888 0)
         0.77             (0.357396 0.837238 0)
        0.772             (0.357227 0.834569 0)
        0.774             (0.357039 0.831883 0)
        0.776             (0.356834 0.829179 0)
        0.778             (0.356611 0.826459 0)
         0.78             (0.356369 0.823721 0)
        0.782             (0.356109 0.820967 0)
        0.784             (0.355832 0.818197 0)
        0.786             (0.355536 0.815411 0)
        0.788             (0.355222 0.812609 0)
         0.79             (0.35489 0.809792 0)
        0.792             (0.354541 0.80696 0)
        0.794             (0.354173 0.804113 0)
        0.796             (0.353788 0.801252 0)
        0.798             (0.353386 0.798377 0)
          0.8             (0.352965 0.795487 0)
        0.802             (0.352527 0.792584 0)
        0.804             (0.352072 0.789668 0)
        0.806             (0.3516 0.786739 0)
        0.808             (0.35111 0.783797 0)
         0.81             (0.350603 0.780842 0)
        0.812             (0.35008 0.777875 0)
        0.814             (0.34954 0.774896 0)
        0.816             (0.348983 0.771906 0)
        0.818             (0.348409 0.768904 0)
         0.82             (0.34782 0.765891 0)
        0.822             (0.347214 0.762867 0)
        0.824             (0.346592 0.759833 0)
        0.826             (0.345955 0.756788 0)
        0.828             (0.345301 0.753733 0)
         0.83             (0.344633 0.750669 0)
        0.832             (0.343949 0.747595 0)
        0.834             (0.34325 0.744511 0)
        0.836             (0.342537 0.741419 0)
        0.838             (0.341808 0.738317 0)
         0.84             (0.341066 0.735207 0)
        0.842             (0.340309 0.732089 0)
        0.844             (0.339538 0.728963 0)
        0.846             (0.338754 0.725829 0)
        0.848             (0.337956 0.722688 0)
         0.85             (0.337145 0.719539 0)
        0.852             (0.336321 0.716383 0)
        0.854             (0.335484 0.713221 0)
        0.856             (0.334635 0.710051 0)
        0.858             (0.333773 0.706876 0)
         0.86             (0.3329 0.703694 0)
        0.862             (0.332015 0.700507 0)
        0.864             (0.331118 0.697313 0)
        0.866             (0.330211 0.694115 0)
        0.868             (0.329293 0.690911 0)
         0.87             (0.328364 0.687702 0)
        0.872             (0.327425 0.684489 0)
        0.874             (0.326476 0.681271 0)
        0.876             (0.325517 0.678048 0)
        0.878             (0.324549 0.674822 0)
         0.88             (0.323571 0.671592 0)
        0.882             (0.322585 0.668358 0)
        0.884             (0.321591 0.66512 0)
        0.886             (0.320589 0.66188 0)
        0.888             (0.319578 0.658636 0)
         0.89             (0.31856 0.65539 0)
        0.892             (0.317535 0.652141 0)
        0.894             (0.316503 0.648889 0)
        0.896             (0.315465 0.645635 0)
        0.898             (0.31442 0.64238 0)
          0.9             (0.313369 0.639122 0)
        0.902             (0.312313 0.635863 0)
        0.904             (0.311251 0.632603 0)
        0.906             (0.310185 0.629341 0)
        0.908             (0.309114 0.626078 0)
         0.91             (0.308038 0.622814 0)
        0.912             (0.306959 0.61955 0)
        0.914             (0.373866 0.606684 0)
        0.916             (0.372809 0.603435 0)
        0.918             (0.4039 0.733196 0)
         0.92             (0.402368 0.729799 0)
        0.922             (0.400831 0.726398 0)
        0.924             (0.399289 0.722994 0)
        0.926             (0.397742 0.719587 0)
        0.928             (0.39619 0.716176 0)
         0.93             (0.394634 0.712763 0)
        0.932             (0.393074 0.709347 0)
        0.934             (0.391511 0.705928 0)
        0.936             (0.389945 0.702508 0)
        0.938             (0.388377 0.699085 0)
         0.94             (0.386806 0.69566 0)
        0.942             (0.385234 0.692233 0)
        0.944             (0.38366 0.688805 0)
        0.946             (0.382086 0.685375 0)
        0.948             (0.38051 0.681944 0)
         0.95             (0.378935 0.678512 0)
        0.952             (0.37736 0.675079 0)
        0.954             (0.375786 0.671646 0)
        0.956             (0.374212 0.668212 0)
        0.958             (0.37264 0.664777 0)
         0.96             (0.37107 0.661342 0)
        0.962             (0.369502 0.657908 0)
        0.964             (0.367936 0.654473 0)
        0.966             (0.366374 0.651039 0)
        0.968             (0.364815 0.647605 0)
         0.97             (0.363259 0.644171 0)
        0.972             (0.361708 0.640739 0)
        0.974             (0.36016 0.637307 0)
        0.976             (0.358618 0.633876 0)
        0.978             (0.357081 0.630447 0)
         0.98             (0.355549 0.627019 0)
        0.982             (0.354024 0.623592 0)
        0.984             (0.352504 0.620167 0)
        0.986             (0.350991 0.616744 0)
        0.988             (0.349485 0.613323 0)
         0.99             (0.347987 0.609904 0)
        0.992             (0.346496 0.606487 0)
        0.994             (0.345013 0.603073 0)
        0.996             (0.343538 0.599661 0)
        0.998             (0.342072 0.596251 0)
            1             (0.340615 0.592845 0)
        1.002             (0.417842 0.583842 0)
        1.004             (0.416437 0.580495 0)
        1.006             (0.415039 0.57715 0)
        1.008             (0.41365 0.573807 0)
         1.01             (0.41227 0.570467 0)
        1.012             (0.410898 0.56713 0)
        1.014             (0.409536 0.563795 0)
        1.016             (0.408183 0.560463 0)
        1.018             (0.40684 0.557134 0)
         1.02             (0.405507 0.553808 0)
        1.022             (0.404185 0.550485 0)
        1.024             (0.402873 0.547165 0)
        1.026             (0.401573 0.543848 0)
        1.028             (0.400284 0.540535 0)
         1.03             (0.399006 0.537225 0)
        1.032             (0.397741 0.533918 0)
        1.034             (0.396487 0.530616 0)
        1.036             (0.395246 0.527316 0)
        1.038             (0.394018 0.524021 0)
         1.04             (0.392803 0.520729 0)
        1.042             (0.391601 0.517442 0)
        1.044             (0.390413 0.514158 0)
        1.046             (0.389238 0.510878 0)
        1.048             (0.388078 0.507603 0)
         1.05             (0.386931 0.504331 0)
        1.052             (0.3858 0.501064 0)
        1.054             (0.384683 0.497801 0)
        1.056             (0.383581 0.494543 0)
        1.058             (0.382494 0.491289 0)
         1.06             (0.381423 0.48804 0)
        1.062             (0.380367 0.484795 0)
        1.064             (0.379328 0.481555 0)
        1.066             (0.378304 0.478319 0)
        1.068             (0.377297 0.475088 0)
         1.07             (0.376306 0.471863 0)
        1.072             (0.375332 0.468642 0)
        1.074             (0.374376 0.465426 0)
        1.076             (0.373436 0.462215 0)
        1.078             (0.372514 0.459009 0)
         1.08             (0.371609 0.455808 0)
        1.082             (0.370722 0.452612 0)
        1.084             (0.369853 0.449421 0)
        1.086             (0.369002 0.446236 0)
        1.088             (0.368169 0.443056 0)
         1.09             (0.366402 0.557261 0)
        1.092             (0.365241 0.553862 0)
        1.094             (0.454795 0.551488 0)
        1.096             (0.453729 0.548168 0)
        1.098             (0.452683 0.544852 0)
          1.1             (0.451658 0.54154 0)
        1.102             (0.450654 0.538232 0)
        1.104             (0.44967 0.534927 0)
        1.106             (0.448708 0.531627 0)
        1.108             (0.447767 0.52833 0)
         1.11             (0.446848 0.525038 0)
        1.112             (0.44595 0.521749 0)
        1.114             (0.445074 0.518465 0)
        1.116             (0.44422 0.515185 0)
        1.118             (0.443389 0.511909 0)
         1.12             (0.44258 0.508638 0)
        1.122             (0.441793 0.505371 0)
        1.124             (0.441029 0.502108 0)
        1.126             (0.440288 0.49885 0)
        1.128             (0.43957 0.495596 0)
         1.13             (0.438876 0.492347 0)
        1.132             (0.438205 0.489103 0)
        1.134             (0.437557 0.485863 0)
        1.136             (0.436933 0.482628 0)
        1.138             (0.436333 0.479398 0)
         1.14             (0.435757 0.476173 0)
        1.142             (0.435204 0.472952 0)
        1.144             (0.434677 0.469737 0)
        1.146             (0.434173 0.466526 0)
        1.148             (0.433694 0.46332 0)
         1.15             (0.433239 0.460119 0)
        1.152             (0.43281 0.456924 0)
        1.154             (0.432405 0.453733 0)
        1.156             (0.432025 0.450548 0)
        1.158             (0.43167 0.447368 0)
         1.16             (0.43134 0.444192 0)
        1.162             (0.431036 0.441023 0)
        1.164             (0.430757 0.437858 0)
        1.166             (0.430503 0.434699 0)
        1.168             (0.430275 0.431545 0)
         1.17             (0.430073 0.428396 0)
        1.172             (0.429896 0.425253 0)
        1.174             (0.429745 0.422115 0)
        1.176             (0.42962 0.418983 0)
        1.178             (0.429522 0.415856 0)
         1.18             (0.429449 0.412735 0)
        1.182             (0.429402 0.409619 0)
        1.184             (0.429382 0.406509 0)
        1.186             (0.429388 0.403404 0)
        1.188             (0.42942 0.400305 0)
         1.19             (0.429479 0.397212 0)
        1.192             (0.429564 0.394124 0)
        1.194             (0.429676 0.391042 0)
        1.196             (0.429814 0.387966 0)
        1.198             (0.429979 0.384896 0)
          1.2             (0.430171 0.381831 0)
        1.202             (0.43039 0.378772 0)
        1.204             (0.430635 0.375719 0)
        1.206             (0.430908 0.372672 0)
        1.208             (0.431207 0.369631 0)
         1.21             (0.431533 0.366596 0)
        1.212             (0.431886 0.363567 0)
        1.214             (0.432267 0.360543 0)
        1.216             (0.432674 0.357526 0)
        1.218             (0.433108 0.354515 0)
         1.22             (0.43357 0.35151 0)
        1.222             (0.434059 0.348511 0)
        1.224             (0.434575 0.345518 0)
        1.226             (0.435118 0.342531 0)
        1.228             (0.435689 0.33955 0)
         1.23             (0.436286 0.336576 0)
        1.232             (0.436911 0.333608 0)
        1.234             (0.437564 0.330646 0)
        1.236             (0.438243 0.327691 0)
        1.238             (0.43895 0.324742 0)
         1.24             (0.439684 0.321799 0)
        1.242             (0.440446 0.318863 0)
        1.244             (0.441235 0.315933 0)
        1.246             (0.442051 0.313009 0)
        1.248             (0.442894 0.310093 0)