/*--------------------------------*- C++ -*----------------------------------*\
  =========                 |
  \\      /  F ield         | OpenFOAM: The Open Source CFD Toolbox
   \\    /   O peration     | Website:  https://openfoam.org
    \\  /    A nd           | Version:  6
     \\/     M anipulation  |
\*---------------------------------------------------------------------------*/
FoamFile
{
    version     2.0;
    format      ascii;
    class       volScalarField;
    location    "4.62";
    object      mag(U);
}
// * * * * * * * * * * * * * * * * * * * * * * * * * * * * * * * * * * * * * //

dimensions      [0 1 -1 0 0 0 0];

internalField   nonuniform List<scalar> 
10000
(
0.999965
0.999966
0.999967
0.999968
0.999968
0.999968
0.99997
0.99997
0.99997
0.99997
0.99997
0.99997
0.99997
0.99997
0.99997
0.99997
0.99997
0.99997
0.99997
0.99997
0.99997
0.99997
0.99997
0.99997
0.99997
0.99997
0.99997
0.99997
0.99997
0.99997
0.99997
0.99997
0.99997
0.99997
0.99997
0.99997
0.99997
0.999969
0.999969
0.999968
0.999968
0.999967
0.999968
0.999969
0.99997
0.999974
0.999979
0.999987
0.999997
1.00001
1.00002
1.00002
1.00003
1.00002
1.00001
0.999993
0.999985
0.999992
1.00003
1.00011
1.00024
1.00043
1.00069
1.00102
1.00141
1.00184
1.0023
1.00278
1.00325
1.00368
1.00407
1.00439
1.00462
1.00474
1.00476
1.00466
1.00445
1.00414
1.00376
1.00332
1.00286
1.0024
1.00196
1.00156
1.00121
1.00091
1.00067
1.00047
1.00032
1.0002
1.00012
1.00006
1.00002
0.999992
0.999976
0.999967
0.999964
0.999962
0.999962
0.999964
0.999963
0.999965
0.999966
0.999967
0.999968
0.999968
0.999969
0.99997
0.99997
0.99997
0.99997
0.99997
0.99997
0.99997
0.99997
0.99997
0.99997
0.99997
0.99997
0.99997
0.99997
0.99997
0.99997
0.99997
0.99997
0.99997
0.99997
0.99997
0.99997
0.99997
0.99997
0.99997
0.99997
0.99997
0.99997
0.999969
0.999969
0.999968
0.999969
0.999968
0.999967
0.999967
0.999966
0.999967
0.99997
0.999974
0.999981
0.999991
1
1.00001
1.00002
1.00003
1.00002
1.00001
0.999984
0.999963
0.999953
0.999972
1.00004
1.00017
1.00037
1.00067
1.00105
1.00152
1.00207
1.00267
1.0033
1.00394
1.00457
1.00516
1.00569
1.00613
1.00645
1.00665
1.00671
1.0066
1.00635
1.00595
1.00543
1.00482
1.00417
1.00351
1.00288
1.00229
1.00178
1.00134
1.00098
1.0007
1.00047
1.00031
1.00018
1.0001
1.00004
1
0.999979
0.999966
0.999961
0.999959
0.99996
0.999961
0.99996
0.999962
0.999964
0.999966
0.999967
0.999968
0.999968
0.99997
0.99997
0.99997
0.99997
0.99997
0.99997
0.99997
0.99997
0.99997
0.99997
0.99997
0.99997
0.99997
0.99997
0.99997
0.99997
0.99997
0.99997
0.99997
0.99997
0.99997
0.99997
0.99997
0.99997
0.99997
0.99997
0.99997
0.99997
0.999969
0.999969
0.999969
0.999967
0.999966
0.999966
0.999965
0.999965
0.999966
0.999968
0.999974
0.999982
0.999994
1.00001
1.00002
1.00002
1.00002
0.999999
0.999969
0.999931
0.999899
0.99989
0.999928
1.00004
1.00024
1.00055
1.00097
1.00151
1.00216
1.00289
1.00367
1.0045
1.00533
1.00614
1.0069
1.00759
1.00818
1.00864
1.00895
1.00908
1.00902
1.00875
1.00828
1.00763
1.00684
1.00596
1.00505
1.00416
1.00333
1.00259
1.00196
1.00144
1.00102
1.0007
1.00045
1.00028
1.00015
1.00007
1.00002
0.999983
0.999965
0.999957
0.999954
0.999955
0.999957
0.999956
0.999959
0.999962
0.999964
0.999966
0.999967
0.999968
0.999968
0.99997
0.99997
0.99997
0.99997
0.99997
0.99997
0.99997
0.99997
0.99997
0.99997
0.99997
0.99997
0.99997
0.99997
0.99997
0.99997
0.99997
0.99997
0.99997
0.99997
0.99997
0.99997
0.99997
0.99997
0.99997
0.99997
0.99997
0.999969
0.999968
0.999968
0.999967
0.999966
0.999964
0.999963
0.999963
0.999963
0.999966
0.999973
0.999982
0.999994
1.00001
1.00001
1.00001
0.99999
0.999952
0.999896
0.999835
0.999787
0.99978
0.999845
1.00001
1.00031
1.00075
1.00134
1.00206
1.0029
1.00382
1.00481
1.00582
1.00684
1.00783
1.00876
1.00962
1.01038
1.01101
1.01148
1.01176
1.0118
1.01159
1.01111
1.01038
1.00942
1.00831
1.00711
1.00591
1.00477
1.00374
1.00284
1.00209
1.00149
1.00102
1.00067
1.00042
1.00024
1.00012
1.00004
0.999992
0.999966
0.999954
0.999949
0.99995
0.999952
0.99995
0.999955
0.99996
0.999962
0.999964
0.999967
0.999967
0.999968
0.999968
0.99997
0.99997
0.99997
0.99997
0.99997
0.99997
0.99997
0.99997
0.99997
0.99997
0.99997
0.99997
0.99997
0.99997
0.99997
0.99997
0.99997
0.99997
0.99997
0.99997
0.99997
0.99997
0.99997
0.99997
0.99997
0.999969
0.999968
0.999968
0.999967
0.999966
0.999964
0.999962
0.99996
0.999959
0.999959
0.999962
0.99997
0.99998
0.999991
0.999999
0.999997
0.999978
0.999933
0.999861
0.999767
0.999671
0.999603
0.999601
0.999708
0.999959
1.00038
1.00098
1.00174
1.00266
1.00369
1.0048
1.00596
1.00713
1.00829
1.00942
1.0105
1.01152
1.01245
1.01327
1.01395
1.01445
1.01471
1.01467
1.01431
1.01359
1.01254
1.01124
1.00976
1.00821
1.00669
1.00529
1.00405
1.00301
1.00216
1.00149
1.00099
1.00062
1.00036
1.00019
1.00008
1.00001
0.999968
0.999949
0.999943
0.999943
0.999946
0.999945
0.99995
0.999956
0.99996
0.999963
0.999966
0.999967
0.999968
0.999968
0.99997
0.99997
0.99997
0.99997
0.99997
0.99997
0.99997
0.99997
0.99997
0.99997
0.99997
0.99997
0.99997
0.99997
0.99997
0.99997
0.99997
0.99997
0.99997
0.99997
0.99997
0.99997
0.99997
0.99997
0.999969
0.999969
0.999968
0.999967
0.999966
0.999964
0.999962
0.999958
0.999956
0.999954
0.999954
0.999958
0.999965
0.999975
0.999983
0.999982
0.999963
0.999916
0.99983
0.999705
0.999557
0.999413
0.999322
0.999334
0.9995
0.999858
1.00042
1.0012
1.00215
1.00324
1.00443
1.00567
1.00693
1.00818
1.00941
1.0106
1.01177
1.0129
1.01398
1.015
1.01593
1.01672
1.01731
1.01761
1.01753
1.01702
1.01604
1.01466
1.01296
1.01109
1.00917
1.00734
1.00568
1.00425
1.00308
1.00215
1.00144
1.00092
1.00055
1.0003
1.00014
1.00003
0.999978
0.999949
0.999937
0.999936
0.999939
0.999938
0.999945
0.999951
0.999957
0.999961
0.999963
0.999966
0.999967
0.999968
0.999969
0.99997
0.99997
0.99997
0.99997
0.99997
0.99997
0.99997
0.99997
0.99997
0.99997
0.99997
0.99997
0.99997
0.99997
0.99997
0.99997
0.99997
0.99997
0.99997
0.99997
0.99997
0.99997
0.999969
0.999969
0.999968
0.999968
0.999966
0.999964
0.999962
0.999958
0.999954
0.99995
0.999948
0.999947
0.99995
0.999956
0.999962
0.999962
0.999946
0.999898
0.999805
0.999656
0.999457
0.999233
0.999031
0.998916
0.998956
0.999204
0.999694
1.00042
1.00137
1.00247
1.00369
1.00496
1.00623
1.00748
1.0087
1.00988
1.01103
1.01218
1.01334
1.01452
1.01571
1.01689
1.01804
1.01907
1.01987
1.0203
1.02023
1.01959
1.01835
1.01661
1.0145
1.01222
1.00993
1.00779
1.00591
1.00432
1.00305
1.00207
1.00134
1.00082
1.00046
1.00023
1.00008
0.999995
0.999951
0.999932
0.999928
0.999931
0.999929
0.999937
0.999945
0.999953
0.999958
0.999962
0.999965
0.999966
0.999967
0.999968
0.99997
0.99997
0.99997
0.99997
0.99997
0.99997
0.99997
0.99997
0.99997
0.99997
0.99997
0.99997
0.99997
0.99997
0.99997
0.99997
0.99997
0.99997
0.99997
0.99997
0.99997
0.99997
0.999969
0.999969
0.999969
0.999967
0.999966
0.999963
0.999959
0.999954
0.999949
0.999944
0.99994
0.999938
0.999939
0.999942
0.999941
0.999927
0.999883
0.999789
0.999626
0.999385
0.999082
0.998761
0.998493
0.998366
0.998456
0.998815
0.999454
1.00035
1.00143
1.00263
1.00388
1.00511
1.00628
1.00738
1.00841
1.0094
1.01038
1.0114
1.01248
1.01366
1.01496
1.01637
1.01787
1.0194
1.02082
1.02197
1.02264
1.02265
1.0219
1.0204
1.01828
1.01576
1.01306
1.01043
1.00802
1.00595
1.00425
1.00292
1.00192
1.0012
1.0007
1.00036
1.00015
1.00003
0.999961
0.999929
0.99992
0.999922
0.99992
0.999929
0.999939
0.999948
0.999954
0.99996
0.999963
0.999966
0.999967
0.999968
0.999968
0.99997
0.99997
0.99997
0.99997
0.99997
0.99997
0.99997
0.99997
0.99997
0.99997
0.99997
0.99997
0.99997
0.99997
0.99997
0.99997
0.99997
0.99997
0.99997
0.99997
0.999969
0.999969
0.999969
0.999968
0.999966
0.999964
0.999961
0.999955
0.999949
0.999941
0.999935
0.999928
0.999925
0.999923
0.99992
0.999906
0.999868
0.999779
0.999614
0.999348
0.998979
0.99854
0.998104
0.997774
0.997656
0.997831
0.998328
0.999125
1.00015
1.00132
1.00252
1.00367
1.00472
1.00564
1.00644
1.00714
1.00779
1.00847
1.00922
1.01012
1.0112
1.01251
1.01406
1.01585
1.01785
1.01995
1.02196
1.0236
1.02461
1.02473
1.02388
1.0221
1.01959
1.01664
1.01357
1.01064
1.00802
1.00581
1.00405
1.00271
1.00172
1.00103
1.00056
1.00026
1.00008
0.999981
0.999932
0.999914
0.999912
0.99991
0.999921
0.999932
0.999942
0.99995
0.999956
0.999961
0.999965
0.999966
0.999967
0.999968
0.999969
0.99997
0.99997
0.99997
0.99997
0.99997
0.99997
0.99997
0.99997
0.99997
0.99997
0.99997
0.99997
0.99997
0.99997
0.99997
0.99997
0.99997
0.99997
0.99997
0.999969
0.999969
0.999968
0.999968
0.999965
0.999962
0.999958
0.999951
0.999942
0.999933
0.999923
0.999914
0.999907
0.9999
0.999886
0.999851
0.999773
0.999616
0.999346
0.998938
0.998398
0.997794
0.997237
0.996866
0.996798
0.997098
0.997756
0.998699
0.999812
1.00097
1.00205
1.00297
1.0037
1.00422
1.00457
1.0048
1.005
1.00525
1.00563
1.00624
1.00713
1.00835
1.00993
1.01191
1.01428
1.01698
1.01985
1.02259
1.02484
1.02622
1.02645
1.02546
1.02336
1.02045
1.01711
1.01371
1.01053
1.00777
1.0055
1.00373
1.00242
1.00148
1.00084
1.00042
1.00017
1.00002
0.999944
0.999911
0.999904
0.999901
0.999911
0.999924
0.999936
0.999945
0.999953
0.999959
0.999962
0.999965
0.999967
0.999968
0.999969
0.99997
0.99997
0.99997
0.99997
0.99997
0.99997
0.99997
0.99997
0.99997
0.99997
0.99997
0.99997
0.99997
0.99997
0.99997
0.99997
0.99997
0.99997
0.99997
0.999969
0.999969
0.999967
0.999966
0.999964
0.999959
0.999954
0.999945
0.999934
0.999922
0.999908
0.999896
0.999884
0.999867
0.999837
0.999768
0.999629
0.999372
0.998954
0.998352
0.997601
0.996812
0.996151
0.995784
0.995823
0.996292
0.997122
0.998182
0.999309
1.00035
1.0012
1.00176
1.00202
1.00201
1.00178
1.00144
1.00108
1.00081
1.00075
1.001
1.00162
1.00267
1.0042
1.00624
1.00883
1.01197
1.01556
1.01934
1.02293
1.02581
1.02753
1.02781
1.02661
1.02415
1.02083
1.01713
1.01346
1.01013
1.0073
1.00504
1.00332
1.00208
1.00122
1.00065
1.00029
1.00008
0.999967
0.999915
0.999899
0.999893
0.999902
0.999915
0.999928
0.999941
0.999949
0.999957
0.999961
0.999964
0.999966
0.999967
0.999968
0.999969
0.99997
0.99997
0.99997
0.99997
0.99997
0.99997
0.99997
0.99997
0.99997
0.99997
0.99997
0.99997
0.99997
0.99997
0.99997
0.99997
0.99997
0.99997
0.999969
0.999968
0.999968
0.999965
0.999962
0.999957
0.999948
0.999938
0.999924
0.999908
0.999891
0.999873
0.999853
0.999823
0.999764
0.999645
0.999418
0.99902
0.9984
0.99755
0.996551
0.995584
0.994866
0.994577
0.994793
0.995471
0.99647
0.997599
0.998662
0.999492
0.999975
1.00005
0.999722
0.999051
0.998138
0.997111
0.996111
0.995273
0.99473
0.994585
0.994919
0.995779
0.997196
0.999214
1.00189
1.00528
1.00936
1.01399
1.01879
1.02322
1.02667
1.02863
1.02881
1.02729
1.02442
1.02071
1.0167
1.01285
1.00945
1.00665
1.00447
1.00286
1.00172
1.00096
1.00047
1.00017
1.00001
0.999928
0.999897
0.999888
0.999893
0.999906
0.999921
0.999934
0.999945
0.999953
0.999959
0.999963
0.999965
0.999967
0.999968
0.999969
0.99997
0.99997
0.99997
0.99997
0.99997
0.99997
0.99997
0.99997
0.99997
0.99997
0.99997
0.99997
0.99997
0.99997
0.99997
0.99997
0.99997
0.999969
0.999969
0.999968
0.999967
0.999963
0.999959
0.999952
0.999942
0.999929
0.999911
0.999892
0.999869
0.999844
0.999813
0.999761
0.999662
0.999469
0.999115
0.998524
0.997642
0.996492
0.995234
0.99413
0.993442
0.993328
0.993794
0.99471
0.995859
0.997003
0.997918
0.99843
0.998434
0.99789
0.996831
0.995359
0.993624
0.991805
0.990083
0.98863
0.987592
0.98708
0.987166
0.987878
0.989226
0.991226
0.993931
0.997425
1.00178
1.00695
1.01269
1.01851
1.0237
1.02755
1.02953
1.02944
1.02749
1.02416
1.02008
1.01586
1.01193
1.00856
1.00587
1.00383
1.00236
1.00136
1.00071
1.0003
1.00007
0.999954
0.999902
0.999886
0.999886
0.999898
0.999913
0.999928
0.999941
0.99995
0.999957
0.999962
0.999965
0.999966
0.999967
0.999969
0.99997
0.99997
0.99997
0.99997
0.99997
0.99997
0.99997
0.99997
0.99997
0.99997
0.99997
0.99997
0.99997
0.99997
0.99997
0.99997
0.99997
0.999969
0.999969
0.999967
0.999965
0.999962
0.999957
0.999948
0.999935
0.999919
0.999897
0.999872
0.999844
0.999809
0.999761
0.999678
0.99952
0.999223
0.998698
0.99785
0.996638
0.995154
0.993663
0.992513
0.991977
0.992145
0.992924
0.99409
0.995361
0.996456
0.99713
0.997206
0.996586
0.995253
0.993278
0.990816
0.988083
0.985325
0.982783
0.980672
0.979158
0.978352
0.978302
0.979
0.980411
0.982503
0.985296
0.988873
0.993356
0.998822
1.00518
1.01204
1.01876
1.0245
1.02848
1.03022
1.02966
1.02716
1.02337
1.01899
1.01465
1.01075
1.00752
1.00501
1.00317
1.00188
1.00102
1.00048
1.00017
0.999996
0.999915
0.999893
0.999883
0.99989
0.999906
0.999921
0.999936
0.999946
0.999954
0.99996
0.999964
0.999966
0.999967
0.999969
0.99997
0.99997
0.99997
0.99997
0.99997
0.99997
0.99997
0.99997
0.99997
0.99997
0.99997
0.99997
0.99997
0.99997
0.99997
0.99997
0.99997
0.999969
0.999968
0.999966
0.999965
0.999961
0.999953
0.999942
0.999927
0.999907
0.99988
0.999849
0.999813
0.999765
0.999693
0.999566
0.999326
0.998887
0.998131
0.996957
0.995358
0.993539
0.991895
0.990838
0.990594
0.991144
0.99228
0.993692
0.995041
0.996007
0.996322
0.995802
0.994356
0.991997
0.988846
0.985128
0.981149
0.977248
0.973751
0.970932
0.968986
0.968014
0.968021
0.968934
0.970646
0.973055
0.976123
0.979897
0.984516
0.990141
0.996829
1.00439
1.01228
1.01968
1.02566
1.02942
1.03063
1.0294
1.0263
1.02208
1.01751
1.01316
1.00941
1.0064
1.00413
1.00252
1.00142
1.00072
1.0003
1.00006
0.999941
0.999907
0.999884
0.999886
0.999899
0.999915
0.99993
0.999943
0.999952
0.999958
0.999962
0.999965
0.999967
0.999968
0.99997
0.999969
0.99997
0.99997
0.99997
0.99997
0.99997
0.99997
0.99997
0.99997
0.99997
0.99997
0.99997
0.99997
0.99997
0.99997
0.99997
0.999969
0.999968
0.999966
0.999963
0.999958
0.99995
0.999936
0.999917
0.999894
0.99986
0.999822
0.999775
0.999711
0.999606
0.999417
0.999067
0.998438
0.997386
0.995811
0.993793
0.991692
0.990034
0.989238
0.989424
0.990434
0.991947
0.993578
0.994936
0.995658
0.995447
0.994104
0.991549
0.987831
0.983139
0.977798
0.972233
0.966912
0.962275
0.958683
0.956372
0.955426
0.955778
0.957253
0.959626
0.962696
0.966342
0.970557
0.975463
0.981266
0.988149
0.996105
1.0048
1.01351
1.02126
1.02706
1.03025
1.03064
1.02862
1.0249
1.02035
1.0157
1.01148
1.00798
1.00527
1.00329
1.00192
1.00102
1.00047
1.00015
0.999983
0.999932
0.99989
0.999884
0.999894
0.99991
0.999926
0.999939
0.999949
0.999957
0.999961
0.999964
0.999966
0.999967
0.999969
0.999969
0.99997
0.99997
0.99997
0.99997
0.99997
0.99997
0.99997
0.99997
0.99997
0.99997
0.99997
0.99997
0.99997
0.999969
0.99997
0.999969
0.999967
0.999966
0.999962
0.999955
0.999945
0.999929
0.999906
0.999878
0.999839
0.999791
0.999733
0.999645
0.999494
0.999225
0.998727
0.997851
0.996429
0.994393
0.991967
0.989702
0.988216
0.987854
0.98858
0.990093
0.991974
0.993769
0.995028
0.995341
0.994368
0.99189
0.987839
0.982316
0.975599
0.968146
0.960543
0.95343
0.947409
0.942961
0.94038
0.939732
0.940845
0.943378
0.946926
0.951132
0.955768
0.960767
0.966221
0.972355
0.979441
0.987639
0.996824
1.00647
1.01566
1.02332
1.02852
1.03076
1.03015
1.02728
1.02302
1.01826
1.01368
1.00972
1.00656
1.00419
1.00251
1.00139
1.00069
1.00027
1.00004
0.99997
0.999904
0.999886
0.999891
0.999906
0.999921
0.999935
0.999946
0.999954
0.99996
0.999964
0.999966
0.999967
0.999969
0.999969
0.99997
0.99997
0.99997
0.99997
0.99997
0.99997
0.99997
0.99997
0.99997
0.99997
0.99997
0.99997
0.99997
0.999969
0.99997
0.999968
0.999966
0.999965
0.99996
0.999952
0.999941
0.999921
0.999894
0.999861
0.999815
0.999756
0.999681
0.999564
0.999354
0.998974
0.99829
0.997104
0.995235
0.992703
0.989944
0.987694
0.986584
0.986804
0.98814
0.990162
0.992369
0.994236
0.995247
0.994921
0.992866
0.988842
0.982793
0.974888
0.965527
0.955335
0.945112
0.935732
0.928014
0.92261
0.919898
0.919923
0.922371
0.926657
0.932092
0.938083
0.944247
0.950447
0.956766
0.963456
0.970856
0.979261
0.988748
0.999009
1.00929
1.01852
1.0256
1.02975
1.03077
1.02904
1.02537
1.02072
1.01593
1.01158
1.00797
1.0052
1.0032
1.00184
1.00096
1.00042
1.00012
1.00002
0.999927
0.999893
0.999891
0.999903
0.999918
0.999932
0.999944
0.999953
0.999959
0.999963
0.999966
0.999967
0.999968
0.999969
0.999969
0.99997
0.99997
0.99997
0.99997
0.99997
0.99997
0.99997
0.99997
0.99997
0.999969
0.99997
0.99997
0.999969
0.99997
0.999968
0.999966
0.999965
0.999958
0.999947
0.999936
0.999913
0.99988
0.999843
0.999791
0.999716
0.999621
0.999466
0.99918
0.998658
0.997736
0.996173
0.993792
0.990778
0.987827
0.985814
0.985264
0.986162
0.98813
0.990635
0.993095
0.994906
0.995463
0.994198
0.990654
0.984562
0.975894
0.9649
0.952126
0.938415
0.924847
0.912604
0.902806
0.896333
0.893696
0.894911
0.899471
0.906448
0.914746
0.923396
0.931779
0.939675
0.947194
0.95466
0.962503
0.971144
0.980834
0.99148
1.00253
1.013
1.02174
1.02774
1.03049
1.03011
1.02729
1.02298
1.01813
1.01348
1.00949
1.00632
1.00398
1.00235
1.00128
1.00061
1.00023
1.00009
0.99996
0.999906
0.999894
0.999901
0.999915
0.999929
0.999942
0.999951
0.999958
0.999962
0.999966
0.999967
0.999967
0.999969
0.999969
0.99997
0.99997
0.99997
0.99997
0.99997
0.99997
0.99997
0.99997
0.99997
0.99997
0.99997
0.99997
0.999967
0.99997
0.999968
0.999963
0.999964
0.999957
0.999942
0.99993
0.999906
0.999864
0.999823
0.999765
0.999673
0.999549
0.99935
0.998966
0.998265
0.997053
0.995043
0.992111
0.98869
0.985748
0.98419
0.984335
0.985952
0.988536
0.991471
0.994084
0.995671
0.995512
0.992935
0.987404
0.978621
0.966589
0.951658
0.934554
0.916386
0.898591
0.882767
0.870438
0.862808
0.86055
0.863645
0.871327
0.882212
0.894637
0.907098
0.918601
0.928796
0.937856
0.946259
0.954609
0.96348
0.973291
0.984145
0.99569
1.0071
1.01721
1.02489
1.02936
1.03048
1.0287
1.02494
1.02021
1.01539
1.01106
1.00752
1.00484
1.00293
1.00165
1.00084
1.00036
1.00018
1
0.999926
0.999901
0.999903
0.999914
0.999927
0.99994
0.999949
0.999957
0.999962
0.999965
0.999966
0.999968
0.999969
0.999969
0.99997
0.99997
0.99997
0.99997
0.99997
0.99997
0.99997
0.99997
0.99997
0.99997
0.999969
0.999971
0.999967
0.999969
0.999969
0.999962
0.999962
0.999957
0.999937
0.999924
0.9999
0.999849
0.9998
0.999738
0.999625
0.999464
0.999209
0.998708
0.997786
0.996224
0.993711
0.990232
0.986539
0.983834
0.982914
0.983826
0.986154
0.989311
0.992605
0.995247
0.996399
0.995206
0.990872
0.982774
0.970579
0.954332
0.934496
0.911999
0.888276
0.865227
0.845
0.829663
0.820848
0.819431
0.825313
0.837369
0.853629
0.871709
0.889391
0.905152
0.918403
0.929382
0.938824
0.947624
0.956603
0.966382
0.977248
0.989038
1.00108
1.01228
1.02143
1.02753
1.03016
1.02957
1.02654
1.0221
1.01723
1.01265
1.00878
1.00576
1.00357
1.00207
1.0011
1.00051
1.00028
1.00006
0.999954
0.999913
0.999906
0.999914
0.999926
0.999939
0.999949
0.999956
0.999961
0.999965
0.999966
0.999968
0.999969
0.999969
0.99997
0.99997
0.99997
0.99997
0.99997
0.99997
0.99997
0.99997
0.99997
0.99997
0.999968
0.999972
0.999967
0.999968
0.99997
0.999961
0.99996
0.999958
0.999932
0.999915
0.999896
0.999835
0.999772
0.999712
0.999577
0.999364
0.99904
0.998403
0.997216
0.995241
0.992188
0.988224
0.98444
0.982184
0.982026
0.983718
0.986716
0.990392
0.993961
0.996481
0.996949
0.994355
0.987762
0.976449
0.960053
0.93866
0.91285
0.883782
0.853289
0.823854
0.798354
0.779578
0.769702
0.769819
0.779657
0.797569
0.820829
0.846208
0.870658
0.891975
0.909198
0.92257
0.933136
0.94222
0.951036
0.960492
0.971088
0.982834
0.995208
1.0072
1.01755
1.02513
1.02925
1.02992
1.02775
1.02375
1.01895
1.01421
1.01005
1.00673
1.00425
1.00253
1.00139
1.00069
1.00039
1.00012
0.999988
0.99993
0.999914
0.999916
0.999926
0.999937
0.999947
0.999955
0.999961
0.999964
0.999966
0.999968
0.999969
0.999969
0.99997
0.99997
0.99997
0.99997
0.99997
0.99997
0.99997
0.999969
0.99997
0.99997
0.999967
0.999973
0.999968
0.999966
0.999973
0.99996
0.999955
0.999959
0.999929
0.999903
0.999891
0.999824
0.999742
0.999681
0.999529
0.999249
0.998839
0.998049
0.996551
0.994103
0.990507
0.986174
0.982497
0.980851
0.981517
0.983969
0.987578
0.99171
0.995461
0.997687
0.997188
0.992785
0.98339
0.96818
0.946766
0.919266
0.886385
0.849533
0.811017
0.774063
0.742474
0.719974
0.709421
0.712114
0.727425
0.752898
0.784822
0.81902
0.851619
0.879716
0.901867
0.918196
0.930018
0.939178
0.947439
0.956135
0.966049
0.977382
0.989742
1.0022
1.01349
1.02233
1.02784
1.02978
1.02857
1.02512
1.02052
1.0157
1.01131
1.00771
1.00497
1.00302
1.00171
1.00089
1.00053
1.0002
1.00003
0.999952
0.999924
0.99992
0.999928
0.999937
0.999948
0.999954
0.99996
0.999964
0.999966
0.999968
0.999969
0.999969
0.99997
0.99997
0.99997
0.99997
0.99997
0.99997
0.99997
0.99997
0.99997
0.999971
0.999966
0.999972
0.99997
0.999962
0.999975
0.999962
0.999948
0.999961
0.99993
0.999887
0.999886
0.99982
0.999709
0.999646
0.999483
0.999122
0.998599
0.997643
0.995799
0.992819
0.988712
0.984175
0.980785
0.979842
0.981348
0.984522
0.988678
0.993192
0.997024
0.998773
0.997
0.990359
0.977618
0.957851
0.930635
0.896131
0.855159
0.809418
0.761768
0.716309
0.677982
0.6517
0.641213
0.648019
0.670817
0.705866
0.748085
0.792254
0.833829
0.869418
0.897151
0.916916
0.930159
0.939212
0.946481
0.953875
0.962575
0.973021
0.984956
0.997519
1.00943
1.01931
1.02606
1.02922
1.029
1.0262
1.02189
1.01708
1.01254
1.00869
1.0057
1.00353
1.00205
1.0011
1.00067
1.00028
1.00008
0.999978
0.999938
0.999928
0.999931
0.99994
0.999947
0.999955
0.99996
0.999963
0.999966
0.999968
0.999968
0.999969
0.99997
0.99997
0.99997
0.99997
0.99997
0.99997
0.99997
0.99997
0.999968
0.999972
0.999966
0.99997
0.999975
0.999958
0.999973
0.99997
0.999939
0.999959
0.999938
0.999871
0.999876
0.999827
0.999677
0.999598
0.999441
0.998989
0.998316
0.997183
0.994969
0.99142
0.986862
0.982303
0.979345
0.979134
0.981456
0.98532
0.98996
0.994772
0.998581
0.999663
0.996304
0.987006
0.970423
0.945528
0.911864
0.869646
0.819842
0.764466
0.706959
0.652326
0.6068
0.576865
0.567593
0.58073
0.613763
0.660869
0.71501
0.769789
0.820284
0.863087
0.896251
0.919464
0.934123
0.942865
0.948706
0.954216
0.961096
0.970098
0.981129
0.993389
1.00558
1.01622
1.02404
1.02833
1.0291
1.027
1.02306
1.01834
1.0137
1.00965
1.00643
1.00406
1.00241
1.00133
1.00082
1.00038
1.00013
1.00001
0.999955
0.999937
0.999936
0.999941
0.999948
0.999955
0.99996
0.999963
0.999966
0.999968
0.999969
0.999969
0.999969
0.99997
0.99997
0.99997
0.99997
0.99997
0.99997
0.99997
0.999967
0.999973
0.999967
0.999966
0.999979
0.999957
0.999967
0.999978
0.999932
0.99995
0.999952
0.999858
0.999856
0.999842
0.999656
0.999535
0.999398
0.998861
0.997994
0.996661
0.994084
0.989947
0.985008
0.980606
0.978194
0.978686
0.981778
0.986311
0.991374
0.996384
1.00007
1.00031
0.99507
0.982746
0.961939
0.931529
0.891034
0.840774
0.78195
0.716907
0.649502
0.585425
0.532257
0.498731
0.492186
0.51474
0.561651
0.623794
0.69149
0.757033
0.815454
0.863981
0.901228
0.926995
0.942548
0.950578
0.954509
0.957541
0.96196
0.968916
0.978516
0.990027
1.00213
1.01324
1.02191
1.0272
1.02891
1.02753
1.02402
1.01946
1.01477
1.01056
1.00715
1.00458
1.00277
1.00157
1.00098
1.00048
1.00019
1.00004
0.999975
0.999947
0.999941
0.999945
0.99995
0.999956
0.99996
0.999964
0.999966
0.999968
0.999969
0.999969
0.99997
0.99997
0.99997
0.99997
0.99997
0.99997
0.99997
0.999971
0.999966
0.999973
0.99997
0.999962
0.999982
0.999959
0.999958
0.999987
0.999932
0.999932
0.99997
0.999857
0.999824
0.999857
0.999653
0.999458
0.999341
0.998749
0.99764
0.99607
0.993163
0.988462
0.983189
0.979094
0.977326
0.978461
0.98224
0.987433
0.992883
0.997982
1.00143
1.0007
0.993336
0.977712
0.952491
0.916475
0.869173
0.811167
0.744048
0.670389
0.59398
0.520564
0.458993
0.42141
0.419243
0.455076
0.520062
0.600311
0.68305
0.759226
0.824045
0.875923
0.914795
0.941164
0.956326
0.962819
0.964195
0.964107
0.965409
0.969696
0.977315
0.987613
0.99924
1.0105
1.01978
1.02592
1.02849
1.02782
1.02477
1.02042
1.01573
1.01141
1.00783
1.00509
1.00313
1.00182
1.00114
1.00058
1.00026
1.00008
0.999997
0.99996
0.999949
0.999949
0.999952
0.999957
0.999961
0.999964
0.999966
0.999968
0.999969
0.999969
0.999969
0.99997
0.99997
0.99997
0.99997
0.99997
0.99997
0.999972
0.999966
0.999971
0.999974
0.999958
0.999982
0.999966
0.999946
0.999994
0.999943
0.999909
0.999982
0.999874
0.999783
0.999865
0.999678
0.999376
0.999258
0.998661
0.997279
0.995405
0.992225
0.987031
0.981444
0.977749
0.976723
0.978433
0.98277
0.988623
0.994463
0.999529
1.00263
1.00086
0.991219
0.972166
0.942614
0.9013
0.847786
0.783194
0.709726
0.629864
0.546444
0.464274
0.393103
0.349842
0.353014
0.405785
0.492437
0.593177
0.69215
0.778945
0.848862
0.901706
0.939322
0.96364
0.97643
0.980081
0.978006
0.97407
0.971579
0.972569
0.977655
0.986273
0.997038
1.00814
1.01778
1.02458
1.02791
1.02791
1.02532
1.02121
1.01658
1.01219
1.00847
1.00558
1.00349
1.00206
1.0013
1.00068
1.00032
1.00012
1.00002
0.999975
0.999958
0.999954
0.999955
0.999958
0.999962
0.999965
0.999966
0.999967
0.999969
0.999969
0.999969
0.99997
0.999969
0.99997
0.99997
0.99997
0.999969
0.999972
0.999967
0.999968
0.999977
0.999956
0.999977
0.999978
0.999936
0.99999
0.999964
0.999886
0.999979
0.999911
0.999745
0.99985
0.999729
0.999308
0.999133
0.998586
0.996943
0.994675
0.99127
0.985708
0.979811
0.976527
0.976345
0.978594
0.983311
0.989796
0.996097
1.00102
1.00364
1.00083
0.988923
0.9665
0.933012
0.887194
0.828754
0.759761
0.6832
0.600911
0.513747
0.424592
0.343033
0.290698
0.297298
0.368285
0.478279
0.60086
0.717063
0.814918
0.889502
0.941789
0.975747
0.995359
1.0035
1.00267
0.996049
0.987459
0.980492
0.97757
0.97959
0.986077
0.995603
1.00623
1.01598
1.02327
1.02723
1.02783
1.0257
1.02185
1.0173
1.01287
1.00905
1.00603
1.00382
1.0023
1.00145
1.00078
1.00039
1.00017
1.00005
0.999992
0.999967
0.999959
0.999958
0.999961
0.999962
0.999965
0.999966
0.999968
0.999969
0.999969
0.99997
0.99997
0.99997
0.99997
0.99997
0.99997
0.999969
0.999971
0.999969
0.999966
0.999979
0.999958
0.999968
0.999989
0.999932
0.999976
0.99999
0.999873
0.999956
0.99996
0.999729
0.999802
0.999795
0.99928
0.998969
0.998503
0.996666
0.993916
0.990289
0.98453
0.978342
0.975382
0.976114
0.978948
0.983843
0.990854
0.997751
1.0025
1.00445
1.00068
0.986726
0.961216
0.924504
0.875485
0.814134
0.743867
0.668497
0.588589
0.502358
0.410283
0.320091
0.254363
0.25637
0.341782
0.474446
0.619403
0.753669
0.86338
0.943033
0.994352
1.02326
1.03611
1.03749
1.03049
1.01815
1.0041
0.992016
0.984626
0.983088
0.98703
0.994972
1.00484
1.01446
1.02204
1.02651
1.02763
1.02592
1.02234
1.0179
1.01346
1.00956
1.00644
1.00413
1.00251
1.00159
1.00088
1.00045
1.00021
1.00008
1.00001
0.999978
0.999966
0.999963
0.999963
0.999965
0.999966
0.999967
0.999968
0.999968
0.99997
0.999969
0.99997
0.99997
0.99997
0.99997
0.99997
0.999969
0.99997
0.99997
0.999964
0.999979
0.999965
0.999959
0.999995
0.99994
0.999953
1.00001
0.999883
0.999917
1
0.99975
0.999732
0.999846
0.999308
0.99879
0.998378
0.996459
0.99319
0.989273
0.983487
0.9771
0.974298
0.975919
0.979472
0.984403
0.991703
0.999344
1.00401
1.0051
1.00049
0.984952
0.956879
0.917894
0.86743
0.805829
0.737984
0.668445
0.596123
0.51652
0.427745
0.334426
0.254793
0.239102
0.327756
0.479505
0.64607
0.79844
0.920503
1.00583
1.05641
1.07978
1.08463
1.07764
1.06298
1.04382
1.02356
1.00583
0.993519
0.988022
0.98907
0.99513
1.00398
1.01326
1.02095
1.02578
1.02734
1.02601
1.02268
1.01837
1.01395
1.01
1.0068
1.0044
1.00272
1.00172
1.00097
1.00051
1.00025
1.0001
1.00003
0.999989
0.999973
0.999967
0.999965
0.999966
0.999967
0.999967
0.999969
0.999969
0.999969
0.99997
0.99997
0.99997
0.99997
0.99997
0.99997
0.999969
0.99997
0.999972
0.999964
0.999975
0.999972
0.999953
0.999992
0.999956
0.999934
1.00002
0.999914
0.999875
1.00002
0.999807
0.999665
0.999853
0.999388
0.998639
0.998187
0.996306
0.992575
0.988242
0.982526
0.976123
0.97331
0.975635
0.980092
0.985077
0.992308
1.00073
1.00563
1.00569
1.00029
0.983903
0.954062
0.913847
0.863997
0.805212
0.743482
0.683952
0.623977
0.556516
0.47719
0.38755
0.300597
0.261747
0.337017
0.498912
0.6825
0.85047
0.984044
1.07505
1.12501
1.14269
1.13893
1.12255
1.09914
1.07226
1.04519
1.02141
1.00388
0.994158
0.992059
0.996012
1.00364
1.01239
1.02004
1.0251
1.02699
1.02599
1.02289
1.01871
1.01433
1.01035
1.0071
1.00464
1.00289
1.00183
1.00105
1.00057
1.00029
1.00013
1.00004
1
0.99998
0.999971
0.999968
0.999968
0.999968
0.999968
0.999969
0.999969
0.99997
0.99997
0.99997
0.99997
0.99997
0.99997
0.99997
0.99997
0.999969
0.999972
0.999966
0.999971
0.999976
0.999954
0.999983
0.999975
0.999926
1
0.999954
0.999853
1
0.999885
0.999635
0.999809
0.999487
0.998569
0.997943
0.996154
0.992129
0.987265
0.981583
0.975396
0.972498
0.975184
0.980643
0.985944
0.992744
1.00172
1.00734
1.00643
1.00011
0.983766
0.95326
0.912808
0.865654
0.81283
0.760363
0.713877
0.669794
0.61858
0.553056
0.472711
0.387985
0.336792
0.391456
0.54888
0.737207
0.912581
1.05373
1.14899
1.19782
1.20946
1.19669
1.17038
1.13756
1.1024
1.06814
1.0381
1.01522
1.00116
0.995791
0.997501
1.00377
1.01184
1.0193
1.02447
1.02662
1.02587
1.02298
1.01893
1.0146
1.01062
1.00734
1.00483
1.00304
1.00192
1.00112
1.00062
1.00032
1.00015
1.00006
1.00001
0.999988
0.999976
0.999971
0.99997
0.999969
0.999969
0.999969
0.99997
0.999969
0.99997
0.99997
0.99997
0.99997
0.99997
0.999969
0.999969
0.99997
0.99997
0.999968
0.999968
0.999976
0.999959
0.999971
0.999983
0.999932
0.999979
0.999984
0.999865
0.999962
0.999949
0.999664
0.999735
0.999553
0.998599
0.997702
0.99595
0.991851
0.986444
0.980625
0.974819
0.97194
0.9746
0.980916
0.98698
0.993226
1.00217
1.00894
1.00757
1.00008
0.984515
0.954784
0.915025
0.87227
0.828238
0.787387
0.755542
0.729206
0.696579
0.647676
0.581222
0.507618
0.460991
0.506421
0.648669
0.823149
0.990509
1.13057
1.22648
1.27285
1.27784
1.25564
1.21906
1.17656
1.13291
1.09139
1.05512
1.02696
1.00861
0.999997
0.999439
1.00428
1.01158
1.01875
1.02392
1.02622
1.02568
1.02296
1.01903
1.01476
1.0108
1.00751
1.00498
1.00316
1.00199
1.00117
1.00066
1.00035
1.00018
1.00008
1.00002
0.999996
0.999981
0.999974
0.999972
0.99997
0.999969
0.99997
0.99997
0.99997
0.99997
0.99997
0.99997
0.99997
0.99997
0.99997
0.999968
0.999971
0.999969
0.99997
0.999969
0.999973
0.999966
0.999966
0.999981
0.99995
0.99996
0.999991
0.999901
0.999927
0.999972
0.999739
0.999679
0.999555
0.998695
0.997541
0.995691
0.991675
0.985873
0.979704
0.974255
0.971628
0.974033
0.980768
0.98796
0.993998
1.00217
1.01009
1.00924
1.00047