/*--------------------------------*- C++ -*----------------------------------*\
  =========                 |
  \\      /  F ield         | OpenFOAM: The Open Source CFD Toolbox
   \\    /   O peration     | Website:  https://openfoam.org
    \\  /    A nd           | Version:  6
     \\/     M anipulation  |
\*---------------------------------------------------------------------------*/
FoamFile
{
    version     2.0;
    format      ascii;
    class       volScalarField;
    location    "1.63";
    object      epsilon;
}
// * * * * * * * * * * * * * * * * * * * * * * * * * * * * * * * * * * * * * //

dimensions      [0 2 -3 0 0 0 0];

internalField   nonuniform List<scalar> 
4214
(
0.0217971
0.0121315
0.00818638
0.00653579
0.00586815
0.00563435
0.00560185
0.00567819
0.00583172
0.00605628
0.00635749
0.00674823
0.00724941
0.00789411
0.00873516
0.00985897
0.0114162
0.0136775
0.0170933
0.0220695
0.0286383
0.0293063
0.023915
0.0185901
0.0145793
0.0116674
0.00962848
0.00819266
0.00719241
0.0065049
0.00604348
0.00574256
0.00555434
0.00544566
0.00539822
0.00542219
0.00560111
0.00619139
0.00778356
0.0116349
0.020882
0.0092696
0.00720365
0.00621311
0.00576803
0.00560419
0.00558978
0.00566523
0.00581019
0.00602162
0.0063053
0.00667286
0.00714204
0.00773974
0.00850771
0.00951184
0.0108608
0.0127452
0.0155035
0.0196727
0.0256963
0.0336836
0.0350537
0.0287804
0.0223441
0.0174457
0.0138161
0.0112369
0.0093854
0.00806425
0.00712987
0.00648205
0.00604361
0.00575589
0.00557437
0.00546835
0.00541758
0.00542607
0.00555737
0.00598297
0.00697991
0.00894361
0.00681537
0.00608629
0.00573476
0.005599
0.00558929
0.0056618
0.00580004
0.00600166
0.00627196
0.00662104
0.00706404
0.00762324
0.00833221
0.00924248
0.0104351
0.0120436
0.0143036
0.0176238
0.0226238
0.0297679
0.0392951
0.0416753
0.0346057
0.0269565
0.0210657
0.0165963
0.0133642
0.0110032
0.00928065
0.00802747
0.00712959
0.00649917
0.00606763
0.00578126
0.00559871
0.00548997
0.005436
0.00544027
0.0055631
0.00592685
0.00661823
0.00596756
0.0057062
0.00559943
0.00559529
0.00566623
0.00580047
0.00599644
0.00625809
0.006594
0.00701696
0.00754578
0.00820807
0.00904504
0.0101193
0.0115288
0.0134355
0.0161216
0.0200615
0.0259451
0.0342397
0.045441
0.0491916
0.0415266
0.0326041
0.0256254
0.0201868
0.0161718
0.0131855
0.0109626
0.00930409
0.00807839
0.00718697
0.00655242
0.00611236
0.00581659
0.00562617
0.00551214
0.00545489
0.00545788
0.00557463
0.00582998
0.00566487
0.0055962
0.00560318
0.00567564
0.00580976
0.00600472
0.00626401
0.00659355
0.00700399
0.0075109
0.0081376
0.00891794
0.00990176
0.0111638
0.0128207
0.015064
0.0182211
0.0228239
0.0296206
0.039073
0.052149
0.057632
0.0497128
0.0395125
0.0313419
0.0247933
0.0198484
0.0160999
0.0132567
0.0110889
0.00944262
0.00820614
0.00729358
0.00663521
0.00617294
0.00585865
0.0056545
0.00553275
0.00547163
0.00547768
0.00555448
0.00559021
0.00561212
0.0056895
0.0058263
0.0060261
0.00628974
0.00662192
0.00702896
0.00752404
0.00812623
0.0088645
0.00977993
0.010932
0.0124087
0.0143465
0.0169659
0.0206347
0.02593
0.0336509
0.0442637
0.0594689
0.066983
0.0593
0.0479247
0.0384774
0.0306805
0.0246188
0.019932
0.0163195
0.0135191
0.011347
0.00967074
0.00839305
0.0074371
0.0067389
0.00624354
0.00590488
0.00568539
0.00555272
0.00549271
0.00548297
0.00562394
0.00570643
0.00584947
0.00605756
0.0063351
0.00667956
0.00709635
0.00759161
0.00818253
0.00889256
0.00975785
0.0108276
0.0121719
0.0138932
0.0161479
0.019183
0.0233983
0.0294067
0.0380607
0.0498618
0.0674978
0.0772028
0.0703867
0.0581224
0.0472904
0.0380395
0.0306566
0.0248436
0.0203016
0.0167365
0.0139287
0.0117156
0.00998133
0.0086394
0.0076213
0.00686828
0.00632897
0.00595862
0.00571775
0.00557798
0.0055037
0.00573202
0.0058767
0.00609933
0.0063951
0.00676777
0.00720753
0.00772234
0.0083174
0.00901656
0.00984831
0.010858
0.0121038
0.0136677
0.0156669
0.0182775
0.0217679
0.0265619
0.0333018
0.0429016
0.0559647
0.0762698
0.0884192
0.0830374
0.0702226
0.0579656
0.0470508
0.0381193
0.0309734
0.025332
0.0208682
0.0173204
0.0144829
0.0122092
0.0103951
0.00896653
0.00786422
0.00703734
0.00643933
0.00602608
0.00575996
0.00559872
0.00591933
0.00614423
0.00647204
0.00687742
0.00736728
0.00791862
0.00854699
0.00925421
0.0100756
0.0110445
0.0122181
0.0136646
0.0154791
0.0177938
0.0208031
0.0247935
0.0301977
0.0376912
0.048263
0.0627239
0.0858507
0.10076
0.0973008
0.0843215
0.0706702
0.0578622
0.0471249
0.0384202
0.0315074
0.026022
0.0216508
0.0181278
0.0152579
0.0129037
0.0109797
0.009427
0.00820374
0.00727115
0.00658959
0.00611815
0.00581032
0.0062138
0.00654801
0.00701699
0.00755777
0.0081926
0.00887351
0.00963453
0.0104676
0.0114275
0.0125508
0.0139109
0.0155855
0.017688
0.0203635
0.0238083
0.0283361
0.0344044
0.0427087
0.0543035
0.0703439
0.096351
0.114433
0.1133
0.100481
0.0855265
0.0705791
0.0577543
0.0472487
0.0389003
0.0322988
0.0270652
0.0228469
0.0193745
0.0164503
0.013966
0.0118589
0.0101068
0.00869365
0.00760059
0.0067975
0.00623918
0.00666341
0.0071452
0.00780392
0.00850832
0.00932456
0.0101549
0.0110742
0.0120491
0.0131684
0.0144652
0.0160416
0.0179749
0.0203909
0.0234595
0.0274096
0.0325578
0.0393663
0.0485472
0.0612146
0.0790645
0.107916
0.129735
0.131271
0.118789
0.102623
0.0852587
0.0700557
0.0574986
0.0475757
0.0398185
0.0337612
0.028927
0.0249316
0.0214716
0.0184005
0.0156346
0.0131917
0.0110955
0.00937887
0.00804405
0.00706385
0.00734166
0.00801519
0.00893
0.00982635
0.0108747
0.0118768
0.012991
0.0141285
0.0154395
0.016928
0.0187364
0.0209559
0.0237467
0.0272846
0.0318158
0.0376697
0.0453099
0.0554591
0.0692455
0.0891382
0.120736
0.147062
0.151579
0.139364
0.122045
0.101908
0.0840556
0.069198
0.0576137
0.0487536
0.0420337
0.036809
0.0325089
0.028648
0.0250239
0.0214855
0.0181435
0.0150712
0.012415
0.0102376
0.00856339
0.00835893
0.00926483
0.0105302
0.0116429
0.0129964
0.0141972
0.0155637
0.0168827
0.018416
0.0201284
0.0222247
0.024787
0.0280152
0.0320964
0.0372943
0.0439568
0.0525386
0.0637844
0.0787165
0.100839
0.13508
0.166954
0.174689
0.162338
0.143896
0.120451
0.0997764
0.0823808
0.069142
0.0593763
0.0523295
0.0471696
0.0429871
0.03901
0.0349601
0.0304866
0.025963
0.0214534
0.0173881
0.0138863
0.011108
0.00987776
0.0110343
0.0127896
0.0141364
0.0158985
0.0173153
0.0190166
0.0205624
0.0224076
0.0243898
0.0268451
0.0298096
0.0335508
0.0382611
0.0442177
0.0518132
0.0614447
0.0739689
0.0900083
0.114475
0.151289
0.190157
0.20116
0.187827
0.168338
0.140723
0.117298
0.0970968
0.0823898
0.0721195
0.0652945
0.0610124
0.0576168
0.0540335
0.0498227
0.0441074
0.0380379
0.0312868
0.0251418
0.0195504
0.0150933
0.012126
0.0135088
0.0159502
0.0175085
0.0198525
0.02151
0.0237201
0.0255286
0.0278313
0.0301351
0.0330646
0.0365008
0.040846
0.0462898
0.0530833
0.0617778
0.0725161
0.0866255
0.10359
0.130461
0.169588
0.217709
0.231551
0.215794
0.195612
0.162393
0.136874
0.11342
0.0977885
0.0876254
0.0817625
0.0797331
0.0779465
0.0756526
0.07169
0.0641047
0.0561757
0.0456509
0.036648
0.0276505
0.0208404
0.0153785
0.0168633
0.0203532
0.0220373
0.025293
0.0271262
0.0301526
0.0322103
0.0352445
0.0379051
0.0415111
0.0455033
0.0505556
0.0568956
0.0645163
0.0745908
0.0862485
0.102447
0.120038
0.149668
0.19004
0.251069
0.266019
0.2458
0.225895
0.184628
0.158959
0.131182
0.116051
0.106706
0.102699
0.105042
0.105443
0.105997
0.102737
0.0920927
0.0825199
0.0651583
0.0530736
0.0380792
0.0286065
0.0200503
0.0212935
0.0265628
0.0280112
0.0328072
0.034513
0.03896
0.041063
0.0453766
0.048325
0.0529891
0.0576583
0.0634894
0.0711263
0.079237
0.0914119
0.102975
0.122033
0.138956
0.17276
0.212044
0.293316
0.303879
0.277237
0.259277
0.205707
0.184384
0.149333
0.138136
0.129825
0.12899
0.138278
0.140741
0.146605
0.144302
0.12891
0.119356
0.0890817
0.076216
0.0494064
0.0390406
0.0235885
0.0200134
0.0159178
0.0123767
0.00971188
0.00790206
0.00677271
0.00611619
0.00575677
0.00557239
0.00549224
0.00549847
0.00565481
0.00619928
0.00778369
0.0128498
0.045103
0.0179796
0.0150085
0.0124307
0.0102316
0.00851007
0.0072804
0.00647244
0.00597839
0.00569547
0.00554673
0.0054869
0.00551376
0.00570316
0.00630159
0.00797592
0.0132206
0.043567
0.011911
0.0110439
0.00981113
0.00858322
0.00754063
0.00674889
0.00619895
0.00584459
0.00563266
0.00551888
0.00547872
0.00552488
0.00574548
0.00639829
0.00817259
0.0136442
0.0424116
0.0098345
0.00898139
0.00819462
0.00746299
0.00683196
0.00633427
0.00597176
0.00572634
0.00557316
0.00549031
0.00547004
0.00553734
0.00579008
0.00650089
0.00838494
0.0141079
0.0419474
0.00778746
0.00751031
0.00712235
0.0067142
0.00634097
0.00603305
0.00579802
0.00563092
0.00552215
0.00546467
0.00546282
0.00555135
0.0058389
0.00661447
0.00861819
0.0146179
0.0422006
0.00716414
0.00683698
0.00654456
0.00627401
0.00603381
0.00583363
0.00567647
0.00556014
0.00548203
0.00544364
0.00545823
0.00556957
0.00589725
0.00674528
0.00887514
0.0151714
0.0432196
0.00657075
0.00638766
0.00619733
0.00601428
0.00584937
0.00570955
0.00559719
0.0055116
0.0054536
0.00542964
0.00546008
0.00559682
0.00596983
0.00689519
0.00914892
0.0157517
0.0450946
0.00642606
0.00622347
0.00604735
0.00589271
0.00575855
0.0056459
0.00555495
0.00548545
0.0054396
0.00542728
0.00547357
0.00563771
0.00605778
0.00705475
0.00941234
0.016322
0.0479463
0.00626528
0.00611549
0.00597275
0.0058416
0.00572516
0.00562566
0.00554425
0.0054823
0.00544406
0.00544173
0.00550362
0.00569372
0.00615229
0.0071965
0.00961959
0.0168377
0.0518957
0.00625518
0.00610775
0.00597128
0.00584754
0.00573778
0.00564334
0.00556555
0.00550674
0.00547342
0.00547964
0.00555466
0.00576201
0.00623706
0.00728983
0.00973438
0.0172741
0.0570122
0.00626577
0.0061454
0.00602745
0.00591464
0.00580988
0.00571634
0.00563752
0.00557811
0.00554627
0.00555674
0.00563696
0.00584573
0.00631146
0.00733861
0.00977005
0.01766
0.0633462
0.00629897
0.00619567
0.00609373
0.00599536
0.00590267
0.00581857
0.00574693
0.00569308
0.00566558
0.00567841
0.00575733
0.00595743
0.00640112
0.00738565
0.00978389
0.0180623
0.0709584
0.00637801
0.00628849
0.00619868
0.00611002
0.00602502
0.00594746
0.00588204
0.00583446
0.00581289
0.00583022
0.00591071
0.00610601
0.00653134
0.00747402
0.00983806
0.0185621
0.0798131
0.0064263
0.00635948
0.00628916
0.00621809
0.00614956
0.00608767
0.00603676
0.00600206
0.00599143
0.00601755
0.0061044
0.0063013
0.00671727
0.00763187
0.00998686
0.0192505
0.0897464
0.0065288
0.00646881
0.00640947
0.006352
0.00629879
0.00625274
0.0062171
0.00619657
0.00619886
0.00623697
0.00633503
0.00654137
0.00696132
0.0078739
0.0102777
0.0202429
0.100678
0.00658454
0.00655191
0.00651687
0.00648263
0.00645166
0.00642626
0.00640955
0.00640667
0.00642566
0.00648043
0.00659571
0.00682043
0.0072613
0.00821056
0.010757
0.0216704
0.112303
0.0066888
0.00666238
0.00664137
0.00662479
0.00661259
0.0066061
0.00660859
0.00662533
0.00666489
0.00674126
0.00688042
0.00713335
0.00761597
0.00865227
0.0114687
0.0236683
0.124164
0.00674801
0.00675105
0.00675464
0.00675985
0.00676795
0.00678174
0.00680561
0.00684559
0.00691041
0.00701446
0.0071848
0.00747847
0.00802999
0.00921579
0.0124549
0.0263168
0.135566
0.00684407
0.00685492
0.00687135
0.00689126
0.00691632
0.00694993
0.00699676
0.00706301
0.00715765
0.0072955
0.00750657
0.00785921
0.00851669
0.00993123
0.0137886
0.0295413
0.145861
0.00690576
0.00694118
0.00697444
0.00700995
0.00705261
0.007107
0.00717831
0.00727321
0.00740145
0.00757983
0.0078449
0.00828382
0.00909989
0.0108479
0.0155084
0.0330036
0.154024
0.006989
0.00702873
0.00707018
0.00711808
0.00717728
0.00725209
0.0073481
0.0074731
0.00763889
0.00786699
0.00820614
0.00877077
0.00982008
0.0120377
0.0176829
0.0369845
0.159297
0.00704933
0.00710176
0.00715392
0.00721546
0.00729131
0.00738644
0.00750778
0.00766547
0.00787576
0.00817006
0.00861761
0.00937023
0.0107607
0.0136413
0.0206579
0.0434124
0.162314
0.00711538
0.00716982
0.00723132
0.00730638
0.00739927
0.00751627
0.0076668
0.00786553
0.00813752
0.00853158
0.00914733
0.0101858
0.0120789
0.0159045
0.024931
0.0524155
0.163594
0.00716939
0.00723161
0.00730529
0.00739599
0.00750917
0.00765403
0.0078445
0.00810315
0.00846918
0.0090146
0.0098742
0.0113093
0.0138677
0.0188559
0.0299846
0.0602061
0.166284
0.00721951
0.00729228
0.00737943
0.00748861
0.00762779
0.00781048
0.00805757
0.00840286
0.00890293
0.00965523
0.0108333
0.0127628
0.0161043
0.0223651
0.0356192
0.0691956
0.171375
0.00726835
0.00735265
0.00745683
0.00758998
0.00776417
0.00799876
0.00832327
0.00878412
0.009456
0.0104625
0.0120175
0.014514
0.0187331
0.0264222
0.0421473
0.0799392
0.179702
0.00731699
0.00741603
0.00754096
0.00770451
0.00792331
0.00822291
0.00864147
0.00923734
0.0101021
0.0113843
0.0133376
0.0164218
0.0215412
0.030688
0.0489191
0.0910418
0.191671
0.00736699
0.00748283
0.0076327
0.00783178
0.00810116
0.00847149
0.00898779
0.00971785
0.0107666
0.0123022
0.0146077
0.0181903
0.0240371
0.0342961
0.0543385
0.0996437
0.206357
0.00741765
0.00755281
0.00772945
0.00796539
0.0082842
0.00871927
0.00931928
0.0101573
0.0113464
0.0130639
0.0156034
0.0194841
0.0257066
0.0364282
0.0570286
0.103302
0.221184
0.00746718
0.00762204
0.00782564
0.00809609
0.00845768
0.00894439
0.00960581
0.0105152
0.0117829
0.0135846
0.0162101
0.0201665
0.0264081
0.0369739
0.0569814
0.102166
0.232355
0.00750921
0.00768078
0.00790475
0.00819951
0.00858835
0.00910344
0.00979416
0.0107331
0.0120295
0.0138519
0.0164722
0.0203582
0.0263951
0.036459
0.0553185
0.0982982
0.236414
0.00754919
0.00773672
0.00798067
0.0082962
0.0087044
0.00923941
0.00994744
0.0108962
0.0121863
0.0139731
0.016507
0.020221
0.0259328
0.0353758
0.0529193
0.0931323
0.232049
0.00759104
0.00779824
0.00806309
0.00840074
0.00883382
0.00939208
0.0101181
0.0110733
0.0123477
0.0140803
0.0164965
0.0199894
0.025305
0.0340358
0.0501669
0.087145
0.220264
0.00764022
0.00786993
0.00816115
0.00853019
0.00899711
0.00958962
0.0103462
0.0113211
0.0125926
0.0142808
0.0165811
0.0198364
0.0247036
0.0325974
0.0471043
0.0803237
0.203209
0.00769875
0.00795651
0.00828386
0.00869582
0.00921204
0.00985887
0.0106714
0.0116971
0.0130031
0.0146907
0.0169238
0.0199898
0.0244443
0.0315065
0.044329
0.0734457
0.183208
0.00776819
0.00806306
0.00843753
0.00890802
0.0094951
0.0102253
0.011132
0.0122585
0.0136642
0.0154374
0.0177184
0.0207511
0.025006
0.0315257
0.0429246
0.0678606
0.162289
0.00785163
0.00819201
0.00862688
0.00917521
0.00986043
0.0107114
0.0117628
0.0130588
0.0146599
0.0166541
0.0191793
0.0224698
0.0269698
0.0336484
0.0444028
0.065637
0.141912
0.00794994
0.00834653
0.00885725
0.00950619
0.0103216
0.0113374
0.0125949
0.0141476
0.0160702
0.0184726
0.0215266
0.0255209
0.0309924
0.0390809
0.0507604
0.0698253
0.123002
0.00806463
0.00852799
0.00913166
0.00990638
0.010888
0.0121199
0.0136567
0.0155733
0.0179795
0.0210404
0.0250175
0.0303583
0.0379448
0.0493913
0.0648367
0.085593
0.106128
0.00819748
0.00874066
0.00945711
0.0103867
0.0115758
0.0130824
0.0149856
0.0174015
0.0205088
0.0245946
0.0301468
0.0380495
0.0500577
0.0670349
0.0910061
0.122345
0.0915591
0.0211748
0.0229478
0.0248042
0.0266028
0.0282436
0.0296562
0.030794
0.0316257
0.032139
0.0323378
0.032243
0.0318887
0.0313175
0.0305743
0.0296987
0.0287176
0.0276387
0.026452
0.0251438
0.0237152
0.0216854
0.0197889
0.0185465
0.0173789
0.0162829
0.0152572
0.0143015
0.0134164
0.0126024
0.0118609
0.0111918
0.0105926
0.0100603
0.00958965
0.00918037
0.00883426
0.00856093
0.00836871
0.00825746
0.00821158
0.00820074
0.0241929
0.0264558
0.0287628
0.0309442
0.0328989
0.0345601
0.0358777
0.0368174
0.0373641
0.0375246
0.0373262
0.036813
0.0360388
0.0350582
0.0339181
0.0326495
0.0312644
0.0297616
0.0281423
0.0264271
0.0241241
0.0219977
0.020561
0.0192224
0.0179761
0.0168185
0.0157463
0.0147566
0.0138485
0.0130206
0.012272
0.0115981
0.0109944
0.0104533
0.00997185
0.00955222
0.00920696
0.00895274
0.00879897
0.00873472
0.00872766
0.0276599
0.0305451
0.0333857
0.0360147
0.0383484
0.0403216
0.0418745
0.0429625
0.0435642
0.0436877
0.0433678
0.0426605
0.0416332
0.040353
0.0388768
0.0372447
0.0354788
0.0335931
0.0316087
0.0295634
0.0269569
0.0245702
0.022909
0.0213734
0.0199551
0.0186478
0.0174447
0.0163402
0.01533
0.014411
0.0135796
0.0128301
0.012155
0.0115448
0.0109917
0.0104953
0.0100685
0.00973605
0.00952107
0.0094253
0.00941937
0.0316278
0.0352594
0.0387073
0.0418618
0.0446648
0.0470412
0.0489095
0.0502058
0.0508982
0.0509941
0.0505364
0.0495956
0.0482557
0.0466008
0.0447036
0.0426197
0.0403898
0.0380493
0.0356411
0.033217
0.0302703
0.0275877
0.0256663
0.0239028
0.0222862
0.020807
0.0194551
0.0182216
0.017099
0.0160816
0.0151633
0.0143366
0.0135917
0.0129158
0.012296
0.0117251
0.0112117
0.0107847
0.0104836
0.0103326
0.0103173
0.0361464
0.0406195
0.0447467
0.0485299
0.0519248
0.0548266
0.0571174
0.0587051
0.0595411
0.0596296
0.0590217
0.0578047
0.0560841
0.0539678
0.0515525
0.0489192
0.0461353
0.0432628
0.0403656
0.0375065
0.0341758
0.0311551
0.0289312
0.0269032
0.0250569
0.0233788
0.0218554
0.0204743
0.019225
0.0180987
0.0170866
0.0161795
0.0153658
0.0146298
0.0139526
0.0133177
0.012722
0.0121896
0.0117725
0.0115272
0.0114745
0.0412671
0.0466378
0.0515287
0.0560763
0.0602175
0.0637955
0.0666432
0.0686299
0.0696829
0.0697985
0.0690349
0.0674988
0.0653241
0.0626514
0.0596132
0.0563265
0.0528935
0.0494056
0.0459462
0.0425865
0.0388188
0.0354102
0.0328341
0.0304983
0.0283844
0.0264748
0.0247517
0.0231994
0.0218041
0.0205538
0.0194372
0.0184432
0.017559
0.0167674
0.0160455
0.015366
0.0147077
0.0140753
0.0135171
0.0131205
0.01297
0.0470592
0.0533477
0.0591132
0.0645894
0.0696539
0.0740817
0.0776452
0.0801639
0.0815304
0.0817254
0.0808121
0.0789197
0.0762182
0.0728932
0.0691252
0.0650785
0.0608966
0.0567023
0.0525977
0.0486605
0.0443925
0.0405373
0.0375503
0.034855
0.0324285
0.0302478
0.028291
0.0265381
0.0249721
0.0235775
0.0223404
0.0212482
0.0202874
0.0194411
0.0186855
0.0179866
0.0173036
0.016607
0.0159099
0.0153005
0.0149396
0.0536379
0.0608451
0.0676255
0.0742092
0.0803839
0.0858485
0.0903056
0.0935117
0.0953113
0.0956595
0.0946204
0.0923483
0.0890582
0.0849926
0.0803932
0.0754813
0.0704474
0.0654478
0.0606039
0.0560003
0.0511573
0.0467862
0.0433192
0.0402032
0.03741
0.0349109
0.0326792
0.0306903
0.0289233
0.027359
0.0259808
0.0247741
0.0237253
0.0228192
0.022035
0.0213396
0.0206816
0.0199948
0.0192233
0.0183815
0.0176429
0.0611961
0.069334
0.0772907
0.0851566
0.0926239
0.0993137
0.10485
0.108913
0.111285
0.111884
0.110767
0.108117
0.104199
0.0993244
0.093806
0.0879307
0.0819416
0.076032
0.0703448
0.0649743
0.0594701
0.0545021
0.0504743
0.0468651
0.0436406
0.0407665
0.0382105
0.0359435
0.0339395
0.0321755
0.0306318
0.0292916
0.0281407
0.0271655
0.0263504
0.025671
0.0250821
0.0245025
0.023805
0.0228417
0.0215783
0.0700308
0.0791789
0.0884792
0.0977797
0.106702
0.114788
0.12158
0.12667
0.129763
0.130729
0.129614
0.126622
0.122075
0.116357
0.109859
0.102939
0.0959002
0.0889763
0.0823368
0.0760903
0.0698285
0.0641712
0.0594897
0.0553025
0.0515703
0.0482535
0.0453145
0.0427192
0.0404365
0.0384388
0.0367031
0.0352101
0.0339443
0.0328927
0.032044
0.0313846
0.0308886
0.0304958
0.0300652
0.0292919
0.0276169
0.0805761
0.0909728
0.101772
0.112622
0.12312
0.132734
0.14092
0.14718
0.151136
0.152601
0.151598
0.148347
0.143222
0.136677
0.129183
0.121174
0.113015
0.104987
0.0972924
0.0900607
0.0829406
0.0764933
0.0710551
0.0661935
0.0618651
0.0580265
0.0546354
0.051653
0.049043
0.0467737
0.0448183
0.0431551
0.041767
0.0406408
0.0397669
0.0391391
0.0387499
0.0385781
0.0385464
0.0383736
0.0370013
0.0940705
0.105641
0.118057
0.130528
0.142648
0.153845
0.16349
0.171003
0.175929
0.178017
0.177261
0.173886
0.168302
0.161023
0.152592
0.143513
0.134216
0.125035
0.116212
0.107905
0.0998354
0.0925002
0.0862
0.0805611
0.07554
0.0710913
0.0671704
0.0637339
0.0607421
0.0581597
0.055957
0.05411
0.0526004
0.0514148
0.0505445
0.0499868
0.049744
0.0498217
0.050215
0.0508508
0.0509859
0.11231
0.12512
0.138664
0.152812
0.166459
0.179176
0.190211
0.198949
0.204867
0.207665
0.2073
0.203988
0.19815
0.190337
0.18114
0.171124
0.160775
0.150482
0.140531
0.131113
0.122045
0.113754
0.106506
0.0999982
0.0941932
0.0890481
0.0845184
0.0805598
0.077131
0.0741953
0.0717216
0.069685
0.0680672
0.0668556
0.066043
0.06563
0.0656252
0.0660469
0.0669158
0.0683005
0.0702266
0.137653
0.151694
0.166432
0.181464
0.196376
0.210323
0.222468
0.232209
0.238993
0.242494
0.24264
0.239619
0.233834
0.225833
0.21622
0.205588
0.194461
0.183272
0.172349
0.161924
0.151918
0.142694
0.134485
0.127074
0.120438
0.114544
0.109353
0.104824
0.100921
0.0976081
0.094857
0.0926443
0.0909537
0.0897757
0.0891058
0.0889509
0.0893266
0.0902637
0.0918013
0.0940757
0.0968905
0.174362
0.189233
0.20466
0.220256
0.23548
0.249714
0.262384
0.272564
0.27983
0.283851
0.284546
0.282064
0.276757
0.269115
0.259702
0.249083
0.237781
0.226243
0.214824
0.203788
0.193167
0.183263
0.174284
0.166108
0.15874
0.152165
0.14636
0.141299
0.136955
0.133302
0.130319
0.12799
0.126304
0.125257
0.124851
0.125101
0.126034
0.127688
0.130163
0.133322
0.137195
0.230014
0.244616
0.259462
0.274238
0.288474
0.301649
0.313221
0.322708
0.329647
0.333688
0.334798
0.333084
0.328807
0.322346
0.314145
0.30467
0.294371
0.283647
0.272837
0.262209
0.251884
0.242108
0.233059
0.22472
0.217128
0.2103
0.204242
0.198952
0.194425
0.190653
0.187632
0.18536
0.183836
0.183066
0.183059
0.183837
0.185466
0.187895
0.191154
0.195252
0.200111
0.319042
0.330477
0.34169
0.352581
0.362859
0.372212
0.380339
0.386963
0.391862
0.394896
0.395968
0.395153
0.392599
0.388512
0.383139
0.376755
0.369633
0.362034
0.354191
0.346302
0.338507
0.330973
0.323834
0.317141
0.310957
0.305328
0.30029
0.295871
0.292092
0.288972
0.286527
0.284771
0.283718
0.283387
0.283794
0.284942
0.286836
0.289477
0.292857
0.296958
0.301581
0.0472946
0.0136004
0.00823434
0.00647943
0.00582902
0.00561374
0.0055778
0.00563287
0.00576041
0.00597379
0.00630303
0.00678949
0.00748389
0.00844388
0.00972854
0.0113922
0.0133373
0.0455159
0.0140102
0.00843741
0.00658441
0.00588314
0.00564069
0.00558772
0.00562592
0.0057285
0.00590065
0.00616327
0.00654741
0.00709396
0.00785664
0.00890928
0.0103602
0.0123434
0.0440742
0.0144208
0.00863421
0.00669035
0.00593813
0.00566608
0.00559508
0.00561825
0.00570217
0.0058477
0.00607428
0.00641548
0.00691987
0.00765399
0.00870534
0.0101845
0.0122334
0.0433083
0.014819
0.00882441
0.00679621
0.00599338
0.00568941
0.00559691
0.00560058
0.00565807
0.00575942
0.005909
0.00611699
0.00639427
0.00674856
0.00718046
0.0076772
0.00820429
0.0432329
0.0151992
0.0090033
0.0068993
0.00604813
0.00571174
0.00559701
0.00558232
0.00561896
0.0056906
0.00579532
0.00593756
0.00612409
0.00636336
0.00666849
0.00705959
0.0075676
0.0438877
0.0155586
0.00916356
0.00699425
0.00609985
0.00573334
0.0055987
0.00557049
0.00559606
0.00565579
0.00574579
0.0058706
0.00603958
0.00626558
0.00656784
0.00697589
0.00752437
0.0453337
0.0158975
0.00929673
0.00707457
0.00614439
0.00575058
0.00559643
0.00555437
0.0055681
0.00561314
0.00568002
0.00576611
0.00587138
0.00599618
0.00614046
0.00630663
0.00650383
0.0476672
0.0162248
0.00939972
0.00713919
0.00618416
0.00576895
0.00559776
0.00554263
0.00554546
0.00557916
0.00563179
0.00569923
0.00578106
0.00587957
0.00599959
0.00614614
0.0063294
0.0509918
0.0165565
0.00947533
0.00719143
0.00622477
0.00579709
0.00561609
0.00555537
0.00555614
0.00558961
0.00564169
0.00570683
0.00578399
0.00587457
0.00598779
0.00613733
0.00632905
0.055401
0.0169223
0.0095344
0.00723956
0.00627262
0.00583791
0.00564874
0.00558271
0.00558239
0.00561859
0.00567517
0.0057434
0.00581953
0.00590203
0.00599072
0.00608953
0.00620377
0.0609909
0.0173784
0.0096016
0.00730281
0.00634499
0.00590732
0.00570877
0.00563175
0.00562123
0.0056489
0.00569879
0.00576123
0.00583119
0.00590713
0.00598932
0.00607853
0.00617732
0.0678146
0.0179944
0.00970355
0.0073978
0.00645504
0.00601998
0.00581691
0.00573334
0.00571677
0.0057397
0.0057864
0.00584604
0.00591193
0.00598091
0.00605342
0.00612948
0.00620736
0.0758828
0.0188319
0.00987208
0.00753933
0.00660853
0.0061756
0.00596744
0.00587639
0.00585295
0.00587161
0.00591832
0.00598237
0.00605563
0.00613232
0.00620988
0.00628875
0.00637011
0.0851695
0.0199957
0.0101483
0.00774656
0.00681596
0.00638169
0.00616609
0.00606311
0.00602451
0.00602569
0.00605479
0.00610367
0.00616479
0.0062309
0.00629675
0.00636136
0.00642853
0.0955496
0.0216313
0.010577
0.0080318
0.00708008
0.00663882
0.00641658
0.00630532
0.00625616
0.00624378
0.00625585
0.00628679
0.0063317
0.00638346
0.00643354
0.0064736
0.00649776
0.106804
0.0238754
0.0111956
0.0084052
0.00739831
0.00693837
0.00670591
0.00658567
0.00652699
0.00650412
0.00650297
0.00651765
0.00654789
0.00659047
0.00663953
0.00668929
0.00673555
0.118555
0.0268551
0.0120462
0.00888108
0.00777114
0.00727406
0.00702448
0.00689182
0.00682008
0.0067828
0.00676592
0.00676204
0.00676783
0.00678187
0.00680262
0.00682775
0.00685812
0.130175
0.0305285
0.0131767
0.00947919
0.00820286
0.00764119
0.00736312
0.00721344
0.00712648
0.00707309
0.0070391
0.00701676
0.00700202
0.00699321
0.0069881
0.0069799
0.00695586
0.140763
0.0342638
0.0146613
0.010233
0.00870687
0.00803992
0.00771394
0.00753795
0.00743108
0.00735943
0.00730789
0.00726869
0.00723772
0.00721379
0.00719764
0.00718735
0.00717561
0.149288
0.0369859
0.0164361
0.0111914
0.00930889
0.00847901
0.00807471
0.00785678
0.00772222
0.00762851
0.00755779
0.00750131
0.00745413
0.00741328
0.0073786
0.00735123
0.00732845
0.155311
0.0397117
0.0185961
0.0124301
0.0100559
0.00898454
0.00845693
0.0081724
0.00799797
0.00787707
0.00778593
0.00771308
0.00765196
0.00759814
0.00754955
0.00750606
0.0074448
0.159072
0.0459229
0.0216302
0.0141071
0.0110509
0.00962603
0.00890553
0.00851227
0.00827469
0.00811499
0.00799822
0.00790731
0.00783238
0.00776795
0.00770987
0.00766305
0.00760433
0.160692
0.055593
0.0261219
0.0165188
0.0124945
0.0105468
0.00952211
0.00894707
0.00860081
0.00837562
0.00821802
0.00810036
0.00800689
0.00792874
0.00785947
0.00780183
0.0077365
0.163142
0.0618193
0.0310959
0.0196171
0.0144557
0.0118324
0.0103893
0.00954913
0.00903477
0.0087035
0.00847845
0.00831688
0.00819392
0.00809498
0.00801052
0.00793619
0.00786579
0.167409
0.0690674
0.0362939
0.0231288
0.0168328
0.0134631
0.0115247
0.0103528
0.00961578
0.00913561
0.00881105
0.00858242
0.00841351
0.00828231
0.00817407
0.00808239
0.00799806
0.174787
0.0787268
0.042311
0.0270197
0.0194739
0.0153151
0.0128519
0.0113199
0.0103325
0.00967697
0.00922919
0.00891341
0.00868219
0.00850546
0.00836338
0.00824612
0.00814096
0.186312
0.0893175
0.0484263
0.0308786
0.0221036
0.0171953
0.0142367
0.0123616
0.0111301
0.0102978
0.00972045
0.00930844
0.0090049
0.00877289
0.00858818
0.00843446
0.00830125
0.201718
0.097357
0.0530654
0.0339728
0.0243417
0.0188838
0.0155433
0.0133915
0.011954
0.0109654
0.0102674
0.009761
0.00938239
0.0090896
0.00885498
0.00865933
0.00849163
0.21835
0.100108
0.0551591
0.0358657
0.0259767
0.0202649
0.0167048
0.0143707
0.0127837
0.0116719
0.0108712
0.0102781
0.00982527
0.00946853
0.00917813
0.00893407
0.00872333
0.231489
0.0976533
0.0551976
0.0367975
0.0271116
0.0213875
0.017751
0.0153239
0.0136425
0.0124403
0.0115547
0.0108826
0.0103585
0.00994474
0.00960851
0.00932288
0.00907058
0.237028
0.095499
0.0550182
0.037402
0.0280122
0.0223952
0.0187794
0.0163274
0.014595
0.013327
0.0123731
0.0116495
0.0110798
0.010607
0.0101995
0.00983946
0.00951505
0.233607
0.0928905
0.0543228
0.037631
0.0287215
0.0233596
0.0198671
0.0174555
0.0157101
0.0144187
0.0134342
0.0126415
0.011982
0.0114157
0.0109163
0.0104659
0.0100531
0.222588
0.0889158
0.0530046
0.0376132
0.0294132
0.0244436
0.0211537
0.0188249
0.0171176
0.0158062
0.0147494
0.0138657
0.0131021
0.0124242
0.0118095
0.0112435
0.0107179
0.20636
0.0836329
0.0513936
0.0377134
0.0304028
0.0259007
0.0228381
0.0206098
0.0189182
0.0175515
0.0163988
0.0153932
0.0144924
0.0136694
0.0129072
0.0121954
0.0115285
0.187314
0.0782484
0.0503852
0.0386007
0.0321851
0.0280971
0.0251924
0.0230174
0.0212617
0.0197754
0.0184689
0.0172878
0.0161993
0.015184
0.0142306
0.0133334
0.0124895
0.167363
0.0744176
0.0512692
0.0412155
0.0354374
0.0315228
0.0285746
0.0262728
0.0243295
0.0226174
0.0210634
0.0196245
0.0182757
0.0170038
0.0158021
0.0146682
0.0136032
0.147801
0.0743749
0.0557621
0.0467575
0.0410002
0.0367781
0.0334282
0.0307052
0.0283538
0.026244
0.0243033
0.0224902
0.0207823
0.0191689
0.0176462
0.0162142
0.0148757
0.129436
0.081559
0.0661891
0.0567352
0.0498912
0.0445727
0.0402333
0.0366718
0.0335979
0.0308496
0.0283311
0.0259877
0.0237902
0.0217253
0.019789
0.0179818
0.0163069
0.112735
0.101533
0.0857796
0.0731018
0.0633782
0.0557737
0.0496352
0.0446084
0.0403773
0.0366677
0.033319
0.0302403
0.0273834
0.0247257
0.0222584
0.0199799
0.0178908
0.0979241
0.144222
0.119282
0.0986056
0.0832327
0.0715943
0.0624884
0.0551021
0.0491163
0.0440082
0.0394897
0.0354027
0.0316632
0.0282297
0.0250833
0.0222157
0.0196222
0.0268344
0.0356384
0.0439148
0.0524311
0.0620083
0.0740894
0.0908317
0.11496
0.14884
0.200597
0.351057
0.311083
0.224123
0.16693
0.157319
0.180188
0.197958
0.174331
0.114485
0.0573746
0.0333894
0.0439434
0.0542393
0.0652464
0.0779323
0.0939024
0.115552
0.145469
0.184761
0.236581
0.407601
0.356953
0.253848
0.190978
0.186705
0.22038
0.247577
0.221592
0.145173
0.0709547
0.0416835
0.0543777
0.0671119
0.0812931
0.098144
0.119485
0.147852
0.184968
0.230695
0.28477
0.476818
0.408676
0.285301
0.217598
0.220981
0.266852
0.304878
0.277053
0.181997
0.0877476
0.0522361
0.0674902
0.0830474
0.101146
0.123507
0.152324
0.190092
0.237
0.289022
0.348056
0.552068
0.464822
0.317926
0.245704
0.260371
0.32039
0.370314
0.342204
0.225901
0.10882
0.0658966
0.0840688
0.102741
0.125544
0.155126
0.194318
0.245046
0.304614
0.361832
0.425941
0.63543
0.528737
0.352055
0.275739
0.310632
0.380109
0.446505
0.42134
0.278533
0.135624
0.0839624
0.105327
0.127304
0.155695
0.194757
0.248314
0.316924
0.390539
0.450019
0.518607
0.72469
0.603218
0.390345
0.309191
0.363267
0.447436
0.535901
0.516361
0.342608
0.171032
0.108402
0.133188
0.158669
0.193818
0.245441
0.318601
0.410134
0.497457
0.55491
0.640122
0.827639
0.683098
0.441837
0.359688
0.404707
0.51518
0.63155
0.63147
0.423564
0.217736
0.142198
0.17067
0.200183
0.243831
0.312203
0.411178
0.530012
0.628633
0.686892
0.776402
0.935205
0.75986
0.494733
0.405638