/*--------------------------------*- C++ -*----------------------------------*\
  =========                 |
  \\      /  F ield         | OpenFOAM: The Open Source CFD Toolbox
   \\    /   O peration     | Website:  https://openfoam.org
    \\  /    A nd           | Version:  6
     \\/     M anipulation  |
\*---------------------------------------------------------------------------*/
FoamFile
{
    version     2.0;
    format      ascii;
    class       volVectorField;
    location    "4.19";
    object      U;
}
// * * * * * * * * * * * * * * * * * * * * * * * * * * * * * * * * * * * * * //

dimensions      [0 1 -1 0 0 0 0];

internalField   nonuniform List<vector> 
5625
(
(0.865623 0.431724 0)
(0.8688 0.432343 0)
(0.873139 0.433377 0)
(0.87834 0.434582 0)
(0.884197 0.435686 0)
(0.890585 0.436402 0)
(0.897427 0.43644 0)
(0.904719 0.4355 0)
(0.912581 0.433249 0)
(0.921238 0.429363 0)
(0.930958 0.423596 0)
(0.94206 0.415781 0)
(0.95489 0.405863 0)
(0.969805 0.393932 0)
(0.987217 0.380241 0)
(1.00759 0.365309 0)
(1.03134 0.349969 0)
(1.0586 0.335252 0)
(1.08908 0.32234 0)
(1.122 0.312626 0)
(1.15643 0.307503 0)
(1.19119 0.307976 0)
(1.22463 0.314541 0)
(1.25499 0.327295 0)
(1.28105 0.345988 0)
(1.30189 0.369902 0)
(1.31629 0.397748 0)
(1.32329 0.427879 0)
(1.32283 0.45874 0)
(1.31534 0.489021 0)
(1.30114 0.517376 0)
(1.28053 0.542264 0)
(1.25418 0.562312 0)
(1.22317 0.576804 0)
(1.18886 0.58571 0)
(1.15288 0.589402 0)
(1.11679 0.588464 0)
(1.08187 0.583662 0)
(1.04903 0.575854 0)
(1.01893 0.565853 0)
(0.992178 0.55434 0)
(0.969198 0.541903 0)
(0.950152 0.529097 0)
(0.934885 0.516433 0)
(0.923063 0.504327 0)
(0.914342 0.493044 0)
(0.908475 0.482695 0)
(0.905299 0.473278 0)
(0.904632 0.464749 0)
(0.906166 0.457085 0)
(0.909392 0.450323 0)
(0.913598 0.444562 0)
(0.917956 0.439938 0)
(0.921653 0.436573 0)
(0.924047 0.434516 0)
(0.924787 0.433708 0)
(0.923855 0.43397 0)
(0.921519 0.435035 0)
(0.918227 0.436599 0)
(0.91447 0.43838 0)
(0.910684 0.440149 0)
(0.907182 0.441757 0)
(0.904147 0.443125 0)
(0.901649 0.44423 0)
(0.899677 0.445086 0)
(0.898174 0.445726 0)
(0.89706 0.44619 0)
(0.896256 0.446519 0)
(0.895686 0.446746 0)
(0.895288 0.4469 0)
(0.895014 0.447003 0)
(0.894826 0.447071 0)
(0.894698 0.447115 0)
(0.894609 0.447144 0)
(0.894548 0.447163 0)
(0.865187 0.430851 0)
(0.867767 0.431279 0)
(0.871597 0.432227 0)
(0.876355 0.433476 0)
(0.881804 0.434775 0)
(0.887798 0.435852 0)
(0.894254 0.436441 0)
(0.901148 0.43627 0)
(0.908555 0.435047 0)
(0.916624 0.432501 0)
(0.925573 0.428412 0)
(0.935687 0.422608 0)
(0.947271 0.415006 0)
(0.960636 0.405659 0)
(0.976131 0.394809 0)
(0.99409 0.38292 0)
(1.01476 0.370609 0)
(1.03821 0.358615 0)
(1.06424 0.347963 0)
(1.09242 0.339892 0)
(1.12203 0.335476 0)
(1.15194 0.335445 0)
(1.18072 0.340336 0)
(1.20711 0.350466 0)
(1.23007 0.365646 0)
(1.2484 0.385145 0)
(1.26093 0.407907 0)
(1.26713 0.432764 0)
(1.26707 0.458543 0)
(1.26077 0.484013 0)
(1.24822 0.507789 0)
(1.22973 0.528483 0)
(1.20614 0.54508 0)
(1.17856 0.557158 0)
(1.14831 0.564737 0)
(1.11679 0.568049 0)
(1.08535 0.567499 0)
(1.05499 0.563671 0)
(1.02649 0.557249 0)
(1.00045 0.54887 0)
(0.977417 0.539081 0)
(0.95777 0.528387 0)
(0.941605 0.517285 0)
(0.92875 0.506242 0)
(0.91891 0.495625 0)
(0.911814 0.48566 0)
(0.907282 0.476432 0)
(0.905191 0.46794 0)
(0.905362 0.460166 0)
(0.907467 0.453129 0)
(0.910969 0.446915 0)
(0.915151 0.441668 0)
(0.91921 0.437554 0)
(0.9224 0.434702 0)
(0.924181 0.433147 0)
(0.924314 0.432801 0)
(0.92288 0.433455 0)
(0.920208 0.434823 0)
(0.916761 0.436595 0)
(0.91301 0.438496 0)
(0.909344 0.44032 0)
(0.906028 0.441938 0)
(0.903204 0.443289 0)
(0.90091 0.444366 0)
(0.899118 0.44519 0)
(0.897764 0.445802 0)
(0.896768 0.446243 0)
(0.896052 0.446553 0)
(0.895546 0.446767 0)
(0.895194 0.446912 0)
(0.894951 0.44701 0)
(0.894785 0.447074 0)
(0.894671 0.447116 0)
(0.894592 0.447144 0)
(0.894537 0.447162 0)
(0.865001 0.430069 0)
(0.866942 0.430245 0)
(0.870209 0.431036 0)
(0.874482 0.432249 0)
(0.879501 0.433649 0)
(0.885089 0.434986 0)
(0.891133 0.436016 0)
(0.897601 0.436482 0)
(0.904539 0.436129 0)
(0.912043 0.434724 0)
(0.920267 0.432063 0)
(0.929437 0.427984 0)
(0.939822 0.422403 0)
(0.951716 0.415365 0)
(0.965399 0.407059 0)
(0.981091 0.39781 0)
(0.998957 0.38806 0)
(1.01907 0.378478 0)
(1.04132 0.369994 0)
(1.06533 0.363537 0)
(1.09046 0.359831 0)
(1.11578 0.359542 0)
(1.14028 0.363314 0)
(1.16296 0.371421 0)
(1.18272 0.383596 0)
(1.19838 0.399285 0)
(1.20912 0.417804 0)
(1.21465 0.438275 0)
(1.21475 0.459627 0)
(1.20916 0.480675 0)
(1.19785 0.500192 0)
(1.18136 0.517101 0)
(1.16056 0.530704 0)
(1.13649 0.540721 0)
(1.11027 0.547115 0)
(1.08312 0.549992 0)
(1.05612 0.549632 0)
(1.0301 0.546498 0)
(1.00569 0.541126 0)
(0.983483 0.534015 0)
(0.963962 0.525608 0)
(0.94744 0.516343 0)
(0.933959 0.506667 0)
(0.923342 0.496998 0)
(0.915341 0.487653 0)
(0.909757 0.478814 0)
(0.906472 0.470545 0)
(0.905387 0.46285 0)
(0.906316 0.455739 0)
(0.908901 0.449274 0)
(0.912582 0.443588 0)
(0.91664 0.438864 0)
(0.920311 0.435286 0)
(0.92293 0.432978 0)
(0.924069 0.43195 0)
(0.923604 0.432076 0)
(0.921705 0.433116 0)
(0.918751 0.434765 0)
(0.915206 0.436716 0)
(0.911509 0.43871 0)
(0.907998 0.440563 0)
(0.904891 0.442169 0)
(0.902287 0.443487 0)
(0.9002 0.444523 0)
(0.898586 0.445309 0)
(0.897376 0.445886 0)
(0.896492 0.446301 0)
(0.89586 0.446591 0)
(0.895415 0.446791 0)
(0.895106 0.446927 0)
(0.894893 0.447018 0)
(0.894746 0.447078 0)
(0.894645 0.447118 0)
(0.894575 0.447145 0)
(0.894526 0.447162 0)
(0.865098 0.429424 0)
(0.866368 0.429282 0)
(0.869026 0.429849 0)
(0.872766 0.430944 0)
(0.877322 0.432352 0)
(0.882483 0.433849 0)
(0.888108 0.435205 0)
(0.894143 0.436178 0)
(0.900602 0.43654 0)
(0.907544 0.436084 0)
(0.915076 0.434626 0)
(0.923381 0.432012 0)
(0.932686 0.428169 0)
(0.943216 0.423122 0)
(0.95517 0.416996 0)
(0.968743 0.410012 0)
(0.984112 0.402546 0)
(1.00133 0.395202 0)
(1.02023 0.388683 0)
(1.0405 0.383603 0)
(1.06163 0.380583 0)
(1.08295 0.380335 0)
(1.10365 0.383393 0)
(1.1228 0.389853 0)
(1.1394 0.399533 0)
(1.15255 0.412154 0)
(1.16169 0.427221 0)
(1.1664 0.443927 0)
(1.16629 0.461304 0)
(1.16106 0.478354 0)
(1.15091 0.494114 0)
(1.13647 0.507785 0)
(1.1185 0.518864 0)
(1.09786 0.527103 0)
(1.07551 0.532393 0)
(1.05245 0.534758 0)
(1.02958 0.534415 0)
(1.00755 0.531737 0)
(0.986942 0.527137 0)
(0.968277 0.520999 0)
(0.951997 0.513686 0)
(0.938342 0.505586 0)
(0.927307 0.497099 0)
(0.918725 0.488591 0)
(0.912402 0.480324 0)
(0.908207 0.472441 0)
(0.906067 0.464988 0)
(0.905893 0.457978 0)
(0.907482 0.451454 0)
(0.910442 0.445524 0)
(0.914189 0.440362 0)
(0.918015 0.436183 0)
(0.921209 0.433175 0)
(0.923203 0.431443 0)
(0.923686 0.430959 0)
(0.922648 0.431556 0)
(0.920338 0.432964 0)
(0.917165 0.434865 0)
(0.913583 0.436962 0)
(0.909986 0.439016 0)
(0.906664 0.440869 0)
(0.903782 0.442442 0)
(0.901406 0.443712 0)
(0.899524 0.444698 0)
(0.898084 0.445438 0)
(0.897013 0.445979 0)
(0.896235 0.446364 0)
(0.895682 0.446633 0)
(0.895293 0.446817 0)
(0.895024 0.446943 0)
(0.894838 0.447027 0)
(0.894709 0.447083 0)
(0.894621 0.44712 0)
(0.894559 0.447146 0)
(0.894515 0.447162 0)
(0.865512 0.42897 0)
(0.866082 0.428444 0)
(0.868091 0.428711 0)
(0.871259 0.429609 0)
(0.875311 0.430938 0)
(0.880016 0.432493 0)
(0.885212 0.434057 0)
(0.890816 0.435406 0)
(0.8968 0.436333 0)
(0.903189 0.436651 0)
(0.91007 0.436187 0)
(0.917591 0.434802 0)
(0.925908 0.432419 0)
(0.93517 0.429048 0)
(0.94555 0.424768 0)
(0.957259 0.419749 0)
(0.970433 0.414314 0)
(0.985036 0.408919 0)
(1.00092 0.404044 0)
(1.01789 0.400187 0)
(1.03558 0.397959 0)
(1.05341 0.397954 0)
(1.07064 0.400484 0)
(1.08652 0.405612 0)
(1.10026 0.413348 0)
(1.1112 0.42354 0)
(1.11878 0.435699 0)
(1.12251 0.449105 0)
(1.12198 0.463005 0)
(1.11712 0.476634 0)
(1.10824 0.489237 0)
(1.09589 0.500204 0)
(1.08065 0.509141 0)
(1.06322 0.515805 0)
(1.04443 0.520043 0)
(1.02511 0.521847 0)
(1.00597 0.521396 0)
(0.987563 0.518988 0)
(0.970397 0.514937 0)
(0.954955 0.509536 0)
(0.94161 0.503086 0)
(0.930534 0.495934 0)
(0.921688 0.488438 0)
(0.914927 0.480907 0)
(0.910114 0.473551 0)
(0.907174 0.466474 0)
(0.906066 0.459711 0)
(0.906697 0.453295 0)
(0.908832 0.447304 0)
(0.912046 0.441891 0)
(0.915737 0.437268 0)
(0.91922 0.433666 0)
(0.921855 0.431266 0)
(0.923183 0.430138 0)
(0.923015 0.430206 0)
(0.921447 0.431261 0)
(0.918792 0.433006 0)
(0.915472 0.435122 0)
(0.911914 0.437324 0)
(0.908465 0.439403 0)
(0.905358 0.44123 0)
(0.902715 0.44275 0)
(0.900568 0.443958 0)
(0.898889 0.444885 0)
(0.897616 0.445575 0)
(0.896677 0.446075 0)
(0.895999 0.446429 0)
(0.895518 0.446675 0)
(0.895181 0.446845 0)
(0.894948 0.446959 0)
(0.894787 0.447036 0)
(0.894675 0.447088 0)
(0.894598 0.447123 0)
(0.894543 0.447147 0)
(0.894504 0.447163 0)
(0.866269 0.428748 0)
(0.866125 0.427789 0)
(0.867451 0.427684 0)
(0.870005 0.428302 0)
(0.873514 0.429462 0)
(0.877732 0.430975 0)
(0.882482 0.432635 0)
(0.887649 0.434234 0)
(0.89317 0.435583 0)
(0.899037 0.436507 0)
(0.905319 0.436841 0)
(0.912109 0.436457 0)
(0.919501 0.435284 0)
(0.927623 0.433312 0)
(0.936656 0.430585 0)
(0.946751 0.427231 0)
(0.957942 0.423505 0)
(0.97019 0.419736 0)
(0.983465 0.416283 0)
(0.997631 0.413597 0)
(1.01231 0.412187 0)
(1.02699 0.412437 0)
(1.04113 0.414556 0)
(1.05416 0.418704 0)
(1.06543 0.424972 0)
(1.07436 0.433174 0)
(1.0804 0.442848 0)
(1.08314 0.453456 0)
(1.08232 0.464464 0)
(1.07798 0.475267 0)
(1.07043 0.485255 0)
(1.06005 0.493955 0)
(1.0473 0.501051 0)
(1.03277 0.506304 0)
(1.01717 0.509551 0)
(1.00119 0.510781 0)
(0.985366 0.510147 0)
(0.970185 0.507879 0)
(0.956102 0.504209 0)
(0.943545 0.499361 0)
(0.932812 0.493594 0)
(0.924013 0.487218 0)
(0.917093 0.480547 0)
(0.911939 0.473837 0)
(0.908467 0.467245 0)
(0.906646 0.460845 0)
(0.90645 0.454672 0)
(0.907766 0.448782 0)
(0.910321 0.443293 0)
(0.913655 0.438399 0)
(0.917161 0.434344 0)
(0.920193 0.431361 0)
(0.9222 0.429607 0)
(0.922842 0.429102 0)
(0.922051 0.429719 0)
(0.920015 0.431206 0)
(0.917091 0.433247 0)
(0.913699 0.435529 0)
(0.910226 0.437793 0)
(0.906965 0.439862 0)
(0.904097 0.441636 0)
(0.901701 0.443084 0)
(0.899783 0.444219 0)
(0.898299 0.44508 0)
(0.897185 0.445715 0)
(0.896368 0.446172 0)
(0.895782 0.446495 0)
(0.895368 0.446719 0)
(0.895079 0.446872 0)
(0.894879 0.446977 0)
(0.89474 0.447047 0)
(0.894644 0.447095 0)
(0.894577 0.447127 0)
(0.894529 0.447149 0)
(0.894495 0.447164 0)
(0.867387 0.428802 0)
(0.866532 0.427375 0)
(0.867148 0.42683 0)
(0.869049 0.427084 0)
(0.871977 0.427989 0)
(0.875679 0.429364 0)
(0.879959 0.431012 0)
(0.884679 0.432739 0)
(0.889746 0.434373 0)
(0.895126 0.435744 0)
(0.900847 0.436692 0)
(0.906955 0.437103 0)
(0.913524 0.436915 0)
(0.920675 0.436088 0)
(0.928536 0.434628 0)
(0.937171 0.432646 0)
(0.946599 0.430341 0)
(0.956859 0.427949 0)
(0.967947 0.425747 0)
(0.979669 0.424099 0)
(0.991682 0.423377 0)
(1.00364 0.42385 0)
(1.01517 0.425732 0)
(1.02576 0.429215 0)
(1.03484 0.434332 0)
(1.04193 0.440865 0)
(1.04662 0.448479 0)
(1.04858 0.456827 0)
(1.04765 0.465499 0)
(1.04393 0.473986 0)
(1.03763 0.481808 0)
(1.02901 0.488609 0)
(1.01845 0.494123 0)
(1.00648 0.498121 0)
(0.993696 0.50046 0)
(0.980628 0.501141 0)
(0.967718 0.500292 0)
(0.955375 0.498079 0)
(0.944013 0.494667 0)
(0.933997 0.490235 0)
(0.925551 0.485014 0)
(0.918731 0.479281 0)
(0.913482 0.473303 0)
(0.909727 0.467282 0)
(0.907431 0.46133 0)
(0.906592 0.455501 0)
(0.90718 0.449838 0)
(0.909051 0.444428 0)
(0.911888 0.439433 0)
(0.9152 0.435084 0)
(0.91839 0.431642 0)
(0.920874 0.429325 0)
(0.922202 0.428247 0)
(0.922161 0.428372 0)
(0.920798 0.429516 0)
(0.918373 0.431392 0)
(0.915267 0.433676 0)
(0.91188 0.436073 0)
(0.908548 0.438354 0)
(0.90551 0.440376 0)
(0.902895 0.442073 0)
(0.900749 0.443435 0)
(0.899054 0.444488 0)
(0.897757 0.445279 0)
(0.896791 0.445857 0)
(0.896089 0.44627 0)
(0.895587 0.446561 0)
(0.895233 0.446762 0)
(0.894987 0.4469 0)
(0.894817 0.446994 0)
(0.894698 0.447058 0)
(0.894616 0.447101 0)
(0.894557 0.447131 0)
(0.894515 0.447151 0)
(0.894485 0.447165 0)
(0.868862 0.429164 0)
(0.86733 0.427252 0)
(0.867225 0.426212 0)
(0.868437 0.426033 0)
(0.870743 0.426595 0)
(0.873899 0.427732 0)
(0.877689 0.429259 0)
(0.881946 0.431003 0)
(0.88656 0.432792 0)
(0.891475 0.434458 0)
(0.896676 0.435852 0)
(0.902175 0.436877 0)
(0.90803 0.437458 0)
(0.91433 0.437528 0)
(0.92114 0.43709 0)
(0.928495 0.436241 0)
(0.936454 0.435112 0)
(0.94507 0.433849 0)
(0.954271 0.432675 0)
(0.963855 0.431887 0)
(0.973614 0.431749 0)
(0.983328 0.432472 0)
(0.992653 0.434258 0)
(1.00113 0.437249 0)
(1.00831 0.441413 0)
(1.01387 0.446588 0)
(1.01747 0.45258 0)
(1.01887 0.459149 0)
(1.01797 0.465934 0)
(1.01484 0.472522 0)
(1.00963 0.478562 0)
(1.00254 0.483784 0)
(0.993896 0.487952 0)
(0.984164 0.490861 0)
(0.973819 0.4924 0)
(0.963272 0.492586 0)
(0.95288 0.491515 0)
(0.943007 0.489302 0)
(0.934017 0.486062 0)
(0.926206 0.481951 0)
(0.919728 0.477178 0)
(0.914603 0.471987 0)
(0.910785 0.466595 0)
(0.908235 0.461152 0)
(0.906959 0.455737 0)
(0.906966 0.450396 0)
(0.908205 0.445189 0)
(0.910489 0.440243 0)
(0.913455 0.43576 0)
(0.916598 0.432001 0)
(0.91935 0.429224 0)
(0.921204 0.427618 0)
(0.92183 0.427237 0)
(0.921138 0.42798 0)
(0.919275 0.42961 0)
(0.916553 0.431817 0)
(0.913355 0.434282 0)
(0.910046 0.436735 0)
(0.906906 0.438988 0)
(0.904118 0.440933 0)
(0.901767 0.442531 0)
(0.899868 0.443793 0)
(0.898386 0.444758 0)
(0.897265 0.445475 0)
(0.896436 0.445995 0)
(0.895838 0.446366 0)
(0.895412 0.446625 0)
(0.895113 0.446804 0)
(0.894905 0.446927 0)
(0.894761 0.447011 0)
(0.89466 0.447068 0)
(0.894589 0.447107 0)
(0.894539 0.447135 0)
(0.894503 0.447153 0)
(0.894476 0.447167 0)
(0.870671 0.429846 0)
(0.868529 0.427466 0)
(0.867715 0.425906 0)
(0.868217 0.425226 0)
(0.869865 0.425358 0)
(0.872435 0.426161 0)
(0.875705 0.42747 0)
(0.879487 0.429118 0)
(0.88365 0.430931 0)
(0.888114 0.432749 0)
(0.892831 0.434447 0)
(0.897786 0.435919 0)
(0.903011 0.437061 0)
(0.908558 0.437815 0)
(0.914458 0.438196 0)
(0.920756 0.438254 0)
(0.927508 0.438043 0)
(0.934712 0.437672 0)
(0.942277 0.437345 0)
(0.950088 0.437282 0)
(0.958024 0.437652 0)
(0.965881 0.438616 0)
(0.973329 0.440344 0)
(0.980019 0.44293 0)
(0.985669 0.44634 0)
(0.990017 0.45048 0)
(0.992785 0.45523 0)
(0.993777 0.460385 0)
(0.992948 0.465641 0)
(0.990348 0.470683 0)
(0.986073 0.475269 0)
(0.980299 0.479192 0)
(0.973324 0.482233 0)
(0.965528 0.484218 0)
(0.957274 0.485075 0)
(0.948881 0.484831 0)
(0.940652 0.483553 0)
(0.932907 0.481311 0)
(0.925956 0.478194 0)
(0.920024 0.474342 0)
(0.915211 0.469948 0)
(0.911517 0.465218 0)
(0.908912 0.460322 0)
(0.907393 0.455368 0)
(0.906989 0.450411 0)
(0.907704 0.4455 0)
(0.909452 0.440724 0)
(0.911994 0.436252 0)
(0.914935 0.432324 0)
(0.917765 0.429213 0)
(0.919968 0.42716 0)
(0.921138 0.4263 0)
(0.921068 0.426616 0)
(0.919786 0.427942 0)
(0.917516 0.429999 0)
(0.914599 0.432465 0)
(0.9114 0.435041 0)
(0.908235 0.437495 0)
(0.905327 0.439676 0)
(0.902807 0.441514 0)
(0.900722 0.442997 0)
(0.899062 0.444152 0)
(0.897782 0.445024 0)
(0.896823 0.445666 0)
(0.89612 0.446129 0)
(0.895614 0.446457 0)
(0.895257 0.446686 0)
(0.895006 0.446845 0)
(0.894832 0.446953 0)
(0.894711 0.447028 0)
(0.894626 0.447079 0)
(0.894566 0.447114 0)
(0.894523 0.447139 0)
(0.894491 0.447156 0)
(0.894468 0.447168 0)
(0.872769 0.430844 0)
(0.870117 0.428049 0)
(0.868638 0.425965 0)
(0.868427 0.424736 0)
(0.869388 0.424363 0)
(0.871336 0.424744 0)
(0.874052 0.425735 0)
(0.877339 0.427174 0)
(0.881048 0.428892 0)
(0.885068 0.430743 0)
(0.889325 0.432603 0)
(0.893788 0.434351 0)
(0.898461 0.435882 0)
(0.903359 0.437147 0)
(0.908502 0.438152 0)
(0.913922 0.438889 0)
(0.919645 0.439378 0)
(0.925651 0.439727 0)
(0.93188 0.440096 0)
(0.938276 0.440606 0)
(0.944728 0.441367 0)
(0.951027 0.442527 0)
(0.956922 0.444225 0)
(0.962199 0.44651 0)
(0.966654 0.449353 0)
(0.970048 0.452709 0)
(0.972156 0.456491 0)
(0.972854 0.460513 0)
(0.972126 0.464536 0)
(0.969998 0.468349 0)
(0.966536 0.471776 0)
(0.961902 0.474635 0)
(0.956364 0.47674 0)
(0.950222 0.47796 0)
(0.943744 0.478257 0)
(0.937175 0.477656 0)
(0.930783 0.476196 0)
(0.924851 0.473919 0)
(0.919631 0.470899 0)
(0.91528 0.46727 0)
(0.911855 0.463205 0)
(0.909351 0.458877 0)
(0.907763 0.454409 0)
(0.907116 0.449873 0)
(0.907442 0.445316 0)
(0.908725 0.440803 0)
(0.910831 0.436462 0)
(0.913473 0.432504 0)
(0.916228 0.429194 0)
(0.918611 0.426802 0)
(0.92018 0.425524 0)
(0.920644 0.425425 0)
(0.919919 0.426414 0)
(0.918134 0.428264 0)
(0.915566 0.430667 0)
(0.912561 0.433311 0)
(0.909446 0.435927 0)
(0.906481 0.438324 0)
(0.903835 0.440397 0)
(0.901591 0.442105 0)
(0.899767 0.443461 0)
(0.898334 0.444502 0)
(0.897242 0.445281 0)
(0.89643 0.445849 0)
(0.89584 0.446257 0)
(0.895418 0.446544 0)
(0.89512 0.446745 0)
(0.894912 0.446883 0)
(0.894767 0.446978 0)
(0.894666 0.447044 0)
(0.894595 0.447089 0)
(0.894544 0.447121 0)
(0.894508 0.447143 0)
(0.894481 0.447159 0)
(0.89446 0.44717 0)
(0.875084 0.432128 0)
(0.872061 0.429007 0)
(0.869992 0.426432 0)
(0.869091 0.424638 0)
(0.869358 0.423701 0)
(0.870651 0.423578 0)
(0.872778 0.424156 0)
(0.875545 0.425279 0)
(0.878785 0.426792 0)
(0.882358 0.428555 0)
(0.886176 0.430436 0)
(0.890193 0.43231 0)
(0.894382 0.434087 0)
(0.898723 0.435713 0)
(0.903222 0.437147 0)
(0.907905 0.438362 0)
(0.91278 0.439387 0)
(0.917819 0.440305 0)
(0.922987 0.441194 0)
(0.928236 0.442119 0)
(0.93346 0.443184 0)
(0.938495 0.444523 0)
(0.943183 0.446214 0)
(0.947374 0.448267 0)
(0.950887 0.450677 0)
(0.953518 0.453431 0)
(0.955119 0.456446 0)
(0.955628 0.459566 0)
(0.955028 0.462623 0)
(0.953321 0.465476 0)
(0.950567 0.467983 0)
(0.946922 0.469982 0)
(0.942612 0.471325 0)
(0.937862 0.47193 0)
(0.932872 0.471783 0)
(0.927842 0.470895 0)
(0.923006 0.469282 0)
(0.918605 0.466976 0)
(0.914831 0.46405 0)
(0.911787 0.46063 0)
(0.909502 0.456866 0)
(0.907979 0.452892 0)
(0.907237 0.448795 0)
(0.907315 0.444626 0)
(0.908234 0.440436 0)
(0.909939 0.436321 0)
(0.912241 0.432453 0)
(0.914815 0.429076 0)
(0.917232 0.426463 0)
(0.919056 0.424854 0)
(0.91994 0.424383 0)
(0.919714 0.425034 0)
(0.918411 0.42664 0)
(0.916233 0.428929 0)
(0.913486 0.431586 0)
(0.910493 0.434319 0)
(0.907535 0.436904 0)
(0.904814 0.439196 0)
(0.902447 0.441128 0)
(0.900481 0.442691 0)
(0.898907 0.443911 0)
(0.897686 0.444838 0)
(0.896765 0.445524 0)
(0.896087 0.446021 0)
(0.895596 0.446376 0)
(0.895247 0.446626 0)
(0.895002 0.446799 0)
(0.894831 0.446919 0)
(0.894711 0.447002 0)
(0.894627 0.447059 0)
(0.894568 0.447099 0)
(0.894525 0.447127 0)
(0.894494 0.447147 0)
(0.894471 0.447162 0)
(0.894453 0.447172 0)
(0.877515 0.433634 0)
(0.874295 0.430321 0)
(0.871758 0.42733 0)
(0.870224 0.424988 0)
(0.869801 0.423457 0)
(0.870421 0.422765 0)
(0.87193 0.422836 0)
(0.874146 0.423544 0)
(0.876891 0.424748 0)
(0.880014 0.426307 0)
(0.883413 0.42808 0)
(0.88701 0.429953 0)
(0.890753 0.431841 0)
(0.894607 0.433668 0)
(0.898576 0.435363 0)
(0.902661 0.436903 0)
(0.906846 0.438319 0)
(0.911104 0.439642 0)
(0.915418 0.440892 0)
(0.919745 0.442124 0)
(0.923995 0.443439 0)
(0.928053 0.444918 0)
(0.931815 0.446584 0)
(0.935159 0.448448 0)
(0.93793 0.450532 0)
(0.93998 0.452823 0)
(0.941226 0.455236 0)
(0.941632 0.457648 0)
(0.941173 0.459955 0)
(0.939845 0.462059 0)
(0.937715 0.463838 0)
(0.934927 0.465153 0)
(0.931656 0.465898 0)
(0.928066 0.466028 0)
(0.924312 0.465537 0)
(0.920569 0.464427 0)
(0.917039 0.462699 0)
(0.913914 0.460384 0)
(0.911331 0.457561 0)
(0.909352 0.454346 0)
(0.907995 0.450863 0)
(0.907275 0.447208 0)
(0.907228 0.443443 0)
(0.907893 0.439613 0)
(0.909264 0.435789 0)
(0.911233 0.432106 0)
(0.913565 0.428776 0)
(0.915906 0.426063 0)
(0.91785 0.424227 0)
(0.919034 0.423454 0)
(0.919224 0.423794 0)
(0.918369 0.425147 0)
(0.916592 0.427284 0)
(0.914147 0.429907 0)
(0.911337 0.432713 0)
(0.908448 0.435449 0)
(0.905707 0.437939 0)
(0.90326 0.440084 0)
(0.90118 0.441852 0)
(0.899482 0.443257 0)
(0.898143 0.44434 0)
(0.897116 0.445153 0)
(0.896349 0.44575 0)
(0.895788 0.446181 0)
(0.895385 0.446486 0)
(0.8951 0.4467 0)
(0.8949 0.446849 0)
(0.89476 0.446952 0)
(0.894662 0.447024 0)
(0.894593 0.447074 0)
(0.894544 0.447109 0)
(0.894508 0.447134 0)
(0.894482 0.447152 0)
(0.894462 0.447165 0)
(0.894447 0.447174 0)
(0.879948 0.43527 0)
(0.876717 0.431928 0)
(0.873879 0.428655 0)
(0.87181 0.425826 0)
(0.870732 0.423703 0)
(0.870681 0.422394 0)
(0.871552 0.421885 0)
(0.873184 0.422089 0)
(0.875407 0.422881 0)
(0.878072 0.424124 0)
(0.88105 0.425681 0)
(0.884238 0.427437 0)
(0.887568 0.429297 0)
(0.891007 0.431172 0)
(0.894532 0.432995 0)
(0.898115 0.434741 0)
(0.90173 0.436403 0)
(0.90537 0.437975 0)
(0.909021 0.439465 0)
(0.91263 0.440924 0)
(0.916125 0.442412 0)
(0.919436 0.443962 0)
(0.922488 0.445585 0)
(0.925177 0.447307 0)
(0.927383 0.449146 0)
(0.92902 0.451073 0)
(0.930039 0.45301 0)
(0.930408 0.454879 0)
(0.930096 0.456615 0)
(0.929113 0.458139 0)
(0.927535 0.459344 0)
(0.925484 0.460123 0)
(0.923085 0.460413 0)
(0.920454 0.460189 0)
(0.917721 0.459444 0)
(0.915046 0.458171 0)
(0.912601 0.456371 0)
(0.910527 0.454078 0)
(0.908911 0.451375 0)
(0.907789 0.448367 0)
(0.907179 0.445152 0)
(0.90711 0.441795 0)
(0.907623 0.438342 0)
(0.908741 0.434849 0)
(0.910415 0.431422 0)
(0.912486 0.428237 0)
(0.914676 0.425537 0)
(0.916633 0.423584 0)
(0.918 0.422594 0)
(0.918509 0.422674 0)
(0.918044 0.423787 0)
(0.916654 0.425755 0)
(0.914534 0.428307 0)
(0.911951 0.431144 0)
(0.909187 0.433995 0)
(0.906479 0.436654 0)
(0.903997 0.438994 0)
(0.901839 0.44096 0)
(0.900042 0.44255 0)
(0.898599 0.443793 0)
(0.897475 0.44474 0)
(0.896622 0.445444 0)
(0.895991 0.445958 0)
(0.895533 0.446326 0)
(0.895205 0.446586 0)
(0.894974 0.446768 0)
(0.894812 0.446895 0)
(0.894699 0.446983 0)
(0.89462 0.447044 0)
(0.894564 0.447087 0)
(0.894523 0.447118 0)
(0.894493 0.44714 0)
(0.894471 0.447156 0)
(0.894454 0.447168 0)
(0.894441 0.447176 0)
(0.882276 0.436936 0)
(0.879201 0.433727 0)
(0.87625 0.430345 0)
(0.873805 0.427155 0)
(0.872158 0.424488 0)
(0.871453 0.422552 0)
(0.871675 0.421413 0)
(0.872703 0.421035 0)
(0.874381 0.421319 0)
(0.876559 0.422142 0)
(0.879102 0.423375 0)
(0.881892 0.4249 0)
(0.884844 0.426611 0)
(0.887905 0.428416 0)
(0.891034 0.430251 0)
(0.894194 0.432071 0)
(0.897361 0.43384 0)
(0.900523 0.435537 0)
(0.903653 0.437171 0)
(0.906704 0.43877 0)
(0.909627 0.44035 0)
(0.912376 0.441918 0)
(0.914892 0.443493 0)
(0.917092 0.445103 0)
(0.918898 0.446743 0)
(0.920263 0.448373 0)
(0.921149 0.44994 0)
(0.921518 0.451399 0)
(0.921356 0.452704 0)
(0.920692 0.453779 0)
(0.919602 0.454538 0)
(0.918176 0.454912 0)
(0.9165 0.454866 0)
(0.914663 0.45439 0)
(0.912782 0.453468 0)
(0.910994 0.452088 0)
(0.909436 0.450258 0)
(0.908207 0.448024 0)
(0.90736 0.445466 0)
(0.906917 0.442673 0)
(0.906904 0.439717 0)
(0.907356 0.436646 0)
(0.908304 0.433508 0)
(0.909738 0.430385 0)
(0.911559 0.427422 0)
(0.913561 0.424833 0)
(0.915449 0.422866 0)
(0.916898 0.421755 0)
(0.917629 0.421647 0)
(0.91748 0.422556 0)
(0.916441 0.424359 0)
(0.914645 0.426819 0)
(0.912319 0.429652 0)
(0.909724 0.432579 0)
(0.907099 0.435375 0)
(0.904628 0.437887 0)
(0.90243 0.440037 0)
(0.900563 0.441804 0)
(0.899036 0.443208 0)
(0.897828 0.444292 0)
(0.896897 0.445108 0)
(0.896199 0.44571 0)
(0.895686 0.446145 0)
(0.895315 0.446456 0)
(0.895052 0.446675 0)
(0.894867 0.446829 0)
(0.894738 0.446936 0)
(0.894648 0.447011 0)
(0.894584 0.447063 0)
(0.894538 0.4471 0)
(0.894505 0.447127 0)
(0.89448 0.447146 0)
(0.894461 0.44716 0)
(0.894447 0.447171 0)
(0.894435 0.447178 0)
(0.884415 0.438549 0)
(0.881621 0.435595 0)
(0.878739 0.432287 0)
(0.876103 0.428917 0)
(0.874031 0.42583 0)
(0.872745 0.42331 0)
(0.872328 0.421521 0)
(0.872736 0.420501 0)
(0.873846 0.420195 0)
(0.875515 0.4205 0)
(0.877601 0.421304 0)
(0.879986 0.422492 0)
(0.88257 0.423949 0)
(0.885281 0.425578 0)
(0.88806 0.427309 0)
(0.890864 0.429082 0)
(0.89367 0.430844 0)
(0.896452 0.432568 0)
(0.899171 0.434253 0)
(0.901793 0.4359 0)
(0.904291 0.4375 0)
(0.906631 0.439052 0)
(0.908758 0.440573 0)
(0.91061 0.442075 0)
(0.912143 0.443537 0)
(0.91333 0.444924 0)
(0.914143 0.446205 0)
(0.914555 0.447355 0)
(0.914561 0.448329 0)
(0.914198 0.449061 0)
(0.91353 0.449488 0)
(0.912623 0.44957 0)
(0.911542 0.449291 0)
(0.910364 0.448639 0)
(0.90919 0.4476 0)
(0.908134 0.446164 0)
(0.907296 0.44435 0)
(0.906738 0.442214 0)
(0.906493 0.43983 0)
(0.906583 0.437265 0)
(0.907037 0.434571 0)
(0.907887 0.431795 0)
(0.909141 0.429006 0)
(0.910744 0.42632 0)
(0.912548 0.42392 0)
(0.914318 0.422038 0)
(0.91577 0.420903 0)
(0.916632 0.420686 0)
(0.916722 0.421445 0)
(0.915983 0.423103 0)
(0.914494 0.425466 0)
(0.912436 0.42827 0)
(0.910042 0.431239 0)
(0.907542 0.434138 0)
(0.905127 0.436794 0)
(0.90293 0.439108 0)
(0.901025 0.441039 0)
(0.899439 0.442597 0)
(0.898162 0.443816 0)
(0.897165 0.444745 0)
(0.896406 0.445439 0)
(0.895841 0.445947 0)
(0.895429 0.446312 0)
(0.895134 0.446572 0)
(0.894925 0.446755 0)
(0.894778 0.446883 0)
(0.894676 0.446973 0)
(0.894604 0.447036 0)
(0.894553 0.44708 0)
(0.894516 0.447112 0)
(0.894489 0.447135 0)
(0.894468 0.447152 0)
(0.894452 0.447164 0)
(0.89444 0.447173 0)
(0.894431 0.447181 0)
(0.8863 0.440031 0)
(0.883871 0.437421 0)
(0.881209 0.434343 0)
(0.87857 0.430994 0)
(0.876251 0.427671 0)
(0.874513 0.424689 0)
(0.87352 0.422289 0)
(0.873314 0.420598 0)
(0.873837 0.419635 0)
(0.874972 0.419344 0)
(0.876582 0.419627 0)
(0.878546 0.420374 0)
(0.88076 0.42147 0)
(0.883131 0.422819 0)
(0.885589 0.42434 0)
(0.888086 0.42596 0)
(0.890588 0.427623 0)
(0.893054 0.429289 0)
(0.895452 0.430937 0)
(0.897758 0.432546 0)
(0.899949 0.434102 0)
(0.901991 0.435604 0)
(0.903837 0.437053 0)
(0.905452 0.438439 0)
(0.906815 0.439739 0)
(0.907904 0.440928 0)
(0.908695 0.44199 0)
(0.909173 0.442902 0)
(0.90935 0.44362 0)
(0.909265 0.444091 0)
(0.908963 0.444278 0)
(0.908492 0.44416 0)
(0.907904 0.443727 0)
(0.907271 0.442966 0)
(0.90668 0.441863 0)
(0.906219 0.440422 0)
(0.905953 0.438673 0)
(0.905919 0.436674 0)
(0.90614 0.434487 0)
(0.906641 0.432166 0)
(0.907449 0.429756 0)
(0.908579 0.427317 0)
(0.910002 0.424946 0)
(0.911617 0.4228 0)
(0.913241 0.421082 0)
(0.914635 0.420013 0)
(0.915555 0.419772 0)
(0.91581 0.420445 0)
(0.915314 0.421995 0)
(0.9141 0.424267 0)
(0.912306 0.427027 0)
(0.910133 0.430012 0)
(0.907792 0.432981 0)
(0.905472 0.435749 0)
(0.903314 0.438199 0)
(0.901406 0.440277 0)
(0.899789 0.441977 0)
(0.898465 0.443325 0)
(0.897414 0.444366 0)
(0.896603 0.445152 0)
(0.895992 0.445733 0)
(0.895541 0.446156 0)
(0.895215 0.446459 0)
(0.894983 0.446674 0)
(0.894819 0.446825 0)
(0.894704 0.446931 0)
(0.894624 0.447005 0)
(0.894567 0.447058 0)
(0.894526 0.447095 0)
(0.894497 0.447122 0)
(0.894475 0.447142 0)
(0.894458 0.447157 0)
(0.894445 0.447168 0)
(0.894434 0.447176 0)
(0.894426 0.447183 0)
(0.887917 0.441355 0)
(0.88587 0.439115 0)
(0.883532 0.436372 0)
(0.881051 0.433223 0)
(0.878672 0.429881 0)
(0.876656 0.426624 0)
(0.875209 0.423734 0)
(0.874447 0.421419 0)
(0.874389 0.419779 0)
(0.87497 0.418825 0)
(0.87608 0.418498 0)
(0.877601 0.418704 0)
(0.879425 0.419343 0)
(0.881454 0.420315 0)
(0.883606 0.421526 0)
(0.885821 0.422899 0)
(0.888052 0.424371 0)
(0.890259 0.425893 0)
(0.892411 0.427422 0)
(0.89448 0.428926 0)
(0.896441 0.430388 0)
(0.898261 0.4318 0)
(0.899915 0.433146 0)
(0.901384 0.434402 0)
(0.902651 0.43555 0)
(0.903696 0.436578 0)
(0.904501 0.437468 0)
(0.905067 0.438192 0)
(0.905419 0.438711 0)
(0.905586 0.43899 0)
(0.905601 0.439011 0)
(0.905495 0.438766 0)
(0.905316 0.438241 0)
(0.905131 0.437424 0)
(0.905013 0.436309 0)
(0.905023 0.434913 0)
(0.9052 0.433276 0)
(0.905569 0.431451 0)
(0.906146 0.429491 0)
(0.906954 0.427444 0)
(0.908006 0.425365 0)
(0.909289 0.423336 0)
(0.910733 0.42149 0)
(0.912204 0.420006 0)
(0.913505 0.419084 0)
(0.914424 0.418899 0)
(0.914778 0.419553 0)
(0.914465 0.421041 0)
(0.913488 0.423243 0)
(0.911943 0.425954 0)
(0.909997 0.42893 0)
(0.907839 0.431936 0)
(0.905648 0.434784 0)
(0.903566 0.437342 0)
(0.901689 0.439543 0)
(0.900069 0.441367 0)
(0.898721 0.442833 0)
(0.897635 0.443979 0)
(0.896784 0.444855 0)
(0.896135 0.44551 0)
(0.895649 0.44599 0)
(0.895294 0.446338 0)
(0.895039 0.446586 0)
(0.894858 0.446762 0)
(0.894731 0.446886 0)
(0.894643 0.446973 0)
(0.894581 0.447034 0)
(0.894536 0.447078 0)
(0.894504 0.447109 0)
(0.894481 0.447132 0)
(0.894463 0.447149 0)
(0.894449 0.447162 0)
(0.894438 0.447172 0)
(0.894429 0.447179 0)
(0.894422 0.447185 0)
(0.889277 0.442502 0)
(0.88759 0.440627 0)
(0.885607 0.438266 0)
(0.883403 0.435443 0)
(0.881138 0.432275 0)
(0.879027 0.428971 0)
(0.877289 0.425791 0)
(0.876086 0.422978 0)
(0.875501 0.420712 0)
(0.875535 0.419079 0)
(0.876128 0.418081 0)
(0.877184 0.417665 0)
(0.878594 0.417751 0)
(0.880261 0.418245 0)
(0.882102 0.419053 0)
(0.884045 0.420088 0)
(0.88603 0.421279 0)
(0.888013 0.422568 0)
(0.88996 0.423906 0)
(0.891841 0.425249 0)
(0.89363 0.426569 0)
(0.895299 0.427846 0)
(0.896829 0.429056 0)
(0.898207 0.430175 0)
(0.899423 0.431182 0)
(0.900461 0.432065 0)
(0.901314 0.432804 0)
(0.901988 0.433372 0)
(0.902505 0.433739 0)
(0.902892 0.433884 0)
(0.903172 0.433801 0)
(0.903374 0.433479 0)
(0.903542 0.43291 0)
(0.903729 0.432085 0)
(0.903988 0.43101 0)
(0.90436 0.429713 0)
(0.904869 0.428236 0)
(0.905532 0.426629 0)
(0.906363 0.424941 0)
(0.907372 0.423223 0)
(0.908552 0.421552 0)
(0.909856 0.42004 0)
(0.91118 0.418841 0)
(0.912369 0.418132 0)
(0.913245 0.418076 0)
(0.913645 0.418779 0)
(0.913464 0.420253 0)
(0.912682 0.422409 0)
(0.911365 0.425073 0)
(0.909644 0.428025 0)
(0.907683 0.431042 0)
(0.905647 0.433935 0)
(0.903671 0.436568 0)
(0.901858 0.438862 0)
(0.900265 0.44079 0)
(0.898918 0.442358 0)
(0.897816 0.443599 0)
(0.896939 0.444557 0)
(0.896261 0.445282 0)
(0.895748 0.44582 0)
(0.895369 0.446213 0)
(0.895093 0.446495 0)
(0.894896 0.446696 0)
(0.894758 0.446838 0)
(0.894661 0.446938 0)
(0.894593 0.447009 0)
(0.894545 0.447059 0)
(0.894511 0.447095 0)
(0.894486 0.447122 0)
(0.894467 0.447141 0)
(0.894452 0.447156 0)
(0.894441 0.447167 0)
(0.894432 0.447175 0)
(0.894425 0.447181 0)
(0.894419 0.447186 0)
(0.890398 0.443475 0)