/*--------------------------------*- C++ -*----------------------------------*\
  =========                 |
  \\      /  F ield         | OpenFOAM: The Open Source CFD Toolbox
   \\    /   O peration     | Website:  https://openfoam.org
    \\  /    A nd           | Version:  6
     \\/     M anipulation  |
\*---------------------------------------------------------------------------*/
FoamFile
{
    version     2.0;
    format      ascii;
    class       volScalarField;
    location    "3.94";
    object      rho;
}
// * * * * * * * * * * * * * * * * * * * * * * * * * * * * * * * * * * * * * //

dimensions      [1 -3 0 0 0 0 0];

internalField   nonuniform List<scalar> 
5625
(
1.45011
1.44311
1.43421
1.42415
1.41358
1.40305
1.39299
1.38379
1.37571
1.36895
1.3637
1.36002
1.35784
1.35697
1.35705
1.35756
1.35801
1.35806
1.35752
1.35622
1.35395
1.35091
1.34775
1.34479
1.34204
1.33996
1.33929
1.33998
1.3414
1.3432
1.34534
1.34761
1.34961
1.35115
1.35221
1.35274
1.35273
1.35252
1.3527
1.35383
1.35614
1.35958
1.36409
1.36978
1.37695
1.38588
1.39659
1.40866
1.42121
1.433
1.44272
1.44929
1.45217
1.45143
1.44773
1.44203
1.43535
1.42857
1.42231
1.41691
1.41249
1.40902
1.4064
1.40447
1.40309
1.40213
1.40146
1.401
1.40069
1.40048
1.40034
1.40024
1.40017
1.40012
1.40009
1.45217
1.44623
1.43816
1.42872
1.41854
1.40818
1.39812
1.38874
1.38032
1.37307
1.36718
1.36276
1.35979
1.35815
1.35758
1.35778
1.35843
1.35916
1.35963
1.35955
1.35885
1.35769
1.3563
1.35471
1.35307
1.35186
1.3514
1.35137
1.35144
1.35171
1.35227
1.3529
1.35332
1.3535
1.35353
1.35337
1.35307
1.35298
1.35362
1.3554
1.35839
1.36247
1.36758
1.37388
1.38164
1.39108
1.4021
1.41417
1.42631
1.43726
1.44578
1.45097
1.45248
1.45061
1.4461
1.43996
1.43317
1.42652
1.42052
1.41543
1.41133
1.40815
1.40576
1.40402
1.40278
1.40191
1.40131
1.40091
1.40063
1.40044
1.40031
1.40022
1.40016
1.40012
1.40009
1.45383
1.44908
1.44198
1.43327
1.42359
1.41353
1.40356
1.39408
1.38538
1.37772
1.37129
1.3662
1.36244
1.35995
1.35866
1.35837
1.35876
1.35943
1.36015
1.36073
1.36103
1.361
1.36064
1.35996
1.35915
1.35848
1.35794
1.35732
1.35663
1.35613
1.35583
1.3555
1.35503
1.35454
1.35412
1.35376
1.35357
1.3539
1.35519
1.35769
1.36135
1.36604
1.37172
1.37859
1.38689
1.39676
1.40798
1.41988
1.43141
1.44132
1.44849
1.4522
1.45234
1.44937
1.44415
1.43768
1.43087
1.42441
1.41871
1.41397
1.4102
1.4073
1.40515
1.40359
1.40248
1.40171
1.40118
1.40082
1.40057
1.4004
1.40029
1.40021
1.40015
1.40011
1.40008
1.45498
1.45156
1.44557
1.43771
1.42866
1.41901
1.40925
1.39977
1.3909
1.38291
1.37601
1.3703
1.3658
1.36255
1.36053
1.35954
1.35927
1.35951
1.36015
1.36094
1.36159
1.36199
1.36214
1.36201
1.36168
1.36124
1.3606
1.35972
1.35879
1.35802
1.3573
1.35649
1.35566
1.35499
1.35456
1.35436
1.35456
1.35551
1.35754
1.36076
1.36505
1.37029
1.37651
1.3839
1.39268
1.40287
1.41413
1.42567
1.43638
1.44505
1.45072
1.4529
1.45169
1.44771
1.44189
1.43521
1.42848
1.42227
1.41693
1.41255
1.40911
1.4065
1.40457
1.40318
1.4022
1.40152
1.40106
1.40074
1.40052
1.40037
1.40027
1.40019
1.40014
1.4001
1.40008
1.45553
1.45354
1.4488
1.44196
1.43367
1.42455
1.41511
1.40575
1.39682
1.38861
1.38132
1.37506
1.36992
1.36599
1.36322
1.36139
1.36037
1.36012
1.36042
1.36091
1.36139
1.36185
1.3622
1.36229
1.36214
1.36178
1.36113
1.36025
1.35937
1.35856
1.35771
1.35678
1.35598
1.35549
1.35533
1.35553
1.35629
1.35795
1.36073
1.36463
1.3695
1.37524
1.38193
1.38979
1.39896
1.40935
1.42046
1.43141
1.44106
1.44831
1.45237
1.45299
1.4505
1.44564
1.43937
1.43259
1.42603
1.42015
1.41518
1.41118
1.40807
1.40574
1.40403
1.4028
1.40194
1.40135
1.40094
1.40066
1.40047
1.40034
1.40024
1.40018
1.40013
1.4001
1.40007
1.45537
1.4549
1.45155
1.44587
1.4385
1.43005
1.42106
1.41195
1.40308
1.39475
1.38716
1.38046
1.37481
1.37025
1.36671
1.3641
1.36242
1.36156
1.36121
1.36113
1.36131
1.36165
1.3619
1.36193
1.36178
1.36145
1.36086
1.36013
1.3594
1.35867
1.35787
1.35711
1.3566
1.35648
1.35676
1.35749
1.35892
1.36132
1.3648
1.3693
1.37467
1.38085
1.38796
1.39621
1.40566
1.41608
1.42683
1.43694
1.44531
1.45096
1.45333
1.45243
1.44877
1.44318
1.4366
1.42986
1.42356
1.41805
1.41349
1.40987
1.40709
1.40502
1.40352
1.40245
1.4017
1.40119
1.40083
1.40059
1.40042
1.4003
1.40022
1.40016
1.40012
1.40009
1.40007
1.45442
1.45553
1.45368
1.44931
1.44301
1.4354
1.427
1.41826
1.40957
1.40124
1.39348
1.38648
1.3804
1.37527
1.37106
1.36779
1.36545
1.36386
1.36279
1.36218
1.36199
1.36197
1.36189
1.36174
1.36156
1.36123
1.36071
1.36014
1.35959
1.35901
1.35842
1.358
1.35794
1.3583
1.35909
1.36042
1.36253
1.36563
1.36975
1.37475
1.38052
1.38708
1.39455
1.40311
1.41269
1.42293
1.43306
1.44208
1.44893
1.45286
1.45353
1.4512
1.44652
1.44037
1.43365
1.42707
1.42111
1.41602
1.41188
1.40864
1.40618
1.40437
1.40306
1.40213
1.40149
1.40104
1.40073
1.40052
1.40038
1.40027
1.4002
1.40015
1.40011
1.40008
1.40006
1.45263
1.45531
1.45504
1.45213
1.44708
1.44046
1.43279
1.42458
1.41622
1.40801
1.40021
1.39304
1.38663
1.38102
1.37627
1.37244
1.36945
1.36715
1.36546
1.36434
1.36364
1.36312
1.36269
1.36238
1.36209
1.36171
1.36125
1.36084
1.36046
1.36009
1.35981
1.35982
1.36026
1.36112
1.36244
1.36439
1.36716
1.37088
1.37551
1.38091
1.38701
1.39387
1.40163
1.41037
1.41991
1.42972
1.43896
1.44661
1.45177
1.45389
1.45292
1.44929
1.44379
1.43728
1.43058
1.42427
1.41871
1.41408
1.41036
1.4075
1.40534
1.40377
1.40264
1.40184
1.40129
1.40091
1.40064
1.40046
1.40034
1.40025
1.40018
1.40014
1.4001
1.40008
1.40006
1.45
1.45415
1.45552
1.45418
1.45052
1.44505
1.43831
1.43078
1.42288
1.41494
1.40724
1.40002
1.39339
1.38744
1.3823
1.37798
1.37441
1.3715
1.36927
1.36762
1.36638
1.36539
1.36466
1.36415
1.36369
1.36322
1.36283
1.36255
1.36235
1.36222
1.3623
1.36277
1.36368
1.36503
1.36687
1.36939
1.37275
1.377
1.38202
1.38772
1.39406
1.40116
1.4091
1.41787
1.42713
1.43624
1.44429
1.45034
1.45366
1.45397
1.45147
1.44675
1.44065
1.43398
1.42745
1.42151
1.41642
1.41224
1.40896
1.40644
1.40458
1.40322
1.40226
1.40158
1.40111
1.40079
1.40056
1.40041
1.4003
1.40022
1.40017
1.40012
1.40009
1.40007
1.40005
1.44658
1.45203
1.455
1.45531
1.45317
1.44902
1.44337
1.4367
1.42942
1.4219
1.41445
1.4073
1.40059
1.39446
1.38903
1.38431
1.38026
1.37688
1.37418
1.37203
1.37029
1.36893
1.36792
1.36715
1.3665
1.36597
1.36563
1.36546
1.36542
1.36556
1.36603
1.36692
1.36825
1.37003
1.37236
1.37539
1.37924
1.38387
1.38918
1.39508
1.4016
1.40883
1.41683
1.42542
1.43414
1.44224
1.44881
1.45305
1.45448
1.45306
1.44921
1.44365
1.43719
1.43056
1.42433
1.41884
1.41424
1.41054
1.40766
1.40549
1.40389
1.40274
1.40192
1.40135
1.40095
1.40068
1.40049
1.40036
1.40026
1.4002
1.40015
1.40011
1.40008
1.40006
1.40005
1.44247
1.44896
1.4534
1.45536
1.45486
1.45218
1.44779
1.44215
1.43566
1.42874
1.42169
1.41474
1.4081
1.40193
1.39633
1.39132
1.38693
1.3832
1.3801
1.37751
1.37537
1.3737
1.37241
1.37139
1.37058
1.37002
1.36973
1.36964
1.36975
1.37016
1.37097
1.37223
1.37391
1.37607
1.37882
1.38229
1.3865
1.3914
1.39687
1.40288
1.40949
1.41676
1.42463
1.4328
1.44066
1.44743
1.45228
1.45459
1.45416
1.45118
1.44624
1.4401
1.43352
1.42711
1.4213
1.41631
1.41222
1.40898
1.4065
1.40464
1.40328
1.40231
1.40162
1.40115
1.40081
1.40059
1.40043
1.40031
1.40023
1.40018
1.40013
1.4001
1.40008
1.40006
1.40004
1.43787
1.44503
1.4507
1.45424
1.45542
1.45435
1.45137
1.44692
1.44142
1.43526
1.42876
1.42218
1.41577
1.4097
1.40405
1.39889
1.3943
1.39032
1.3869
1.38397
1.38155
1.37961
1.37807
1.37683
1.37591
1.37534
1.37506
1.37504
1.3753
1.37596
1.37706
1.3786
1.38057
1.38305
1.38615
1.38994
1.39439
1.39942
1.40496
1.411
1.4176
1.42475
1.43227
1.4397
1.44639
1.45153
1.45448
1.45484
1.45267
1.44839
1.44267
1.43623
1.42975
1.42371
1.4184
1.41396
1.41037
1.40757
1.40545
1.40388
1.40274
1.40193
1.40136
1.40097
1.40069
1.4005
1.40037
1.40027
1.40021
1.40016
1.40012
1.40009
1.40007
1.40005
1.40004
1.433
1.44041
1.44699
1.45191
1.45472
1.45532
1.45391
1.45082
1.44647
1.44124
1.43547
1.42945
1.42342
1.41757
1.412
1.40686
1.4022
1.39806
1.39442
1.39129
1.38867
1.38652
1.38476
1.38338
1.3824
1.3818
1.38153
1.38156
1.38197
1.38283
1.38414
1.38589
1.38809
1.39083
1.39418
1.39818
1.40274
1.4078
1.41331
1.41929
1.42574
1.43256
1.43944
1.44581
1.45098
1.45428
1.45524
1.45376
1.45011
1.44484
1.43865
1.43219
1.42601
1.42045
1.4157
1.4118
1.4087
1.40632
1.40453
1.40322
1.40228
1.40161
1.40114
1.40081
1.40059
1.40043
1.40032
1.40024
1.40018
1.40014
1.40011
1.40008
1.40006
1.40005
1.40004
1.42815
1.43538
1.44242
1.44841
1.45269
1.45495
1.45518
1.45362
1.45059
1.44647
1.4416
1.4363
1.43081
1.42533
1.42002
1.41503
1.41042
1.40623
1.4025
1.39927
1.39653
1.39422
1.39233
1.39087
1.38984
1.38921
1.38893
1.38904
1.38959
1.39059
1.39204
1.39393
1.3963
1.39922
1.40274
1.40681
1.41137
1.41636
1.42174
1.42753
1.43365
1.43988
1.44577
1.45074
1.45414
1.45547
1.45452
1.45141
1.4466
1.4407
1.43436
1.42813
1.42239
1.41739
1.41322
1.40985
1.40722
1.40522
1.40373
1.40265
1.40187
1.40133
1.40095
1.40068
1.4005
1.40037
1.40027
1.40021
1.40016
1.40012
1.40009
1.40007
1.40005
1.40004
1.40003
1.42354
1.43025
1.43728
1.44389
1.44935
1.45313
1.45502
1.45508
1.45353
1.4507
1.44691
1.4425
1.43771
1.43276
1.42787
1.42316
1.41872
1.41462
1.41092
1.40768
1.40488
1.4025
1.40056
1.39907
1.39802
1.39737
1.39711
1.39728
1.39792
1.39902
1.40055
1.40253
1.40501
1.40804
1.4116
1.41564
1.42008
1.42488
1.43002
1.43544
1.44098
1.44629
1.45088
1.45416
1.45563
1.45501
1.45234
1.44795
1.44237
1.4362
1.42999
1.42417
1.41899
1.41459
1.41099
1.40813
1.40592
1.40427
1.40304
1.40216
1.40153
1.40109
1.40078
1.40057
1.40042
1.40031
1.40023
1.40018
1.40014
1.40011
1.40008
1.40006
1.40005
1.40004
1.40003
1.41935
1.42532
1.43194
1.43867
1.44486
1.44988
1.4533
1.45499
1.45503
1.45365
1.45113
1.44777
1.44386
1.43963
1.43529
1.43099
1.42685
1.42298
1.41945
1.41629
1.41351
1.41115
1.40923
1.40775
1.40669
1.40603
1.40581
1.40604
1.40674
1.40788
1.40945
1.41148
1.41401
1.41703
1.42053
1.42441
1.42862
1.43312
1.43785
1.44267
1.44732
1.45138
1.45435
1.45576
1.4553
1.45294
1.4489
1.44363
1.43767
1.43156
1.42571
1.42042
1.41586
1.41207
1.40902
1.40663
1.40481
1.40345
1.40246
1.40175
1.40124
1.40089
1.40064
1.40047
1.40035
1.40026
1.4002
1.40016
1.40012
1.40009
1.40007
1.40006
1.40004
1.40003
1.40003
1.41565
1.42078
1.42673
1.43316
1.43957
1.44537
1.45004
1.45324
1.45488
1.45504
1.45395
1.45183
1.44897
1.44562
1.442
1.43827
1.43459
1.43106
1.42779
1.42481
1.42216
1.41991
1.41806
1.41662
1.41559
1.41497
1.4148
1.41507
1.41578
1.41692
1.41849
1.42052
1.42301
1.42594
1.42924
1.43285
1.43671
1.44074
1.44483
1.44876
1.4522
1.45471
1.45589
1.45542
1.45321
1.44944
1.44445
1.43873
1.43277
1.42697
1.42165
1.41699
1.41306
1.40985
1.40731
1.40534
1.40386
1.40276
1.40197
1.4014
1.401
1.40072
1.40053
1.40039
1.40029
1.40022
1.40017
1.40013
1.4001
1.40008
1.40006
1.40005
1.40004
1.40003
1.40002
1.41249
1.41677
1.42191
1.42773
1.43391
1.43999
1.44544
1.44985
1.45294
1.45465
1.45506
1.45434
1.45271
1.45042
1.44768
1.44469
1.44161
1.43856
1.43565
1.43297
1.43056
1.42848
1.42676
1.42542
1.42445
1.4239
1.42377
1.42407
1.42478
1.42589
1.42741
1.42936
1.43172
1.43443
1.43742
1.44062
1.44395
1.44729
1.45048
1.45323
1.45518
1.45598
1.45535
1.45318
1.44958
1.44484
1.43936
1.43359
1.42791
1.42262
1.41793
1.41392
1.4106
1.40793
1.40585
1.40425
1.40306
1.40219
1.40156
1.40111
1.4008
1.40058
1.40043
1.40032
1.40024
1.40019
1.40015
1.40011
1.40009
1.40007
1.40005
1.40004
1.40003
1.40003
1.40002
1.40985
1.41335
1.41764
1.42269
1.42831
1.43419
1.43992
1.44508
1.44931
1.45239
1.45425
1.45498
1.45471
1.45364
1.45195
1.44986
1.44754
1.44511
1.44271
1.44043
1.43836
1.43654
1.43502
1.43381
1.43297
1.4325
1.43242
1.43271
1.43339
1.43443
1.43585
1.43764
1.43975
1.44211
1.44464
1.44726
1.44986
1.45228
1.45429
1.45561
1.45594
1.45505
1.45282
1.44932
1.44478
1.43954
1.43399
1.42847
1.42329
1.41863
1.4146
1.41122
1.40848
1.4063
1.40462
1.40335
1.40241
1.40172
1.40123
1.40088
1.40064
1.40047
1.40035
1.40026
1.4002
1.40016
1.40012
1.4001
1.40008
1.40006
1.40005
1.40004
1.40003
1.40002
1.40002
1.40766
1.41048
1.41399
1.41821
1.42309
1.42845
1.43401
1.43941
1.4443
1.44839
1.45151
1.45359
1.45469
1.45491
1.45441
1.45337
1.45195
1.4503
1.44855
1.4468
1.44516
1.44369
1.44243
1.44144
1.44075
1.44038
1.44033
1.44061
1.44121
1.44215
1.44339
1.4449
1.44663
1.4485
1.45041
1.45226
1.45392
1.45519
1.45585
1.45567
1.45444
1.45207
1.44862
1.44425
1.43925
1.43395
1.42866
1.42364
1.41908
1.41509
1.4117
1.40892
1.40669
1.40494
1.40361
1.4026
1.40187
1.40134
1.40096
1.40069
1.4005
1.40037
1.40028
1.40022
1.40017
1.40013
1.4001
1.40008
1.40007
1.40005
1.40004
1.40003
1.40003
1.40002
1.40002
1.40589
1.40812
1.41094
1.41439
1.41847
1.42312
1.42817
1.43337
1.43843
1.44308
1.44706
1.45024
1.45255
1.45402
1.45473
1.45482
1.45442
1.45366
1.45268
1.45159
1.45048
1.44944
1.44853
1.44781
1.4473
1.44704
1.44703
1.44728
1.44778
1.44853
1.44949
1.45062
1.45184
1.45306
1.4542
1.45512
1.45567
1.45569
1.45499
1.45341
1.45089
1.44745
1.44324
1.43849
1.43346
1.42843
1.42363
1.41923
1.41534
1.41201
1.40924
1.40699
1.4052
1.40382
1.40278
1.402
1.40143
1.40103
1.40074
1.40054
1.4004
1.4003
1.40023
1.40018
1.40014
1.40011
1.40009
1.40007
1.40006
1.40004
1.40004
1.40003
1.40002
1.40002
1.40001
1.40448
1.40622
1.40844
1.4112
1.41453
1.41842
1.42278
1.42748
1.43231
1.43703
1.44142
1.44528
1.4485
1.451
1.45281
1.45399
1.45462
1.4548
1.45466
1.45431
1.45383
1.4533
1.4528
1.45239
1.45209
1.45195
1.45197
1.45216
1.45251
1.45301
1.45361
1.45424
1.45484
1.45532
1.45557
1.45549
1.45492
1.45375
1.45185
1.44919
1.44578
1.44174
1.43724
1.43252
1.4278
1.42327
1.41908
1.41535
1.41213
1.40941
1.40718
1.40539
1.40399
1.40292
1.40211
1.40152
1.40109
1.40078
1.40057
1.40042
1.40031
1.40024
1.40018
1.40014
1.40011
1.40009
1.40007
1.40006
1.40005
1.40004
1.40003
1.40002
1.40002
1.40002
1.40001
1.40336
1.40471
1.40644
1.40861
1.41126
1.41442
1.41805
1.42208
1.42641
1.43084
1.43521
1.43932
1.44302
1.44622
1.44886
1.45093
1.45248
1.45355
1.45424
1.45462
1.45479
1.45481
1.45476
1.45468
1.45462
1.45461
1.45465
1.45475
1.45491
1.4551
1.45527
1.45536
1.45529
1.455
1.45438
1.45335
1.4518
1.44967
1.44692
1.44357
1.43973
1.43553
1.43115
1.42677
1.42256
1.41864
1.41512
1.41204
1.40943
1.40725
1.40549
1.4041
1.40302
1.4022
1.40159
1.40114
1.40082
1.40059
1.40043
1.40032
1.40024
1.40019
1.40015
1.40012
1.40009
1.40008
1.40006
1.40005
1.40004
1.40003
1.40003
1.40002
1.40002
1.40001
1.40001
1.4025
1.40353
1.40486
1.40654
1.40862
1.41112
1.41405
1.41739
1.42107
1.42499
1.42901
1.43299
1.43679
1.44029
1.44339
1.44606
1.44827
1.45006
1.45145
1.45249
1.45325
1.45379
1.45416
1.45441
1.45457
1.45467
1.45473
1.45475
1.4547
1.45456
1.45429
1.45385
1.45316
1.45218
1.45083
1.44905
1.44679
1.44405
1.44085
1.43726
1.43339
1.42938
1.42537
1.42151
1.41791
1.41464
1.41176
1.40928
1.40721
1.4055
1.40414
1.40307
1.40225
1.40163
1.40117
1.40084
1.40061
1.40044
1.40032
1.40024
1.40019
1.40015
1.40012
1.40009
1.40008
1.40006
1.40005
1.40004
1.40003
1.40003
1.40002
1.40002
1.40001
1.40001
1.40001
1.40184
1.40262
1.40363
1.40491
1.40651
1.40846
1.41078
1.41346
1.41648
1.41978
1.42328
1.42687
1.43044
1.43388
1.4371
1.44002
1.4426
1.44483
1.44669
1.44823
1.44945
1.4504
1.45112
1.45165
1.452
1.4522
1.45225
1.45217
1.45193
1.45151
1.45088
1.45
1.44883
1.44734
1.44549
1.44324
1.44062
1.43763
1.43435
1.43085
1.42725
1.42365
1.42018
1.41692
1.41394
1.41128
1.40898
1.40703
1.40541
1.4041
1.40307
1.40226
1.40165
1.40119
1.40085
1.40061
1.40044
1.40033
1.40024
1.40019
1.40014
1.40012
1.40009
1.40008
1.40006
1.40005
1.40004
1.40004
1.40003
1.40002
1.40002
1.40002
1.40001
1.40001
1.40001
1.40134
1.40192
1.40268
1.40365
1.40487
1.40636
1.40816
1.41026
1.41267
1.41535
1.41826
1.42133
1.42448
1.42761
1.43066
1.43354
1.43619
1.43857
1.44066
1.44245
1.44396
1.44518
1.44613
1.44684
1.44732
1.44759
1.44764
1.44748
1.44709
1.44647
1.44558
1.44442
1.44296
1.44119
1.4391
1.4367
1.43401
1.43109
1.428
1.42483
1.42167
1.4186
1.4157
1.41303
1.41064
1.40854
1.40674
1.40523
1.404
1.40301
1.40223
1.40163
1.40118
1.40085
1.40061
1.40044
1.40032
1.40024
1.40018
1.40014
1.40011
1.40009
1.40007
1.40006
1.40005
1.40004
1.40004
1.40003
1.40002
1.40002
1.40002
1.40001
1.40001
1.40001
1.40001
1.40097
1.4014
1.40197
1.40269
1.4036
1.40473
1.4061
1.40772
1.4096
1.41172
1.41405
1.41657
1.41921
1.42191
1.4246
1.42722
1.42971
1.43202
1.43411
1.43595
1.43753
1.43886
1.43991
1.44071
1.44126
1.44155
1.4416
1.44139
1.44092
1.44018
1.43918
1.4379
1.43635
1.43451
1.43242
1.43009
1.42758
1.42493
1.42221
1.41948
1.41683
1.41431
1.41197
1.40985
1.40797
1.40634
1.40497
1.40383
1.4029
1.40216
1.40159
1.40116
1.40083
1.4006
1.40043
1.40031
1.40023
1.40017
1.40013
1.4001
1.40008
1.40007
1.40006
1.40005
1.40004
1.40004
1.40003
1.40002
1.40002
1.40002
1.40001
1.40001
1.40001
1.40001
1.40001
1.4007
1.40102
1.40143
1.40197
1.40265
1.40349
1.40452
1.40574
1.40717
1.40882
1.41064
1.41264
1.41477
1.417
1.41926
1.42151
1.42369
1.42576
1.42768
1.42941
1.43092
1.43221
1.43326
1.43406
1.4346
1.43489
1.43492
1.43469
1.43421
1.43346
1.43245
1.43119
1.42969
1.42797
1.42604
1.42395
1.42174
1.41947
1.41718
1.41494
1.41279
1.41078
1.40894
1.4073
1.40586
1.40462
1.40359
1.40274
1.40206
1.40152
1.40111
1.4008
1.40057
1.40041
1.40029
1.40021
1.40016
1.40012
1.4001
1.40008
1.40006
1.40005
1.40005
1.40004
1.40003
1.40003
1.40002
1.40002
1.40002
1.40001
1.40001
1.40001
1.40001
1.40001
1.40001
1.40051
1.40074
1.40104
1.40143
1.40193
1.40255
1.40332
1.40423
1.4053
1.40654
1.40795
1.40949
1.41117
1.41293
1.41476
1.4166
1.41842
1.42018
1.42184
1.42335
1.4247
1.42586
1.42681
1.42754
1.42805
1.42831
1.42833
1.4281
1.42764
1.42694
1.42602
1.42487
1.42353
1.42201
1.42034
1.41857
1.41673
1.41486
1.41301
1.41122
1.40953
1.40797
1.40655
1.4053
1.40422
1.4033
1.40254
1.40192
1.40143
1.40105
1.40076
1.40054
1.40038
1.40027
1.4002
1.40014
1.40011
1.40008
1.40007
1.40006
1.40005
1.40004
1.40004
1.40003
1.40003
1.40002
1.40002
1.40002
1.40001
1.40001
1.40001
1.40001
1.40001
1.40001
1.40001
1.40037
1.40053
1.40075
1.40104
1.4014
1.40185
1.40241
1.40309
1.40389
1.40481
1.40586
1.40704
1.40832
1.40968
1.41111
1.41257
1.41403
1.41546
1.41681
1.41807
1.41921
1.4202
1.42101
1.42163
1.42206
1.42229
1.4223
1.4221
1.42169
1.42108
1.42027
1.41929
1.41815
1.41688
1.41551
1.41406
1.41257
1.41109
1.40964
1.40825
1.40695
1.40577
1.40471
1.40377
1.40298
1.40231
1.40175
1.40131
1.40096
1.4007
1.4005
1.40035
1.40025
1.40017
1.40013
1.40009
1.40007
1.40006
1.40005
1.40004
1.40004
1.40003
1.40003
1.40003
1.40002
1.40002
1.40002
1.40001
1.40001
1.40001
1.40001
1.40001
1.40001
1.40001
1.40001
1.40027
1.40039
1.40054
1.40075
1.40101
1.40134
1.40175
1.40224
1.40282
1.4035
1.40428
1.40515
1.40611
1.40715
1.40823
1.40936
1.41049
1.41161
1.41269
1.41369
1.4146
1.4154
1.41606
1.41658
1.41692
1.4171
1.4171
1.41693
1.41659
1.41608
1.41541
1.4146
1.41368
1.41265
1.41155
1.41041
1.40925
1.40811
1.407
1.40594
1.40497
1.40409
1.40331
1.40263
1.40205
1.40157
1.40118
1.40087
1.40063
1.40045
1.40031
1.40022
1.40015
1.40011
1.40008
1.40006
1.40005
1.40004
1.40003
1.40003
1.40003
1.40003
1.40002
1.40002
1.40002
1.40002
1.40001
1.40001
1.40001
1.40001
1.40001
1.40001
1.40001
1.40001
1.40001
1.4002
1.40029
1.4004
1.40054
1.40074
1.40097
1.40126
1.40162
1.40204
1.40253
1.4031
1.40374
1.40444
1.40521
1.40602
1.40687
1.40772
1.40858
1.4094
1.41018
1.41089
1.41151
1.41202
1.41242
1.4127
1.41283
1.41283
1.41268
1.4124
1.41199
1.41146
1.41081
1.41008
1.40928
1.40843
1.40755
1.40667
1.4058
1.40497
1.40419
1.40347
1.40283
1.40226
1.40178
1.40137
1.40103
1.40076
1.40055
1.40039
1.40027
1.40019
1.40013
1.40009
1.40006
1.40004
1.40003
1.40003
1.40003
1.40002
1.40002
1.40002
1.40002
1.40002
1.40002
1.40002
1.40001
1.40001
1.40001
1.40001
1.40001
1.40001
1.40001
1.40001
1.40001
1.40001
1.40015
1.40021
1.4003
1.4004
1.40053
1.4007
1.40092
1.40117
1.40147
1.40182
1.40223
1.40269
1.4032
1.40376
1.40435
1.40498
1.40561
1.40624
1.40686
1.40744
1.40797
1.40844
1.40883
1.40913
1.40934
1.40943
1.40943
1.4093
1.40908
1.40875
1.40834
1.40784
1.40728
1.40667
1.40603
1.40537
1.40471
1.40407
1.40345
1.40289
1.40237
1.40191
1.40151
1.40116
1.40088
1.40065
1.40047
1.40033
1.40023
1.40015
1.4001
1.40006
1.40004
1.40003
1.40002
1.40002
1.40002
1.40002
1.40002
1.40002
1.40002
1.40002
1.40001
1.40001
1.40001
1.40001
1.40001
1.40001
1.40001
1.40001
1.40001
1.40001
1.40001
1.40001
1.40001
1.40011
1.40016
1.40022
1.4003
1.4004
1.40051
1.40066
1.40084
1.40106
1.40131
1.4016
1.40193
1.40229
1.40269
1.40312
1.40356
1.40403
1.40449
1.40493
1.40536
1.40575
1.40609
1.40638
1.4066
1.40674
1.40681
1.40679
1.4067
1.40652
1.40627
1.40595
1.40557
1.40515
1.40469
1.40422
1.40373
1.40325
1.40278
1.40234
1.40193
1.40157
1.40125
1.40097
1.40073
1.40054
1.40039
1.40027
1.40018
1.40012
1.40007
1.40004
1.40002
1.40001
1.40001
1.40001
1.40001
1.40001
1.40001
1.40001
1.40001
1.40001
1.40001
1.40001
1.40001
1.40001
1.40001
1.40001
1.40001
1.40001
1.40001
1.40001
1.40001
1.40001
1.40001
1.40001
1.40009
1.40012
1.40017
1.40023
1.40029
1.40038
1.40049
1.40061
1.40076
1.40094
1.40115
1.40138
1.40163
1.40192
1.40222
1.40254
1.40286
1.40319
1.40351
1.40381
1.40409
1.40433
1.40454
1.40469
1.40479
1.40483
1.40481
1.40473
1.4046
1.4044
1.40417
1.40388
1.40357
1.40323
1.40288
1.40253
1.40218
1.40185
1.40154
1.40125
1.401
1.40078
1.40059
1.40044
1.40031
1.40021
1.40013
1.40008
1.40004
1.40002
1.4
1.4
1.39999
1.39999
1.4
1.4
1.4
1.40001
1.40001
1.40001
1.40001
1.40001
1.40001
1.40001
1.40001
1.40001
1.40001
1.40001
1.40001
1.40001
1.40001
1.40001
1.40001
1.40001
1.40001
1.40007
1.4001
1.40013
1.40017
1.40023
1.40029
1.40036
1.40045
1.40056
1.40068
1.40082
1.40099
1.40116
1.40136
1.40157
1.4018
1.40202
1.40224
1.40247
1.40268
1.40288
1.40305
1.40318
1.40328
1.40335
1.40337
1.40335
1.40328
1.40318
1.40303
1.40286
1.40265
1.40242
1.40217
1.40192
1.40167
1.40143
1.40119
1.40098
1.40078
1.40061
1.40046
1.40033
1.40023
1.40015
1.40009
1.40005
1.40002
1.4
1.39999
1.39998
1.39998
1.39999
1.39999
1.39999
1.4
1.4
1.4
1.40001
1.40001
1.40001
1.40001
1.40001
1.40001
1.40001
1.40001
1.40001
1.40001
1.40001
1.40001
1.40001
1.40001
1.40001
1.40001
1.40001
1.40006
1.40008
1.40011
1.40014
1.40017
1.40022
1.40027
1.40033
1.40041
1.4005
1.40059
1.40071
1.40084
1.40097
1.4011
1.40126
1.40142
1.40158
1.40173
1.40187
1.402
1.40211
1.4022
1.40227
1.40231
1.40232
1.40229
1.40224
1.40216
1.40205
1.40191
1.40176
1.4016
1.40143
1.40125
1.40107
1.4009
1.40074
1.40059
1.40046
1.40034
1.40025
1.40017
1.4001
1.40006
1.40002
1.4
1.39998
1.39997
1.39997
1.39997
1.39998
1.39998
1.39999
1.39999
1.4
1.4
1.4
1.4
1.40001
1.40001
1.40001
1.40001
1.40001
1.40001
1.40001
1.40001
1.40001
1.40001
1.40001
1.40001
1.40001
1.40001
1.40001
1.40001
1.40005
1.40006
1.40008
1.40011
1.40014
1.40017
1.40021
1.40025
1.40031
1.40037
1.40044
1.40051
1.40059
1.40069
1.40079
1.40089
1.40099
1.40109
1.4012
1.40129
1.40138
1.40145
1.40151
1.40155
1.40157
1.40157
1.40154
1.4015
1.40144
1.40136
1.40126
1.40115
1.40103
1.4009
1.40078
1.40066
1.40054
1.40043
1.40033
1.40024
1.40017
1.40011
1.40006
1.40002
1.4
1.39998
1.39997
1.39996
1.39996
1.39996
1.39997
1.39997
1.39998
1.39998
1.39999
1.39999
1.4
1.4
1.4
1.4
1.40001
1.40001
1.40001
1.40001
1.40001
1.40001
1.40001
1.40001
1.40001
1.40001
1.40001
1.40001
1.40001
1.40001
1.40001
1.40004
1.40006
1.40007
1.40009
1.40011
1.40013
1.40016
1.4002
1.40023
1.40027
1.40032
1.40038
1.40043
1.40049
1.40056
1.40063
1.4007
1.40076
1.40083
1.40089
1.40094
1.40099
1.40102
1.40104
1.40105
1.40104
1.40102
1.40099
1.40093
1.40087
1.4008
1.40072
1.40064
1.40055
1.40047
1.40038
1.4003
1.40023
1.40017
1.40011
1.40006
1.40002
1.4
1.39998
1.39996
1.39996
1.39995
1.39995
1.39996
1.39996
1.39997
1.39997
1.39998
1.39999
1.39999
1.39999
1.4
1.4
1.4
1.4
1.4
1.40001
1.40001
1.40001
1.40001
1.40001
1.40001
1.40001
1.40001
1.40001
1.40001
1.40001
1.40001
1.40001
1.40001
1.40003
1.40004
1.40006
1.40007
1.40009
1.40011
1.40012
1.40015
1.40018
1.40021
1.40024
1.40028
1.40032
1.40036
1.4004
1.40044
1.40049
1.40053
1.40058
1.40061
1.40064
1.40067
1.40069
1.4007
1.4007
1.40069
1.40066
1.40063
1.4006
1.40055
1.4005
1.40044
1.40038
1.40032
1.40026
1.4002
1.40015
1.4001
1.40006
1.40003
1.4
1.39998
1.39996
1.39995
1.39995
1.39995
1.39995
1.39995
1.39996
1.39996
1.39997
1.39998
1.39998
1.39999
1.39999
1.4
1.4
1.4
1.4
1.4
1.4
1.40001
1.40001
1.40001
1.40001
1.40001
1.40001
1.40001
1.40001
1.40001
1.40001
1.40001
1.40001
1.40001
1.40001
1.40003
1.40004
1.40005
1.40006
1.40007
1.40008
1.4001
1.40012
1.40014
1.40016
1.40019
1.40021
1.40023
1.40026
1.4003
1.40032
1.40035
1.40037
1.4004
1.40042
1.40044
1.40045
1.40046
1.40046
1.40046
1.40045
1.40043
1.4004
1.40037
1.40034
1.4003
1.40026
1.40021
1.40017
1.40013
1.40009
1.40006
1.40003
1.4
1.39998
1.39996
1.39995
1.39995
1.39994
1.39994
1.39995
1.39995
1.39996
1.39996
1.39997
1.39997
1.39998
1.39998
1.39999
1.39999
1.4
1.4
1.4
1.4
1.4
1.4
1.40001
1.40001
1.40001
1.40001
1.40001
1.40001
1.40001
1.40001
1.40001
1.40001
1.40001
1.40001
1.4
1.4
1.40003
1.40003
1.40003
1.40005
1.40006
1.40006
1.40008
1.4001
1.40011
1.40012
1.40014
1.40016
1.40018
1.40019
1.40021
1.40024
1.40025
1.40027
1.40028
1.40029
1.4003
1.40031
1.40031
1.40031
1.4003
1.40028
1.40027
1.40025
1.40022
1.4002
1.40017
1.40014
1.40011
1.40008
1.40005
1.40003
1.4
1.39999
1.39997
1.39996
1.39995
1.39994
1.39994
1.39994
1.39995
1.39995
1.39995
1.39996
1.39997
1.39997
1.39998
1.39998
1.39999
1.39999
1.4
1.4
1.4
1.4
1.4
1.4
1.4
1.4
1.4
1.40001
1.40001
1.40001
1.40001
1.40001
1.40001
1.4
1.40001
1.40001
1.40001
1.40001
1.40001
1.40002
1.40003
1.40003
1.40003
1.40005
1.40006
1.40006
1.40007
1.40008
1.4001
1.40011
1.40012
1.40014
1.40015
1.40016
1.40017
1.40018
1.40019
1.4002
1.40021
1.40021
1.40021
1.40021
1.4002
1.4002
1.40018
1.40017
1.40015
1.40013
1.40011
1.40009
1.40007
1.40005
1.40003
1.40001
1.39999
1.39998
1.39996
1.39995
1.39995
1.39995
1.39994
1.39994
1.39995
1.39995
1.39996
1.39996
1.39997
1.39997
1.39998
1.39998
1.39999
1.39999
1.39999
1.4
1.4
1.4
1.4
1.4
1.4
1.4
1.4
1.4
1.4
1.4
1.4
1.40001
1.40001
1.40001
1.40001
1.40001
1.40001
1.4
1.40001
1.4
1.40001
1.40002
1.40003
1.40004
1.40004
1.40004
1.40005
1.40006
1.40007
1.40008
1.40009
1.4001
1.40011
1.40011
1.40012
1.40013
1.40014
1.40014
1.40015
1.40015
1.40015
1.40014
1.40014
1.40013
1.40012
1.40012
1.4001
1.40009
1.40007
1.40006
1.40004
1.40002
1.40001
1.4
1.39998
1.39997
1.39996
1.39996
1.39995
1.39995
1.39995
1.39995
1.39995
1.39995
1.39996
1.39996
1.39997
1.39997
1.39998
1.39998
1.39999
1.39999
1.39999
1.4
1.4
1.4
1.4
1.4
1.4
1.4
1.4
1.4
1.40001
1.40001
1.40001
1.40001
1.4
1.4
1.4
1.4
1.40001
1.40001
1.40001
1.40001
1.40001
1.40002
1.40002
1.40002
1.40003
1.40003
1.40004
1.40004
1.40005
1.40006
1.40006
1.40007
1.40007
1.40008
1.40009
1.40009
1.4001
1.4001
1.40011
1.40011
1.40011
1.4001
1.4001
1.4001
1.40009
1.40008
1.40007
1.40006
1.40005
1.40004
1.40003
1.40002
1.4
1.39999
1.39998
1.39997
1.39997
1.39996
1.39996
1.39995
1.39995
1.39995
1.39995
1.39996
1.39996
1.39997
1.39997
1.39997
1.39998
1.39998
1.39999
1.39999
1.39999
1.4
1.4
1.4
1.4
1.4
1.4
1.4
1.4
1.4
1.4
1.4
1.40001
1.40001
1.40001
1.40001
1.40001
1.40001
1.40001
1.40001
1.4
1.4
1.40001
1.4
1.40001
1.40002
1.40002
1.40002
1.40002
1.40003
1.40004
1.40004
1.40004
1.40005
1.40006
1.40006
1.40007
1.40007
1.40007
1.40008
1.40008
1.40008
1.40008
1.40008
1.40008
1.40007
1.40007
1.40006
1.40006
1.40005
1.40004
1.40003
1.40002
1.40001
1.4
1.39999
1.39998
1.39998
1.39997
1.39997
1.39996
1.39996
1.39996
1.39996
1.39996
1.39996
1.39997
1.39997
1.39997
1.39998
1.39998
1.39998
1.39999
1.39999
1.39999
1.4
1.4
1.4
1.4
1.4
1.4
1.4
1.4
1.4
1.4
1.4
1.4
1.4
1.4
1.4
1.4
1.40001
1.40001
1.40001
1.40001
1.40001
1.40001
1.40001
1.40001
1.40001
1.40001
1.40001
1.40002
1.40002
1.40002
1.40003
1.40003
1.40004
1.40004
1.40004
1.40005
1.40005
1.40005
1.40006
1.40006
1.40006
1.40006
1.40006
1.40006
1.40006
1.40005
1.40005
1.40004
1.40004
1.40003
1.40002
1.40002
1.40001
1.4
1.39999
1.39999
1.39998
1.39998
1.39997
1.39997
1.39997
1.39997
1.39997
1.39997
1.39997
1.39997
1.39997
1.39998
1.39998
1.39998
1.39999
1.39999
1.39999
1.39999
1.39999
1.4
1.4
1.4
1.4
1.4
1.4
1.4
1.4
1.4
1.4
1.4
1.40001
1.40001
1.40001
1.40001
1.4
1.4
1.4
1.4
1.40001
1.40001
1.40001
1.40001
1.40001
1.40001
1.40001
1.40001
1.40001
1.40002
1.40002
1.40002
1.40002
1.40003
1.40003
1.40004
1.40004
1.40004
1.40004
1.40004
1.40005
1.40005
1.40005
1.40005
1.40004
1.40004
1.40004
1.40004
1.40003
1.40003
1.40002
1.40001
1.40001
1.4
1.4
1.39999
1.39999
1.39998
1.39998
1.39998
1.39997
1.39997
1.39997
1.39997
1.39997
1.39998
1.39998
1.39998
1.39998
1.39998
1.39999
1.39999
1.39999
1.39999
1.4
1.4
1.4
1.4
1.4
1.4
1.4
1.4
1.4
1.4
1.4
1.4
1.4
1.4
1.4
1.40001
1.40001
1.40001
1.40001
1.40001
1.40001
1.40001
1.40001
1.40001
1.40001
1.40001
1.40001
1.40001
1.40001
1.40001
1.40001
1.40002
1.40002
1.40002
1.40002
1.40003
1.40003
1.40003
1.40003
1.40003
1.40004
1.40004
1.40004
1.40004
1.40004
1.40004
1.40003
1.40003
1.40003
1.40002
1.40002
1.40002
1.40001
1.4
1.4
1.4
1.39999
1.39999
1.39999
1.39998
1.39998
1.39998
1.39998
1.39998
1.39998
1.39998
1.39998
1.39998
1.39999
1.39999
1.39999
1.39999
1.39999
1.39999
1.4
1.4
1.4
1.4
1.4
1.4
1.4
1.4
1.4
1.4
1.4
1.4
1.4
1.40001
1.40001
1.4
1.4
1.4
1.4
1.4
1.40001
1.40001
1.40001
1.40001
1.40001
1.40001
1.40001
1.40001
1.40001
1.40001
1.40001
1.40001
1.40001
1.40001
1.40002
1.40002
1.40002
1.40002
1.40002
1.40003
1.40003
1.40003
1.40003
1.40003
1.40003
1.40003
1.40003
1.40003
1.40003
1.40002
1.40002
1.40001
1.40001
1.40001
1.4
1.4
1.4
1.39999
1.39999
1.39999
1.39999
1.39999
1.39998
1.39998
1.39998
1.39999
1.39999
1.39999
1.39999
1.39999
1.39999
1.39999
1.39999
1.4
1.4
1.4
1.4
1.4
1.4
1.4
1.4
1.4
1.4
1.4
1.4
1.4
1.4
1.4
1.4
1.40001
1.40001
1.40001
1.40001
1.40001
1.40001
1.4
1.4
1.4
1.40001
1.4
1.40001
1.40001
1.40001
1.40001
1.40001
1.40001
1.40001
1.40001
1.40001
1.40001
1.40002
1.40002
1.40002
1.40002
1.40002
1.40002
1.40002
1.40002
1.40002
1.40002
1.40002
1.40002
1.40002
1.40002
1.40002
1.40002
1.40001
1.40001
1.40001
1.4
1.4
1.4
1.4
1.39999
1.39999
1.39999
1.39999
1.39999
1.39999
1.39999
1.39999
1.39999
1.39999
1.39999
1.39999
1.4
1.4
1.4
1.4
1.4
1.4
1.4
1.4
1.4
1.4