/*--------------------------------*- C++ -*----------------------------------*\
  =========                 |
  \\      /  F ield         | OpenFOAM: The Open Source CFD Toolbox
   \\    /   O peration     | Website:  https://openfoam.org
    \\  /    A nd           | Version:  6
     \\/     M anipulation  |
\*---------------------------------------------------------------------------*/
FoamFile
{
    version     2.0;
    format      ascii;
    class       volScalarField;
    location    "1.86";
    object      rho;
}
// * * * * * * * * * * * * * * * * * * * * * * * * * * * * * * * * * * * * * //

dimensions      [1 -3 0 0 0 0 0];

internalField   nonuniform List<scalar> 
5625
(
1.38531
1.34313
1.2932
1.23717
1.17725
1.11609
1.05654
1.00145
0.953521
0.915106
0.887749
0.872049
0.868059
0.875621
0.894337
0.923612
0.962809
1.0111
1.06696
1.1278
1.19035
1.25128
1.3077
1.35724
1.398
1.42868
1.44887
1.45921
1.46136
1.45755
1.45018
1.4413
1.43242
1.42446
1.41784
1.41265
1.40876
1.40595
1.40398
1.40263
1.40174
1.40115
1.40077
1.40052
1.40035
1.40024
1.40017
1.40012
1.40009
1.40006
1.40004
1.40003
1.40002
1.40002
1.40001
1.40001
1.40001
1.40001
1.40001
1.40001
1.40001
1.40001
1.40001
1.40001
1.40001
1.40001
1.40001
1.40001
1.40001
1.40001
1.40001
1.40001
1.40001
1.40001
1.40001
1.40048
1.3635
1.3192
1.26909
1.21516
1.15981
1.10565
1.05536
1.01152
0.976332
0.951178
0.936653
0.932948
0.940038
0.957547
0.984813
1.02113
1.06557
1.11654
1.17163
1.22787
1.28231
1.33241
1.37602
1.41137
1.43731
1.45356
1.46089
1.46094
1.4559
1.44798
1.43904
1.43038
1.42278
1.41655
1.4117
1.40809
1.4055
1.40369
1.40246
1.40163
1.40109
1.40074
1.4005
1.40035
1.40024
1.40017
1.40012
1.40009
1.40006
1.40004
1.40003
1.40002
1.40002
1.40001
1.40001
1.40001
1.40001
1.40001
1.40001
1.40001
1.40001
1.40001
1.40001
1.40001
1.40001
1.40001
1.40001
1.40001
1.40001
1.40001
1.40001
1.40001
1.40001
1.40001
1.41508
1.38344
1.34495
1.30098
1.25329
1.20404
1.15561
1.11046
1.071
1.03919
1.01629
1.00293
0.999483
1.00599
1.02206
1.04701
1.08008
1.12033
1.16615
1.21526
1.26501
1.31286
1.35656
1.39414
1.42401
1.44517
1.45749
1.46185
1.45992
1.45378
1.44544
1.43654
1.42819
1.421
1.41518
1.41071
1.4074
1.40503
1.40339
1.40227
1.40152
1.40103
1.4007
1.40049
1.40034
1.40024
1.40017
1.40012
1.40009
1.40006
1.40005
1.40003
1.40002
1.40002
1.40001
1.40001
1.40001
1.40001
1.40001
1.40001
1.40001
1.40001
1.40001
1.40001
1.40001
1.40001
1.40001
1.40001
1.40001
1.40001
1.40001
1.40001
1.40001
1.40001
1.40001
1.42853
1.40227
1.36966
1.33189
1.29055
1.24755
1.20503
1.16521
1.13024
1.10187
1.08126
1.06913
1.06595
1.07178
1.08623
1.10861
1.13819
1.174
1.21448
1.25753
1.3008
1.3421
1.37943
1.41103
1.43546
1.4519
1.4604
1.46196
1.45823
1.45116
1.44256
1.43383
1.42587
1.41915
1.41379
1.4097
1.4067
1.40456
1.40308
1.40208
1.40141
1.40096
1.40066
1.40046
1.40033
1.40024
1.40017
1.40012
1.40009
1.40006
1.40005
1.40003
1.40002
1.40002
1.40001
1.40001
1.40001
1.40001
1.40001
1.40001
1.40001
1.40001
1.40001
1.40001
1.40001
1.40001
1.40001
1.40001
1.40001
1.40001
1.40001
1.40001
1.40001
1.40001
1.40001
1.44033
1.41935
1.39252
1.3609
1.32587
1.2891
1.25249
1.21801
1.18754
1.16262
1.14435
1.13351
1.13062
1.1357
1.14837
1.16804
1.194
1.22528
1.26039
1.29742
1.33435
1.36926
1.40039
1.42615
1.44528
1.45719
1.4621
1.46111
1.45584
1.44808
1.4394
1.43096
1.42348
1.41727
1.41238
1.40869
1.406
1.4041
1.40278
1.40189
1.40129
1.40089
1.40062
1.40044
1.40032
1.40023
1.40017
1.40012
1.40009
1.40006
1.40005
1.40003
1.40002
1.40002
1.40001
1.40001
1.40001
1.40001
1.40001
1.40001
1.40001
1.40001
1.40001
1.40001
1.40001
1.40001
1.40001
1.40001
1.40001
1.40001
1.40001
1.40001
1.40001
1.40001
1.40001
1.45011
1.43415
1.41288
1.38718
1.35825
1.32754
1.29669
1.26742
1.24135
1.21984
1.20394
1.19446
1.19186
1.19614
1.20698
1.22388
1.24621
1.27301
1.30286
1.33407
1.3649
1.39369
1.41888
1.43904
1.45314
1.4608
1.46247
1.45928
1.45279
1.44459
1.43601
1.42799
1.42105
1.41539
1.41099
1.4077
1.40532
1.40364
1.40248
1.4017
1.40117
1.40082
1.40058
1.40041
1.4003
1.40022
1.40016
1.40012
1.40008
1.40006
1.40004
1.40003
1.40002
1.40002
1.40001
1.40001
1.40001
1.40001
1.40001
1.40001
1.40001
1.40001
1.40001
1.40001
1.40001
1.40001
1.40001
1.40001
1.40001
1.40001
1.40001
1.40001
1.40001
1.40001
1.40001
1.4576
1.44631
1.43023
1.41008
1.3869
1.36193
1.33655
1.31224
1.2904
1.27221
1.25868
1.25055
1.24823
1.25171
1.26076
1.27499
1.2938
1.31628
1.3411
1.36679
1.39186
1.41488
1.43446
1.44936
1.45879
1.46262
1.46146
1.45648
1.44913
1.44077
1.43248
1.42499
1.41865
1.41356
1.40965
1.40675
1.40467
1.40321
1.4022
1.40152
1.40106
1.40075
1.40053
1.40039
1.40028
1.40021
1.40015
1.40011
1.40008
1.40006
1.40004
1.40003
1.40002
1.40002
1.40001
1.40001
1.40001
1.40001
1.40001
1.40001
1.40001
1.40001
1.40001
1.40001
1.40001
1.40001
1.40001
1.40001
1.40001
1.40001
1.40001
1.40001
1.40001
1.40001
1.40001
1.46266
1.45557
1.44423
1.42919
1.41131
1.39162
1.37132
1.35164
1.33377
1.31877
1.30753
1.3007
1.29864
1.30139
1.30878
1.3205
1.336
1.35438
1.37448
1.39503
1.41476
1.43242
1.44677
1.45684
1.46208
1.4626
1.45913
1.45283
1.44498
1.43671
1.42888
1.422
1.4163
1.4118
1.40837
1.40585
1.40405
1.40279
1.40193
1.40134
1.40095
1.40068
1.40049
1.40036
1.40026
1.40019
1.40014
1.40011
1.40008
1.40006
1.40004
1.40003
1.40002
1.40002
1.40001
1.40001
1.40001
1.40001
1.40001
1.40001
1.40001
1.40001
1.40001
1.40001
1.40001
1.40001
1.40001
1.40001
1.40001
1.40001
1.40001
1.40001
1.40001
1.40001
1.40001
1.46522
1.46184
1.45473
1.44428
1.43117
1.41628
1.40059
1.38514
1.37094
1.3589
1.34979
1.34419
1.34241
1.34452
1.35043
1.35986
1.37228
1.38687
1.40262
1.41845
1.43329
1.44602
1.45564
1.4614
1.46303
1.46084
1.45563
1.44848
1.44048
1.43255
1.42531
1.41911
1.41407
1.41014
1.40718
1.40502
1.40348
1.40241
1.40168
1.40118
1.40084
1.40061
1.40044
1.40033
1.40024
1.40018
1.40013
1.4001
1.40007
1.40005
1.40004
1.40003
1.40002
1.40002
1.40001
1.40001
1.40001
1.40001
1.40001
1.40001
1.40001
1.40001
1.40001
1.40001
1.40001
1.40001
1.40001
1.40001
1.40001
1.40001
1.40001
1.40001
1.40001
1.40001
1.40001
1.46536
1.46514
1.4617
1.4553
1.44642
1.43579
1.42421
1.41255
1.40166
1.39231
1.38516
1.38071
1.37921
1.3808
1.38541
1.39277
1.40238
1.4135
1.42529
1.43685
1.44726
1.45559
1.46103
1.4631
1.46178
1.45753
1.45116
1.44362
1.4358
1.4284
1.42185
1.41637
1.41198
1.4086
1.40608
1.40425
1.40296
1.40206
1.40145
1.40103
1.40074
1.40054
1.4004
1.4003
1.40022
1.40017
1.40013
1.40009
1.40007
1.40005
1.40004
1.40003
1.40002
1.40001
1.40001
1.40001
1.40001
1.40001
1.40001
1.40001
1.40001
1.40001
1.40001
1.40001
1.40001
1.40001
1.40001
1.40001
1.40001
1.40001
1.40001
1.40001
1.40001
1.40001
1.40001
1.46328
1.46561
1.46525
1.46231
1.45711
1.4502
1.44224
1.43393
1.42597
1.41902
1.41363
1.41021
1.40903
1.41018
1.41362
1.41911
1.42617
1.43418
1.44244
1.4502
1.45669
1.46118
1.46309
1.46218
1.45863
1.45299
1.446
1.43848
1.43111
1.42438
1.41858
1.41382
1.41006
1.4072
1.40508
1.40356
1.40249
1.40175
1.40124
1.40089
1.40065
1.40048
1.40036
1.40027
1.4002
1.40015
1.40011
1.40009
1.40006
1.40005
1.40003
1.40002
1.40002
1.40001
1.40001
1.40001
1.40001
1.40001
1.40001
1.40001
1.40001
1.40001
1.40001
1.40001
1.40001
1.40001
1.40001
1.40001
1.40001
1.40001
1.40001
1.40001
1.40001
1.40001
1.40001
1.4593
1.46352
1.46562
1.46553
1.46343
1.45971
1.45487
1.44946
1.44406
1.4392
1.43536
1.43288
1.43199
1.43277
1.43518
1.43898
1.44376
1.44901
1.45417
1.45863
1.46178
1.46306
1.46215
1.45903
1.45398
1.44757
1.44046
1.43328
1.42655
1.42059
1.41556
1.4115
1.40833
1.40595
1.4042
1.40295
1.40207
1.40147
1.40105
1.40076
1.40056
1.40042
1.40032
1.40024
1.40018
1.40014
1.4001
1.40008
1.40006
1.40004
1.40003
1.40002
1.40002
1.40001
1.40001
1.40001
1.40001
1.40001
1.40001
1.40001
1.40001
1.40001
1.40001
1.40001
1.40001
1.40001
1.40001
1.40001
1.40001
1.40001
1.40001
1.40001
1.40001
1.40001
1.40001
1.45387
1.45932
1.46319
1.46531
1.46572
1.46463
1.4624
1.45945
1.45624
1.45319
1.45068
1.44901
1.44835
1.44881
1.45029
1.45259
1.45539
1.45827
1.4608
1.46251
1.46293
1.46173
1.45876
1.45416
1.44829
1.44167
1.43482
1.42823
1.42226
1.41709
1.41282
1.40942
1.40681
1.40485
1.40343
1.40241
1.40171
1.40122
1.40088
1.40065
1.40049
1.40037
1.40028
1.40022
1.40016
1.40013
1.40009
1.40007
1.40005
1.40004
1.40003
1.40002
1.40002
1.40001
1.40001
1.40001
1.40001
1.40001
1.40001
1.40001
1.40001
1.40001
1.40001
1.40001
1.40001
1.40001
1.40001
1.40001
1.40001
1.40001
1.40001
1.40001
1.40001
1.40001
1.40001
1.44752
1.45356
1.45854
1.46221
1.46448
1.46545
1.46531
1.46437
1.46296
1.46141
1.46002
1.45902
1.45857
1.45871
1.45937
1.4604
1.46153
1.46247
1.46288
1.46242
1.46079
1.45783
1.45355
1.44817
1.44206
1.43564
1.42933
1.42349
1.41833
1.41396
1.4104
1.40761
1.40548
1.4039
1.40276
1.40196
1.40139
1.40101
1.40074
1.40055
1.40042
1.40032
1.40025
1.40019
1.40015
1.40011
1.40008
1.40006
1.40005
1.40003
1.40003
1.40002
1.40001
1.40001
1.40001
1.40001
1.40001
1.40001
1.40001
1.40001
1.40001
1.40001
1.40001
1.40001
1.40001
1.40001
1.40001
1.40001
1.40001
1.40001
1.40001
1.40001
1.40001
1.40001
1.40001
1.44079
1.44688
1.45235
1.45691
1.46042
1.46284
1.46426
1.46486
1.46487
1.46451
1.464
1.46354
1.46322
1.46309
1.46308
1.46308
1.46291
1.46234
1.46117
1.45916
1.45616
1.45213
1.4472
1.44162
1.4357
1.42979
1.42421
1.41918
1.41482
1.41121
1.4083
1.40604
1.40434
1.40309
1.4022
1.40157
1.40113
1.40082
1.40061
1.40046
1.40036
1.40028
1.40021
1.40017
1.40013
1.4001
1.40007
1.40006
1.40004
1.40003
1.40002
1.40002
1.40001
1.40001
1.40001
1.40001
1.40001
1.40001
1.40001
1.40001
1.40001
1.40001
1.40001
1.40001
1.40001
1.40001
1.40001
1.40001
1.40001
1.40001
1.40001
1.40001
1.40001
1.40001
1.40001
1.43415
1.43989
1.44533
1.45022
1.45437
1.45767
1.46011
1.46178
1.46279
1.46331
1.46347
1.4634
1.46318
1.46283
1.46232
1.46156
1.46044
1.45884
1.45661
1.45363
1.44988
1.4454
1.44036
1.43499
1.42957
1.42437
1.41958
1.41536
1.41178
1.40884
1.40652
1.40473
1.40339
1.40242
1.40172
1.40124
1.4009
1.40067
1.4005
1.40039
1.4003
1.40024
1.40019
1.40014
1.40011
1.40009
1.40007
1.40005
1.40004
1.40003
1.40002
1.40002
1.40001
1.40001
1.40001
1.40001
1.40001
1.40001
1.40001
1.40001
1.40001
1.40001
1.40001
1.40001
1.40001
1.40001
1.40001
1.40001
1.40001
1.40001
1.40001
1.40001
1.40001
1.40001
1.40001
1.42794
1.43307
1.43814
1.44291
1.4472
1.45086
1.45384
1.45613
1.45778
1.45886
1.45946
1.45966
1.4595
1.45901
1.45816
1.45692
1.45523
1.45301
1.45021
1.44679
1.44279
1.43832
1.43355
1.42868
1.42394
1.4195
1.41552
1.41207
1.40918
1.40685
1.40503
1.40364
1.40261
1.40186
1.40134
1.40097
1.40071
1.40054
1.40041
1.40032
1.40025
1.4002
1.40016
1.40012
1.4001
1.40007
1.40006
1.40004
1.40003
1.40003
1.40002
1.40001
1.40001
1.40001
1.40001
1.40001
1.40001
1.40001
1.40001
1.40001
1.40001
1.40001
1.40001
1.40001
1.40001
1.40001
1.40001
1.40001
1.40001
1.40001
1.40001
1.40001
1.40001
1.40001
1.40001
1.4224
1.42679
1.43126
1.43562
1.43968
1.44332
1.44644
1.44897
1.45091
1.45229
1.45314
1.45349
1.45338
1.45281
1.45179
1.45032
1.44835
1.44588
1.4429
1.43944
1.43558
1.43143
1.42717
1.42296
1.41895
1.41529
1.41206
1.4093
1.40703
1.40521
1.40381
1.40275
1.40197
1.40141
1.40102
1.40075
1.40056
1.40043
1.40033
1.40026
1.40021
1.40017
1.40013
1.40011
1.40008
1.40006
1.40005
1.40004
1.40003
1.40002
1.40002
1.40001
1.40001
1.40001
1.40001
1.40001
1.40001
1.40001
1.40001
1.40001
1.40001
1.40001
1.40001
1.40001
1.40001
1.40001
1.40001
1.40001
1.40001
1.40001
1.40001
1.40001
1.40001
1.40001
1.40001
1.41763
1.42127
1.42505
1.42882
1.43245
1.43579
1.43874
1.44124
1.44322
1.44467
1.4456
1.44602
1.44594
1.44536
1.44431
1.44278
1.44078
1.43834
1.43547
1.43224
1.42875
1.42512
1.42147
1.41795
1.41468
1.41173
1.40918
1.40703
1.40527
1.40389
1.40283
1.40204
1.40146
1.40105
1.40077
1.40057
1.40044
1.40034
1.40027
1.40022
1.40017
1.40014
1.40011
1.40009
1.40007
1.40006
1.40004
1.40003
1.40003
1.40002
1.40002
1.40001
1.40001
1.40001
1.40001
1.40001
1.40001
1.40001
1.40001
1.40001
1.40001
1.40001
1.40001
1.40001
1.40001
1.40001
1.40001
1.40001
1.40001
1.40001
1.40001
1.40001
1.40001
1.40001
1.40001
1.41365
1.41658
1.41966
1.4228
1.42588
1.42878
1.4314
1.43366
1.4355
1.43689
1.43779
1.43821
1.43814
1.4376
1.4366
1.43515
1.43329
1.43104
1.42846
1.42562
1.42262
1.41957
1.41657
1.41373
1.41112
1.40881
1.40684
1.40519
1.40387
1.40284
1.40205
1.40148
1.40106
1.40077
1.40057
1.40043
1.40033
1.40027
1.40021
1.40018
1.40014
1.40012
1.40009
1.40008
1.40006
1.40005
1.40004
1.40003
1.40002
1.40002
1.40001
1.40001
1.40001
1.40001
1.40001
1.40001
1.40001
1.40001
1.40001
1.40001
1.40001
1.40001
1.40001
1.40001
1.40001
1.40001
1.40001
1.40001
1.40001
1.40001
1.40001
1.40001
1.40001
1.40001
1.40001
1.41041
1.41271
1.41516
1.41768
1.42019
1.42261
1.42481
1.42675
1.42835
1.42957
1.43038
1.43075
1.43069
1.43021
1.42931
1.42803
1.42638
1.42443
1.42222
1.41984
1.41737
1.41489
1.41249
1.41026
1.40824
1.40647
1.40498
1.40375
1.40277
1.40202
1.40146
1.40105
1.40076
1.40055
1.40042
1.40032
1.40025
1.40021
1.40017
1.40014
1.40012
1.4001
1.40008
1.40006
1.40005
1.40004
1.40003
1.40002
1.40002
1.40001
1.40001
1.40001
1.40001
1.40001
1.40001
1.40001
1.40001
1.40001
1.40001
1.40001
1.40001
1.40001
1.40001
1.40001
1.40001
1.40001
1.40001
1.40001
1.40001
1.40001
1.40001
1.40001
1.40001
1.40001
1.40001
1.40784
1.4096
1.4115
1.41348
1.41547
1.41739
1.41918
1.42076
1.42208
1.4231
1.42377
1.42408
1.42402
1.4236
1.42284
1.42174
1.42036
1.41873
1.41692
1.41499
1.41301
1.41106
1.4092
1.40749
1.40596
1.40464
1.40353
1.40264
1.40193
1.4014
1.401
1.40072
1.40052
1.40039
1.40029
1.40023
1.40019
1.40016
1.40013
1.40011
1.40009
1.40008
1.40007
1.40005
1.40004
1.40003
1.40003
1.40002
1.40002
1.40001
1.40001
1.40001
1.40001
1.40001
1.40001
1.40001
1.40001
1.40001
1.40001
1.40001
1.40001
1.40001
1.40001
1.40001
1.40001
1.40001
1.40001
1.40001
1.40001
1.40001
1.40001
1.40001
1.40001
1.40001
1.40001
1.40584
1.40717
1.4086
1.41011
1.41164
1.41314
1.41453
1.41578
1.41682
1.41762
1.41816
1.4184
1.41834
1.41798
1.41734
1.41644
1.41532
1.41401
1.41257
1.41105
1.40952
1.40802
1.40661
1.40533
1.40419
1.40323
1.40243
1.4018
1.4013
1.40093
1.40067
1.40048
1.40035
1.40026
1.40021
1.40017
1.40014
1.40012
1.4001
1.40009
1.40008
1.40006
1.40005
1.40004
1.40004
1.40003
1.40002
1.40002
1.40001
1.40001
1.40001
1.40001
1.40001
1.40001
1.40001
1.40001
1.40001
1.40001
1.40001
1.40001
1.40001
1.40001
1.40001
1.40001
1.40001
1.40001
1.40001
1.40001
1.40001
1.40001
1.40001
1.40001
1.40001
1.40001
1.40001
1.4043
1.40529
1.40636
1.40749
1.40864
1.40976
1.41082
1.41177
1.41257
1.41318
1.41357
1.41374
1.41368
1.41339
1.41287
1.41214
1.41125
1.41023
1.40911
1.40795
1.40679
1.40567
1.40462
1.40369
1.40287
1.40218
1.40162
1.40118
1.40084
1.40059
1.40042
1.4003
1.40022
1.40017
1.40014
1.40012
1.4001
1.40009
1.40008
1.40007
1.40006
1.40005
1.40004
1.40004
1.40003
1.40002
1.40002
1.40002
1.40001
1.40001
1.40001
1.40001
1.40001
1.40001
1.40001
1.40001
1.40001
1.40001
1.40001
1.40001
1.40001
1.40001
1.40001
1.40001
1.40001
1.40001
1.40001
1.40001
1.40001
1.40001
1.40001
1.40001
1.40001
1.40001
1.40001
1.40316
1.40387
1.40466
1.40548
1.40632
1.40715
1.40793
1.40863
1.40921
1.40966
1.40995
1.41006
1.40999
1.40974
1.40933
1.40876
1.40807
1.40729
1.40644
1.40557
1.40471
1.40389
1.40314
1.40246
1.40189
1.40141
1.40103
1.40073
1.40051
1.40035
1.40025
1.40018
1.40013
1.40011
1.40009
1.40008
1.40007
1.40007
1.40006
1.40005
1.40005
1.40004
1.40004
1.40003
1.40002
1.40002
1.40002
1.40001
1.40001
1.40001
1.40001
1.40001
1.40001
1.40001
1.40001
1.40001
1.40001
1.40001
1.40001
1.40001
1.40001
1.40001
1.40001
1.40001
1.40001
1.40001
1.40001
1.40001
1.40001
1.40001
1.40001
1.40001
1.40001
1.40001
1.40001
1.4023
1.40282
1.40338
1.40398
1.40458
1.40517
1.40574
1.40624
1.40665
1.40696
1.40716
1.40722
1.40715
1.40694
1.40662
1.40618
1.40566
1.40507
1.40444
1.4038
1.40318
1.40259
1.40205
1.40158
1.40119
1.40086
1.40061
1.40042
1.40028
1.40019
1.40012
1.40009
1.40007
1.40006
1.40005
1.40005
1.40005
1.40005
1.40005
1.40004
1.40004
1.40003
1.40003
1.40002
1.40002
1.40002
1.40001
1.40001
1.40001
1.40001
1.40001
1.40001
1.40001
1.40001
1.40001
1.40001
1.40001
1.40001
1.40001
1.40001
1.40001
1.40001
1.40001
1.40001
1.40001
1.40001
1.40001
1.40001
1.40001
1.40001
1.40001
1.40001
1.40001
1.40001
1.40001
1.40168
1.40205
1.40245
1.40286
1.40329
1.40371
1.40409
1.40444
1.40473
1.40494
1.40506
1.40508
1.40501
1.40484
1.40459
1.40425
1.40386
1.40343
1.40297
1.40251
1.40206
1.40165
1.40128
1.40096
1.4007
1.40049
1.40032
1.40021
1.40013
1.40007
1.40005
1.40003
1.40003
1.40003
1.40003
1.40003
1.40003
1.40004
1.40003
1.40003
1.40003
1.40003
1.40002
1.40002
1.40002
1.40001
1.40001
1.40001
1.40001
1.40001
1.40001
1.40001
1.40001
1.40001
1.40001
1.40001
1.40001
1.40001
1.40001
1.40001
1.40001
1.40001
1.40001
1.40001
1.40001
1.40001
1.40001
1.40001
1.40001
1.40001
1.40001
1.40001
1.40001
1.40001
1.40001
1.40122
1.40148
1.40176
1.40205
1.40235
1.40263
1.4029
1.40313
1.40332
1.40345
1.40352
1.40352
1.40345
1.40331
1.40311
1.40286
1.40257
1.40225
1.40192
1.40159
1.40128
1.401
1.40075
1.40054
1.40037
1.40023
1.40014
1.40007
1.40003
1.4
1.4
1.39999
1.4
1.40001
1.40001
1.40002
1.40002
1.40003
1.40003
1.40003
1.40002
1.40002
1.40002
1.40002
1.40001
1.40001
1.40001
1.40001
1.40001
1.40001
1.40001
1.40001
1.40001
1.40001
1.40001
1.40001
1.40001
1.40001
1.40001
1.40001
1.40001
1.40001
1.40001
1.40001
1.40001
1.40001
1.40001
1.40001
1.40001
1.40001
1.40001
1.40001
1.40001
1.40001
1.40001
1.4009
1.40108
1.40127
1.40147
1.40167
1.40186
1.40204
1.40219
1.40231
1.40238
1.40241
1.4024
1.40233
1.40221
1.40206
1.40187
1.40165
1.40142
1.40119
1.40096
1.40075
1.40056
1.40039
1.40026
1.40015
1.40007
1.40002
1.39998
1.39997
1.39996
1.39997
1.39997
1.39998
1.39999
1.4
1.40001
1.40001
1.40002
1.40002
1.40002
1.40002
1.40002
1.40001
1.40001
1.40001
1.40001
1.40001
1.40001
1.40001
1.40001
1.40001
1.40001
1.40001
1.40001
1.40001
1.40001
1.40001
1.40001
1.40001
1.40001
1.40001
1.40001
1.40001
1.40001
1.40001
1.40001
1.40001
1.40001
1.40001
1.40001
1.40001
1.40001
1.40001
1.40001
1.40001
1.40066
1.40079
1.40093
1.40105
1.40119
1.40132
1.40143
1.40152
1.40159
1.40163
1.40163
1.4016
1.40154
1.40145
1.40133
1.40118
1.40103
1.40086
1.4007
1.40054
1.40039
1.40027
1.40016
1.40008
1.40002
1.39997
1.39995
1.39994
1.39993
1.39994
1.39995
1.39996
1.39998
1.39999
1.4
1.4
1.40001
1.40001
1.40001
1.40001
1.40001
1.40001
1.40001
1.40001
1.40001
1.40001
1.40001
1.40001
1.40001
1.40001
1.40001
1.40001
1.40001
1.40001
1.40001
1.40001
1.40001
1.40001
1.40001
1.40001
1.40001
1.40001
1.40001
1.40001
1.40001
1.40001
1.40001
1.40001
1.40001
1.40001
1.40001
1.40001
1.40001
1.40001
1.40001
1.4005
1.40058
1.40067
1.40077
1.40085
1.40093
1.401
1.40105
1.40109
1.4011
1.40109
1.40106
1.401
1.40093
1.40083
1.40072
1.40061
1.40049
1.40037
1.40027
1.40017
1.40009
1.40002
1.39997
1.39994
1.39992
1.39991
1.39991
1.39992
1.39993
1.39995
1.39996
1.39997
1.39998
1.39999
1.4
1.4
1.40001
1.40001
1.40001
1.40001
1.40001
1.40001
1.40001
1.40001
1.40001
1.40001
1.40001
1.40001
1.40001
1.40001
1.40001
1.40001
1.40001
1.40001
1.40001
1.40001
1.40001
1.40001
1.40001
1.40001
1.40001
1.40001
1.40001
1.40001
1.40001
1.40001
1.40001
1.40001
1.40001
1.40001
1.40001
1.40001
1.40001
1.40001
1.40037
1.40044
1.4005
1.40055
1.40061
1.40066
1.4007
1.40073
1.40074
1.40074
1.40072
1.40069
1.40064
1.40058
1.4005
1.40042
1.40034
1.40025
1.40017
1.4001
1.40003
1.39998
1.39995
1.39992
1.3999
1.3999
1.3999
1.39991
1.39992
1.39993
1.39994
1.39996
1.39997
1.39998
1.39999
1.4
1.4
1.40001
1.40001
1.40001
1.40001
1.40001
1.40001
1.40001
1.40001
1.40001
1.40001
1.40001
1.40001
1.40001
1.40001
1.40001
1.40001
1.40001
1.40001
1.40001
1.40001
1.40001
1.40001
1.40001
1.40001
1.40001
1.40001
1.40001
1.40001
1.40001
1.40001
1.40001
1.40001
1.40001
1.40001
1.40001
1.40001
1.40001
1.40001
1.40029
1.40033
1.40037
1.40041
1.40044
1.40047
1.40049
1.40051
1.40051
1.4005
1.40048
1.40044
1.4004
1.40035
1.40029
1.40023
1.40017
1.40011
1.40005
1.4
1.39996
1.39993
1.39991
1.39989
1.39989
1.39989
1.3999
1.39991
1.39992
1.39994
1.39995
1.39996
1.39997
1.39998
1.39999
1.4
1.4
1.4
1.40001
1.40001
1.40001
1.40001
1.40001
1.40001
1.40001
1.40001
1.40001
1.40001
1.40001
1.40001
1.40001
1.40001
1.40001
1.40001
1.40001
1.40001
1.40001
1.40001
1.40001
1.40001
1.40001
1.40001
1.40001
1.40001
1.40001
1.40001
1.40001
1.40001
1.40001
1.40001
1.40001
1.40001
1.40001
1.40001
1.40001
1.40022
1.40025
1.40028
1.4003
1.40033
1.40034
1.40035
1.40036
1.40035
1.40034
1.40032
1.40029
1.40025
1.4002
1.40016
1.40011
1.40006
1.40002
1.39998
1.39995
1.39992
1.39991
1.39989
1.39989
1.39989
1.3999
1.3999
1.39992
1.39993
1.39994
1.39996
1.39997
1.39998
1.39999
1.39999
1.4
1.4
1.4
1.40001
1.40001
1.40001
1.40001
1.40001
1.40001
1.40001
1.40001
1.40001
1.40001
1.40001
1.40001
1.40001
1.40001
1.4
1.4
1.4
1.40001
1.40001
1.40001
1.40001
1.40001
1.40001
1.40001
1.40001
1.40001
1.40001
1.40001
1.40001
1.40001
1.40001
1.40001
1.40001
1.40001
1.40001
1.40001
1.40001
1.40017
1.40019
1.40021
1.40023
1.40024
1.40025
1.40025
1.40025
1.40024
1.40023
1.40021
1.40018
1.40015
1.40012
1.40008
1.40005
1.40001
1.39998
1.39995
1.39993
1.39991
1.3999
1.39989
1.39989
1.3999
1.39991
1.39992
1.39993
1.39994
1.39995
1.39996
1.39997
1.39998
1.39999
1.39999
1.4
1.4
1.4
1.4
1.40001
1.40001
1.40001
1.40001
1.40001
1.40001
1.40001
1.40001
1.40001
1.40001
1.40001
1.40001
1.40001
1.40001
1.40001
1.40001
1.40001
1.40001
1.40001
1.40001
1.40001
1.40001
1.40001
1.40001
1.40001
1.40001
1.40001
1.40001
1.40001
1.40001
1.40001
1.40001
1.40001
1.40001
1.40001
1.40001
1.40013
1.40015
1.40016
1.40017
1.40018
1.40019
1.40019
1.40018
1.40017
1.40016
1.40014
1.40011
1.40009
1.40006
1.40003
1.40001
1.39998
1.39996
1.39994
1.39992
1.39991
1.39991
1.3999
1.39991
1.39991
1.39992
1.39993
1.39994
1.39995
1.39996
1.39997
1.39998
1.39998
1.39999
1.39999
1.4
1.4
1.4
1.4
1.4
1.40001
1.40001
1.40001
1.40001
1.40001
1.40001
1.40001
1.40001
1.40001
1.40001
1.40001
1.40001
1.40001
1.40001
1.40001
1.40001
1.40001
1.40001
1.40001
1.40001
1.40001
1.40001
1.40001
1.40001
1.40001
1.40001
1.40001
1.40001
1.40001
1.40001
1.40001
1.40001
1.40001
1.40001
1.40001
1.40011
1.40012
1.40013
1.40013
1.40014
1.40014
1.40014
1.40013
1.40012
1.40011
1.40009
1.40007
1.40005
1.40003
1.40001
1.39999
1.39997
1.39995
1.39994
1.39993
1.39992
1.39992
1.39992
1.39992
1.39993
1.39993
1.39994
1.39995
1.39996
1.39997
1.39997
1.39998
1.39999
1.39999
1.4
1.4
1.4
1.4
1.4
1.4
1.40001
1.40001
1.40001
1.40001
1.40001
1.40001
1.40001
1.40001
1.40001
1.40001
1.40001
1.40001
1.40001
1.40001
1.40001
1.40001
1.40001
1.40001
1.40001
1.40001
1.40001
1.40001
1.40001
1.40001
1.40001
1.40001
1.40001
1.40001
1.40001
1.40001
1.40001
1.40001
1.40001
1.40001
1.40001
1.40008
1.40009
1.4001
1.4001
1.40011
1.40011
1.4001
1.4001
1.40009
1.40008
1.40007
1.40005
1.40003
1.40002
1.4
1.39998
1.39997
1.39995
1.39994
1.39994
1.39993
1.39993
1.39993
1.39994
1.39994
1.39995
1.39995
1.39996
1.39997
1.39997
1.39998
1.39999
1.39999
1.39999
1.4
1.4
1.4
1.4
1.4
1.4
1.4
1.40001
1.40001
1.40001
1.40001
1.40001
1.40001
1.40001
1.40001
1.40001
1.40001
1.40001
1.40001
1.40001
1.40001
1.40001
1.40001
1.40001
1.40001
1.40001
1.40001
1.40001
1.40001
1.40001
1.40001
1.40001
1.40001
1.40001
1.40001
1.40001
1.40001
1.40001
1.40001
1.40001
1.40001
1.40006
1.40007
1.40008
1.40008
1.40008
1.40008
1.40008
1.40007
1.40007
1.40006
1.40004
1.40003
1.40002
1.40001
1.39999
1.39998
1.39997
1.39996
1.39995
1.39995
1.39995
1.39994
1.39994
1.39995
1.39995
1.39996
1.39996
1.39997
1.39998
1.39998
1.39999
1.39999
1.39999
1.4
1.4
1.4
1.4
1.4
1.4
1.4
1.4
1.40001
1.40001
1.40001
1.40001
1.40001
1.40001
1.40001
1.40001
1.40001
1.40001
1.40001
1.40001
1.40001
1.40001
1.40001
1.40001
1.40001
1.40001
1.40001
1.40001
1.40001
1.40001
1.40001
1.40001
1.40001
1.40001
1.40001
1.40001
1.40001
1.40001
1.40001
1.40001
1.40001
1.40001
1.40005
1.40006
1.40006
1.40006
1.40006
1.40006
1.40006
1.40006
1.40005
1.40004
1.40003
1.40002
1.40001
1.4
1.39999
1.39998
1.39997
1.39997
1.39996
1.39996
1.39996
1.39996
1.39996
1.39996
1.39996
1.39997
1.39997
1.39998
1.39998
1.39999
1.39999
1.39999
1.4
1.4
1.4
1.4
1.4
1.4
1.4
1.4
1.40001
1.40001
1.40001
1.40001
1.40001
1.40001
1.40001
1.40001
1.40001
1.40001
1.40001
1.40001
1.40001
1.40001
1.40001
1.40001
1.40001
1.4
1.40001
1.40001
1.40001
1.40001
1.40001
1.40001
1.40001
1.40001
1.40001
1.40001
1.40001
1.40001
1.40001
1.40001
1.40001
1.40001
1.40001
1.40004
1.40004
1.40005
1.40005
1.40005
1.40005
1.40005
1.40004
1.40004
1.40003
1.40002
1.40002
1.40001
1.4
1.39999
1.39999
1.39998
1.39997
1.39997
1.39997
1.39997
1.39997
1.39997
1.39997
1.39997
1.39998
1.39998
1.39998
1.39999
1.39999
1.39999
1.4
1.4
1.4
1.4
1.4
1.4
1.4
1.4
1.4
1.4
1.40001
1.40001
1.40001
1.4
1.4
1.4
1.40001
1.40001
1.40001
1.4
1.4
1.4
1.40001
1.40001
1.40001
1.40001
1.40001
1.40001
1.40001
1.40001
1.40001
1.40001
1.40001
1.40001
1.40001
1.40001
1.40001
1.40001
1.40001
1.40001
1.40001
1.40001
1.40001
1.40001
1.40003
1.40003
1.40004
1.40004
1.40004
1.40004
1.40004
1.40003
1.40003
1.40002
1.40002
1.40001
1.40001
1.4
1.4
1.39999
1.39998
1.39998
1.39998
1.39998
1.39998
1.39998
1.39998
1.39998
1.39998
1.39998
1.39999
1.39999
1.39999
1.39999
1.4
1.4
1.4
1.4
1.4
1.4
1.4
1.4
1.4
1.4
1.4
1.4
1.4
1.40001
1.40001
1.40001
1.40001
1.40001
1.40001
1.40001
1.40001
1.40001
1.40001
1.40001
1.40001
1.4
1.4
1.4
1.4
1.40001
1.40001
1.40001
1.40001
1.40001
1.40001
1.40001
1.40001
1.40001
1.40001
1.40001
1.40001
1.40001
1.40001
1.40001
1.40001
1.40002
1.40003
1.40003
1.40003
1.40003
1.40003
1.40003
1.40002
1.40002
1.40002
1.40001
1.40001
1.4
1.4
1.4
1.39999
1.39999
1.39999
1.39998
1.39998
1.39998
1.39998
1.39998
1.39998
1.39999
1.39999
1.39999
1.39999
1.39999
1.4
1.4
1.4
1.4
1.4
1.4
1.4
1.4
1.4
1.4
1.4
1.40001
1.40001
1.4
1.4
1.4
1.40001
1.40001
1.40001
1.40001
1.4
1.4
1.4
1.40001
1.40001
1.40001
1.40001
1.40001
1.40001
1.40001
1.40001
1.40001
1.40001
1.40001
1.40001
1.40001
1.40001
1.40001
1.40001
1.40001
1.40001
1.40001
1.40001
1.40001
1.40001
1.40001
1.40002
1.40002
1.40002
1.40002
1.40002
1.40002
1.40002
1.40002
1.40002
1.40002
1.40001
1.40001
1.40001
1.4
1.4
1.4
1.39999
1.39999
1.39999
1.39999
1.39999
1.39999
1.39999
1.39999
1.39999
1.39999
1.39999
1.4
1.4
1.4
1.4
1.4
1.4
1.4
1.4
1.4
1.4
1.4
1.4
1.4
1.4
1.40001
1.40001
1.40001
1.40001
1.4
1.4
1.4
1.40001
1.40001
1.40001
1.40001
1.40001
1.4
1.4
1.4
1.4
1.4
1.40001
1.40001
1.40001
1.40001
1.40001
1.40001
1.40001
1.40001
1.40001
1.40001
1.40001
1.40001
1.40001
1.40001
1.40001
1.40001
1.40001
1.40002
1.40002
1.40002
1.40002
1.40002
1.40002
1.40002
1.40002
1.40001
1.40001
1.40001
1.40001
1.4
1.4
1.4
1.4
1.4
1.39999
1.39999
1.39999
1.39999
1.39999
1.39999
1.39999
1.39999
1.4
1.4
1.4
1.4
1.4
1.4
1.4
1.4
1.4
1.4
1.4
1.4
1.4
1.4
1.40001
1.40001
1.40001
1.40001
1.40001
1.40001
1.40001
1.40001
1.40001
1.4
1.4
1.4
1.40001
1.40001
1.40001
1.40001
1.40001
1.40001
1.40001
1.40001
1.40001
1.40001
1.40001
1.40001
1.40001
1.40001
1.40001
1.40001
1.40001
1.40001
1.40001
1.40001
1.40001
1.40001
1.40001
1.40001
1.40001
1.40001
1.40001
1.40001
1.40001
1.40001
1.40001
1.40001
1.40001
1.40001
1.40001
1.40001
1.4
1.4
1.4
1.4
1.4
1.4
1.4
1.4
1.4
1.4
1.4
1.4
1.4
1.4
1.4
1.4
1.4
1.4
1.4
1.4
1.4
1.4
1.4
1.4
1.4
1.40001
1.40001
1.40001
1.4
1.40001
1.40001
1.40001
1.40001
1.40001
1.40001
1.40001
1.40001
1.40001
1.40001
1.40001
1.4
1.4
1.4
1.4
1.4
1.40001
1.40001
1.40001
1.40001
1.40001
1.40001
1.40001
1.40001
1.40001
1.40001
1.40001
1.40001
1.40001
1.40001
1.40001
1.40001
1.40001
1.40001
1.40001
1.40001
1.40001
1.40001
1.40001
1.40001
1.40001
1.40001
1.40001
1.40001
1.40001
1.40001
1.4
1.4
1.4
1.4
1.4
1.4
1.4
1.4
1.4
1.4
1.4
1.4
1.4
1.4
1.4
1.4
1.4
1.4
1.4
1.4
1.4
1.4
1.4
1.4
1.4
1.4
1.40001
1.40001
1.40001
1.4
1.4
1.4
1.4
1.40001
1.40001
1.40001
1.40001
1.40001
1.40001
1.40001
1.40001
1.40001
1.40001
1.40001
1.40001
1.40001
1.40001
1.40001
1.40001
1.40001
1.40001
1.40001
1.40001
1.40001
1.40001
1.40001
1.40001
1.40001
1.40001
1.40001
1.40001
1.40001
1.40001
1.40001
1.40001
1.40001
1.40001
1.40001
1.40001
1.40001
1.40001
1.40001
1.40001
1.40001
1.40001
1.4
1.4
1.4
1.4
1.4
1.4
1.4
1.4
1.4
1.4
1.4
1.4
1.4
1.4
1.4
1.4
1.4
1.4
1.4
1.4
1.4
1.4
1.4
1.4
1.4
1.4
1.4
1.4
1.4
1.40001
1.40001
1.40001
1.40001
1.40001
1.40001
1.40001
1.40001
1.40001
1.4
1.4
1.4
1.4
1.4
1.40001
1.40001
1.40001
1.40001
1.40001
1.40001
1.40001
1.40001
1.40001
1.40001
1.40001
1.40001
1.40001
1.40001
1.40001
1.40001
1.40001
1.40001
1.40001
1.40001
1.40001
1.40001
1.40001
1.40001
1.40001
1.40001
1.40001
1.40001
1.40001
1.40001
1.40001
1.40001
1.40001
1.4
1.4
1.4
1.4
1.4
1.4
1.4
1.4
1.4
1.4
1.4
1.4
1.4
1.4
1.4
1.4
1.4
1.4
1.4
1.4
1.4
1.4
1.4
1.40001
1.40001
1.40001
1.4
1.4
1.4
1.4
1.40001
1.40001
1.40001
1.40001
1.40001
1.40001
1.40001
1.40001
1.40001
1.40001
1.40001
1.40001
1.40001
1.40001
1.40001
1.40001
1.40001
1.40001
1.40001
1.40001
1.40001
1.40001
1.40001
1.40001
1.40001
1.40001
1.40001
1.40001
1.40001
1.40001
1.40001
1.40001
1.40001
1.40001
1.40001
1.40001
1.40001
1.40001
1.40001
1.40001
1.40001
1.40001
1.40001
1.40001
1.4
1.4
1.4
1.4
1.4
1.4
1.4
1.4
1.4
1.4
1.4
1.4
1.4
1.4
1.4
1.4
1.4
1.4
1.4
1.4
1.4
1.4
1.40001
1.40001
1.40001
1.4
1.4
1.4
1.40001
1.40001
1.40001
1.40001
1.4
1.40001
1.40001
1.40001
1.40001
1.4
1.4
1.4
1.4
1.40001
1.40001
1.40001
1.40001
1.40001
1.40001
1.40001
1.40001
1.40001
1.40001
1.40001
1.40001
1.40001
1.40001
1.40001
1.40001
1.40001
1.40001
1.40001
1.40001
1.40001
1.40001
1.40001
1.40001
1.40001
1.40001
1.40001
1.40001
1.40001
1.40001
1.40001
1.40001
1.40001
1.40001
1.40001
1.40001
1.4
1.4
1.4
1.4
1.4
1.4
1.4
1.4
1.4
1.4
1.4
1.4
1.4
1.4
1.4
1.4
1.4
1.4
1.4
1.40001
1.4
1.4
1.4
1.4
1.4
1.4
1.4
1.40001
1.40001
1.40001
1.40001
1.40001
1.40001
1.40001
1.40001
1.40001
1.40001
1.40001
1.40001
1.40001
1.40001
1.40001
1.40001
1.40001
1.40001
1.40001
1.40001
1.40001
1.40001
1.40001
1.40001
1.40001
1.40001
1.40001
1.40001
1.40001
1.40001
1.40001
1.40001
1.40001
1.40001
1.40001
1.40001
1.40001
1.40001
1.40001
1.40001
1.40001
1.40001
1.40001
1.40001
1.40001
1.4
1.4
1.4
1.4
1.4
1.4
1.4
1.4
1.4
1.4
1.4
1.4
1.4
1.4
1.4
1.4
1.4
1.4
1.4
1.4
1.4
1.4
1.40001
1.40001
1.40001
1.40001
1.40001
1.40001