/*--------------------------------*- C++ -*----------------------------------*\
  =========                 |
  \\      /  F ield         | OpenFOAM: The Open Source CFD Toolbox
   \\    /   O peration     | Website:  https://openfoam.org
    \\  /    A nd           | Version:  6
     \\/     M anipulation  |
\*---------------------------------------------------------------------------*/
FoamFile
{
    version     2.0;
    format      ascii;
    class       surfaceScalarField;
    location    "2.86";
    object      phi;
}
// * * * * * * * * * * * * * * * * * * * * * * * * * * * * * * * * * * * * * //

dimensions      [0 3 -1 0 0 0 0];

internalField   nonuniform List<scalar> 
8193
(
0.270447
-0.473629
-0.250565
0.283939
-0.480525
0.293664
-0.481087
0.301217
-0.480775
0.307771
-0.482036
0.31413
-0.485537
0.321074
-0.492265
0.329008
-0.5027
0.335234
-0.512799
0.334614
-0.51465
0.326288
-0.506585
0.304909
-0.480071
0.270418
-0.434373
0.227863
-0.377369
0.184392
-0.31889
0.145034
-0.265678
0.112204
-0.222681
0.0855652
-0.191786
0.0632722
-0.172757
0.0432294
-0.163573
0.0231076
-0.16123
0.00201923
-0.163506
-0.0194318
-0.169569
-0.0399074
-0.179277
-0.0582642
-0.193886
-0.0749006
-0.215712
-0.0920192
-0.244047
-0.111747
-0.273991
-0.133582
-0.300942
-0.155426
-0.323616
-0.175785
-0.34279
-0.193779
-0.359237
-0.208939
-0.373134
-0.221028
-0.384517
-0.229946
-0.393582
-0.235691
-0.400615
-0.238367
-0.40583
-0.237955
-0.409403
-0.233886
-0.411619
-0.225259
-0.411925
-0.406729
-0.209803
0.303793
-0.480081
-0.288819
0.311474
-0.477348
0.316972
-0.473725
0.322026
-0.471318
0.327218
-0.471432
0.333154
-0.474761
0.339846
-0.481697
0.345262
-0.490668
0.34348
-0.493727
0.332165
-0.486533
0.304795
-0.463206
0.258923
-0.419263
0.202319
-0.364158
0.145195
-0.308181
0.093971
-0.257341
0.0529676
-0.216247
0.0227161
-0.186026
0.00112262
-0.165905
-0.0152051
-0.154319
-0.0289884
-0.149883
-0.0417373
-0.150772
-0.0543102
-0.155382
-0.0664202
-0.163992
-0.0773718
-0.176835
-0.0874032
-0.1942
-0.0984109
-0.216711
-0.112565
-0.243351
-0.130549
-0.270677
-0.151285
-0.295812
-0.172831
-0.318313
-0.193584
-0.338586
-0.212632
-0.356691
-0.229382
-0.37247
-0.24335
-0.385831
-0.254167
-0.396856
-0.261618
-0.405676
-0.265706
-0.412296
-0.266529
-0.41682
-0.264056
-0.41969
-0.258345
-0.420303
-0.418413
-0.246163
0.326746
-0.473544
-0.320693
0.330267
-0.466551
0.333253
-0.461001
0.336234
-0.45754
0.339486
-0.457217
0.343311
-0.460752
0.346261
-0.466772
0.343158
-0.469964
0.329857
-0.463397
0.300004
-0.440497
0.248834
-0.396952
0.186377
-0.343047
0.124233
-0.289781
0.0685378
-0.241948
0.0235299
-0.203636
-0.010104
-0.17587
-0.0344129
-0.157013
-0.0516971
-0.146013
-0.0639338
-0.141597
-0.0730885
-0.142364
-0.0809121
-0.146673
-0.0878041
-0.154243
-0.094225
-0.16526
-0.100652
-0.179911
-0.107736
-0.198283
-0.117264
-0.219829
-0.130954
-0.243573
-0.14884
-0.267726
-0.169462
-0.290874
-0.191084
-0.312825
-0.21241
-0.333519
-0.232541
-0.3526
-0.250773
-0.369694
-0.266512
-0.384595
-0.279257
-0.397285
-0.288612
-0.407791
-0.294293
-0.416025
-0.296147
-0.421976
-0.294346
-0.425795
-0.288829
-0.427157
-0.426398
-0.278998
0.345217
-0.459086
-0.343587
0.346112
-0.450253
0.346092
-0.443
0.345677
-0.438675
0.345456
-0.438383
0.344804
-0.441624
0.340156
-0.444065
0.325309
-0.437741
0.292212
-0.413853
0.236192
-0.36918
0.168352
-0.315167
0.1014
-0.263676
0.041785
-0.219424
-0.00689125
-0.184334
-0.0440962
-0.159396
-0.0709945
-0.143915
-0.0891956
-0.135784
-0.100314
-0.133917
-0.106645
-0.136341
-0.110463
-0.141643
-0.112793
-0.149413
-0.114382
-0.159615
-0.116517
-0.171875
-0.120186
-0.186647
-0.126436
-0.203934
-0.136055
-0.223418
-0.149906
-0.244022
-0.167666
-0.265111
-0.187937
-0.286327
-0.209409
-0.307355
-0.231058
-0.327834
-0.252039
-0.347209
-0.271591
-0.365004
-0.289032
-0.380927
-0.303769
-0.39487
-0.315313
-0.406759
-0.323246
-0.416452
-0.327244
-0.423867
-0.327185
-0.428981
-0.322924
-0.43154
-0.431718
-0.314528
0.35871
-0.437516
-0.361359
0.355388
-0.427511
0.351054
-0.419036
0.346333
-0.414392
0.341193
-0.414015
0.334093
-0.415881
0.316616
-0.408762
0.279555
-0.383886
0.219908
-0.338637
0.14918
-0.284282
0.079459
-0.232824
0.0172297
-0.190504
-0.0339042
-0.159132
-0.0726866
-0.138262
-0.100606
-0.126119
-0.119108
-0.122027
-0.12957
-0.123926
-0.13438
-0.1297
-0.135526
-0.13775
-0.134782
-0.146859
-0.133308
-0.157205
-0.132596
-0.168402
-0.133552
-0.180634
-0.137128
-0.194286
-0.144116
-0.209495
-0.15499
-0.226237
-0.169478
-0.244154
-0.187152
-0.262742
-0.207099
-0.282102
-0.228392
-0.301912
-0.25023
-0.321662
-0.271843
-0.340747
-0.29248
-0.358663
-0.311422
-0.375077
-0.328017
-0.389811
-0.341693
-0.402721
-0.351943
-0.413611
-0.358348
-0.422339
-0.360634
-0.428766
-0.358568
-0.432644
-0.434051
-0.352063
0.365268
-0.409153
-0.372609
0.356839
-0.398128
0.347257
-0.388815
0.33704
-0.384086
0.325985
-0.383638
0.305631
-0.377173
0.26615
-0.35208
0.205687
-0.307539
0.133871
-0.252399
0.0632096
-0.200787
0.00081617
-0.159292
-0.0506821
-0.129648
-0.0907213
-0.111583
-0.119666
-0.103705
-0.138073
-0.104026
-0.148347
-0.110006
-0.152499
-0.119957
-0.152791
-0.131497
-0.150966
-0.143526
-0.148345
-0.155231
-0.146433
-0.166586
-0.146192
-0.177729
-0.148331
-0.189074
-0.153446
-0.201099
-0.161908
-0.214142
-0.173853
-0.228391
-0.189019
-0.243862
-0.206659
-0.260512
-0.226339
-0.278104
-0.247489
-0.296435
-0.269456
-0.315053
-0.291567
-0.333362
-0.313108
-0.350882
-0.333371
-0.36727
-0.351687
-0.38231
-0.367453
-0.395799
-0.38011
-0.407512
-0.389135
-0.417292
-0.394154
-0.424891
-0.394916
-0.429974
-0.432684
-0.391159
0.363271
-0.37406
-0.376017
0.348993
-0.362075
0.333495
-0.352314
0.316878
-0.347424
0.294121
-0.341964
0.254805
-0.320224
0.196416
-0.277477
0.1262
-0.222645
0.05738
-0.170539
-0.00326162
-0.128828
-0.0537972
-0.0992271
-0.0939513
-0.0818027
-0.123645
-0.0760711
-0.143539
-0.0798818
-0.155196
-0.0903326
-0.160539
-0.104505
-0.161922
-0.120268
-0.161042
-0.13588
-0.15939
-0.150432
-0.158012
-0.163539
-0.157818
-0.175294
-0.159495
-0.186044
-0.16358
-0.19633
-0.170446
-0.206776
-0.18025
-0.217917
-0.192938
-0.230127
-0.208267
-0.243591
-0.225923
-0.258313
-0.245484
-0.274145
-0.266604
-0.290784
-0.288698
-0.308002
-0.311225
-0.325141
-0.333507
-0.341849
-0.354875
-0.357767
-0.374697
-0.372646
-0.392368
-0.386256
-0.407303
-0.398378
-0.418959
-0.40883
-0.426916
-0.417276
-0.430821
-0.423357
-0.427305
-0.430278
0.352274
-0.332514
-0.370934
0.331787
-0.319696
0.309705
-0.309488
0.284543
-0.302808
0.247881
-0.28726
0.194544
-0.250368
0.129422
-0.19745
0.0644134
-0.144424
0.00662439
-0.101292
-0.0427249
-0.0698217
-0.0831391
-0.0509901
-0.113783
-0.0451887
-0.135216
-0.0505264
-0.149275
-0.0635618
-0.157886
-0.0812923
-0.162856
-0.100905
-0.165614
-0.120635
-0.167056
-0.139262
-0.168005
-0.155938
-0.169204
-0.170341
-0.171335
-0.182616
-0.17496
-0.193208
-0.180569
-0.202722
-0.188518
-0.21189
-0.198973
-0.22142
-0.211957
-0.231813
-0.227362
-0.24336
-0.244959
-0.256166
-0.264451
-0.270132
-0.285441
-0.285033
-0.307719
-0.300439
-0.330591
-0.316162
-0.353453
-0.331746
-0.375722
-0.346812
-0.39682
-0.361102
-0.416164
-0.374404
-0.433177
-0.386502
-0.447347
-0.397179
-0.458227
-0.406063
-0.465395
-0.412811
-0.41776
-0.468375
0.333642
-0.285699
-0.357806
0.307642
-0.272368
0.279352
-0.261305
0.245696
-0.250792
0.200064
-0.224886
0.142928
-0.178176
0.0835801
-0.124788
0.0297047
-0.0790194
-0.0175734
-0.0442976
-0.0575004
-0.0220085
-0.0891343
-0.0133047
-0.113132
-0.0169676
-0.130594
-0.0306524
-0.143692
-0.0498368
-0.153897
-0.072207
-0.161948
-0.0956763
-0.168528
-0.118521
-0.174096
-0.13974
-0.178668
-0.158914
-0.182846
-0.175128
-0.187262
-0.188479
-0.19249
-0.199461
-0.199061
-0.208705
-0.207463
-0.216972
-0.218051
-0.225082
-0.231001
-0.233698
-0.24629
-0.243293
-0.263781
-0.254062
-0.283229
-0.265997
-0.304303
-0.278939
-0.326523
-0.292593
-0.349574
-0.306592
-0.372938
-0.320672
-0.395947
-0.3346
-0.418062
-0.347993
-0.438771
-0.360615
-0.457562
-0.372271
-0.473968
-0.382719
-0.487552
-0.391592
-0.49784
-0.398619
-0.404138
-0.504407
0.311371
-0.23622
-0.339163
0.281518
-0.222382
0.248813
-0.210096
0.210216
-0.195382
0.163078
-0.162677
0.111642
-0.113446
0.0631307
-0.0647868
0.0194917
-0.0257071
-0.0185867
0.00163464
-0.0509579
0.0164045
-0.0768388
0.016823
-0.0978203
0.00649129
-0.115899
-0.0118316
-0.131754
-0.0349337
-0.145894
-0.0606625
-0.158459
-0.0872955
-0.169538
-0.11315
-0.17943
-0.137007
-0.18838
-0.158496
-0.196164
-0.177156
-0.2033
-0.192337
-0.210458
-0.204364
-0.218177
-0.21399
-0.227086
-0.22187
-0.237727
-0.228894
-0.250438
-0.23591
-0.265396
-0.243535
-0.282582
-0.252142
-0.301817
-0.261865
-0.322803
-0.272645
-0.345118
-0.284296
-0.36826
-0.296518
-0.391792
-0.308975
-0.415277
-0.321426
-0.43818
-0.333592
-0.459986
-0.345223
-0.480225
-0.356095
-0.498487
-0.365929
-0.514352
-0.374398
-0.527401
-0.381269
-0.38682
-0.53732
0.290974
-0.187115
-0.320021
0.259474
-0.172509
0.225269
-0.159249
0.186133
-0.141369
0.143753
-0.107209
0.102461
-0.060866
0.0642738
-0.0171148
0.029725
0.0165317
-0.00106568
0.0383373
-0.0274525
0.0469506
-0.0513221
0.0431319
-0.0730616
0.0289897
-0.0936608
0.00789206
-0.113423
-0.0176301
-0.132248
-0.0458217
-0.149902
-0.0750881
-0.166025
-0.103868
-0.180289
-0.130903
-0.193365
-0.154818
-0.205622
-0.175445
-0.216681
-0.192873
-0.226847
-0.206733
-0.236787
-0.217403
-0.246964
-0.225728
-0.258071
-0.232354
-0.270685
-0.238227
-0.285214
-0.244119
-0.301844
-0.250603
-0.320544
-0.258014
-0.341099
-0.266463
-0.363167
-0.275871
-0.386283
-0.286054
-0.40992
-0.296727
-0.433638
-0.307558
-0.456958
-0.318311
-0.479448
-0.328695
-0.500717
-0.338463
-0.520365
-0.347364
-0.538008
-0.355088
-0.553282
-0.361417
-0.366472
-0.566027
0.276178
-0.140767
-0.304678
0.245648
-0.125849
0.212809
-0.112025
0.177855
-0.0937902
0.14335
-0.0618458
0.111406
-0.0198244
0.0820319
0.0196104
0.0552101
0.0489797
0.0303445
0.0671345
0.00646735
0.0731016
-0.0168145
0.0670729
-0.0399462
0.0512141
-0.0632447
0.0287697
-0.0867143
0.00196255
-0.110136
-0.0276714
-0.133005
-0.0588199
-0.154685
-0.0900483
-0.174751
-0.119881
-0.192765
-0.14695
-0.209147
-0.170227
-0.224664
-0.18944
-0.239167
-0.20513
-0.252654
-0.217515
-0.265447
-0.227104
-0.278153
-0.234245
-0.291419
-0.239826
-0.305868
-0.244629
-0.321944
-0.249389
-0.339856
-0.254655
-0.359585
-0.260754
-0.380921
-0.267786
-0.403518
-0.275685
-0.426909
-0.284286
-0.450557
-0.293319
-0.474014
-0.302463
-0.496847
-0.311421
-0.518662
-0.319921
-0.539155
-0.327642
-0.558004
-0.334327
-0.574862
-0.339812
-0.344082
-0.589564
0.269878
-0.0982046
-0.297278
0.241301
-0.0837734
0.21124
-0.0701462
0.181451
-0.0538689
0.154752
-0.0266953
0.131577
0.0101364
0.110325
0.0460045
0.0894334
0.0733991
0.0685036
0.0900167
0.0469564
0.095068
0.0241652
0.0887983
0.000108051
0.0727727
-0.0247708
0.0497734
-0.0508052
0.0228044
-0.0778724
-0.00705188
-0.105178
-0.0391516
-0.132062
-0.0719225
-0.158128
-0.103621
-0.182868
-0.132988
-0.205577
-0.159182
-0.226094
-0.181383
-0.244856
-0.199525
-0.262628
-0.213489
-0.27959
-0.224354
-0.295436
-0.232943
-0.3108
-0.239187
-0.326272
-0.243899
-0.342447
-0.24779
-0.359775
-0.25154
-0.378536
-0.255632
-0.398742
-0.260417
-0.420248
-0.265975
-0.442719
-0.272328
-0.465757
-0.279263
-0.488834
-0.286592
-0.511503
-0.293946
-0.53337
-0.301013
-0.554127
-0.307411
-0.573465
-0.312907
-0.591158
-0.317296
-0.320562
-0.607015
0.270623
-0.0613772
-0.295333
0.245335
-0.0479035
0.21901
-0.0347882
0.193491
-0.0208676
0.172585
0.000148102
0.156319
0.0308147
0.141619
0.0636146
0.126226
0.090234
0.109514
0.106741
0.090666
0.112543
0.0689549
0.1078
0.0443611
0.0933732
0.0181069
0.0708057
-0.00895501
0.0434738
-0.0371973
0.0136876
-0.0672309
-0.0176683
-0.0977875
-0.0508983
-0.128108
-0.0837466
-0.158019
-0.114363
-0.187093
-0.142157
-0.214828
-0.166376
-0.240749
-0.186917
-0.264036
-0.204
-0.285404
-0.217153
-0.305753
-0.227006
-0.325133
-0.234322
-0.343379
-0.240116
-0.361168
-0.244242
-0.378969
-0.247571
-0.397309
-0.250514
-0.416438
-0.253687
-0.436522
-0.257244
-0.457457
-0.261468
-0.479035
-0.266248
-0.500905
-0.271544
-0.522662
-0.277048
-0.54388
-0.282484
-0.564154
-0.287469
-0.583242
-0.291635
-0.600985
-0.294729
-0.296801
-0.617196
0.276166
-0.0315771
-0.297131
0.254683
-0.0189325
0.232397
-0.00637809
0.210283
0.00600105
0.192296
0.0215239
0.179984
0.045164
0.170574
0.0737333
0.160772
0.0994463
0.148497
0.117164
0.133036
0.124932
0.113764
0.122825
0.0900772
0.111687
0.0632804
0.0911557
0.0345198
0.0647681
0.00557646
0.0342013
-0.0244819
0.00305501
-0.0568958
-0.0286646
-0.0900336
-0.0615709
-0.123524
-0.0925496
-0.156827
-0.121175
-0.189279
-0.146811
-0.220917
-0.168648
-0.250909
-0.187764
-0.279484
-0.202616
-0.305356
-0.215336
-0.329395
-0.22452
-0.35204
-0.231598
-0.373445
-0.236692
-0.39359
-0.240836
-0.41299
-0.243889
-0.432084
-0.246534
-0.451135
-0.249088
-0.470489
-0.251745
-0.490035
-0.254852
-0.509885
-0.258145
-0.529607
-0.261872
-0.54914
-0.265399
-0.567966
-0.268821
-0.586065
-0.271298
-0.602922
-0.273107
-0.273635
-0.61872
0.283663
-0.00849099
-0.301308
0.266067
0.00299062
0.247285
0.0155908
0.228619
0.0266971
0.210986
0.0400296
0.200083
0.055787
0.19342
0.0789813
0.188782
0.101558
0.180729
0.121609
0.169887
0.131119
0.154143
0.132911
0.133478
0.12573
0.108503
0.108594
0.0793023
0.085564
0.0495379
0.0547432
0.0178253
0.0247793
-0.014122
-0.00741742
-0.0500983
-0.03695
-0.0842964
-0.0703024
-0.120578
-0.0973763
-0.15469
-0.125642
-0.190173
-0.146492
-0.223494
-0.168068
-0.256934
-0.183004
-0.28841
-0.197782
-0.318878
-0.207946
-0.346901
-0.217308
-0.372994
-0.224022
-0.397443
-0.229336
-0.419772
-0.233857
-0.441029
-0.236734
-0.46032
-0.240217
-0.479342
-0.241903
-0.496946
-0.244983
-0.514765
-0.246414
-0.531548
-0.249336
-0.548501
-0.250674
-0.564536
-0.252836
-0.580394
-0.253183
-0.595297
-0.253538
-0.252272
-0.609523
0.28991
-0.305618
0.277279
0.259556
0.245375
0.227759
0.219358
0.207416
0.208672
0.200107
0.197586
0.18315
0.168967
0.14611
0.118591
0.0880598
0.0544151
0.0245304
-0.0107029
-0.0420839
-0.0801758
-0.113837
-0.151511
-0.185891
-0.222257
-0.256195
-0.290306
-0.322895
-0.353698
-0.383568
-0.409664
-0.435529
-0.456471
-0.477841
-0.49441
-0.511904
-0.525432
-0.540184
-0.552001
-0.564903
-0.576305
-0.588364
0.194384
-0.538155
0.152771
-0.558914
0.113011
-0.569796
0.0768762
-0.571773
0.0451397
-0.565926
0.0182422
-0.553326
-0.00360754
-0.534939
-0.0202128
-0.511681
-0.0316032
-0.484298
-0.0379494
-0.45374
-0.0396444
-0.42084
-0.0372596
-0.386462
-0.0315388
-0.351471
-0.0233569
-0.317265
-0.0140113
-0.283851
-0.00269844
-0.254005
-0.210102
0.19262
-0.491071
0.154326
-0.510364
0.116899
-0.521904
0.0820052
-0.52624
0.0506668
-0.523823
0.0235438
-0.515376
0.00102261
-0.501602
-0.0166811
-0.483258
-0.0294248
-0.461023
-0.0372854
-0.435634
-0.0404703
-0.407797
-0.0393983
-0.378162
-0.0347276
-0.347353
-0.0273395
-0.316539
-0.0180037
-0.28583
-0.00802559
-0.257454
-0.212484
0.190181
-0.446012
0.154816
-0.46388
0.119929
-0.475646
0.0868599
-0.481576
0.0566268
-0.481811
0.0299436
-0.476779
0.00732838
-0.466999
-0.0109541
-0.452982
-0.0246864
-0.435367
-0.0338243
-0.414724
-0.0384995
-0.391585
-0.0389561
-0.366491
-0.0356147
-0.339887
-0.0290843
-0.312751
-0.0198764
-0.285287
-0.00997205
-0.258243
-0.214038
0.185916
-0.404103
0.153899
-0.420248
0.121866
-0.431707
0.0909247
-0.43846
0.0621357
-0.440607
0.0362556
-0.438283
0.0138458
-0.43182
-0.00467975
-0.421588
-0.0190998
-0.408041
-0.0292503
-0.391696
-0.0351616
-0.372895
-0.0369881
-0.352056
-0.0350051
-0.329507
-0.0295798
-0.30613
-0.0211825
-0.282023
-0.0112555
-0.256961
-0.214596
0.181123
-0.364869
0.152068
-0.379414
0.122761
-0.390296
0.0941617
-0.397446
0.0671474
-0.40089
0.04245
-0.400624
0.0206469
-0.396832
0.00219599
-0.389771
-0.0125727
-0.379773
-0.023485
-0.367204
-0.0304524
-0.352324
-0.0335435
-0.335398
-0.0328786
-0.316702
-0.0287192
-0.296979
-0.0213805
-0.276272
-0.0118338
-0.253698
-0.213954
0.174933
-0.328866
0.148924
-0.341748
0.122488
-0.351852
0.0963835
-0.35899
0.0713566
-0.363183
0.0481267
-0.364406
0.027259
-0.362694
0.00922816
-0.35822
-0.00559103
-0.351219
-0.0169733
-0.341914
-0.024781
-0.33048
-0.0289719
-0.31709
-0.029558
-0.301968
-0.0267171
-0.285692
-0.020588
-0.268346
-0.0118272
-0.248527
-0.212024
0.168396
-0.295675
0.145047
-0.307108
0.121209
-0.316349
0.0975561
-0.323304
0.0746562
-0.32789
0.0530954
-0.330106
0.0334244
-0.329955
0.0161102
-0.327531
0.00153087
-0.322986
-0.0100456
-0.316434
-0.0184558
-0.307952
-0.0235695
-0.29768
-0.0253071
-0.285795
-0.0237517
-0.272715
-0.0189248
-0.258585
-0.0112623
-0.24159
-0.208718
0.160854
-0.265731
0.140161
-0.275677
0.118932
-0.283998
0.0976863
-0.290551
0.0769515
-0.295268
0.0572017
-0.298095
0.0389181
-0.299048
0.0225573
-0.2982
0.00847718
-0.295606
-0.00305244
-0.291297
-0.0118186
-0.285295
-0.0176576
-0.277694
-0.0204178
-0.268663
-0.0200787
-0.258489
-0.0166101
-0.247329
-0.0102391
-0.233112
-0.20402
0.153256
-0.238415
0.134801
-0.247181
0.11588
-0.254646
0.0968932
-0.260741
0.0782469
-0.265408
0.0603513
-0.268597
0.0436051
-0.270317
0.0283769
-0.270613
0.0149986
-0.269506
0.00373615
-0.266964
-0.00517865
-0.262977
-0.0115303
-0.257628
-0.0151564
-0.251032
-0.0159531
-0.243421
-0.0138478
-0.234922
-0.00888988
-0.223345
-0.198
0.144863
-0.21428
0.128723
-0.221788
0.112086
-0.228373
0.0952955
-0.233925
0.0786806
-0.238376
0.062593
-0.2417
0.0473976
-0.243921
0.0334168
-0.245044
0.020908
-0.245028
0.0101022
-0.243817
0.0012407
-0.241413
-0.00544323
-0.237893
-0.00975683
-0.233334
-0.0115577
-0.227919
-0.0107708
-0.221712
-0.00729986
-0.212542
-0.190771
0.136778
-0.192639
0.122564
-0.199164
0.107917
-0.204943
0.0930911
-0.209939
0.0783693
-0.21411
0.0640403
-0.217442
0.0503814
-0.219946
0.0376464
-0.221607
0.0260587
-0.222355
0.0158388
-0.222132
0.00721381
-0.22095
0.000395535
-0.218872
-0.00442298
-0.215957
-0.00708175
-0.212358
-0.00754509
-0.208016
-0.00555268
-0.200987
-0.182477
0.128018
-0.173983
0.115875
-0.179468
0.103265
-0.184427
0.0903988
-0.188807
0.0775156
-0.192597
0.0648677
-0.195795
0.0526879
-0.198396
0.0411746
-0.200351
0.0305161
-0.201581
0.0209192
-0.202049
0.0125993
-0.201776
0.00575795
-0.200813
0.000578939
-0.199204
-0.00279872
-0.197057
-0.00436553
-0.194186
-0.0037544
-0.189005
-0.173322
0.119874
-0.157617
0.109398
-0.162281
0.0985215
-0.166512
0.0874066
-0.17032
0.0762321
-0.173711
0.0651841
-0.176693
0.0544292
-0.179242
0.0441156
-0.18129
0.0344047
-0.182775
0.0254832
-0.183684
0.0175417
-0.184044
0.0107585
-0.183896
0.00529803
-0.183269
0.00128166
-0.182232
-0.00123169
-0.180536
-0.00197642
-0.176804
-0.16353
0.111233
-0.143943
0.102577
-0.147717
0.0934849
-0.151215
0.0840953
-0.154423
0.0745652
-0.157369
0.0650406
-0.160048
0.0556415
-0.162412
0.0464858
-0.164392
0.0377165
-0.16595
0.0294962
-0.167096
0.0219833
-0.167852
0.0153243
-0.168248
0.00965053
-0.168301
0.00511251
-0.168099
0.00179517
-0.167327
-0.000246717
-0.16458
-0.153314
0.103475
-0.132287
0.0962745
-0.135355
0.0886793
-0.138197
0.0808035
-0.140861
0.072753
-0.143366
0.064615
-0.145691
0.0564662
-0.147777
0.0484016
-0.149574
0.0405442
-0.151073
0.0330256
-0.152292
0.0259696
-0.153248
0.0194928
-0.153963
0.0136999
-0.154444
0.00866721
-0.15475
0.00452736
-0.154624
0.0013172
-0.152568
-0.142962
0.0954797
-0.122975
0.089873
-0.125269
0.0838369
-0.127459
0.0774613
-0.129563
0.070826
-0.131588
0.0639876
-0.133492
0.0570046
-0.135216
0.0499614
-0.136738
0.042962
-0.138069
0.0361094
-0.139228
0.0294999
-0.140223
0.0232233
-0.141072
0.017358
-0.14177
0.0119151
-0.14231
0.00694952
-0.142481
0.00272803
-0.140996
-0.132718
0.0886207
-0.115394
0.0842911
-0.117072
0.0795567
-0.118679
0.0744789
-0.120265
0.069088
-0.121808
0.0634066
-0.123255
0.0574774
-0.124572
0.0513682
-0.12576
0.0451552
-0.126838
0.0389099
-0.127822
0.0327012
-0.128719
0.0265915
-0.129539
0.020633
-0.130268
0.014858
-0.130881
0.00925233
-0.131119
0.00409804
-0.129992
-0.122689
0.0817821
-0.10983
0.0788602
-0.110827
0.0754878
-0.111853
0.0716953
-0.112896
0.0674944
-0.113915
0.0629033
-0.114866
0.0579629
-0.115736
0.052727
-0.116539
0.0472471
-0.117295
0.0415676
-0.11801
0.0357293
-0.118689
0.0297671
-0.119337
0.0237131
-0.119938
0.0175858
-0.120452
0.0114197
-0.120638
0.00535799
-0.119614
-0.113026
0.0762664
-0.105695
0.0744619
-0.106182
0.0722056
-0.106677
0.0694929
-0.107195
0.0663136
-0.107692
0.062675
-0.10814
0.0586047
-0.108547
0.054135
-0.108935
0.0492931
-0.109314
0.0441018
-0.109691
0.0385824
-0.110066
0.0327493
-0.110439
0.0266124
-0.110789
0.0201639
-0.111059
0.0134413
-0.111055
0.00653908
-0.109949
-0.103838
0.0711699
-0.103383
0.0706154
-0.103219
0.0695245
-0.103151
0.0678854
-0.103112
0.0656838
-0.103054
0.0629285
-0.102972
0.0596395
-0.102888
0.0558329
-0.102817
0.0515182
-0.102765
0.0467025
-0.102734
0.041392
-0.102727
0.035588
-0.102737
0.0292928
-0.102743
0.022502
-0.102684
0.0152494
-0.102402
0.00755994
-0.101061
-0.0952993
0.0674032
-0.102239
0.067863
-0.101661
0.067736
-0.101039
0.0669974
-0.100442
0.0656393
-0.0998393
0.0636548
-0.099228
0.0610455
-0.0986365
0.0578096
-0.0980777
0.0539406
-0.0975536
0.0494322
-0.0970659
0.0442768
-0.096615
0.0384634
-0.0961914
0.0319843
-0.095778
0.0248277
-0.0953075
0.0170149
-0.0946551
0.00857069
-0.0929894
-0.0874259
0.0642537
-0.10278
0.0657585
-0.101512
0.0665909
-0.100314
0.0667319
-0.0991472
0.0661539
-0.0979723
0.0648484
-0.0968059
0.062813
-0.0956822
0.0600364
-0.0946053
0.0565025
-0.093572
0.0521965
-0.0925848
0.0471037
-0.091644
0.041208
-0.0907378
0.0344994
-0.0898549
0.0269629
-0.0889218
0.0186261
-0.0878559
0.00947577
-0.0857836
-0.080321
0.062394
-0.104275
0.0648227
-0.102638
0.0664658
-0.100819
0.0673201
-0.0990577
0.0673876
-0.0973198
0.0666403
-0.0955914
0.0650564
-0.0939127
0.062617
-0.0922905
0.0593017
-0.0907189
0.055091
-0.0892008
0.0499666
-0.0877368
0.043912
-0.0863156
0.0369188
-0.0849328
0.0289754
-0.0835106
0.0201107
-0.0820049
0.0102938
-0.0794811
-0.0740596
0.0613493
-0.107384
0.0646348
-0.104972
0.067066
-0.102538
0.0686192
-0.100171
0.0692591
-0.0978251
0.0689658
-0.0955012
0.0677232
-0.0932424
0.0655089
-0.0910481
0.0623002
-0.0889109
0.0580789
-0.0868367
0.0528292
-0.0848269
0.0465397
-0.0828728
0.0392066
-0.0809756
0.0308287
-0.0790579
0.0214349
-0.0771034
0.0109986
-0.0741197
-0.0687311
0.0613508
-0.111272
0.0654732
-0.108505
0.06857
-0.105366
0.0706589
-0.102348
0.0717452
-0.099392
0.0717885
-0.0964524
0.0707626
-0.0935843
0.068648
-0.0907924
0.065427
-0.088069
0.0610859
-0.0854217
0.0556157
-0.0828542
0.0490151
-0.0803627
0.0412887
-0.0779512
0.0324537
-0.075552
0.0225422
-0.0731603
0.0115888
-0.0697826
-0.0644116
0.0620974
-0.116759
0.066894
-0.113095
0.070635
-0.10931
0.0732228
-0.105587
0.0746594
-0.101966
0.0749288
-0.0983801
0.074009
-0.0948766
0.0718843
-0.0914637
0.0685453
-0.0881367
0.0639887
-0.0849062
0.0582199
-0.0817809
0.051254
-0.0787628
0.0431076
-0.0758534
0.0338307
-0.0730138
0.0234259
-0.0701876
0.0121057
-0.0665864
-0.0611156
0.0636282
-0.122869
0.0691141
-0.118786
0.073344
-0.114252
0.0762643
-0.109767
0.0779409
-0.105487
0.0783373
-0.10124
0.0774124
-0.0970654
0.0751706
-0.0930121
0.0716179
-0.0890733
0.0667635
-0.0852575
0.0606297
-0.0815822
0.0532518
-0.0780563
0.0446754
-0.0746867
0.0349642
-0.0714469
0.0241886
-0.0682811
0.0124734
-0.0644495
-0.0589082
0.0656994
-0.130585
0.0717731
-0.125509
0.0764685
-0.12021
0.079744
-0.114959
0.0815888
-0.109939
0.0819953
-0.104976
0.0809597
-0.100107
0.0784917
-0.09539
0.074613
-0.0908236
0.0693572
-0.0864218
0.062771
-0.0822088
0.054916
-0.0782014
0.0458667
-0.0744125
0.035718
-0.0708286
0.0245815
-0.0674034
0.0126053
-0.0634267
-0.0579097
0.0683574
-0.138884
0.0750024
-0.133279
0.0800442
-0.127109
0.0835149
-0.121057
0.0854127
-0.115267
0.0857239
-0.109546
0.0844593
-0.103948
0.0816481
-0.0985422
0.0773354
-0.0933351
0.071582
-0.0883482
0.0644664
-0.0836147
0.0560848
-0.0791604
0.0465498
-0.0750058
0.0359988
-0.0711539
0.0245791
-0.0675592
0.0124966
-0.0635619
-0.0582081
0.0712101
-0.148786
0.0783355
-0.142036
0.083731
-0.134998
0.0873533
-0.128069
0.089202
-0.121427
0.0893008
-0.114894
0.0876853
-0.108528
0.0844091
-0.102405
0.0795476
-0.0965428
0.0731986
-0.0909752
0.0654816
-0.0857462
0.0565376
-0.0808926
0.0465276
-0.0764444
0.0356412
-0.072423
0.024071
-0.0687762
0.0120918
-0.0649173
-0.0599052
0.0742443
-0.159249
0.0818438
-0.1518
0.0874282
-0.14375
0.0910527
-0.135893
0.0927332
-0.128354
0.0924933
-0.120953
0.0903934
-0.113771
0.086522
-0.1069
0.0809944
-0.10037
0.0739542
-0.0942309
0.0655725
-0.0885417
0.0560461
-0.0833519
0.0455965
-0.0787041
0.0344749
-0.0746382
0.0229304
-0.0710894
0.0113274
-0.0675765
-0.06312
0.0770378
-0.171243
0.084995
-0.16247
0.0907761
-0.153404
0.0943467
-0.144514
0.0957403
-0.13598
0.0950286
-0.127642
0.0923082
-0.119591
0.0877086
-0.111934
0.0813961
-0.104725
0.0735724
-0.0980307
0.0644726
-0.0919287
0.0543613
-0.0864843
0.0435326
-0.0817557
0.0323088
-0.077799
0.0210154
-0.0745423
0.010125
-0.0716422
-0.068002
0.0795224
-0.18377
0.0878383
-0.174053
0.0936373
-0.163801
0.0970029
-0.153815
0.0979809
-0.144216
0.0966556
-0.134861
0.093166
-0.125877
0.087697
-0.117397
0.080478
-0.109498
0.0717819
-0.102273
0.0619205
-0.095821
0.0512401
-0.0902253
0.0401211
-0.0855643
0.0289703
-0.0819086
0.0182141
-0.0791962
0.00842386
-0.0772217
-0.0747129
0.081283
-0.197692
0.089832
-0.186414
0.0956684
-0.17497
0.0987653
-0.163753
0.0991954
-0.152958
0.0971076
-0.142493
0.0926989
-0.132507
0.0862191
-0.12316
0.0779752
-0.114565
0.068326
-0.106844
0.0576751
-0.100121
0.0464661
-0.0945041
0.035181
-0.0900947
0.024328
-0.0869795
0.0144455
-0.0851194
0.00617923
-0.0844126
-0.0834129
0.0821741
-0.212029
0.0910096
-0.199581
0.0967172
-0.186738
0.0993925
-0.174183
0.099135
-0.162083
0.0961312
-0.150402
0.0906466
-0.139334
0.0830132
-0.129078
0.0736302
-0.119785
0.0629584
-0.111616
0.0515107
-0.104725
0.0398468
-0.0992505
0.0285663
-0.0953213
0.0182887
-0.0930363
0.00965462
-0.092375
0.00336617
-0.0932994
-0.0942454
0.0819705
-0.227613
0.0909668
-0.213385
0.0965354
-0.199071
0.0986987
-0.185009
0.0976084
-0.171451
0.0935317
-0.158437
0.0868146
-0.146201
0.0778851
-0.13499
0.0672535
-0.125004
0.0555023
-0.116451
0.0432746
-0.109525
0.0312648
-0.104397
0.0202013
-0.101224
0.0108154
-0.100104
0.00383664
-0.101019
3.1272e-06
-0.103951
-0.107302
0.0804433
-0.243498
0.0896844
-0.227849
0.0949808
-0.2118
0.096503
-0.196081
0.0944485
-0.18092
0.0891508
-0.166441
0.0810504
-0.152941
0.0706918
-0.140727
0.0587182
-0.130065
0.0458557
-0.121214
0.0328993
-0.114418
0.0206931
-0.109886
0.0100974
-0.107786
0.001946
-0.108196
-0.002964
-0.111077
-0.00387711
-0.116393
-0.122615
0.0774155
-0.260426
0.0867759
-0.242767
0.0917725
-0.224841
0.0925647
-0.207276
0.0894088
-0.19033
0.0827369
-0.174242
0.0731045
-0.159376
0.0611914
-0.146114
0.0477978
-0.134805
0.0338191
-0.125773
0.0202218
-0.119315
0.00800732
-0.115668
-0.00183796
-0.114992
-0.00838718
-0.117323
-0.0107834
-0.122581
-0.00828492
-0.130655
-0.140219
0.0727271
-0.277463
0.0822348
-0.258064
0.0868581
-0.238049
0.0868141
-0.218439
0.0824278
-0.199518
0.0742268
-0.181653
0.0629077
-0.165309
0.0493138
-0.150961
0.034428
-0.139053
0.0193415
-0.12999
0.00520838
-0.124119
-0.00681073
-0.121686
-0.0156107
-0.122813
-0.0201776
-0.12748
-0.0195989
-0.135556
-0.013178
-0.146776
-0.160106
0.0664282
-0.295446
0.0760422
-0.27358
0.0802989
-0.251343
0.0793742
-0.229462
0.0736638
-0.208345
0.0638249
-0.188523
0.0507062
-0.170577
0.0353437
-0.155104
0.0189309
-0.142661
0.00277052
-0.133737
-0.0117918
-0.128715
-0.0234203
-0.12785
-0.0308675
-0.13121
-0.0330308
-0.138688
-0.0290295
-0.150006
-0.01825
-0.164722
-0.181985
-0.491688
-0.159562
0.507939
-0.474158
-0.181106
-0.454136
-0.203069
-0.433045
-0.225082
-0.40969
-0.246762
-0.385588
-0.267703
-0.359629
-0.287516
-0.333313
-0.305883
-0.305643
-0.32245
-0.277999
-0.336993
-0.249533
-0.349224
-0.221406
-0.359088
-0.193048
-0.366322
-0.165203
-0.371128
-0.137634
-0.373311
-0.1107
-0.373055
-0.0845026
-0.370305
-0.0590102
-0.36513
-0.03445
-0.35762
-0.0106481
-0.347846
0.0120957
-0.336118
0.0339975
-0.322272
0.0548829
-0.306699
0.0748543
-0.289389
0.0939148
-0.270576
0.11202
-0.250491
0.129342
-0.229314
0.145693
-0.207378
0.161374
-0.184873
0.176084
-0.162141
0.190211
-0.139443
0.203368
-0.117068
0.21604
-0.0953228
0.227749
-0.0744147
0.2391
-0.0546648
0.249529
-0.0362159
0.259741
-0.0192741
0.269017
-0.00394474
0.278331
0.00951429
0.286768
0.0212321
0.0309415
-0.465612
-0.179951
0.478863
-0.450172
-0.201212
-0.432668
-0.222831
-0.413233
-0.244465
-0.392038
-0.265729
-0.369307
-0.286188
-0.345229
-0.305506
-0.320091
-0.323287
-0.294095
-0.339266
-0.2675
-0.353167
-0.240471
-0.364796
-0.21335
-0.373912
-0.186224
-0.3805
-0.159367
-0.384563
-0.132866
-0.386078
-0.106928
-0.385097
-0.0816376
-0.381673
-0.0570819
-0.375858
-0.0333504
-0.367726
-0.0104725
-0.357396
0.0114676
-0.345114
0.0325098
-0.330832
0.0525951
-0.314833
0.0717595
-0.297198
0.0900071
-0.278124
0.107343
-0.257839
0.123817
-0.236566
0.139413
-0.214569
0.15419
-0.192112
0.168131
-0.169461
0.181274
-0.146926
0.193626
-0.124767
0.205201
-0.10329
0.216032
-0.0827184
0.226136
-0.0633538
0.235537
-0.045338
0.244262
-0.0288711
0.252392
-0.0141055
0.259907
-0.00118621
0.266979
0.00983242
0.0188984
-0.436186
-0.19782
0.446687
-0.423284
-0.218879
-0.408127
-0.240226
-0.390856
-0.261559
-0.371686
-0.282451
-0.350819
-0.302508
-0.328518
-0.321357
-0.305015
-0.33864
-0.280586
-0.354063
-0.255453
-0.367405
-0.22986
-0.378448
-0.204048
-0.386949
-0.178222
-0.392916
-0.152575
-0.396355
-0.127265
-0.397261
-0.10245
-0.395676
-0.0782511
-0.39167
-0.0547545
-0.385317
-0.0320424
-0.376682
-0.0101642
-0.365906
0.0108151
-0.353206
0.0309028
-0.338598
0.0500662
-0.322319
0.0683151
-0.304485
0.0856607
-0.285289
0.102112
-0.264956
0.117692
-0.243716
0.132412
-0.221822
0.146287
-0.199541
0.159334
-0.177134
0.17155
-0.154895
0.182958
-0.133102
0.193552
-0.112032
0.203358
-0.0919351
0.212383
-0.0730868
0.220629
-0.0556216
0.228122
-0.0397527
0.234901
-0.0256391
0.240991
-0.0133999
0.246453
-0.00311788
0.00517363
-0.404358