/*--------------------------------*- C++ -*----------------------------------*\
  =========                 |
  \\      /  F ield         | OpenFOAM: The Open Source CFD Toolbox
   \\    /   O peration     | Website:  https://openfoam.org
    \\  /    A nd           | Version:  6
     \\/     M anipulation  |
\*---------------------------------------------------------------------------*/
FoamFile
{
    version     2.0;
    format      ascii;
    class       volScalarField;
    location    "2.56";
    object      rho;
}
// * * * * * * * * * * * * * * * * * * * * * * * * * * * * * * * * * * * * * //

dimensions      [1 -3 0 0 0 0 0];

internalField   nonuniform List<scalar> 
24166
(
1.40405
1.42799
1.40001
1.4
1.40001
1.4
1.40001
1.40001
1.44061
1.40001
1.40049
1.39615
1.40034
1.39314
1.40187
1.40005
1.40159
1.40021
1.4
1.39941
1.40006
1.39997
1.40001
1.40001
1.43615
1.40001
1.40001
1.43622
1.40001
1.40001
1.47188
1.40001
1.4
1.4
1.4
1.39378
1.40001
1.53226
1.40001
1.92979
1.39973
1.40001
1.40001
1.39999
1.39993
1.40001
1.43054
1.35019
1.40001
1.42446
1.40001
1.39995
1.40001
1.40156
1.4
1.46727
1.46997
1.40001
1.40001
1.4
1.68666
1.40019
1.40001
1.40001
1.4
1.40001
1.40001
0.9857
1.26421
1.40001
1.40002
1.40024
1.40001
1.40001
1.40001
1.39999
1.39996
1.4076
1.40001
1.40014
1.29665
1.4
1.40001
1.33498
1.40045
1.40001
1.40077
1.40001
1.4
1.40001
1.40001
1.4
1.39986
1.39999
1.39952
1.40053
1.40001
1.39997
1.40001
1.40001
1.4
1.40001
1.39995
1.40001
1.40001
1.40001
1.40001
1.40007
1.40001
1.40001
1.40001
1.40001
1.40001
1.48969
1.45998
1.40008
1.4
1.4
1.39997
1.40001
1.4
1.40001
1.39919
1.40001
1.44394
1.40023
1.4
1.40001
1.40001
1.40001
1.1269
1.39966
1.39033
1.4564
1.4
1.40006
1.40001
1.25358
1.4
1.4
1.4442
1.40001
1.35281
1.40001
1.42829
1.39999
1.40001
1.39997
1.0965
1.40001
1.40001
1.40001
1.40001
1.39997
1.40001
1.40001
1.4
1.40001
1.40001
1.39991
1.37936
1.43469
1.40001
1.4
1.40001
1.40001
1.32658
1.40001
1.40001
1.40001
1.40001
1.40001
1.40001
1.39907
1.40001
1.40727
1.40001
1.40001
1.39987
1.36999
1.4
1.40001
1.45435
1.40001
1.40001
1.40001
1.40001
1.4
1.40001
1.4
1.40001
1.46927
1.40003
1.40012
1.40001
1.4
1.4036
1.4
1.41005
1.40013
1.40001
1.4
1.40001
1.40281
1.4
1.40001
1.40001
1.40001
1.40001
1.87341
1.47128
1.4
1.40764
1.39986
1.40001
1.4
1.40001
1.40001
1.52579
1.40001
1.40001
1.3983
1.40001
1.40001
1.4302
1.40001
1.40001
1.4
1.40006
1.40001
1.40512
1.40097
1.39932
1.40001
1.50828
1.40001
1.39983
1.40001
1.4
1.40001
1.4
1.4
1.4
1.40001
1.39939
1.4
1.40012
1.40027
1.4012
1.40001
1.39964
1.40001
1.40003
1.41535
1.40001
1.40001
1.40001
1.40127
1.40001
1.40013
1.40001
1.4
1.4
1.40058
1.4
1.40005
1.39999
1.40001
1.4
1.4
1.40175
1.55737
1.40001
1.40553
1.4
1.40005
1.40001
1.74297
1.39997
1.40001
1.46676
1.40001
1.31494
1.40001
1.4
1.40001
1.40001
1.40001
1.39918
1.40001
1.23404
1.40001
1.40001
1.4
1.40096
1.44271
1.40001
1.40001
1.40694
1.4
1.40001
1.40121
1.40167
1.40001
1.40001
1.40001
1.40001
1.40042
1.41018
1.40001
1.45012
1.40004
1.40001
1.17575
1.39782
1.40001
1.40035
1.40001
1.40008
1.39944
1.40001
1.40001
1.45859
1.40001
1.4
1.39997
1.40001
1.40001
1.4
1.40928
1.40001
1.39996
1.40001
1.4251
1.40001
1.40499
1.40001
1.4
1.40227
1.45023
1.40001
1.40001
1.40001
1.40001
1.40001
1.4
1.4
1.40001
1.40001
1.40001
1.40001
1.40001
1.40001
1.40001
1.40001
1.40001
1.40001
1.4
1.35774
1.41288
1.40001
1.40001
1.4
1.40601
1.40001
1.4
1.40281
1.40001
1.40001
1.4
1.42726
1.40001
1.40001
1.40001
1.40001
1.39975
1.40001
1.40103
1.40001
1.4
1.40004
1.40001
1.40001
1.39992
1.43041
1.4
1.4
1.39933
1.4
1.2342
1.40001
1.4
1.42115
1.37589
1.51216
1.40192
1.40001
1.40001
1.40001
1.40001
1.40001
1.40001
1.42032
1.40014
1.40001
1.40001
1.40001
1.39907
1.4
1.4
1.40898
1.40001
1.40001
1.4
1.40001
1.40513
1.40271
1.40001
1.40006
1.40001
1.40001
1.42815
1.40001
1.40001
1.40001
1.40001
1.40452
1.40001
1.40001
1.39441
1.39991
1.38398
1.40001
1.40002
1.40009
1.40001
1.40001
1.4
1.40001
1.39826
1.40097
1.40001
1.37124
1.40001
1.40001
1.40002
1.38475
1.4
1.47169
1.42676
1.4
1.4
1.40001
1.40439
1.44613
1.39979
1.36282
1.40001
1.40001
1.4
0.929229
1.40001
1.39901
1.40645
1.40001
1.40001
1.4
1.40001
1.40116
1.4
1.4
1.44526
1.40001
1.40001
1.40001
1.40538
1.40001
1.4
1.40001
1.40128
1.4
1.39625
1.40001
1.40001
1.31715
1.4
1.39927
1.40002
1.40001
1.40001
1.4
1.4
1.40001
1.40001
1.39752
1.46354
1.40001
1.40023
1.40001
1.42892
1.40001
1.40021
1.42172
0.919606
1.40001
1.40005
1.39997
1.40001
1.4
1.39499
1.4
1.40001
1.4
1.40005
1.39465
1.43226
1.41326
1.40177
1.4
1.40001
1.40001
1.40001
1.43317
1.44503
1.4
1.40001
1.40001
1.40001
1.4
1.33878
1.40001
1.39901
1.40001
1.39999
1.40003
1.40001
0.756686
1.4
1.39515
1.40001
1.40001
1.40001
1.39861
1.40001
1.37702
1.40005
1.46459
1.40001
1.4015
1.39961
1.44028
1.4
1.40039
1.40001
1.40001
1.40001
1.40001
1.4164
1.40001
1.06808
0.694504
1.40001
1.4
1.40245
1.4
1.46649
0.797269
1.39992
1.4
1.40001
1.40001
1.45226
1.39999
1.40001
1.40118
1.40001
1.40132
1.40001
1.4
1.4
1.39948
1.40001
1.40001
1.40001
1.4
1.40001
1.40001
1.41287
1.39146
1.44486
1.40001
1.40367
1.40001
1.4
1.29223
1.40001
1.40001
1.46222
1.40001
1.40001
1.3958
1.40001
1.40001
1.40013
1.40001
1.40455
1.4013
1.40046
1.40796
1.40001
1.40302
1.40001
1.40005
1.4
1.39669
1.40001
1.40001
1.43279
1.40982
1.40001
1.39039
1.4
1.39753
1.39999
1.40001
1.4
1.4016
1.4
1.45742
1.40001
1.4
1.45171
1.40001
1.22066
1.40001
1.40001
1.40644
1.40001
1.40001
1.43659
1.40001
1.40001
1.40215
1.40084
1.41679
1.4
1.40035
1.40073
1.39983
1.40003
1.4
1.40001
1.40001
1.40001
1.40219
1.40001
1.4
1.40001
1.40001
1.40001
1.40001
1.40068
1.40001
1.40001
1.40001
1.39624
1.40706
1.40001
1.40003
1.40001
1.40001
1.45189
1.4
1.40001
1.39999
1.40421
1.40003
1.40001
1.40123
1.4
1.4
1.40001
1.40001
1.40005
1.40001
1.40001
1.4
1.40001
1.39989
1.42209
1.44224
1.40122
1.40001
1.4
1.4
1.40001
1.39043
1.40012
1.43955
1.43828
1.40001
1.40001
1.40001
1.40001
1.41618
1.40001
1.4
1.31116
1.40001
1.40001
1.40001
1.39289
1.4
1.40001
1.4
1.40001
1.39692
1.36171
1.4
1.42055
1.39757
1.44745
1.40003
1.40001
1.39831
1.40001
1.45711
1.40001
1.40003
1.40001
1.40014
1.40001
1.40241
1.42312
1.39292
1.40168
1.39999
1.4
1.40001
1.40001
1.39963
1.40001
1.40008
1.40423
1.28264
1.43913
1.40001
1.4
1.4
1.4
1.40001
1.40001
1.40001
1.40001
1.41945
1.40001
1.40001
1.40001
1.40374
1.40001
1.4
1.40001
1.40001
1.40001
1.38277
1.4
1.40001
1.40001
1.4
1.39877
1.40001
1.40001
1.40001
1.40002
1.40001
1.4
1.40001
1.40001
1.23625
1.40001
1.40001
1.4
1.40011
1.4
1.4
1.40001
1.4001
1.40001
1.40001
1.40001
1.40001
1.39926
1.40001
1.40001
1.40001
1.4
1.40002
1.40001
1.40001
1.40001
1.40001
1.26682
1.46793
1.40001
1.44523
1.39998
1.46074
1.40001
1.40001
1.40001
1.4
1.40001
1.40001
1.4
1.40001
1.40001
1.80061
1.40056
1.39995
1.40001
1.40001
1.40005
1.40001
1.40001
1.40001
1.29761
1.40001
1.40001
1.40001
1.40001
1.4
1.39957
1.4
1.40001
1.40001
1.40001
1.39997
1.28338
1.40001
1.4011
1.39654
1.4041
1.4
1.39934
1.40001
1.40028
1.40001
1.40001
1.40001
1.40001
1.40001
1.4
1.4
1.40104
1.42065
1.40001
1.4047
1.39999
1.40001
1.40001
1.40001
1.40082
1.40001
1.4
1.4
1.39495
1.40001
1.36728
1.40001
1.40957
1.40165
1.40001
1.40001
1.40042
1.42765
1.40001
1.40057
1.4
1.40038
1.40001
1.40001
1.40001
1.39934
1.40001
1.4
1.40001
1.40001
1.39998
1.40001
1.36595
1.4
1.40001
1.46853
1.40001
1.39958
1.40243
1.40001
1.40001
1.4
1.4
1.40132
1.40001
1.40001
1.40002
1.40001
1.40001
1.40954
1.36131
1.40001
1.40296
1.40001
1.40001
1.40022
1.4
1.40001
1.40002
1.40001
1.40001
1.39999
1.35203
1.40001
1.40001
1.40002
1.39628
1.39918
1.39928
1.39856
1.40001
1.40123
1.4
1.40001
1.40009
1.40001
1.4004
1.40992
1.39888
1.39537
1.4
1.40005
1.4
1.40001
1.43336
1.40721
1.4
1.39996
1.40001
1.40001
1.40001
1.39986
0.925198
1.40161
1.29889
1.40001
1.40001
1.39518
1.39568
1.45562
1.40001
1.40001
1.4
1.39356
1.4
1.40001
1.4
1.48942
1.39993
1.40001
1.38419
1.40001
1.40001
1.40001
1.40001
1.40005
1.40001
1.40001
1.40001
1.4
1.4
1.37751
1.4001
1.40057
1.40001
1.31944
1.4
1.40001
1.40001
1.42811
1.40001
1.40001
1.20812
1.40024
1.42996
1.40001
1.40001
1.4
1.40001
1.40001
1.40001
1.43922
1.40001
1.39947
1.40001
1.41123
1.43842
1.40028
1.40001
1.40001
1.4
1.40001
1.40001
1.42457
1.40004
1.40043
1.40011
1.40185
1.45766
1.43085
1.40001
1.4
1.40001
1.4
1.40205
1.4
1.40001
1.40005
1.4
1.40611
1.40023
1.40001
1.4
1.17424
1.40001
1.40003
1.4
1.40001
1.40001
1.4
1.40001
1.40001
1.44135
1.39246
1.40001
1.40016
1.40642
1.4
1.40001
1.40001
1.45544
1.4
1.40001
1.39999
1.39996
1.40001
1.40004
1.39999
1.40017
1.40001
1.4
1.41305
1.4
1.40001
1.39999
1.40001
1.4
1.3995
1.39863
1.40001
1.44769
1.4085
1.40001
1.39997
1.40002
1.35191
1.40001
1.41404
1.40001
1.40001
1.40001
1.03794
1.40009
1.40018
1.40001
1.40001
1.40001
1.40075
1.40001
1.41138
1.40002
1.40001
1.40001
1.39981
1.40001
1.4
1.40001
1.40001
1.40001
1.40091
1.40001
1.4
1.40001
1.41878
1.40005
1.39754
1.40013
1.40001
1.39999
1.39999
1.40001
1.4
1.40001
1.40013
1.40924
1.40031
1.40007
1.40009
1.39194
1.42581
1.4
1.40001
1.4
1.40001
1.40163
1.4
1.4
1.40001
1.40001
1.40001
0.572003
1.4
0.647216
1.40001
1.40005
1.40001
1.39982
1.40009
1.40008
1.39722
1.45221
1.40052
1.40001
1.44857
1.40001
1.41252
1.41587
1.40001
1.40001
1.40245
1.40001
1.40134
1.41424
1.4
1.40001
1.4
1.4
1.40001
1.40001
1.55622
1.39666
1.40001
1.40001
1.39202
1.40001
1.40001
1.41331
0.767585
1.40001
1.40001
1.40255
1.40001
1.40002
1.19168
1.44926
1.4
1.4
1.39999
1.40005
1.4
1.40001
1.40009
1.39998
1.4
1.40001
1.40001
1.4
1.40158
1.40077
1.40001
1.40001
1.45314
1.41221
1.40001
1.4
1.39526
1.40001
1.40001
1.40001
1.40001
1.4
1.40001
1.40001
1.40001
1.45272
1.40001
1.46634
1.39617
1.40019
1.40001
1.4636
1.40001
1.4
1.30973
1.40001
1.43511
1.4
1.43838
1.40001
1.40001
1.40001
1.4
1.40001
1.39995
1.40001
1.40157
1.40001
1.42041
1.40001
1.40001
1.40001
1.40001
1.40001
1.40001
1.40001
1.40001
1.40001
1.40001
1.41571
1.40445
1.4
1.24805
1.40001
1.26796
1.39965
1.40001
1.40006
1.4
1.40001
1.40001
1.40013
1.39927
1.40002
1.40684
1.4722
1.4
1.40001
1.40001
1.40003
1.40001
1.40001
1.40001
1.40001
1.40001
1.72522
1.46916
0.822713
1.40001
1.40001
1.42095
1.4
0.969749
1.4
1.40012
1.40001
1.40001
1.4001
1.19279
1.4
1.40001
1.40001
1.39963
1.40211
1.40002
1.4
1.40004
1.40001
1.44906
1.40001
1.40001
1.40017
1.44098
1.40001
1.40001
1.41971
1.40003
1.36502
1.40005
1.40001
1.40008
1.40001
1.40001
1.40001
1.39996
1.40001
1.4
1.40001
1.40001
1.44308
1.40001
1.40002
1.40001
1.40001
1.40141
1.3964
1.40001
1.40001
1.40001
1.40001
1.4
1.40009
1.40001
1.4
1.47287
1.40012
1.40006
1.40001
1.40001
1.13426
1.39966
1.40079
1.40001
0.954843
1.41637
1.40001
1.4
1.40001
1.4
1.40001
1.40001
1.4
1.40001
1.40001
1.4
1.4283
1.40006
1.40001
1.39998
1.40001
1.41034
1.4006
1.3998
1.40002
1.44539
1.40001
1.40001
1.40001
1.4
1.40001
1.40001
1.45322
1.39995
1.40001
1.4
1.40001
1.40007
1.40001
1.40003
1.41783
1.45796
1.39239
1.40001
1.40004
1.4
1.4056
1.40001
1.40001
1.39999
1.40001
1.4
1.40035
1.41671
1.28584
1.40001
1.40001
1.4
1.43536
1.40001
1.03084
1.4
1.40001
1.40001
1.40913
1.39862
1.4
1.40001
1.40001
1.42211
1.42581
1.4
1.40002
1.40027
1.39998
1.4
1.40004
1.35283
1.40001
1.40001
1.40018
1.40001
1.40001
1.40008
1.40001
1.40001
1.40003
1.40001
1.40083
1.4
1.40001
1.40138
1.44688
1.3997
1.42443
1.4
1.40013
1.40055
1.34482
1.40001
1.39999
1.45215
1.25453
0.669538
1.40001
1.40001
1.40001
1.40001
1.40001
1.39999
1.40001
1.40001
1.39936
1.40001
1.4
1.34816
1.40001
1.40001
1.4
1.40001
1.40001
1.41256
1.4
1.40001
1.40001
1.40001
1.41946
1.40002
1.40001
1.40001
1.40001
1.40167
1.4
1.43787
1.40088
1.4
1.40001
1.4
1.40008
1.4
1.40001
1.4
1.40035
0.545407
1.40001
1.40677
1.4
1.4
1.4
1.40001
1.4
1.4
1.45921
1.40001
1.40001
1.40001
1.40001
1.38426
1.40082
1.4
1.40001
1.39999
1.4
1.40015
1.40001
1.46184
1.39491
1.40001
1.40001
1.4
1.40117
1.16803
1.40001
1.4
1.40001
1.41174
1.40001
1.40001
1.4
1.40001
1.36971
1.4
1.40392
1.39981
1.40001
1.32837
1.40108
1.4
1.39358
1.39995
1.34579
1.40001
1.40364
1.40301
1.40001
1.40036
1.40001
1.40001
1.40001
1.40001
1.4
1.40748
1.40001
1.40001
1.4002
1.4
1.40031
1.40001
1.40102
1.39989
1.44234
1.40001
1.40852
1.22797
1.40523
1.41512
1.4001
1.40032
1.36358
1.40001
1.39464
1.40072
1.40928
1.40001
1.40001
1.40019
1.41304
1.40001
1.40039
1.40001
1.40001
1.39995
1.40001
1.40001
1.39648
1.4
1.40001
1.40001
1.4
1.4233
1.40038
1.40029
1.4
1.40001
1.40011
1.4
1.40001
1.44264
1.40001
1.40001
1.40094
1.4
1.40075
1.40736
1.40001
1.40065
1.40001
1.4
1.40908
1.40001
1.40001
1.40001
1.39999
1.40206
1.39899
1.40001
1.40608
1.40001
1.44916
1.4
1.4
1.40001
1.40001
1.40001
1.40001
1.40048
1.40002
1.40001
1.40001
1.40389
1.42688
1.40001
1.39999
1.40001
1.40001
1.40001
1.4
1.4
1.40001
1.4
1.4
1.28824
1.40001
1.4
1.4408
1.39946
1.40001
1.4
1.32024
1.4
1.40001
1.41805
1.40001
1.39997
1.40001
1.39998
1.4
1.41427
1.40001
1.40861
1.37198
1.40027
1.40001
1.40001
1.40001
1.40001
1.40001
1.39216
1.40001
1.40505
1.40001
1.40001
1.40001
1.39999
1.40001
1.38055
1.40927
1.38763
1.39998
1.40001
1.09186
1.4518
1.4
1.39953
1.40001
1.40001
1.21433
1.40001
1.4001
1.40001
1.40001
1.40001
1.4
1.40001
1.4
1.40001
1.40001
1.40001
1.4
1.4
1.40001
1.40001
1.4
1.40001
1.39999
1.40001
1.39747
1.40002
1.40001
1.39996
1.4
1.40377
1.40001
1.40002
1.40001
1.39995
1.38557
1.40227
1.45026
1.40001
1.39914
1.4
1.40001
1.40014
1.42551
1.40011
1.39994
1.40099
1.40001
1.40227
1.40001
1.54971
1.40001
1.4
1.40001
1.40001
1.39983
1.40001
1.33526
1.4
1.4
1.40001
1.39674
1.40001
1.40001
1.40263
1.40002
1.40001
1.40001
1.40001
1.40001
1.34797
1.40002
1.4264
1.28268
1.4
1.44915
1.40001
1.40001
1.39886
1.40001
1.40001
1.40001
1.40001
1.42855
1.40001
1.40001
1.4
1.42187
1.39966
1.40544
1.40062
1.40001
1.40001
1.4
1.4
1.40001
1.3813
1.40001
1.33698
1.40001
1.3954
1.40111
1.40001
1.39949
1.40029
1.40001
1.40001
1.40024
1.40001
1.39967
1.39997
1.40001
1.40117
1.39993
1.39998
1.4003
1.4
1.39999
1.40001
1.40191
1.40001
1.40001
1.40001
1.42772
1.37376
1.40007
1.40001
1.45906
1.40331
1.40077
1.40001
1.32535
1.40001
1.40001
1.40002
1.40001
1.40001
1.4
1.40665
1.4
1.4
1.40001
1.4
1.40001
1.40001
1.4
1.34736
1.40001
1.40001
1.40001
1.4
1.39997
1.40001
1.43979
1.4
1.4
1.39882
1.40005
1.39902
1.39991
1.40003
1.39999
1.40001
1.4
1.40001
1.40061
1.39999
1.40019
1.40068
1.40001
1.40001
1.40001
1.48524
1.4
1.40001
1.39485
1.39996
1.40002
1.40001
1.40001
1.4
1.37215
1.4
1.40001
1.40001
1.40022
1.40001
1.40001
1.3957
1.48533
1.40001
1.39998
1.4
1.40071
1.40001
1.23423
1.40001
1.39996
1.4
1.40001
1.36914
1.42136
1.40056
1.42705
1.23961
1.32565
1.4539
1.40034
1.39987
1.40855
1.45081
1.44685
1.4
1.4
1.34191
1.40001
1.40001
1.44522
1.40004
1.39997
1.37725
1.4
1.5037
1.40001
1.40001
1.40001
1.46607
1.40001
1.40001
1.40001
1.40001
1.39883
1.39616
1.40001
1.39998
1.4
1.4
1.41496
1.4
1.40003
1.40001
1.40001
1.47083
1.40001
1.40001
1.40097
1.41524
1.40001
1.4
1.40001
1.40001
1.73191
1.40001
1.39995
1.44355
1.43728
1.39905
1.40001
1.39342
1.39911
1.40043
1.4624
1.40227
1.40001
1.40001
1.40001
1.40001
1.40001
1.4
1.40001
1.40099
1.40001
1.40001
1.40001
1.4
1.40001
1.40004
1.45296
1.40051
1.40001
1.44085
1.38351
1.39633
1.43489
1.40001
1.40001
1.40001
1.39982
1.36726
1.40371
1.47348
1.40001
1.40001
1.39999
1.40003
1.50256
1.40001
1.41771
1.48574
1.40001
0.706764
1.40001
1.40001
1.40001
1.40003
1.40021
1.40001
1.40001
1.40001
0.906662
1.41397
1.39803
1.40001
1.4
1.40001
1.40001
1.40001
0.698948
1.40001
1.39597
1.4
1.40001
1.4
1.40012
1.40001
1.4
1.40001
1.40001
1.40001
1.44878
1.40507
1.4
1.40001
1.39173
1.4
1.4014
1.4
1.40001
1.4
1.40004
1.40001
1.40001
1.19724
1.44876
1.40513
1.40002
1.40001
1.40001
1.40001
1.40001
1.44951
1.40024
1.41733
1.40001
1.40001
1.40145
1.40001
1.40001
1.42931
1.37729
1.42311
1.4545
1.40001
1.4
1.40001
1.40002
1.40069
1.397
1.42955
1.42637
1.39998
1.39997
1.4
1.39665
1.16366
1.40001
1.40001
1.40001
1.40129
1.40001
1.40066
1.40002
1.41288
1.42417
1.40002
1.41138
1.4
1.4
1.39997
1.40001
1.40001
1.42535
1.40001
1.4
1.40105
1.39605
1.4
1.44013
1.40001
1.40028
1.40019
1.4
1.42344
1.40001
1.4
1.44949
1.38571
1.40001
1.44509
1.45298
1.4
1.40001
1.40001
1.40001
1.40001
1.40001
1.40001
1.39699
1.4
1.4
1.47469
1.22827
1.40099
1.40001
1.40001
1.40001
1.40003
1.40001
1.42539
1.40227
1.39939
1.29356
1.40001
1.4
1.4113
1.40001
1.40001
1.40001
1.4
1.4
1.40004
1.40208
1.40001
1.40001
1.22839
1.4
1.40001
1.39621
1.40001
1.40016
1.40001
1.39997
1.40001
1.40001
1.40001
1.40001
1.40001
1.4
1.40001
1.41861
1.40001
1.40001
1.39965
1.39195
1.40001
1.4
1.40032
1.4
1.40001
1.40001
1.40001
1.40001
1.40001
1.40018
1.40001
1.40001
1.40001
1.42608
1.40001
1.4
1.4
1.41738
1.40001
1.4
1.4001
1.40001
1.26697
1.40001
1.4
1.40001
1.39999
1.41061
1.40013
1.39945
1.40001
1.40001
1.40001
1.39828
1.4
1.24049
1.40001
1.40001
1.40001
1.39986
1.3995
1.40001
1.40001
1.39654
1.40001
1.40032
1.40001
1.45948
1.40046
1.41477
1.40001
1.40001
1.46351
1.40001
1.4005
1.40001
1.40001
1.40001
1.39992
1.40001
1.40001
1.44232
1.40001
1.40001
1.39993
1.4
1.39995
1.4
1.40001
1.39996
1.4
1.40006
1.40001
1.40008
1.29302
1.44186
1.41195
1.40001
1.39993
1.39999
1.4
1.40001
1.40001
1.37786
1.4027
1.40001
1.40001
1.40157
1.4
1.40581
1.43192
1.40002
1.4
1.40001
1.40001
1.40001
1.4058
1.40022
1.41286
1.40086
1.40001
1.4
1.40374
1.40029
1.40001
1.4
1.40001
1.40001
1.40001
1.4
1.40001
1.4
1.4
1.4
1.42862
1.40001
1.39975
1.45502
1.4
1.39939
1.4
1.40001
1.44367
1.47164
1.40047
1.4
1.40001
1.40001
1.40001
1.39999
1.40001
1.39998
1.40793
1.40068
1.40001
1.3861
1.40001
1.39927
1.40057
1.40001
1.40064
1.37943
1.49324
1.40001
1.30946
1.40009
1.44258
1.4
1.4
1.39991
1.4
1.39991
1.40001
1.53265
1.40001
1.40079
1.39603
1.36495
1.40001
1.34
1.40001
1.40003
1.40004
1.40001
1.40005
1.4
1.40001
1.4
1.40001
1.40001
1.4
1.4
1.40001
1.38664
1.4
1.40138
1.35413
1.37366
1.40001
1.40001
1.46006
1.41557
1.40001
1.40001
1.40093
1.44312
1.45021
1.40005
1.40001
1.40001
1.02503
1.43148
1.40001
1.40001
1.40001
1.40001
1.4
1.40001
1.40002
1.40792
1.42244
1.48837
1.728
1.40044
1.27697
1.40001
1.40445
1.40001
1.4
1.43722
1.40004
1.40016
1.40001
1.41207
1.40001
1.40001
1.4
1.40001
1.40001
1.38957
1.40008
1.4
1.40001
1.40001
1.40062
1.22104
1.40001
1.40001
1.4
1.40001
1.40001
1.45635
1.40001
1.40001
1.45918
1.40063
1.40001
1.40001
1.40203
1.40001
1.40001
1.40001
1.40001
1.40001
1.4003
1.40001
1.4589
1.40001
1.39999
1.4
1.40001
1.40001
1.4
1.42605
1.40001
1.44864
1.4221
1.42704
1.40001
1.40001
1.40142
1.41293
1.4185
1.40001
1.45116
1.40001
1.3999
1.21151
1.40001
1.1778
1.40001
1.40001
1.4
1.40001
1.40001
1.41901
1.40001
1.37635
1.40001
1.38735
1.40001
1.40025
1.40001
1.40001
1.4
1.40001
1.40001
1.40001
1.3994
1.4
1.40005
1.40001
1.54715
1.40002
1.39768
1.4
1.40001
1.39901
1.4
1.40001
1.40001
1.48755
1.46952
1.40004
1.40001
1.40001
1.40001
1.40045
1.40001
1.40001
1.21758
1.44039
1.39999
1.43991
1.40001
1.40454
1.40379
1.4004
1.40001
1.4
1.37364
1.39998
1.40076
1.40001
1.4
1.40001
1.41227
1.40001
1.40001
1.40001
1.4
1.4
1.40001
1.4
1.39996
1.45545
1.40001
1.24501
1.40009
1.4
1.40034
1.44206
1.39876
1.40001
1.35852
1.40001
1.4
1.40001
1.40001
1.40001
1.41486
1.40001
1.4
1.40001
1.43304
1.39991
1.40001
1.40117
1.4
1.40549
1.40001
1.40001
1.43194
1.42337
1.40001
1.4
1.39918
1.40001
1.29851
1.4
1.40001
1.40056
1.4
1.4
1.43284
1.39993
1.39999
1.4
1.40001
1.4
1.40001
1.42922
1.40001
1.20591
1.40233
1.40001
1.40114
1.4
1.4001
1.40001
1.4
1.33976
1.39938
1.40001
1.40001
1.4
1.40001
1.40001
1.43225
1.40001
1.40001
1.40001
1.40021
1.41559
1.39657
1.40001
1.42219
1.40001
1.39941
1.40546
1.4
1.40001
1.40001
1.40001
1.34838
1.4
1.42184
1.41109
1.40001
1.40001
1.40002
1.40001
1.40001
1.40001
1.40016
1.40001
1.4
1.4
1.40001
1.40001
1.40002
1.40004
1.40001
1.48882
1.4001
1.45846
1.4
1.39979
1.39938
1.40001
1.39815
0.734465
1.3998
1.40001
1.1702
1.40001
1.40006
1.39938
1.44083
1.40001
1.4
1.3964
1.4
1.40001
1.4
1.4
1.39971
1.40001
1.44668
1.40103
1.43608
1.40001
1.40048
1.40021
1.40001
1.40001
1.40001
1.39999
1.40001
1.40834
1.42027
1.4
1.40051
1.31635
1.40047
1.14525
1.44572
1.40848
1.405
1.40003
1.40746
1.40116
1.4
1.46307
1.40003
1.40001
1.40005
1.4
1.40001
1.45439
1.42766
1.40001
1.40001
1.52247
1.40001
1.39999
1.39821
1.45138
1.40001
1.40767
1.40001
1.4
1.4
1.42202
1.4
1.40001
1.40001
1.40001
1.42171
1.40005
1.4
1.3935
1.4
1.40001
0.88221
1.40001
1.41446
1.39999
1.39999
1.40001
1.40001
1.4
1.40001
1.4
1.40001
1.40001
1.4
1.4
1.39997
1.40005
1.40001
0.959688
1.40001
1.40001
1.39197
1.40001
1.40102
1.40001
1.40001
1.40075
1.40001
1.4
1.40001
1.4
1.40001
1.4
1.40001
1.40001
1.4
1.40001
1.40001
1.4
1.40001
1.39998
1.40123
1.40199
1.39983
1.40001
1.43467
1.43543
1.39999
1.39999
1.40001
1.40015
1.43724
1.40001
1.40001
1.40001
1.44629
1.40001
1.40001
1.17811
1.40001
1.4
1.40001
1.40001
1.40001
1.40063
1.40001
1.40013
1.40001
1.41204
1.40001
1.40001
1.3992
1.40001
1.39999
1.45979
1.40001
1.40001
1.33112
1.28905
1.40001
1.40002
1.40001
1.40001
1.40001
1.36806
1.39988
1.4
1.41651
1.3291
1.00007
1.4
0.984822
1.4
1.40001
1.40001
1.40001
1.40001
1.40001
1.41439
1.40112
1.1689
1.40005
1.40309
1.40007
1.40001
1.40001
1.40015
1.40001
1.40001
1.39999
1.40001
1.40095
1.39978
1.4002
1.40001
1.40001
1.40001
1.40001
1.40001
1.429
1.40001
1.40004
1.4
1.40001
1.7944
1.40001
1.39996
1.4
1.40001
1.40003
1.43369
1.40861
1.40001
1.40001
1.40001
1.40001
1.40001
1.40057
1.39615
1.40001
1.40001
1.40001
1.40001
1.40001
1.40001
1.40753
1.40001
1.40001
1.40001
1.45883
1.40001
1.39315
1.40001
1.40001
1.40001
1.44719
1.40001
1.40001
1.4014
1.4
1.40248
1.39997
1.4
1.40001
1.40001
1.40001
1.40293
1.40001
1.4001
1.40002
1.39998
1.4
0.923782
1.40001
1.40788
1.40001
1.40001
1.45432
1.40008
1.45942
1.49319
1.40307
1.40001
1.48427
1.4
0.706846
1.40001
1.40612
1.40001
1.40001
1.4
1.40001
1.42594
1.39004
1.41225
1.4
1.35618
1.40383
1.39485
1.40001
1.33744
1.40002
1.40001
1.40001
1.40053
1.40061
1.4
0.657569
1.40001
1.4
1.40007
1.39805
1.33808
1.40154
1.40001
1.40001
1.4085
1.4
1.39998
1.40032
1.40008
1.40001
1.40001
1.40001
1.40001
1.4023
1.40326
1.45119
0.948983
1.4
1.40001
1.40001
1.40001
1.39756
1.39233
1.40145
1.39849
1.40001
1.40001
1.4115
1.40001
1.40001
1.40001
1.40014
1.46152
1.39373
1.40015
1.40001
1.3994
1.40135
1.39668
1.40001
1.22289
1.40001
1.1676
1.40001
1.39934
1.39999
1.40165
1.40001
1.18177
1.02881
1.4
1.40001
1.40001
1.40128
1.45035
1.40001
1.4
1.40001
1.4
1.4585
1.40001
1.40001
1.40159
1.4092
1.40001
1.40001
1.40466
1.35129
1.40001
1.40002
1.1405
1.40001
1.39991
1.40001
1.40001
1.40001
1.40001
1.40001
1.4
1.40001
1.40042
1.40001
1.40001
1.4
1.40001
1.40001
1.4
1.40001
1.40001
1.39867
1.4
1.40039
1.40039
1.4
1.37222
1.40001
1.40001
1.40001
1.39992
1.40001
1.34784
1.4
1.40001
1.40002
1.40001
1.40001
1.40001
1.40001
1.40001
1.46258
1.40001
1.4
1.39999
0.854523
1.4
1.3647
1.40001
1.44536
1.4
1.40005
1.40001
0.966519
1.40001
1.40001
1.40825
1.40001
1.4
1.44972
1.39801
1.35032
0.89385
1.40001
1.40001
1.40001
1.61565
1.40001
1.40001
1.40943
1.40001
1.40001
1.40001
1.4
1.40001
1.4
1.41106
1.40001
1.40001
1.40001
1.40001
1.41091
1.4
1.40001
1.40001
1.39483
1.40001
1.40001
1.40001
1.40001
1.40001
1.40001
1.40001
1.40172
1.40001
1.40001
1.40001
1.40001
1.40001
1.40011
1.39658
1.40001
1.40001
1.40001
1.4
1.40001
1.39977
1.40001
1.40001
1.40001
1.40001
1.40769
1.00722
1.40001
1.39831
1.4
1.402
1.40001
1.39998
1.40001
1.40247
1.42373
1.4
1.40001
1.49204
1.41998
1.40001
1.39488
1.40001
1.40001
1.04191
1.40001
1.40001
1.4003
1.40001
1.40001
1.40124
0.912292
1.40001
1.40001
1.4
1.40001
1.40001
1.39956
1.40001
1.40001
1.4164
1.40001
1.40001
1.40001
1.40001
1.40001
1.40196
1.3978
1.40001
1.4
1.40001
1.40001
1.40001
1.40001
1.40001
1.4
1.40001
1.40001
1.32591
1.41585
1.40004
1.40001
1.40001
1.37821
1.40001
1.4
1.40001
1.40001
1.40001
1.40001
1.40064
1.40001
1.35928
1.40001
1.40001
1.40001
1.40002
1.40001
1.40001
1.43437
1.40399
1.40001
1.40001
1.34122
1.40001
1.40001
1.40001
1.463
1.40001
1.4
1.40001
1.4
1.40001
1.40001
1.40001
1.40002
1.40043
0.957159
1.40001
1.4
1.4
1.40001
1.40035
1.40001
1.40001
1.4
1.40001
1.4006
1.4001
1.40001
1.40001
1.40001
1.40001
1.40001
0.982095
1.40001
1.4
1.40001
1.40001
1.40001
1.40001
1.38771
1.40001
1.35189
1.4
1.40006
1.45837
1.39692
1.40001
1.39999
1.40001
1.32792
1.40005
1.40001
1.40001
1.40001
1.40001
1.40001
1.43508
1.4
1.39994
1.40023
1.4
1.4
1.40001
1.42552
1.40001
1.32684
1.39998
1.40045
1.34558
1.40001
1.40001
1.40662
1.40001
1.44623
1.40001
1.40001
1.40001
1.4
1.40124
1.40001
1.40001
1.40001
1.40001
1.40575
1.4
1.40001
1.42543
1.40001
1.4
1.41762
1.01815
1.45159
1.40001
1.4257
1.4
1.40005
1.47967
1.40748
1.40001
1.4
1.40363
1.40001
1.40012
1.40027
1.40001
1.40001
1.40001
1.40001
1.39985
1.4
1.40001
1.43938
1.40001
1.48476
1.40001
1.40001
1.40001
1.40001
1.37849
1.40001
1.40001
1.40001
1.3998
1.40001
1.4
1.4
1.69983
1.39455
1.4
1.40001
1.40001
1.39994
1.40001
1.39984
1.40001
1.46126
0.900029
1.39654
1.4
1.39989
1.40001
1.39991
1.38128
1.39999
1.40001
1.4031
1.40001
1.4
1.40001
0.621014
1.40001
1.39999
1.48312
1.39666
1.40007
1.40749
1.40148
1.3999
1.4
1.30635
1.40001
1.4
1.39953
1.40002
1.40001
1.40018
1.40001
1.39998
1.40001
1.40001
1.40023
1.40001
1.4
1.35298
1.40001
1.40001
1.40001
1.4
1.39809
1.40001
1.39768
1.40001
1.39978
1.40001
1.40001
1.40006
1.40001
1.40028
1.39999
1.40008
1.39997
1.40001
1.40001
0.672332
1.4
1.40001
1.40001
1.40001
1.40017
1.40013
1.40637
1.40001
1.4
1.4
1.4
1.40001
1.40677
1.40001
1.40001
1.40001
1.46014
1.40001
1.40001
1.40004
1.40001
1.40259
1.40003
1.40001
1.415
1.40001
1.40001
1.41171
1.41261
1.40067
1.4
1.40001
1.40001
1.40001
1.39991
1.13862
1.43341
1.39995
1.40451
1.40001
1.40001
1.40001
1.40001
1.4
1.39989
1.4
1.51716
1.39999
1.42422
1.40001
1.4
1.40001
1.4
1.40001
1.40001
1.40001
1.40001
1.40001
1.39906
1.39997
1.39616
1.42879
1.40001
1.541
1.40097
1.39954
1.40001
1.40001
1.39852
1.39999
1.4
1.43495
1.4
1.40001
1.40001
1.39367
1.46259
1.40001
1.40001
1.40001
1.40001
1.40003
1.40001
1.40169
1.4
1.40001
1.12612
1.4
1.4
1.39982
1.40001
1.24779
1.40001
1.4
1.4
1.40001
1.40001
1.39795
1.40001
1.40001
1.40001
1.40001
1.39999
1.40003
1.4
1.40388
1.40001
1.39997
1.39999
1.40001
1.40008
1.4
1.40001
1.40001
1.4
1.40001
1.4132
1.40001
1.40763
1.40001
1.40001
1.41058
1.40022
1.4
1.40001
1.40001
1.42803
1.40001
1.40001
1.33027
1.40001
1.41451
1.44952
1.40001
1.40001
1.40001
1.44332
1.4
1.40537
1.41764
1.39987
1.39997
1.38908
1.40363
1.40001
1.4019
1.40002
1.39967
1.40008
1.40001
1.40677
1.40012
1.40032
0.694925
1.40019
1.40248
1.40001
1.40001
1.4
1.40001
1.39995
1.40001
1.3997
1.34726
1.40001
1.40001
1.40001
1.40001
1.4
1.40001
1.40001
1.40001
1.40001
1.40001
1.40001
1.40001
1.40001
1.40001
1.40001
1.4
1.40001
1.40001
1.40002
1.40015
1.4
1.40001
1.40001
1.02286
1.40002
1.40001
1.40001
1.40001
1.40004
1.4
1.4
1.39898
1.426
1.4
1.40586
1.40001
1.40001
1.4
1.40001
1.4
1.41638
1.39998
1.40001
1.40001
1.39904
1.40001
1.40001
1.40001
1.16864
1.40001
1.40001
1.40001
1.40097
1.40001
1.40001
1.40001
1.40003
1.40021
1.39981
1.40001
1.40001
1.40001
1.40001
1.40001
1.40001
1.39911
1.40001
1.40002
1.4
1.40001
1.40001
0.833251
1.4
1.40001
1.40001
1.4
1.40001
1.40003
1.39888
1.40001
1.4
1.44122
1.40365
1.40068
1.4
1.40001
1.40001
1.40001
1.40001
1.40001
1.40001
1.40001
1.4
1.4
1.4
1.40005
1.40001
1.40001
1.40001
1.40001
1.40001
1.40001
1.40001
1.40001
1.40952
1.0686
1.43651
1.4
1.40001
1.40373
1.40001
1.13502
1.40001
1.4
1.4
1.40001
1.40001
1.40001
1.4065
1.4
1.39998
1.40001
1.39648
1.40328
1.40234
1.40001
1.40001
1.40002
1.40001
1.39985
1.39999
1.40001
1.40006
1.4
1.4
1.39995
1.42369
1.4
1.40001
1.40001
1.39935
1.40001
1.40001
1.40001
1.4
1.40001
1.39995
1.40015
1.40314
1.40001
1.40004
1.4001
1.4018
1.39998
1.39991
1.40001
1.40001
1.40001
1.39999
1.37399
1.40018
1.40002
1.39995
1.39978
1.40001
1.4
1.40001
1.4116
1.35088
1.40001
1.4
1.4
1.40001
1.40001
1.40108
1.40001
1.4
1.40001
1.4
1.4
1.40001
1.4
1.40001
1.31222
1.40001
1.40001
1.40001
1.40072
1.40001
1.40158
1.40001
1.40001
1.42212
1.40001
1.40001
1.40001
1.4
1.39983
1.40001
1.40001
1.40961
1.40001
1.4
1.40383
1.39955
1.40001
1.40001
1.35565
1.40284
1.40001
1.40001
1.40001
1.34084
1.41185
1.40024
1.40001
1.39969
1.4
1.40005
1.40129
1.40001
1.39987
1.40003
1.40001
1.45733
1.40001
1.40002
1.40001
1.40001
1.40375
0.851949
1.39999
1.40023
1.30807
1.40001
1.40001
1.40001
1.40001
1.40001
1.22269
1.39983
1.40001
1.40001
1.40001
1.40001
1.23128
1.40001
1.40001
1.40886
1.39997
1.40001
1.40001
1.39956
1.40001
1.40001
1.40001
1.40001
1.40001
1.40001
1.40012
1.40001
1.39962
1.1879
1.40282
1.40014
1.40001
1.37691
1.40001
1.39996
1.40001
1.3966
1.4
1.4
1.4101
1.40001
1.40001
1.39869
1.40001
1.40001
1.40572
1.40001
1.40001
1.40001
1.45616
1.40001
1.35519
1.40001
1.40001
1.40001
1.40001
1.31825
1.4
1.40001
1.40001
1.40001
1.41166
1.4019
1.39828
1.4
1.40001
1.40106
1.40077
1.40056
1.40001
1.40593
1.40001
1.40001
1.40001
1.40001
1.45738
1.40108
1.40001
1.40001
1.4
1.40001
1.40001
1.40001
1.40001
1.46291
1.4
1.33735
1.40001
1.4
1.40003
1.40001
1.40005
1.40001
1.36748
1.39563
1.40001
1.40002
1.4395
1.40001
1.40001
1.40001
1.40001
1.38254
1.40001
1.5894
1.4
1.4
1.40001
1.4001
1.40001
1.40001
1.40001
1.39994
1.40001
1.40238
1.4
1.40001
1.40001
1.40001
1.38925
1.40138
1.40001
1.40001
1.40001
1.40001
1.39932
1.40001
1.40001
1.48011
1.42504
1.39177
1.4
1.42219
1.40001
1.40001
1.40001
1.45041
1.40002
1.39989
1.40001
1.39997
1.49997
1.4
1.4
1.40036
1.44363
1.40001
1.40001
1.40154
1.36154
1.40001
1.16715
1.3999
1.40001
1.40001
1.40001
1.39997
1.40001
1.4
1.40037
1.40001
1.4
1.40043
1.40001
1.40001
1.40031
1.40001
1.40001
0.805416
1.40001
1.4003
1.40001
1.3999
1.40117
1.40001
1.40001
1.39999
1.4
1.4
1.4
1.4007
1.40001
1.40001
1.08722
1.4
1.40001
1.4
1.40001
1.40001
1.40001
1.21079
1.43805
1.41289
1.40243
1.40006
1.40001
1.40001
1.40001
1.4
1.40001
1.4
1.40001
1.40001
1.40001
1.40001
1.43227
1.40001
1.41612
1.39981
1.40001
1.38809
1.40011
1.39995
1.44036
1.40007
1.4
1.4
1.40884
1.40001
1.40002
1.39998
1.40001
1.40085
1.4
1.39998
1.40194
1.39958
1.40002
1.40418
1.4
1.41303
1.40001
1.40001
1.40001
1.40036
1.40001
1.40001
1.40001
1.40001
1.44334
1.39952
1.40001
1.40001
1.11008
1.40001
1.39933
1.40001
1.40007
1.40001
1.40002
1.40001
1.40001