/*--------------------------------*- C++ -*----------------------------------*\
  =========                 |
  \\      /  F ield         | OpenFOAM: The Open Source CFD Toolbox
   \\    /   O peration     | Website:  https://openfoam.org
    \\  /    A nd           | Version:  6
     \\/     M anipulation  |
\*---------------------------------------------------------------------------*/
FoamFile
{
    version     2.0;
    format      ascii;
    class       volScalarField;
    location    "3.77";
    object      mag(U);
}
// * * * * * * * * * * * * * * * * * * * * * * * * * * * * * * * * * * * * * //

dimensions      [0 1 -1 0 0 0 0];

internalField   nonuniform List<scalar> 
10000
(
0.99997
0.99997
0.99997
0.99997
0.99997
0.99997
0.99997
0.99997
0.99997
0.99997
0.99997
0.99997
0.99997
0.99997
0.99997
0.99997
0.99997
0.99997
0.99997
0.99997
0.99997
0.99997
0.99997
0.99997
0.99997
0.99997
0.99997
0.99997
0.99997
0.99997
0.99997
0.99997
0.99997
0.99997
0.99997
0.99997
0.99997
0.99997
0.99997
0.99997
0.99997
0.99997
0.999969
0.99997
0.999971
0.999972
0.999974
0.999977
0.999979
0.999981
0.999983
0.999984
0.999984
0.999981
0.999975
0.999967
0.999956
0.999945
0.999933
0.999923
0.999918
0.999919
0.999925
0.999939
0.99996
0.999987
1.00002
1.00005
1.00008
1.00011
1.00013
1.00015
1.00016
1.00017
1.00016
1.00015
1.00013
1.00011
1.00009
1.00007
1.00005
1.00003
1.00002
1
0.999993
0.999984
0.999979
0.999975
0.999972
0.999971
0.99997
0.999969
0.999969
0.99997
0.99997
0.99997
0.99997
0.99997
0.99997
0.99997
0.99997
0.99997
0.99997
0.99997
0.99997
0.99997
0.99997
0.99997
0.99997
0.99997
0.99997
0.99997
0.99997
0.99997
0.99997
0.99997
0.99997
0.99997
0.99997
0.99997
0.99997
0.99997
0.99997
0.99997
0.99997
0.99997
0.99997
0.99997
0.99997
0.99997
0.99997
0.99997
0.99997
0.99997
0.99997
0.99997
0.99997
0.99997
0.99997
0.999969
0.999969
0.99997
0.99997
0.999971
0.999972
0.999974
0.999976
0.999979
0.999983
0.999987
0.99999
0.999992
0.999991
0.999987
0.99998
0.99997
0.999957
0.999944
0.999933
0.999926
0.999925
0.999932
0.999949
0.999975
1.00001
1.00005
1.0001
1.00014
1.00019
1.00022
1.00025
1.00027
1.00027
1.00027
1.00026
1.00024
1.00021
1.00018
1.00015
1.00011
1.00008
1.00006
1.00003
1.00002
1
0.99999
0.999982
0.999977
0.999973
0.999971
0.99997
0.999969
0.999969
0.999969
0.999969
0.99997
0.99997
0.99997
0.99997
0.99997
0.99997
0.99997
0.99997
0.99997
0.99997
0.99997
0.99997
0.99997
0.99997
0.99997
0.99997
0.99997
0.99997
0.99997
0.99997
0.99997
0.99997
0.99997
0.99997
0.99997
0.99997
0.99997
0.99997
0.99997
0.99997
0.99997
0.99997
0.99997
0.99997
0.99997
0.99997
0.99997
0.99997
0.99997
0.99997
0.99997
0.99997
0.99997
0.99997
0.999969
0.99997
0.99997
0.99997
0.999971
0.999973
0.999976
0.999979
0.999983
0.999988
0.999994
0.999998
1
1
0.999995
0.999987
0.999975
0.999962
0.999949
0.999941
0.99994
0.999949
0.99997
1
1.00005
1.00011
1.00017
1.00024
1.0003
1.00036
1.00041
1.00044
1.00045
1.00045
1.00043
1.0004
1.00037
1.00032
1.00027
1.00022
1.00017
1.00013
1.00009
1.00006
1.00003
1.00001
0.999996
0.999986
0.999978
0.999974
0.99997
0.99997
0.999969
0.999969
0.999969
0.999969
0.999969
0.99997
0.99997
0.99997
0.99997
0.99997
0.99997
0.99997
0.99997
0.99997
0.99997
0.99997
0.99997
0.99997
0.99997
0.99997
0.99997
0.99997
0.99997
0.99997
0.99997
0.99997
0.99997
0.99997
0.99997
0.99997
0.99997
0.99997
0.99997
0.99997
0.99997
0.99997
0.99997
0.99997
0.99997
0.99997
0.99997
0.99997
0.99997
0.99997
0.99997
0.99997
0.999969
0.999969
0.99997
0.999969
0.99997
0.99997
0.999971
0.999973
0.999977
0.999982
0.999988
0.999995
1
1.00001
1.00001
1.00001
1.00001
0.999996
0.999983
0.999971
0.999962
0.999961
0.999972
1
1.00005
1.00011
1.00019
1.00028
1.00038
1.00048
1.00057
1.00065
1.00071
1.00074
1.00075
1.00073
1.00069
1.00063
1.00056
1.00049
1.00041
1.00033
1.00026
1.0002
1.00014
1.00009
1.00006
1.00003
1.00001
0.99999
0.99998
0.999974
0.99997
0.999969
0.999968
0.999967
0.999968
0.999968
0.999968
0.999969
0.99997
0.99997
0.99997
0.99997
0.99997
0.99997
0.99997
0.99997
0.99997
0.99997
0.99997
0.99997
0.99997
0.99997
0.99997
0.99997
0.99997
0.99997
0.99997
0.99997
0.99997
0.99997
0.99997
0.99997
0.99997
0.99997
0.99997
0.99997
0.99997
0.99997
0.99997
0.99997
0.99997
0.99997
0.99997
0.99997
0.99997
0.99997
0.99997
0.99997
0.999969
0.99997
0.999969
0.999969
0.99997
0.99997
0.999972
0.999975
0.999979
0.999987
0.999995
1
1.00001
1.00002
1.00003
1.00002
1.00002
1.00001
0.999993
0.999984
0.999984
0.999998
1.00003
1.00009
1.00018
1.00029
1.00042
1.00057
1.00072
1.00087
1.001
1.00111
1.00118
1.00121
1.0012
1.00116
1.00108
1.00098
1.00086
1.00074
1.00061
1.00049
1.00039
1.00029
1.00021
1.00014
1.00009
1.00005
1.00002
0.999996
0.999983
0.999974
0.999969
0.999967
0.999966
0.999967
0.999967
0.999968
0.999968
0.999968
0.999969
0.99997
0.99997
0.99997
0.99997
0.99997
0.99997
0.99997
0.99997
0.99997
0.99997
0.99997
0.99997
0.99997
0.99997
0.99997
0.99997
0.99997
0.99997
0.99997
0.99997
0.99997
0.99997
0.99997
0.99997
0.99997
0.99997
0.99997
0.99997
0.99997
0.99997
0.99997
0.99997
0.99997
0.99997
0.99997
0.99997
0.99997
0.999969
0.999969
0.999969
0.999969
0.999969
0.999969
0.999969
0.99997
0.999972
0.999977
0.999983
0.999992
1
1.00001
1.00003
1.00003
1.00004
1.00004
1.00003
1.00002
1.00001
1
1.00002
1.00006
1.00013
1.00024
1.00039
1.00058
1.00079
1.00101
1.00124
1.00146
1.00165
1.0018
1.00189
1.00193
1.0019
1.00181
1.00168
1.00151
1.00132
1.00112
1.00092
1.00073
1.00057
1.00042
1.0003
1.00021
1.00013
1.00007
1.00003
1
0.999985
0.999974
0.999967
0.999965
0.999964
0.999965
0.999966
0.999966
0.999967
0.999968
0.999968
0.999969
0.99997
0.99997
0.99997
0.99997
0.99997
0.99997
0.99997
0.99997
0.99997
0.99997
0.99997
0.99997
0.99997
0.99997
0.99997
0.99997
0.99997
0.99997
0.99997
0.99997
0.99997
0.99997
0.99997
0.99997
0.99997
0.99997
0.99997
0.99997
0.99997
0.99997
0.99997
0.99997
0.99997
0.99997
0.99997
0.999969
0.999969
0.999969
0.999969
0.999968
0.999967
0.999967
0.999968
0.99997
0.999972
0.999978
0.999987
0.999998
1.00001
1.00003
1.00004
1.00005
1.00005
1.00004
1.00003
1.00002
1.00001
1.00003
1.00007
1.00015
1.00029
1.00047
1.00071
1.001
1.00132
1.00166
1.002
1.00232
1.00259
1.0028
1.00293
1.00297
1.00292
1.00278
1.00256
1.00229
1.00199
1.00168
1.00137
1.00109
1.00084
1.00062
1.00045
1.0003
1.00019
1.00011
1.00005
1.00001
0.999988
0.999974
0.999965
0.999962
0.999961
0.999962
0.999963
0.999965
0.999966
0.999967
0.999968
0.999968
0.99997
0.99997
0.99997
0.99997
0.99997
0.99997
0.99997
0.99997
0.99997
0.99997
0.99997
0.99997
0.99997
0.99997
0.99997
0.99997
0.99997
0.99997
0.99997
0.99997
0.99997
0.99997
0.99997
0.99997
0.99997
0.99997
0.99997
0.99997
0.99997
0.99997
0.99997
0.99997
0.99997
0.99997
0.99997
0.999969
0.999969
0.999969
0.999968
0.999967
0.999967
0.999966
0.999967
0.999968
0.999972
0.999979
0.99999
1
1.00002
1.00004
1.00005
1.00006
1.00006
1.00004
1.00003
1.00001
1.00002
1.00005
1.00014
1.00028
1.0005
1.00079
1.00116
1.00158
1.00205
1.00254
1.00303
1.00349
1.00388
1.00419
1.00438
1.00444
1.00436
1.00416
1.00384
1.00343
1.00298
1.0025
1.00204
1.00161
1.00124
1.00092
1.00065
1.00045
1.00029
1.00017
1.00009
1.00003
0.999994
0.999973
0.999962
0.999958
0.999957
0.999958
0.99996
0.999962
0.999964
0.999966
0.999967
0.999968
0.999968
0.999968
0.99997
0.99997
0.99997
0.99997
0.99997
0.99997
0.99997
0.99997
0.99997
0.99997
0.99997
0.99997
0.99997
0.99997
0.99997
0.99997
0.99997
0.99997
0.99997
0.99997
0.99997
0.99997
0.99997
0.99997
0.99997
0.99997
0.99997
0.99997
0.99997
0.99997
0.99997
0.99997
0.99997
0.999969
0.999968
0.999968
0.999968
0.999966
0.999966
0.999965
0.999965
0.999966
0.999971
0.999979
0.999993
1.00001
1.00003
1.00005
1.00006
1.00006
1.00004
1.00002
0.999994
0.999981
0.999997
1.00007
1.00021
1.00045
1.00078
1.00121
1.00174
1.00234
1.003
1.00368
1.00435
1.00499
1.00554
1.00598
1.00627
1.00639
1.00631
1.00604
1.0056
1.00503
1.00437
1.00368
1.00301
1.00238
1.00182
1.00134
1.00096
1.00065
1.00042
1.00025
1.00013
1.00005
1
0.999972
0.999957
0.999951
0.999951
0.999952
0.999955
0.999959
0.999962
0.999964
0.999966
0.999967
0.999968
0.999968
0.999969
0.99997
0.99997
0.99997
0.99997
0.99997
0.99997
0.99997
0.99997
0.99997
0.99997
0.99997
0.99997
0.99997
0.99997
0.99997
0.99997
0.99997
0.99997
0.99997
0.99997
0.99997
0.99997
0.99997
0.99997
0.99997
0.99997
0.99997
0.99997
0.99997
0.99997
0.99997
0.999969
0.999969
0.999969
0.999967
0.999966
0.999965
0.999964
0.999962
0.999962
0.999964
0.99997
0.999979
0.999995
1.00001
1.00003
1.00005
1.00005
1.00004
1.00001
0.999964
0.999923
0.999906
0.999944
1.00006
1.00029
1.00064
1.00112
1.00172
1.00244
1.00324
1.00411
1.00501
1.0059
1.00675
1.00751
1.00814
1.00859
1.00882
1.00879
1.0085
1.00795
1.00719
1.0063
1.00533
1.00437
1.00346
1.00265
1.00196
1.0014
1.00095
1.00062
1.00037
1.0002
1.00009
1.00002
0.999975
0.999953
0.999945
0.999943
0.999946
0.99995
0.999955
0.999958
0.999962
0.999964
0.999967
0.999967
0.999968
0.999968
0.99997
0.99997
0.99997
0.99997
0.99997
0.99997
0.99997
0.99997
0.99997
0.99997
0.99997
0.99997
0.99997
0.99997
0.99997
0.99997
0.99997
0.99997
0.99997
0.99997
0.99997
0.99997
0.99997
0.99997
0.99997
0.99997
0.99997
0.99997
0.99997
0.99997
0.999969
0.999969
0.999968
0.999968
0.999967
0.999965
0.999962
0.999961
0.999958
0.999957
0.99996
0.999966
0.999977
0.999994
1.00001
1.00003
1.00003
1.00002
0.999984
0.999923
0.999849
0.999785
0.999767
0.999832
1.00001
1.00034
1.00083
1.00148
1.00227
1.00318
1.00419
1.00527
1.00639
1.00751
1.0086
1.00961
1.01049
1.01118
1.01161
1.01172
1.01148
1.01089
1.00998
1.00884
1.00755
1.00623
1.00497
1.00382
1.00284
1.00203
1.00139
1.00091
1.00056
1.00031
1.00015
1.00004
0.999981
0.999949
0.999936
0.999934
0.999937
0.999943
0.999949
0.999954
0.999959
0.999963
0.999965
0.999967
0.999967
0.999968
0.999968
0.99997
0.99997
0.99997
0.99997
0.99997
0.99997
0.99997
0.99997
0.99997
0.99997
0.99997
0.99997
0.99997
0.99997
0.99997
0.99997
0.99997
0.99997
0.99997
0.99997
0.99997
0.99997
0.99997
0.99997
0.99997
0.99997
0.99997
0.99997
0.999969
0.999969
0.999969
0.999968
0.999966
0.999965
0.999962
0.99996
0.999956
0.999953
0.999952
0.999953
0.99996
0.999972
0.999987
1
1.00001
0.999999
0.999957
0.999878
0.999768
0.999646
0.999551
0.99953
0.999629
0.999892
1.00034
1.00097
1.00178
1.00274
1.00381
1.00499
1.00623
1.00752
1.00885
1.01017
1.01145
1.01264
1.01366
1.01443
1.01485
1.01482
1.01432
1.01336
1.01201
1.01041
1.00869
1.00699
1.00542
1.00406
1.00292
1.00202
1.00133
1.00082
1.00047
1.00023
1.00008
0.999995
0.999948
0.999928
0.999923
0.999927
0.999934
0.999942
0.999949
0.999955
0.99996
0.999963
0.999966
0.999966
0.999967
0.999968
0.999969
0.99997
0.99997
0.99997
0.99997
0.99997
0.99997
0.99997
0.99997
0.99997
0.99997
0.99997
0.99997
0.99997
0.99997
0.99997
0.99997
0.99997
0.99997
0.99997
0.99997
0.99997
0.99997
0.99997
0.99997
0.99997
0.99997
0.99997
0.999969
0.999969
0.999968
0.999968
0.999966
0.999963
0.99996
0.999956
0.99995
0.999946
0.999944
0.999945
0.99995
0.999961
0.999973
0.99998
0.99997
0.999926
0.999835
0.999692
0.999507
0.999319
0.99918
0.999156
0.9993
0.99965
1.00021
1.00097
1.0019
1.00295
1.00409
1.00531
1.0066
1.00796
1.0094
1.01091
1.01246
1.01401
1.01548
1.01674
1.01766
1.0181
1.01793
1.01712
1.01573
1.01389
1.01178
1.00961
1.00755
1.0057
1.00414
1.00288
1.00192
1.00121
1.0007
1.00037
1.00015
1.00002
0.999952
0.999921
0.999911
0.999915
0.999923
0.999933
0.999943
0.999951
0.999957
0.999961
0.999965
0.999965
0.999967
0.999968
0.999969
0.99997
0.99997
0.99997
0.99997
0.99997
0.99997
0.99997
0.99997
0.99997
0.99997
0.99997
0.99997
0.99997
0.99997
0.99997
0.99997
0.99997
0.99997
0.99997
0.99997
0.99997
0.99997
0.99997
0.99997
0.99997
0.99997
0.999969
0.999969
0.999969
0.999967
0.999967
0.999964
0.999962
0.999956
0.999951
0.999943
0.999938
0.999932
0.999932
0.999934
0.999942
0.999946
0.999937
0.999893
0.999797
0.999628
0.999388
0.9991
0.998822
0.998631
0.998604
0.998798
0.999229
0.999876
1.00069
1.00162
1.00261
1.00363
1.0047
1.00584
1.0071
1.00852
1.01013
1.01191
1.01384
1.01584
1.01778
1.01946
1.02066
1.02117
1.02086
1.01971
1.01784
1.01547
1.01285
1.01025
1.00784
1.00576
1.00406
1.00273
1.00174
1.00104
1.00056
1.00026
1.00007
0.999967
0.999917
0.9999
0.999901
0.999911
0.999923
0.999935
0.999945
0.999953
0.999958
0.999962
0.999964
0.999966
0.999967
0.999968
0.999969
0.99997
0.99997
0.99997
0.99997
0.99997
0.99997
0.99997
0.99997
0.99997
0.99997
0.99997
0.99997
0.99997
0.99997
0.99997
0.99997
0.99997
0.99997
0.99997
0.99997
0.99997
0.99997
0.99997
0.99997
0.99997
0.999969
0.999969
0.999968
0.999967
0.999966
0.999962
0.999958
0.999952
0.999944
0.999934
0.999926
0.999917
0.999913
0.999914
0.999912
0.999901
0.999861
0.999765
0.999584
0.999302
0.998923
0.998496
0.998107
0.99786
0.997836
0.998073
0.998549
0.9992
0.999932
1.00067
1.00135
1.00199
1.00263
1.00335
1.00427
1.00548
1.00704
1.00899
1.01131
1.01391
1.01667
1.01935
1.02166
1.02327
1.02392
1.02346
1.02193
1.01955
1.01663
1.01352
1.01053
1.00785
1.0056
1.00382
1.00248
1.00151
1.00085
1.00041
1.00015
0.999996
0.999921
0.999891
0.999888
0.999897
0.999911
0.999925
0.999938
0.999948
0.999955
0.99996
0.999962
0.999965
0.999967
0.999968
0.999969
0.99997
0.99997
0.99997
0.99997
0.99997
0.99997
0.99997
0.99997
0.99997
0.99997
0.99997
0.99997
0.99997
0.99997
0.99997
0.99997
0.99997
0.99997
0.99997
0.99997
0.99997
0.99997
0.99997
0.99997
0.99997
0.999969
0.999969
0.999968
0.999966
0.999965
0.99996
0.999954
0.999946
0.999935
0.999922
0.99991
0.999899
0.99989
0.999882
0.999866
0.999828
0.999739
0.999561
0.999257
0.998812
0.998248
0.997648
0.997137
0.996837
0.996817
0.997071
0.997516
0.99802
0.998448
0.998702
0.998752
0.998644
0.998495
0.998475
0.998774
0.999558
1.00094
1.00298
1.00566
1.00892
1.01261
1.01649
1.02022
1.02336
1.02548
1.02627
1.02561
1.02365
1.02072
1.01728
1.01374
1.01043
1.00757
1.00524
1.00345
1.00215
1.00124
1.00064
1.00027
1.00005
0.999936
0.999887
0.999876
0.999883
0.999898
0.999915
0.99993
0.999942
0.999951
0.999958
0.99996
0.999964
0.999966
0.999967
0.999969
0.99997
0.99997
0.99997
0.99997
0.99997
0.99997
0.99997
0.99997
0.99997
0.99997
0.99997
0.99997
0.99997
0.99997
0.99997
0.99997
0.99997
0.99997
0.99997
0.99997
0.99997
0.99997
0.99997
0.99997
0.99997
0.999969
0.999968
0.999968
0.999966
0.999962
0.999957
0.999949
0.999938
0.999925
0.999908
0.999891
0.999874
0.999857
0.999837
0.999799
0.999717
0.999552
0.999253
0.998776
0.99811
0.997312
0.996514
0.995883
0.995546
0.995526
0.995738
0.996012
0.996143
0.995958
0.995359
0.99436
0.993083
0.991745
0.990624
0.99001
0.990154
0.991226
0.993298
0.996358
1.00032
1.00504
1.01028
1.01565
1.02066
1.02473
1.02734
1.02817
1.02722
1.02476
1.02129
1.01737
1.01347
1.00996
1.00702
1.00471
1.00299
1.00178
1.00096
1.00044
1.00013
0.999968
0.999891
0.999866
0.999869
0.999885
0.999903
0.999921
0.999936
0.999947
0.999954
0.999958
0.999963
0.999965
0.999967
0.999968
0.999969
0.99997
0.99997
0.99997
0.99997
0.99997
0.99997
0.99997
0.99997
0.99997
0.99997
0.99997
0.99997
0.99997
0.99997
0.99997
0.99997
0.99997
0.99997
0.99997
0.99997
0.99997
0.99997
0.99997
0.99997
0.999969
0.999968
0.999967
0.999964
0.99996
0.999954
0.999943
0.999929
0.999911
0.999891
0.999867
0.999843
0.999815
0.999774
0.999701
0.999554
0.999279
0.998808
0.998093
0.997144
0.996072
0.995074
0.994351
0.993997
0.99395
0.994013
0.993911
0.993367
0.992179
0.990279
0.987751
0.984826
0.981853
0.979246
0.977424
0.976739
0.977415
0.979534
0.983053
0.987842
0.993713
1.00041
1.00757
1.01467
1.02103
1.02597
1.02892
1.02963
1.02823
1.02521
1.02121
1.01689
1.01277
1.00918
1.00628
1.00406
1.00247
1.00139
1.00069
1.00026
1.00002
0.999907
0.999862
0.999857
0.999872
0.999891
0.999911
0.999928
0.999941
0.999951
0.999956
0.999961
0.999964
0.999966
0.999967
0.999969
0.99997
0.99997
0.99997
0.99997
0.99997
0.99997
0.99997
0.99997
0.99997
0.99997
0.99997
0.99997
0.99997
0.99997
0.99997
0.99997
0.99997
0.99997
0.99997
0.99997
0.99997
0.99997
0.99997
0.99997
0.999969
0.999967
0.999966
0.999962
0.999957
0.999948
0.999937
0.999919
0.999897
0.999869
0.999839
0.999805
0.99976
0.99969
0.999563
0.999322
0.998892
0.998187
0.997163
0.995874
0.994509
0.993341
0.992573
0.992222
0.992091
0.991842
0.991087
0.989489
0.986838
0.983115
0.978508
0.973393
0.968288
0.963786
0.960467
0.958802
0.959075
0.961355
0.965531
0.971379
0.978622
0.986957
0.996019
1.00531
1.01415
1.02173
1.02728
1.03027
1.03059
1.0286
1.02496
1.02049
1.01589
1.01168
1.00815
1.00539
1.00336
1.00195
1.00102
1.00044
1.00011
0.999941
0.999869
0.99985
0.999859
0.999878
0.999901
0.999921
0.999936
0.999948
0.999953
0.99996
0.999963
0.999966
0.999967
0.999969
0.999969
0.99997
0.99997
0.99997
0.99997
0.99997
0.99997
0.99997
0.99997
0.99997
0.99997
0.99997
0.99997
0.99997
0.99997
0.99997
0.99997
0.99997
0.99997
0.99997
0.99997
0.99997
0.999969
0.999969
0.999969
0.999966
0.999965
0.999961
0.999954
0.999944
0.999928
0.999907
0.999879
0.999844
0.999804
0.999756
0.999688
0.999577
0.999374
0.999003
0.99836
0.997349
0.995943
0.994272
0.992637
0.991368
0.990622
0.990276
0.989956
0.989168
0.987417
0.984312
0.979658
0.973507
0.966184
0.95825
0.950448
0.943602
0.9385
0.935759
0.935719
0.938408
0.943601
0.950912
0.959909
0.970178
0.981322
0.992883
1.00424
1.01459
1.02301
1.02873
1.03135
1.031
1.02827
1.02403
1.01918
1.01446
1.01031
1.00697
1.00444
1.00265
1.00144
1.00069
1.00024
0.999997
0.999886
0.999848
0.99985
0.999868
0.999891
0.999912
0.99993
0.999944
0.99995
0.999958
0.999962
0.999965
0.999967
0.999968
0.999969
0.99997
0.99997
0.99997
0.99997
0.99997
0.99997
0.99997
0.99997
0.99997
0.99997
0.99997
0.99997
0.99997
0.99997
0.99997
0.99997
0.99997
0.99997
0.99997
0.99997
0.99997
0.99997
0.999969
0.999968
0.999966
0.999964
0.999958
0.999951
0.999937
0.999918
0.999893
0.999859
0.999816
0.999764
0.999698
0.999599
0.999428
0.999122
0.998573
0.997653
0.996255
0.994404
0.99235
0.990514
0.989248
0.988591
0.988216
0.98755
0.985934
0.982768
0.977624
0.970333
0.961045
0.950255
0.938767
0.927613
0.917924
0.910761
0.906921
0.906793
0.91032
0.91708
0.92645
0.937765
0.950431
0.963966
0.97793
0.991806
1.00487
1.01621
1.02489
1.03022
1.03205
1.03076
1.02723
1.02246
1.01739
1.01271
1.00877
1.00572
1.0035
1.00198
1.001
1.00041
1.00008
0.999919
0.999855
0.999844
0.999858
0.999881
0.999905
0.999924
0.999939
0.999947
0.999956
0.999961
0.999964
0.999966
0.999967
0.999969
0.99997
0.99997
0.99997
0.99997
0.99997
0.99997
0.99997
0.99997
0.99997
0.99997
0.99997
0.99997
0.99997
0.99997
0.99997
0.99997
0.99997
0.99997
0.99997
0.99997
0.99997
0.99997
0.999969
0.999968
0.999966
0.999963
0.999956
0.999946
0.999931
0.999907
0.999876
0.999836
0.999783
0.999716
0.999627
0.999485
0.999235
0.99879
0.998012
0.996739
0.994876
0.992543
0.990156
0.988244
0.987104
0.986578
0.986095
0.984865
0.982063
0.976986
0.969175
0.958504
0.945248
0.930113
0.91421
0.898951
0.885879
0.876414
0.871576
0.871778
0.876795
0.885906
0.898133
0.912494
0.928158
0.944508
0.9611
0.977518
0.993199
1.00734
1.01896
1.02719
1.03154
1.03218
1.02981
1.02549
1.02034
1.01525
1.01077
1.00718
1.0045
1.00263
1.0014
1.00064
1.0002
0.999972
0.999873
0.999845
0.999852
0.999873
0.999897
0.999918
0.999935
0.999944
0.999954
0.99996
0.999963
0.999966
0.999967
0.999969
0.99997
0.99997
0.99997
0.99997
0.99997
0.99997
0.99997
0.99997
0.99997
0.99997
0.99997
0.99997
0.99997
0.99997
0.99997
0.99997
0.99997
0.99997
0.99997
0.99997
0.99997
0.999969
0.999969
0.999967
0.999965
0.999962
0.999953
0.999941
0.999925
0.999897
0.999858
0.999811
0.999747
0.999661
0.999541
0.999344
0.99899
0.998364
0.997295
0.995591
0.993198
0.990394
0.987785
0.985959
0.985062
0.984669
0.983944
0.981868
0.977447
0.969878
0.958679
0.943778
0.925597
0.905105
0.8838
0.863603
0.846602
0.834693
0.82916
0.830396
0.837874
0.850393
0.866475
0.884722
0.904029
0.923646
0.943117
0.962125
0.980295
0.997012
1.01139
1.02246
1.02951
1.03239
1.03158
1.0281
1.02315
1.01783
1.0129
1.0088
1.00565
1.00339
1.00187
1.00091
1.00035
1.00005
0.999904
0.999853
0.999849
0.999867
0.99989
0.999912
0.99993
0.999941
0.999952
0.999958
0.999963
0.999966
0.999967
0.999969
0.999969
0.99997
0.99997
0.99997
0.99997
0.99997
0.99997
0.99997
0.99997
0.99997
0.99997
0.99997
0.99997
0.99997
0.99997
0.99997
0.99997
0.99997
0.99997
0.99997
0.99997
0.999969
0.999968
0.999967
0.999964
0.99996
0.999952
0.999936
0.999917
0.999884
0.999839
0.999784
0.999708
0.999598
0.999439
0.999173
0.998685
0.99783
0.996403
0.994195
0.991238
0.988029
0.985365
0.9838
0.983227
0.982917
0.981755
0.978491
0.971951
0.961236
0.945847
0.925776
0.901611
0.874634
0.846845
0.820828
0.799414
0.785117
0.779531
0.782925
0.794258
0.811589
0.83272
0.855729
0.879238
0.902429
0.924897
0.94646
0.966943
0.985956
1.00278
1.01648
1.02617
1.03141
1.03245
1.03013
1.02568
1.02034
1.01509
1.01052
1.00691
1.00425
1.00243
1.00125
1.00054
1.00015
0.999952
0.999872
0.999853
0.999864
0.999886
0.999908
0.999927
0.999939
0.99995
0.999958
0.999962
0.999966
0.999967
0.999969
0.999969
0.99997
0.99997
0.99997
0.99997
0.99997
0.99997
0.99997
0.99997
0.99997
0.99997
0.99997
0.99997
0.99997
0.99997
0.99997
0.99997
0.99997
0.99997
0.99997
0.99997
0.999969
0.999968
0.999967
0.999963
0.999958
0.999949
0.99993
0.999909
0.999873
0.999818
0.999755
0.999666
0.999527
0.999317
0.998965
0.998314
0.997176
0.995323
0.992554
0.989045
0.985557
0.983036
0.981884
0.98167
0.981339
0.979494
0.974644
0.965436
0.950876
0.930454
0.904224
0.872956
0.8383
0.802888
0.770193
0.744036
0.727747
0.723248
0.730513
0.747645
0.771597
0.79916
0.827762
0.855797
0.882528
0.90777
0.93158
0.954019
0.974927
0.993788
1.00975
1.02185
1.02943
1.03244
1.03152
1.02783
1.02269
1.01725
1.01231
1.00825
1.0052
1.00306
1.00164
1.00077
1.00028
1.00002
0.9999
0.999863
0.999865
0.999883
0.999904
0.999924
0.999937
0.999949
0.999957
0.999962
0.999965
0.999967
0.999969
0.999969
0.99997
0.99997
0.99997
0.99997
0.99997
0.99997
0.99997
0.99997
0.99997
0.99997
0.99997
0.99997
0.99997
0.99997
0.99997
0.99997
0.99997
0.99997
0.99997
0.99997
0.999969
0.999967
0.999968
0.999962
0.999956
0.999948
0.999924
0.9999
0.999863
0.999798
0.999722
0.999623
0.999448
0.999175
0.99872
0.997871
0.996394
0.994051
0.990694
0.986697
0.983102
0.980918
0.980293
0.980419
0.979911
0.977101
0.970243
0.957806
0.938709
0.912429
0.879071
0.839589
0.796065
0.751922
0.711797
0.680829
0.663412
0.661807
0.675384
0.700899
0.733704
0.769235
0.804142
0.836679
0.866418
0.893665
0.91893
0.942604
0.96477
0.985097
1.00283
1.01698
1.02671
1.03167
1.03228
1.02954
1.0248
1.01933
1.01409
1.00965
1.00622
1.00375
1.00209
1.00104
1.00043
1.0001
0.999941
0.99988
0.999871
0.999883
0.999902
0.999922
0.999936
0.999947
0.999956
0.999961
0.999965
0.999967
0.999968
0.999969
0.99997
0.99997
0.99997
0.99997
0.99997
0.99997
0.99997
0.99997
0.99997
0.99997
0.99997
0.99997
0.99997
0.99997
0.99997
0.99997
0.99997
0.99997
0.99997
0.99997
0.999969
0.999967
0.999968
0.999961
0.999953
0.999946
0.99992
0.99989
0.999854
0.999779
0.999688
0.999578
0.999365
0.99901
0.998431
0.997356
0.995483
0.992595
0.988664
0.984299
0.98078
0.979095
0.979062
0.979466
0.978599
0.974521
0.965243
0.949056
0.924803
0.891938
0.850603
0.801921
0.748469
0.694635
0.646514
0.610974
0.593818
0.597655
0.620764
0.65784
0.702048
0.747146
0.788909
0.825556
0.85724
0.885104
0.910416
0.934084
0.956492
0.977467
0.996318
1.01202
1.02356
1.03034
1.03248
1.03082
1.02662
1.02126
1.01584
1.01107
1.00727
1.00448
1.00257
1.00134
1.00061
1.0002
0.999992
0.999905
0.999881
0.999887
0.999903
0.99992
0.999936
0.999947
0.999955
0.999961
0.999965
0.999967
0.999968
0.999969
0.999969
0.99997
0.99997
0.99997
0.99997
0.99997
0.99997
0.99997
0.99997
0.99997
0.99997
0.99997
0.99997
0.99997
0.99997
0.99997
0.99997
0.99997
0.99997
0.99997
0.999969
0.999967
0.999967
0.999962
0.999949
0.999945
0.999917
0.999878
0.999846
0.999764
0.999651
0.999529
0.99928
0.998822
0.998097
0.996774
0.994454
0.990981
0.986533
0.981956
0.978679
0.977601
0.978185
0.978787
0.977364
0.971733
0.95968
0.93933
0.909453
0.86948
0.819568
0.761008
0.696911
0.632735
0.576261
0.53655
0.521418
0.533887
0.57037
0.622511
0.680712
0.736871
0.785889
0.826031
0.858247
0.884851
0.908234
0.930107
0.951285
0.971756
0.990846
1.00744
1.02034
1.02867
1.03225
1.03169
1.02814
1.023
1.01749
1.01246
1.00834
1.00525
1.00309
1.00167
1.00081
1.00031
1.00006
0.999939
0.999898
0.999894
0.999906
0.999921
0.999937
0.999948
0.999955
0.999961
0.999964
0.999967
0.999968
0.999969
0.99997
0.99997
0.99997
0.99997
0.99997
0.99997
0.99997
0.99997
0.99997
0.99997
0.99997
0.99997
0.99997
0.99997
0.99997
0.99997
0.99997
0.99997
0.999969
0.999969
0.99997
0.999966
0.999966
0.999962
0.999946
0.999943
0.999917
0.999866
0.999837
0.999756
0.999613
0.999477
0.999194
0.998617
0.997716
0.99613
0.993324
0.989244
0.984376
0.979763
0.976852
0.976433
0.977636
0.978351
0.976186
0.968764
0.953697
0.928953
0.89323
0.845953
0.78731
0.718782
0.643991
0.569344
0.504238
0.460472
0.449048
0.473683
0.527591
0.598101
0.672507
0.740937
0.79751
0.840567
0.87192
0.895264
0.914454
0.932347
0.950415
0.968891
0.987088
1.00374
1.0174
1.02691
1.03174
1.03223
1.02938
1.02455
1.01903
1.01379
1.00939
1.00602
1.00362
1.00202
1.00103
1.00044
1.00013
0.999979
0.999918
0.999905
0.999911
0.999924
0.999938
0.999948
0.999955
0.999961
0.999964
0.999967
0.999968
0.999969
0.99997
0.99997
0.99997
0.99997
0.99997
0.99997
0.99997
0.99997
0.99997
0.99997
0.99997
0.99997
0.99997
0.99997
0.99997
0.99997
0.99997
0.99997
0.99997
0.999969
0.99997
0.999966
0.999963
0.999965
0.999943
0.999939
0.999921
0.999856
0.999826
0.999755
0.999579
0.999415
0.999112
0.998402
0.997291
0.995431
0.992127
0.987438
0.982264
0.97778
0.975318
0.975561
0.977371
0.978137
0.975081
0.965716
0.947569
0.918456
0.877004
0.822706
0.755886
0.678283
0.593882
0.509464
0.435347
0.386597
0.379732
0.419827
0.494699
0.586065
0.678183
0.759699
0.824093
0.869753
0.899243
0.917644
0.930494
0.942135
0.955004
0.969748
0.9857
1.0014
1.01512
1.02531
1.03112
1.03253
1.03036
1.02588
1.02042
1.01505
1.01041
1.00678
1.00416
1.00238
1.00126
1.00059
1.00022
1.00003
0.999945
0.999919
0.999918
0.999927
0.999941
0.99995
0.999957
0.999961
0.999964
0.999967
0.999968
0.999969
0.999969
0.99997
0.99997
0.99997
0.99997
0.99997
0.99997
0.99997
0.99997
0.99997
0.99997
0.99997
0.99997
0.99997
0.99997
0.99997
0.99997
0.99997
0.99997
0.999969
0.99997
0.999967
0.999962
0.999967
0.999943
0.999932
0.999929
0.999851
0.999809
0.999763
0.999554
0.999344
0.999032
0.998187
0.996825
0.994687
0.990903
0.985626
0.980246
0.976042
0.974077
0.974939
0.97734
0.978134
0.97411
0.962766
0.941689
0.908555
0.861932
0.801528
0.728082
0.643744
0.552521
0.460401
0.377051
0.320712
0.317129
0.374542
0.47243
0.585928
0.696544
0.791616
0.864077
0.912342
0.939536
0.95194
0.956786
0.960155
0.965786
0.97499
0.987232
1.00087
1.01381
1.02413
1.03054
1.03269
1.03113
1.02702
1.02166
1.0162
1.01137
1.00752
1.00469
1.00275
1.00149
1.00074
1.00031
1.00008
0.999978
0.999937
0.999928
0.999932
0.999945
0.999952
0.999958
0.999962
0.999966
0.999967
0.999968
0.999969
0.99997
0.99997
0.99997
0.99997
0.99997
0.99997
0.99997
0.99997
0.99997
0.99997
0.99997
0.99997
0.99997
0.99997
0.99997
0.99997
0.99997
0.99997
0.99997
0.999968
0.999969
0.999968
0.999958
0.999969
0.999947
0.999923
0.999936
0.999856
0.999789
0.999774
0.999548
0.999264
0.998946
0.997991
0.99634
0.993903
0.989693
0.983875
0.97835
0.974545
0.973119
0.974526
0.977482
0.978346
0.973379
0.960166
0.936551
0.90012
0.849387
0.784558
0.707262
0.62029
0.527116
0.431516
0.340363
0.272793
0.266939
0.339718
0.460144
0.595807
0.725232
0.834152
0.914868
0.965889
0.990823
0.996861
0.992728
0.98632
0.982965
0.984939
0.992022
1.00244
1.01375
1.02357
1.03018
1.03282
1.03176
1.02797
1.02274
1.01723
1.01225
1.00821
1.00519
1.0031
1.00173
1.00089
1.0004
1.00014
1.00001
0.999958
0.99994
0.99994
0.99995
0.999954
0.999959
0.999963
0.999966
0.999967
0.999968
0.999969
0.99997
0.99997
0.99997
0.99997
0.99997
0.99997
0.99997
0.99997
0.99997
0.99997
0.99997
0.99997
0.99997
0.99997
0.99997
0.99997
0.999969
0.99997
0.99997
0.999967
0.99997
0.99997
0.999957
0.999966
0.999955
0.999915
0.999939
0.999872
0.999767
0.999777
0.999564
0.999187
0.998844
0.997821
0.99586
0.993088
0.988531
0.982255
0.976597
0.973253
0.972426
0.974292
0.977732
0.978775
0.97304
0.958214
0.932683
0.894068
0.84083
0.774035
0.696855
0.612881
0.52432
0.431674
0.337582
0.257805
0.23928
0.318257
0.456971
0.613413
0.761623
0.884684
0.973774
1.02759
1.05041
1.0502
1.03681
1.01978
1.00618
0.999517
1.00014
1.00626
1.01508
1.02378
1.03014
1.033
1.03228
1.02877
1.02366
1.01813
1.01304
1.00884
1.00567
1.00343
1.00196
1.00104
1.0005
1.0002
1.00005
0.999981
0.999954
0.999948
0.999956
0.999958
0.999962
0.999964
0.999966
0.999967
0.999969
0.999969
0.99997
0.99997
0.99997
0.99997
0.99997
0.99997
0.99997
0.99997
0.99997
0.99997
0.99997
0.99997
0.99997
0.99997
0.99997
0.99997
0.99997
0.99997
0.99997
0.999968
0.999968
0.999972
0.999958
0.999962
0.999965
0.999911
0.999934
0.999899
0.999755
0.999768
0.999601
0.999128
0.99872
0.997677
0.99543
0.992261
0.987428
0.980822
0.975003
0.97211
0.971965
0.97423
0.978031
0.979403
0.973255
0.957236
0.930584
0.891238
0.837601
0.771917
0.699502
0.624632
0.547365
0.464359
0.374026
0.287232
0.249311
0.317604
0.464384
0.637471
0.803609
0.941154
1.03875
1.09508
1.11561
1.10931
1.08686
1.05903
1.03451
1.01824
1.01138
1.01226
1.01784
1.02483
1.03052
1.03329
1.03274
1.02942
1.02442
1.01889
1.01371
1.00939
1.00609
1.00374
1.00217
1.00119
1.0006
1.00027
1.00009
1.00001
0.99997
0.999958
0.999962
0.999962
0.999964
0.999966
0.999967
0.999968
0.999969
0.999969
0.99997
0.99997
0.99997
0.99997
0.99997
0.99997
0.99997
0.99997
0.99997
0.99997
0.99997
0.99997
0.99997
0.99997
0.99997
0.99997
0.99997
0.999969
0.99997
0.999969
0.999967
0.999972
0.999961
0.999957
0.999973
0.999916
0.999921
0.999927
0.999764
0.999744
0.999647
0.999111
0.998578
0.997542
0.995084
0.991462
0.986378
0.97961
0.973604
0.971053
0.971669
0.974345
0.978346
0.980178
0.974157
0.957547
0.930643
0.892233
0.840678
0.779422
0.716175
0.655492
0.594432
0.525626
0.444273
0.358791
0.308039
0.352569
0.490683
0.670766
0.851032
1.00248
1.10857
1.16683
1.18433
1.17167
1.14039
1.10204
1.06655
1.04024
1.02522
1.02019
1.02192
1.02669
1.03131
1.03374
1.03318
1.02996
1.02503
1.01951
1.01427
1.00985