/*--------------------------------*- C++ -*----------------------------------*\
  =========                 |
  \\      /  F ield         | OpenFOAM: The Open Source CFD Toolbox
   \\    /   O peration     | Website:  https://openfoam.org
    \\  /    A nd           | Version:  6
     \\/     M anipulation  |
\*---------------------------------------------------------------------------*/
FoamFile
{
    version     2.0;
    format      ascii;
    class       volVectorField;
    location    "1.74";
    object      U;
}
// * * * * * * * * * * * * * * * * * * * * * * * * * * * * * * * * * * * * * //

dimensions      [0 1 -1 0 0 0 0];

internalField   nonuniform List<vector> 
4214
(
(9.14919 -0.338886 0)
(9.53318 -0.19849 -3.53561e-19)
(9.73515 -0.0669123 6.27336e-20)
(9.86193 0.058585 3.02983e-19)
(9.96693 0.192999 1.97225e-19)
(10.0535 0.333345 -1.63609e-20)
(10.1158 0.470173 -2.09394e-19)
(10.153 0.597024 -8.64007e-20)
(10.1701 0.710474 8.83071e-20)
(10.173 0.808577 0)
(10.167 0.889504 5.37039e-21)
(10.1511 0.949665 3.08413e-20)
(10.12 0.985304 -3.29843e-20)
(10.0812 0.99176 0)
(10.063 0.967606 1.4015e-20)
(10.1094 0.908276 -1.41886e-20)
(10.2161 0.806685 3.86974e-21)
(10.1962 0.667311 6.44061e-21)
(9.75774 0.452177 0)
(8.72053 0.134814 -2.52819e-21)
(8.4123 -0.331401 0)
(9.43021 -0.852311 2.19324e-21)
(10.2755 -1.19118 0)
(10.5238 -1.31677 -5.40995e-21)
(10.4942 -1.33363 -3.13575e-21)
(10.3946 -1.32369 -2.43668e-21)
(10.3368 -1.29418 2.40845e-21)
(10.3295 -1.25063 0)
(10.3507 -1.19173 -4.90943e-20)
(10.3666 -1.11465 4.9652e-20)
(10.3712 -1.01931 -5.4523e-21)
(10.3645 -0.908921 0)
(10.3462 -0.785513 9.36742e-20)
(10.3118 -0.650385 -9.16785e-20)
(10.2571 -0.506121 -2.13899e-19)
(10.1801 -0.357132 -1.32865e-20)
(10.0841 -0.209984 2.35297e-19)
(9.97406 -0.0726666 2.61968e-19)
(9.84304 0.0543703 6.34486e-20)
(9.63365 0.188501 -3.07409e-19)
(9.23686 0.331286 0)
(9.72093 -0.118908 0)
(9.89553 -0.0281305 2.397e-20)
(10.0295 0.120697 -7.832e-20)
(10.1355 0.263374 -4.14076e-19)
(10.2238 0.411496 4.87026e-19)
(10.2856 0.560517 0)
(10.3156 0.699047 0)
(10.3185 0.821612 1.5576e-19)
(10.3034 0.927402 -1.59275e-19)
(10.2771 1.01634 -1.24053e-19)
(10.242 1.08681 1.21135e-19)
(10.1933 1.13507 1.90196e-20)
(10.1286 1.15687 -2.62479e-21)
(10.0581 1.15001 0)
(10.0139 1.11051 0)
(10.03 1.0341 0)
(10.0804 0.916596 -6.10059e-20)
(9.97765 0.756564 -5.12678e-20)
(9.4101 0.528174 3.16339e-20)
(8.27764 0.219781 5.59806e-20)
(7.86551 -0.244502 2.54998e-20)
(8.92272 -0.804757 1.18179e-20)
(9.9733 -1.20783 2.79802e-20)
(10.433 -1.38899 8.69104e-21)
(10.4947 -1.44134 -4.7343e-20)
(10.4302 -1.44637 0)
(10.3803 -1.43255 0)
(10.3822 -1.40229 0)
(10.4186 -1.35961 2.94688e-21)
(10.459 -1.29997 -1.86738e-20)
(10.4893 -1.22069 1.25475e-19)
(10.5085 -1.12448 -1.17536e-19)
(10.5172 -1.0134 -1.51074e-19)
(10.5124 -0.887736 1.47783e-19)
(10.4868 -0.747695 0)
(10.434 -0.595359 0)
(10.3538 -0.4373 3.07542e-19)
(10.2548 -0.284533 -3.59265e-19)
(10.1446 -0.13962 7.65588e-20)
(10.0076 0.0124181 -2.36204e-20)
(9.82571 0.110746 1.43684e-18)
(9.86834 -0.0465114 -2.05035e-18)
(10.0231 0.0992044 -7.73744e-19)
(10.1802 0.274081 8.73017e-19)
(10.2901 0.430524 0)
(10.3576 0.576413 5.89136e-19)
(10.3912 0.714659 -4.74588e-20)
(10.3962 0.840522 -6.39743e-19)
(10.3799 0.951597 0)
(10.3499 1.04802 -1.69723e-19)
(10.3105 1.12929 2.54615e-19)
(10.2611 1.19276 -1.73442e-19)
(10.197 1.23441 1.61746e-19)
(10.1161 1.25077 0)
(10.0305 1.23905 0)
(9.97411 1.19557 5.19345e-20)
(9.97328 1.11579 -6.39785e-20)
(9.99291 0.995842 4.72022e-20)
(9.86198 0.826009 2.39574e-20)
(9.23422 0.587891 4.46934e-20)
(8.05453 0.282808 -1.80566e-20)
(7.57542 -0.176327 0)
(8.62605 -0.756837 1.58557e-20)
(9.75785 -1.19211 -3.91194e-20)
(10.3379 -1.42181 -2.08783e-20)
(10.4559 -1.49728 -4.21374e-20)
(10.4304 -1.50725 -5.23943e-20)
(10.3909 -1.49743 6.08887e-20)
(10.3927 -1.47164 0)
(10.4347 -1.43459 0)
(10.4849 -1.38326 1.8648e-19)
(10.5267 -1.31434 -2.25316e-19)
(10.5574 -1.2292 2.45664e-19)
(10.579 -1.13049 -3.16744e-19)
(10.5902 -1.0191 0)
(10.585 -0.894671 -6.17555e-19)
(10.5564 -0.757128 -4.72456e-20)
(10.5007 -0.609588 6.99007e-19)
(10.4172 -0.457193 2.11343e-19)
(10.2992 -0.296549 6.97708e-19)
(10.1387 -0.118201 -7.56405e-19)
(9.98035 0.0329779 2.00551e-18)
(10.1353 0.1448 -2.25532e-18)
(10.2892 0.296067 2.83243e-19)
(10.4163 0.478621 0)
(10.4873 0.626672 9.69047e-19)
(10.5181 0.756567 -9.93934e-19)
(10.5202 0.878485 -8.76335e-19)
(10.4999 0.990823 8.982e-19)
(10.4632 1.09153 -6.21774e-19)
(10.4156 1.17998 3.15419e-19)
(10.3593 1.25458 -3.02607e-19)
(10.2913 1.31211 3.09118e-19)
(10.2057 1.34898 -1.65918e-19)
(10.1025 1.36164 1.69096e-19)
(9.99726 1.34651 0)
(9.92472 1.30158 1.0416e-19)
(9.90106 1.22261 -9.39475e-20)
(9.87927 1.10205 -4.83072e-20)
(9.67756 0.924948 -9.29912e-20)
(8.98675 0.677087 2.84733e-20)
(7.75956 0.367804 8.03573e-20)
(7.18514 -0.0901157 0)
(8.22138 -0.701629 1.34554e-19)
(9.46046 -1.18248 1.04636e-19)
(10.1894 -1.45886 -2.4506e-19)
(10.4202 -1.56574 4.31007e-20)
(10.4329 -1.5825 -8.13666e-20)
(10.4089 -1.57261 7.10343e-20)
(10.4134 -1.54881 0)
(10.4608 -1.51539 1.65423e-19)
(10.5232 -1.46984 -1.62414e-19)
(10.5803 -1.40933 3.54384e-19)
(10.6257 -1.33407 -2.90284e-19)
(10.6622 -1.24638 4.58424e-19)
(10.6905 -1.14796 -1.46751e-19)
(10.7063 -1.03903 8.65854e-19)
(10.7033 -0.919213 -8.44996e-19)
(10.6774 -0.790366 -9.64141e-19)
(10.627 -0.654333 7.25251e-19)
(10.5438 -0.501086 0)
(10.4114 -0.314121 -2.76019e-19)
(10.2561 -0.158101 2.20694e-18)
(10.4255 0.329506 -6.29437e-19)
(10.5248 0.498423 -1.59556e-18)
(10.6083 0.671041 1.71653e-18)
(10.6423 0.800504 -1.26373e-18)
(10.6416 0.911735 1.29691e-18)
(10.6186 1.01787 1.4899e-18)
(10.579 1.11827 -1.18568e-18)
(10.5271 1.21058 7.51051e-19)
(10.4661 1.29303 -5.24113e-19)
(10.3957 1.36308 0)
(10.3106 1.4178 0)
(10.2053 1.45342 0)
(10.0829 1.46601 -3.65069e-22)
(9.96159 1.45159 -1.55827e-20)
(9.87419 1.41079 9.09128e-20)
(9.82833 1.33863 -1.24129e-19)
(9.76272 1.22102 -9.66442e-20)
(9.49561 1.04049 -1.53618e-19)
(8.7471 0.786177 3.15918e-19)
(7.47205 0.466646 7.46155e-20)
(6.79672 0.00597066 -7.76251e-20)
(7.79757 -0.634529 5.22065e-21)
(9.13237 -1.16327 2.16487e-19)
(10.0022 -1.48448 3.13139e-20)
(10.3616 -1.62812 -2.3169e-19)
(10.4273 -1.6564 -1.1079e-19)
(10.424 -1.64182 1.20192e-19)
(10.4312 -1.61406 -2.20572e-20)
(10.4796 -1.57928 9.04804e-20)
(10.5496 -1.53496 0)
(10.619 -1.47845 0)
(10.6767 -1.40938 0)
(10.724 -1.33002 -5.024e-19)
(10.7644 -1.24204 2.61064e-19)
(10.7961 -1.14651 -1.14252e-18)
(10.8141 -1.04359 7.92814e-19)
(10.8146 -0.934525 1.25775e-18)
(10.7944 -0.819516 -1.22583e-18)
(10.7445 -0.685997 9.43092e-19)
(10.6523 -0.510871 -9.93197e-19)
(10.5505 -0.339491 6.15381e-19)
(10.6872 0.537235 3.51764e-19)
(10.7325 0.680036 -2.44865e-18)
(10.773 0.828369 8.02416e-19)
(10.7732 0.939185 4.43532e-19)
(10.7466 1.03559 0)
(10.7046 1.1305 7.28787e-20)
(10.6511 1.22364 0)
(10.5878 1.31177 -2.71285e-19)
(10.5154 1.39172 1.25101e-18)
(10.4312 1.46111 -1.11171e-18)
(10.3286 1.51705 5.21471e-19)
(10.204 1.55498 2.81159e-19)
(10.0641 1.57155 -2.39599e-19)
(9.9289 1.56315 0)
(9.82549 1.53144 0)
(9.7553 1.4704 0)
(9.63939 1.3606 -8.21431e-20)
(9.30057 1.17902 -1.38314e-19)
(8.48758 0.915568 -2.53303e-19)
(7.16452 0.579636 0)
(6.38007 0.11221 0)
(7.32605 -0.556614 0)
(8.75265 -1.13806 1.62316e-19)
(9.76657 -1.50813 1.25681e-19)
(10.2657 -1.68905 7.46947e-20)
(10.417 -1.73307 0)
(10.4423 -1.71479 7.42006e-21)
(10.4557 -1.67889 0)
(10.5031 -1.63747 -3.16347e-19)
(10.5767 -1.58941 2.65993e-19)
(10.6559 -1.5323 4.94289e-19)
(10.7252 -1.46452 -1.05599e-18)
(10.7821 -1.38853 1.19252e-18)
(10.8309 -1.30621 -9.76946e-19)
(10.873 -1.21868 0)
(10.9061 -1.12739 -6.92187e-20)
(10.9275 -1.03399 0)
(10.9342 -0.937478 -4.29535e-19)
(10.9166 -0.825113 2.39984e-18)
(10.8646 -0.677108 -7.12839e-19)
(10.8135 -0.534516 -1.1742e-18)
(10.8971 0.684779 0)
(10.8924 0.807514 -9.76837e-21)
(10.8967 0.935285 2.42453e-18)
(10.8754 1.03638 -4.52287e-19)
(10.8337 1.12668 1.84547e-18)
(10.7801 1.21749 -1.03544e-18)
(10.7174 1.30913 -1.82891e-18)
(10.6458 1.39759 8.7557e-19)
(10.5635 1.47946 -3.92476e-19)
(10.4656 1.5526 0)
(10.346 1.61353 -5.13954e-19)
(10.2039 1.6577 8.85034e-19)
(10.0495 1.68301 -3.67245e-19)
(9.90386 1.68691 2.18028e-20)
(9.78471 1.66871 2.20642e-19)
(9.68431 1.62168 -4.459e-20)
(9.51147 1.52299 0)
(9.0924 1.34079 -3.61196e-19)
(8.20996 1.06478 5.30321e-19)
(6.83876 0.706571 0)
(5.94166 0.227788 0)
(6.81092 -0.467886 0)
(8.31826 -1.10452 1.54044e-19)
(9.48403 -1.529 -4.44039e-19)
(10.1344 -1.74862 0)
(10.3934 -1.81419 -2.9128e-19)
(10.463 -1.79631 6.89513e-20)
(10.4892 -1.75069 -1.59892e-20)
(10.5345 -1.69776 -3.38593e-19)
(10.6072 -1.64069 8.2171e-19)
(10.6921 -1.57839 -4.79464e-19)
(10.7712 -1.50762 0)
(10.8369 -1.42992 -1.18067e-18)
(10.8917 -1.34767 6.8979e-19)
(10.9395 -1.26232 -1.75249e-18)
(10.9812 -1.1756 7.70023e-19)
(11.0151 -1.08992 1.77639e-18)
(11.0383 -1.00347 4.38078e-19)
(11.0429 -0.904758 1.46668e-18)
(11.0264 -0.78111 -3.72066e-18)
(11.0212 -0.66196 8.44842e-19)
(11.0499 0.783542 -1.21769e-18)
(11.0165 0.886654 -2.27338e-18)
(10.9984 1.002 -1.25385e-18)
(10.9654 1.10228 0)
(10.9157 1.19438 0)
(10.8551 1.28755 5.11727e-19)
(10.7861 1.3827 0)
(10.7078 1.47595 5.03396e-19)
(10.6157 1.56424 -1.43411e-18)
(10.5041 1.6451 -3.14326e-19)
(10.3682 1.71477 8.00727e-19)
(10.211 1.76955 4.61253e-19)
(10.0458 1.80871 -4.70789e-19)
(9.89238 1.83077 -7.93959e-20)
(9.75803 1.831 1.16966e-19)
(9.61643 1.79926 -3.22037e-19)
(9.37649 1.71089 -4.2243e-20)
(8.86849 1.52722 6.68827e-20)
(7.90865 1.23473 3.97823e-19)
(6.48708 0.84764 6.85772e-20)
(5.47741 0.351717 1.28799e-19)
(6.24846 -0.369541 -1.9042e-19)
(7.82339 -1.06217 3.73374e-19)
(9.14434 -1.5455 -8.90301e-20)
(9.9602 -1.81379 -5.09084e-19)
(10.3465 -1.90382 -6.10866e-20)
(10.4851 -1.8919 2.04751e-19)
(10.5346 -1.83764 1.00946e-19)
(10.5797 -1.76992 -4.22145e-19)
(10.6481 -1.6992 4.1408e-19)
(10.7344 -1.62719 7.42952e-19)
(10.8207 -1.54958 -1.16028e-18)
(10.8946 -1.46637 -5.28814e-19)
(10.9552 -1.3794 1.36339e-18)
(11.0061 -1.29085 0)
(11.0517 -1.20273 -4.90445e-19)
(11.0918 -1.11718 1.17914e-18)
(11.1235 -1.03231 0)
(11.1412 -0.938884 1.21308e-18)
(11.1474 -0.831409 1.02608e-18)
(11.168 -0.734608 1.19363e-18)
(11.1677 0.835443 -1.85845e-19)
(11.1252 0.934036 -2.86005e-18)
(11.0961 1.04799 2.55867e-18)
(11.0558 1.15282 0)
(11.0012 1.25141 0)
(10.9367 1.35152 0)
(10.8634 1.4542 0)
(10.7788 1.55629 0)
(10.6764 1.65479 1.08274e-18)
(10.5512 1.74679 -2.15919e-18)
(10.4006 1.829 0)
(10.2318 1.89899 0)
(10.0596 1.95731 -1.68018e-19)
(9.89932 2.00219 2.49106e-19)
(9.74754 2.02662 2.38927e-19)
(9.55644 2.01062 -5.867e-19)
(9.23198 1.9272 -1.0937e-19)
(8.62311 1.73847 -3.93372e-19)
(7.57782 1.42523 0)
(6.10331 1.00285 -3.57425e-19)
(4.98522 0.482294 -1.446e-19)
(5.6374 -0.263397 4.86538e-19)
(7.26365 -1.01143 2.44088e-19)
(8.73622 -1.55665 0)
(9.73208 -1.87928 9.16779e-19)
(10.2692 -2.00443 -6.04205e-19)
(10.5038 -2.0053 1.07722e-19)
(10.5917 -1.94444 8.34453e-20)
(10.6426 -1.86134 -1.34904e-19)
(10.7056 -1.77386 0)
(10.7886 -1.68816 0)
(10.8788 -1.60021 -6.1165e-20)
(10.9597 -1.50875 4.23247e-19)
(11.0265 -1.41422 0)
(11.0803 -1.31861 0)
(11.1271 -1.22464 0)
(11.1692 -1.13426 -1.2046e-18)
(11.2046 -1.04576 0)
(11.2299 -0.951441 2.8427e-18)
(11.2469 -0.848648 -1.19438e-18)
(11.2758 -0.758907 1.78119e-19)
(11.2783 0.874094 -9.83412e-18)
(11.2371 0.973837 4.63241e-18)
(11.2031 1.09148 1.49871e-18)
(11.157 1.20298 3.14926e-18)
(11.0991 1.30983 -6.34849e-18)
(11.0324 1.41958 1.50931e-18)
(10.9557 1.53307 -1.65386e-18)
(10.8643 1.6473 0)
(10.7511 1.75879 -2.82639e-18)
(10.6132 1.86515 1.44892e-18)
(10.4505 1.96392 1.20618e-18)
(10.2747 2.05423 2.58442e-19)
(10.0988 2.13745 -1.02357e-18)
(9.93011 2.20913 2.435e-19)
(9.75194 2.25943 1.01908e-19)
(9.50247 2.26042 2.48782e-19)
(9.0775 2.1779 -1.42457e-19)
(8.3503 1.97476 8.17457e-19)
(7.2099 1.63448 -2.85801e-19)
(5.67934 1.17133 7.49769e-19)
(4.46139 0.616879 0)
(4.97553 -0.152241 -1.62989e-19)
(6.63543 -0.952979 -5.30345e-19)
(8.25181 -1.56059 -4.13164e-19)
(9.43751 -1.9437 -7.09778e-19)
(10.1532 -2.11516 2.32917e-19)
(10.5096 -2.137 2.24454e-19)
(10.6565 -2.07279 1.89022e-19)
(10.7253 -1.97629 -8.54529e-19)
(10.7855 -1.87058 1.09636e-18)
(10.8615 -1.76808 1.09019e-18)
(10.9512 -1.66662 -3.66859e-19)
(11.0368 -1.56451 7.78194e-19)
(11.1102 -1.46097 0)
(11.1677 -1.35652 0)
(11.2154 -1.25422 4.62643e-18)
(11.2572 -1.15637 -6.04687e-18)
(11.2944 -1.06245 3.00896e-18)
(11.324 -0.964744 -1.447e-18)
(11.3453 -0.861004 1.65429e-18)
(11.3734 -0.772223 -2.81077e-18)
(11.4015 0.913106 -5.81179e-18)
(11.3619 1.0177 0)
(11.3247 1.14198 -1.99199e-18)
(11.2755 1.26106 0)
(11.2164 1.37717 0)
(11.1488 1.49891 1.72529e-18)
(11.0685 1.62567 1.69113e-18)
(10.9697 1.75433 -1.91633e-18)
(10.8457 1.88123 3.38147e-18)
(10.6974 2.00544 9.96251e-19)
(10.5271 2.12529 0)
(10.3498 2.24171 1.52781e-18)
(10.172 2.35548 -1.53421e-18)
(9.99036 2.45778 4.59765e-19)
(9.77212 2.53401 -4.71862e-20)
(9.44484 2.54903 -5.82312e-19)
(8.90571 2.46406 7.32935e-19)
(8.0457 2.23764 -8.49239e-19)
(6.79746 1.86003 7.75507e-19)
(5.20642 1.35044 1.33821e-21)
(3.89836 0.753024 0)
(4.26309 -0.0398107 -3.66005e-21)
(5.93589 -0.887737 2.22316e-19)
(7.68534 -1.55722 -8.62721e-19)
(9.0697 -2.00743 7.99232e-19)
(9.98361 -2.23178 -4.67624e-19)
(10.4891 -2.28174 1.5938e-19)
(10.7229 -2.22152 -1.54864e-19)
(10.8273 -2.11571 -4.51443e-19)
(10.8927 -1.99175 3.90792e-19)
(10.9601 -1.87009 0)
(11.0449 -1.75229 0)
(11.1304 -1.63693 -3.08611e-18)
(11.2096 -1.52326 1.76087e-18)
(11.2718 -1.4092 -1.82749e-18)
(11.3211 -1.29781 -1.62712e-18)
(11.3621 -1.19136 0)
(11.3992 -1.09122 0)
(11.4302 -0.989454 1.90826e-18)
(11.4532 -0.882364 0)
(11.4798 -0.791504 -1.64754e-18)
(11.5441 0.956125 -8.5869e-18)
(11.5041 1.06868 -4.21637e-18)
(11.466 1.20147 8.69155e-18)
(11.4176 1.32916 -6.68013e-18)
(11.3595 1.45634 2.08982e-18)
(11.2914 1.59209 2.36264e-18)
(11.2067 1.73371 0)
(11.1003 1.87895 -3.43147e-19)
(10.9668 2.02381 -1.87582e-18)
(10.8128 2.17023 -5.65665e-18)
(10.6407 2.31636 -8.88404e-20)
(10.4679 2.46539 1.32762e-18)
(10.2865 2.61489 -6.35673e-19)
(10.0828 2.75039 -3.13325e-19)
(9.80649 2.85255 2.31986e-19)
(9.37716 2.87606 -1.42032e-19)
(8.70202 2.78059 8.51146e-19)
(7.69638 2.52328 -1.14038e-18)
(6.33149 2.10058 -3.21199e-19)
(4.67629 1.53659 3.05853e-19)
(3.28853 0.887727 0)
(3.50105 0.0698524 3.21858e-19)
(5.166 -0.819187 -3.06529e-19)
(7.03511 -1.54956 5.08453e-19)
(8.61554 -2.06664 7.77597e-19)
(9.7411 -2.34725 -8.71336e-19)
(10.428 -2.43626 1.1838e-19)
(10.7813 -2.38748 9.3958e-19)
(10.9435 -2.27705 -2.44922e-18)
(11.0288 -2.13644 3.86715e-19)
(11.0894 -1.99383 3.29836e-18)
(11.1664 -1.8574 2.7197e-19)
(11.2455 -1.72566 3.70552e-18)
(11.3274 -1.60035 -1.80221e-18)
(11.3944 -1.47589 -2.91348e-19)
(11.4469 -1.35524 -2.19645e-18)
(11.4874 -1.23964 6.41876e-18)
(11.5229 -1.13234 -4.08918e-18)
(11.5527 -1.0256 7.28616e-22)
(11.5749 -0.913803 -4.04594e-18)
(11.6003 -0.81884 8.31261e-18)
(11.709 1.00241 -2.54485e-18)
(11.6688 1.1257 0)
(11.6331 1.26715 -2.37071e-18)
(11.5882 1.40501 2.4041e-18)
(11.5319 1.54552 2.41499e-18)
(11.4631 1.69695 2.69099e-18)
(11.3732 1.85487 -2.44796e-18)
(11.2609 2.01922 4.83682e-18)
(11.1216 2.18541 1.67569e-19)
(10.9697 2.35973 2.15556e-18)
(10.8018 2.53807 1.9801e-18)
(10.6376 2.72672 -2.84843e-18)
(10.4443 2.91555 1.5301e-19)
(10.2046 3.08513 9.50503e-19)
(9.84608 3.21038 -6.99246e-19)
(9.28928 3.23538 -7.55253e-20)
(8.4537 3.12184 -9.02177e-20)
(7.28672 2.82281 8.40169e-19)
(5.80104 2.34726 -1.02459e-18)
(4.08199 1.72325 4.32605e-19)
(2.62743 1.01634 0)
(2.69329 0.171433 1.69424e-19)
(4.33048 -0.753299 -5.26409e-19)
(6.29757 -1.53638 5.13954e-20)
(8.06334 -2.11811 -2.24773e-19)
(9.41134 -2.45821 2.16216e-19)
(10.3075 -2.59558 -2.83459e-19)
(10.8158 -2.56553 -6.88041e-20)
(11.0616 -2.45561 2.73756e-18)
(11.1897 -2.30193 2.01187e-19)
(11.2501 -2.13694 -1.71344e-18)
(11.3216 -1.98014 -1.90528e-18)
(11.3881 -1.82838 -6.75362e-18)
(11.4671 -1.68897 2.23316e-18)
(11.5362 -1.55255 -5.18826e-18)
(11.593 -1.42217 6.95805e-18)
(11.6341 -1.29682 -2.2652e-18)
(11.6675 -1.1813 0)
(11.6941 -1.0683 2.25985e-18)
(11.7137 -0.950619 0)
(11.7379 -0.849282 2.44673e-18)
(11.8985 1.04795 -8.73385e-18)
(11.8613 1.18301 -5.69416e-18)
(11.8303 1.33248 5.85781e-18)
(11.7907 1.48317 0)
(11.7353 1.63873 0)
(11.6655 1.80694 0)
(11.571 1.98363 -6.22095e-18)
(11.458 2.17006 3.3502e-18)
(11.3199 2.36297 -5.70472e-18)
(11.1809 2.57195 3.00259e-18)
(11.0206 2.78915 0)
(10.8657 3.02393 2.5403e-18)
(10.6424 3.25216 -8.99392e-21)
(10.3495 3.45411 -5.89548e-20)
(9.87736 3.5947 -1.18558e-18)
(9.16587 3.61113 4.72591e-19)
(8.14543 3.47054 -3.46661e-20)
(6.80466 3.12076 -1.70897e-19)
(5.19608 2.58916 0)
(3.41603 1.90109 -3.87676e-19)
(1.91205 1.13061 1.5633e-19)
(1.84555 0.258635 2.52552e-19)
(3.43659 -0.692635 0)
(5.47369 -1.51874 -2.92248e-19)
(7.40954 -2.16141 5.83922e-19)
(8.98089 -2.55879 -5.24088e-20)
(10.105 -2.7513 3.00512e-19)
(10.8098 -2.74918 1.45798e-18)
(11.1651 -2.64394 -1.45976e-18)
(11.3696 -2.48398 -2.07233e-18)
(11.4413 -2.29617 0)
(11.5162 -2.11756 2.63289e-18)
(11.5661 -1.94204 -9.7165e-20)
(11.6352 -1.78438 -2.9989e-18)
(11.6994 -1.63374 5.65825e-18)
(11.7588 -1.49187 0)
(11.8013 -1.35647 0)
(11.8334 -1.2311 0)
(11.8559 -1.11099 5.55612e-18)
(11.8726 -0.987529 -5.40085e-18)
(11.8944 -0.878574 8.38334e-18)
(12.1173 1.0859 -3.43941e-18)
(12.0886 1.22985 0)
(12.0612 1.38847 0)
(12.0288 1.55201 0)
(11.9732 1.72627 0)
(11.904 1.91088 7.25166e-18)
(11.8085 2.11232 -4.02427e-18)
(11.7047 2.32163 -7.09004e-18)
(11.5786 2.55134 -3.39332e-19)
(11.4656 2.79904 -4.04074e-18)
(11.3117 3.06379 -3.97494e-18)
(11.1632 3.3462 1.62629e-18)
(10.8811 3.60915 -3.14936e-18)
(10.518 3.84009 1.06977e-18)
(9.88827 3.98107 7.95034e-19)
(8.99679 3.9806 4.22257e-19)
(7.7641 3.80173 -4.19176e-19)
(6.23833 3.3969 7.03277e-21)
(4.50369 2.81238 8.76307e-20)
(2.66162 2.05964 -5.96231e-20)
(1.1314 1.21701 1.2601e-19)
(0.952979 0.318984 -6.5438e-20)
(2.48231 -0.644941 0)
(4.5642 -1.49904 -1.87026e-19)
(6.65165 -2.19426 3.08548e-19)
(8.44763 -2.64598 1.87855e-20)
(9.80614 -2.89087 -4.62132e-19)
(10.76 -2.92986 -7.48834e-19)
(11.2459 -2.82949 -2.49528e-18)
(11.5718 -2.67227 5.7734e-19)
(11.6672 -2.46405 3.34486e-18)
(11.7585 -2.26181 3.46741e-18)
(11.7904 -2.06197 6.90811e-18)
(11.8422 -1.87862 -1.69447e-19)
(11.8907 -1.71339 -9.87893e-18)
(11.9463 -1.55497 6.58157e-18)
(11.9901 -1.41135 0)
(12.0227 -1.27246 3.50358e-18)
(12.0408 -1.14566 0)
(12.0543 -1.01652 0)
(12.0718 -0.900952 3.27223e-18)
(12.3638 1.10318 7.50765e-18)
(12.3522 1.246 0)
(12.3261 1.42687 0)
(12.3036 1.59228 -1.27311e-17)
(12.2486 1.80115 8.52629e-18)
(12.1879 1.99127 0)
(12.1018 2.23461 0)
(12.0212 2.4557 0)
(11.9195 2.74437 1.38138e-17)
(11.8433 3.0193 -5.00929e-19)
(11.6868 3.34869 -3.27507e-19)
(11.5423 3.66304 1.37079e-17)
(11.1565 3.96033 -6.27451e-18)
(10.7123 4.21817 3.7066e-18)
(9.85212 4.33588 -3.76954e-18)
(8.77862 4.32137 -1.00721e-18)
(7.29911 4.08719 1.28135e-19)
(5.58995 3.64485 2.93954e-19)
(3.71082 3.00827 -1.62001e-19)
(1.7837 2.19136 7.30548e-20)
(0.241362 1.25814 0)
(-0.0227979 0.340857 1.6005e-19)
(1.42838 -0.618999 -1.57547e-19)
(3.56285 -1.49907 -1.87099e-20)
(5.78906 -2.22154 6.3664e-19)
(7.8355 -2.73383 -3.80997e-19)
(9.39758 -3.00152 1.56919e-19)
(10.6776 -3.09992 2.67467e-18)
(11.2945 -2.99777 -4.92079e-18)
(11.7985 -2.84633 6.1998e-18)
(11.9292 -2.62526 -7.07748e-18)
(12.0524 -2.39118 -7.55928e-18)
(12.0681 -2.18107 2.37059e-19)
(12.0988 -1.95766 4.36104e-18)
(12.1243 -1.7873 0)
(12.1639 -1.59825 0)
(12.2054 -1.45612 7.84988e-18)
(12.238 -1.29334 -7.11698e-18)
(12.2501 -1.16561 0)
(12.261 -1.02222 0)
(12.27 -0.910247 -7.13277e-18)
(12.6296 1.09993 -4.0838e-18)
(12.6396 1.20681 0)
(12.6186 1.45832 0)
(12.6095 1.57958 -6.30123e-19)
(12.5554 1.87052 0)
(12.5202 2.01946 1.04987e-17)
(12.4579 2.35808 -1.08002e-17)
(12.4168 2.54559 0)
(12.3469 2.94727 -1.14412e-17)
(12.3052 3.19661 0)
(12.113 3.6348 6.44473e-18)
(11.9768 3.92836 -5.82118e-18)
(11.3923 4.29485 -8.60612e-18)
(10.9001 4.56371 2.79947e-18)
(9.66643 4.62235 -1.52494e-19)
(8.513 4.60766 4.1333e-18)
(6.69718 4.29524 -1.2613e-18)
(4.89909 3.89229 0)
(2.82225 3.17522 0)
(0.77672 2.31487 1.80222e-19)
(-1.07804 1.3307 0)
(-1.22305 0.369026 -7.02342e-20)
(0.257804 -0.604608 -2.02973e-19)
(2.5174 -1.59061 0)
(4.79877 -2.25884 -1.2093e-18)
(7.19764 -2.86153 2.40879e-18)
(8.80211 -3.08183 -2.83862e-18)
(10.5544 -3.25599 2.1216e-18)
(11.2292 -3.15053 -6.73016e-18)
(12.0012 -2.9906 1.3762e-17)
(12.1788 -2.77952 -5.24303e-18)
(12.3775 -2.47375 0)
(12.3867 -2.29754 5.30689e-18)
(12.4033 -2.00425 -4.47129e-18)
(12.4109 -1.8628 -9.65184e-18)
(12.4177 -1.60588 9.38413e-18)
(12.4446 -1.49572 0)
(12.473 -1.27522 5.65646e-19)
(12.4791 -1.18008 0)
(12.4869 -0.985541 0)
(12.4837 -0.908424 3.87554e-18)
(12.478 -0.744807 -4.28387e-18)
(12.2946 -0.8056 0)
(12.1146 -0.823605 0)
(11.9468 -0.818744 -5.61842e-18)
(11.7945 -0.801603 -2.56593e-18)
(11.6574 -0.77775 -4.51245e-18)
(11.5376 -0.752757 -2.2761e-19)
(11.4354 -0.734162 -2.07399e-18)
(11.3432 -0.721068 -1.65963e-18)
(11.2352 -0.69964 1.6573e-18)
(11.0777 -0.624616 0)
(10.8477 -0.511353 0)
(10.5493 -0.307512 2.32679e-18)
(10.2138 -0.183939 -3.67353e-18)
(9.93807 0.0581064 -3.62091e-18)
(9.65599 0.000390247 -2.4382e-18)
(8.80459 0.420428 1.46002e-19)
(12.4734 -0.678675 -8.6784e-18)
(12.315 -0.706312 0)
(12.1617 -0.72529 0)
(12.0138 -0.729805 -1.01572e-17)
(11.8736 -0.720888 -3.18521e-18)
(11.7419 -0.702378 -5.66965e-18)
(11.6248 -0.677726 2.39621e-18)
(11.5258 -0.653821 -2.39098e-18)
(11.4396 -0.637588 1.97135e-18)
(11.3522 -0.633086 -1.96672e-18)
(11.238 -0.603625 -3.5666e-18)
(11.071 -0.554065 0)
(10.8181 -0.394424 -2.45846e-18)
(10.49 -0.281898 2.61588e-18)
(10.1117 0.0165604 1.85531e-18)
(9.77454 -0.0760156 -2.09646e-18)
(8.80357 0.337731 0)
(12.4573 -0.527747 1.85423e-17)
(12.3282 -0.59761 4.15291e-18)
(12.1971 -0.630033 0)
(12.0658 -0.644073 7.25815e-18)
(11.9375 -0.645099 0)
(11.8144 -0.636537 6.04408e-18)
(11.7029 -0.617796 -2.74014e-18)
(11.6096 -0.594315 2.73109e-18)
(11.5282 -0.571699 0)
(11.4473 -0.55798 2.11124e-18)
(11.3506 -0.532262 -2.45569e-19)
(11.2211 -0.505704 1.77743e-19)
(11.0209 -0.39281 2.51856e-18)
(10.7347 -0.31392 -4.24858e-18)
(10.3195 -0.0318651 7.00793e-19)
(9.87555 -0.106075 2.48911e-18)
(8.82451 0.347894 -2.78749e-19)
(12.4442 -0.473976 -4.65827e-18)
(12.3301 -0.50833 -9.2504e-18)
(12.2215 -0.537439 -8.71306e-18)
(12.109 -0.557929 -8.17681e-18)
(11.9943 -0.566858 3.62888e-18)
(11.8821 -0.566033 -1.07282e-17)
(11.7789 -0.553666 -3.11554e-18)
(11.6919 -0.534485 3.10122e-18)
(11.6156 -0.511347 0)
(11.5418 -0.494627 0)
(11.4622 -0.472677 -7.26804e-18)
(11.3672 -0.456282 4.36805e-18)
(11.2251 -0.379772 -2.08508e-18)
(11.0004 -0.324691 0)
(10.5886 -0.0739124 0)
(10.0265 -0.125678 0)
(8.88617 0.327884 -2.89746e-18)
(12.4177 -0.339763 2.08635e-17)
(12.3288 -0.408945 4.8361e-18)
(12.239 -0.450222 4.5584e-18)
(12.143 -0.474865 8.77562e-18)
(12.0418 -0.489692 0)
(11.9421 -0.495348 1.55161e-17)
(11.8501 -0.491152 0)
(11.7705 -0.478007 -6.96107e-18)
(11.6991 -0.456172 3.08282e-18)
(11.6299 -0.435416 -1.21043e-17)
(11.5598 -0.4114 8.15532e-18)
(11.4865 -0.395986 5.41367e-18)
(11.3914 -0.343968 0)
(11.2351 -0.313201 1.0598e-18)
(10.8746 -0.104266 -1.05447e-18)
(10.2156 -0.136879 -2.23628e-19)
(8.98229 0.312114 -3.62111e-19)
(12.3986 -0.29609 -1.11883e-17)
(12.3182 -0.334193 0)
(12.2441 -0.3674 -4.95993e-18)
(12.1654 -0.394027 4.92168e-18)
(12.0798 -0.413453 0)
(11.9945 -0.424382 -8.469e-18)
(11.9154 -0.427556 3.9475e-18)
(11.8432 -0.420915 7.23473e-18)
(11.7768 -0.404764 -3.68875e-18)
(11.713 -0.384845 3.25311e-18)
(11.6506 -0.360229 3.28002e-18)
(11.591 -0.343105 -4.28688e-18)
(11.5253 -0.300137 -1.44697e-18)
(11.4253 -0.287473 0)
(11.1426 -0.124803 0)
(10.4383 -0.146384 2.7444e-19)
(9.11458 0.283601 3.55903e-18)
(12.3625 -0.177424 5.95235e-18)
(12.3033 -0.245126 5.60194e-18)
(12.2416 -0.288171 -5.34948e-18)
(12.1765 -0.31805 1.04231e-17)
(12.1073 -0.339798 -4.96094e-18)
(12.0383 -0.354795 4.69826e-18)
(11.9729 -0.362722 -4.43611e-18)
(11.9092 -0.362641 4.53159e-18)
(11.8475 -0.353911 8.08161e-18)
(11.789 -0.337604 -3.9159e-18)
(11.7333 -0.315087 -3.56023e-18)
(11.6826 -0.29529 7.09432e-18)
(11.6335 -0.259776 3.38988e-18)
(11.5708 -0.247832 1.72307e-18)
(11.3607 -0.135368 5.23506e-18)
(10.6786 -0.147734 1.87692e-18)
(9.28513 0.246856 3.01845e-18)
(12.3374 -0.142235 -1.25752e-17)
(12.28 -0.181172 5.98859e-18)
(12.2285 -0.216309 -5.74758e-18)
(12.1757 -0.245947 5.67888e-18)
(12.123 -0.269576 -1.07828e-17)
(12.0717 -0.287024 1.02436e-17)
(12.0204 -0.298126 -5.06354e-18)
(11.9664 -0.303683 -4.66458e-18)
(11.9105 -0.301646 0)
(11.8573 -0.29204 4.38125e-18)
(11.8081 -0.274475 0)
(11.7637 -0.254846 2.32509e-19)
(11.7248 -0.227459 2.56041e-19)
(11.6819 -0.210073 2.71743e-19)
(11.5189 -0.134754 -2.37996e-18)
(10.9165 -0.138869 -5.10735e-19)
(9.49071 0.205286 -2.82781e-18)
(12.2934 -0.0376902 0)
(12.2524 -0.102876 -1.37195e-19)
(12.2095 -0.146842 6.14168e-18)
(12.1667 -0.178577 -1.1908e-17)
(12.1275 -0.203591 1.74561e-17)
(12.0918 -0.222503 -5.54766e-18)
(12.0543 -0.235621 5.39e-18)
(12.0113 -0.244125 -5.15971e-18)
(11.9642 -0.247568 5.03734e-18)
(11.9172 -0.245438 -4.66679e-18)
(11.874 -0.234201 0)
(11.8348 -0.218579 -8.73849e-18)
(11.8025 -0.196854 -4.07331e-18)
(11.7702 -0.17747 -3.88964e-18)
(11.6425 -0.125611 9.4991e-19)
(11.1327 -0.119008 -4.03778e-18)
(9.72123 0.157094 -4.4937e-19)
(12.2644 -0.0109977 1.41751e-17)
(12.22 -0.0508538 -2.0509e-17)
(12.1832 -0.0855381 6.50732e-18)
(12.1508 -0.11539 6.4401e-18)
(12.1233 -0.141206 -1.23818e-17)
(12.0982 -0.162115 6.05122e-18)
(12.0711 -0.176758 5.80844e-18)
(12.0396 -0.18721 -5.59463e-18)
(12.0042 -0.192894 -5.37413e-18)
(11.9667 -0.19625 0)
(11.9299 -0.191607 2.48766e-18)
(11.896 -0.183494 2.29282e-18)
(11.8689 -0.166693 -2.44695e-18)
(11.8441 -0.150087 -1.16188e-18)
(11.7439 -0.112763 -1.09523e-18)
(11.3128 -0.0955595 -4.82156e-18)
(9.96016 0.105314 5.10407e-19)
(12.2132 0.0787022 -7.34825e-18)
(12.1839 0.0163562 -7.1689e-18)
(12.1554 -0.0254003 -4.48711e-20)
(12.1318 -0.0562673 0)
(12.1128 -0.0826969 0)
(12.0939 -0.104581 -6.34733e-18)
(12.0727 -0.122086 6.22593e-18)
(12.0494 -0.134598 0)
(12.025 -0.141186 0)
(11.9994 -0.146992 0)
(11.9723 -0.145996 0)
(11.9453 -0.147508 -5.33193e-18)
(11.9232 -0.135203 7.55619e-18)
(11.9042 -0.125197 -3.71828e-18)
(11.8254 -0.0989272 1.20601e-18)
(11.4526 -0.0739986 4.51821e-18)
(10.1884 0.0573788 0)
(12.1792 0.0971569 4.13925e-18)
(12.1451 0.0570066 0)
(12.1238 0.0251035 -3.63615e-18)
(12.1097 -0.00262382 3.60348e-18)
(12.0969 -0.0284474 -6.97239e-18)
(12.0818 -0.0514421 -3.33313e-18)
(12.0642 -0.0701275 -3.23955e-18)
(12.0461 -0.0845638 -3.15062e-18)
(12.0287 -0.0950231 8.04099e-21)
(12.0116 -0.103656 -3.00736e-18)
(11.9946 -0.103551 -5.83527e-18)
(11.9772 -0.108522 5.61869e-18)
(11.9624 -0.0989148 -2.76655e-18)
(11.948 -0.102031 -2.68564e-18)
(11.8866 -0.0827622 -2.6174e-18)
(11.5589 -0.0575796 -2.54915e-18)
(10.3902 0.0194398 -2.502e-18)
(12.1204 0.172049 8.36121e-18)
(12.1031 0.112952 -7.91537e-18)
(12.0914 0.0749568 3.94296e-18)
(12.0839 0.0469547 3.81918e-18)
(12.075 0.021265 6.1554e-20)
(12.0627 -0.00211393 4.42658e-20)
(12.0489 -0.022088 6.89019e-18)
(12.0352 -0.0391319 5.98568e-20)
(12.0223 -0.0519678 3.25242e-18)
(12.0099 -0.063704 6.29522e-18)
(11.9987 -0.0670795 2.98313e-21)
(11.9887 -0.0767459 2.98243e-18)
(11.9823 -0.0664347 -2.89252e-18)
(11.972 -0.0797123 -1.42166e-18)
(11.9267 -0.0601603 4.11993e-18)
(11.6349 -0.0478784 2.66045e-18)
(10.5564 -0.0070418 2.60535e-18)
(12.0819 0.183098 -8.59117e-18)
(12.0606 0.144219 8.44468e-18)
(12.0547 0.115418 0)
(12.0515 0.0898918 3.90148e-18)
(12.0448 0.0645077 -3.66076e-18)
(12.0355 0.0406916 0)
(12.0258 0.0199034 -3.49645e-18)
(12.0166 0.00164663 3.48835e-18)
(12.0078 -0.0128778 -3.35178e-18)
(11.9995 -0.0275634 3.26518e-18)
(11.9923 -0.0337451 3.1745e-18)
(11.9866 -0.049529 -3.09619e-18)
(11.9868 -0.0419126 3.02719e-18)
(11.9822 -0.0646612 4.42121e-18)
(11.9477 -0.0383818 -1.43775e-18)
(11.6837 -0.0447856 0)
(10.6854 -0.0209583 0)
(12.0192 0.245011 4.59941e-18)
(12.0161 0.190747 0)
(12.0155 0.156246 0)
(12.0126 0.129732 0)
(12.0065 0.103728 3.95308e-18)
(11.9996 0.079107 3.75596e-18)
(11.9932 0.0572354 3.69946e-18)
(11.9873 0.0374665 -3.53015e-18)
(11.9818 0.0209281 -3.42906e-18)
(11.9771 0.00359494 3.33179e-18)
(11.9733 -0.00459429 1.62289e-18)
(11.9716 -0.025096 -1.57918e-18)
(11.9721 -0.0168448 0)
(11.9727 -0.0495913 -1.50608e-18)
(11.9509 -0.0197049 1.46858e-18)
(11.706 -0.045234 0)
(10.78 -0.0200809 0)
(11.9791 0.251053 0)
(11.9709 0.215929 4.41963e-18)
(11.9695 0.189235 -2.17906e-18)
(11.9658 0.164128 0)
(11.9603 0.138421 0)
(11.955 0.11381 0)
(11.9504 0.091594 -3.66926e-18)
(11.9465 0.0712066 3.54902e-18)
(11.943 0.0528915 1.6765e-18)
(11.9405 0.0339056 -1.6736e-18)
(11.9388 0.0227273 3.25159e-18)
(11.94 -0.00137891 -1.58062e-18)
(11.943 0.00623897 0)
(11.9466 -0.0373527 7.54422e-19)
(11.9362 0.0013401 6.98769e-19)
(11.7024 -0.0531057 -3.6146e-19)
(10.8423 -0.0152104 3.53719e-19)
(11.9164 0.304885 2.27731e-18)
(11.921 0.255994 6.0105e-20)
(11.9184 0.224131 -2.2463e-18)
(11.913 0.198033 2.03999e-18)
(11.9074 0.172431 -5.89047e-20)
(11.9024 0.147258 -3.71122e-18)
(11.898 0.123886 3.57484e-18)
(11.8945 0.102376 0)
(11.8919 0.0822014 -3.44046e-18)
(11.8904 0.0621865 -3.87017e-21)
(11.8897 0.0480557 1.59367e-18)
(11.8922 0.0223265 0)
(11.8957 0.0270641 0)
(11.9007 -0.0249096 0)
(11.8755 0.0231389 -1.11244e-18)
(11.6757 -0.0633556 -5.26667e-19)
(10.8716 0.00185447 1.72464e-19)
(11.8711 0.310796 -1.27521e-18)
(11.8653 0.277136 2.27462e-18)
(11.859 0.253452 -2.16555e-18)
(11.853 0.228277 -2.00481e-18)
(11.8472 0.203543 -1.97532e-18)
(11.842 0.178903 3.73634e-18)
(11.8371 0.155391 -5.76262e-20)
(11.8329 0.132229 -3.39668e-18)
(11.8294 0.109778 1.63685e-18)
(11.8271 0.0889611 -7.90905e-19)
(11.8262 0.0719358 7.64346e-19)
(11.8286 0.0458465 -1.4537e-18)
(11.8319 0.0465854 7.19657e-19)
(11.8366 -0.00885639 -3.19707e-19)