/*--------------------------------*- C++ -*----------------------------------*\
  =========                 |
  \\      /  F ield         | OpenFOAM: The Open Source CFD Toolbox
   \\    /   O peration     | Website:  https://openfoam.org
    \\  /    A nd           | Version:  6
     \\/     M anipulation  |
\*---------------------------------------------------------------------------*/
FoamFile
{
    version     2.0;
    format      ascii;
    class       volScalarField;
    location    "3.62";
    object      epsilon;
}
// * * * * * * * * * * * * * * * * * * * * * * * * * * * * * * * * * * * * * //

dimensions      [0 2 -3 0 0 0 0];

internalField   nonuniform List<scalar> 
4214
(
0.223593
0.0798247
0.0326736
0.0172657
0.0124959
0.011479
0.0122131
0.0146688
0.0202729
0.0322915
0.0569508
0.103876
0.184272
0.305651
0.465757
0.656013
0.890573
1.27906
2.06201
3.54285
5.36696
6.67002
6.58421
5.8127
5.35355
5.79669
7.43196
10.1384
12.4959
12.073
7.12055
2.32492
0.407661
0.0582418
0.0192517
0.0128089
0.0123545
0.0161339
0.0299746
0.0728053
0.199548
0.0294402
0.0168886
0.0124607
0.0110776
0.0109455
0.0115708
0.0131824
0.0167297
0.0245858
0.0415417
0.0764477
0.142439
0.25348
0.415932
0.619701
0.84115
1.06776
1.35515
1.90814
3.02684
4.61976
5.98295
6.34858
5.90019
5.45818
5.84306
7.6432
10.626
13.2884
13.3619
8.28393
2.78444
0.488745
0.0665986
0.0209451
0.013096
0.011169
0.0107502
0.0114193
0.0141085
0.021982
0.0118127
0.0109029
0.0106673
0.0108082
0.011303
0.0123588
0.0146337
0.0195916
0.0307477
0.0550404
0.105096
0.198641
0.352092
0.567508
0.82195
1.07494
1.29542
1.50005
1.80621
2.47583
3.60054
4.77719
5.38602
5.39323
5.35133
6.08248
8.23444
11.5374
14.3885
14.5204
9.32191
3.17588
0.557189
0.0738417
0.0226171
0.0137543
0.0114777
0.0106777
0.0104298
0.0104858
0.0109368
0.0108552
0.0107935
0.0109366
0.0112909
0.0120083
0.0134557
0.016628
0.0236437
0.0397449
0.0750292
0.14752
0.280692
0.492273
0.775545
1.08963
1.37677
1.59536
1.74546
1.88767
2.22522
2.91396
3.80824
4.48804
4.84179
5.22057
6.42564
9.0393
12.686
15.6045
15.5393
10.1173
3.4787
0.611437
0.0800564
0.0243086
0.014497
0.0119357
0.0109998
0.0106422
0.0105085
0.01052
0.0110393
0.0111602
0.0114276
0.0119213
0.012894
0.0148816
0.0193731
0.0294448
0.0530218
0.104774
0.210194
0.399113
0.687357
1.05268
1.43117
1.74847
1.95889
2.0657
2.09191
2.18862
2.54574
3.17783
3.84364
4.42949
5.22449
6.92575
10.0759
14.0447
16.8715
16.3227
10.4782
3.61347
0.636882
0.0840299
0.0258486
0.0152493
0.01242
0.0113652
0.0109558
0.0107791
0.0107094
0.0114645
0.0116674
0.0120316
0.0126869
0.0140154
0.0167841
0.0232533
0.0379064
0.072866
0.149228
0.30245
0.568173
0.954961
1.41808
1.8676
2.2137
2.40653
2.44287
2.36281
2.29358
2.42237
2.85398
3.4843
4.24094
5.4173
7.68386
11.4218
15.6153
18.0893
16.7613
10.3425
3.54611
0.626845
0.0852984
0.0272003
0.0160177
0.0129364
0.0117594
0.011302
0.011105
0.0110183
0.0119987
0.0122691
0.0127448
0.013619
0.015469
0.0193827
0.0288561
0.0504072
0.102742
0.215532
0.436973
0.806148
1.3175
1.89887
2.43205
2.80761
2.96115
2.89579
2.69115
2.4853
2.46285
2.77101
3.39807
4.33998
5.9192
8.85621
13.1629
17.3561
19.123
16.6566
9.76732
3.28338
0.580838
0.0836803
0.0283164
0.0167987
0.0134894
0.0121863
0.0116793
0.0114657
0.0113771
0.0126236
0.012966
0.0135923
0.0147799
0.0174121
0.023013
0.0371019
0.0690404
0.147856
0.313736
0.630784
1.13735
1.80759
2.53839
3.17451
3.57201
3.65101
3.44836
3.08568
2.74085
2.61413
2.87654
3.5769
4.78759
6.94023
10.6193
15.3182
19.104
19.7437
15.911
8.84606
2.85573
0.506002
0.0796318
0.0292082
0.0176025
0.014089
0.0126531
0.0120917
0.0118605
0.011774
0.0133386
0.0137739
0.0146201
0.0162663
0.0200881
0.0281757
0.0494259
0.0969035
0.215812
0.457474
0.906722
1.59582
2.47484
3.39867
4.14872
4.52624
4.4603
4.05615
3.50585
3.03015
2.84954
3.15942
4.06234
5.72264
8.68153
13.0623
17.7209
20.5069
19.5698
14.608
7.59829
2.31854
0.415711
0.0740866
0.0299415
0.0184502
0.0147495
0.0131687
0.0125457
0.0122935
0.0122091
0.0141554
0.0147241
0.0159051
0.0182248
0.0238761
0.035607
0.0680511
0.138421
0.317438
0.664884
1.2967
2.23258
3.38835
4.54839
5.38035
5.63769
5.32905
4.65641
3.90427
3.33667
3.19704
3.72343
5.08029
7.40688
11.294
15.9418
19.8427
21.0846
18.5579
12.7804
6.12777
1.74998
0.325708
0.0682092
0.0306481
0.0193834
0.0154962
0.0137478
0.013051
0.0127706
0.0126876
0.0151003
0.0158682
0.0175696
0.0208706
0.0293633
0.0463607
0.096386
0.199626
0.4679
0.960235
1.84783
3.11616
4.62797
6.02548
6.82864
6.81801
6.16369
5.18782
4.26547
3.73109
3.84598
4.84146
6.89846
10.0572
14.4165
18.6318
21.1698
20.6413
16.6972
10.4961
4.59102
1.2303
0.248857
0.063103
0.0315328
0.0204757
0.0163738
0.0144155
0.0136241
0.0133008
0.0132165
0.0162259
0.0172834
0.0198042
0.02451
0.0374621
0.061887
0.139593
0.288292
0.688589
1.37684
2.6252
4.32924
6.25078
7.78816
8.37221
7.94932
6.88057
5.63598
4.72092
4.42991
5.01722
6.70453
9.47927
13.2887
17.413
20.53
21.3482
19.0909
14.0933
7.99205
3.17491
0.816899
0.191636
0.0596122
0.0328676
0.0218341
0.0174506
0.0152069
0.0142897
0.0138979
0.0138048
0.0176139
0.0190773
0.0229101
0.0295624
0.0495935
0.0840605
0.205415
0.413853
1.0106
1.95836
3.70238
5.95032
8.22691
9.70263
9.8625
8.91515
7.49756
6.19736
5.45566
5.5803
6.79814
9.20429
12.4818
16.293
19.5775
21.1682
20.1966
16.5059
11.0269
5.59563
2.05107
0.530649
0.154495
0.0583267
0.0350022
0.0236086
0.0188323
0.0161725
0.0150835
0.0145788
0.0144633
0.0193805
0.021392
0.0273743
0.0365655
0.0679803
0.115071
0.305457
0.586871
1.47854
2.75209
5.18626
7.96969
10.4196
11.593
11.1592
9.76435
8.20198
6.97177
6.53453
7.16368
8.96518
11.771
15.1523
18.3561
20.3613
20.2973
17.7725
13.2046
7.95233
3.62109
1.28717
0.35842
0.134725
0.0597591
0.0384412
0.0260198
0.0206976
0.017389
0.0160659
0.0153688
0.0152109
0.0217121
0.0244077
0.0340063
0.0461234
0.0961306
0.157052
0.457395
0.816909
2.16315
3.80535
7.11082
10.2683
12.6397
13.297
12.2866
10.6325
9.03916
7.96993
7.87308
8.91392
11.022
13.8402
16.7851
18.9508
19.5181
17.9896
14.4511
9.73022
5.3538
2.23295
0.844306
0.268557
0.129674
0.0645455
0.0440081
0.0293965
0.0233704
0.0189764
0.017351
0.0163095
0.0160828
0.0249667
0.0283126
0.044197
0.0587078
0.139651
0.211148
0.688527
1.1134
3.1558
5.10336
9.43602
12.6629
14.6951
14.7666
13.3367
11.5453
10.0003
9.09615
9.23553
10.4194
12.4431
14.8455
16.9434
17.917
17.1952
14.6893
10.8978
6.66702
3.53588
1.39715
0.631544
0.232094
0.138989
0.0735689
0.0531966
0.0341918
0.0274751
0.0211049
0.019163
0.0174564
0.017139
0.0299148
0.0331593
0.0604475
0.0741103
0.207661
0.275427
1.04237
1.46152
4.57924
6.52713
12.0448
14.9601
16.3669
16.1146
14.2889
12.5111
11.0312
10.193
10.3747
11.3276
12.8784
14.5478
15.559
15.5267
13.9305
11.0826
7.87756
4.37231
2.52902
0.956204
0.568704
0.230681
0.166477
0.0877995
0.0690472
0.0408681
0.034336
0.0239464
0.0219931
0.01887
0.0185096
0.0180005
0.0169596
0.0160351
0.0152134
0.0144781
0.0138154
0.0132165
0.0126764
0.0121898
0.0117493
0.0113492
0.0109971
0.0107295
0.0107202
0.0122115
0.0435041
0.562338
0.0181331
0.0171817
0.0163201
0.0155375
0.0148234
0.0141708
0.0135751
0.0130353
0.012548
0.0121072
0.011711
0.0113717
0.0111329
0.0111932
0.0130656
0.0476847
0.613924
0.0183784
0.0174814
0.0166679
0.0159183
0.0152234
0.0145799
0.0139873
0.0134471
0.0129579
0.0125167
0.0121248
0.0117967
0.0115877
0.0117345
0.0140492
0.0527618
0.667876
0.0186318
0.0178337
0.017068
0.0163445
0.0156639
0.015028
0.0144399
0.0139024
0.0134148
0.0129761
0.01259
0.012276
0.0121043
0.0123611
0.0152041
0.058403
0.727929
0.0190971
0.0182748
0.0175216
0.0168133
0.0161437
0.0155154
0.0149341
0.0144028
0.0139212
0.0134896
0.0131139
0.0128191
0.0126941
0.0130865
0.0165721
0.0654519
0.795809
0.0194245
0.0187138
0.0180048
0.0173179
0.0166608
0.0160423
0.015471
0.01495
0.0144791
0.0140594
0.0136987
0.0134298
0.0133633
0.0139221
0.0181686
0.073562
0.872389
0.0200308
0.0192561
0.0185424
0.0178633
0.0172168
0.016611
0.0160539
0.0155481
0.0150928
0.0146893
0.0143483
0.0141124
0.0141184
0.0148798
0.0200128
0.0833409
0.956586
0.0204206
0.0197712
0.0191011
0.0184424
0.0178123
0.0172247
0.0166876
0.0162021
0.0157666
0.0153831
0.0150665
0.0148717
0.0149658
0.015968
0.0221081
0.0945369
1.04719
0.0211427
0.0204036
0.0197189
0.0190669
0.0184536
0.0178894
0.0173781
0.0169176
0.0165054
0.0161452
0.0158577
0.0157125
0.0159122
0.0171953
0.0244734
0.106687
1.14292
0.0215954
0.0209949
0.0203572
0.0197314
0.0191453
0.0186119
0.0181318
0.0177003
0.0173141
0.0169805
0.0167276
0.0166411
0.0169654
0.0185702
0.0271227
0.11956
1.24216
0.0224247
0.021715
0.0210614
0.0204527
0.0198982
0.0194011
0.018956
0.0185559
0.0181985
0.0178952
0.0176827
0.0176648
0.0181341
0.0201022
0.0300476
0.132847
1.34277
0.0229473
0.0223886
0.0217928
0.0212279
0.0207183
0.0202645
0.0198577
0.0194911
0.0191652
0.0188963
0.0187317
0.0187925
0.0194289
0.0218027
0.0332396
0.146136
1.44145
0.0238808
0.023202
0.0226039
0.022077
0.0216166
0.0212096
0.0208435
0.0205127
0.0202216
0.0199924
0.0198841
0.0200369
0.0208629
0.0236879
0.0367034
0.159137
1.53661
0.0244881
0.0239787
0.0234607
0.0230002
0.022599
0.0222426
0.0219197
0.0216278
0.021376
0.0211924
0.0211493
0.0214062
0.0224507
0.0257741
0.0404595
0.171688
1.62691
0.0255247
0.0249064
0.0244161
0.0240163
0.0236748
0.0233702
0.0230929
0.0228441
0.0226375
0.0225075
0.0225391
0.0229131
0.0242025
0.0280684
0.0445177
0.183568
1.70921
0.0262427
0.0258255
0.0254429
0.0251249
0.0248482
0.0245983
0.0243705
0.0241705
0.024016
0.0239485
0.0240654
0.0245727
0.0261347
0.0305919
0.048891
0.194559
1.78154
0.0273837
0.0269041
0.0265831
0.0263386
0.0261256
0.0259335
0.0257607
0.0256167
0.0255231
0.025528
0.0257419
0.0263997
0.0282604
0.0333552
0.053622
0.204431
1.83968
0.0282577
0.0280193
0.0278158
0.027656
0.0275111
0.0273832
0.0272732
0.0271946
0.0271719
0.0272604
0.0275844
0.02841
0.0305929
0.0363754
0.0587284
0.213022
1.87964
0.029513
0.0292906
0.0291641
0.0290841
0.0290118
0.0289566
0.0289198
0.0289177
0.0289775
0.0291622
0.0296102
0.030622
0.0331487
0.0396685
0.0640202
0.22154
1.90115
0.0306194
0.0306391
0.0306157
0.0306251
0.0306356
0.030665
0.030714
0.0308014
0.0309576
0.0312536
0.0318398
0.0330558
0.0359425
0.0432552
0.0696571
0.230078
1.89984
0.0320131
0.0321175
0.0321838
0.0322887
0.0323948
0.0325227
0.0326725
0.0328655
0.0331347
0.0335577
0.0342976
0.0357358
0.0389936
0.0471498
0.0757301
0.239226
1.87295
0.0334676
0.0336904
0.0338697
0.034084
0.0343031
0.034546
0.034815
0.0351321
0.0355339
0.0361038
0.0370173
0.0387002
0.0423472
0.0514119
0.0823917
0.25062
1.82475
0.035036
0.0353818
0.0356878
0.036027
0.0363773
0.0367551
0.0371649
0.0376287
0.0381863
0.0389259
0.0400357
0.0419819
0.0460345
0.0559902
0.0892402
0.259478
1.76561
0.0367202
0.0371908
0.0376439
0.0381314
0.0386364
0.0391735
0.0397493
0.0403865
0.0411265
0.0420606
0.0433871
0.0455992
0.0500198
0.0607223
0.0956105
0.265753
1.69938
0.0385064
0.0391427
0.0397618
0.0404191
0.0411041
0.0418296
0.0426032
0.0434472
0.0444039
0.0455649
0.0471355
0.0496221
0.054381
0.0656587
0.10155
0.269619
1.62838
0.0404336
0.041236
0.0420498
0.0429101
0.0438087
0.0447581
0.0457682
0.046861
0.0480786
0.0495111
0.0513649
0.0541477
0.0592216
0.0708955
0.10713
0.270965
1.55464
0.0424831
0.0435036
0.0445382
0.045632
0.0467822
0.0479993
0.0492941
0.0506889
0.0522249
0.0539896
0.0561835
0.0593054
0.0646942
0.0766125
0.112528
0.270571
1.47987
0.0447001
0.0459433
0.0472408
0.0486136
0.0500627
0.0516005
0.05324
0.0550041
0.0569333
0.0591115
0.0617294
0.0652655
0.0710145
0.0831193
0.118337
0.269682
1.4054
0.0470665
0.0485948
0.0501911
0.0518892
0.0536936
0.0556174
0.0576761
0.0598947
0.0623137
0.065014
0.0681753
0.0722453
0.0784567
0.0907648
0.125042
0.268858
1.33213
0.049621
0.0514587
0.0534118
0.0554973
0.057726
0.0601157
0.0626865
0.0654674
0.0685013
0.0718678
0.0757357
0.0805182
0.0873665
0.099988
0.133231
0.268852
1.26069
0.0523634
0.0545793
0.0569415
0.0594829
0.0622193
0.0651732
0.0683718
0.0718514
0.0756615
0.0798843
0.084682
0.0904346
0.0981956
0.111385
0.14368
0.27064
1.19152
0.0553215
0.057962
0.0608122
0.0638969
0.0672426
0.070882
0.0748534
0.0792049
0.0839994
0.0893291
0.0953583
0.102442
0.111535
0.125737
0.157449
0.275661
1.1249
0.0585061
0.061654
0.065069
0.0687974
0.0728762
0.0773513
0.0822777
0.0877226
0.0937716
0.10054
0.10821
0.117129
0.128168
0.144094
0.175971
0.285734
1.06104
0.061943
0.0656672
0.0697543
0.0742509
0.0792141
0.0847114
0.090823
0.0976468
0.105304
0.113955
0.123821
0.13528
0.149157
0.167907
0.201229
0.30341
1.00006
0.0656426
0.0700504
0.0749215
0.0803335
0.0863667
0.0931188
0.100708
0.10928
0.119015
0.130143
0.142973
0.157965
0.175975
0.199232
0.23607
0.332451
0.941986
0.0696317
0.0748223
0.0806249
0.0871329
0.0944647
0.102764
0.112205
0.123008
0.135446
0.149867
0.166731
0.186677
0.210728
0.241074
0.284807
0.378814
0.886814
0.0739195
0.0800334
0.086929
0.0947496
0.103663
0.113878
0.125655
0.139326
0.15531
0.174153
0.196573
0.223547
0.256507
0.29796
0.354198
0.452215
0.834488
0.0785306
0.0857068
0.0939001
0.103298
0.114144
0.126744
0.141486
0.158874
0.179561
0.204411
0.234586
0.271682
0.317971
0.376974
0.455263
0.569771
0.784914
0.0834702
0.0918912
0.101611
0.112906
0.12612
0.141703
0.160235
0.182484
0.209475
0.242598
0.283777
0.335718
0.402342
0.489534
0.606552
0.763245
0.737948
0.0887547
0.0986106
0.11014
0.12372
0.139848
0.159182
0.182593
0.211263
0.246814
0.291515
0.348607
0.422827
0.521278
0.654932
0.841032
1.09471
0.693379
0.0939779
0.0986154
0.103389
0.108281
0.113265
0.118315
0.123392
0.128459
0.133473
0.138384
0.143145
0.147698
0.15199
0.155964
0.159566
0.162741
0.16544
0.167622
0.169248
0.170292
0.170706
0.170316
0.169306
0.167714
0.165565
0.162898
0.159755
0.156185
0.15224
0.147975
0.143447
0.138709
0.133818
0.128822
0.12377
0.118705
0.113665
0.108689
0.103802
0.0990277
0.0943853
0.105509
0.110663
0.115963
0.121381
0.126897
0.132472
0.138074
0.143653
0.149169
0.154564
0.159787
0.164776
0.169474
0.173817
0.177749
0.18121
0.18415
0.186522
0.188286
0.189412
0.189855
0.189436
0.188342
0.18661
0.184272
0.181364
0.177934
0.174032
0.169718
0.165047
0.160083
0.154882
0.149507
0.144009
0.138444
0.132854
0.127289
0.121781
0.116368
0.111069
0.105914
0.119177
0.124925
0.130823
0.136846
0.142966
0.149145
0.155341
0.161507
0.167591
0.173536
0.179281
0.184764
0.189918
0.194679
0.198983
0.202767
0.205977
0.208562
0.210481
0.211701
0.212175
0.211723
0.210535
0.208647
0.206094
0.202915
0.199161
0.194888
0.190154
0.185026
0.179567
0.173843
0.167918
0.161851
0.155699
0.149515
0.143346
0.137234
0.131216
0.125322
0.119576
0.135526
0.141955
0.14854
0.155258
0.162072
0.16894
0.175818
0.182651
0.189384
0.195954
0.202294
0.208336
0.214009
0.219241
0.223966
0.228115
0.231629
0.234455
0.236547
0.237873
0.238381
0.237894
0.236599
0.234536
0.23174
0.228256
0.224136
0.219441
0.214235
0.208586
0.202567
0.196248
0.189697
0.18298
0.17616
0.169295
0.162435
0.155628
0.148919
0.14234
0.135913
0.15527
0.162488
0.169867
0.177384
0.184998
0.19266
0.200319
0.207917
0.215392
0.222674
0.229692
0.23637
0.242632
0.2484
0.253601
0.258163
0.262021
0.265118
0.267407
0.268851
0.269399
0.268871
0.267456
0.265195
0.262126
0.258296
0.253762
0.248589
0.242846
0.236607
0.229951
0.222952
0.215687
0.208228
0.200642
0.192994
0.18534
0.177735
0.170228
0.162856
0.155642
0.179374
0.18751
0.195811
0.204253
0.21279
0.221367
0.229927
0.238404
0.246729
0.254827
0.262619
0.270023
0.276954
0.283331
0.289072
0.294102
0.298349
0.301753
0.304264
0.305841
0.306432
0.30586
0.304308
0.301824
0.298446
0.294225
0.289222
0.283507
0.277153
0.270243
0.262859
0.255086
0.247003
0.238691
0.230226
0.221677
0.213109
0.204581
0.196149
0.187857
0.179724
0.209155
0.218366
0.227741
0.237258
0.246865
0.256499
0.266098
0.275587
0.28489
0.293923
0.3026
0.310831
0.318526
0.325594
0.331949
0.337509
0.342197
0.345948
0.348708
0.350436
0.351077
0.350453
0.348749
0.346012
0.342285
0.337621
0.332086
0.325755
0.318708
0.311032
0.302819
0.294159
0.285139
0.275848
0.26637
0.256782
0.247157
0.237559
0.228052
0.218685
0.209477
0.246443
0.256916
0.267547
0.278318
0.289168
0.300027
0.310825
0.321481
0.331908
0.342013
0.351703
0.360879
0.369443
0.377297
0.384348
0.390507
0.395693
0.399836
0.402878
0.404775
0.40547
0.40479
0.402914
0.399893
0.395771
0.390607
0.38447
0.377441
0.369605
0.361059
0.351899
0.342223
0.332129
0.321713
0.311068
0.300281
0.28943
0.278589
0.267828
0.257203
0.246733
0.293835
0.305792
0.317896
0.330129
0.342425
0.354704
0.366886
0.378884
0.390602
0.401935
0.41278
0.423031
0.432582
0.441326
0.449163
0.455998
0.461746
0.466329
0.469686
0.471773
0.47253
0.471786
0.469718
0.466378
0.461813
0.456086
0.44927
0.441453
0.432724
0.423188
0.41295
0.402116
0.390792
0.379086
0.3671
0.354927
0.342655
0.330366
0.318141
0.306044
0.294088
0.35509
0.368793
0.382619
0.396557
0.41053
0.424449
0.438224
0.45176
0.46495
0.477682
0.489839
0.501305
0.511969
0.521713
0.530432
0.538024
0.544397
0.549471
0.55318
0.555477
0.556301
0.555488
0.553207
0.549512
0.544454
0.538098
0.530523
0.521821
0.512089
0.501438
0.489981
0.477832
0.465109
0.451931
0.438407
0.424639
0.410725
0.396756
0.382826
0.369006
0.355305
0.435789
0.45153
0.46736
0.483269
0.499174
0.514973
0.530564
0.545844
0.560698
0.575
0.588627
0.60145
0.613352
0.624203
0.633895
0.64232
0.649381
0.654992
0.659085
0.661611
0.662508
0.66162
0.659107
0.655025
0.649427
0.642381
0.63397
0.624292
0.613448
0.601557
0.58874
0.57512
0.560825
0.545984
0.530715
0.515127
0.499332
0.48343
0.467527
0.451703
0.435962
0.544437
0.562527
0.580651
0.598804
0.616893
0.634805
0.652426
0.66964
0.68633
0.702355
0.717587
0.731884
0.745124
0.757168
0.767903
0.777217
0.785008
0.791189
0.795688
0.798455
0.799428
0.798461
0.795705
0.791214
0.785043
0.777263
0.767961
0.757237
0.745196
0.731965
0.717671
0.702447
0.686426
0.669751
0.652543
0.634923
0.617013
0.598927
0.580779
0.562659
0.544569
0.694409
0.715121
0.735783
0.756398
0.776861
0.797052
0.816844
0.836111
0.85473
0.872554
0.889446
0.905259
0.919865
0.933119
0.944905
0.955111
0.963631
0.970378
0.975278
0.97828
0.979327
0.978285
0.97529
0.970395
0.963656
0.955143
0.944948
0.93317
0.919914
0.905316
0.889504
0.872619
0.854798
0.836195
0.816928
0.797134
0.776945
0.756485
0.735874
0.715213
0.694502
0.90749
0.930926
0.954177
0.977269
1.00009
1.02251
1.04441
1.06563
1.08607
1.10556
1.12398
1.14116
1.15698
1.17131
1.18401
1.19499
1.20413
1.21135
1.21659
1.21979
1.22089
1.21979
1.2166
1.21137
1.20415
1.19501
1.18404
1.17134
1.15701
1.14119
1.12401
1.1056
1.08611
1.06569
1.04446
1.02256
1.00014
0.977324
0.954234
0.930981
0.907548
1.22062
1.24639
1.27172
1.29676
1.32138
1.34545
1.36884
1.39141
1.41305
1.43361
1.45294
1.47093
1.48743
1.50233
1.51551
1.52686
1.5363
1.54374
1.54912
1.55239
1.55351
1.55239
1.54912
1.54374
1.53631
1.52687
1.51552
1.50235
1.48745
1.47095
1.45296
1.43363
1.41307
1.39145
1.36886
1.34547
1.3214
1.29679
1.27175
1.24641
1.22065
1.69943
1.72585
1.75136
1.77642
1.80091
1.82472
1.84773
1.86982
1.89088
1.91079
1.92944
1.94672
1.9625
1.9767
1.98923
1.99998
2.0089
2.01591
2.02097
2.02404
2.02509
2.02404
2.02097
2.01592
2.0089
1.99999
1.98923
1.97671
1.96251
1.94672
1.92945
1.9108
1.89089
1.86983
1.84773
1.82472
1.80092
1.77643
1.75137
1.72586
1.69944
2.46712
2.48918
2.50938
2.52906
2.54816
2.5666
2.5843
2.6012
2.6172
2.63225
2.64627
2.65919
2.67095
2.68148
2.69073
2.69865
2.7052
2.71034
2.71403
2.71627
2.71702
2.71627
2.71403
2.71034
2.7052
2.69866
2.69073
2.68148
2.67095
2.65919
2.64627
2.63225
2.6172
2.6012
2.58431
2.5666
2.54816
2.52906
2.50938
2.48918
2.46712
0.667143
0.0644569
0.0141722
0.0112217
0.0110574
0.0113767
0.0118473
0.0124242
0.0130882
0.0138363
0.0146701
0.0156196
0.0167427
0.0181013
0.0197295
0.021602
0.0235914
0.759034
0.0693322
0.015081
0.0117936
0.0115622
0.0118496
0.0122984
0.0128505
0.0134817
0.0141841
0.0149494
0.0157903
0.0167517
0.0179062
0.0193387
0.0211191
0.0232355
0.834248
0.074781
0.0161101
0.0124213
0.0121076
0.0123573
0.0127839
0.0133109
0.0139128
0.0145773
0.015291
0.0160505
0.0168749
0.0178106
0.0189427
0.020415
0.0224576
0.90803
0.0800146
0.0172229
0.0130965
0.0126977
0.012905
0.013308
0.013809
0.0143815
0.0150134
0.0156902
0.0163988
0.017137
0.0179134
0.0187459
0.0196625
0.0206981
0.977693
0.0853639
0.0184366
0.0138404
0.0133407
0.0135012
0.0138757
0.0143488
0.0148914
0.0154923
0.0161395
0.0168178
0.0175188
0.0182441
0.0190033
0.0198087
0.0206723
1.0495
0.0911672
0.0197928
0.0146636
0.0140405
0.0141486
0.0144897
0.0149331
0.0154448
0.0160142
0.0166321
0.0172845
0.017958
0.0186482
0.0193634
0.0201146
0.0208913
1.1245
0.0977495
0.0213224
0.0155759
0.0148049
0.0148517
0.0151549
0.0155664
0.0160459
0.0165822
0.0171692
0.017796
0.0184472
0.0191111
0.0197911
0.0205105
0.0213088
1.20299
0.105246
0.0230585
0.0165873
0.0156412
0.0156161
0.0158764
0.0162534
0.0166991
0.0172003
0.0177539
0.0183532
0.018984
0.0196276
0.0202716
0.020915
0.0215755
1.28551
0.113721
0.0250394
0.0177114
0.0165574
0.0164482
0.0166599
0.0169993
0.0174097
0.0178738
0.0183907
0.0189587
0.0195687
0.0202026
0.0208421
0.0214644
0.0220121
1.37112
0.122741
0.0273004
0.0189593
0.0175624
0.0173545
0.0175119
0.0178103
0.0181838
0.0186089
0.0190853
0.0196152
0.0201964
0.0208162
0.0214635
0.0221414
0.0228699
1.45743
0.131815
0.0298215
0.0203451
0.0186665
0.0183428
0.0184393
0.0186929
0.0190282
0.0194131
0.0198462
0.0203316
0.0208726
0.0214596
0.0220738
0.0226957
0.0233264
1.54254
0.141508
0.0325661
0.021882
0.0198815
0.0194218
0.0194505
0.0196544
0.01995
0.0202938
0.0206822
0.0211193
0.0216144
0.0221669
0.0227628
0.0233612
0.0238643
1.6252
0.151852
0.0356078
0.0235863
0.0212203
0.020602
0.0205545
0.0207029
0.0209565
0.0212582
0.0216008
0.0219861
0.0224263
0.0229323
0.0235118
0.0241622
0.024868
1.70408
0.162583
0.0389769
0.0254769
0.022697
0.0218957
0.0217616
0.0218477
0.0220554
0.0223138
0.02261
0.0229416
0.0233191
0.0237567
0.0242684
0.0248522
0.0254922
1.77544
0.173391
0.0426816
0.0275876
0.0243294
0.0233165
0.0230834
0.0230992
0.0232556
0.023468
0.0237173
0.0239959
0.0243104
0.024677
0.0251189
0.0256346
0.0261247
1.83581
0.184173
0.0467217
0.0299326
0.0261405
0.0248838
0.024533
0.0244697
0.0245672
0.024729
0.0249288
0.0251539
0.0254054
0.0256988
0.0260682
0.026563
0.0272039
1.88369
0.194734
0.0510924
0.0325271
0.0281486
0.0266166
0.0261259
0.0259731
0.0260023
0.0261067
0.0262517
0.0264207
0.0266082
0.0268239
0.0270902
0.0274632
0.0280081
1.91406
0.204746
0.0558081
0.035389
0.0303698
0.0285323
0.0278795
0.0276253
0.0275754
0.0276132
0.0276956
0.0278036
0.0279258
0.028068
0.028238
0.0284822
0.0287894
1.92729
0.214331
0.060899
0.0385344
0.0328212
0.0306487
0.029815
0.0294447
0.0293026
0.0292626
0.0292719
0.0293099
0.0293609
0.0294297
0.0295113
0.0296693
0.0299589
1.91963
0.223287
0.0663855
0.0419961
0.0355249
0.0329898
0.0319554
0.0314535
0.0312033
0.0310707
0.0309937
0.0309493
0.0309183
0.0309063
0.0308921
0.0309334
0.0310374
1.88846
0.231915
0.072316
0.0457988
0.0384997
0.0355851
0.0343266
0.0336753
0.0333007
0.0330586
0.0328795
0.0327377
0.0326112
0.0325071
0.0323961
0.0323322
0.032186
1.83767
0.241634
0.0788321
0.0499955
0.0417944
0.0384751
0.0369656
0.0361424
0.0356225
0.0352504
0.03495
0.034692
0.0344537
0.0342412
0.0340259
0.0338595
0.0335985
1.76969
0.253126
0.0860787
0.0546456
0.045444
0.0417036
0.0399159
0.0388926
0.0382022
0.0376749
0.0372305
0.0368339
0.0364642
0.0361226
0.0357847
0.0354863
0.035128
1.69741
0.260722
0.0931275
0.0595677
0.0494523
0.0452939
0.0432156
0.0419653
0.0410768
0.0403664
0.0397497
0.0391889
0.0386631
0.0381686
0.0376856
0.0372414
0.0367715
1.62277
0.265271
0.0996369
0.0646974
0.0538528
0.0492995
0.0469206
0.045414
0.0442937
0.0433649
0.0425418
0.0417848
0.0410727
0.0403994
0.0397498
0.0391456
0.0385149
1.54728
0.267281
0.105691
0.0701155
0.0587394
0.0538137
0.0511128
0.0493105
0.0479132
0.0467216
0.0456495
0.0446566
0.0437215
0.0428364
0.0419886
0.0411879
0.0403803
1.4721
0.267838
0.111513
0.0760011
0.0642565
0.0589627
0.0558987
0.0537443
0.0520092
0.050497
0.0491227
0.0478457
0.0466443
0.0455086
0.0444253
0.0433985
0.0424054
1.39809
0.267853
0.117688
0.0826527
0.070614
0.0649144
0.0614151
0.058826
0.0566723
0.0547647
0.0530204
0.0513988
0.0498774
0.0484437
0.0470853
0.0458073
0.0445734
1.3258
0.267936
0.124695
0.0904007
0.0780828
0.0718843
0.0678338
0.0646929
0.0620127
0.059613
0.0574135
0.0553723
0.0534648
0.0516756
0.0499924
0.0484093
0.0468965
1.25556
0.268688
0.133102
0.0996939
0.0870077
0.080146
0.0753699
0.0715157
0.0681656
0.0651489
0.0623859
0.059832
0.0574583
0.0552452
0.0531752
0.051235
0.0494133
1.18759
0.271071
0.143689
0.11113
0.0978415
0.09005
0.084295
0.0795063
0.0752969
0.071502
0.0680386
0.0648554
0.0619166
0.0591953
0.0566676
0.054321
0.0521317
1.12208
0.276406
0.157521
0.125496
0.111178
0.102046
0.094955
0.0889315
0.0836122
0.0788308
0.074493
0.070535
0.0669092
0.0635773
0.060508
0.0576761
0.0550428
1.05914
0.286575
0.176052
0.143848
0.127805
0.116725
0.107796
0.10013
0.0933691
0.08733
0.0818953
0.0769798
0.0725164
0.0684503
0.0647353
0.0613292
0.0582024
0.998862
0.304154
0.201262
0.167645
0.148789
0.134875
0.123406
0.113539
0.104893
0.0972412
0.090424
0.0843203
0.0788325
0.0738803
0.0693955
0.0653243
0.0616218
0.941294
0.333014
0.236034
0.198954
0.175611
0.157568
0.142565
0.129731
0.118602
0.108868
0.100298
0.0927134
0.0859682
0.0799436
0.0745419
0.069683
0.0652859
0.886452
0.379119
0.284697
0.240788
0.210379
0.186299
0.166339
0.149466
0.135037
0.122595
0.11179
0.10235
0.0940544
0.0867286
0.0802292
0.0744356
0.0692542
0.834324
0.452299
0.354039
0.297685
0.256186
0.223198
0.196204
0.173769
0.154913
0.138919
0.125242
0.113461
0.103246
0.0943361
0.0865202
0.0796308
0.073539
0.784854
0.569719
0.455089
0.376728
0.317688
0.271369
0.234248
0.204051
0.179183
0.158481
0.141081
0.126331
0.113727
0.102881
0.0934855
0.0853009
0.0781224
0.737933
0.763132
0.606395
0.489334
0.402108
0.335452
0.283481
0.242275
0.209127
0.182115
0.159848
0.141302
0.125711
0.112491
0.101196
0.0914747
0.0830574
0.693378
1.09462
0.840929
0.654802
0.521114
0.422628
0.348372
0.291245
0.246511
0.210931
0.182235
0.158803
0.139454
0.123315
0.10973
0.0981991
0.0883504
0.0383425
0.0900061
0.340218
1.80474
7.78672
17.0036
17.5029
13.5686
11.1638
11.4951
13.0159
12.4055
7.78018
2.81432
0.739606
0.252979
0.107068
0.0492384
0.0273833
0.0205484
0.0454886
0.113464
0.438028
2.33211
9.67286
19.2706
18.4843
14.2092
11.5196
11.2216
11.5466
9.9053
5.6365
2.0918
0.740594
0.317317
0.139911
0.0624964
0.0321828
0.0222509
0.0551066
0.144438
0.564211
2.99116
11.7256
21.1613
19.2905
14.7709
11.7073
10.7252
10.1468
7.86695
4.29137
1.83805
0.862362
0.419888
0.189472
0.0824984
0.0393419
0.0246324
0.0681908
0.185572
0.726565
3.83141
13.9065
22.6316
19.931
15.1976
11.7176
10.0939
8.84678
6.47711
3.64457
1.91412
1.09156
0.573644
0.264108
0.113075
0.0503052
0.0281195
0.0862111
0.240634
0.935546
4.85161
15.9684
23.6141
20.3692
15.5103
11.6798
9.53304
7.91849
5.70051
3.56544
2.24994
1.43952
0.797529
0.375893
0.160205
0.0674684
0.0334565
0.111388
0.315111
1.20565
6.00675
17.7828
24.0488
20.5135
15.674
11.6238
9.1144
7.31897
5.44264
3.87523
2.84291
1.94451
1.119
0.541645
0.232937
0.0947651
0.0419391
0.147133
0.417156
1.55902
7.26146
19.1678
23.8586
20.2433
15.5943
11.5414
8.88774
7.09673
5.665
4.62833
3.77106
2.68567
1.58194
0.785073
0.344673
0.138598
0.0558441
0.198783
0.558999
2.02723
8.61023
19.9501
22.9943
19.4516
15.1941
11.3666
8.82674
7.14718
6.20374
5.74152
5.12311
3.79046
2.26024
1.1419
0.51503
0.209233
0.0791789
0.274831
0.759806
2.65257
9.98941
19.9623
21.4187
18.0809
14.4125
10.925
8.81877
7.19143
6.66043
6.82901
6.79328
5.39816
3.27033
1.67031
0.773294
0.322955
0.119005
0.389087
1.04855
3.48616
11.2801
19.1891
19.2073
16.2819
13.3344
10.4073
8.66738
7.15486
6.78578
7.3966
8.23274
7.41876
4.77808
2.45736
1.16581
0.505597
0.187773
0.564453
1.47164
4.52855
12.2954
17.6559
16.4525
14.1487
12.0079
9.84016
8.33307
7.1215
6.75426
7.30091
8.72469
9.19176
6.81073
3.64168
1.76478
0.798927
0.307514
0.83956
2.10556
5.82519
12.8027
15.3998
13.5882
11.9415
10.555
9.10536
7.91722
7.03254
6.70605
7.02732
8.18091
9.75439
8.88082
5.40899
2.68035
1.27175
0.517647
1.28134
3.07113
7.29546
12.4647
12.6365
10.917
9.89018
9.10885
8.24979
7.44235
6.83001
6.56525
6.71872
7.38859
8.8839
9.87491
7.54953
4.13024
2.03564
0.890037
2.01133
4.44018
8.60648
11.1311
9.74373
8.60566
8.11484
7.77172
7.33773
6.86182
6.46829
6.28414
6.31114
6.64165
7.46116
9.16158
9.16394
6.17789
3.29392
1.55552
3.23365
6.20322
9.10173
8.8194
7.34189
6.77171
6.66028
6.5955
6.42437
6.18115
5.94207
5.77644
5.7463
5.87285
6.24096
7.28637
9.07091
8.34873
5.35284
2.76541
5.13445
7.71627
7.99581
6.24944
5.50138
5.41685
5.4924
5.55627
5.54725
5.44517
5.30699
5.1783
5.11045
5.10115
5.20492
5.60588
7.10721
9.12764
8.05687
5.0405
7.27732
7.63866
5.74095
4.51396
4.30703
4.40749
4.55756
4.68213
4.7397
4.72411
4.64728
4.54208
4.4447
4.3835
4.35773
4.44638
4.99503
7.35572
9.81582
8.69799
7.72628
5.36609
3.72933
3.39562
3.48516
3.6654
3.86
4.01734
4.11266
4.13967
4.10397
4.02081
3.91152
3.8113
3.74033
3.71004
3.85342
4.68354
8.194
11.5672
3.29844
2.58293
2.59784
2.80368
3.08557
3.37253
3.62981
3.83043
3.96244
4.02422
4.01956
3.95674
3.84893
3.71452
3.59532
3.51497
3.51215
3.64721
4.56927
8.19503
2.12581
2.81298
3.62672
4.43321
5.21075
5.90672
6.46939
6.87543
7.1375
7.26003
7.23454
7.07856
6.8029
6.43243
6.05376
5.6979
5.3306
4.93042
4.48408
3.93902
3.40487
11.5814
13.0867
5.95361
2.34119
1.05312
0.514933
0.270637
0.153065
0.0935806
0.062252
0.0451544
0.0354734
0.0297518
0.0261913
0.02384
0.022186
0.02095
0.0199735
0.0191675
2.70545
13.9179
8.76788
3.19154
1.24021
0.549006
0.26813
0.144195
0.0856964
0.0566019
0.0414942
0.0333009
0.0286206
0.0257694
0.0238973
0.0225681
0.0215525
0.0207284
0.020026
0.0194069
1.95551
13.9906
5.8573
1.84408
0.703492
0.308981
0.15434
0.0873429
0.0561783
0.0409044
0.0330447
0.0287551
0.0262288
0.0245994
0.0234439
0.0225513
0.0218126
0.0211708
0.0205923
0.0200587
1.34318
11.1414
3.58857
1.07913
0.41219
0.186406
0.0984018
0.0602882
0.0426703
0.0341079
0.0296914
0.0272165
0.0256767
0.0246059
0.0237832
0.0230998
0.0224993
0.0219524
0.0214407
0.0209531
0.899939
7.79235
2.14708
0.650265
0.256425
0.123438
0.0703405
0.047096
0.036419
0.0312652