/*--------------------------------*- C++ -*----------------------------------*\
  =========                 |
  \\      /  F ield         | OpenFOAM: The Open Source CFD Toolbox
   \\    /   O peration     | Website:  https://openfoam.org
    \\  /    A nd           | Version:  6
     \\/     M anipulation  |
\*---------------------------------------------------------------------------*/
FoamFile
{
    version     2.0;
    format      ascii;
    class       volScalarField;
    location    "2.62";
    object      rho;
}
// * * * * * * * * * * * * * * * * * * * * * * * * * * * * * * * * * * * * * //

dimensions      [1 -3 0 0 0 0 0];

internalField   nonuniform List<scalar> 
5625
(
1.4
1.4
1.4
1.4
1.4
1.4
1.4
1.4
1.4
1.4
1.4
1.4
1.4
1.4
1.4
1.4
1.4
1.40001
1.40001
1.40001
1.40001
1.40001
1.40001
1.40001
1.40001
1.40001
1.40001
1.40001
1.40001
1.40001
1.40001
1.40001
1.40001
1.40001
1.40001
1.40001
1.40001
1.40001
1.40001
1.40001
1.40001
1.40001
1.40001
1.40001
1.40001
1.40001
1.40001
1.40001
1.40001
1.40001
1.40001
1.40001
1.40001
1.40001
1.40001
1.40001
1.40001
1.40001
1.40001
1.40001
1.40001
1.40001
1.40001
1.40001
1.40001
1.40001
1.40001
1.40001
1.40001
1.40001
1.40001
1.40001
1.40001
1.40001
1.40001
1.4
1.4
1.4
1.4
1.4
1.4
1.4
1.4
1.4
1.4
1.4
1.4
1.4
1.4
1.4
1.4
1.4
1.40001
1.40001
1.40001
1.40001
1.40001
1.40001
1.40001
1.40001
1.40001
1.40001
1.40001
1.40001
1.40001
1.40001
1.40001
1.40001
1.40001
1.40001
1.40001
1.40001
1.40001
1.40001
1.40001
1.40001
1.40001
1.40001
1.40001
1.40001
1.40001
1.40001
1.40001
1.40001
1.40001
1.40001
1.40001
1.40001
1.40001
1.40001
1.40001
1.40001
1.40001
1.40001
1.40001
1.40001
1.40001
1.40001
1.40001
1.40001
1.40001
1.40001
1.40001
1.40001
1.40001
1.40001
1.40001
1.40001
1.40001
1.40001
1.4
1.4
1.4
1.4
1.4
1.4
1.4
1.4
1.4
1.4
1.4
1.4
1.4
1.4
1.4
1.4
1.4
1.40001
1.40001
1.40001
1.40001
1.40001
1.40001
1.40001
1.40001
1.40001
1.40001
1.40001
1.40001
1.40001
1.40001
1.40001
1.40001
1.40001
1.40001
1.40001
1.40001
1.40001
1.40001
1.40001
1.40001
1.40001
1.40001
1.40001
1.40001
1.40001
1.40001
1.40001
1.40001
1.40001
1.40001
1.40001
1.40001
1.40001
1.40001
1.40001
1.40001
1.40001
1.40001
1.40001
1.40001
1.40001
1.40001
1.40001
1.40001
1.40001
1.40001
1.40001
1.40001
1.40001
1.40001
1.40001
1.40001
1.40001
1.40001
1.4
1.4
1.4
1.4
1.4
1.4
1.4
1.4
1.4
1.4
1.4
1.4
1.4
1.4
1.4
1.4
1.4
1.40001
1.40001
1.40001
1.40001
1.40001
1.40001
1.40001
1.40001
1.40002
1.40002
1.40001
1.40001
1.40001
1.40001
1.40001
1.40001
1.40001
1.40001
1.40001
1.40001
1.40001
1.40001
1.40001
1.40001
1.40001
1.40001
1.40001
1.40001
1.40001
1.40001
1.40001
1.40001
1.40001
1.40001
1.40001
1.40001
1.40001
1.40001
1.40001
1.40001
1.40001
1.40001
1.40001
1.40001
1.40001
1.40001
1.40001
1.40001
1.40001
1.40001
1.40001
1.40001
1.40001
1.40001
1.40001
1.40001
1.40001
1.40001
1.4
1.4
1.4
1.4
1.39999
1.39999
1.39999
1.39999
1.39999
1.39999
1.39999
1.39999
1.4
1.4
1.4
1.4
1.4
1.40001
1.40001
1.40001
1.40001
1.40001
1.40002
1.40002
1.40002
1.40002
1.40002
1.40002
1.40002
1.40002
1.40002
1.40001
1.40001
1.40001
1.40001
1.40001
1.40001
1.40001
1.40001
1.40001
1.40001
1.40001
1.40001
1.40001
1.40001
1.40001
1.40001
1.40001
1.40001
1.40001
1.40001
1.40001
1.40001
1.40001
1.40001
1.40001
1.40001
1.40001
1.40001
1.40001
1.40001
1.40001
1.40001
1.40001
1.40001
1.40001
1.40001
1.40001
1.40001
1.40001
1.40001
1.40001
1.40001
1.40001
1.40001
1.4
1.39999
1.39999
1.39999
1.39999
1.39999
1.39999
1.39999
1.39999
1.39999
1.39999
1.39999
1.39999
1.4
1.4
1.4
1.4
1.40001
1.40001
1.40001
1.40002
1.40002
1.40002
1.40002
1.40002
1.40002
1.40002
1.40002
1.40002
1.40002
1.40002
1.40002
1.40002
1.40002
1.40001
1.40001
1.40001
1.40001
1.40001
1.40001
1.40001
1.40001
1.40001
1.40001
1.40001
1.40001
1.40001
1.40001
1.40001
1.40001
1.40001
1.40001
1.40001
1.40001
1.40001
1.40001
1.40001
1.40001
1.40001
1.40001
1.40001
1.40001
1.40001
1.40001
1.40001
1.40001
1.40001
1.40001
1.40001
1.40001
1.40001
1.40001
1.40001
1.40001
1.40001
1.39999
1.39999
1.39999
1.39999
1.39999
1.39998
1.39998
1.39998
1.39998
1.39998
1.39999
1.39999
1.39999
1.39999
1.4
1.4
1.4
1.40001
1.40001
1.40002
1.40002
1.40002
1.40003
1.40003
1.40003
1.40003
1.40003
1.40003
1.40003
1.40003
1.40002
1.40002
1.40002
1.40002
1.40002
1.40001
1.40001
1.40001
1.40001
1.40001
1.40001
1.40001
1.40001
1.40001
1.40001
1.40001
1.40001
1.40001
1.40001
1.40001
1.40001
1.40001
1.40001
1.40001
1.40001
1.40001
1.40001
1.40001
1.40001
1.40001
1.40001
1.40001
1.40001
1.40001
1.40001
1.40001
1.40001
1.40001
1.40001
1.40001
1.40001
1.40001
1.40001
1.40001
1.40001
1.39999
1.39999
1.39998
1.39998
1.39998
1.39998
1.39998
1.39998
1.39998
1.39998
1.39998
1.39998
1.39999
1.39999
1.4
1.4
1.40001
1.40001
1.40002
1.40002
1.40003
1.40003
1.40003
1.40004
1.40004
1.40004
1.40004
1.40004
1.40004
1.40003
1.40003
1.40003
1.40003
1.40002
1.40002
1.40002
1.40002
1.40001
1.40001
1.40001
1.40001
1.40001
1.40001
1.40001
1.40001
1.40001
1.40001
1.40001
1.40001
1.40001
1.40001
1.40001
1.40001
1.40001
1.40001
1.40001
1.40001
1.40001
1.40001
1.40001
1.40001
1.40001
1.40001
1.40001
1.40001
1.40001
1.40001
1.40001
1.40001
1.40001
1.40001
1.40001
1.40001
1.40001
1.40001
1.39999
1.39998
1.39998
1.39998
1.39997
1.39997
1.39997
1.39997
1.39997
1.39997
1.39997
1.39998
1.39998
1.39999
1.39999
1.4
1.40001
1.40002
1.40002
1.40003
1.40003
1.40004
1.40004
1.40005
1.40005
1.40005
1.40005
1.40005
1.40004
1.40004
1.40004
1.40004
1.40003
1.40003
1.40002
1.40002
1.40002
1.40002
1.40001
1.40001
1.40001
1.40001
1.40001
1.40001
1.40001
1.40001
1.40001
1.40001
1.40001
1.40001
1.40001
1.40001
1.40001
1.40001
1.40001
1.40001
1.40001
1.40001
1.40001
1.40001
1.40001
1.40001
1.40001
1.40001
1.40001
1.40001
1.40001
1.40001
1.40001
1.40001
1.40001
1.40001
1.40001
1.40001
1.40001
1.39998
1.39998
1.39997
1.39997
1.39997
1.39996
1.39996
1.39996
1.39996
1.39996
1.39997
1.39997
1.39998
1.39999
1.4
1.4
1.40001
1.40002
1.40003
1.40004
1.40005
1.40005
1.40006
1.40006
1.40006
1.40006
1.40006
1.40006
1.40006
1.40005
1.40005
1.40004
1.40004
1.40004
1.40003
1.40003
1.40002
1.40002
1.40002
1.40001
1.40001
1.40001
1.40001
1.40001
1.40001
1.40001
1.40001
1.40001
1.40001
1.4
1.4
1.4
1.40001
1.40001
1.40001
1.40001
1.40001
1.40001
1.40001
1.40001
1.40001
1.40001
1.40001
1.40001
1.40001
1.40001
1.40001
1.40001
1.40001
1.40001
1.40001
1.40001
1.40001
1.40001
1.40001
1.39997
1.39997
1.39996
1.39996
1.39996
1.39995
1.39995
1.39995
1.39996
1.39996
1.39996
1.39997
1.39998
1.39999
1.4
1.40001
1.40002
1.40003
1.40005
1.40006
1.40006
1.40007
1.40008
1.40008
1.40008
1.40008
1.40008
1.40008
1.40007
1.40007
1.40006
1.40006
1.40005
1.40004
1.40004
1.40003
1.40003
1.40002
1.40002
1.40002
1.40001
1.40001
1.40001
1.40001
1.40001
1.40001
1.40001
1.40001
1.40001
1.4
1.4
1.4
1.4
1.4
1.4
1.4
1.4
1.40001
1.40001
1.40001
1.40001
1.40001
1.40001
1.40001
1.40001
1.40001
1.40001
1.40001
1.40001
1.40001
1.40001
1.40001
1.40001
1.40001
1.40001
1.39997
1.39996
1.39996
1.39995
1.39995
1.39994
1.39994
1.39995
1.39995
1.39995
1.39996
1.39997
1.39998
1.4
1.40001
1.40003
1.40004
1.40005
1.40007
1.40008
1.40009
1.4001
1.4001
1.40011
1.40011
1.40011
1.4001
1.4001
1.40009
1.40009
1.40008
1.40007
1.40006
1.40005
1.40005
1.40004
1.40003
1.40003
1.40002
1.40002
1.40002
1.40001
1.40001
1.40001
1.40001
1.40001
1.40001
1.40001
1.40001
1.4
1.4
1.4
1.4
1.4
1.4
1.4
1.4
1.4
1.40001
1.40001
1.40001
1.40001
1.40001
1.40001
1.40001
1.40001
1.40001
1.40001
1.40001
1.40001
1.40001
1.40001
1.40001
1.40001
1.40001
1.39996
1.39995
1.39995
1.39994
1.39994
1.39994
1.39994
1.39994
1.39995
1.39996
1.39997
1.39998
1.4
1.40001
1.40003
1.40005
1.40007
1.40009
1.4001
1.40012
1.40013
1.40014
1.40014
1.40014
1.40014
1.40014
1.40014
1.40013
1.40012
1.40011
1.4001
1.40009
1.40008
1.40007
1.40006
1.40005
1.40004
1.40003
1.40003
1.40002
1.40002
1.40001
1.40001
1.40001
1.40001
1.40001
1.40001
1.40001
1.40001
1.4
1.4
1.4
1.4
1.4
1.4
1.4
1.4
1.4
1.4
1.40001
1.40001
1.40001
1.40001
1.40001
1.40001
1.40001
1.40001
1.40001
1.40001
1.40001
1.40001
1.40001
1.40001
1.40001
1.40001
1.39995
1.39994
1.39994
1.39993
1.39993
1.39993
1.39993
1.39994
1.39995
1.39996
1.39998
1.4
1.40002
1.40005
1.40007
1.40009
1.40012
1.40014
1.40016
1.40017
1.40018
1.40019
1.4002
1.4002
1.40019
1.40019
1.40018
1.40017
1.40016
1.40014
1.40013
1.40011
1.4001
1.40009
1.40007
1.40006
1.40005
1.40004
1.40003
1.40003
1.40002
1.40002
1.40001
1.40001
1.40001
1.40001
1.40001
1.40001
1.4
1.4
1.4
1.4
1.4
1.4
1.4
1.4
1.4
1.4
1.4
1.4
1.40001
1.40001
1.40001
1.40001
1.40001
1.40001
1.40001
1.40001
1.40001
1.40001
1.40001
1.40001
1.40001
1.40001
1.40001
1.39994
1.39994
1.39993
1.39993
1.39993
1.39993
1.39994
1.39995
1.39997
1.39999
1.40001
1.40004
1.40007
1.4001
1.40014
1.40017
1.40019
1.40022
1.40024
1.40026
1.40027
1.40027
1.40028
1.40027
1.40026
1.40025
1.40024
1.40022
1.4002
1.40018
1.40016
1.40014
1.40013
1.40011
1.40009
1.40008
1.40006
1.40005
1.40004
1.40003
1.40002
1.40002
1.40001
1.40001
1.40001
1.40001
1.40001
1.4
1.4
1.4
1.4
1.4
1.4
1.4
1.4
1.4
1.4
1.4
1.4
1.4
1.4
1.40001
1.40001
1.40001
1.40001
1.40001
1.40001
1.40001
1.40001
1.40001
1.40001
1.40001
1.40001
1.40001
1.40001
1.39994
1.39993
1.39993
1.39993
1.39993
1.39994
1.39996
1.39998
1.4
1.40004
1.40007
1.40011
1.40016
1.4002
1.40024
1.40028
1.40031
1.40034
1.40037
1.40038
1.40039
1.4004
1.40039
1.40038
1.40037
1.40035
1.40032
1.4003
1.40027
1.40024
1.40021
1.40019
1.40016
1.40014
1.40011
1.40009
1.40008
1.40006
1.40005
1.40004
1.40003
1.40002
1.40002
1.40001
1.40001
1.40001
1.40001
1.4
1.4
1.4
1.4
1.4
1.4
1.4
1.4
1.4
1.4
1.4
1.4
1.4
1.4
1.40001
1.40001
1.40001
1.40001
1.40001
1.40001
1.40001
1.40001
1.40001
1.40001
1.40001
1.40001
1.40001
1.40001
1.39993
1.39993
1.39993
1.39993
1.39995
1.39997
1.39999
1.40003
1.40007
1.40012
1.40017
1.40023
1.40029
1.40035
1.4004
1.40046
1.4005
1.40053
1.40056
1.40058
1.40058
1.40058
1.40056
1.40054
1.40051
1.40048
1.40044
1.4004
1.40036
1.40032
1.40028
1.40024
1.4002
1.40017
1.40014
1.40012
1.40009
1.40007
1.40006
1.40004
1.40003
1.40002
1.40002
1.40001
1.40001
1.40001
1.4
1.4
1.4
1.4
1.4
1.4
1.4
1.4
1.4
1.4
1.4
1.4
1.4
1.4
1.4
1.4
1.40001
1.40001
1.40001
1.40001
1.40001
1.40001
1.40001
1.40001
1.40001
1.40001
1.40001
1.40001
1.40001
1.39994
1.39994
1.39995
1.39996
1.39998
1.40002
1.40007
1.40012
1.40019
1.40026
1.40034
1.40042
1.4005
1.40058
1.40066
1.40072
1.40078
1.40082
1.40084
1.40086
1.40085
1.40084
1.40081
1.40077
1.40072
1.40066
1.40061
1.40054
1.40048
1.40042
1.40037
1.40031
1.40026
1.40022
1.40018
1.40014
1.40011
1.40009
1.40007
1.40005
1.40004
1.40003
1.40002
1.40001
1.40001
1.40001
1.4
1.4
1.4
1.4
1.4
1.4
1.4
1.4
1.4
1.4
1.4
1.4
1.4
1.4
1.4
1.4
1.4
1.40001
1.40001
1.40001
1.40001
1.40001
1.40001
1.40001
1.40001
1.40001
1.40001
1.40001
1.40001
1.39995
1.39996
1.39998
1.40001
1.40006
1.40011
1.40019
1.40027
1.40037
1.40048
1.40059
1.40071
1.40082
1.40093
1.40103
1.40112
1.40118
1.40123
1.40126
1.40126
1.40125
1.40121
1.40116
1.40109
1.40101
1.40093
1.40084
1.40075
1.40066
1.40057
1.40049
1.40041
1.40034
1.40028
1.40023
1.40018
1.40014
1.40011
1.40008
1.40006
1.40004
1.40003
1.40002
1.40001
1.40001
1.4
1.4
1.4
1.4
1.4
1.4
1.4
1.4
1.4
1.4
1.4
1.4
1.4
1.4
1.4
1.4
1.4
1.4
1.40001
1.40001
1.40001
1.40001
1.40001
1.40001
1.40001
1.40001
1.40001
1.40001
1.40001
1.40001
1.39998
1.4
1.40004
1.4001
1.40017
1.40027
1.40038
1.40051
1.40066
1.40081
1.40098
1.40114
1.4013
1.40145
1.40158
1.40169
1.40178
1.40183
1.40185
1.40185
1.40181
1.40175
1.40166
1.40155
1.40143
1.4013
1.40117
1.40103
1.4009
1.40077
1.40066
1.40055
1.40045
1.40037
1.4003
1.40023
1.40018
1.40014
1.4001
1.40007
1.40005
1.40004
1.40002
1.40001
1.40001
1.4
1.4
1.4
1.4
1.4
1.4
1.4
1.4
1.4
1.4
1.4
1.4
1.4
1.4
1.4
1.4
1.4
1.4
1.4
1.40001
1.40001
1.40001
1.40001
1.40001
1.40001
1.40001
1.40001
1.40001
1.40001
1.40001
1.40003
1.40008
1.40015
1.40024
1.40036
1.40051
1.40068
1.40087
1.40108
1.40131
1.40154
1.40177
1.40199
1.40219
1.40237
1.40251
1.40262
1.40268
1.4027
1.40267
1.40261
1.4025
1.40237
1.4022
1.40202
1.40183
1.40163
1.40143
1.40124
1.40106
1.40089
1.40074
1.40061
1.40049
1.40039
1.4003
1.40023
1.40017
1.40013
1.40009
1.40006
1.40004
1.40003
1.40001
1.40001
1.4
1.4
1.4
1.4
1.4
1.4
1.4
1.4
1.4
1.4
1.4
1.4
1.4
1.4
1.4
1.4
1.4
1.4
1.4
1.40001
1.40001
1.40001
1.40001
1.40001
1.40001
1.40001
1.40001
1.40001
1.40001
1.40001
1.40012
1.40021
1.40032
1.40047
1.40065
1.40086
1.40111
1.40139
1.4017
1.40202
1.40234
1.40266
1.40296
1.40323
1.40347
1.40365
1.40378
1.40386
1.40387
1.40382
1.40371
1.40355
1.40335
1.40311
1.40284
1.40256
1.40227
1.40198
1.40171
1.40145
1.40121
1.401
1.40081
1.40065
1.40051
1.4004
1.4003
1.40022
1.40016
1.40011
1.40008
1.40005
1.40003
1.40001
1.40001
1.4
1.4
1.39999
1.39999
1.4
1.4
1.4
1.4
1.4
1.4
1.4
1.4
1.4
1.4
1.4
1.4
1.4
1.4
1.4
1.4
1.40001
1.40001
1.40001
1.40001
1.40001
1.40001
1.40001
1.40001
1.40001
1.40001
1.40026
1.4004
1.40058
1.4008
1.40107
1.40138
1.40174
1.40214
1.40257
1.40301
1.40346
1.40389
1.4043
1.40466
1.40497
1.40521
1.40538
1.40546
1.40546
1.40538
1.40522
1.40498
1.40469
1.40434
1.40396
1.40356
1.40315
1.40275
1.40236
1.40199
1.40166
1.40136
1.4011
1.40087
1.40068
1.40052
1.40039
1.40029
1.40021
1.40014
1.4001
1.40006
1.40003
1.40002
1.4
1.4
1.39999
1.39999
1.39999
1.39999
1.39999
1.4
1.4
1.4
1.4
1.4
1.4
1.4
1.4
1.4
1.4
1.4
1.4
1.4
1.4
1.40001
1.40001
1.40001
1.40001
1.40001
1.40001
1.40001
1.40001
1.40001
1.40001
1.40048
1.40068
1.40095
1.40127
1.40166
1.40212
1.40263
1.40318
1.40377
1.40438
1.40498
1.40557
1.40611
1.40659
1.40699
1.40731
1.40751
1.40761
1.40759
1.40747
1.40723
1.4069
1.40648
1.406
1.40547
1.40492
1.40435
1.40378
1.40324
1.40274
1.40227
1.40186
1.40149
1.40118
1.40092
1.4007
1.40052
1.40038
1.40027
1.40019
1.40012
1.40007
1.40004
1.40002
1.4
1.39999
1.39999
1.39999
1.39999
1.39999
1.39999
1.39999
1.4
1.4
1.4
1.4
1.4
1.4
1.4
1.4
1.4
1.4
1.4
1.4
1.4
1.4
1.40001
1.40001
1.40001
1.40001
1.40001
1.40001
1.40001
1.40001
1.40001
1.40078
1.40109
1.40148
1.40195
1.4025
1.40313
1.40384
1.4046
1.4054
1.40621
1.40702
1.40779
1.4085
1.40913
1.40965
1.41004
1.4103
1.41042
1.41038
1.4102
1.40987
1.40942
1.40886
1.4082
1.40748
1.40672
1.40595
1.40517
1.40443
1.40374
1.4031
1.40253
1.40203
1.4016
1.40124
1.40094
1.4007
1.40051
1.40036
1.40024
1.40016
1.4001
1.40005
1.40002
1.4
1.39999
1.39998
1.39998
1.39998
1.39998
1.39999
1.39999
1.39999
1.39999
1.4
1.4
1.4
1.4
1.4
1.4
1.4
1.4
1.4
1.4
1.4
1.4
1.4
1.40001
1.40001
1.40001
1.40001
1.40001
1.40001
1.40001
1.40001
1.40122
1.40166
1.40221
1.40287
1.40364
1.40451
1.40546
1.40648
1.40755
1.40862
1.40967
1.41067
1.41159
1.41239
1.41305
1.41355
1.41387
1.414
1.41394
1.41369
1.41326
1.41267
1.41192
1.41106
1.4101
1.40909
1.40805
1.40701
1.40602
1.40507
1.40421
1.40343
1.40275
1.40217
1.40167
1.40127
1.40094
1.40068
1.40048
1.40032
1.40021
1.40013
1.40007
1.40003
1.4
1.39999
1.39998
1.39998
1.39998
1.39998
1.39998
1.39999
1.39999
1.39999
1.4
1.4
1.4
1.4
1.4
1.4
1.4
1.4
1.4
1.4
1.4
1.4
1.4
1.40001
1.40001
1.40001
1.40001
1.40001
1.40001
1.40001
1.40001
1.40182
1.40244
1.40321
1.40411
1.40515
1.40632
1.40759
1.40894
1.41032
1.41171
1.41305
1.41432
1.41548
1.41648
1.41729
1.41791
1.4183
1.41846
1.41837
1.41805
1.4175
1.41674
1.41579
1.41468
1.41344
1.41212
1.41076
1.4094
1.40808
1.40683
1.40567
1.40463
1.40372
1.40293
1.40226
1.40171
1.40127
1.40092
1.40064
1.40044
1.40028
1.40017
1.40009
1.40004
1.4
1.39998
1.39997
1.39997
1.39997
1.39997
1.39998
1.39998
1.39998
1.39999
1.39999
1.4
1.4
1.4
1.4
1.4
1.4
1.4
1.4
1.4
1.4
1.4
1.4
1.4
1.40001
1.40001
1.40001
1.40001
1.40001
1.40001
1.40001
1.40263
1.40349
1.40453
1.40575
1.40714
1.40867
1.41032
1.41205
1.41382
1.41557
1.41725
1.41882
1.42023
1.42145
1.42244
1.42318
1.42365
1.42383
1.42372
1.42333
1.42265
1.42172
1.42054
1.41915
1.4176
1.41593
1.4142
1.41245
1.41073
1.4091
1.40758
1.4062
1.40498
1.40393
1.40304
1.4023
1.40171
1.40124
1.40087
1.40059
1.40038
1.40023
1.40013
1.40006
1.40001
1.39998
1.39997
1.39996
1.39996
1.39996
1.39997
1.39997
1.39998
1.39998
1.39999
1.39999
1.4
1.4
1.4
1.4
1.4
1.4
1.4
1.4
1.4
1.4
1.4
1.4
1.40001
1.40001
1.40001
1.40001
1.40001
1.40001
1.40001
1.40371
1.40487
1.40626
1.40786
1.40967
1.41165
1.41375
1.41593
1.41812
1.42026
1.42231
1.42419
1.42587
1.42731
1.42846
1.42932
1.42986
1.43007
1.42995
1.42948
1.4287
1.42759
1.42619
1.42453
1.42265
1.42059
1.41844
1.41624
1.41406
1.41197
1.41001
1.40822
1.40662
1.40524
1.40406
1.40309
1.40229
1.40166
1.40117
1.4008
1.40052
1.40032
1.40018
1.40008
1.40002
1.39998
1.39996
1.39995
1.39995
1.39996
1.39996
1.39997
1.39997
1.39998
1.39999
1.39999
1.39999
1.4
1.4
1.4
1.4
1.4
1.4
1.4
1.4
1.4
1.4
1.4
1.40001
1.40001
1.40001
1.40001
1.40001
1.40001
1.40001
1.40511
1.40665
1.40846
1.41054
1.41284
1.41533
1.41794
1.42061
1.42325
1.42581
1.4282
1.43038
1.4323
1.43393
1.43522
1.43618
1.43677
1.43701
1.43687
1.43637
1.43549
1.43425
1.43267
1.43075
1.42855
1.42612
1.42353
1.42084
1.41815
1.41553
1.41305
1.41077
1.40871
1.40692
1.40538
1.4041
1.40306
1.40223
1.40158
1.40108
1.40071
1.40044
1.40025
1.40013
1.40004
1.39999
1.39996
1.39995
1.39994
1.39995
1.39995
1.39996
1.39997
1.39998
1.39998
1.39999
1.39999
1.4
1.4
1.4
1.4
1.4
1.4
1.4
1.4
1.4
1.4
1.4
1.4
1.40001
1.40001
1.40001
1.40001
1.40001
1.40001
1.4069
1.4089
1.41123
1.41385
1.41672
1.41978
1.42293
1.42609
1.42918
1.4321
1.4348
1.43722
1.43931
1.44105
1.44242
1.44342
1.44405
1.44429
1.44416
1.44365
1.44274
1.44144
1.43974
1.43765
1.43521
1.43245
1.42944
1.42628
1.42305
1.41985
1.41678
1.41392
1.41133
1.40904
1.40707
1.40541
1.40405
1.40296
1.40211
1.40145
1.40097
1.40061
1.40036
1.40019
1.40007
1.4
1.39996
1.39994
1.39993
1.39994
1.39994
1.39995
1.39996
1.39997
1.39998
1.39998
1.39999
1.39999
1.4
1.4
1.4
1.4
1.4
1.4
1.4
1.4
1.4
1.4
1.4
1.40001
1.40001
1.40001
1.40001
1.40001
1.40001
1.40915
1.41169
1.41461
1.41785
1.42134
1.42498
1.42867
1.43229
1.43575
1.43895
1.44184
1.44436
1.44649
1.44823
1.44958
1.45054
1.45114
1.45138
1.45127
1.45079
1.44994
1.44868
1.447
1.44488
1.44233
1.43937
1.43605
1.43247
1.42872
1.42494
1.42125
1.41775
1.41453
1.41166
1.40917
1.40706
1.40531
1.4039
1.40279
1.40194
1.4013
1.40083
1.4005
1.40027
1.40012
1.40002
1.39997
1.39994
1.39993
1.39993
1.39993
1.39994
1.39995
1.39996
1.39997
1.39998
1.39999
1.39999
1.39999
1.4
1.4
1.4
1.4
1.4
1.4
1.4
1.4
1.4
1.4
1.4
1.40001
1.40001
1.40001
1.40001
1.40001
1.41191
1.41509
1.41867
1.42257
1.42669
1.43089
1.43504
1.43901
1.44269
1.446
1.44888
1.45132
1.4533
1.45487
1.45604
1.45686
1.45736
1.45757
1.45748
1.45711
1.45641
1.45534
1.45387
1.45192
1.44948
1.44652
1.44307
1.43922
1.43506
1.43075
1.42644
1.42227
1.41838
1.41485
1.41175
1.4091
1.40689
1.40509
1.40367
1.40257
1.40174
1.40113
1.40069
1.40039
1.40019
1.40006
1.39998
1.39994
1.39992
1.39992
1.39992
1.39993
1.39994
1.39995
1.39997
1.39997
1.39998
1.39999
1.39999
1.4
1.4
1.4
1.4
1.4
1.4
1.4
1.4
1.4
1.4
1.4
1.40001
1.40001
1.40001
1.40001
1.40001
1.41525
1.41912
1.4234
1.42796
1.43266
1.43732
1.44178
1.4459
1.44957
1.45273
1.45535
1.45744
1.45904
1.46022
1.46104
1.46158
1.4619
1.46202
1.46199
1.46177
1.46135
1.46064
1.45958
1.45807
1.45602
1.45336
1.45007
1.4462
1.44183
1.43714
1.43228
1.42747
1.42288
1.41864
1.41486
1.41158
1.40883
1.40657
1.40477
1.40336
1.4023
1.40151
1.40094
1.40055
1.40028
1.40011
1.4
1.39994
1.39992
1.39991
1.39991
1.39992
1.39993
1.39995
1.39996
1.39997
1.39998
1.39998
1.39999
1.39999
1.4
1.4
1.4
1.4
1.4
1.4
1.4
1.4
1.4
1.4
1.40001
1.40001
1.40001
1.40001
1.40001
1.41918
1.42378
1.42876
1.43393
1.43908
1.444
1.44852
1.4525
1.45585
1.45853
1.46056
1.462
1.46295
1.46352
1.46381
1.46393
1.46396
1.46397
1.46398
1.46399
1.46394
1.46377
1.46335
1.46255
1.46121
1.45921
1.45646
1.45292
1.44866
1.44382
1.43861
1.43325
1.42799
1.42303
1.41852
1.41455
1.41117
1.40837
1.40612
1.40435
1.403
1.402
1.40127
1.40076
1.40041
1.40018
1.40004
1.39996
1.39992
1.3999
1.3999
1.39991
1.39992
1.39994
1.39995
1.39996
1.39997
1.39998
1.39999
1.39999
1.4
1.4
1.4
1.4
1.4
1.4
1.4
1.4
1.4
1.4
1.4
1.40001
1.40001
1.40001
1.40001
1.4237
1.42903
1.43463
1.44025
1.44563
1.45053
1.45478
1.45825
1.46089
1.46272
1.46382
1.46431
1.46435
1.46409
1.46368
1.46325
1.46293
1.46278
1.46284
1.46311
1.46354
1.46403
1.46445
1.46461
1.46432
1.46336
1.46155
1.45878
1.45504
1.45043
1.44513
1.43943
1.43362
1.42798
1.42272
1.41802
1.41395
1.41054
1.40776
1.40557
1.40388
1.40261
1.40168
1.40103
1.40058
1.40028
1.40009
1.39998
1.39992
1.3999
1.39989
1.3999
1.39991
1.39993
1.39994
1.39996
1.39997
1.39998
1.39999
1.39999
1.4
1.4
1.4
1.4
1.4
1.4
1.4
1.4
1.4
1.4
1.4
1.40001
1.40001
1.40001
1.40001
1.42877
1.43475
1.44081
1.44664
1.45192
1.45643
1.45999
1.46253
1.46406
1.46468
1.46453
1.46382
1.46273
1.46148
1.46025
1.4592
1.45847
1.45813
1.45824
1.4588
1.45974
1.46099
1.46237
1.4637
1.46471
1.46513
1.46468
1.46314
1.4604
1.45645
1.45148
1.44574
1.43959
1.43338
1.42743
1.42197
1.41717
1.41308
1.40972
1.40703
1.40494
1.40336
1.4022
1.40137
1.40079
1.40041
1.40017
1.40002
1.39994
1.3999
1.39989
1.39989
1.3999
1.39992
1.39994
1.39995
1.39996
1.39997
1.39998
1.39999
1.39999
1.4
1.4
1.4
1.4
1.4
1.4
1.4
1.4
1.4
1.4
1.40001
1.40001
1.40001
1.40001
1.43427
1.44074
1.44701
1.4527
1.45749
1.46115
1.46359
1.46478
1.46485
1.46395
1.46232
1.4602
1.45786
1.45554
1.45344
1.45174
1.45058
1.45005
1.4502
1.45104
1.45252
1.45454
1.45695
1.45953
1.46201
1.46405
1.46529
1.46541
1.46413
1.46137
1.45718
1.45181
1.44564
1.43907
1.43254
1.42638
1.42082
1.41602
1.412
1.40876
1.40621
1.40427
1.40283
1.40179
1.40107
1.40058
1.40026
1.40007
1.39996
1.3999
1.39988
1.39988
1.39989
1.39991
1.39993
1.39994
1.39996
1.39997
1.39998
1.39999
1.39999
1.4
1.4
1.4
1.4
1.4
1.4
1.4
1.4
1.4
1.4
1.40001
1.40001
1.40001
1.40001
1.44002
1.44673
1.45285
1.45799
1.46183
1.46421
1.46511
1.46461
1.46292
1.4603
1.45705
1.45346
1.44982
1.44641
1.44344
1.4411
1.43953
1.43881
1.43901
1.44013
1.44212
1.4449
1.44832
1.45217
1.45616
1.45993
1.46308
1.46515
1.46576
1.46466
1.46177
1.45725
1.45144
1.44483
1.43791
1.43115
1.42488
1.41933
1.41462
1.41076
1.4077
1.40535
1.40359
1.40231
1.40141
1.40079
1.40039
1.40014
1.39999
1.39992
1.39988
1.39988
1.39989
1.3999
1.39992
1.39994
1.39995
1.39997
1.39998
1.39998
1.39999
1.39999
1.4
1.4
1.4
1.4
1.4
1.4
1.4
1.4
1.4
1.4
1.40001
1.40001
1.40001
1.44578
1.45238
1.45795
1.46207
1.46452
1.46521
1.46424
1.46181
1.45821
1.45378
1.44886
1.4438
1.43891
1.43446
1.43067
1.42773
1.42577
1.42489
1.42514
1.42652
1.42899
1.43249
1.43686
1.44191
1.44737
1.45288
1.45798
1.46218
1.46497
1.46592
1.4648
1.46162
1.45666
1.45037
1.44335
1.43615
1.42925
1.42299
1.41757
1.41306
1.40943
1.40661
1.40448
1.40292
1.40182
1.40106
1.40055
1.40023
1.40004
1.39994
1.39989
1.39987
1.39988
1.39989
1.39991
1.39993
1.39995
1.39996
1.39997
1.39998
1.39999
1.39999
1.4
1.4
1.4
1.4
1.4
1.4
1.4
1.4
1.4
1.4
1.40001
1.40001
1.40001
1.45126
1.45735
1.4619
1.46458
1.46524
1.46395
1.46091
1.45642
1.45086
1.44462
1.43809
1.43162
1.42554
1.42011
1.41555
1.41206
1.40975
1.40872
1.40902
1.41066
1.4136
1.41777
1.42303
1.42921
1.43605
1.4432
1.45022
1.45657
1.46166
1.46493
1.46596
1.46458
1.46092
1.4554
1.44861
1.44123
1.43385
1.42694
1.42081
1.41562
1.41139
1.40806
1.40553
1.40365
1.40231
1.40138
1.40075
1.40035
1.40011
1.39997
1.3999
1.39988
1.39987
1.39989
1.3999
1.39992
1.39994
1.39996
1.39997
1.39998
1.39999
1.39999
1.4
1.4
1.4
1.4
1.4
1.4
1.4
1.4
1.4
1.4
1.40001
1.40001
1.40001
1.45615
1.46129
1.4644
1.46525
1.46386
1.4604
1.4552
1.44864
1.44117
1.4332
1.42513
1.41733
1.41012
1.40375
1.39847
1.39443
1.39179
1.39063
1.39099
1.39289
1.39629
1.40111
1.40724
1.41449
1.42262
1.43131
1.44014
1.44856
1.45596
1.46166
1.46509
1.46587
1.46395
1.45963
1.45347
1.44619
1.43853
1.43109
1.42431
1.41844
1.41358
1.40971
1.40672
1.40449
1.40288
1.40176
1.401
1.4005
1.40019
1.40001
1.39992
1.39988
1.39987
1.39988
1.3999
1.39992
1.39994
1.39995
1.39997
1.39998
1.39998
1.39999
1.4
1.4
1.4
1.4
1.4
1.4
1.4
1.4
1.4
1.4
1.40001
1.40001
1.40001
1.46015
1.46392
1.46523
1.46401
1.4604
1.45472
1.44737
1.43882
1.42951
1.4199
1.41037
1.40128
1.39295
1.38565
1.37961
1.37502
1.37202
1.37072
1.37115
1.37333
1.37722
1.38273
1.38973
1.39804
1.40743
1.41759
1.42812
1.43851
1.44812
1.45624
1.46218
1.46536
1.46554
1.46282
1.45768
1.45085
1.44316
1.43535
1.428
1.42148
1.41598
1.41153
1.40807
1.40545
1.40355
1.4022
1.40128
1.40068
1.4003
1.40007
1.39995
1.39989
1.39987
1.39988
1.39989
1.39991
1.39993
1.39995
1.39996
1.39997
1.39998
1.39999
1.39999
1.4
1.4
1.4
1.4
1.4
1.4
1.4
1.4
1.4
1.4
1.40001
1.40001
1.46303
1.46508
1.46435
1.46091
1.45505
1.44717
1.43776
1.42731
1.41626
1.40506
1.39408
1.38368
1.37418
1.36586
1.35899
1.35377
1.35037
1.3489
1.34943
1.35193
1.35638
1.36265
1.3706
1.38003
1.39071
1.40232
1.41449
1.42674
1.43846
1.44893
1.45737
1.46308
1.46558
1.46479
1.46105
1.45502
1.44758
1.43959
1.43179
1.42468
1.41856
1.41353
1.40955
1.40653
1.4043
1.40271
1.40161
1.40089
1.40042
1.40014
1.39999
1.39991
1.39988
1.39988
1.39989
1.39991
1.39993
1.39994
1.39996
1.39997
1.39998
1.39999
1.39999
1.4
1.4
1.4
1.4
1.4
1.4
1.4
1.4
1.4
1.4
1.40001
1.40001
1.46463
1.46473
1.46182
1.45613
1.44805
1.43808
1.42672
1.41445
1.40171
1.38891
1.37641
1.36459
1.35377
1.34428
1.33643
1.33045
1.32657
1.32492
1.32555
1.32847
1.33358
1.34076
1.34981
1.3605
1.37256
1.38568
1.39949
1.41355
1.42729
1.44
1.45088
1.45913
1.46409
1.46548
1.46344
1.45854
1.45164
1.44371
1.43561
1.42799
1.42128
1.41567
1.41117
1.40771
1.40513
1.40328
1.40199
1.40113
1.40057
1.40023
1.40004
1.39993
1.39989
1.39988
1.39989
1.3999
1.39992
1.39994
1.39996
1.39997
1.39998
1.39999
1.39999
1.4
1.4
1.4
1.4
1.4
1.4
1.4
1.4
1.4
1.4
1.40001
1.40001
1.46493
1.46293
1.4578
1.44991
1.43972
1.42777
1.41455
1.40051
1.38605
1.37155
1.35738
1.34392
1.33155
1.32065
1.31159
1.3047
1.30024
1.29836
1.29916
1.3026
1.30857
1.31688
1.32725
1.33941
1.35303
1.36778
1.3833
1.39917
1.41486
1.42971
1.44294
1.45368
1.46116
1.46488
1.46479
1.4613
1.45523
1.44759
1.43936
1.43135
1.4241
1.41793
1.41291
1.40899
1.40605
1.40392
1.40242
1.40141
1.40075
1.40034
1.40009
1.39996
1.3999
1.39988
1.39989
1.3999
1.39992
1.39994
1.39995
1.39997
1.39998
1.39999
1.39999
1.4
1.4
1.4
1.4
1.4
1.4
1.4
1.4
1.4
1.4
1.40001
1.40001
1.46397
1.45983
1.45253
1.44254
1.43036
1.41653
1.4015
1.38567
1.36939
1.35301
1.33691
1.3215
1.30724
1.29462
1.28409
1.27608
1.2709
1.26877
1.2698
1.27393
1.281
1.29072
1.30274
1.31668
1.33212
1.3487
1.36605
1.38378
1.4014
1.41833
1.4338
1.44696
1.45693
1.46306
1.46507
1.46323
1.45825
1.45113
1.44296
1.43468
1.42698
1.42027
1.41474
1.41037
1.40705
1.40461
1.40289
1.40172
1.40095
1.40046
1.40017
1.4
1.39992
1.39989
1.39989
1.3999
1.39992
1.39994
1.39995
1.39996
1.39998
1.39998
1.39999
1.4
1.4
1.4
1.4
1.4
1.4
1.4
1.4
1.4
1.4
1.40001
1.40001
1.46188
1.45564
1.44627
1.43429
1.42024
1.4046
1.38776
1.37005
1.35176
1.33322
1.31484
1.29709
1.28055
1.26581
1.25348
1.24408
1.23804
1.23563
1.23697
1.24199
1.25045
1.26198
1.27606
1.29218
1.30981
1.32851
1.34788
1.36756
1.38713
1.40608
1.42371
1.43917
1.45157
1.46011
1.46434
1.46432
1.46063
1.45426
1.44633
1.43792
1.42985
1.42267
1.41664
1.41181
1.4081
1.40536
1.40341
1.40206
1.40117
1.40059
1.40025
1.40005
1.39995
1.3999
1.39989
1.3999
1.39992
1.39993
1.39995
1.39996
1.39997
1.39998
1.39999
1.39999
1.4
1.4
1.4
1.4
1.4
1.4
1.4
1.4
1.4
1.40001
1.40001
1.45882
1.45057
1.43925
1.42542
1.40959
1.39216
1.37346
1.35371
1.33315
1.3121
1.291
1.27044
1.25113
1.23384
1.21932
1.20825
1.20117
1.19842
1.20015
1.20628
1.2165
1.23028
1.24694
1.26576
1.28605
1.30724
1.3289
1.35068
1.37226
1.39319
1.41288
1.43055
1.44528
1.45619
1.46267
1.46458
1.46237
1.45692
1.44942
1.44101
1.43267
1.42507
1.41857
1.4133
1.40921
1.40615
1.40396
1.40243
1.40141
1.40075
1.40034
1.40011
1.39998
1.39992
1.3999
1.39991
1.39992
1.39993
1.39995
1.39996
1.39997
1.39998
1.39999
1.39999
1.4
1.4
1.4
1.4
1.4
1.4
1.4
1.4
1.4
1.40001
1.40001
1.455
1.44485
1.43172
1.41615
1.39859
1.37937
1.3587
1.3367
1.31354
1.28955
1.26524
1.24134
1.21875
1.1984
1.18127
1.1682
1.15986
1.15671
1.15891
1.16639
1.17874
1.19527
1.2151
1.23722
1.26073
1.28489
1.30919
1.3333
1.35697
1.37988
1.40156
1.42131
1.43825
1.45145
1.46016
1.46407
1.46345
1.4591
1.45217
1.44391
1.4354
1.42745
1.42052
1.41482
1.41035
1.40698
1.40453
1.40282
1.40167
1.40091
1.40045
1.40017
1.40002
1.39994
1.39991
1.39991
1.39992
1.39993
1.39995
1.39996
1.39997
1.39998
1.39999
1.39999
1.4
1.4
1.4
1.4
1.4
1.4
1.4
1.4
1.4
1.40001
1.40001
1.45061
1.43869
1.42387
1.40666
1.38741
1.36635
1.34356
1.31905
1.29293
1.26554
1.2375
1.2097
1.18323
1.15931
1.13912
1.12372
1.11393
1.11028
1.11303
1.12206
1.13692
1.15673
1.18034
1.20643
1.23379
1.26147
1.28883
1.31555
1.34146
1.36637
1.38997
1.41169
1.43071
1.44608
1.45696
1.46288
1.46392
1.46078
1.45456
1.44657
1.438
1.42976
1.42245
1.41635
1.41151
1.40783
1.40513
1.40323
1.40194
1.40109
1.40056
1.40024
1.40006
1.39997
1.39993
1.39992
1.39992
1.39994
1.39995
1.39996
1.39997
1.39998
1.39999
1.39999
1.4
1.4
1.4
1.4
1.4
1.4
1.4
1.4
1.4
1.4
1.40001
1.44583
1.43229
1.4159
1.39711
1.37618
1.35321
1.32813
1.30083
1.27138
1.24012
1.20781
1.17553
1.14465
1.11665
1.09299
1.07496
1.06352
1.05931
1.06262
1.07339
1.09108
1.11466
1.14264
1.17336
1.20523
1.237
1.2679
1.29756
1.32588
1.35286
1.37833
1.40189
1.42284
1.44025
1.4532
1.46109
1.46383
1.46197
1.45658
1.44897
1.44043
1.43198
1.42434
1.41787
1.41267
1.40869
1.40575
1.40366
1.40223
1.40128
1.40068
1.40031
1.4001
1.39999
1.39994
1.39993
1.39993
1.39994
1.39995
1.39996
1.39997
1.39998
1.39999
1.39999
1.4
1.4
1.4
1.4
1.4
1.4
1.4
1.4
1.4
1.4
1.40001
1.44084
1.4258
1.40796
1.38765
1.36503
1.34007
1.31253
1.28219
1.24904
1.21347
1.17638
1.13909
1.10329
1.0708
1.04337
1.0225
1.00926
1.0044
1.00827
1.02087
1.04163
1.06934
1.10222
1.13817
1.17516
1.21161
1.24652
1.27945
1.3104
1.33951
1.36683
1.39213
1.41486
1.43415
1.44905
1.45883
1.46325
1.46273
1.45824
1.45109
1.44266
1.43407
1.42615
1.41934
1.41382
1.40954
1.40636
1.40409
1.40252
1.40148
1.40081
1.4004
1.40016
1.40003
1.39996
1.39994
1.39994
1.39994
1.39995
1.39997
1.39998
1.39998
1.39999
1.39999
1.4
1.4
1.4
1.4
1.4
1.4
1.4
1.4
1.4
1.4
1.40001
1.43579
1.41939
1.40018
1.3784
1.35408
1.32704
1.2969
1.2633
1.22616
1.18591
1.14362
1.1009
1.05982
1.02256
0.991194
0.967367
0.952257
0.946648
0.951016
0.965445
0.989377
1.02145