/*--------------------------------*- C++ -*----------------------------------*\
  =========                 |
  \\      /  F ield         | OpenFOAM: The Open Source CFD Toolbox
   \\    /   O peration     | Website:  https://openfoam.org
    \\  /    A nd           | Version:  6
     \\/     M anipulation  |
\*---------------------------------------------------------------------------*/
FoamFile
{
    version     2.0;
    format      ascii;
    class       volVectorField;
    location    "3.18";
    object      U;
}
// * * * * * * * * * * * * * * * * * * * * * * * * * * * * * * * * * * * * * //

dimensions      [0 1 -1 0 0 0 0];

internalField   nonuniform List<vector> 
4214
(
(12.8309 0.232308 -1.36667e-18)
(13.2844 -0.225198 0)
(13.4342 -0.784836 0)
(13.4835 -1.31751 -1.45606e-19)
(13.5467 -1.89406 -2.38832e-19)
(13.6335 -2.58326 2.53857e-19)
(13.4852 -3.39778 -3.64464e-20)
(12.4813 -4.16675 1.45363e-19)
(10.8749 -4.8162 0)
(9.28807 -5.48738 -1.47359e-19)
(7.94455 -6.13492 1.51424e-19)
(6.79729 -6.60073 0)
(5.82968 -6.7858 1.92147e-20)
(5.06596 -6.81291 0)
(4.54404 -6.76579 -2.93136e-20)
(4.32841 -6.74179 5.612e-20)
(4.31715 -6.73837 -2.79927e-20)
(4.7195 -6.76011 -1.82484e-20)
(5.33888 -6.79238 -1.52259e-19)
(6.16847 -6.72999 2.28285e-19)
(7.1326 -6.53458 -1.7739e-21)
(8.15676 -6.16674 5.65143e-19)
(9.11243 -5.66381 -1.57975e-19)
(9.92303 -5.0413 1.53694e-19)
(10.5401 -4.3533 -2.40105e-19)
(10.9632 -3.66734 1.44852e-19)
(11.2318 -3.04413 0)
(11.4017 -2.51688 0)
(11.51 -2.08476 -9.61141e-21)
(11.576 -1.72719 3.8007e-20)
(11.6077 -1.42611 -3.72965e-20)
(11.6168 -1.17312 -1.14697e-20)
(11.6151 -0.961692 1.15489e-20)
(11.6091 -0.784552 0)
(11.6021 -0.634943 -3.80192e-22)
(11.5968 -0.506539 2.28148e-20)
(11.596 -0.391144 1.12113e-22)
(11.6009 -0.287459 -2.24311e-20)
(11.5977 -0.204805 0)
(11.5077 -0.125035 1.62021e-21)
(11.0978 -0.0374699 0)
(12.6948 -0.276034 0)
(12.791 -0.616802 4.74552e-19)
(12.8171 -1.08381 -1.26407e-18)
(12.8644 -1.53938 4.48681e-19)
(12.8991 -2.05397 -5.71023e-19)
(12.9122 -2.66648 7.52825e-19)
(12.7451 -3.39181 -9.17534e-20)
(11.9029 -4.06835 -1.46624e-19)
(10.4486 -4.6047 0)
(8.92931 -5.16319 0)
(7.67089 -5.77321 3.10109e-19)
(6.673 -6.30784 -3.14786e-19)
(5.84148 -6.64644 -1.89979e-20)
(5.13949 -6.80687 0)
(4.6063 -6.9177 9.73192e-20)
(4.30589 -7.06726 0)
(4.30058 -7.25625 -1.61563e-19)
(4.64923 -7.44695 -2.06986e-19)
(5.3377 -7.59244 -5.03575e-19)
(6.30628 -7.61535 -1.28868e-18)
(7.46896 -7.4738 0)
(8.71922 -7.11569 -3.10648e-19)
(9.87353 -6.53713 9.29081e-19)
(10.8348 -5.8046 -8.50079e-19)
(11.522 -4.96558 4.85485e-19)
(11.923 -4.10216 0)
(12.0946 -3.30438 0)
(12.1351 -2.63756 0)
(12.1223 -2.12127 9.65705e-21)
(12.0946 -1.72526 0)
(12.051 -1.40855 0)
(11.9949 -1.15142 0)
(11.9373 -0.942549 -2.18371e-22)
(11.8853 -0.772075 7.34e-21)
(11.8414 -0.631537 -8.64927e-21)
(11.8066 -0.513927 1.48265e-20)
(11.7804 -0.41175 0)
(11.7655 -0.32564 -4.43805e-21)
(11.7656 -0.265543 -5.86611e-21)
(11.7614 -0.19534 -9.2012e-21)
(11.6986 -0.050993 0)
(12.3594 -0.390607 -3.05022e-18)
(12.4995 -0.749402 -5.30765e-19)
(12.5734 -1.15992 5.59656e-19)
(12.6165 -1.57251 -2.34682e-19)
(12.6283 -2.05136 6.20347e-19)
(12.6129 -2.61947 -8.90589e-19)
(12.4492 -3.29804 2.16711e-19)
(11.681 -3.93346 1.07937e-18)
(10.2908 -4.40538 0)
(8.76969 -4.86167 2.92291e-19)
(7.48943 -5.3924 4.90571e-19)
(6.51425 -5.9243 -4.55837e-19)
(5.7436 -6.33186 -2.28369e-19)
(5.07841 -6.59405 -3.21844e-19)
(4.53551 -6.8113 -9.67838e-20)
(4.19832 -7.06198 1.50899e-20)
(4.15667 -7.34368 2.66093e-20)
(4.51657 -7.60403 5.29935e-19)
(5.24658 -7.74148 4.56606e-19)
(6.2976 -7.77661 2.72372e-18)
(7.59054 -7.63637 0)
(8.98954 -7.24367 1.69027e-18)
(10.2828 -6.65882 3.22423e-19)
(11.3654 -5.9357 9.3142e-19)
(12.1291 -5.09398 -4.80708e-19)
(12.5409 -4.19952 -5.41116e-19)
(12.6551 -3.34253 -5.23514e-19)
(12.5934 -2.60512 1.95424e-20)
(12.47 -2.04223 4.91847e-20)
(12.3632 -1.63377 -4.84986e-20)
(12.2676 -1.32076 0)
(12.1741 -1.07387 0)
(12.0871 -0.876956 -1.77481e-20)
(12.0122 -0.718663 1.33862e-20)
(11.9506 -0.589802 -2.21384e-20)
(11.9018 -0.482892 1.6356e-20)
(11.8644 -0.391543 0)
(11.837 -0.31382 3.85685e-21)
(11.8172 -0.250798 6.1322e-21)
(11.8009 -0.193184 1.95116e-19)
(11.7972 -0.122216 2.08809e-20)
(12.1004 -0.579629 -5.80827e-18)
(12.2054 -0.869984 0)
(12.242 -1.22517 -2.07667e-18)
(12.2655 -1.60241 8.87372e-19)
(12.2557 -2.03852 0)
(12.2056 -2.55514 -9.58949e-19)
(12.0429 -3.17795 -2.93108e-19)
(11.391 -3.77568 -1.12099e-18)
(10.1142 -4.19118 -3.31399e-19)
(8.61489 -4.54235 3.37531e-20)
(7.30483 -4.96832 -3.25538e-19)
(6.32877 -5.46202 7.82191e-19)
(5.60127 -5.91175 1.09555e-19)
(4.96874 -6.25683 -5.54723e-19)
(4.41217 -6.57235 0)
(4.04327 -6.91452 -1.8693e-19)
(3.99558 -7.26073 0)
(4.37464 -7.54145 1.46776e-18)
(5.1742 -7.68369 0)
(6.35141 -7.68423 -1.80073e-18)
(7.79035 -7.37173 2.60321e-19)
(9.31576 -6.94992 -1.79864e-18)
(10.74 -6.36909 2.62005e-18)
(11.9468 -5.70439 3.23818e-18)
(12.8055 -4.9345 4.17482e-19)
(13.255 -4.09317 1.31715e-19)
(13.3306 -3.25128 3.23809e-19)
(13.1667 -2.48742 1.76347e-19)
(12.9056 -1.89451 1.52811e-19)
(12.6924 -1.48506 -8.20217e-20)
(12.53 -1.18742 -8.53958e-22)
(12.3917 -0.960963 -7.61299e-21)
(12.2705 -0.783578 -6.35973e-23)
(12.169 -0.643216 -2.13956e-20)
(12.0872 -0.530474 0)
(12.0228 -0.438042 0)
(11.9742 -0.360757 0)
(11.9384 -0.295245 0)
(11.9089 -0.238176 1.17272e-19)
(11.885 -0.184723 -1.03413e-19)
(11.8804 -0.13025 0)
(11.8468 -0.661524 4.48559e-18)
(11.9369 -0.923605 1.16349e-18)
(11.9641 -1.24088 1.05336e-18)
(11.9717 -1.58545 0)
(11.9427 -1.98229 -2.86938e-18)
(11.8667 -2.45129 9.46997e-19)
(11.6994 -3.01863 3.64567e-19)
(11.1401 -3.58339 1.6627e-18)
(9.97788 -3.95985 -1.50775e-18)
(8.50794 -4.21324 2.07315e-19)
(7.15333 -4.51412 -8.97996e-21)
(6.13515 -4.92582 -3.0395e-19)
(5.41087 -5.37953 -7.04675e-19)
(4.79602 -5.77972 6.01251e-19)
(4.2273 -6.15605 -2.05002e-19)
(3.83662 -6.53773 2.15606e-19)
(3.79338 -6.88556 0)
(4.21219 -7.1128 -5.12781e-18)
(5.10274 -7.13156 -5.02253e-18)
(6.40237 -6.9106 -5.9058e-18)
(7.94055 -6.53901 0)
(9.53151 -6.06784 5.85094e-18)
(11.0446 -5.51576 -4.56983e-18)
(12.345 -4.96347 -6.38288e-18)
(13.3048 -4.35384 1.76994e-19)
(13.8307 -3.66957 -5.57198e-19)
(13.9178 -2.94433 1.20733e-18)
(13.6878 -2.2377 0)
(13.2912 -1.65807 -7.48583e-20)
(12.9677 -1.26837 -7.54064e-20)
(12.7399 -1.00353 -2.07349e-20)
(12.5621 -0.809153 3.48474e-20)
(12.4133 -0.659379 -5.48633e-20)
(12.2913 -0.542395 7.63873e-20)
(12.1943 -0.449459 0)
(12.1186 -0.373959 0)
(12.0615 -0.311557 -2.03726e-20)
(12.0192 -0.258512 0)
(11.9851 -0.211727 1.43741e-19)
(11.9574 -0.170693 -1.49601e-19)
(11.9453 -0.131749 3.39179e-19)
(11.6149 -0.721914 -5.50055e-18)
(11.6894 -0.944743 1.41398e-18)
(11.7036 -1.22301 1.18383e-19)
(11.6913 -1.539 4.69752e-18)
(11.644 -1.90153 3.00108e-18)
(11.5444 -2.3249 0)
(11.3658 -2.83489 0)
(10.8874 -3.36386 -1.69512e-18)
(9.8532 -3.7144 -2.1069e-19)
(8.4377 -3.88405 0)
(7.04496 -4.05036 -4.49998e-19)
(5.95533 -4.33454 6.7188e-19)
(5.19303 -4.73368 1.03106e-18)
(4.58054 -5.14552 -1.11829e-19)
(4.0065 -5.53629 -1.65574e-19)
(3.61013 -5.8962 -2.69511e-19)
(3.59308 -6.16364 2.00755e-19)
(4.08355 -6.23154 7.78287e-18)
(5.06972 -6.04097 5.17935e-18)
(6.44774 -5.66127 5.69088e-18)
(8.04007 -5.20735 0)
(9.6539 -4.68798 -5.83955e-18)
(11.1986 -4.18012 -6.14709e-18)
(12.5345 -3.77014 3.89444e-18)
(13.5741 -3.38408 -2.91709e-18)
(14.1843 -2.93842 -2.24504e-18)
(14.349 -2.40309 1.27538e-19)
(14.1252 -1.83633 0)
(13.6212 -1.33905 -2.73083e-19)
(13.1985 -0.998005 8.31047e-20)
(12.907 -0.781347 -1.20616e-20)
(12.695 -0.628419 1.89501e-20)
(12.525 -0.513262 -3.01323e-20)
(12.3879 -0.424168 -5.58261e-20)
(12.2801 -0.354012 -1.23758e-19)
(12.1969 -0.297396 0)
(12.1343 -0.250691 2.09916e-20)
(12.0884 -0.210738 1.80465e-19)
(12.053 -0.175366 1.43513e-20)
(12.0241 -0.145572 -1.84179e-19)
(12.0042 -0.117012 -2.10053e-20)
(11.4037 -0.738358 -1.77895e-18)
(11.4598 -0.934401 1.64092e-18)
(11.4667 -1.179 -1.52935e-18)
(11.4395 -1.46752 -5.02897e-18)
(11.3742 -1.79816 3.7024e-18)
(11.2537 -2.1788 -4.80092e-19)
(11.0587 -2.63106 4.72362e-19)
(10.6389 -3.11693 1.81807e-18)
(9.73408 -3.45029 7.64273e-20)
(8.39992 -3.55641 -1.12625e-18)
(6.99051 -3.59121 -1.98531e-19)
(5.81863 -3.71294 -4.06035e-22)
(4.98 -3.98411 6.4717e-19)
(4.34859 -4.34267 -1.21758e-19)
(3.78309 -4.69321 7.90347e-19)
(3.40535 -4.96231 2.25855e-19)
(3.42283 -5.07437 0)
(3.99641 -4.93263 -9.31575e-18)
(5.05379 -4.54858 1.67074e-19)
(6.47546 -4.03604 -7.61087e-18)
(8.08187 -3.48922 0)
(9.67318 -2.95242 -7.25563e-18)
(11.1751 -2.50883 5.85126e-18)
(12.4675 -2.25258 0)
(13.5373 -2.1156 6.97339e-18)
(14.2728 -1.96711 2.3756e-18)
(14.5055 -1.67906 -1.46362e-18)
(14.3844 -1.29922 6.38292e-19)
(13.8594 -0.947674 2.66873e-19)
(13.3606 -0.689138 8.98736e-21)
(13.0142 -0.532245 4.30034e-21)
(12.7771 -0.42938 -1.02302e-20)
(12.5945 -0.354063 9.75801e-20)
(12.4495 -0.295894 0)
(12.3369 -0.250291 1.03598e-19)
(12.2505 -0.213308 0)
(12.1853 -0.182232 0)
(12.1379 -0.155398 0)
(12.1034 -0.131963 3.20745e-20)
(12.076 -0.113056 -1.776e-19)
(12.0532 -0.0933124 6.45025e-19)
(11.2262 -0.725926 1.71876e-18)
(11.254 -0.902062 3.62603e-18)
(11.2497 -1.11726 -1.8218e-18)
(11.2095 -1.3772 0)
(11.1273 -1.67642 -4.73693e-18)
(10.9875 -2.01644 5.07734e-18)
(10.7753 -2.41276 -5.34868e-19)
(10.3925 -2.84655 -1.55152e-18)
(9.61149 -3.16293 -1.33429e-19)
(8.38521 -3.22733 -7.02805e-20)
(6.9921 -3.14518 5.33729e-19)
(5.75196 -3.0907 0)
(4.81905 -3.16733 -8.56145e-19)
(4.14691 -3.38082 1.62982e-20)
(3.60456 -3.6242 -6.81659e-19)
(3.28272 -3.7434 0)
(3.33293 -3.66149 6.28494e-20)
(3.97196 -3.30331 4.76152e-18)
(5.06877 -2.75726 -6.95117e-18)
(6.4934 -2.13618 7.67726e-18)
(8.06492 -1.53034 0)
(9.5963 -1.01682 7.35039e-18)
(10.997 -0.670692 -5.2645e-20)
(12.1931 -0.581107 6.79383e-20)
(13.241 -0.685976 -3.61628e-18)
(14.0912 -0.843327 -4.61442e-18)
(14.5206 -0.854999 -7.36677e-21)
(14.4646 -0.698838 -6.37833e-19)
(13.9802 -0.512148 -1.14276e-19)
(13.4429 -0.35928 0)
(13.0584 -0.273298 0)
(12.8072 -0.225607 3.22017e-20)
(12.621 -0.192422 -3.24586e-20)
(12.4763 -0.166726 0)
(12.3647 -0.146106 -1.35168e-19)
(12.2794 -0.128164 1.38049e-19)
(12.2148 -0.112073 -1.27554e-19)
(12.1679 -0.0975672 1.3148e-19)
(12.1353 -0.0851277 -5.9239e-20)
(12.1107 -0.0753882 -2.87222e-20)
(12.0884 -0.0629203 -3.10479e-20)
(11.08 -0.682871 1.8099e-18)
(11.0781 -0.846028 1.89055e-18)
(11.0552 -1.03953 0)
(11.0004 -1.27132 1.98282e-18)
(10.9027 -1.53866 1.97438e-18)
(10.7459 -1.83911 -8.29105e-18)
(10.5164 -2.18082 4.37861e-18)
(10.1547 -2.55733 0)
(9.4811 -2.84886 2.79532e-18)
(8.38497 -2.89062 1.12426e-18)
(7.04758 -2.71536 -8.29312e-19)
(5.77236 -2.49263 2.48354e-19)
(4.7561 -2.34689 6.86732e-19)
(4.03176 -2.3195 0)
(3.50102 -2.36454 -1.52842e-20)
(3.23956 -2.29766 1.48779e-20)
(3.37865 -1.99692 2.75492e-18)
(4.04408 -1.43263 -5.16004e-18)
(5.12055 -0.76235 7.05615e-18)
(6.49034 -0.0758079 -5.69549e-20)
(7.98245 0.530378 3.04605e-20)
(9.42956 0.964805 2.36591e-20)
(10.7046 1.15979 -5.11684e-20)
(11.7808 1.05749 0)
(12.7665 0.739317 -6.24746e-18)
(13.6738 0.328116 6.20788e-19)
(14.2977 0.0276898 0)
(14.4303 -0.0792595 0)
(13.9709 -0.0742182 1.94482e-19)
(13.4426 -0.0298149 2.82249e-19)
(13.0397 -0.0211676 -1.06663e-19)
(12.786 -0.0299748 -3.02952e-19)
(12.6065 -0.0391836 -8.48854e-20)
(12.4702 -0.0456273 8.60137e-20)
(12.3646 -0.0483069 0)
(12.2846 -0.0481888 -1.81023e-19)
(12.2236 -0.0458076 -3.01426e-19)
(12.1789 -0.0423228 3.01002e-19)
(12.1487 -0.0391718 4.13895e-19)
(12.1277 -0.0366399 -2.80378e-19)
(12.1089 -0.0307598 9.97783e-20)
(10.9514 -0.618629 0)
(10.9288 -0.769657 1.96926e-18)
(10.885 -0.944731 4.01994e-18)
(10.8123 -1.15054 -3.92183e-18)
(10.6991 -1.3862 1.99931e-18)
(10.5277 -1.64732 1.97282e-18)
(10.2827 -1.93562 -3.29065e-18)
(9.93057 -2.25058 1.09083e-18)
(9.34454 -2.50832 0)
(8.38945 -2.53938 0)
(7.15088 -2.30262 0)
(5.88758 -1.93522 4.99743e-19)
(4.81959 -1.57834 -1.3988e-18)
(4.02997 -1.27752 -1.41232e-18)
(3.49487 -1.03221 -6.86473e-20)
(3.28187 -0.729525 6.70408e-20)
(3.48133 -0.20964 -2.71206e-18)
(4.13606 0.530194 9.68738e-18)
(5.14962 1.2943 0)
(6.45047 1.99174 1.42621e-17)
(7.83524 2.53134 -1.13254e-19)
(9.1684 2.82341 2.51027e-17)
(10.2989 2.82334 -1.02032e-17)
(11.2415 2.51209 7.47604e-18)
(12.1447 2.00383 1.21664e-18)
(13.0725 1.39205 4.07585e-18)
(13.8399 0.869435 -7.61833e-20)
(14.1265 0.539586 5.6494e-20)
(13.8358 0.358291 -2.77832e-21)
(13.3609 0.280621 5.2662e-19)
(12.9615 0.21099 1.05661e-19)
(12.7192 0.145495 -2.00751e-19)
(12.5565 0.0959532 0)
(12.4351 0.0603731 -6.27266e-19)
(12.3405 0.0370192 1.56496e-20)
(12.2693 0.021315 8.69254e-19)
(12.2148 0.0117593 -3.52381e-19)
(12.174 0.00595961 -2.97494e-19)
(12.1464 0.00176229 4.63187e-19)
(12.1289 -0.00166636 1.24545e-19)
(12.1154 -0.00219076 -3.64261e-19)
(10.8317 -0.539797 0)
(10.7958 -0.677141 -3.88948e-18)
(10.7364 -0.832886 1.9282e-18)
(10.6474 -1.01371 -3.91536e-18)
(10.5183 -1.21814 -1.09003e-19)
(10.3332 -1.44005 2.03208e-18)
(10.076 -1.67646 0)
(9.72652 -1.92728 0)
(9.20653 -2.14111 0)
(8.39173 -2.16837 -1.1575e-18)
(7.28978 -1.90587 1.10331e-18)
(6.09063 -1.43249 -5.49548e-19)
(5.01147 -0.88838 -9.15629e-19)
(4.16886 -0.345913 1.37709e-18)
(3.5974 0.197933 7.60898e-19)
(3.41119 0.791348 -1.68152e-19)
(3.60856 1.52545 1.63151e-19)
(4.21535 2.38695 -4.61388e-18)
(5.17386 3.1864 0)
(6.39453 3.85282 -1.41504e-17)
(7.64788 4.29404 2.00201e-19)
(8.82622 4.39639 -2.49236e-17)
(9.7951 4.18754 9.80363e-18)
(10.6056 3.67931 -1.37168e-18)
(11.4256 3.01581 4.94481e-18)
(12.3562 2.25064 2.16095e-18)
(13.2558 1.57127 -6.08878e-20)
(13.7192 1.08784 6.02921e-20)
(13.5816 0.755838 0)
(13.2016 0.552882 -2.34397e-18)
(12.8316 0.4096 -1.23682e-18)
(12.6165 0.290557 5.04384e-19)
(12.4772 0.206382 -3.67524e-20)
(12.3768 0.146086 6.88603e-19)
(12.2976 0.10528 4.08026e-19)
(12.2383 0.0766136 -4.17636e-19)
(12.1929 0.0572272 3.47172e-19)
(12.1579 0.0440071 -2.00921e-19)
(12.133 0.0340956 -6.43735e-19)
(12.1178 0.0259176 3.21175e-19)
(12.1083 0.0204034 5.70849e-19)
(10.721 -0.448344 3.61845e-18)
(10.6726 -0.570126 0)
(10.6016 -0.705181 3.74472e-18)
(10.5007 -0.859418 -3.81798e-18)
(10.3589 -1.03118 -3.94624e-18)
(10.1627 -1.21455 4.07731e-18)
(9.89765 -1.40199 -4.22262e-18)
(9.54989 -1.58887 2.24494e-18)
(9.07773 -1.74891 -4.42887e-18)
(8.38783 -1.77107 -1.14188e-18)
(7.44163 -1.51642 2.21728e-18)
(6.35221 -0.987011 -5.17218e-19)
(5.31023 -0.302773 8.97456e-19)
(4.45872 0.435694 0)
(3.86733 1.21872 3.14602e-20)
(3.65881 2.06349 0)
(3.8354 2.97922 3.71111e-19)
(4.39424 3.9107 -3.59288e-19)
(5.28226 4.69912 0)
(6.3691 5.31768 -1.04218e-17)
(7.46043 5.63746 1.69364e-19)
(8.45142 5.53881 -8.02932e-20)
(9.25312 5.1538 -6.46629e-18)
(9.93913 4.50241 -5.73907e-18)
(10.6801 3.74105 -2.53435e-19)
(11.5921 2.87702 -1.9797e-18)
(12.5909 2.10348 -3.95975e-19)
(13.2294 1.51609 0)
(13.2331 1.07934 0)
(12.9788 0.769817 8.92488e-19)
(12.6634 0.563929 1.60971e-18)
(12.4861 0.399061 0)
(12.3762 0.288201 -6.82667e-19)
(12.3021 0.207961 -1.04742e-18)
(12.2426 0.153716 -4.79994e-19)
(12.1976 0.115241 -4.26743e-19)
(12.1632 0.0884554 3.84228e-19)
(12.1349 0.0701109 -3.34671e-19)
(12.1129 0.0565948 1.29567e-18)
(12.0981 0.0458056 -1.39746e-18)
(12.0896 0.0373206 7.61715e-19)
(10.6254 -0.34204 -3.33566e-18)
(10.5629 -0.445452 -6.988e-18)
(10.4797 -0.558481 -3.62614e-18)
(10.3679 -0.685781 0)
(10.2177 -0.825236 3.78714e-18)
(10.0164 -0.97083 -3.92613e-18)
(9.74991 -1.11214 8.12616e-18)
(9.40721 -1.23913 0)
(8.96959 -1.33725 2.18138e-18)
(8.38186 -1.33969 0)
(7.59255 -1.11218 0)
(6.64395 -0.587104 0)
(5.6902 0.164363 -8.73051e-19)
(4.87753 1.03699 0)
(4.3084 1.98253 -7.62218e-19)
(4.07543 2.9828 -1.90029e-19)
(4.21432 4.00412 -4.12417e-19)
(4.7153 4.9569 5.80824e-19)
(5.48801 5.70491 0)
(6.39828 6.26459 1.03283e-17)
(7.30733 6.41621 1.33547e-19)
(8.1012 6.18295 -1.30952e-19)
(8.73366 5.69692 1.16463e-17)
(9.29959 4.97791 -6.08785e-19)
(9.96176 4.18319 3.20136e-19)
(10.8359 3.26712 5.43458e-20)
(11.8964 2.45873 3.51416e-19)
(12.6947 1.8089 0)
(12.8217 1.31457 4.55059e-19)
(12.7133 0.919714 1.5653e-18)
(12.4678 0.668574 -1.80542e-18)
(12.3365 0.46821 2.29439e-18)
(12.2618 0.338526 1.91566e-18)
(12.2182 0.243984 1.08626e-18)
(12.1819 0.180831 -5.10645e-20)
(12.1521 0.136672 4.3463e-19)
(12.1287 0.106097 -2.47319e-20)
(12.1082 0.0850396 2.85768e-19)
(12.0903 0.0696866 -1.01603e-18)
(12.0759 0.0579457 -2.84885e-19)
(12.0662 0.0482396 -1.45128e-19)
(10.5497 -0.217089 -6.07926e-18)
(10.4741 -0.301203 0)
(10.3803 -0.392425 -6.08492e-20)
(10.2596 -0.494741 6.79128e-18)
(10.1028 -0.603722 3.68484e-18)
(9.90005 -0.711726 -1.11416e-17)
(9.63709 -0.807911 -3.96357e-18)
(9.30514 -0.879458 3.9666e-18)
(8.89335 -0.914815 2.03718e-18)
(8.38288 -0.881868 -2.10278e-18)
(7.73741 -0.677744 2.06567e-18)
(6.95387 -0.201303 0)
(6.12845 0.535678 8.62831e-19)
(5.39546 1.4574 1.0731e-18)
(4.87136 2.48208 -1.05201e-18)
(4.63784 3.55271 3.64513e-19)
(4.73623 4.59938 0)
(5.14155 5.52274 2.52688e-18)
(5.75854 6.20139 -3.57982e-19)
(6.47166 6.64223 -1.16995e-19)
(7.19634 6.63556 9.56134e-21)
(7.81619 6.39569 5.26111e-18)
(8.2814 5.88359 -5.08391e-18)
(8.72649 5.15611 1.91778e-19)
(9.30253 4.37711 0)
(10.1232 3.43951 -4.04942e-19)
(11.2033 2.64621 4.00264e-19)
(12.1534 1.95962 0)
(12.3798 1.45373 0)
(12.4236 0.997379 -2.0674e-18)
(12.2558 0.723346 3.00014e-18)
(12.1772 0.496102 7.64951e-20)
(12.1422 0.356607 -3.65544e-18)
(12.1308 0.25318 -1.23124e-18)
(12.1189 0.187582 4.76193e-19)
(12.1044 0.141821 -4.86415e-19)
(12.0924 0.111046 0)
(12.0814 0.0891118 -3.09682e-19)
(12.0697 0.0737979 6.49272e-19)
(12.0572 0.0626494 -2.27095e-19)
(12.0459 0.0535099 1.23336e-18)
(10.5029 -0.0763204 1.15791e-19)
(10.4153 -0.14267 -2.91183e-18)
(10.3109 -0.212797 6.33444e-18)
(10.1827 -0.288941 -9.52372e-18)
(10.0197 -0.364814 0)
(9.81587 -0.434643 3.54534e-18)
(9.55837 -0.488138 7.44323e-18)
(9.24197 -0.510647 -7.55603e-18)
(8.85551 -0.491276 1.96559e-18)
(8.40366 -0.412522 -3.90824e-18)
(7.86979 -0.210715 0)
(7.25255 0.206978 0)
(6.58317 0.86984 -7.93699e-19)
(5.97181 1.74781 2.07992e-19)
(5.51923 2.76313 1.03176e-18)
(5.29343 3.83013 1.98231e-19)
(5.33846 4.83809 2.9483e-19)
(5.61898 5.69203 -3.07457e-18)
(6.06916 6.27894 3.30188e-18)
(6.58621 6.67651 -3.49308e-19)
(7.12392 6.62475 -8.04175e-20)
(7.5927 6.33035 -1.35992e-18)
(7.90468 5.82754 -2.2924e-18)
(8.22236 5.11898 1.84771e-19)
(8.68945 4.36978 3.03874e-20)
(9.46108 3.41821 2.57054e-18)
(10.5299 2.68379 7.06123e-19)
(11.6432 1.9685 0)
(11.9418 1.49727 -1.62813e-18)
(12.1271 1.00384 1.35004e-18)
(12.0395 0.730688 1.75496e-19)
(12.016 0.481451 1.06187e-18)
(12.0244 0.3448 2.35494e-18)
(12.0442 0.23621 1.258e-18)
(12.057 0.176658 0)
(12.0602 0.13093 7.79818e-19)
(12.06 0.104237 -7.98712e-19)
(12.0584 0.0835059 -5.91142e-19)
(12.0537 0.0711776 0)
(12.0451 0.0620529 -1.93277e-19)
(12.0344 0.0552839 1.4105e-19)
(10.4828 0.0931083 5.35717e-18)
(10.3845 0.0446926 -2.48036e-18)
(10.2712 -0.00451678 0)
(10.1331 -0.0538153 2.86237e-18)
(9.96826 -0.101198 2.99148e-18)
(9.76435 -0.135988 0)
(9.51777 -0.1532 0)
(9.2208 -0.136377 0)
(8.86116 -0.0729429 0)
(8.46345 0.0469069 0)
(7.99934 0.279552 0)
(7.52032 0.656459 -2.09516e-19)
(6.98096 1.23766 1.16146e-18)
(6.51216 2.00251 -1.25716e-18)
(6.13768 2.93508 5.6059e-19)
(5.92989 3.92028 -1.07167e-18)
(5.93364 4.82783 -6.23998e-19)
(6.09533 5.58223 -2.1138e-19)
(6.41201 6.07977 -1.68774e-18)
(6.75553 6.41268 -2.83551e-19)
(7.11632 6.39643 0)
(7.42147 6.10923 -1.29168e-18)
(7.5855 5.6423 2.28483e-18)
(7.75442 4.96154 1.34864e-18)
(8.08505 4.21356 -1.12902e-18)
(8.84541 3.21333 3.2586e-18)
(9.89119 2.58108 1.10161e-20)
(11.1948 1.83694 -1.0216e-18)
(11.5363 1.45002 3.09625e-18)
(11.8424 0.941743 -2.8056e-18)
(11.8275 0.69606 -2.35466e-18)
(11.859 0.420556 -1.95469e-18)
(11.9133 0.307964 7.89781e-19)
(11.9674 0.193387 6.98016e-19)
(12.0051 0.150915 0)
(12.0283 0.105558 0)
(12.0378 0.0891001 0)
(12.0434 0.0715013 4.60063e-19)
(12.0446 0.0653083 0)
(12.0406 0.0591348 1.95335e-19)
(12.0339 0.0567562 -1.44239e-19)
(10.5209 0.255452 4.13849e-18)
(10.4068 0.237614 -4.86331e-18)
(10.3002 0.198198 -2.63922e-19)
(10.1584 0.183452 -5.5425e-18)
(9.99081 0.159145 5.2706e-18)
(9.80053 0.160217 -6.0067e-18)
(9.54227 0.184522 1.22922e-17)
(9.28171 0.229856 -6.2772e-18)
(8.92319 0.355243 -3.34338e-18)
(8.6057 0.492241 3.33197e-18)
(8.16091 0.802514 0)
(7.80512 1.13503 2.08144e-19)
(7.32559 1.70157 -3.70574e-19)
(6.96515 2.3002 0)
(6.64188 3.12427 0)
(6.46493 3.9386 1.18242e-19)
(6.46507 4.70388 2.66878e-19)
(6.53426 5.36262 -1.11314e-18)
(6.73896 5.78217 -1.54906e-18)
(6.92176 6.1177 0)
(7.12732 6.07646 0)
(7.27862 5.86988 -4.62815e-18)
(7.28532 5.43216 0)
(7.281 4.77414 -3.94451e-18)
(7.53618 3.98741 1.68116e-18)
(8.30758 2.8382 -6.13921e-18)
(9.29223 2.34505 0)
(10.8349 1.56794 0)
(11.15 1.30191 0)
(11.5829 0.808804 3.22476e-18)
(11.6253 0.621661 0)
(11.7185 0.306932 0)
(11.805 0.243053 -3.09223e-18)
(11.913 0.12313 9.46942e-19)
(11.9612 0.108075 -2.4377e-18)
(12.0123 0.0698236 9.08705e-19)
(12.0264 0.0668538 0)
(12.0395 0.0560376 -4.12281e-20)
(12.0438 0.057278 -1.42431e-19)
(12.0433 0.05665 -1.48955e-19)
(12.0411 0.0585604 -7.78328e-20)
(12.033 0.0599154 -5.12329e-20)
(12.0253 0.0522844 2.96631e-19)
(12.0245 0.0475295 -6.41125e-19)
(12.0379 0.044644 -5.98142e-19)
(12.0603 0.0401984 -3.54082e-20)
(12.0826 0.0321499 6.5856e-19)
(12.0982 0.0199243 -2.40757e-18)
(12.1021 0.00318823 6.91547e-19)
(12.0929 -0.0177846 3.26192e-19)
(12.073 -0.0406171 -3.12799e-19)
(12.0425 -0.0617952 -5.76504e-19)
(12.0035 -0.0791345 3.67035e-20)
(11.9591 -0.0892461 9.4532e-20)
(11.9056 -0.0826834 4.16937e-19)
(11.8125 -0.0627349 -1.80974e-19)
(11.4841 0.0555687 -4.20886e-19)
(10.3989 -0.0214042 0)
(12.025 0.062389 0)
(12.0147 0.0528213 1.25174e-19)
(12.014 0.0452079 0)
(12.0276 0.0412879 0)
(12.0478 0.0381451 5.49655e-19)
(12.0666 0.0332929 0)
(12.0816 0.0259428 1.1215e-18)
(12.0912 0.0149072 -3.66099e-19)
(12.0931 0.000472401 -7.28867e-19)
(12.0864 -0.0164134 3.59215e-19)
(12.0723 -0.0345798 3.31913e-19)
(12.0517 -0.0529513 -9.33232e-19)
(12.0242 -0.0672901 -2.76473e-19)
(11.9836 -0.0804486 2.59137e-19)
(11.894 -0.0781047 4.67145e-19)
(11.5657 -0.033219 3.32711e-19)
(10.3842 -0.0512185 2.834e-19)
(12.0108 0.0659903 0)
(12.004 0.0535647 -1.48994e-20)
(12.0055 0.0431066 -5.201e-20)
(12.0192 0.0371016 -4.15935e-19)
(12.0371 0.0333513 -1.16167e-18)
(12.053 0.0295528 0)
(12.0664 0.0248783 0)
(12.0779 0.0176976 0)
(12.0858 0.00763286 4.07767e-19)
(12.0875 -0.00488479 -3.87514e-19)
(12.0837 -0.0182301 -1.339e-21)
(12.0735 -0.0314493 3.63072e-19)
(12.0556 -0.0426809 -3.40332e-19)
(12.0212 -0.0500952 -6.13669e-19)
(11.9262 -0.0526304 -5.43884e-19)
(11.5601 -0.0203718 -5.32222e-19)
(10.351 -0.0386797 -7.73634e-19)
(11.9988 0.0691078 1.33822e-19)
(11.9936 0.0562689 -1.24907e-19)
(11.9976 0.0429128 -1.71743e-19)
(12.0101 0.035084 4.73084e-19)
(12.0252 0.0302918 6.09652e-19)
(12.0392 0.0265854 6.67046e-19)
(12.0526 0.0232648 -7.14018e-19)
(12.0658 0.0187418 -4.16906e-19)
(12.0781 0.012086 8.22236e-19)
(12.0869 0.00333841 0)
(12.0899 -0.00693729 0)
(12.0881 -0.0180793 0)
(12.0787 -0.029464 3.95384e-19)
(12.0493 -0.0382199 -3.75035e-19)
(11.9494 -0.0432291 0)
(11.5515 -0.0204713 2.87975e-19)
(10.3261 -0.030592 5.18838e-19)
(11.9814 0.074959 -1.32596e-19)
(11.9832 0.0599204 1.95327e-20)
(11.9895 0.0440935 2.13898e-19)
(12.0003 0.0342089 -1.64158e-19)
(12.0127 0.0278436 1.47515e-19)
(12.0256 0.0235548 -5.03775e-19)
(12.0394 0.0205547 4.03738e-19)
(12.0542 0.0174213 4.30508e-19)
(12.0691 0.0132515 -8.95555e-19)
(12.0823 0.0073745 4.38313e-19)
(12.0905 0.000162125 4.46682e-19)
(12.0919 -0.00796364 0)
(12.0877 -0.0166929 4.46658e-19)
(12.0628 -0.0242115 -4.29556e-19)
(11.9553 -0.028918 -2.07784e-19)
(11.5219 -0.0114022 1.90113e-19)
(10.299 -0.0226107 0)
(11.9667 0.0806326 7.63553e-20)
(11.9714 0.0653495 -3.59975e-21)
(11.9796 0.0473081 -1.38026e-20)
(11.9893 0.0350108 1.27555e-19)
(11.9997 0.0270008 -3.5183e-19)
(12.0118 0.0215951 4.20685e-19)
(12.0261 0.0181485 0)
(12.0421 0.0153784 -5.99458e-19)
(12.059 0.0124346 6.38195e-19)
(12.075 0.00867749 -4.95644e-19)
(12.0869 0.00395515 -9.78096e-19)
(12.0921 -0.00187698 -2.51279e-19)
(12.0903 -0.0082701 4.81644e-19)
(12.0682 -0.0146593 1.22222e-18)
(11.9461 -0.0174475 9.53684e-19)
(11.48 -0.00453751 0)
(10.2685 -0.0144764 4.45771e-19)
(11.9494 0.0891452 1.38536e-20)
(11.9579 0.0722511 -1.41676e-20)
(11.9669 0.0527306 8.63077e-20)
(11.9765 0.0382198 -9.62744e-20)
(11.986 0.0281864 2.5489e-19)
(11.9976 0.0210246 -3.72224e-19)
(12.0121 0.0163347 -9.2017e-20)
(12.0289 0.0131728 5.17575e-19)
(12.047 0.0106619 -5.92225e-20)
(12.0647 0.00817355 4.43691e-19)
(12.0793 0.00521088 9.95029e-19)
(12.0879 0.00159745 -4.93398e-19)
(12.0896 -0.00266165 -1.06771e-18)
(12.066 -0.00712516 -2.36914e-20)
(11.9206 -0.00739068 -5.41097e-19)
(11.4317 0.00151463 0)
(10.2369 -0.00622083 -8.19088e-21)
(11.9341 0.0979508 -7.31633e-20)
(11.9423 0.080627 -4.03546e-21)
(11.9511 0.0605459 -4.84408e-20)
(11.9609 0.0440811 1.69526e-20)
(11.9708 0.0318303 5.2475e-20)
(11.9823 0.0225158 -5.2989e-20)
(11.9967 0.0160946 -2.78721e-19)
(12.0138 0.0117954 9.68734e-20)
(12.0326 0.0086624 -1.63932e-19)
(12.0514 0.00634322 -6.48844e-20)
(12.0675 0.00431801 -5.17932e-19)
(12.0779 0.00220715 4.11154e-19)
(12.0787 -0.000562163 2.75915e-19)
(12.0561 -0.00348219 -2.73343e-19)
(11.8848 -0.00244244 3.72735e-21)
(11.3866 0.00533395 -1.40849e-19)
(10.21 0.00161199 -5.76739e-19)
(11.9169 0.109935 1.12569e-19)
(11.9251 0.0905169 4.4969e-21)
(11.9331 0.0701221 6.06626e-20)
(11.9425 0.052191 1.18799e-19)
(11.9528 0.0384985 -1.41925e-19)
(11.9648 0.027267 6.24551e-21)
(11.9792 0.0185971 2.69497e-19)
(11.9962 0.0121647 0)
(12.0152 0.00771138 -2.35636e-19)
(12.0344 0.00470506 -5.06976e-19)
(12.0511 0.00258091 5.4939e-20)
(12.0612 0.00105309 0)
(12.0598 -0.000702713 2.42809e-19)
(12.0382 -0.00301218 2.86512e-19)
(11.8535 -0.00162646 0)
(11.3522 0.00659847 0)
(10.195 0.00696569 0)
(11.8997 0.122167 -1.5225e-21)
(11.9063 0.101935 -7.17837e-21)
(11.9133 0.0813823 -9.16535e-20)
(11.9218 0.0628265 1.39285e-19)
(11.9317 0.0478452 1.77419e-19)
(11.9439 0.0348875 -3.70674e-21)
(11.9583 0.0245219 8.03415e-21)
(11.9752 0.0163869 1.39481e-19)
(11.9941 0.0100055 -1.81778e-19)
(12.0135 0.00509299 0)
(12.0304 0.00174257 0)
(12.0402 -0.000205512 -2.8881e-20)
(12.0367 -0.00193512 -2.89844e-19)
(12.0088 -0.00411546 -3.35511e-21)
(11.8366 -0.00262542 6.49495e-20)
(11.3358 0.00586654 0)
(10.1954 0.00879745 0)
(11.8808 0.137337 0)
(11.8862 0.114941 0)
(11.8919 0.0944257 3.46884e-20)
(11.8994 0.0751633 -1.53655e-19)
(11.9086 0.0591977 5.49159e-21)
(11.92 0.0452103 0)
(11.9339 0.0335139 0)
(11.9501 0.0236527 -1.69388e-19)
(11.9685 0.0155075 1.92449e-20)
(11.9879 0.00905418 -2.26148e-20)
(12.0053 0.00432969 2.27217e-20)
(12.0155 0.00108679 0)
(12.0105 -0.00168456 1.72893e-21)
(11.9746 -0.00407531 -1.73363e-21)
(11.8319 -0.00269654 2.26714e-19)
(11.3382 0.00434516 8.13373e-21)
(10.2144 0.00627893 -8.16148e-21)
(11.8606 0.152501 0)
(11.8646 0.12957 6.34746e-20)
(11.869 0.109007 7.09126e-20)
(11.8754 0.0889073 0)
(11.8836 0.0718908 0)
(11.894 0.0569837 -1.6093e-19)
(11.9068 0.0442755 -3.1957e-21)
(11.9218 0.0331545 1.45374e-19)
(11.939 0.0237215 7.97143e-20)
(11.9577 0.0159635 1.68917e-19)
(11.9754 0.00969201 -4.35863e-20)
(11.9867 0.00485708 0)
(11.9841 0.00102756 -2.15103e-19)
(11.9578 -0.00192032 2.51883e-20)
(11.8258 -0.000935247 -2.15267e-19)
(11.3544 0.00429291 2.02638e-19)
(10.2533 0.00156977 2.14384e-19)
(11.8389 0.170985 0)
(11.8415 0.145922 -7.10701e-20)
(11.8446 0.124874 -2.80648e-20)
(11.8498 0.103908 -1.07034e-19)
(11.8567 0.085839 -1.42815e-19)
(11.866 0.069776 1.31898e-19)
(11.8775 0.0558839 -1.52598e-19)
(11.8912 0.0435529 -1.50734e-19)
(11.9067 0.0328477 1.60783e-19)
(11.9242 0.0237977 -3.32265e-19)
(11.942 0.0162632 -1.68596e-19)
(11.9555 0.0102413 0)
(11.9564 0.00523861 1.8848e-19)
(11.934 0.000969849 0)
(11.821 0.000280755 -2.42155e-20)
(11.3775 0.00444543 -1.23341e-20)
(10.31 -0.00506674 -1.09489e-19)
(11.8153 0.188783 0)
(11.8166 0.16361 -1.60451e-19)
(11.8183 0.142446 0)
(11.822 0.120792 1.38669e-19)
(11.8275 0.101528 2.27674e-19)
(11.8353 0.0838173 -8.01333e-20)
(11.8454 0.068435 5.44636e-20)
(11.8576 0.0550257 1.12306e-21)
(11.8715 0.0432873 -6.4171e-20)
(11.8874 0.0329008 1.6346e-19)
(11.9048 0.0236557 3.38999e-19)
(11.9202 0.0158233 0)
(11.9249 0.00937347 0)
(11.9023 0.00325897 0)
(11.8141 -7.65787e-06 8.21549e-20)
(11.4046 0.000898309 -1.57586e-19)
(10.3785 -0.0126653 -1.8756e-19)
(11.7894 0.211579 1.99426e-19)
(11.7893 0.184277 1.05488e-19)
(11.7895 0.162383 -2.02599e-19)
(11.7916 0.139983 8.61036e-20)
(11.7954 0.119644 -1.02858e-19)
(11.8013 0.100322 1.19003e-19)
(11.8096 0.0831453 3.81605e-19)
(11.82 0.0681918 -5.02232e-19)
(11.8322 0.0549783 1.48472e-20)
(11.8463 0.042927 -1.81226e-19)
(11.8626 0.0318298 -7.73058e-20)
(11.8789 0.0222394 2.6685e-19)
(11.8871 0.0142535 -8.34265e-20)
(11.8706 0.00599988 -7.86925e-20)
(11.7962 -0.000310453 -4.40344e-22)
(11.4336 -0.00277121 0)
(10.4498 -0.0183506 7.38719e-20)
(11.7611 0.232657 2.30855e-20)
(11.7596 0.205979 -3.09652e-19)
(11.7581 0.184198 2.75238e-19)
(11.7583 0.161391 1.26388e-19)
(11.76 0.140329 -4.12397e-19)
(11.7638 0.119786 4.18492e-19)
(11.7697 0.100786 -4.14124e-19)
(11.7777 0.0839839 5.09266e-19)
(11.7877 0.0692386 -1.01023e-19)
(11.7995 0.0554583 2.25601e-19)
(11.8137 0.0423406 -2.20606e-19)
(11.8296 0.031124 -9.21554e-20)
(11.8409 0.0204703 0)
(11.8304 0.00876956 8.77359e-20)
(11.7649 0.00338608 -1.0524e-19)
(11.4562 -0.00626565 -1.75667e-19)
(10.5164 -0.0212956 -8.36039e-20)
(11.7298 0.260028 0)
(11.7266 0.231432 -2.82827e-20)
(11.7233 0.208653 3.94494e-19)
(11.7216 0.185196 -2.1146e-19)
(11.721 0.163616 3.63385e-19)
(11.7223 0.142457 -3.50325e-19)
(11.7254 0.122306 -4.98389e-20)
(11.7306 0.103333 -1.44381e-19)
(11.7377 0.0862535 -3.26057e-19)
(11.7468 0.0705042 1.804e-19)
(11.7579 0.0556206 1.72474e-19)
(11.7714 0.0425882 4.29909e-19)
(11.7843 0.028195 -2.58556e-19)
(11.7816 0.0139582 0)
(11.7294 0.0118504 -1.21799e-20)