/*--------------------------------*- C++ -*----------------------------------*\
  =========                 |
  \\      /  F ield         | OpenFOAM: The Open Source CFD Toolbox
   \\    /   O peration     | Website:  https://openfoam.org
    \\  /    A nd           | Version:  6
     \\/     M anipulation  |
\*---------------------------------------------------------------------------*/
FoamFile
{
    version     2.0;
    format      ascii;
    class       surfaceScalarField;
    location    "2.52";
    object      phi;
}
// * * * * * * * * * * * * * * * * * * * * * * * * * * * * * * * * * * * * * //

dimensions      [0 3 -1 0 0 0 0];

internalField   nonuniform List<scalar> 
8193
(
0.0861071
-0.180874
-0.0880895
0.0820701
-0.182879
0.0776513
-0.18339
0.0732702
-0.183533
0.0691514
-0.183931
0.0653221
-0.184534
0.0617236
-0.185127
0.0583065
-0.185549
0.0550367
-0.185683
0.0518679
-0.185468
0.0487408
-0.184882
0.0456403
-0.183962
0.0425706
-0.182874
0.0396127
-0.181983
0.0368017
-0.181779
0.0340092
-0.182625
0.0307466
-0.184196
0.0263144
-0.184811
0.0203519
-0.18206
0.0126926
-0.171505
0.00483898
-0.156293
-0.00213907
-0.153442
-0.00858343
-0.163117
-0.0147828
-0.170337
-0.0205487
-0.171635
-0.0259129
-0.171471
-0.0310799
-0.172092
-0.0361584
-0.173553
-0.04116
-0.175291
-0.0460633
-0.176937
-0.0508567
-0.17835
-0.0555156
-0.179513
-0.0600185
-0.180431
-0.0643527
-0.181106
-0.0685283
-0.181554
-0.0725941
-0.181832
-0.0766125
-0.182008
-0.0805874
-0.182195
-0.0843695
-0.182424
-0.0875047
-0.18222
-0.180289
-0.0884723
0.0806554
-0.177884
-0.0904539
0.069825
-0.178025
0.0596343
-0.178285
0.0505084
-0.178574
0.0425936
-0.179258
0.0359172
-0.180187
0.0304725
-0.181133
0.0262324
-0.181926
0.0231422
-0.182436
0.0210918
-0.182553
0.0199371
-0.18223
0.0195493
-0.181521
0.0198344
-0.180629
0.0206769
-0.179899
0.0218584
-0.179718
0.0228715
-0.180157
0.0227824
-0.180462
0.0207924
-0.179087
0.0164339
-0.173948
0.0103637
-0.161728
0.00471729
-0.147053
0.000510911
-0.145817
-0.00389593
-0.155527
-0.00877564
-0.162568
-0.0137723
-0.1641
-0.0186912
-0.16442
-0.0236534
-0.165458
-0.0286896
-0.167356
-0.033733
-0.169647
-0.0387014
-0.171973
-0.04352
-0.174183
-0.0481372
-0.176231
-0.0525314
-0.178083
-0.0567228
-0.179693
-0.0607833
-0.181013
-0.0648667
-0.182008
-0.0691928
-0.182663
-0.0740257
-0.183031
-0.0797255
-0.183029
-0.0864728
-0.182341
-0.181032
-0.093068
0.064433
-0.171861
-0.0814228
0.0484216
-0.171678
0.0339293
-0.172077
0.0213531
-0.172859
0.010837
-0.174173
0.00245817
-0.175831
-0.00375132
-0.177586
-0.00782995
-0.179217
-0.00990116
-0.180525
-0.0101509
-0.181353
-0.00880436
-0.18162
-0.0061032
-0.181373
-0.00230578
-0.180799
0.00225043
-0.180166
0.00705856
-0.17969
0.0113287
-0.179158
0.0138443
-0.177386
0.0139819
-0.173417
0.0114954
-0.165542
0.00771623
-0.152019
0.00464281
-0.138137
0.00295149
-0.138468
0.000456525
-0.147652
-0.00306117
-0.154042
-0.00706724
-0.155549
-0.0113417
-0.156156
-0.0159142
-0.157542
-0.02076
-0.159902
-0.0257556
-0.162867
-0.0307558
-0.166097
-0.0356365
-0.169415
-0.0403145
-0.172729
-0.0447428
-0.17596
-0.048937
-0.178988
-0.0529875
-0.181675
-0.0570742
-0.183879
-0.0614661
-0.185477
-0.0665362
-0.186392
-0.0727468
-0.186424
-0.0805325
-0.185253
-0.183142
-0.0900986
0.0412856
-0.164363
-0.0633842
0.0212789
-0.164488
0.00351608
-0.165266
-0.0114761
-0.166916
-0.023495
-0.169304
-0.0324705
-0.172145
-0.038422
-0.175131
-0.0414678
-0.177968
-0.0418047
-0.180399
-0.0396939
-0.182215
-0.0354496
-0.183294
-0.0294441
-0.183629
-0.0221362
-0.183327
-0.0141222
-0.182516
-0.00620514
-0.181205
0.000614888
-0.178982
0.00515354
-0.174473
0.00691887
-0.167412
0.00616699
-0.156832
0.00458188
-0.142417
0.00426708
-0.129872
0.00499485
-0.131434
0.00451417
-0.139721
0.00249066
-0.145
-0.000374539
-0.146219
-0.00380555
-0.146935
-0.0077861
-0.148568
-0.0122613
-0.151353
-0.0170755
-0.15502
-0.0220439
-0.159257
-0.0270001
-0.163863
-0.0318218
-0.168698
-0.0364415
-0.173618
-0.040851
-0.178432
-0.0451269
-0.182901
-0.0494406
-0.186768
-0.0540658
-0.189782
-0.0593933
-0.19172
-0.065879
-0.192283
-0.0739798
-0.191113
-0.188253
-0.084328
0.0112455
-0.155992
-0.0372416
-0.0117621
-0.156856
-0.0314906
-0.158591
-0.0475224
-0.161595
-0.0597425
-0.165473
-0.0681577
-0.169859
-0.0728758
-0.174376
-0.0740911
-0.178671
-0.072066
-0.182436
-0.0671311
-0.185412
-0.0597106
-0.187393
-0.0503627
-0.188245
-0.039807
-0.187913
-0.0289119
-0.186379
-0.0186587
-0.183535
-0.0100455
-0.178948
-0.00401162
-0.1713
-0.000781007
-0.161032
0.000174535
-0.147929
0.000938794
-0.133223
0.00350758
-0.122529
0.00665725
-0.124863
0.0081286
-0.131806
0.00770249
-0.135665
0.00619389
-0.136423
0.00384122
-0.137063
0.000693658
-0.138816
-0.00318146
-0.141938
-0.00761779
-0.146257
-0.0124044
-0.151506
-0.017349
-0.157465
-0.0223022
-0.163943
-0.0271693
-0.170734
-0.0319199
-0.177572
-0.0365994
-0.184123
-0.0413442
-0.19002
-0.046392
-0.194882
-0.0520947
-0.198341
-0.0588715
-0.199993
-0.0671665
-0.199412
-0.196414
-0.0776043
-0.0248781
-0.147517
-0.00357615
-0.0493522
-0.149682
-0.0694761
-0.153037
-0.0851139
-0.157797
-0.0962759
-0.163468
-0.103083
-0.169612
-0.105736
-0.175806
-0.10449
-0.18167
-0.0996559
-0.186858
-0.0916498
-0.191025
-0.0810503
-0.193809
-0.0686423
-0.194874
-0.055406
-0.193974
-0.0424053
-0.191003
-0.0305167
-0.186037
-0.0206555
-0.1786
-0.0135892
-0.167515
-0.00913175
-0.154172
-0.00637351
-0.139073
-0.00307051
-0.12478
0.00237148
-0.116255
0.00785244
-0.118818
0.0112293
-0.124006
0.0125245
-0.126292
0.0125545
-0.126455
0.0115194
-0.126865
0.00946464
-0.1286
0.00644811
-0.131932
0.00263508
-0.136799
-0.0017564
-0.142989
-0.00652442
-0.150262
-0.0115061
-0.158387
-0.0165874
-0.167102
-0.0217154
-0.176067
-0.0269061
-0.184865
-0.032253
-0.193029
-0.0379399
-0.200061
-0.044245
-0.205465
-0.0515099
-0.208736
-0.0601191
-0.20936
-0.206962
-0.0705997
-0.065571
-0.140315
0.0367412
-0.0895474
-0.144282
-0.108438
-0.149646
-0.122308
-0.156376
-0.131315
-0.163931
-0.135684
-0.171846
-0.135681
-0.17969
-0.131605
-0.187075
-0.123831
-0.1936
-0.112888
-0.198778
-0.099509
-0.202053
-0.0846394
-0.202879
-0.0693905
-0.200843
-0.0548139
-0.195898
-0.0417642
-0.18831
-0.0312642
-0.17743
-0.0236702
-0.162739
-0.0180079
-0.146952
-0.013268
-0.130598
-0.00729156
-0.117385
0.000862062
-0.111053
0.00841987
-0.113206
0.0136321
-0.116405
0.0168195
-0.117193
0.01859
-0.11664
0.0191113
-0.116679
0.0184091
-0.11825
0.0165324
-0.121654
0.0136276
-0.126929
0.00989941
-0.133925
0.00554736
-0.142398
0.000733697
-0.152076
-0.00442298
-0.162649
-0.00985472
-0.173717
-0.0155535
-0.184788
-0.0215752
-0.195311
-0.028045
-0.204692
-0.0351573
-0.212335
-0.0431694
-0.217633
-0.0523614
-0.220004
-0.218907
-0.0631292
-0.107878
-0.135719
0.0807232
-0.129547
-0.141819
-0.145799
-0.14925
-0.156841
-0.15789
-0.16294
-0.167187
-0.164387
-0.176687
-0.161495
-0.185969
-0.154624
-0.194626
-0.144237
-0.202166
-0.13096
-0.207956
-0.115571
-0.211293
-0.0989919
-0.211488
-0.0823297
-0.207944
-0.066572
-0.200727
-0.0528239
-0.18998
-0.0420395
-0.175196
-0.0339556
-0.157067
-0.0270512
-0.139556
-0.0201936
-0.122799
-0.0116198
-0.111129
-0.00110183
-0.106745
0.00824537
-0.107908
0.0152883
-0.109158
0.0204962
-0.108645
0.0241791
-0.107282
0.0264673
-0.106827
0.0273725
-0.108107
0.0269214
-0.111443
0.0252286
-0.116968
0.0224719
-0.124599
0.0188334
-0.134097
0.0144627
-0.145161
0.00947039
-0.157435
0.0039247
-0.17047
-0.00215318
-0.183713
-0.00878976
-0.196548
-0.0160608
-0.208307
-0.0240908
-0.218313
-0.0330488
-0.225878
-0.0431079
-0.230373
-0.231129
-0.0545211
-0.148186
-0.134766
0.124451
-0.166274
-0.142944
-0.178993
-0.1522
-0.186626
-0.162459
-0.189499
-0.173165
-0.187952
-0.183889
-0.182357
-0.194206
-0.173148
-0.203673
-0.160857
-0.211712
-0.146129
-0.217591
-0.129588
-0.220633
-0.11194
-0.220065
-0.0943357
-0.214847
-0.0778751
-0.205084
-0.063713
-0.190861
-0.0526483
-0.172017
-0.0439871
-0.150727
-0.0357752
-0.132207
-0.0268624
-0.115781
-0.0160027
-0.105872
-0.00361048
-0.103015
0.00725697
-0.102825
0.016158
-0.102459
0.0234583
-0.100876
0.0291952
-0.0986638
0.0334294
-0.0976099
0.0361673
-0.0984949
0.0374119
-0.101642
0.0372368
-0.107261
0.0357798
-0.115339
0.0331913
-0.125656
0.0295978
-0.137885
0.0250925
-0.151638
0.0197308
-0.166419
0.0135338
-0.181632
0.00648925
-0.196608
-0.00144668
-0.210628
-0.0103449
-0.222957
-0.020302
-0.232845
-0.0314032
-0.239635
-0.242583
-0.0437612
-0.183139
-0.137799
0.163834
-0.19708
-0.147643
-0.205952
-0.158316
-0.21008
-0.169759
-0.209834
-0.181414
-0.20561
-0.192857
-0.197846
-0.203654
-0.187027
-0.213333
-0.173668
-0.221299
-0.158283
-0.226836
-0.141201
-0.229449
-0.122999
-0.228121
-0.104908
-0.221152
-0.0881738
-0.208627
-0.0739385
-0.190724
-0.0626327
-0.167984
-0.053262
-0.143999
-0.0437507
-0.125056
-0.0331183
-0.109376
-0.0204605
-0.1013
-0.00672736
-0.0995044
0.00548718
-0.0979582
0.0162416
-0.0964713
0.0256519
-0.0940624
0.0335223
-0.0910126
0.0398333
-0.0892912
0.0445861
-0.0897069
0.047762
-0.0925708
0.0493891
-0.0981484
0.0495551
-0.106493
0.048368
-0.117409
0.0459227
-0.13056
0.0422853
-0.145529
0.0374897
-0.161783
0.0315444
-0.17869
0.0244367
-0.195546
0.0161373
-0.211594
0.00660634
-0.226061
-0.00420202
-0.238158
-0.0163164
-0.247206
-0.252442
-0.0297396
-0.210409
-0.144419
0.195746
-0.220186
-0.155409
-0.225344
-0.167023
-0.226245
-0.179148
-0.223296
-0.191223
-0.216953
-0.202807
-0.207693
-0.21347
-0.195983
-0.222768
-0.182215
-0.230202
-0.166645
-0.23519
-0.14953
-0.237245
-0.131457
-0.235018
-0.113491
-0.226324
-0.0970136
-0.210924
-0.0830415
-0.189352
-0.0715255
-0.163205
-0.0613937
-0.137086
-0.0507396
-0.118109
-0.0387824
-0.103361
-0.0250094
-0.0969064
-0.0104507
-0.095876
0.00305611
-0.0934295
0.0155788
-0.0912823
0.027054
-0.0883247
0.0370657
-0.0844901
0.0455223
-0.082079
0.0524161
-0.0819916
0.0577054
-0.0845138
0.0613734
-0.089945
0.0634545
-0.098397
0.064008
-0.109706
0.0630896
-0.123537
0.06073
-0.139445
0.0569348
-0.156872
0.0516909
-0.175159
0.044974
-0.193575
0.0367532
-0.211338
0.0269996
-0.227651
0.0156956
-0.241707
0.00284481
-0.252809
-0.260206
-0.011495
-0.228552
-0.153765
0.218208
-0.234554
-0.165404
-0.236458
-0.177489
-0.234662
-0.189797
-0.229601
-0.201767
-0.221758
-0.212942
-0.211607
-0.222925
-0.199542
-0.23137
-0.185803
-0.237946
-0.170512
-0.242195
-0.154064
-0.243359
-0.13689
-0.240052
-0.119703
-0.229798
-0.103944
-0.211626
-0.0904873
-0.186623
-0.0788043
-0.15778
-0.0680919
-0.129965
-0.0566117
-0.111216
-0.0437956
-0.0974402
-0.0296072
-0.0921664
-0.0145512
-0.0919785
3.63103e-05
-0.0892032
0.0141666
-0.0869037
0.0276041
-0.0837265
0.0396936
-0.0791906
0.0503131
-0.0761365
0.0594258
-0.0755582
0.0669531
-0.0777087
0.072842
-0.0829224
0.077079
-0.0913591
0.0796732
-0.102885
0.0806352
-0.11717
0.0799551
-0.133752
0.0776065
-0.152053
0.0735493
-0.171393
0.0677382
-0.191024
0.0601289
-0.210145
0.0506925
-0.227953
0.0394161
-0.243624
0.0263249
-0.256466
-0.265754
0.0115108
-0.236933
-0.164724
0.230238
-0.239813
-0.176606
-0.239145
-0.188736
-0.235331
-0.200794
-0.228805
-0.212224
-0.220042
-0.222558
-0.209485
-0.231454
-0.197497
-0.238668
-0.184316
-0.244001
-0.169958
-0.247227
-0.154734
-0.247293
-0.138984
-0.242779
-0.123233
-0.231021
-0.10855
-0.210496
-0.0958145
-0.182466
-0.084076
-0.151747
-0.0731469
-0.122428
-0.0612948
-0.104086
-0.048203
-0.091202
-0.034102
-0.0867513
-0.0189024
-0.0876336
-0.00347646
-0.0852118
0.0119835
-0.0832297
0.027118
-0.08017
0.0411565
-0.0751456
0.0539486
-0.0716246
0.0653381
-0.0706035
0.0751884
-0.0723647
0.0834216
-0.0773105
0.0899903
-0.0856405
0.094861
-0.0972414
0.0979989
-0.111788
0.099353
-0.128804
0.0988635
-0.1477
0.0964581
-0.167776
0.092067
-0.188276
0.0856263
-0.208388
0.0771038
-0.227316
0.0664729
-0.244215
0.0537839
-0.258433
-0.269258
0.0391398
-0.235602
-0.176094
0.231698
-0.236209
-0.187891
-0.233773
-0.199743
-0.228682
-0.211235
-0.221351
-0.221819
-0.212189
-0.231063
-0.20166
-0.238595
-0.190095
-0.244318
-0.177869
-0.248003
-0.164923
-0.249864
-0.151487
-0.24856
-0.137709
-0.24275
-0.123831
-0.229672
-0.110596
-0.20729
-0.0989375
-0.176668
-0.0873648
-0.145034
-0.0765821
-0.114272
-0.0649883
-0.0962539
-0.0521058
-0.0843298
-0.0383537
-0.080571
-0.0232484
-0.0827757
-0.00739033
-0.0812209
0.0091144
-0.0801455
0.0255423
-0.0774179
0.0413316
-0.0723181
0.0562451
-0.068646
0.0698982
-0.0672594
0.0820815
-0.0686253
0.0927063
-0.0732764
0.101703
-0.0814405
0.109003
-0.0930121
0.114531
-0.107666
0.118191
-0.124905
0.119894
-0.144148
0.119523
-0.164658
0.117003
-0.185711
0.112232
-0.20645
0.105198
-0.226147
0.0958314
-0.243872
0.0842439
-0.259117
-0.271071
0.0704818
-0.225182
-0.18656
0.22299
-0.224503
-0.198091
-0.221219
-0.209456
-0.215609
-0.220272
-0.208109
-0.229864
-0.198978
-0.238009
-0.188883
-0.24395
-0.17789
-0.248207
-0.166872
-0.249758
-0.155503
-0.250021
-0.144195
-0.246919
-0.132821
-0.239647
-0.121563
-0.225127
-0.109969
-0.201952
-0.0999704
-0.168789
-0.0888107
-0.137545
-0.078361
-0.105467
-0.0674632
-0.0874441
-0.0547776
-0.077001
-0.0416881
-0.0734788
-0.0269625
-0.0772875
-0.0114146
-0.0766563
0.00562831
-0.0773113
0.0229034
-0.0751885
0.04009
-0.0705153
0.0569647
-0.0671961
0.0727667
-0.0655599
0.0872178
-0.0665658
0.100215
-0.0709314
0.11166
-0.0788964
0.121454
-0.0903645
0.129492
-0.105009
0.135612
-0.122275
0.139721
-0.141654
0.141626
-0.162296
0.141318
-0.183652
0.138575
-0.204638
0.133524
-0.224849
0.125926
-0.24296
0.116121
-0.259012
-0.271615
0.10391
-0.206951
-0.194881
0.205351
-0.205972
-0.206135
-0.202746
-0.21692
-0.197287
-0.227214
-0.19031
-0.235675
-0.181571
-0.243067
-0.172338
-0.247144
-0.161914
-0.250412
-0.152347
-0.249112
-0.142375
-0.247981
-0.133605
-0.242074
-0.124303
-0.233925
-0.116709
-0.216477
-0.106256
-0.195121
-0.098645
-0.158248
-0.0880923
-0.129238
-0.0778756
-0.0962671
-0.0680846
-0.0774036
-0.0555015
-0.0694703
-0.044183
-0.0645281
-0.0297606
-0.0714082
-0.0150765
-0.071127
0.00197756
-0.0743621
0.0193587
-0.0729012
0.0375413
-0.0694943
0.0559346
-0.0669877
0.07347
-0.065241
0.0900463
-0.0661895
0.105351
-0.0703491
0.119245
-0.0781411
0.131517
-0.0894034
0.142057
-0.103918
0.150628
-0.121002
0.157227
-0.140377
0.16145
-0.160789
0.16358
-0.182364
0.162998
-0.203095
0.160344
-0.223816
0.154763
-0.241678
0.147378
-0.258669
-0.271193
0.137147
-0.182554
0.180493
-0.182036
-0.179746
-0.175007
-0.169153
-0.160995
-0.152883
-0.143355
-0.135118
-0.12685
-0.120353
-0.113133
-0.10857
-0.099627
-0.0941301
-0.0847289
-0.0753549
-0.0674971
-0.0555913
-0.0458709
-0.0315035
-0.01776
-0.00135597
0.0156662
0.0342846
0.0535257
0.0722732
0.0905909
0.107856
0.12393
0.138464
0.151338
0.162183
0.17115
0.177618
0.182192
0.183799
0.183666
0.180262
0.175473
0.167292
0.297752
0.149687
0.299946
0.12337
0.295272
0.0943148
0.283951
0.0650603
0.266798
0.0373865
0.245062
0.0125744
0.22015
-0.00854877
0.193419
-0.025737
0.166021
-0.0392755
0.138819
-0.0498162
0.112419
-0.058203
0.0872575
-0.0652993
0.0637368
-0.0717744
0.0424254
-0.0780348
0.0241455
-0.0837326
0.0106424
-0.0880291
-0.0825974
0.30265
0.130788
0.305011
0.108573
0.300717
0.0837314
0.290179
0.0584467
0.274178
0.0342064
0.253763
0.0120973
0.23011
-0.00712001
0.204399
-0.0231496
0.177675
-0.0361003
0.15077
-0.0463846
0.124299
-0.0546145
0.0987042
-0.0614855
0.0743505
-0.0676066
0.0516343
-0.073448
0.0311987
-0.0789553
0.0137217
-0.0833846
-0.0785986
0.305419
0.112435
0.307213
0.0938841
0.303069
0.072758
0.293299
0.0510043
0.278478
0.0299091
0.259444
0.0103532
0.237182
-0.00699539
0.21269
-0.0218066
0.186882
-0.0340691
0.160524
-0.0440209
0.134214
-0.0520859
0.108396
-0.0588002
0.0834214
-0.0646866
0.0596188
-0.0702078
0.0374268
-0.0754486
0.0172438
-0.0796633
-0.0752948
0.302364
0.0932898
0.304871
0.0783821
0.301561
0.0610498
0.292845
0.0427687
0.279351
0.0246588
0.261815
0.0075399
0.241067
-0.00796856
0.217955
-0.0215166
0.193277
-0.0330079
0.167721
-0.0425436
0.14184
-0.0503929
0.116056
-0.0569492
0.0907014
-0.0626423
0.0660455
-0.0678778
0.042457
-0.0728534
0.020196
-0.0767378
-0.0724821
0.296578
0.0748327
0.299175
0.0630063
0.296616
0.0489861
0.289069
0.0339098
0.277002
0.0186369
0.261033
0.0038728
0.241873
-0.009816
0.22025
-0.0220636
0.196848
-0.0327017
0.172277
-0.041729
0.147042
-0.0492934
0.121545
-0.0556648
0.0960945
-0.0611765
0.0709421
-0.0661709
0.0463546
-0.0708671
0.0225443
-0.0743892
-0.0699825
0.285553
0.0564968
0.288968
0.047295
0.287629
0.0363518
0.281614
0.0243079
0.271266
0.0117902
0.25709
-0.000626632
0.23969
-0.0124478
0.219695
-0.0233009
0.197711
-0.0329708
0.17429
-0.0413787
0.149901
-0.0485672
0.124915
-0.0546969
0.0996264
-0.060007
0.0742704
-0.0647779
0.049071
-0.0692126
0.0241923
-0.0723786
-0.0677298
0.272126
0.0395245
0.275534
0.0322889
0.275058
0.0237071
0.2705
0.0142352
0.261948
0.00423909
0.24972
-0.00591138
0.234271
-0.0158372
0.216126
-0.0252075
0.1958
-0.0337808
0.173777
-0.0414208
0.15048
-0.0480954
0.126263
-0.0538774
0.101409
-0.0589229
0.0761527
-0.0634531
0.0506789
-0.0676149
0.0251769
-0.0704767
-0.0656569
0.254735
0.0236978
0.258367
0.0179207
0.258718
0.0112426
0.255581
0.00387627
0.248908
-0.0039493
0.238816
-0.0120135
0.225566
-0.0200596
0.209523
-0.0278422
0.191106
-0.0351565
0.170739
-0.0418502
0.148804
-0.0478357
0.125634
-0.0531215
0.101514
-0.0577987
0.07668
-0.062033
0.0512761
-0.0658669
0.0255809
-0.0684979
-0.063667
0.236774
0.00998188
0.239803
0.00512979
0.240325
-0.000280546
0.238025
-0.00608196
0.232751
-0.0121924
0.224483
-0.0185093
0.213323
-0.0248827
0.199464
-0.0311428
0.18317
-0.0371375
0.164747
-0.042746
0.144517
-0.0478796
0.122774
-0.052505
0.0997804
-0.0566702
0.0757675
-0.0604974
0.0509075
-0.0639603
0.0254704
-0.0663457
-0.0616618
0.21594
-0.00235136
0.218727
-0.00637594
0.219414
-0.0107957
0.217802
-0.0154335
0.213714
-0.0202187
0.207047
-0.0251119
0.197811
-0.030062
0.186071
-0.0349453
0.171965
-0.039668
0.155684
-0.0441504
0.137455
-0.0483283
0.117517
-0.0521665
0.0960901
-0.0556852
0.0733745
-0.0589739
0.0495715
-0.0619983
0.0248806
-0.0640343
-0.0595809
0.196864
-0.0124896
0.198682
-0.0158464
0.198787
-0.0195353
0.197078
-0.023377
0.193453
-0.0272857
0.187782
-0.0311907
0.179979
-0.0350715
0.170023
-0.038864
0.157943
-0.0425104
0.143817
-0.0459726
0.127765
-0.0492189
0.109937
-0.0522309
0.0904877
-0.0550271
0.0695503
-0.0576632
0.0472861
-0.0601252
0.0238508
-0.0616742
-0.057401
0.174901
-0.0214709
0.176697
-0.0242353
0.176903
-0.0271979
0.175425
-0.0302554
0.172241
-0.0333884
0.167335
-0.0365259
0.160659
-0.0396072
0.152172
-0.0425696
0.141866
-0.0453807
0.129757
-0.0480179
0.11589
-0.0504706
0.100331
-0.052732
0.083154
-0.0548229
0.0644097
-0.056765
0.0441447
-0.0585333
0.0224269
-0.0594017
-0.0551295
0.156451
-0.0286474
0.157464
-0.0308198
0.157172
-0.0332259
0.155523
-0.0357116
0.152456
-0.0382455
0.14794
-0.0407811
0.141937
-0.0432467
0.134431
-0.0455944
0.125422
-0.0478054
0.114925
-0.0498615
0.102953
-0.0517484
0.0895241
-0.0534542
0.0746374
-0.054976
0.0582535
-0.0562897
0.0402768
-0.057307
0.020653
-0.0573365
-0.0528026
0.135053
-0.0350677
0.13634
-0.0367127
0.136369
-0.0384986
0.135095
-0.0403549
0.132517
-0.0422923
0.128637
-0.0442637
0.123443
-0.0461802
0.116947
-0.0480128
0.109167
-0.0497461
0.100121
-0.0513559
0.0898228
-0.0528209
0.0782822
-0.0541182
0.0654846
-0.0552161
0.0513681
-0.0560378
0.0357492
-0.0563674
0.0184408
-0.0555046
-0.0506123
0.116826
-0.0400391
0.117656
-0.0412512
0.117483
-0.0425653
0.116288
-0.0439651
0.114013
-0.0454184
0.110608
-0.046885
0.106075
-0.0483282
0.100436
-0.0497313
0.0937001
-0.0510682
0.0858824
-0.0523136
0.0770086
-0.053455
0.0670926
-0.0544535
0.0561327
-0.0552581
0.0440797
-0.0557397
0.0307533
-0.0555476
0.0159292
-0.0539329
-0.0486704
0.0963047
-0.0443881
0.0973722
-0.0452022
0.0975745
-0.0460797
0.0968244
-0.046985
0.0950941
-0.0479445
0.0923755
-0.0489361
0.0886728
-0.0499338
0.083997
-0.0509264
0.0783685
-0.0518947
0.0718076
-0.052811
0.0643269
-0.0536527
0.0559515
-0.0543907
0.0467069
-0.0549715
0.0365906
-0.0552348
0.0255013
-0.054728
0.0132708
-0.0526317
-0.0469864
0.0778759
-0.0474629
0.0785593
-0.0480133
0.0785941
-0.0485713
0.077949
-0.0491502
0.0765636
-0.0497467
0.0743975
-0.0503577
0.0714358
-0.0509818
0.067671
-0.0516139
0.0631081
-0.0522461
0.0577663
-0.0528634
0.0516632
-0.0534399
0.044826
-0.053954
0.0372802
-0.0543488
0.0290622
-0.0544726
0.0201838
-0.0538456
0.0105479
-0.0515376
-0.0455286
0.058163
-0.0498452
0.0588334
-0.0501156
0.0589836
-0.0503863
0.0585778
-0.0506603
0.0575968
-0.0509507
0.0560221
-0.0512547
0.0538329
-0.0515679
0.0510143
-0.0518905
0.0475588
-0.0522211
0.0434726
-0.0525575
0.0387831
-0.0528938
0.0335236
-0.0532133
0.0277387
-0.053469
0.0215005
-0.0535351
0.014854
-0.0529036
0.00775531
-0.0505533
-0.0443022
0.0396202
-0.0510143
0.0398656
-0.0511429
0.0397977
-0.0512393
0.0394007
-0.0513346
0.0386458
-0.0514293
0.037511
-0.0515267
0.0359793
-0.0516275
0.0340353
-0.0517329
0.0316673
-0.051845
0.0288701
-0.0519672
0.0256494
-0.0521045
0.0220303
-0.0522582
0.0180615
-0.052405
0.0138146
-0.0524406
0.00941168
-0.0519066
0.00484091
-0.0496474
-0.0433892
0.0204229
-0.0514218
0.0204405
-0.0513211
0.0202636
-0.0512692
0.0199013
-0.05123
0.0193555
-0.051197
0.0186241
-0.051169
0.017703
-0.0511452
0.0165887
-0.0511267
0.0152774
-0.0511157
0.0137679
-0.0511177
0.0120633
-0.051142
0.0101744
-0.0511972
0.00812324
-0.0512712
0.0059459
-0.0512734
0.00383888
-0.0509055
0.0018553
-0.0488682
-0.0428392
0.0019352
-0.0504837
0.00147439
-0.0504075
0.0010407
-0.050337
0.000619448
-0.0502622
0.000213028
-0.0501938
-0.000173701
-0.0501331
-0.000534173
-0.0500811
-0.000862433
-0.0500384
-0.00115314
-0.0500069
-0.00140096
-0.049992
-0.00160058
-0.0500032
-0.00174888
-0.0500473
-0.00184335
-0.0501117
-0.00187361
-0.0501138
-0.00176815
-0.049817
-0.0011137
-0.0482637
-0.042629
-0.0170776
-0.0488424
-0.0177748
-0.0486315
-0.0183742
-0.0485211
-0.018824
-0.048449
-0.0190843
-0.0484139
-0.019128
-0.0484051
-0.0189327
-0.0484186
-0.0184806
-0.0484512
-0.0177572
-0.0485017
-0.0167508
-0.0485733
-0.0154537
-0.0486721
-0.0138651
-0.0487986
-0.0119903
-0.0489348
-0.0098271
-0.0490063
-0.00734991
-0.0488008
-0.00405326
-0.0478415
-0.042736
-0.035784
-0.0457237
-0.0370241
-0.0456543
-0.0379126
-0.0456648
-0.0384364
-0.0457108
-0.0385632
-0.0458109
-0.0382595
-0.0459553
-0.0374946
-0.0461388
-0.0362425
-0.0463533
-0.0344826
-0.0465933
-0.0321994
-0.046858
-0.0293839
-0.0471479
-0.0260337
-0.0474579
-0.0221496
-0.0477684
-0.0177233
-0.048015
-0.0126987
-0.0480351
-0.00687871
-0.0474941
-0.0430679
-0.0552022
-0.0418063
-0.056699
-0.0417117
-0.0577648
-0.0418281
-0.0583095
-0.042048
-0.0582622
-0.0423719
-0.0575692
-0.0427734
-0.0561875
-0.0432374
-0.0540838
-0.0437473
-0.051233
-0.0442909
-0.0476172
-0.0448615
-0.0432261
-0.0454536
-0.0380569
-0.0460564
-0.0321101
-0.046649
-0.0253902
-0.047165
-0.0179085
-0.0474373
-0.00963283
-0.047177
-0.0435934
-0.0744796
-0.0362337
-0.0765451
-0.036428
-0.0778912
-0.0368418
-0.0784695
-0.0373806
-0.0782213
-0.038056
-0.0770916
-0.0388395
-0.0750343
-0.0397083
-0.0720142
-0.0406368
-0.0680063
-0.0416045
-0.0629955
-0.0425971
-0.0569771
-0.0436009
-0.0499569
-0.0445973
-0.04195
-0.0455589
-0.0329835
-0.0464099
-0.0230965
-0.0469748
-0.0123317
-0.0469639
-0.044322
-0.0946912
-0.0297068
-0.0969981
-0.030058
-0.0984843
-0.0307712
-0.0990164
-0.0317116
-0.0984974
-0.0328562
-0.0968574
-0.0341514
-0.094046
-0.0355572
-0.0900295
-0.0370338
-0.0847893
-0.0385485
-0.0783204
-0.0400764
-0.0706326
-0.0415925
-0.061749
-0.0430684
-0.0517028
-0.0444702
-0.0405308
-0.0457227
-0.0282591
-0.0466652
-0.0148914
-0.0470345
-0.0452113
-0.114732
-0.0213267
-0.117656
-0.0221514
-0.119388
-0.0234329
-0.119867
-0.0249687
-0.11902
-0.0267508
-0.116786
-0.0287149
-0.113125
-0.0308062
-0.108015
-0.0329686
-0.101452
-0.0351555
-0.09345
-0.0373287
-0.0840386
-0.0394522
-0.0732598
-0.0414896
-0.0611623
-0.0434055
-0.0477936
-0.0451311
-0.0331845
-0.0465274
-0.017321
-0.0473816
-0.0462687
-0.135776
-0.0118051
-0.138872
-0.013084
-0.140657
-0.014946
-0.140958
-0.0172022
-0.139668
-0.0197796
-0.136723
-0.0225767
-0.132092
-0.0255097
-0.125772
-0.0285002
-0.117782
-0.0314832
-0.108164
-0.0344065
-0.0969718
-0.0372243
-0.084272
-0.0398974
-0.0701319
-0.0423935
-0.0546156
-0.0446545
-0.0377731
-0.0465616
-0.0196315
-0.0479315
-0.0475634
-0.156278
-0.000285298
-0.160004
-0.00234052
-0.161934
-0.00515932
-0.162019
-0.00838908
-0.160188
-0.0119802
-0.156409
-0.0158023
-0.150678
-0.019747
-0.143025
-0.0237109
-0.133505
-0.0276097
-0.122194
-0.0313776
-0.109184
-0.0349624
-0.0945703
-0.0383265
-0.0784477
-0.041448
-0.060898
-0.044289
-0.0419794
-0.0467618
-0.0217093
-0.0487315
-0.0491098
-0.177458
0.0125023
-0.181246
0.0095465
-0.183094
0.00573889
-0.182796
0.00134582
-0.180277
-0.00346151
-0.175515
-0.00850555
-0.168544
-0.0136336
-0.159433
-0.0187124
-0.148285
-0.0236362
-0.135222
-0.0283274
-0.120378
-0.0327331
-0.103885
-0.0368254
-0.085867
-0.040602
-0.0664249
-0.0440551
-0.0456295
-0.0471366
-0.0235055
-0.0497663
-0.0509405
-0.19748
0.0272309
-0.201801
0.0230551
-0.2036
0.0177926
-0.20285
0.0119446
-0.199516
0.00565928
-0.19363
-0.000824004
-0.18528
-0.00731321
-0.174596
-0.0136418
-0.161738
-0.0196846
-0.146887
-0.0253577
-0.130227
-0.0306158
-0.111931
-0.0354512
-0.0921536
-0.0398929
-0.0710172
-0.0439754
-0.0486032
-0.0477004
-0.0249414
-0.0510478
-0.0530831
-0.217223
0.0432535
-0.221556
0.0376333
-0.223126
0.0307959
-0.221761
0.0232195
-0.217461
0.0152056
-0.210305
0.00706084
-0.200445
-0.000962589
-0.188086
-0.00866255
-0.173461
-0.0158975
-0.156819
-0.0225857
-0.138399
-0.0287014
-0.118422
-0.0342713
-0.0970709
-0.0393703
-0.0744881
-0.0440884
-0.0507645
-0.048486
-0.0259346
-0.052608
-0.0555589
-0.235218
0.0609838
-0.239858
0.0535039
-0.24113
0.0446125
-0.239034
0.0349866
-0.233623
0.0249612
-0.225055
0.0149329
-0.21357
0.00521203
-0.199459
-0.00396086
-0.183043
-0.0124343
-0.164647
-0.0201415
-0.14457
-0.0270931
-0.123078
-0.0333681
-0.100385
-0.0391034
-0.0766499
-0.044456
-0.051977
-0.0495482
-0.0264207
-0.0544824
-0.0584016
-0.251576
0.0798313
-0.256212
0.070232
-0.257094
0.0590339
-0.254145
0.0470108
-0.247495
0.0346835
-0.237397
0.0225471
-0.224194
0.0109817
-0.208289
0.000260669
-0.190099
-0.00946591
-0.170031
-0.0181649
-0.148449
-0.0259051
-0.125659
-0.032839
-0.101902
-0.039182
-0.0773525
-0.045166
-0.0521332
-0.0509718
-0.0263304
-0.0567418
-0.0616486
-0.265396
0.0999703
-0.270142
0.0877585
-0.270528
0.0737857
-0.266611
0.059014
-0.258605
0.0440899
-0.24688
0.0296348
-0.231906
0.0161025
-0.214207
0.0037917
-0.194309
-0.00716749
-0.172705
-0.0168005
-0.149818
-0.0252617
-0.12599
-0.0328011
-0.101481
-0.0397266
-0.0764837
-0.0463464
-0.0511457
-0.0528858
-0.0256129
-0.0594886
-0.0653511
-0.276334
0.120878
-0.28107
0.105734
-0.280926
0.0886156
-0.275968
0.0707099
-0.266533
0.0528929
-0.25313
0.0359237
-0.236379
0.0203323
-0.216942
0.00642727
-0.19546
-0.00570906
-0.172508
-0.016194
-0.148561
-0.0253003
-0.123986
-0.0333992
-0.0990588
-0.0409004
-0.0739894
-0.0481778
-0.0489691
-0.0554722
-0.0242306
-0.062876
-0.0695755
-0.283899
0.142489
-0.288652
0.123903
-0.287917
0.103195
-0.281872
0.0817898
-0.270977
0.0608005
-0.2559
0.0411506
-0.237428
0.0234448
-0.21637
0.00797875
-0.193485
-0.00524988
-0.169422
-0.0164925
-0.144692
-0.0261765
-0.119677
-0.034817
-0.0946586
-0.0429251
-0.0698753
-0.0509122
-0.0455895
-0.058983
-0.0221656
-0.067106
-0.0744065
-0.287708
0.164342
-0.292507
0.141964
-0.291222
0.117247
-0.284108
0.0919663
-0.271784
0.0675438
-0.255103
0.0450788
-0.235032
0.0252413
-0.212536
0.00828113
-0.188482
-0.00593671
-0.163579
-0.0178478
-0.13836
-0.0280734
-0.113204
-0.0372883
-0.0883968
-0.04609
-0.0642221
-0.0548782
-0.0410457
-0.063748
-0.0194216
-0.0724434
-0.0799475
-0.287607
0.186195
-0.292518
0.159606
-0.290738
0.130469
-0.28263
0.100973
-0.268977
0.0728859
-0.250829
0.0475073
-0.229344
0.0255563
-0.205642
0.00719257
-0.180688
-0.00790996
-0.155233
-0.0204282
-0.129807
-0.0312155
-0.104775
-0.0411115
-0.0804314
-0.0507644
-0.0571302
-0.0604864
-0.0354008
-0.0701517
-0.0160264
-0.0791947
-0.0863214
-0.283516
0.207647
-0.288666
0.176542
-0.286532
0.142613
-0.277573
0.108581
-0.262752
0.0766287
-0.243329
0.0482706
-0.220664
0.0242536
-0.196025
0.00458929
-0.170457
-0.0113107
-0.144728
-0.0244277
-0.119342
-0.0358812
-0.0946345
-0.0466655
-0.0709199
-0.0574175
-0.0486602
-0.0682512
-0.0286104
-0.0786808
-0.0119361
-0.0876487
-0.0935711
0.180996
-0.188326
-0.177485
0.181845
-0.20071
0.181385
-0.213063
0.178563
-0.224834
0.174884
-0.235685
0.169208
-0.245025
0.16298
-0.252562
0.155175
-0.257802
0.146836
-0.26052
0.13735
-0.260618
0.127221
-0.257941
0.116315
-0.252574
0.104648
-0.244627
0.0924644
-0.234199
0.0794914
-0.221662
0.0661459
-0.207262
0.0520744
-0.191573
0.0376715
-0.174825
0.0226437
-0.157758
0.0073294
-0.140619
-0.00848884
-0.124156
-0.0245215
-0.108757
-0.0409063
-0.0950251
-0.0574179
-0.0833423
-0.0740676
-0.0741703
-0.0906694
-0.0678652
-0.107137
-0.0647184
-0.12328
-0.0649401
-0.138918
-0.068617
-0.153863
-0.0757276
-0.167856
-0.0861263
-0.180701
-0.0995191
-0.192101
-0.115496
-0.201873
-0.133496
-0.209718
-0.152877
-0.215492
-0.172895
-0.218938
-0.192773
-0.219985
-0.211708
-0.218455
-0.228946
-0.214361
-0.243783
-0.255646
0.211259
-0.180559
-0.209217
0.21102
-0.193429
0.208658
-0.206401
0.204434
-0.21899
0.198519
-0.230731
0.191173
-0.241098
0.182544
-0.249662
0.172826
-0.25596
0.162184
-0.259723
0.150688
-0.260753
0.138487
-0.258973
0.125639
-0.254375
0.112217
-0.247093
0.0983135
-0.237248
0.0839528
-0.225156
0.0692386
-0.21115
0.0541455
-0.195683
0.0388147
-0.179162
0.0232
-0.162147
0.0074362
-0.145069
-0.00849631
-0.128525
-0.0244909
-0.113032
-0.0405286
-0.0991013
-0.0565115
-0.087191
-0.0723697
-0.0777283
-0.0879933
-0.0711012
-0.103257
-0.0676066
-0.118018
-0.0674634
-0.132108
-0.0707714
-0.145338
-0.0775218
-0.157505
-0.0875747
-0.168387
-0.100649
-0.177765
-0.116331
-0.18541
-0.134071
-0.191116
-0.153209
-0.194693
-0.172999
-0.195984
-0.192648
-0.194864
-0.211344
-0.191259
-0.228312
-0.18514
-0.242838
-0.254322
0.234496
-0.169785
-0.232515
0.233846
-0.183079
0.230789
-0.196658
0.225583