/*--------------------------------*- C++ -*----------------------------------*\
  =========                 |
  \\      /  F ield         | OpenFOAM: The Open Source CFD Toolbox
   \\    /   O peration     | Website:  https://openfoam.org
    \\  /    A nd           | Version:  6
     \\/     M anipulation  |
\*---------------------------------------------------------------------------*/
FoamFile
{
    version     2.0;
    format      ascii;
    class       surfaceScalarField;
    location    "3.66";
    object      phi;
}
// * * * * * * * * * * * * * * * * * * * * * * * * * * * * * * * * * * * * * //

dimensions      [0 3 -1 0 0 0 0];

internalField   nonuniform List<scalar> 
8193
(
0.21048
-0.419704
-0.209328
0.205299
-0.426663
0.197718
-0.427754
0.189534
-0.427709
0.181456
-0.427863
0.17388
-0.428428
0.166917
-0.429117
0.160597
-0.429684
0.154927
-0.429775
0.149927
-0.428983
0.145833
-0.427103
0.143075
-0.424401
0.142053
-0.420919
0.142673
-0.415662
0.144029
-0.406126
0.14456
-0.389162
0.142679
-0.362518
0.137206
-0.326152
0.127777
-0.282078
0.115705
-0.234099
0.104052
-0.188008
0.095344
-0.146563
0.0900449
-0.112363
0.0870786
-0.0916804
0.0844441
-0.0955842
0.0790814
-0.118655
0.0678517
-0.163524
0.0503339
-0.219348
0.0278161
-0.277633
0.00135805
-0.334664
-0.0282237
-0.390884
-0.0572571
-0.436594
-0.0827164
-0.453367
-0.105322
-0.452358
-0.126318
-0.450792
-0.146236
-0.449244
-0.165626
-0.447367
-0.185015
-0.445663
-0.203865
-0.444226
-0.219886
-0.442109
-0.434362
-0.230492
0.224818
-0.415494
-0.229027
0.215155
-0.417
0.205327
-0.417926
0.196148
-0.41853
0.187812
-0.419528
0.180296
-0.420912
0.173566
-0.422386
0.167605
-0.423723
0.162427
-0.424598
0.158168
-0.424724
0.155305
-0.42424
0.154455
-0.423552
0.15589
-0.422353
0.158944
-0.418717
0.161949
-0.409131
0.162821
-0.390034
0.159807
-0.359504
0.152329
-0.318673
0.141289
-0.271038
0.127975
-0.220786
0.114178
-0.174211
0.103105
-0.13549
0.096534
-0.105792
0.0930668
-0.0882131
0.0893202
-0.0918376
0.0833358
-0.112671
0.0721396
-0.152328
0.0550414
-0.202249
0.0335544
-0.256146
0.00919777
-0.310307
-0.0178049
-0.363881
-0.0454223
-0.408977
-0.0708782
-0.427912
-0.0940074
-0.429228
-0.11561
-0.429189
-0.136081
-0.428774
-0.155786
-0.427662
-0.175287
-0.426162
-0.195009
-0.424504
-0.214577
-0.42254
-0.419205
-0.229734
0.228443
-0.405551
-0.238386
0.217987
-0.406544
0.208118
-0.408056
0.199146
-0.409559
0.190978
-0.41136
0.183581
-0.413515
0.17698
-0.415785
0.171201
-0.417943
0.166302
-0.419699
0.162585
-0.421007
0.16071
-0.422365
0.161251
-0.424093
0.164048
-0.42515
0.167789
-0.422458
0.170328
-0.41167
0.169572
-0.389279
0.164329
-0.35426
0.155085
-0.309429
0.143007
-0.25896
0.129436
-0.207214
0.11555
-0.160324
0.10374
-0.123681
0.0960643
-0.0981157
0.0918802
-0.0840291
0.0871456
-0.0871031
0.0802512
-0.105777
0.0687925
-0.140869
0.0525881
-0.186045
0.0326043
-0.236162
0.010033
-0.287736
-0.0149493
-0.338899
-0.0413539
-0.382573
-0.0665694
-0.402696
-0.0896125
-0.406185
-0.111135
-0.407667
-0.131596
-0.408313
-0.15125
-0.408008
-0.170357
-0.407054
-0.18932
-0.405542
-0.208284
-0.403576
-0.400704
-0.226786
0.232527
-0.394351
-0.243727
0.221912
-0.395929
0.212019
-0.398163
0.202949
-0.400489
0.19472
-0.403131
0.187347
-0.406141
0.18084
-0.409278
0.175229
-0.412333
0.170657
-0.415126
0.167641
-0.417991
0.166949
-0.421673
0.168883
-0.426027
0.172626
-0.428893
0.176075
-0.425907
0.176723
-0.412318
0.172995
-0.385551
0.165272
-0.346537
0.153947
-0.298104
0.139897
-0.24491
0.125175
-0.192492
0.110853
-0.146002
0.098252
-0.11108
0.0891236
-0.0889874
0.0834637
-0.0783691
0.0777413
-0.0813807
0.0707813
-0.0988166
0.0602546
-0.130342
0.0461573
-0.171948
0.0287196
-0.218725
0.00881019
-0.267826
-0.0134873
-0.316601
-0.0380305
-0.358029
-0.0625257
-0.378201
-0.0852596
-0.383451
-0.106554
-0.386372
-0.126845
-0.388022
-0.146395
-0.388457
-0.165473
-0.387976
-0.184209
-0.386806
-0.202508
-0.385277
-0.382498
-0.220713
0.235836
-0.38294
-0.247246
0.225095
-0.385189
0.215101
-0.388169
0.20598
-0.391367
0.197754
-0.394906
0.190398
-0.398785
0.183938
-0.402818
0.17845
-0.406845
0.174246
-0.410923
0.172073
-0.415818
0.172581
-0.422181
0.175406
-0.428851
0.178805
-0.432292
0.180074
-0.427175
0.176869
-0.409113
0.1687
-0.377382
0.156782
-0.334619
0.142841
-0.284163
0.127855
-0.229923
0.112771
-0.177409
0.0985136
-0.131744
0.0858531
-0.0984195
0.0759236
-0.0790579
0.0690236
-0.0714691
0.0627618
-0.0751189
0.0561715
-0.0922263
0.0473425
-0.121514
0.0357333
-0.160338
0.0213227
-0.204314
0.00438384
-0.250888
-0.015104
-0.297113
-0.0376093
-0.335524
-0.0609874
-0.354823
-0.0829729
-0.361466
-0.103759
-0.365586
-0.123661
-0.36812
-0.142907
-0.369211
-0.161655
-0.369228
-0.18002
-0.368441
-0.198197
-0.3671
-0.364537
-0.216158
0.238753
-0.371162
-0.250532
0.227803
-0.374238
0.217717
-0.378083
0.208552
-0.382203
0.200254
-0.386608
0.192845
-0.391376
0.186384
-0.396357
0.181018
-0.401478
0.177235
-0.40714
0.175896
-0.414479
0.177167
-0.423452
0.179738
-0.431423
0.180919
-0.433473
0.177932
-0.424189
0.169188
-0.400369
0.155606
-0.3638
0.139348
-0.318361
0.122675
-0.267491
0.10679
-0.214038
0.0919371
-0.162556
0.0783504
-0.118158
0.0663817
-0.0864508
0.0566197
-0.0692958
0.0493108
-0.0641603
0.0433749
-0.069183
0.0377642
-0.0866155
0.0311434
-0.114893
0.0223562
-0.151551
0.011271
-0.193229
-0.00248867
-0.237128
-0.0192009
-0.280401
-0.039501
-0.315224
-0.0613403
-0.332983
-0.0822993
-0.340507
-0.102329
-0.345557
-0.121671
-0.348778
-0.140494
-0.350388
-0.158864
-0.350858
-0.17686
-0.350445
-0.194758
-0.349202
-0.346917
-0.212378
0.240863
-0.359224
-0.252801
0.229824
-0.3632
0.219634
-0.367893
0.210355
-0.372923
0.201953
-0.378206
0.194416
-0.383839
0.187842
-0.389783
0.18252
-0.396156
0.179133
-0.403754
0.178378
-0.413724
0.179486
-0.424559
0.180071
-0.432008
0.177
-0.430401
0.167928
-0.415117
0.152773
-0.385214
0.134062
-0.345089
0.114501
-0.2988
0.095828
-0.248817
0.0790196
-0.19723
0.0641451
-0.147682
0.0512974
-0.10531
0.0405026
-0.075656
0.0318467
-0.0606399
0.0252688
-0.0575825
0.0207059
-0.06462
0.0169898
-0.0828994
0.01283
-0.110733
0.00709046
-0.145812
-0.00081813
-0.18532
-0.011411
-0.226535
-0.0254626
-0.26635
-0.043698
-0.296989
-0.0639673
-0.312714
-0.0836901
-0.320784
-0.102771
-0.326476
-0.121362
-0.330187
-0.139556
-0.332194
-0.15741
-0.333004
-0.174995
-0.33286
-0.192418
-0.331779
-0.329708
-0.209627
0.242276
-0.347131
-0.254369
0.231106
-0.35203
0.220762
-0.357549
0.211256
-0.363418
0.202588
-0.369538
0.194797
-0.376048
0.188002
-0.382987
0.182674
-0.390828
0.17953
-0.40061
0.178731
-0.412925
0.178212
-0.42404
0.1747
-0.428497
0.165782
-0.421483
0.149531
-0.398866
0.128322
-0.364005
0.105668
-0.322435
0.0839142
-0.277047
0.0640239
-0.228927
0.0464131
-0.179619
0.0313529
-0.132622
0.0191588
-0.0931158
0.00980555
-0.0663027
0.00306265
-0.053897
-0.00159523
-0.0529246
-0.00375502
-0.0624602
-0.0048971
-0.0817574
-0.00633575
-0.109294
-0.009162
-0.142985
-0.0141363
-0.180346
-0.0218364
-0.218835
-0.0336242
-0.254562
-0.0501509
-0.280462
-0.0687396
-0.294125
-0.0870647
-0.302459
-0.105049
-0.308492
-0.122752
-0.312484
-0.140213
-0.314733
-0.157472
-0.315745
-0.174565
-0.315767
-0.19153
-0.314814
-0.312934
-0.208304
0.242736
-0.334886
-0.25498
0.231384
-0.340678
0.220779
-0.346945
0.21094
-0.353578
0.201889
-0.360486
0.193715
-0.367875
0.186593
-0.375865
0.181156
-0.385391
0.177833
-0.397287
0.175854
-0.410946
0.171731
-0.419917
0.163026
-0.419792
0.146802
-0.405259
0.12362
-0.375685
0.0979272
-0.338312
0.0729151
-0.297423
0.0498537
-0.253985
0.0290192
-0.208092
0.0106961
-0.161296
-0.00450522
-0.11742
-0.01588
-0.081741
-0.0233169
-0.0588658
-0.0275492
-0.0496647
-0.0291659
-0.0513078
-0.0284405
-0.0631857
-0.0267113
-0.0834866
-0.0253926
-0.110613
-0.0254975
-0.142881
-0.0277515
-0.178092
-0.0332149
-0.213372
-0.0434854
-0.244291
-0.058553
-0.265394
-0.0754168
-0.277261
-0.0922939
-0.285582
-0.109114
-0.291673
-0.125855
-0.295743
-0.142511
-0.298076
-0.159121
-0.299135
-0.175718
-0.29917
-0.192275
-0.298257
-0.29644
-0.208769
0.24214
-0.322362
-0.254665
0.230459
-0.328996
0.219491
-0.335977
0.209218
-0.343305
0.199668
-0.350936
0.190995
-0.359202
0.183423
-0.368292
0.17763
-0.379598
0.173381
-0.393038
0.168615
-0.40618
0.160014
-0.411317
0.144732
-0.40451
0.120739
-0.381266
0.0925475
-0.347493
0.064456
-0.310221
0.0382963
-0.271263
0.0143114
-0.23
-0.00740211
-0.186379
-0.0262482
-0.14245
-0.0411047
-0.102564
-0.0510498
-0.0717959
-0.0558769
-0.0540387
-0.0571266
-0.048415
-0.0553745
-0.0530599
-0.0518007
-0.0667595
-0.0474899
-0.0877973
-0.0436008
-0.114502
-0.041216
-0.145265
-0.0413491
-0.177959
-0.0454025
-0.209318
-0.0548135
-0.23488
-0.0686144
-0.251593
-0.0838519
-0.262024
-0.0993456
-0.270088
-0.115014
-0.276004
-0.130784
-0.279973
-0.146619
-0.282241
-0.162538
-0.283217
-0.178558
-0.28315
-0.194661
-0.282154
-0.280291
-0.21081
0.240227
-0.309568
-0.253022
0.228176
-0.316945
0.216767
-0.324567
0.205966
-0.332504
0.195826
-0.340797
0.186571
-0.349947
0.178401
-0.360122
0.17184
-0.373037
0.165614
-0.386811
0.157177
-0.397743
0.142952
-0.397092
0.119643
-0.381201
0.0900239
-0.351647
0.0595353
-0.317004
0.0305878
-0.281273
0.0037715
-0.244447
-0.0210202
-0.205209
-0.043356
-0.164043
-0.0620174
-0.123788
-0.0755485
-0.0890327
-0.0830497
-0.0642947
-0.0850889
-0.0519995
-0.083416
-0.0500879
-0.0788184
-0.0576575
-0.0728191
-0.0727588
-0.0663097
-0.0943067
-0.0603429
-0.120469
-0.0561175
-0.149491
-0.0550043
-0.179072
-0.0586197
-0.205703
-0.0676527
-0.225847
-0.0801681
-0.239078
-0.0938315
-0.248361
-0.107989
-0.255931
-0.122516
-0.261477
-0.137301
-0.265188
-0.152283
-0.267259
-0.167452
-0.268047
-0.182817
-0.267785
-0.198365
-0.266606
-0.264591
-0.214065
0.236994
-0.296497
-0.250065
0.224506
-0.304457
0.212568
-0.31263
0.201148
-0.321084
0.190357
-0.330006
0.180461
-0.340052
0.171486
-0.351147
0.163677
-0.365229
0.154811
-0.377944
0.141435
-0.384367
0.119842
-0.375499
0.0905334
-0.351892
0.0583743
-0.319488
0.0272618
-0.285892
-0.00186838
-0.252143
-0.0291285
-0.217187
-0.0543485
-0.179989
-0.0764478
-0.141944
-0.0938131
-0.106423
-0.105083
-0.0777623
-0.109656
-0.059722
-0.109385
-0.0522706
-0.105375
-0.0540977
-0.0988172
-0.0642157
-0.0909555
-0.0806205
-0.0827446
-0.102518
-0.0754407
-0.127773
-0.0702851
-0.154646
-0.0689794
-0.180378
-0.0728813
-0.201801
-0.081605
-0.217124
-0.0928094
-0.227874
-0.105039
-0.236131
-0.117934
-0.243036
-0.131353
-0.248058
-0.145159
-0.251382
-0.159288
-0.253131
-0.173706
-0.253629
-0.188421
-0.25307
-0.203414
-0.251613
-0.249359
-0.218646
0.2326
-0.283052
-0.246045
0.219588
-0.291445
0.207068
-0.300109
0.194965
-0.308981
0.183506
-0.318548
0.172861
-0.329406
0.162793
-0.34108
0.153351
-0.355786
0.140105
-0.364698
0.12079
-0.365052
0.0931936
-0.347903
0.0610888
-0.319787
0.0284514
-0.286851
-0.00234323
-0.255097
-0.0314079
-0.223078
-0.0587036
-0.189891
-0.0834959
-0.155196
-0.104254
-0.121186
-0.119375
-0.0913016
-0.127996
-0.0691412
-0.130491
-0.0572272
-0.12852
-0.0542416
-0.122982
-0.0596353
-0.115227
-0.0719708
-0.106105
-0.0897427
-0.0970453
-0.111577
-0.0892277
-0.13559
-0.0842493
-0.159625
-0.0837905
-0.180836
-0.0881568
-0.197435
-0.0963332
-0.208947
-0.106244
-0.217963
-0.117202
-0.225173
-0.128944
-0.231294
-0.141336
-0.235666
-0.154208
-0.23851
-0.167512
-0.239827
-0.181187
-0.239954
-0.195244
-0.239013
-0.209645
-0.237211
-0.23463
-0.224375
0.227212
-0.269144
-0.24112
0.213627
-0.27786
0.200555
-0.287038
0.187745
-0.29617
0.175666
-0.306469
0.164112
-0.317852
0.152612
-0.329579
0.140242
-0.343417
0.121663
-0.346119
0.0978934
-0.341283
0.0668841
-0.316893
0.0343022
-0.287205
0.00212395
-0.254672
-0.0280317
-0.224942
-0.0566984
-0.194411
-0.0832716
-0.163318
-0.106678
-0.13179
-0.125315
-0.102549
-0.137942
-0.0786745
-0.144315
-0.0627685
-0.145859
-0.0556831
-0.14291
-0.0571902
-0.136644
-0.065902
-0.128305
-0.0803094
-0.118935
-0.0991123
-0.109851
-0.120662
-0.102664
-0.142778
-0.0988165
-0.163472
-0.0995815
-0.180071
-0.104168
-0.192848
-0.111551
-0.201564
-0.120246
-0.209267
-0.130093
-0.215326
-0.140761
-0.220626
-0.152219
-0.224208
-0.164187
-0.226543
-0.176703
-0.22731
-0.189622
-0.227035
-0.203012
-0.225623
-0.216783
-0.223441
-0.220469
-0.230944
0.221106
-0.25477
-0.235479
0.206954
-0.263708
0.193418
-0.273502
0.179841
-0.282593
0.167213
-0.293841
0.154414
-0.305053
0.141014
-0.31618
0.125122
-0.327524
0.102259
-0.323256
0.0761302
-0.315154
0.0434255
-0.284189
0.0116759
-0.255456
-0.0197178
-0.223279
-0.0488907
-0.195769
-0.0766752
-0.166627
-0.101739
-0.138255
-0.123148
-0.110381
-0.139563
-0.0861336
-0.150263
-0.067974
-0.155632
-0.0573997
-0.156438
-0.0548776
-0.153268
-0.0603603
-0.147092
-0.072078
-0.139042
-0.0883588
-0.130442
-0.107713
-0.122396
-0.128708
-0.117024
-0.14815
-0.114613
-0.165883
-0.116483
-0.178201
-0.12064
-0.188692
-0.127138
-0.195066
-0.134597
-0.201808
-0.143519
-0.206404
-0.153078
-0.211068
-0.163766
-0.21352
-0.174781
-0.215528
-0.18662
-0.215472
-0.198715
-0.21494
-0.211483
-0.212855
-0.224548
-0.210376
-0.2069
-0.238117
0.214886
-0.240155
-0.229501
0.200105
-0.248926
0.186152
-0.25955
0.171626
-0.268067
0.158506
-0.280721
0.144072
-0.290619
0.12859
-0.300698
0.110301
-0.309235
0.0840559
-0.297011
0.0576469
-0.288745
0.0241241
-0.250666
-0.00585325
-0.225478
-0.0365535
-0.192579
-0.0642463
-0.168076
-0.0908523
-0.140021
-0.113942
-0.115165
-0.133143
-0.0911795
-0.147878
-0.0713989
-0.157279
-0.0585724
-0.162668
-0.0520107
-0.163032
-0.0545142
-0.160481
-0.0629111
-0.155436
-0.0771227
-0.148603
-0.0951916
-0.142288
-0.114028
-0.135949
-0.135046
-0.133328
-0.150771
-0.131721
-0.167489
-0.134353
-0.175569
-0.137376
-0.185668
-0.143134
-0.189308
-0.149075
-0.195868
-0.157399
-0.19808
-0.165543
-0.202923
-0.175803
-0.20326
-0.185563
-0.205768
-0.197059
-0.203975
-0.208031
-0.203968
-0.220474
-0.200412
-0.232514
-0.198336
-0.193619
-0.245795
0.209252
-0.223797
0.193719
0.179284
0.163653
0.14959
0.133453
0.116443
0.0972179
0.069469
0.0437455
0.01017
-0.0178583
-0.0481023
-0.0737121
-0.0993065
-0.120265
-0.137679
-0.151317
-0.159344
-0.165523
-0.166394
-0.165611
-0.163009
-0.158207
-0.155889
-0.151309
-0.151671
-0.150066
-0.152721
-0.154405
-0.1594
-0.163782
-0.171476
-0.178181
-0.187963
-0.196402
-0.207472
-0.217221
-0.229216
-0.240142
-0.253126
0.166696
-0.237617
0.153335
-0.232435
0.142151
-0.226932
0.132504
-0.221297
0.124147
-0.216018
0.116693
-0.211191
0.109737
-0.207108
0.10291
-0.203983
0.0959815
-0.20184
0.0885627
-0.200885
0.0800232
-0.201087
0.0698702
-0.202225
0.0585781
-0.204866
0.0462974
-0.208433
0.0323842
-0.212872
0.018293
-0.215643
-0.212199
0.160763
-0.224071
0.14835
-0.220022
0.137161
-0.215744
0.127192
-0.211328
0.118282
-0.207108
0.110235
-0.203144
0.102737
-0.19961
0.0954979
-0.196744
0.0882899
-0.194632
0.0807821
-0.193377
0.0727214
-0.193027
0.0639856
-0.193489
0.0537833
-0.194664
0.0422989
-0.196948
0.0294069
-0.199981
0.0163634
-0.2026
-0.195835
0.155761
-0.210217
0.143254
-0.207515
0.132037
-0.204527
0.121955
-0.201246
0.112785
-0.197938
0.10439
-0.19475
0.0965773
-0.191798
0.0891072
-0.189274
0.0817564
-0.187281
0.0742425
-0.185864
0.0662735
-0.185058
0.05773
-0.184946
0.0484535
-0.185387
0.0382523
-0.186747
0.0265872
-0.188315
0.0144517
-0.190464
-0.181383
0.149024
-0.198121
0.137468
-0.195959
0.126628
-0.193687
0.116596
-0.191213
0.107301
-0.188643
0.0986937
-0.186142
0.0906462
-0.18375
0.0829988
-0.181627
0.0755682
-0.179851
0.068131
-0.178427
0.060455
-0.177382
0.052374
-0.176865
0.0436724
-0.176686
0.0343727
-0.177447
0.0240921
-0.178035
0.0129195
-0.179292
-0.168464
0.142892
-0.185933
0.131582
-0.184648
0.121012
-0.183117
0.111125
-0.181326
0.10188
-0.179398
0.0932212
-0.177483
0.0850938
-0.175623
0.0773583
-0.173891
0.0698583
-0.172351
0.0624632
-0.171031
0.0550087
-0.169927
0.0473339
-0.16919
0.0392746
-0.168627
0.0307148
-0.168887
0.0213998
-0.16872
0.0113411
-0.169233
-0.157123
0.135506
-0.175406
0.125097
-0.17424
0.115084
-0.173104
0.10553
-0.171771
0.096488
-0.170356
0.0879212
-0.168916
0.0798272
-0.167529
0.0721062
-0.16617
0.0646316
-0.164876
0.0573027
-0.163702
0.0500269
-0.162651
0.0426715
-0.161835
0.0351565
-0.161112
0.0272689
-0.161
0.0189306
-0.160382
0.0098112
-0.160113
-0.147312
0.128456
-0.164892
0.11851
-0.164294
0.108947
-0.163541
0.0997987
-0.162623
0.0910645
-0.161622
0.0827463
-0.160598
0.0748048
-0.159587
0.0671948
-0.15856
0.0598289
-0.15751
0.052638
-0.156512
0.0455618
-0.155575
0.0385121
-0.154785
0.0314253
-0.154025
0.0241334
-0.153708
0.0166136
-0.152862
0.00839128
-0.151891
-0.13892
0.12035
-0.155812
0.111379
-0.155322
0.102521
-0.154683
0.0938993
-0.154002
0.0856043
-0.153327
0.0776413
-0.152635
0.0699561
-0.151902
0.0625492
-0.151153
0.0553866
-0.150348
0.0484174
-0.149542
0.0415911
-0.148749
0.0348542
-0.148048
0.0281701
-0.147341
0.0213995
-0.146937
0.014555
-0.146017
0.00716354
-0.1445
-0.131757
0.112635
-0.146864
0.10409
-0.146777
0.0958495
-0.146443
0.0878383
-0.14599
0.080059
-0.145548
0.072532
-0.145108
0.0652268
-0.144597
0.0581069
-0.144034
0.0512121
-0.143453
0.0445317
-0.142862
0.0380102
-0.142227
0.0316184
-0.141656
0.0253191
-0.141041
0.0190285
-0.140647
0.0127726
-0.139761
0.00610251
-0.13783
-0.125654
0.104019
-0.13924
0.0963726
-0.139131
0.0888639
-0.138934
0.0815421
-0.138669
0.0743935
-0.138399
0.0673672
-0.138082
0.0605157
-0.137745
0.0538256
-0.137343
0.0472757
-0.136903
0.0409091
-0.136495
0.0347242
-0.136042
0.0287058
-0.135638
0.0227912
-0.135127
0.0169589
-0.134815
0.0112052
-0.134007
0.0052302
-0.131855
-0.120424
0.0958376
-0.131875
0.0887121
-0.132006
0.0817722
-0.131994
0.0750405
-0.131937
0.0684839
-0.131842
0.0620825
-0.131681
0.0557787
-0.131441
0.0495763
-0.131141
0.0435191
-0.130846
0.0375764
-0.130553
0.0317422
-0.130208
0.0260813
-0.129977
0.0205498
-0.129595
0.0151623
-0.129427
0.00984009
-0.128685
0.00449788
-0.126512
-0.115926
0.08684
-0.12578
0.0806611
-0.125827
0.0745244
-0.125858
0.0684658
-0.125878
0.0624913
-0.125868
0.0566098
-0.125799
0.0508557
-0.125687
0.045254
-0.125539
0.0397592
-0.125351
0.0343471
-0.125141
0.0290178
-0.124879
0.0237935
-0.124753
0.0186448
-0.124446
0.0136671
-0.124449
0.00874145
-0.12376
0.00396099
-0.121732
-0.111965
0.0782787
-0.120065
0.072712
-0.12026
0.0672403
-0.120386
0.061835
-0.120473
0.0564818
-0.120515
0.0511921
-0.12051
0.0459771
-0.120472
0.0408547
-0.120417
0.0358454
-0.120342
0.0309749
-0.12027
0.0262268
-0.120131
0.0215573
-0.120083
0.0169273
-0.119816
0.0123991
-0.119921
0.00789304
-0.119254
0.00358825
-0.117427
-0.108377
0.068894
-0.115519
0.0642699
-0.115636
0.059632
-0.115748
0.0549803
-0.115821
0.050331
-0.115865
0.045709
-0.115888
0.0411318
-0.115895
0.0366072
-0.115892
0.0321408
-0.115875
0.0277393
-0.115869
0.0234145
-0.115806
0.0191909
-0.11586
0.015077
-0.115703
0.0110459
-0.11589
0.00705575
-0.115263
0.00321513
-0.113586
-0.105162
0.0599581
-0.111408
0.055948
-0.111626
0.0519595
-0.111759
0.0479766
-0.111838
0.0440032
-0.111892
0.0400504
-0.111935
0.0361262
-0.111971
0.0322366
-0.112003
0.0283893
-0.112028
0.0245807
-0.11206
0.0208179
-0.112043
0.0170931
-0.112135
0.0134257
-0.112035
0.00982785
-0.112292
0.0062958
-0.111731
0.00291157
-0.110202
-0.10225
0.0503186
-0.108376
0.0471797
-0.108487
0.0439746
-0.108554
0.0407287
-0.108592
0.0374634
-0.108627
0.0341925
-0.108664
0.0309229
-0.108701
0.0276598
-0.10874
0.0244095
-0.108778
0.021174
-0.108824
0.0179683
-0.108837
0.0147795
-0.108946
0.0116318
-0.108888
0.00850947
-0.10917
0.00545734
-0.108679
0.00253163
-0.107277
-0.0997187
0.0411045
-0.105786
0.038558
-0.10594
0.0359856
-0.105982
0.0334023
-0.106009
0.0308069
-0.106031
0.0281993
-0.106056
0.0255793
-0.106081
0.0229481
-0.106108
0.020309
-0.106139
0.017661
-0.106176
0.0150306
-0.106207
0.0123936
-0.106309
0.00979942
-0.106293
0.00715903
-0.106529
0.00454589
-0.106066
0.00207546
-0.104806
-0.0976432
0.031323
-0.104193
0.0295826
-0.1042
0.0277619
-0.104161
0.0258981
-0.104145
0.0239973
-0.104131
0.0220657
-0.104125
0.0201061
-0.104122
0.0181211
-0.104123
0.0161134
-0.104131
0.0140823
-0.104145
0.0120414
-0.104166
0.00996934
-0.104237
0.00791856
-0.104243
0.00580663
-0.104418
0.00373247
-0.103992
0.00170925
-0.102783
-0.0959339
0.0219681
-0.102987
0.0207863
-0.103018
0.019587
-0.102962
0.0183647
-0.102923
0.0171112
-0.102877
0.015825
-0.102838
0.0145053
-0.102802
0.0131519
-0.10277
0.0117642
-0.102743
0.0103423
-0.102723
0.00889109
-0.102715
0.00738793
-0.102734
0.00588434
-0.102739
0.00428864
-0.102822
0.00277352
-0.102477
0.00118284
-0.101192
-0.0947511
0.0121862
-0.102768
0.0117564
-0.102588
0.0112562
-0.102462
0.0106949
-0.102362
0.010083
-0.102265
0.00942182
-0.102177
0.00871443
-0.102095
0.00796278
-0.102018
0.00716913
-0.10195
0.00633533
-0.10189
0.00546247
-0.101842
0.004544
-0.101815
0.00360998
-0.101805
0.00257294
-0.101785
0.00162306
-0.101527
0.000554622
-0.100124
-0.0941965
0.00287437
-0.102865
0.00303197
-0.102746
0.00317982
-0.10261
0.00327341
-0.102455
0.00331532
-0.102307
0.00330202
-0.102164
0.00323467
-0.102027
0.00311148
-0.101895
0.00293103
-0.101769
0.0026934
-0.101652
0.00239702
-0.101546
0.00203994
-0.101458
0.00163937
-0.101404
0.00113335
-0.101279
0.000682466
-0.101076
8.92731e-05
-0.0995306
-0.0941072
-0.00665998
-0.104073
-0.00572859
-0.103677
-0.00489841
-0.10344
-0.00414402
-0.10321
-0.00345458
-0.102997
-0.00283578
-0.102783
-0.00228666
-0.102576
-0.00180786
-0.102374
-0.00139872
-0.102178
-0.0010596
-0.101991
-0.000791858
-0.101813
-0.000593022
-0.101657
-0.000460693
-0.101537
-0.000412158
-0.101327
-0.000342575
-0.101146
-0.000416112
-0.0994571
-0.0945233
-0.0159578
-0.105434
-0.014474
-0.105161
-0.013011
-0.104903
-0.011633
-0.104588
-0.0103349
-0.104295
-0.00911424
-0.104003
-0.0079682
-0.103722
-0.00689667
-0.103446
-0.00589937
-0.103176
-0.00497656
-0.102914
-0.00412951
-0.10266
-0.00335388
-0.102433
-0.00265427
-0.102236
-0.00203781
-0.101944
-0.00141923
-0.101764
-0.000951977
-0.0999243
-0.0954753
-0.0252263
-0.107979
-0.023054
-0.107333
-0.0210062
-0.106951
-0.0190369
-0.106557
-0.0171439
-0.106188
-0.0153319
-0.105815
-0.0136015
-0.105453
-0.0119515
-0.105096
-0.0103805
-0.104747
-0.00888827
-0.104406
-0.00747411
-0.104075
-0.00613342
-0.103773
-0.00487522
-0.103495
-0.00368592
-0.103133
-0.00251849
-0.102932
-0.00149704
-0.100946
-0.0969723
-0.0343366
-0.110516
-0.0315927
-0.110077
-0.028905
-0.109638
-0.0263262
-0.109136
-0.0238471
-0.108667
-0.0214605
-0.108202
-0.0191632
-0.10775
-0.0169529
-0.107306
-0.014828
-0.106872
-0.0127872
-0.106447
-0.0108272
-0.106035
-0.00894404
-0.105657
-0.00714525
-0.105293
-0.00539897
-0.104879
-0.00368131
-0.104649
-0.00205958
-0.102568
-0.0990319
-0.0432213
-0.114362
-0.039853
-0.113446
-0.0366211
-0.11287
-0.0334824
-0.112274
-0.030441
-0.111708
-0.027497
-0.111146
-0.024649
-0.110598
-0.0218938
-0.110061
-0.0192288
-0.109537
-0.0166526
-0.109023
-0.0141611
-0.108526
-0.0117493
-0.108068
-0.00941542
-0.107627
-0.00712226
-0.107173
-0.00489345
-0.106878
-0.00254408
-0.104917
-0.101576
-0.0520007
-0.118033
-0.0480627
-0.117384
-0.0442237
-0.116709
-0.0405122
-0.115986
-0.0369199
-0.1153
-0.0334369
-0.114629
-0.0300577
-0.113977
-0.0267775
-0.113341
-0.0235903
-0.112724
-0.0204863
-0.112127
-0.0174551
-0.111557
-0.0144967
-0.111027
-0.0116124
-0.110512
-0.0087092
-0.110076
-0.00595053
-0.109637
-0.0030236
-0.107844
-0.1046
-0.060509
-0.12311
-0.0559871
-0.121906
-0.0516323
-0.121064
-0.0473956
-0.120222
-0.0432767
-0.119419
-0.039273
-0.118633
-0.035379
-0.117871
-0.0315851
-0.117135
-0.0278819
-0.116427
-0.0242521
-0.115757
-0.0206831
-0.115126
-0.0171792
-0.114531
-0.0137317
-0.113959
-0.0103139
-0.113494
-0.00699403
-0.112957
-0.00352416
-0.111314
-0.108124
-0.0688861
-0.127876
-0.0638352
-0.126956
-0.0589097
-0.12599
-0.0541359
-0.124996
-0.0494999
-0.124055
-0.0449872
-0.123145
-0.0405876
-0.122271
-0.0362842
-0.121438
-0.0320564
-0.120655
-0.0279053
-0.119908
-0.0238256
-0.119206
-0.0198126
-0.118544
-0.0158485
-0.117923
-0.0119187
-0.117423
-0.00804989
-0.116826
-0.00404661
-0.115317
-0.11217
-0.0769987
-0.1341
-0.0714017
-0.132553
-0.0659945
-0.131397
-0.0607234
-0.130267
-0.0555862
-0.129192
-0.0505739
-0.128158
-0.0456751
-0.12717
-0.0408659
-0.126248
-0.0361443
-0.125376
-0.0314976
-0.124555
-0.0269181
-0.123785
-0.0223997
-0.123062
-0.0179251
-0.122398
-0.013488
-0.12186
-0.00910947
-0.121204
-0.00457497
-0.119851
-0.116745
-0.0849944
-0.139915
-0.0788884
-0.138659
-0.0729431
-0.137342
-0.0671698
-0.136041
-0.0615436
-0.134819
-0.0560447
-0.133657
-0.050658
-0.132556
-0.0453707
-0.131535
-0.0401665
-0.130581
-0.0350346
-0.129687
-0.0299656
-0.128854
-0.0249513
-0.128077
-0.0199776
-0.127371
-0.0150457
-0.126792
-0.0101505
-0.126099
-0.00509337
-0.124909
-0.121839
-0.09269
-0.147193
-0.0861072
-0.145242
-0.0797214
-0.143728
-0.0734839
-0.142278
-0.067388
-0.140914
-0.0614181
-0.139627
-0.0555564
-0.138418
-0.0498036
-0.137288
-0.0441303
-0.136254
-0.0385254
-0.135292
-0.0329775
-0.134402
-0.0274753
-0.133579
-0.022009
-0.132838
-0.0165832
-0.132218
-0.0111687
-0.131514
-0.00561202
-0.130465
-0.127451
-0.100332
-0.153982
-0.0932555
-0.152318
-0.0863747
-0.150609
-0.0796785
-0.148974
-0.0731323
-0.147461
-0.0667107
-0.146048
-0.0603951
-0.144734
-0.0541707
-0.143512
-0.0480398
-0.142385
-0.0419686
-0.141363
-0.0359492
-0.140422
-0.0299692
-0.139559
-0.024019
-0.138788
-0.0181008
-0.138136
-0.0121773
-0.137437
-0.00613856
-0.136504
-0.133589
-0.107629
-0.1622
-0.100154
-0.159793
-0.0928784
-0.157885
-0.085758
-0.156095
-0.0787806
-0.154438
-0.071925
-0.152904
-0.0651711
-0.151488
-0.0585011
-0.150182
-0.0519048
-0.148981
-0.0453791
-0.147888
-0.0388927
-0.146908
-0.0324378
-0.146014
-0.0260072
-0.145218
-0.0196039
-0.14454
-0.0131899
-0.143851
-0.0066742
-0.14302
-0.140263
-0.114916
-0.169871
-0.106975
-0.167734
-0.0992511
-0.165608
-0.0917139
-0.163632
-0.0843216
-0.16183
-0.0770464
-0.160179
-0.0698673
-0.158667
-0.0627658
-0.157284
-0.0557263
-0.156021
-0.048744
-0.154871
-0.0418066
-0.153845
-0.0348906
-0.15293
-0.027988
-0.152121
-0.0211008
-0.151427
-0.0141961
-0.150756
-0.00720475
-0.150011
-0.147468
-0.121819
-0.178908
-0.11355
-0.176003
-0.10547
-0.173689
-0.0975406
-0.171561
-0.0897465
-0.169624
-0.0820632
-0.167862
-0.0744697
-0.16626
-0.0669467
-0.164807
-0.0594777
-0.16349
-0.0520466
-0.162302
-0.0446568
-0.161235
-0.0372889
-0.160297
-0.0299331
-0.159477
-0.022585
-0.158775
-0.0152124
-0.158129
-0.007754
-0.15747
-0.155222
-0.128753
-0.187354
-0.120048
-0.184708
-0.111567
-0.18217
-0.103257
-0.179871
-0.0950776
-0.177804
-0.087001
-0.175939
-0.0790064
-0.174255
-0.0710747
-0.172738
-0.0631884
-0.171376
-0.0553319
-0.170158
-0.0474909
-0.169076
-0.0396644
-0.168124
-0.0318533
-0.167288
-0.0240382
-0.16659
-0.0162039
-0.165963
-0.00828913
-0.165384
-0.163511
-0.135303
-0.197049
-0.126347
-0.193665
-0.117557
-0.19096
-0.108898
-0.18853
-0.100356
-0.186346
-0.0919071
-0.184388
-0.0835302
-0.182632
-0.0752053
-0.181063
-0.0669148
-0.179667
-0.0586437
-0.178429
-0.0503787
-0.177341
-0.0421115
-0.176391
-0.0338291
-0.17557
-0.0255382
-0.174881
-0.0172095
-0.174292
-0.00882432
-0.173769
-0.172336
-0.141885
-0.206117
-0.132542
-0.203008
-0.123403
-0.2001
-0.114406
-0.197526
-0.105518
-0.195235
-0.0967108
-0.193194
-0.0879648
-0.191378
-0.0792593
-0.189769
-0.0705759
-0.18835
-0.061899
-0.187106
-0.0532162
-0.186024
-0.044517
-0.18509
-0.0357936
-0.184294
-0.0270472
-0.183627
-0.0182566
-0.183082
-0.00937584
-0.18265
-0.181712
-0.147974
-0.216373
-0.138413
-0.212569
-0.128963
-0.20955
-0.119607
-0.206882
-0.110346
-0.204496
-0.101159
-0.202382
-0.0920242
-0.200512
-0.0829257
-0.198867
-0.0738465
-0.197429
-0.0647731
-0.19618
-0.0556937
-0.195104
-0.0465947
-0.194189
-0.0374615
-0.193427
-0.0282826
-0.192806
-0.0190484
-0.192317
-0.00975275
-0.191946
-0.191464
-0.198734
-0.173548
0.212615
-0.185931
-0.178872
-0.172999
-0.184107
-0.16098
-0.189011
-0.14896
-0.193729
-0.137665
-0.19821
-0.126393
-0.202489
-0.115699
-0.206484
-0.105096
-0.210235
-0.0949483
-0.213706
-0.0849209
-0.216906
-0.0752389
-0.219823
-0.0656886
-0.222449
-0.0563842
-0.224784
-0.0472074
-0.226812
-0.0381881
-0.228541
-0.0292784
-0.229953
-0.0204481
-0.231056
-0.0116969
-0.231838
-0.00295774
-0.232303
0.0057459
-0.232446
0.0144917
-0.232271
0.0232604
-0.231773
0.0321102
-0.23096
0.0410542
-0.229828
0.0501052
-0.228389
0.0593327
-0.226637
0.0686794
-0.224588
0.0782956
-0.222236
0.0880274
-0.219598
0.098134
-0.216673
0.108335
-0.213469
0.119029
-0.210002
0.129774
-0.206259
0.141143
-0.202279
0.152482
-0.198025
0.164609
-0.193576
0.176664
-0.188897
0.189701
-0.184034
0.202458
-0.178823
-0.173563
-0.196001
-0.186608
0.209061
-0.18329
-0.191583
-0.17098
-0.196417
-0.159034
-0.200957
-0.14744
-0.205324
-0.136176
-0.209474
-0.125241
-0.213424
-0.114613
-0.217113
-0.104265
-0.220583
-0.0941872
-0.223784
-0.0843455
-0.226748
-0.0747332
-0.229436
-0.0653136
-0.231868
-0.0560784
-0.234019
-0.0469916
-0.235899
-0.0380407
-0.237492
-0.0291932
-0.238801
-0.0204311
-0.239818
-0.011726
-0.240543
-0.00305551
-0.240974
0.00560647
-0.241108
0.0142837
-0.240948
0.0230023
-0.240492
0.0317841
-0.239742
0.040658
-0.238702
0.0496414
-0.237372
0.0587668
-0.235762
0.068046
-0.233867
0.0775148
-0.231705
0.0871806
-0.229264
0.0970795
-0.226572
0.107219
-0.223608
0.11763
-0.220413
0.128324
-0.216954
0.139327
-0.213281
0.150655
-0.209353
0.162315
-0.205236
0.174328
-0.20091
0.186687
-0.196393
0.199465
-0.191601
-0.186666
-0.193623
-0.199399
0.206414
-0.181199
-0.204006
-0.169157
-0.208459
-0.157437
-0.212677
-0.146049
-0.216711
-0.134973
-0.22055
-0.124213
-0.224183
-0.11373
-0.227596
-0.103524
-0.230788
-0.0935605
-0.233748
-0.0838339
-0.236474
-0.0743117
-0.238958
-0.0649841
-0.241196
-0.0558215
-0.243182
-0.0468084
-0.244912
-0.0379181
-0.246382
-0.0291309
-0.247588
-0.0204223
-0.248527
-0.0117695
-0.249196
-0.00314942
-0.249594
0.00546217
-0.24972
0.014088
-0.249574
0.0227523
-0.249156
0.0314781
-0.248468
0.0402877
-0.247512
0.0492062
-0.24629
0.0582521
-0.244808
0.0674526
-0.243067
0.0768219
-0.241075
0.0863895
-0.238831
0.0961647
-0.236347
0.10618
-0.233624
0.116439
-0.230672
0.126978
-0.227493
0.137794
-0.224097