/*--------------------------------*- C++ -*----------------------------------*\
  =========                 |
  \\      /  F ield         | OpenFOAM: The Open Source CFD Toolbox
   \\    /   O peration     | Website:  https://openfoam.org
    \\  /    A nd           | Version:  6
     \\/     M anipulation  |
\*---------------------------------------------------------------------------*/
FoamFile
{
    version     2.0;
    format      ascii;
    class       volScalarField;
    location    "3.69";
    object      rho;
}
// * * * * * * * * * * * * * * * * * * * * * * * * * * * * * * * * * * * * * //

dimensions      [1 -3 0 0 0 0 0];

internalField   nonuniform List<scalar> 
5625
(
1.44984
1.44198
1.43232
1.4216
1.41048
1.3995
1.38912
1.37965
1.37139
1.3645
1.35899
1.35473
1.35151
1.34897
1.34658
1.34385
1.34065
1.33699
1.33263
1.32748
1.32216
1.31736
1.31319
1.30988
1.30817
1.30848
1.31052
1.31371
1.31763
1.32189
1.3262
1.33044
1.33444
1.33797
1.34096
1.34374
1.34689
1.3508
1.35558
1.36121
1.3678
1.37566
1.38511
1.39628
1.40881
1.42181
1.43402
1.44406
1.45082
1.45371
1.45285
1.44892
1.44294
1.436
1.42899
1.42255
1.41701
1.41251
1.409
1.40636
1.40443
1.40305
1.40209
1.40143
1.40098
1.40067
1.40047
1.40033
1.40023
1.40017
1.40012
1.40009
1.40006
1.40005
1.40003
1.45225
1.44547
1.43664
1.42651
1.41576
1.40497
1.39457
1.38493
1.37633
1.36897
1.36292
1.35818
1.35464
1.35196
1.34974
1.34771
1.34572
1.34351
1.34077
1.33761
1.33448
1.33149
1.32862
1.32636
1.32528
1.32534
1.32617
1.3276
1.32953
1.33176
1.33417
1.33673
1.33931
1.34174
1.34405
1.34661
1.3499
1.35413
1.35929
1.36534
1.37238
1.38072
1.39062
1.40206
1.41455
1.42709
1.43841
1.44719
1.4525
1.45399
1.45196
1.44722
1.44081
1.43377
1.4269
1.42074
1.41554
1.41136
1.40814
1.40573
1.40399
1.40275
1.40188
1.40129
1.40089
1.40062
1.40043
1.40031
1.40022
1.40016
1.40011
1.40008
1.40006
1.40005
1.40003
1.45429
1.44871
1.44085
1.43145
1.42119
1.41068
1.40036
1.39062
1.38177
1.37402
1.36748
1.36221
1.35813
1.35505
1.35273
1.35098
1.34956
1.34807
1.34637
1.34459
1.34283
1.34093
1.33903
1.33761
1.33685
1.33649
1.33641
1.33674
1.33749
1.33852
1.33981
1.34138
1.34317
1.34503
1.34712
1.34979
1.35341
1.35805
1.36363
1.37009
1.37757
1.38635
1.39662
1.40821
1.42049
1.43238
1.44259
1.44996
1.45374
1.45381
1.45066
1.44519
1.43847
1.43142
1.42476
1.41892
1.41408
1.41024
1.4073
1.40513
1.40356
1.40246
1.40169
1.40116
1.40081
1.40056
1.4004
1.40028
1.4002
1.40015
1.40011
1.40008
1.40006
1.40004
1.40003
1.45583
1.45159
1.44485
1.43632
1.42669
1.41657
1.40644
1.3967
1.38769
1.37962
1.37264
1.36683
1.36219
1.35863
1.35599
1.35409
1.35265
1.35141
1.35029
1.34927
1.3482
1.34696
1.34577
1.34486
1.34413
1.34343
1.3429
1.34273
1.34289
1.3433
1.34403
1.34514
1.34658
1.3483
1.35049
1.3535
1.35755
1.36264
1.36862
1.37547
1.38336
1.39254
1.40307
1.41465
1.42652
1.43752
1.44644
1.45224
1.45442
1.4531
1.44892
1.44286
1.43593
1.42898
1.4226
1.41712
1.41265
1.40915
1.4065
1.40456
1.40317
1.40219
1.40151
1.40104
1.40073
1.40051
1.40036
1.40026
1.40019
1.40014
1.4001
1.40008
1.40006
1.40004
1.40003
1.45676
1.45398
1.44851
1.441
1.43215
1.42255
1.41273
1.40311
1.39404
1.38573
1.37837
1.37211
1.36697
1.36287
1.35972
1.35738
1.35568
1.35439
1.35342
1.35261
1.35179
1.35092
1.35013
1.34941
1.34863
1.34782
1.34722
1.34693
1.34686
1.34704
1.3476
1.34861
1.35003
1.35188
1.3544
1.35787
1.36241
1.36791
1.37426
1.38148
1.38974
1.39923
1.40989
1.42128
1.43249
1.44238
1.44979
1.45391
1.45448
1.45184
1.44676
1.44024
1.43323
1.42647
1.42043
1.41535
1.41127
1.40811
1.40574
1.40402
1.40279
1.40193
1.40134
1.40093
1.40065
1.40046
1.40033
1.40024
1.40018
1.40013
1.4001
1.40007
1.40005
1.40004
1.40003
1.45697
1.45576
1.45169
1.44536
1.43744
1.42852
1.41915
1.40977
1.40074
1.3923
1.38469
1.37805
1.37242
1.36776
1.36406
1.36126
1.35916
1.35757
1.3564
1.35549
1.35468
1.35393
1.35327
1.35258
1.3518
1.35108
1.35061
1.35035
1.35026
1.35046
1.35112
1.35227
1.35388
1.35605
1.35902
1.363
1.36799
1.37387
1.38055
1.38808
1.39664
1.40633
1.41696
1.42792
1.43824
1.44676
1.4525
1.45487
1.45386
1.45001
1.4442
1.43738
1.43042
1.42394
1.4183
1.41364
1.40995
1.40713
1.40503
1.40352
1.40244
1.4017
1.40118
1.40083
1.40058
1.40042
1.4003
1.40022
1.40016
1.40012
1.40009
1.40007
1.40005
1.40004
1.40003
1.45638
1.45678
1.45425
1.44926
1.44242
1.43435
1.42558
1.41658
1.40771
1.39928
1.39153
1.38459
1.37852
1.37339
1.36922
1.36592
1.36329
1.36126
1.35976
1.35861
1.35763
1.35682
1.35612
1.35541
1.3547
1.35416
1.35384
1.35368
1.35372
1.35412
1.35504
1.35646
1.35839
1.36097
1.36444
1.36891
1.37431
1.3805
1.38744
1.39522
1.404
1.41375
1.42414
1.43441
1.44355
1.45049
1.45442
1.45502
1.45254
1.44765
1.44128
1.43433
1.42755
1.42143
1.41623
1.412
1.4087
1.40621
1.40438
1.40306
1.40213
1.40148
1.40103
1.40073
1.40052
1.40038
1.40027
1.4002
1.40015
1.40011
1.40008
1.40006
1.40005
1.40003
1.40003
1.45489
1.45693
1.45603
1.45253
1.44695
1.43988
1.43188
1.42341
1.41486
1.40657
1.39879
1.39164
1.38527
1.37979
1.37518
1.37133
1.36819
1.36575
1.36387
1.36237
1.36114
1.36017
1.35936
1.35862
1.35801
1.35762
1.35744
1.35742
1.35769
1.35841
1.35965
1.36139
1.3637
1.36675
1.3707
1.37559
1.3813
1.38773
1.39487
1.40283
1.41171
1.42134
1.43122
1.44053
1.44822
1.45338
1.45543
1.45432
1.45051
1.44478
1.43806
1.43115
1.42467
1.41898
1.41425
1.41046
1.40755
1.40537
1.40377
1.40264
1.40184
1.40129
1.4009
1.40064
1.40046
1.40034
1.40025
1.40018
1.40014
1.4001
1.40008
1.40006
1.40004
1.40003
1.40002
1.45251
1.45611
1.45689
1.455
1.45084
1.44496
1.43789
1.43011
1.42205
1.41404
1.40634
1.39914
1.39262
1.38685
1.38184
1.37755
1.37401
1.37118
1.36888
1.36699
1.36549
1.36434
1.36339
1.36262
1.36208
1.36181
1.36174
1.36192
1.36247
1.36353
1.36511
1.3672
1.3699
1.37339
1.37776
1.38296
1.3889
1.39548
1.40275
1.4108
1.41961
1.42888
1.43799
1.44602
1.45202
1.45526
1.45543
1.45275
1.44782
1.4415
1.43463
1.42792
1.42184
1.41663
1.41238
1.40903
1.40649
1.4046
1.40323
1.40226
1.40158
1.40111
1.40079
1.40056
1.40041
1.4003
1.40022
1.40017
1.40012
1.40009
1.40007
1.40005
1.40004
1.40003
1.40002
1.44926
1.45426
1.45671
1.4565
1.45391
1.44938
1.44342
1.43652
1.42911
1.42154
1.41408
1.40698
1.40042
1.39447
1.38917
1.38459
1.38073
1.3775
1.3748
1.37259
1.37086
1.36951
1.36842
1.36761
1.36712
1.36692
1.36698
1.36736
1.36822
1.3696
1.37148
1.3739
1.37697
1.38083
1.38552
1.39095
1.397
1.40365
1.41096
1.41896
1.4275
1.43615
1.44415
1.45062
1.45473
1.456
1.45439
1.45033
1.44456
1.43789
1.43109
1.42471
1.4191
1.41441
1.41064
1.40772
1.40552
1.40391
1.40274
1.40192
1.40135
1.40095
1.40068
1.40049
1.40036
1.40027
1.4002
1.40015
1.40011
1.40009
1.40006
1.40005
1.40004
1.40003
1.40002
1.44524
1.45139
1.45538
1.45688
1.45596
1.45294
1.44827
1.44242
1.43584
1.42887
1.42183
1.41499
1.40851
1.40252
1.39709
1.39232
1.38819
1.38464
1.38164
1.37921
1.37726
1.3757
1.37448
1.37365
1.37319
1.37305
1.37323
1.37384
1.37496
1.37659
1.37873
1.38144
1.38483
1.38899
1.39388
1.3994
1.40548
1.41211
1.41934
1.42711
1.43513
1.44283
1.44941
1.45406
1.45617
1.45552
1.45232
1.44717
1.44083
1.43407
1.42751
1.42158
1.4165
1.41234
1.40905
1.40653
1.40466
1.40329
1.40231
1.40162
1.40115
1.40082
1.40059
1.40043
1.40032
1.40024
1.40018
1.40013
1.4001
1.40008
1.40006
1.40004
1.40003
1.40003
1.40002
1.44061
1.44757
1.4529
1.45604
1.45683
1.45544
1.45223
1.44762
1.44203
1.43585
1.42941
1.42297
1.41673
1.41083
1.40542
1.40057
1.39627
1.39252
1.38935
1.38673
1.38458
1.38285
1.38155
1.3807
1.38025
1.38016
1.38047
1.38128
1.38261
1.38444
1.38678
1.38972
1.39336
1.3977
1.40267
1.40818
1.41419
1.4207
1.4277
1.435
1.44218
1.44859
1.45347
1.45614
1.45624
1.45383
1.44932
1.44339
1.43678
1.43016
1.424
1.4186
1.41408
1.41045
1.40762
1.40547
1.40389
1.40275
1.40193
1.40136
1.40097
1.40069
1.4005
1.40037
1.40028
1.40021
1.40016
1.40012
1.40009
1.40007
1.40005
1.40004
1.40003
1.40002
1.40002
1.43563
1.44296
1.4493
1.4539
1.45637
1.45668
1.45506
1.45185
1.44745
1.44224
1.43656
1.43069
1.42485
1.41923
1.41398
1.40917
1.40482
1.40099
1.39772
1.39497
1.39268
1.39086
1.38953
1.38866
1.3882
1.38815
1.38859
1.38955
1.39103
1.39299
1.39549
1.3986
1.40238
1.40678
1.41171
1.4171
1.42293
1.42918
1.43573
1.44227
1.44829
1.4531
1.45604
1.45668
1.45491
1.45101
1.44553
1.43917
1.43258
1.42628
1.42064
1.41582
1.41187
1.40875
1.40634
1.40454
1.40322
1.40228
1.40161
1.40114
1.40081
1.40059
1.40043
1.40032
1.40024
1.40018
1.40014
1.40011
1.40008
1.40006
1.40005
1.40004
1.40003
1.40002
1.40002
1.43058
1.43784
1.44474
1.45048
1.45449
1.4565
1.45655
1.45489
1.45184
1.44778
1.44304
1.43792
1.43266
1.42747
1.4225
1.41785
1.4136
1.40983
1.40654
1.40372
1.40138
1.39954
1.3982
1.39731
1.39685
1.39687
1.39741
1.39847
1.40002
1.40207
1.40467
1.40787
1.41168
1.41601
1.42079
1.42595
1.43146
1.43725
1.44308
1.44854
1.45305
1.45602
1.45694
1.45564
1.45226
1.44723
1.44116
1.43469
1.42835
1.42255
1.4175
1.41328
1.40989
1.40724
1.40523
1.40373
1.40265
1.40187
1.40132
1.40094
1.40068
1.4005
1.40037
1.40028
1.40021
1.40016
1.40012
1.40009
1.40007
1.40006
1.40004
1.40003
1.40002
1.40002
1.40001
1.4257
1.43254
1.43952
1.44597
1.4512
1.45477
1.4565
1.45648
1.45495
1.45221
1.44859
1.44438
1.43987
1.43527
1.43073
1.42639
1.42238
1.41876
1.41555
1.41277
1.41047
1.40865
1.40732
1.40643
1.40601
1.40609
1.40669
1.40779
1.40937
1.41146
1.4141
1.4173
1.42101
1.42515
1.42965
1.43445
1.43946
1.44453
1.44932
1.45337
1.45612
1.45711
1.45609
1.4531
1.44847
1.44272
1.43644
1.43015
1.42427
1.41905
1.41463
1.411
1.40814
1.40592
1.40426
1.40304
1.40215
1.40153
1.40109
1.40078
1.40057
1.40042
1.40031
1.40024
1.40018
1.40014
1.40011
1.40008
1.40006
1.40005
1.40004
1.40003
1.40002
1.40002
1.40001
1.4212
1.42735
1.43402
1.44068
1.4467
1.45152
1.45479
1.45642
1.45649
1.45522
1.45289
1.44979
1.4462
1.44234
1.4384
1.43454
1.43088
1.42751
1.42449
1.42185
1.41966
1.41792
1.41662
1.41577
1.4154
1.41554
1.41617
1.41727
1.41884
1.42091
1.4235
1.42658
1.43008
1.4339
1.43798
1.44223
1.44651
1.45057
1.45401
1.45637
1.45723
1.45631
1.45358
1.44928
1.44384
1.43778
1.4316
1.42572
1.42042
1.41585
1.41205
1.409
1.40661
1.40479
1.40344
1.40245
1.40174
1.40123
1.40088
1.40064
1.40047
1.40035
1.40027
1.4002
1.40016
1.40012
1.40009
1.40007
1.40006
1.40004
1.40003
1.40003
1.40002
1.40002
1.40001
1.4172
1.42253
1.42859
1.43501
1.4413
1.44694
1.45145
1.45457
1.45623
1.45652
1.45562
1.4538
1.4513
1.44836
1.44518
1.44194
1.43877
1.43578
1.43305
1.43067
1.42865
1.42703
1.42582
1.42505
1.42475
1.42492
1.42555
1.42661
1.42813
1.43012
1.43256
1.43539
1.43853
1.44189
1.44538
1.44886
1.45213
1.45488
1.45672
1.45728
1.45629
1.45369
1.44964
1.44448
1.43867
1.43267
1.42687
1.42156
1.41691
1.413
1.4098
1.40727
1.40531
1.40383
1.40274
1.40195
1.40139
1.40099
1.40072
1.40052
1.40039
1.40029
1.40022
1.40017
1.40013
1.4001
1.40008
1.40006
1.40005
1.40004
1.40003
1.40002
1.40002
1.40001
1.40001
1.41376
1.41824
1.4235
1.42937
1.43549
1.44142
1.44672
1.45102
1.45409
1.45589
1.45649
1.45606
1.45481
1.45294
1.45069
1.44822
1.44569
1.44321
1.4409
1.43884
1.43708
1.43565
1.43459
1.43393
1.4337
1.43388
1.43447
1.43547
1.43689
1.4387
1.44087
1.44331
1.44594
1.44866
1.45135
1.45382
1.45582
1.45706
1.4572
1.45602
1.45343
1.44955
1.44464
1.43909
1.43331
1.42765
1.42241
1.41776
1.41378
1.4105
1.40786
1.40579
1.40421
1.40303
1.40217
1.40154
1.4011
1.40079
1.40058
1.40043
1.40032
1.40024
1.40019
1.40015
1.40012
1.40009
1.40007
1.40006
1.40004
1.40003
1.40003
1.40002
1.40002
1.40001
1.40001
1.41086
1.41454
1.41897
1.42408
1.42968
1.43547
1.44105
1.44605
1.45019
1.45329
1.4553
1.45627
1.45634
1.45569
1.45451
1.45296
1.45121
1.44939
1.44761
1.44598
1.44454
1.44338
1.44251
1.44199
1.44182
1.44201
1.44254
1.44342
1.44464
1.44617
1.44794
1.44985
1.45181
1.4537
1.45538
1.45663
1.45721
1.45687
1.45541
1.45276
1.44899
1.44431
1.43902
1.43349
1.42804
1.42294
1.41835
1.41439
1.41106
1.40836
1.40621
1.40455
1.4033
1.40237
1.40169
1.40121
1.40087
1.40063
1.40046
1.40035
1.40026
1.4002
1.40016
1.40012
1.4001
1.40008
1.40006
1.40005
1.40004
1.40003
1.40002
1.40002
1.40001
1.40001
1.40001
1.40845
1.41142
1.41506
1.41936
1.42425
1.42954
1.43495
1.44018
1.44492
1.44895
1.4521
1.45433
1.45569
1.45629
1.45625
1.45572
1.45486
1.45381
1.45269
1.45158
1.45057
1.44973
1.4491
1.44873
1.44862
1.44879
1.44923
1.44994
1.45088
1.452
1.45323
1.45447
1.45561
1.45652
1.45704
1.45698
1.45615
1.45439
1.45164
1.44794
1.44346
1.43845
1.43321
1.42802
1.42312
1.41867
1.41477
1.41147
1.40875
1.40656
1.40485
1.40354
1.40255
1.40183
1.40131
1.40094
1.40068
1.4005
1.40037
1.40028
1.40022
1.40017
1.40013
1.40011
1.40008
1.40007
1.40005
1.40004
1.40003
1.40003
1.40002
1.40002
1.40001
1.40001
1.40001
1.40651
1.40886
1.41178
1.41531
1.41941
1.42401
1.42894
1.43397
1.43885
1.44333
1.44722
1.45042
1.45286
1.45458
1.45565
1.45618
1.45627
1.45605
1.45564
1.45514
1.45462
1.45416
1.45381
1.4536
1.45356
1.45369
1.45399
1.45446
1.45503
1.45565
1.45624
1.4567
1.45693
1.4568
1.45617
1.45488
1.45284
1.44998
1.44636
1.44209
1.43738
1.43246
1.42758
1.42293
1.41868
1.41492
1.41169
1.409
1.40681
1.40507
1.40373
1.40271
1.40195
1.4014
1.401
1.40072
1.40053
1.40039
1.40029
1.40022
1.40018
1.40014
1.40011
1.40009
1.40007
1.40006
1.40004
1.40004
1.40003
1.40002
1.40002
1.40001
1.40001
1.40001
1.40001
1.40495
1.40679
1.4091
1.41192
1.41528
1.41912
1.42338
1.42792
1.43254
1.43705
1.44125
1.445
1.44819
1.45078
1.45278
1.45423
1.45522
1.45583
1.45615
1.45627
1.45627
1.45621
1.45614
1.45611
1.45613
1.45621
1.45635
1.45651
1.45666
1.45672
1.45664
1.45631
1.45565
1.45454
1.45291
1.45065
1.44775
1.44423
1.4402
1.43581
1.43125
1.42671
1.42238
1.41838
1.41481
1.41171
1.4091
1.40695
1.40522
1.40387
1.40283
1.40205
1.40147
1.40105
1.40076
1.40055
1.4004
1.4003
1.40023
1.40018
1.40014
1.40011
1.40009
1.40007
1.40006
1.40005
1.40004
1.40003
1.40002
1.40002
1.40002
1.40001
1.40001
1.40001
1.40001
1.40372
1.40514
1.40694
1.40916
1.41184
1.41496
1.41851
1.4224
1.42652
1.43071
1.43482
1.43871
1.44225
1.44535
1.44798
1.45014
1.45185
1.45316
1.45414
1.45483
1.45531
1.45564
1.45585
1.45598
1.45605
1.45606
1.45602
1.45588
1.4556
1.45513
1.45442
1.45339
1.45199
1.45013
1.44777
1.44491
1.44156
1.43781
1.43377
1.4296
1.42546
1.42148
1.41778
1.41445
1.41153
1.40903
1.40696
1.40528
1.40394
1.4029
1.40211
1.40152
1.40109
1.40078
1.40057
1.40042
1.40031
1.40023
1.40018
1.40014
1.40012
1.40009
1.40008
1.40006
1.40005
1.40004
1.40003
1.40003
1.40002
1.40002
1.40001
1.40001
1.40001
1.40001
1.40001
1.40276
1.40385
1.40523
1.40695
1.40904
1.41153
1.4144
1.41761
1.42109
1.42477
1.42852
1.43221
1.43573
1.43899
1.44192
1.44448
1.44665
1.44845
1.44991
1.45105
1.45193
1.45257
1.45301
1.45328
1.45338
1.45333
1.4531
1.45269
1.45206
1.45117
1.44997
1.44844
1.44652
1.44421
1.44148
1.43837
1.43495
1.43132
1.42757
1.42385
1.42026
1.4169
1.41385
1.41115
1.40881
1.40685
1.40524
1.40394
1.40293
1.40214
1.40155
1.40112
1.4008
1.40058
1.40042
1.40031
1.40023
1.40018
1.40014
1.40012
1.40009
1.40008
1.40006
1.40005
1.40004
1.40003
1.40003
1.40002
1.40002
1.40001
1.40001
1.40001
1.40001
1.40001
1.40001
1.40204
1.40286
1.4039
1.40522
1.40683
1.40876
1.41102
1.4136
1.41645
1.41953
1.42276
1.42604
1.42929
1.4324
1.43532
1.43797
1.44033
1.44238
1.4441
1.44552
1.44664
1.44749
1.44809
1.44845
1.44857
1.44846
1.44811
1.44751
1.44663
1.44546
1.44398
1.44217
1.44001
1.43753
1.43475
1.43172
1.42852
1.42522
1.42194
1.41877
1.41578
1.41303
1.41058
1.40844
1.40662
1.40511
1.40388
1.4029
1.40213
1.40155
1.40112
1.4008
1.40058
1.40042
1.40031
1.40023
1.40018
1.40014
1.40011
1.40009
1.40008
1.40006
1.40005
1.40004
1.40004
1.40003
1.40002
1.40002
1.40002
1.40001
1.40001
1.40001
1.40001
1.40001
1.40001
1.40149
1.4021
1.40289
1.40388
1.4051
1.40658
1.40833
1.41034
1.41261
1.4151
1.41777
1.42054
1.42335
1.42613
1.42881
1.43133
1.43363
1.43569
1.43748
1.43899
1.44021
1.44116
1.44183
1.44222
1.44235
1.44221
1.44179
1.44109
1.44009
1.43881
1.43723
1.43536
1.43321
1.43081
1.42821
1.42546
1.42264
1.41981
1.41706
1.41445
1.41203
1.40985
1.40793
1.40628
1.40488
1.40374
1.40281
1.40209
1.40153
1.4011
1.40079
1.40057
1.40041
1.4003
1.40022
1.40017
1.40013
1.40011
1.40009
1.40007
1.40006
1.40005
1.40004
1.40004
1.40003
1.40002
1.40002
1.40002
1.40001
1.40001
1.40001
1.40001
1.40001
1.40001
1.40001
1.40109
1.40153
1.40211
1.40285
1.40377
1.40489
1.40621
1.40776
1.40952
1.41148
1.41361
1.41586
1.4182
1.42055
1.42286
1.42509
1.42718
1.42908
1.43077
1.43222
1.43341
1.43435
1.43502
1.43542
1.43553
1.43537
1.43493
1.43422
1.43323
1.43197
1.43045
1.42868
1.42671
1.42455
1.42227
1.41991
1.41754
1.41521
1.41298
1.4109
1.409
1.40731
1.40584
1.40458
1.40353
1.40268
1.402
1.40147
1.40107
1.40077
1.40055
1.40039
1.40028
1.40021
1.40016
1.40012
1.4001
1.40008
1.40007
1.40006
1.40005
1.40004
1.40003
1.40003
1.40002
1.40002
1.40002
1.40001
1.40001
1.40001
1.40001
1.40001
1.40001
1.40001
1.40001
1.40078
1.40111
1.40154
1.40209
1.40277
1.4036
1.40459
1.40576
1.4071
1.4086
1.41026
1.41204
1.4139
1.41581
1.41773
1.41959
1.42137
1.42302
1.42451
1.42581
1.42689
1.42774
1.42835
1.42871
1.42881
1.42866
1.42824
1.42757
1.42666
1.42552
1.42416
1.4226
1.42089
1.41906
1.41715
1.41521
1.41329
1.41143
1.40968
1.40806
1.4066
1.40531
1.40421
1.40327
1.4025
1.40188
1.40139
1.40101
1.40073
1.40052
1.40037
1.40026
1.40019
1.40014
1.40011
1.40009
1.40007
1.40006
1.40005
1.40004
1.40004
1.40003
1.40003
1.40002
1.40002
1.40002
1.40001
1.40001
1.40001
1.40001
1.40001
1.40001
1.40001
1.40001
1.40001
1.40057
1.40081
1.40112
1.40152
1.40202
1.40263
1.40336
1.40423
1.40523
1.40636
1.40763
1.40899
1.41044
1.41194
1.41346
1.41497
1.41642
1.41778
1.41902
1.42012
1.42104
1.42177
1.42229
1.4226
1.42268
1.42254
1.42217
1.42159
1.4208
1.41981
1.41866
1.41736
1.41594
1.41444
1.4129
1.41136
1.40985
1.40841
1.40707
1.40584
1.40474
1.40378
1.40297
1.40228
1.40173
1.40128
1.40094
1.40067
1.40048
1.40034
1.40024
1.40017
1.40012
1.40009
1.40007
1.40006
1.40005
1.40005
1.40004
1.40004
1.40003
1.40003
1.40002
1.40002
1.40002
1.40001
1.40001
1.40001
1.40001
1.40001
1.40001
1.40001
1.40001
1.40001
1.40001
1.40041
1.40059
1.40081
1.4011
1.40146
1.40191
1.40244
1.40308
1.40382
1.40466
1.4056
1.40663
1.40773
1.40888
1.41005
1.41122
1.41237
1.41345
1.41445
1.41533
1.41608
1.41667
1.4171
1.41734
1.4174
1.41728
1.41697
1.41648
1.41582
1.41501
1.41407
1.41302
1.41189
1.41071
1.4095
1.40831
1.40715
1.40606
1.40505
1.40414
1.40333
1.40263
1.40204
1.40155
1.40116
1.40085
1.40061
1.40043
1.4003
1.40021
1.40015
1.40011
1.40008
1.40006
1.40005
1.40004
1.40004
1.40003
1.40003
1.40003
1.40002
1.40002
1.40002
1.40002
1.40001
1.40001
1.40001
1.40001
1.40001
1.40001
1.40001
1.40001
1.40001
1.40001
1.40001
1.40031
1.40043
1.40059
1.4008
1.40106
1.40138
1.40177
1.40223
1.40277
1.40338
1.40407
1.40483
1.40565
1.40651
1.40739
1.40828
1.40916
1.40999
1.41076
1.41144
1.41203
1.41249
1.41282
1.41301
1.41305
1.41295
1.41269
1.41229
1.41177
1.41113
1.41038
1.40956
1.40868
1.40777
1.40686
1.40595
1.40509
1.40427
1.40353
1.40286
1.40228
1.40178
1.40136
1.40102
1.40075
1.40054
1.40038
1.40026
1.40018
1.40012
1.40008
1.40006
1.40005
1.40004
1.40003
1.40003
1.40003
1.40003
1.40002
1.40002
1.40002
1.40002
1.40002
1.40001
1.40001
1.40001
1.40001
1.40001
1.40001
1.40001
1.40001
1.40001
1.40001
1.40001
1.40001
1.40023
1.40032
1.40044
1.40058
1.40077
1.401
1.40128
1.40161
1.40199
1.40244
1.40294
1.40349
1.40408
1.40472
1.40537
1.40603
1.40668
1.4073
1.40788
1.4084
1.40883
1.40918
1.40943
1.40957
1.40959
1.4095
1.4093
1.40898
1.40857
1.40807
1.4075
1.40687
1.40621
1.40552
1.40484
1.40417
1.40353
1.40294
1.40241
1.40193
1.40151
1.40116
1.40087
1.40064
1.40046
1.40032
1.40022
1.40015
1.40009
1.40006
1.40004
1.40003
1.40002
1.40002
1.40002
1.40002
1.40002
1.40002
1.40002
1.40002
1.40002
1.40001
1.40001
1.40001
1.40001
1.40001
1.40001
1.40001
1.40001
1.40001
1.40001
1.40001
1.40001
1.40001
1.40001
1.40017
1.40024
1.40032
1.40043
1.40056
1.40073
1.40092
1.40116
1.40143
1.40175
1.40211
1.4025
1.40293
1.40338
1.40385
1.40433
1.40481
1.40526
1.40568
1.40606
1.40638
1.40664
1.40682
1.40691
1.40692
1.40684
1.40668
1.40644
1.40612
1.40574
1.40531
1.40484
1.40434
1.40384
1.40334
1.40285
1.40239
1.40197
1.40159
1.40126
1.40097
1.40073
1.40054
1.40038
1.40026
1.40017
1.40011
1.40007
1.40004
1.40002
1.40001
1.40001
1.40001
1.40001
1.40001
1.40001
1.40001
1.40001
1.40001
1.40001
1.40001
1.40001
1.40001
1.40001
1.40001
1.40001
1.40001
1.40001
1.40001
1.40001
1.40001
1.40001
1.40001
1.40001
1.40001
1.40013
1.40018
1.40024
1.40032
1.40042
1.40053
1.40067
1.40084
1.40103
1.40126
1.40151
1.40178
1.40209
1.40241
1.40274
1.40308
1.40342
1.40374
1.40405
1.40431
1.40454
1.40472
1.40484
1.4049
1.4049
1.40483
1.40471
1.40452
1.40428
1.404
1.40368
1.40333
1.40297
1.4026
1.40224
1.4019
1.40157
1.40128
1.40101
1.40078
1.40059
1.40043
1.4003
1.4002
1.40013
1.40008
1.40004
1.40002
1.4
1.4
1.4
1.4
1.4
1.4
1.40001
1.40001
1.40001
1.40001
1.40001
1.40001
1.40001
1.40001
1.40001
1.40001
1.40001
1.40001
1.40001
1.40001
1.40001
1.40001
1.40001
1.40001
1.40001
1.40001
1.40001
1.40011
1.40014
1.40018
1.40024
1.40031
1.40039
1.40049
1.40061
1.40075
1.4009
1.40108
1.40127
1.40148
1.4017
1.40194
1.40218
1.40241
1.40263
1.40284
1.40303
1.40319
1.40331
1.40339
1.40342
1.40341
1.40336
1.40326
1.40311
1.40293
1.40273
1.40249
1.40224
1.40198
1.40172
1.40146
1.40122
1.40099
1.40079
1.40061
1.40046
1.40033
1.40023
1.40015
1.40009
1.40004
1.40002
1.4
1.39999
1.39998
1.39998
1.39999
1.39999
1.4
1.4
1.4
1.40001
1.40001
1.40001
1.40001
1.40001
1.40001
1.40001
1.40001
1.40001
1.40001
1.40001
1.40001
1.40001
1.40001
1.40001
1.40001
1.40001
1.40001
1.40001
1.40001
1.40008
1.40011
1.40015
1.40018
1.40024
1.4003
1.40037
1.40045
1.40054
1.40065
1.40077
1.40091
1.40105
1.4012
1.40136
1.40153
1.40169
1.40184
1.40198
1.4021
1.40221
1.40229
1.40233
1.40235
1.40234
1.40229
1.40221
1.40211
1.40197
1.40182
1.40164
1.40147
1.40128
1.4011
1.40092
1.40075
1.4006
1.40046
1.40034
1.40024
1.40016
1.4001
1.40005
1.40001
1.39999
1.39998
1.39997
1.39997
1.39997
1.39998
1.39998
1.39999
1.39999
1.4
1.4
1.4
1.40001
1.40001
1.40001
1.40001
1.40001
1.40001
1.40001
1.40001
1.40001
1.40001
1.40001
1.40001
1.40001
1.40001
1.40001
1.40001
1.40001
1.40001
1.40001
1.40007
1.40009
1.40011
1.40015
1.40018
1.40022
1.40028
1.40033
1.4004
1.40048
1.40056
1.40065
1.40075
1.40086
1.40096
1.40107
1.40117
1.40127
1.40137
1.40145
1.40151
1.40156
1.40159
1.40159
1.40158
1.40153
1.40147
1.40139
1.40129
1.40118
1.40106
1.40093
1.4008
1.40067
1.40055
1.40044
1.40033
1.40024
1.40017
1.4001
1.40006
1.40002
1.39999
1.39997
1.39996
1.39996
1.39996
1.39996
1.39997
1.39998
1.39998
1.39999
1.39999
1.4
1.4
1.4
1.4
1.40001
1.40001
1.40001
1.40001
1.40001
1.40001
1.40001
1.40001
1.40001
1.40001
1.40001
1.40001
1.40001
1.40001
1.40001
1.4
1.40001
1.40001
1.40006
1.40007
1.40009
1.40011
1.40014
1.40017
1.40021
1.40025
1.4003
1.40035
1.40041
1.40047
1.40053
1.4006
1.40068
1.40075
1.40082
1.40088
1.40094
1.40099
1.40103
1.40105
1.40107
1.40106
1.40104
1.40101
1.40096
1.4009
1.40082
1.40074
1.40066
1.40057
1.40048
1.40039
1.40031
1.40023
1.40016
1.40011
1.40006
1.40002
1.39999
1.39997
1.39996
1.39995
1.39995
1.39995
1.39996
1.39996
1.39997
1.39998
1.39998
1.39999
1.39999
1.4
1.4
1.4
1.4
1.4
1.40001
1.40001
1.40001
1.40001
1.40001
1.40001
1.40001
1.40001
1.40001
1.40001
1.40001
1.40001
1.40001
1.40001
1.40001
1.40001
1.40001
1.40005
1.40006
1.40007
1.40009
1.40011
1.40014
1.40016
1.40019
1.40023
1.40026
1.4003
1.40034
1.40039
1.40044
1.40048
1.40052
1.40057
1.40061
1.40065
1.40067
1.40069
1.4007
1.40071
1.4007
1.40068
1.40065
1.40061
1.40057
1.40051
1.40045
1.40039
1.40033
1.40026
1.40021
1.40015
1.4001
1.40006
1.40002
1.39999
1.39997
1.39996
1.39995
1.39995
1.39994
1.39995
1.39995
1.39996
1.39996
1.39997
1.39998
1.39998
1.39999
1.39999
1.4
1.4
1.4
1.4
1.4
1.40001
1.40001
1.40001
1.40001
1.40001
1.40001
1.40001
1.40001
1.40001
1.40001
1.40001
1.40001
1.4
1.40001
1.4
1.40001
1.40001
1.40004
1.40005
1.40006
1.40007
1.40009
1.40011
1.40013
1.40015
1.40017
1.4002
1.40023
1.40025
1.40028
1.40032
1.40035
1.40037
1.4004
1.40042
1.40044
1.40046
1.40047
1.40047
1.40046
1.40045
1.40044
1.40041
1.40038
1.40034
1.4003
1.40026
1.40022
1.40017
1.40013
1.40009
1.40006
1.40002
1.4
1.39998
1.39996
1.39995
1.39994
1.39994
1.39994
1.39994
1.39995
1.39996
1.39996
1.39997
1.39997
1.39998
1.39999
1.39999
1.39999
1.4
1.4
1.4
1.4
1.4
1.4
1.4
1.40001
1.40001
1.40001
1.40001
1.40001
1.40001
1.40001
1.40001
1.40001
1.40001
1.40001
1.40001
1.40001
1.40001
1.40001
1.40003
1.40003
1.40005
1.40007
1.40007
1.40008
1.4001
1.40012
1.40013
1.40015
1.40017
1.40019
1.40021
1.40023
1.40025
1.40027
1.40028
1.40029
1.4003
1.40031
1.40032
1.40032
1.40031
1.40029
1.40028
1.40025
1.40023
1.4002
1.40017
1.40014
1.40011
1.40008
1.40005
1.40002
1.4
1.39998
1.39997
1.39995
1.39994
1.39994
1.39994
1.39994
1.39994
1.39995
1.39995
1.39996
1.39997
1.39997
1.39998
1.39998
1.39999
1.39999
1.4
1.4
1.4
1.4
1.4
1.4
1.4
1.40001
1.40001
1.4
1.40001
1.40001
1.40001
1.40001
1.40001
1.40001
1.40001
1.40001
1.4
1.4
1.4
1.40001
1.40001
1.40003
1.40004
1.40004
1.40004
1.40006
1.40007
1.40008
1.40009
1.40011
1.40012
1.40013
1.40015
1.40016
1.40017
1.40018
1.40019
1.4002
1.40021
1.40022
1.40021
1.40021
1.40021
1.4002
1.40019
1.40017
1.40016
1.40014
1.40011
1.40009
1.40007
1.40004
1.40002
1.4
1.39999
1.39997
1.39996
1.39995
1.39994
1.39994
1.39994
1.39994
1.39994
1.39995
1.39995
1.39996
1.39997
1.39997
1.39998
1.39998
1.39999
1.39999
1.39999
1.4
1.4
1.4
1.4
1.4
1.4
1.4
1.4
1.40001
1.40001
1.40001
1.40001
1.4
1.4
1.4
1.40001
1.40001
1.40001
1.40001
1.40001
1.40001
1.40001
1.40001
1.40002
1.40003
1.40004
1.40004
1.40004
1.40006
1.40007
1.40008
1.40008
1.40009
1.4001
1.40011
1.40012
1.40013
1.40014
1.40014
1.40015
1.40015
1.40015
1.40015
1.40015
1.40014
1.40013
1.40012
1.40011
1.40009
1.40008
1.40006
1.40004
1.40003
1.40001
1.39999
1.39998
1.39997
1.39996
1.39995
1.39995
1.39994
1.39994
1.39994
1.39995
1.39995
1.39996
1.39996
1.39997
1.39997
1.39998
1.39998
1.39999
1.39999
1.39999
1.4
1.4
1.4
1.4
1.4
1.4
1.4
1.4
1.4
1.40001
1.40001
1.40001
1.40001
1.40001
1.40001
1.40001
1.40001
1.4
1.4
1.4
1.4
1.40001
1.40001
1.40001
1.40002
1.40002
1.40002
1.40003
1.40004
1.40005
1.40005
1.40006
1.40007
1.40008
1.40008
1.40009
1.40009
1.4001
1.40011
1.40011
1.40011
1.40011
1.40011
1.40011
1.4001
1.4001
1.40009
1.40008
1.40007
1.40005
1.40004
1.40003
1.40001
1.4
1.39999
1.39998
1.39997
1.39996
1.39996
1.39995
1.39995
1.39995
1.39995
1.39995
1.39996
1.39996
1.39996
1.39997
1.39997
1.39998
1.39998
1.39999
1.39999
1.39999
1.4
1.4
1.4
1.4
1.4
1.4
1.4
1.4
1.4
1.4
1.4
1.4
1.4
1.40001
1.40001
1.40001
1.40001
1.40001
1.40001
1.40001
1.40001
1.40001
1.40001
1.40001
1.4
1.40001
1.40002
1.40002
1.40003
1.40003
1.40004
1.40004
1.40005
1.40005
1.40006
1.40006
1.40007
1.40007
1.40008
1.40008
1.40008
1.40008
1.40008
1.40008
1.40008
1.40007
1.40006
1.40006
1.40005
1.40004
1.40003
1.40002
1.40001
1.4
1.39999
1.39998
1.39997
1.39997
1.39996
1.39996
1.39996
1.39996
1.39996
1.39996
1.39996
1.39996
1.39997
1.39997
1.39998
1.39998
1.39998
1.39999
1.39999
1.39999
1.4
1.4
1.4
1.4
1.4
1.4
1.4
1.4
1.4
1.4
1.40001
1.40001
1.40001
1.4
1.4
1.4
1.4
1.4
1.40001
1.40001
1.40001
1.40001
1.40001
1.40001
1.40001
1.40001
1.40001
1.40001
1.40002
1.40002
1.40003
1.40003
1.40003
1.40004
1.40004
1.40005
1.40005
1.40005
1.40006
1.40006
1.40006
1.40006
1.40006
1.40006
1.40006
1.40006
1.40005
1.40005
1.40004
1.40003
1.40003
1.40002
1.40001
1.4
1.39999
1.39999
1.39998
1.39998
1.39997
1.39997
1.39996
1.39996
1.39996
1.39997
1.39997
1.39997
1.39997
1.39997
1.39998
1.39998
1.39998
1.39999
1.39999
1.39999
1.4
1.4
1.4
1.4
1.4
1.4
1.4
1.4
1.4
1.4
1.4
1.4
1.4
1.40001
1.40001
1.40001
1.40001
1.40001
1.40001
1.40001
1.4
1.40001
1.40001
1.40001
1.40001
1.40001
1.4
1.40001
1.40002
1.40001
1.40002
1.40002
1.40003
1.40003
1.40003
1.40003
1.40004
1.40004
1.40004
1.40005
1.40005
1.40005
1.40005
1.40005
1.40005
1.40005
1.40004
1.40004
1.40004
1.40003
1.40002
1.40002
1.40001
1.4
1.4
1.39999
1.39999
1.39998
1.39998
1.39997
1.39997
1.39997
1.39997
1.39997
1.39997
1.39997
1.39998
1.39998
1.39998
1.39998
1.39999
1.39999
1.39999
1.39999
1.4
1.4
1.4
1.4
1.4
1.4
1.4
1.4
1.4
1.4
1.4
1.4
1.4
1.4
1.4
1.4
1.4
1.4
1.40001
1.40001
1.40001
1.40001
1.40001
1.40001
1.40001
1.40001
1.40001
1.40001
1.40001
1.40001
1.40001
1.40002
1.40002
1.40002
1.40002
1.40003
1.40003
1.40003
1.40003
1.40003
1.40004
1.40004
1.40004
1.40004
1.40004
1.40004
1.40004
1.40003
1.40003
1.40002
1.40002
1.40002
1.40001
1.40001
1.4
1.4
1.39999
1.39999
1.39999
1.39998
1.39998
1.39998
1.39998
1.39998
1.39998
1.39998
1.39998
1.39998
1.39998
1.39998
1.39999
1.39999
1.39999
1.4
1.4
1.4
1.4
1.4
1.4
1.4
1.4
1.4
1.4
1.4
1.4
1.4
1.4
1.4
1.40001
1.40001
1.40001
1.40001
1.4
1.4
1.4
1.4
1.4
1.40001
1.40001
1.40001
1.40001
1.40001
1.4
1.40001
1.40001
1.40001
1.40001
1.40001
1.40002
1.40002
1.40002
1.40002
1.40002
1.40003
1.40003
1.40003
1.40003
1.40003
1.40003
1.40003
1.40003
1.40003
1.40003
1.40002
1.40002
1.40001
1.40001
1.40001
1.40001
1.4
1.4
1.39999
1.39999
1.39999
1.39998
1.39998
1.39998
1.39998
1.39998
1.39998
1.39998
1.39999
1.39999
1.39999
1.39999
1.39999
1.39999
1.39999
1.4
1.4
1.4
1.4
1.4
1.4
1.4
1.4
1.4
1.4
1.4
1.4
1.4
1.4
1.4
1.4
1.4
1.40001
1.40001
1.40001
1.40001
1.40001
1.40001
1.40001
1.40001
1.40001
1.40001
1.40001
1.40001
1.40001
1.40001
1.40001
1.40001
1.40001
1.40001
1.40001
1.40001
1.40002
1.40002
1.40002
1.40002
1.40002
1.40002
1.40002
1.40002
1.40002
1.40002
1.40002
1.40002
1.40002
1.40002
1.40002
1.40002
1.40001
1.40001
1.4
1.4
1.4
1.4
1.39999
1.39999
1.39999
1.39999
1.39999
1.39999
1.39999
1.39999
1.39999
1.39999
1.39999
1.39999
1.39999
1.4
1.4
1.4
1.4
1.4
1.4
1.4
1.4
1.4
1.4
1.4
1.4
1.4
1.4
1.4
1.40001
1.4
1.4
1.4
1.4
1.4
1.4
1.4
1.4
1.4
1.40001
1.40001
1.40001
1.40001
1.40001
1.40001
1.40001
1.40001
1.40001
1.40001
1.40001
1.40001
1.40001
1.40001
1.40001
1.40001
1.40001
1.40002
1.40002
1.40002
1.40002
1.40002
1.40002
1.40002
1.40002
1.40002
1.40002
1.40002
1.40001
1.40001
1.40001
1.40001
1.40001
1.4
1.4
1.4
1.4
1.4
1.39999
1.39999
1.39999
1.39999
1.39999
1.39999
1.39999
1.39999
1.39999
1.4
1.4
1.4
1.4
1.4
1.4
1.4
1.4
1.4
1.4
1.4
1.4
1.4
1.4
1.4
1.4
1.4
1.4
1.4
1.40001
1.40001
1.40001
1.40001
1.40001