/*--------------------------------*- C++ -*----------------------------------*\
  =========                 |
  \\      /  F ield         | OpenFOAM: The Open Source CFD Toolbox
   \\    /   O peration     | Website:  https://openfoam.org
    \\  /    A nd           | Version:  6
     \\/     M anipulation  |
\*---------------------------------------------------------------------------*/
FoamFile
{
    version     2.0;
    format      ascii;
    class       volVectorField;
    location    "4.76";
    object      U;
}
// * * * * * * * * * * * * * * * * * * * * * * * * * * * * * * * * * * * * * //

dimensions      [0 1 -1 0 0 0 0];

internalField   nonuniform List<vector> 
5625
(
(0.866125 0.432681 0)
(0.868223 0.433295 0)
(0.871461 0.434545 0)
(0.875483 0.436281 0)
(0.87999 0.438357 0)
(0.884752 0.440621 0)
(0.889573 0.442928 0)
(0.894289 0.445121 0)
(0.898821 0.447006 0)
(0.903159 0.448387 0)
(0.907302 0.449053 0)
(0.911294 0.448765 0)
(0.91527 0.447289 0)
(0.91943 0.444453 0)
(0.924058 0.44008 0)
(0.929526 0.434025 0)
(0.936249 0.426332 0)
(0.944715 0.417236 0)
(0.955446 0.407064 0)
(0.96875 0.39627 0)
(0.984652 0.385508 0)
(1.00315 0.375531 0)
(1.02424 0.367104 0)
(1.04747 0.361016 0)
(1.0718 0.357954 0)
(1.09616 0.358372 0)
(1.1197 0.36259 0)
(1.14144 0.370813 0)
(1.16011 0.382792 0)
(1.17465 0.397764 0)
(1.18448 0.414924 0)
(1.18934 0.4336 0)
(1.1891 0.452875 0)
(1.18365 0.471498 0)
(1.17303 0.488295 0)
(1.15762 0.502459 0)
(1.13833 0.513497 0)
(1.11635 0.521196 0)
(1.09276 0.525682 0)
(1.06841 0.52735 0)
(1.04406 0.526677 0)
(1.02047 0.524118 0)
(0.99823 0.520136 0)
(0.97768 0.515203 0)
(0.959022 0.509722 0)
(0.94246 0.503957 0)
(0.928239 0.498042 0)
(0.916539 0.492065 0)
(0.907349 0.48613 0)
(0.900461 0.480366 0)
(0.895572 0.474881 0)
(0.89241 0.469725 0)
(0.890821 0.464874 0)
(0.890763 0.460255 0)
(0.892232 0.455788 0)
(0.895166 0.451431 0)
(0.899358 0.447212 0)
(0.904414 0.443241 0)
(0.909768 0.439695 0)
(0.91476 0.436784 0)
(0.918759 0.434699 0)
(0.921292 0.433553 0)
(0.92214 0.433349 0)
(0.921368 0.433972 0)
(0.919273 0.435218 0)
(0.916289 0.436842 0)
(0.912877 0.438609 0)
(0.909433 0.440331 0)
(0.906242 0.441884 0)
(0.903468 0.443201 0)
(0.901177 0.444267 0)
(0.89936 0.445096 0)
(0.897968 0.445719 0)
(0.896931 0.446175 0)
(0.896176 0.4465 0)
(0.866034 0.431972 0)
(0.86757 0.432309 0)
(0.870339 0.433345 0)
(0.873983 0.434944 0)
(0.878191 0.436955 0)
(0.882723 0.439217 0)
(0.887374 0.441594 0)
(0.891981 0.443946 0)
(0.89645 0.446091 0)
(0.900723 0.447846 0)
(0.904792 0.449037 0)
(0.908713 0.449458 0)
(0.912579 0.448905 0)
(0.916526 0.447184 0)
(0.920775 0.444124 0)
(0.925628 0.439655 0)
(0.931433 0.433834 0)
(0.938589 0.426745 0)
(0.947474 0.418547 0)
(0.958329 0.409655 0)
(0.971331 0.400701 0)
(0.986656 0.392312 0)
(1.00419 0.385069 0)
(1.02333 0.379611 0)
(1.04334 0.376566 0)
(1.06364 0.376409 0)
(1.0835 0.379448 0)
(1.10179 0.38574 0)
(1.11743 0.394998 0)
(1.12979 0.406753 0)
(1.1384 0.420545 0)
(1.14281 0.435739 0)
(1.14264 0.451338 0)
(1.13779 0.466276 0)
(1.12844 0.479764 0)
(1.11512 0.491281 0)
(1.09871 0.500436 0)
(1.08013 0.507042 0)
(1.06018 0.511193 0)
(1.03951 0.513168 0)
(1.0188 0.513265 0)
(0.998721 0.511779 0)
(0.979779 0.509051 0)
(0.962265 0.505443 0)
(0.946384 0.501255 0)
(0.932368 0.496669 0)
(0.920464 0.491783 0)
(0.910812 0.486689 0)
(0.903364 0.481513 0)
(0.897905 0.476397 0)
(0.894165 0.471455 0)
(0.891934 0.466733 0)
(0.891117 0.462206 0)
(0.891707 0.457811 0)
(0.893708 0.45349 0)
(0.897035 0.449233 0)
(0.901446 0.445106 0)
(0.906511 0.441255 0)
(0.911648 0.437888 0)
(0.916216 0.435226 0)
(0.91964 0.433451 0)
(0.921533 0.432649 0)
(0.921774 0.432784 0)
(0.920509 0.433705 0)
(0.918085 0.435182 0)
(0.914946 0.436961 0)
(0.91153 0.438813 0)
(0.908189 0.440565 0)
(0.905164 0.44211 0)
(0.902582 0.443399 0)
(0.900477 0.444429 0)
(0.898827 0.44522 0)
(0.897573 0.44581 0)
(0.896646 0.446239 0)
(0.895976 0.446544 0)
(0.866194 0.431391 0)
(0.867126 0.431404 0)
(0.869375 0.432181 0)
(0.872596 0.433589 0)
(0.876471 0.435481 0)
(0.880745 0.437697 0)
(0.885196 0.440102 0)
(0.88966 0.442556 0)
(0.894034 0.444894 0)
(0.898242 0.446961 0)
(0.902249 0.448587 0)
(0.906084 0.449597 0)
(0.909816 0.449814 0)
(0.913568 0.449058 0)
(0.917515 0.44718 0)
(0.921875 0.444135 0)
(0.926907 0.439913 0)
(0.93293 0.434505 0)
(0.940244 0.428071 0)
(0.949103 0.421025 0)
(0.959744 0.413826 0)
(0.972267 0.406867 0)
(0.986465 0.400661 0)
(1.00194 0.395871 0)
(1.01833 0.393054 0)
(1.03516 0.39254 0)
(1.05155 0.394542 0)
(1.06656 0.399131 0)
(1.07954 0.406171 0)
(1.08998 0.415391 0)
(1.09727 0.426383 0)
(1.10083 0.438472 0)
(1.10042 0.450802 0)
(1.09608 0.462639 0)
(1.08807 0.473486 0)
(1.07687 0.482922 0)
(1.06318 0.490582 0)
(1.04769 0.496299 0)
(1.03097 0.500141 0)
(1.01359 0.502279 0)
(0.996156 0.502877 0)
(0.979266 0.502124 0)
(0.963325 0.500275 0)
(0.948585 0.497608 0)
(0.935259 0.494336 0)
(0.923594 0.490584 0)
(0.91382 0.486431 0)
(0.906034 0.48198 0)
(0.900154 0.477371 0)
(0.895971 0.472751 0)
(0.893257 0.468228 0)
(0.891863 0.463839 0)
(0.891746 0.459556 0)
(0.892926 0.455326 0)
(0.895401 0.451113 0)
(0.899057 0.446942 0)
(0.903611 0.442915 0)
(0.9086 0.439215 0)
(0.913434 0.436071 0)
(0.917502 0.433709 0)
(0.920299 0.432292 0)
(0.921534 0.431869 0)
(0.921182 0.43236 0)
(0.919465 0.433578 0)
(0.916766 0.43527 0)
(0.913526 0.437182 0)
(0.91015 0.439094 0)
(0.906946 0.440854 0)
(0.904108 0.442374 0)
(0.901725 0.443622 0)
(0.899809 0.444605 0)
(0.898322 0.445353 0)
(0.897203 0.445907 0)
(0.89638 0.446307 0)
(0.895789 0.446589 0)
(0.866632 0.430977 0)
(0.866927 0.43062 0)
(0.868609 0.431083 0)
(0.871357 0.43225 0)
(0.874859 0.433967 0)
(0.878839 0.436086 0)
(0.883063 0.438471 0)
(0.887359 0.440973 0)
(0.89161 0.443444 0)
(0.895732 0.445748 0)
(0.89967 0.447729 0)
(0.90342 0.449225 0)
(0.907034 0.450078 0)
(0.910619 0.450138 0)
(0.914301 0.449297 0)
(0.918223 0.44747 0)
(0.922604 0.444572 0)
(0.927716 0.440624 0)
(0.933799 0.435849 0)
(0.941057 0.430526 0)
(0.949663 0.424867 0)
(0.959677 0.419194 0)
(0.970999 0.414073 0)
(0.983457 0.41007 0)
(0.996768 0.407525 0)
(1.01038 0.406695 0)
(1.02355 0.407867 0)
(1.03572 0.411179 0)
(1.04639 0.416528 0)
(1.05496 0.42367 0)
(1.06078 0.432221 0)
(1.06344 0.441616 0)
(1.06289 0.451248 0)
(1.05919 0.460643 0)
(1.05251 0.46941 0)
(1.04327 0.477154 0)
(1.032 0.483553 0)
(1.01918 0.488482 0)
(1.00527 0.491976 0)
(0.990779 0.494109 0)
(0.976265 0.494952 0)
(0.96222 0.494629 0)
(0.948966 0.493337 0)
(0.936722 0.491284 0)
(0.925709 0.488617 0)
(0.916178 0.485419 0)
(0.908323 0.481765 0)
(0.902201 0.477766 0)
(0.897706 0.473573 0)
(0.894641 0.469329 0)
(0.89283 0.465126 0)
(0.892181 0.460989 0)
(0.892694 0.456886 0)
(0.894404 0.452774 0)
(0.897291 0.448645 0)
(0.901204 0.444557 0)
(0.905816 0.440652 0)
(0.910635 0.437144 0)
(0.915076 0.434278 0)
(0.918572 0.432274 0)
(0.920701 0.431261 0)
(0.921273 0.431244 0)
(0.920359 0.432098 0)
(0.918242 0.4336 0)
(0.915329 0.435485 0)
(0.912046 0.437501 0)
(0.908756 0.439447 0)
(0.905718 0.441192 0)
(0.903082 0.442669 0)
(0.900905 0.443863 0)
(0.899176 0.444793 0)
(0.897849 0.445493 0)
(0.896858 0.446008 0)
(0.896134 0.446377 0)
(0.895616 0.446637 0)
(0.867372 0.430769 0)
(0.867009 0.429998 0)
(0.868081 0.430097 0)
(0.87031 0.430963 0)
(0.873391 0.432453 0)
(0.877035 0.434422 0)
(0.881001 0.436727 0)
(0.885106 0.439223 0)
(0.889214 0.441771 0)
(0.893222 0.44424 0)
(0.897068 0.446493 0)
(0.900737 0.448382 0)
(0.904266 0.449758 0)
(0.907707 0.450501 0)
(0.91113 0.450512 0)
(0.914676 0.449683 0)
(0.918556 0.447943 0)
(0.922959 0.445352 0)
(0.92802 0.442055 0)
(0.933908 0.438148 0)
(0.940813 0.433792 0)
(0.948809 0.429381 0)
(0.957841 0.425395 0)
(0.967769 0.422149 0)
(0.978319 0.419882 0)
(0.989047 0.418943 0)
(0.999498 0.419639 0)
(1.00926 0.422026 0)
(1.01782 0.425991 0)
(1.02456 0.431372 0)
(1.02902 0.437889 0)
(1.031 0.44512 0)
(1.03046 0.452648 0)
(1.02739 0.460126 0)
(1.0219 0.467201 0)
(1.01434 0.473509 0)
(1.0051 0.478799 0)
(0.994542 0.48299 0)
(0.983049 0.486076 0)
(0.971083 0.488046 0)
(0.959135 0.488915 0)
(0.947593 0.488775 0)
(0.936707 0.487782 0)
(0.926676 0.486085 0)
(0.917727 0.483777 0)
(0.910097 0.480919 0)
(0.903944 0.477586 0)
(0.899277 0.473899 0)
(0.895979 0.470009 0)
(0.89388 0.466047 0)
(0.892855 0.462087 0)
(0.892865 0.458135 0)
(0.89394 0.45416 0)
(0.896116 0.450134 0)
(0.899346 0.446077 0)
(0.903434 0.442085 0)
(0.908009 0.438338 0)
(0.912561 0.435077 0)
(0.916519 0.432552 0)
(0.91938 0.430961 0)
(0.920815 0.430393 0)
(0.920738 0.4308 0)
(0.919308 0.432012 0)
(0.916857 0.433777 0)
(0.913798 0.435824 0)
(0.910528 0.437912 0)
(0.907366 0.439862 0)
(0.90452 0.44157 0)
(0.902099 0.442988 0)
(0.900129 0.444118 0)
(0.898585 0.444987 0)
(0.89741 0.445637 0)
(0.89654 0.44611 0)
(0.895909 0.446447 0)
(0.895459 0.446684 0)
(0.868432 0.430801 0)
(0.867402 0.429582 0)
(0.86783 0.429266 0)
(0.869496 0.429775 0)
(0.872106 0.430979 0)
(0.875371 0.432739 0)
(0.879041 0.434907 0)
(0.882924 0.437342 0)
(0.886863 0.439907 0)
(0.890739 0.442476 0)
(0.894482 0.444924 0)
(0.898075 0.44711 0)
(0.901513 0.448903 0)
(0.904804 0.450206 0)
(0.908017 0.450913 0)
(0.911297 0.450918 0)
(0.914784 0.450184 0)
(0.918562 0.448749 0)
(0.922757 0.446643 0)
(0.927579 0.443923 0)
(0.933179 0.440806 0)
(0.939557 0.437634 0)
(0.946661 0.434663 0)
(0.95442 0.432089 0)
(0.962651 0.430221 0)
(0.971046 0.429417 0)
(0.979268 0.429849 0)
(0.986932 0.431509 0)
(0.993557 0.434379 0)
(0.998692 0.438403 0)
(1.00208 0.443358 0)
(1.00358 0.448918 0)
(1.00307 0.454794 0)
(1.00049 0.460712 0)
(0.995974 0.466355 0)
(0.989798 0.471419 0)
(0.982249 0.475725 0)
(0.973596 0.479208 0)
(0.964173 0.481818 0)
(0.954399 0.483497 0)
(0.944678 0.48423 0)
(0.935303 0.484093 0)
(0.926475 0.483208 0)
(0.918383 0.481674 0)
(0.911251 0.479545 0)
(0.90529 0.47687 0)
(0.900612 0.47373 0)
(0.897195 0.470254 0)
(0.894916 0.466585 0)
(0.893643 0.462834 0)
(0.893298 0.459052 0)
(0.893886 0.455235 0)
(0.895456 0.451351 0)
(0.898031 0.447393 0)
(0.901526 0.443413 0)
(0.905697 0.439546 0)
(0.910135 0.436009 0)
(0.914317 0.43306 0)
(0.917709 0.430942 0)
(0.919884 0.429818 0)
(0.920618 0.429726 0)
(0.919926 0.430563 0)
(0.918041 0.432115 0)
(0.91533 0.43411 0)
(0.912195 0.43628 0)
(0.908997 0.438404 0)
(0.906 0.440331 0)
(0.903366 0.441979 0)
(0.901167 0.443324 0)
(0.899403 0.444381 0)
(0.898036 0.445185 0)
(0.897007 0.44578 0)
(0.896249 0.446211 0)
(0.895703 0.446517 0)
(0.895316 0.446731 0)
(0.869815 0.431097 0)
(0.868136 0.42942 0)
(0.867894 0.428641 0)
(0.868953 0.428732 0)
(0.871045 0.429591 0)
(0.873883 0.431083 0)
(0.877217 0.433058 0)
(0.880844 0.435368 0)
(0.884586 0.437888 0)
(0.888308 0.440497 0)
(0.891942 0.443062 0)
(0.895444 0.445457 0)
(0.898773 0.447576 0)
(0.901935 0.449326 0)
(0.90501 0.45059 0)
(0.908087 0.451277 0)
(0.911214 0.451366 0)
(0.914468 0.450861 0)
(0.918025 0.449752 0)
(0.922048 0.448114 0)
(0.926572 0.446145 0)
(0.931585 0.444031 0)
(0.937126 0.44191 0)
(0.943182 0.440007 0)
(0.949581 0.438647 0)
(0.956073 0.438063 0)
(0.962403 0.438326 0)
(0.968256 0.439486 0)
(0.973267 0.441613 0)
(0.977146 0.444662 0)
(0.979711 0.448427 0)
(0.980799 0.452681 0)
(0.980256 0.457238 0)
(0.978053 0.461874 0)
(0.97433 0.466308 0)
(0.969299 0.470306 0)
(0.963149 0.473745 0)
(0.956094 0.476555 0)
(0.948439 0.478649 0)
(0.940547 0.479944 0)
(0.932731 0.480431 0)
(0.925208 0.480176 0)
(0.918145 0.479268 0)
(0.91173 0.477762 0)
(0.906176 0.475688 0)
(0.901656 0.473091 0)
(0.898238 0.470061 0)
(0.895873 0.466728 0)
(0.894451 0.463223 0)
(0.893874 0.459631 0)
(0.894113 0.455982 0)
(0.895206 0.452261 0)
(0.897206 0.448444 0)
(0.90011 0.444549 0)
(0.903785 0.440666 0)
(0.907938 0.436971 0)
(0.912127 0.433709 0)
(0.915838 0.431146 0)
(0.918591 0.429501 0)
(0.920049 0.428892 0)
(0.920096 0.429294 0)
(0.918843 0.43055 0)
(0.916581 0.43241 0)
(0.913691 0.434593 0)
(0.910552 0.436843 0)
(0.907475 0.438966 0)
(0.904675 0.440839 0)
(0.902269 0.442409 0)
(0.900294 0.443669 0)
(0.898732 0.444646 0)
(0.897534 0.445382 0)
(0.89664 0.445922 0)
(0.895987 0.44631 0)
(0.895519 0.446585 0)
(0.895188 0.446776 0)
(0.871503 0.431674 0)
(0.869229 0.42955 0)
(0.868314 0.428272 0)
(0.868724 0.427893 0)
(0.870247 0.428346 0)
(0.872614 0.429506 0)
(0.875573 0.43122 0)
(0.878898 0.433347 0)
(0.882406 0.435766 0)
(0.88596 0.438346 0)
(0.889468 0.440952 0)
(0.892856 0.443479 0)
(0.896079 0.44584 0)
(0.899151 0.447923 0)
(0.902114 0.449608 0)
(0.904988 0.450841 0)
(0.907811 0.451608 0)
(0.910703 0.451872 0)
(0.913801 0.451611 0)
(0.917154 0.450897 0)
(0.920772 0.44986 0)
(0.924734 0.448602 0)
(0.92911 0.447256 0)
(0.933834 0.446053 0)
(0.938734 0.445216 0)
(0.943659 0.444862 0)
(0.948447 0.445073 0)
(0.952855 0.44597 0)
(0.956609 0.447621 0)
(0.959508 0.449946 0)
(0.961395 0.452795 0)
(0.962097 0.456044 0)
(0.961489 0.459563 0)
(0.959588 0.463149 0)
(0.956524 0.466573 0)
(0.952432 0.469672 0)
(0.947438 0.472352 0)
(0.941727 0.474525 0)
(0.935576 0.476087 0)
(0.92928 0.476962 0)
(0.923071 0.47715 0)
(0.917108 0.476708 0)
(0.911545 0.475691 0)
(0.906567 0.474124 0)
(0.902366 0.472024 0)
(0.899072 0.469441 0)
(0.89671 0.466473 0)
(0.895219 0.463244 0)
(0.894506 0.459864 0)
(0.894515 0.456394 0)
(0.895257 0.452843 0)
(0.896787 0.449191 0)
(0.89915 0.445431 0)
(0.902303 0.441613 0)
(0.906062 0.437867 0)
(0.910085 0.434408 0)
(0.913915 0.431498 0)
(0.917062 0.429398 0)
(0.919118 0.428288 0)
(0.91985 0.428226 0)
(0.919249 0.429123 0)
(0.917508 0.430771 0)
(0.914958 0.432894 0)
(0.911973 0.435214 0)
(0.908896 0.437497 0)
(0.905987 0.439581 0)
(0.90341 0.441376 0)
(0.90124 0.44285 0)
(0.899486 0.444016 0)
(0.898117 0.444908 0)
(0.897079 0.445574 0)
(0.89631 0.446059 0)
(0.895752 0.446406 0)
(0.895354 0.44665 0)
(0.895074 0.446819 0)
(0.873458 0.432528 0)
(0.870676 0.429993 0)
(0.869113 0.428211 0)
(0.868852 0.427319 0)
(0.869762 0.427306 0)
(0.87161 0.428063 0)
(0.874143 0.429451 0)
(0.877125 0.431336 0)
(0.880366 0.433586 0)
(0.883722 0.436065 0)
(0.887078 0.43865 0)
(0.89034 0.441245 0)
(0.893465 0.44375 0)
(0.896453 0.446051 0)
(0.899296 0.448061 0)
(0.901996 0.449744 0)
(0.904617 0.451049 0)
(0.907258 0.451908 0)
(0.909972 0.452318 0)
(0.912769 0.452356 0)
(0.915718 0.452091 0)
(0.918922 0.451577 0)
(0.922387 0.450946 0)
(0.926013 0.450377 0)
(0.929717 0.449999 0)
(0.933443 0.44989 0)
(0.937055 0.450172 0)
(0.94034 0.45097 0)
(0.943103 0.452303 0)
(0.945211 0.454093 0)
(0.946524 0.456266 0)
(0.946893 0.458764 0)
(0.946243 0.46147 0)
(0.944616 0.464199 0)
(0.942101 0.466786 0)
(0.938775 0.469125 0)
(0.934733 0.471136 0)
(0.93015 0.472718 0)
(0.925265 0.473764 0)
(0.920307 0.474221 0)
(0.915438 0.474098 0)
(0.910785 0.473438 0)
(0.906492 0.472266 0)
(0.902734 0.470588 0)
(0.899675 0.468419 0)
(0.897403 0.46582 0)
(0.895911 0.46289 0)
(0.895133 0.459742 0)
(0.895004 0.456462 0)
(0.895506 0.453087 0)
(0.896679 0.44961 0)
(0.898584 0.446016 0)
(0.901239 0.44232 0)
(0.904554 0.43861 0)
(0.908289 0.43506 0)
(0.912065 0.431915 0)
(0.915425 0.429445 0)
(0.917927 0.427885 0)
(0.919252 0.427361 0)
(0.919278 0.427861 0)
(0.918092 0.429232 0)
(0.915954 0.431224 0)
(0.91321 0.433553 0)
(0.910214 0.435954 0)
(0.90726 0.438224 0)
(0.904557 0.440235 0)
(0.902218 0.441927 0)
(0.900286 0.443292 0)
(0.898748 0.444357 0)
(0.897562 0.445163 0)
(0.89667 0.445759 0)
(0.896016 0.44619 0)
(0.895544 0.446496 0)
(0.895208 0.446711 0)
(0.894973 0.446861 0)
(0.875617 0.433629 0)
(0.872454 0.430764 0)
(0.870302 0.4285 0)
(0.869374 0.427068 0)
(0.869636 0.42653 0)
(0.870911 0.426819 0)
(0.872968 0.427819 0)
(0.875566 0.429394 0)
(0.878504 0.431403 0)
(0.881626 0.433712 0)
(0.884801 0.436216 0)
(0.887925 0.438808 0)
(0.890946 0.441367 0)
(0.893834 0.4438 0)
(0.896567 0.446056 0)
(0.899152 0.448072 0)
(0.901638 0.449757 0)
(0.904066 0.451065 0)
(0.906454 0.452031 0)
(0.908849 0.452699 0)
(0.911338 0.453065 0)
(0.913962 0.45317 0)
(0.916683 0.453138 0)
(0.919461 0.453093 0)
(0.922293 0.453112 0)
(0.925131 0.453277 0)
(0.927829 0.453709 0)
(0.930224 0.454487 0)
(0.932213 0.455603 0)
(0.933703 0.457016 0)
(0.934566 0.458709 0)
(0.934687 0.460645 0)
(0.934037 0.462709 0)
(0.932658 0.464749 0)
(0.930595 0.466657 0)
(0.927889 0.468366 0)
(0.924635 0.469799 0)
(0.920999 0.470846 0)
(0.917176 0.471418 0)
(0.913328 0.471485 0)
(0.909567 0.471065 0)
(0.906003 0.470182 0)
(0.902778 0.468839 0)
(0.900051 0.467031 0)
(0.897946 0.464781 0)
(0.896513 0.462157 0)
(0.895726 0.459259 0)
(0.895525 0.456182 0)
(0.895874 0.452988 0)
(0.896791 0.44969 0)
(0.898331 0.446274 0)
(0.900547 0.442739 0)
(0.903416 0.439132 0)
(0.906793 0.435583 0)
(0.910386 0.432307 0)
(0.913795 0.429569 0)
(0.916584 0.42763 0)
(0.91838 0.426677 0)
(0.918969 0.42677 0)
(0.918336 0.427822 0)
(0.916654 0.429625 0)
(0.914221 0.431901 0)
(0.911381 0.434368 0)
(0.908451 0.436791 0)
(0.905673 0.439002 0)
(0.903203 0.440909 0)
(0.901113 0.442481 0)
(0.899415 0.443728 0)
(0.898082 0.444688 0)
(0.897065 0.445407 0)
(0.896308 0.445933 0)
(0.895756 0.446312 0)
(0.895361 0.446581 0)
(0.895081 0.446769 0)
(0.894884 0.446899 0)
(0.877903 0.434931 0)
(0.874515 0.43185 0)
(0.87187 0.429163 0)
(0.870307 0.427194 0)
(0.86991 0.42609 0)
(0.870574 0.425852 0)
(0.872099 0.426393 0)
(0.874262 0.427585 0)
(0.876859 0.429283 0)
(0.879709 0.431362 0)
(0.882667 0.433713 0)
(0.885632 0.436217 0)
(0.888537 0.43876 0)
(0.891326 0.441263 0)
(0.893963 0.443667 0)
(0.896452 0.445884 0)
(0.898819 0.447839 0)
(0.901074 0.44952 0)
(0.903235 0.450939 0)
(0.905362 0.452073 0)
(0.907507 0.452909 0)
(0.90967 0.453512 0)
(0.911835 0.453981 0)
(0.914019 0.45438 0)
(0.91622 0.454753 0)
(0.918365 0.455188 0)
(0.920343 0.455784 0)
(0.922075 0.456577 0)
(0.923503 0.457553 0)
(0.924536 0.458718 0)
(0.925062 0.460079 0)
(0.925013 0.461587 0)
(0.924396 0.463137 0)
(0.923238 0.464631 0)
(0.92155 0.466005 0)
(0.919362 0.467201 0)
(0.91677 0.468135 0)
(0.913926 0.468714 0)
(0.910981 0.468873 0)
(0.908041 0.468601 0)
(0.905191 0.467914 0)
(0.902535 0.46682 0)
(0.900207 0.465307 0)
(0.898341 0.463371 0)
(0.897022 0.461047 0)
(0.896267 0.45841 0)
(0.896041 0.455551 0)
(0.896302 0.452545 0)
(0.897047 0.449427 0)
(0.898314 0.446195 0)
(0.900164 0.442839 0)
(0.90262 0.439381 0)
(0.905612 0.435909 0)
(0.908937 0.432597 0)
(0.912265 0.42969 0)
(0.915191 0.42746 0)
(0.917326 0.426135 0)
(0.918386 0.425839 0)
(0.918267 0.426554 0)
(0.917053 0.428122 0)
(0.914978 0.430291 0)
(0.912361 0.432775 0)
(0.90952 0.435311 0)
(0.906724 0.437698 0)
(0.904163 0.439809 0)
(0.901942 0.441586 0)
(0.900101 0.443023 0)
(0.898629 0.444147 0)
(0.897488 0.445001 0)
(0.896627 0.445635 0)
(0.895991 0.446097 0)
(0.89553 0.446426 0)
(0.895201 0.446659 0)
(0.89497 0.446821 0)
(0.894807 0.446935 0)
(0.880211 0.436367 0)
(0.876777 0.433207 0)
(0.873783 0.430197 0)
(0.871658 0.427731 0)
(0.870613 0.42605 0)
(0.870638 0.425237 0)
(0.871587 0.425252 0)
(0.873266 0.425983 0)
(0.875468 0.427303 0)
(0.878001 0.429086 0)
(0.880715 0.431208 0)
(0.8835 0.433547 0)
(0.886267 0.436008 0)
(0.88894 0.438509 0)
(0.891481 0.440963 0)
(0.893888 0.443287 0)
(0.896158 0.445437 0)
(0.898285 0.447397 0)
(0.900294 0.449123 0)
(0.90223 0.450578 0)
(0.904114 0.451786 0)
(0.905942 0.452812 0)
(0.907724 0.453692 0)
(0.909488 0.454438 0)
(0.911214 0.455105 0)
(0.912836 0.455782 0)
(0.914296 0.456528 0)
(0.915564 0.457349 0)
(0.916591 0.458254 0)
(0.917289 0.459269 0)
(0.917579 0.460393 0)
(0.917437 0.461571 0)
(0.916879 0.462721 0)
(0.915913 0.46379 0)
(0.91454 0.464741 0)
(0.912794 0.465516 0)
(0.910769 0.466032 0)
(0.908592 0.466214 0)
(0.906367 0.466027 0)
(0.904168 0.465473 0)
(0.902068 0.464558 0)
(0.900167 0.463275 0)
(0.898586 0.461608 0)
(0.897428 0.459565 0)
(0.896746 0.45719 0)
(0.896531 0.454559 0)
(0.896751 0.451751 0)
(0.897385 0.448817 0)
(0.898456 0.445771 0)
(0.900018 0.442606 0)
(0.902116 0.439325 0)
(0.904735 0.435983 0)
(0.907747 0.432716 0)
(0.910898 0.429737 0)
(0.913834 0.42731 0)
(0.916173 0.425688 0)
(0.917598 0.425045 0)
(0.917928 0.425428 0)
(0.917164 0.426737 0)
(0.915471 0.428757 0)
(0.913123 0.431208 0)
(0.91043 0.433815 0)
(0.907672 0.436347 0)
(0.905068 0.438645 0)
(0.902751 0.440622 0)
(0.900788 0.442251 0)
(0.89919 0.443545 0)
(0.89793 0.444544 0)
(0.896965 0.445295 0)
(0.896243 0.445847 0)
(0.895715 0.446247 0)
(0.895334 0.446531 0)
(0.895064 0.44673 0)
(0.894874 0.44687 0)
(0.894741 0.446967 0)
(0.882436 0.437842 0)
(0.879139 0.434763 0)
(0.875973 0.431576 0)
(0.873403 0.428697 0)
(0.871755 0.426463 0)
(0.871139 0.425045 0)
(0.871482 0.424473 0)
(0.872628 0.424678 0)
(0.87438 0.425549 0)
(0.876554 0.426959 0)
(0.878991 0.428776 0)
(0.881559 0.430885 0)
(0.884153 0.433193 0)
(0.886695 0.435607 0)
(0.889144 0.438029 0)
(0.891474 0.44039 0)
(0.893659 0.442652 0)
(0.895691 0.444772 0)
(0.897597 0.446692 0)
(0.899395 0.448396 0)
(0.901089 0.449909 0)
(0.902689 0.451251 0)
(0.904218 0.452418 0)
(0.905686 0.453425 0)
(0.907067 0.454338 0)
(0.908322 0.455222 0)
(0.909434 0.456093 0)
(0.910388 0.456952 0)
(0.911131 0.457828 0)
(0.911594 0.458748 0)
(0.911739 0.459697 0)
(0.911569 0.460619 0)
(0.911093 0.461467 0)
(0.910301 0.462215 0)
(0.909197 0.462834 0)
(0.907833 0.463265 0)
(0.906298 0.463436 0)
(0.904681 0.463295 0)
(0.90305 0.462831 0)
(0.901458 0.462051 0)
(0.899976 0.46095 0)
(0.898701 0.459509 0)
(0.897739 0.457719 0)
(0.897158 0.455597 0)
(0.896981 0.453201 0)
(0.89719 0.450602 0)
(0.89776 0.447859 0)
(0.898698 0.445003 0)
(0.900043 0.442032 0)
(0.901847 0.438945 0)
(0.904127 0.435772 0)
(0.906815 0.432612 0)
(0.909728 0.429644 0)
(0.912573 0.427113 0)
(0.914999 0.425278 0)
(0.916675 0.424351 0)
(0.917371 0.42443 0)
(0.917015 0.425477 0)
(0.915702 0.427319 0)
(0.913653 0.429699 0)
(0.911154 0.432337 0)
(0.908487 0.434981 0)
(0.905885 0.437442 0)
(0.903511 0.439605 0)
(0.901454 0.441421 0)
(0.899748 0.442889 0)
(0.89838 0.444037 0)
(0.897316 0.444913 0)
(0.89651 0.445564 0)
(0.895913 0.44604 0)
(0.895478 0.446382 0)
(0.895167 0.446625 0)
(0.894947 0.446795 0)
(0.894792 0.446914 0)
(0.894684 0.446996 0)
(0.884494 0.439271 0)
(0.881471 0.436414 0)
(0.87833 0.433226 0)
(0.875488 0.430075 0)
(0.873334 0.427354 0)
(0.872099 0.42534 0)
(0.871821 0.424144 0)
(0.872394 0.423759 0)
(0.87365 0.424106 0)
(0.875416 0.425065 0)
(0.877529 0.426508 0)
(0.87984 0.428319 0)
(0.882233 0.430398 0)
(0.884628 0.432641 0)
(0.886974 0.43496 0)
(0.889217 0.437291 0)
(0.891318 0.439578 0)
(0.893279 0.441762 0)
(0.895112 0.443799 0)
(0.896815 0.445677 0)
(0.898386 0.447392 0)
(0.899841 0.448933 0)
(0.901202 0.450299 0)
(0.902466 0.451521 0)
(0.903612 0.452642 0)
(0.904633 0.453682 0)
(0.905528 0.454643 0)
(0.906272 0.455542 0)
(0.90682 0.456413 0)
(0.907138 0.457267 0)
(0.907223 0.458076 0)
(0.907078 0.458802 0)
(0.906695 0.459428 0)
(0.906065 0.459939 0)
(0.905208 0.460299 0)
(0.904183 0.460451 0)
(0.903065 0.460346 0)
(0.901914 0.459957 0)
(0.90077 0.459284 0)
(0.89968 0.458329 0)
(0.898715 0.457078 0)
(0.897965 0.455514 0)
(0.897508 0.453637 0)
(0.897388 0.451478 0)
(0.897604 0.449096 0)
(0.898141 0.446553 0)
(0.89899 0.44389 0)
(0.900178 0.441118 0)
(0.901749 0.438234 0)
(0.903737 0.435255 0)
(0.906116 0.432248 0)
(0.908764 0.429361 0)
(0.911449 0.426811 0)
(0.913862 0.424851 0)
(0.915682 0.423712 0)
(0.916651 0.423537 0)
(0.916643 0.424338 0)
(0.915686 0.425993 0)
(0.913947 0.428274 0)
(0.911674 0.430907 0)
(0.90914 0.433627 0)
(0.906587 0.436225 0)
(0.904195 0.438557 0)
(0.902077 0.440551 0)
(0.900285 0.442189 0)
(0.898824 0.443489 0)
(0.89767 0.444493 0)
(0.896784 0.44525 0)
(0.896119 0.445809 0)
(0.89563 0.446214 0)
(0.895276 0.446504 0)
(0.895025 0.446709 0)
(0.894847 0.446853 0)
(0.894723 0.446953 0)
(0.894636 0.447023 0)
(0.886325 0.440599 0)
(0.883669 0.438049 0)
(0.880721 0.435029 0)
(0.877803 0.431795 0)
(0.875299 0.428723 0)
(0.873526 0.426164 0)
(0.872633 0.424338 0)
(0.872606 0.423321 0)
(0.873327 0.423074 0)
(0.874637 0.423504 0)
(0.876373 0.424498 0)
(0.878385 0.425939 0)
(0.88055 0.427712 0)
(0.882775 0.429713 0)
(0.884985 0.431862 0)
(0.88712 0.434087 0)
(0.889148 0.436316 0)
(0.891056 0.438485 0)
(0.892833 0.440562 0)
(0.894465 0.442527 0)
(0.895955 0.444354 0)
(0.897324 0.44602 0)
(0.898581 0.447529 0)
(0.899717 0.448908 0)
(0.900723 0.45017 0)
(0.901607 0.45131 0)
(0.902368 0.452335 0)
(0.902985 0.453273 0)
(0.903425 0.454146 0)
(0.90368 0.454947 0)
(0.90376 0.455649 0)
(0.903666 0.456234 0)
(0.903388 0.456697 0)
(0.902924 0.457024 0)
(0.902305 0.45718 0)
(0.901586 0.457115 0)
(0.900822 0.456801 0)
(0.900051 0.456231 0)
(0.899306 0.455407 0)
(0.898634 0.454323 0)
(0.898105 0.452962 0)
(0.897791 0.451313 0)
(0.897746 0.449389 0)
(0.897988 0.447234 0)
(0.89851 0.444902 0)
(0.899302 0.442439 0)
(0.900376 0.439869 0)
(0.901766 0.437194 0)
(0.903511 0.434423 0)
(0.905612 0.431605 0)
(0.907992 0.428854 0)
(0.910475 0.426359 0)
(0.912801 0.424357 0)
(0.914671 0.423086 0)
(0.915822 0.422718 0)
(0.91609 0.423311 0)
(0.915448 0.424786 0)
(0.914009 0.426953 0)
(0.91198 0.429553 0)
(0.909614 0.432319 0)
(0.90715 0.435023 0)
(0.90478 0.437501 0)
(0.902634 0.439658 0)
(0.900783 0.441458 0)
(0.899248 0.442908 0)
(0.898017 0.444043 0)
(0.897058 0.444909 0)
(0.896329 0.445555 0)
(0.895787 0.446028 0)
(0.895391 0.446369 0)
(0.895107 0.446612 0)
(0.894906 0.446783 0)
(0.894764 0.446903 0)
(0.894665 0.446987 0)
(0.894595 0.447047 0)
(0.887904 0.441786 0)
(0.88565 0.439584 0)
(0.883014 0.436853 0)
(0.880209 0.433731 0)
(0.877554 0.430503 0)
(0.875378 0.427529 0)
(0.87393 0.425119 0)
(0.873303 0.423447 0)
(0.873457 0.422552 0)
(0.874266 0.422383 0)
(0.875577 0.42285 0)
(0.877246 0.423841 0)
(0.879144 0.425235 0)
(0.88116 0.42693 0)
(0.883205 0.428837 0)
(0.885222 0.430873 0)
(0.887172 0.432966 0)
(0.88902 0.435055 0)
(0.890738 0.437103 0)
(0.892318 0.439078 0)
(0.893768 0.440941 0)
(0.895095 0.442668 0)
(0.896292 0.444262 0)
(0.897354 0.445729 0)
(0.898288 0.447063 0)
(0.899105 0.448261 0)
(0.899799 0.449336 0)
(0.900352 0.450306 0)
(0.900753 0.451174 0)
(0.901008 0.451925 0)
(0.901127 0.452541 0)
(0.901107 0.453022 0)
(0.900942 0.453367 0)
(0.900645 0.453556 0)
(0.900251 0.453553 0)
(0.899806 0.453328 0)
(0.899344 0.452867 0)
(0.898892 0.452173 0)
(0.89848 0.451245 0)
(0.89816 0.450072 0)
(0.897995 0.448638 0)
(0.898039 0.446945 0)
(0.898321 0.44502 0)
(0.898844 0.442908 0)
(0.899601 0.440656 0)
(0.900595 0.438295 0)
(0.901851 0.435834 0)
(0.903402 0.433282 0)
(0.905261 0.430675 0)
(0.907386 0.428102 0)
(0.909648 0.425725 0)
(0.911833 0.42376 0)
(0.913679 0.422437 0)
(0.914928 0.421947 0)
(0.915397 0.422379 0)
(0.915018 0.423699 0)
(0.913855 0.425751 0)
(0.912073 0.4283 0)
(0.909896 0.431084 0)
(0.907554 0.433866 0)
(0.905243 0.436464 0)
(0.903104 0.438765 0)
(0.901223 0.440715 0)
(0.899637 0.442308 0)
(0.898344 0.44357 0)
(0.897323 0.444545 0)
(0.896536 0.44528 0)
(0.895944 0.445825 0)
(0.895508 0.446221 0)
(0.895192 0.446505 0)
(0.894966 0.446707 0)
(0.894806 0.446849 0)
(0.894694 0.446948 0)
(0.894616 0.447018 0)
(0.89456 0.447068 0)
(0.889229 0.442817 0)
(0.887369 0.440967 0)
(0.885113 0.438591 0)
(0.88256 0.435729 0)
(0.879941 0.432557 0)
(0.877557 0.429369 0)
(0.875684 0.426499 0)
(0.874506 0.424209 0)
(0.874082 0.422641 0)
(0.874353 0.421818 0)
(0.875195 0.421684 0)
(0.876469 0.422141 0)
(0.878049 0.423078 0)
(0.879819 0.424389 0)
(0.881679 0.425979 0)
(0.883556 0.427758 0)
(0.885399 0.429652 0)
(0.887167 0.4316 0)
(0.888833 0.43355 0)
(0.890382 0.435454 0)
(0.89181 0.437281 0)
(0.893109 0.43901 0)
(0.894275 0.440631 0)
(0.89531 0.442126 0)
(0.896225 0.443485 0)
(0.897022 0.444709 0)
(0.897691 0.445808 0)
(0.898231 0.446786 0)
(0.898647 0.447634 0)
(0.898948 0.448336 0)
(0.899135 0.448891 0)
(0.899203 0.449301 0)
(0.89916 0.449559 0)
(0.89903 0.449641 0)
(0.898848 0.449519 0)
(0.898646 0.44918 0)
(0.898444 0.448622 0)
(0.898263 0.44785 0)
(0.898138 0.446856 0)
(0.898118 0.445628 0)
(0.898255 0.444162 0)
(0.898584 0.44247 0)
(0.899119 0.440587 0)
(0.899858 0.438555 0)
(0.900798 0.436409 0)
(0.901955 0.434168 0)
(0.903354 0.431844 0)
(0.905012 0.429466 0)
(0.906906 0.427105 0)
(0.908945 0.424897 0)
(0.91096 0.423035 0)
(0.912724 0.421737 0)
(0.914001 0.421198 0)
(0.914599 0.421529 0)
(0.914425 0.42273 0)
(0.913502 0.424679 0)
(0.911957 0.427169 0)
(0.909982 0.42995 0)
(0.907788 0.432783 0)
(0.905567 0.435475 0)
(0.903468 0.437896 0)
(0.901587 0.439977 0)
(0.899974 0.441702 0)
(0.89864 0.443086 0)
(0.897569 0.444167 0)
(0.896734 0.444992 0)
(0.896098 0.445608 0)
(0.895624 0.446061 0)
(0.895277 0.446388 0)
(0.895027 0.446623 0)
(0.894849 0.446789 0)
(0.894725 0.446905 0)
(0.894637 0.446987 0)
(0.894575 0.447045 0)
(0.894531 0.447086 0)
(0.890328 0.443696 0)
(0.888817 0.442167 0)
(0.886945 0.440163 0)
(0.884735 0.437654 0)
(0.882315 0.434714 0)
(0.879911 0.431535 0)
(0.877791 0.428407 0)
(0.876183 0.425629 0)
(0.875224 0.423428 0)
(0.874941 0.421923 0)
(0.875273 0.421123 0)
(0.87611 0.420966 0)
(0.877326 0.421362 0)
(0.878802 0.422211 0)
(0.880433 0.423409 0)
(0.882139 0.424862 0)
(0.883857 0.426488 0)
(0.885537 0.428222 0)
(0.887143 0.430003 0)
(0.888654 0.431781 0)
(0.890057 0.433516 0)
(0.89134 0.435187 0)
(0.892498 0.436772 0)
(0.893537 0.438245 0)
(0.894461 0.43959 0)
(0.89527 0.440808 0)
(0.895956 0.441901 0)
(0.896523 0.442861 0)
(0.896983 0.443673 0)
(0.897349 0.444333 0)
(0.897621 0.444841 0)
(0.897797 0.445195 0)
(0.89789 0.445382 0)
(0.897928 0.445381 0)
(0.897938 0.445177 0)
(0.897945 0.444767 0)
(0.897965 0.444155 0)
(0.898021 0.443339 0)
(0.898147 0.442311 0)
(0.898385 0.441065 0)
(0.898773 0.439605 0)
(0.899329 0.437956 0)
(0.900059 0.436155 0)
(0.900961 0.434235 0)
(0.902043 0.432223 0)
(0.903322 0.430134 0)
(0.904815 0.427997 0)
(0.906508 0.425872 0)
(0.908337 0.423876 0)
(0.910168 0.422176 0)
(0.911812 0.420974 0)
(0.913057 0.420457 0)
(0.913721 0.420751 0)
(0.913697 0.421878 0)
(0.912975 0.423749 0)
(0.911648 0.426182 0)
(0.909874 0.428944 0)
(0.907844 0.431802 0)
(0.90574 0.434561 0)
(0.903711 0.437077 0)
(0.90186 0.43927 0)
(0.900246 0.44111 0)
(0.898889 0.442604 0)
(0.897787 0.443785 0)
(0.896914 0.444696 0)
(0.896241 0.445384 0)
(0.895734 0.445893 0)
(0.895359 0.446265 0)
(0.895086 0.446533 0)
(0.894892 0.446724 0)
(0.894754 0.446859 0)
(0.894657 0.446954 0)
(0.894589 0.447021 0)