/*--------------------------------*- C++ -*----------------------------------*\
  =========                 |
  \\      /  F ield         | OpenFOAM: The Open Source CFD Toolbox
   \\    /   O peration     | Website:  https://openfoam.org
    \\  /    A nd           | Version:  6
     \\/     M anipulation  |
\*---------------------------------------------------------------------------*/
FoamFile
{
    version     2.0;
    format      ascii;
    class       surfaceScalarField;
    location    "2.14";
    object      meshPhi;
}
// * * * * * * * * * * * * * * * * * * * * * * * * * * * * * * * * * * * * * //

dimensions      [0 3 -1 0 0 0 0];

internalField   nonuniform List<scalar> 
8193
(
-0.00349083
0.00309235
0.00133195
-0.00526071
0.00586963
-0.00665296
0.00839137
-0.00768833
0.0106183
-0.00839454
0.0125191
-0.00880388
0.0140707
-0.00895115
0.015258
-0.00887189
0.016074
-0.00860095
0.0165186
-0.00817142
0.0165988
-0.00761383
0.0163276
-0.00695577
0.0157234
-0.00622162
0.0148091
-0.00543263
0.0136111
-0.004607
0.0121591
-0.00376025
0.0104851
-0.00290552
0.00862273
-0.00205401
0.00660686
-0.00121537
0.00447339
-0.000398136
0.00225879
0.000389902
-8.82326e-21
0.00114136
-0.0022657
0.00184896
-0.00450078
0.00250535
-0.0066676
0.00310295
-0.00872845
0.00363393
-0.0106459
0.00409025
-0.0123828
0.00446387
-0.013903
0.00474695
-0.0151717
0.0049323
-0.016156
0.00501376
-0.016826
0.00498671
-0.017155
0.0048486
-0.017121
0.00459945
-0.0167072
0.00424224
-0.0159033
0.00378327
-0.0147058
0.00323225
-0.0131193
0.0026023
-0.0111566
0.00190965
-0.0088394
0.00117312
-0.00619843
-0.00327347
0.000413439
-0.0125731
0.00855085
0.00656216
-0.0174557
0.0133799
-0.0212527
0.0177589
-0.0240303
0.0216217
-0.0258717
0.0249137
-0.0268716
0.0275926
-0.0271303
0.029629
-0.0267494
0.0310063
-0.0258279
0.0317201
-0.02446
0.0317782
-0.0227323
0.031199
-0.0207234
0.0300112
-0.0185027
0.0282519
-0.0161311
0.0259659
-0.0136608
0.023204
-0.0111364
0.0200221
-0.00859556
0.0164801
-0.00607055
0.0126407
-0.00358892
0.00856932
-0.00117483
0.00433293
0.0011499
-1.76465e-20
0.00336487
-0.00435988
0.00545025
-0.00867623
0.00738616
-0.0128779
0.00915221
-0.0168935
0.0107274
-0.0206515
0.01209
-0.0240813
0.0132183
-0.0271136
0.0140906
-0.0296819
0.0146868
-0.0317232
0.014989
-0.0331797
0.014983
-0.0340004
0.0146597
-0.0341426
0.0140163
-0.0335736
0.0130579
-0.0322722
0.0117981
-0.0302301
0.0102598
-0.0274528
0.00847555
-0.0239608
0.00648697
-0.01979
0.00434393
-0.0149915
-0.00963176
0.00210296
-0.0256871
0.0155669
0.0167347
-0.0328537
0.0218096
-0.0383198
0.0274751
-0.0422017
0.0324762
-0.0446381
0.0367385
-0.0457811
0.0402014
-0.0457895
0.04282
-0.0448224
0.0445649
-0.0430339
0.0454231
-0.0405698
0.0453973
-0.0375644
0.0445052
-0.0341389
0.0427788
-0.0304013
0.0402626
-0.0264454
0.0370122
-0.0223523
0.0330927
-0.0181911
0.028577
-0.0140203
0.0235448
-0.00988932
0.0180805
-0.00584045
0.0122731
-0.00191027
0.0062146
0.00186859
0
0.00546603
-0.0062736
0.00885315
-0.0125072
0.0120012
-0.0186004
0.0148809
-0.0244517
0.017462
-0.0299597
0.0197132
-0.0350234
0.0216024
-0.0395438
0.0230979
-0.0434254
0.0241688
-0.0465778
0.0247874
-0.048918
0.0249302
-0.0503724
0.0245802
-0.0508793
0.023729
-0.0503906
0.0223783
-0.0488745
0.0205423
-0.0463166
0.0182481
-0.0427217
0.0155373
-0.0381144
0.0124653
-0.0325395
0.00910094
-0.0260618
-0.0187659
0.00552476
-0.0423772
0.0233459
0.0314004
-0.0510164
0.0304708
-0.0574483
0.0369558
-0.061837
0.0426953
-0.0643706
0.0475956
-0.0652514
0.0515776
-0.0646874
0.0545786
-0.0628855
0.0565538
-0.0600454
0.0574772
-0.0563554
0.0573421
-0.0519888
0.0561604
-0.0471025
0.0539617
-0.0418355
0.050792
-0.0363097
0.0467121
-0.0306297
0.0417953
-0.0248849
0.036126
-0.0191507
0.0297976
-0.0134907
0.0229111
-0.00795872
0.0155738
-0.00260082
0.0078979
0.00254241
1.12777e-14
0.00743409
-0.00799969
0.0120393
-0.015978
0.0163238
-0.0238091
0.0202526
-0.0313658
0.0237899
-0.0385199
0.0268982
-0.0451436
0.0295391
-0.0511116
0.0316736
-0.0563024
0.0332636
-0.0606008
0.0342734
-0.0639011
0.0346716
-0.066109
0.0344338
-0.067145
0.0335444
-0.0669471
0.0319994
-0.0654728
0.0298086
-0.0627013
0.0269973
-0.0586352
0.0236074
-0.053301
0.0196984
-0.046749
0.0153471
-0.0390536
-0.0303111
0.0106461
-0.0621049
0.0311428
0.0499876
-0.0714515
0.0387331
-0.0781978
0.0456767
-0.082549
0.0518504
-0.0847338
0.0571412
-0.0849946
0.0614501
-0.0835791
0.0646951
-0.080732
0.0668135
-0.0766891
0.0677637
-0.0716723
0.0675258
-0.0658864
0.0661019
-0.0595163
0.063515
-0.0527267
0.0598082
-0.0456613
0.0550423
-0.0384442
0.0492943
-0.0311809
0.0426551
-0.0239603
0.0352273
-0.0168571
0.0271235
-0.0099337
0.0184647
-0.00324328
0.00937891
0.00316824
1.13159e-14
0.00925975
-0.00953292
0.014993
-0.0190764
0.0203308
-0.0284835
0.0252357
-0.0376044
0.0296692
-0.0462882
0.033591
-0.0543839
0.0369592
-0.0617426
0.0397313
-0.06822
0.0418645
-0.0736792
0.0433181
-0.0779936
0.044055
-0.0810507
0.0440443
-0.0827548
0.0432641
-0.0830306
0.0417034
-0.0818256
0.0393655
-0.0791127
0.0362697
-0.0748912
0.0324531
-0.0691879
0.0279719
-0.0620568
0.0229017
-0.0535783
-0.0438575
0.0173371
-0.0842684
0.0382901
0.0718291
-0.0936254
0.0460422
-0.100102
0.0531853
-0.103935
0.0595784
-0.105383
0.0650893
-0.104718
0.0695984
-0.102218
0.0730035
-0.0981551
0.0752226
-0.0927927
0.0761962
-0.0863784
0.0758892
-0.0791405
0.0742908
-0.071286
0.0714145
-0.062999
0.0672965
-0.0544408
0.0619945
-0.0457501
0.0555849
-0.037045
0.0481612
-0.0284249
0.0398312
-0.0199724
0.0307149
-0.0117565
0.0209432
-0.00383487
0.0106558
0.00374341
3.5293e-20
0.0109352
-0.01087
0.0177009
-0.0217942
0.024003
-0.0326081
0.0298037
-0.0431432
0.0350645
-0.053229
0.0397449
-0.0626945
0.0438027
-0.0713709
0.0471943
-0.0790939
0.0498755
-0.0857074
0.0518031
-0.0910669
0.0529369
-0.0950431
0.0532419
-0.0975262
0.0526907
-0.0984287
0.0512666
-0.097689
0.0489658
-0.0952733
0.0458001
-0.0911775
0.0417989
-0.0854277
0.0370107
-0.0780801
0.031504
-0.0692191
-0.0589561
0.0253676
-0.108219
0.0442178
0.0961868
-0.116975
0.0519329
-0.122677
0.0591085
-0.125581
0.0655864
-0.125967
0.0712149
-0.124126
0.0758547
-0.120356
0.079383
-0.114949
0.0816978
-0.108186
0.0827212
-0.100334
0.0824011
-0.0916381
0.0807122
-0.0823208
0.0776561
-0.0725809
0.0732601
-0.0625924
0.0675753
-0.0525051
0.0606749
-0.0424464
0.0526515
-0.0325229
0.0436146
-0.022823
0.0336887
-0.0134197
0.0230108
-0.00437329
0.0117287
0.00426574
-3.5293e-20
0.012454
-0.0120095
0.0201525
-0.024127
0.0273249
-0.0361733
0.0339353
-0.0479648
0.0399471
-0.0593147
0.0453218
-0.0700353
0.0500192
-0.0799406
0.0539972
-0.0888496
0.0572126
-0.0965896
0.0596227
-0.103001
0.0611865
-0.107939
0.0618672
-0.111282
0.0616347
-0.112932
0.0604677
-0.112818
0.0583569
-0.110902
0.0553068
-0.107174
0.0513386
-0.10166
0.0464914
-0.0944175
0.0408239
-0.0855333
-0.0751233
0.0344144
-0.133277
0.0484658
0.122272
-0.140917
0.0560374
-0.145425
0.0631583
-0.147067
0.0696543
-0.146132
0.075356
-0.142924
0.0801047
-0.137749
0.0837581
-0.130911
0.0861947
-0.122704
0.087318
-0.113405
0.0870584
-0.103271
0.0853753
-0.0925347
0.082257
-0.0814052
0.0777198
-0.070065
0.0718066
-0.0586713
0.0645848
-0.0473577
0.0561435
-0.0362357
0.0465916
-0.0253971
0.0360546
-0.014917
0.0246729
-0.00485665
0.0125999
0.00473352
0
0.0138113
-0.0129523
0.0223397
-0.0260742
0.030285
-0.0391752
0.0376145
-0.0520593
0.0442949
-0.0645267
0.0502917
-0.0763759
0.0555683
-0.0874067
0.0600862
-0.097424
0.0638054
-0.106241
0.0666858
-0.113685
0.0686882
-0.1196
0.0697767
-0.123853
0.0699204
-0.126336
0.0690962
-0.126972
0.0672912
-0.125716
0.0645046
-0.122556
0.0607504
-0.117515
0.0560592
-0.110652
0.0504791
-0.102056
-0.0918447
0.0440772
-0.158738
0.0506924
0.149261
-0.164854
0.0580896
-0.167842
0.0651339
-0.167969
0.071637
-0.165526
0.0774138
-0.160817
0.0822881
-0.154153
0.0860995
-0.145843
0.0887082
-0.136184
0.0899994
-0.125461
0.0898867
-0.113936
0.0883138
-0.101847
0.0852549
-0.0894104
0.0807144
-0.0768122
0.0747254
-0.0642149
0.0673477
-0.0517553
0.0586654
-0.0395476
0.048784
-0.027685
0.0378282
-0.0162434
0.0259394
-0.00528358
0.0132736
0.00514552
-5.68807e-15
0.0150037
-0.0137011
0.0242571
-0.0276393
0.0328754
-0.0416157
0.0408301
-0.0554248
0.0480925
-0.068856
0.054633
-0.0816969
0.0604199
-0.093736
0.0654199
-0.104767
0.0695978
-0.114591
0.0729179
-0.123025
0.0753449
-0.129903
0.0768458
-0.135082
0.0773916
-0.138448
0.0769599
-0.139917
0.0755365
-0.139439
0.073118
-0.136999
0.0697135
-0.132619
0.065347
-0.126357
0.0600582
-0.118304
-0.108581
0.0539038
-0.183888
0.0506779
0.176312
-0.188183
0.0579282
-0.189423
0.0649238
-0.187866
0.0714653
-0.183797
0.0773542
-0.177516
0.0823994
-0.169333
0.0864243
-0.159553
0.0892722
-0.148474
0.0908117
-0.136381
0.0909401
-0.123538
0.0895855
-0.110186
0.0867082
-0.096541
0.0822999
-0.0827936
0.0763832
-0.0691071
0.0690092
-0.0556197
0.0602551
-0.0424461
0.0502218
-0.0296797
0.0390311
-0.0173956
0.0268236
-0.00565311
0.0137561
0.00550098
-1.12077e-14
0.0160294
-0.0142605
0.0259018
-0.0288297
0.0350921
-0.0435027
0.0435764
-0.0580665
0.0513312
-0.0723027
0.0583324
-0.0859901
0.0645543
-0.0989082
0.0699694
-0.110841
0.0745485
-0.121583
0.0782617
-0.130939
0.0810791
-0.138738
0.0829724
-0.144828
0.0839166
-0.14909
0.0838919
-0.151433
0.0828856
-0.151804
0.080894
-0.150186
0.0779247
-0.1466
0.0739974
-0.141103
0.0691464
-0.133787
-0.124774
0.0634206
-0.208011
0.0483266
0.202573
-0.210305
0.055497
-0.209666
0.062506
-0.206342
0.0691459
-0.200604
0.0752076
-0.192744
0.0804877
-0.183062
0.0847956
-0.171859
0.0879601
-0.159429
0.0898344
-0.146051
0.0903006
-0.13199
0.0892721
-0.117484
0.0866953
-0.102749
0.0825495
-0.0879748
0.076846
-0.0733244
0.0696264
-0.0589355
0.0609602
-0.044922
0.0509424
-0.0313762
0.0396906
-0.0183714
0.0273429
-0.00596481
0.0140554
0.0057996
5.61152e-15
0.0168878
-0.0146369
0.0272733
-0.0296566
0.0369344
-0.0448496
0.0458521
-0.0599978
0.0540083
-0.0748767
0.0613846
-0.0892587
0.0679616
-0.102917
0.073718
-0.115627
0.0786313
-0.127177
0.0826781
-0.137366
0.0858347
-0.146016
0.088079
-0.152969
0.0893911
-0.158101
0.0897558
-0.161317
0.0891639
-0.162563
0.0876138
-0.161817
0.0851137
-0.1591
0.0816827
-0.154469
0.0773519
-0.148016
-0.139865
0.0721661
-0.230396
0.0436662
0.227197
-0.230627
0.0508454
-0.228083
0.057948
-0.222994
0.0647612
-0.215618
0.0710683
-0.206233
0.076656
-0.195128
0.0813225
-0.182593
0.0848837
-0.168916
0.0871794
-0.154371
0.0880777
-0.139216
0.0874782
-0.123686
0.0853142
-0.107994
0.0815524
-0.0923284
0.0761929
-0.076849
0.0692674
-0.0616921
0.0608371
-0.0469697
0.0509901
-0.0327721
0.0398389
-0.0191702
0.027518
-0.00621864
0.0141812
0.00604155
0
0.0175798
-0.0148388
0.0283735
-0.0301347
0.0384052
-0.0456754
0.0476607
-0.0612393
0.0561271
-0.0765976
0.0637919
-0.0915179
0.0706414
-0.105768
0.0766609
-0.119119
0.0818346
-0.131353
0.0861455
-0.142264
0.089577
-0.151669
0.0921133
-0.159407
0.0937408
-0.165348
0.0944498
-0.169396
0.0942358
-0.171493
0.0931013
-0.171617
0.091057
-0.169786
0.0881233
-0.166057
0.0843314
-0.160522
-0.153306
0.0797242
-0.250355
0.0368465
0.249356
-0.248581
0.0441258
-0.244206
0.0514049
-0.237442
0.058468
-0.228532
0.0650934
-0.217737
0.0710606
-0.205335
0.0761584
-0.191604
0.0801921
-0.176821
0.0829897
-0.161253
0.0844068
-0.145151
0.0843303
-0.128746
0.0826806
-0.112246
0.0794127
-0.0958343
0.0745155
-0.0796691
0.0680105
-0.0638835
0.0599503
-0.048587
0.0504155
-0.0338673
0.0395129
-0.0197927
0.0273724
-0.00641507
0.0141449
0.00622745
7.05861e-20
0.0181077
-0.014876
0.0292065
-0.0302819
0.0395105
-0.0460042
0.0490099
-0.0618187
0.0576968
-0.077494
0.0655636
-0.0927942
0.0726025
-0.107483
0.0788047
-0.121329
0.0841606
-0.134108
0.0886599
-0.145613
0.0922924
-0.155655
0.0950488
-0.16407
0.096922
-0.170727
0.0979083
-0.175527
0.0980086
-0.178407
0.09723
-0.179346
0.095587
-0.178361
0.0931028
-0.175506
0.0898102
-0.170874
-0.164589
0.0857524
-0.267237
0.0281344
0.268262
-0.26363
0.0355908
-0.257598
0.0431162
-0.249334
0.0504942
-0.239063
0.0574998
-0.227035
0.0639074
-0.21351
0.0694985
-0.198758
0.0740694
-0.183043
0.0774376
-0.166624
0.0794476
-0.149745
0.0799745
-0.13263
0.0789269
-0.115482
0.0762482
-0.0984804
0.0719164
-0.0817793
0.0659429
-0.0655087
0.0583714
-0.0497753
0.049275
-0.0346641
0.0387538
-0.0202409
0.0269328
-0.00655499
0.0139592
0.00635835
-5.32177e-15
0.0184748
-0.0147598
0.0297784
-0.0301195
0.0402593
-0.0458649
0.0499115
-0.0617707
0.0587313
-0.0776035
0.0667157
-0.0931253
0.0738617
-0.108097
0.0801661
-0.122284
0.0856247
-0.135461
0.0902331
-0.147416
0.0939872
-0.157957
0.0968838
-0.16692
0.0989216
-0.174169
0.100103
-0.179604
0.100434
-0.183159
0.0999258
-0.184812
0.0985982
-0.184578
0.0964771
-0.182509
0.0935976
-0.178697
-0.173262
0.090004
-0.280445
0.0179067
0.283189
-0.275291
0.0255858
-0.267869
0.0334001
-0.258357
0.0411337
-0.246968
0.0485599
-0.233936
0.055449
-0.21951
0.0615765
-0.203948
0.0667311
-0.187505
0.0707212
-0.170431
0.073381
-0.152962
0.0745746
-0.135317
0.0741996
-0.117692
0.0721882
-0.100263
0.0685075
-0.0831808
0.0631594
-0.0665717
0.0561782
-0.0505397
0.0476292
-0.0351674
0.037606
-0.0205185
0.0262279
-0.00663973
0.0136379
0.00643569
5.19955e-15
0.0186859
-0.0145029
0.0300975
-0.0296711
0.0406634
-0.0452906
0.0503809
-0.0611357
0.0592494
-0.0769719
0.0672699
-0.0925596
0.0744435
-0.107658
0.0807712
-0.12203
0.0862539
-0.135448
0.090892
-0.147699
0.0946864
-0.158588
0.0976394
-0.167948
0.0997548
-0.175642
0.10104
-0.181565
0.101505
-0.185653
0.101168
-0.187879
0.100049
-0.188254
0.0981785
-0.18683
0.0955937
-0.183693
-0.178964
0.0923399
-0.289462
0.00663758
0.2935
-0.283147
0.0145385
-0.274687
0.0226442
-0.264253
0.030739
-0.252045
0.0385946
-0.238288
0.045978
-0.223222
0.0526594
-0.207094
0.0584205
-0.190153
0.0630612
-0.172639
0.0664061
-0.154783
0.0683092
-0.136798
0.0686571
-0.118876
0.0673713
-0.101188
0.0644085
-0.0838816
0.0597606
-0.0670815
0.053453
-0.0508889
0.0455429
-0.0353845
0.0361167
-0.0206301
0.0252883
-0.00667101
0.0131959
0.00646133
5.09826e-15
0.0187467
-0.0141189
0.0301737
-0.0289628
0.0407371
-0.0443184
0.0504365
-0.0599598
0.0592739
-0.0756523
0.0672532
-0.0911551
0.0743785
-0.106226
0.0806545
-0.120627
0.0860855
-0.134128
0.0906761
-0.146513
0.0944313
-0.157588
0.0973575
-0.167181
0.0994627
-0.175153
0.100758
-0.181398
0.101258
-0.185847
0.100983
-0.18847
0.0999579
-0.189277
0.0982138
-0.188313
0.0957895
-0.185662
-0.181436
0.0927308
-0.293875
0.298682
-0.28687
-0.277797
-0.266824
-0.254147
-0.239985
-0.224573
-0.20815
-0.190959
-0.173236
-0.155207
-0.13708
-0.119044
-0.101268
-0.0838966
-0.0670522
-0.0508352
-0.0353248
-0.0205819
-0.00665099
0.00643748
0.0186642
0.0300186
0.0404969
0.0500999
0.0588315
0.0666971
0.0737034
0.0798572
0.0851657
0.0896363
0.0932771
0.0960973
0.0981084
0.0993243
0.0997626
0.0994452
0.0983991
0.0966574
0.094259
0.0912497
0.185351
0.0826208
0.18812
0.0839554
0.187555
0.0837353
0.183552
0.0819004
0.17612
0.0784663
0.165404
0.0735308
0.151696
0.067273
0.135441
0.0599463
0.117234
0.0518645
0.0977985
0.0433825
0.0779675
0.0348738
0.0586396
0.0267065
0.0407374
0.0192199
0.0251586
0.012705
0.0127284
0.00738898
0.00415609
0.0034261
0.000895489
0.178205
0.0738374
0.181221
0.0750389
0.181275
0.074961
0.178254
0.0735537
0.172143
0.0708223
0.16303
0.0668325
0.151126
0.0617111
0.136766
0.0556419
0.120411
0.0488567
0.102638
0.0416235
0.0841205
0.0342311
0.0656062
0.0269722
0.0478821
0.0201269
0.0317397
0.0139473
0.0179367
0.00864424
0.0071613
0.00437852
0.0012556
0.169863
0.0650678
0.173085
0.0661455
0.173684
0.0661811
0.171544
0.0651323
0.166624
0.062997
0.15897
0.059817
0.148725
0.0556791
0.136132
0.0507132
0.12154
0.0450869
0.105397
0.0389982
0.0882394
0.0326655
0.0706757
0.0263162
0.0533637
0.0201752
0.0369843
0.0144533
0.0222133
0.00933689
0.00969198
0.00497991
0.00149803
0.160516
0.0564659
0.163898
0.0574265
0.164964
0.0575477
0.163598
0.0567939
0.15974
0.0551576
0.153401
0.0526633
0.144667
0.0493679
0.133708
0.0453603
0.120778
0.0407585
0.106216
0.0357053
0.0904397
0.0303618
0.0739323
0.0249002
0.0572315
0.0194959
0.0409091
0.0143192
0.0255503
0.00952805
0.0117319
0.00526074
0.00163094
0.150365
0.0481687
0.153855
0.0490172
0.155308
0.0491985
0.154609
0.0486821
0.151685
0.0474578
0.146518
0.0455373
0.139149
0.0429559
0.129688
0.039772
0.118312
0.0360662
0.105268
0.0319381
0.0908711
0.0275035
0.0754964
0.0228891
0.0595718
0.0182274
0.0435646
0.0136516
0.0279673
0.00928986
0.0132813
0.00526014
0.00166581
0.139608
0.0402937
0.143153
0.0410346
0.144915
0.041253
0.144779
0.0409234
0.142663
0.0400339
0.138529
0.0385878
0.132382
0.0366049
0.124284
0.0341216
0.114348
0.0311905
0.102747
0.0278789
0.0897092
0.0242671
0.0755168
0.0204451
0.0605
0.01651
0.0450295
0.0125622
0.0295071
0.00870144
0.0143543
0.00502352
0.00161672
0.12844
0.0329384
0.131987
0.033576
0.133981
0.0338121
0.134308
0.0336253
0.132881
0.0330034
0.129646
0.0319443
0.124582
0.0304574
0.117713
0.0285633
0.109102
0.0262946
0.0988604
0.0236947
0.0871462
0.0208168
0.0741619
0.0177227
0.0601531
0.0144806
0.0454041
0.0111631
0.0302315
0.00784487
0.0149773
0.00459993
0.00149949
0.117045
0.0261795
0.120544
0.0267187
0.122695
0.0269565
0.12339
0.0268754
0.12254
0.0264635
0.120077
0.0257158
0.115965
0.0246347
0.110194
0.0232305
0.102793
0.0215214
0.0938223
0.0195338
0.0833827
0.0173011
0.0716114
0.0148637
0.0586823
0.0122674
0.0448041
0.00956224
0.0302164
0.00680148
0.0151858
0.00403958
0.00133079
0.105592
0.0200743
0.108994
0.0205206
0.111235
0.0207478
0.11221
0.0207415
0.11183
0.020491
0.110023
0.0199899
0.106736
0.0192364
0.101941
0.0182341
0.0956353
0.0169919
0.0878435
0.015524
0.0786199
0.0138502
0.068049
0.0119949
0.0562456
0.00998717
0.0433541
0.00785981
0.0295469
0.00564861
0.015022
0.00339146
0.00112733
0.0942323
0.0146617
0.0974936
0.0150216
0.0997601
0.0152291
0.100934
0.0152727
0.100928
0.0151432
0.0996659
0.0148339
0.0970884
0.0143408
0.0931519
0.0136636
0.0878321
0.0128051
0.0811259
0.0117719
0.0730527
0.0105741
0.0636554
0.00922535
0.0530012
0.00774254
0.0411818
0.0061456
0.0283126
0.00445704
0.0145321
0.00270147
0.000905064
0.0830946
0.0099645
0.0861751
0.0102454
0.0884101
0.0104273
0.089709
0.0105013
0.089988
0.0104596
0.0891719
0.0102961
0.0871962
0.0100063
0.0840082
0.00958741
0.0795695
0.00903905
0.0738569
0.00836295
0.0668639
0.00756319
0.058602
0.00664618
0.0491018
0.00562061
0.0384127
0.00449734
0.026604
0.00328925
0.013764
0.00201096
0.000678631
0.0722861
0.00599238
0.0751498
0.00620261
0.0773019
0.00635568
0.0786595
0.00644498
0.079144
0.00646449
0.0786829
0.00640887
0.0772105
0.00627369
0.0746698
0.00605559
0.0710132
0.0057524
0.0662045
0.00536327
0.0602194
0.00488875
0.0530468
0.00433083
0.0446897
0.00369297
0.0351658
0.00298009
0.024508
0.0021985
0.0127648
0.00135584
0.000460956
0.0618899
0.00274517
0.0645052
0.00289371
0.0665287
0.00301711
0.0678858
0.00311073
0.0685045
0.00317007
0.0683166
0.00319093
0.0672583
0.00316953
0.0652717
0.00310257
0.0623051
0.00298739
0.0583148
0.002822
0.0532651
0.00260518
0.0471299
0.00233653
0.0398932
0.00201652
0.0315498
0.0016465
0.0221058
0.0012287
0.0115792
0.000766228
0.000263038
0.051966
0.000216621
0.0543049
0.00031304
0.0561594
0.00040783
0.0574635
0.000497922
0.0581528
0.000580232
0.058165
0.000651725
0.0574405
0.000709485
0.0559235
0.000750784
0.053562
0.000773138
0.0503092
0.00077437
0.046124
0.00075266
0.0409715
0.000706594
0.0348238
0.000635202
0.0276607
0.000537988
0.0194699
0.00041495
0.0102479
0.000266595
9.39378e-05
0.0425521
-0.00160172
0.0445901
-0.0015474
0.0462397
-0.00147872
0.0474443
-0.00139747
0.0481477
-0.00130554
0.048295
-0.00120491
0.0478324
-0.00109756
0.0467086
-0.000985461
0.0448746
-0.00087055
0.0422845
-0.00075467
0.0388959
-0.000639548
0.0346705
-0.000526759
0.0295747
-0.0004177
0.0235799
-0.000313561
0.016663
-0.000215309
0.00880661
-0.000123664
-3.90884e-05
0.0336665
-0.00271644
0.0353812
-0.00269393
0.0367939
-0.00264779
0.0378575
-0.00257885
0.0385249
-0.00248807
0.0387493
-0.00237653
0.0384845
-0.00224538
0.0376857
-0.00209583
0.0363091
-0.00192915
0.0343128
-0.00174663
0.0316571
-0.00154955
0.0283045
-0.00133921
0.0242206
-0.00111686
0.0193741
-0.000883695
0.013737
-0.000640859
0.00728562
-0.000389414
-0.000130333
0.0253105
-0.00312845
0.026681
-0.00312728
0.0278276
-0.00309942
0.0287129
-0.00304505
0.0292993
-0.00296448
0.0295492
-0.0028581
0.0294252
-0.00272642
0.0288904
-0.00257001
0.0279083
-0.00238953
0.0264437
-0.00218571
0.0244621
-0.00195931
0.0219307
-0.00171117
0.0188181
-0.00144214
0.0150949
-0.00115313
0.0107337
-0.000845044
0.00570951
-0.000518798
-0.00017532
0.0174725
-0.00282933
0.0184785
-0.002839
0.0193314
-0.00282484
0.020004
-0.00278672
0.0204687
-0.00272453
0.0206978
-0.00263829
0.0206637
-0.00252808
0.0203386
-0.00239402
0.0196953
-0.00223635
0.0187066
-0.00205534
0.0173462
-0.00185134
0.0155882
-0.00162474
0.0134077
-0.00137601
0.0107807
-0.00110564
0.00768453
-0.000814192
0.00409761
-0.000502262
-0.000170483
0.010132
-0.00179834
0.0107527
-0.00180836
0.0112851
-0.00180337
0.0117124
-0.00178315
0.0120177
-0.00174754
0.012184
-0.00169639
0.0121941
-0.00162963
0.0120307
-0.0015472
0.0116766
-0.0014491
0.0111148
-0.00133537
0.0103285
-0.00120608
0.00930107
-0.00106136
0.0080164
-0.000901342
0.00645878
-0.000726238
0.00461305
-0.000536275
0.00246471
-0.000331721
-0.000112879
0.00326434
-3.57299e-18
0.00347732
-2.83347e-18
0.00366184
-3.03682e-18
0.00381222
-2.95513e-18
0.00392266
-2.30016e-18
0.0039873
-2.1892e-18
0.00400024
-2.08335e-18
0.00395553
-1.56149e-18
0.00384724
-1.08636e-18
0.00366946
-7.75008e-19
0.00341632
-4.38043e-19
0.00308203
-4.40293e-19
0.00266093
-5.47228e-19
0.00214746
-3.83572e-19
0.00153625
-1.95859e-19
0.000822081
-7.85102e-20
-1.57106e-20
-0.00315514
0.00261743
-0.00337466
0.00263758
-0.00356657
0.00263599
-0.00372501
0.00261218
-0.00384403
0.00256572
-0.00391759
0.00249626
-0.00393962
0.00240349
-0.00390399
0.00228716
-0.0038046
0.00214709
-0.00363535
0.00198315
-0.00339019
0.00179527
-0.00306315
0.00158347
-0.00264838
0.00134781
-0.00214014
0.00108843
-0.00153288
0.000805521
-0.000821211
0.000499363
0.000170292
-0.00914689
0.00612239
-0.00982679
0.00617246
-0.0104259
0.00617146
-0.010926
0.0061182
-0.0113089
0.00601163
-0.0115557
0.00585086
-0.0116478
0.00563512
-0.0115664
0.00536379
-0.0112926
0.00503643
-0.0108077
0.00465273
-0.0100933
0.00421255
-0.00913121
0.00371594
-0.00790352
0.00316309
-0.00639296
0.0025544
-0.00458278
0.00189041
-0.00245689
0.00117186
0.000399667
-0.0147236
0.0105994
-0.0158954
0.0106885
-0.0169353
0.0106885
-0.0178118
0.0105973
-0.0184932
0.010413
-0.0189476
0.0101341
-0.0191429
0.00975938
-0.0190468
0.00928783
-0.0186275
0.00871882
-0.0178533
0.00805202
-0.0166932
0.00728742
-0.0151168
0.00642536
-0.0130947
0.0054665
-0.0105984
0.00441189
-0.00760074
0.00326289
-0.00407599
0.00202125
0.000689059
-0.0198875
0.0161471
-0.021587
0.0162835
-0.0231043
0.0162825
-0.0243939
0.0161408
-0.0254097
0.0158559
-0.0261056
0.0154256
-0.0264353
0.0148482
-0.0263528
0.0141227
-0.0258127
0.0132486
-0.0247707
0.0122259
-0.0231832
0.0110552
-0.0210086
0.00973781
-0.0182065
0.00827562
-0.0147391
0.00667112
-0.0105704
0.00492744
-0.00566744
0.00304835
0.00103823
-0.024629
0.0228749
-0.0268959
0.0230655
-0.0289308
0.0230582
-0.0306726
0.0228486
-0.0320598
0.0224334
-0.0330308
0.02181
-0.0335246
0.0209768
-0.0334809
0.0199331
-0.032841
0.0186792
-0.0315478
0.0172162
-0.0295466
0.0155465
-0.0267851
0.0136733
-0.0232147
0.0116012
-0.0187898
0.00933528
-0.0134695
0.00688219
-0.00721681
0.00424932
0.00144517
-0.0289259
0.0308986
-0.0318041
0.0311485
-0.0344001
0.0311254
-0.0366355
0.0308239
-0.0384319
0.0302403
-0.0397114
0.029372
-0.0403972
0.0282181
-0.0404147
0.026779
-0.0396917
0.0250571
-0.0381595
0.0230562
-0.0357532
0.0207816
-0.0324126
0.0182407
-0.028083
0.0154421
-0.0227156
0.0123964
-0.016268
0.00911573
-0.00870531
0.00561366
0.00190539
-0.0327443
0.0403348
-0.0362814
0.0406463
-0.039485
0.0405926
-0.0422574
0.0401674
-0.0445016
0.0393668
-0.046122
0.0381893
-0.0470256
0.0366356
-0.047123
0.034709
-0.0463292
0.0324155
-0.0445651
0.0297635
-0.0417578
0.0267641
-0.0378423
0.0234309
-0.032762
0.0197803
-0.0264693
0.0158308
-0.0189272
0.0116036
-0.0101091
0.00712188
0.00241114
-0.0360409
0.0512934
-0.0402873
0.0516659
-0.0441472
0.0515602
-0.0475013
0.0509697
-0.0502318
0.0498912
-0.0522242
0.0483252
-0.0533683
0.0462761
-0.05356
0.0437522
-0.0527025
0.0407656
-0.0507081
0.0373325
-0.0474993
0.033473
-0.0430102
0.0292111
-0.0371874
0.0245743
-0.0299918
0.0195939
-0.0213987
0.0143044
-0.0113991
0.00874327
0.00295064
-0.0387653
0.0638707
-0.0437737
0.0642994
-0.0483401
0.0641125
-0.0523208
0.0633035
-0.0555752
0.0618713
-0.0579679
0.0598204
-0.059371
0.0571612
-0.059666
0.0539101
-0.0587457
0.0500891
-0.0565167
0.0457264
-0.0529006
0.0408558
-0.0478362
0.0355167
-0.0412807
0.0297535
-0.0332111
0.0236156
-0.0236249
0.0171566
-0.012541
0.0104337
0.00350736
-0.0408642
0.0781405
-0.0466879
0.078616
-0.0520112
0.0783094
-0.0566627
0.0772153
-0.0604761
0.0753366
-0.0632936
0.0726843
-0.0649687
0.0692784
-0.0653691
0.0651476
-0.0643795
0.0603291
-0.0619043
0.0548688
-0.0578696
0.0488204
-0.0522261
0.0422455
-0.0449497
0.0352125
-0.0360438
0.0277957
-0.0255394
0.0200749
-0.0134958
0.0121339
0.00405951
-0.0422855
0.0941456
-0.0489772
0.0946531
-0.0551067
0.0941778
-0.0604707
0.0927169
-0.0648743
0.0902792
-0.0681354
0.0868865
-0.0700883
0.0825729
-0.0705879
0.0773853
-0.0695136
0.0713828
-0.0667724
0.0646366
-0.0623018
0.0572288
-0.0560727
0.0492516
-0.0480907
0.0408061
-0.038397
0.0320003
-0.0270693
0.0229485
-0.014221
0.0137683
0.00457976
-0.0429827
0.111889
-0.0505926
0.112409
-0.0575744
0.111704
-0.0636886
0.109777
-0.0687082
0.106647
-0.0724243
0.102349
-0.0746517
0.0969398
-0.0752341
0.0904913
-0.0740493
0.0830938
-0.0710129
0.0748534
-0.0660824
0.0658912
-0.0592593
0.0563407
-0.0505908
0.0463463
-0.0401702
0.0360602
-0.0281365
0.0256398
-0.0146721
0.0152451
0.00503527
-0.042919
0.131328
-0.0514928
0.131833
-0.0593683
0.130826
-0.0662646
0.128316
-0.0719183
0.124334
-0.0760915
0.11894
-0.0785791
0.112218
-0.0792159
0.104276
-0.0778827
0.095247
-0.0745117
0.0852848
-0.06909
0.0745622
-0.0616624
0.0632675
-0.0523321
0.0516008
-0.0412598
0.0397697
-0.0286615
0.0279851
-0.0148041
0.0164566
0.00538818
-0.0420712
0.152362
-0.0516477
0.152822
-0.0604515
0.151427
-0.0681539
0.148196
-0.0744505
0.143181
-0.0790716
0.136469
-0.0817924
0.128185
-0.0824414
0.118488
-0.0809089
0.107565
-0.0771523
0.0956358
-0.0712008
0.0829398
-0.0631568
0.0697356
-0.0531955
0.0562936
-0.0415621
0.0428893
-0.028566
0.0297966
-0.0145739
0.0172818
0.00559644
-0.0404324
0.174835
-0.0510416
0.175214
-0.0607993
0.173334
-0.069322
0.169224
-0.0762589
0.162964
-0.0813059
0.154682
-0.0842183
0.144556
-0.0848223
0.13281
-0.0830249
0.119708
-0.0788199
0.105551
-0.0722926
0.090666
-0.0636194
0.0753997
-0.0530656
0.0601086
-0.0409782
0.045149
-0.0277772
0.0308669
-0.0139425
0.0175893
0.00561518
-0.0380144
0.198522
-0.0496749
0.198785
-0.060401
0.196309
-0.0697467
0.191143
-0.0773086
0.1834
-0.0827448
0.173264
-0.0857915
0.160983
-0.0862771
0.146866
-0.0841341
0.131275
-0.0794059
0.114618
-0.0722498
0.0973315
-0.0629351
0.0798709
-0.0518357
0.0626958
-0.0394194
0.0462555
-0.0262317
0.0309749
-0.0128776
0.0172423
0.00539839
-0.0348486
0.223139
-0.0475651
0.223248
-0.0592616
0.220059
-0.0694198
0.213639
-0.0775772
0.204149
-0.0833505
0.191841
-0.0864574
0.177057
-0.0867344
0.160218
-0.0841499
0.14181
-0.078812
0.122374
-0.0709686
0.102483
-0.0610014
0.0827256
-0.0494138
0.0636805
-0.0368116
0.0459008
-0.0238799
0.0298936
-0.0113559
0.0161037
0.0049011
-0.0309861
0.248333
-0.0447477
0.248259
-0.0574017
0.24423
-0.0683479
0.236342
-0.0770564
0.224813
-0.0830986
0.209986
-0.0861748
0.19232
-0.0861363
0.172379
-0.0830001
0.150808
-0.0769557
0.128314
-0.0683619
0.105636
-0.057735
0.0835168
-0.0457278
0.0626749
-0.0331009
0.0437738
-0.0206896
0.0274002
-0.00936575
0.0140435
0.00408168
-0.0264968
0.273695
-0.0412748
0.273416
-0.0548583
0.268421
-0.066553
0.258835
-0.075753
0.244951
-0.0819799
0.227226
-0.0849182
0.20627
-0.0844417
0.182824
-0.0806301
0.157732
-0.0737737
0.131905
-0.0643647
0.106283
-0.0530765
0.0817887
-0.0407311
0.0592928
-0.0282588
0.0395732
-0.0166506
0.0232864
-0.00690912
0.0109452
0.00290445
-0.0214677
0.298761
-0.0372145
0.298272
-0.0516829
0.292186
-0.0640719
0.280663
-0.0736892
0.264088
-0.0800019
0.243059
-0.08268
0.218375
-0.081629
0.191
-0.0770074
0.162023
-0.0692276
0.132604
-0.0589393
0.103917
-0.046996
0.077093
-0.0344082
0.0531654
-0.0222863
0.0330221
-0.0117776
0.0173706
-0.00400349
0.00671429
0.00134229
0.0944985
-0.18779
-0.0911711
0.097196
-0.190139
0.0992032
-0.190675
0.10047
-0.189361
0.100955
-0.186204
0.100627
-0.181254
0.0994646
-0.1746
0.0974524
-0.166362
0.0945821
-0.156694
0.09085
-0.145769
0.0862557
-0.13378
0.080801
-0.120931
0.0744882
-0.107432
0.0673198
-0.0934929
0.0592978
-0.0793232
0.0504236
-0.0651245
0.0406983
-0.0510895
0.0301235
-0.0373992
0.0187024
-0.0242214
0.00644176
-0.0117093
-0.00664671
1.96003e-15
-0.0205437
0.0107863
-0.0352199
0.020547
-0.0506338
0.0291976
-0.0667285
0.0366725
-0.0834302
0.0429253
-0.100645
0.0479288
-0.118259
0.0516752
-0.136136
0.0541758
-0.154117
0.0554601
-0.172023
0.0555758
-0.189654
0.0545871
-0.206795
0.0525738
-0.223216
0.0496297
-0.238683
0.0458613
-0.252955
0.0413857
-0.265799
0.0363288
-0.276993
0.0308233
-0.286331
0.0250061
-0.293636
0.0190161
0.0129911
0.0915662
-0.185866
-0.0879587
0.0945448
-0.188725
0.0968299
-0.189733
0.0983678
-0.188851
0.0991149
-0.186085
0.099038
-0.181484
0.0981127
-0.175137
0.0963227
-0.167166
0.0936581
-0.157723
0.0901143
-0.146981
0.0856898
-0.135132
0.0803853
-0.122378
0.0742026
-0.108928
0.0671434
-0.0949909
0.0592092
-0.0807728
0.0504009
-0.0664733
0.0407194
-0.0522831
0.0301661
-0.0383816
0.0187443
-0.0249349
0.00646109
-0.0120954
-0.00667126
2.07918e-15
-0.0206325
0.0112305
-0.0353921
0.0214918
-0.0509066
0.0306969
-0.067117
0.0387767
-0.0839463
0.0456796
-0.101297
0.0513726
-0.119052
0.0558404
-0.137067
0.0590859
-0.155179
0.0611291
-0.173201
0.0620073
-0.190926
0.0617733
-0.208129
0.0604954
-0.224572