/*--------------------------------*- C++ -*----------------------------------*\
  =========                 |
  \\      /  F ield         | OpenFOAM: The Open Source CFD Toolbox
   \\    /   O peration     | Website:  https://openfoam.org
    \\  /    A nd           | Version:  6
     \\/     M anipulation  |
\*---------------------------------------------------------------------------*/
FoamFile
{
    version     2.0;
    format      ascii;
    class       volVectorField;
    location    "1.79";
    object      U;
}
// * * * * * * * * * * * * * * * * * * * * * * * * * * * * * * * * * * * * * //

dimensions      [0 1 -1 0 0 0 0];

internalField   nonuniform List<vector> 
24166
(
(0.895613 0.445292 0)
(0.888633 0.44854 0)
(0.8944 0.4472 0)
(0.8944 0.4472 0)
(0.8944 0.4472 0)
(0.8944 0.4472 0)
(0.8944 0.4472 0)
(0.8944 0.4472 0)
(0.892715 0.448863 0)
(0.8944 0.4472 0)
(0.894378 0.447188 0)
(0.893799 0.448382 0)
(0.894014 0.449902 0)
(0.891551 0.446148 0)
(0.8946 0.447336 0)
(0.894394 0.447199 0)
(0.894693 0.447369 0)
(0.89438 0.44715 0)
(0.8944 0.4472 0)
(0.894407 0.447219 0)
(0.894428 0.447196 0)
(0.894403 0.447201 0)
(0.8944 0.4472 0)
(0.8944 0.4472 0)
(0.892755 0.44872 0)
(0.8944 0.4472 0)
(0.894401 0.4472 0)
(0.899142 0.456848 0)
(0.894399 0.4472 0)
(0.8944 0.4472 0)
(0.895655 0.44765 0)
(0.8944 0.4472 0)
(0.8944 0.4472 0)
(0.8944 0.4472 0)
(0.8944 0.4472 0)
(0.931264 0.345525 0)
(0.8944 0.4472 0)
(0.942277 0.347606 0)
(0.8944 0.4472 0)
(1.51996 0.0352051 0)
(0.894371 0.447199 0)
(0.8944 0.4472 0)
(0.8944 0.4472 0)
(0.8944 0.4472 0)
(0.89438 0.447189 0)
(0.8944 0.4472 0)
(0.885915 0.447122 0)
(0.867748 0.418071 0)
(0.8944 0.4472 0)
(0.840826 0.408809 0)
(0.8944 0.4472 0)
(0.894081 0.447004 0)
(0.8944 0.4472 0)
(0.894257 0.447186 0)
(0.894402 0.447201 0)
(0.875676 0.463851 0)
(0.866039 0.401728 0)
(0.8944 0.4472 0)
(0.8944 0.4472 0)
(0.894394 0.447202 0)
(1.60887 0.0863726 0)
(0.894556 0.447264 0)
(0.8944 0.4472 0)
(0.8944 0.4472 0)
(0.8944 0.4472 0)
(0.8944 0.4472 0)
(0.8944 0.4472 0)
(0.875263 0.424213 0)
(0.877474 0.423195 0)
(0.8944 0.4472 0)
(0.894401 0.447201 0)
(0.894379 0.447201 0)
(0.8944 0.4472 0)
(0.8944 0.4472 0)
(0.8944 0.4472 0)
(0.894401 0.4472 0)
(0.894401 0.447203 0)
(0.839677 0.41202 0)
(0.8944 0.4472 0)
(0.894344 0.447189 0)
(0.874543 0.614151 0)
(0.8944 0.4472 0)
(0.8944 0.4472 0)
(0.807014 0.545746 0)
(0.894386 0.447178 0)
(0.8944 0.4472 0)
(0.894273 0.447214 0)
(0.8944 0.4472 0)
(0.8944 0.4472 0)
(0.894402 0.447202 0)
(0.8944 0.4472 0)
(0.8944 0.4472 0)
(0.894413 0.446868 0)
(0.894404 0.447197 0)
(0.894254 0.447091 0)
(0.8943 0.447055 0)
(0.8944 0.4472 0)
(0.894653 0.447243 0)
(0.89441 0.447201 0)
(0.8944 0.447204 0)
(0.8944 0.4472 0)
(0.8944 0.4472 0)
(0.894338 0.447083 0)
(0.8944 0.4472 0)
(0.8944 0.4472 0)
(0.8944 0.4472 0)
(0.8944 0.4472 0)
(0.894399 0.447192 0)
(0.8944 0.4472 0)
(0.894404 0.447204 0)
(0.8944 0.4472 0)
(0.8944 0.4472 0)
(0.8944 0.4472 0)
(1.21387 0.0719584 0)
(1.17721 0.111319 0)
(0.894394 0.447188 0)
(0.8944 0.4472 0)
(0.8944 0.4472 0)
(0.894471 0.447225 0)
(0.8944 0.4472 0)
(0.8944 0.4472 0)
(0.8944 0.4472 0)
(0.89397 0.449275 0)
(0.8944 0.4472 0)
(0.907309 0.479206 0)
(0.894372 0.447528 0)
(0.8944 0.4472 0)
(0.8944 0.4472 0)
(0.8944 0.4472 0)
(0.8944 0.4472 0)
(0.658172 0.74061 0)
(0.892689 0.445034 0)
(0.898556 0.461294 0)
(0.892058 0.46529 0)
(0.8944 0.4472 0)
(0.894397 0.447196 0)
(0.8944 0.4472 0)
(0.865525 0.64242 0)
(0.8944 0.4472 0)
(0.8944 0.447196 0)
(0.875769 0.462973 0)
(0.8944 0.4472 0)
(0.821732 0.525864 0)
(0.8944 0.4472 0)
(0.888974 0.448253 0)
(0.8944 0.4472 0)
(0.8944 0.4472 0)
(0.894401 0.447204 0)
(0.636789 0.755309 0)
(0.8944 0.4472 0)
(0.8944 0.4472 0)
(0.8944 0.4472 0)
(0.8944 0.4472 0)
(0.894402 0.447205 0)
(0.8944 0.447199 0)
(0.8944 0.4472 0)
(0.8944 0.4472 0)
(0.8944 0.4472 0)
(0.8944 0.4472 0)
(0.894396 0.447203 0)
(0.905316 0.458446 0)
(0.912309 0.442733 0)
(0.8944 0.4472 0)
(0.8944 0.4472 0)
(0.8944 0.4472 0)
(0.8944 0.4472 0)
(0.437726 0.0816352 0)
(0.8944 0.4472 0)
(0.8944 0.4472 0)
(0.8944 0.4472 0)
(0.8944 0.4472 0)
(0.8944 0.4472 0)
(0.8944 0.4472 0)
(0.894312 0.44735 0)
(0.8944 0.4472 0)
(0.893163 0.446533 0)
(0.8944 0.4472 0)
(0.8944 0.4472 0)
(0.894394 0.447169 0)
(0.871894 0.433781 0)
(0.8944 0.4472 0)
(0.8944 0.4472 0)
(0.982541 0.517065 0)
(0.8944 0.4472 0)
(0.8944 0.4472 0)
(0.8944 0.4472 0)
(0.8944 0.4472 0)
(0.8944 0.4472 0)
(0.8944 0.4472 0)
(0.8944 0.4472 0)
(0.8944 0.447201 0)
(0.892171 0.459479 0)
(0.8944 0.447199 0)
(0.89497 0.447542 0)
(0.8944 0.4472 0)
(0.894414 0.447211 0)
(0.897525 0.448217 0)
(0.8944 0.4472 0)
(0.894275 0.447325 0)
(0.894398 0.447198 0)
(0.8944 0.4472 0)
(0.8944 0.4472 0)
(0.8944 0.4472 0)
(0.891881 0.441538 0)
(0.8944 0.4472 0)
(0.8944 0.4472 0)
(0.8944 0.4472 0)
(0.8944 0.4472 0)
(0.8944 0.4472 0)
(0.876626 0.444027 0)
(0.897425 0.470047 0)
(0.8944 0.4472 0)
(0.892554 0.446667 0)
(0.894376 0.447212 0)
(0.8944 0.4472 0)
(0.894401 0.447199 0)
(0.8944 0.4472 0)
(0.8944 0.4472 0)
(1.09393 0.375052 0)
(0.8944 0.4472 0)
(0.8944 0.4472 0)
(0.89524 0.446557 0)
(0.8944 0.4472 0)
(0.8944 0.4472 0)
(0.904485 0.481313 0)
(0.8944 0.4472 0)
(0.8944 0.4472 0)
(0.8944 0.4472 0)
(0.894338 0.447167 0)
(0.8944 0.4472 0)
(0.896794 0.446187 0)
(0.894292 0.447221 0)
(0.894407 0.447285 0)
(0.8944 0.4472 0)
(0.988517 0.337536 0)
(0.8944 0.4472 0)
(0.894483 0.447223 0)
(0.8944 0.4472 0)
(0.8944 0.4472 0)
(0.8944 0.4472 0)
(0.8944 0.4472 0)
(0.8944 0.4472 0)
(0.8944 0.4472 0)
(0.8944 0.4472 0)
(0.894445 0.447164 0)
(0.8944 0.4472 0)
(0.894469 0.447237 0)
(0.894348 0.447246 0)
(0.894299 0.44699 0)
(0.8944 0.4472 0)
(0.894523 0.447154 0)
(0.8944 0.447199 0)
(0.8944 0.447205 0)
(0.99511 0.527527 0)
(0.8944 0.4472 0)
(0.8944 0.4472 0)
(0.8944 0.4472 0)
(0.8941 0.448622 0)
(0.8944 0.4472 0)
(0.894392 0.447188 0)
(0.8944 0.4472 0)
(0.8944 0.4472 0)
(0.8944 0.4472 0)
(0.894211 0.447295 0)
(0.8944 0.4472 0)
(0.894401 0.447201 0)
(0.894399 0.447201 0)
(0.8944 0.4472 0)
(0.8944 0.4472 0)
(0.8944 0.4472 0)
(0.894221 0.447196 0)
(0.975759 -0.232711 0)
(0.8944 0.4472 0)
(0.895594 0.447092 0)
(0.8944 0.4472 0)
(0.8944 0.4472 0)
(0.8944 0.4472 0)
(0.950389 0.48367 0)
(0.894396 0.447203 0)
(0.8944 0.4472 0)
(0.888768 0.45825 0)
(0.8944 0.4472 0)
(0.690844 -0.204362 0)
(0.8944 0.4472 0)
(0.8944 0.4472 0)
(0.8944 0.4472 0)
(0.8944 0.4472 0)
(0.8944 0.4472 0)
(0.894478 0.44734 0)
(0.8944 0.4472 0)
(1.01165 0.778025 0)
(0.8944 0.4472 0)
(0.8944 0.4472 0)
(0.8944 0.4472 0)
(0.894384 0.447025 0)
(1.56575 0.176689 0)
(0.8944 0.4472 0)
(0.8944 0.4472 0)
(0.894661 0.446387 0)
(0.8944 0.4472 0)
(0.8944 0.4472 0)
(0.894306 0.4472 0)
(0.894206 0.447116 0)
(0.8944 0.4472 0)
(0.8944 0.4472 0)
(0.8944 0.4472 0)
(0.8944 0.4472 0)
(0.894337 0.447206 0)
(0.892877 0.44715 0)
(0.8944 0.4472 0)
(0.881923 0.446729 0)
(0.894399 0.447202 0)
(0.8944 0.4472 0)
(0.764454 -0.287929 0)
(0.893459 0.446313 0)
(0.8944 0.4472 0)
(0.89434 0.447111 0)
(0.8944 0.4472 0)
(0.894395 0.447177 0)
(0.894432 0.447428 0)
(0.8944 0.4472 0)
(0.8944 0.4472 0)
(0.832947 0.45884 0)
(0.8944 0.4472 0)
(0.8944 0.4472 0)
(0.894399 0.447198 0)
(0.8944 0.4472 0)
(0.8944 0.4472 0)
(0.8944 0.4472 0)
(1.12099 0.37374 0)
(0.8944 0.4472 0)
(0.894398 0.447219 0)
(0.8944 0.4472 0)
(0.894216 0.447777 0)
(0.8944 0.4472 0)
(0.888846 0.442791 0)
(0.8944 0.4472 0)
(0.8944 0.4472 0)
(0.894382 0.447227 0)
(0.895307 0.450717 0)
(0.8944 0.4472 0)
(0.8944 0.4472 0)
(0.8944 0.4472 0)
(0.8944 0.4472 0)
(0.8944 0.4472 0)
(0.8944 0.4472 0)
(0.8944 0.4472 0)
(0.8944 0.4472 0)
(0.8944 0.4472 0)
(0.8944 0.4472 0)
(0.8944 0.4472 0)
(0.8944 0.4472 0)
(0.8944 0.4472 0)
(0.8944 0.4472 0)
(0.8944 0.4472 0)
(0.8944 0.4472 0)
(0.8944 0.4472 0)
(0.8944 0.4472 0)
(0.462462 0.141302 0)
(0.906765 0.450001 0)
(0.8944 0.4472 0)
(0.8944 0.4472 0)
(0.8944 0.4472 0)
(0.889328 0.4411 0)
(0.8944 0.4472 0)
(0.8944 0.4472 0)
(0.895696 0.446345 0)
(0.8944 0.4472 0)
(0.8944 0.4472 0)
(0.8944 0.4472 0)
(0.894216 0.448007 0)
(0.8944 0.4472 0)
(0.8944 0.4472 0)
(0.8944 0.4472 0)
(0.8944 0.4472 0)
(0.894594 0.447132 0)
(0.8944 0.4472 0)
(0.894597 0.44715 0)
(0.8944 0.4472 0)
(0.8944 0.4472 0)
(0.8944 0.447201 0)
(0.8944 0.4472 0)
(0.8944 0.4472 0)
(0.894205 0.447193 0)
(0.893306 0.448179 0)
(0.8944 0.4472 0)
(0.8944 0.4472 0)
(0.895107 0.446949 0)
(0.8944 0.4472 0)
(1.0193 0.744545 0)
(0.8944 0.4472 0)
(0.8944 0.4472 0)
(0.893951 0.447727 0)
(0.905155 0.455825 0)
(0.843244 0.134675 0)
(0.897324 0.445956 0)
(0.894399 0.447204 0)
(0.8944 0.4472 0)
(0.8944 0.4472 0)
(0.8944 0.4472 0)
(0.8944 0.4472 0)
(0.8944 0.4472 0)
(0.894008 0.447569 0)
(0.89517 0.447145 0)
(0.8944 0.4472 0)
(0.8944 0.4472 0)
(0.8944 0.4472 0)
(0.893509 0.446869 0)
(0.8944 0.4472 0)
(0.8944 0.4472 0)
(0.89615 0.446581 0)
(0.8944 0.4472 0)
(0.8944 0.4472 0)
(0.8944 0.4472 0)
(0.8944 0.4472 0)
(0.893297 0.447228 0)
(0.890458 0.440583 0)
(0.8944 0.4472 0)
(0.894396 0.447201 0)
(0.8944 0.4472 0)
(0.8944 0.4472 0)
(0.827306 0.40921 0)
(0.8944 0.4472 0)
(0.8944 0.4472 0)
(0.8944 0.447199 0)
(0.8944 0.4472 0)
(0.895712 0.447625 0)
(0.8944 0.4472 0)
(0.8944 0.4472 0)
(0.894548 0.446487 0)
(0.894352 0.447205 0)
(0.906591 0.507617 0)
(0.8944 0.4472 0)
(0.8944 0.447201 0)
(0.894401 0.447201 0)
(0.8944 0.4472 0)
(0.8944 0.4472 0)
(0.8944 0.4472 0)
(0.8944 0.4472 0)
(0.893854 0.446265 0)
(0.894394 0.447212 0)
(0.8944 0.4472 0)
(0.48262 0.18338 0)
(0.8944 0.4472 0)
(0.8944 0.4472 0)
(0.894407 0.447217 0)
(0.968539 0.307934 0)
(0.8944 0.4472 0)
(0.745937 0.367701 0)
(1.08882 0.456396 0)
(0.8944 0.4472 0)
(0.8944 0.4472 0)
(0.8944 0.4472 0)
(0.893694 0.448594 0)
(0.893922 0.449101 0)
(0.894266 0.447201 0)
(0.904746 0.450083 0)
(0.8944 0.4472 0)
(0.8944 0.4472 0)
(0.8944 0.4472 0)
(0.237083 0.709971 0)
(0.8944 0.4472 0)
(0.893997 0.447779 0)
(0.848701 0.249623 0)
(0.8944 0.4472 0)
(0.8944 0.4472 0)
(0.8944 0.4472 0)
(0.8944 0.4472 0)
(0.894401 0.447215 0)
(0.894401 0.4472 0)
(0.894398 0.447203 0)
(0.894031 0.449512 0)
(0.8944 0.4472 0)
(0.8944 0.4472 0)
(0.8944 0.4472 0)
(0.893911 0.448611 0)
(0.8944 0.4472 0)
(0.8944 0.4472 0)
(0.8944 0.4472 0)
(0.89436 0.447223 0)
(0.8944 0.4472 0)
(0.971386 0.298432 0)
(0.8944 0.4472 0)
(0.8944 0.4472 0)
(0.519611 0.205438 0)
(0.8944 0.4472 0)
(0.894818 0.447079 0)
(0.8944 0.447201 0)
(0.8944 0.4472 0)
(0.8944 0.4472 0)
(0.8944 0.4472 0)
(0.8944 0.4472 0)
(0.8944 0.4472 0)
(0.8944 0.4472 0)
(0.894056 0.430436 0)
(0.811759 0.402252 0)
(0.8944 0.4472 0)
(0.894367 0.4472 0)
(0.8944 0.4472 0)
(0.898696 0.450555 0)
(0.8944 0.4472 0)
(0.895043 0.447743 0)
(0.795564 0.367588 0)
(0.214331 0.691017 0)
(0.8944 0.4472 0)
(0.894286 0.447079 0)
(0.894391 0.447198 0)
(0.8944 0.4472 0)
(0.8944 0.4472 0)
(0.895254 0.447616 0)
(0.894399 0.4472 0)
(0.8944 0.4472 0)
(0.8944 0.4472 0)
(0.8944 0.4472 0)
(0.894594 0.445904 0)
(0.899774 0.451421 0)
(0.897415 0.455803 0)
(0.894386 0.447216 0)
(0.8944 0.4472 0)
(0.8944 0.4472 0)
(0.8944 0.4472 0)
(0.8944 0.4472 0)
(0.911392 0.452926 0)
(0.964398 0.460249 0)
(0.8944 0.4472 0)
(0.8944 0.4472 0)
(0.8944 0.4472 0)
(0.8944 0.4472 0)
(0.8944 0.4472 0)
(1.0051 0.640905 0)
(0.8944 0.4472 0)
(0.89461 0.447408 0)
(0.8944 0.4472 0)
(0.894399 0.447202 0)
(0.8944 0.447199 0)
(0.8944 0.4472 0)
(0.230781 0.856401 0)
(0.894399 0.447202 0)
(0.893303 0.44573 0)
(0.8944 0.4472 0)
(0.8944 0.4472 0)
(0.8944 0.4472 0)
(0.884568 0.441998 0)
(0.8944 0.4472 0)
(0.910893 0.438691 0)
(0.894399 0.447202 0)
(0.982315 0.354767 0)
(0.8944 0.4472 0)
(0.894391 0.447225 0)
(0.89425 0.447349 0)
(0.887294 0.426 0)
(0.8944 0.4472 0)
(0.894282 0.447155 0)
(0.8944 0.4472 0)
(0.8944 0.4472 0)
(0.8944 0.4472 0)
(0.8944 0.4472 0)
(0.866243 0.429324 0)
(0.8944 0.4472 0)
(1.10581 -0.151931 0)
(0.510539 1.0367 0)
(0.8944 0.4472 0)
(0.8944 0.4472 0)
(0.892562 0.446337 0)
(0.8944 0.4472 0)
(0.844359 0.46034 0)
(0.944441 1.19046 0)
(0.894391 0.447221 0)
(0.8944 0.4472 0)
(0.8944 0.4472 0)
(0.8944 0.4472 0)
(0.893003 0.462106 0)
(0.8944 0.447202 0)
(0.8944 0.4472 0)
(0.893673 0.447219 0)
(0.8944 0.4472 0)
(0.894402 0.44722 0)
(0.8944 0.4472 0)
(0.8944 0.447198 0)
(0.8944 0.4472 0)
(0.894467 0.445975 0)
(0.8944 0.4472 0)
(0.8944 0.4472 0)
(0.8944 0.4472 0)
(0.8944 0.447203 0)
(0.8944 0.4472 0)
(0.8944 0.4472 0)
(0.886557 0.43773 0)
(0.886609 0.442684 0)
(0.886991 0.229367 0)
(0.8944 0.4472 0)
(0.894518 0.447223 0)
(0.8944 0.4472 0)
(0.8944 0.4472 0)
(0.727556 -0.248007 0)
(0.8944 0.4472 0)
(0.8944 0.447198 0)
(0.871299 0.244582 0)
(0.8944 0.4472 0)
(0.8944 0.4472 0)
(0.901959 0.447192 0)
(0.8944 0.4472 0)
(0.8944 0.4472 0)
(0.894697 0.447459 0)
(0.8944 0.4472 0)
(0.900903 0.430499 0)
(0.894391 0.447212 0)
(0.894398 0.447203 0)
(0.892847 0.443627 0)
(0.8944 0.4472 0)
(0.891901 0.447848 0)
(0.8944 0.4472 0)
(0.894404 0.447208 0)
(0.8944 0.4472 0)
(0.893599 0.445968 0)
(0.8944 0.4472 0)
(0.8944 0.4472 0)
(1.0576 0.43509 0)
(0.942367 0.467777 0)
(0.8944 0.4472 0)
(0.902314 0.45144 0)
(0.8944 0.4472 0)
(0.895412 0.446829 0)
(0.8944 0.4472 0)
(0.8944 0.4472 0)
(0.8944 0.4472 0)
(0.894011 0.447414 0)
(0.8944 0.4472 0)
(0.968346 0.454474 0)
(0.8944 0.4472 0)
(0.8944 0.4472 0)
(0.881006 0.46262 0)
(0.8944 0.4472 0)
(0.889578 0.43797 0)
(0.8944 0.4472 0)
(0.8944 0.447201 0)
(1.08228 0.148009 0)
(0.8944 0.4472 0)
(0.8944 0.4472 0)
(0.898779 0.473105 0)
(0.894399 0.4472 0)
(0.8944 0.4472 0)
(0.893938 0.447787 0)
(0.894206 0.447104 0)
(1.13884 0.545899 0)
(0.8944 0.4472 0)
(0.894374 0.447236 0)
(0.894354 0.447207 0)
(0.894478 0.447222 0)
(0.8944 0.4472 0)
(0.8944 0.4472 0)
(0.8944 0.4472 0)
(0.8944 0.4472 0)
(0.8944 0.4472 0)
(0.894392 0.447236 0)
(0.8944 0.4472 0)
(0.8944 0.4472 0)
(0.8944 0.4472 0)
(0.8944 0.4472 0)
(0.894399 0.447199 0)
(0.8944 0.4472 0)
(0.894656 0.447392 0)
(0.8944 0.4472 0)
(0.8944 0.4472 0)
(0.8944 0.4472 0)
(0.8868 0.443812 0)
(0.91224 0.457319 0)
(0.8944 0.4472 0)
(0.894381 0.44719 0)
(0.8944 0.4472 0)
(0.8944 0.4472 0)
(1.30758 0.359831 0)
(0.8944 0.4472 0)
(0.8944 0.4472 0)
(0.8944 0.447201 0)
(0.691612 -0.216193 0)
(0.8944 0.4472 0)
(0.8944 0.4472 0)
(0.894394 0.447217 0)
(0.8944 0.4472 0)
(0.8944 0.4472 0)
(0.8944 0.4472 0)
(0.8944 0.4472 0)
(0.8944 0.4472 0)
(0.8944 0.4472 0)
(0.8944 0.4472 0)
(0.8944 0.4472 0)
(0.8944 0.4472 0)
(0.89444 0.447217 0)
(0.897718 0.446442 0)
(0.884331 0.449825 0)
(0.894383 0.447217 0)
(0.8944 0.4472 0)
(0.894399 0.4472 0)
(0.8944 0.4472 0)
(0.8944 0.4472 0)
(0.895101 0.446061 0)
(0.894398 0.447203 0)
(0.867948 0.425287 0)
(1.15015 0.530038 0)
(0.8944 0.4472 0)
(0.8944 0.4472 0)
(0.8944 0.4472 0)
(0.8944 0.4472 0)
(0.888289 0.444939 0)
(0.8944 0.4472 0)
(0.894376 0.447224 0)
(1.01373 0.625591 0)
(0.8944 0.4472 0)
(0.8944 0.4472 0)
(0.8944 0.4472 0)
(0.893459 0.448095 0)
(0.8944 0.4472 0)
(0.8944 0.4472 0)
(0.8944 0.4472 0)
(0.8944 0.4472 0)
(0.896638 0.446635 0)
(0.981652 0.621648 0)
(0.8944 0.4472 0)
(0.909815 0.447113 0)
(0.892238 0.446087 0)
(0.883987 0.314937 0)
(0.894399 0.4472 0)
(0.8944 0.4472 0)
(0.894547 0.447197 0)
(0.8944 0.4472 0)
(0.820323 0.449197 0)
(0.8944 0.4472 0)
(0.89439 0.447201 0)
(0.8944 0.4472 0)
(0.894399 0.447203 0)
(0.8944 0.4472 0)
(0.895141 0.447209 0)
(0.87741 0.442578 0)
(0.915775 0.457334 0)
(0.894375 0.447223 0)
(0.89448 0.447199 0)
(0.8944 0.4472 0)
(0.8944 0.4472 0)
(0.8944 0.4472 0)
(0.894382 0.447218 0)
(0.8944 0.4472 0)
(0.894403 0.447202 0)
(0.894399 0.447284 0)
(0.39856 -0.0862148 0)
(0.875783 0.444848 0)
(0.8944 0.4472 0)
(0.8944 0.4472 0)
(0.8944 0.4472 0)
(0.8944 0.4472 0)
(0.8944 0.4472 0)
(0.8944 0.4472 0)
(0.8944 0.4472 0)
(0.8944 0.4472 0)
(0.894385 0.486413 0)
(0.8944 0.4472 0)
(0.8944 0.4472 0)
(0.894402 0.4472 0)
(0.886875 0.445124 0)
(0.8944 0.4472 0)
(0.8944 0.4472 0)
(0.8944 0.4472 0)
(0.8944 0.4472 0)
(0.8944 0.4472 0)
(0.908848 0.521523 0)
(0.8944 0.4472 0)
(0.8944 0.4472 0)
(0.8944 0.4472 0)
(0.8944 0.447201 0)
(0.893445 0.447191 0)
(0.8944 0.4472 0)
(0.8944 0.4472 0)
(0.8944 0.4472 0)
(0.8944 0.447201 0)
(0.8944 0.4472 0)
(0.894395 0.447206 0)
(0.8944 0.4472 0)
(0.8944 0.4472 0)
(0.872162 0.438818 0)
(0.8944 0.447203 0)
(0.8944 0.4472 0)
(0.8944 0.4472 0)
(0.894399 0.447202 0)
(0.8944 0.4472 0)
(0.8944 0.4472 0)
(0.8944 0.4472 0)
(0.894406 0.447201 0)
(0.8944 0.4472 0)
(0.8944 0.4472 0)
(0.8944 0.4472 0)
(0.8944 0.4472 0)
(0.731144 0.498535 0)
(0.8944 0.4472 0)
(0.8944 0.4472 0)
(0.8944 0.4472 0)
(0.8944 0.4472 0)
(0.894397 0.447197 0)
(0.8944 0.4472 0)
(0.8944 0.4472 0)
(0.8944 0.4472 0)
(0.8944 0.4472 0)
(0.427515 -0.0765073 0)
(0.879603 0.463363 0)
(0.8944 0.4472 0)
(0.762587 0.411787 0)
(0.894401 0.447201 0)
(0.88562 0.454007 0)
(0.8944 0.4472 0)
(0.8944 0.4472 0)
(0.8944 0.4472 0)
(0.8944 0.447201 0)
(0.8944 0.4472 0)
(0.8944 0.4472 0)
(0.8944 0.4472 0)
(0.8944 0.4472 0)
(0.8944 0.4472 0)
(1.08716 -0.0183103 0)
(0.894379 0.447167 0)
(0.894394 0.447202 0)
(0.8944 0.4472 0)
(0.8944 0.4472 0)
(0.894413 0.447195 0)
(0.894394 0.447197 0)
(0.8944 0.4472 0)
(0.8944 0.4472 0)
(0.521746 0.546699 0)
(0.894392 0.447203 0)
(0.8944 0.4472 0)
(0.8944 0.4472 0)
(0.8944 0.4472 0)
(0.8944 0.4472 0)
(0.894098 0.447161 0)
(0.8944 0.4472 0)
(0.8944 0.4472 0)
(0.894405 0.447205 0)
(0.8944 0.4472 0)
(0.894395 0.447203 0)
(0.561251 0.550621 0)
(0.8944 0.4472 0)
(0.894264 0.447186 0)
(0.894809 0.449491 0)
(0.891652 0.446155 0)
(0.8944 0.4472 0)
(0.890877 0.449683 0)
(0.8944 0.4472 0)
(0.894399 0.447204 0)
(0.8944 0.4472 0)
(0.8944 0.4472 0)
(0.8944 0.4472 0)
(0.8944 0.4472 0)
(0.8944 0.4472 0)
(0.8944 0.4472 0)
(0.8944 0.4472 0)
(0.894808 0.447128 0)
(0.871153 0.449185 0)
(0.8944 0.4472 0)
(0.891441 0.446282 0)
(0.894404 0.447202 0)
(0.8944 0.4472 0)
(0.8944 0.4472 0)
(0.8944 0.4472 0)
(0.894554 0.447137 0)
(0.8944 0.4472 0)
(0.8944 0.4472 0)
(0.8944 0.4472 0)
(0.894618 0.448142 0)
(0.8944 0.4472 0)
(0.893453 0.321606 0)
(0.8944 0.4472 0)
(0.897132 0.446719 0)
(0.894391 0.447214 0)
(0.8944 0.4472 0)
(0.8944 0.4472 0)
(0.894452 0.447256 0)
(0.840671 0.448496 0)
(0.8944 0.4472 0)
(0.894399 0.447205 0)
(0.8944 0.4472 0)
(0.89506 0.447654 0)
(0.8944 0.4472 0)
(0.8944 0.4472 0)
(0.8944 0.4472 0)
(0.894373 0.447244 0)
(0.8944 0.4472 0)
(0.8944 0.4472 0)
(0.8944 0.4472 0)
(0.8944 0.4472 0)
(0.894399 0.447199 0)
(0.8944 0.4472 0)
(0.897871 0.441394 0)
(0.8944 0.4472 0)
(0.8944 0.4472 0)
(0.895952 0.462512 0)
(0.8944 0.4472 0)
(0.894312 0.447269 0)
(0.895618 0.447439 0)
(0.8944 0.4472 0)
(0.894401 0.447199 0)
(0.8944 0.447199 0)
(0.8944 0.4472 0)
(0.894393 0.447211 0)
(0.8944 0.4472 0)
(0.8944 0.4472 0)
(0.89439 0.447216 0)
(0.8944 0.4472 0)
(0.8944 0.4472 0)
(0.898756 0.443176 0)
(0.383321 0.170617 0)
(0.8944 0.4472 0)
(0.896855 0.447581 0)
(0.8944 0.4472 0)
(0.8944 0.4472 0)
(0.894399 0.447203 0)
(0.8944 0.447197 0)
(0.8944 0.4472 0)
(0.894402 0.4472 0)
(0.8944 0.4472 0)
(0.8944 0.4472 0)
(0.894395 0.447196 0)
(0.843334 0.55022 0)
(0.8944 0.4472 0)
(0.8944 0.4472 0)
(0.894402 0.447193 0)
(0.895446 0.447948 0)
(1.10527 0.544156 0)
(0.894456 0.447169 0)
(0.894166 0.4473 0)
(0.894399 0.447202 0)
(0.894393 0.447208 0)
(0.894401 0.4472 0)
(0.8944 0.4472 0)
(0.8944 0.4472 0)
(0.8944 0.4472 0)
(0.894398 0.447206 0)
(0.901673 0.430583 0)
(0.894209 0.446959 0)
(0.970459 0.268767 0)
(0.8944 0.4472 0)
(0.892417 0.445519 0)
(0.894398 0.447198 0)
(0.894398 0.447201 0)
(1.11787 0.554157 0)
(0.914303 0.344594 0)
(0.8944 0.4472 0)
(0.8944 0.447191 0)
(0.894399 0.4472 0)
(0.8944 0.4472 0)
(0.8944 0.4472 0)
(0.894375 0.447191 0)
(0.181685 0.572895 0)
(0.893513 0.44688 0)
(0.877413 0.37781 0)
(0.8944 0.4472 0)
(0.8944 0.4472 0)
(0.895142 0.448025 0)
(0.894861 0.447131 0)
(0.887495 0.451773 0)
(0.8944 0.4472 0)
(0.8944 0.4472 0)
(0.8944 0.4472 0)
(0.898858 0.443681 0)
(0.8944 0.4472 0)
(0.8944 0.4472 0)
(0.8944 0.4472 0)
(0.842967 0.413368 0)
(0.894389 0.447202 0)
(0.8944 0.4472 0)
(0.903115 0.438256 0)
(0.8944 0.4472 0)
(0.8944 0.4472 0)
(0.8944 0.4472 0)
(0.8944 0.4472 0)
(0.894401 0.4472 0)
(0.8944 0.4472 0)
(0.8944 0.4472 0)
(0.8944 0.4472 0)
(0.8944 0.4472 0)
(0.894401 0.447203 0)
(0.897761 0.449004 0)
(0.894396 0.447236 0)
(0.894267 0.447193 0)
(0.8944 0.4472 0)
(0.827806 0.556348 0)
(0.8944 0.4472 0)
(0.8944 0.4472 0)
(0.8944 0.4472 0)
(1.12966 0.167156 0)
(0.8944 0.4472 0)
(0.894401 0.4472 0)
(0.892218 0.679965 0)
(0.894421 0.447186 0)
(0.954478 0.33864 0)
(0.8944 0.4472 0)
(0.8944 0.4472 0)
(0.8944 0.4472 0)
(0.8944 0.4472 0)
(0.8944 0.4472 0)
(0.8944 0.4472 0)
(0.894939 0.449723 0)
(0.894399 0.447199 0)
(0.895603 0.449602 0)
(0.8944 0.4472 0)
(0.89425 0.447357 0)
(0.942965 0.462761 0)
(0.894409 0.447233 0)
(0.8944 0.4472 0)
(0.8944 0.4472 0)
(0.8944 0.4472 0)
(0.8944 0.4472 0)
(0.8944 0.4472 0)
(0.865264 0.397335 0)
(0.894412 0.447194 0)
(0.894379 0.44713 0)
(0.894424 0.447172 0)
(0.896894 0.458309 0)
(0.90232 0.466676 0)
(0.922757 0.447904 0)
(0.8944 0.4472 0)
(0.8944 0.4472 0)
(0.8944 0.4472 0)
(0.8944 0.4472 0)
(0.893357 0.446815 0)
(0.8944 0.4472 0)
(0.8944 0.4472 0)
(0.894399 0.447205 0)
(0.894399 0.4472 0)
(0.892454 0.444048 0)
(0.894363 0.447202 0)
(0.8944 0.4472 0)
(0.894401 0.4472 0)
(1.12468 0.344578 0)
(0.8944 0.4472 0)
(0.894408 0.447199 0)
(0.894399 0.4472 0)
(0.8944 0.4472 0)
(0.8944 0.4472 0)
(0.8944 0.4472 0)
(0.8944 0.4472 0)
(0.8944 0.4472 0)
(0.895047 0.489557 0)
(0.868937 0.343054 0)
(0.8944 0.4472 0)
(0.894392 0.447158 0)
(0.887396 0.439013 0)
(0.8944 0.4472 0)
(0.894398 0.447199 0)
(0.8944 0.4472 0)
(0.894486 0.456375 0)
(0.8944 0.4472 0)
(0.8944 0.4472 0)
(0.8944 0.4472 0)
(0.894394 0.447207 0)
(0.8944 0.4472 0)
(0.8944 0.447202 0)
(0.8944 0.447199 0)
(0.8944 0.447216 0)
(0.8944 0.4472 0)
(0.8944 0.4472 0)
(0.894396 0.447567 0)
(0.8944 0.4472 0)
(0.8944 0.4472 0)
(0.8944 0.4472 0)
(0.8944 0.4472 0)
(0.894399 0.447201 0)
(0.8945 0.447349 0)
(0.900417 0.432315 0)
(0.8944 0.4472 0)
(0.892691 0.449201 0)
(0.833287 0.437411 0)
(0.8944 0.4472 0)
(0.894396 0.447198 0)
(0.8944 0.447201 0)
(0.91178 0.457404 0)
(0.8944 0.4472 0)
(0.894176 0.447393 0)
(0.8944 0.4472 0)
(0.894401 0.4472 0)
(0.8944 0.4472 0)
(1.30389 0.130001 0)
(0.8944 0.447204 0)
(0.92872 0.441598 0)
(0.8944 0.4472 0)
(0.8944 0.4472 0)
(0.8944 0.4472 0)
(0.894536 0.447267 0)
(0.8944 0.4472 0)
(0.894546 0.44765 0)
(0.8944 0.4472 0)
(0.8944 0.4472 0)
(0.8944 0.4472 0)
(0.894438 0.447167 0)
(0.8944 0.4472 0)
(0.894399 0.4472 0)
(0.8944 0.4472 0)
(0.8944 0.4472 0)
(0.8944 0.4472 0)
(0.893942 0.446941 0)
(0.8944 0.4472 0)
(0.8944 0.447201 0)
(0.8944 0.4472 0)
(0.80038 0.0833584 0)
(0.894414 0.44722 0)
(0.90137 0.448262 0)
(0.894496 0.447236 0)
(0.8944 0.4472 0)
(0.894392 0.447195 0)
(0.894403 0.447198 0)
(0.8944 0.4472 0)
(0.894404 0.447204 0)
(0.8944 0.4472 0)
(0.894408 0.447127 0)
(0.892845 0.446919 0)
(0.89429 0.447177 0)
(0.8944 0.4472 0)
(0.89437 0.44718 0)
(0.943762 0.380616 0)
(0.900208 0.445315 0)
(0.8944 0.4472 0)
(0.8944 0.4472 0)
(0.8944 0.4472 0)
(0.8944 0.4472 0)
(0.89375 0.445435 0)
(0.8944 0.4472 0)
(0.8944 0.447198 0)
(0.8944 0.4472 0)
(0.8944 0.4472 0)
(0.8944 0.4472 0)
(0.553028 1.00051 0)
(0.8944 0.4472 0)
(0.548249 1.02281 0)
(0.8944 0.4472 0)
(0.894399 0.447201 0)
(0.8944 0.4472 0)
(0.894007 0.447264 0)
(0.894422 0.4472 0)
(0.894384 0.447221 0)
(0.895808 0.446818 0)
(0.943413 0.462847 0)
(0.894411 0.447253 0)
(0.8944 0.4472 0)
(0.89254 0.459455 0)
(0.8944 0.4472 0)
(0.900267 0.442219 0)
(0.895234 0.448343 0)
(0.8944 0.4472 0)
(0.8944 0.4472 0)
(0.897483 0.445574 0)
(0.8944 0.4472 0)
(0.894047 0.44666 0)
(0.854469 0.439214 0)
(0.894401 0.4472 0)
(0.894379 0.447164 0)
(0.8944 0.4472 0)
(0.8944 0.4472 0)
(0.8944 0.4472 0)
(0.8944 0.4472 0)
(0.83592 0.284033 0)
(0.895103 0.44907 0)
(0.8944 0.4472 0)
(0.8944 0.4472 0)
(0.897395 0.442666 0)
(0.8944 0.4472 0)
(0.8944 0.4472 0)
(0.887596 0.440631 0)
(1.16514 0.565782 0)
(0.8944 0.4472 0)
(0.8944 0.4472 0)
(0.894185 0.447185 0)
(0.8944 0.4472 0)
(0.894398 0.447202 0)
(0.794502 0.683665 0)
(0.868934 0.447865 0)
(0.8944 0.4472 0)
(0.8944 0.4472 0)
(0.8944 0.4472 0)
(0.8944 0.447205 0)
(0.8944 0.4472 0)
(0.8944 0.4472 0)
(0.8944 0.447201 0)
(0.894391 0.447198 0)
(0.8944 0.4472 0)
(0.8944 0.4472 0)
(0.8944 0.4472 0)
(0.894399 0.447201 0)
(0.894389 0.447213 0)
(0.894287 0.447336 0)
(0.8944 0.4472 0)
(0.894399 0.447202 0)
(0.877596 0.447642 0)
(0.894631 0.447762 0)
(0.8944 0.4472 0)
(0.8944 0.4472 0)
(0.905446 0.461573 0)
(0.8944 0.4472 0)
(0.8944 0.4472 0)
(0.8944 0.4472 0)
(0.8944 0.4472 0)
(0.894409 0.447196 0)
(0.8944 0.4472 0)
(0.8944 0.4472 0)
(0.8944 0.4472 0)
(0.895321 0.451923 0)
(0.8944 0.4472 0)
(0.94315 0.47257 0)
(0.89454 0.447086 0)
(0.894399 0.447208 0)
(0.8944 0.4472 0)
(0.894847 0.457455 0)
(0.8944 0.4472 0)
(0.8944 0.4472 0)
(1.07389 0.231096 0)
(0.8944 0.4472 0)
(0.893824 0.44843 0)
(0.8944 0.447201 0)
(0.898644 0.451642 0)
(0.8944 0.4472 0)
(0.894398 0.447199 0)
(0.8944 0.4472 0)
(0.8944 0.447201 0)
(0.8944 0.4472 0)
(0.894393 0.447193 0)
(0.8944 0.4472 0)
(1.52802 0.176643 0)
(0.8944 0.4472 0)
(0.8959 0.448981 0)
(0.8944 0.4472 0)
(0.8944 0.4472 0)
(0.8944 0.4472 0)
(0.8944 0.4472 0)
(0.8944 0.4472 0)
(0.8944 0.4472 0)
(0.8944 0.4472 0)
(0.8944 0.4472 0)
(0.8944 0.4472 0)
(0.8944 0.4472 0)
(0.894434 0.447713 0)
(0.894397 0.44728 0)
(0.8944 0.4472 0)
(0.860587 0.414045 0)
(0.8944 0.4472 0)
(0.900899 0.71823 0)
(0.894397 0.447144 0)
(0.8944 0.4472 0)
(0.8944 0.447201 0)
(0.8944 0.4472 0)
(0.8944 0.4472 0)
(0.8944 0.4472 0)
(0.894433 0.447235 0)
(0.895195 0.446646 0)
(0.894398 0.447198 0)
(0.89344 0.447045 0)
(0.789194 0.4013 0)
(0.8944 0.4472 0)
(0.8944 0.4472 0)
(0.8944 0.4472 0)
(0.894402 0.447198 0)
(0.8944 0.4472 0)
(0.8944 0.4472 0)
(0.8944 0.4472 0)
(0.8944 0.4472 0)
(0.8944 0.4472 0)
(0.824496 0.404529 0)
(0.891661 0.459662 0)
(1.34375 0.618213 0)
(0.8944 0.4472 0)
(0.8944 0.4472 0)
(0.894136 0.447659 0)
(0.8944 0.4472 0)
(1.34524 0.488137 0)
(0.8944 0.4472 0)
(0.894522 0.446935 0)
(0.8944 0.4472 0)
(0.8944 0.4472 0)
(0.894297 0.447156 0)
(1.5254 0.235453 0)
(0.8944 0.4472 0)
(0.8944 0.4472 0)
(0.8944 0.4472 0)
(0.894383 0.447162 0)
(0.893627 0.444147 0)
(0.8944 0.447202 0)
(0.8944 0.4472 0)
(0.8944 0.4472 0)
(0.8944 0.4472 0)
(0.894939 0.44834 0)
(0.8944 0.4472 0)
(0.8944 0.4472 0)
(0.894399 0.44721 0)
(0.934766 0.45161 0)
(0.8944 0.4472 0)
(0.8944 0.4472 0)
(0.936279 0.432055 0)
(0.894401 0.4472 0)
(0.908391 0.454622 0)
(0.894407 0.447196 0)
(0.8944 0.4472 0)
(0.894416 0.447205 0)
(0.8944 0.4472 0)
(0.8944 0.4472 0)
(0.8944 0.4472 0)
(0.894432 0.447202 0)
(0.8944 0.4472 0)
(0.8944 0.4472 0)
(0.8944 0.4472 0)
(0.8944 0.4472 0)
(0.89197 0.463955 0)
(0.8944 0.4472 0)
(0.8944 0.447201 0)
(0.8944 0.4472 0)
(0.8944 0.4472 0)
(0.888773 0.450627 0)
(0.975736 0.264349 0)
(0.8944 0.4472 0)
(0.8944 0.4472 0)
(0.8944 0.4472 0)
(0.8944 0.4472 0)
(0.8944 0.4472 0)
(0.894399 0.447211 0)
(0.8944 0.4472 0)
(0.894412 0.447224 0)
(0.884993 0.400798 0)
(0.894402 0.447192 0)
(0.894399 0.447202 0)
(0.8944 0.4472 0)
(0.8944 0.4472 0)
(0.923209 0.466138 0)
(0.894406 0.447159 0)
(0.894394 0.44721 0)
(0.8944 0.4472 0)
(0.183024 0.600412 0)
(0.894224 0.447555 0)
(0.8944 0.4472 0)
(0.8944 0.4472 0)
(0.8944 0.447201 0)
(0.8944 0.4472 0)
(0.8944 0.4472 0)
(0.8944 0.4472 0)
(0.894399 0.447201 0)
(0.8944 0.4472 0)
(0.8944 0.4472 0)
(0.8944 0.4472 0)
(1.20579 0.420315 0)
(0.8944 0.447201 0)
(0.8944 0.4472 0)
(0.894398 0.447198 0)
(0.8944 0.4472 0)
(0.89707 0.444041 0)
(0.894396 0.447206 0)
(0.894375 0.447236 0)
(0.894399 0.4472 0)
(0.863039 0.444854 0)
(0.8944 0.4472 0)
(0.8944 0.4472 0)
(0.8944 0.4472 0)
(0.8944 0.4472 0)
(0.894398 0.447199 0)
(0.8944 0.4472 0)
(0.863622 0.445992 0)
(0.894396 0.447226 0)
(0.8944 0.4472 0)
(0.8944 0.4472 0)
(0.8944 0.4472 0)
(0.8944 0.4472 0)
(0.8944 0.4472 0)
(0.894435 0.447195 0)
(0.89496 0.44832 0)
(0.892489 0.452023 0)
(0.882645 0.447346 0)
(0.8944 0.4472 0)
(0.894397 0.447196 0)
(0.8944 0.4472 0)
(0.894401 0.447304 0)
(0.8944 0.4472 0)
(0.894399 0.447202 0)
(0.894411 0.447204 0)
(0.8944 0.4472 0)
(0.8944 0.4472 0)
(0.894399 0.447207 0)
(0.906388 0.37006 0)
(0.897107 0.643683 0)
(0.8944 0.4472 0)
(0.8944 0.4472 0)
(0.8944 0.4472 0)
(0.944746 0.507392 0)
(0.894401 0.4472 0)
(1.26136 0.615525 0)
(0.894457 0.44707 0)
(0.8944 0.4472 0)
(0.8944 0.4472 0)
(0.896563 0.448373 0)
(0.895392 0.447223 0)
(0.8944 0.4472 0)
(0.894401 0.447201 0)
(0.8944 0.4472 0)
(0.896277 0.449387 0)
(0.842249 0.375301 0)
(0.8944 0.4472 0)
(0.894412 0.447198 0)
(0.895328 0.447276 0)
(0.894423 0.447233 0)
(0.8944 0.4472 0)
(0.894433 0.447212 0)
(0.873818 0.439309 0)
(0.8944 0.4472 0)
(0.8944 0.4472 0)
(0.894371 0.44718 0)
(0.8944 0.4472 0)
(0.8944 0.4472 0)
(0.8944 0.447209 0)
(0.8944 0.4472 0)
(0.8944 0.4472 0)
(0.894398 0.4472 0)
(0.8944 0.4472 0)
(0.88716 0.454411 0)
(0.8944 0.4472 0)
(0.8944 0.4472 0)
(0.894068 0.446992 0)
(0.874792 0.442811 0)
(0.894368 0.447157 0)
(0.899673 0.450608 0)
(0.8944 0.4472 0)
(0.894401 0.447201 0)
(0.89142 0.446786 0)
(0.902034 0.397898 0)
(0.894397 0.447198 0)
(0.8944 0.4472 0)
(0.94025 0.472998 0)
(1.34069 0.0748487 0)
(0.588597 0.942534 0)
(0.8944 0.4472 0)
(0.8944 0.4472 0)
(0.8944 0.4472 0)
(0.8944 0.4472 0)
(0.8944 0.4472 0)
(0.894399 0.447202 0)
(0.8944 0.4472 0)
(0.8944 0.4472 0)
(0.894465 0.447299 0)
(0.8944 0.4472 0)
(0.8944 0.4472 0)
(0.804689 0.530361 0)
(0.8944 0.4472 0)
(0.894403 0.447202 0)
(0.8944 0.4472 0)
(0.8944 0.4472 0)
(0.8944 0.4472 0)
(0.896122 0.447902 0)
(0.8944 0.4472 0)
(0.8944 0.4472 0)
(0.894401 0.4472 0)
(0.8944 0.4472 0)
(0.895261 0.448621 0)
(0.894399 0.447197 0)
(0.8944 0.4472 0)
(0.8944 0.4472 0)
(0.894401 0.447201 0)
(0.893366 0.44799 0)
(0.8944 0.4472 0)
(0.874332 0.42734 0)
(0.894526 0.446931 0)
(0.8944 0.4472 0)
(0.8944 0.4472 0)
(0.894399 0.447199 0)
(0.894398 0.447202 0)
(0.8944 0.4472 0)
(0.8944 0.4472 0)
(0.8944 0.4472 0)
(0.894247 0.447329 0)
(0.702025 1.01315 0)
(0.894397 0.447197 0)
(0.89439 0.447323 0)
(0.8944 0.4472 0)
(0.8944 0.4472 0)
(0.8944 0.447199 0)
(0.8944 0.4472 0)
(0.8944 0.4472 0)
(0.8944 0.4472 0)
(0.881887 0.431442 0)
(0.8944 0.4472 0)
(0.8944 0.4472 0)
(0.8944 0.4472 0)
(0.8944 0.4472 0)
(0.881149 0.498369 0)
(0.894323 0.44686 0)
(0.8944 0.4472 0)
(0.8944 0.4472 0)
(0.894397 0.447204 0)
(0.8944 0.4472 0)
(0.8944 0.447205 0)
(0.8944 0.4472 0)
(0.870489 0.466761 0)
(0.894825 0.447663 0)