/*--------------------------------*- C++ -*----------------------------------*\
  =========                 |
  \\      /  F ield         | OpenFOAM: The Open Source CFD Toolbox
   \\    /   O peration     | Website:  https://openfoam.org
    \\  /    A nd           | Version:  6
     \\/     M anipulation  |
\*---------------------------------------------------------------------------*/
FoamFile
{
    version     2.0;
    format      ascii;
    class       volVectorField;
    location    "2.79";
    object      U;
}
// * * * * * * * * * * * * * * * * * * * * * * * * * * * * * * * * * * * * * //

dimensions      [0 1 -1 0 0 0 0];

internalField   nonuniform List<vector> 
10000
(
(0.8944 0.4472 0)
(0.8944 0.4472 0)
(0.8944 0.4472 0)
(0.8944 0.4472 0)
(0.8944 0.4472 0)
(0.8944 0.4472 0)
(0.8944 0.4472 0)
(0.8944 0.4472 0)
(0.8944 0.4472 0)
(0.8944 0.4472 0)
(0.8944 0.4472 0)
(0.8944 0.4472 0)
(0.8944 0.4472 0)
(0.8944 0.4472 0)
(0.8944 0.4472 0)
(0.8944 0.4472 0)
(0.8944 0.4472 0)
(0.8944 0.4472 0)
(0.8944 0.4472 0)
(0.8944 0.4472 0)
(0.8944 0.4472 0)
(0.8944 0.4472 0)
(0.8944 0.4472 0)
(0.8944 0.4472 0)
(0.8944 0.4472 0)
(0.8944 0.4472 0)
(0.8944 0.4472 0)
(0.8944 0.4472 0)
(0.8944 0.4472 0)
(0.8944 0.4472 0)
(0.8944 0.4472 0)
(0.8944 0.4472 0)
(0.8944 0.4472 0)
(0.8944 0.4472 0)
(0.8944 0.4472 0)
(0.8944 0.4472 0)
(0.8944 0.4472 0)
(0.8944 0.4472 0)
(0.8944 0.4472 0)
(0.8944 0.4472 0)
(0.8944 0.4472 0)
(0.8944 0.4472 0)
(0.8944 0.4472 0)
(0.8944 0.4472 0)
(0.8944 0.4472 0)
(0.8944 0.4472 0)
(0.894401 0.447199 0)
(0.894401 0.447199 0)
(0.894401 0.447198 0)
(0.894401 0.447198 0)
(0.894401 0.447197 0)
(0.894401 0.447196 0)
(0.894401 0.447195 0)
(0.894401 0.447194 0)
(0.8944 0.447193 0)
(0.894399 0.447194 0)
(0.894398 0.447194 0)
(0.894397 0.447195 0)
(0.894397 0.447197 0)
(0.894396 0.4472 0)
(0.894397 0.447203 0)
(0.894397 0.447205 0)
(0.894398 0.447207 0)
(0.894399 0.447208 0)
(0.8944 0.447208 0)
(0.894401 0.447208 0)
(0.894402 0.447207 0)
(0.894403 0.447205 0)
(0.894403 0.447204 0)
(0.894403 0.447202 0)
(0.894402 0.4472 0)
(0.894401 0.447199 0)
(0.894401 0.447198 0)
(0.8944 0.447198 0)
(0.8944 0.447197 0)
(0.8944 0.447197 0)
(0.894399 0.447198 0)
(0.894399 0.447198 0)
(0.894399 0.447199 0)
(0.894399 0.447199 0)
(0.8944 0.447199 0)
(0.8944 0.447199 0)
(0.8944 0.4472 0)
(0.8944 0.4472 0)
(0.8944 0.4472 0)
(0.8944 0.4472 0)
(0.8944 0.4472 0)
(0.8944 0.4472 0)
(0.8944 0.4472 0)
(0.8944 0.4472 0)
(0.8944 0.4472 0)
(0.8944 0.4472 0)
(0.8944 0.4472 0)
(0.8944 0.4472 0)
(0.8944 0.4472 0)
(0.8944 0.4472 0)
(0.8944 0.4472 0)
(0.8944 0.4472 0)
(0.8944 0.4472 0)
(0.8944 0.4472 0)
(0.8944 0.4472 0)
(0.8944 0.4472 0)
(0.8944 0.4472 0)
(0.8944 0.4472 0)
(0.8944 0.4472 0)
(0.8944 0.4472 0)
(0.8944 0.4472 0)
(0.8944 0.4472 0)
(0.8944 0.4472 0)
(0.8944 0.4472 0)
(0.8944 0.4472 0)
(0.8944 0.4472 0)
(0.8944 0.4472 0)
(0.8944 0.4472 0)
(0.8944 0.4472 0)
(0.8944 0.4472 0)
(0.8944 0.4472 0)
(0.8944 0.4472 0)
(0.8944 0.4472 0)
(0.8944 0.4472 0)
(0.8944 0.4472 0)
(0.8944 0.4472 0)
(0.8944 0.4472 0)
(0.8944 0.4472 0)
(0.8944 0.4472 0)
(0.8944 0.4472 0)
(0.8944 0.4472 0)
(0.8944 0.4472 0)
(0.8944 0.4472 0)
(0.8944 0.4472 0)
(0.8944 0.4472 0)
(0.8944 0.4472 0)
(0.8944 0.4472 0)
(0.8944 0.4472 0)
(0.8944 0.4472 0)
(0.8944 0.4472 0)
(0.8944 0.4472 0)
(0.8944 0.4472 0)
(0.8944 0.4472 0)
(0.8944 0.4472 0)
(0.8944 0.4472 0)
(0.8944 0.4472 0)
(0.8944 0.4472 0)
(0.8944 0.4472 0)
(0.8944 0.4472 0)
(0.8944 0.4472 0)
(0.894401 0.447199 0)
(0.894401 0.447199 0)
(0.894402 0.447198 0)
(0.894402 0.447197 0)
(0.894402 0.447195 0)
(0.894402 0.447193 0)
(0.894402 0.447191 0)
(0.894401 0.44719 0)
(0.8944 0.447189 0)
(0.894398 0.447189 0)
(0.894397 0.44719 0)
(0.894395 0.447193 0)
(0.894394 0.447196 0)
(0.894393 0.447201 0)
(0.894393 0.447206 0)
(0.894394 0.44721 0)
(0.894396 0.447214 0)
(0.894398 0.447217 0)
(0.894401 0.447217 0)
(0.894403 0.447216 0)
(0.894404 0.447214 0)
(0.894405 0.447211 0)
(0.894405 0.447208 0)
(0.894405 0.447204 0)
(0.894404 0.447201 0)
(0.894403 0.447198 0)
(0.894402 0.447196 0)
(0.894401 0.447195 0)
(0.8944 0.447195 0)
(0.894399 0.447195 0)
(0.894399 0.447196 0)
(0.894399 0.447197 0)
(0.894399 0.447197 0)
(0.894399 0.447198 0)
(0.894399 0.447199 0)
(0.894399 0.447199 0)
(0.8944 0.447199 0)
(0.8944 0.4472 0)
(0.8944 0.4472 0)
(0.8944 0.4472 0)
(0.8944 0.4472 0)
(0.8944 0.4472 0)
(0.8944 0.4472 0)
(0.8944 0.4472 0)
(0.8944 0.4472 0)
(0.8944 0.4472 0)
(0.8944 0.4472 0)
(0.8944 0.4472 0)
(0.8944 0.4472 0)
(0.8944 0.4472 0)
(0.8944 0.4472 0)
(0.8944 0.4472 0)
(0.8944 0.4472 0)
(0.8944 0.4472 0)
(0.8944 0.4472 0)
(0.8944 0.4472 0)
(0.8944 0.4472 0)
(0.8944 0.4472 0)
(0.8944 0.4472 0)
(0.8944 0.4472 0)
(0.8944 0.4472 0)
(0.8944 0.4472 0)
(0.8944 0.4472 0)
(0.8944 0.4472 0)
(0.8944 0.4472 0)
(0.8944 0.4472 0)
(0.8944 0.4472 0)
(0.8944 0.4472 0)
(0.8944 0.4472 0)
(0.8944 0.4472 0)
(0.8944 0.4472 0)
(0.8944 0.4472 0)
(0.8944 0.4472 0)
(0.8944 0.4472 0)
(0.8944 0.4472 0)
(0.8944 0.4472 0)
(0.8944 0.4472 0)
(0.8944 0.4472 0)
(0.8944 0.4472 0)
(0.8944 0.4472 0)
(0.8944 0.4472 0)
(0.8944 0.4472 0)
(0.8944 0.4472 0)
(0.8944 0.4472 0)
(0.8944 0.4472 0)
(0.8944 0.4472 0)
(0.8944 0.4472 0)
(0.8944 0.4472 0)
(0.8944 0.4472 0)
(0.8944 0.4472 0)
(0.8944 0.4472 0)
(0.8944 0.4472 0)
(0.8944 0.4472 0)
(0.8944 0.4472 0)
(0.8944 0.4472 0)
(0.8944 0.4472 0)
(0.8944 0.4472 0)
(0.8944 0.4472 0)
(0.8944 0.4472 0)
(0.894401 0.4472 0)
(0.894401 0.447199 0)
(0.894402 0.447198 0)
(0.894402 0.447197 0)
(0.894403 0.447195 0)
(0.894404 0.447192 0)
(0.894404 0.447189 0)
(0.894403 0.447186 0)
(0.894402 0.447184 0)
(0.8944 0.447182 0)
(0.894397 0.447182 0)
(0.894394 0.447184 0)
(0.89439 0.447189 0)
(0.894388 0.447195 0)
(0.894386 0.447204 0)
(0.894387 0.447213 0)
(0.894389 0.447221 0)
(0.894392 0.447228 0)
(0.894397 0.447233 0)
(0.894402 0.447235 0)
(0.894406 0.447233 0)
(0.894409 0.447229 0)
(0.894411 0.447223 0)
(0.894411 0.447216 0)
(0.89441 0.447209 0)
(0.894408 0.447203 0)
(0.894406 0.447198 0)
(0.894403 0.447195 0)
(0.894401 0.447193 0)
(0.8944 0.447192 0)
(0.894398 0.447192 0)
(0.894398 0.447193 0)
(0.894398 0.447194 0)
(0.894398 0.447196 0)
(0.894398 0.447197 0)
(0.894399 0.447198 0)
(0.894399 0.447199 0)
(0.894399 0.447199 0)
(0.894399 0.447199 0)
(0.8944 0.4472 0)
(0.8944 0.4472 0)
(0.8944 0.4472 0)
(0.8944 0.4472 0)
(0.8944 0.4472 0)
(0.8944 0.4472 0)
(0.8944 0.4472 0)
(0.8944 0.4472 0)
(0.8944 0.4472 0)
(0.8944 0.4472 0)
(0.8944 0.4472 0)
(0.8944 0.4472 0)
(0.8944 0.4472 0)
(0.8944 0.4472 0)
(0.8944 0.4472 0)
(0.8944 0.4472 0)
(0.8944 0.4472 0)
(0.8944 0.4472 0)
(0.8944 0.4472 0)
(0.8944 0.4472 0)
(0.8944 0.4472 0)
(0.8944 0.4472 0)
(0.8944 0.4472 0)
(0.8944 0.4472 0)
(0.8944 0.4472 0)
(0.8944 0.4472 0)
(0.8944 0.4472 0)
(0.8944 0.4472 0)
(0.8944 0.4472 0)
(0.8944 0.4472 0)
(0.8944 0.4472 0)
(0.8944 0.4472 0)
(0.8944 0.4472 0)
(0.8944 0.4472 0)
(0.8944 0.4472 0)
(0.8944 0.4472 0)
(0.8944 0.4472 0)
(0.8944 0.4472 0)
(0.8944 0.4472 0)
(0.8944 0.4472 0)
(0.8944 0.4472 0)
(0.8944 0.4472 0)
(0.8944 0.4472 0)
(0.8944 0.4472 0)
(0.8944 0.4472 0)
(0.8944 0.4472 0)
(0.8944 0.4472 0)
(0.8944 0.4472 0)
(0.8944 0.4472 0)
(0.8944 0.4472 0)
(0.8944 0.4472 0)
(0.8944 0.4472 0)
(0.8944 0.4472 0)
(0.8944 0.4472 0)
(0.8944 0.4472 0)
(0.8944 0.4472 0)
(0.8944 0.4472 0)
(0.8944 0.4472 0)
(0.8944 0.4472 0)
(0.8944 0.4472 0)
(0.8944 0.4472 0)
(0.894401 0.4472 0)
(0.894402 0.447199 0)
(0.894402 0.447198 0)
(0.894404 0.447196 0)
(0.894405 0.447193 0)
(0.894406 0.447189 0)
(0.894406 0.447184 0)
(0.894405 0.447179 0)
(0.894403 0.447175 0)
(0.894399 0.447172 0)
(0.894394 0.447172 0)
(0.894388 0.447176 0)
(0.894382 0.447184 0)
(0.894377 0.447196 0)
(0.894375 0.447211 0)
(0.894375 0.447227 0)
(0.894379 0.447243 0)
(0.894385 0.447256 0)
(0.894394 0.447265 0)
(0.894403 0.447268 0)
(0.894411 0.447265 0)
(0.894417 0.447258 0)
(0.89442 0.447247 0)
(0.894421 0.447234 0)
(0.894419 0.447221 0)
(0.894415 0.44721 0)
(0.894411 0.4472 0)
(0.894406 0.447194 0)
(0.894402 0.44719 0)
(0.894399 0.447188 0)
(0.894397 0.447189 0)
(0.894396 0.44719 0)
(0.894396 0.447192 0)
(0.894396 0.447193 0)
(0.894397 0.447195 0)
(0.894397 0.447196 0)
(0.894398 0.447198 0)
(0.894399 0.447198 0)
(0.894399 0.447199 0)
(0.894399 0.447199 0)
(0.8944 0.4472 0)
(0.8944 0.4472 0)
(0.8944 0.4472 0)
(0.8944 0.4472 0)
(0.8944 0.4472 0)
(0.8944 0.4472 0)
(0.8944 0.4472 0)
(0.8944 0.4472 0)
(0.8944 0.4472 0)
(0.8944 0.4472 0)
(0.8944 0.4472 0)
(0.8944 0.4472 0)
(0.8944 0.4472 0)
(0.8944 0.4472 0)
(0.8944 0.4472 0)
(0.8944 0.4472 0)
(0.8944 0.4472 0)
(0.8944 0.4472 0)
(0.8944 0.4472 0)
(0.8944 0.4472 0)
(0.8944 0.4472 0)
(0.8944 0.4472 0)
(0.8944 0.4472 0)
(0.8944 0.4472 0)
(0.8944 0.4472 0)
(0.8944 0.4472 0)
(0.8944 0.4472 0)
(0.8944 0.4472 0)
(0.8944 0.4472 0)
(0.8944 0.4472 0)
(0.8944 0.4472 0)
(0.8944 0.4472 0)
(0.8944 0.4472 0)
(0.8944 0.4472 0)
(0.8944 0.4472 0)
(0.8944 0.4472 0)
(0.8944 0.4472 0)
(0.8944 0.4472 0)
(0.8944 0.4472 0)
(0.8944 0.4472 0)
(0.8944 0.4472 0)
(0.8944 0.4472 0)
(0.8944 0.4472 0)
(0.8944 0.4472 0)
(0.8944 0.4472 0)
(0.8944 0.4472 0)
(0.8944 0.4472 0)
(0.8944 0.4472 0)
(0.8944 0.4472 0)
(0.8944 0.4472 0)
(0.8944 0.4472 0)
(0.8944 0.4472 0)
(0.8944 0.4472 0)
(0.8944 0.4472 0)
(0.8944 0.4472 0)
(0.8944 0.4472 0)
(0.8944 0.4472 0)
(0.8944 0.4472 0)
(0.8944 0.4472 0)
(0.8944 0.4472 0)
(0.894401 0.4472 0)
(0.894402 0.447199 0)
(0.894404 0.447197 0)
(0.894405 0.447194 0)
(0.894407 0.44719 0)
(0.894409 0.447184 0)
(0.89441 0.447177 0)
(0.894408 0.447169 0)
(0.894405 0.447162 0)
(0.894398 0.447158 0)
(0.894389 0.447158 0)
(0.894378 0.447165 0)
(0.894366 0.447179 0)
(0.894357 0.4472 0)
(0.894353 0.447227 0)
(0.894353 0.447257 0)
(0.89436 0.447286 0)
(0.894372 0.44731 0)
(0.894388 0.447326 0)
(0.894405 0.447332 0)
(0.89442 0.447327 0)
(0.894432 0.447313 0)
(0.894438 0.447293 0)
(0.894439 0.447269 0)
(0.894436 0.447245 0)
(0.894429 0.447224 0)
(0.89442 0.447207 0)
(0.894412 0.447194 0)
(0.894404 0.447187 0)
(0.894399 0.447184 0)
(0.894396 0.447184 0)
(0.894394 0.447185 0)
(0.894394 0.447188 0)
(0.894394 0.44719 0)
(0.894395 0.447193 0)
(0.894396 0.447195 0)
(0.894397 0.447196 0)
(0.894398 0.447198 0)
(0.894399 0.447199 0)
(0.894399 0.447199 0)
(0.894399 0.447199 0)
(0.8944 0.4472 0)
(0.8944 0.4472 0)
(0.8944 0.4472 0)
(0.8944 0.4472 0)
(0.8944 0.4472 0)
(0.8944 0.4472 0)
(0.8944 0.4472 0)
(0.8944 0.4472 0)
(0.8944 0.4472 0)
(0.8944 0.4472 0)
(0.8944 0.4472 0)
(0.8944 0.4472 0)
(0.8944 0.4472 0)
(0.8944 0.4472 0)
(0.8944 0.4472 0)
(0.8944 0.4472 0)
(0.8944 0.4472 0)
(0.8944 0.4472 0)
(0.8944 0.4472 0)
(0.8944 0.4472 0)
(0.8944 0.4472 0)
(0.8944 0.4472 0)
(0.8944 0.4472 0)
(0.8944 0.4472 0)
(0.8944 0.4472 0)
(0.8944 0.4472 0)
(0.8944 0.4472 0)
(0.8944 0.4472 0)
(0.8944 0.4472 0)
(0.8944 0.4472 0)
(0.8944 0.4472 0)
(0.8944 0.4472 0)
(0.8944 0.4472 0)
(0.8944 0.4472 0)
(0.8944 0.4472 0)
(0.8944 0.4472 0)
(0.8944 0.4472 0)
(0.8944 0.4472 0)
(0.8944 0.4472 0)
(0.8944 0.4472 0)
(0.8944 0.4472 0)
(0.8944 0.4472 0)
(0.8944 0.4472 0)
(0.8944 0.4472 0)
(0.8944 0.4472 0)
(0.8944 0.4472 0)
(0.8944 0.4472 0)
(0.8944 0.4472 0)
(0.8944 0.4472 0)
(0.8944 0.4472 0)
(0.8944 0.4472 0)
(0.8944 0.4472 0)
(0.8944 0.4472 0)
(0.8944 0.4472 0)
(0.8944 0.4472 0)
(0.8944 0.4472 0)
(0.8944 0.4472 0)
(0.8944 0.4472 0)
(0.8944 0.4472 0)
(0.894401 0.4472 0)
(0.894403 0.447199 0)
(0.894405 0.447197 0)
(0.894408 0.447193 0)
(0.894411 0.447187 0)
(0.894414 0.447178 0)
(0.894415 0.447168 0)
(0.894413 0.447156 0)
(0.894406 0.447145 0)
(0.894395 0.447139 0)
(0.894379 0.447141 0)
(0.894359 0.447154 0)
(0.894339 0.447181 0)
(0.894322 0.44722 0)
(0.894313 0.447268 0)
(0.894314 0.447322 0)
(0.894326 0.447373 0)
(0.894349 0.447415 0)
(0.894377 0.447442 0)
(0.894408 0.447451 0)
(0.894437 0.447441 0)
(0.894458 0.447415 0)
(0.894469 0.447378 0)
(0.894471 0.447335 0)
(0.894465 0.447292 0)
(0.894452 0.447254 0)
(0.894438 0.447223 0)
(0.894423 0.4472 0)
(0.89441 0.447186 0)
(0.8944 0.447179 0)
(0.894394 0.447177 0)
(0.894391 0.447179 0)
(0.89439 0.447183 0)
(0.894391 0.447187 0)
(0.894393 0.44719 0)
(0.894394 0.447193 0)
(0.894396 0.447195 0)
(0.894397 0.447197 0)
(0.894398 0.447198 0)
(0.894399 0.447199 0)
(0.894399 0.447199 0)
(0.8944 0.4472 0)
(0.8944 0.4472 0)
(0.8944 0.4472 0)
(0.8944 0.4472 0)
(0.8944 0.4472 0)
(0.8944 0.4472 0)
(0.8944 0.4472 0)
(0.8944 0.4472 0)
(0.8944 0.4472 0)
(0.8944 0.4472 0)
(0.8944 0.4472 0)
(0.8944 0.4472 0)
(0.8944 0.4472 0)
(0.8944 0.4472 0)
(0.8944 0.4472 0)
(0.8944 0.4472 0)
(0.8944 0.4472 0)
(0.8944 0.4472 0)
(0.8944 0.4472 0)
(0.8944 0.4472 0)
(0.8944 0.4472 0)
(0.8944 0.4472 0)
(0.8944 0.4472 0)
(0.8944 0.4472 0)
(0.8944 0.4472 0)
(0.8944 0.4472 0)
(0.8944 0.4472 0)
(0.8944 0.4472 0)
(0.8944 0.4472 0)
(0.8944 0.4472 0)
(0.8944 0.4472 0)
(0.8944 0.4472 0)
(0.8944 0.4472 0)
(0.8944 0.4472 0)
(0.8944 0.4472 0)
(0.8944 0.4472 0)
(0.8944 0.4472 0)
(0.8944 0.4472 0)
(0.8944 0.4472 0)
(0.8944 0.4472 0)
(0.8944 0.4472 0)
(0.8944 0.4472 0)
(0.8944 0.4472 0)
(0.8944 0.4472 0)
(0.8944 0.4472 0)
(0.8944 0.4472 0)
(0.8944 0.4472 0)
(0.8944 0.4472 0)
(0.8944 0.4472 0)
(0.8944 0.4472 0)
(0.8944 0.4472 0)
(0.8944 0.4472 0)
(0.8944 0.4472 0)
(0.8944 0.4472 0)
(0.8944 0.4472 0)
(0.8944 0.4472 0)
(0.8944 0.4472 0)
(0.8944 0.447201 0)
(0.8944 0.447201 0)
(0.894402 0.4472 0)
(0.894404 0.447199 0)
(0.894407 0.447197 0)
(0.894411 0.447191 0)
(0.894415 0.447183 0)
(0.89442 0.447171 0)
(0.894421 0.447156 0)
(0.894418 0.447139 0)
(0.894407 0.447125 0)
(0.894388 0.447119 0)
(0.894359 0.447127 0)
(0.894324 0.447154 0)
(0.894288 0.447204 0)
(0.894259 0.447276 0)
(0.894242 0.447363 0)
(0.894244 0.447458 0)
(0.894266 0.447546 0)
(0.894307 0.447616 0)
(0.894359 0.447658 0)
(0.894415 0.447668 0)
(0.894465 0.447646 0)
(0.894503 0.447597 0)
(0.894524 0.447529 0)
(0.894527 0.447453 0)
(0.894515 0.447377 0)
(0.894493 0.44731 0)
(0.894468 0.447256 0)
(0.894442 0.447216 0)
(0.894421 0.447191 0)
(0.894404 0.447177 0)
(0.894393 0.447171 0)
(0.894387 0.447172 0)
(0.894385 0.447176 0)
(0.894386 0.447181 0)
(0.894389 0.447186 0)
(0.894391 0.44719 0)
(0.894394 0.447194 0)
(0.894396 0.447196 0)
(0.894397 0.447197 0)
(0.894398 0.447198 0)
(0.894399 0.447199 0)
(0.894399 0.447199 0)
(0.8944 0.4472 0)
(0.8944 0.4472 0)
(0.8944 0.4472 0)
(0.8944 0.4472 0)
(0.8944 0.4472 0)
(0.8944 0.4472 0)
(0.8944 0.4472 0)
(0.8944 0.4472 0)
(0.8944 0.4472 0)
(0.8944 0.4472 0)
(0.8944 0.4472 0)
(0.8944 0.4472 0)
(0.8944 0.4472 0)
(0.8944 0.4472 0)
(0.8944 0.4472 0)
(0.8944 0.4472 0)
(0.8944 0.4472 0)
(0.8944 0.4472 0)
(0.8944 0.4472 0)
(0.8944 0.4472 0)
(0.8944 0.4472 0)
(0.8944 0.4472 0)
(0.8944 0.4472 0)
(0.8944 0.4472 0)
(0.8944 0.4472 0)
(0.8944 0.4472 0)
(0.8944 0.4472 0)
(0.8944 0.4472 0)
(0.8944 0.4472 0)
(0.8944 0.4472 0)
(0.8944 0.4472 0)
(0.8944 0.4472 0)
(0.8944 0.447199 0)
(0.8944 0.447201 0)
(0.8944 0.447199 0)
(0.8944 0.4472 0)
(0.8944 0.4472 0)
(0.8944 0.4472 0)
(0.8944 0.4472 0)
(0.8944 0.4472 0)
(0.8944 0.4472 0)
(0.8944 0.4472 0)
(0.8944 0.4472 0)
(0.8944 0.4472 0)
(0.8944 0.4472 0)
(0.8944 0.4472 0)
(0.8944 0.4472 0)
(0.8944 0.4472 0)
(0.8944 0.4472 0)
(0.8944 0.4472 0)
(0.8944 0.4472 0)
(0.8944 0.4472 0)
(0.8944 0.4472 0)
(0.8944 0.4472 0)
(0.8944 0.4472 0)
(0.8944 0.447201 0)
(0.8944 0.447201 0)
(0.8944 0.447201 0)
(0.894402 0.447201 0)
(0.894405 0.4472 0)
(0.894409 0.447197 0)
(0.894415 0.44719 0)
(0.894422 0.447178 0)
(0.894428 0.447161 0)
(0.89443 0.447141 0)
(0.894424 0.447121 0)
(0.894405 0.447106 0)
(0.894372 0.447106 0)
(0.894321 0.44713 0)
(0.894261 0.447187 0)
(0.894197 0.447283 0)
(0.894145 0.447415 0)
(0.894116 0.447572 0)
(0.894121 0.447735 0)
(0.894162 0.447883 0)
(0.894234 0.447995 0)
(0.894328 0.448055 0)
(0.894427 0.448057 0)
(0.894515 0.448005 0)
(0.89458 0.44791 0)
(0.894615 0.447786 0)
(0.894621 0.447652 0)
(0.894601 0.447522 0)
(0.894563 0.447407 0)
(0.894518 0.447315 0)
(0.894475 0.447248 0)
(0.894439 0.447204 0)
(0.894412 0.447179 0)
(0.894394 0.447168 0)
(0.894384 0.447166 0)
(0.89438 0.447169 0)
(0.894381 0.447175 0)
(0.894384 0.447181 0)
(0.894387 0.447187 0)
(0.894391 0.447191 0)
(0.894394 0.447194 0)
(0.894396 0.447197 0)
(0.894397 0.447198 0)
(0.894398 0.447199 0)
(0.894399 0.447199 0)
(0.894399 0.4472 0)
(0.8944 0.4472 0)
(0.8944 0.4472 0)
(0.8944 0.4472 0)
(0.8944 0.4472 0)
(0.8944 0.4472 0)
(0.8944 0.4472 0)
(0.8944 0.4472 0)
(0.8944 0.4472 0)
(0.8944 0.4472 0)
(0.8944 0.4472 0)
(0.8944 0.4472 0)
(0.8944 0.4472 0)
(0.8944 0.4472 0)
(0.8944 0.4472 0)
(0.8944 0.4472 0)
(0.8944 0.4472 0)
(0.8944 0.4472 0)
(0.8944 0.4472 0)
(0.8944 0.4472 0)
(0.8944 0.4472 0)
(0.8944 0.4472 0)
(0.8944 0.4472 0)
(0.8944 0.4472 0)
(0.8944 0.4472 0)
(0.8944 0.4472 0)
(0.8944 0.4472 0)
(0.8944 0.4472 0)
(0.8944 0.4472 0)
(0.8944 0.4472 0)
(0.8944 0.447199 0)
(0.8944 0.447201 0)
(0.8944 0.447199 0)
(0.8944 0.447201 0)
(0.8944 0.4472 0)
(0.8944 0.4472 0)
(0.8944 0.4472 0)
(0.8944 0.4472 0)
(0.8944 0.4472 0)
(0.8944 0.4472 0)
(0.8944 0.4472 0)
(0.8944 0.4472 0)
(0.8944 0.4472 0)
(0.8944 0.4472 0)
(0.8944 0.4472 0)
(0.8944 0.4472 0)
(0.8944 0.4472 0)
(0.8944 0.4472 0)
(0.8944 0.4472 0)
(0.8944 0.4472 0)
(0.8944 0.4472 0)
(0.8944 0.4472 0)
(0.8944 0.4472 0)
(0.8944 0.4472 0)
(0.8944 0.4472 0)
(0.8944 0.447201 0)
(0.8944 0.447202 0)
(0.894401 0.447202 0)
(0.894402 0.447202 0)
(0.894406 0.447202 0)
(0.894412 0.447198 0)
(0.894421 0.447189 0)
(0.894431 0.447173 0)
(0.894439 0.447152 0)
(0.89444 0.447127 0)
(0.894427 0.447106 0)
(0.894394 0.447098 0)
(0.894335 0.447118 0)
(0.894248 0.44718 0)
(0.894142 0.4473 0)
(0.894033 0.447483 0)
(0.893942 0.447724 0)
(0.893894 0.448 0)
(0.893906 0.44828 0)
(0.893982 0.448523 0)
(0.894113 0.448693 0)
(0.894279 0.448768 0)
(0.894452 0.448741 0)
(0.894602 0.448622 0)
(0.894711 0.448436 0)
(0.894767 0.448211 0)
(0.894774 0.447975 0)
(0.89474 0.447755 0)
(0.894678 0.447565 0)
(0.894604 0.447414 0)
(0.89453 0.447303 0)
(0.89447 0.44723 0)
(0.894426 0.447188 0)
(0.894398 0.447167 0)
(0.894382 0.447162 0)
(0.894376 0.447164 0)
(0.894375 0.447169 0)
(0.894378 0.447176 0)
(0.894382 0.447182 0)
(0.894387 0.447188 0)
(0.894391 0.447192 0)
(0.894394 0.447195 0)
(0.894396 0.447197 0)
(0.894398 0.447198 0)
(0.894399 0.447199 0)
(0.894399 0.4472 0)
(0.8944 0.4472 0)
(0.8944 0.4472 0)
(0.8944 0.4472 0)
(0.8944 0.4472 0)
(0.8944 0.4472 0)
(0.8944 0.4472 0)
(0.8944 0.4472 0)
(0.8944 0.4472 0)
(0.8944 0.4472 0)
(0.8944 0.4472 0)
(0.8944 0.4472 0)
(0.8944 0.4472 0)
(0.8944 0.4472 0)
(0.8944 0.4472 0)
(0.8944 0.4472 0)
(0.8944 0.4472 0)
(0.8944 0.4472 0)
(0.8944 0.4472 0)
(0.8944 0.4472 0)
(0.8944 0.4472 0)
(0.8944 0.4472 0)
(0.8944 0.4472 0)
(0.8944 0.4472 0)
(0.8944 0.4472 0)
(0.8944 0.4472 0)
(0.8944 0.4472 0)
(0.8944 0.4472 0)
(0.8944 0.4472 0)
(0.8944 0.447201 0)
(0.8944 0.447199 0)
(0.8944 0.447201 0)
(0.8944 0.447199 0)
(0.8944 0.4472 0)
(0.8944 0.4472 0)
(0.8944 0.4472 0)
(0.8944 0.4472 0)
(0.8944 0.4472 0)
(0.8944 0.4472 0)
(0.8944 0.4472 0)
(0.8944 0.4472 0)
(0.8944 0.4472 0)
(0.8944 0.4472 0)
(0.8944 0.4472 0)
(0.8944 0.4472 0)
(0.8944 0.4472 0)
(0.8944 0.4472 0)
(0.8944 0.4472 0)
(0.8944 0.4472 0)
(0.8944 0.4472 0)
(0.8944 0.4472 0)
(0.8944 0.4472 0)
(0.8944 0.4472 0)
(0.8944 0.4472 0)
(0.8944 0.4472 0)
(0.8944 0.447201 0)
(0.8944 0.447202 0)
(0.8944 0.447203 0)
(0.894403 0.447205 0)
(0.894407 0.447204 0)
(0.894416 0.4472 0)
(0.894428 0.447188 0)
(0.894442 0.447169 0)
(0.894451 0.447143 0)
(0.894449 0.447119 0)
(0.894422 0.447105 0)
(0.894363 0.447121 0)
(0.894257 0.447189 0)
(0.894107 0.447333 0)
(0.893923 0.447574 0)
(0.893735 0.447916 0)
(0.893581 0.448349 0)
(0.893503 0.448829 0)
(0.893531 0.449299 0)
(0.893673 0.449689 0)
(0.893911 0.449939 0)
(0.894202 0.450013 0)
(0.894498 0.449909 0)
(0.894751 0.449653 0)
(0.894927 0.449296 0)
(0.895014 0.448891 0)
(0.895018 0.448485 0)
(0.894956 0.448116 0)
(0.894855 0.447806 0)
(0.894738 0.447566 0)
(0.894623 0.447391 0)
(0.894524 0.447275 0)
(0.894451 0.447205 0)
(0.894404 0.447169 0)
(0.89438 0.447157 0)
(0.89437 0.447158 0)
(0.894369 0.447164 0)
(0.894372 0.447172 0)
(0.894378 0.447179 0)
(0.894383 0.447185 0)
(0.894388 0.44719 0)
(0.894392 0.447193 0)
(0.894395 0.447196 0)
(0.894397 0.447198 0)
(0.894398 0.447199 0)
(0.894399 0.447199 0)
(0.894399 0.4472 0)
(0.8944 0.4472 0)
(0.8944 0.4472 0)
(0.8944 0.4472 0)
(0.8944 0.4472 0)
(0.8944 0.4472 0)
(0.8944 0.4472 0)
(0.8944 0.4472 0)
(0.8944 0.4472 0)
(0.8944 0.4472 0)
(0.8944 0.4472 0)
(0.8944 0.4472 0)
(0.8944 0.4472 0)
(0.8944 0.4472 0)
(0.8944 0.4472 0)
(0.8944 0.4472 0)
(0.8944 0.4472 0)
(0.8944 0.4472 0)
(0.8944 0.4472 0)
(0.8944 0.4472 0)
(0.8944 0.4472 0)
(0.8944 0.4472 0)
(0.8944 0.4472 0)
(0.8944 0.4472 0)
(0.8944 0.4472 0)
(0.8944 0.4472 0)
(0.894401 0.4472 0)
(0.894399 0.4472 0)
(0.894401 0.4472 0)
(0.894399 0.4472 0)
(0.894401 0.4472 0)
(0.8944 0.4472 0)
(0.8944 0.4472 0)
(0.8944 0.4472 0)
(0.8944 0.4472 0)
(0.8944 0.4472 0)
(0.8944 0.4472 0)
(0.8944 0.4472 0)
(0.8944 0.4472 0)
(0.8944 0.4472 0)
(0.8944 0.4472 0)
(0.8944 0.4472 0)
(0.8944 0.4472 0)
(0.894401 0.4472 0)
(0.8944 0.4472 0)
(0.8944 0.4472 0)
(0.8944 0.4472 0)
(0.8944 0.4472 0)
(0.8944 0.4472 0)
(0.8944 0.4472 0)
(0.8944 0.4472 0)
(0.8944 0.4472 0)
(0.8944 0.447201 0)
(0.894399 0.447201 0)
(0.894399 0.447202 0)
(0.894399 0.447203 0)
(0.8944 0.447206 0)
(0.894403 0.447208 0)
(0.894409 0.447208 0)
(0.894421 0.447203 0)
(0.894437 0.447189 0)
(0.894454 0.447167 0)
(0.894462 0.447141 0)
(0.89445 0.447125 0)
(0.894398 0.447138 0)
(0.894286 0.447213 0)
(0.8941 0.447382 0)
(0.893839 0.447682 0)
(0.893523 0.448139 0)
(0.893201 0.448758 0)
(0.892942 0.449511 0)
(0.892817 0.450327 0)
(0.892877 0.4511 0)
(0.893139 0.451717 0)
(0.893563 0.452073 0)
(0.894074 0.452113 0)
(0.894579 0.451848 0)
(0.894997 0.451336 0)
(0.895277 0.450672 0)
(0.895407 0.449955 0)
(0.895399 0.449268 0)
(0.895288 0.448662 0)
(0.89512 0.448165 0)
(0.894935 0.447786 0)
(0.89476 0.447518 0)
(0.89461 0.447342 0)
(0.894496 0.447235 0)
(0.894421 0.447178 0)
(0.89438 0.447153 0)
(0.894362 0.447149 0)
(0.894359 0.447156 0)
(0.894364 0.447166 0)
(0.894372 0.447176 0)
(0.894379 0.447183 0)
(0.894385 0.447188 0)
(0.89439 0.447192 0)
(0.894393 0.447195 0)
(0.894396 0.447197 0)
(0.894397 0.447198 0)
(0.894399 0.447199 0)
(0.894399 0.4472 0)
(0.8944 0.4472 0)
(0.8944 0.4472 0)
(0.8944 0.4472 0)
(0.8944 0.4472 0)
(0.8944 0.4472 0)
(0.8944 0.4472 0)
(0.8944 0.4472 0)
(0.8944 0.4472 0)
(0.8944 0.4472 0)
(0.8944 0.4472 0)
(0.8944 0.4472 0)
(0.8944 0.4472 0)
(0.8944 0.4472 0)
(0.8944 0.4472 0)
(0.8944 0.4472 0)
(0.8944 0.4472 0)
(0.8944 0.4472 0)
(0.8944 0.4472 0)
(0.8944 0.4472 0)
(0.8944 0.4472 0)
(0.8944 0.4472 0)
(0.8944 0.4472 0)
(0.8944 0.4472 0)
(0.8944 0.447201 0)
(0.894399 0.447199 0)
(0.894402 0.4472 0)
(0.894398 0.447201 0)
(0.894402 0.447198 0)
(0.894399 0.447202 0)
(0.894401 0.447198 0)
(0.8944 0.447202 0)
(0.8944 0.447199 0)
(0.8944 0.4472 0)
(0.8944 0.447201 0)
(0.8944 0.447199 0)
(0.8944 0.447201 0)
(0.8944 0.4472 0)
(0.8944 0.4472 0)
(0.8944 0.4472 0)
(0.8944 0.4472 0)
(0.8944 0.4472 0)
(0.8944 0.4472 0)
(0.8944 0.4472 0)
(0.8944 0.4472 0)
(0.8944 0.4472 0)
(0.8944 0.4472 0)
(0.8944 0.4472 0)
(0.8944 0.4472 0)
(0.8944 0.4472 0)
(0.8944 0.4472 0)
(0.8944 0.4472 0)
(0.894399 0.447201 0)
(0.8944 0.447201 0)
(0.894399 0.447202 0)
(0.894398 0.447205 0)
(0.894399 0.447209 0)
(0.894403 0.447213 0)
(0.894411 0.447214 0)
(0.894427 0.447209 0)
(0.894448 0.447194 0)
(0.894467 0.447171 0)
(0.894469 0.447152 0)
(0.894433 0.447163 0)
(0.894329 0.44724 0)
(0.894125 0.447432 0)
(0.893799 0.44779 0)
(0.893348 0.448361 0)
(0.892809 0.449181 0)
(0.892261 0.450248 0)
(0.891821 0.45151 0)
(0.891613 0.452849 0)
(0.891731 0.454092 0)
(0.892193 0.455047 0)
(0.892938 0.455549 0)
(0.893826 0.455512 0)
(0.894685 0.454957 0)
(0.895376 0.454004 0)
(0.895822 0.452824 0)
(0.896008 0.451592 0)
(0.895977 0.450446 0)
(0.89579 0.449468 0)
(0.895516 0.448688 0)
(0.895221 0.448103 0)
(0.894951 0.447695 0)
(0.89473 0.447433 0)
(0.894565 0.447277 0)
(0.894453 0.447193 0)
(0.894388 0.447154 0)
(0.894357 0.447142 0)
(0.894349 0.447146 0)
(0.894353 0.447157 0)
(0.894363 0.447169 0)
(0.894373 0.447179 0)
(0.894381 0.447187 0)
(0.894387 0.447191 0)
(0.894391 0.447194 0)
(0.894394 0.447196 0)
(0.894397 0.447198 0)
(0.894398 0.447199 0)
(0.894399 0.447199 0)
(0.894399 0.4472 0)
(0.8944 0.4472 0)
(0.8944 0.4472 0)
(0.8944 0.4472 0)
(0.8944 0.4472 0)
(0.8944 0.4472 0)
(0.8944 0.4472 0)
(0.8944 0.4472 0)
(0.8944 0.4472 0)
(0.8944 0.4472 0)
(0.8944 0.4472 0)
(0.8944 0.4472 0)
(0.8944 0.4472 0)
(0.8944 0.4472 0)
(0.8944 0.4472 0)
(0.8944 0.4472 0)
(0.8944 0.4472 0)
(0.8944 0.4472 0)
(0.8944 0.4472 0)
(0.8944 0.4472 0)
(0.8944 0.4472 0)
(0.8944 0.4472 0)
(0.8944 0.447201 0)
(0.8944 0.447199 0)
(0.894401 0.4472 0)
(0.894399 0.447201 0)
(0.8944 0.4472 0)
(0.8944 0.447199 0)
(0.894401 0.447201 0)
(0.894399 0.447199 0)
(0.8944 0.447202 0)
(0.894401 0.447199 0)
(0.894399 0.4472 0)
(0.894401 0.4472 0)
(0.8944 0.4472 0)
(0.8944 0.4472 0)
(0.8944 0.4472 0)
(0.8944 0.4472 0)
(0.8944 0.4472 0)
(0.8944 0.4472 0)
(0.8944 0.4472 0)
(0.8944 0.4472 0)
(0.8944 0.4472 0)
(0.8944 0.4472 0)
(0.8944 0.4472 0)
(0.8944 0.4472 0)
(0.8944 0.4472 0)
(0.8944 0.4472 0)
(0.8944 0.4472 0)
(0.8944 0.4472 0)
(0.8944 0.447201 0)
(0.894399 0.447201 0)
(0.894399 0.447201 0)
(0.894398 0.447204 0)
(0.894397 0.447207 0)
(0.894397 0.447213 0)
(0.894402 0.44722 0)
(0.894414 0.447224 0)
(0.894434 0.447219 0)
(0.89446 0.447204 0)
(0.894477 0.447186 0)
(0.894462 0.447189 0)
(0.894376 0.447261 0)
(0.894177 0.447463 0)
(0.893812 0.447866 0)
(0.893247 0.448542 0)
(0.892479 0.449548 0)
(0.891564 0.450927 0)
(0.890633 0.452666 0)
(0.88988 0.454681 0)
(0.889518 0.456786 0)
(0.889711 0.458718 0)
(0.890498 0.460171 0)
(0.891769 0.46089 0)
(0.893286 0.460735 0)
(0.894743 0.459734 0)
(0.895897 0.458088 0)
(0.896617 0.456101 0)
(0.896896 0.454062 0)
(0.896824 0.452198 0)
(0.896518 0.450644 0)
(0.896089 0.449441 0)
(0.895634 0.448559 0)
(0.895224 0.447949 0)
(0.894897 0.447557 0)
(0.894656 0.44733 0)
(0.894497 0.447209 0)
(0.894401 0.447154 0)
(0.894356 0.447136 0)
(0.894341 0.447137 0)
(0.894343 0.447147 0)
(0.894352 0.44716 0)
(0.894364 0.447172 0)
(0.894375 0.447182 0)
(0.894384 0.447189 0)
(0.89439 0.447193 0)
(0.894393 0.447196 0)
(0.894396 0.447197 0)
(0.894397 0.447198 0)
(0.894398 0.447199 0)
(0.894399 0.447199 0)
(0.8944 0.4472 0)
(0.8944 0.4472 0)
(0.8944 0.4472 0)
(0.8944 0.4472 0)
(0.8944 0.4472 0)
(0.8944 0.4472 0)
(0.8944 0.4472 0)
(0.8944 0.4472 0)
(0.8944 0.4472 0)
(0.8944 0.4472 0)
(0.8944 0.4472 0)
(0.8944 0.4472 0)
(0.8944 0.4472 0)
(0.8944 0.4472 0)
(0.8944 0.4472 0)
(0.8944 0.4472 0)
(0.8944 0.4472 0)
(0.8944 0.447201 0)
(0.894399 0.447199 0)
(0.894401 0.4472 0)
(0.894399 0.4472 0)
(0.8944 0.447201 0)
(0.894401 0.447198 0)
(0.8944 0.447202 0)
(0.894398 0.447199 0)
(0.894404 0.447198 0)
(0.894397 0.447204 0)
(0.894401 0.447197 0)
(0.894399 0.447203 0)
(0.894402 0.447197 0)
(0.8944 0.447202 0)
(0.894399 0.447199 0)
(0.8944 0.4472 0)
(0.8944 0.447199 0)
(0.8944 0.4472 0)
(0.8944 0.4472 0)
(0.8944 0.4472 0)
(0.8944 0.4472 0)
(0.8944 0.447201 0)
(0.8944 0.447199 0)
(0.8944 0.4472 0)
(0.8944 0.4472 0)
(0.8944 0.4472 0)
(0.8944 0.4472 0)
(0.8944 0.4472 0)
(0.8944 0.4472 0)
(0.8944 0.447201 0)
(0.8944 0.4472 0)
(0.8944 0.4472 0)
(0.894399 0.4472 0)
(0.894399 0.447201 0)
(0.894399 0.447202 0)
(0.894397 0.447206 0)
(0.894396 0.447211 0)
(0.894395 0.44722 0)
(0.894401 0.44723 0)
(0.894415 0.447237 0)
(0.894441 0.447234 0)
(0.89447 0.447223 0)
(0.894479 0.44722 0)
(0.894424 0.447273 0)
(0.894247 0.44746 0)
(0.893877 0.44788 0)
(0.893241 0.44863 0)
(0.892281 0.449793 0)
(0.890992 0.451435 0)
(0.889455 0.453596 0)
(0.887879 0.456258 0)
(0.886582 0.459296 0)
(0.885923 0.462442 0)
(0.886179 0.465316 0)
(0.887443 0.467478 0)
(0.889539 0.468539 0)
(0.892069 0.468269 0)
(0.894528 0.466684 0)
(0.89647 0.464069 0)
(0.897671 0.460908 0)
(0.898138 0.457687 0)
(0.898023 0.454767 0)
(0.897539 0.452356 0)
(0.896889 0.450519 0)
(0.896213 0.449204 0)
(0.895609 0.44831 0)
(0.895128 0.447739 0)
(0.894783 0.447405 0)
(0.894556 0.44723 0)
(0.89442 0.447151 0)
(0.894354 0.447125 0)
(0.894331 0.447125 0)
(0.894332 0.447137 0)
(0.894342 0.447152 0)
(0.894356 0.447165 0)
(0.894368 0.447176 0)
(0.894379 0.447185 0)
(0.894387 0.447191 0)
(0.894392 0.447195 0)
(0.894395 0.447197 0)
(0.894397 0.447198 0)
(0.894398 0.447199 0)
(0.894399 0.447199 0)
(0.894399 0.4472 0)
(0.8944 0.4472 0)
(0.8944 0.4472 0)
(0.8944 0.4472 0)
(0.8944 0.4472 0)
(0.8944 0.4472 0)
(0.8944 0.4472 0)
(0.8944 0.4472 0)
(0.8944 0.4472 0)
(0.8944 0.4472 0)
(0.8944 0.4472 0)
(0.8944 0.4472 0)
(0.8944 0.4472 0)
(0.8944 0.447199 0)
(0.8944 0.447201 0)
(0.8944 0.447199 0)
(0.8944 0.447201 0)
(0.8944 0.447199 0)
(0.8944 0.447201 0)
(0.894401 0.447199 0)
(0.894398 0.447201 0)
(0.894402 0.447199 0)
(0.894399 0.4472 0)
(0.894398 0.447201 0)
(0.894403 0.447197 0)
(0.894399 0.447204 0)
(0.894398 0.447199 0)
(0.894402 0.447197 0)
(0.894402 0.447203 0)
(0.894398 0.447199 0)
(0.894399 0.447202 0)
(0.894401 0.447198 0)
(0.894399 0.4472 0)
(0.894401 0.447201 0)
(0.894398 0.4472 0)
(0.894401 0.447199 0)
(0.8944 0.447201 0)
(0.894399 0.447199 0)
(0.8944 0.4472 0)
(0.894401 0.4472 0)
(0.894399 0.4472 0)
(0.8944 0.4472 0)
(0.894401 0.447201 0)
(0.8944 0.4472 0)
(0.8944 0.4472 0)
(0.8944 0.4472 0)
(0.8944 0.4472 0)
(0.8944 0.4472 0)
(0.8944 0.4472 0)
(0.8944 0.447201 0)
(0.894399 0.447201 0)
(0.894397 0.447203 0)
(0.894395 0.447208 0)
(0.894393 0.447216 0)
(0.894392 0.447228 0)
(0.894398 0.447244 0)
(0.894416 0.447256 0)
(0.894448 0.447257 0)
(0.894476 0.447255 0)
(0.89446 0.447286 0)
(0.894329 0.447432 0)
(0.89399 0.447819 0)
(0.893336 0.448585 0)
(0.892257 0.44985 0)
(0.890665 0.451691 0)
(0.88854 0.454167 0)
(0.885996 0.457311 0)
(0.883355 0.461106 0)
(0.881126 0.465391 0)
(0.879898 0.469821 0)
(0.880136 0.473888 0)
(0.882025 0.477009 0)
(0.885334 0.478624 0)
(0.889437 0.478346 0)
(0.893517 0.476139 0)
(0.896804 0.47235 0)
(0.898877 0.467647 0)
(0.899732 0.462806 0)
(0.899628 0.458423 0)
(0.898932 0.45481 0)
(0.89798 0.452062 0)
(0.897 0.45012 0)
(0.896128 0.448823 0)
(0.895437 0.448007 0)
(0.894954 0.447524 0)
(0.894638 0.44727 0)
(0.894452 0.447152 0)
(0.894352 0.447111 0)