/*--------------------------------*- C++ -*----------------------------------*\
  =========                 |
  \\      /  F ield         | OpenFOAM: The Open Source CFD Toolbox
   \\    /   O peration     | Website:  https://openfoam.org
    \\  /    A nd           | Version:  6
     \\/     M anipulation  |
\*---------------------------------------------------------------------------*/
FoamFile
{
    version     2.0;
    format      ascii;
    class       surfaceScalarField;
    location    "1.51";
    object      meshPhi;
}
// * * * * * * * * * * * * * * * * * * * * * * * * * * * * * * * * * * * * * //

dimensions      [0 3 -1 0 0 0 0];

internalField   nonuniform List<scalar> 
44700
(
1.33709e-05
-0.00112892
8.44631e-05
-0.00338497
0.000212686
-0.00563412
0.000397061
-0.0078728
0.000636234
-0.0100975
0.000928412
-0.0123015
0.00127148
-0.0144831
0.00166299
-0.0166387
0.00210005
-0.0187605
0.00257955
-0.0208482
0.00309809
-0.0228985
0.00365188
-0.0249023
0.00423701
-0.0268612
0.00484934
-0.028772
0.00548443
-0.0306247
0.00613778
-0.0324224
0.00680481
-0.0341624
0.00748067
-0.0358337
0.00816061
-0.037441
0.00883986
-0.038982
0.00951349
-0.0404451
0.0101768
-0.0418366
0.0108251
-0.0431544
0.0114537
-0.0443866
0.0120582
-0.0455407
0.0126343
-0.0466153
0.013178
-0.047598
0.0136853
-0.0484978
0.0141528
-0.0493136
0.014577
-0.0500329
0.014955
-0.0506659
0.0152842
-0.0512119
0.0155621
-0.0516586
0.0157868
-0.052017
0.0159568
-0.0522868
0.0160707
-0.0524563
0.0161279
-0.052537
0.0161279
-0.0525291
0.0160707
-0.0524213
0.0159568
-0.0522257
0.0157868
-0.051943
0.0155621
-0.0515623
0.0152842
-0.0510963
0.014955
-0.0505458
0.014577
-0.0499009
0.0141528
-0.0491742
0.0136853
-0.0483671
0.013178
-0.0474705
0.0126343
-0.0464969
0.0120582
-0.045448
0.0114537
-0.0443156
0.0108251
-0.0431122
0.0101768
-0.0418395
0.00951349
-0.0404907
0.00883986
-0.0390775
0.00816061
-0.0376022
0.00748067
-0.0360589
0.00680481
-0.0344588
0.00613778
-0.0328043
0.00548443
-0.0310909
0.00484934
-0.029329
0.00423701
-0.027521
0.00365188
-0.025664
0.00309809
-0.0237671
0.00257955
-0.0218332
0.00210005
-0.0198604
0.00166299
-0.0178572
0.00127149
-0.0158257
0.000928412
-0.0137673
0.000636228
-0.0116871
0.000397065
-0.00958807
0.000212686
-0.00747342
8.44609e-05
-0.00534679
1.33719e-05
-0.00321155
1.421e-15
-0.00107108
4.45203e-05
0.00107108
0.000146703
0.00321155
0.000305913
0.00534679
0.000521113
0.00747342
0.00079088
0.00958807
0.0011134
0.0116871
0.00148648
0.0137673
0.00190761
0.0158257
0.00237387
0.0178572
0.00288209
0.0198604
0.00342882
0.0218332
0.00401023
0.0237671
0.00462234
0.025664
0.00526098
0.027521
0.00592164
0.029329
0.00659981
0.0310909
0.00729084
0.0328043
0.00798986
0.0344588
0.00869206
0.0360589
0.00939264
0.0376022
0.0100866
0.0390775
0.0107693
0.0404907
0.0114359
0.0418395
0.0120817
0.0431122
0.0127023
0.0443156
0.0132935
0.045448
0.013851
0.0464969
0.014371
0.0474705
0.01485
0.0483671
0.0152844
0.0491742
0.0156715
0.0499009
0.0160084
0.0505458
0.0162928
0.0510963
0.0165227
0.0515623
0.0166965
0.051943
0.0168131
0.0522257
0.0168716
0.0524213
0.0168716
0.0525291
0.0168131
0.052537
0.0166965
0.0524563
0.0165227
0.0522868
0.0162928
0.052017
0.0160084
0.0516586
0.0156715
0.0512119
0.0152844
0.0506659
0.01485
0.0500329
0.014371
0.0493136
0.013851
0.0484978
0.0132935
0.047598
0.0127023
0.0466153
0.0120817
0.0455407
0.0114359
0.0443866
0.0107693
0.0431544
0.0100866
0.0418366
0.00939264
0.0404451
0.00869206
0.038982
0.00798986
0.037441
0.00729084
0.0358337
0.00659981
0.0341624
0.00592164
0.0324224
0.00526098
0.0306247
0.00462234
0.028772
0.00401023
0.0268612
0.00342882
0.0249023
0.00288209
0.0228985
0.00237387
0.0208482
0.00190761
0.0187605
0.00148647
0.0166387
0.0011134
0.0144831
0.000790886
0.0123015
0.000521108
0.0100975
0.000305913
0.0078728
0.000146706
0.00563412
4.45186e-05
0.00338497
0.00112892
3.9937e-05
-0.0023136
0.000252633
-0.00693683
0.00063632
-0.011545
0.00118807
-0.0161303
0.00190383
-0.0206848
0.00277824
-0.0251946
0.00380496
-0.0296551
0.00497665
-0.0340588
0.00628469
-0.038389
0.00771975
-0.0426449
0.00927167
-0.0468192
0.0109291
-0.0508932
0.0126803
-0.0548694
0.0145129
-0.0587412
0.0164137
-0.0624881
0.0183691
-0.066116
0.0203654
-0.0696193
0.0223882
-0.0729758
0.0244232
-0.0761949
0.0264561
-0.0792718
0.0284722
-0.0821834
0.0304574
-0.0849422
0.0323977
-0.0875445
0.034279
-0.0899664
0.0360882
-0.0922235
0.0378126
-0.0943131
0.0394397
-0.0962108
0.0409581
-0.0979352
0.0423573
-0.0994846
0.0436269
-0.100835
0.0447583
-0.102006
0.0457434
-0.102998
0.0465752
-0.103787
0.0472478
-0.104396
0.0477565
-0.104825
0.0480976
-0.10505
0.0482687
-0.105097
0.0482687
-0.104966
0.0480976
-0.104635
0.0477565
-0.10413
0.0472478
-0.103452
0.0465752
-0.102581
0.0457434
-0.101542
0.0447583
-0.100339
0.0436269
-0.0989512
0.0423573
-0.0974057
0.0409581
-0.0957055
0.0394397
-0.093833
0.0378126
-0.0918139
0.0360882
-0.089652
0.034279
-0.0873315
0.0323977
-0.0848776
0.0304574
-0.0822942
0.0284722
-0.0795679
0.0264561
-0.0767225
0.0244232
-0.0737622
0.0223882
-0.070676
0.0203654
-0.0674859
0.0183691
-0.0641966
0.0164137
-0.0607993
0.0145129
-0.0573142
0.0126803
-0.0537461
0.0109291
-0.0500888
0.00927167
-0.0463604
0.00771975
-0.0425656
0.00628469
-0.0387009
0.00497665
-0.0347821
0.00380498
-0.0308132
0.00277824
-0.0267962
0.00190381
-0.0227406
0.00118808
-0.0186517
0.00063632
-0.0145352
0.000252627
-0.0103975
3.99399e-05
-0.00624464
4.22214e-15
-0.00208254
0.00013333
0.00208254
0.000439245
0.00624464
0.000915837
0.0103975
0.00156001
0.0145352
0.0023675
0.0186517
0.00333286
0.0227406
0.00444958
0.0267962
0.00571009
0.0308132
0.00710568
0.0347821
0.00862685
0.0387009
0.0102633
0.0425656
0.0120035
0.0463604
0.0138356
0.0500888
0.0157471
0.0537461
0.0177245
0.0573142
0.0197543
0.0607993
0.0218227
0.0641966
0.0239149
0.0674859
0.0260166
0.070676
0.0281135
0.0737622
0.0301906
0.0767225
0.0322338
0.0795679
0.034229
0.0822942
0.036162
0.0848776
0.0380196
0.0873315
0.039789
0.089652
0.0414576
0.0918139
0.0430141
0.093833
0.0444476
0.0957055
0.045748
0.0974057
0.0469064
0.0989512
0.0479147
0.100339
0.0487659
0.101542
0.049454
0.102581
0.0499744
0.103452
0.0503234
0.10413
0.0504984
0.104635
0.0504984
0.104966
0.0503234
0.105097
0.0499744
0.10505
0.049454
0.104825
0.0487659
0.104396
0.0479147
0.103787
0.0469064
0.102998
0.045748
0.102006
0.0444476
0.100835
0.0430141
0.0994846
0.0414576
0.0979352
0.039789
0.0962108
0.0380196
0.0943131
0.036162
0.0922235
0.034229
0.0899664
0.0322338
0.0875445
0.0301906
0.0849422
0.0281135
0.0821834
0.0260166
0.0792718
0.0239149
0.0761949
0.0218227
0.0729758
0.0197543
0.0696193
0.0177245
0.066116
0.0157471
0.0624881
0.0138356
0.0587412
0.0120035
0.0548694
0.0102633
0.0508932
0.00862685
0.0468192
0.00710568
0.0426449
0.00571009
0.038389
0.00444955
0.0340588
0.00333286
0.0296551
0.00236752
0.0251946
0.00155999
0.0206848
0.000915837
0.0161303
0.000439253
0.011545
0.000133325
0.00693683
0.0023136
6.59774e-05
-0.0035515
0.000418541
-0.010648
0.00105476
-0.0177201
0.00196977
-0.0247549
0.00315686
-0.0317395
0.00460712
-0.0386516
0.00631005
-0.0454836
0.00825348
-0.0522232
0.0104231
-0.0588441
0.0128034
-0.0653441
0.0153776
-0.0717119
0.0181268
-0.0779181
0.0210316
-0.0839659
0.0240715
-0.0898452
0.0272243
-0.095524
0.0304679
-0.101011
0.0337793
-0.106298
0.0371347
-0.11135
0.0405103
-0.116183
0.0438825
-0.120788
0.0472268
-0.125131
0.0505197
-0.129231
0.0537382
-0.133082
0.0568589
-0.136649
0.05986
-0.139957
0.0627204
-0.143
0.0654195
-0.145744
0.0679383
-0.148217
0.0702591
-0.150418
0.0723653
-0.152309
0.074242
-0.153924
0.0758761
-0.155263
0.0772559
-0.15629
0.0783715
-0.157042
0.0792153
-0.157519
0.0797812
-0.157688
0.0800651
-0.157587
0.0800651
-0.157219
0.0797812
-0.156551
0.0792153
-0.155623
0.0783715
-0.154439
0.0772559
-0.152969
0.0758761
-0.151253
0.074242
-0.149296
0.0723653
-0.147071
0.0702591
-0.144617
0.0679383
-0.141939
0.0654195
-0.139014
0.0627204
-0.13588
0.05986
-0.132544
0.0568589
-0.128982
0.0537382
-0.125233
0.0505197
-0.121303
0.0472268
-0.117174
0.0438825
-0.11288
0.0405103
-0.108427
0.0371347
-0.103801
0.0337793
-0.0990342
0.0304679
-0.0941324
0.0272243
-0.0890834
0.0240715
-0.0839167
0.0210316
-0.0786391
0.0181268
-0.0732411
0.0153776
-0.067749
0.0128034
-0.0621692
0.0104231
-0.0564962
0.00825348
-0.0507521
0.00631009
-0.0449426
0.00460712
-0.0390694
0.00315683
-0.033146
0.00196979
-0.0271791
0.00105476
-0.0211761
0.000418529
-0.0151456
6.59821e-05
-0.00909533
6.93925e-15
-0.00303307
0.000221451
0.00303307
0.000729196
0.00909533
0.00152007
0.0151456
0.00258894
0.0211761
0.00392873
0.0271791
0.00553041
0.033146
0.00738316
0.0390694
0.00947445
0.0449426
0.0117898
0.0507521
0.0143135
0.0564962
0.0170284
0.0621692
0.0199154
0.067749
0.0229549
0.0732411
0.026126
0.0786391
0.0294065
0.0839167
0.032774
0.0890834
0.0362053
0.0941324
0.0396762
0.0990342
0.0431629
0.103801
0.0466415
0.108427
0.0500874
0.11288
0.0534769
0.117174
0.0567868
0.121303
0.0599936
0.125233
0.0630753
0.128982
0.0660106
0.132544
0.0687788
0.13588
0.0713608
0.139014
0.0737389
0.141939
0.0758962
0.144617
0.0778179
0.147071
0.0794907
0.149296
0.0809027
0.151253
0.0820443
0.152969
0.0829076
0.154439
0.0834865
0.155623
0.0837769
0.156551
0.0837769
0.157219
0.0834865
0.157587
0.0829076
0.157688
0.0820443
0.157519
0.0809027
0.157042
0.0794907
0.15629
0.0778179
0.155263
0.0758962
0.153924
0.0737389
0.152309
0.0713608
0.150418
0.0687788
0.148217
0.0660106
0.145744
0.0630753
0.143
0.0599936
0.139957
0.0567868
0.136649
0.0534769
0.133082
0.0500874
0.129231
0.0466415
0.125131
0.0431629
0.120788
0.0396762
0.116183
0.0362053
0.11135
0.032774
0.106298
0.0294065
0.101011
0.026126
0.095524
0.0229549
0.0898452
0.0199154
0.0839659
0.0170284
0.0779181
0.0143135
0.0717119
0.0117898
0.0653441
0.00947445
0.0588441
0.00738312
0.0522232
0.00553041
0.0454836
0.00392876
0.0386516
0.00258892
0.0317395
0.00152007
0.0247549
0.00072921
0.0177201
0.000221443
0.010648
0.0035515
9.11461e-05
-0.0048397
0.000580695
-0.0145096
0.00146457
-0.0241447
0.00273602
-0.0337262
0.00438571
-0.0432354
0.00640125
-0.0526411
0.00876806
-0.0619317
0.0114692
-0.0710894
0.0144848
-0.0800779
0.0177933
-0.0888932
0.0213713
-0.097519
0.0251927
-0.105915
0.0292303
-0.114084
0.0334558
-0.122013
0.0378383
-0.129657
0.0423469
-0.137029
0.0469499
-0.144116
0.051614
-0.150872
0.0563062
-0.157316
0.0609937
-0.163439
0.0656425
-0.169194
0.0702199
-0.174606
0.0746938
-0.17967
0.0790318
-0.184337
0.0832035
-0.188641
0.0871797
-0.192577
0.0909316
-0.196098
0.0944329
-0.199243
0.097659
-0.202011
0.100587
-0.204355
0.103196
-0.206319
0.105467
-0.207906
0.107385
-0.209068
0.108936
-0.209856
0.110109
-0.210273
0.110895
-0.210275
0.11129
-0.209914
0.11129
-0.209196
0.110895
-0.208079
0.110109
-0.206618
0.108936
-0.20482
0.107385
-0.202646
0.105467
-0.20015
0.103196
-0.197342
0.100587
-0.194186
0.097659
-0.190735
0.0944329
-0.187
0.0909316
-0.182949
0.0871797
-0.178633
0.0832035
-0.174063
0.0790318
-0.16921
0.0746938
-0.164124
0.0702199
-0.158816
0.0656425
-0.15326
0.0609937
-0.147503
0.0563062
-0.141555
0.051614
-0.135395
0.0469499
-0.129066
0.0423469
-0.122577
0.0378383
-0.115911
0.0334558
-0.109107
0.0292303
-0.102173
0.0251927
-0.0950959
0.0213713
-0.0879103
0.0177933
-0.0806236
0.0144848
-0.0732278
0.0114692
-0.0657511
0.00876812
-0.0581996
0.00640125
-0.0505748
0.00438567
-0.042893
0.00273606
-0.0351618
0.00146457
-0.0273897
0.000580679
-0.0195864
9.11527e-05
-0.0117609
9.56742e-15
-0.00392174
0.000308427
0.00392174
0.00101485
0.0117609
0.00211487
0.0195864
0.00360135
0.0273897
0.00546443
0.0351618
0.0076916
0.042893
0.0102678
0.0505748
0.0131756
0.0581996
0.0163948
0.0657511
0.0199037
0.0732278
0.0236784
0.0806236
0.0276923
0.0879103
0.0319182
0.0950959
0.0363271
0.102173
0.040888
0.109107
0.0455698
0.115911
0.0503403
0.122577
0.0551658
0.129066
0.0600133
0.135395
0.0648496
0.141555
0.0696404
0.147503
0.0743527
0.15326
0.0789544
0.158816
0.0834126
0.164124
0.0876969
0.16921
0.0917778
0.174063
0.0956263
0.178633
0.099216
0.182949
0.102522
0.187
0.105521
0.190735
0.108193
0.194186
0.110519
0.197342
0.112482
0.20015
0.114069
0.202646
0.115269
0.20482
0.116074
0.206618
0.116478
0.208079
0.116478
0.209196
0.116074
0.209914
0.115269
0.210275
0.114069
0.210273
0.112482
0.209856
0.110519
0.209068
0.108193
0.207906
0.105521
0.206319
0.102522
0.204355
0.099216
0.202011
0.0956263
0.199243
0.0917778
0.196098
0.0876969
0.192577
0.0834126
0.188641
0.0789544
0.184337
0.0743527
0.17967
0.0696404
0.174606
0.0648496
0.169194
0.0600133
0.163439
0.0551658
0.157316
0.0503403
0.150872
0.0455698
0.144116
0.040888
0.137029
0.0363271
0.129657
0.0319182
0.122013
0.0276923
0.114084
0.0236784
0.105915
0.0199037
0.097519
0.0163948
0.0888932
0.0131756
0.0800779
0.0102677
0.0710894
0.0076916
0.0619317
0.00546448
0.0526411
0.00360131
0.0432354
0.00211487
0.0337262
0.00101487
0.0241447
0.000308416
0.0145096
0.0048397
0.000115104
-0.00617488
0.000737634
-0.0185119
0.0018624
-0.0308024
0.00348081
-0.0430212
0.00558096
-0.0551433
0.00814709
-0.0671273
0.0111606
-0.0789574
0.0146
-0.0906097
0.0184399
-0.102037
0.0226529
-0.113233
0.0272091
-0.124176
0.0320753
-0.134813
0.037217
-0.14515
0.0425979
-0.155166
0.0481788
-0.164805
0.0539204
-0.174083
0.0597823
-0.182983
0.0657219
-0.191446
0.0716975
-0.199498
0.077667
-0.207126
0.0835873
-0.214271
0.0894166
-0.220966
0.0951142
-0.227203
0.100639
-0.232923
0.105952
-0.238168
0.111015
-0.242934
0.115793
-0.247162
0.120253
-0.250903
0.124361
-0.254156
0.12809
-0.256865
0.131412
-0.259085
0.134305
-0.260822
0.136748
-0.262018
0.138723
-0.262738
0.140216
-0.262987
0.141218
-0.262713
0.141721
-0.261984
0.141721
-0.260806
0.141218
-0.259132
0.140216
-0.25703
0.138723
-0.254512
0.136748
-0.251531
0.134305
-0.248157
0.131412
-0.244403
0.12809
-0.240226
0.124361
-0.235697
0.120253
-0.230826
0.115793
-0.225577
0.111015
-0.220017
0.105952
-0.214158
0.100639
-0.207967
0.0951142
-0.201507
0.0894166
-0.19479
0.0835873
-0.187787
0.077667
-0.180558
0.0716975
-0.173112
0.0657219
-0.165427
0.0597823
-0.157554
0.0539204
-0.149505
0.0481788
-0.141259
0.0425979
-0.132864
0.037217
-0.124328
0.0320753
-0.115637
0.0272091
-0.10683
0.0226529
-0.0979157
0.0184399
-0.0888845
0.0146
-0.0797691
0.0111607
-0.0705758
0.00814709
-0.0613052
0.00558091
-0.0519757
0.00348085
-0.0425952
0.0018624
-0.0331723
0.000737615
-0.0237175
0.000115112
-0.0142397
1.21033e-14
-0.00474806
0.000393811
0.00474806
0.00129453
0.0142397
0.00269654
0.0237175
0.00459076
0.0331723
0.00696465
0.0425952
0.00980222
0.0519757
0.0130843
0.0613052
0.0167887
0.0705758
0.0208899
0.0797691
0.0253599
0.0888845
0.0301683
0.0979157
0.0352816
0.10683
0.0406646
0.115637
0.0462809
0.124328
0.0520907
0.132864
0.0580544
0.141259
0.0641311
0.149505
0.0702779
0.157554
0.0764526
0.165427
0.082613
0.173112
0.0887153
0.180558
0.0947179
0.187787
0.100579
0.19479
0.106258
0.201507
0.111715
0.207967
0.116913
0.214158
0.121815
0.220017
0.126388
0.225577
0.130599
0.230826
0.134419
0.235697
0.137822
0.240226
0.140785
0.244403
0.143285
0.248157
0.145307
0.251531
0.146835
0.254512
0.14786
0.25703
0.148375
0.259132
0.148375
0.260806
0.14786
0.261984
0.146835
0.262713
0.145307
0.262987
0.143285
0.262738
0.140785
0.262018
0.137822
0.260822
0.134419
0.259085
0.130599
0.256865
0.126388
0.254156
0.121815
0.250903
0.116913
0.247162
0.111715
0.242934
0.106258
0.238168
0.100579
0.232923
0.0947179
0.227203
0.0887153
0.220966
0.082613
0.214271
0.0764526
0.207126
0.0702779
0.199498
0.0641311
0.191446
0.0580544
0.182983
0.0520907
0.174083
0.0462809
0.164805
0.0406646
0.155166
0.0352816
0.14515
0.0301683
0.134813
0.0253599
0.124176
0.0208899
0.113233
0.0167887
0.102037
0.0130842
0.0906097
0.00980222
0.0789574
0.00696471
0.0671273
0.00459072
0.0551433
0.00269654
0.0430212
0.00129455
0.0308024
0.000393797
0.0185119
0.00617488
0.000137522
-0.00755337
0.000887935
-0.0226437
0.00224497
-0.0376749
0.00419826
-0.0526145
0.00673343
-0.0674303
0.00983143
-0.0820705
0.0134698
-0.0965142
0.0176226
-0.110731
0.0222592
-0.124662
0.0273464
-0.138298
0.0328482
-0.151611
0.0387245
-0.164537
0.0449335
-0.17708
0.0514315
-0.189216
0.0581711
-0.200876
0.0651048
-0.212076
0.0721839
-0.222799
0.0793569
-0.232971
0.0865734
-0.242623
0.0937826
-0.25174
0.100932
-0.260251
0.107972
-0.268196
0.114853
-0.275567
0.121525
-0.282291
0.127941
-0.288423
0.134057
-0.293957
0.139827
-0.298822
0.145213
-0.303084
0.150175
-0.306741
0.154678
-0.309727
0.15869
-0.312113
0.162184
-0.313903
0.165134
-0.315034
0.167519
-0.315584
0.169323
-0.315562
0.170533
-0.314907
0.17114
-0.313701
0.17114
-0.311959
0.170533
-0.309621
0.169323
-0.306776
0.167519
-0.303435
0.165134
-0.299549
0.162184
-0.295203
0.15869
-0.290412
0.154678
-0.28513
0.150175
-0.279441
0.145213
-0.273362
0.139827
-0.26685
0.134057
-0.259986
0.127941
-0.252786
0.121525
-0.245213
0.114853
-0.237344
0.107972
-0.229192
0.100932
-0.220727
0.0937826
-0.212016
0.0865734
-0.203075
0.0793569
-0.193876
0.0721839
-0.18448
0.0651048
-0.174901
0.0581711
-0.165115
0.0514315
-0.155176
0.0449335
-0.145095
0.0387245
-0.134855
0.0328482
-0.1245
0.0273464
-0.11404
0.0222592
-0.103462
0.0176226
-0.0928024
0.0134699
-0.0820682
0.00983143
-0.0712582
0.00673336
-0.0603924
0.00419831
-0.0494779
0.00224497
-0.038523
0.000887911
-0.0275381
0.000137532
-0.0165316
1.45423e-14
-0.00551191
0.000477166
0.00551191
0.00156659
0.0165316
0.0032615
0.0275381
0.0055509
0.038523
0.00841965
0.0494779
0.0118484
0.0603924
0.0158141
0.0712582
0.0202899
0.0820682
0.0252449
0.0928024
0.0306452
0.103462
0.0364545
0.11404
0.0426318
0.1245
0.049135
0.134855
0.0559198
0.145095
0.0629384
0.155176
0.0701427
0.165115
0.0774835
0.174901
0.084909
0.18448
0.0923681
0.193876
0.0998099
0.203075
0.107182
0.212016
0.114433
0.220727
0.121513
0.229192
0.128373
0.237344
0.134965
0.245213
0.141244
0.252786
0.147166
0.259986
0.152689
0.26685
0.157776
0.273362
0.162391
0.279441
0.166502
0.28513
0.17008
0.290412
0.173101
0.295203
0.175543
0.299549
0.177389
0.303435
0.178627
0.306776
0.179249
0.309621
0.179249
0.311959
0.178627
0.313701
0.177389
0.314907
0.175543
0.315562
0.173101
0.315584
0.17008
0.315034
0.166502
0.313903
0.162391
0.312113
0.157776
0.309727
0.152689
0.306741
0.147166
0.303084
0.141244
0.298822
0.134965
0.293957
0.128373
0.288423
0.121513
0.282291
0.114433
0.275567
0.107182
0.268196
0.0998099
0.260251
0.0923681
0.25174
0.084909
0.242623
0.0774835
0.232971
0.0701427
0.222799
0.0629384
0.212076
0.0559198
0.200876
0.049135
0.189216
0.0426318
0.17708
0.0364545
0.164537
0.0306452
0.151611
0.0252449
0.138298
0.0202899
0.124662
0.0158141
0.110731
0.0118484
0.0965142
0.00841972
0.0820705
0.00555084
0.0674303
0.0032615
0.0526145
0.00156662
0.0376749
0.000477148
0.0226437
0.00755337
0.000158082
-0.00897112
0.00103022
-0.0268931
0.00260913
-0.0447421
0.00488271
-0.0624779
0.00783423
-0.0800608
0.0114415
-0.0974274
0.0156784
-0.114551
0.0205146
-0.131395
0.0259145
-0.147887
0.0318394
-0.164016
0.0382475
-0.179747
0.0450917
-0.195002
0.0523238
-0.209786
0.0598925
-0.224069
0.0677428
-0.237769
0.0758194
-0.250906
0.0840653
-0.263456
0.0924206
-0.275334
0.100827
-0.286576
0.109224
-0.297165
0.117553
-0.307015
0.125754
-0.316177
0.133769
-0.324641
0.141541
-0.332321
0.149015
-0.339283
0.156139
-0.345523
0.162861
-0.350958
0.169134
-0.355665
0.174915
-0.359647
0.18016
-0.362825
0.184834
-0.365286
0.188904
-0.367038
0.192341
-0.368008
0.195119
-0.368289
0.197221
-0.367895
0.19863
-0.366757
0.199337
-0.364974
0.199337
-0.362564
0.19863
-0.359463
0.197221
-0.355773
0.195119
-0.351515
0.192341
-0.34663
0.188904
-0.341221
0.184834
-0.335308
0.18016
-0.32884
0.174915
-0.321917
0.169134
-0.31456
0.162861
-0.306722
0.156139
-0.298499
0.149015
-0.289911
0.141541
-0.280918
0.133769
-0.271608
0.125754
-0.262
0.117553
-0.252058
0.109224
-0.241862
0.100827
-0.23143
0.0924206
-0.220731
0.0840653
-0.209835
0.0758194
-0.198758
0.0677428
-0.187473
0.0598925
-0.17604
0.0523238
-0.164473
0.0450917
-0.15275
0.0382475
-0.140922
0.0318394
-0.128997
0.0259145
-0.116961
0.0205146
-0.104853
0.0156785
-0.0926794
0.0114415
-0.0804366
0.00783416
-0.0681454
0.00488277
-0.055812
0.00260913
-0.0434437
0.0010302
-0.0310496
0.000158093
-0.0186372
1.68812e-14
-0.00621357
0.000558067
0.00621357
0.00182944
0.0186372
0.00380625
0.0310496
0.00647566
0.0434437
0.00982002
0.055812
0.0138169
0.0681454
0.0184392
0.0804366
0.0236558
0.0926794
0.0294306
0.104853
0.0357243
0.116961
0.0424944
0.128997
0.0496932
0.140922
0.0572717
0.15275
0.0651782
0.164473
0.0733571
0.17604
0.0817522
0.187473
0.0903064
0.198758
0.0989591
0.209835
0.107651
0.220731
0.116323
0.23143
0.124912
0.241862
0.133362
0.252058
0.141612
0.262
0.149606
0.271608
0.157287
0.280918
0.164604
0.289911
0.171504
0.298499
0.177939
0.306722
0.183867
0.31456
0.189244
0.321917
0.194034
0.32884
0.198203
0.335308
0.201723
0.341221
0.204568
0.34663
0.20672
0.351515
0.208163
0.355773
0.208887
0.359463
0.208887
0.362564
0.208163
0.364974
0.20672
0.366757
0.204568
0.367895
0.201723
0.368289
0.198203
0.368008
0.194034
0.367038
0.189244
0.365286
0.183867
0.362825
0.177939
0.359647
0.171504
0.355665
0.164604
0.350958
0.157287
0.345523
0.149606
0.339283
0.141612
0.332321
0.133362
0.324641
0.124912
0.316177
0.116323
0.307015
0.107651
0.297165
0.0989591
0.286576
0.0903064
0.275334
0.0817522
0.263456
0.0733571
0.250906
0.0651782
0.237769
0.0572717
0.224069
0.0496932
0.209786
0.0424944
0.195002
0.0357243
0.179747
0.0294306
0.164016
0.0236558
0.147887
0.0184391
0.131395
0.0138169
0.114551
0.00982011
0.0974274
0.00647559
0.0800608
0.00380625
0.0624779
0.00182948
0.0447421
0.000558047
0.0268931
0.00897112
0.000176481
-0.0104238
0.00116318
-0.0312468
0.00295183
-0.0519821
0.00552872
-0.0725813
0.00887486
-0.092996
0.0129651
-0.113151
0.0177698
-0.133014
0.0232545
-0.15254
0.0293787
-0.171643
0.0360989
-0.19031
0.0433672
-0.208499
0.0511306
-0.226118
0.059334
-0.243171
0.0679195
-0.259624
0.0768246
-0.275379
0.0859865
-0.29046
0.0953405
-0.304838
0.104819
-0.318416
0.114355
-0.331235
0.123881
-0.343275
0.13333
-0.354437
0.142633
-0.364781
0.151726
-0.374295
0.160543
-0.382883
0.169022
-0.39062
0.177104
-0.397503
0.18473
-0.403441
0.191847
-0.408521
0.198404
-0.412749
0.204355
-0.416038
0.209658
-0.418488
0.214275
-0.420112
0.218174
-0.420828
0.221326
-0.420746
0.22371
-0.419883
0.225309
-0.418165
0.226111
-0.415707
0.226111
-0.412533
0.225309
-0.408573
0.22371
-0.403946
0.221326
-0.398677
0.218174
-0.392705
0.214275
-0.386148
0.209658
-0.379033
0.204355
-0.371304
0.198404
-0.363076
0.191847
-0.354378
0.18473
-0.345157
0.177104
-0.335525
0.169022
-0.325507
0.160543
-0.315059
0.151726
-0.304281
0.142633
-0.293198
0.13333
-0.281769
0.123881
-0.270087
0.114355
-0.258172
0.104819
-0.24599
0.0953405
-0.233619
0.0859865
-0.221078
0.0768246
-0.208337
0.0679195
-0.195462
0.059334
-0.182469
0.0511306
-0.16933
0.0433672
-0.156103
0.0360989
-0.142797
0.0293787
-0.129391
0.0232545
-0.11593
0.0177699
-0.102417
0.0129651
-0.0888474
0.00887477
-0.0752412
0.00552878
-0.0616031
0.00295183
-0.0479386
0.00116315
-0.0342553
0.000176494
-0.0205586
1.91163e-14
-0.00685368
0.000636106
0.00685368
0.00208157
0.0205586
0.00432744
0.0342553
0.00735918
0.0479386
0.0111567
0.0616031
0.0156946
0.0752412
0.0209422
0.0888474
0.026864
0.102417
0.0334192
0.11593
0.0405631
0.129391
0.0482474
0.142797
0.0564182
0.156103
0.0650197
0.16933
0.0739934
0.182469
0.083276
0.195462
0.092804
0.208337
0.102512
0.221078
0.112332
0.233619
0.122197
0.24599
0.132038
0.258172
0.141786
0.270087
0.151375
0.281769
0.160738
0.293198
0.16981
0.304281
0.178527
0.315059
0.186831
0.325507
0.194661
0.335525
0.201965
0.345157
0.208691
0.354378
0.214794
0.363076
0.220229
0.371304
0.224961
0.379033
0.228955
0.386148
0.232184
0.392705
0.234626
0.398677
0.236263
0.403946
0.237085
0.408573
0.237085
0.412533
0.236263
0.415707
0.234626
0.418165
0.232184
0.419883
0.228955
0.420746
0.224961
0.420828
0.220229
0.420112
0.214794
0.418488
0.208691
0.416038
0.201965
0.412749
0.194661
0.408521
0.186831
0.403441
0.178527
0.397503
0.16981
0.39062
0.160738
0.382883
0.151375
0.374295
0.141786
0.364781
0.132038
0.354437
0.122197
0.343275
0.112332
0.331235
0.102512
0.318416
0.092804
0.304838
0.083276
0.29046
0.0739934
0.275379
0.0650197
0.259624
0.0564182
0.243171
0.0482474
0.226118
0.0405631
0.208499
0.0334192
0.19031
0.026864
0.171643
0.0209421
0.15254
0.0156946
0.133014
0.0111568
0.113151
0.0073591
0.092996
0.00432744
0.0725813
0.00208161
0.0519821
0.000636082
0.0312468
0.0104238
0.000192433
-0.0119066
0.00128557
-0.0356908
0.00327021
-0.0593718
0.00613113
-0.082892
0.00984723
-0.106194
0.0143905
-0.129191
0.0197281
-0.151844
0.0258217
-0.174098
0.0326263
-0.195855
0.0400934
-0.217098
0.04817
-0.237778
0.056797
-0.257788
0.0659132
-0.277133
0.0754542
-0.295771
0.0853506
-0.313591
0.0955325
-0.33062
0.105928
-0.346824
0.116462
-0.362092
0.12706
-0.376471
0.137648
-0.389938
0.148149
-0.402383
0.158488
-0.413872
0.168595
-0.424394
0.178394
-0.43384
0.187818
-0.442298
0.196801
-0.449765
0.205277
-0.456138
0.213187
-0.461521
0.220475
-0.46592
0.227089
-0.46924
0.232983
-0.471597
0.238115
-0.473007
0.242448
-0.47338
0.245952
-0.472845
0.248602
-0.471422
0.250379
-0.469033
0.251271
-0.465809
0.251271
-0.461778
0.250379
-0.456869
0.248602
-0.451216
0.245952
-0.444852
0.242448
-0.43771
0.238115
-0.429927
0.232983
-0.421535
0.227089
-0.412475
0.220475
-0.40288
0.213187
-0.392781
0.205277
-0.382127
0.196801
-0.371041
0.187818
-0.359554
0.178394
-0.34762
0.168595
-0.335352
0.158488
-0.322779
0.148149
-0.309859
0.137648
-0.296693
0.12706
-0.283306
0.116462
-0.269659
0.105928
-0.255842
0.0955325
-0.241873
0.0853506
-0.22772
0.0754542
-0.213456
0.0659132
-0.199096
0.056797
-0.184611
0.04817
-0.17006
0.0400934
-0.155453
0.0326263
-0.140767
0.0258217
-0.126047
0.0197283
-0.111294
0.0143905
-0.0965023
0.00984714
-0.08169
0.00613121
-0.0668598
0.00327021
-0.0520146
0.00128553
-0.03716
0.000192448
-0.0222988
2.12451e-14
-0.00743327
0.000710891
0.00743327
0.00232151
0.0222988
0.00482191
0.03716
0.0081959
0.0520146
0.0124212
0.0668598
0.0174695
0.08169
0.0233066
0.0965023
0.0298933
0.111294
0.0371839
0.126047
0.0451291
0.140767
0.0536749
0.155453
0.0627613
0.17006
0.0723266
0.184611
0.0823055
0.199096
0.0926277
0.213456
0.103223
0.22772
0.114018
0.241873
0.124937
0.255842
0.135906
0.269659
0.146849
0.283306
0.157688
0.296693
0.16835
0.309859
0.178761
0.322779
0.188847
0.335352
0.19854
0.34762
0.207772
0.359554
0.216479
0.371041
0.2246
0.382127
0.232079
0.392781
0.238864
0.40288
0.244908
0.412475
0.250169
0.421535
0.254609
0.429927
0.2582
0.43771
0.260915
0.444852
0.262735
0.451216
0.263649
0.456869
0.263649
0.461778
0.262735
0.465809
0.260915
0.469033
0.2582
0.471422
0.254609
0.472845
0.250169
0.47338
0.244908
0.473007
0.238864
0.471597
0.232079
0.46924
0.2246
0.46592
0.216479
0.461521
0.207772
0.456138
0.19854
0.449765
0.188847
0.442298
0.178761
0.43384
0.16835
0.424394
0.157688
0.413872
0.146849
0.402383
0.135906
0.389938
0.124937
0.376471
0.114018
0.362092
0.103223
0.346824
0.0926277
0.33062
0.0823055
0.313591
0.0723266
0.295771
0.0627613
0.277133
0.0536749
0.257788
0.0451291
0.237778
0.0371839
0.217098
0.0298933
0.195855
0.0233065
0.174098
0.0174695
0.151844
0.0124213
0.129191
0.00819581
0.106194
0.00482191
0.082892
0.00232156
0.0593718
0.000710865
0.0356908
0.0119066
0.000205672
-0.0134147
0.00139621
-0.0402103
0.00356157
-0.0668864
0.00668511
-0.0933758
0.0107438
-0.119612
0.015707
-0.145495
0.0215387
-0.170977
0.0281971
-0.195998
0.0356331
-0.220444
0.0437935
-0.244292
0.0526204
-0.267488
0.0620492
-0.289911
0.0720131
-0.311562
0.0824416
-0.332395
0.0932587
-0.352286
0.104388
-0.37126
0.115752
-0.389283
0.127266
-0.406228
0.138851
-0.422148
0.150425
-0.437017
0.161904
-0.450712
0.173207
-0.463309
0.184254
-0.474796
0.194967
-0.485052
0.205269
-0.494176
0.215088
-0.502167
0.224354
-0.508913
0.233001
-0.51453
0.240969
-0.519028
0.2482
-0.522303
0.254643
-0.524488
0.260253
-0.525602
0.26499
-0.525551
0.26882
-0.524477
0.271717
-0.522409
0.27366
-0.519261
0.274635
-0.515185
0.274635
-0.510214
0.27366
-0.504271
0.271717
-0.497511
0.26882
-0.489972
0.26499
-0.481585
0.260253
-0.472503
0.254643
-0.462766
0.2482
-0.452313
0.240969
-0.441292
0.233001
-0.429741
0.224354
-0.417607
0.215088
-0.405027
0.205269
-0.39204
0.194967
-0.378595
0.184254
-0.36482
0.173207
-0.350747
0.161904
-0.336333
0.150425
-0.321689
0.138851
-0.306842
0.127266
-0.291754
0.115752
-0.27652
0.104388
-0.261161
0.0932587
-0.245642
0.0824416
-0.230043
0.0720131
-0.214377
0.0620492
-0.198613
0.0526204
-0.182814
0.0437935
-0.166988
0.0356331
-0.151109
0.0281971
-0.135223
0.0215388
-0.119329
0.015707
-0.103417
0.0107437
-0.0875057
0.00668519
-0.0715936
0.00356157
-0.0556811
0.00139617
-0.0397706
0.000205688
-0.0238618
2.32645e-14
-0.0079537
0.000782054
0.0079537
0.0025479
0.0238618
0.00528663
0.0397706
0.00898056
0.0556811
0.0136053
0.0715936
0.0191299
0.0875057
0.025517
0.103417
0.0327236
0.119329
0.0406999
0.135223
0.0493917
0.151109
0.0587403
0.166988
0.06868
0.182814
0.0791431
0.198613
0.0900583
0.214377
0.101349
0.230043
0.112938
0.245642
0.124745
0.261161
0.136688
0.27652
0.148685
0.291754
0.160654
0.306842
0.172509
0.321689
0.18417
0.336333
0.195556
0.350747
0.206588
0.36482
0.217189
0.378595
0.227286
0.39204
0.236808
0.405027
0.24569
0.417607
0.253869
0.429741
0.26129
0.441292
0.2679
0.452313
0.273653
0.462766
0.27851
0.472503
0.282437
0.481585
0.285406
0.489972
0.287397
0.497511
0.288396
0.504271
0.288396
0.510214
0.287397
0.515185
0.285406
0.519261
0.282437
0.522409
0.27851
0.524477
0.273653
0.525551
0.2679
0.525602
0.26129
0.524488
0.253869
0.522303
0.24569
0.519028
0.236808
0.51453
0.227286
0.508913
0.217189
0.502167
0.206588
0.494176
0.195556
0.485052
0.18417
0.474796
0.172509
0.463309
0.160654
0.450712
0.148685
0.437017
0.136688
0.422148
0.124745
0.406228
0.112938
0.389283
0.101349
0.37126
0.0900583
0.352286
0.0791431
0.332395
0.06868
0.311562
0.0587403
0.289911
0.0493917
0.267488
0.0406999
0.244292
0.0327236
0.220444
0.0255168
0.195998
0.0191299
0.170977
0.0136054
0.145495
0.00898047
0.119612
0.00528663
0.0933758
0.00254795
0.0668864
0.000782025
0.0402103
0.0134147