/*--------------------------------*- C++ -*----------------------------------*\
  =========                 |
  \\      /  F ield         | OpenFOAM: The Open Source CFD Toolbox
   \\    /   O peration     | Website:  https://openfoam.org
    \\  /    A nd           | Version:  6
     \\/     M anipulation  |
\*---------------------------------------------------------------------------*/
FoamFile
{
    version     2.0;
    format      ascii;
    class       volScalarField;
    location    "2.78";
    object      rho;
}
// * * * * * * * * * * * * * * * * * * * * * * * * * * * * * * * * * * * * * //

dimensions      [1 -3 0 0 0 0 0];

internalField   nonuniform List<scalar> 
5625
(
1.4
1.4
1.4
1.4
1.4
1.4
1.4
1.4
1.4
1.4
1.4
1.4
1.4
1.4
1.4
1.4
1.4
1.4
1.40001
1.40001
1.40001
1.40001
1.40001
1.40001
1.40001
1.40001
1.40001
1.40001
1.40001
1.40001
1.40001
1.40001
1.40001
1.40001
1.40001
1.40001
1.40001
1.40001
1.40001
1.40001
1.40001
1.40001
1.40001
1.40001
1.40001
1.40001
1.40001
1.40001
1.40001
1.40001
1.40001
1.40001
1.40001
1.40001
1.40001
1.40001
1.40001
1.40001
1.40001
1.40001
1.40001
1.40001
1.40001
1.40001
1.40001
1.40001
1.40001
1.40001
1.40001
1.40001
1.40001
1.40001
1.40001
1.40001
1.40001
1.4
1.4
1.4
1.4
1.4
1.4
1.4
1.4
1.4
1.4
1.4
1.4
1.4
1.4
1.4
1.4
1.4
1.4
1.40001
1.40001
1.40001
1.40001
1.40001
1.40001
1.40001
1.40001
1.40002
1.40002
1.40002
1.40001
1.40001
1.40001
1.40001
1.40001
1.40001
1.40001
1.40001
1.40001
1.40001
1.40001
1.40001
1.40001
1.40001
1.40001
1.40001
1.40001
1.40001
1.40001
1.40001
1.40001
1.40001
1.40001
1.40001
1.40001
1.40001
1.40001
1.40001
1.40001
1.40001
1.40001
1.40001
1.40001
1.40001
1.40001
1.40001
1.40001
1.40001
1.40001
1.40001
1.40001
1.40001
1.40001
1.40001
1.40001
1.40001
1.4
1.4
1.4
1.4
1.4
1.39999
1.39999
1.39999
1.39999
1.39999
1.39999
1.39999
1.39999
1.4
1.4
1.4
1.4
1.4
1.40001
1.40001
1.40001
1.40001
1.40001
1.40002
1.40002
1.40002
1.40002
1.40002
1.40002
1.40002
1.40002
1.40002
1.40002
1.40001
1.40001
1.40001
1.40001
1.40001
1.40001
1.40001
1.40001
1.40001
1.40001
1.40001
1.40001
1.40001
1.40001
1.40001
1.40001
1.40001
1.40001
1.40001
1.40001
1.40001
1.40001
1.40001
1.40001
1.40001
1.40001
1.40001
1.40001
1.40001
1.40001
1.40001
1.40001
1.40001
1.40001
1.40001
1.40001
1.40001
1.40001
1.40001
1.40001
1.40001
1.40001
1.4
1.4
1.39999
1.39999
1.39999
1.39999
1.39999
1.39999
1.39999
1.39999
1.39999
1.39999
1.39999
1.39999
1.4
1.4
1.4
1.4
1.40001
1.40001
1.40001
1.40002
1.40002
1.40002
1.40002
1.40002
1.40002
1.40002
1.40002
1.40002
1.40002
1.40002
1.40002
1.40002
1.40002
1.40001
1.40001
1.40001
1.40001
1.40001
1.40001
1.40001
1.40001
1.40001
1.40001
1.40001
1.40001
1.40001
1.40001
1.40001
1.40001
1.40001
1.40001
1.40001
1.40001
1.40001
1.40001
1.40001
1.40001
1.40001
1.40001
1.40001
1.40001
1.40001
1.40001
1.40001
1.40001
1.40001
1.40001
1.40001
1.40001
1.40001
1.40001
1.40001
1.40001
1.4
1.39999
1.39999
1.39999
1.39999
1.39999
1.39998
1.39998
1.39998
1.39998
1.39998
1.39999
1.39999
1.39999
1.39999
1.4
1.4
1.4
1.40001
1.40001
1.40002
1.40002
1.40002
1.40003
1.40003
1.40003
1.40003
1.40003
1.40003
1.40003
1.40003
1.40002
1.40002
1.40002
1.40002
1.40002
1.40001
1.40001
1.40001
1.40001
1.40001
1.40001
1.40001
1.40001
1.40001
1.40001
1.40001
1.40001
1.40001
1.40001
1.40001
1.40001
1.40001
1.40001
1.40001
1.40001
1.40001
1.40001
1.40001
1.40001
1.40001
1.40001
1.40001
1.40001
1.40001
1.40001
1.40001
1.40001
1.40001
1.40001
1.40001
1.40001
1.40001
1.40001
1.40001
1.39999
1.39999
1.39999
1.39998
1.39998
1.39998
1.39998
1.39998
1.39998
1.39998
1.39998
1.39998
1.39998
1.39999
1.39999
1.4
1.4
1.40001
1.40001
1.40002
1.40002
1.40003
1.40003
1.40003
1.40004
1.40004
1.40004
1.40004
1.40004
1.40004
1.40003
1.40003
1.40003
1.40003
1.40002
1.40002
1.40002
1.40002
1.40001
1.40001
1.40001
1.40001
1.40001
1.40001
1.40001
1.40001
1.40001
1.40001
1.40001
1.40001
1.40001
1.40001
1.40001
1.40001
1.40001
1.40001
1.40001
1.40001
1.40001
1.40001
1.40001
1.40001
1.40001
1.40001
1.40001
1.40001
1.40001
1.40001
1.40001
1.40001
1.40001
1.40001
1.40001
1.40001
1.40001
1.39999
1.39999
1.39998
1.39998
1.39998
1.39997
1.39997
1.39997
1.39997
1.39997
1.39997
1.39997
1.39998
1.39998
1.39999
1.4
1.4
1.40001
1.40002
1.40002
1.40003
1.40003
1.40004
1.40004
1.40005
1.40005
1.40005
1.40005
1.40005
1.40004
1.40004
1.40004
1.40004
1.40003
1.40003
1.40003
1.40002
1.40002
1.40002
1.40001
1.40001
1.40001
1.40001
1.40001
1.40001
1.40001
1.40001
1.40001
1.40001
1.40001
1.40001
1.40001
1.40001
1.40001
1.40001
1.40001
1.40001
1.40001
1.40001
1.40001
1.40001
1.40001
1.40001
1.40001
1.40001
1.40001
1.40001
1.40001
1.40001
1.40001
1.40001
1.40001
1.40001
1.40001
1.40001
1.39998
1.39998
1.39998
1.39997
1.39997
1.39997
1.39996
1.39996
1.39996
1.39996
1.39997
1.39997
1.39998
1.39998
1.39999
1.4
1.40001
1.40001
1.40002
1.40003
1.40004
1.40005
1.40005
1.40006
1.40006
1.40006
1.40006
1.40006
1.40006
1.40006
1.40005
1.40005
1.40005
1.40004
1.40004
1.40003
1.40003
1.40002
1.40002
1.40002
1.40001
1.40001
1.40001
1.40001
1.40001
1.40001
1.40001
1.40001
1.40001
1.40001
1.40001
1.4
1.4
1.40001
1.40001
1.40001
1.40001
1.40001
1.40001
1.40001
1.40001
1.40001
1.40001
1.40001
1.40001
1.40001
1.40001
1.40001
1.40001
1.40001
1.40001
1.40001
1.40001
1.40001
1.40001
1.39998
1.39997
1.39997
1.39996
1.39996
1.39996
1.39996
1.39995
1.39996
1.39996
1.39996
1.39997
1.39997
1.39998
1.39999
1.4
1.40001
1.40002
1.40004
1.40005
1.40006
1.40006
1.40007
1.40008
1.40008
1.40008
1.40008
1.40008
1.40008
1.40007
1.40007
1.40006
1.40006
1.40005
1.40004
1.40004
1.40003
1.40003
1.40002
1.40002
1.40002
1.40001
1.40001
1.40001
1.40001
1.40001
1.40001
1.40001
1.40001
1.40001
1.40001
1.4
1.4
1.4
1.4
1.4
1.4
1.4
1.40001
1.40001
1.40001
1.40001
1.40001
1.40001
1.40001
1.40001
1.40001
1.40001
1.40001
1.40001
1.40001
1.40001
1.40001
1.40001
1.40001
1.39997
1.39997
1.39996
1.39996
1.39995
1.39995
1.39995
1.39995
1.39995
1.39995
1.39996
1.39997
1.39998
1.39999
1.4
1.40002
1.40003
1.40004
1.40006
1.40007
1.40008
1.40009
1.4001
1.4001
1.40011
1.40011
1.40011
1.4001
1.4001
1.40009
1.40009
1.40008
1.40007
1.40006
1.40006
1.40005
1.40004
1.40004
1.40003
1.40002
1.40002
1.40002
1.40001
1.40001
1.40001
1.40001
1.40001
1.40001
1.40001
1.40001
1.40001
1.4
1.4
1.4
1.4
1.4
1.4
1.4
1.4
1.40001
1.40001
1.40001
1.40001
1.40001
1.40001
1.40001
1.40001
1.40001
1.40001
1.40001
1.40001
1.40001
1.40001
1.40001
1.40001
1.39997
1.39996
1.39995
1.39995
1.39994
1.39994
1.39994
1.39994
1.39994
1.39995
1.39996
1.39997
1.39999
1.4
1.40002
1.40004
1.40006
1.40007
1.40009
1.4001
1.40012
1.40013
1.40014
1.40014
1.40014
1.40014
1.40014
1.40014
1.40013
1.40012
1.40011
1.4001
1.40009
1.40008
1.40007
1.40006
1.40005
1.40004
1.40004
1.40003
1.40002
1.40002
1.40002
1.40001
1.40001
1.40001
1.40001
1.40001
1.40001
1.40001
1.4
1.4
1.4
1.4
1.4
1.4
1.4
1.4
1.4
1.4
1.40001
1.40001
1.40001
1.40001
1.40001
1.40001
1.40001
1.40001
1.40001
1.40001
1.40001
1.40001
1.40001
1.40001
1.40001
1.39996
1.39995
1.39994
1.39994
1.39993
1.39993
1.39994
1.39994
1.39995
1.39996
1.39997
1.39999
1.40001
1.40003
1.40005
1.40008
1.4001
1.40012
1.40014
1.40016
1.40018
1.40019
1.40019
1.4002
1.4002
1.4002
1.40019
1.40018
1.40017
1.40016
1.40014
1.40013
1.40012
1.4001
1.40009
1.40008
1.40006
1.40005
1.40004
1.40004
1.40003
1.40002
1.40002
1.40001
1.40001
1.40001
1.40001
1.40001
1.40001
1.40001
1.4
1.4
1.4
1.4
1.4
1.4
1.4
1.4
1.4
1.4
1.4
1.40001
1.40001
1.40001
1.40001
1.40001
1.40001
1.40001
1.40001
1.40001
1.40001
1.40001
1.40001
1.40001
1.40001
1.39995
1.39994
1.39994
1.39993
1.39993
1.39993
1.39994
1.39995
1.39996
1.39998
1.4
1.40003
1.40005
1.40008
1.40012
1.40015
1.40018
1.4002
1.40023
1.40025
1.40026
1.40027
1.40028
1.40028
1.40028
1.40027
1.40026
1.40024
1.40023
1.40021
1.40019
1.40017
1.40015
1.40013
1.40011
1.4001
1.40008
1.40007
1.40005
1.40004
1.40003
1.40003
1.40002
1.40002
1.40001
1.40001
1.40001
1.40001
1.40001
1.4
1.4
1.4
1.4
1.4
1.4
1.4
1.4
1.4
1.4
1.4
1.4
1.4
1.40001
1.40001
1.40001
1.40001
1.40001
1.40001
1.40001
1.40001
1.40001
1.40001
1.40001
1.40001
1.40001
1.39994
1.39994
1.39993
1.39993
1.39993
1.39994
1.39995
1.39997
1.39999
1.40002
1.40005
1.40009
1.40013
1.40017
1.40021
1.40025
1.40029
1.40033
1.40035
1.40038
1.40039
1.4004
1.4004
1.4004
1.40039
1.40037
1.40035
1.40033
1.4003
1.40027
1.40025
1.40022
1.40019
1.40017
1.40014
1.40012
1.4001
1.40008
1.40007
1.40005
1.40004
1.40003
1.40002
1.40002
1.40001
1.40001
1.40001
1.40001
1.40001
1.4
1.4
1.4
1.4
1.4
1.4
1.4
1.4
1.4
1.4
1.4
1.4
1.4
1.4
1.40001
1.40001
1.40001
1.40001
1.40001
1.40001
1.40001
1.40001
1.40001
1.40001
1.40001
1.40001
1.39994
1.39994
1.39993
1.39994
1.39994
1.39996
1.39998
1.40001
1.40005
1.40009
1.40014
1.4002
1.40025
1.40031
1.40037
1.40042
1.40047
1.40052
1.40055
1.40057
1.40059
1.40059
1.40059
1.40057
1.40055
1.40052
1.40049
1.40045
1.40041
1.40037
1.40033
1.40029
1.40025
1.40021
1.40018
1.40015
1.40012
1.4001
1.40008
1.40006
1.40005
1.40004
1.40003
1.40002
1.40001
1.40001
1.40001
1.40001
1.4
1.4
1.4
1.4
1.4
1.4
1.4
1.4
1.4
1.4
1.4
1.4
1.4
1.4
1.4
1.4
1.40001
1.40001
1.40001
1.40001
1.40001
1.40001
1.40001
1.40001
1.40001
1.40001
1.40001
1.39994
1.39994
1.39994
1.39996
1.39997
1.4
1.40004
1.40009
1.40015
1.40021
1.40029
1.40037
1.40045
1.40053
1.40061
1.40068
1.40075
1.4008
1.40084
1.40086
1.40087
1.40087
1.40085
1.40082
1.40078
1.40073
1.40068
1.40062
1.40056
1.4005
1.40044
1.40038
1.40033
1.40028
1.40023
1.40019
1.40016
1.40013
1.4001
1.40008
1.40006
1.40004
1.40003
1.40002
1.40002
1.40001
1.40001
1.40001
1.4
1.4
1.4
1.4
1.4
1.4
1.4
1.4
1.4
1.4
1.4
1.4
1.4
1.4
1.4
1.4
1.40001
1.40001
1.40001
1.40001
1.40001
1.40001
1.40001
1.40001
1.40001
1.40001
1.40001
1.39995
1.39996
1.39997
1.4
1.40003
1.40008
1.40014
1.40022
1.40031
1.40041
1.40052
1.40063
1.40075
1.40086
1.40097
1.40107
1.40115
1.40122
1.40126
1.40129
1.40129
1.40127
1.40124
1.40118
1.40112
1.40104
1.40095
1.40086
1.40077
1.40068
1.40059
1.40051
1.40043
1.40036
1.4003
1.40025
1.4002
1.40016
1.40012
1.40009
1.40007
1.40005
1.40004
1.40003
1.40002
1.40001
1.40001
1.4
1.4
1.4
1.4
1.4
1.4
1.4
1.4
1.4
1.4
1.4
1.4
1.4
1.4
1.4
1.4
1.4
1.4
1.40001
1.40001
1.40001
1.40001
1.40001
1.40001
1.40001
1.40001
1.40001
1.40001
1.39997
1.39999
1.40002
1.40007
1.40013
1.40021
1.40031
1.40042
1.40056
1.40071
1.40086
1.40103
1.40119
1.40135
1.4015
1.40163
1.40173
1.40182
1.40187
1.40189
1.40188
1.40185
1.40178
1.4017
1.40159
1.40147
1.40134
1.4012
1.40107
1.40093
1.40081
1.40069
1.40058
1.40048
1.4004
1.40032
1.40026
1.4002
1.40015
1.40012
1.40009
1.40006
1.40004
1.40003
1.40002
1.40001
1.40001
1.4
1.4
1.4
1.4
1.4
1.4
1.4
1.4
1.4
1.4
1.4
1.4
1.4
1.4
1.4
1.4
1.4
1.4
1.40001
1.40001
1.40001
1.40001
1.40001
1.40001
1.40001
1.40001
1.40001
1.40001
1.40002
1.40005
1.40011
1.40018
1.40028
1.40041
1.40056
1.40074
1.40093
1.40115
1.40137
1.4016
1.40183
1.40205
1.40225
1.40242
1.40256
1.40266
1.40273
1.40274
1.40272
1.40265
1.40255
1.40242
1.40226
1.40207
1.40188
1.40168
1.40148
1.40129
1.40111
1.40094
1.40078
1.40065
1.40053
1.40042
1.40033
1.40026
1.4002
1.40015
1.40011
1.40008
1.40005
1.40003
1.40002
1.40001
1.40001
1.4
1.4
1.4
1.4
1.4
1.4
1.4
1.4
1.4
1.4
1.4
1.4
1.4
1.4
1.4
1.4
1.4
1.4
1.4
1.40001
1.40001
1.40001
1.40001
1.40001
1.40001
1.40001
1.40001
1.40001
1.40009
1.40015
1.40024
1.40037
1.40052
1.40071
1.40094
1.40119
1.40148
1.40178
1.4021
1.40242
1.40274
1.40303
1.4033
1.40353
1.40372
1.40385
1.40392
1.40393
1.40388
1.40377
1.40362
1.40342
1.40318
1.40291
1.40263
1.40235
1.40206
1.40179
1.40152
1.40128
1.40107
1.40087
1.4007
1.40056
1.40044
1.40034
1.40025
1.40019
1.40013
1.40009
1.40006
1.40004
1.40002
1.40001
1.4
1.4
1.4
1.4
1.4
1.4
1.4
1.4
1.4
1.4
1.4
1.4
1.4
1.4
1.4
1.4
1.4
1.4
1.4
1.4
1.4
1.40001
1.40001
1.40001
1.40001
1.40001
1.40001
1.40001
1.40001
1.4002
1.40031
1.40045
1.40064
1.40087
1.40115
1.40148
1.40185
1.40225
1.40268
1.40312
1.40356
1.40399
1.40439
1.40475
1.40505
1.40529
1.40545
1.40553
1.40554
1.40545
1.4053
1.40507
1.40478
1.40444
1.40406
1.40367
1.40326
1.40286
1.40247
1.4021
1.40176
1.40145
1.40118
1.40095
1.40075
1.40058
1.40044
1.40033
1.40024
1.40017
1.40012
1.40008
1.40005
1.40003
1.40001
1.4
1.4
1.39999
1.39999
1.39999
1.39999
1.4
1.4
1.4
1.4
1.4
1.4
1.4
1.4
1.4
1.4
1.4
1.4
1.4
1.4
1.4
1.40001
1.40001
1.40001
1.40001
1.40001
1.40001
1.40001
1.40001
1.40037
1.40054
1.40076
1.40104
1.40138
1.40178
1.40224
1.40276
1.40332
1.40391
1.40451
1.40511
1.40568
1.40622
1.40669
1.40709
1.40739
1.40759
1.40769
1.40768
1.40756
1.40733
1.40701
1.4066
1.40613
1.40561
1.40506
1.4045
1.40394
1.40339
1.40288
1.40241
1.40199
1.40161
1.40129
1.40101
1.40078
1.40059
1.40044
1.40032
1.40022
1.40015
1.4001
1.40006
1.40003
1.40001
1.4
1.39999
1.39999
1.39999
1.39999
1.39999
1.39999
1.39999
1.4
1.4
1.4
1.4
1.4
1.4
1.4
1.4
1.4
1.4
1.4
1.4
1.4
1.4
1.40001
1.40001
1.40001
1.40001
1.40001
1.40001
1.40001
1.40061
1.40087
1.40119
1.4016
1.40209
1.40265
1.4033
1.40401
1.40477
1.40557
1.40637
1.40717
1.40793
1.40862
1.40924
1.40975
1.41014
1.41039
1.41051
1.41047
1.4103
1.40999
1.40955
1.40901
1.40837
1.40767
1.40692
1.40615
1.40538
1.40464
1.40394
1.40329
1.40271
1.40219
1.40175
1.40137
1.40105
1.40079
1.40059
1.40042
1.40029
1.4002
1.40013
1.40008
1.40004
1.40001
1.4
1.39999
1.39999
1.39998
1.39998
1.39999
1.39999
1.39999
1.39999
1.4
1.4
1.4
1.4
1.4
1.4
1.4
1.4
1.4
1.4
1.4
1.4
1.4
1.40001
1.40001
1.40001
1.40001
1.40001
1.40001
1.40001
1.40097
1.40134
1.4018
1.40238
1.40306
1.40384
1.40472
1.40568
1.4067
1.40775
1.40881
1.40985
1.41083
1.41172
1.4125
1.41315
1.41364
1.41395
1.41409
1.41404
1.4138
1.41339
1.41282
1.4121
1.41127
1.41034
1.40934
1.40832
1.40729
1.4063
1.40535
1.40447
1.40368
1.40298
1.40237
1.40185
1.40142
1.40107
1.40079
1.40057
1.40039
1.40026
1.40017
1.4001
1.40005
1.40002
1.4
1.39999
1.39998
1.39998
1.39998
1.39998
1.39998
1.39999
1.39999
1.39999
1.4
1.4
1.4
1.4
1.4
1.4
1.4
1.4
1.4
1.4
1.4
1.4
1.4
1.40001
1.40001
1.40001
1.40001
1.40001
1.40001
1.40145
1.40198
1.40264
1.40343
1.40436
1.40542
1.40659
1.40786
1.4092
1.41057
1.41193
1.41325
1.41449
1.41561
1.41659
1.41739
1.41799
1.41837
1.41853
1.41846
1.41816
1.41764
1.41691
1.416
1.41493
1.41373
1.41245
1.41111
1.40977
1.40845
1.4072
1.40603
1.40496
1.40402
1.4032
1.4025
1.40192
1.40144
1.40106
1.40076
1.40053
1.40036
1.40023
1.40013
1.40007
1.40003
1.4
1.39998
1.39997
1.39997
1.39997
1.39998
1.39998
1.39998
1.39999
1.39999
1.39999
1.4
1.4
1.4
1.4
1.4
1.4
1.4
1.4
1.4
1.4
1.4
1.4
1.40001
1.40001
1.40001
1.40001
1.40001
1.40001
1.40212
1.40285
1.40375
1.40482
1.40607
1.40747
1.40901
1.41066
1.41237
1.41411
1.41582
1.41746
1.41899
1.42036
1.42155
1.42251
1.42323
1.42369
1.42387
1.42378
1.42342
1.42278
1.42189
1.42077
1.41944
1.41795
1.41633
1.41463
1.41291
1.41121
1.40957
1.40804
1.40664
1.40539
1.4043
1.40337
1.40258
1.40194
1.40143
1.40103
1.40072
1.40048
1.40031
1.40018
1.4001
1.40004
1.4
1.39998
1.39997
1.39996
1.39997
1.39997
1.39997
1.39998
1.39998
1.39999
1.39999
1.39999
1.4
1.4
1.4
1.4
1.4
1.4
1.4
1.4
1.4
1.4
1.4
1.4
1.40001
1.40001
1.40001
1.40001
1.40001
1.40301
1.404
1.40521
1.40664
1.40827
1.41009
1.41207
1.41415
1.4163
1.41844
1.42054
1.42252
1.42435
1.42598
1.42736
1.42848
1.42932
1.42984
1.43006
1.42995
1.42953
1.42879
1.42775
1.42642
1.42484
1.42303
1.42106
1.41896
1.41681
1.41466
1.41258
1.41061
1.40879
1.40716
1.40573
1.4045
1.40346
1.40261
1.40193
1.40139
1.40097
1.40066
1.40042
1.40026
1.40014
1.40006
1.40001
1.39998
1.39996
1.39996
1.39996
1.39996
1.39997
1.39997
1.39998
1.39998
1.39999
1.39999
1.4
1.4
1.4
1.4
1.4
1.4
1.4
1.4
1.4
1.4
1.4
1.4
1.40001
1.40001
1.40001
1.40001
1.40001
1.40417
1.4055
1.4071
1.40895
1.41105
1.41336
1.41584
1.41841
1.42102
1.4236
1.42608
1.4284
1.4305
1.43235
1.43391
1.43516
1.43608
1.43666
1.4369
1.43679
1.43633
1.43552
1.43436
1.43286
1.43106
1.42897
1.42664
1.42414
1.42153
1.41889
1.4163
1.41382
1.41151
1.40941
1.40756
1.40595
1.4046
1.40348
1.40258
1.40186
1.40131
1.40089
1.40058
1.40036
1.4002
1.40009
1.40003
1.39998
1.39996
1.39995
1.39995
1.39995
1.39996
1.39997
1.39997
1.39998
1.39998
1.39999
1.39999
1.4
1.4
1.4
1.4
1.4
1.4
1.4
1.4
1.4
1.4
1.4
1.4
1.40001
1.40001
1.40001
1.40001
1.40567
1.40741
1.40947
1.41184
1.41448
1.41735
1.42037
1.42346
1.42654
1.42953
1.43236
1.43495
1.43726
1.43926
1.44093
1.44224
1.4432
1.4438
1.44405
1.44394
1.44347
1.44264
1.44143
1.43985
1.4379
1.4356
1.43299
1.43012
1.42707
1.42393
1.42078
1.41773
1.41486
1.41222
1.40986
1.40781
1.40606
1.4046
1.40342
1.40248
1.40176
1.4012
1.40079
1.40049
1.40028
1.40014
1.40005
1.39999
1.39996
1.39995
1.39994
1.39994
1.39995
1.39996
1.39997
1.39997
1.39998
1.39999
1.39999
1.39999
1.4
1.4
1.4
1.4
1.4
1.4
1.4
1.4
1.4
1.4
1.4
1.40001
1.40001
1.40001
1.40001
1.40757
1.4098
1.41241
1.41537
1.41861
1.42207
1.42565
1.42924
1.43275
1.43607
1.43914
1.44189
1.44429
1.44631
1.44795
1.44922
1.45014
1.45071
1.45095
1.45086
1.45043
1.44965
1.44851
1.44697
1.44501
1.44265
1.43988
1.43675
1.43333
1.42973
1.42604
1.4224
1.4189
1.41565
1.41271
1.41011
1.40789
1.40603
1.4045
1.40329
1.40234
1.40161
1.40107
1.40068
1.4004
1.40021
1.40009
1.40001
1.39996
1.39994
1.39993
1.39993
1.39994
1.39995
1.39996
1.39997
1.39998
1.39998
1.39999
1.39999
1.4
1.4
1.4
1.4
1.4
1.4
1.4
1.4
1.4
1.4
1.4
1.4
1.40001
1.40001
1.40001
1.40993
1.41274
1.41598
1.41958
1.42346
1.42751
1.43161
1.43561
1.43942
1.44293
1.44606
1.44878
1.45106
1.45292
1.45438
1.45547
1.45624
1.45671
1.4569
1.45684
1.4565
1.45588
1.45493
1.4536
1.45184
1.44961
1.4469
1.44371
1.44009
1.43615
1.432
1.42778
1.42366
1.41974
1.41615
1.41294
1.41016
1.40781
1.40587
1.40431
1.40308
1.40214
1.40144
1.40092
1.40056
1.40031
1.40014
1.40003
1.39997
1.39994
1.39993
1.39992
1.39993
1.39994
1.39995
1.39996
1.39997
1.39998
1.39998
1.39999
1.39999
1.4
1.4
1.4
1.4
1.4
1.4
1.4
1.4
1.4
1.4
1.4
1.40001
1.40001
1.40001
1.4128
1.41627
1.42019
1.42447
1.42897
1.43355
1.43805
1.44231
1.44621
1.44966
1.4526
1.45503
1.45695
1.45842
1.45949
1.46023
1.46072
1.461
1.46111
1.46108
1.46089
1.46052
1.45992
1.459
1.45768
1.45587
1.4535
1.45053
1.44698
1.44292
1.43847
1.43379
1.42908
1.4245
1.42022
1.41633
1.41291
1.40999
1.40756
1.40558
1.40403
1.40282
1.40191
1.40125
1.40077
1.40044
1.40022
1.40007
1.39999
1.39994
1.39992
1.39992
1.39992
1.39993
1.39994
1.39995
1.39996
1.39997
1.39998
1.39999
1.39999
1.4
1.4
1.4
1.4
1.4
1.4
1.4
1.4
1.4
1.4
1.4
1.40001
1.40001
1.40001
1.41623
1.42041
1.42504
1.42997
1.43501
1.43997
1.44466
1.44892
1.45262
1.4557
1.45813
1.45996
1.46124
1.46206
1.46253
1.46276
1.46283
1.46284
1.46283
1.46283
1.46284
1.46282
1.46271
1.4624
1.46177
1.46067
1.45899
1.45661
1.45348
1.44962
1.44514
1.44021
1.43505
1.42987
1.4249
1.4203
1.41618
1.41261
1.40961
1.40715
1.40519
1.40367
1.40251
1.40166
1.40104
1.40061
1.40032
1.40013
1.40002
1.39995
1.39992
1.39991
1.39991
1.39992
1.39993
1.39995
1.39996
1.39997
1.39998
1.39998
1.39999
1.39999
1.4
1.4
1.4
1.4
1.4
1.4
1.4
1.4
1.4
1.4
1.4
1.40001
1.40001
1.42024
1.42516
1.43047
1.43594
1.44135
1.44645
1.45104
1.45494
1.45807
1.46041
1.462
1.46291
1.46326
1.46321
1.4629
1.46246
1.46202
1.46167
1.4615
1.46153
1.46176
1.46216
1.46265
1.46311
1.46339
1.4633
1.46264
1.46124
1.45895
1.45572
1.45159
1.44672
1.44134
1.43572
1.43013
1.42483
1.41998
1.41571
1.41207
1.40905
1.40662
1.40472
1.40326
1.40218
1.40139
1.40084
1.40046
1.40021
1.40006
1.39997
1.39992
1.3999
1.3999
1.39991
1.39992
1.39994
1.39995
1.39996
1.39997
1.39998
1.39999
1.39999
1.4
1.4
1.4
1.4
1.4
1.4
1.4
1.4
1.4
1.4
1.4
1.40001
1.40001
1.4248
1.43043
1.43631
1.44215
1.44766
1.45256
1.45665
1.4598
1.46197
1.4632
1.4636
1.46332
1.46253
1.46143
1.46019
1.459
1.45798
1.45725
1.45689
1.45694
1.4574
1.45825
1.45939
1.46072
1.46205
1.46317
1.46384
1.46377
1.46274
1.4606
1.45728
1.45289
1.44764
1.44182
1.43579
1.42986
1.4243
1.41929
1.41495
1.41131
1.40834
1.40599
1.40418
1.40283
1.40183
1.40113
1.40065
1.40032
1.40012
1.4
1.39993
1.3999
1.3999
1.3999
1.39991
1.39993
1.39994
1.39996
1.39997
1.39998
1.39998
1.39999
1.39999
1.4
1.4
1.4
1.4
1.4
1.4
1.4
1.4
1.4
1.4
1.40001
1.40001
1.42986
1.4361
1.44236
1.44827
1.45351
1.4578
1.46097
1.46296
1.46379
1.46359
1.46255
1.46088
1.45881
1.45657
1.45436
1.45238
1.45078
1.44965
1.4491
1.44916
1.44985
1.45113
1.45293
1.45514
1.45757
1.46001
1.46216
1.4637
1.4643
1.46367
1.46165
1.45822
1.45353
1.44787
1.44165
1.43525
1.42905
1.42333
1.41826
1.41394
1.41037
1.40751
1.40529
1.40362
1.40238
1.40149
1.40088
1.40047
1.4002
1.40004
1.39995
1.39991
1.39989
1.39989
1.3999
1.39992
1.39994
1.39995
1.39996
1.39997
1.39998
1.39999
1.39999
1.4
1.4
1.4
1.4
1.4
1.4
1.4
1.4
1.4
1.4
1.40001
1.40001
1.43529
1.44194
1.44828
1.4539
1.45845
1.46169
1.46352
1.46397
1.46316
1.46132
1.45869
1.45555
1.45216
1.44879
1.44564
1.44291
1.44075
1.43926
1.43853
1.4386
1.43949
1.44117
1.44358
1.44661
1.45011
1.45385
1.45753
1.4608
1.46325
1.46449
1.4642
1.46221
1.45857
1.45351
1.44744
1.44083
1.43414
1.42776
1.42197
1.41693
1.41272
1.4093
1.40661
1.40456
1.40304
1.40194
1.40117
1.40065
1.40031
1.4001
1.39998
1.39992
1.39989
1.39989
1.3999
1.39991
1.39993
1.39994
1.39996
1.39997
1.39998
1.39999
1.39999
1.4
1.4
1.4
1.4
1.4
1.4
1.4
1.4
1.4
1.4
1.4
1.40001
1.44089
1.44767
1.45373
1.45862
1.46202
1.4638
1.46394
1.46259
1.45997
1.45638
1.45214
1.44755
1.44291
1.43848
1.43447
1.43107
1.42841
1.4266
1.42572
1.4258
1.42687
1.4289
1.43184
1.43562
1.44007
1.44502
1.45016
1.45514
1.45951
1.4628
1.46455
1.46443
1.46232
1.45834
1.45285
1.44635
1.4394
1.43249
1.42603
1.42029
1.41538
1.41135
1.40815
1.40568
1.40383
1.40248
1.40153
1.40088
1.40045
1.40018
1.40002
1.39993
1.39989
1.39988
1.39989
1.3999
1.39992
1.39994
1.39995
1.39996
1.39998
1.39998
1.39999
1.39999
1.4
1.4
1.4
1.4
1.4
1.4
1.4
1.4
1.4
1.4
1.40001
1.44643
1.45297
1.45831
1.46203
1.46389
1.46387
1.46209
1.4588
1.45432
1.44901
1.44323
1.4373
1.43153
1.42615
1.42139
1.4174
1.41432
1.41224
1.41122
1.41132
1.41254
1.41488
1.41829
1.4227
1.42799
1.43399
1.44045
1.44701
1.45324
1.45861
1.46256
1.46461
1.46443
1.46199
1.45754
1.45154
1.44462
1.43739
1.43037
1.42395
1.41836
1.41368
1.40991
1.40697
1.40475
1.40312
1.40196
1.40116
1.40062
1.40028
1.40007
1.39996
1.3999
1.39988
1.39988
1.3999
1.39991
1.39993
1.39995
1.39996
1.39997
1.39998
1.39999
1.39999
1.4
1.4
1.4
1.4
1.4
1.4
1.4
1.4
1.4
1.4
1.40001
1.4516
1.4575
1.46169
1.46384
1.46384
1.46182
1.45801
1.45277
1.4465
1.43958
1.4324
1.42528
1.4185
1.4123
1.40687
1.40237
1.39891
1.39659
1.39546
1.39557
1.39693
1.39954
1.40337
1.40834
1.41437
1.42129
1.42889
1.43687
1.4448
1.45215
1.4583
1.46265
1.46469
1.46418
1.46119
1.45613
1.44959
1.44229
1.43487
1.42786
1.4216
1.41627
1.4119
1.40845
1.40582
1.40387
1.40247
1.40149
1.40083
1.40041
1.40015
1.4
1.39992
1.39989
1.39988
1.39989
1.39991
1.39992
1.39994
1.39996
1.39997
1.39998
1.39999
1.39999
1.4
1.4
1.4
1.4
1.4
1.4
1.4
1.4
1.4
1.4
1.40001
1.45612
1.46096
1.46361
1.46389
1.46185
1.45774
1.45193
1.44484
1.43691
1.42854
1.4201
1.41192
1.40424
1.39729
1.39125
1.38626
1.38244
1.37988
1.37865
1.37877
1.38027
1.38315
1.38737
1.39287
1.39957
1.40732
1.41594
1.42516
1.4346
1.44376
1.452
1.45865
1.46304
1.46473
1.46358
1.45985
1.45408
1.44701
1.43941
1.43194
1.42506
1.41908
1.4141
1.41012
1.40704
1.40473
1.40306
1.40189
1.40109
1.40056
1.40024
1.40004
1.39994
1.39989
1.39988
1.39989
1.3999
1.39992
1.39994
1.39995
1.39997
1.39998
1.39998
1.39999
1.4
1.4
1.4
1.4
1.4
1.4
1.4
1.4
1.4
1.4
1.4
1.45973
1.46312
1.46394
1.46217
1.45803
1.45188
1.44417
1.43538
1.42595
1.41629
1.40673
1.39757
1.38904
1.38136
1.37469
1.36919
1.36498
1.36216
1.36079
1.36094
1.3626
1.36577
1.37041
1.37645
1.38381
1.39235
1.40192
1.41226
1.42305
1.43383
1.44399
1.45282
1.45957
1.4636
1.46457
1.46251
1.45787
1.45137
1.44384
1.43607
1.42868
1.42209
1.4165
1.41195
1.4084
1.40571
1.40374
1.40234
1.40138
1.40075
1.40035
1.40011
1.39997
1.39991
1.39988
1.39988
1.3999
1.39991
1.39993
1.39995
1.39996
1.39997
1.39998
1.39999
1.39999
1.4
1.4
1.4
1.4
1.4
1.4
1.4
1.4
1.4
1.4
1.46222
1.46387
1.46269
1.45882
1.45261
1.44454
1.4351
1.42477
1.414
1.40316
1.39254
1.38242
1.37302
1.36453
1.35715
1.35105
1.34637
1.34323
1.34173
1.3419
1.34377
1.34729
1.35243
1.35909
1.36717
1.37654
1.38703
1.39844
1.41046
1.4227
1.4346
1.44545
1.45447
1.46087
1.46411
1.46401
1.46082
1.45521
1.44802
1.44016
1.43239
1.42524
1.41906
1.41394
1.40989
1.40679
1.4045
1.40286
1.40173
1.40097
1.40048
1.40018
1.40001
1.39993
1.39989
1.39988
1.39989
1.39991
1.39993
1.39994
1.39996
1.39997
1.39998
1.39999
1.39999
1.4
1.4
1.4
1.4
1.4
1.4
1.4
1.4
1.4
1.4
1.4635
1.46324
1.45998
1.45405
1.4459
1.43606
1.42506
1.41335
1.40135
1.38938
1.37769
1.36653
1.35613
1.34669
1.33844
1.33158
1.32631
1.32278
1.32111
1.32135
1.3235
1.32751
1.33329
1.34071
1.34964
1.35993
1.3714
1.38387
1.39708
1.41066
1.42414
1.43685
1.44798
1.45669
1.46226
1.46428
1.46282
1.45839
1.45182
1.44409
1.43608
1.42848
1.42174
1.41607
1.41151
1.40798
1.40535
1.40345
1.40212
1.40122
1.40064
1.40028
1.40007
1.39995
1.3999
1.39989
1.39989
1.39991
1.39992
1.39994
1.39996
1.39997
1.39998
1.39999
1.39999
1.4
1.4
1.4
1.4
1.4
1.4
1.4
1.4
1.4
1.4
1.46357
1.46131
1.45601
1.44813
1.43819
1.42676
1.41434
1.40137
1.38818
1.37505
1.36219
1.34984
1.33821
1.32758
1.31821
1.31039
1.30437
1.30035
1.29849
1.29884
1.3014
1.30608
1.31273
1.32115
1.33115
1.34253
1.35511
1.36869
1.38307
1.39794
1.41287
1.42727
1.44037
1.45127
1.45914
1.46337
1.46382
1.46082
1.45514
1.44776
1.43969
1.43175
1.42451
1.4183
1.41324
1.40927
1.40627
1.40409
1.40255
1.40151
1.40082
1.40039
1.40013
1.39999
1.39992
1.39989
1.39989
1.39991
1.39992
1.39994
1.39995
1.39997
1.39998
1.39999
1.39999
1.4
1.4
1.4
1.4
1.4
1.4
1.4
1.4
1.4
1.4
1.4625
1.45825
1.45102
1.44133
1.42978
1.41691
1.4032
1.38901
1.37461
1.3602
1.34598
1.33216
1.319
1.30685
1.29605
1.28699
1.27999
1.27535
1.27326
1.2738
1.27694
1.28254
1.29037
1.30013
1.31153
1.32429
1.33818
1.35301
1.36861
1.38473
1.40102
1.41697
1.43187
1.44482
1.45491
1.46137
1.46384
1.46247
1.4579
1.45109
1.44313
1.43497
1.42732
1.42061
1.41505
1.41063
1.40727
1.40479
1.40303
1.40183
1.40102
1.40051
1.40021
1.40003
1.39994
1.3999
1.3999
1.39991
1.39992
1.39994
1.39995
1.39997
1.39998
1.39998
1.39999
1.4
1.4
1.4
1.4
1.4
1.4
1.4
1.4
1.4
1.4
1.46043
1.45428
1.44524
1.43392
1.42092
1.40673
1.39179
1.37637
1.36065
1.34478
1.3289
1.31326
1.29818
1.28408
1.27145
1.26079
1.25254
1.2471
1.24472
1.24552
1.24945
1.25629
1.26571
1.27727
1.29052
1.30506
1.32059
1.33689
1.35381
1.3712
1.3888
1.40618
1.42272
1.43756
1.44974
1.45839
1.46294
1.46332
1.46004
1.45401
1.44634
1.43809
1.43011
1.42296
1.41692
1.41207
1.40832
1.40555
1.40355
1.40217
1.40125
1.40066
1.40029
1.40008
1.39997
1.39992
1.3999
1.39991
1.39992
1.39994
1.39995
1.39996
1.39997
1.39998
1.39999
1.39999
1.4
1.4
1.4
1.4
1.4
1.4
1.4
1.4
1.4
1.45754
1.4496
1.43892
1.42613
1.4118
1.39639
1.38024
1.36351
1.34631
1.32869
1.31079
1.29288
1.27537
1.25883
1.24386
1.23115
1.22131
1.21484
1.2121
1.21323
1.21817
1.22665
1.23816
1.25209
1.26777
1.28464
1.30225
1.32034
1.33879
1.35752
1.3764
1.39511
1.41314
1.42971
1.44384
1.45458
1.46119
1.46341
1.46157
1.45648
1.44926
1.44106
1.43285
1.42531
1.41883
1.41354
1.40943
1.40634
1.40411
1.40255
1.4015
1.40081
1.40039
1.40014
1.4
1.39994
1.39991
1.39991
1.39992
1.39994
1.39995
1.39996
1.39997
1.39998
1.39999
1.39999
1.4
1.4
1.4
1.4
1.4
1.4
1.4
1.4
1.4
1.45401
1.44442
1.43226
1.41813
1.40259
1.386
1.36861
1.35046
1.33154
1.31183
1.29146
1.27075
1.25024
1.23063
1.21275
1.19748
1.18563
1.17788
1.17467
1.17621
1.18242
1.19294
1.2071
1.22406
1.24288
1.26273
1.28298
1.30331
1.32358
1.34381
1.36399
1.38396
1.40335
1.42147
1.4374
1.4501
1.45872
1.4628
1.46249
1.45848
1.45185
1.44383
1.43549
1.42762
1.42074
1.41505
1.41056
1.40716
1.40469
1.40294
1.40176
1.40098
1.4005
1.4002
1.40004
1.39996
1.39992
1.39992
1.39992
1.39994
1.39995
1.39996
1.39997
1.39998
1.39999
1.39999
1.4
1.4
1.4
1.4
1.4
1.4
1.4
1.4
1.4
1.45002
1.43893
1.42543
1.41011
1.39342
1.37568
1.35696
1.33722
1.31629
1.29409
1.27075
1.24665
1.22247
1.19913
1.17769
1.15931
1.14503
1.13572
1.13193
1.13395
1.14168
1.15467
1.17208
1.19277
1.21549
1.23906
1.26263
1.28571
1.30819
1.33013
1.3517
1.37291
1.39355
1.41306
1.4306
1.44512
1.45565
1.46158
1.46284
1.46
1.4541
1.44637
1.43799
1.42987
1.42263
1.41656
1.41171
1.40801
1.40529
1.40336
1.40204
1.40117
1.40061
1.40028
1.40008
1.39998
1.39994
1.39993
1.39993
1.39994
1.39995
1.39996
1.39997
1.39998
1.39999
1.39999
1.4
1.4
1.4
1.4
1.4
1.4
1.4
1.4
1.4
1.44573
1.4333
1.4186
1.40217
1.38441
1.36548
1.34535
1.3238
1.30055
1.27545
1.24859
1.22047
1.19192
1.16413
1.13849
1.11647
1.09938
1.08827
1.08381
1.08635
1.09581
1.11166
1.13288
1.158
1.18538
1.21346
1.24105
1.2675
1.2926
1.31655
1.33963
1.36209
1.38389
1.40466
1.42363
1.43981
1.45213
1.45983
1.46267
1.46107
1.45598
1.44865
1.44032
1.43203
1.42448
1.41805
1.41286
1.40886
1.4059
1.40379
1.40233
1.40136
1.40074
1.40035
1.40013
1.40001
1.39996
1.39994
1.39993
1.39994
1.39995
1.39996
1.39997
1.39998
1.39999
1.39999
1.4
1.4
1.4
1.4
1.4
1.4
1.4
1.4
1.4
1.4413
1.42766
1.41188
1.39444
1.37562
1.35546
1.33379
1.31023
1.28436
1.25592
1.22501
1.19222
1.15862
1.12573
1.09533
1.06924
1.04904
1.03594
1.03072
1.03379
1.04512
1.06415
1.08963
1.1198
1.15254
1.18588
1.21821
1.24863
1.27685
1.30311
1.32789
1.35162
1.37453
1.39642
1.41667
1.43432
1.44829
1.45767
1.46207
1.46173
1.45752
1.45066
1.44247
1.43406
1.42625
1.4195
1.41399
1.40971
1.40652
1.40422
1.40262
1.40156
1.40087
1.40044
1.40019
1.40005
1.39998
1.39995
1.39994
1.39995
1.39996
1.39997
1.39998
1.39998
1.39999
1.39999
1.4
1.4
1.4
1.4
1.4
1.4
1.4
1.4
1.4
1.43685
1.42214
1.40539
1.38701
1.36714
1.34571
1.32237
1.2966
1.26781
1.23564
1.20018
1.16215
1.12292
1.08439
1.04883
1.01839
0.994905
0.97969
0.973611
0.977173
0.990436
1.01281
1.04288
1.07854
1.11722
1.15644
1.19418
1.22916
1.26097
1.28988
1.31653
1.34162
1.36559
1.38848
1.40985
1.42882
1.44427
1.45522
1.4611
1.46202
1.45872
1.4524
1.4444
1.43594
1.42792
1.42089
1.41509
1.41055
1.40713
1.40465
1.40292
1.40176
1.401
1.40052
1.40024
1.40008
1.4
1.39996
1.39995
1.39995
1.39996
1.39997
1.39998
1.39998
1.39999
1.39999
1.4
1.4
1.4
1.4
1.4
1.4
1.4
1.4
1.4
1.4325
1.41683
1.39921
1.37994
1.35904
1.33628
1.31117
1.28303
1.2511
1.2149
1.17449
1.13078
1.08549
1.04101
1.00007
0.96519
0.938363
0.920965
0.913931
0.917898