/*--------------------------------*- C++ -*----------------------------------*\
  =========                 |
  \\      /  F ield         | OpenFOAM: The Open Source CFD Toolbox
   \\    /   O peration     | Website:  https://openfoam.org
    \\  /    A nd           | Version:  6
     \\/     M anipulation  |
\*---------------------------------------------------------------------------*/
FoamFile
{
    version     2.0;
    format      ascii;
    class       volVectorField;
    location    "4.25";
    object      U;
}
// * * * * * * * * * * * * * * * * * * * * * * * * * * * * * * * * * * * * * //

dimensions      [0 1 -1 0 0 0 0];

internalField   nonuniform List<vector> 
10000
(
(0.894399 0.4472 0)
(0.8944 0.4472 0)
(0.8944 0.4472 0)
(0.8944 0.4472 0)
(0.8944 0.4472 0)
(0.8944 0.4472 0)
(0.8944 0.4472 0)
(0.8944 0.4472 0)
(0.8944 0.4472 0)
(0.8944 0.4472 0)
(0.8944 0.4472 0)
(0.8944 0.4472 0)
(0.8944 0.4472 0)
(0.8944 0.4472 0)
(0.8944 0.4472 0)
(0.8944 0.4472 0)
(0.8944 0.4472 0)
(0.8944 0.4472 0)
(0.8944 0.4472 0)
(0.8944 0.4472 0)
(0.8944 0.4472 0)
(0.8944 0.4472 0)
(0.8944 0.4472 0)
(0.8944 0.4472 0)
(0.8944 0.4472 0)
(0.8944 0.4472 0)
(0.8944 0.4472 0)
(0.8944 0.4472 0)
(0.8944 0.4472 0)
(0.8944 0.4472 0)
(0.8944 0.4472 0)
(0.8944 0.4472 0)
(0.8944 0.4472 0)
(0.8944 0.4472 0)
(0.8944 0.4472 0)
(0.8944 0.4472 0)
(0.8944 0.4472 0)
(0.8944 0.4472 0)
(0.894399 0.447201 0)
(0.894399 0.447201 0)
(0.894398 0.447202 0)
(0.894397 0.447203 0)
(0.894395 0.447206 0)
(0.894394 0.447209 0)
(0.894393 0.447213 0)
(0.894392 0.447218 0)
(0.894394 0.447223 0)
(0.894398 0.447227 0)
(0.894404 0.447229 0)
(0.894412 0.447228 0)
(0.894421 0.447225 0)
(0.89443 0.447221 0)
(0.894436 0.447219 0)
(0.894435 0.447221 0)
(0.894428 0.447233 0)
(0.89441 0.447259 0)
(0.894384 0.447302 0)
(0.89435 0.447367 0)
(0.894308 0.447452 0)
(0.894263 0.447559 0)
(0.894217 0.447687 0)
(0.894174 0.447828 0)
(0.894138 0.44798 0)
(0.894108 0.448137 0)
(0.894095 0.448292 0)
(0.894096 0.448439 0)
(0.894112 0.448568 0)
(0.894149 0.448674 0)
(0.8942 0.448754 0)
(0.894264 0.448796 0)
(0.89434 0.448805 0)
(0.894415 0.448775 0)
(0.894489 0.448708 0)
(0.894558 0.448613 0)
(0.894613 0.448488 0)
(0.894652 0.448344 0)
(0.894675 0.448191 0)
(0.894681 0.448036 0)
(0.894671 0.447881 0)
(0.89465 0.447737 0)
(0.894618 0.447607 0)
(0.894582 0.447496 0)
(0.894543 0.447403 0)
(0.894506 0.447329 0)
(0.894472 0.447273 0)
(0.894445 0.447233 0)
(0.894423 0.447207 0)
(0.894408 0.447192 0)
(0.894398 0.447184 0)
(0.894392 0.447182 0)
(0.89439 0.447182 0)
(0.894389 0.447185 0)
(0.89439 0.447188 0)
(0.894392 0.447191 0)
(0.894394 0.447193 0)
(0.894395 0.447195 0)
(0.894397 0.447197 0)
(0.894398 0.447198 0)
(0.894398 0.447199 0)
(0.894399 0.447199 0)
(0.894399 0.447199 0)
(0.8944 0.4472 0)
(0.8944 0.4472 0)
(0.8944 0.4472 0)
(0.8944 0.4472 0)
(0.8944 0.4472 0)
(0.8944 0.4472 0)
(0.8944 0.4472 0)
(0.8944 0.4472 0)
(0.8944 0.4472 0)
(0.8944 0.4472 0)
(0.8944 0.4472 0)
(0.8944 0.4472 0)
(0.8944 0.4472 0)
(0.8944 0.4472 0)
(0.8944 0.447201 0)
(0.8944 0.4472 0)
(0.8944 0.4472 0)
(0.8944 0.4472 0)
(0.8944 0.4472 0)
(0.8944 0.4472 0)
(0.894401 0.4472 0)
(0.8944 0.447199 0)
(0.894399 0.4472 0)
(0.894401 0.4472 0)
(0.8944 0.447199 0)
(0.894399 0.4472 0)
(0.8944 0.4472 0)
(0.8944 0.4472 0)
(0.8944 0.4472 0)
(0.8944 0.4472 0)
(0.8944 0.4472 0)
(0.8944 0.4472 0)
(0.8944 0.4472 0)
(0.8944 0.4472 0)
(0.8944 0.4472 0)
(0.8944 0.4472 0)
(0.894399 0.4472 0)
(0.894399 0.447201 0)
(0.894398 0.447202 0)
(0.894397 0.447203 0)
(0.894395 0.447205 0)
(0.894393 0.447209 0)
(0.89439 0.447214 0)
(0.894388 0.447221 0)
(0.894387 0.447228 0)
(0.894389 0.447235 0)
(0.894394 0.447241 0)
(0.894402 0.447244 0)
(0.894413 0.447244 0)
(0.894423 0.447243 0)
(0.894431 0.447243 0)
(0.894433 0.447248 0)
(0.894425 0.447264 0)
(0.894407 0.447296 0)
(0.894377 0.447349 0)
(0.894337 0.447427 0)
(0.894288 0.44753 0)
(0.894235 0.44766 0)
(0.894182 0.447811 0)
(0.89413 0.447981 0)
(0.894087 0.448161 0)
(0.894054 0.448344 0)
(0.894034 0.448525 0)
(0.894031 0.448693 0)
(0.894048 0.448844 0)
(0.894081 0.448968 0)
(0.894137 0.44906 0)
(0.894208 0.449116 0)
(0.894288 0.449128 0)
(0.894378 0.449099 0)
(0.894465 0.449032 0)
(0.894546 0.448924 0)
(0.894619 0.448789 0)
(0.894673 0.448629 0)
(0.894708 0.448454 0)
(0.894726 0.448272 0)
(0.894725 0.448093 0)
(0.894707 0.447922 0)
(0.894677 0.447764 0)
(0.894639 0.447625 0)
(0.894597 0.447506 0)
(0.894554 0.447409 0)
(0.894513 0.447332 0)
(0.894477 0.447275 0)
(0.894448 0.447234 0)
(0.894425 0.447207 0)
(0.894408 0.447191 0)
(0.894397 0.447183 0)
(0.894391 0.44718 0)
(0.894388 0.447181 0)
(0.894388 0.447183 0)
(0.894389 0.447186 0)
(0.894391 0.447189 0)
(0.894392 0.447192 0)
(0.894394 0.447194 0)
(0.894396 0.447196 0)
(0.894397 0.447197 0)
(0.894398 0.447198 0)
(0.894399 0.447199 0)
(0.894399 0.447199 0)
(0.894399 0.447199 0)
(0.8944 0.4472 0)
(0.8944 0.4472 0)
(0.8944 0.4472 0)
(0.8944 0.4472 0)
(0.8944 0.4472 0)
(0.8944 0.4472 0)
(0.8944 0.4472 0)
(0.8944 0.4472 0)
(0.8944 0.4472 0)
(0.8944 0.447201 0)
(0.8944 0.447199 0)
(0.8944 0.447201 0)
(0.8944 0.447199 0)
(0.894399 0.447201 0)
(0.8944 0.4472 0)
(0.894399 0.4472 0)
(0.894401 0.447199 0)
(0.8944 0.4472 0)
(0.894399 0.4472 0)
(0.894401 0.447199 0)
(0.8944 0.447201 0)
(0.894399 0.4472 0)
(0.894401 0.4472 0)
(0.8944 0.4472 0)
(0.894399 0.4472 0)
(0.8944 0.4472 0)
(0.8944 0.4472 0)
(0.894401 0.4472 0)
(0.8944 0.447199 0)
(0.894399 0.4472 0)
(0.8944 0.447201 0)
(0.8944 0.4472 0)
(0.8944 0.447199 0)
(0.8944 0.4472 0)
(0.8944 0.4472 0)
(0.894399 0.4472 0)
(0.894398 0.447201 0)
(0.894397 0.447203 0)
(0.894395 0.447204 0)
(0.894392 0.447208 0)
(0.894388 0.447213 0)
(0.894384 0.447221 0)
(0.894381 0.447231 0)
(0.894379 0.447242 0)
(0.894381 0.447251 0)
(0.894388 0.447259 0)
(0.894399 0.447265 0)
(0.894411 0.447268 0)
(0.894421 0.447271 0)
(0.894424 0.447281 0)
(0.894418 0.447301 0)
(0.894398 0.447341 0)
(0.894364 0.447407 0)
(0.894315 0.447502 0)
(0.894258 0.447629 0)
(0.894193 0.447788 0)
(0.894128 0.447973 0)
(0.894067 0.448179 0)
(0.894014 0.448397 0)
(0.893974 0.448618 0)
(0.893951 0.448833 0)
(0.893945 0.449033 0)
(0.893959 0.449208 0)
(0.893998 0.449352 0)
(0.894055 0.44946 0)
(0.894132 0.449522 0)
(0.894227 0.449538 0)
(0.894327 0.449508 0)
(0.894431 0.449431 0)
(0.894529 0.449312 0)
(0.894616 0.449154 0)
(0.89469 0.448974 0)
(0.89474 0.448774 0)
(0.89477 0.448559 0)
(0.89478 0.448352 0)
(0.89477 0.44815 0)
(0.894744 0.447957 0)
(0.894707 0.447788 0)
(0.894662 0.447641 0)
(0.894613 0.447515 0)
(0.894565 0.447414 0)
(0.894521 0.447335 0)
(0.894482 0.447276 0)
(0.89445 0.447234 0)
(0.894426 0.447207 0)
(0.894409 0.44719 0)
(0.894397 0.447182 0)
(0.89439 0.447179 0)
(0.894387 0.447179 0)
(0.894386 0.447182 0)
(0.894387 0.447185 0)
(0.894389 0.447188 0)
(0.894391 0.447191 0)
(0.894393 0.447193 0)
(0.894395 0.447195 0)
(0.894396 0.447197 0)
(0.894397 0.447198 0)
(0.894398 0.447199 0)
(0.894398 0.447199 0)
(0.894399 0.447199 0)
(0.894399 0.447199 0)
(0.8944 0.4472 0)
(0.8944 0.4472 0)
(0.8944 0.4472 0)
(0.8944 0.4472 0)
(0.8944 0.4472 0)
(0.8944 0.4472 0)
(0.8944 0.4472 0)
(0.8944 0.4472 0)
(0.8944 0.4472 0)
(0.8944 0.447199 0)
(0.894399 0.447201 0)
(0.894401 0.4472 0)
(0.894399 0.447199 0)
(0.8944 0.447201 0)
(0.894401 0.4472 0)
(0.8944 0.447199 0)
(0.894398 0.447202 0)
(0.894402 0.447201 0)
(0.8944 0.447197 0)
(0.894398 0.447203 0)
(0.894401 0.447201 0)
(0.894401 0.447198 0)
(0.894399 0.447201 0)
(0.8944 0.447201 0)
(0.8944 0.4472 0)
(0.8944 0.447199 0)
(0.894401 0.4472 0)
(0.8944 0.4472 0)
(0.894399 0.4472 0)
(0.8944 0.4472 0)
(0.894401 0.447199 0)
(0.8944 0.4472 0)
(0.894399 0.4472 0)
(0.894399 0.447201 0)
(0.894399 0.447201 0)
(0.894398 0.447202 0)
(0.894396 0.447203 0)
(0.894393 0.447206 0)
(0.894388 0.447211 0)
(0.894382 0.447219 0)
(0.894375 0.44723 0)
(0.89437 0.447244 0)
(0.894368 0.447259 0)
(0.894371 0.447273 0)
(0.894379 0.447284 0)
(0.894391 0.447293 0)
(0.894404 0.447302 0)
(0.894409 0.447316 0)
(0.894404 0.447342 0)
(0.894382 0.447391 0)
(0.894342 0.447471 0)
(0.894284 0.447589 0)
(0.894212 0.447748 0)
(0.894131 0.447946 0)
(0.89405 0.448178 0)
(0.893973 0.448435 0)
(0.893909 0.448705 0)
(0.893861 0.448978 0)
(0.893833 0.449239 0)
(0.893826 0.44948 0)
(0.893843 0.44969 0)
(0.893884 0.449859 0)
(0.893949 0.449982 0)
(0.894036 0.450056 0)
(0.894141 0.450073 0)
(0.89426 0.450033 0)
(0.894381 0.449943 0)
(0.8945 0.449803 0)
(0.89461 0.449625 0)
(0.894699 0.44941 0)
(0.894771 0.449166 0)
(0.894819 0.448921 0)
(0.894839 0.44868 0)
(0.894838 0.44843 0)
(0.89482 0.448198 0)
(0.894784 0.448 0)
(0.894736 0.447811 0)
(0.894684 0.447652 0)
(0.894629 0.447526 0)
(0.894576 0.447418 0)
(0.894528 0.447338 0)
(0.894487 0.447278 0)
(0.894453 0.447235 0)
(0.894427 0.447207 0)
(0.894409 0.44719 0)
(0.894396 0.447181 0)
(0.894389 0.447178 0)
(0.894386 0.447178 0)
(0.894385 0.44718 0)
(0.894386 0.447183 0)
(0.894387 0.447186 0)
(0.89439 0.447189 0)
(0.894392 0.447192 0)
(0.894394 0.447194 0)
(0.894395 0.447196 0)
(0.894397 0.447197 0)
(0.894398 0.447198 0)
(0.894398 0.447198 0)
(0.894398 0.447199 0)
(0.894399 0.447199 0)
(0.894399 0.447199 0)
(0.8944 0.4472 0)
(0.8944 0.4472 0)
(0.8944 0.4472 0)
(0.8944 0.4472 0)
(0.8944 0.4472 0)
(0.8944 0.4472 0)
(0.894399 0.4472 0)
(0.8944 0.447199 0)
(0.8944 0.447201 0)
(0.894399 0.447199 0)
(0.894401 0.447201 0)
(0.8944 0.447199 0)
(0.894398 0.447201 0)
(0.894402 0.447199 0)
(0.8944 0.447199 0)
(0.894397 0.447203 0)
(0.894404 0.447198 0)
(0.8944 0.447199 0)
(0.894396 0.447202 0)
(0.894402 0.4472 0)
(0.894403 0.447199 0)
(0.894396 0.4472 0)
(0.894399 0.447202 0)
(0.894403 0.447201 0)
(0.8944 0.447198 0)
(0.894398 0.447199 0)
(0.8944 0.447202 0)
(0.894401 0.447201 0)
(0.8944 0.447198 0)
(0.8944 0.447199 0)
(0.8944 0.447201 0)
(0.894399 0.447201 0)
(0.894399 0.447201 0)
(0.894399 0.447201 0)
(0.894397 0.447202 0)
(0.894393 0.447204 0)
(0.894389 0.447209 0)
(0.894383 0.447216 0)
(0.894373 0.447227 0)
(0.894363 0.447243 0)
(0.894355 0.447261 0)
(0.894352 0.447282 0)
(0.894356 0.447301 0)
(0.894366 0.447316 0)
(0.894379 0.447331 0)
(0.894387 0.44735 0)
(0.894383 0.447383 0)
(0.894359 0.447442 0)
(0.894311 0.447538 0)
(0.894239 0.447682 0)
(0.894147 0.44788 0)
(0.894044 0.44813 0)
(0.893938 0.448424 0)
(0.893839 0.448751 0)
(0.893757 0.449096 0)
(0.893696 0.449441 0)
(0.893661 0.449771 0)
(0.893655 0.450071 0)
(0.893676 0.450329 0)
(0.893726 0.450534 0)
(0.893804 0.45068 0)
(0.893905 0.450762 0)
(0.894029 0.450781 0)
(0.894167 0.450731 0)
(0.894313 0.450615 0)
(0.894457 0.450447 0)
(0.89459 0.450228 0)
(0.894707 0.449966 0)
(0.894801 0.449675 0)
(0.894868 0.449383 0)
(0.894902 0.449092 0)
(0.894914 0.448781 0)
(0.894907 0.448509 0)
(0.89487 0.448271 0)
(0.894822 0.44802 0)
(0.89477 0.447832 0)
(0.894706 0.447675 0)
(0.894644 0.447526 0)
(0.894588 0.447423 0)
(0.894535 0.447341 0)
(0.894491 0.447277 0)
(0.894456 0.447235 0)
(0.894429 0.447207 0)
(0.894409 0.447189 0)
(0.894396 0.44718 0)
(0.894388 0.447177 0)
(0.894384 0.447176 0)
(0.894383 0.447179 0)
(0.894384 0.447181 0)
(0.894386 0.447185 0)
(0.894388 0.447188 0)
(0.89439 0.447191 0)
(0.894392 0.447193 0)
(0.894394 0.447195 0)
(0.894396 0.447196 0)
(0.894397 0.447197 0)
(0.894397 0.447198 0)
(0.894398 0.447198 0)
(0.894398 0.447199 0)
(0.894399 0.447199 0)
(0.894399 0.447199 0)
(0.8944 0.4472 0)
(0.8944 0.4472 0)
(0.8944 0.4472 0)
(0.8944 0.4472 0)
(0.8944 0.4472 0)
(0.8944 0.447201 0)
(0.8944 0.447198 0)
(0.8944 0.447203 0)
(0.894401 0.447198 0)
(0.8944 0.4472 0)
(0.8944 0.447201 0)
(0.894399 0.447201 0)
(0.894403 0.447196 0)
(0.894395 0.447205 0)
(0.894402 0.4472 0)
(0.894403 0.447194 0)
(0.894396 0.447205 0)
(0.894399 0.447202 0)
(0.894403 0.447195 0)
(0.8944 0.447201 0)
(0.894397 0.447202 0)
(0.8944 0.447201 0)
(0.894403 0.447199 0)
(0.894401 0.447199 0)
(0.894396 0.4472 0)
(0.8944 0.447202 0)
(0.894403 0.447201 0)
(0.894401 0.447198 0)
(0.894399 0.447198 0)
(0.894399 0.447201 0)
(0.8944 0.447203 0)
(0.8944 0.4472 0)
(0.894398 0.4472 0)
(0.894396 0.447203 0)
(0.894391 0.447206 0)
(0.894384 0.447212 0)
(0.894375 0.447222 0)
(0.894361 0.447237 0)
(0.894347 0.447258 0)
(0.894335 0.447284 0)
(0.894331 0.44731 0)
(0.894336 0.447335 0)
(0.894347 0.447356 0)
(0.894357 0.44738 0)
(0.894355 0.447419 0)
(0.894329 0.447486 0)
(0.894273 0.447598 0)
(0.894183 0.447771 0)
(0.894065 0.448013 0)
(0.893927 0.448327 0)
(0.893784 0.448703 0)
(0.893651 0.449126 0)
(0.893539 0.449574 0)
(0.893458 0.450022 0)
(0.893413 0.45045 0)
(0.893405 0.450837 0)
(0.893435 0.451167 0)
(0.893499 0.451426 0)
(0.893596 0.451606 0)
(0.893721 0.451704 0)
(0.893868 0.45172 0)
(0.894036 0.451651 0)
(0.894214 0.451502 0)
(0.894389 0.451288 0)
(0.894555 0.451018 0)
(0.894704 0.450698 0)
(0.89483 0.450349 0)
(0.894917 0.449988 0)
(0.894971 0.449609 0)
(0.895009 0.449238 0)
(0.895002 0.448923 0)
(0.894965 0.448606 0)
(0.894931 0.448287 0)
(0.894874 0.44808 0)
(0.894794 0.447867 0)
(0.894729 0.447659 0)
(0.894667 0.447548 0)
(0.894597 0.44743 0)
(0.894543 0.447336 0)
(0.894497 0.447282 0)
(0.894458 0.447235 0)
(0.89443 0.447207 0)
(0.894409 0.447189 0)
(0.894395 0.447179 0)
(0.894387 0.447176 0)
(0.894383 0.447175 0)
(0.894381 0.447177 0)
(0.894382 0.44718 0)
(0.894384 0.447183 0)
(0.894386 0.447186 0)
(0.894388 0.447189 0)
(0.894391 0.447192 0)
(0.894393 0.447194 0)
(0.894394 0.447195 0)
(0.894396 0.447197 0)
(0.894396 0.447197 0)
(0.894397 0.447198 0)
(0.894398 0.447198 0)
(0.894399 0.447199 0)
(0.894399 0.447199 0)
(0.894399 0.4472 0)
(0.894399 0.447199 0)
(0.894399 0.4472 0)
(0.894401 0.447199 0)
(0.894399 0.4472 0)
(0.894401 0.4472 0)
(0.8944 0.4472 0)
(0.894399 0.4472 0)
(0.894402 0.447202 0)
(0.8944 0.447196 0)
(0.894396 0.447205 0)
(0.894405 0.447197 0)
(0.8944 0.447197 0)
(0.894391 0.447208 0)
(0.894409 0.447194 0)
(0.894402 0.447199 0)
(0.894389 0.447204 0)
(0.894405 0.447201 0)
(0.894408 0.447196 0)
(0.894391 0.447199 0)
(0.894397 0.447206 0)
(0.894407 0.4472 0)
(0.8944 0.447195 0)
(0.894396 0.4472 0)
(0.894399 0.447205 0)
(0.894402 0.4472 0)
(0.894402 0.447197 0)
(0.8944 0.447199 0)
(0.894398 0.447201 0)
(0.894399 0.447201 0)
(0.894401 0.447202 0)
(0.8944 0.4472 0)
(0.894396 0.4472 0)
(0.894393 0.447204 0)
(0.894389 0.447209 0)
(0.894379 0.447216 0)
(0.894364 0.447229 0)
(0.894345 0.447249 0)
(0.894325 0.447277 0)
(0.89431 0.447311 0)
(0.894305 0.447343 0)
(0.894311 0.447374 0)
(0.894321 0.447405 0)
(0.89432 0.447446 0)
(0.894296 0.447516 0)
(0.894232 0.447639 0)
(0.894122 0.447837 0)
(0.893968 0.448127 0)
(0.893783 0.448514 0)
(0.893586 0.448991 0)
(0.893397 0.449539 0)
(0.893237 0.450127 0)
(0.89312 0.450722 0)
(0.893054 0.451292 0)
(0.893041 0.451808 0)
(0.893079 0.452248 0)
(0.893165 0.452593 0)
(0.893291 0.452832 0)
(0.893452 0.452961 0)
(0.893639 0.452983 0)
(0.893847 0.452897 0)
(0.894069 0.45271 0)
(0.894291 0.452436 0)
(0.894499 0.452089 0)
(0.894686 0.451687 0)
(0.894845 0.45124 0)
(0.894967 0.45077 0)
(0.895058 0.450306 0)
(0.89511 0.449865 0)
(0.895108 0.449456 0)
(0.895088 0.449039 0)
(0.895063 0.448652 0)
(0.894989 0.448397 0)
(0.894902 0.448112 0)
(0.894842 0.447844 0)
(0.894765 0.447722 0)
(0.894667 0.447541 0)
(0.894616 0.447418 0)
(0.894554 0.447356 0)
(0.894498 0.447275 0)
(0.894463 0.447236 0)
(0.894432 0.447207 0)
(0.89441 0.447188 0)
(0.894395 0.447179 0)
(0.894386 0.447175 0)
(0.894381 0.447174 0)
(0.89438 0.447176 0)
(0.89438 0.447178 0)
(0.894382 0.447182 0)
(0.894384 0.447185 0)
(0.894386 0.447188 0)
(0.894389 0.44719 0)
(0.894391 0.447193 0)
(0.894393 0.447194 0)
(0.894395 0.447196 0)
(0.894395 0.447196 0)
(0.894396 0.447197 0)
(0.894397 0.447198 0)
(0.894398 0.447198 0)
(0.894398 0.447199 0)
(0.894399 0.447199 0)
(0.894399 0.4472 0)
(0.894399 0.447199 0)
(0.894401 0.4472 0)
(0.894399 0.4472 0)
(0.894401 0.447198 0)
(0.8944 0.447203 0)
(0.894398 0.447196 0)
(0.894402 0.447202 0)
(0.894401 0.447199 0)
(0.894393 0.447202 0)
(0.894413 0.447194 0)
(0.894391 0.447207 0)
(0.894396 0.447199 0)
(0.894415 0.447194 0)
(0.894392 0.447205 0)
(0.894392 0.447203 0)
(0.894412 0.447194 0)
(0.894401 0.4472 0)
(0.89439 0.447204 0)
(0.894402 0.447201 0)
(0.894408 0.447197 0)
(0.894399 0.447199 0)
(0.894392 0.447201 0)
(0.894402 0.447204 0)
(0.894405 0.4472 0)
(0.8944 0.447195 0)
(0.894397 0.447199 0)
(0.894399 0.447205 0)
(0.8944 0.447201 0)
(0.894401 0.447199 0)
(0.894398 0.447199 0)
(0.894395 0.447202 0)
(0.894391 0.447206 0)
(0.894385 0.447211 0)
(0.894372 0.447221 0)
(0.894351 0.447238 0)
(0.894324 0.447264 0)
(0.894298 0.4473 0)
(0.89428 0.447341 0)
(0.894273 0.44738 0)
(0.894279 0.447418 0)
(0.894282 0.447461 0)
(0.89426 0.44753 0)
(0.894194 0.447654 0)
(0.894066 0.447867 0)
(0.893872 0.448196 0)
(0.893626 0.448657 0)
(0.893349 0.449249 0)
(0.893076 0.449948 0)
(0.892837 0.45072 0)
(0.892657 0.451515 0)
(0.892549 0.452288 0)
(0.892518 0.452993 0)
(0.892561 0.453599 0)
(0.892671 0.454081 0)
(0.892838 0.454421 0)
(0.893049 0.454613 0)
(0.893293 0.454656 0)
(0.893559 0.454557 0)
(0.893842 0.45432 0)
(0.894128 0.453969 0)
(0.8944 0.453535 0)
(0.894643 0.453034 0)
(0.894859 0.452457 0)
(0.895034 0.451842 0)
(0.895151 0.45125 0)
(0.895213 0.450693 0)
(0.895231 0.450157 0)
(0.895247 0.449624 0)
(0.89523 0.449155 0)
(0.895124 0.448807 0)
(0.895037 0.448439 0)
(0.894985 0.448105 0)
(0.89488 0.447946 0)
(0.894759 0.447693 0)
(0.894718 0.447533 0)
(0.894626 0.447463 0)
(0.89455 0.44733 0)
(0.894515 0.447282 0)
(0.894463 0.447241 0)
(0.894433 0.447202 0)
(0.894411 0.44719 0)
(0.894394 0.447177 0)
(0.894385 0.447174 0)
(0.89438 0.447173 0)
(0.894378 0.447174 0)
(0.894378 0.447177 0)
(0.894379 0.44718 0)
(0.894382 0.447183 0)
(0.894384 0.447186 0)
(0.894387 0.447189 0)
(0.894389 0.447191 0)
(0.894391 0.447193 0)
(0.894393 0.447195 0)
(0.894393 0.447195 0)
(0.894395 0.447196 0)
(0.894396 0.447197 0)
(0.894397 0.447198 0)
(0.894398 0.447199 0)
(0.894398 0.447198 0)
(0.894399 0.4472 0)
(0.894399 0.447198 0)
(0.894399 0.447201 0)
(0.8944 0.447199 0)
(0.8944 0.447198 0)
(0.894399 0.447202 0)
(0.8944 0.4472 0)
(0.894403 0.447195 0)
(0.894392 0.447209 0)
(0.894404 0.447193 0)
(0.89441 0.447198 0)
(0.894379 0.447211 0)
(0.894412 0.44719 0)
(0.894413 0.447202 0)
(0.894376 0.447203 0)
(0.894405 0.447202 0)
(0.89442 0.447195 0)
(0.894384 0.447198 0)
(0.894392 0.447208 0)
(0.894414 0.447199 0)
(0.894401 0.447193 0)
(0.894393 0.447202 0)
(0.894398 0.447205 0)
(0.894403 0.4472 0)
(0.894404 0.447196 0)
(0.8944 0.447199 0)
(0.894395 0.4472 0)
(0.894401 0.447205 0)
(0.894403 0.4472 0)
(0.8944 0.447199 0)
(0.894395 0.447199 0)
(0.894394 0.447204 0)
(0.894391 0.447208 0)
(0.89438 0.447212 0)
(0.894361 0.447225 0)
(0.894334 0.447249 0)
(0.894299 0.44728 0)
(0.894265 0.447325 0)
(0.894244 0.447373 0)
(0.894237 0.44742 0)
(0.894239 0.447466 0)
(0.894226 0.447529 0)
(0.894165 0.447641 0)
(0.894028 0.447849 0)
(0.893797 0.448197 0)
(0.893479 0.448718 0)
(0.893101 0.449423 0)
(0.892706 0.450295 0)
(0.892342 0.451287 0)
(0.892053 0.452341 0)
(0.891864 0.453388 0)
(0.891787 0.454365 0)
(0.891819 0.455219 0)
(0.89195 0.455912 0)
(0.892165 0.456421 0)
(0.892444 0.456731 0)
(0.892768 0.45684 0)
(0.893124 0.456752 0)
(0.893499 0.456484 0)
(0.893876 0.456063 0)
(0.894228 0.455511 0)
(0.894543 0.454842 0)
(0.894832 0.454099 0)
(0.89508 0.453326 0)
(0.895248 0.45257 0)
(0.89535 0.451848 0)
(0.895412 0.451126 0)
(0.895437 0.45042 0)
(0.895396 0.449824 0)
(0.895292 0.449366 0)
(0.89523 0.44891 0)
(0.895164 0.448461 0)
(0.895015 0.448226 0)
(0.894888 0.44792 0)
(0.894845 0.447683 0)
(0.89472 0.447621 0)
(0.894615 0.447408 0)
(0.894596 0.447347 0)
(0.894502 0.447297 0)
(0.89447 0.447223 0)
(0.894439 0.447213 0)
(0.894409 0.447185 0)
(0.894396 0.447178 0)
(0.894384 0.447172 0)
(0.894378 0.447171 0)
(0.894376 0.447172 0)
(0.894376 0.447175 0)
(0.894377 0.447178 0)
(0.894379 0.447181 0)
(0.894382 0.447184 0)
(0.894384 0.447187 0)
(0.894387 0.44719 0)
(0.894389 0.447192 0)
(0.894391 0.447193 0)
(0.894391 0.447193 0)
(0.894393 0.447195 0)
(0.894394 0.447196 0)
(0.894395 0.447197 0)
(0.894397 0.447198 0)
(0.894398 0.447197 0)
(0.894397 0.4472 0)
(0.8944 0.447198 0)
(0.894397 0.447201 0)
(0.894401 0.447198 0)
(0.894401 0.447202 0)
(0.894396 0.447196 0)
(0.894401 0.447202 0)
(0.894409 0.447201 0)
(0.894376 0.447198 0)
(0.894427 0.447197 0)
(0.894392 0.44721 0)
(0.894377 0.44719 0)
(0.894435 0.447202 0)
(0.894387 0.447204 0)
(0.89438 0.4472 0)
(0.894424 0.447195 0)
(0.894401 0.447202 0)
(0.894387 0.447204 0)
(0.894399 0.447196 0)
(0.894411 0.4472 0)
(0.894402 0.447201 0)
(0.894389 0.447197 0)
(0.894399 0.447203 0)
(0.894408 0.447203 0)
(0.894401 0.447193 0)
(0.894397 0.447199 0)
(0.894396 0.447204 0)
(0.894403 0.447204 0)
(0.894402 0.447196 0)
(0.894397 0.4472 0)
(0.894394 0.447202 0)
(0.894394 0.447204 0)
(0.89439 0.447208 0)
(0.894374 0.447215 0)
(0.894347 0.447229 0)
(0.894313 0.447258 0)
(0.89427 0.447298 0)
(0.894227 0.447349 0)
(0.894201 0.447404 0)
(0.894194 0.447459 0)
(0.894188 0.447517 0)
(0.894145 0.447609 0)
(0.894017 0.447789 0)
(0.893767 0.448122 0)
(0.893382 0.448667 0)
(0.892885 0.449459 0)
(0.892329 0.450495 0)
(0.891785 0.451733 0)
(0.891319 0.453097 0)
(0.890987 0.454494 0)
(0.890811 0.455835 0)
(0.890796 0.45704 0)
(0.890928 0.458049 0)
(0.891186 0.458825 0)
(0.891544 0.459343 0)
(0.891974 0.459596 0)
(0.892452 0.459586 0)
(0.892953 0.459325 0)
(0.893456 0.458837 0)
(0.893937 0.458149 0)
(0.894385 0.457324 0)
(0.894786 0.4564 0)
(0.895116 0.455376 0)
(0.895347 0.454375 0)
(0.895498 0.453455 0)
(0.895609 0.452494 0)
(0.895666 0.451558 0)
(0.89563 0.450784 0)
(0.895529 0.450138 0)
(0.895457 0.449514 0)
(0.895371 0.448959 0)
(0.895207 0.448637 0)
(0.895077 0.448238 0)
(0.894989 0.447888 0)
(0.894841 0.447854 0)
(0.894709 0.447515 0)
(0.89471 0.447434 0)
(0.894553 0.447395 0)
(0.894523 0.447254 0)
(0.894484 0.447244 0)
(0.894431 0.44721 0)
(0.894416 0.447181 0)
(0.894394 0.447178 0)
(0.894384 0.447169 0)
(0.894377 0.447169 0)
(0.894374 0.44717 0)
(0.894373 0.447172 0)
(0.894374 0.447175 0)
(0.894376 0.447179 0)
(0.894379 0.447182 0)
(0.894381 0.447185 0)
(0.894384 0.447187 0)
(0.894387 0.44719 0)
(0.894389 0.447192 0)
(0.894389 0.447191 0)
(0.89439 0.447193 0)
(0.894393 0.447194 0)
(0.894393 0.447196 0)
(0.894395 0.447197 0)
(0.894397 0.447198 0)
(0.894396 0.447197 0)
(0.8944 0.447201 0)
(0.894397 0.447196 0)
(0.894399 0.4472 0)
(0.894402 0.447203 0)
(0.894392 0.447195 0)
(0.894412 0.4472 0)
(0.894388 0.447209 0)
(0.894399 0.447188 0)
(0.894426 0.447204 0)
(0.894358 0.447209 0)
(0.894424 0.447188 0)
(0.894418 0.447202 0)
(0.894364 0.447208 0)
(0.894406 0.447195 0)
(0.894431 0.447197 0)
(0.894378 0.447203 0)
(0.894385 0.447201 0)
(0.894422 0.447199 0)
(0.894402 0.447198 0)
(0.894388 0.447199 0)
(0.8944 0.447203 0)
(0.8944 0.447201 0)
(0.894407 0.447198 0)
(0.894399 0.447196 0)
(0.894395 0.447202 0)
(0.894398 0.447202 0)
(0.894405 0.447204 0)
(0.894401 0.447196 0)
(0.894395 0.447198 0)
(0.894396 0.447205 0)
(0.894394 0.447205 0)
(0.894385 0.447204 0)
(0.894367 0.447219 0)
(0.894333 0.447235 0)
(0.894289 0.447267 0)
(0.894237 0.447315 0)
(0.894186 0.447374 0)
(0.894155 0.447434 0)
(0.894146 0.447497 0)
(0.894123 0.44757 0)
(0.894028 0.447706 0)
(0.893792 0.447986 0)
(0.893371 0.448498 0)
(0.892763 0.449319 0)
(0.892021 0.450477 0)
(0.891235 0.451947 0)
(0.890513 0.453643 0)
(0.889943 0.455453 0)
(0.889585 0.457247 0)
(0.889454 0.458915 0)
(0.889541 0.460365 0)
(0.889816 0.461535 0)
(0.890246 0.462388 0)
(0.890793 0.462902 0)
(0.89142 0.463072 0)
(0.892089 0.462899 0)
(0.892768 0.462413 0)
(0.893429 0.461665 0)
(0.894044 0.460693 0)
(0.894595 0.459523 0)
(0.895073 0.45825 0)
(0.895438 0.456991 0)
(0.895669 0.455674 0)
(0.895834 0.454331 0)
(0.895929 0.453136 0)
(0.895917 0.452139 0)
(0.895853 0.45126 0)
(0.89578 0.450404 0)
(0.895655 0.449691 0)
(0.895452 0.449173 0)
(0.895289 0.44866 0)
(0.895179 0.448246 0)
(0.895029 0.448131 0)
(0.89486 0.447686 0)
(0.89482 0.447551 0)
(0.894651 0.447551 0)
(0.894578 0.447288 0)
(0.894569 0.447294 0)
(0.894456 0.447268 0)
(0.894446 0.447165 0)
(0.894419 0.447213 0)
(0.89439 0.447159 0)
(0.894385 0.447173 0)
(0.894374 0.447164 0)
(0.894371 0.447167 0)
(0.89437 0.447169 0)
(0.894371 0.447172 0)
(0.894373 0.447175 0)
(0.894375 0.447179 0)
(0.894378 0.447182 0)
(0.894381 0.447185 0)
(0.894384 0.447187 0)
(0.894386 0.44719 0)
(0.894385 0.447189 0)
(0.894387 0.447191 0)
(0.89439 0.447193 0)
(0.894391 0.447194 0)
(0.894394 0.447195 0)
(0.894394 0.447199 0)
(0.894396 0.447193 0)
(0.894396 0.447204 0)
(0.894399 0.447192 0)
(0.894398 0.447203 0)
(0.894399 0.447199 0)
(0.89439 0.447194 0)
(0.894432 0.447213 0)
(0.894342 0.447179 0)
(0.894452 0.447217 0)
(0.8944 0.447205 0)
(0.894331 0.447168 0)
(0.894485 0.447235 0)
(0.89438 0.447191 0)
(0.894341 0.447179 0)
(0.894461 0.447222 0)
(0.894403 0.447201 0)
(0.894365 0.447186 0)
(0.894402 0.447204 0)
(0.894423 0.447207 0)
(0.894406 0.447199 0)
(0.894373 0.44719 0)
(0.894401 0.447204 0)
(0.894418 0.447214 0)
(0.894402 0.447188 0)
(0.894387 0.447188 0)
(0.894401 0.447218 0)
(0.894403 0.447201 0)
(0.894401 0.447192 0)
(0.894398 0.447203 0)
(0.894397 0.4472 0)
(0.894397 0.4472 0)
(0.894395 0.447207 0)
(0.89438 0.447204 0)
(0.894357 0.447219 0)
(0.894319 0.447241 0)
(0.894263 0.447278 0)
(0.894199 0.447328 0)
(0.894142 0.447395 0)
(0.894107 0.447461 0)
(0.894089 0.44753 0)
(0.894038 0.447628 0)
(0.893859 0.447829 0)
(0.893461 0.448248 0)
(0.892792 0.44901 0)
(0.891876 0.450202 0)
(0.890811 0.451835 0)
(0.889745 0.453841 0)
(0.888826 0.456079 0)
(0.888164 0.458389 0)
(0.88781 0.46061 0)
(0.887768 0.462617 0)
(0.888002 0.464316 0)
(0.888468 0.46565 0)
(0.889117 0.466582 0)
(0.889903 0.467092 0)
(0.890776 0.467179 0)
(0.891691 0.466844 0)
(0.8926 0.46611 0)
(0.893464 0.465016 0)
(0.894252 0.463675 0)
(0.894924 0.462183 0)
(0.895436 0.460509 0)
(0.895827 0.45876 0)
(0.896136 0.457126 0)
(0.896302 0.455511 0)
(0.896314 0.454026 0)
(0.896246 0.452813 0)
(0.896152 0.451702 0)
(0.896009 0.450757 0)
(0.895791 0.449961 0)
(0.895603 0.449309 0)
(0.895461 0.448759 0)
(0.89525 0.448434 0)
(0.895062 0.448032 0)
(0.894962 0.447699 0)
(0.894823 0.447764 0)
(0.894624 0.447374 0)
(0.89472 0.447366 0)
(0.894465 0.447337 0)
(0.894508 0.447184 0)
(0.894468 0.447251 0)
(0.894386 0.447151 0)
(0.894417 0.44719 0)
(0.894371 0.447156 0)
(0.894377 0.447165 0)
(0.894367 0.447162 0)
(0.894367 0.447165 0)
(0.894367 0.447168 0)
(0.894369 0.447171 0)
(0.894371 0.447175 0)
(0.894374 0.447178 0)
(0.894377 0.447181 0)
(0.89438 0.447184 0)
(0.894383 0.447187 0)
(0.894381 0.447187 0)
(0.894384 0.447188 0)
(0.894387 0.447192 0)
(0.894388 0.447192 0)
(0.894391 0.447193 0)
(0.894392 0.447197 0)
(0.894397 0.447195 0)
(0.894392 0.447197 0)
(0.894398 0.447199 0)
(0.894405 0.447201 0)
(0.894377 0.447191 0)
(0.894429 0.44721 0)
(0.894373 0.447197 0)
(0.894398 0.447191 0)
(0.894441 0.447206 0)
(0.894332 0.447208 0)
(0.894452 0.447185 0)
(0.894393 0.447194 0)
(0.894387 0.447238 0)
(0.894387 0.447157 0)
(0.894432 0.447208 0)
(0.894408 0.447235 0)
(0.894345 0.447156 0)
(0.894432 0.447212 0)
(0.894427 0.447226 0)
(0.894373 0.447168 0)
(0.894387 0.447208 0)
(0.894411 0.447215 0)
(0.894413 0.447186 0)
(0.894401 0.447204 0)
(0.89438 0.447192 0)
(0.894402 0.447206 0)
(0.894411 0.447213 0)
(0.894399 0.447185 0)
(0.894393 0.447196 0)
(0.894401 0.447211 0)
(0.894398 0.447196 0)
(0.894391 0.447202 0)
(0.894376 0.44721 0)
(0.894348 0.447219 0)
(0.894303 0.447243 0)
(0.894238 0.447289 0)
(0.89416 0.447338 0)
(0.894096 0.447408 0)
(0.894057 0.44748 0)
(0.894025 0.447559 0)
(0.893923 0.447692 0)
(0.893618 0.447987 0)
(0.892984 0.448598 0)
(0.891972 0.449694 0)
(0.890647 0.451363 0)
(0.889179 0.453583 0)
(0.887798 0.456209 0)
(0.886687 0.459037 0)
(0.885969 0.461854 0)
(0.885669 0.464485 0)
(0.885767 0.466807 0)
(0.886193 0.468739 0)
(0.886892 0.470233 0)
(0.8878 0.471261 0)
(0.888867 0.471796 0)
(0.890028 0.47182 0)
(0.891225 0.471334 0)
(0.892399 0.470377 0)
(0.893496 0.46899 0)
(0.894462 0.467194 0)
(0.895292 0.465146 0)
(0.895962 0.463103 0)
(0.896409 0.460976 0)
(0.896696 0.458822 0)
(0.896849 0.456978 0)
(0.896797 0.455252 0)
(0.896651 0.453554 0)
(0.896478 0.452171 0)
(0.89626 0.451129 0)
(0.896052 0.450298 0)
(0.895836 0.449496 0)
(0.895559 0.448943 0)
(0.895338 0.44851 0)
(0.895152 0.447946 0)
(0.895001 0.448071 0)
(0.8948 0.447546 0)
(0.894838 0.447401 0)
(0.89454 0.447515 0)
(0.89459 0.447224 0)
(0.894518 0.447223 0)
(0.894409 0.447268 0)
(0.89446 0.44713 0)
(0.89437 0.447196 0)
(0.894394 0.447153 0)
(0.894366 0.447161 0)
(0.894367 0.447159 0)
(0.894363 0.447161 0)
(0.894363 0.447164 0)
(0.894364 0.447167 0)
(0.894367 0.447171 0)
(0.894369 0.447174 0)
(0.894372 0.447178 0)
(0.894375 0.447181 0)
(0.894379 0.447184 0)
(0.894377 0.447183 0)
(0.89438 0.447186 0)
(0.894382 0.447188 0)
(0.894387 0.447191 0)
(0.894386 0.447193 0)
(0.89439 0.447191 0)
(0.894394 0.447204 0)
(0.89439 0.447182 0)
(0.894395 0.447211 0)
(0.894407 0.447194 0)
(0.894362 0.447182 0)
(0.894472 0.447242 0)
(0.89429 0.447133 0)
(0.894491 0.447263 0)
(0.894409 0.447186 0)
(0.894253 0.447131 0)
(0.894588 0.447315 0)
(0.894344 0.447138 0)
(0.894264 0.447144 0)
(0.894584 0.44732 0)
(0.894352 0.447135 0)
(0.89432 0.447162 0)
(0.894458 0.447275 0)
(0.894413 0.447165 0)
(0.894396 0.447196 0)
(0.894372 0.447207 0)
(0.894395 0.447189 0)
(0.894435 0.447234 0)
(0.894397 0.44717 0)
(0.894384 0.447186 0)
(0.894394 0.447237 0)
(0.894407 0.447185 0)
(0.894405 0.447194 0)
(0.894402 0.447211 0)
(0.894392 0.447186 0)
(0.894398 0.447206 0)
(0.894402 0.447206 0)
(0.894388 0.447195 0)
(0.894371 0.447211 0)
(0.894342 0.447224 0)
(0.894287 0.44724 0)
(0.894213 0.447292 0)
(0.894124 0.447342 0)
(0.894051 0.447411 0)
(0.894004 0.447487 0)
(0.893948 0.447583 0)
(0.893766 0.447769 0)
(0.893279 0.448191 0)
(0.892318 0.449061 0)
(0.890847 0.450585 0)
(0.889002 0.452844 0)
(0.887074 0.455739 0)
(0.885372 0.459022 0)
(0.884118 0.462413 0)
(0.88341 0.465664 0)
(0.883236 0.468615 0)
(0.883523 0.471171 0)
(0.88418 0.473284 0)
(0.885136 0.474931 0)
(0.886328 0.476086 0)
(0.887707 0.476716 0)
(0.889208 0.476782 0)
(0.89075 0.476245 0)
(0.892246 0.475104 0)
(0.89363 0.473445 0)
(0.894849 0.471389 0)
(0.895827 0.468887 0)
(0.896593 0.466098 0)
(0.897155 0.463517 0)
(0.897359 0.461023 0)