/*--------------------------------*- C++ -*----------------------------------*\
  =========                 |
  \\      /  F ield         | OpenFOAM: The Open Source CFD Toolbox
   \\    /   O peration     | Website:  https://openfoam.org
    \\  /    A nd           | Version:  6
     \\/     M anipulation  |
\*---------------------------------------------------------------------------*/
FoamFile
{
    version     2.0;
    format      ascii;
    class       volScalarField;
    location    "4.44";
    object      rho;
}
// * * * * * * * * * * * * * * * * * * * * * * * * * * * * * * * * * * * * * //

dimensions      [1 -3 0 0 0 0 0];

internalField   nonuniform List<scalar> 
5625
(
1.45018
1.44478
1.43732
1.4285
1.41897
1.40922
1.39969
1.39074
1.38265
1.37568
1.37008
1.36598
1.36344
1.36252
1.36315
1.36514
1.36819
1.37179
1.3754
1.37884
1.3819
1.38399
1.3848
1.38477
1.38438
1.38346
1.38202
1.38063
1.3797
1.37922
1.37908
1.3792
1.37944
1.37983
1.38041
1.38092
1.38083
1.37981
1.37791
1.37533
1.37218
1.36863
1.36512
1.36226
1.36061
1.36038
1.36151
1.36383
1.36733
1.37218
1.37865
1.38696
1.39702
1.40837
1.42016
1.43122
1.44037
1.4466
1.44943
1.4489
1.44559
1.44037
1.43416
1.4278
1.42187
1.4167
1.41243
1.40905
1.40647
1.40456
1.40318
1.4022
1.40151
1.40104
1.40072
1.45158
1.44725
1.44063
1.43245
1.42334
1.41382
1.40436
1.39532
1.38698
1.37959
1.37341
1.36858
1.3652
1.36335
1.36297
1.36395
1.36605
1.3689
1.37224
1.37586
1.37926
1.38191
1.38386
1.38538
1.38627
1.38635
1.386
1.38568
1.38534
1.38484
1.3843
1.38381
1.38331
1.38282
1.38234
1.38157
1.38014
1.37798
1.37531
1.37231
1.36908
1.3658
1.36289
1.36091
1.36025
1.36097
1.36294
1.36601
1.37021
1.37575
1.38287
1.39173
1.40214
1.41353
1.42496
1.43526
1.4433
1.44825
1.44979
1.44817
1.44407
1.4384
1.43207
1.4258
1.4201
1.41522
1.41126
1.40816
1.40581
1.40409
1.40285
1.40197
1.40136
1.40094
1.40065
1.45254
1.44939
1.44375
1.43633
1.42775
1.41856
1.40924
1.40018
1.39167
1.38396
1.37728
1.37181
1.36767
1.36491
1.36352
1.36346
1.36459
1.36666
1.36946
1.37266
1.3758
1.37865
1.38127
1.38348
1.38496
1.38582
1.38642
1.38676
1.38661
1.38609
1.38547
1.38475
1.38383
1.38276
1.38153
1.37989
1.37767
1.37496
1.37206
1.3691
1.36615
1.36342
1.36133
1.36034
1.36067
1.36231
1.36506
1.36883
1.3737
1.37988
1.38761
1.39694
1.40758
1.41885
1.42974
1.4391
1.44589
1.44946
1.44971
1.44705
1.44225
1.43624
1.42986
1.42375
1.41833
1.41378
1.41013
1.4073
1.40519
1.40364
1.40253
1.40175
1.40122
1.40084
1.40059
1.45297
1.45113
1.4466
1.44005
1.43211
1.42336
1.4143
1.4053
1.39669
1.38874
1.38168
1.37566
1.3708
1.36719
1.36491
1.36391
1.36405
1.36516
1.3671
1.36959
1.37229
1.37506
1.37777
1.38009
1.38187
1.38327
1.38434
1.38487
1.38483
1.38448
1.38395
1.38311
1.38193
1.38053
1.37886
1.37676
1.37422
1.37147
1.36875
1.36615
1.36375
1.36178
1.36062
1.36064
1.36194
1.36441
1.36788
1.3723
1.37778
1.38456
1.39283
1.40254
1.41326
1.42423
1.43439
1.44261
1.44802
1.45017
1.44915
1.44553
1.44014
1.4339
1.42756
1.42169
1.41658
1.41237
1.40904
1.40649
1.40459
1.40322
1.40224
1.40156
1.40108
1.40076
1.40053
1.45279
1.45234
1.44906
1.44351
1.43635
1.42817
1.41946
1.41062
1.402
1.39391
1.38655
1.38006
1.37459
1.37028
1.3672
1.36527
1.36437
1.3645
1.36555
1.36725
1.36932
1.37164
1.37402
1.37615
1.37799
1.37956
1.3807
1.38127
1.3814
1.38127
1.38078
1.37985
1.37856
1.37703
1.37521
1.37301
1.37055
1.36811
1.36586
1.36384
1.36215
1.36104
1.36087
1.36188
1.36407
1.36729
1.37139
1.3764
1.38245
1.38979
1.39852
1.40847
1.41911
1.42957
1.43877
1.44569
1.44962
1.45032
1.44809
1.44361
1.43777
1.43142
1.42522
1.41963
1.41488
1.41102
1.40801
1.40572
1.40404
1.40283
1.40197
1.40137
1.40096
1.40067
1.40048
1.45193
1.45294
1.45101
1.44662
1.44037
1.43287
1.42463
1.41608
1.40757
1.39942
1.39184
1.38498
1.37904
1.37415
1.3703
1.36744
1.36565
1.36494
1.3651
1.36586
1.36712
1.36881
1.37064
1.37239
1.37403
1.37546
1.37649
1.37706
1.37732
1.37726
1.37676
1.37581
1.37458
1.37314
1.37141
1.36939
1.3673
1.36539
1.36377
1.36244
1.36154
1.36135
1.36215
1.36407
1.36705
1.37092
1.37559
1.38112
1.3877
1.39552
1.4046
1.41464
1.42499
1.43471
1.44275
1.44821
1.45058
1.44986
1.44652
1.44134
1.43518
1.42883
1.42286
1.41761
1.41323
1.40974
1.40704
1.40501
1.40353
1.40247
1.40172
1.4012
1.40084
1.4006
1.40043
1.45033
1.45282
1.45235
1.44924
1.44406
1.43739
1.42975
1.42159
1.41331
1.4052
1.39749
1.39039
1.38409
1.37866
1.37412
1.37055
1.36804
1.36648
1.36564
1.36547
1.36598
1.36696
1.36813
1.36935
1.37062
1.37173
1.37253
1.37303
1.3733
1.37322
1.37271
1.37185
1.37081
1.36957
1.36808
1.36645
1.36491
1.36365
1.36271
1.36212
1.36205
1.36275
1.36446
1.36719
1.37084
1.37527
1.38043
1.38644
1.39349
1.4017
1.411
1.42094
1.43077
1.43951
1.44618
1.45005
1.45085
1.44878
1.44446
1.43873
1.43241
1.42619
1.42052
1.41565
1.41167
1.40853
1.40613
1.40436
1.40307
1.40215
1.4015
1.40105
1.40074
1.40053
1.40038
1.44798
1.45189
1.45294
1.45125
1.44729
1.44159
1.43469
1.42707
1.41913
1.41118
1.40346
1.39623
1.38966
1.3838
1.37873
1.37458
1.37137
1.36894
1.36725
1.36634
1.36611
1.3663
1.36674
1.36741
1.3682
1.36889
1.3694
1.36978
1.36996
1.36981
1.36933
1.36865
1.36784
1.36686
1.36572
1.36459
1.36368
1.36309
1.36283
1.36298
1.36372
1.36527
1.36778
1.3712
1.37541
1.3803
1.38588
1.39231
1.39976
1.40826
1.4176
1.42722
1.43627
1.44379
1.44891
1.45111
1.45036
1.44707
1.44196
1.43586
1.42953
1.42353
1.41823
1.41378
1.41019
1.40741
1.40531
1.40376
1.40264
1.40185
1.4013
1.40091
1.40065
1.40046
1.40034
1.4449
1.45012
1.45269
1.45252
1.44992
1.44535
1.43935
1.4324
1.42493
1.41725
1.40967
1.40242
1.39566
1.38948
1.38403
1.3794
1.37553
1.3724
1.37006
1.36847
1.36746
1.36685
1.36662
1.36675
1.36703
1.36728
1.36749
1.36767
1.36769
1.36747
1.36707
1.3666
1.36603
1.36534
1.36461
1.36402
1.36374
1.36379
1.36419
1.36504
1.36654
1.36886
1.37205
1.37603
1.38068
1.38595
1.3919
1.39869
1.40644
1.41509
1.42427
1.4333
1.4413
1.44736
1.45079
1.45132
1.44912
1.44478
1.43907
1.43279
1.42659
1.42092
1.41603
1.41201
1.40883
1.40638
1.40455
1.40322
1.40226
1.40159
1.40112
1.40079
1.40056
1.40041
1.4003
1.44119
1.44748
1.45151
1.45291
1.45179
1.44851
1.44357
1.43746
1.43059
1.42333
1.41601
1.40885
1.402
1.39565
1.38994
1.3849
1.38052
1.37685
1.37393
1.37167
1.36993
1.36868
1.36791
1.36749
1.36722
1.36705
1.36697
1.36693
1.36678
1.36651
1.36621
1.36592
1.36558
1.3652
1.3649
1.36486
1.36515
1.36578
1.36679
1.36829
1.37047
1.37344
1.37719
1.38161
1.3866
1.39217
1.39842
1.4055
1.41344
1.42204
1.4308
1.43896
1.44564
1.45005
1.45172
1.45062
1.44714
1.44197
1.43588
1.4296
1.42365
1.41839
1.41395
1.41037
1.40757
1.40545
1.40387
1.40274
1.40192
1.40135
1.40096
1.40068
1.40049
1.40036
1.40026
1.43697
1.44403
1.44936
1.45232
1.45275
1.45091
1.4472
1.44208
1.43597
1.42929
1.42235
1.41539
1.40862
1.40223
1.39635
1.391
1.38624
1.38215
1.37873
1.3759
1.37359
1.37183
1.37054
1.36956
1.3688
1.36827
1.36793
1.36765
1.36734
1.36706
1.36686
1.36671
1.36657
1.36651
1.36664
1.36709
1.36788
1.36902
1.37056
1.37265
1.37541
1.37891
1.38309
1.38782
1.39307
1.39889
1.40538
1.41265
1.42061
1.42892
1.43698
1.44397
1.44908
1.45171
1.45162
1.44903
1.44449
1.43873
1.43248
1.42636
1.42079
1.41598
1.41201
1.40886
1.40643
1.40461
1.40327
1.40231
1.40163
1.40115
1.40082
1.40059
1.40042
1.40031
1.40023
1.43246
1.4399
1.44626
1.45066
1.4527
1.4524
1.45005
1.44608
1.44092
1.43497
1.42855
1.42194
1.41539
1.40908
1.40311
1.39757
1.39259
1.38821
1.38438
1.38108
1.37834
1.37612
1.37434
1.37289
1.37176
1.37093
1.37031
1.3698
1.36938
1.36911
1.36898
1.36894
1.369
1.36923
1.36976
1.37064
1.37185
1.37342
1.37543
1.37802
1.38126
1.38516
1.38963
1.39458
1.40002
1.40601
1.41267
1.41998
1.42775
1.4355
1.44254
1.44808
1.45143
1.45222
1.45048
1.44661
1.44127
1.43518
1.42898
1.42317
1.41804
1.41372
1.41023
1.4075
1.40542
1.40387
1.40274
1.40194
1.40137
1.40097
1.40069
1.4005
1.40037
1.40027
1.4002
1.42789
1.4353
1.4423
1.44792
1.4515
1.4528
1.45196
1.44931
1.44526
1.4402
1.43446
1.42835
1.42216
1.41603
1.41012
1.40457
1.39947
1.39486
1.39072
1.3871
1.38402
1.38143
1.37925
1.37744
1.37601
1.37491
1.37403
1.37333
1.37283
1.37257
1.37249
1.37255
1.37279
1.37331
1.37417
1.37538
1.37694
1.37887
1.38128
1.38428
1.38788
1.39205
1.3967
1.40179
1.40734
1.41344
1.42014
1.42731
1.43462
1.44149
1.44719
1.45103
1.45252
1.45153
1.44834
1.44347
1.43762
1.43144
1.42548
1.42009
1.41547
1.41165
1.40862
1.40628
1.40452
1.40322
1.40228
1.40161
1.40114
1.40081
1.40059
1.40043
1.40032
1.40024
1.40018
1.42348
1.43049
1.43769
1.44417
1.44909
1.45199
1.45275
1.45156
1.44878
1.44477
1.43989
1.43446
1.42874
1.42295
1.41726
1.4118
1.40668
1.40195
1.39765
1.39383
1.3905
1.38761
1.38513
1.38306
1.38139
1.38004
1.37895
1.37813
1.37759
1.37732
1.37726
1.37741
1.37783
1.37859
1.37971
1.38117
1.38299
1.38523
1.38797
1.39127
1.39512
1.39944
1.40418
1.40933
1.41493
1.42104
1.4276
1.43439
1.44092
1.44657
1.45065
1.45264
1.45227
1.44968
1.4453
1.43975
1.43368
1.42765
1.42207
1.41719
1.41309
1.40978
1.40719
1.40521
1.40374
1.40266
1.40188
1.40133
1.40095
1.40068
1.40049
1.40036
1.40027
1.4002
1.40016
1.41943
1.42575
1.43272
1.4396
1.44555
1.44987
1.45224
1.45264
1.45128
1.44849
1.44464
1.44005
1.43497
1.42966
1.42431
1.41908
1.41407
1.40935
1.40502
1.40111
1.39761
1.39451
1.39183
1.38957
1.38771
1.38617
1.38494
1.38404
1.38346
1.38316
1.38312
1.38337
1.38394
1.38489
1.38619
1.38785
1.38988
1.39235
1.39533
1.39883
1.40281
1.40718
1.41193
1.41706
1.42262
1.42859
1.4348
1.44088
1.4463
1.45041
1.45268
1.45277
1.45069
1.44678
1.44156
1.43565
1.42963
1.42393
1.41885
1.41451
1.41095
1.40812
1.40593
1.40428
1.40306
1.40218
1.40154
1.4011
1.40079
1.40057
1.40042
1.40031
1.40023
1.40018
1.40014
1.41585
1.42132
1.42771
1.43452
1.44104
1.44649
1.45034
1.45235
1.45254
1.45115
1.4485
1.44489
1.44063
1.43596
1.4311
1.42623
1.42145
1.41689
1.41262
1.4087
1.40513
1.40195
1.39917
1.3968
1.39479
1.39312
1.3918
1.39086
1.39025
1.38993
1.38992
1.39024
1.39094
1.39201
1.39344
1.39524
1.39743
1.40007
1.4032
1.40679
1.41078
1.41512
1.4198
1.42484
1.43022
1.43583
1.44138
1.44642
1.45038
1.45273
1.4531
1.45142
1.4479
1.44301
1.43731
1.43136
1.42561
1.42039
1.41586
1.41209
1.40904
1.40666
1.40484
1.40348
1.40248
1.40177
1.40126
1.4009
1.40065
1.40047
1.40035
1.40026
1.4002
1.40015
1.40012
1.41274
1.41737
1.42296
1.4293
1.43589
1.44202
1.44706
1.45055
1.45234
1.45249
1.4512
1.44877
1.44549
1.44163
1.43742
1.43303
1.42863
1.42434
1.42026
1.41643
1.41291
1.40974
1.40694
1.40451
1.40242
1.4007
1.39936
1.39837
1.39773
1.39741
1.39743
1.39783
1.39861
1.39976
1.40127
1.40315
1.40545
1.40819
1.41137
1.41495
1.41886
1.42309
1.42761
1.43242
1.43741
1.44238
1.44693
1.45059
1.45284
1.45332
1.45189
1.44869
1.4441
1.43863
1.43279
1.42706
1.42176
1.4171
1.41316
1.40994
1.40738
1.40541
1.40391
1.40281
1.402
1.40142
1.40102
1.40073
1.40053
1.40039
1.40029
1.40022
1.40017
1.40013
1.4001
1.41012
1.41394
1.41869
1.4243
1.43051
1.43681
1.44259
1.44729
1.45055
1.45226
1.45248
1.4514
1.44929
1.44641
1.443
1.43927
1.43538
1.4315
1.42771
1.4241
1.42073
1.41766
1.41491
1.41249
1.41041
1.4087
1.40735
1.40636
1.4057
1.4054
1.40546
1.40591
1.40673
1.40792
1.40946
1.4114
1.41374
1.4165
1.41964
1.4231
1.42686
1.43086
1.4351
1.43948
1.44382
1.44781
1.45103
1.45303
1.45345
1.45214
1.44917
1.44483
1.43958
1.4339
1.42824
1.42293
1.41819
1.41413
1.41077
1.40807
1.40595
1.40434
1.40313
1.40224
1.4016
1.40114
1.40082
1.40059
1.40043
1.40032
1.40024
1.40019
1.40014
1.40011
1.40009
1.40795
1.41104
1.41497
1.41976
1.4253
1.4313
1.43729
1.44275
1.4472
1.45034
1.45208
1.45248
1.45171
1.44999
1.44757
1.44467
1.44146
1.43811
1.43475
1.43147
1.42836
1.42548
1.42286
1.42053
1.41853
1.41687
1.41556
1.41458
1.41395
1.41367
1.41378
1.41426
1.41509
1.41628
1.41784
1.41977
1.42208
1.42476
1.42776
1.43102
1.4345
1.43816
1.44191
1.44559
1.44896
1.45164
1.45326
1.4535
1.45217
1.44933
1.44519
1.44016
1.43466
1.42911
1.42384
1.41909
1.41496
1.4115
1.40869
1.40647
1.40475
1.40344
1.40248
1.40177
1.40126
1.40091
1.40065
1.40048
1.40035
1.40027
1.4002
1.40016
1.40012
1.4001
1.40008
1.40617
1.40864
1.41183
1.41579
1.42053
1.42591
1.43167
1.43736
1.44253
1.44679
1.4499
1.45176
1.45243
1.45204
1.45079
1.44889
1.44653
1.44388
1.44109
1.43827
1.43554
1.43294
1.43055
1.4284
1.42654
1.42498
1.42374
1.42282
1.42224
1.42201
1.42214
1.42262
1.42344
1.42461
1.42612
1.428
1.4302
1.4327
1.43545
1.43838
1.44145
1.44455
1.44756
1.45025
1.45234
1.45349
1.45342
1.45197
1.44916
1.44517
1.44033
1.43503
1.42964
1.42447
1.41976
1.41562
1.41212
1.40923
1.40693
1.40512
1.40374
1.4027
1.40194
1.40139
1.40099
1.40071
1.40052
1.40038
1.40029
1.40022
1.40017
1.40013
1.4001
1.40008
1.40006
1.40473
1.40669
1.40922
1.41243
1.41636
1.42099
1.42617
1.43162
1.43701
1.44193
1.44606
1.44919
1.45124
1.45223
1.45228
1.45154
1.45021
1.44843
1.44638
1.44417
1.44193
1.43974
1.43768
1.4358
1.43414
1.43274
1.43162
1.43079
1.43029
1.43011
1.43025
1.43072
1.43151
1.43261
1.43403
1.43576
1.43776
1.43997
1.44233
1.44478
1.44722
1.44954
1.45154
1.45297
1.45358
1.45313
1.45149
1.44864
1.44476
1.4401
1.43501
1.42981
1.42479
1.42017
1.41608
1.41258
1.40967
1.40731
1.40544
1.404
1.40291
1.4021
1.4015
1.40108
1.40077
1.40056
1.40041
1.40031
1.40023
1.40018
1.40014
1.40011
1.40009
1.40007
1.40006
1.40359
1.40512
1.40712
1.40967
1.41285
1.41668
1.42113
1.42604
1.43118
1.43626
1.44095
1.44498
1.44816
1.45042
1.45177
1.45228
1.45209
1.45134
1.45018
1.44874
1.44714
1.44549
1.44387
1.44235
1.44098
1.43981
1.43886
1.43817
1.43776
1.43762
1.43778
1.43821
1.43893
1.43992
1.44118
1.44266
1.44432
1.4461
1.44792
1.4497
1.45131
1.4526
1.45337
1.45341
1.45255
1.45065
1.44774
1.44393
1.43945
1.43458
1.4296
1.42478
1.42031
1.41632
1.41287
1.40997
1.4076
1.40571
1.40422
1.40309
1.40224
1.40161
1.40115
1.40083
1.4006
1.40044
1.40032
1.40024
1.40019
1.40015
1.40012
1.40009
1.40007
1.40006
1.40005
1.40269
1.40387
1.40542
1.40743
1.40995
1.41305
1.41673
1.42094
1.42555
1.43036
1.43512
1.43958
1.44351
1.44674
1.44921
1.45091
1.45188
1.45223
1.45207
1.45153
1.45071
1.44971
1.44865
1.44759
1.44661
1.44574
1.44502
1.44451
1.4442
1.44412
1.44427
1.44464
1.44524
1.44605
1.44704
1.44816
1.44936
1.45055
1.45167
1.45259
1.4532
1.45333
1.45282
1.45154
1.4494
1.4464
1.44266
1.43836
1.43373
1.42902
1.42444
1.42017
1.41632
1.41297
1.41013
1.40779
1.40589
1.40439
1.40323
1.40236
1.4017
1.40122
1.40088
1.40063
1.40046
1.40034
1.40025
1.40019
1.40015
1.40012
1.4001
1.40008
1.40006
1.40005
1.40004
1.402
1.40289
1.40409
1.40564
1.40762
1.41007
1.41303
1.4165
1.42044
1.42472
1.42918
1.43361
1.43783
1.44163
1.44488
1.44752
1.44951
1.4509
1.45175
1.45214
1.45217
1.45194
1.45154
1.45103
1.4505
1.45
1.44958
1.44926
1.44909
1.44906
1.44919
1.44947
1.44989
1.45044
1.45106
1.45172
1.45233
1.45283
1.45312
1.45309
1.45264
1.45164
1.44999
1.44763
1.44459
1.44094
1.43685
1.43248
1.42806
1.42376
1.41973
1.41609
1.41288
1.41014
1.40786
1.40599
1.4045
1.40333
1.40244
1.40177
1.40128
1.40092
1.40066
1.40048
1.40035
1.40026
1.4002
1.40015
1.40012
1.4001
1.40008
1.40006
1.40005
1.40004
1.40003
1.40146
1.40214
1.40305
1.40424
1.40576
1.40767
1.41001
1.4128
1.41603
1.41965
1.42358
1.42767
1.43176
1.4357
1.43933
1.44254
1.44527
1.44749
1.44921
1.45046
1.45132
1.45185
1.45213
1.45222
1.45219
1.45211
1.45201
1.45193
1.45189
1.45191
1.452
1.45216
1.45237
1.45259
1.45278
1.45289
1.45286
1.45261
1.45207
1.45114
1.44974
1.44781
1.44532
1.44228
1.43877
1.43491
1.43085
1.42675
1.42277
1.41902
1.41562
1.4126
1.40999
1.4078
1.40599
1.40454
1.40339
1.40249
1.40182
1.40131
1.40095
1.40068
1.40049
1.40036
1.40027
1.4002
1.40016
1.40012
1.4001
1.40008
1.40006
1.40005
1.40004
1.40004
1.40003
1.40106
1.40157
1.40225
1.40316
1.40432
1.40578
1.40759
1.40978
1.41236
1.41533
1.41862
1.42217
1.42587
1.42959
1.43322
1.43662
1.43972
1.44245
1.44477
1.44669
1.44823
1.44943
1.45032
1.45098
1.45145
1.45177
1.45199
1.45214
1.45224
1.45231
1.45235
1.45235
1.45231
1.45219
1.45194
1.45153
1.45088
1.44996
1.44871
1.44705
1.44496
1.44243
1.43947
1.43616
1.43258
1.42886
1.42512
1.42148
1.41806
1.41492
1.41212
1.40969
1.40762
1.4059
1.4045
1.40338
1.40251
1.40184
1.40133
1.40096
1.40069
1.4005
1.40036
1.40027
1.4002
1.40015
1.40012
1.4001
1.40008
1.40006
1.40005
1.40004
1.40004
1.40003
1.40002
1.40076
1.40114
1.40165
1.40233
1.4032
1.40431
1.4057
1.40739
1.4094
1.41175
1.41442
1.41737
1.42053
1.42383
1.42716
1.43044
1.43356
1.43646
1.43908
1.44138
1.44337
1.44503
1.4464
1.4475
1.44838
1.44904
1.44953
1.44988
1.4501
1.45021
1.4502
1.45006
1.44978
1.44935
1.44872
1.44786
1.44674
1.44532
1.44356
1.44146
1.439
1.43622
1.43317
1.42992
1.42657
1.42321
1.41995
1.41687
1.41403
1.41148
1.40925
1.40733
1.40572
1.40439
1.40332
1.40248
1.40183
1.40133
1.40096
1.40069
1.4005
1.40036
1.40026
1.4002
1.40015
1.40012
1.40009
1.40008
1.40006
1.40005
1.40004
1.40004
1.40003
1.40002
1.40002
1.40055
1.40082
1.4012
1.4017
1.40235
1.40319
1.40423
1.40551
1.40707
1.40889
1.41099
1.41335
1.41595
1.41873
1.42161
1.42454
1.42743
1.43022
1.43284
1.43524
1.43741
1.43931
1.44095
1.44233
1.44346
1.44436
1.44505
1.44554
1.44584
1.44596
1.4459
1.44565
1.44521
1.44455
1.44365
1.4425
1.44109
1.43938
1.43739
1.43512
1.4326
1.42987
1.42699
1.42404
1.42109
1.41822
1.4155
1.41297
1.41069
1.40867
1.40692
1.40544
1.40421
1.40321
1.40241
1.40179
1.40131
1.40095
1.40068
1.40049
1.40035
1.40026
1.40019
1.40014
1.40011
1.40009
1.40007
1.40006
1.40005
1.40004
1.40004
1.40003
1.40003
1.40002
1.40002
1.40039
1.40059
1.40087
1.40123
1.40171
1.40233
1.40311
1.40408
1.40525
1.40664
1.40826
1.41011
1.41217
1.41442
1.4168
1.41928
1.42179
1.42428
1.4267
1.42898
1.4311
1.43302
1.43472
1.43619
1.43743
1.43844
1.43922
1.43979
1.44013
1.44025
1.44015
1.43984
1.43929
1.43851
1.43749
1.43622
1.4347
1.43294
1.43095
1.42875
1.42638
1.4239
1.42137
1.41883
1.41635
1.41399
1.41179
1.40979
1.408
1.40643
1.4051
1.40397
1.40305
1.4023
1.40172
1.40126
1.40092
1.40066
1.40047
1.40034
1.40024
1.40018
1.40013
1.4001
1.40008
1.40007
1.40006
1.40005
1.40004
1.40003
1.40003
1.40002
1.40002
1.40002
1.40001
1.40028
1.40043
1.40062
1.40089
1.40124
1.4017
1.40227
1.40299
1.40386
1.40491
1.40614
1.40755
1.40915
1.41091
1.41281
1.41483
1.41691
1.41901
1.4211
1.42312
1.42503
1.4268
1.42841
1.42983
1.43105
1.43205
1.43284
1.4334
1.43375
1.43386
1.43375
1.43341
1.43283
1.43203
1.43101
1.42976
1.42829
1.42663
1.4248
1.42283
1.42076
1.41863
1.4165
1.41441
1.41241
1.41053
1.4088
1.40724
1.40587
1.40468
1.40368
1.40284
1.40216
1.40162
1.4012
1.40087
1.40063
1.40045
1.40032
1.40023
1.40017
1.40012
1.40009
1.40007
1.40006
1.40005
1.40004
1.40004
1.40003
1.40003
1.40002
1.40002
1.40002
1.40001
1.40001
1.4002
1.40031
1.40045
1.40064
1.4009
1.40123
1.40165
1.40217
1.40282
1.40359
1.40451
1.40557
1.40678
1.40814
1.40961
1.4112
1.41286
1.41456
1.41628
1.41797
1.4196
1.42114
1.42255
1.42382
1.42492
1.42584
1.42656
1.42708
1.42739
1.42749
1.42738
1.42706
1.42651
1.42576
1.42481
1.42367
1.42237
1.42091
1.41932
1.41765
1.41593
1.41418
1.41246
1.4108
1.40923
1.40777
1.40644
1.40526
1.40423
1.40334
1.4026
1.40199
1.4015
1.40111
1.40081
1.40058
1.40041
1.40029
1.40021
1.40015
1.40011
1.40008
1.40006
1.40005
1.40004
1.40004
1.40003
1.40003
1.40003
1.40002
1.40002
1.40002
1.40001
1.40001
1.40001
1.40015
1.40022
1.40032
1.40047
1.40065
1.40089
1.40119
1.40157
1.40204
1.40261
1.40328
1.40407
1.40498
1.40599
1.40711
1.40833
1.40961
1.41095
1.41231
1.41367
1.415
1.41627
1.41744
1.41851
1.41944
1.42023
1.42086
1.42131
1.42158
1.42166
1.42155
1.42125
1.42078
1.42012
1.4193
1.41833
1.41722
1.416
1.4147
1.41334
1.41195
1.41057
1.40922
1.40793
1.40672
1.40562
1.40462
1.40374
1.40298
1.40233
1.4018
1.40136
1.40101
1.40074
1.40053
1.40038
1.40027
1.40019
1.40013
1.40009
1.40007
1.40005
1.40004
1.40004
1.40003
1.40003
1.40003
1.40002
1.40002
1.40002
1.40002
1.40001
1.40001
1.40001
1.40001
1.40011
1.40016
1.40024
1.40034
1.40047
1.40064
1.40086
1.40113
1.40147
1.40188
1.40238
1.40295
1.40361
1.40437
1.4052
1.40611
1.40708
1.40811
1.40916
1.41021
1.41125
1.41225
1.4132
1.41406
1.41482
1.41546
1.41597
1.41633
1.41655
1.41662
1.41652
1.41627
1.41586
1.41532
1.41464
1.41385
1.41295
1.41197
1.41093
1.40986
1.40878
1.40772
1.40669
1.40571
1.4048
1.40398
1.40324
1.4026
1.40205
1.40159
1.40121
1.4009
1.40066
1.40047
1.40033
1.40023
1.40016
1.40011
1.40008
1.40005
1.40004
1.40003
1.40003
1.40003
1.40002
1.40002
1.40002
1.40002
1.40002
1.40002
1.40001
1.40001
1.40001
1.40001
1.40001
1.40008
1.40012
1.40018
1.40025
1.40034
1.40047
1.40063
1.40082
1.40106
1.40136
1.40171
1.40213
1.40261
1.40315
1.40377
1.40444
1.40516
1.40592
1.40671
1.40751
1.4083
1.40907
1.4098
1.41047
1.41106
1.41156
1.41197
1.41225
1.41242
1.41246
1.41238
1.41218
1.41185
1.41141
1.41086
1.41023
1.40953
1.40877
1.40797
1.40714
1.40632
1.40552
1.40475
1.40402
1.40336
1.40276
1.40223
1.40177
1.40137
1.40105
1.40078
1.40057
1.40041
1.40029
1.4002
1.40013
1.40009
1.40006
1.40004
1.40003
1.40002
1.40002
1.40002
1.40002
1.40002
1.40002
1.40002
1.40001
1.40001
1.40001
1.40001
1.40001
1.40001
1.40001
1.40001
1.40006
1.40009
1.40014
1.40019
1.40026
1.40034
1.40045
1.4006
1.40077
1.40098
1.40123
1.40153
1.40187
1.40226
1.4027
1.40319
1.40371
1.40427
1.40486
1.40545
1.40603
1.40661
1.40716
1.40766
1.40811
1.40849
1.40879
1.40901
1.40913
1.40916
1.40909
1.40892
1.40867
1.40832
1.4079
1.40741
1.40687
1.40629
1.40569
1.40507
1.40446
1.40386
1.4033
1.40277
1.40229
1.40186
1.40149
1.40116
1.40089
1.40067
1.40049
1.40035
1.40024
1.40016
1.4001
1.40007
1.40004
1.40002
1.40002
1.40001
1.40001
1.40001
1.40001
1.40001
1.40001
1.40001
1.40001
1.40001
1.40001
1.40001
1.40001
1.40001
1.40001
1.40001
1.40001
1.40005
1.40007
1.4001
1.40014
1.40019
1.40026
1.40034
1.40043
1.40056
1.40071
1.40088
1.40109
1.40134
1.40162
1.40193
1.40228
1.40265
1.40306
1.40347
1.4039
1.40433
1.40475
1.40515
1.40552
1.40585
1.40613
1.40635
1.40651
1.4066
1.40661
1.40655
1.40642
1.40622
1.40595
1.40564
1.40527
1.40486
1.40443
1.40398
1.40352
1.40308
1.40265
1.40224
1.40186
1.40152
1.40122
1.40096
1.40073
1.40055
1.4004
1.40028
1.40019
1.40012
1.40008
1.40004
1.40002
1.40001
1.4
1.4
1.4
1.4
1.4
1.40001
1.40001
1.40001
1.40001
1.40001
1.40001
1.40001
1.40001
1.40001
1.40001
1.40001
1.40001
1.40001
1.40004
1.40006
1.40008
1.40011
1.40015
1.40019
1.40025
1.40032
1.40041
1.40051
1.40064
1.40079
1.40096
1.40115
1.40137
1.40162
1.40188
1.40217
1.40246
1.40277
1.40308
1.40338
1.40366
1.40393
1.40416
1.40436
1.40452
1.40462
1.40468
1.40469
1.40464
1.40453
1.40438
1.40418
1.40394
1.40367
1.40337
1.40305
1.40272
1.40239
1.40207
1.40176
1.40148
1.40121
1.40098
1.40077
1.40059
1.40044
1.40032
1.40022
1.40015
1.40009
1.40005
1.40002
1.40001
1.4
1.39999
1.39999
1.39999
1.39999
1.4
1.4
1.4
1.40001
1.40001
1.40001
1.40001
1.40001
1.40001
1.40001
1.40001
1.40001
1.40001
1.40001
1.40001
1.40003
1.40005
1.40006
1.40009
1.40012
1.40015
1.40019
1.40024
1.40031
1.40038
1.40046
1.40057
1.40069
1.40083
1.40098
1.40115
1.40133
1.40153
1.40174
1.40195
1.40216
1.40237
1.40257
1.40276
1.40292
1.40306
1.40317
1.40324
1.40327
1.40327
1.40323
1.40315
1.40303
1.40288
1.4027
1.4025
1.40228
1.40205
1.40182
1.40158
1.40136
1.40114
1.40094
1.40076
1.4006
1.40046
1.40034
1.40024
1.40016
1.4001
1.40006
1.40002
1.4
1.39999
1.39998
1.39998
1.39998
1.39999
1.39999
1.39999
1.4
1.4
1.4
1.4
1.40001
1.40001
1.40001
1.40001
1.40001
1.40001
1.40001
1.40001
1.40001
1.40001
1.40001
1.40003
1.40004
1.40006
1.40007
1.40009
1.40012
1.40015
1.40019
1.40023
1.40028
1.40034
1.40042
1.4005
1.40059
1.4007
1.40081
1.40094
1.40108
1.40122
1.40137
1.40151
1.40165
1.40179
1.40192
1.40203
1.40212
1.40219
1.40223
1.40225
1.40224
1.40221
1.40214
1.40206
1.40195
1.40182
1.40167
1.40151
1.40135
1.40118
1.40102
1.40086
1.40071
1.40057
1.40045
1.40034
1.40025
1.40017
1.40011
1.40007
1.40003
1.4
1.39999
1.39998
1.39997
1.39997
1.39997
1.39998
1.39998
1.39999
1.39999
1.39999
1.4
1.4
1.4
1.4
1.40001
1.40001
1.40001
1.40001
1.40001
1.40001
1.40001
1.40001
1.40001
1.40001
1.40003
1.40004
1.40004
1.40006
1.40008
1.40009
1.40012
1.40015
1.40018
1.40021
1.40026
1.40031
1.40036
1.40043
1.40051
1.40059
1.40067
1.40076
1.40085
1.40096
1.40106
1.40115
1.40123
1.40132
1.40139
1.40145
1.40149
1.40152
1.40153
1.40152
1.40148
1.40143
1.40137
1.40128
1.40119
1.40109
1.40097
1.40086
1.40074
1.40063
1.40052
1.40042
1.40033
1.40025
1.40018
1.40012
1.40007
1.40003
1.4
1.39999
1.39997
1.39997
1.39996
1.39996
1.39997
1.39997
1.39998
1.39998
1.39999
1.39999
1.4
1.4
1.4
1.4
1.4
1.4
1.4
1.40001
1.40001
1.40001
1.40001
1.40001
1.40001
1.40001
1.40001
1.40002
1.40003
1.40004
1.40005
1.40006
1.40008
1.40009
1.40011
1.40014
1.40016
1.40019
1.40023
1.40028
1.40032
1.40036
1.40042
1.40048
1.40054
1.4006
1.40066
1.40073
1.40079
1.40085
1.4009
1.40095
1.40098
1.40101
1.40102
1.40102
1.40101
1.40098
1.40094
1.40089
1.40083
1.40076
1.40068
1.40061
1.40053
1.40045
1.40037
1.40029
1.40023
1.40017
1.40012
1.40007
1.40004
1.40001
1.39999
1.39997
1.39996
1.39996
1.39996
1.39996
1.39996
1.39997
1.39997
1.39998
1.39998
1.39999
1.39999
1.4
1.4
1.4
1.4
1.4
1.40001
1.40001
1.40001
1.40001
1.40001
1.40001
1.40001
1.40001
1.40001
1.40001
1.40002
1.40002
1.40003
1.40004
1.40005
1.40006
1.40007
1.40009
1.40011
1.40013
1.40015
1.40017
1.4002
1.40024
1.40027
1.4003
1.40034
1.40038
1.40043
1.40047
1.40051
1.40055
1.40058
1.40062
1.40065
1.40066
1.40067
1.40068
1.40067
1.40066
1.40064
1.4006
1.40057
1.40052
1.40047
1.40042
1.40036
1.40031
1.40025
1.4002
1.40015
1.40011
1.40007
1.40003
1.40001
1.39999
1.39997
1.39996
1.39996
1.39995
1.39995
1.39995
1.39996
1.39996
1.39997
1.39998
1.39998
1.39999
1.39999
1.39999
1.4
1.4
1.4
1.4
1.4
1.4
1.4
1.40001
1.40001
1.40001
1.40001
1.40001
1.40001
1.40001
1.4
1.40002
1.40002
1.40002
1.40003
1.40004
1.40005
1.40006
1.40007
1.40008
1.4001
1.40012
1.40014
1.40016
1.40018
1.4002
1.40023
1.40025
1.40028
1.4003
1.40033
1.40036
1.40038
1.4004
1.40042
1.40043
1.40045
1.40045
1.40045
1.40044
1.40043
1.40041
1.40038
1.40035
1.40032
1.40028
1.40024
1.4002
1.40017
1.40013
1.40009
1.40006
1.40003
1.40001
1.39999
1.39997
1.39996
1.39995
1.39995
1.39995
1.39995
1.39995
1.39996
1.39996
1.39997
1.39997
1.39998
1.39998
1.39999
1.39999
1.4
1.4
1.4
1.4
1.4
1.4
1.4
1.4
1.4
1.40001
1.40001
1.40001
1.40001
1.40001
1.40001
1.40001
1.40002
1.40002
1.40002
1.40003
1.40004
1.40004
1.40005
1.40006
1.40007
1.40008
1.40009
1.40011
1.40013
1.40014
1.40015
1.40017
1.40019
1.40021
1.40022
1.40024
1.40025
1.40027
1.40028
1.40029
1.40029
1.40029
1.40029
1.40029
1.40028
1.40027
1.40025
1.40023
1.40021
1.40019
1.40016
1.40013
1.4001
1.40008
1.40005
1.40003
1.40001
1.39999
1.39998
1.39997
1.39996
1.39995
1.39995
1.39995
1.39995
1.39995
1.39996
1.39996
1.39997
1.39997
1.39998
1.39998
1.39999
1.39999
1.39999
1.4
1.4
1.4
1.4
1.4
1.4
1.4
1.4
1.4
1.4
1.4
1.40001
1.40001
1.40001
1.40001
1.4
1.40001
1.40002
1.40002
1.40002
1.40002
1.40004
1.40004
1.40005
1.40005
1.40006
1.40008
1.40008
1.40009
1.40011
1.40012
1.40013
1.40014
1.40015
1.40017
1.40018
1.40018
1.40019
1.40019
1.4002
1.4002
1.4002
1.4002
1.40019
1.40018
1.40017
1.40016
1.40014
1.40012
1.4001
1.40008
1.40006
1.40004
1.40003
1.40001
1.39999
1.39998
1.39997
1.39996
1.39996
1.39995
1.39995
1.39995
1.39995
1.39996
1.39996
1.39996
1.39997
1.39997
1.39998
1.39998
1.39999
1.39999
1.39999
1.39999
1.4
1.4
1.4
1.4
1.4
1.4
1.4
1.4
1.40001
1.40001
1.40001
1.40001
1.40001
1.40001
1.40001
1.40001
1.40001
1.40001
1.40001
1.40002
1.40003
1.40002
1.40003
1.40004
1.40005
1.40005
1.40006
1.40007
1.40008
1.40008
1.40009
1.4001
1.40011
1.40012
1.40012
1.40013
1.40013
1.40014
1.40014
1.40014
1.40014
1.40014
1.40013
1.40013
1.40012
1.40011
1.40009
1.40008
1.40007
1.40005
1.40004
1.40002
1.40001
1.4
1.39999
1.39998
1.39997
1.39996
1.39996
1.39996
1.39995
1.39995
1.39996
1.39996
1.39996
1.39996
1.39997
1.39997
1.39998
1.39998
1.39999
1.39999
1.39999
1.4
1.4
1.4
1.4
1.4
1.4
1.4
1.4
1.4
1.4
1.4
1.4
1.4
1.40001
1.40001
1.40001
1.40001
1.4
1.40001
1.40002
1.40001
1.40001
1.40002
1.40003
1.40003
1.40003
1.40003
1.40004
1.40005
1.40005
1.40006
1.40007
1.40007
1.40008
1.40008
1.40009
1.40009
1.4001
1.4001
1.4001
1.4001
1.4001
1.4001
1.40009
1.40009
1.40008
1.40008
1.40007
1.40006
1.40005
1.40004
1.40002
1.40001
1.4
1.39999
1.39999
1.39998
1.39997
1.39997
1.39996
1.39996
1.39996
1.39996
1.39996
1.39996
1.39997
1.39997
1.39997
1.39998
1.39998
1.39998
1.39999
1.39999
1.39999
1.39999
1.4
1.4
1.4
1.4
1.4
1.4
1.4
1.4
1.4
1.40001
1.40001
1.4
1.4
1.4
1.4
1.40001
1.40001
1.40001
1.4
1.40001
1.40002
1.40002
1.40001
1.40001
1.40002
1.40003
1.40003
1.40003
1.40004
1.40004
1.40005
1.40005
1.40006
1.40006
1.40006
1.40007
1.40007
1.40007
1.40007
1.40007
1.40007
1.40007
1.40007
1.40007
1.40006
1.40005
1.40005
1.40004
1.40003
1.40003
1.40002
1.40001
1.4
1.39999
1.39999
1.39998
1.39997
1.39997
1.39997
1.39997
1.39996
1.39996
1.39996
1.39997
1.39997
1.39997
1.39997
1.39998
1.39998
1.39999
1.39999
1.39999
1.39999
1.4
1.4
1.4
1.4
1.4
1.4
1.4
1.4
1.4
1.4
1.4
1.4
1.4
1.40001
1.40001
1.40001
1.40001
1.4
1.40001
1.4
1.40001
1.40001
1.40001
1.40001
1.40002
1.40002
1.40001
1.40002
1.40003
1.40003
1.40003
1.40003
1.40004
1.40004
1.40005
1.40005
1.40005
1.40005
1.40005
1.40005
1.40006
1.40006
1.40006
1.40005
1.40005
1.40005
1.40004
1.40004
1.40003
1.40003
1.40002
1.40001
1.40001
1.4
1.39999
1.39999
1.39998
1.39998
1.39998
1.39997
1.39997
1.39997
1.39997
1.39997
1.39997
1.39997
1.39998
1.39998
1.39998
1.39998
1.39999
1.39999
1.39999
1.39999
1.4
1.4
1.4
1.4
1.4
1.4
1.4
1.4
1.4
1.4
1.4
1.4
1.4
1.4
1.4
1.40001
1.40001
1.40001
1.40001
1.40001
1.40001
1.4
1.40001
1.40001
1.40001
1.40001
1.40001
1.40002
1.40002
1.40002
1.40002
1.40003
1.40003
1.40003
1.40003
1.40003
1.40004
1.40004
1.40004
1.40004
1.40004
1.40004
1.40004
1.40004
1.40004
1.40004
1.40003
1.40003
1.40003
1.40002
1.40002
1.40001
1.40001
1.4
1.4
1.39999
1.39999
1.39998
1.39998
1.39998
1.39998
1.39998
1.39998
1.39998
1.39998
1.39998
1.39998
1.39998
1.39998
1.39999
1.39999
1.39999
1.39999
1.39999
1.4
1.4
1.4
1.4
1.4
1.4
1.4
1.4
1.4
1.4
1.4
1.4
1.4
1.40001
1.4
1.4
1.4
1.4
1.4
1.40001
1.40001
1.40001
1.40001
1.40001
1.40001
1.40001
1.40001
1.40001
1.40001
1.40001
1.40002
1.40002
1.40002
1.40002
1.40002
1.40003
1.40003
1.40003
1.40003
1.40003
1.40003
1.40003
1.40003
1.40003
1.40003
1.40003
1.40003
1.40003
1.40002