/*--------------------------------*- C++ -*----------------------------------*\
  =========                 |
  \\      /  F ield         | OpenFOAM: The Open Source CFD Toolbox
   \\    /   O peration     | Website:  https://openfoam.org
    \\  /    A nd           | Version:  6
     \\/     M anipulation  |
\*---------------------------------------------------------------------------*/
FoamFile
{
    version     2.0;
    format      ascii;
    class       volScalarField;
    location    "1.28";
    object      k;
}
// * * * * * * * * * * * * * * * * * * * * * * * * * * * * * * * * * * * * * //

dimensions      [0 2 -2 0 0 0 0];

internalField   nonuniform List<scalar> 
4214
(
0.0836356
0.0481177
0.0360886
0.0329561
0.0327551
0.0333131
0.0340373
0.0349419
0.0360769
0.037673
0.0400466
0.0436553
0.049197
0.0577101
0.0708344
0.0908582
0.121011
0.165207
0.228695
0.319181
0.427779
0.4624
0.316512
0.18191
0.110629
0.0764696
0.0593508
0.049883
0.0441503
0.0403443
0.0376416
0.0356191
0.0340883
0.0329612
0.0322189
0.0317155
0.0314414
0.0318592
0.0348943
0.0463219
0.0809583
0.0404502
0.0340762
0.032148
0.0320568
0.0325857
0.0332645
0.0340002
0.0348803
0.035981
0.0375436
0.0398814
0.0434808
0.049138
0.058088
0.0724364
0.0951535
0.130468
0.18304
0.255883
0.354879
0.463365
0.480792
0.314653
0.17741
0.107744
0.074884
0.0583202
0.0490839
0.043491
0.0397836
0.0371378
0.0351575
0.0336702
0.0325853
0.0318507
0.0313525
0.0309874
0.0307832
0.0311032
0.0330614
0.0393744
0.0328608
0.0314881
0.031398
0.0318538
0.0324987
0.0331859
0.0339249
0.0347754
0.0358595
0.037401
0.0397243
0.0433528
0.0492029
0.0587448
0.0746898
0.100872
0.142788
0.205407
0.289606
0.396365
0.500955
0.495103
0.31004
0.172542
0.10556
0.0738027
0.0575508
0.0483803
0.0428255
0.0391409
0.0365217
0.0345691
0.0331098
0.0320484
0.0313085
0.0308003
0.0304188
0.0301271
0.0300063
0.0303208
0.0318374
0.0309412
0.0308072
0.0311806
0.0317613
0.0324187
0.0330954
0.0338255
0.0346547
0.0357286
0.0372623
0.0395989
0.0433071
0.0494573
0.0598021
0.0778476
0.108477
0.158714
0.233311
0.330813
0.444323
0.53992
0.506702
0.304332
0.168561
0.104353
0.0732992
0.0570978
0.0478195
0.0421902
0.0384566
0.0358227
0.0338702
0.0324183
0.0313604
0.0306148
0.0300971
0.0297181
0.02943
0.0292478
0.0292108
0.0295982
0.0302158
0.030515
0.03104
0.0316519
0.032303
0.0329718
0.0336889
0.0345116
0.0355866
0.0371319
0.0395188
0.043373
0.0499708
0.0613997
0.0822161
0.118521
0.179134
0.267833
0.3806
0.498289
0.577872
0.514278
0.298552
0.166204
0.104348
0.0734856
0.05705
0.0474562
0.0416209
0.0377467
0.0350425
0.0330503
0.0315773
0.0304991
0.0297326
0.0291954
0.0288146
0.028542
0.0283697
0.0282677
0.0283171
0.0298377
0.0303158
0.0308975
0.0315154
0.0321569
0.0328173
0.0335256
0.0343507
0.0354399
0.0370209
0.0395074
0.0435951
0.0508446
0.0637319
0.0881951
0.131678
0.204697
0.310367
0.439896
0.557624
0.61228
0.515599
0.294467
0.166131
0.105774
0.0745409
0.0575507
0.047398
0.0412022
0.03707
0.0342226
0.0321376
0.030611
0.0294892
0.0286874
0.0281227
0.0277321
0.0274714
0.0273219
0.027231
0.0271958
0.0295606
0.0301212
0.0307249
0.0313416
0.0319745
0.0326278
0.0333346
0.0341715
0.0352925
0.0369406
0.0395934
0.0440332
0.0522152
0.0670455
0.0962839
0.148722
0.236182
0.362219
0.509054
0.620953
0.640823
0.513439
0.292729
0.168156
0.108567
0.076529
0.0587247
0.0477914
0.0410641
0.0365219
0.0334328
0.0311833
0.0295639
0.0283733
0.0275235
0.0269218
0.0265106
0.0262479
0.0261106
0.0260445
0.0260124
0.0293022
0.0299009
0.0305128
0.0311264
0.0317525
0.0324017
0.0331141
0.0339743
0.035151
0.0369083
0.0398205
0.0447718
0.0542671
0.0716567
0.107095
0.170145
0.274759
0.424619
0.588457
0.685368
0.663179
0.510464
0.293337
0.172244
0.11294
0.0796991
0.06082
0.0488321
0.0413745
0.0362347
0.0327818
0.030269
0.0285063
0.0272147
0.0263057
0.0256592
0.0252194
0.0249395
0.0247962
0.0247428
0.024739
0.0290251
0.0296387
0.0302519
0.0308619
0.0314833
0.0321333
0.0328603
0.0337595
0.0350262
0.0369503
0.0402541
0.0459286
0.0572517
0.0779553
0.121144
0.196642
0.321544
0.498769
0.678804
0.746167
0.680422
0.508156
0.296858
0.178804
0.119293
0.0844268
0.0642139
0.0508531
0.0424141
0.0364149
0.0324229
0.0295002
0.0275251
0.0260859
0.0251048
0.0244057
0.0239336
0.0236265
0.0234614
0.0234002
0.0234167
0.0287056
0.0293203
0.0299308
0.0305371
0.0311564
0.0318132
0.0325697
0.0335313
0.0349386
0.0371092
0.0409904
0.0476571
0.0614542
0.0862459
0.139105
0.229054
0.377329
0.585828
0.779635
0.801276
0.694123
0.507972
0.303895
0.188294
0.128143
0.0912178
0.0694197
0.0543073
0.0445715
0.0373519
0.0325793
0.0290225
0.026731
0.0250649
0.0239912
0.0232274
0.0227246
0.0223874
0.0221933
0.0221067
0.0221201
0.0283203
0.028928
0.0295332
0.0301363
0.0307587
0.0314319
0.0322401
0.0332973
0.0349204
0.0374422
0.0421584
0.0501357
0.0672427
0.0969764
0.161757
0.268009
0.442812
0.686726
0.886834
0.856605
0.70842
0.511436
0.315363
0.201248
0.140148
0.100744
0.0771287
0.0598107
0.048382
0.039441
0.0335578
0.0290284
0.026268
0.0242414
0.0230399
0.022186
0.0216553
0.0212907
0.0210706
0.0209528
0.0209402
0.0278391
0.0284373
0.0290379
0.0296409
0.0302774
0.0309833
0.0318807
0.0330805
0.035036
0.0380454
0.0439625
0.0536158
0.075093
0.110568
0.189848
0.313921
0.518752
0.801537
0.995969
0.912968
0.728356
0.520268
0.33235
0.218328
0.156142
0.113875
0.0882578
0.0681874
0.0545739
0.0432142
0.0357875
0.0297758
0.0263327
0.0237254
0.0223381
0.0213426
0.0207834
0.0203932
0.0201585
0.0200172
0.0199742
0.0272258
0.0278191
0.0284225
0.0290334
0.0297072
0.030471
0.0315219
0.0329277
0.0353991
0.0390601
0.0466936
0.0583952
0.0855627
0.127395
0.224128
0.366821
0.605816
0.929689
1.10365
0.967137
0.758113
0.536244
0.355845
0.240345
0.177188
0.131721
0.103995
0.0805117
0.0641287
0.0493774
0.0398686
0.031611
0.027204
0.0236592
0.0219981
0.0207606
0.0201657
0.0197437
0.0195103
0.0193611
0.0193044
0.0264474
0.0270471
0.027674
0.028307
0.0290635
0.0299181
0.0312338
0.0329199
0.0361962
0.0406776
0.0507518
0.0648083
0.0992959
0.147725
0.265293
0.426464
0.704083
1.07082
1.2061
1.01718
0.795533
0.560888
0.387021
0.268258
0.204636
0.155653
0.125836
0.0981373
0.0783574
0.0588431
0.0466464
0.0349923
0.0292898
0.0242285
0.022176
0.0205105
0.0198622
0.0193819
0.0191665
0.0190291
0.0189821
0.025495
0.0261116
0.0268071
0.0274759
0.0284033
0.0293771
0.031152
0.0331783
0.0377166
0.0431324
0.0566756
0.0732171
0.11705
0.171732
0.313952
0.492332
0.813685
1.2233
1.29894
1.06726
0.842482
0.595523
0.427615
0.303165
0.240136
0.187291
0.155601
0.122674
0.0989919
0.07274
0.0573183
0.0405055
0.0332023
0.0256718
0.0231054
0.0206712
0.0199435
0.0193342
0.0191494
0.0190359
0.0190252
0.0244122
0.0250293
0.0258909
0.0265777
0.0278507
0.0289239
0.0315049
0.033844
0.0403834
0.0466856
0.0651952
0.0840348
0.139746
0.199603
0.370954
0.563688
0.934586
1.38247
1.37909
1.1232
0.900365
0.640837
0.480427
0.346211
0.285728
0.228288
0.195393
0.155836
0.12827
0.092356
0.073612
0.0488397
0.0398854
0.0282774
0.0251634
0.0213329
0.0205123
0.0196116
0.0194605
0.0193598
0.0194027
0.0233379
0.0238355
0.0250808
0.025646
0.0276155
0.028614
0.032629
0.0350326
0.0448045
0.0516319
0.0773528
0.0978323
0.168584
0.231657
0.437352
0.639938
1.06594
1.53685
1.44711
1.1932
0.971209
0.696032
0.54982
0.397908
0.343952
0.279886
0.247573
0.199104
0.169103
0.11887
0.0980532
0.0606634
0.0508372
0.0323371
0.0289948
0.0225852
0.0217547
0.0202124
0.020097
0.0199498
0.0200251
0.0202389
0.0195254
0.019086
0.0190258
0.0193684
0.0200773
0.0210808
0.0222724
0.0235662
0.0248971
0.0262087
0.0275099
0.0289317
0.0310689
0.0359044
0.055312
0.172751
0.0204227
0.0197306
0.0192628
0.019141
0.0193822
0.0199482
0.0207762
0.0217935
0.0229411
0.0241927
0.0255456
0.0270479
0.0288821
0.0318264
0.0383182
0.0621247
0.186847
0.0207615
0.0200187
0.0195363
0.0193878
0.0195601
0.0200042
0.020669
0.0215111
0.0225075
0.0236745
0.025059
0.0267742
0.0291071
0.0330616
0.0416941
0.070956
0.200391
0.0210049
0.0203274
0.0198781
0.0197357
0.0198722
0.0202309
0.0207668
0.0214586
0.0223269
0.0234394
0.0248935
0.0268739
0.0298048
0.0349731
0.0462342
0.0820175
0.214634
0.0213928
0.0207049
0.0202878
0.0201676
0.0202963
0.0206063
0.0210546
0.0216353
0.0224134
0.0235108
0.0250772
0.0273807
0.0310105
0.0376106
0.0521729
0.0960175
0.229512
0.0216999
0.0211
0.0207412
0.0206553
0.0207973
0.021097
0.0215084
0.0220335
0.0227654
0.0238839
0.0256018
0.0282805
0.0326862
0.0408899
0.059577
0.113421
0.244713
0.0221224
0.0215434
0.0212303
0.0211773
0.0213428
0.0216635
0.0220907
0.0226246
0.0233658
0.0245355
0.0264209
0.0294888
0.0346843
0.0444911
0.0680511
0.133844
0.259456
0.0224923
0.0220011
0.0217391
0.0217155
0.021906
0.0222654
0.0227513
0.0233559
0.0241698
0.0254221
0.0274721
0.0308905
0.0367977
0.0480248
0.0764996
0.155221
0.272532
0.0229438
0.0224878
0.0222616
0.0222591
0.0224691
0.0228691
0.0234335
0.0241545
0.0251015
0.0264845
0.0286984
0.0324017
0.0388649
0.0511925
0.0832624
0.17373
0.282635
0.023368
0.0229862
0.0227918
0.0228027
0.0230233
0.0234536
0.0240912
0.0249434
0.0260666
0.0276395
0.0300471
0.0340015
0.0408739
0.0539388
0.0869855
0.185309
0.289173
0.0238478
0.0235017
0.0233286
0.0233448
0.0235664
0.0240108
0.0246982
0.0256612
0.0269699
0.0287844
0.0314552
0.0356945
0.0429294
0.0566166
0.0888926
0.188223
0.292645
0.0243201
0.0240287
0.0238725
0.0238853
0.0240949
0.0245341
0.0252442
0.0262842
0.0277472
0.0298068
0.0328037
0.0374339
0.0451711
0.0594904
0.0917808
0.183987
0.293483
0.0248273
0.0245714
0.0244234
0.0244254
0.0246093
0.0250229
0.0257203
0.0267828
0.0283354
0.0305927
0.0339392
0.0391021
0.0475724
0.0628778
0.0953432
0.177497
0.292461
0.0253566
0.0251252
0.0249823
0.0249694
0.0251209
0.0254881
0.0261382
0.0271648
0.0287177
0.0310525
0.0346243
0.0402737
0.0496362
0.066277
0.0993494
0.174322
0.290525
0.025898
0.0256909
0.0255538
0.0255257
0.0256406
0.0259496
0.0265221
0.0274613
0.0289241
0.031189
0.03476
0.0405914
0.0505267
0.0683706
0.102846
0.174946
0.28831
0.0264513
0.0262704
0.0261421
0.0261016
0.0261803
0.0264265
0.0269061
0.0277181
0.0290186
0.0310809
0.0344075
0.0399865
0.0498047
0.0680207
0.103671
0.176613
0.28601
0.0270181
0.026866
0.0267512
0.026704
0.0267521
0.026938
0.0273211
0.0279908
0.0290878
0.0308579
0.0337616
0.038726
0.0477045
0.0650658
0.100725
0.176182
0.283934
0.0275974
0.0274778
0.027383
0.0273377
0.027365
0.0275007
0.0277954
0.0283259
0.0292123
0.0306617
0.0330636
0.037214
0.044874
0.0602598
0.0938212
0.169884
0.282117
0.0281897
0.0281065
0.0280383
0.0280047
0.028024
0.0281247
0.0283487
0.0287589
0.0294537
0.0306003
0.0325113
0.0358301
0.0420081
0.0547051
0.0841562
0.156912
0.280298
0.0287927
0.0287501
0.0287159
0.0287044
0.0287294
0.0288134
0.0289893
0.0293077
0.0298471
0.0307397
0.0322282
0.0348091
0.0396248
0.0496809
0.0737196
0.139622
0.278106
0.0294048
0.0294072
0.0294136
0.0294344
0.0294793
0.029565
0.0297167
0.0299737
0.0303988
0.0310959
0.0322518
0.0342432
0.0379359
0.0456864
0.0649253
0.121543
0.27521
0.0300222
0.030074
0.0301281
0.0301913
0.0302698
0.0303753
0.0305261
0.0307524
0.0311034
0.0316614
0.0325731
0.0341285
0.0369868
0.0429834
0.0583475
0.105255
0.271571
0.0306414
0.0307474
0.0308559
0.0309708
0.0310958
0.0312381
0.0314104
0.0316348
0.0319491
0.0324189
0.0331612
0.0344061
0.0366651
0.0413682
0.0537224
0.094969
0.26756
0.0312576
0.0314221
0.0315913
0.0317671
0.0319508
0.0321461
0.0323606
0.0326097
0.0329217
0.0333478
0.033982
0.0350098
0.0368423
0.0406349
0.0508956
0.0884297
0.263768
0.0318667
0.0320941
0.0323301
0.0325753
0.0328294
0.0330928
0.0333692
0.0336683
0.0340101
0.0344336
0.0350134
0.0359012
0.0374374
0.0405897
0.0493537
0.0841764
0.260802
0.0324636
0.0327579
0.0330671
0.0333908
0.0337269
0.0340734
0.0344306
0.0348036
0.0352057
0.0356656
0.0362416
0.0370569
0.0383963
0.0410869
0.0487038
0.08092
0.259062
0.0330455
0.033411
0.0337998
0.0342107
0.0346405
0.0350849
0.0355413
0.0360112
0.0365028
0.0370366
0.0376568
0.0384617
0.0396874
0.0420407
0.048714
0.0784558
0.258686
0.0336089
0.0340498
0.0345251
0.0350331
0.0355693
0.0361266
0.0367007
0.0372902
0.0378996
0.0385434
0.0392546
0.0401093
0.0412991
0.0434202
0.0493024
0.0768896
0.259609
0.0341528
0.0346738
0.035243
0.0358584
0.0365143
0.0372006
0.0379111
0.0386431
0.0393988
0.0401885
0.0410371
0.0420027
0.043235
0.045225
0.0504454
0.0760274
0.261626
0.0346762
0.0352818
0.0359532
0.0366882
0.0374786
0.038311
0.0391781
0.0400765
0.0410081
0.0419809
0.0430148
0.0441543
0.0455134
0.04748
0.0521616
0.0757594
0.264467
0.0351795
0.0358759
0.0366588
0.0375265
0.0384678
0.0394647
0.0405098
0.0416006
0.04274
0.0439365
0.0452075
0.0465889
0.0481666
0.0502336
0.0545168
0.0760815
0.267844
0.035665
0.0364577
0.037363
0.038379
0.0394894
0.0406709
0.0419175
0.0432295
0.0446128
0.0460786
0.0476454
0.0493453
0.051245
0.0535576
0.057629
0.0771199
0.271477
0.0361341
0.0370323
0.0380723
0.0392537
0.0405532
0.0419409
0.0434152
0.0449813
0.0466504
0.0484392
0.0503713
0.05248
0.0548225
0.0575526
0.0616577
0.0791211
0.275104
0.0365934
0.0376048
0.0387943
0.0401609
0.0416709
0.0432885
0.0450201
0.0468788
0.0488838
0.0510611
0.0534431
0.0560711
0.059003
0.0623567
0.0668131
0.0824486
0.278496
0.037045
0.0381851
0.0395407
0.0411133
0.0428562
0.0447297
0.0467533
0.0489509
0.0513534
0.054
0.0569384
0.0602252
0.0639314
0.0681649
0.0733768
0.0876179
0.281465
0.0375045
0.0387831
0.0403247
0.0421264
0.0441251
0.0462839
0.0486413
0.0512349
0.0541115
0.05733
0.0609609
0.0650876
0.0698096
0.0752546
0.0817386
0.0953351
0.283882
0.0379765
0.0394183
0.0411652
0.0432183
0.0454966
0.047976
0.0507189
0.05378
0.057228
0.0611499
0.065651
0.0708577
0.0769215
0.0840268
0.0924624
0.106577
0.285681
0.0384908
0.0401052
0.0420842
0.0444111
0.0469953
0.0498403
0.053034
0.0566534
0.0607977
0.0655941
0.0712008
0.077813
0.0856712
0.0950707
0.106394
0.122761
0.286854
0.0390546
0.0408772
0.0431106
0.045733
0.0486567
0.0519271
0.0556565
0.0599519
0.0649558
0.070854
0.0778839
0.0863503
0.0966458
0.109271
0.124864
0.145868
0.287566
0.039702
0.0417523
0.0442776
0.0472242
0.0505385
0.0543165
0.0586943
0.0638228
0.0699074
0.0772193
0.0861154
0.0970713
0.110735
0.128014
0.149955
0.178976
0.288214
0.0643027
0.0671727
0.0700118
0.0727627
0.075369
0.0777663
0.0798954
0.081697
0.0831218
0.0841293
0.0846946
0.0848066
0.0844684
0.0837013
0.0825398
0.0810303
0.0792252
0.0771813
0.0749485
0.0725469
0.0696746
0.0667733
0.0644121
0.0621546
0.0600045
0.0579457
0.0560076
0.0541741
0.0524728
0.0508846
0.0494268
0.0480826
0.0468582
0.0457397
0.0447223
0.0438039
0.0429763
0.0422354
0.0415742
0.0409807
0.0404465
0.0693706
0.0725323
0.0756548
0.0786743
0.0815232
0.0841303
0.0864262
0.0883455
0.0898326
0.0908448
0.0913554
0.0913558
0.0908537
0.089878
0.0884725
0.0866925
0.0846009
0.082263
0.0797371
0.077047
0.0738705
0.0706915
0.0680978
0.0656402
0.0632989
0.0610781
0.0589856
0.0570273
0.0552076
0.053527
0.0519832
0.0505767
0.0493025
0.0481499
0.0471123
0.0461712
0.0453342
0.0445757
0.0439134
0.04331
0.0427839
0.0747297
0.078228
0.0816792
0.0850106
0.0881441
0.0909985
0.0934942
0.0955576
0.0971269
0.0981554
0.0986159
0.0985023
0.0978281
0.0966311
0.0949647
0.0928955
0.0904973
0.0878451
0.0850066
0.0820105
0.0785165
0.0750419
0.0722061
0.069529
0.0669883
0.0645898
0.0623403
0.0602457
0.058308
0.0565275
0.0549018
0.0534295
0.0521035
0.0509164
0.0498582
0.0489195
0.0480889
0.0473557
0.0467105
0.0461387
0.0456334
0.0803822
0.0842661
0.0880958
0.0917883
0.0952534
0.0983983
0.101132
0.103371
0.105047
0.106108
0.106527
0.1063
0.105448
0.104019
0.102078
0.099702
0.0969786
0.0939937
0.0908241
0.0875059
0.0836818
0.0798993
0.0768071
0.073896
0.0711441
0.0685568
0.0661413
0.0639021
0.0618403
0.0599554
0.0582451
0.056704
0.0553247
0.054099
0.0530189
0.0520751
0.0512562
0.0505488
0.0499394
0.0494092
0.0489471
0.0863478
0.0906687
0.0949298
0.099036
0.102884
0.106367
0.109381
0.111833
0.113644
0.114758
0.115148
0.114813
0.113782
0.112114
0.109886
0.10719
0.104126
0.100792
0.0972757
0.0936201
0.0894548
0.0853546
0.0819906
0.078831
0.0758543
0.0730667
0.0704747
0.0680817
0.0658885
0.0638939
0.0620932
0.0604795
0.0590449
0.0577813
0.0566793
0.0557278
0.0549142
0.0542238
0.0536412
0.0531486
0.0527304
0.0926712
0.0974809
0.102227
0.106801
0.111085
0.114957
0.118298
0.121001
0.12298
0.124172
0.12455
0.124117
0.122911
0.121001
0.11848
0.115455
0.112038
0.108342
0.104465
0.10046
0.0959449
0.0915188
0.0878679
0.0844451
0.0812305
0.0782301
0.07545
0.0728932
0.0705601
0.0684476
0.0665495
0.0648585
0.0633665
0.0620643
0.0609405
0.0599824
0.0591755
0.0585033
0.0579501
0.0574985
0.0571279
0.0994325
0.10478
0.110063
0.115158
0.11993
0.124241
0.127956
0.130953
0.133134
0.134433
0.13482
0.134304
0.132931
0.130783
0.127969
0.12461
0.120835
0.116769
0.112522
0.108158
0.103289
0.0985311
0.0945801
0.0908807
0.0874144
0.0841881
0.0812078
0.0784765
0.0759931
0.0737531
0.0717503
0.0699771
0.0684243
0.067081
0.0659345
0.0649705
0.0641729
0.0635252
0.0630116
0.0626143
0.0623085
0.10676
0.112689
0.118554
0.124218
0.129527
0.134324
0.138456
0.141788
0.144208
0.145645
0.146066
0.145485
0.14396
0.141586
0.138485
0.134797
0.130665
0.126228
0.121609
0.116882
0.111659
0.10657
0.102308
0.0983197
0.0945893
0.0911245
0.0879322
0.0850146
0.0823697
0.079993
0.0778784
0.0760174
0.0743994
0.0730127
0.0718431
0.0708756
0.0700939
0.0694825
0.0690244
0.0687025
0.0684887
0.114848
0.121391
0.127874
0.134144
0.140028
0.14535
0.149939
0.153641
0.156333
0.157937
0.15842
0.1578
0.156145
0.153563
0.150194
0.146191
0.141714
0.136916
0.131931
0.126846
0.121278
0.115864
0.111286
0.107
0.102996
0.0992821
0.0958668
0.0927518
0.0899357
0.0874144
0.0851811
0.0832267
0.0815405
0.0801092
0.078919
0.0779548
0.0772019
0.0766445
0.0762658
0.0760497
0.0759655
0.123982
0.131156
0.138276
0.145172
0.151654
0.157524
0.162593
0.16669
0.169681
0.171479
0.172051
0.171421
0.169666
0.166908
0.1633
0.159011
0.154217
0.149082
0.143752
0.138326
0.132436
0.126715
0.121822
0.117237
0.112954
0.108986
0.105341
0.102021
0.0990275
0.0963555
0.0939986
0.0919479
0.0901923
0.0887194
0.0875159
0.0865685
0.085863
0.0853846
0.0851172
0.0850461
0.0851393
0.134575
0.142373
0.150124
0.15764
0.164714
0.17113
0.176679
0.181177
0.184477
0.186488
0.187175
0.186568
0.184752
0.181861
0.178062
0.173537
0.168473
0.163046
0.157412
0.151682
0.145513
0.139519
0.134329
0.129456
0.124902
0.120683
0.116808
0.113284
0.110112
0.107288
0.104808
0.102662
0.100842
0.0993359
0.098133
0.0972216
0.0965888
0.096221
0.0961044
0.0962253
0.0965519
0.147231
0.155608
0.163941
0.17203
0.179648
0.186565
0.192558
0.197429
0.201026
0.20325
0.204071
0.203521
0.201694
0.198732
0.194813
0.190128
0.184871
0.179229
0.173364
0.167396
0.161019
0.154817
0.14937
0.144242
0.139444
0.134994
0.130907
0.127192
0.123851
0.120885
0.11829
0.11606
0.114187
0.112665
0.111483
0.110633
0.110104
0.109885
0.109963
0.110328
0.110949
0.162842
0.17169
0.180493
0.189036
0.197082
0.20439
0.210729
0.215895
0.219733
0.222146
0.223104
0.222645
0.220867
0.21792
0.213983
0.209252
0.203925
0.198189
0.192212
0.186121
0.179655
0.173351
0.167729
0.162418
0.157435
0.152807
0.148552
0.144683
0.141206
0.138126
0.135442
0.133152
0.131253
0.12974
0.128609
0.127852
0.127462
0.127431
0.12775
0.128409
0.129382
0.182757
0.191862
0.20091
0.209676
0.217921
0.225404
0.231895
0.237196
0.241156
0.243685
0.244759
0.24442
0.242767
0.239948
0.23614
0.231533
0.22632
0.220682
0.214784
0.208757
0.202397
0.196171
0.190526
0.185166
0.180121
0.175421
0.171092
0.167151
0.16361
0.160479
0.157761
0.155461
0.153581
0.152119
0.151075
0.150449
0.150234
0.150426
0.151022
0.152012
0.153376
0.209081
0.218034
0.226905
0.235468
0.243497
0.250764
0.257059
0.262203
0.266063
0.268564
0.269691
0.269489
0.268052
0.265518
0.262048
0.257816
0.252996
0.247755
0.242242
0.236583
0.230642
0.224793
0.219394
0.214237
0.209358
0.204795
0.200579
0.196732
0.193274
0.190219
0.187579
0.185362
0.183578
0.182231
0.181326
0.180867
0.180852
0.181284
0.182158
0.183469
0.185205
0.245233
0.253257
0.261164
0.268749
0.275818
0.282184
0.287678
0.292161
0.295535
0.297748
0.298797
0.298727
0.297619
0.295584
0.292755
0.28927
0.285271
0.28089
0.276251
0.27146
0.266448
0.261481
0.256803
0.252299
0.248013
0.243982
0.240241
0.236816
0.23373
0.231005
0.228657
0.226703
0.225156
0.224028
0.223328
0.223064
0.223242
0.223865
0.224932
0.226438
0.228381
0.297051
0.302618
0.308063
0.313232
0.318004
0.322265
0.325917
0.328886
0.331121
0.332602
0.333335
0.333355
0.332713
0.331479
0.329732
0.327557
0.325037
0.322252
0.319278
0.316181
0.312949
0.309718
0.306607
0.303585
0.300685
0.297939
0.295373
0.293012
0.290877
0.288989
0.287366
0.286026
0.284982
0.28425
0.283842
0.283767
0.284034
0.284645
0.2856
0.286893
0.288536
0.17621
0.056279
0.0366665
0.0320534
0.0304165
0.0296622
0.0291963
0.0288359
0.0285013
0.0281525
0.0277558
0.0272719
0.0266521
0.0258504
0.0248491
0.0236814
0.022447
0.190184
0.0638571
0.0393451
0.0330101
0.0306118
0.0294623
0.0287669
0.0282618
0.0278296
0.0274131
0.0269678
0.0264478
0.0258017
0.0249881
0.0240033
0.0229189
0.0219241
0.203212
0.0740772
0.0430528
0.0344907
0.0310981
0.0294211
0.0284162
0.0277167
0.0271564
0.0266554
0.0261566
0.0256023
0.0249346
0.0241134
0.0231433
0.0221165
0.0213133
0.216487
0.0870929
0.0480547
0.0366117
0.0319557
0.0296042
0.0281987
0.0272462
0.0265235
0.0259171
0.0253539
0.0247624
0.0240742
0.0232498
0.0222989
0.0213037
0.0204632
0.22974
0.103176
0.054676
0.0394434
0.0331935
0.0300093
0.0281108
0.0268507
0.0259352
0.0252104
0.0245756
0.0239437
0.023236
0.0224178
0.0215144
0.0206259
0.0199686
0.24269
0.123089
0.0631319
0.0429294
0.034728
0.0305772
0.0281195
0.0265203
0.0253987
0.0245519
0.0238469
0.0231739
0.0224503
0.0216497
0.020813
0.0200379
0.0195471
0.254729
0.146453
0.0731379
0.0467381
0.0363472
0.0311827
0.0281583
0.0262299
0.0249154
0.0239588
0.0231939
0.0224884
0.0217615
0.0210015
0.0202496
0.0195899
0.0191717
0.264941
0.171046
0.083297
0.0500975
0.037729
0.0316646
0.0281515
0.0259521
0.0244856
0.0234511
0.0226494
0.0219299
0.0212185
0.0205156
0.0198575
0.0193055
0.0189624
0.272324
0.192329
0.0910164
0.0522958
0.0386033
0.0318948
0.0280566
0.0256827
0.0241334
0.0230689
0.0222612
0.0215453
0.0208627
0.0202225
0.0196507
0.0191923
0.0189054
0.276351
0.204666
0.0935854
0.0530581
0.0388585
0.0318629
0.0278934
0.0254717
0.0239253
0.0228807
0.0220802
0.0213715
0.0207159
0.0201287
0.0196284
0.0192544
0.019052
0.277228
0.203486
0.0899076
0.0525099
0.0386299
0.0316972
0.0277874
0.0254401
0.0239577
0.0229406
0.02213
0.0214129
0.02077
0.0202197
0.0197796
0.0194776
0.0193258
0.275815
0.188064
0.082514
0.0515055
0.0383726
0.0317063
0.0279654
0.0257261
0.0242905
0.023238
0.0223723
0.0216237
0.0209849
0.0204666
0.0200848
0.0198534
0.0197577
0.273429
0.16549
0.0792239
0.0511741
0.0386961
0.0322397
0.0285916
0.026362
0.0248423
0.0236848
0.022738
0.0219528
0.0213207
0.0208405
0.0205184
0.0203506
0.0203323
0.271123
0.153425
0.0806799
0.0527687
0.0400146
0.033382
0.0295719
0.0271507
0.0254496
0.0241595
0.0231457
0.0223505
0.0217499
0.0213255
0.021069
0.0209637
0.0209978
0.269554
0.154799
0.0847239
0.0555566
0.0418707
0.0346739
0.0304904
0.0278087
0.0259445
0.024578
0.0235555
0.0227968
0.0222578
0.0219075
0.021719
0.0216706
0.021739
0.268213
0.155292
0.0879881
0.0577869
0.0431783
0.0354617
0.0310007
0.0281853
0.0262814
0.0249382
0.0239772
0.0232998
0.0228467
0.0225764
0.0224524
0.0224484
0.0225342
0.26728
0.155352
0.0880285
0.0576576
0.0430109
0.035356
0.0309895
0.0282855
0.0265018
0.0252822
0.0244431
0.0238791
0.0235256
0.0233335
0.0232629
0.0232865
0.0233753
0.266895
0.152048
0.0841998
0.0549745
0.041434
0.0345248
0.0306314
0.0282457
0.0267
0.025673
0.0249929
0.0245583
0.0243023
0.0241768
0.0241432
0.0241785
0.024251
0.266783
0.142769
0.0770955
0.0507984
0.0392336
0.03345
0.0302139
0.0282481
0.026997
0.0261881
0.0256716
0.0253558
0.0251795
0.0250997
0.025083
0.0251116
0.0251569
0.266383
0.128775
0.0685231
0.0464413
0.0371492
0.0325554
0.0299905
0.0284478
0.027485
0.026879
0.0265035
0.0262798
0.0261559
0.0260967
0.0260752
0.026078
0.0260878
0.265208
0.113463
0.0606953
0.0429191
0.0356402
0.0320758
0.0300981
0.0289251
0.0282076
0.027765
0.0274931
0.0273274
0.0272264
0.0271638
0.0271187
0.0270843
0.0270437
0.263166
0.099726
0.0550278
0.0405702
0.0348614
0.0320994
0.0305862
0.029704
0.0291719
0.0288425
0.0286317
0.0284891
0.0283832
0.0282952
0.0282104
0.0281269
0.028026
0.260611
0.0907797
0.0511343
0.0392872
0.0347564
0.0325984
0.0314365
0.0307676
0.0303606
0.0300959
0.029907
0.0297562
0.0296209
0.0294884
0.0293484
0.0292002
0.0290344
0.258153
0.0853832
0.0488762
0.0388799
0.0352192
0.0335166
0.032614
0.0320905
0.0317552
0.0315127
0.0313125
0.0311276
0.0309428
0.0307501
0.0305423
0.0303228
0.030083
0.256404
0.0820801
0.0478116
0.0391799
0.0361743
0.0348143
0.0340938
0.0336563
0.0333462
0.0330894
0.0328493
0.0326077
0.0323553
0.0320877
0.0318008
0.0315025
0.0311749
0.255747
0.0796832
0.0475883
0.040067
0.0375763
0.0364695
0.0358642
0.035461
0.0351356
0.0348328
0.0345273
0.0342082
0.0338705
0.0335124
0.033132
0.0327344
0.0323079
0.256297
0.0779314
0.0480154
0.0414788
0.0394056
0.0384766
0.0379276
0.0375126
0.0371359
0.0367583
0.0363639
0.0359472
0.0355063
0.0350416
0.0345525
0.0340454
0.0335236
0.257979
0.0768862
0.0490449
0.0434064
0.0416671
0.0408466
0.0402995
0.0398303
0.0393686
0.0388885
0.0383814
0.0378459
0.0372827
0.0366941
0.0360811
0.0354571
0.0348171
0.260597
0.0764148
0.050689
0.0458746
0.0443868
0.043607
0.0430089
0.0424442
0.041864
0.0412528
0.0406074
0.0399295
0.039222
0.0384884
0.037733
0.0369685
0.0361849
0.263902
0.0764901
0.0530073
0.0489364
0.0476098
0.0468001
0.046097
0.0453941
0.0446597
0.0438859
0.0430737
0.0422268
0.04135
0.0404487
0.0395297
0.0386026
0.0376781
0.267643
0.0771739
0.0561056
0.0526695
0.0514003
0.0504836
0.0496174
0.0487293
0.0478001
0.0468275
0.045815
0.0447683
0.0436939
0.0425995
0.0414935
0.0403901
0.0392969
0.271581
0.0786468
0.0601322
0.0571767
0.0558429
0.0547326
0.0536367
0.0525082
0.0513364
0.050122
0.0488701
0.0475877
0.0462832
0.0449657
0.0436453
0.0423367
0.0410352
0.27551
0.0812149
0.0652813
0.0625924
0.0610481
0.0596417
0.0582359
0.0567998
0.0553269
0.053819
0.0522817
0.0507226
0.0491506
0.0475757
0.0460086
0.0444585
0.0429369
0.279267
0.0853031
0.0717989
0.0690924
0.0671597
0.0653299
0.0635129
0.0616847
0.0598386
0.0579751
0.0560981
0.0542143
0.0523316
0.050459
0.048606
0.0467825
0.0450014
0.282732
0.091487
0.0800016
0.0769112
0.0743658
0.0719472
0.0695871
0.0672586
0.0649496
0.0626552
0.0603742
0.0581089
0.0558633
0.0536438
0.051458
0.0493173
0.047223
0.285834
0.100521
0.0903156
0.0863702
0.0829145
0.0796839
0.0766052
0.0736371
0.0707537
0.0679366
0.0651732
0.0624565
0.059784
0.0571577
0.0545838
0.0520698
0.0496278
0.288544
0.113427
0.103344
0.097917
0.0931369
0.0887847
0.0847516
0.0809637
0.0773641
0.0739085
0.0705637
0.0673081
0.0641296
0.0610247
0.0579965
0.0550525
0.0522069
0.290861
0.131658
0.119972
0.112185
0.10548
0.0995691
0.094263
0.0894169
0.0849154
0.0806699
0.0766162
0.0727121
0.0689321
0.0652646
0.0617083
0.0582703
0.0549597
0.292979
0.157156
0.141554
0.130086
0.120561
0.112467
0.105448
0.0992181
0.0935621
0.0883256
0.0834001
0.0787131
0.0742193
0.069894
0.0657283
0.0617244
0.0578928
0.295183
0.192991
0.170132
0.152982
0.139251
0.128076
0.118713
0.110635
0.103476
0.0969846
0.0909832
0.0853532
0.0800169
0.0749283
0.0700647
0.06542
0.0609996
0.022538
0.0246468
0.0284175
0.0368274
0.0584284
0.115601
0.26865
0.721316
1.68158
1.29446
0.761614
0.457578
0.342808
0.253109
0.15272
0.0762591
0.0379732
0.024456
0.0211227
0.0207741
0.0222015
0.0245229
0.0291419
0.0401766
0.0687601
0.140723
0.316923
0.820258
1.90559
1.4152
0.864892
0.536338
0.424688
0.324123
0.198454
0.0980976
0.0460638
0.0269971
0.0220187
0.0213051
0.022009
0.0246587
0.0305366
0.045513
0.0841681
0.175558
0.37727
0.928129
2.15637
1.63549
1.00249
0.639386
0.526138
0.412674
0.25676
0.127284
0.0573861
0.0306154
0.0231974
0.0219059
0.0219922
0.0251525
0.0330025
0.0540235
0.107142
0.223522
0.453206
1.04287
2.42955
1.89826
1.17959
0.777197
0.654974
0.522988
0.329504
0.165525
0.073063
0.0357749
0.024783
0.0225953
0.0221941
0.0261997
0.0372681
0.0675707
0.140992
0.288233
0.549059
1.16184
2.69924
2.30757
1.40792
0.955774
0.819844
0.659981
0.419132
0.214738
0.0945752
0.0431731
0.0269871
0.0234121
0.0226985
0.0281959
0.0446051
0.0889252
0.189654
0.373082
0.669942
1.29184
2.92357
2.76319
1.71186
1.17775
1.02116
0.83008
0.529425
0.277114
0.123821
0.0538437
0.0301618
0.0244271
0.0236833
0.0319127
0.0571201
0.121952
0.257417
0.481667
0.820777
1.43841
3.08661
3.20522
2.14572
1.43945
1.2921
1.0469
0.667011
0.355478
0.163195
0.0693058
0.0348927
0.0257745
0.0255238
0.0387678
0.0781339
0.171567
0.348645
0.620606
1.00723
1.61947
3.21183
3.57272
2.6015
1.7705
1.64874
1.33005
0.840689
0.454228
0.215681
0.0917514
0.0421477
0.0277048
0.0289915
0.0512642
0.112543
0.243433
0.46861
0.801449
1.24959
1.8763
3.35185
3.78585
3.0427
2.15961
2.08961
1.69626
1.06105
0.580399
0.285125
0.124281
0.0535166
0.0306855
0.0356517
0.0736441
0.166918
0.344103
0.626382
1.03793
1.57162
2.17026
3.49912
3.83608
3.40864
2.61524
2.60754
2.14816
1.35091
0.743091
0.376934
0.171181
0.0715877
0.0355947
0.0486231
0.112579
0.249136
0.482245
0.836931
1.35068
1.97904
2.59451
3.73864
3.80588
3.60301
3.31544
3.20256
2.67544
1.72446
0.955408
0.499136
0.238285
0.100491
0.0440848
0.0738681
0.177651
0.369313
0.672786
1.1301
1.79759
2.62968
3.40078
4.154
3.73456
3.69069
3.81635
3.84098
3.26279
2.1852
1.24219
0.662735
0.333519
0.146608
0.0592545
0.121905
0.282154
0.543542
0.938494
1.54119
2.42931
3.54077
4.54616
4.63234
3.71355
3.7255
4.09673
4.37757
3.89334
2.71924
1.6172
0.885745
0.467811
0.219482
0.0868608
0.2102
0.446777
0.795382
1.31509
2.10346
3.23761
4.64073
5.5298
5.10245
3.78018
3.75092
4.24281
4.69543
4.48864
3.31322
2.07791
1.19136
0.659634
0.333015
0.137261
0.368364
0.703544
1.16212
1.82216
2.77845
4.11889
5.66601
6.1488
5.53774
4.03383
3.85586
4.33216
4.8342
4.882
3.94487
2.605
1.58901
0.935339
0.509515
0.22847
0.648311
1.10366
1.65759
2.38446
3.44517
4.9073
6.16979
6.35245
5.86718
4.44701
4.17381
4.50063
4.93321
5.0243
4.47272
3.1512
2.04776
1.32236
0.785137
0.391041
1.14808
1.66571
2.16799
2.87787
4.01267
5.32881
6.04862
6.29694
6.09911