/*--------------------------------*- C++ -*----------------------------------*\
  =========                 |
  \\      /  F ield         | OpenFOAM: The Open Source CFD Toolbox
   \\    /   O peration     | Website:  https://openfoam.org
    \\  /    A nd           | Version:  6
     \\/     M anipulation  |
\*---------------------------------------------------------------------------*/
FoamFile
{
    version     2.0;
    format      ascii;
    class       volScalarField;
    location    "3.79";
    object      rho;
}
// * * * * * * * * * * * * * * * * * * * * * * * * * * * * * * * * * * * * * //

dimensions      [1 -3 0 0 0 0 0];

internalField   nonuniform List<scalar> 
10000
(
1.4
1.40001
1.4
1.40001
1.4
1.40001
1.40001
1.4
1.40001
1.4
1.40001
1.4
1.40001
1.40001
1.40001
1.4
1.40001
1.4
1.40001
1.4
1.40001
1.40001
1.4
1.40001
1.4
1.40001
1.4
1.40001
1.40001
1.40001
1.4
1.40001
1.40001
1.4
1.40001
1.40001
1.40001
1.40001
1.40001
1.40001
1.40001
1.40001
1.40001
1.40001
1.40001
1.40001
1.4
1.39999
1.39998
1.39997
1.39995
1.39993
1.39991
1.39989
1.39987
1.39987
1.39988
1.3999
1.39994
1.4
1.40008
1.40016
1.40026
1.40036
1.40045
1.40054
1.40061
1.40066
1.40069
1.4007
1.4007
1.40067
1.40063
1.40058
1.40052
1.40046
1.40039
1.40033
1.40027
1.40021
1.40017
1.40012
1.40009
1.40007
1.40005
1.40003
1.40002
1.40001
1.40001
1.40001
1.4
1.4
1.4
1.4
1.4
1.4
1.4
1.4
1.4
1.4
1.4
1.40001
1.40001
1.40001
1.40001
1.4
1.40001
1.4
1.40001
1.40001
1.40001
1.40001
1.40001
1.4
1.40001
1.4
1.40001
1.40001
1.40001
1.4
1.40001
1.4
1.40001
1.4
1.40001
1.4
1.40001
1.40001
1.4
1.40001
1.4
1.4
1.40001
1.40001
1.4
1.40001
1.40001
1.40001
1.40001
1.40001
1.40001
1.40001
1.40001
1.40001
1.40001
1.40001
1.4
1.39999
1.39998
1.39996
1.39994
1.39992
1.3999
1.39988
1.39987
1.39988
1.39991
1.39997
1.40005
1.40016
1.40028
1.40042
1.40057
1.40072
1.40085
1.40096
1.40105
1.40111
1.40114
1.40113
1.4011
1.40104
1.40096
1.40087
1.40077
1.40066
1.40056
1.40046
1.40037
1.4003
1.40023
1.40017
1.40012
1.40009
1.40006
1.40004
1.40002
1.40001
1.40001
1.40001
1.4
1.4
1.4
1.4
1.4
1.4
1.4
1.4
1.4
1.4
1.4
1.4
1.4
1.40001
1.40001
1.4
1.40001
1.4
1.40001
1.4
1.40001
1.40001
1.40001
1.40001
1.4
1.40001
1.4
1.40001
1.40001
1.4
1.40001
1.40001
1.40001
1.4
1.40001
1.40001
1.4
1.40001
1.40001
1.4
1.40001
1.40001
1.4
1.40001
1.40001
1.40001
1.40001
1.40001
1.40001
1.40001
1.40001
1.40001
1.40001
1.40001
1.40001
1.40001
1.4
1.39999
1.39998
1.39996
1.39993
1.39991
1.39989
1.39989
1.3999
1.39994
1.40001
1.40013
1.40028
1.40046
1.40066
1.40089
1.40111
1.40132
1.40151
1.40167
1.40177
1.40184
1.40184
1.40181
1.40172
1.40161
1.40146
1.4013
1.40114
1.40097
1.40081
1.40066
1.40053
1.40041
1.40031
1.40023
1.40016
1.40011
1.40007
1.40005
1.40003
1.40002
1.40001
1.4
1.4
1.4
1.4
1.4
1.4
1.4
1.4
1.4
1.4
1.4
1.4
1.4
1.40001
1.4
1.40001
1.4
1.40001
1.4
1.40001
1.40001
1.4
1.40001
1.4
1.40001
1.40001
1.4
1.40001
1.4
1.40001
1.4
1.40001
1.4
1.40001
1.4
1.40001
1.4
1.40001
1.4
1.40001
1.40001
1.40001
1.4
1.40001
1.4
1.40001
1.40001
1.40001
1.40001
1.40001
1.40001
1.40001
1.40001
1.40001
1.40002
1.40002
1.40001
1.40001
1.39999
1.39998
1.39995
1.39993
1.39991
1.39991
1.39993
1.39998
1.40008
1.40023
1.40043
1.40069
1.40099
1.40132
1.40166
1.402
1.40231
1.40257
1.40278
1.40291
1.40297
1.40295
1.40286
1.4027
1.40249
1.40224
1.40197
1.4017
1.40143
1.40118
1.40095
1.40075
1.40058
1.40043
1.40032
1.40022
1.40015
1.4001
1.40006
1.40003
1.40002
1.40001
1.4
1.4
1.4
1.4
1.4
1.4
1.4
1.4
1.4
1.4
1.4
1.4
1.4
1.4
1.4
1.40001
1.4
1.40001
1.40001
1.4
1.40001
1.4
1.40001
1.40001
1.4
1.40001
1.40001
1.40001
1.4
1.40001
1.4
1.40001
1.40001
1.40001
1.4
1.40001
1.4
1.40001
1.40001
1.4
1.40001
1.40001
1.4
1.40001
1.40001
1.40001
1.40001
1.40001
1.40001
1.40001
1.40001
1.40001
1.40002
1.40002
1.40002
1.40002
1.40002
1.40001
1.4
1.39998
1.39996
1.39994
1.39994
1.39996
1.40003
1.40015
1.40035
1.40062
1.40097
1.40139
1.40187
1.40238
1.4029
1.40339
1.40384
1.40421
1.40449
1.40465
1.4047
1.40463
1.40445
1.40417
1.40382
1.40342
1.40299
1.40255
1.40213
1.40174
1.40139
1.40108
1.40082
1.40061
1.40044
1.4003
1.4002
1.40013
1.40008
1.40004
1.40002
1.40001
1.4
1.4
1.4
1.4
1.4
1.4
1.4
1.4
1.4
1.4
1.4
1.4
1.4
1.4
1.4
1.40001
1.4
1.40001
1.40001
1.4
1.40001
1.4
1.40001
1.40001
1.40001
1.40001
1.40001
1.40001
1.4
1.40001
1.4
1.40001
1.4
1.40001
1.4
1.40001
1.40001
1.40001
1.4
1.40001
1.40001
1.4
1.4
1.40001
1.40001
1.40001
1.40001
1.40001
1.40001
1.40001
1.40001
1.40002
1.40002
1.40003
1.40003
1.40003
1.40003
1.40002
1.40001
1.39999
1.39998
1.39998
1.40001
1.40009
1.40024
1.40048
1.40083
1.40129
1.40186
1.40252
1.40325
1.40402
1.40478
1.4055
1.40613
1.40664
1.407
1.4072
1.40723
1.40709
1.40679
1.40635
1.4058
1.40517
1.4045
1.40382
1.40317
1.40257
1.40203
1.40157
1.40118
1.40087
1.40062
1.40042
1.40028
1.40017
1.4001
1.40005
1.40002
1.4
1.4
1.39999
1.39999
1.39999
1.4
1.4
1.4
1.4
1.4
1.4
1.4
1.4
1.4
1.4
1.4
1.4
1.40001
1.4
1.40001
1.4
1.40001
1.40001
1.40001
1.40001
1.4
1.40001
1.40001
1.40001
1.40001
1.40001
1.40001
1.4
1.40001
1.4
1.40001
1.40001
1.4
1.40001
1.4
1.4
1.40001
1.4
1.4
1.40001
1.40001
1.40001
1.40001
1.40001
1.40001
1.40001
1.40002
1.40002
1.40003
1.40004
1.40004
1.40005
1.40005
1.40004
1.40003
1.40002
1.40003
1.40006
1.40015
1.40032
1.40061
1.40103
1.40161
1.40236
1.40325
1.40426
1.40534
1.40646
1.40754
1.40854
1.4094
1.41009
1.41056
1.41081
1.41081
1.41057
1.41011
1.40946
1.40864
1.4077
1.4067
1.40569
1.40471
1.4038
1.403
1.4023
1.40172
1.40125
1.40088
1.4006
1.40039
1.40024
1.40013
1.40007
1.40002
1.4
1.39999
1.39999
1.39999
1.39999
1.39999
1.4
1.4
1.4
1.4
1.4
1.4
1.4
1.4
1.4
1.4
1.4
1.40001
1.4
1.40001
1.4
1.40001
1.40001
1.4
1.40001
1.40001
1.4
1.40001
1.4
1.40001
1.4
1.40001
1.4
1.40001
1.4
1.40001
1.4
1.40001
1.4
1.40001
1.4
1.40001
1.4
1.40001
1.4
1.40001
1.40001
1.40001
1.40001
1.40001
1.40002
1.40002
1.40003
1.40004
1.40005
1.40006
1.40007
1.40007
1.40007
1.40006
1.40007
1.40011
1.40021
1.4004
1.40072
1.40122
1.40192
1.40285
1.404
1.40533
1.40681
1.40836
1.40992
1.4114
1.41274
1.41388
1.41477
1.41537
1.41566
1.41563
1.41529
1.41464
1.41372
1.41258
1.41125
1.40982
1.40836
1.40693
1.4056
1.4044
1.40337
1.40251
1.40182
1.40127
1.40086
1.40055
1.40034
1.40019
1.40009
1.40003
1.4
1.39998
1.39998
1.39998
1.39998
1.39999
1.39999
1.39999
1.4
1.4
1.4
1.4
1.4
1.4
1.4
1.4
1.4
1.40001
1.4
1.40001
1.4
1.40001
1.40001
1.40001
1.40001
1.40001
1.4
1.40001
1.4
1.40001
1.40001
1.4
1.40001
1.40001
1.40001
1.40001
1.4
1.40001
1.4
1.40001
1.4
1.4
1.40001
1.40001
1.40001
1.40001
1.40001
1.40001
1.40001
1.40001
1.40002
1.40003
1.40004
1.40005
1.40007
1.40008
1.40009
1.4001
1.40011
1.40012
1.40016
1.40026
1.40046
1.40081
1.40137
1.40219
1.4033
1.40471
1.4064
1.40832
1.41039
1.41252
1.4146
1.41655
1.41827
1.4197
1.42079
1.42151
1.42184
1.42178
1.42132
1.42049
1.4193
1.41779
1.41602
1.41408
1.41205
1.41005
1.40815
1.40643
1.40493
1.40367
1.40265
1.40185
1.40125
1.4008
1.40048
1.40027
1.40013
1.40004
1.4
1.39997
1.39996
1.39997
1.39997
1.39998
1.39998
1.39999
1.39999
1.4
1.4
1.4
1.4
1.4
1.4
1.4
1.4
1.4
1.4
1.40001
1.40001
1.40001
1.40001
1.40001
1.40001
1.40001
1.4
1.40001
1.4
1.40001
1.4
1.40001
1.4
1.40001
1.4
1.40001
1.4
1.40001
1.4
1.40001
1.4
1.40001
1.40001
1.40001
1.40001
1.40001
1.40001
1.40001
1.40001
1.40002
1.40003
1.40004
1.40005
1.40007
1.40009
1.40011
1.40013
1.40015
1.40017
1.40021
1.40031
1.40051
1.40087
1.40146
1.40237
1.40365
1.40532
1.40739
1.40979
1.41243
1.41521
1.41798
1.42062
1.42302
1.42509
1.42677
1.42802
1.42883
1.42918
1.42909
1.42855
1.42757
1.42615
1.42431
1.42211
1.41963
1.41696
1.41426
1.41165
1.40925
1.40713
1.40533
1.40386
1.4027
1.40182
1.40117
1.40071
1.4004
1.40019
1.40007
1.4
1.39996
1.39995
1.39995
1.39996
1.39997
1.39998
1.39998
1.39999
1.4
1.4
1.4
1.4
1.4
1.4
1.4
1.4
1.4
1.4
1.40001
1.4
1.40001
1.4
1.40001
1.4
1.40001
1.4
1.40001
1.40001
1.4
1.40001
1.4
1.40001
1.4
1.40001
1.4
1.40001
1.4
1.4
1.40001
1.40001
1.4
1.40001
1.40001
1.40001
1.40001
1.40001
1.40001
1.40002
1.40002
1.40004
1.40005
1.40007
1.4001
1.40012
1.40015
1.40018
1.40021
1.40026
1.40035
1.40054
1.4009
1.4015
1.40246
1.40386
1.40577
1.40819
1.41109
1.41434
1.41782
1.42135
1.42475
1.42788
1.43063
1.43292
1.43471
1.436
1.4368
1.43713
1.43701
1.43644
1.43541
1.4339
1.43189
1.42938
1.42643
1.42316
1.41972
1.4163
1.41306
1.41015
1.40764
1.40557
1.40392
1.40265
1.40172
1.40105
1.4006
1.4003
1.40012
1.40001
1.39996
1.39994
1.39994
1.39994
1.39996
1.39997
1.39998
1.39999
1.39999
1.4
1.4
1.4
1.4
1.4
1.4
1.4
1.4
1.4
1.40001
1.4
1.40001
1.4
1.40001
1.4
1.40001
1.4
1.40001
1.4
1.40001
1.4
1.40001
1.4
1.40001
1.40001
1.4
1.40001
1.4
1.4
1.40001
1.4
1.4
1.40001
1.40001
1.40001
1.40001
1.40001
1.40001
1.40002
1.40003
1.40005
1.40007
1.40009
1.40013
1.40016
1.4002
1.40024
1.4003
1.40039
1.40057
1.4009
1.40148
1.40245
1.40393
1.40601
1.40875
1.41211
1.41598
1.42018
1.42449
1.42869
1.43256
1.43596
1.43879
1.44103
1.44268
1.44379
1.44444
1.44467
1.44452
1.444
1.4431
1.44174
1.43984
1.43732
1.43418
1.43048
1.4264
1.42216
1.41801
1.41416
1.41077
1.40792
1.40562
1.40384
1.40251
1.40156
1.4009
1.40047
1.4002
1.40004
1.39996
1.39992
1.39992
1.39993
1.39994
1.39995
1.39997
1.39998
1.39999
1.39999
1.4
1.4
1.4
1.4
1.4
1.4
1.4
1.4
1.40001
1.4
1.40001
1.4
1.40001
1.4
1.40001
1.4
1.40001
1.40001
1.4
1.40001
1.4
1.40001
1.4
1.40001
1.4
1.40001
1.40001
1.40001
1.4
1.40001
1.4
1.40001
1.40001
1.40001
1.40001
1.40001
1.40002
1.40003
1.40004
1.40006
1.40009
1.40012
1.40016
1.40021
1.40026
1.40032
1.40042
1.40058
1.40088
1.40142
1.40235
1.40383
1.40601
1.40898
1.41275
1.41721
1.42213
1.42723
1.43222
1.4368
1.44077
1.44401
1.44648
1.44824
1.44938
1.45002
1.4503
1.45032
1.45014
1.44978
1.44922
1.44834
1.44698
1.44494
1.44209
1.43841
1.43401
1.42913
1.42411
1.41927
1.41486
1.41106
1.40794
1.40548
1.40363
1.40228
1.40135
1.40073
1.40033
1.4001
1.39997
1.39992
1.3999
1.39991
1.39992
1.39994
1.39996
1.39997
1.39998
1.39999
1.4
1.4
1.4
1.4
1.4
1.4
1.4
1.4
1.40001
1.4
1.40001
1.4
1.40001
1.4
1.40001
1.4
1.40001
1.4
1.40001
1.40001
1.4
1.40001
1.4
1.40001
1.40001
1.4
1.40001
1.4
1.40001
1.40001
1.4
1.40001
1.40001
1.40001
1.40001
1.40001
1.40002
1.40003
1.40005
1.40008
1.40011
1.40016
1.40021
1.40027
1.40034
1.40043
1.40058
1.40084
1.40133
1.40218
1.40359
1.40577
1.40887
1.41295
1.41791
1.42352
1.4294
1.43516
1.4404
1.44484
1.44831
1.45077
1.4523
1.45306
1.45325
1.45309
1.45278
1.45246
1.45222
1.45212
1.45211
1.45206
1.45173
1.4508
1.44895
1.44598
1.44186
1.4368
1.43117
1.42543
1.41996
1.41509
1.41099
1.40769
1.40516
1.4033
1.40199
1.40111
1.40054
1.4002
1.40001
1.39992
1.39989
1.39989
1.3999
1.39992
1.39994
1.39996
1.39997
1.39998
1.39999
1.39999
1.4
1.4
1.4
1.4
1.4
1.4
1.4
1.4
1.40001
1.40001
1.4
1.40001
1.40001
1.4
1.40001
1.4
1.4
1.40001
1.4
1.40001
1.40001
1.4
1.40001
1.4
1.4
1.40001
1.4
1.4
1.40001
1.40001
1.40001
1.40001
1.40001
1.40002
1.40003
1.40004
1.40006
1.4001
1.40014
1.4002
1.40026
1.40034
1.40044
1.40057
1.4008
1.40122
1.40196
1.40325
1.40532
1.40841
1.41266
1.41802
1.42424
1.43087
1.43738
1.44325
1.44806
1.4516
1.45379
1.45476
1.45474
1.454
1.45286
1.45161
1.45052
1.44975
1.44943
1.44963
1.45031
1.45136
1.45249
1.45327
1.45321
1.45183
1.44887
1.44439
1.43872
1.4324
1.42601
1.42005
1.41484
1.41055
1.40719
1.40468
1.40288
1.40165
1.40085
1.40036
1.40008
1.39994
1.39988
1.39987
1.39988
1.3999
1.39993
1.39995
1.39997
1.39998
1.39999
1.39999
1.4
1.4
1.4
1.4
1.4
1.4
1.4
1.4
1.4
1.40001
1.4
1.4
1.40001
1.4
1.40001
1.4
1.40001
1.40001
1.40001
1.4
1.40001
1.4
1.40001
1.4
1.40001
1.4
1.40001
1.4
1.40001
1.40001
1.40001
1.40001
1.40001
1.40002
1.40003
1.40005
1.40008
1.40012
1.40018
1.40024
1.40032
1.40042
1.40056
1.40076
1.4011
1.40173
1.40285
1.40472
1.40766
1.4119
1.41749
1.42421
1.43153
1.43879
1.44527
1.45043
1.45392
1.45567
1.45581
1.45465
1.45258
1.45001
1.44733
1.44487
1.44291
1.44164
1.44121
1.44168
1.44307
1.44528
1.44807
1.45098
1.45335
1.45444
1.45367
1.45078
1.44594
1.43969
1.43275
1.42584
1.41952
1.41413
1.4098
1.40649
1.40408
1.4024
1.4013
1.4006
1.4002
1.39998
1.39988
1.39985
1.39986
1.39988
1.39991
1.39994
1.39996
1.39997
1.39998
1.39999
1.39999
1.4
1.4
1.4
1.4
1.4
1.4
1.4
1.4
1.40001
1.4
1.40001
1.40001
1.4
1.40001
1.4
1.40001
1.4
1.40001
1.4
1.40001
1.40001
1.4
1.4
1.40001
1.4
1.40001
1.40001
1.40001
1.40001
1.40001
1.40001
1.40002
1.40003
1.40004
1.40006
1.4001
1.40015
1.40022
1.4003
1.4004
1.40053
1.4007
1.40099
1.40151
1.40243
1.40405
1.40671
1.41074
1.41634
1.42338
1.43131
1.43931
1.44646
1.45199
1.45543
1.45665
1.45582
1.45333
1.44968
1.44539
1.44095
1.43676
1.43315
1.43039
1.42867
1.4281
1.42877
1.43072
1.43393
1.43827
1.44333
1.44842
1.4526
1.45492
1.45471
1.45178
1.44651
1.43968
1.4322
1.42492
1.41842
1.41302
1.40878
1.40563
1.40341
1.40191
1.40095
1.40038
1.40006
1.3999
1.39985
1.39984
1.39986
1.39989
1.39992
1.39995
1.39997
1.39998
1.39998
1.39999
1.4
1.4
1.4
1.4
1.4
1.4
1.4
1.4
1.40001
1.40001
1.4
1.40001
1.4
1.4
1.40001
1.4
1.40001
1.40001
1.4
1.4
1.40001
1.4
1.4
1.40001
1.40001
1.4
1.40001
1.40001
1.40001
1.40001
1.40001
1.40002
1.40003
1.40005
1.40008
1.40012
1.40018
1.40026
1.40036
1.40048
1.40065
1.40089
1.4013
1.40204
1.40337
1.40565
1.4093
1.41466
1.42177
1.43015
1.43887
1.44677
1.45281
1.45632
1.45708
1.45528
1.4514
1.44608
1.43998
1.43367
1.42763
1.42224
1.41776
1.41442
1.41234
1.41164
1.41238
1.41466
1.41854
1.42401
1.43084
1.43843
1.44579
1.45171
1.45505
1.45512
1.45193
1.44611
1.4387
1.43081
1.42334
1.41685
1.4116
1.40759
1.4047
1.40272
1.40143
1.40064
1.40018
1.39995
1.39985
1.39983
1.39985
1.39987
1.39991
1.39993
1.39996
1.39997
1.39998
1.39999
1.4
1.4
1.4
1.4
1.4
1.4
1.4
1.4
1.40001
1.4
1.40001
1.40001
1.40001
1.4
1.40001
1.4
1.4
1.40001
1.4
1.40001
1.40001
1.4
1.4
1.40001
1.4
1.40001
1.40001
1.40001
1.40001
1.40001
1.40001
1.40002
1.40004
1.40006
1.4001
1.40015
1.40022
1.40031
1.40043
1.40058
1.40079
1.40112
1.4017
1.40275
1.40461
1.40774
1.4126
1.41946
1.42805
1.43742
1.44616
1.45291
1.45672
1.45724
1.45463
1.44949
1.44258
1.4347
1.42657
1.41876
1.41168
1.40558
1.40064
1.397
1.39473
1.3939
1.39459
1.39691
1.40101
1.40704
1.41496
1.4244
1.4345
1.44393
1.45121
1.45509
1.45501
1.45124
1.44475
1.43682
1.42867
1.4212
1.41491
1.40997
1.40632
1.40376
1.40206
1.401
1.40037
1.40003
1.39988
1.39983
1.39983
1.39986
1.39989
1.39992
1.39995
1.39997
1.39998
1.39999
1.39999
1.4
1.4
1.4
1.4
1.4
1.4
1.4
1.4
1.4
1.40001
1.4
1.40001
1.4
1.40001
1.4
1.4
1.40001
1.4
1.4
1.40001
1.4
1.40001
1.4
1.40001
1.40001
1.40001
1.40001
1.40001
1.40001
1.40002
1.40003
1.40004
1.40007
1.40011
1.40017
1.40026
1.40036
1.4005
1.40069
1.40096
1.40141
1.40221
1.40366
1.4062
1.41038
1.41666
1.42509
1.4349
1.44454
1.45225
1.45672
1.45734
1.45425
1.44809
1.43978
1.4303
1.4205
1.41107
1.40249
1.39502
1.38879
1.38385
1.38022
1.37792
1.37697
1.37745
1.37953
1.38343
1.38941
1.39766
1.40806
1.42003
1.43235
1.44336
1.45135
1.45512
1.45436
1.44971
1.44248
1.43413
1.42592
1.41866
1.41276
1.40827
1.40505
1.40287
1.40147
1.40063
1.40016
1.39993
1.39984
1.39982
1.39984
1.39988
1.39991
1.39994
1.39996
1.39997
1.39998
1.39999
1.4
1.4
1.4
1.4
1.4
1.4
1.4
1.40001
1.4
1.4
1.40001
1.4
1.40001
1.40001
1.40001
1.4
1.40001
1.4
1.4
1.40001
1.4
1.4
1.40001
1.40001
1.40001
1.40001
1.40001
1.40001
1.40001
1.40002
1.40003
1.40005
1.40008
1.40013
1.4002
1.4003
1.40042
1.40058
1.40081
1.40116
1.40176
1.40285
1.40482
1.40821
1.41363
1.42147
1.43134
1.44179
1.4507
1.45624
1.45746
1.45435
1.44756
1.43815
1.42728
1.416
1.40512
1.39523
1.38664
1.37947
1.37366
1.36913
1.36578
1.36355
1.36246
1.36259
1.36414
1.36743
1.37285
1.38074
1.39125
1.40408
1.41831
1.43234
1.44418
1.45206
1.45497
1.45303
1.44731
1.43937
1.43078
1.42273
1.4159
1.41054
1.4066
1.40386
1.40207
1.40097
1.40034
1.40001
1.39986
1.39982
1.39983
1.39986
1.3999
1.39993
1.39995
1.39997
1.39998
1.39999
1.4
1.4
1.4
1.4
1.4
1.4
1.4
1.40001
1.4
1.40001
1.4
1.40001
1.40001
1.4
1.40001
1.4
1.40001
1.40001
1.4
1.40001
1.4
1.40001
1.40001
1.40001
1.40001
1.40001
1.40001
1.40001
1.40001
1.40002
1.40004
1.40006
1.4001
1.40015
1.40023
1.40034
1.40048
1.40067
1.40095
1.4014
1.4022
1.40366
1.40627
1.41067
1.41751
1.42691
1.43782
1.44803
1.45508
1.45747
1.45492
1.44804
1.43795
1.42598
1.41339
1.40121
1.39013
1.38059
1.37271
1.36641
1.36147
1.35764
1.35474
1.35264
1.35134
1.35093
1.35169
1.35403
1.35846
1.36546
1.37538
1.3882
1.40332
1.41938
1.43437
1.44612
1.45298
1.45435
1.45087
1.44401
1.43553
1.42696
1.41931
1.41309
1.40838
1.40504
1.40281
1.4014
1.40057
1.40012
1.39991
1.39983
1.39983
1.39985
1.39989
1.39992
1.39995
1.39996
1.39998
1.39999
1.39999
1.4
1.4
1.4
1.4
1.4
1.4
1.4
1.4
1.4
1.40001
1.4
1.40001
1.4
1.40001
1.40001
1.4
1.40001
1.4
1.40001
1.4
1.40001
1.40001
1.40001
1.40001
1.40001
1.40001
1.40001
1.40001
1.40002
1.40004
1.40007
1.40011
1.40017
1.40026
1.40039
1.40055
1.40077
1.40111
1.4017
1.40274
1.40465
1.40803
1.41362
1.42197
1.43273
1.44401
1.45291
1.45711
1.4558
1.44945
1.43922
1.42653
1.41285
1.39944
1.38722
1.37675
1.36825
1.36166
1.35667
1.35287
1.34989
1.34747
1.34548
1.34388
1.3428
1.34254
1.34363
1.34672
1.35243
1.36126
1.37341
1.38858
1.4057
1.42295
1.43797
1.44862
1.4536
1.45292
1.44776
1.43991
1.43116
1.42288
1.41586
1.41039
1.40641
1.40368
1.40193
1.40087
1.40028
1.39998
1.39986
1.39983
1.39984
1.39988
1.39991
1.39994
1.39996
1.39997
1.39999
1.39999
1.4
1.4
1.4
1.4
1.4
1.4
1.4
1.40001
1.4
1.40001
1.40001
1.40001
1.4
1.40001
1.40001
1.4
1.4
1.40001
1.40001
1.4
1.40001
1.40001
1.40001
1.40001
1.40001
1.40001
1.40001
1.40001
1.40003
1.40005
1.40007
1.40013
1.4002
1.40029
1.40043
1.40062
1.40087
1.40129
1.40204
1.40338
1.40584
1.41013
1.41704
1.42687
1.43857
1.44931
1.45591
1.45662
1.45154
1.4418
1.42889
1.41442
1.39988
1.38647
1.37498
1.36578
1.35889
1.35396
1.35047
1.34786
1.34567
1.34366
1.3417
1.33977
1.33798
1.33663
1.3363
1.33778
1.34187
1.34923
1.36025
1.37483
1.39223
1.41086
1.4284
1.44239
1.45094
1.45338
1.45041
1.44368
1.43514
1.42648
1.41878
1.41257
1.40793
1.40468
1.40255
1.40123
1.40047
1.40008
1.3999
1.39984
1.39984
1.39987
1.3999
1.39993
1.39995
1.39997
1.39998
1.39999
1.4
1.4
1.4
1.4
1.4
1.4
1.4
1.40001
1.4
1.40001
1.4
1.40001
1.40001
1.4
1.40001
1.40001
1.4
1.40001
1.4
1.4
1.40001
1.40001
1.40001
1.40001
1.40001
1.40001
1.40001
1.40002
1.40003
1.40005
1.40008
1.40014
1.40022
1.40032
1.40047
1.40068
1.40098
1.4015
1.40244
1.40415
1.40724
1.41257
1.42086
1.432
1.44396
1.45322
1.45679
1.45386
1.44534
1.43283
1.418
1.40253
1.38789
1.37518
1.36506
1.35766
1.35268
1.34953
1.34744
1.34576
1.34405
1.34218
1.34015
1.33798
1.33571
1.33351
1.33188
1.33167
1.33389
1.33944
1.34893
1.36246
1.37953
1.3988
1.41812
1.43487
1.44672
1.45235
1.45189
1.4467
1.43875
1.42997
1.42175
1.41487
1.40958
1.4058
1.40326
1.40166
1.40072
1.4002
1.39996
1.39986
1.39985
1.39987
1.3999
1.39993
1.39995
1.39997
1.39998
1.39999
1.4
1.4
1.4
1.4
1.4
1.4
1.4
1.40001
1.4
1.40001
1.4
1.40001
1.4
1.40001
1.40001
1.4
1.4
1.40001
1.40001
1.4
1.40001
1.40001
1.40001
1.40001
1.40001
1.40001
1.40001
1.40002
1.40003
1.40006
1.40009
1.40015
1.40024
1.40034
1.40051
1.40076
1.4011
1.40173
1.40291
1.40505
1.40886
1.4153
1.42498
1.43705
1.4485
1.45548
1.45573
1.44937
1.43796
1.42333
1.40729
1.3915
1.3774
1.366
1.35773
1.35242
1.34941
1.34777
1.34654
1.34507
1.34313
1.34086
1.33854
1.33637
1.33425
1.33203
1.32982
1.32831
1.32866
1.33214
1.33969
1.35171
1.36793
1.38724
1.40767
1.42658
1.44132
1.45003
1.45223
1.44889
1.44187
1.43324
1.42468
1.41723
1.41133
1.40701
1.40405
1.40215
1.401
1.40036
1.40004
1.3999
1.39986
1.39987
1.39989
1.39992
1.39995
1.39997
1.39998
1.39999
1.4
1.4
1.4
1.4
1.4
1.4
1.4
1.4
1.40001
1.4
1.40001
1.40001
1.40001
1.4
1.40001
1.40001
1.4
1.40001
1.40001
1.4
1.40001
1.4
1.4
1.40001
1.40001
1.40001
1.40002
1.40002
1.40003
1.40007
1.40009
1.40015
1.40026
1.40037
1.40054
1.40083
1.40124
1.40198
1.40344
1.40608
1.41068
1.41829
1.42923
1.44171
1.45188
1.45612
1.45311
1.44377
1.43003
1.41391
1.39725
1.38173
1.36872
1.35908
1.35296
1.34977
1.34837
1.34743
1.34587
1.34323
1.3397
1.33597
1.33288
1.33096
1.33009
1.3295
1.32845
1.32698
1.32614
1.3276
1.33289
1.34291
1.35774
1.37653
1.39746
1.41795
1.43512
1.44667
1.45155
1.45025
1.44443
1.43621
1.42749
1.41958
1.41313
1.40829
1.40491
1.40269
1.40133
1.40054
1.40013
1.39995
1.39988
1.39988
1.3999
1.39992
1.39995
1.39997
1.39998
1.39999
1.4
1.4
1.4
1.4
1.4
1.4
1.4
1.4
1.4
1.40001
1.4
1.40001
1.40001
1.4
1.40001
1.40001
1.40001
1.4
1.40001
1.4
1.40001
1.40001
1.4
1.40001
1.40001
1.40001
1.40001
1.40002
1.40003
1.40007
1.4001
1.40015
1.40027
1.40039
1.40056
1.40089
1.40139
1.40225
1.40402
1.40723
1.41267
1.42142
1.43339
1.44572
1.45402
1.45537
1.44943
1.43762
1.42206
1.40495
1.38822
1.37346
1.36195
1.35436
1.35045
1.34904
1.34834
1.34655
1.34255
1.33633
1.32893
1.32196
1.31712
1.31564
1.31749
1.32113
1.32432
1.32562
1.32544
1.32571
1.32879
1.33643
1.34932
1.36699
1.38784
1.40933
1.42847
1.44255
1.45001
1.45084
1.44641
1.43881
1.43012
1.42187
1.41493
1.4096
1.40581
1.40327
1.40168
1.40075
1.40025
1.40001
1.39991
1.39989
1.3999
1.39992
1.39995
1.39996
1.39998
1.39999
1.4
1.4
1.4
1.4
1.4
1.4
1.4
1.40001
1.4
1.4
1.40001
1.4
1.40001
1.4
1.40001
1.4
1.40001
1.40001
1.4
1.4
1.40001
1.40001
1.4
1.40001
1.40001
1.40001
1.40001
1.40003
1.40003
1.40007
1.40011
1.40015
1.40028
1.40042
1.40057
1.40095
1.40156
1.40255
1.40464
1.40849
1.41479
1.42458
1.43725
1.44894
1.45503
1.45358
1.44513
1.43132
1.41438
1.39672
1.38035
1.36675
1.35703
1.35159
1.34965
1.34921
1.34758
1.34238
1.33262
1.31928
1.30481
1.29217
1.28423
1.2832
1.28946
1.30061
1.31229
1.32063
1.32446
1.32556
1.32722
1.33246
1.34298
1.35896
1.37912
1.40106
1.42167
1.43792
1.44778
1.45073
1.44781
1.44101
1.4325
1.42404
1.4167
1.41092
1.40673
1.40388
1.40207
1.40098
1.40038
1.40008
1.39995
1.39991
1.39991
1.39993
1.39995
1.39997
1.39998
1.39999
1.4
1.4
1.4
1.4
1.4
1.4
1.4
1.40001
1.4
1.4
1.40001
1.4
1.40001
1.40001
1.4
1.40001
1.40001
1.4
1.4
1.40001
1.40001
1.40001
1.40001
1.4
1.40001
1.40001
1.40001
1.40003
1.40003
1.40007
1.40013
1.40014
1.40028
1.40045
1.40057
1.40099
1.40174
1.40288
1.40528
1.40981
1.41701
1.42765
1.44066
1.45136
1.45515
1.4511
1.44055
1.42519
1.40722
1.38934
1.3737
1.36157
1.35376
1.3503
1.34973
1.3489
1.34388
1.33158
1.31161
1.28683
1.26186
1.24119
1.22883
1.22819
1.24041
1.26239
1.28727
1.30784
1.32025
1.3254
1.32738
1.33078
1.33881
1.35266
1.37159
1.39342
1.41499
1.43303
1.44505
1.45004
1.44868
1.4428
1.43461
1.42605
1.41838
1.41222
1.40765
1.40451
1.40247
1.40123
1.40053
1.40016
1.39999
1.39993
1.39992
1.39993
1.39995
1.39997
1.39998
1.39999
1.4
1.4
1.4
1.4
1.4
1.4
1.4
1.40001
1.40001
1.4
1.40001
1.4
1.4
1.40001
1.4
1.40001
1.4
1.40001
1.40001
1.4
1.40001
1.40001
1.40001
1.4
1.40001
1.40001
1.40001
1.40004
1.40003
1.40005
1.40014
1.40014
1.40025
1.40048
1.40059
1.401
1.40193
1.40326
1.40593
1.41115
1.41925
1.43053
1.44351
1.45306
1.45464
1.44821
1.43594
1.41944
1.40074
1.38288
1.36824
1.35778
1.3518
1.34989
1.34972
1.34661
1.33494
1.311
1.27595
1.23581
1.19785
1.16769
1.15004
1.14969
1.16901
1.20441
1.24647
1.28418
1.31011
1.32327
1.32807
1.33081
1.33663
1.34812
1.36541
1.38663
1.40869
1.42811
1.442
1.4489
1.44909
1.44419
1.43643
1.42787
1.41996
1.41346
1.40856
1.40513
1.40287
1.40149
1.40068
1.40025
1.40004
1.39996
1.39993
1.39994
1.39996
1.39997
1.39998
1.39999
1.4
1.4
1.4
1.4
1.4
1.4
1.40001
1.4
1.40001
1.4
1.40001
1.4
1.40001
1.40001
1.4
1.40001
1.40001
1.4
1.40001
1.40001
1.4
1.40001
1.40001
1.4
1.40001
1.40001
1.4
1.40004
1.40004
1.40004
1.40015
1.40015
1.40021
1.40049
1.40063
1.40098
1.40209
1.40367
1.40657
1.41243
1.42145
1.43315
1.44578
1.45417
1.45374
1.44515
1.43147
1.41423
1.39505
1.37731
1.36385
1.35516
1.35075
1.34967
1.3486
1.34096
1.31902
1.27895
1.22489
1.16713
1.11541
1.07546
1.05219
1.05205
1.07901
1.12916
1.19074
1.24901
1.29259
1.31767
1.32815
1.33184
1.33605
1.34522
1.36058
1.38081
1.40295
1.42336
1.43882
1.44744
1.4491
1.44521
1.43795
1.42948
1.4214
1.41461
1.40942
1.40573
1.40328
1.40174
1.40084
1.40035
1.4001
1.39999
1.39995
1.39995
1.39997
1.39998
1.39998
1.39999
1.4
1.4
1.4
1.4
1.4
1.4
1.40001
1.4
1.40001
1.40001
1.4
1.40001
1.4
1.40001
1.4
1.40001
1.40001
1.4
1.40001
1.40001
1.4
1.40001
1.40001
1.4
1.40001
1.40002
1.4
1.40003
1.40005
1.40002
1.40014
1.40017
1.40016
1.40048
1.40068
1.40096
1.40221
1.40411
1.40721
1.4136
1.42352
1.43552
1.4475
1.45477
1.45269
1.44215
1.42723
1.40962
1.39022
1.37261
1.36032
1.35343
1.35022
1.34898
1.34555
1.33117
1.29591
1.23655
1.16158
1.08602
1.02113
0.971792
0.942982
0.943093
0.977758
1.04275
1.12417
1.20423
1.26785
1.30789
1.32678
1.3332
1.33665
1.3437
1.35702
1.37599
1.39787
1.41893
1.43566
1.44578
1.44881
1.4459
1.43918
1.43086
1.42267
1.41566
1.41021
1.4063
1.40367
1.402
1.40101
1.40045
1.40016
1.40003
1.39998
1.39996
1.39998
1.39998
1.39999
1.39999
1.4
1.4
1.4
1.4
1.4
1.4
1.40001
1.4
1.4
1.40001
1.4
1.40001
1.4
1.4
1.40001
1.4
1.40001
1.4
1.40001
1.40001
1.40001
1.4
1.40001
1.4
1.4
1.40002
1.4
1.40002
1.40006
1.40001
1.40011
1.40019
1.40012
1.40042
1.40075
1.40095
1.40225
1.40455
1.40787
1.4146
1.42536
1.43764
1.44877
1.45493
1.45162
1.43943
1.42332
1.40562
1.38631
1.36871
1.35741
1.35228
1.34986
1.34739
1.34015
1.31751
1.26744
1.18794
1.09241
1.00013
0.92306
0.865059
0.83145
0.832271
0.874297
0.953
1.05287
1.15373
1.23759
1.2941
1.32346
1.33432
1.33799
1.34331
1.35459
1.37213
1.39349
1.41492
1.43265
1.44405
1.4483
1.44632
1.44013
1.432
1.42377
1.41659
1.41093
1.40682
1.40403
1.40224
1.40117
1.40055
1.40023
1.40007
1.4
1.39998
1.39999
1.39999
1.39999
1.4
1.4
1.4
1.4
1.4
1.4
1.4
1.40001
1.4
1.40001
1.40001
1.4
1.40001
1.40001
1.4
1.40001
1.40001
1.4
1.40001
1.4
1.40001
1.40001
1.4
1.40001
1.40001
1.4
1.40002
1.40001
1.4
1.40006
1.40001
1.40007
1.40021
1.4001
1.40033
1.4008
1.40099
1.40222
1.40491
1.40855
1.41542
1.42686
1.43953
1.44975
1.45472
1.45062
1.4372
1.41985
1.40212
1.38329
1.36564
1.35488
1.35138
1.34952
1.3448
1.33255
1.30128
1.23719
1.13924
1.02509
0.917506
0.829211
0.763957
0.727408
0.729844
0.778253
0.868311
0.983735
1.10263
1.20485
1.27746
1.31817
1.33475
1.33964
1.34371
1.35311
1.36916
1.38984
1.4114
1.42988
1.44235
1.44766
1.44651
1.44083
1.43291
1.42468
1.41738
1.41156
1.40729
1.40436
1.40247
1.40132
1.40065
1.40029
1.40011
1.40003
1.39999
1.4
1.39999
1.4
1.4
1.4
1.4
1.4
1.4
1.4
1.4
1.4
1.4
1.40001
1.4
1.40001
1.4
1.40001
1.4
1.4
1.40001
1.4
1.40001
1.4
1.40001
1.40001
1.4
1.40001
1.40001
1.4
1.40001
1.40001
1.4
1.40006
1.40002
1.40002
1.4002
1.40012
1.40022
1.40079
1.40108
1.40216
1.40514
1.40923
1.41612
1.42793
1.44113
1.45061
1.45425
1.44964
1.4356
1.41699
1.39903
1.38106
1.36348
1.35256
1.35032
1.34914
1.34159
1.32347
1.28429
1.2091
1.09669
0.967123
0.845984
0.747887
0.677939
0.641423
0.646491
0.699328
0.796885
0.923555
1.05636
1.17349
1.26004
1.31153
1.33431
1.34116
1.34456
1.35234
1.36695
1.38687
1.40841
1.42744
1.44076
1.44695
1.44652
1.44131
1.4336
1.4254
1.41802
1.41207
1.40768
1.40465
1.40267
1.40146
1.40075
1.40036
1.40015
1.40005
1.40001
1.40001
1.4
1.4
1.4
1.4
1.4
1.4
1.4
1.4
1.4
1.40001
1.4
1.40001
1.4
1.40001
1.4
1.40001
1.4
1.4
1.40001
1.40001
1.40001
1.4
1.40001
1.40001
1.4
1.40001
1.40001
1.4
1.40001
1.40002
1.39999
1.40004
1.40004
1.39999
1.40015
1.40015
1.40013
1.4007
1.40118
1.40212
1.40518
1.40982
1.41677
1.42858
1.44232
1.45147
1.45373
1.44861
1.43461
1.415
1.39632
1.37933
1.3623
1.35053
1.34872
1.34866
1.3386
1.31416
1.26807
1.18592
1.0649
0.924802
0.79305
0.687554
0.616161
0.582807
0.59118
0.645637
0.745586
0.877922
1.0195
1.14705
1.24419
1.30464
1.3332
1.34233
1.34551
1.35202
1.36538
1.38456
1.40598
1.42538
1.43935
1.44625
1.44641
1.44159
1.43408
1.42592
1.4185
1.41248
1.40799
1.40488
1.40284
1.40158
1.40084
1.40042
1.40019
1.40008
1.40003
1.40002
1.40001
1.4
1.4
1.4
1.4
1.4
1.4
1.40001
1.4
1.40001
1.40001
1.4
1.40001
1.40001
1.4
1.40001
1.4
1.40001
1.40001
1.4
1.40001
1.4
1.4
1.40001
1.4
1.40001
1.40001
1.4
1.4
1.40001
1.4
1.40002
1.40004
1.39998
1.40008
1.40015
1.40009
1.40056
1.40124
1.40215
1.40509
1.41019
1.41737
1.4289
1.44299
1.45233
1.45345
1.44754
1.43402
1.41408
1.3942
1.37777
1.36199
1.34916
1.3464
1.34771
1.33672
1.30637
1.25381
1.1683
1.04532
0.901429
0.763917
0.65425
0.583852
0.555365
0.567026
0.620407
0.717774
0.85001
0.994897
1.12803
1.23181
1.29862
1.33179
1.34306
1.34634
1.35193
1.36428
1.38282
1.40409
1.42375
1.43818
1.4456
1.44621
1.44169
1.43435
1.42625
1.41882
1.41276
1.40822
1.40506
1.40298
1.40169
1.40091
1.40047
1.40023
1.40011
1.40005
1.40003
1.40002
1.40001
1.40001
1.40001
1.40001
1.40001
1.4
1.40001
1.4
1.40001
1.4
1.40001
1.4
1.40001
1.40001
1.4
1.40001
1.4
1.40001
1.4
1.40001
1.40001
1.4
1.40001
1.4
1.40001
1.4
1.4
1.40001
1.40001
1.40001
1.4
1.40003
1.39999
1.40002
1.40012
1.40009
1.40041
1.4012
1.40223
1.40494
1.41027
1.41785
1.42905
1.44311
1.45302
1.45362
1.44663
1.43353
1.41417
1.39309
1.37621
1.36209
1.34893
1.34375
1.34567
1.33617
1.30211
1.24321
1.15564
1.0356
0.89494
0.757945
0.647836
0.579402
0.555205
0.569226
0.619984
0.711814
0.83976
0.98336
1.1176
1.22404
1.29427
1.33045
1.34336
1.34688
1.35191
1.36354
1.38161
1.40276
1.42256
1.4373
1.44505
1.44595
1.44164
1.43443
1.42639
1.41898
1.41291
1.40836
1.40519
1.40309
1.40177
1.40098
1.40052
1.40027
1.40014
1.40007
1.40005
1.40003
1.40002
1.40001
1.40001
1.40001
1.40001
1.40001
1.40001
1.40001
1.4
1.40001
1.40001
1.40001
1.4
1.40001
1.4
1.40001
1.40001
1.4
1.40001
1.4
1.40001
1.4
1.40001
1.4
1.40001
1.40001
1.4
1.40001
1.4
1.4
1.4
1.4
1.4
1.39999
1.40005
1.4001
1.40031
1.40105
1.40227
1.40481
1.41007
1.41805
1.42912
1.44282
1.45332
1.45421
1.44625
1.43303
1.41485
1.39338
1.37502
1.36191
1.34981
1.34184
1.34227
1.33589
1.30255
1.23914
1.1488
1.0325
0.899017
0.768071
0.661825
0.596472
0.57498
0.589738
0.637513
0.723381
0.845164
0.984288
1.11592
1.22141
1.29211
1.32945
1.3433
1.34707
1.35184
1.36309
1.3809
1.40198
1.42185
1.43673
1.44463
1.44566
1.44146
1.43432
1.42634
1.41898
1.41294
1.40842
1.40525
1.40315
1.40183
1.40103
1.40057
1.4003
1.40016
1.40008
1.40006
1.40003
1.40002
1.40001
1.40001
1.40001
1.40001
1.40001
1.40001
1.4
1.40001
1.4
1.4
1.40001
1.4
1.40001
1.4
1.40001
1.40001
1.4
1.40001
1.4
1.40001
1.4
1.40001
1.4
1.4
1.40001
1.4
1.40001
1.4
1.4
1.4
1.39998
1.39998
1.39998
1.39998
1.40006
1.40026
1.40088
1.40219
1.4047
1.40971
1.41785
1.42902