/*--------------------------------*- C++ -*----------------------------------*\
  =========                 |
  \\      /  F ield         | OpenFOAM: The Open Source CFD Toolbox
   \\    /   O peration     | Website:  https://openfoam.org
    \\  /    A nd           | Version:  6
     \\/     M anipulation  |
\*---------------------------------------------------------------------------*/
FoamFile
{
    version     2.0;
    format      ascii;
    class       volScalarField;
    location    "2.07";
    object      rho;
}
// * * * * * * * * * * * * * * * * * * * * * * * * * * * * * * * * * * * * * //

dimensions      [1 -3 0 0 0 0 0];

internalField   nonuniform List<scalar> 
24166
(
1.39753
1.40656
1.40001
1.4
1.40001
1.4
1.40001
1.40001
1.40462
1.40001
1.4
1.39959
1.40062
1.3978
1.40041
1.40002
1.40028
1.40012
1.40001
1.40009
1.39998
1.39999
1.40001
1.40001
1.40344
1.40001
1.4
1.4028
1.40001
1.40001
1.39268
1.40001
1.40001
1.40001
1.4
1.47397
1.40001
1.38017
1.40001
1.22202
1.40002
1.40001
1.40001
1.40001
1.40006
1.40001
1.40959
1.41829
1.40001
1.41938
1.40001
1.39999
1.40001
1.40016
1.4
1.43456
1.41159
1.40001
1.40001
1.40002
1.38749
1.39986
1.40001
1.40001
1.4
1.4
1.40001
1.37058
1.25908
1.4
1.40001
1.40031
1.40001
1.40001
1.40001
1.4
1.4
1.42922
1.40001
1.40004
1.44698
1.4
1.4
1.45398
1.40007
1.40001
1.39995
1.40001
1.40001
1.39999
1.40001
1.40001
1.39923
1.40001
1.39972
1.39984
1.40001
1.39994
1.40003
1.4
1.4
1.40001
1.40026
1.40001
1.40001
1.40001
1.40001
1.40003
1.40001
1.4
1.40001
1.40001
1.40001
1.52521
1.51769
1.39997
1.40001
1.40001
1.39995
1.40001
1.40001
1.40001
1.40518
1.40001
1.4429
1.40012
1.40001
1.40001
1.40001
1.40001
1.35167
1.39737
1.39256
1.42818
1.4
1.40002
1.40001
1.42974
1.40001
1.39999
1.42318
1.40001
1.46749
1.40001
1.36199
1.4
1.40001
1.40001
1.3163
1.40001
1.40001
1.40001
1.40001
1.40003
1.40001
1.40001
1.4
1.40001
1.40001
1.39999
1.39436
1.41973
1.40001
1.40001
1.40001
1.40001
1.28071
1.40001
1.40001
1.40001
1.40001
1.40001
1.40001
1.39866
1.40001
1.40018
1.40001
1.40001
1.40003
1.45218
1.4
1.40001
1.47432
1.40001
1.40001
1.40001
1.40001
1.40001
1.4
1.40001
1.4
1.42499
1.4
1.39889
1.40001
1.39998
1.40286
1.40001
1.40045
1.40001
1.4
1.40001
1.40001
1.40414
1.40001
1.40001
1.40001
1.4
1.4
1.31588
1.44015
1.40001
1.40042
1.4001
1.40001
1.4
1.40001
1.40001
1.49151
1.40001
1.40001
1.39897
1.40001
1.40001
1.44097
1.40001
1.40001
1.40001
1.40006
1.40001
1.40219
1.4
1.39996
1.40001
1.39448
1.40001
1.3998
1.40001
1.40001
1.40001
1.4
1.40001
1.40001
1.40001
1.39998
1.40001
1.40013
1.39983
1.40074
1.40001
1.3999
1.40001
1.4
1.47081
1.40001
1.40001
1.40001
1.40083
1.4
1.40004
1.40001
1.40001
1.40001
1.39995
1.40001
1.40001
1.4
1.40001
1.40001
1.40001
1.40005
1.44357
1.40001
1.40364
1.40001
1.4
1.40001
1.65127
1.40001
1.40001
1.42191
1.40001
1.22028
1.40001
1.40001
1.4
1.40001
1.40001
1.39973
1.40001
1.34157
1.40001
1.40001
1.4
1.40031
1.27585
1.40001
1.40001
1.40157
1.4
1.4
1.40004
1.40102
1.40001
1.4
1.40001
1.40001
1.40014
1.39787
1.40001
1.40092
1.4
1.40001
1.09392
1.39922
1.40001
1.39978
1.40001
1.4
1.40005
1.40001
1.40001
1.4506
1.40001
1.4
1.4
1.40001
1.40001
1.40001
1.47872
1.40001
1.40001
1.40001
1.40121
1.4
1.40549
1.40001
1.4
1.40004
1.40587
1.40001
1.40001
1.40001
1.40001
1.4
1.40001
1.4
1.40001
1.40001
1.40001
1.40001
1.40001
1.40001
1.40001
1.40001
1.40001
1.40001
1.4
1.31794
1.41293
1.40001
1.40001
1.40001
1.40416
1.40001
1.4
1.41394
1.40001
1.40001
1.40001
1.40087
1.40001
1.40001
1.40001
1.40001
1.39959
1.40001
1.40054
1.40001
1.40001
1.4
1.40001
1.40001
1.40002
1.40279
1.40001
1.4
1.40185
1.40001
1.40181
1.40001
1.40001
1.40135
1.39322
1.441
1.40058
1.40001
1.40001
1.40001
1.40001
1.40001
1.40001
1.40149
1.4
1.40001
1.40001
1.40001
1.39791
1.4
1.40001
1.40426
1.40001
1.40001
1.4
1.40001
1.39992
1.43013
1.40001
1.40001
1.40001
1.40001
1.38738
1.40001
1.40001
1.40001
1.40001
1.39851
1.40001
1.40001
1.40163
1.4002
1.45068
1.40001
1.40001
1.4
1.40001
1.40001
1.40001
1.40001
1.40141
1.40005
1.40001
1.36176
1.40001
1.40001
1.39996
1.45419
1.4
1.44419
1.44793
1.40001
1.4
1.40001
1.39742
1.40388
1.40017
1.43292
1.40001
1.40001
1.4
1.02958
1.40001
1.39888
1.45381
1.40001
1.40001
1.4
1.40001
1.40002
1.40001
1.40001
1.40367
1.40001
1.40001
1.40001
1.40202
1.40001
1.4
1.40001
1.40007
1.4
1.39927
1.40001
1.4
1.39961
1.40001
1.39955
1.40001
1.40001
1.40001
1.40001
1.40001
1.40001
1.40001
1.45054
1.43583
1.40001
1.40012
1.40001
1.40753
1.40001
1.39865
1.45697
0.947806
1.40001
1.4001
1.40002
1.40001
1.40001
1.40231
1.4
1.40001
1.4
1.4
1.40394
1.40627
1.3935
1.40005
1.40001
1.40001
1.40001
1.40001
1.41559
1.42625
1.4
1.40001
1.40001
1.40001
1.40001
1.41852
1.40001
1.40006
1.40001
1.40001
1.40001
1.40001
0.860955
1.40001
1.39875
1.4
1.40001
1.40001
1.39418
1.40001
1.40839
1.4
1.53303
1.40001
1.40004
1.39842
1.39139
1.40001
1.39983
1.40001
1.40001
1.40001
1.40001
1.39255
1.40001
1.33523
0.976739
1.4
1.40001
1.39952
1.40001
1.44712
0.82346
1.39999
1.40001
1.40001
1.40001
1.42405
1.39999
1.40001
1.40133
1.40001
1.4
1.4
1.40002
1.40001
1.39945
1.40001
1.40001
1.40001
1.4
1.40001
1.40001
1.39869
1.40862
1.43806
1.40001
1.3999
1.4
1.40001
1.1654
1.40001
1.4
1.49304
1.40001
1.40001
1.39617
1.40001
1.40001
1.39943
1.40001
1.40332
1.40005
1.4
1.40579
1.40001
1.38374
1.40001
1.4
1.40001
1.40364
1.40001
1.40001
1.44833
1.37255
1.40001
1.40505
1.40001
1.40068
1.4
1.40001
1.4
1.40035
1.4
1.44089
1.40001
1.4
1.42707
1.40001
1.42858
1.40001
1.40001
1.36342
1.40001
1.40001
1.43442
1.40001
1.40001
1.40167
1.39998
1.45655
1.4
1.39974
1.40001
1.39985
1.40001
1.40001
1.40001
1.40001
1.40001
1.40006
1.4
1.40001
1.40001
1.40001
1.40001
1.40001
1.39992
1.40001
1.40001
1.40001
1.39198
1.40349
1.40001
1.40003
1.40001
1.40001
1.43792
1.40001
1.40001
1.40002
1.30756
1.40001
1.40001
1.40006
1.40001
1.40001
1.40001
1.40001
1.40001
1.40001
1.40001
1.4
1.40001
1.4
1.39887
1.41287
1.40007
1.40001
1.4
1.40001
1.40001
1.40615
1.40001
1.40955
1.42846
1.40001
1.40001
1.40001
1.40001
1.44025
1.40001
1.40003
1.45023
1.40001
1.40001
1.40001
1.40147
1.4
1.40001
1.40001
1.40001
1.39843
1.46143
1.4
1.4142
1.39302
1.51808
1.40001
1.40001
1.39909
1.40001
1.45331
1.40001
1.40004
1.40001
1.40002
1.40001
1.40086
1.41393
1.39792
1.4001
1.40004
1.40001
1.40001
1.40001
1.40009
1.40001
1.39996
1.40011
1.15649
1.41475
1.40001
1.40001
1.4
1.4
1.4
1.40001
1.40001
1.40001
1.44291
1.40001
1.40001
1.40001
1.39984
1.40001
1.40001
1.40001
1.40001
1.40001
1.45634
1.40001
1.40001
1.40001
1.40001
1.39998
1.40001
1.40001
1.40001
1.4
1.40001
1.40003
1.40001
1.40001
1.34692
1.4
1.4
1.40001
1.40002
1.40001
1.40001
1.40001
1.39997
1.40001
1.40001
1.40001
1.40001
1.45637
1.40001
1.40001
1.40001
1.4
1.4
1.4
1.40001
1.40001
1.40001
1.22222
1.43681
1.40001
1.45657
1.4
1.41568
1.40001
1.40001
1.40001
1.4
1.40001
1.40001
1.40001
1.40001
1.40001
1.28645
1.40035
1.40001
1.40001
1.40001
1.40001
1.40001
1.40001
1.40001
1.41292
1.40002
1.40001
1.40001
1.40001
1.40001
1.40003
1.40001
1.40001
1.4
1.40001
1.40001
1.38539
1.40001
1.40006
1.38949
1.40464
1.4
1.3955
1.40001
1.40001
1.40001
1.40001
1.40001
1.40001
1.40001
1.40001
1.4
1.39934
1.40355
1.40001
1.4001
1.4
1.40001
1.40001
1.40001
1.4006
1.40001
1.4
1.40001
1.39754
1.40001
1.39757
1.4
1.4039
1.40001
1.40001
1.40001
1.39999
1.30309
1.40001
1.4
1.4
1.39985
1.40001
1.40001
1.40001
1.4001
1.40001
1.4
1.40001
1.4
1.39999
1.40001
1.4097
1.4
1.40001
1.42641
1.40001
1.40002
1.40079
1.40001
1.40002
1.40001
1.4
1.40001
1.40001
1.40001
1.39994
1.40001
1.40001
1.4154
1.30766
1.40001
1.39966
1.40001
1.40001
1.40002
1.40001
1.40001
1.40001
1.40001
1.40001
1.4
1.46017
1.40001
1.4
1.40002
1.39924
1.43585
1.39991
1.4007
1.4
1.40003
1.40001
1.40001
1.40001
1.40001
1.40002
1.37859
1.40034
1.52598
1.40001
1.39329
1.4
1.39999
1.46572
1.40293
1.40001
1.40002
1.4
1.40001
1.40001
1.40006
1.01641
1.39962
1.37765
1.40001
1.40001
1.40354
1.40066
1.41166
1.40001
1.40001
1.40001
1.39993
1.40001
1.40001
1.40001
1.39226
1.40003
1.40001
1.38431
1.40001
1.40001
1.40001
1.4
1.40002
1.40001
1.40001
1.40001
1.40001
1.40001
1.38643
1.39992
1.40047
1.40001
1.46229
1.40001
1.40001
1.40001
1.40986
1.40001
1.4
1.3961
1.3999
1.4512
1.40001
1.40001
1.4
1.40001
1.40001
1.40001
1.4037
1.40001
1.39732
1.40001
1.40055
1.42589
1.40001
1.40001
1.40001
1.40001
1.40001
1.40001
1.44068
1.40003
1.40005
1.39999
1.38754
1.4303
1.42952
1.40001
1.4
1.40001
1.4
1.39965
1.40001
1.40001
1.4
1.4
1.40364
1.40005
1.40001
1.40001
1.55986
1.40001
1.39998
1.40001
1.40001
1.40001
1.40001
1.40001
1.40001
1.45814
1.44047
1.40001
1.39983
1.41508
1.4
1.40001
1.40001
1.41361
1.40001
1.40001
1.4
1.40003
1.40001
1.40002
1.4
1.39996
1.4
1.40001
1.40087
1.4
1.40001
1.4
1.4
1.4
1.40008
1.3702
1.40001
1.40547
1.433
1.40001
1.39999
1.40001
1.38546
1.40001
1.4008
1.40001
1.4
1.40001
0.945435
1.40009
1.39183
1.40001
1.40001
1.40001
1.40005
1.40001
1.40066
1.40001
1.40001
1.40001
1.39929
1.40001
1.40001
1.40001
1.40001
1.40001
1.40178
1.4
1.40001
1.40001
1.46301
1.39999
1.39273
1.39999
1.40001
1.4
1.40001
1.4
1.40001
1.40001
1.40009
1.40078
1.39978
1.4
1.40002
1.36557
1.39895
1.40001
1.40001
1.40001
1.40001
1.39634
1.40001
1.40001
1.40001
1.40001
1.40001
0.697879
1.40001
0.787398
1.4
1.40001
1.40001
1.39983
1.39998
1.39995
1.39933
1.43152
1.40002
1.40001
1.41895
1.40001
1.39401
1.40148
1.40001
1.40001
1.4049
1.40001
1.40005
1.43646
1.4
1.39998
1.40001
1.40001
1.40001
1.40001
1.46992
1.39981
1.40001
1.4
1.40327
1.40001
1.40001
1.43716
0.673186
1.40001
1.40001
1.40019
1.40001
1.40002
1.39278
1.41723
1.40001
1.40001
1.4
1.4
1.4
1.4
1.40001
1.40001
1.4
1.40001
1.40001
1.40001
1.40001
1.4002
1.40001
1.4
1.42008
1.40058
1.40001
1.4
1.40221
1.40001
1.40001
1.40001
1.40001
1.39997
1.40001
1.40001
1.40001
1.40761
1.40001
1.44567
1.39939
1.39999
1.40001
1.41837
1.40001
1.4
1.61349
1.40001
1.40265
1.39999
1.40981
1.40001
1.4
1.40001
1.40001
1.40001
1.40002
1.40001
1.25753
1.40001
1.40217
1.40001
1.40001
1.40001
1.40001
1.40001
1.40001
1.40001
1.40001
1.40001
1.40001
1.40096
1.40012
1.40001
1.32132
1.40001
1.4001
1.39999
1.40001
1.40001
1.40001
1.40001
1.40001
1.39999
1.39878
1.40002
1.4009
1.46042
1.4
1.4
1.40001
1.40001
1.4
1.40001
1.40001
1.4
1.4
1.30544
1.42619
0.755443
1.40001
1.40001
1.40089
1.4
0.879057
1.40001
1.39931
1.40001
1.40001
1.39997
1.25311
1.4
1.40001
1.40001
1.40018
1.4057
1.4
1.4
1.40001
1.40001
1.39205
1.40001
1.4
1.39998
1.43783
1.40001
1.40001
1.43544
1.4
1.40157
1.40005
1.40001
1.4
1.40001
1.40001
1.40001
1.40001
1.40001
1.40001
1.40001
1.40001
1.42355
1.40001
1.40001
1.40001
1.40001
1.40279
1.4687
1.40001
1.40001
1.40001
1.4
1.40001
1.39997
1.40001
1.40003
1.3789
1.40005
1.4
1.40001
1.40001
1.51248
1.40014
1.40003
1.40001
0.946688
1.40068
1.40001
1.40001
1.4
1.40001
1.40001
1.40001
1.40001
1.40001
1.40001
1.40001
1.47427
1.40001
1.40001
1.39999
1.40001
1.39664
1.40003
1.4
1.40001
1.41731
1.40001
1.40001
1.40001
1.40001
1.4
1.40001
1.42494
1.40003
1.40001
1.40001
1.40001
1.40001
1.4
1.4
1.40192
1.40995
1.3972
1.40001
1.39997
1.4
1.40013
1.40001
1.39999
1.40001
1.40001
1.40001
1.4
1.36966
1.43912
1.40001
1.40001
1.40001
1.46238
1.4
0.73708
1.40027
1.40001
1.40001
1.40194
1.39826
1.40001
1.4
1.4
1.4035
1.46295
1.40001
1.40001
1.40079
1.4
1.40001
1.40001
1.42867
1.40001
1.40001
1.39997
1.4
1.40001
1.39998
1.4
1.40001
1.40001
1.40001
1.39402
1.40001
1.40001
1.39993
1.425
1.40005
1.40519
1.4
1.4
1.40346
1.402
1.40001
1.4
1.4414
1.0412
0.607533
1.4
1.40001
1.40001
1.40001
1.40001
1.4
1.40001
1.40001
1.40024
1.40001
1.40001
1.44454
1.40001
1.4
1.40001
1.40001
1.40001
1.40399
1.40001
1.40001
1.40001
1.40001
1.40232
1.4
1.40001
1.40001
1.4
1.40101
1.40001
1.41872
1.39966
1.40001
1.40001
1.4
1.40001
1.4
1.40001
1.4
1.3996
0.629673
1.39997
1.40016
1.40001
1.4
1.4
1.40001
1.40001
1.40001
1.44121
1.40001
1.40001
1.4
1.40001
1.44253
1.39945
1.40001
1.40001
1.4
1.40001
1.4
1.40001
1.44053
1.39517
1.40001
1.40001
1.40001
1.40004
1.38355
1.40001
1.4
1.40001
1.40207
1.40001
1.40001
1.40001
1.40001
1.44922
1.40001
1.40568
1.39999
1.40001
1.47747
1.40091
1.4
1.39454
1.40006
1.47707
1.40001
1.461
1.40005
1.40001
1.39926
1.40001
1.40001
1.40001
1.40001
1.40001
1.40018
1.40001
1.40001
1.39999
1.40001
1.39993
1.40001
1.40126
1.39998
1.42618
1.40001
1.40031
1.41876
1.46384
1.40672
1.3998
1.39979
1.35827
1.40001
1.40361
1.40007
1.38921
1.40001
1.40001
1.39986
1.40493
1.40001
1.40003
1.40001
1.40001
1.40051
1.40001
1.40001
1.39951
1.40001
1.40001
1.40001
1.40002
1.42301
1.40002
1.40002
1.40001
1.40001
1.39997
1.4
1.40001
1.4167
1.40001
1.40001
1.40003
1.4
1.40002
1.40018
1.40001
1.39985
1.40001
1.40001
1.40024
1.40001
1.40001
1.40001
1.40001
1.40002
1.40451
1.40001
1.40114
1.40001
1.3701
1.40001
1.40001
1.40001
1.40001
1.40001
1.40001
1.40002
1.40001
1.40001
1.40001
1.40023
1.42253
1.40001
1.40001
1.4
1.40001
1.40001
1.4
1.40001
1.40001
1.4
1.4
1.42357
1.40001
1.4
1.36848
1.47719
1.40001
1.40001
1.39498
1.4
1.40001
1.36188
1.40001
1.39999
1.40001
1.4
1.4
1.42346
1.40001
1.3954
1.45378
1.40001
1.40001
1.40001
1.40001
1.40001
1.40001
1.39373
1.40001
1.4002
1.40001
1.40001
1.40001
1.40001
1.4
1.41209
1.39913
1.40027
1.4
1.40001
1.10211
1.42915
1.4
1.40029
1.40001
1.40001
1.41196
1.40001
1.4
1.40001
1.40001
1.40001
1.4
1.40001
1.40001
1.40001
1.40001
1.40001
1.4
1.4
1.40001
1.40001
1.4
1.4
1.4
1.40001
1.40229
1.4
1.40001
1.40001
1.40001
1.39764
1.40001
1.4
1.40001
1.39999
1.40587
1.40002
1.56168
1.40001
1.39987
1.40001
1.4
1.39994
1.44964
1.40018
1.40002
1.39998
1.40001
1.39999
1.40001
1.51481
1.4
1.4
1.40001
1.40001
1.4272
1.40001
1.40515
1.40001
1.40001
1.40001
1.46401
1.40001
1.40001
1.39362
1.40001
1.40001
1.40001
1.40001
1.4
1.45608
1.39999
1.40562
1.44369
1.4
1.41099
1.40001
1.40001
1.40069
1.40001
1.40001
1.40001
1.40001
1.45687
1.40001
1.40001
1.40001
1.40322
1.4001
1.40301
1.40019
1.40001
1.40001
1.40001
1.40001
1.40001
1.35216
1.40001
1.28349
1.40001
1.29591
1.40003
1.40001
1.40051
1.3997
1.40001
1.40001
1.39986
1.40001
1.39991
1.40001
1.40001
1.3999
1.40002
1.4
1.39987
1.4
1.40001
1.40001
1.43433
1.40001
1.40001
1.40001
1.40877
1.47392
1.39999
1.40001
1.49537
1.40004
1.40004
1.40001
1.43019
1.4
1.40001
1.39994
1.40001
1.40001
1.40001
1.43071
1.40001
1.40001
1.40001
1.40001
1.40001
1.40001
1.40001
1.43549
1.40001
1.40001
1.40001
1.4
1.40459
1.40001
1.42204
1.39999
1.40001
1.4012
1.4
1.39916
1.39999
1.39999
1.4
1.40001
1.4
1.40001
1.40003
1.40001
1.39988
1.40088
1.40001
1.40001
1.40001
1.42735
1.4
1.40001
1.40302
1.40002
1.40001
1.40001
1.40001
1.39983
1.3902
1.4
1.40001
1.40001
1.40001
1.40001
1.40001
1.37917
1.36951
1.40001
1.4
1.4
1.40016
1.40001
1.46657
1.40001
1.40011
1.4
1.40001
1.48532
1.40783
1.40002
1.4042
1.40308
1.46752
1.48033
1.4
1.40004
1.41228
1.41803
1.46068
1.4
1.40001
1.39513
1.40001
1.40001
1.50654
1.40001
1.40001
1.41412
1.40001
1.40809
1.40001
1.40001
1.4
1.44111
1.40001
1.40001
1.40001
1.40001
1.40008
1.44957
1.40001
1.40001
1.40001
1.4
1.40308
1.4
1.4
1.4
1.40001
1.43463
1.40001
1.40001
1.40005
1.4076
1.40001
1.40001
1.40001
1.40001
1.20347
1.40001
1.4
1.45386
1.40827
1.40191
1.40001
1.40287
1.40347
1.40077
1.42379
1.3965
1.40001
1.40001
1.40001
1.40001
1.40001
1.4
1.4
1.40003
1.40001
1.40001
1.40001
1.4
1.4
1.39998
1.45702
1.40002
1.40001
1.41355
1.42621
1.39922
1.40818
1.40001
1.4
1.40001
1.40001
1.42018
1.40108
1.45548
1.4
1.40001
1.4
1.4
1.41601
1.40001
1.40078
1.36602
1.40001
0.90426
1.40001
1.40001
1.40001
1.40001
1.39932
1.40001
1.40001
1.40001
1.62724
1.40068
1.39735
1.40001
1.40001
1.40001
1.40001
1.40001
0.86589
1.40001
1.39877
1.40001
1.40001
1.40001
1.40001
1.4
1.40001
1.40001
1.40001
1.40001
1.40582
1.40315
1.40001
1.40001
1.42008
1.4
1.39864
1.40001
1.40001
1.40001
1.40001
1.40001
1.40001
1.3679
1.41343
1.4015
1.40001
1.40001
1.40001
1.40001
1.40001
1.40629
1.40002
1.4035
1.40001
1.40001
1.40405
1.40001
1.40001
1.41871
1.40121
1.41131
1.4319
1.40001
1.40001
1.40001
1.40001
1.4
1.39921
1.40173
1.40754
1.39999
1.40002
1.40001
1.40356
1.40438
1.40001
1.4
1.40001
1.39986
1.40001
1.40003
1.4
1.40054
1.41278
1.4
1.40114
1.40001
1.40001
1.4
1.40001
1.40001
1.4028
1.40001
1.40001
1.40768
1.40488
1.40001
1.43448
1.4
1.40001
1.39972
1.40001
1.45755
1.40001
1.40001
1.4346
1.16616
1.40001
1.4532
1.40864
1.4
1.40001
1.40001
1.40001
1.40001
1.40001
1.40001
1.40158
1.4
1.4
1.40085
1.38254
1.4004
1.4
1.40001
1.4
1.40001
1.40001
1.40322
1.39805
1.39993
1.26891
1.40001
1.40001
1.40561
1.40001
1.40001
1.40001
1.40001
1.40001
1.40001
1.4
1.40001
1.40001
1.23152
1.40001
1.40001
1.39683
1.40001
1.40001
1.40001
1.4
1.40001
1.40001
1.40001
1.4
1.40001
1.4
1.40001
1.40484
1.40001
1.40001
1.42884
1.40196
1.40001
1.40001
1.4
1.4
1.40001
1.40001
1.40001
1.40001
1.4
1.39999
1.40001
1.40001
1.40001
1.40584
1.40001
1.40001
1.40001
1.40945
1.40003
1.40002
1.39999
1.40001
1.27666
1.4
1.40001
1.40001
1.39999
1.4003
1.39997
1.39993
1.40001
1.40001
1.40001
1.39652
1.4
1.08343
1.40001
1.40001
1.4
1.39992
1.40002
1.40001
1.40001
1.47228
1.40001
1.39999
1.40001
1.48061
1.39992
1.40391
1.40001
1.40001
1.45232
1.40001
1.41727
1.40001
1.40001
1.40001
1.39997
1.40001
1.4
1.45815
1.40001
1.40001
1.40002
1.40001
1.40001
1.4
1.40001
1.40002
1.40001
1.40001
1.40001
1.39969
1.33173
1.42656
1.40111
1.40001
1.39994
1.4
1.4
1.40001
1.4
1.4084
1.40002
1.40001
1.40001
1.40002
1.40001
1.39775
1.40495
1.40002
1.40001
1.40001
1.40001
1.40001
1.43776
1.40001
1.41233
1.39959
1.40001
1.4
1.40885
1.39997
1.40001
1.40001
1.40001
1.40001
1.40001
1.40001
1.40001
1.40001
1.40001
1.40001
1.39889
1.40001
1.3999
1.40788
1.4
1.39974
1.40001
1.40001
1.43041
1.55229
1.41727
1.4
1.40001
1.4
1.4
1.4
1.40001
1.4
1.40017
1.39997
1.40001
1.40441
1.40001
1.40047
1.39953
1.40001
1.40089
1.39199
1.38826
1.40001
1.4393
1.40001
1.41069
1.40001
1.40001
1.39984
1.40001
1.39999
1.40001
1.43547
1.40001
1.4
1.39612
1.2784
1.40001
1.32296
1.40001
1.4
1.40006
1.40001
1.40003
1.40001
1.40001
1.40001
1.40001
1.40001
1.40001
1.40001
1.40001
1.39991
1.4
1.40721
1.30493
1.36563
1.40001
1.40001
1.41231
1.41477
1.40001
1.40001
1.4007
1.45482
1.40946
1.39993
1.40001
1.40001
1.03544
1.38705
1.40001
1.40001
1.40001
1.40001
1.40001
1.40001
1.4
1.39662
1.43017
1.45079
1.14326
1.40001
1.40257
1.40001
1.40199
1.40001
1.40001
1.44753
1.40001
1.4
1.40001
1.39788
1.39998
1.40001
1.40001
1.40001
1.40001
1.39982
1.39996
1.40001
1.40001
1.40001
1.40104
1.406
1.40001
1.40001
1.4
1.40001
1.40001
1.42437
1.40001
1.4
1.44691
1.39998
1.40001
1.40001
1.40458
1.40001
1.40001
1.39999
1.40001
1.40001
1.39975
1.40001
1.41252
1.40001
1.40001
1.40001
1.40001
1.40001
1.4
1.40093
1.40001
1.41793
1.45135
1.44474
1.40001
1.40001
1.40031
1.40525
1.40047
1.4
1.46774
1.40001
1.39997
1.32475
1.4
1.28644
1.4
1.40001
1.40001
1.40001
1.40001
1.40266
1.40001
1.43074
1.40001
1.40044
1.40001
1.3999
1.40001
1.40001
1.40001
1.40001
1.40001
1.40001
1.39986
1.40001
1.4
1.40001
1.43966
1.40001
1.39045
1.4
1.40001
1.4028
1.40001
1.40001
1.40001
1.48437
1.43005
1.40001
1.40001
1.40001
1.40001
1.39804
1.40001
1.40001
1.38513
1.4092
1.40001
1.43223
1.40001
1.4001
1.40027
1.4
1.40001
1.40001
1.39816
1.4
1.39996
1.40001
1.40001
1.40001
1.40107
1.40001
1.40001
1.40001
1.40001
1.40001
1.40001
1.40001
1.39974
1.41164
1.40001
1.2281
1.39995
1.4
1.39999
1.40303
1.41798
1.4
1.40461
1.40001
1.4
1.40001
1.40001
1.40001
1.40242
1.40001
1.4
1.4
1.38116
1.40004
1.40001
1.38901
1.40001
1.40035
1.40001
1.40001
1.45953
1.48534
1.40001
1.4
1.39893
1.40001
1.41176
1.40001
1.40001
1.39198
1.40001
1.40001
1.40737
1.39994
1.40003
1.40001
1.40001
1.4
1.40001
1.47814
1.40001
1.25655
1.40245
1.40001
1.39889
1.40001
1.4
1.40001
1.40001
1.44231
1.40028
1.40001
1.40001
1.40001
1.40001
1.40002
1.40248
1.4
1.40001
1.4
1.39916
1.37817
1.39427
1.40001
1.40354
1.40001
1.39993
1.40189
1.4
1.40001
1.40001
1.40001
1.38583
1.40001
1.47097
1.40067
1.40001
1.40001
1.40001
1.40001
1.40001
1.40001
1.39999
1.40001
1.4
1.4
1.40001
1.40001
1.40001
1.40001
1.4
1.42088
1.39997
1.45613
1.39994
1.39996
1.40087
1.40001
1.39967
0.63971
1.39985
1.40001
1.38547
1.4
1.40005
1.40795
1.41249
1.40001
1.40001
1.4011
1.4
1.40001
1.40001
1.40001
1.40015
1.40001
1.49392
1.40005
1.40326
1.40001
1.4
1.39994
1.40001
1.4
1.40001
1.4
1.40001
1.40029
1.40258
1.4
1.40002
1.12121
1.40004
0.910743
1.40515
1.40026
1.40162
1.40001
1.40043
1.40051
1.4
1.41923
1.4
1.40001
1.39999
1.40001
1.40001
1.40684
1.40254
1.40001
1.40001
1.57679
1.40001
1.4
1.40726
1.41257
1.40001
1.39113
1.40001
1.4
1.4
1.41111
1.40001
1.40001
1.40001
1.40001
1.36434
1.39999
1.40001
1.13942
1.4
1.40001
0.973004
1.40001
1.43869
1.39999
1.40006
1.40001
1.40001
1.40001
1.40001
1.4
1.40001
1.40001
1.40001
1.4
1.39996
1.39995
1.40001
0.965805
1.40001
1.40001
1.39767
1.40001
1.40002
1.40001
1.40001
1.40317
1.40001
1.40003
1.40001
1.4
1.40001
1.40001
1.40001
1.40001
1.4
1.4
1.4
1.4
1.40001
1.40002
1.40094
1.39911
1.40137
1.40001
1.4047
1.40342
1.40004
1.4
1.4
1.40003
1.40796
1.40001
1.40001
1.40001
1.40954
1.40001
1.4
0.829258
1.40001
1.40001
1.40001
1.40001
1.40001
1.40004
1.40001
1.39998
1.40001
1.3952
1.40001
1.39999
1.39892
1.40001
1.40003
1.45176
1.40001
1.40001
1.42085
1.14475
1.40001
1.39992
1.40001
1.40001
1.40001
1.42483
1.39995
1.40001
1.40248
1.18959
0.804616
1.40001
1.16858
1.40001
1.40001
1.40001
1.40001
1.40001
1.40001
1.40061
1.39999
0.812495
1.39997
1.40009
1.39999
1.4
1.40001
1.39996
1.40001
1.40001
1.40001
1.4
1.40035
1.39995
1.4
1.40001
1.4
1.40001
1.40001
1.40001
1.14697
1.4
1.4
1.4
1.40001
1.91812
1.40001
1.40027
1.40001
1.4
1.39998
1.40729
1.4048
1.40001
1.4
1.40001
1.40001
1.40001
1.40016
1.3967
1.40001
1.40001
1.40001
1.40001
1.40001
1.40001
1.40004
1.40001
1.40001
1.4
1.41464
1.40001
1.48905
1.40001
1.40001
1.40001
1.41566
1.40001
1.40001
1.40017
1.40001
1.40005
1.40002
1.4
1.40001
1.40001
1.4
1.40007
1.40001
1.39998
1.4
1.4
1.4
0.746441
1.40001
1.40088
1.40001
1.40003
1.41281
1.39982
1.40783
1.45784
1.38849
1.40001
1.47051
1.40001
0.613759
1.40001
1.40896
1.40001
1.40001
1.40001
1.40001
1.40209
1.40246
1.40086
1.40001
1.47147
1.40525
1.40164
1.40001
1.43665
1.40001
1.40001
1.40001
1.39999
1.39827
1.39998
0.50911
1.40001
1.40001
1.40011
1.40361
1.45528
1.4
1.40001
1.40001
1.40095
1.40001
1.4001
1.39986
1.40001
1.40001
1.40001
1.40001
1.40001
1.4034
1.40082
1.46256
0.707282
1.40001
1.40001
1.40001
1.40001
1.39742
1.40536
1.40009
1.39945
1.40001
1.40001
1.40055
1.40001
1.4
1.40001
1.39982
1.41904
1.41584
1.40004
1.40001
1.39983
1.40017
1.41174
1.40001
1.38405
1.4
1.28796
1.40001
1.40007
1.4
1.40008
1.4
1.36409
1.19883
1.40001
1.40001
1.40001
1.40007
1.42429
1.4
1.4
1.40001
1.4
1.41826
1.40001
1.40001
1.40004
1.40082
1.40001
1.40001
1.40112
1.35645
1.40001
1.40001
0.980753
1.40001
1.40004
1.40001
1.40001
1.40001
1.40001
1.40001
1.4
1.40001
1.40003
1.40001
1.4
1.40001
1.40001
1.40001
1.40001
1.40001
1.40001
1.40055
1.40001
1.40001
1.40172
1.4
1.40041
1.40001
1.40001
1.40001
1.40005
1.40001
1.4183
1.4
1.40001
1.4
1.40001
1.40001
1.40001
1.40001
1.40001
1.44945
1.40001
1.40001
1.4
0.632449
1.40001
1.40181
1.40001
1.45143
1.4
1.40001
1.40001
1.16345
1.40001
1.40001
1.4004
1.40001
1.4
1.40693
1.39885
1.54926
0.735538
1.40001
1.40001
1.40001
1.49708
1.40001
1.40001
1.40403
1.40001
1.40001
1.40001
1.4
1.40001
1.40001
1.40522
1.40001
1.40001
1.40001
1.40001
1.44308
1.4
1.40001
1.40001
1.40505
1.40001
1.40001
1.40001
1.4
1.40001
1.40001
1.40001
1.40009
1.40001
1.40001
1.40001
1.4
1.40001
1.4
1.40271
1.40001
1.40001
1.4
1.4
1.40001
1.41278
1.4
1.40001
1.40001
1.40001
1.40018
1.03807
1.40001
1.39934
1.4
1.40004
1.40001
1.39986
1.40001
1.39981
1.404
1.40001
1.40001
1.54585
1.44869
1.40001
1.3971
1.40001
1.40001
0.734868
1.40001
1.40001
1.39997
1.4
1.40001
1.40007
0.740003
1.40001
1.4
1.40001
1.40001
1.40001
1.39968
1.40001
1.40001
1.41201
1.40001
1.4
1.40001
1.40001
1.4
1.39931
1.40023
1.40001
1.4
1.40001
1.4
1.40001
1.40001
1.40001
1.4
1.40001
1.40001
1.36316
1.41167
1.39999
1.40001
1.40001
1.49382
1.40001
1.4
1.40001
1.4
1.40001
1.40001
1.39992
1.40001
1.48526
1.40001
1.40001
1.40001
1.40001
1.40001
1.40001
1.40883
1.40012
1.40001
1.4
1.37364
1.40001
1.40001
1.40001
1.41925
1.40001
1.4
1.40001
1.40001
1.40001
1.40001
1.40001
1.4
1.39985
0.856722
1.40001
1.40001
1.40001
1.40001
1.40005
1.40001
1.40001
1.40001
1.40001
1.40052
1.39997
1.40001
1.40001
1.40001
1.40001
1.40001
1.23471
1.40001
1.40001
1.40001
1.40001
1.40001
1.40001
1.34162
1.40001
1.38168
1.40001
1.4
1.42299
1.38813
1.40001
1.4
1.40001
1.47806
1.40001
1.40001
1.40001
1.40001
1.40001
1.40001
1.40761
1.4
1.40158
1.4
1.40001
1.4
1.40001
1.40125
1.40001
1.44949
1.4
1.40001
1.46773
1.40001
1.40001
1.40041
1.40001
1.40615
1.4
1.40001
1.40001
1.40001
1.40006
1.40001
1.4
1.40001
1.40001
1.40551
1.40001
1.4
1.46104
1.40001
1.4
1.40243
1.28936
1.45516
1.40001
1.40409
1.40001
1.4
1.35496
1.41075
1.4
1.40001
1.40158
1.40001
1.40005
1.40003
1.40001
1.40001
1.40001
1.40001
1.40572
1.40001
1.40001
1.40467
1.40001
1.44915
1.40001
1.40001
1.40001
1.40001
1.38647
1.40001
1.40001
1.40001
1.40005
1.40001
1.40001
1.40001
1.3848
1.40783
1.40001
1.40001
1.4
1.40001
1.40001
1.39997
1.40001
1.28929
1.0851
1.39578
1.40001
1.40036
1.40001
1.4001
1.38841
1.40001
1.40001
1.40135
1.40001
1.40001
1.4
0.837307
1.40001
1.4
1.44089
1.39713
1.39999
1.39688
1.40388
1.39994
1.4
1.45084
1.40001
1.4
1.40017
1.40003
1.40001
1.40001
1.40001
1.4
1.40001
1.4
1.40028
1.40001
1.40001
1.46187
1.40001
1.40001
1.40001
1.40001
1.46269
1.40001
1.39943
1.40001
1.39998
1.40001
1.40001
1.4
1.40001
1.40001
1.4
1.40007
1.39999
1.40001
1.40001
0.804149
1.40001
1.40001
1.40001
1.40001
1.40001
1.4
1.4006
1.40001
1.40001
1.4
1.40001
1.40001
1.39512
1.40001
1.40001
1.40001
1.4251
1.40001
1.4
1.39998
1.40001
1.40002
1.40006
1.40001
1.38856
1.40001
1.40001
1.40023
1.4007
1.39985
1.4
1.40001
1.40001
1.40001
1.4
0.812463
1.40649
1.4001
1.4003
1.40001
1.40001
1.4
1.40001
1.4
1.39932
1.4
1.46551
1.4
1.40146
1.40001
1.4
1.40001
1.40001
1.40001
1.40001
1.40001
1.40001
1.40001
1.39935
1.39997
1.42887
1.40306
1.40001
1.46193
1.39959
1.39925
1.40001
1.40001
1.40051
1.4
1.39999
1.43417
1.4
1.40001
1.40001
1.40398
1.46909
1.40001
1.40001
1.40001
1.40001
1.40001
1.40001
1.40154
1.4
1.4
1.09174
1.4
1.40001
1.3999
1.40001
1.44696
1.40001
1.4
1.40001
1.40001
1.40001
1.40155
1.40001
1.40001
1.40001
1.40001
1.40002
1.40001
1.4
1.40007
1.40001
1.39998
1.4
1.4
1.39999
1.40001
1.40001
1.40001
1.40001
1.40001
1.38092
1.40001
1.40038
1.40001
1.40001
1.40149
1.4001
1.40001
1.4
1.40001
1.40545
1.40001
1.40001
1.44882
1.40001
1.40235
1.40566
1.40001
1.40001
1.40001
1.42702
1.40001
1.40401
1.40119
1.39998
1.39999
1.39096
1.4002
1.40001
1.40011
1.40001
1.39996
1.40001
1.40001
1.38824
1.3999
1.39996
0.945556
1.40001
1.40006
1.40001
1.40001
1.40001
1.40001
1.40004
1.40001
1.40114
1.44809
1.40001
1.40001
1.40001
1.40001
1.4
1.40001
1.40001
1.40001
1.40001
1.40001
1.40001
1.40001
1.40001
1.4
1.40001
1.4
1.40001
1.40001
1.4
1.40006
1.40001
1.40001
1.40001
0.860378
1.40001
1.40001
1.4
1.4
1.40016
1.4
1.4
1.40009
1.40144
1.40001
1.40022
1.40001
1.40001
1.40001
1.40001
1.4
1.40064
1.4
1.40001
1.40001
1.40151
1.4
1.40001
1.40001
1.46149
1.40001
1.40001
1.40001
1.40004
1.4
1.40001
1.40001
1.40001
1.39998
1.39995
1.40001
1.40001
1.40001
1.40001
1.40001
1.40001
1.39905
1.40001
1.4
1.4
1.4
1.40001
1.06289
1.4
1.4
1.40001
1.40001
1.40001
1.40006
1.39887
1.40001
1.4
1.45512
1.40338
1.40001
1.40001
1.40001
1.40001
1.40001
1.4
1.40001
1.40001
1.40001
1.4
1.40001
1.40001
1.4
1.40001
1.40001
1.40001
1.40001
1.40001
1.40001
1.40001
1.40001
1.40048
1.07502
1.40014
1.40001
1.40001
1.39744
1.40001
1.11897
1.40001
1.40001
1.4
1.40001
1.40001
1.40001
1.39645
1.4
1.4
1.40001
1.44714
1.40007
1.40002
1.4
1.40001
1.39999
1.40001
1.40008
1.4
1.40001
1.40017
1.40001
1.40001
1.39994
1.40142
1.4
1.4
1.40001
1.39985
1.40001
1.40001
1.40001
1.40001
1.4
1.39999
1.39954
1.4007
1.40001
1.39954
1.39995
1.39999
1.39999
1.39999
1.40001
1.40001
1.40001
1.40001
1.39593
1.4
1.40001
1.39989
1.4003
1.40001
1.40001
1.40001
1.39569
1.58626
1.40001
1.4
1.40001
1.39999
1.40001
1.40022
1.40001
1.4
1.40001
1.40001
1.4
1.40001
1.40001
1.40001
1.36142
1.40001
1.40001
1.40001
1.40003
1.40001
1.44389
1.4
1.40001
1.39758
1.40001
1.40001
1.40001
1.4
1.39987
1.40001
1.40001
1.39686
1.40001
1.40001
1.29777
1.39995
1.40001
1.40001
1.45722
1.40013
1.40001
1.40001
1.40001
1.39198
1.39938
1.40001
1.40001
1.39989
1.40001
1.4
1.39941
1.40001
1.39997
1.39999
1.4
1.44152
1.40001
1.40001
1.40001
1.40001
1.41182
0.59889
1.40001
1.39999
1.44277
1.40001
1.40001
1.40001
1.40001
1.40001
1.14533
1.40003
1.4
1.40001
1.40001
1.40001
1.41305
1.40001
1.40001
1.40035
1.40001
1.40001
1.40001
1.40002
1.40001
1.40001
1.40001
1.40001
1.40001
1.40001
1.4001
1.40001
1.39992
1.23212
1.40265
1.4
1.4
1.37006
1.40001
1.3999
1.40001
1.39529
1.40001
1.4
1.45863
1.40001
1.40001
1.39465
1.40001
1.40001
1.40019
1.40001
1.40001
1.39911
1.41392
1.40001
1.41608
1.40001
1.40001
1.40001
1.40001
1.45732
1.40001
1.40001
1.40001
1.40001
1.40057
1.39699
1.40201
1.40001
1.40001
1.40009
1.40005
1.3994
1.40001
1.40413
1.4
1.40001
1.40001
1.40001
1.43896
1.40005
1.40001
1.40001
1.4
1.40001
1.4
1.40001
1.40001
1.48007
1.40001
1.46276
1.40001
1.40001
1.40001
1.40001
1.40002
1.40001
1.30935
1.39592
1.40001
1.4
1.3923
1.40001
1.40001
1.4
1.40001
1.38723
1.40001
1.51535
1.4
1.40001
1.40001
1.40003
1.40001
1.4
1.40001
1.39995
1.40001
1.40015
1.4
1.40001
1.40001
1.40001
1.40946
1.4001
1.40001
1.40001
1.40001
1.40001
1.40008
1.40001
1.40001
1.445
1.39433
1.39525
1.40001
1.41774
1.39959
1.40001
1.40001
1.49651
1.40001
1.39989
1.40001
1.39994
1.46338
1.40001
1.40001
1.40035
1.40925
1.40001
1.40001
1.40001
1.35008
1.40001
1.435
1.39998
1.40001
1.4
1.40001
1.4
1.4
1.40001
1.40002
1.40001
1.4
1.40001
1.40001
1.40001
1.40001
1.4
1.40001
1.00913
1.40001
1.39997
1.40001
1.4001
1.40006
1.40001
1.40001
1.40002
1.4
1.4
1.40002
1.40002
1.40001
1.40001
1.2111
1.40001
1.40001
1.4
1.40001
1.40001
1.40001
1.07672
1.45058
1.44875
1.40134
1.4
1.40001
1.40001
1.40001
1.4
1.40001
1.40003
1.40001
1.40001
1.40001
1.40001
1.40398
1.40001
1.40177
1.40002
1.40001
1.38991
1.4
1.32334
1.40277
1.39954
1.4
1.4
1.40044
1.40001
1.40001
1.40001
1.40001
1.40005
1.40001
1.4
1.42786