/*--------------------------------*- C++ -*----------------------------------*\
  =========                 |
  \\      /  F ield         | OpenFOAM: The Open Source CFD Toolbox
   \\    /   O peration     | Website:  https://openfoam.org
    \\  /    A nd           | Version:  6
     \\/     M anipulation  |
\*---------------------------------------------------------------------------*/
FoamFile
{
    version     2.0;
    format      ascii;
    class       volScalarField;
    location    "1.3";
    object      rho;
}
// * * * * * * * * * * * * * * * * * * * * * * * * * * * * * * * * * * * * * //

dimensions      [1 -3 0 0 0 0 0];

internalField   nonuniform List<scalar> 
5835
(
1.66125e-05
1.18592e-05
2.28892e-05
1.19314e-05
1.19788e-05
1.18581e-05
1.18569e-05
1.18649e-05
1.18568e-05
1.18641e-05
1.18604e-05
1.22312e-05
1.18569e-05
1.18581e-05
1.26026e-05
1.18583e-05
3.70894e-05
3.62109e-05
1.18601e-05
1.1858e-05
4.02293e-05
1.1857e-05
3.88154e-05
1.24305e-05
1.1857e-05
1.18579e-05
1.27404e-05
1.18583e-05
1.18836e-05
1.18569e-05
1.1857e-05
1.18604e-05
1.18584e-05
1.1857e-05
1.18577e-05
1.18578e-05
1.18576e-05
1.18568e-05
1.18574e-05
1.18575e-05
1.18637e-05
1.18573e-05
1.18572e-05
1.1858e-05
1.18576e-05
1.18581e-05
1.18569e-05
1.18593e-05
1.18603e-05
1.1857e-05
1.18577e-05
1.18573e-05
1.1857e-05
1.1857e-05
1.1857e-05
1.1857e-05
1.18571e-05
1.1857e-05
1.18577e-05
1.18591e-05
1.18691e-05
1.18583e-05
1.18729e-05
1.18644e-05
1.1858e-05
1.18576e-05
1.1857e-05
1.18589e-05
1.1857e-05
1.18575e-05
1.18575e-05
1.18572e-05
1.18603e-05
1.18585e-05
1.18595e-05
1.18585e-05
1.18571e-05
1.18588e-05
1.1857e-05
1.18569e-05
1.18568e-05
1.1857e-05
1.18589e-05
2.4037e-05
1.66822e-05
1.18568e-05
1.19122e-05
1.1858e-05
1.18674e-05
1.19404e-05
1.18569e-05
1.18649e-05
1.18569e-05
1.18642e-05
1.18641e-05
1.1858e-05
1.18578e-05
1.18596e-05
1.21101e-05
1.18578e-05
1.18575e-05
1.18581e-05
1.18583e-05
1.18571e-05
1.21684e-05
1.18584e-05
1.18573e-05
1.23568e-05
1.18583e-05
1.18626e-05
1.18583e-05
1.18574e-05
1.20552e-05
1.1858e-05
1.1858e-05
1.18568e-05
1.18568e-05
1.18591e-05
1.18603e-05
1.199e-05
1.19662e-05
1.18568e-05
1.18568e-05
1.18566e-05
1.18567e-05
1.18599e-05
1.18601e-05
1.18581e-05
1.18577e-05
1.18584e-05
1.18638e-05
1.18579e-05
1.18576e-05
1.18615e-05
1.18675e-05
1.18646e-05
4.87476e-05
1.18602e-05
5.22129e-05
1.18611e-05
1.18581e-05
1.18588e-05
4.57467e-05
4.7391e-05
5.25661e-05
5.5025e-05
2.0863e-05
2.40405e-05
1.18615e-05
1.18701e-05
2.39748e-05
1.18654e-05
1.18569e-05
1.18612e-05
1.49094e-05
1.43573e-05
1.20248e-05
1.18579e-05
1.18711e-05
1.33995e-05
1.18637e-05
1.1857e-05
1.18583e-05
1.18573e-05
1.21647e-05
1.1863e-05
1.18697e-05
1.1969e-05
1.18606e-05
1.18599e-05
1.18567e-05
1.18746e-05
1.18683e-05
1.1857e-05
1.18589e-05
1.18584e-05
1.18589e-05
1.2052e-05
1.18592e-05
1.19201e-05
1.18597e-05
1.18578e-05
1.18572e-05
1.18569e-05
1.18597e-05
1.18569e-05
1.18589e-05
1.1857e-05
1.18705e-05
1.18583e-05
1.18572e-05
1.1857e-05
1.18576e-05
1.18595e-05
1.18637e-05
1.18579e-05
1.18578e-05
1.18573e-05
1.1857e-05
1.18573e-05
4.3716e-05
4.19617e-05
1.18578e-05
1.18579e-05
1.18589e-05
1.18582e-05
1.1859e-05
1.18778e-05
1.18577e-05
1.1862e-05
1.18574e-05
1.18586e-05
1.18604e-05
1.18592e-05
1.18578e-05
1.18572e-05
1.18596e-05
1.1857e-05
1.18588e-05
1.18575e-05
1.18604e-05
1.18569e-05
1.18602e-05
1.18898e-05
1.18598e-05
1.18567e-05
1.18569e-05
5.5895e-05
1.18624e-05
1.18679e-05
1.1858e-05
1.18571e-05
1.18585e-05
1.18618e-05
1.18569e-05
1.18654e-05
2.47581e-05
1.18596e-05
2.42521e-05
1.18704e-05
1.18574e-05
1.18757e-05
1.18579e-05
1.1861e-05
1.1859e-05
1.18568e-05
1.18579e-05
1.1857e-05
1.18568e-05
1.18574e-05
1.18639e-05
1.18685e-05
1.18579e-05
1.1857e-05
1.18579e-05
1.18702e-05
1.18583e-05
1.19656e-05
1.1857e-05
1.18628e-05
1.1857e-05
1.23766e-05
1.21568e-05
1.18576e-05
1.23286e-05
1.18573e-05
1.18571e-05
1.18571e-05
1.2279e-05
1.23273e-05
1.18596e-05
1.1857e-05
1.18582e-05
1.18572e-05
1.1861e-05
1.18569e-05
1.18582e-05
1.1858e-05
1.18639e-05
1.18569e-05
1.18581e-05
1.18571e-05
1.30658e-05
1.18579e-05
1.1857e-05
1.1858e-05
1.1857e-05
1.18579e-05
1.18609e-05
1.18573e-05
3.69964e-05
1.69934e-05
1.1898e-05
1.97399e-05
1.1857e-05
1.18583e-05
1.18778e-05
1.18583e-05
1.18575e-05
3.5424e-05
1.18679e-05
5.44393e-05
5.53383e-05
3.39596e-05
1.64388e-05
3.39696e-05
1.1857e-05
3.42508e-05
1.186e-05
2.25075e-05
5.64251e-05
2.14339e-05
4.16696e-05
1.27672e-05
1.18626e-05
1.18581e-05
1.18661e-05
1.23134e-05
1.18569e-05
1.18596e-05
1.18608e-05
1.18566e-05
1.18577e-05
1.28883e-05
1.18573e-05
1.3626e-05
1.18571e-05
1.18569e-05
3.8245e-05
1.18725e-05
1.18569e-05
1.21983e-05
1.18575e-05
1.18676e-05
1.18604e-05
1.18604e-05
1.18583e-05
1.18573e-05
1.18572e-05
1.18571e-05
1.18573e-05
3.966e-05
1.20032e-05
3.9288e-05
1.18607e-05
1.18571e-05
1.18567e-05
1.18569e-05
1.18572e-05
1.18585e-05
1.30606e-05
1.18567e-05
1.18568e-05
1.18621e-05
1.18571e-05
1.18633e-05
1.18661e-05
1.18598e-05
1.27102e-05
1.18569e-05
1.19474e-05
1.18652e-05
1.18606e-05
1.18647e-05
1.41824e-05
1.18653e-05
1.18576e-05
1.18569e-05
1.18653e-05
1.18594e-05
1.18601e-05
1.18616e-05
1.1874e-05
1.18567e-05
1.20746e-05
1.18603e-05
1.18614e-05
1.18577e-05
1.18579e-05
1.18576e-05
1.18574e-05
1.1857e-05
1.18581e-05
1.18582e-05
1.18578e-05
1.18588e-05
1.18589e-05
1.18582e-05
1.18583e-05
1.18578e-05
1.18571e-05
1.18587e-05
1.18569e-05
1.18573e-05
1.18581e-05
1.18626e-05
1.18706e-05
1.18586e-05
1.18571e-05
1.1859e-05
1.1857e-05
1.1857e-05
1.18601e-05
1.18569e-05
1.18588e-05
1.18669e-05
1.18574e-05
1.18652e-05
1.2014e-05
1.18577e-05
1.18587e-05
1.18576e-05
1.18681e-05
1.18973e-05
1.18575e-05
1.18772e-05
1.22104e-05
1.1859e-05
1.18652e-05
1.18631e-05
1.1857e-05
1.18587e-05
1.18581e-05
1.18689e-05
1.18604e-05
1.18625e-05
1.18681e-05
1.18574e-05
1.1862e-05
1.1857e-05
1.18587e-05
1.18909e-05
1.1865e-05
1.18776e-05
1.18576e-05
1.18581e-05
1.18605e-05
1.18608e-05
1.1857e-05
1.18818e-05
1.18568e-05
1.18578e-05
1.18613e-05
1.18725e-05
1.18585e-05
1.18766e-05
1.18596e-05
1.18646e-05
1.18591e-05
1.18686e-05
1.18567e-05
1.18621e-05
1.18568e-05
1.18632e-05
1.18604e-05
1.1857e-05
1.18568e-05
1.18613e-05
1.18692e-05
1.18609e-05
1.18573e-05
1.18569e-05
1.18747e-05
1.18566e-05
1.18597e-05
1.18576e-05
1.18592e-05
1.1873e-05
1.18665e-05
1.18585e-05
1.18614e-05
1.18655e-05
1.18569e-05
1.18842e-05
1.18641e-05
1.18613e-05
1.18592e-05
1.18731e-05
1.18569e-05
1.18592e-05
1.18757e-05
1.18631e-05
1.18569e-05
1.18569e-05
1.18569e-05
1.18572e-05
1.18702e-05
1.1857e-05
1.18573e-05
1.18569e-05
1.18586e-05
1.1857e-05
1.18566e-05
1.18588e-05
1.18729e-05
1.18576e-05
1.18672e-05
1.18582e-05
1.18592e-05
1.18601e-05
1.23201e-05
1.1858e-05
1.18563e-05
1.18571e-05
1.18657e-05
1.18571e-05
1.18603e-05
1.18568e-05
1.20641e-05
1.18569e-05
1.18605e-05
1.18589e-05
1.18579e-05
1.2082e-05
1.18581e-05
1.18565e-05
4.91231e-05
1.18663e-05
1.18611e-05
4.88455e-05
4.63451e-05
4.61875e-05
1.18608e-05
1.18585e-05
1.18675e-05
1.18655e-05
2.37173e-05
1.88864e-05
1.18624e-05
1.18635e-05
1.18711e-05
2.39391e-05
4.24592e-05
1.18575e-05
5.39217e-05
1.1871e-05
1.18574e-05
1.18652e-05
2.51878e-05
1.18572e-05
1.33901e-05
1.18696e-05
4.30631e-05
1.18586e-05
1.38581e-05
1.20309e-05
1.18641e-05
1.18615e-05
1.18566e-05
1.18773e-05
1.18692e-05
1.20527e-05
1.18568e-05
1.19692e-05
1.18597e-05
1.18595e-05
1.18579e-05
1.18575e-05
1.18578e-05
1.18585e-05
1.18622e-05
1.18705e-05
5.44989e-05
1.1863e-05
1.19017e-05
1.18601e-05
1.18599e-05
1.18951e-05
1.18579e-05
1.18578e-05
1.18601e-05
1.18603e-05
1.18566e-05
1.18568e-05
1.18583e-05
1.18598e-05
3.85018e-05
1.18572e-05
1.18622e-05
1.18598e-05
1.18598e-05
1.18578e-05
1.18568e-05
1.18569e-05
1.18679e-05
1.18633e-05
1.1865e-05
1.1857e-05
1.18638e-05
1.18589e-05
1.18564e-05
1.18572e-05
1.18606e-05
1.18673e-05
1.18598e-05
1.18567e-05
1.18571e-05
1.18565e-05
1.1858e-05
1.18592e-05
1.18563e-05
1.18586e-05
1.18617e-05
1.18587e-05
1.4056e-05
1.18584e-05
1.18577e-05
1.18749e-05
1.18576e-05
1.18564e-05
1.18568e-05
1.236e-05
1.21985e-05
1.22016e-05
1.18662e-05
1.2251e-05
1.18563e-05
1.18573e-05
1.18604e-05
3.93213e-05
1.18573e-05
1.24413e-05
1.18573e-05
1.18571e-05
1.26354e-05
1.18581e-05
3.1063e-05
1.18581e-05
2.07991e-05
2.38193e-05
1.18587e-05
1.18849e-05
3.31595e-05
3.22001e-05
2.07485e-05
1.18571e-05
1.18581e-05
1.18578e-05
1.18582e-05
1.26043e-05
5.27508e-05
1.1857e-05
1.31985e-05
1.18601e-05
1.18697e-05
1.18589e-05
1.18588e-05
5.29414e-05
4.27324e-05
1.18624e-05
1.24373e-05
1.18573e-05
3.12076e-05
1.1857e-05
1.18609e-05
1.18661e-05
3.30487e-05
1.22319e-05
3.53176e-05
1.1857e-05
1.18575e-05
1.18601e-05
1.20482e-05
1.19983e-05
1.1858e-05
1.18587e-05
1.18636e-05
1.18564e-05
1.18719e-05
1.29499e-05
1.18622e-05
1.18565e-05
1.29665e-05
1.18562e-05
1.18571e-05
1.1857e-05
1.18595e-05
1.18585e-05
1.18581e-05
1.1858e-05
1.18579e-05
1.18587e-05
1.1857e-05
1.18569e-05
1.18618e-05
1.18566e-05
1.18653e-05
1.18573e-05
1.18579e-05
1.18578e-05
1.19048e-05
1.18625e-05
1.18767e-05
1.18578e-05
1.1858e-05
1.18569e-05
1.18575e-05
1.18573e-05
1.18568e-05
1.18675e-05
1.18582e-05
1.18676e-05
1.18613e-05
1.18569e-05
1.20321e-05
1.20317e-05
1.18696e-05
1.18569e-05
1.1862e-05
1.18694e-05
1.1859e-05
1.18579e-05
1.18577e-05
1.18568e-05
1.18605e-05
1.18577e-05
1.18568e-05
1.18596e-05
1.18606e-05
1.18643e-05
1.18782e-05
1.18708e-05
1.18588e-05
1.18595e-05
1.18565e-05
1.18807e-05
1.18734e-05
1.18581e-05
1.1857e-05
1.18574e-05
1.186e-05
1.1859e-05
1.18566e-05
1.18632e-05
1.18621e-05
1.18599e-05
1.18566e-05
1.18714e-05
1.18567e-05
1.18567e-05
1.18635e-05
1.18737e-05
1.18713e-05
1.18706e-05
1.18638e-05
1.18565e-05
1.18673e-05
1.18618e-05
1.18614e-05
1.18596e-05
1.1857e-05
1.18892e-05
1.1862e-05
1.18672e-05
1.18602e-05
1.18606e-05
1.18564e-05
1.18592e-05
1.18608e-05
1.18569e-05
1.18765e-05
1.18582e-05
1.18692e-05
1.1861e-05
1.18691e-05
1.18572e-05
1.18566e-05
1.18694e-05
1.18632e-05
1.18608e-05
1.18573e-05
1.18566e-05
1.18631e-05
1.18569e-05
1.18579e-05
1.18571e-05
1.18566e-05
1.18746e-05
1.1864e-05
1.18623e-05
1.18599e-05
1.18648e-05
1.18571e-05
1.18591e-05
1.18626e-05
1.18607e-05
1.18573e-05
1.1857e-05
1.18571e-05
1.18578e-05
1.18766e-05
1.18602e-05
1.18571e-05
1.18582e-05
1.18616e-05
1.18866e-05
1.18793e-05
1.18586e-05
1.18564e-05
1.18576e-05
1.18597e-05
1.1857e-05
1.18692e-05
1.18571e-05
1.18614e-05
1.18681e-05
1.18593e-05
1.18617e-05
1.18586e-05
1.1857e-05
1.18569e-05
1.18562e-05
1.18565e-05
1.18571e-05
1.18584e-05
1.18578e-05
1.18594e-05
1.18692e-05
1.18561e-05
1.18569e-05
1.18569e-05
1.18557e-05
1.18561e-05
1.18599e-05
1.18642e-05
1.18705e-05
1.18783e-05
1.60142e-05
1.87698e-05
2.07288e-05
1.52407e-05
1.18603e-05
1.18575e-05
1.18569e-05
1.18574e-05
1.1857e-05
1.18585e-05
1.18578e-05
1.18572e-05
1.18588e-05
1.18577e-05
1.18569e-05
1.18569e-05
1.18586e-05
1.18585e-05
1.1857e-05
1.1857e-05
1.1857e-05
1.18569e-05
1.18578e-05
1.18567e-05
1.18613e-05
1.18598e-05
1.18572e-05
1.18783e-05
1.18597e-05
1.36019e-05
1.18582e-05
1.18738e-05
1.19782e-05
1.18587e-05
1.18686e-05
1.18607e-05
1.48401e-05
1.18611e-05
1.18567e-05
1.18583e-05
1.18795e-05
1.18665e-05
1.18787e-05
1.18636e-05
1.18777e-05
1.18751e-05
1.18642e-05
1.18685e-05
1.18574e-05
1.19315e-05
1.18689e-05
1.18571e-05
1.18701e-05
1.1857e-05
1.1864e-05
1.38558e-05
1.21264e-05
1.1883e-05
1.18601e-05
1.18569e-05
1.18675e-05
1.20065e-05
1.18602e-05
1.92677e-05
1.18595e-05
2.91779e-05
1.18567e-05
1.18712e-05
1.18599e-05
1.1857e-05
1.18569e-05
1.18589e-05
1.18584e-05
1.18623e-05
1.18603e-05
1.33006e-05
1.37853e-05
1.18615e-05
1.18618e-05
1.20353e-05
1.18568e-05
1.34164e-05
1.18603e-05
1.19625e-05
1.18642e-05
1.18573e-05
6.48e-05
6.9124e-05
1.18579e-05
1.18597e-05
1.18571e-05
6.19979e-05
6.98645e-05
7.16768e-05
1.1863e-05
5.88201e-05
1.18572e-05
1.18573e-05
1.18622e-05
7.16536e-05
5.78446e-05
1.18587e-05
6.85322e-05
5.47897e-05
1.1857e-05
1.18574e-05
1.18569e-05
7.19693e-05
1.18572e-05
1.18577e-05
7.15203e-05
1.1857e-05
6.0422e-05
1.18571e-05
1.18577e-05
1.18572e-05
6.41488e-05
5.52644e-05
6.17745e-05
1.18587e-05
1.1858e-05
1.18614e-05
5.26365e-05
7.09243e-05
6.92416e-05
5.95637e-05
5.67307e-05
1.18572e-05
1.18578e-05
6.59292e-05
1.18578e-05
1.18575e-05
5.49767e-05
5.61153e-05
6.25506e-05
1.18572e-05
6.06517e-05
1.1857e-05
1.21595e-05
1.18584e-05
1.18583e-05
1.18566e-05
1.18572e-05
1.18653e-05
1.18569e-05
1.18678e-05
1.18686e-05
1.18727e-05
1.34486e-05
1.37985e-05
1.18594e-05
1.18586e-05
1.20891e-05
1.18621e-05
1.18661e-05
5.01634e-05
1.18579e-05
1.18572e-05
4.69116e-05
1.18569e-05
1.20467e-05
1.1859e-05
1.18568e-05
1.18568e-05
1.18583e-05
1.18611e-05
1.18582e-05
1.18579e-05
1.1858e-05
1.18593e-05
1.18595e-05
1.18575e-05
1.1862e-05
1.18619e-05
1.18581e-05
1.18582e-05
1.18581e-05
1.18708e-05
1.18576e-05
1.18571e-05
1.18574e-05
1.18574e-05
1.18575e-05
1.18604e-05
1.18574e-05
1.18577e-05
1.18578e-05
1.18577e-05
1.18605e-05
1.19115e-05
1.18587e-05
1.18567e-05
1.18603e-05
1.18568e-05
1.4296e-05
3.11251e-05
1.18575e-05
1.1857e-05
1.23611e-05
3.20329e-05
1.18571e-05
1.45699e-05
1.25666e-05
1.18572e-05
1.18586e-05
1.1857e-05
1.18578e-05
1.1858e-05
1.18579e-05
1.1857e-05
1.18594e-05
1.18571e-05
1.18571e-05
1.18575e-05
1.18593e-05
1.18571e-05
1.18656e-05
1.18672e-05
1.18569e-05
1.18992e-05
1.18591e-05
1.18568e-05
1.18653e-05
1.18602e-05
1.1866e-05
1.22087e-05
1.53407e-05
1.18576e-05
1.18605e-05
1.18571e-05
1.18574e-05
1.18575e-05
1.1861e-05
1.18573e-05
1.18575e-05
1.18585e-05
1.18581e-05
1.18562e-05
1.18586e-05
1.18624e-05
1.18587e-05
1.1857e-05
1.18568e-05
1.18609e-05
1.18592e-05
1.1862e-05
1.18623e-05
1.18593e-05
1.18594e-05
1.18651e-05
1.18559e-05
1.18612e-05
1.1863e-05
1.18596e-05
1.18576e-05
1.18642e-05
1.18566e-05
1.18608e-05
1.1859e-05
1.1857e-05
1.18796e-05
1.18634e-05
1.18603e-05
1.18627e-05
1.18775e-05
1.18561e-05
1.18589e-05
1.18607e-05
1.18652e-05
1.1869e-05
1.18782e-05
1.1858e-05
1.18631e-05
1.18576e-05
1.18593e-05
1.18612e-05
1.18691e-05
1.18676e-05
1.1859e-05
1.18681e-05
1.18573e-05
1.18587e-05
1.18631e-05
1.18717e-05
1.18576e-05
1.18736e-05
1.18626e-05
1.18628e-05
1.18572e-05
1.18688e-05
1.18701e-05
1.18731e-05
1.18575e-05
1.18637e-05
1.1857e-05
1.18601e-05
1.18568e-05
1.18639e-05
1.18576e-05
1.18571e-05
1.18577e-05
1.18563e-05
1.18692e-05
1.18574e-05
1.18569e-05
1.18666e-05
1.18738e-05
1.18578e-05
1.18584e-05
1.18569e-05
1.18753e-05
1.18564e-05
1.18563e-05
1.1858e-05
1.18583e-05
1.18577e-05
1.18646e-05
1.18623e-05
1.18582e-05
1.189e-05
1.18599e-05
1.18578e-05
1.18682e-05
1.18598e-05
1.18614e-05
1.18566e-05
1.18732e-05
1.18588e-05
1.18611e-05
1.19151e-05
1.18558e-05
1.18569e-05
1.18593e-05
1.18568e-05
1.18572e-05
1.18586e-05
1.18563e-05
1.18632e-05
1.18571e-05
1.18574e-05
1.18683e-05
1.18602e-05
1.18569e-05
1.18638e-05
1.18621e-05
1.1866e-05
1.18582e-05
1.18584e-05
1.18623e-05
1.18607e-05
1.1863e-05
1.18644e-05
1.18737e-05
1.18689e-05
1.18674e-05
1.18581e-05
1.18588e-05
1.18703e-05
1.18599e-05
1.18574e-05
1.18591e-05
1.18839e-05
1.18595e-05
1.18606e-05
1.18594e-05
1.18647e-05
1.18631e-05
1.18626e-05
1.18672e-05
1.1857e-05
1.1862e-05
1.18588e-05
1.18948e-05
1.18605e-05
1.1861e-05
1.18595e-05
1.18614e-05
1.18629e-05
1.18616e-05
1.18581e-05
1.18594e-05
1.18576e-05
1.18569e-05
1.1859e-05
1.18569e-05
1.18575e-05
1.186e-05
1.1859e-05
1.18619e-05
1.18564e-05
1.18585e-05
1.18572e-05
1.18599e-05
1.18575e-05
1.18582e-05
1.18568e-05
1.18705e-05
1.19834e-05
1.18581e-05
1.18661e-05
1.18603e-05
1.18634e-05
1.18652e-05
1.1925e-05
1.18574e-05
1.18731e-05
1.18626e-05
1.18606e-05
1.18665e-05
1.18661e-05
1.2941e-05
1.18803e-05
1.19046e-05
1.18569e-05
1.18606e-05
1.18571e-05
1.1857e-05
1.18583e-05
1.1864e-05
1.18688e-05
1.25642e-05
1.18618e-05
1.18706e-05
1.1861e-05
1.18726e-05
1.18604e-05
1.18584e-05
1.18658e-05
1.18648e-05
1.18589e-05
1.18591e-05
1.18573e-05
1.18721e-05
1.23031e-05
1.18641e-05
1.18716e-05
1.18573e-05
1.18581e-05
1.18641e-05
1.18593e-05
1.18597e-05
1.18584e-05
1.18567e-05
1.23887e-05
1.18678e-05
1.18569e-05
1.18576e-05
1.18573e-05
1.18662e-05
1.18588e-05
1.18598e-05
1.18657e-05
1.20582e-05
1.18671e-05
1.18716e-05
1.18654e-05
1.18573e-05
1.18589e-05
1.18595e-05
1.18571e-05
1.19333e-05
1.18611e-05
1.1859e-05
1.1858e-05
1.1863e-05
1.1919e-05
1.18817e-05
1.1857e-05
1.19135e-05
1.18566e-05
1.19167e-05
1.18588e-05
1.18824e-05
1.18708e-05
1.18576e-05
1.18575e-05
1.18585e-05
1.18623e-05
1.18653e-05
1.1857e-05
1.18845e-05
1.1857e-05
1.18571e-05
1.18585e-05
1.18652e-05
1.18729e-05
1.25898e-05
1.18845e-05
1.18591e-05
1.18585e-05
1.18832e-05
1.57002e-05
2.40264e-05
1.18577e-05
1.18569e-05
1.18568e-05
1.1857e-05
1.18591e-05
1.18567e-05
1.18569e-05
1.18575e-05
1.18595e-05
1.19561e-05
6.79644e-05
1.18568e-05
1.18565e-05
1.18597e-05
1.35594e-05
1.61258e-05
1.18608e-05
1.18576e-05
2.3034e-05
1.18609e-05
1.18606e-05
1.18577e-05
1.37151e-05
1.18575e-05
1.18599e-05
1.36735e-05
2.63202e-05
4.6109e-05
1.18582e-05
5.6087e-05
1.82281e-05
1.1874e-05
4.827e-05
1.18702e-05
2.66001e-05
4.58894e-05
1.56887e-05
2.97279e-05
2.91915e-05
1.18844e-05
1.79808e-05
1.2102e-05
3.00162e-05
1.18573e-05
1.29883e-05
1.45455e-05
1.94133e-05
1.18645e-05
1.1861e-05
1.18575e-05
1.1866e-05
1.18572e-05
4.3077e-05
3.17967e-05
1.18582e-05
1.18575e-05
1.18605e-05
1.30759e-05
1.65363e-05
1.18636e-05
1.18588e-05
1.67116e-05
1.1864e-05
1.18603e-05
3.26161e-05
1.18756e-05
1.18577e-05
1.1857e-05
1.74035e-05
1.66377e-05
1.186e-05
1.1868e-05
1.43179e-05
1.18702e-05
1.35507e-05
1.18647e-05
1.25704e-05
1.18581e-05
1.18697e-05
1.19714e-05
1.206e-05
1.18574e-05
1.18616e-05
1.4353e-05
1.18585e-05
1.18674e-05
1.18573e-05
1.18586e-05
1.18577e-05
1.18564e-05
1.18566e-05
1.18571e-05
1.18572e-05
1.18606e-05
2.1291e-05
1.18598e-05
1.18649e-05
1.18672e-05
1.64737e-05
1.1857e-05
1.18587e-05
1.18572e-05
1.186e-05
1.18568e-05
1.1857e-05
1.19575e-05
1.18574e-05
1.18618e-05
1.18575e-05
1.18584e-05
1.18576e-05
1.18586e-05
1.18589e-05
1.18579e-05
1.18721e-05
1.34079e-05
1.18602e-05
1.18822e-05
1.26136e-05
1.186e-05
1.18572e-05
1.18581e-05
1.1884e-05
2.00654e-05
1.96271e-05
1.18584e-05
1.18577e-05
1.18572e-05
1.18584e-05
1.18602e-05
1.18576e-05
1.30813e-05
1.18632e-05
1.18635e-05
1.1859e-05
1.18577e-05
1.18598e-05
1.18582e-05
1.18669e-05
1.18589e-05
2.10986e-05
1.18574e-05
1.1858e-05
1.18595e-05
1.18897e-05
1.18581e-05
1.18601e-05
1.27534e-05
1.25074e-05
1.19232e-05
1.18594e-05
1.18572e-05
1.18602e-05
1.54711e-05
2.62076e-05
1.18621e-05
1.18577e-05
1.18578e-05
1.18569e-05
1.18569e-05
1.1884e-05
1.18572e-05
1.18695e-05
1.18584e-05
1.18823e-05
1.18574e-05
1.18571e-05
1.18815e-05
1.18569e-05
1.18595e-05
1.18574e-05
1.18582e-05
1.18572e-05
1.18578e-05
1.18597e-05
1.18579e-05
1.1857e-05
1.18582e-05
1.18596e-05
1.18577e-05
1.18572e-05
1.18585e-05
1.1857e-05
1.18576e-05
1.18576e-05
1.1861e-05
1.18608e-05
1.18591e-05
1.18596e-05
1.18602e-05
1.18569e-05
1.1859e-05
1.18573e-05
1.18586e-05
1.1861e-05
1.18593e-05
1.18581e-05
1.18571e-05
1.18582e-05
1.1857e-05
1.18609e-05
1.18572e-05
1.18586e-05
1.18584e-05
1.18572e-05
1.18582e-05
1.18586e-05
1.1857e-05
1.18606e-05
1.18574e-05
1.18586e-05
1.18598e-05
1.18572e-05
1.1857e-05
1.18584e-05
1.18605e-05
1.18571e-05
1.18578e-05
1.18575e-05
1.18585e-05
1.18581e-05
1.18582e-05
1.1858e-05
2.56922e-05
1.18579e-05
1.18569e-05
1.19719e-05
1.1858e-05
1.18587e-05
1.18663e-05
1.18577e-05
1.18669e-05
1.1857e-05
1.18575e-05
1.18649e-05
1.18593e-05
1.20035e-05
1.19162e-05
1.18577e-05
1.20319e-05
1.18581e-05
1.1859e-05
1.18575e-05
1.18573e-05
1.18724e-05
1.18572e-05
1.18685e-05
1.18621e-05
1.18659e-05
1.18733e-05
1.18568e-05
1.18568e-05
1.1858e-05
1.1864e-05
1.18603e-05
1.18594e-05
1.18578e-05
1.18568e-05
1.18584e-05
1.18604e-05
1.18598e-05
1.18566e-05
1.18582e-05
1.18611e-05
1.18601e-05
1.18593e-05
1.1857e-05
1.1862e-05
1.18576e-05
1.18561e-05
1.18585e-05
1.18579e-05
1.18649e-05
2.05844e-05
1.18645e-05
1.18579e-05
1.1873e-05
1.18615e-05
1.18571e-05
1.18583e-05
1.18567e-05
1.18588e-05
4.6344e-05
1.18618e-05
1.18573e-05
1.18705e-05
1.18561e-05
1.1867e-05
1.18736e-05
1.18647e-05
3.31236e-05
1.18616e-05
1.18596e-05
1.18636e-05
1.18579e-05
1.18613e-05
1.1869e-05
1.18555e-05
1.18656e-05
1.26084e-05
1.18645e-05
1.18639e-05
1.18581e-05
6.33004e-05
1.1857e-05
1.18576e-05
2.48175e-05
1.18575e-05
1.30656e-05
1.18609e-05
1.18943e-05
1.18644e-05
1.18587e-05
1.18581e-05
1.18867e-05
1.18575e-05
1.18809e-05
1.18626e-05
1.18584e-05
1.18609e-05
1.18584e-05
1.18608e-05
1.18589e-05
1.18968e-05
1.18937e-05
1.18652e-05
1.18572e-05
1.19812e-05
1.18751e-05
1.18648e-05
1.18693e-05
1.18591e-05
1.18571e-05
1.18591e-05
1.18607e-05
1.1943e-05
1.18677e-05
1.18597e-05
1.18584e-05
1.18601e-05
1.18567e-05
1.18583e-05
1.1858e-05
1.18607e-05
1.19038e-05
1.18584e-05
1.18608e-05
1.18589e-05
1.1859e-05
1.18569e-05
1.18601e-05
1.18578e-05
1.18635e-05
1.18583e-05
1.18586e-05
1.18573e-05
1.18743e-05
1.18567e-05
1.18586e-05
1.18591e-05
1.19609e-05
1.18603e-05
1.18587e-05
1.18587e-05
1.18577e-05
1.18858e-05
1.18599e-05
1.20964e-05
1.18579e-05
1.19568e-05
1.18601e-05
1.18673e-05
1.18623e-05
1.18568e-05
1.18571e-05
1.186e-05
1.20486e-05
1.18601e-05
1.18573e-05
1.18576e-05
1.18573e-05
1.1859e-05
1.18578e-05
1.1857e-05
1.18587e-05
1.18576e-05
1.22351e-05
1.27352e-05
1.18573e-05
1.18576e-05
1.18581e-05
1.18569e-05
1.18586e-05
1.18577e-05
1.18577e-05
1.18573e-05
1.18572e-05
1.2629e-05
1.18576e-05
3.01266e-05
1.18608e-05
1.18575e-05
1.18578e-05
1.21179e-05
1.18608e-05
1.27376e-05
1.18569e-05
1.18573e-05
1.18578e-05
1.18594e-05
3.63176e-05
1.18596e-05
1.18584e-05
1.18578e-05
1.24014e-05
1.18576e-05
1.18576e-05
1.18603e-05
1.18583e-05
1.1858e-05
1.18577e-05
1.18571e-05
1.18651e-05
1.18584e-05
1.18655e-05
1.18574e-05
1.18579e-05
6.81432e-05
1.18613e-05
4.5843e-05
1.18583e-05
1.18586e-05
1.18622e-05
1.18569e-05
1.18581e-05
1.18584e-05
1.18566e-05
1.18569e-05
1.18581e-05
1.18619e-05
1.18568e-05
1.18671e-05
1.1857e-05
1.18575e-05
1.18677e-05
1.18578e-05
1.18573e-05
1.18575e-05
1.1862e-05
1.18578e-05
1.18665e-05
1.18584e-05
1.18656e-05
1.18804e-05
1.1859e-05
1.18581e-05
1.18589e-05
1.24565e-05
1.18576e-05
6.57175e-05
1.18573e-05
2.9788e-05
1.18579e-05
1.18576e-05
1.18572e-05
1.508e-05
1.18585e-05
4.65904e-05
1.18574e-05
3.33081e-05
1.18571e-05
1.9676e-05
3.25417e-05
1.8924e-05
1.36623e-05
1.18692e-05
1.18735e-05
4.14379e-05
1.18668e-05
1.18678e-05
5.29873e-05
1.1865e-05
1.18701e-05
4.03574e-05
1.18623e-05
3.20488e-05
3.543e-05
1.18586e-05
1.18702e-05
1.18595e-05
3.75757e-05
1.18656e-05
2.15489e-05
1.18589e-05
6.66397e-05
1.18578e-05
3.49552e-05
1.18601e-05
1.19807e-05
1.18598e-05
1.18566e-05
1.1857e-05
1.18578e-05
1.18584e-05
1.18596e-05
1.18703e-05
1.18837e-05
1.18608e-05
1.19198e-05
1.18569e-05
1.18582e-05
1.18589e-05
1.8197e-05
1.32471e-05
1.18574e-05
1.18576e-05
6.4799e-05
7.00807e-05
1.1857e-05
1.18573e-05
7.07451e-05
7.9852e-05
1.18571e-05
1.18569e-05
6.79393e-05
7.3985e-05
1.18572e-05
6.86502e-05
8.04757e-05
1.1857e-05
1.18575e-05
1.18569e-05
8.18237e-05
7.80874e-05
1.18592e-05
8.36803e-05
1.18579e-05
8.10841e-05
1.1857e-05
1.18574e-05
6.54402e-05
7.28007e-05
7.07907e-05
1.18574e-05
1.18576e-05
7.19807e-05
7.12997e-05
1.18569e-05
6.84878e-05
1.18569e-05
6.85687e-05
1.18569e-05
1.18569e-05
6.72596e-05
6.5777e-05
1.1857e-05
1.18569e-05
7.25988e-05
1.18573e-05
1.18569e-05
7.22315e-05
7.09857e-05
1.18571e-05
1.18571e-05
7.30398e-05
7.20887e-05
1.18575e-05
1.18573e-05
8.50886e-05
8.26176e-05
1.1857e-05
7.43827e-05
7.56448e-05
1.1857e-05
1.18581e-05
8.23422e-05
1.18573e-05
8.16414e-05
8.2799e-05
1.18572e-05
1.18578e-05
8.36143e-05
1.18572e-05
8.03198e-05
1.18571e-05
7.9485e-05
7.82999e-05
1.18571e-05
1.1857e-05
7.68366e-05
1.28144e-05
1.18743e-05
1.18622e-05
1.27187e-05
1.18672e-05
1.18613e-05
1.18574e-05
1.18796e-05
1.18854e-05
1.18698e-05
1.18593e-05
1.93847e-05
1.45242e-05
1.19227e-05
1.18587e-05
1.18615e-05
1.18575e-05
7.15928e-05
1.1857e-05
1.1857e-05
6.92144e-05
1.18572e-05
7.30256e-05
8.12163e-05
1.18577e-05
6.75561e-05
1.18577e-05
6.56195e-05
1.18569e-05
7.68177e-05
1.18569e-05
1.18573e-05
1.1857e-05
7.99993e-05
8.45611e-05
7.0952e-05
7.6466e-05
1.18577e-05
1.18572e-05
1.18574e-05
1.1857e-05
7.39415e-05
1.18582e-05
1.18578e-05
1.18576e-05
1.18574e-05
1.18569e-05
1.1857e-05
7.29699e-05
6.42255e-05
6.98988e-05
7.67193e-05
6.32539e-05
7.8834e-05
1.18569e-05
1.18576e-05
7.5909e-05
1.18569e-05
7.00616e-05
8.09817e-05
7.05824e-05
1.18579e-05
1.18573e-05
7.35806e-05
1.18569e-05
7.46858e-05
1.18571e-05
7.30146e-05
7.10986e-05
1.1857e-05
1.18604e-05
1.18577e-05
1.18598e-05
1.18684e-05
1.18624e-05
1.1856e-05
1.18663e-05
1.64118e-05
1.27558e-05
1.18617e-05
1.18573e-05
1.18637e-05
1.18637e-05
1.18831e-05
1.18647e-05
1.18569e-05
1.18632e-05
1.22706e-05
1.63889e-05
5.33699e-05
1.18572e-05
1.18575e-05
1.18574e-05
5.75005e-05
1.18574e-05
5.7397e-05
6.05279e-05
1.18594e-05
1.18595e-05
1.18608e-05
1.18583e-05
1.18569e-05
1.18582e-05
1.18605e-05
1.1857e-05
1.18585e-05
1.1858e-05
1.1857e-05
1.18573e-05
1.18574e-05
1.18614e-05
1.18622e-05
1.18569e-05
1.18568e-05
1.1857e-05
1.18581e-05
1.18582e-05
1.18571e-05
1.18571e-05
1.18586e-05
1.18614e-05
1.18575e-05
1.18573e-05
1.18593e-05
1.18575e-05
1.18598e-05
1.18597e-05
1.1858e-05
1.18608e-05
1.1857e-05
1.18591e-05
1.18569e-05
1.99851e-05
1.1864e-05
1.59378e-05
1.60382e-05
1.18587e-05
1.18572e-05
1.18579e-05
1.99269e-05
1.19649e-05
1.18573e-05
1.18571e-05
1.18611e-05
1.18601e-05
1.19172e-05
1.18568e-05
1.1857e-05
1.18569e-05
1.18578e-05
1.1857e-05
1.18587e-05
1.1857e-05
1.18569e-05
1.1857e-05
1.18572e-05
1.18569e-05
1.18601e-05
1.18579e-05
1.18588e-05
1.18586e-05
1.18574e-05
1.18576e-05
1.18584e-05
1.18581e-05
1.18591e-05
1.18574e-05
1.18577e-05
1.18582e-05
1.1858e-05
1.18593e-05
1.18593e-05
1.18595e-05
1.18571e-05
1.18579e-05
1.18572e-05
1.18597e-05
1.1858e-05
1.18583e-05
1.18571e-05
1.18565e-05
1.18568e-05
1.18589e-05
1.18653e-05
1.18591e-05
1.18592e-05
1.18613e-05
1.18571e-05
1.18647e-05
1.18565e-05
1.18629e-05
1.18641e-05
1.18641e-05
1.18639e-05
1.18627e-05
1.18588e-05
1.18591e-05
1.18656e-05
1.18631e-05
1.18614e-05
1.1861e-05
1.18622e-05
1.18627e-05
1.18697e-05
1.18614e-05
1.18645e-05
1.18636e-05
1.18617e-05
1.18653e-05
1.18656e-05
1.18665e-05
1.18602e-05
1.18577e-05
1.18651e-05
1.18632e-05
1.18808e-05
1.18571e-05
1.18712e-05
1.186e-05
1.18639e-05
1.18578e-05
1.18743e-05
1.18596e-05
1.1857e-05
1.18657e-05
1.1867e-05
1.18633e-05
1.18578e-05
1.18575e-05
1.18675e-05
1.18624e-05
1.18593e-05
1.18608e-05
1.18695e-05
1.18738e-05
1.18609e-05
1.1857e-05
1.18607e-05
1.18715e-05
1.18652e-05
1.18629e-05
1.18722e-05
1.18621e-05
1.18734e-05
1.18569e-05
1.18771e-05
1.18576e-05
1.18639e-05
1.18743e-05
1.18875e-05
1.18582e-05
1.18758e-05
1.18617e-05
1.18704e-05
1.1863e-05
1.18615e-05
1.18658e-05
1.18584e-05
1.18676e-05
1.18571e-05
1.18654e-05
1.18586e-05
1.18573e-05
1.18581e-05
1.18633e-05
1.18582e-05
1.18588e-05
1.18574e-05
1.18569e-05
1.18571e-05
1.18604e-05
1.18589e-05
1.18594e-05
1.18603e-05
1.18582e-05
1.18586e-05
1.1858e-05
1.18816e-05
1.18625e-05
1.18574e-05
1.18575e-05
1.18593e-05
1.18716e-05
1.18757e-05
1.18608e-05
1.18571e-05
1.18644e-05
1.18593e-05
1.18677e-05
1.18581e-05
1.18569e-05
1.18669e-05
1.18604e-05
1.18583e-05
1.18641e-05
1.18578e-05
1.18571e-05
1.18567e-05
1.18691e-05
1.18727e-05
1.18644e-05
1.18643e-05
1.18614e-05
1.18666e-05
1.18604e-05
1.18673e-05
1.18586e-05
1.18889e-05
1.18588e-05
1.18589e-05
1.186e-05
1.18574e-05
1.18611e-05
1.18561e-05
1.18603e-05
1.18587e-05
1.1862e-05
1.18622e-05
1.1859e-05
1.18857e-05
1.18589e-05
1.18568e-05
1.1857e-05
1.18638e-05
1.18652e-05
1.18598e-05
1.18597e-05
1.18569e-05
1.18566e-05
1.18751e-05
1.18604e-05
1.18697e-05
1.18616e-05
1.18619e-05
1.18602e-05
1.18568e-05
1.18625e-05
1.18586e-05
1.18742e-05
1.18566e-05
1.18721e-05
1.18614e-05
1.18608e-05
1.18604e-05
1.18742e-05
1.18639e-05
1.18568e-05
1.18642e-05
1.1867e-05
1.18756e-05
1.1872e-05
1.18711e-05
1.18625e-05
1.18594e-05
1.18627e-05
1.18564e-05
1.18615e-05
1.18574e-05
1.18582e-05
1.18635e-05
1.18564e-05
1.18745e-05
1.18668e-05
1.18566e-05
1.18567e-05
1.18584e-05
1.18574e-05
1.18787e-05
1.18569e-05
1.1863e-05
1.18594e-05
1.18619e-05
1.18563e-05
1.18593e-05
1.18575e-05
1.18566e-05
1.18632e-05
1.18643e-05
1.18655e-05
1.18566e-05
1.18581e-05
1.18636e-05
1.18603e-05
1.18559e-05
1.18639e-05
1.18604e-05
1.18639e-05
1.18568e-05
1.18586e-05
1.186e-05
1.18589e-05
1.18622e-05
1.18568e-05
1.18599e-05
1.18573e-05
1.18656e-05
1.18569e-05
1.18647e-05
1.18656e-05
1.18586e-05
1.18609e-05
1.18584e-05
1.18582e-05
1.18592e-05
1.18585e-05
1.18584e-05
1.18571e-05
1.18694e-05
1.18598e-05
1.18594e-05
1.18669e-05
1.1861e-05
1.18602e-05
1.18608e-05
1.18569e-05
1.18571e-05
1.19346e-05
1.18621e-05
1.18586e-05
1.18664e-05
1.18582e-05
1.18569e-05
1.19194e-05
1.1858e-05
1.186e-05
1.18598e-05
1.18601e-05
1.18643e-05
1.18615e-05
1.18577e-05
1.18648e-05
1.19093e-05
1.18617e-05
1.18626e-05
1.18652e-05
1.18624e-05
1.1872e-05
1.1861e-05
1.18654e-05
1.18603e-05
1.18753e-05
1.1867e-05
1.18577e-05
1.18697e-05
1.18689e-05
1.18613e-05
1.18572e-05
1.18815e-05
1.18704e-05
1.18755e-05
1.18641e-05
1.29582e-05
1.18581e-05
1.18635e-05
1.18615e-05
1.18651e-05
1.18714e-05
1.29334e-05
1.18608e-05
1.18672e-05
1.18663e-05
1.18653e-05
1.18663e-05
1.26918e-05
1.18639e-05
1.18733e-05
1.18697e-05
1.18576e-05
1.27127e-05
1.18616e-05
1.18613e-05
1.18576e-05
1.1857e-05
1.18612e-05
1.18594e-05
1.18642e-05
1.18765e-05
1.18567e-05
1.18588e-05
1.18614e-05
1.18573e-05
1.18606e-05
1.18665e-05
1.18619e-05
1.18666e-05
1.18637e-05
1.18593e-05
1.18609e-05
1.18675e-05
1.18639e-05
1.18631e-05
1.18574e-05
1.18621e-05
1.18669e-05
1.18569e-05
1.1857e-05
1.18666e-05
1.18572e-05
1.1875e-05
1.18662e-05
1.18625e-05
1.18603e-05
1.18686e-05
1.18599e-05
1.18588e-05
1.18591e-05
1.18573e-05
1.18573e-05
1.18596e-05
1.18568e-05
1.18562e-05
1.18851e-05
1.1859e-05
1.20121e-05
1.18669e-05
1.18775e-05
1.1857e-05
1.18665e-05
1.18596e-05
1.18582e-05
1.18643e-05
1.18618e-05
1.18568e-05
1.1857e-05
1.18656e-05
1.18581e-05
1.18627e-05
1.18599e-05
1.18988e-05
1.18602e-05
1.18606e-05
1.18568e-05
1.18569e-05
1.18722e-05
1.18677e-05
1.1866e-05
1.18575e-05
1.18567e-05
1.18632e-05
1.18721e-05
1.18599e-05
1.1862e-05
1.18571e-05
1.18814e-05
1.1864e-05
1.18573e-05
1.18581e-05
1.18586e-05
1.18568e-05
1.18573e-05
1.18595e-05
1.18733e-05
1.18568e-05
1.18693e-05
1.1857e-05
1.18566e-05
1.20035e-05
1.1861e-05
1.18571e-05