/*--------------------------------*- C++ -*----------------------------------*\
  =========                 |
  \\      /  F ield         | OpenFOAM: The Open Source CFD Toolbox
   \\    /   O peration     | Website:  https://openfoam.org
    \\  /    A nd           | Version:  6
     \\/     M anipulation  |
\*---------------------------------------------------------------------------*/
FoamFile
{
    version     2.0;
    format      ascii;
    class       surfaceVectorField;
    location    "1.63";
    object      rhoUf;
}
// * * * * * * * * * * * * * * * * * * * * * * * * * * * * * * * * * * * * * //

dimensions      [1 -2 -1 0 0 0 0];

internalField   nonuniform List<vector> 
11670
(
(-0.000138501 -1.401e-05 0.00015584)
(-0.0001628 -3.82959e-05 5.61012e-05)
(-0.00031017 -0.000111412 0.000250853)
(-0.000172857 -6.1215e-05 0.000259717)
(-1.8331e-08 -2.32771e-07 -2.49298e-07)
(2.75305e-08 8.72895e-08 -2.36899e-07)
(-2.15543e-07 2.50039e-07 -1.61116e-07)
(-1.2933e-07 2.14032e-09 -1.08529e-07)
(-0.000394138 -5.86868e-05 -0.000335341)
(-0.000503977 -9.54227e-05 -6.79864e-05)
(-0.000806618 -0.000159403 -0.000522259)
(-0.000447769 -0.000177082 -0.000505352)
(-3.51499e-06 -1.50705e-06 2.80032e-06)
(-3.67587e-06 -1.94323e-06 1.50774e-06)
(-6.58578e-06 -2.62679e-06 4.12022e-06)
(-4.53757e-06 -1.83161e-06 4.93919e-06)
(-4.08914e-05 -3.32965e-07 1.08436e-06)
(-3.26862e-05 1.14684e-06 -5.14626e-06)
(-3.6677e-05 6.62303e-07 1.42998e-06)
(-5.1299e-05 -3.04779e-06 -2.09018e-06)
(-3.43988e-08 9.25728e-08 -3.43572e-08)
(-3.27206e-08 7.16288e-08 -2.45652e-10)
(5.45737e-10 8.15991e-08 -4.77152e-09)
(-5.2336e-08 1.35552e-07 -2.04748e-08)
(-3.34527e-07 3.94704e-08 1.44024e-06)
(-6.9235e-07 9.32248e-08 1.1024e-06)
(-5.69996e-07 7.31194e-07 3.16617e-07)
(-4.9697e-07 9.66461e-08 6.5021e-07)
(1.19311e-07 -9.58864e-07 -9.90928e-07)
(-9.85854e-07 4.01799e-07 -9.34666e-07)
(-3.99136e-07 7.4194e-07 -7.24285e-08)
(-4.01412e-07 9.32969e-08 3.80918e-07)
(-1.60867e-07 -9.42808e-08 3.00082e-07)
(-1.65929e-07 9.06813e-08 2.01489e-07)
(-2.8062e-07 3.04365e-07 3.13874e-08)
(-1.68376e-07 -3.64556e-08 1.12848e-07)
(-1.324e-07 9.59187e-07 -1.1791e-06)
(-9.59985e-08 -3.76477e-08 -8.98748e-07)
(5.87591e-07 -6.43185e-07 -6.6632e-07)
(2.38763e-07 1.43679e-07 -2.80007e-07)
(-3.45231e-07 9.8934e-07 8.14353e-07)
(6.38083e-07 -4.69475e-07 -5.40818e-07)
(4.52914e-07 -1.03039e-06 -1.28443e-06)
(2.71491e-07 -1.74953e-07 -1.37945e-06)
(-7.38591e-05 -3.55303e-05 3.44153e-05)
(-6.71224e-06 -1.22117e-05 1.71627e-05)
(-1.51189e-05 -7.32483e-06 1.69829e-05)
(-1.66814e-05 -1.06646e-05 3.79848e-05)
(-8.30888e-09 4.18553e-08 -6.52366e-08)
(-6.70357e-10 -4.50617e-08 -9.38442e-08)
(1.05683e-08 2.81309e-08 -8.40513e-08)
(-2.12538e-09 1.58147e-08 -5.41031e-08)
(-2.12628e-08 -5.53731e-08 6.21529e-08)
(4.6212e-09 -1.19342e-07 6.73243e-08)
(-6.21208e-09 -6.74642e-08 3.73215e-08)
(-8.07987e-09 -6.16579e-08 6.47606e-08)
(-3.19523e-05 -6.74325e-06 -2.15377e-05)
(-9.15659e-05 -2.7916e-05 -5.22367e-05)
(-3.09274e-05 -1.2351e-05 -3.91929e-05)
(-2.33596e-05 -1.35604e-05 -2.02464e-05)
(-6.32008e-08 8.42542e-08 6.71896e-09)
(-2.20374e-08 -2.29795e-08 -1.20994e-08)
(-2.24047e-08 3.10231e-08 1.73655e-08)
(-2.37474e-08 4.8533e-08 1.77541e-08)
(-0.00110253 0.000824638 -0.00078084)
(-0.000441278 0.000222202 0.000105424)
(-0.000373357 0.000471901 -0.000363866)
(-0.00036069 0.000557622 -0.00034986)
(-0.0013866 -0.00101309 0.000909727)
(-0.000401855 -0.000255831 6.66394e-06)
(-0.000403047 -0.000512454 0.000354408)
(-0.000411936 -0.000472464 0.0005034)
(9.0022e-08 -1.19306e-07 6.94667e-08)
(1.11672e-07 -1.37802e-07 8.49898e-08)
(1.77438e-07 -2.39071e-07 1.47863e-07)
(1.50426e-07 -2.54253e-07 1.37533e-07)
(-4.95076e-08 1.60873e-08 -6.26987e-09)
(-3.3736e-08 -3.38419e-08 2.45426e-08)
(-5.35381e-09 -3.40227e-08 2.33858e-08)
(1.30516e-10 -2.67241e-08 2.58987e-08)
(-0.000662198 -0.000155931 4.62184e-05)
(-0.00144913 -0.000269432 -0.00108524)
(-0.000545313 -0.000396016 -0.000539363)
(-0.000472417 -0.000439284 -0.000447228)
(1.08301e-08 1.36061e-09 -1.35874e-08)
(3.58019e-08 -4.68625e-08 -6.24944e-09)
(3.25927e-08 -3.45315e-08 -2.7405e-08)
(3.05296e-08 -2.12359e-08 -2.53726e-08)
(-0.000495523 0.000136163 0.000123941)
(-0.00128779 0.000462555 0.00121791)
(-0.000371106 0.000602294 0.000393101)
(-0.000381063 0.000361547 0.000507767)
(-5.41877e-05 4.2687e-05 -2.58743e-05)
(-8.1169e-06 4.9569e-06 -1.0886e-05)
(-1.44338e-05 1.32528e-05 -2.44367e-05)
(-1.39292e-05 1.92899e-05 -1.28497e-05)
(-3.40472e-10 -7.18242e-09 6.35777e-09)
(-1.94468e-08 3.47198e-08 5.08149e-09)
(-1.72975e-10 1.92502e-08 1.92876e-08)
(2.77667e-10 1.20837e-09 2.10336e-08)
(-1.74912e-08 1.15423e-07 2.49419e-08)
(9.8258e-09 1.11944e-07 3.07637e-08)
(-7.10164e-09 8.14541e-08 2.13396e-08)
(-1.66054e-08 1.48842e-07 -3.47025e-09)
(-2.5204e-05 6.15045e-06 1.38793e-05)
(-7.60762e-05 5.13416e-05 4.01513e-05)
(-2.15947e-05 2.51205e-05 1.33081e-05)
(-2.60963e-05 1.44653e-05 2.86518e-05)
(-6.57264e-08 -9.64275e-08 5.37122e-08)
(-7.0909e-08 -5.15008e-08 5.31457e-08)
(-8.08719e-08 -8.24285e-08 9.15978e-08)
(-6.86085e-08 -6.67622e-08 7.74761e-08)
(-7.4777e-07 4.20859e-08 -6.36398e-07)
(-3.14741e-06 -1.14029e-06 1.85138e-06)
(-7.97295e-07 -1.25798e-07 2.499e-08)
(-8.50854e-07 -2.9484e-07 7.29526e-07)
(-5.63099e-08 2.12278e-08 1.89059e-07)
(-6.53941e-09 1.10051e-08 3.77665e-07)
(-2.052e-08 5.1522e-08 2.82914e-07)
(-5.78782e-08 8.14381e-08 5.69849e-07)
(-1.98927e-07 -7.58519e-08 3.09435e-07)
(-2.6603e-08 -1.32834e-07 4.20186e-07)
(-1.24455e-07 -5.64366e-09 1.98705e-07)
(-1.25532e-07 -2.14516e-08 2.73874e-07)
(-7.05421e-08 -5.06595e-08 -1.12776e-08)
(-1.34975e-07 2.74443e-08 -8.97575e-11)
(-1.04135e-07 2.26416e-08 4.10273e-08)
(-8.76649e-08 2.16119e-08 3.36727e-08)
(-7.30953e-08 1.31712e-08 -1.18108e-07)
(-5.95525e-08 -6.33784e-08 -9.64517e-09)
(-4.61948e-08 -1.23718e-08 -3.64915e-08)
(-6.48697e-08 -1.09289e-07 -7.24251e-08)
(-3.07385e-07 2.89867e-07 -1.60534e-07)
(-1.52283e-07 -2.55213e-07 -2.52055e-08)
(-1.91789e-07 -2.73121e-08 -1.14997e-07)
(-1.67445e-07 -8.76288e-08 -6.13325e-08)
(5.25713e-08 -2.59118e-07 -8.87538e-08)
(2.21339e-08 -1.46615e-07 -4.65213e-08)
(-2.42778e-08 -1.54652e-07 -3.57923e-08)
(-2.39984e-09 -2.61515e-07 1.10783e-09)
(-5.82489e-08 -2.32441e-07 1.13231e-07)
(-6.72479e-08 -1.49427e-07 6.44997e-08)
(-3.607e-08 -2.87853e-08 1.63073e-08)
(-5.21323e-08 -9.91994e-08 2.51994e-08)
(-8.74112e-08 1.26561e-07 1.18639e-07)
(-2.66709e-08 2.76246e-08 1.57967e-08)
(-4.16498e-08 9.95227e-08 1.09358e-07)
(-3.65754e-08 1.16321e-07 9.03415e-08)
(-2.65801e-08 -4.01717e-08 1.83347e-08)
(-8.03828e-08 9.03421e-08 1.41605e-07)
(-5.43029e-08 8.65453e-08 9.31656e-08)
(-4.23464e-08 9.23078e-08 7.49893e-08)
(-2.29115e-07 1.06184e-07 -1.1582e-07)
(-2.4904e-07 -4.69297e-08 -2.24059e-07)
(-1.70102e-07 2.07125e-08 -3.86787e-07)
(-1.60387e-07 9.9882e-08 -3.11301e-07)
(-1.41077e-07 -1.33158e-07 1.38201e-07)
(-7.80021e-08 -2.22511e-07 2.18143e-07)
(-6.8943e-08 -2.58695e-08 1.90598e-07)
(-6.27605e-08 -1.82488e-07 4.09093e-07)
(-2.02318e-07 2.5991e-07 1.31944e-07)
(-1.77085e-07 1.55334e-07 5.02633e-08)
(-2.72084e-07 3.77746e-07 1.92224e-07)
(-2.23528e-07 3.78101e-07 1.71117e-07)
(-1.14357e-07 2.56017e-08 -2.77197e-07)
(-7.09456e-08 -1.17359e-07 -1.09363e-07)
(-8.5294e-08 -1.72357e-08 -3.24125e-07)
(-7.57544e-08 7.35467e-08 -2.46981e-07)
(-5.33385e-08 -1.44654e-07 4.57972e-08)
(-3.00851e-08 -1.19591e-07 -5.22962e-09)
(-3.93199e-09 -6.36402e-08 2.04203e-08)
(-1.14747e-08 -1.16969e-07 -1.21275e-08)
(-1.60352e-07 2.23823e-08 1.14119e-07)
(-1.87832e-07 -4.92401e-08 1.56634e-07)
(-1.12499e-07 1.78256e-07 3.005e-07)
(-1.2043e-07 7.54565e-08 4.29174e-07)
(-1.55527e-08 -8.00762e-08 5.85869e-08)
(-2.12725e-08 -5.2625e-08 5.05554e-08)
(-2.11181e-08 -2.56293e-08 7.52371e-09)
(-2.61707e-08 -3.67081e-08 1.53297e-08)
(-1.11551e-07 5.19264e-08 -1.36395e-07)
(-6.9276e-09 -1.71155e-07 4.07452e-08)
(-3.70755e-08 -4.79933e-08 -6.24542e-09)
(-2.44083e-08 -9.53091e-08 5.17094e-09)
(-3.07354e-08 2.99493e-08 1.17865e-08)
(1.34005e-08 -7.57335e-08 -3.754e-08)
(-2.32063e-08 3.92968e-08 -4.02114e-09)
(-1.97565e-08 4.85342e-08 6.82922e-10)
(6.52992e-08 -2.17915e-07 9.08023e-08)
(6.54668e-08 -3.41568e-07 -4.14883e-08)
(3.99508e-08 -3.4784e-07 -9.61746e-09)
(8.61485e-08 -4.53964e-07 3.3084e-08)
(1.40003e-07 -1.46444e-07 6.21143e-08)
(1.24885e-07 -1.60653e-07 9.79702e-08)
(1.60717e-07 -2.31227e-07 1.40298e-07)
(1.35741e-07 -2.48336e-07 1.38861e-07)
(8.54707e-08 2.32172e-09 1.94723e-08)
(6.06909e-08 3.12234e-08 2.7819e-08)
(4.36669e-08 -2.5479e-08 6.29625e-08)
(4.7094e-08 -6.18562e-10 8.30173e-08)
(1.88408e-08 1.38332e-07 1.45853e-09)
(4.18773e-08 9.69394e-08 -5.92453e-09)
(2.13108e-09 8.91905e-08 1.34221e-08)
(-4.08221e-09 1.3586e-07 -2.47782e-08)
(2.78985e-08 4.21832e-08 -8.40218e-08)
(6.13074e-08 5.19443e-08 -1.15752e-08)
(1.71332e-08 1.9685e-08 -7.24038e-08)
(1.86661e-08 -1.12707e-08 -5.77988e-08)
(1.30501e-08 -5.55991e-09 1.00688e-08)
(2.51282e-09 -2.28821e-08 2.33368e-08)
(3.627e-09 3.87842e-09 1.29226e-08)
(4.58594e-09 5.86775e-09 1.92541e-08)
(-2.31807e-08 -1.70017e-08 -9.34127e-09)
(5.65802e-09 9.25193e-09 -3.64605e-08)
(-1.24459e-08 -1.21651e-08 -3.18741e-08)
(-7.19329e-09 -1.63565e-08 -1.55006e-08)
(1.39318e-08 2.87352e-08 6.61169e-09)
(3.12149e-08 -1.9958e-08 1.70338e-09)
(1.04245e-08 7.61252e-09 9.97524e-10)
(1.16256e-08 6.51012e-09 3.51257e-09)
(-3.98397e-08 1.46681e-08 1.51577e-08)
(-2.08658e-08 -2.33839e-08 4.64364e-09)
(-6.29877e-08 5.06576e-08 -2.52093e-08)
(-5.82965e-08 3.43448e-08 -2.9435e-08)
(-9.9754e-08 1.42154e-07 5.60593e-08)
(-1.0171e-07 3.36508e-08 -4.43725e-08)
(-1.49013e-07 1.83205e-07 -1.41346e-07)
(-1.37897e-07 2.17898e-07 -8.27728e-08)
(3.64258e-08 -9.31368e-08 3.979e-08)
(2.24017e-08 -1.03001e-07 4.11252e-08)
(1.30884e-08 -9.10638e-08 5.27418e-08)
(6.90351e-09 -4.96678e-08 4.73536e-08)
(5.27827e-08 -1.09001e-07 1.69937e-07)
(-3.9636e-08 -1.33106e-07 1.35922e-07)
(3.28973e-09 -7.30178e-08 1.19036e-07)
(6.79727e-09 -1.02404e-07 1.71397e-07)
(3.30758e-08 6.24663e-08 6.53499e-09)
(7.46724e-08 -1.8341e-08 -6.74377e-10)
(7.54732e-08 9.51595e-09 4.99868e-08)
(6.60016e-08 -1.19845e-09 4.03733e-08)
(-1.12333e-06 9.47841e-07 7.96288e-07)
(-1.03392e-07 2.81354e-07 7.64754e-07)
(-2.35519e-07 4.36686e-07 6.36478e-07)
(-2.53734e-07 3.67966e-07 9.42774e-07)
(3.40319e-08 -3.84956e-09 -9.42693e-08)
(1.43645e-08 7.44104e-08 3.43084e-11)
(3.53892e-08 1.3674e-10 -3.56023e-08)
(5.14726e-08 5.26917e-08 -5.98285e-08)
(-6.66146e-07 3.45507e-07 1.46513e-07)
(-1.24938e-06 9.16704e-07 -3.70898e-07)
(-4.77514e-07 3.5268e-07 -3.3512e-08)
(-4.43015e-07 7.23658e-07 1.49816e-07)
(2.28197e-07 -2.7139e-07 1.30496e-07)
(1.74951e-07 -1.70916e-07 1.34776e-07)
(2.61946e-07 -3.55152e-07 2.34784e-07)
(2.19249e-07 -3.74576e-07 2.21348e-07)
(2.6011e-08 2.57162e-07 5.66078e-08)
(3.51715e-08 2.03306e-07 2.93478e-08)
(-1.63822e-08 1.85872e-07 4.89842e-08)
(-4.33559e-08 3.16677e-07 3.27752e-08)
(5.7159e-09 5.2894e-08 -1.1938e-07)
(-2.24385e-08 1.79225e-07 -1.12334e-07)
(-1.12012e-08 9.76936e-08 -1.44083e-07)
(2.06856e-09 4.10509e-08 -9.21809e-08)
(-4.88316e-09 7.6687e-08 4.97676e-08)
(4.22439e-08 1.05557e-07 2.61761e-08)
(2.35684e-08 5.53751e-08 6.00445e-08)
(2.70437e-08 4.7812e-08 1.0421e-07)
(7.46572e-08 -3.4817e-09 -6.78092e-08)
(5.91614e-08 -4.29105e-08 4.46083e-09)
(5.11209e-08 3.08643e-09 -4.50446e-08)
(5.90988e-08 3.45677e-08 -6.15509e-08)
(2.52362e-08 4.55451e-08 3.44614e-08)
(1.22579e-07 1.98075e-08 1.68352e-08)
(6.98641e-08 -5.4358e-08 1.01062e-07)
(9.30464e-08 -1.01035e-07 2.3559e-07)
(8.41055e-08 7.4369e-08 -3.96464e-07)
(-1.04296e-08 2.44826e-07 -1.8143e-07)
(4.98344e-09 1.69324e-07 -3.28028e-07)
(1.36374e-08 8.13449e-08 -2.19918e-07)
(8.63138e-08 1.51653e-07 1.00156e-07)
(1.52328e-07 1.67158e-07 1.38297e-07)
(6.32312e-08 3.83038e-08 1.41341e-07)
(4.17092e-08 2.10958e-07 2.33681e-07)
(2.22184e-07 -9.62272e-08 -7.10239e-08)
(2.10255e-07 9.29827e-08 -1.89766e-07)
(1.54997e-07 -1.44783e-08 -3.21362e-07)
(1.43882e-07 -7.09277e-08 -2.21911e-07)
(6.69885e-08 1.05559e-07 1.31696e-08)
(1.21542e-07 -2.34204e-08 2.59937e-08)
(7.76942e-08 3.24731e-08 -2.72044e-08)
(8.96742e-08 3.44002e-08 -4.15549e-08)
(6.40126e-08 -4.26787e-08 1.92465e-07)
(6.62219e-08 9.32854e-08 4.42199e-08)
(6.78437e-08 9.62518e-08 1.10499e-07)
(4.61963e-08 1.2706e-08 6.56443e-08)
(5.74782e-08 5.87178e-08 -1.01547e-10)
(1.10542e-07 -8.27012e-08 1.70205e-08)
(9.71073e-08 -4.13832e-08 6.02994e-08)
(8.13902e-08 -3.43701e-08 3.92264e-08)
(5.55637e-08 -6.62107e-08 -9.86428e-08)
(5.37587e-09 5.47266e-08 -1.42666e-08)
(3.81443e-08 -3.5588e-08 -1.75974e-08)
(5.1065e-08 -3.74443e-09 -4.63719e-08)
(4.12165e-07 -3.56346e-07 6.63339e-08)
(2.39173e-07 9.39604e-08 -1.92467e-07)
(2.29247e-07 -7.36407e-08 -5.68771e-08)
(2.51091e-07 -1.36577e-07 1.27974e-08)
(-5.22192e-08 2.24386e-07 -9.14367e-08)
(1.25792e-07 1.85113e-07 -1.15389e-07)
(4.63857e-09 2.62461e-07 -1.78164e-07)
(3.1025e-08 1.49184e-07 -8.42051e-08)
(7.49058e-08 1.13656e-07 2.73297e-07)
(3.01041e-07 -1.47078e-07 -2.03393e-07)
(2.71876e-07 -3.06906e-07 -8.25152e-08)
(2.60133e-07 -2.63401e-07 2.66807e-08)
(3.00911e-07 -3.51062e-07 1.04593e-07)
(1.79913e-07 -8.62058e-08 -7.93178e-09)
(2.6559e-07 -2.98034e-07 1.24848e-07)
(2.50846e-07 -2.96547e-07 1.07649e-07)
(4.77323e-08 7.32805e-08 2.41618e-07)
(3.14824e-08 1.28831e-07 1.83864e-07)
(3.33171e-10 -1.11249e-08 1.76541e-07)
(1.19274e-08 -6.76949e-08 3.81225e-07)
(-7.00602e-08 3.42247e-07 3.33491e-07)
(7.2338e-08 2.48042e-07 1.49664e-07)
(-5.93094e-08 2.44886e-07 1.6952e-07)
(-8.85126e-08 2.33927e-07 2.34829e-07)
(6.09395e-08 -3.10386e-07 -1.19013e-07)
(-6.85318e-08 -1.3294e-09 -5.29445e-08)
(1.22446e-07 -3.40655e-07 -9.41247e-08)
(-0.000587636 -1.17182e-05 -0.000450973)
(-0.000353368 -1.45645e-05 -0.00015193)
(-0.0003616 -5.31566e-05 -0.000397654)
(-0.000193916 -1.09904e-05 0.000174742)
(-8.69873e-05 1.03109e-05 6.85435e-05)
(-0.000106354 5.41763e-06 0.000154297)
(-4.55238e-07 4.79029e-07 6.30886e-07)
(-7.59487e-07 9.06432e-07 7.44188e-07)
(4.58863e-08 1.01301e-08 1.7894e-06)
(-1.23199e-05 3.60975e-07 2.23678e-07)
(-1.24378e-05 5.75979e-07 1.26292e-06)
(-1.95204e-05 6.98694e-07 -3.5407e-07)
(9.0336e-09 2.69524e-08 -4.48671e-09)
(1.13631e-07 -5.71926e-08 -4.71498e-08)
(-1.18291e-08 3.65802e-08 -5.83771e-08)
(4.96358e-07 -1.45914e-06 -1.52803e-06)
(-3.24584e-07 -3.56497e-07 -7.48894e-07)
(5.03344e-07 -1.10996e-06 -1.3622e-06)
(-4.7218e-06 -1.34667e-06 3.02808e-06)
(-2.225e-06 -2.57229e-07 1.32226e-06)
(-2.53211e-06 -5.60482e-07 2.47716e-06)
(-2.93828e-07 2.3861e-07 1.27621e-07)
(-6.45733e-08 1.38097e-07 1.88044e-07)
(-3.9404e-08 -1.41266e-07 3.31821e-07)
(-2.42321e-07 8.88093e-07 -5.92751e-07)
(4.85175e-08 2.4759e-07 -4.22238e-07)
(-5.7393e-07 1.18214e-06 -6.25225e-07)
(-7.35195e-07 1.33041e-06 1.50623e-06)
(7.56655e-08 4.56915e-07 7.53008e-07)
(-7.46896e-07 1.23887e-06 2.12575e-06)
(1.16916e-07 -2.51909e-07 -1.2355e-07)
(4.76428e-08 -1.36945e-07 4.51465e-08)
(7.42182e-08 -2.97714e-07 -1.73615e-07)
(-4.99658e-09 -3.08707e-07 -6.85836e-08)
(1.34313e-07 -6.81638e-08 9.73042e-09)
(1.24044e-07 -1.36384e-07 -1.24868e-07)
(8.80621e-08 -3.03221e-08 -2.4148e-09)
(9.64373e-08 5.45023e-09 -2.50222e-08)
(-4.89138e-09 1.22145e-08 -7.2856e-09)
(-5.01685e-09 3.08975e-08 4.04274e-08)
(-4.96812e-09 2.09627e-08 4.4844e-08)
(-1.6013e-08 1.20409e-08 2.69766e-08)
(1.13644e-08 8.67911e-08 -6.09765e-08)
(-3.64325e-08 -1.23878e-08 9.30264e-08)
(-6.42661e-08 9.1657e-08 9.21239e-08)
(-5.48004e-08 4.18784e-08 3.82341e-08)
(1.55423e-07 -4.18733e-08 -1.54062e-07)
(1.63226e-07 -1.4587e-07 7.59838e-09)
(1.86189e-07 -2.94044e-08 1.24511e-08)
(1.27449e-07 -1.76883e-08 -2.78465e-08)
(-8.65787e-06 -8.98352e-07 -1.61554e-06)
(-1.16258e-05 -3.26437e-07 -7.71346e-06)
(-1.5569e-05 -2.26085e-06 -8.25862e-06)
(-1.00178e-05 -5.61112e-07 -4.54448e-06)
(-2.42303e-07 1.82668e-07 1.3307e-07)
(-2.32821e-08 1.42654e-08 8.26752e-07)
(-1.58561e-07 9.65308e-08 3.28209e-07)
(-9.05032e-08 -7.10544e-08 6.16862e-07)
(4.22784e-08 2.12983e-07 -2.37795e-07)
(2.22846e-07 7.70245e-08 -1.58394e-07)
(2.94256e-07 1.43413e-07 -5.87146e-08)
(2.16386e-07 1.52631e-07 -1.82779e-07)
(2.03291e-07 -4.03018e-08 1.08659e-07)
(2.66743e-07 -2.70085e-08 2.38446e-07)
(1.95813e-07 -4.45397e-08 8.94961e-08)
(3.86692e-08 2.12469e-08 -1.85653e-08)
(9.43695e-08 5.94044e-08 -3.99951e-08)
(1.24515e-07 6.34518e-08 -4.81077e-08)
(8.84482e-08 6.47766e-08 -4.24164e-08)
(5.15038e-08 -1.42286e-07 -1.82939e-07)
(2.65397e-08 -2.02284e-07 -1.33151e-07)
(1.03565e-08 -1.73973e-07 -1.58595e-07)
(1.9919e-08 -3.42899e-08 -1.22544e-07)
(-1.42273e-05 -2.11397e-06 -9.95627e-07)
(-1.64878e-05 -4.26357e-06 -5.7564e-06)
(-9.37042e-06 -1.66251e-06 -2.61483e-06)
(-9.20466e-06 -3.97531e-06 -1.88531e-06)
(-3.33962e-09 2.28608e-07 -1.60105e-07)
(5.2586e-08 8.04443e-08 -7.06861e-08)
(1.15225e-08 8.78279e-08 -1.30992e-07)
(-6.32642e-08 1.13387e-07 -1.07493e-07)
(-6.43266e-08 9.31866e-08 -9.65545e-08)
(-5.1006e-08 1.49844e-07 -8.43057e-08)
(-3.2375e-08 1.081e-08 -4.3016e-08)
(-2.37576e-05 -5.18258e-07 7.16438e-07)
(-1.43431e-05 -1.76722e-06 -3.05107e-06)
(-1.40921e-05 1.99099e-06 -1.86447e-07)
(-2.00384e-08 -4.88391e-08 2.97107e-08)
(-2.69599e-08 -6.08196e-08 5.56496e-09)
(-4.44571e-08 3.75634e-09 1.57843e-08)
(-2.53663e-07 2.52339e-07 -1.7268e-07)
(-2.25605e-07 5.13086e-08 -3.13794e-07)
(-2.57374e-07 9.25289e-08 -4.24383e-08)
(1.40154e-07 -1.75562e-07 -3.36088e-07)
(1.48155e-07 4.97648e-08 -3.78364e-07)
(8.45504e-08 9.08057e-08 -3.33817e-07)
(2.90934e-08 -5.35686e-08 -4.13159e-08)
(1.17689e-09 1.00657e-08 -4.14953e-08)
(-1.04611e-08 3.06807e-08 -1.98744e-08)
(-6.55629e-06 3.7945e-08 2.8913e-06)
(-7.61394e-06 8.67612e-07 3.42919e-06)
(-9.59135e-06 -1.66991e-06 3.29233e-06)
(-1.34061e-07 2.91764e-07 -3.12806e-07)
(-1.69085e-07 3.66497e-07 -2.74664e-07)
(-1.72181e-07 3.31477e-07 -2.63911e-07)
(3.76958e-08 1.02461e-07 -6.17502e-08)
(7.34011e-08 8.37435e-08 -9.7774e-08)
(6.22685e-08 6.50068e-08 -6.11201e-08)
(3.05847e-08 5.58763e-08 -2.94819e-08)
(1.69664e-07 7.77899e-08 -6.68783e-08)
(7.96896e-08 9.10139e-08 -3.73576e-08)
(1.13178e-07 1.32926e-07 -5.61775e-08)
(-2.88414e-08 -7.15687e-08 2.42523e-08)
(-3.35738e-08 -8.07053e-08 8.07258e-09)
(-5.24182e-08 -2.61707e-08 2.60256e-08)
(-2.07896e-08 1.25048e-07 -1.09598e-08)
(-6.21476e-08 1.57346e-07 -4.09129e-09)
(-2.0552e-07 3.42131e-07 -1.01375e-07)
(-1.65785e-07 2.4755e-07 -9.57903e-08)
(9.1065e-08 -1.63211e-08 7.30322e-08)
(2.25802e-08 -1.88059e-08 -3.56198e-09)
(5.21499e-08 -7.11479e-08 -2.06149e-08)
(-3.79554e-06 2.9003e-07 5.05358e-07)
(-1.05341e-05 -2.04417e-06 -3.09038e-06)
(-1.27419e-06 3.67941e-06 1.70217e-06)
(-4.6114e-06 4.49961e-07 -1.02816e-07)
(-4.73383e-06 -3.80578e-07 1.98121e-06)
(-1.44589e-06 -1.41802e-06 6.93888e-07)
(-3.46425e-06 -7.53814e-07 1.09082e-06)
(-1.56198e-08 4.58331e-08 -2.74514e-08)
(-1.85979e-08 2.25962e-08 7.05867e-08)
(-2.07605e-08 -2.57069e-08 3.98791e-08)
(-5.50804e-09 -3.16045e-08 3.09596e-08)
(-1.5116e-08 1.80649e-07 -1.32482e-07)
(-1.49906e-08 1.26215e-07 -1.09355e-07)
(-2.16139e-08 1.01941e-07 -7.41804e-08)
(-8.28668e-09 9.71339e-08 -1.59713e-09)
(3.69454e-08 1.57187e-07 7.95558e-08)
(1.0326e-07 2.30475e-07 -1.90169e-07)
(8.63382e-08 1.9184e-07 -3.48657e-08)
(-5.07341e-08 1.32343e-07 5.74356e-08)
(-1.46358e-07 1.2418e-07 -6.10481e-08)
(-7.89456e-08 -9.99195e-10 3.37754e-08)
(1.30926e-08 9.1537e-08 7.10522e-08)
(2.43686e-07 5.06333e-08 -2.59036e-07)
(-1.62754e-07 1.93733e-07 -2.51509e-07)
(-6.96384e-08 8.33724e-08 -1.38028e-07)
(2.98571e-08 1.03227e-07 2.22062e-07)
(9.75341e-09 1.5611e-07 -4.55275e-08)
(4.23861e-08 9.0128e-08 2.71388e-07)
(-2.8501e-08 1.49141e-07 -1.13007e-07)
(1.00238e-07 5.53077e-08 -1.13713e-07)
(9.12123e-08 1.6263e-08 -4.55734e-08)
(1.32795e-07 3.27747e-08 -2.52686e-08)
(-1.67711e-07 1.48468e-07 4.85242e-09)
(-1.69126e-07 1.2377e-07 3.68623e-08)
(-1.7726e-07 2.31945e-07 -1.04923e-07)
(7.04656e-08 -9.24353e-08 2.86177e-07)
(-1.14874e-07 -1.13505e-07 2.0191e-07)
(2.42337e-07 -1.95838e-07 7.94931e-07)
(5.83038e-08 -2.87297e-07 1.60736e-07)
(1.55056e-07 -3.53977e-07 -1.64395e-07)
(-6.58158e-08 -2.1892e-07 2.81496e-07)
(1.19735e-07 -2.28629e-07 6.96693e-08)
(2.30681e-08 1.92889e-08 -6.13687e-09)
(1.46043e-08 2.36888e-09 2.52854e-08)
(5.77808e-09 -8.3336e-09 1.16614e-08)
(1.84226e-08 -1.64897e-08 1.54097e-09)
(2.44547e-08 4.62081e-08 -1.75319e-08)
(-8.34014e-09 6.53645e-08 -3.54999e-09)
(1.15262e-08 4.11326e-08 1.57513e-09)
(1.26918e-07 -1.75203e-07 -1.2201e-07)
(1.20237e-07 -2.10183e-07 -1.06386e-07)
(6.83742e-08 -1.99522e-07 -4.41289e-07)
(-2.09449e-07 3.7321e-07 -2.64551e-07)
(2.14319e-08 -1.98662e-07 -4.20967e-07)
(3.48885e-08 -8.9438e-08 -4.84643e-07)
(-3.41323e-08 -1.37007e-07 -2.57732e-07)
(-2.47815e-07 4.85171e-07 5.82298e-08)
(-1.38754e-07 -1.1111e-07 -2.09492e-07)
(-3.9139e-08 -4.10171e-08 -2.12955e-07)
(-0.000753771 -0.000368918 -0.000436618)
(-0.00181917 0.000269751 -0.00133303)
(-0.000935782 -8.51578e-05 0.000293445)
(-0.000637103 0.000172926 -0.000922436)
(-1.15953e-07 -7.78346e-08 -3.54469e-07)
(-1.74213e-07 2.79991e-07 1.55783e-09)
(-1.65028e-07 -1.20094e-07 -1.75969e-07)
(-7.37245e-08 -2.2143e-08 -2.963e-07)
(-0.00107422 -0.000427506 -8.07082e-05)
(-0.00222579 -0.000398447 0.00131582)
(-0.00113861 -0.000123036 -0.000367352)
(-0.000947028 -0.000474451 0.00053195)
(3.41921e-08 -1.01709e-07 -9.39416e-08)
(-1.20849e-07 1.98985e-07 -3.48157e-10)
(-5.78473e-08 -2.14417e-07 2.26514e-09)
(2.57226e-08 -1.37216e-07 -4.43586e-08)
(-6.95898e-08 4.34414e-10 -1.42675e-07)
(-7.95258e-08 1.38234e-07 -1.33708e-09)
(-9.03705e-08 -2.11e-08 -7.91786e-08)
(-5.15077e-08 2.34866e-08 -1.4465e-07)
(2.31384e-08 -8.0354e-08 -5.02275e-08)
(-5.32088e-08 6.46765e-08 -1.29775e-08)
(-2.4137e-08 -1.26216e-07 1.80071e-08)
(1.77947e-08 -1.10109e-07 -1.7796e-08)
(-0.000610875 -9.68253e-05 -0.00020375)
(-0.00153936 0.000272418 -0.0012838)
(-0.00081514 -2.83505e-05 0.000347381)
(-0.000578978 0.000283668 -0.000623272)
(-0.000668321 -0.000208928 -0.000137415)
(-0.00167715 -0.000429993 0.00123099)
(-0.000857696 -2.59797e-05 -0.00029486)
(-0.000671824 -0.000326069 0.000432991)
(-0.00142271 -0.000717223 0.000851305)
(-0.00230317 0.000144979 0.00136399)
(-0.00128613 -4.57499e-05 -0.000401247)
(-0.000805578 9.07997e-05 0.00146831)
(-0.00112707 -0.000400491 0.000158292)
(-0.00250017 -0.000326479 -0.000878546)
(-0.00121944 -2.54957e-05 0.000158569)
(-0.00112218 -0.000371015 -0.000636744)
(-0.000351781 -0.000117007 0.000271876)
(-0.000334522 -3.77954e-06 1.1965e-05)
(-0.000769522 1.3634e-05 0.000372441)
(-0.000280817 -6.9717e-06 0.000416478)
(-0.000362256 2.68741e-05 -0.000254225)
(-0.000391422 3.30757e-05 -4.94928e-05)
(-0.000838777 -6.52598e-05 -0.000355003)
(-0.000288809 4.29445e-05 -0.000388535)
(-2.71224e-07 6.41132e-07 -1.46448e-07)
(-3.98173e-07 2.71661e-07 -6.02958e-07)
(-5.43279e-09 1.17139e-07 -4.60915e-07)
(-2.34588e-07 5.30178e-07 -3.76261e-07)
(9.66451e-08 -8.7166e-07 -1.05821e-06)
(2.04609e-07 -5.40019e-07 -1.20601e-06)
(3.21692e-08 -5.62844e-07 -1.10994e-06)
(6.96608e-08 -3.20971e-07 -1.33693e-06)
(-0.000457767 -0.000184914 0.000384611)
(-0.00083455 -5.0779e-06 0.000458352)
(-0.000484086 -7.3399e-05 2.52376e-05)
(-0.000355478 -8.28063e-05 0.000523073)
(-2.4236e-07 6.83779e-07 -2.22735e-07)
(6.15539e-09 -1.40984e-07 -5.49314e-08)
(-1.52242e-07 6.08048e-09 -2.74659e-08)
(-1.70845e-07 4.63218e-07 -2.51181e-07)
(1.90692e-07 -1.01372e-06 1.95564e-06)
(1.134e-08 -5.22854e-07 1.31035e-06)
(2.08709e-07 -4.15024e-07 1.40644e-06)
(6.54759e-08 -2.37344e-07 2.35101e-06)
(-1.64496e-07 -8.34268e-08 -4.27709e-07)
(-1.51211e-07 -1.59208e-08 -4.35363e-08)
(-2.2068e-07 2.77951e-07 9.32665e-08)
(-7.39998e-08 1.23927e-08 -3.03365e-07)
(-0.000102682 -1.31581e-05 -9.75478e-05)
(-0.000246816 -1.13297e-05 -0.000134046)
(-0.000100603 -1.96535e-06 -2.94678e-05)
(-9.6376e-05 -2.27495e-06 -0.000133971)
(-0.000115617 -2.97074e-05 3.25036e-05)
(-7.03243e-05 -3.51155e-06 3.81361e-06)
(-0.000215966 -3.83374e-05 6.87854e-05)
(-6.75501e-05 -6.02985e-06 6.46009e-05)
(-6.6281e-06 -7.96821e-07 -3.41144e-06)
(-4.11736e-06 -3.26338e-08 -2.02539e-06)
(-9.35262e-06 -1.46148e-06 -5.83028e-06)
(-4.82137e-06 -2.10802e-07 -3.8038e-06)
(-3.72874e-07 4.59423e-07 -6.37989e-07)
(-2.61695e-07 -1.40851e-07 -9.46788e-07)
(1.2913e-07 -2.80984e-07 -1.05077e-06)
(-1.63186e-07 3.97235e-07 -1.36512e-06)
(-2.07546e-07 1.77748e-07 -3.96004e-07)
(-1.82003e-07 -4.55854e-08 -2.28179e-07)
(-2.51247e-07 1.98385e-07 -1.79388e-07)
(-1.71452e-07 1.54541e-07 -3.00195e-07)
(-6.40479e-05 -2.29638e-05 4.25465e-05)
(-0.000148183 -9.1834e-06 3.6706e-05)
(-6.30493e-05 -1.13843e-05 5.1637e-06)
(-5.39086e-05 -1.28405e-05 5.83225e-05)
(-9.4635e-08 9.81193e-09 -2.02206e-07)
(-4.14998e-07 3.45673e-07 -1.31074e-07)
(-1.1438e-06 1.2738e-06 -8.18387e-07)
(-2.33765e-07 5.41985e-07 -2.28004e-07)
(4.3717e-08 2.17024e-07 3.16724e-07)
(2.08208e-07 -1.32744e-07 1.23303e-07)
(4.2699e-07 -4.73538e-07 3.24611e-07)
(8.68971e-08 2.56828e-07 6.35052e-07)
(-2.25761e-07 5.65001e-07 5.29953e-08)
(-4.28957e-07 5.45963e-07 4.20729e-07)
(-1.16719e-07 3.06522e-07 3.31877e-07)
(-2.14232e-07 6.71557e-07 3.66082e-07)
(3.10001e-07 -4.08795e-07 4.8312e-07)
(-3.01515e-07 1.01525e-07 -6.26646e-08)
(-4.33493e-07 3.21369e-07 1.651e-07)
(-3.12918e-07 4.45749e-07 1.06342e-07)
(-1.47665e-05 8.52264e-07 -1.03589e-05)
(-1.3161e-05 -1.7298e-07 -1.62363e-06)
(-2.95819e-05 -3.69367e-06 -9.6646e-06)
(-1.23509e-05 1.06312e-06 -1.17153e-05)
(1.02684e-07 -4.83176e-07 6.49767e-07)
(-7.70731e-08 -4.77414e-07 9.54276e-08)
(2.43627e-08 -5.94365e-07 -8.75173e-08)
(7.8889e-08 -2.39182e-07 4.72462e-07)
(1.7017e-07 -5.39578e-07 -1.45928e-06)
(5.35674e-07 -7.90578e-07 -1.42942e-06)
(3.55434e-08 -6.77836e-07 -1.34215e-06)
(1.98857e-07 -1.2346e-07 -1.60309e-06)
(-3.89421e-06 -1.26302e-06 -2.60982e-06)
(-2.82179e-06 -8.86698e-07 -3.80919e-07)
(-8.78287e-06 -6.06319e-07 -5.31798e-06)
(-3.2217e-06 -8.26397e-07 -3.83245e-06)
(5.74597e-08 -8.06916e-07 5.38387e-07)
(-4.75802e-07 -7.07511e-07 8.08608e-07)
(-1.95313e-07 -9.49238e-07 4.6915e-07)
(4.32184e-08 -5.55824e-07 4.34405e-07)
(7.7669e-08 -4.16801e-07 8.24556e-07)
(1.76984e-07 -5.00395e-07 5.96874e-07)
(8.64399e-08 -5.61868e-07 4.40886e-07)
(1.50516e-07 -3.31689e-07 6.48162e-07)
(-1.35815e-07 1.02348e-07 -2.79796e-08)
(-4.55592e-07 3.38057e-07 -8.23221e-08)
(-6.49251e-08 6.44504e-08 1.23233e-08)
(-1.23509e-07 -2.41729e-08 -2.97383e-08)
(3.76873e-07 -1.45616e-06 -1.05296e-06)
(2.23758e-07 -2.59036e-06 -4.38692e-07)
(9.35816e-07 -2.40217e-06 2.96663e-08)
(1.51653e-07 -5.63511e-07 -5.84893e-07)
(-1.09703e-07 3.83136e-07 -7.40372e-07)
(-6.97181e-08 1.97503e-08 -1.13329e-07)
(2.2084e-08 2.96292e-07 -2.00978e-07)
(-9.24515e-08 2.94743e-07 -4.02633e-07)
(6.05256e-08 -1.04837e-07 -5.25954e-07)
(4.33625e-07 -8.1329e-07 -2.11552e-07)
(-3.26799e-08 -6.2713e-07 -1.42207e-08)
(4.72845e-08 9.11152e-08 -4.88245e-07)
(9.95368e-08 7.18396e-08 3.22318e-08)
(-1.03655e-07 1.31434e-07 2.09962e-07)
(-6.19859e-08 -2.25893e-08 6.08388e-07)
(-1.34588e-07 4.87774e-07 4.26806e-07)
(-1.22276e-07 7.85211e-08 -2.56727e-08)
(-1.38048e-07 7.43446e-08 -1.06845e-07)
(-9.40812e-08 7.89845e-08 -7.845e-08)
(-8.44527e-08 7.36361e-08 -4.75396e-08)
(-1.32299e-07 1.96712e-07 7.11879e-07)
(-3.64803e-07 5.65175e-07 4.69028e-07)
(-2.20755e-07 3.67246e-07 4.21889e-07)
(-2.61319e-07 6.9144e-07 7.32982e-07)
(-1.1897e-05 -4.2528e-06 1.00036e-05)
(-1.10906e-05 -2.12557e-06 3.35952e-06)
(-2.66622e-05 -2.34463e-06 1.19063e-05)
(-1.04852e-05 -2.57287e-06 1.28278e-05)
(-1.01407e-06 7.13813e-08 -7.5819e-07)
(-1.37292e-06 -5.8428e-08 -1.06539e-06)
(-8.05445e-07 -2.04522e-07 -2.33887e-07)
(-7.69906e-07 2.2264e-07 -7.33107e-07)
(-2.01681e-06 -4.32711e-07 -1.51387e-06)
(-5.39474e-06 -1.45169e-06 -1.70147e-06)
(-2.2399e-06 -5.49157e-07 -7.53832e-07)
(-2.06116e-06 -5.08092e-07 -2.08011e-06)
(-3.2375e-07 -9.11976e-08 -5.5978e-08)
(-1.71849e-07 -2.03722e-07 -1.853e-07)
(-3.22e-07 4.56216e-07 1.29156e-07)
(-2.68084e-07 4.53973e-07 -7.84424e-08)
(-1.30211e-07 5.51776e-08 -1.42402e-07)
(-1.95005e-07 -1.40905e-07 -3.07201e-07)
(-1.80172e-07 -5.50951e-08 -1.8114e-07)
(-7.48532e-08 -6.17729e-08 -2.47671e-07)
(-8.48905e-09 1.05426e-07 5.86821e-08)
(1.29548e-09 4.82841e-08 -3.01263e-08)
(-8.78409e-09 2.33713e-08 -2.90066e-08)
(-1.64185e-08 1.03933e-07 -8.37626e-09)
(2.06495e-08 -1.63695e-07 1.78722e-07)
(4.83133e-08 -1.62568e-07 4.2001e-08)
(3.08813e-08 -1.82158e-07 3.79736e-08)
(5.89324e-08 -2.43199e-07 1.27129e-07)
(1.13346e-07 -3.70654e-07 7.3429e-07)
(2.93854e-07 -3.76257e-07 4.54251e-07)
(-1.06239e-07 -3.86018e-07 6.99182e-07)
(1.63581e-07 -1.0939e-07 7.92283e-07)
(1.19019e-07 -7.03717e-07 1.28128e-06)
(1.92746e-07 -3.85917e-07 1.05512e-06)
(4.82964e-08 -2.89309e-07 9.34946e-07)
(1.14348e-07 -4.45546e-07 1.82414e-06)
(-6.29605e-08 3.57763e-08 1.53427e-07)
(6.83241e-09 -2.93485e-07 -6.03916e-08)
(7.63573e-09 -4.33157e-07 -5.49791e-08)
(5.56482e-08 -2.8016e-07 -1.10721e-07)
(4.24404e-07 -1.30925e-06 -3.85146e-07)
(4.30634e-07 -1.29019e-06 -3.37452e-07)
(4.60614e-07 -1.79687e-06 -1.78062e-07)
(1.95072e-07 -6.05747e-07 -1.70724e-07)
(2.71584e-07 -7.66936e-07 8.32986e-07)
(1.46298e-07 -1.00579e-06 2.00379e-07)
(5.93562e-07 -1.46934e-06 2.98145e-07)
(1.02306e-07 -3.54432e-07 5.73621e-07)
(6.37468e-08 -1.7874e-07 -3.22799e-08)
(6.91878e-08 -1.43548e-07 -8.34773e-08)
(1.00105e-07 -2.10862e-07 -3.34663e-08)
(1.45007e-08 3.47447e-09 2.95476e-09)
(1.11641e-08 -2.63441e-09 2.77697e-09)
(-5.36495e-09 8.73263e-09 -2.58054e-09)
(1.14407e-08 3.02627e-09 1.55213e-09)
(8.26382e-09 -1.67196e-09 -9.22986e-09)
(-7.58826e-09 1.01013e-08 -1.41909e-08)
(9.06578e-09 1.16486e-08 -1.9076e-08)
(8.28578e-09 7.23655e-09 -2.33056e-08)
(-2.06404e-08 4.16952e-08 3.3891e-08)
(2.40188e-08 5.13005e-08 1.08307e-07)
(5.24695e-09 7.30847e-08 7.70543e-08)
(-4.81643e-08 9.08546e-08 -9.26232e-08)
(-1.98857e-08 -5.9264e-08 -5.69475e-08)
(-8.31973e-08 3.1188e-07 4.94604e-08)
(-1.18101e-07 4.83587e-07 2.73978e-08)
(1.62083e-07 -7.51596e-07 4.77326e-07)
(9.78153e-08 -5.16455e-07 5.33392e-09)
(1.8109e-07 -6.24525e-07 5.20401e-08)
(1.3577e-07 -4.32951e-07 4.61837e-07)