/*--------------------------------*- C++ -*----------------------------------*\
  =========                 |
  \\      /  F ield         | OpenFOAM: The Open Source CFD Toolbox
   \\    /   O peration     | Website:  https://openfoam.org
    \\  /    A nd           | Version:  6
     \\/     M anipulation  |
\*---------------------------------------------------------------------------*/
FoamFile
{
    version     2.0;
    format      ascii;
    class       surfaceVectorField;
    location    "3.59";
    object      Uf;
}
// * * * * * * * * * * * * * * * * * * * * * * * * * * * * * * * * * * * * * //

dimensions      [0 1 -1 0 0 0 0];

internalField   nonuniform List<vector> 
8193
(
(4.86419 -0.0609363 9.49092e-19)
(4.93343 -0.0722855 6.98462e-20)
(4.56753 -0.104936 1.07174e-19)
(5.03055 -0.0269961 -8.67356e-21)
(5.07991 -0.0197142 -3.82963e-20)
(5.12936 0.0112769 4.32229e-19)
(5.16198 0.024648 -1.21243e-20)
(5.20105 0.0476994 -5.92778e-20)
(5.22425 0.0594616 9.02363e-21)
(5.25179 0.0805825 -3.98985e-19)
(5.26957 0.0917719 5.90999e-20)
(5.28479 0.107077 2.51432e-20)
(5.29693 0.118209 2.70309e-20)
(5.30666 0.123768 1.5354e-21)
(5.31228 0.134662 -2.72959e-20)
(5.32212 0.127138 -3.0092e-22)
(5.32238 0.138171 0)
(5.33384 0.113736 -1.46274e-20)
(5.32906 0.127452 5.91722e-21)
(5.34505 0.0768617 3.56047e-22)
(5.33318 0.0964612 -2.13373e-21)
(5.36853 0.00593437 -7.0004e-22)
(5.342 0.0356741 -6.50336e-21)
(5.42156 -0.105687 2.09316e-21)
(5.37674 -0.0656751 7.10578e-21)
(5.45769 -0.245463 7.76776e-21)
(5.43554 -0.199489 -4.95848e-21)
(5.33077 -0.38524 5.04447e-21)
(5.39148 -0.339977 -2.90065e-20)
(4.81493 -0.536713 8.83249e-21)
(5.01305 -0.480801 4.88447e-20)
(4.01336 -0.705011 2.68094e-20)
(4.18117 -0.629559 -2.63526e-19)
(3.42427 -0.906312 3.43814e-19)
(3.39121 -0.789931 1.80077e-20)
(3.36501 -1.14082 2.04584e-20)
(3.12342 -1.00949 1.18668e-19)
(3.68087 -1.38608 -2.31771e-21)
(3.37362 -1.26291 2.01257e-21)
(4.01976 -1.62247 3.31995e-21)
(3.76413 -1.53484 -1.76995e-19)
(4.22804 -1.81593 -1.17473e-20)
(4.03283 -1.80194 3.91724e-21)
(4.35572 -1.93699 -1.33565e-21)
(4.21684 -2.00885 -5.76303e-20)
(4.46741 -1.98007 5.19193e-21)
(4.37605 -2.12983 1.87398e-20)
(4.59697 -1.95376 -2.10657e-19)
(4.54135 -2.1709 -4.38099e-21)
(4.7514 -1.86829 -3.60599e-20)
(4.72907 -2.13067 5.06454e-20)
(4.91893 -1.74015 0)
(4.92913 -2.02112 -5.35467e-20)
(5.08326 -1.58882 0)
(5.12141 -1.86633 -5.08876e-20)
(5.23028 -1.42866 0)
(5.29348 -1.68697 0)
(5.35204 -1.27068 2.47296e-20)
(5.43394 -1.49718 8.49808e-20)
(5.44629 -1.12139 -4.11372e-19)
(5.54183 -1.31197 -5.7089e-20)
(5.51418 -0.98367 -6.50402e-20)
(5.6189 -1.14149 -5.93509e-20)
(5.55723 -0.85709 8.0059e-19)
(5.67164 -0.99106 -1.7651e-19)
(5.57926 -0.738025 -6.32138e-19)
(5.70231 -0.857762 2.09774e-19)
(5.58542 -0.624542 -6.82262e-19)
(5.71612 -0.736983 -4.60638e-21)
(5.57627 -0.515803 -7.30787e-19)
(5.71558 -0.625786 2.13979e-21)
(5.55027 -0.410252 -4.74526e-20)
(5.70108 -0.52087 -1.15725e-19)
(5.50567 -0.305395 3.40194e-21)
(5.67146 -0.41726 -4.54544e-20)
(5.44118 -0.198248 7.60277e-21)
(5.62727 -0.316694 -1.09874e-19)
(5.34419 -0.086898 -2.97708e-22)
(5.57189 -0.218239 -2.43503e-19)
(5.1568 0.0168761 -4.40889e-21)
(5.48511 -0.0944391 2.78028e-19)
(5.29681 0.0410483 -6.54416e-20)
(4.8102 0.114765 0)
(5.10827 0.00206642 3.37794e-20)
(5.07095 -0.00848249 1.89814e-20)
(4.98392 -0.0736742 1.54447e-18)
(5.17425 0.0422257 -4.0228e-20)
(5.15257 0.0460285 3.29161e-20)
(5.23306 0.0790886 2.61703e-21)
(5.22427 0.0867782 -1.29259e-19)
(5.27841 0.110373 1.54139e-19)
(5.27142 0.115349 3.90579e-20)
(5.30407 0.134097 -5.68903e-20)
(5.29853 0.139081 -1.90607e-20)
(5.31656 0.148551 1.66453e-21)
(5.31209 0.154802 -8.09462e-21)
(5.32315 0.150753 -1.54599e-21)
(5.31792 0.159592 -1.57166e-21)
(5.32625 0.138855 2.35908e-21)
(5.32048 0.151126 2.96561e-22)
(5.32582 0.109106 5.73551e-20)
(5.31951 0.127769 3.76606e-21)
(5.32654 0.0521291 -9.07599e-21)
(5.31591 0.082357 -2.50387e-21)
(5.34445 -0.0415791 -1.1311e-19)
(5.32084 0.00464788 7.82999e-21)
(5.38125 -0.168995 4.3602e-21)
(5.35168 -0.112331 -7.13693e-21)
(5.35996 -0.311686 -1.14941e-20)
(5.38331 -0.25047 -2.09123e-20)
(5.10283 -0.438877 1.88524e-19)
(5.27052 -0.392849 -4.3695e-20)
(4.44199 -0.585689 1.73083e-19)
(4.78041 -0.524301 2.31544e-19)
(3.63787 -0.730411 -2.21096e-20)
(3.93196 -0.64339 -9.06833e-20)
(3.15156 -0.906638 -2.38602e-20)
(3.20893 -0.776479 3.59197e-20)
(3.16945 -1.12766 -1.94835e-21)
(3.00179 -0.973968 -1.74294e-19)
(3.48113 -1.40561 4.15117e-21)
(3.23926 -1.23518 1.1327e-20)
(3.79965 -1.70929 3.47222e-22)
(3.58869 -1.54154 -6.99584e-21)
(4.0358 -1.98571 2.10956e-20)
(3.8469 -1.85645 3.85462e-21)
(4.23736 -2.19418 1.68339e-20)
(4.06029 -2.1251 8.86614e-21)
(4.43673 -2.31775 -2.3749e-20)
(4.2717 -2.31677 -2.79895e-19)
(4.65151 -2.3522 -7.28241e-21)
(4.50083 -2.42526 2.54897e-19)
(4.88237 -2.29747 -3.97743e-20)
(4.76022 -2.43778 -1.27286e-19)
(5.1076 -2.16586 -1.03323e-19)
(5.03149 -2.35873 1.80491e-19)
(5.3074 -1.98276 -5.07947e-20)
(5.27973 -2.20229 5.26988e-20)
(5.47226 -1.77209 8.35596e-20)
(5.48993 -1.99903 -2.62408e-19)
(5.59848 -1.55461 -2.60174e-19)
(5.64957 -1.76734 3.56277e-19)
(5.68789 -1.34766 -7.201e-20)
(5.75776 -1.52839 -3.32023e-19)
(5.74759 -1.16388 -7.0505e-20)
(5.81843 -1.30449 2.97344e-19)
(5.78557 -1.00648 4.05547e-19)
(5.84817 -1.11074 -5.04577e-19)
(5.80601 -0.870908 9.33502e-20)
(5.85986 -0.948803 3.17149e-19)
(5.81166 -0.751794 1.4754e-21)
(5.86025 -0.813434 1.36086e-20)
(5.80453 -0.643992 -1.61995e-21)
(5.85159 -0.697854 0)
(5.78543 -0.542621 -4.77504e-20)
(5.83421 -0.595669 -1.62786e-21)
(5.75362 -0.443567 4.09608e-19)
(5.80662 -0.498636 -4.64817e-20)
(5.70799 -0.341901 -1.96089e-20)
(5.77024 -0.406293 1.44132e-19)
(5.65248 -0.232926 -9.339e-21)
(5.72442 -0.321262 -3.03432e-19)
(5.57766 -0.112879 -2.27339e-20)
(5.65625 -0.205303 -1.91642e-19)
(5.56991 -0.0581704 7.214e-20)
(5.41728 0.060352 -4.26549e-18)
(5.15313 0.0536617 -6.69888e-19)
(5.16065 0.0500927 1.82284e-19)
(5.09407 -0.00523157 7.42396e-19)
(5.21694 0.0909987 1.67263e-19)
(5.22534 0.0985848 2.43942e-19)
(5.26936 0.12216 -3.94216e-21)
(5.28204 0.133924 -1.30708e-19)
(5.3004 0.14649 0)
(5.30838 0.155201 -1.43699e-20)
(5.31341 0.161561 4.48279e-21)
(5.31719 0.170183 -3.35802e-20)
(5.31731 0.166536 4.18328e-21)
(5.31901 0.176843 4.28639e-21)
(5.31752 0.159862 3.04596e-22)
(5.31698 0.172463 -1.8948e-21)
(5.31398 0.138751 1.79459e-21)
(5.31191 0.155244 -6.63524e-21)
(5.30696 0.0981224 1.42659e-21)
(5.30265 0.121684 1.24227e-21)
(5.30389 0.0296446 1.48524e-20)
(5.29211 0.0651507 2.80125e-20)
(5.31807 -0.0742375 1.45226e-19)
(5.29302 -0.0244979 -6.2689e-20)
(5.33868 -0.205808 -3.28976e-20)
(5.31643 -0.149151 3.40444e-20)
(5.27574 -0.346697 -6.53463e-20)
(5.31315 -0.288187 4.40643e-20)
(4.94011 -0.4754 -4.72074e-20)
(5.11806 -0.428181 -9.79556e-20)
(4.23984 -0.600669 3.65129e-19)
(4.53442 -0.542976 4.35641e-20)
(3.46984 -0.711768 -4.4639e-19)
(3.69193 -0.623104 -1.3128e-19)
(3.03386 -0.856228 -3.08242e-21)
(3.03776 -0.726111 9.77189e-20)
(3.05627 -1.07462 -3.69088e-20)
(2.86802 -0.909157 8.24047e-20)
(3.33396 -1.36827 1.40488e-20)
(3.07534 -1.17397 3.05597e-20)
(3.62327 -1.68653 -3.6255e-21)
(3.38239 -1.49015 -1.50245e-21)
(3.85848 -1.9888 0)
(3.62193 -1.82128 0)
(4.08508 -2.24055 -2.46231e-19)
(3.85049 -2.11938 -4.03956e-20)
(4.32996 -2.41865 -3.56227e-20)
(4.10379 -2.35861 1.66276e-19)
(4.60666 -2.50874 1.40606e-19)
(4.39332 -2.51774 2.5759e-19)
(4.90927 -2.50247 1.07827e-19)
(4.72763 -2.57111 -1.36051e-19)
(5.20728 -2.40505 3.8997e-19)
(5.08687 -2.54774 -6.99451e-19)
(5.46865 -2.23075 -4.03489e-19)
(5.42329 -2.4303 4.64195e-19)
(5.67456 -2.00337 6.12642e-21)
(5.70603 -2.23036 -2.55981e-19)
(5.81841 -1.74903 -1.06309e-19)
(5.91651 -1.98418 3.77036e-19)
(5.90071 -1.49249 -7.57624e-21)
(6.04931 -1.70893 -1.24639e-19)
(5.93434 -1.25874 -4.50337e-19)
(6.10118 -1.43688 3.2444e-19)
(5.94061 -1.06112 7.41225e-21)
(6.0975 -1.19454 -4.6444e-19)
(5.93471 -0.900354 1.97887e-19)
(6.06825 -0.992803 1.97781e-19)
(5.92268 -0.769704 -1.7299e-21)
(6.0336 -0.831838 2.27189e-19)
(5.90523 -0.660626 0)
(6.00053 -0.704395 -2.16782e-19)
(5.88221 -0.565561 0)
(5.96823 -0.600815 -1.63772e-21)
(5.85318 -0.477411 1.01686e-19)
(5.9344 -0.510674 0)
(5.81366 -0.391102 -3.82985e-19)
(5.90005 -0.42894 -5.37304e-20)
(5.76022 -0.302127 -1.54471e-19)
(5.86271 -0.359277 4.17391e-20)
(5.70538 -0.201227 1.91001e-18)
(5.80481 -0.267968 -6.27763e-20)
(5.74446 -0.145863 1.62458e-19)
(5.66203 -0.0666467 2.4654e-18)
(5.24073 0.112467 -5.08474e-19)
(5.2454 0.114515 1.94323e-19)
(5.18528 0.0655164 -3.909e-20)
(5.28694 0.145502 4.56384e-20)
(5.28981 0.156561 8.06336e-20)
(5.31357 0.168627 -5.11003e-20)
(5.32303 0.182315 9.67756e-20)
(5.32286 0.182943 8.86817e-20)
(5.32935 0.193673 -3.80392e-20)
(5.32206 0.188336 -3.17907e-20)
(5.32463 0.19942 -5.06074e-20)
(5.31739 0.183856 -1.95789e-21)
(5.31783 0.196926 7.98147e-21)
(5.30962 0.167514 8.64377e-21)
(5.30811 0.183229 -1.88841e-21)
(5.29721 0.1361 -3.288e-21)
(5.2945 0.156503 -4.62559e-21)
(5.2821 0.0843818 2.4506e-20)
(5.27683 0.112983 9.26706e-21)
(5.27308 0.0038116 1.52512e-19)
(5.25953 0.0453062 3.14536e-20)
(5.27986 -0.110094 -3.56755e-19)
(5.25589 -0.0551984 -1.51556e-19)
(5.27447 -0.246483 1.18647e-19)
(5.26568 -0.185567 1.23275e-19)
(5.14229 -0.383771 1.73881e-20)
(5.21505 -0.32581 3.21919e-20)
(4.71264 -0.50148 -5.10017e-20)
(4.93336 -0.454628 2.77816e-20)
(3.98207 -0.590174 -6.16314e-20)
(4.28591 -0.539252 -1.22098e-19)
(3.25829 -0.664316 3.67374e-19)
(3.46882 -0.575515 2.46117e-20)
(2.87618 -0.781678 1.30686e-19)
(2.87796 -0.64764 1.17939e-19)
(2.89559 -0.997283 9.61199e-20)
(2.71816 -0.814883 1.51534e-19)
(3.13102 -1.29194 1.58862e-20)
(2.88296 -1.07011 -3.49973e-19)
(3.38258 -1.621 2.06541e-21)
(3.13769 -1.37885 -4.67845e-20)
(3.61313 -1.94237 -3.93934e-20)
(3.35064 -1.71038 0)
(3.86713 -2.22738 3.27398e-19)
(3.57961 -2.02131 1.85555e-19)
(4.16543 -2.44686 4.10092e-19)
(3.8628 -2.28791 1.65675e-19)
(4.51204 -2.57673 0)
(4.21078 -2.48542 3.97304e-19)
(4.8952 -2.6167 -7.73164e-19)
(4.61426 -2.58873 0)
(5.28474 -2.57323 -7.8186e-19)
(5.05217 -2.62276 -9.93774e-19)
(5.64458 -2.43762 1.24591e-19)
(5.48717 -2.53353 1.12512e-18)
(5.93476 -2.21843 1.70223e-19)
(5.88204 -2.35731 -7.11034e-19)
(6.13471 -1.94922 2.34843e-19)
(6.18296 -2.1228 6.23337e-19)
(6.23827 -1.65734 1.43241e-19)
(6.38202 -1.84067 6.13111e-20)
(6.25447 -1.37611 8.17284e-20)
(6.45924 -1.54428 -1.36383e-20)
(6.21726 -1.12989 0)
(6.43721 -1.26831 0)
(6.16102 -0.928687 2.27172e-19)
(6.36057 -1.02987 -4.51714e-19)
(6.10699 -0.772887 -2.36398e-20)
(6.26687 -0.836752 3.72599e-19)
(6.06088 -0.653495 -2.18488e-19)
(6.18326 -0.689879 4.08026e-19)
(6.02034 -0.558789 -1.64153e-21)
(6.11675 -0.579443 -2.78134e-19)
(5.98351 -0.47872 -1.57897e-19)
(6.06226 -0.492054 0)
(5.94892 -0.406623 3.60307e-19)
(6.01594 -0.41848 -1.61979e-19)
(5.9092 -0.335978 1.37635e-19)
(5.97875 -0.359781 1.39439e-19)
(5.86553 -0.255931 -1.17491e-20)
(5.93185 -0.291364 -1.24469e-19)
(5.88569 -0.196152 -6.31385e-20)
(5.83431 -0.153829 -1.04035e-20)
(5.30596 0.171281 7.79636e-20)
(5.31241 0.175467 -7.40182e-20)
(5.27402 0.132141 5.06873e-20)
(5.3275 0.195356 5.14797e-20)
(5.33449 0.207405 0)
(5.33388 0.208052 2.3162e-20)
(5.34604 0.222415 4.91439e-20)
(5.32933 0.213064 8.44272e-21)
(5.3375 0.225549 1.91135e-19)
(5.31974 0.209843 -8.69089e-21)
(5.32298 0.223252 -3.92168e-20)
(5.30707 0.196395 7.61873e-21)
(5.30801 0.212303 -2.49999e-20)
(5.29088 0.170835 -6.73904e-21)
(5.29028 0.189983 0)
(5.27013 0.129991 -6.1846e-20)
(5.26793 0.154583 -5.20538e-21)
(5.24765 0.0680281 1.82803e-20)
(5.24164 0.101858 -2.22182e-20)
(5.23287 -0.0226662 -7.22388e-20)
(5.21773 0.0244361 4.22599e-20)
(5.22819 -0.1435 -3.53431e-19)
(5.2073 -0.0840832 2.16357e-20)
(5.18817 -0.281466 2.1302e-20)
(5.19536 -0.217437 -8.61001e-20)
(4.98797 -0.411174 6.29065e-20)
(5.08886 -0.355455 9.3569e-20)
(4.48975 -0.507788 2.76698e-19)
(4.72673 -0.46516 -1.10541e-19)
(3.75454 -0.553141 -3.62178e-19)
(4.04498 -0.508548 -1.2564e-19)
(3.0768 -0.586057 1.94954e-19)
(3.26534 -0.501407 1.05756e-19)
(2.72479 -0.676451 9.46793e-20)
(2.72285 -0.538678 -4.10034e-20)
(2.72098 -0.87506 5.25824e-20)
(2.55124 -0.68188 -3.48277e-19)
(2.9022 -1.15204 -6.53087e-20)
(2.66327 -0.910353 -3.11861e-20)
(3.10658 -1.46664 -4.92378e-20)
(2.85737 -1.18807 -2.0677e-19)
(3.31466 -1.78003 2.19496e-19)
(3.03295 -1.49178 0)
(3.57345 -2.0706 -1.52921e-21)
(3.243 -1.7835 -1.02932e-19)
(3.90349 -2.31582 1.52472e-19)
(3.52743 -2.04197 -3.74004e-19)
(4.3068 -2.49474 3.97244e-19)
(3.90106 -2.24813 8.05392e-19)
(4.76978 -2.58695 -7.87533e-20)
(4.36494 -2.39189 0)
(5.25892 -2.56628 8.30681e-19)
(4.89597 -2.43337 -6.88216e-19)
(5.73088 -2.45378 5.20879e-19)
(5.42827 -2.37321 2.16742e-18)
(6.13139 -2.26781 -1.48446e-19)
(5.93203 -2.2414 -6.89413e-19)
(6.42759 -2.01933 4.09516e-19)
(6.3523 -2.05004 -1.5177e-19)
(6.59821 -1.73115 -8.39023e-20)
(6.66097 -1.80329 4.64034e-19)
(6.63625 -1.4373 -8.51247e-20)
(6.8135 -1.52545 5.00319e-19)
(6.57596 -1.16835 -4.45262e-19)
(6.81511 -1.25339 -5.61014e-19)
(6.46399 -0.936677 -4.0862e-19)
(6.72378 -1.00846 -2.22965e-19)
(6.34368 -0.753282 6.52349e-19)
(6.57653 -0.800288 1.1642e-19)
(6.24169 -0.617316 4.29622e-19)
(6.42402 -0.639444 1.00994e-18)
(6.16288 -0.518083 -2.7554e-19)
(6.29863 -0.524129 -6.37929e-19)
(6.10156 -0.442533 7.15956e-21)
(6.20461 -0.440562 0)
(6.05259 -0.380427 7.15179e-21)
(6.13423 -0.375781 -2.0799e-19)
(6.01132 -0.327256 -1.26563e-19)
(6.08096 -0.325861 2.25462e-19)
(5.97662 -0.27064 1.19021e-18)
(6.03295 -0.276347 -1.8375e-19)
(5.99161 -0.21194 9.10674e-20)
(5.96212 -0.196529 -6.56197e-19)
(5.35077 0.222242 -4.30111e-20)
(5.35746 0.227145 -1.14581e-19)
(5.34062 0.193559 -4.24077e-20)
(5.35162 0.236913 0)
(5.35931 0.249542 0)
(5.34235 0.241169 4.13485e-20)
(5.35398 0.256002 4.36048e-20)
(5.32703 0.238398 1.5703e-20)
(5.33476 0.25259 2.87592e-20)
(5.30895 0.22726 -5.15627e-20)
(5.31207 0.243055 5.3096e-20)
(5.2883 0.205513 2.38863e-21)
(5.28914 0.224364 3.19685e-21)
(5.2634 0.171544 -5.38355e-21)
(5.26284 0.194358 0)
(5.23376 0.122062 -4.58237e-20)
(5.23124 0.15113 -5.2545e-21)
(5.20359 0.0510878 -1.52896e-19)
(5.19621 0.0903026 1.49047e-20)
(5.18135 -0.0474288 1.3966e-19)
(5.16536 0.00512897 -1.84854e-20)
(5.1594 -0.172436 2.84024e-19)
(5.14405 -0.108512 1.01113e-19)
(5.07696 -0.308321 -1.14436e-20)
(5.10192 -0.242243 2.70536e-20)
(4.80928 -0.423999 1.1339e-19)
(4.93581 -0.371784 -1.47148e-19)
(4.2625 -0.486598 -2.29089e-19)
(4.5103 -0.453278 -2.01676e-19)
(3.53933 -0.485747 -7.75037e-20)
(3.82008 -0.449535 2.84324e-19)
(2.90447 -0.475242 -3.47935e-19)
(3.08434 -0.400818 1.09119e-19)
(2.56459 -0.535989 -7.5211e-20)
(2.56971 -0.399114 -6.00285e-20)
(2.52525 -0.699534 1.47066e-20)
(2.37111 -0.50205 -8.33615e-19)
(2.64491 -0.93814 1.64571e-19)
(2.42029 -0.684249 8.72112e-19)
(2.79426 -1.21018 1.47005e-19)
(2.5484 -0.9065 4.71375e-19)
(2.96221 -1.48631 -3.16155e-19)
(2.67293 -1.15183 0)
(3.19771 -1.74187 -5.27773e-19)
(2.84896 -1.38409 -1.24961e-18)
(3.52817 -1.96594 1.07415e-19)
(3.10571 -1.58928 2.62535e-19)
(3.96703 -2.13536 3.26152e-19)
(3.4703 -1.74621 -2.32882e-19)
(4.50178 -2.21931 -5.9246e-19)
(3.9677 -1.86073 2.33791e-18)
(5.07389 -2.21422 -3.42417e-19)
(4.55659 -1.87963 -1.31812e-18)
(5.6423 -2.15687 7.16416e-19)
(5.15413 -1.88087 2.01514e-18)
(6.1671 -2.03293 -5.37107e-19)
(5.75729 -1.80357 0)
(6.59577 -1.84375 -9.49384e-20)
(6.30933 -1.67964 3.30428e-19)
(6.88345 -1.60458 1.03163e-18)
(6.7628 -1.50706 9.48367e-19)
(6.99807 -1.34321 8.13075e-21)
(7.04663 -1.29393 5.66152e-19)
(6.96797 -1.09476 -3.41409e-19)
(7.12314 -1.06607 -5.45432e-19)
(6.8387 -0.871395 1.58e-19)
(7.06988 -0.852971 -6.51529e-19)
(6.65777 -0.684073 3.32057e-19)
(6.91972 -0.668249 6.2013e-19)
(6.48183 -0.544037 1.67414e-19)
(6.71313 -0.521519 3.90539e-19)
(6.34204 -0.446134 -3.62982e-19)
(6.518 -0.418449 -3.56855e-19)
(6.23977 -0.37671 -2.14777e-19)
(6.36826 -0.349369 -3.36153e-19)
(6.16418 -0.324964 1.82957e-20)
(6.26074 -0.300248 1.15538e-19)
(6.10678 -0.284716 1.78704e-19)
(6.18216 -0.264042 2.26782e-19)
(6.06286 -0.248069 4.1597e-20)
(6.12091 -0.229717 -2.60979e-19)
(6.07124 -0.195784 2.68035e-19)
(6.04924 -0.199837 1.14483e-19)
(5.37278 0.262499 -6.72752e-20)
(5.38146 0.26845 -6.92092e-20)
(5.38127 0.242475 -3.0079e-19)
(5.35957 0.270775 4.50051e-20)
(5.36883 0.283275 0)
(5.33919 0.268847 1.41119e-20)
(5.34999 0.283944 8.48077e-20)
(5.31474 0.25951 2.21207e-21)
(5.32187 0.275411 -2.64457e-19)
(5.28878 0.241345 1.23247e-20)
(5.29189 0.259595 6.3326e-21)
(5.25959 0.212372 6.53158e-22)
(5.2605 0.234201 5.2051e-20)
(5.22529 0.171039 0)
(5.22484 0.197613 -2.31968e-20)
(5.18647 0.114115 5.86802e-20)
(5.18364 0.147822 2.17251e-20)
(5.14832 0.036166 1.47504e-19)
(5.13992 0.0806719 1.56812e-21)
(5.11582 -0.0673849 -5.83364e-20)
(5.10067 -0.00958559 1.03585e-20)
(5.0707 -0.193092 2.2651e-19)
(5.06317 -0.1252 1.44832e-19)
(4.94162 -0.321424 2.35079e-19)
(4.9842 -0.25552 2.50473e-19)
(4.61634 -0.41548 -2.49075e-19)
(4.76193 -0.368696 -4.32403e-19)
(4.04537 -0.438193 5.43766e-20)
(4.29601 -0.413888 1.76128e-19)
(3.34815 -0.391065 4.79165e-19)
(3.61926 -0.365529 1.8055e-20)
(2.74939 -0.334703 1.90851e-19)
(2.92863 -0.274623 -1.78265e-19)
(2.4046 -0.352859 -8.62958e-20)
(2.42279 -0.227272 -1.52381e-19)
(2.31689 -0.460921 -8.35034e-20)
(2.1857 -0.27037 -8.72696e-20)
(2.37142 -0.63727 -3.4284e-19)
(2.16358 -0.385626 4.47059e-21)
(2.46211 -0.837009 -3.56509e-19)
(2.22357 -0.529334 -2.82281e-18)
(2.57854 -1.03498 -9.09112e-19)
(2.29019 -0.68711 1.4213e-20)
(2.76734 -1.21636 -6.03948e-19)
(2.4135 -0.822794 -2.03501e-18)
(3.06272 -1.35936 -3.18435e-19)
(2.63016 -0.927941 -1.04875e-18)
(3.49097 -1.45156 1.41917e-18)
(2.96062 -0.9863 7.5633e-19)
(4.04345 -1.49532 2.06732e-18)
(3.43349 -1.02749 2.31567e-18)
(4.65359 -1.51301 1.93152e-19)
(4.01337 -1.03315 -1.56734e-18)
(5.28599 -1.50631 9.40279e-19)
(4.63063 -1.06119 -8.87993e-19)
(5.92602 -1.46045 1.24655e-18)
(5.292 -1.04245 8.60682e-19)
(6.50466 -1.35771 1.37505e-18)
(5.96221 -0.993219 1.00859e-18)
(6.95021 -1.20682 1.04557e-19)
(6.56986 -0.914965 1.24948e-18)
(7.19064 -1.02449 0)
(7.03105 -0.800377 0)
(7.23966 -0.825577 -1.11832e-18)
(7.26553 -0.659395 -1.14494e-18)
(7.16477 -0.652449 -3.19874e-19)
(7.27766 -0.512252 -7.13569e-19)
(6.98305 -0.503615 6.75007e-19)
(7.18615 -0.387702 3.53941e-21)
(6.7547 -0.392939 -2.49348e-20)
(6.98098 -0.295249 7.45364e-19)
(6.54931 -0.319494 -3.58524e-19)
(6.73962 -0.235452 -2.47371e-20)
(6.39453 -0.271636 -8.76895e-20)
(6.53534 -0.200825 -3.55384e-19)
(6.28401 -0.238683 3.2925e-19)
(6.38642 -0.180277 3.26796e-19)
(6.20288 -0.213925 -1.96165e-19)
(6.28176 -0.168111 0)
(6.13983 -0.19402 2.44088e-19)
(6.20395 -0.154145 -1.79957e-19)
(6.14399 -0.149921 1.72096e-19)
(6.11278 -0.162765 -1.57786e-19)
(5.37985 0.295287 0)
(5.38984 0.301905 0)
(5.40089 0.281301 1.34663e-19)
(5.35531 0.298872 4.30734e-20)
(5.36582 0.311646 0)
(5.32546 0.29228 -5.19116e-20)
(5.33554 0.308171 4.16768e-20)
(5.29315 0.277591 -8.59382e-20)
(5.29971 0.295542 -8.41029e-20)
(5.25887 0.253561 -6.41498e-21)
(5.26202 0.274467 7.96186e-20)
(5.22034 0.218613 -2.53413e-20)
(5.22133 0.243545 -6.91039e-22)
(5.17624 0.171372 6.5993e-22)
(5.17573 0.201732 -2.4724e-20)
(5.12811 0.108933 -3.88621e-20)
(5.1248 0.14714 -8.95976e-21)
(5.08076 0.0266355 -1.07455e-19)
(5.07201 0.0760941 -5.76692e-20)
(5.03402 -0.0787373 2.26227e-19)
(5.02157 -0.016103 7.7067e-20)
(4.9607 -0.201033 4.07658e-19)
(4.96253 -0.130057 1.93928e-19)
(4.7863 -0.315576 1.74717e-19)
(4.84432 -0.251359 -1.66746e-19)
(4.42017 -0.38033 2.07093e-20)
(4.57755 -0.340842 1.01293e-19)
(3.84741 -0.361485 -4.7325e-19)
(4.09554 -0.347631 -4.08826e-19)
(3.18499 -0.270168 -7.18686e-19)
(3.44909 -0.259437 2.08576e-19)
(2.61247 -0.167561 -5.51637e-19)
(2.8008 -0.12588 -1.18588e-19)
(2.25063 -0.124634 -1.54606e-19)
(2.29457 -0.0227699 7.38394e-19)
(2.1077 -0.156426 0)
(2.01017 0.0114971 -5.28313e-20)
(2.09763 -0.245858 2.56787e-19)
(1.91114 -0.017588 3.75921e-20)
(2.13273 -0.347685 2.82577e-19)
(1.9029 -0.0655891 -1.68569e-19)
(2.19791 -0.434327 9.99933e-19)
(1.91301 -0.11585 3.15157e-20)
(2.32954 -0.49819 -2.97437e-19)
(1.97665 -0.129977 -1.16838e-19)
(2.56252 -0.534041 9.279e-20)
(2.13091 -0.109135 -4.05124e-18)
(2.92718 -0.541826 8.87075e-19)
(2.39814 -0.0552223 8.56335e-19)
(3.42503 -0.54309 -1.18693e-18)
(2.79599 -0.0128929 1.16142e-18)
(4.01298 -0.557692 -3.42829e-18)
(3.31092 0.012363 -1.84412e-18)
(4.65783 -0.571888 -2.15858e-18)
(3.89894 -0.00530758 -1.60395e-18)
(5.35861 -0.585988 2.25917e-19)
(4.56063 -0.0366086 8.27186e-19)
(6.05965 -0.5726 5.1498e-19)
(5.29746 -0.0605042 -3.60582e-18)
(6.67603 -0.527676 7.74469e-19)
(6.02621 -0.0769245 7.51482e-19)
(7.12319 -0.453813 -1.11593e-18)
(6.65743 -0.0728223 0)
(7.30878 -0.356445 -5.82515e-19)
(7.11275 -0.0466207 -7.27852e-19)
(7.30144 -0.255378 -1.59003e-19)
(7.28865 -0.00443844 8.42202e-19)
(7.19098 -0.179363 1.33189e-20)
(7.26806 0.0322885 -3.27355e-19)
(6.97719 -0.135044 7.38559e-19)
(7.11942 0.0447203 1.31182e-18)
(6.73839 -0.114795 -2.39073e-20)
(6.89106 0.0358227 -5.14027e-19)
(6.53905 -0.108214 -2.40361e-20)
(6.6646 0.0143761 3.12925e-19)
(6.39416 -0.108366 0)
(6.48446 -0.00968446 -6.63041e-19)
(6.29191 -0.110075 1.59297e-20)
(6.35741 -0.0325801 3.03022e-19)
(6.21334 -0.112543 1.59284e-20)
(6.26722 -0.0456277 3.14447e-20)
(6.19902 -0.0709675 4.67984e-19)
(6.17113 -0.104059 7.06783e-20)
(5.37496 0.323572 0)
(5.38649 0.331587 6.39066e-20)
(5.40614 0.313638 0)
(5.34047 0.323713 0)
(5.3524 0.337848 -1.31954e-19)
(5.30224 0.313591 0)
(5.31207 0.331225 0)
(5.26174 0.294467 6.19745e-21)
(5.26825 0.315184 1.04365e-20)
(5.21835 0.265678 5.67192e-21)
(5.222 0.289902 1.23604e-20)
(5.17016 0.226504 6.45079e-20)
(5.17163 0.254726 -1.96368e-20)
(5.11614 0.175443 -1.96639e-20)
(5.11565 0.209434 6.31785e-20)
(5.05833 0.110007 -7.98092e-20)
(5.05478 0.152231 -3.12761e-20)
(4.99977 0.0264977 -1.01485e-20)
(4.99177 0.0802412 -1.82055e-20)
(4.93468 -0.076826 4.92906e-20)
(4.92652 -0.0101829 -1.38312e-19)
(4.83006 -0.190564 -1.63211e-19)
(4.8419 -0.117607 1.88105e-19)
(4.61805 -0.285461 -1.36903e-19)
(4.68797 -0.223283 -2.03543e-19)
(4.23201 -0.318913 -3.79383e-19)
(4.39316 -0.284831 9.17944e-20)
(3.6774 -0.261156 -1.7083e-19)
(3.91877 -0.256995 -1.34211e-19)
(3.05663 -0.126141 7.78683e-19)
(3.31741 -0.133805 2.55841e-19)
(2.50434 0.0252844 3.6525e-19)
(2.70806 0.0405262 3.20843e-19)
(2.11897 0.143714 1.06048e-19)
(2.20296 0.207487 1.5946e-19)
(1.91789 0.206641 8.62337e-21)
(1.86914 0.330442 1.9193e-18)
(1.84483 0.224447 -3.73249e-19)
(1.69196 0.400206 2.72022e-18)
(1.82719 0.23501 -4.06983e-19)
(1.6129 0.457845 -6.67669e-18)
(1.84038 0.274408 -1.05969e-18)
(1.56981 0.529015 1.72448e-20)
(1.90885 0.34355 2.29861e-19)
(1.57555 0.642807 -7.28514e-18)
(2.06351 0.428179 -1.87138e-18)
(1.65561 0.787727 1.33481e-18)
(2.32879 0.506592 -1.54181e-18)
(1.8332 0.94136 -5.7735e-18)
(2.71584 0.556517 8.62311e-19)
(2.12381 1.06078 2.01943e-18)
(3.2159 0.56051 -1.01804e-19)
(2.52934 1.12633 -1.97469e-18)
(3.81699 0.524361 9.38054e-19)
(3.03446 1.11221 2.79739e-18)
(4.51888 0.466717 -3.11842e-18)
(3.65627 1.04104 7.39061e-19)
(5.28341 0.403433 -3.18718e-18)
(4.39778 0.949971 -1.06756e-18)
(6.02532 0.348022 0)
(5.19011 0.850999 -1.16143e-18)
(6.66131 0.309034 4.25314e-19)
(5.94502 0.755527 0)
(7.10587 0.285414 1.03843e-18)
(6.57508 0.673017 7.46019e-20)
(7.27208 0.278967 8.2487e-19)
(6.98513 0.603652 1.01298e-18)
(7.21995 0.255728 7.88267e-19)
(7.12231 0.541285 4.76518e-19)
(7.05255 0.217338 2.08e-19)
(7.0722 0.465241 -6.47384e-19)
(6.83091 0.166454 -1.27428e-19)
(6.90187 0.375353 -4.09816e-19)
(6.62109 0.113782 -1.60124e-19)
(6.69691 0.283516 7.47418e-19)
(6.45761 0.0670567 -4.53939e-19)
(6.51576 0.202013 -6.74162e-19)
(6.34282 0.0300421 2.84408e-19)
(6.38271 0.135009 2.96345e-19)
(6.25911 0.000734073 4.50088e-19)
(6.28986 0.0896533 2.25721e-19)
(6.22599 0.0357758 2.24796e-19)
(6.20669 -0.0140362 -1.02629e-18)
(5.36089 0.350968 1.56782e-20)
(5.37415 0.36183 6.46336e-20)
(5.40132 0.344491 6.2194e-20)
(5.31673 0.348405 -1.27709e-19)
(5.33042 0.365774 2.4338e-20)
(5.26983 0.33548 1.10092e-20)
(5.28045 0.356454 4.0571e-20)
(5.22044 0.31282 4.85189e-20)
(5.22773 0.337475 -4.52251e-21)
(5.16728 0.280419 -6.03092e-20)
(5.17191 0.309124 2.73364e-20)
(5.10893 0.23836 -1.91521e-20)
(5.11152 0.271108 -5.17404e-20)
(5.04507 0.185841 3.70961e-20)
(5.04554 0.224236 0)
(4.97697 0.1206 3.40218e-20)
(4.97439 0.167017 -1.88619e-20)
(4.9046 0.0397246 -1.55624e-19)
(4.89912 0.0975321 2.12734e-19)
(4.81769 -0.0565106 -1.88615e-20)
(4.8157 0.0133833 -2.82428e-19)
(4.68319 -0.155879 1.13708e-19)
(4.7046 -0.0813565 3.09893e-19)
(4.44584 -0.22713 -1.2005e-19)
(4.52311 -0.16545 -4.15417e-19)
(4.06087 -0.229933 3.77771e-19)
(4.21876 -0.19829 1.84632e-19)
(3.54243 -0.139115 1.22097e-19)
(3.77244 -0.14201 3.96786e-19)
(2.96908 0.0322124 -2.98341e-19)
(3.22737 0.00846605 -5.92709e-19)
(2.43938 0.236381 1.1221e-19)
(2.66319 0.219325 2.2463e-19)
(2.03265 0.435348 5.50085e-20)
(2.16914 0.448007 -3.93021e-20)
(1.77635 0.601774 -2.15611e-19)
(1.79518 0.658262 8.16972e-20)
(1.63798 0.736173 6.78522e-19)
(1.54443 0.829724 -7.66013e-18)
(1.55849 0.866187 9.73973e-19)
(1.39281 0.997019 9.48014e-18)
(1.51075 1.02972 1.12753e-18)
(1.29599 1.19537 0)
(1.50681 1.21342 1.15669e-18)
(1.24076 1.42369 -1.14952e-19)
(1.56986 1.39429 1.71317e-18)
(1.24334 1.66648 2.14354e-19)
(1.72165 1.54476 -1.22662e-19)
(1.32556 1.89104 1.50701e-18)
(1.98003 1.63972 -2.9029e-18)
(1.50118 2.05632 -1.38821e-18)
(2.36265 1.65012 1.04563e-18)
(1.77173 2.12779 -4.10885e-18)
(2.88402 1.58687 2.17845e-18)
(2.16047 2.08902 1.82673e-18)
(3.543 1.48842 2.33149e-18)
(2.71509 1.97708 -1.43608e-18)
(4.31161 1.36105 5.12131e-19)
(3.41046 1.82493 3.42e-18)
(5.12099 1.22392 -1.14703e-18)
(4.20692 1.65749 6.04866e-19)
(5.87544 1.09358 -3.34501e-19)
(5.03462 1.48599 9.0019e-20)
(6.47735 0.971625 -1.41629e-19)
(5.79367 1.32588 -9.6604e-19)
(6.8539 0.854949 1.93791e-19)
(6.37677 1.1777 4.76945e-19)
(6.98532 0.74332 -9.81578e-19)
(6.70991 1.03231 2.08555e-19)
(6.9284 0.619691 -1.22981e-18)
(6.80264 0.88004 -1.16433e-18)
(6.77172 0.491052 2.96825e-19)
(6.73019 0.717675 2.76841e-19)
(6.59409 0.370841 3.38634e-19)
(6.58593 0.55885 1.64467e-19)
(6.44294 0.27056 -2.80911e-20)
(6.44148 0.4206 -1.65752e-19)
(6.33323 0.19321 2.38768e-19)
(6.33024 0.310194 3.86351e-19)
(6.25682 0.134519 4.99027e-19)
(6.25153 0.233132 5.04284e-20)
(6.20571 0.156438 -2.30917e-19)
(6.20369 0.0935848 -2.27155e-19)
(5.34003 0.381385 1.19585e-20)
(5.35569 0.397334 0)
(5.38962 0.377773 1.14153e-19)
(5.28593 0.376922 6.06223e-20)
(5.30211 0.399882 1.17137e-20)
(5.22901 0.361639 3.42876e-20)
(5.24159 0.388584 2.83157e-19)
(5.16977 0.336413 7.19371e-21)
(5.17907 0.36698 -2.71384e-19)
(5.10648 0.301648 -5.33026e-20)
(5.11286 0.336668 -9.6755e-20)
(5.03796 0.258228 -3.05791e-20)
(5.04226 0.297237 -1.81266e-21)
(4.96367 0.206081 -1.2869e-19)
(4.96632 0.250869 -6.45858e-20)
(4.88356 0.143719 1.3746e-19)
(4.88434 0.196444 -1.72364e-19)
(4.79492 0.069629 5.43459e-20)
(4.79532 0.133247 3.27834e-19)
(4.6856 -0.0136973 7.43725e-20)
(4.6927 0.0606289 -1.3623e-19)
(4.52685 -0.0922617 -2.88665e-19)
(4.55817 -0.0148356 5.26951e-21)
(4.27823 -0.136987 -5.0473e-20)
(4.3592 -0.0726069 -1.28287e-20)
(3.91346 -0.112323 2.14387e-19)
(4.06215 -0.0784314 -1.1236e-19)
(3.44653 0.00395368 -3.26576e-19)
(3.65959 -0.000718955 1.17198e-19)
(2.92972 0.201473 -1.77769e-19)
(3.17863 0.167532 -2.42747e-19)
(2.43532 0.452685 7.23054e-20)
(2.67509 0.405605 -1.36167e-19)
(2.02286 0.723395 -2.14005e-20)
(2.2103 0.68032 3.35444e-20)
(1.71979 0.985662 9.82295e-20)
(1.81845 0.959456 4.62145e-20)
(1.51221 1.23107 -4.3084e-19)
(1.50772 1.22491 -4.01872e-18)
(1.36086 1.47756 -5.29609e-19)
(1.29314 1.49414 -5.47643e-19)
(1.24371 1.74586 -1.21373e-18)
(1.14246 1.80163 2.41825e-20)
(1.16195 2.01419 -1.035e-18)
(1.02416 2.11542 -8.56413e-18)
(1.12986 2.25539 8.89211e-20)
(0.949913 2.41764 2.07982e-19)
(1.17108 2.43602 2.69029e-19)
(0.93369 2.67099 1.53069e-18)
(1.30959 2.52857 -2.63488e-18)
(0.990407 2.83451 1.75364e-18)
(1.57967 2.50666 -2.26285e-18)
(1.12299 2.86048 -3.02806e-19)
(2.00413 2.41797 -9.25814e-19)
(1.40975 2.78098 1.47355e-18)
(2.5874 2.2739 3.62547e-19)
(1.86879 2.61887 -2.1853e-18)
(3.30969 2.08996 3.0046e-18)
(2.48429 2.41183 1.93899e-18)
(4.12713 1.8886 1.29996e-18)
(3.23812 2.1867 7.42878e-19)
(4.95926 1.69145 -9.04725e-19)
(4.0813 1.95943 1.16755e-18)
(5.69771 1.50892 -4.28884e-19)
(4.92168 1.74897 -9.21304e-19)
(6.23825 1.33535 5.16907e-19)
(5.63803 1.55891 1.10483e-19)
(6.5315 1.15839 1.54063e-19)
(6.12763 1.3732 5.13169e-20)
(6.60702 0.971467 2.18824e-19)
(6.36419 1.17581 0)
(6.54572 0.782553 1.85519e-19)
(6.40393 0.967481 2.05873e-19)
(6.43271 0.608984 -3.42131e-19)
(6.34221 0.76555 -3.00987e-19)
(6.32522 0.463755 -1.85915e-19)
(6.25645 0.589809 -1.41778e-19)
(6.24546 0.350817 4.00288e-19)
(6.18837 0.450714 4.41825e-19)
(6.19307 0.26657 -1.80994e-19)
(6.14242 0.35174 -2.82024e-19)
(6.12604 0.264717 1.79341e-20)
(6.15098 0.201161 -5.90468e-20)
(5.31506 0.419863 0)
(5.33521 0.443703 0)
(5.3747 0.417447 -1.11562e-19)
(5.25012 0.414329 4.55073e-20)
(5.27044 0.445542 -7.62263e-20)
(5.18185 0.397313 3.35772e-20)
(5.19754 0.433482 4.47048e-20)
(5.11146 0.370438 -3.15082e-23)
(5.12424 0.410077 -1.17091e-19)
(5.03749 0.334673 4.03351e-20)
(5.04719 0.378884 7.84734e-21)
(4.95874 0.291694 -3.87451e-20)
(4.96647 0.339411 1.82107e-19)
(4.87366 0.242416 -9.23179e-20)
(4.88067 0.295463 -6.80679e-20)
(4.7806 0.186407 8.37658e-20)
(4.78762 0.246495 -1.64016e-21)
(4.67499 0.123794 1.01135e-19)
(4.68461 0.193414 -1.29788e-19)
(4.54507 0.0588227 -2.08852e-19)
(4.56417 0.137628 1.40837e-19)
(4.36942 0.005141 2.74957e-19)
(4.41163 0.0869009 -2.07814e-19)
(4.12303 -0.0123823 -7.86834e-20)
(4.20565 0.0581865 4.53175e-19)
(3.79231 0.0350196 -2.40624e-19)
(3.9275 0.07763 -2.64938e-19)
(3.38697 0.167792 2.4628e-19)
(3.5769 0.17317 -9.26798e-20)
(2.93981 0.383308 -2.56062e-19)
(3.16753 0.352675 2.08147e-19)
(2.49923 0.662319 -2.10717e-19)