/*--------------------------------*- C++ -*----------------------------------*\
  =========                 |
  \\      /  F ield         | OpenFOAM: The Open Source CFD Toolbox
   \\    /   O peration     | Website:  https://openfoam.org
    \\  /    A nd           | Version:  6
     \\/     M anipulation  |
\*---------------------------------------------------------------------------*/
FoamFile
{
    version     2.0;
    format      ascii;
    class       volScalarField;
    location    "2.18";
    object      epsilon;
}
// * * * * * * * * * * * * * * * * * * * * * * * * * * * * * * * * * * * * * //

dimensions      [0 2 -3 0 0 0 0];

internalField   nonuniform List<scalar> 
4214
(
0.163397
0.0650997
0.028332
0.0153219
0.0109898
0.00968502
0.00946521
0.00974813
0.0104513
0.0117459
0.0140632
0.0182648
0.0260399
0.0407861
0.0698572
0.130713
0.272649
0.616549
1.21195
1.51656
1.5255
1.68311
1.82871
1.8547
1.77175
1.56604
1.25069
0.879683
0.535075
0.283106
0.135506
0.0628762
0.0310303
0.0180416
0.0131321
0.0117725
0.0128696
0.0183125
0.0350998
0.0819796
0.206379
0.0800442
0.0346295
0.0181327
0.0122984
0.0103269
0.0097618
0.0097693
0.0101176
0.0108283
0.0120995
0.0143623
0.0184492
0.0259529
0.0399468
0.0666342
0.120045
0.238533
0.530771
1.12569
1.61796
1.65661
1.90234
2.18599
2.26539
2.15649
1.88341
1.48535
1.03088
0.618995
0.321765
0.150158
0.0677511
0.0325863
0.0185947
0.0133435
0.0116281
0.011675
0.0136865
0.0200204
0.037051
0.079844
0.0343036
0.019613
0.0134948
0.0110816
0.0102156
0.0100077
0.0101345
0.0105255
0.0112554
0.0125452
0.0148453
0.0190048
0.0266054
0.0405621
0.066397
0.115571
0.217328
0.457795
0.997501
1.61634
1.6919
1.92642
2.43577
2.71851
2.64262
2.29189
1.77377
1.20983
0.716514
0.366416
0.166941
0.0731109
0.0341833
0.0191217
0.013574
0.0116785
0.0112987
0.0119809
0.014335
0.0202177
0.0335039
0.0218869
0.0150558
0.0120733
0.0108482
0.0104178
0.0103712
0.0105634
0.0109898
0.0117564
0.013112
0.0155505
0.0199838
0.0280771
0.0427596
0.0692321
0.117254
0.209294
0.410895
0.882962
1.60162
1.8472
2.02225
2.64707
3.21307
3.22868
2.79961
2.13241
1.42921
0.835196
0.420729
0.187264
0.0794757
0.0360023
0.0196883
0.0138326
0.0118259
0.0112711
0.0114731
0.0125316
0.0151684
0.0209308
0.0168186
0.0132442
0.0116369
0.0109647
0.0107527
0.0107967
0.0110349
0.0115001
0.012327
0.0138035
0.016497
0.0214327
0.0304603
0.0466876
0.0753119
0.125063
0.213548
0.388972
0.789128
1.52748
1.98735
2.09359
2.73959
3.66349
3.91339
3.42637
2.57414
1.69496
0.977089
0.485982
0.211854
0.0871218
0.0381181
0.0203024
0.0141011
0.0120077
0.011369
0.0113603
0.0118766
0.0132121
0.016082
0.014591
0.0125771
0.0116488
0.0112625
0.0111719
0.0112737
0.0115515
0.0120652
0.012984
0.0146514
0.0177467
0.0234675
0.0339676
0.0527024
0.0851805
0.139653
0.230335
0.392096
0.731652
1.42802
2.08389
2.14955
2.75155
4.00009
4.6752
4.18849
3.11824
2.02043
1.14852
0.565458
0.242289
0.0966472
0.0407243
0.0210222
0.0143953
0.0122137
0.0115284
0.0114183
0.0116835
0.0124337
0.0140281
0.0136429
0.0124486
0.0118871
0.0116641
0.0116499
0.0117958
0.0121153
0.0126947
0.0137498
0.0157013
0.0193932
0.0262636
0.0389234
0.0613488
0.0996886
0.162141
0.260541
0.419552
0.716089
1.33545
2.11916
2.24437
2.72344
4.17443
5.44523
5.09591
3.78468
2.41517
1.35632
0.662623
0.280488
0.108818
0.0440665
0.0219128
0.0147305
0.0124403
0.0117216
0.011558
0.0116953
0.0121552
0.0131251
0.0133455
0.0126073
0.0122589
0.0121385
0.0121792
0.0123652
0.0127352
0.0134064
0.0146618
0.0170271
0.0215852
0.0300893
0.0458155
0.0734293
0.120093
0.194222
0.305867
0.471478
0.743235
1.27766
2.10128
2.39958
2.70638
4.19197
6.12725
6.14714
4.59205
2.89247
1.60934
0.781852
0.329104
0.124746
0.0485179
0.0230731
0.0151322
0.012692
0.0119401
0.0117441
0.0118102
0.0121126
0.0127495
0.0134075
0.0129378
0.012723
0.0126742
0.0127604
0.0129884
0.0134251
0.0142278
0.0157797
0.018743
0.0245507
0.0353437
0.0553574
0.090073
0.148128
0.238198
0.368735
0.548962
0.811228
1.27171
2.05794
2.52687
2.71508
4.0688
6.63782
7.32013
5.55574
3.46926
1.91827
0.928566
0.391666
0.146042
0.0546515
0.0246528
0.0156372
0.0129772
0.0121825
0.0119624
0.0119846
0.0121937
0.0126373
0.01369
0.013388
0.0132646
0.0132712
0.0133998
0.0136767
0.0142078
0.0152033
0.0171995
0.0210256
0.0286383
0.0426096
0.0685832
0.112829
0.186116
0.296994
0.452178
0.653918
0.91837
1.32312
2.02376
2.60834
2.71528
3.86094
6.92827
8.55645
6.68178
4.16309
2.29121
1.11019
0.472894
0.175067
0.0633954
0.0268996
0.0163062
0.0133092
0.0124519
0.0122093
0.012201
0.0123496
0.0126717
0.0141266
0.0139378
0.0138827
0.0139358
0.0141082
0.0144475
0.0151211
0.0164048
0.0190782
0.0241478
0.034384
0.0527295
0.0869712
0.143779
0.237098
0.374193
0.559918
0.789354
1.06474
1.43114
2.03015
2.65592
2.7434
3.69063
7.04393
9.77892
7.95915
4.98881
2.73515
1.33649
0.579104
0.21525
0.0762987
0.0302504
0.0172514
0.0137099
0.0127554
0.0124859
0.012454
0.0125602
0.012801
0.0146933
0.0145869
0.0145851
0.0146782
0.0149015
0.0153284
0.01623
0.0179512
0.0216772
0.0285316
0.0426171
0.0669063
0.112622
0.185609
0.30505
0.47413
0.696831
0.96047
1.25371
1.59764
2.10238
2.70202
2.80424
3.61524
7.07299
10.9279
9.37528
5.94161
3.26473
1.61674
0.718235
0.271364
0.095975
0.0355132
0.0187066
0.0142213
0.0131051
0.0127976
0.0127449
0.0128201
0.0130041
0.0153971
0.0153492
0.0153858
0.0155119
0.0158058
0.0163659
0.0176538
0.0200413
0.0254392
0.0348246
0.0546304
0.0868258
0.148516
0.241668
0.395115
0.602059
0.870207
1.17639
1.49522
1.8375
2.266
2.78589
2.89267
3.5691
7.06865
11.9874
10.9162
7.01439
3.89164
1.95144
0.899351
0.34951
0.126781
0.0442003
0.0212023
0.0149388
0.0135274
0.0131536
0.0130796
0.0131315
0.0132762
0.0162563
0.0162383
0.0162975
0.0164529
0.0168695
0.0176435
0.0196181
0.0230064
0.0311288
0.0440063
0.0724582
0.114768
0.198889
0.31593
0.514141
0.764303
1.09151
1.45279
1.8109
2.16103
2.5173
2.93247
3.01385
3.57469
7.05093
12.9856
12.5453
8.17432
4.60713
2.33559
1.13227
0.456094
0.175674
0.0590409
0.0259887
0.0161089
0.0140945
0.0135703
0.0134686
0.0135017
0.0136208
0.017272
0.0172489
0.0173274
0.0175232
0.0181972
0.0193126
0.0225668
0.0273849
0.0400955
0.0575025
0.0993459
0.153646
0.269805
0.412803
0.671876
0.968796
1.37923
1.81202
2.21244
2.55577
2.85363
3.15943
3.16009
3.63227
7.233
14.1197
14.1705
9.34957
5.38316
2.75423
1.42521
0.594443
0.25267
0.0843652
0.0359648
0.0183901
0.0150505
0.0140839
0.0139322
0.0139432
0.0140461
0.0184041
0.0183537
0.0185013
0.0187715
0.0200394
0.0216386
0.0274072
0.0339977
0.0547915
0.0772256
0.140565
0.20676
0.370212
0.536559
0.883367
1.22558
1.7637
2.28474
2.74842
3.09088
3.29962
3.49695
3.3831
3.80982
7.78475
15.7483
15.5987
10.3961
6.2108
3.16619
1.78365
0.756421
0.369518
0.124785
0.0572949
0.0233889
0.0172967
0.0147998
0.0145227
0.0144756
0.0145663
0.0195991
0.0195393
0.019952
0.0203043
0.0230305
0.0250204
0.0360802
0.0438996
0.079848
0.105256
0.204936
0.276826
0.513976
0.689986
1.17424
1.54612
2.29484
2.90297
3.43932
3.77548
3.84693
3.91363
3.5517
3.89729
8.83577
18.3479
16.249
11.0455
7.09506
3.49471
2.20878
0.907203
0.535191
0.177534
0.100656
0.0337323
0.0239931
0.0161283
0.0155265
0.0151259
0.0152033
0.0153698
0.0147293
0.0142172
0.0138147
0.0135134
0.0133104
0.0132098
0.0132338
0.0134368
0.0139342
0.0149762
0.0171274
0.0217437
0.0325162
0.0615123
0.186264
0.530238
0.0156532
0.0150422
0.0145587
0.0141957
0.0139516
0.0138317
0.0138526
0.0140505
0.0145129
0.015407
0.0170772
0.0202686
0.0267261
0.0410626
0.078235
0.233068
0.711524
0.0159984
0.0154101
0.0149576
0.0146403
0.0144649
0.0144482
0.0146245
0.0150577
0.0158654
0.0172923
0.0198206
0.0244171
0.0333203
0.0522768
0.100119
0.299615
0.917559
0.0163986
0.015833
0.0154134
0.0151467
0.0150492
0.0151527
0.0155153
0.0162412
0.0175111
0.0196444
0.0232526
0.0296924
0.0417609
0.0666467
0.128098
0.380204
1.17159
0.0168549
0.0163107
0.0159247
0.0157104
0.0156953
0.015928
0.0164971
0.0175566
0.0193694
0.0223914
0.0274469
0.0361443
0.0521113
0.0845711
0.163433
0.476431
1.47456
0.0173664
0.0168431
0.016489
0.0163244
0.0163881
0.016747
0.0175222
0.0189247
0.0213156
0.0253149
0.0320319
0.0435964
0.0645518
0.106224
0.206758
0.580916
1.82524
0.0179361
0.0174304
0.0171032
0.0169805
0.0171107
0.0175773
0.0185319
0.0202431
0.0231734
0.0281254
0.0365356
0.051144
0.0777499
0.130809
0.25823
0.696168
2.20692
0.0185636
0.018073
0.0177654
0.0176717
0.0178479
0.0183893
0.0194708
0.0214068
0.0247509
0.0304823
0.0403732
0.0578147
0.0899751
0.154695
0.309844
0.814622
2.6003
0.0192537
0.0187732
0.0184757
0.0183953
0.0185914
0.019165
0.0203016
0.0223407
0.0258962
0.032084
0.0429661
0.0625361
0.099275
0.174252
0.354579
0.919648
2.965
0.0200083
0.0195345
0.0192381
0.0191541
0.0193428
0.0199036
0.0210186
0.023025
0.0265508
0.0327751
0.0439405
0.0644824
0.103922
0.185962
0.385167
0.993484
3.25264
0.0208319
0.0203634
0.0200601
0.0199575
0.0201142
0.0206227
0.0216493
0.023503
0.0267738
0.0326097
0.0432736
0.0633744
0.102985
0.187302
0.394464
1.02392
3.42217
0.0217304
0.0212676
0.0209528
0.0208209
0.0209271
0.0213546
0.0222464
0.0238661
0.0267228
0.0318415
0.0413284
0.0596366
0.0967605
0.17798
0.381229
1.00574
3.45445
0.0227088
0.0222562
0.0219299
0.0217636
0.0218084
0.0221387
0.0228733
0.0242246
0.026599
0.030836
0.0387356
0.0542816
0.0867637
0.160182
0.34888
0.943542
3.35707
0.0237733
0.0233392
0.0230059
0.0228068
0.0227875
0.0230154
0.0235887
0.0246749
0.0265814
0.0299442
0.0361773
0.0485739
0.075209
0.137697
0.304232
0.849003
3.15762
0.0249291
0.0245255
0.0241952
0.0239717
0.0238939
0.0240232
0.0244427
0.0252861
0.026783
0.0293898
0.0341362
0.0435381
0.0641457
0.114453
0.254836
0.736592
2.89166
0.0261802
0.0258228
0.0255108
0.0252776
0.0251551
0.0251987
0.0254804
0.0261102
0.0272652
0.0292687
0.0328306
0.0397354
0.0549277
0.0934007
0.206684
0.61939
2.59238
0.0275319
0.0272378
0.0269624
0.0267399
0.0265937
0.0265728
0.0267397
0.0271882
0.028063
0.0296042
0.0322974
0.0373409
0.0482108
0.0763228
0.164085
0.506583
2.286
0.0289865
0.0287746
0.0285582
0.0283701
0.0282267
0.0281695
0.0282515
0.0285535
0.0291992
0.0303819
0.0324517
0.0362051
0.0439568
0.0638934
0.129659
0.407224
1.99131
0.0305499
0.0304401
0.0303045
0.0301769
0.0300659
0.030006
0.0300399
0.0302359
0.0307008
0.0316001
0.0332111
0.0360928
0.0417625
0.0557818
0.103783
0.323026
1.72049
0.0322255
0.0322355
0.0322066
0.0321674
0.0321204
0.0320946
0.0321217
0.0322581
0.0325935
0.0332726
0.0345319
0.0368045
0.041127
0.0511096
0.0852798
0.256425
1.48051
0.0340187
0.0341722
0.0342731
0.0343506
0.0344002
0.0344461
0.0345102
0.0346369
0.0348989
0.03542
0.0364084
0.0382294
0.041664
0.0490513
0.0733287
0.204564
1.27438
0.0359377
0.0362529
0.0365124
0.036737
0.0369169
0.0370732
0.0372199
0.0373897
0.0376383
0.0380689
0.0388638
0.0403446
0.0431678
0.0489483
0.0666564
0.167114
1.10236
0.0379882
0.0384946
0.0389402
0.039344
0.0396889
0.0399949
0.0402698
0.0405359
0.0408333
0.041244
0.0419245
0.0431595
0.0455389
0.0503025
0.0638436
0.141999
0.962354
0.0401897
0.0409044
0.041571
0.0421914
0.0427402
0.0432376
0.0436881
0.0441054
0.0445153
0.0449794
0.0456283
0.0467117
0.0487706
0.0528621
0.0638259
0.126305
0.850964
0.0425504
0.0435117
0.0444318
0.0453092
0.0461049
0.0468391
0.0475158
0.0481419
0.0487309
0.0493256
0.0500297
0.0510589
0.0529073
0.0565382
0.0658668
0.116959
0.764001
0.0451097
0.0463325
0.0475474
0.0487304
0.0498247
0.0508489
0.051809
0.0527071
0.0535468
0.0543542
0.0552072
0.0562871
0.0580395
0.0613664
0.0696477
0.112842
0.697206
0.0478727
0.0494097
0.0509601
0.0525017
0.0539538
0.05533
0.0566401
0.057883
0.0590544
0.0601659
0.0612721
0.0625201
0.0643044
0.0674738
0.0750971
0.112858
0.646662
0.0509097
0.0527735
0.0547076
0.0566711
0.0585555
0.0603598
0.0621002
0.0637747
0.065373
0.0668951
0.0683749
0.0699284
0.0718951
0.0750741
0.082319
0.116404
0.609012
0.0542177
0.0564868
0.058855
0.0613043
0.0637058
0.0660313
0.0683012
0.0705138
0.0726554
0.0747173
0.0767164
0.0787405
0.0810771
0.0844682
0.0915851
0.123303
0.581547
0.0578892
0.0605905
0.0634601
0.0664738
0.0694939
0.0724553
0.0753779
0.0782622
0.0810934
0.0838573
0.0865585
0.0892615
0.0922064
0.096065
0.103344
0.133684
0.562171
0.0619183
0.0651652
0.0686101
0.0722715
0.0760243
0.079762
0.0834923
0.0872175
0.0909254
0.0946007
0.098241
0.101895
0.105762
0.110442
0.118259
0.147792
0.549669
0.0664005
0.0702598
0.0743883
0.078805
0.0834217
0.0881046
0.0928371
0.0976198
0.102447
0.107309
0.112203
0.117173
0.122392
0.128392
0.137265
0.166602
0.542827
0.0713388
0.0759634
0.0808997
0.0862036
0.0918358
0.0976646
0.103642
0.109761
0.116025
0.122438
0.129014
0.135802
0.142972
0.150994
0.161753
0.191714
0.540775
0.0768158
0.0823305
0.0882474
0.0946149
0.101449
0.108659
0.116181
0.123994
0.132114
0.140571
0.149414
0.158727
0.168685
0.17979
0.193726
0.225597
0.542912
0.0828447
0.0894495
0.096547
0.104204
0.112478
0.121353
0.130787
0.140754
0.151284
0.162454
0.174378
0.187207
0.201189
0.216975
0.236125
0.272113
0.548874
0.089494
0.0973785
0.105911
0.115148
0.125178
0.136072
0.147863
0.160571
0.174251
0.18905
0.205203
0.222948
0.242841
0.265756
0.293388
0.337427
0.55843
0.0967806
0.106201
0.116458
0.127632
0.139832
0.153208
0.167918
0.184108
0.201925
0.221623
0.243596
0.268367
0.297025
0.330936
0.37242
0.43167
0.571432
0.104757
0.115975
0.128306
0.141848
0.156748
0.173228
0.191589
0.212206
0.235471
0.261841
0.291875
0.326886
0.368732
0.419911
0.484354
0.572092
0.587771
0.113435
0.126775
0.141578
0.158
0.176256
0.196662
0.219675
0.245962
0.27641
0.311872
0.353334
0.403446
0.465523
0.544446
0.647862
0.789087
0.6073
0.122842
0.138658
0.156398
0.176303
0.198709
0.22409
0.253127
0.286828
0.326765
0.374643
0.432634
0.505383
0.599207
0.723989
0.89581
1.14074
0.629774
0.0643872
0.0665281
0.0688594
0.0713935
0.0742131
0.07729
0.0807965
0.0846613
0.0890325
0.0937175
0.0987515
0.104122
0.109927
0.116135
0.122772
0.12978
0.137165
0.144841
0.152802
0.161032
0.170971
0.180241
0.187779
0.194529
0.200396
0.20521
0.208798
0.211017
0.211759
0.210974
0.208669
0.204902
0.199786
0.193478
0.186168
0.178066
0.169393
0.160359
0.151167
0.141989
0.132979
0.0707228
0.0730496
0.0756283
0.0784844
0.0816879
0.0852779
0.0892951
0.0937048
0.0984535
0.103523
0.108996
0.114947
0.121388
0.128323
0.135747
0.143642
0.151975
0.160701
0.169768
0.179208
0.190595
0.201341
0.210217
0.218262
0.225359
0.231297
0.235864
0.238876
0.240193
0.239737
0.237496
0.233526
0.227948
0.220936
0.212709
0.203513
0.193607
0.183245
0.172667
0.162083
0.151679
0.0798446
0.0823582
0.0851814
0.0883476
0.0918878
0.0958014
0.100071
0.104694
0.109718
0.115219
0.121254
0.127846
0.135012
0.14276
0.151087
0.159979
0.169404
0.179316
0.189662
0.200471
0.213499
0.225911
0.236316
0.245849
0.254362
0.261598
0.267295
0.271222
0.273199
0.273112
0.270931
0.266703
0.260557
0.252688
0.243351
0.232833
0.22144
0.209478
0.197234
0.184963
0.172889
0.0923615
0.0949273
0.097808
0.10102
0.104593
0.108563
0.112978
0.117894
0.123355
0.129399
0.136062
0.143375
0.15136
0.160029
0.169385
0.179414
0.190087
0.201356
0.213163
0.225537
0.240408
0.254701
0.26685
0.278088
0.288223
0.296946
0.303938
0.308912
0.311637
0.311958
0.309818
0.305254
0.298404
0.289488
0.2788
0.266681
0.253493
0.239603
0.225355
0.21106
0.196986
0.10793
0.110346
0.11313
0.116324
0.119981
0.124145
0.128862
0.134179
0.140137
0.14678
0.154146
0.162269
0.171181
0.180899
0.191428
0.202758
0.214859
0.227681
0.241161
0.255323
0.27226
0.288673
0.302807
0.315988
0.327975
0.338394
0.34686
0.35302
0.35658
0.357338
0.355202
0.3502
0.342474
0.332276
0.319948
0.30589
0.290537
0.274327
0.257675
0.240957
0.224494
0.127406
0.12969
0.132411
0.135627
0.139394
0.143765
0.148792
0.154529
0.161024
0.168325
0.176476
0.185518
0.195483
0.206397
0.218268
0.231087
0.244825
0.259426
0.274821
0.291023
0.310278
0.329072
0.345459
0.360846
0.374935
0.387277
0.397407
0.404895
0.409377
0.41059
0.408403
0.402827
0.394014
0.382251
0.367933
0.351538
0.333582
0.314591
0.295066
0.27546
0.256158
0.15244
0.154524
0.157119
0.160306
0.164148
0.168709
0.17405
0.180232
0.187311
0.195343
0.204378
0.214461
0.22563
0.237913
0.251323
0.265852
0.281468
0.298109
0.315695
0.334225
0.356071
0.377534
0.396466
0.414347
0.430806
0.44531
0.457303
0.466265
0.471748
0.473419
0.4711
0.464782
0.454627
0.44096
0.424246
0.405045
0.383978
0.361672
0.338732
0.3157
0.293037
0.184771
0.186581
0.188987
0.192096
0.195985
0.200728
0.206398
0.213064
0.220793
0.229647
0.239686
0.250959
0.26351
0.277367
0.292547
0.30904
0.326812
0.345791
0.365881
0.38706
0.411794
0.436233
0.458026
0.478706
0.497818
0.514731
0.528788
0.539364
0.545915
0.548029
0.54547
0.538206
0.526407
0.510447
0.490864
0.468324
0.443563
0.417333
0.390356
0.363284
0.336665
0.226923
0.228362
0.230502
0.233479
0.237385
0.242311
0.248336
0.255544
0.26401
0.273806
0.284996
0.297639
0.311781
0.327454
0.344673
0.363425
0.383667
0.405318
0.42826
0.45244
0.480376
0.50811
0.533092
0.556884
0.578932
0.598498
0.61481
0.627126
0.634795
0.63731
0.634375
0.625924
0.61214
0.593445
0.570469
0.543991
0.514886
0.484048
0.452337
0.420532
0.389281
0.282676
0.283597
0.285357
0.288126
0.29201
0.297113
0.303531
0.311353
0.320664
0.331546
0.344071
0.358299
0.374279
0.392047
0.411612
0.432954
0.456016
0.480702
0.506869
0.534419
0.565868
0.597204
0.625697
0.652899
0.678147
0.700584
0.719313
0.733465
0.74227
0.745118
0.741639
0.731734
0.715592
0.69369
0.666755
0.635699
0.601548
0.565358
0.52815
0.490846
0.454208
0.357767
0.357951
0.359163
0.361607
0.365402
0.370666
0.377507
0.386025
0.39631
0.408448
0.422514
0.438574
0.456675
0.476845
0.499089
0.523373
0.549623
0.577714
0.607473
0.638749
0.673982
0.709179
0.741453
0.772307
0.800955
0.826418
0.847664
0.863692
0.873604
0.876681
0.872471
0.860831
0.841957
0.816379
0.784925
0.748648
0.70874
0.666436
0.622931
0.579312
0.536472
0.461071
0.460211
0.460634
0.462578
0.466178
0.47156
0.478841
0.488128
0.499516
0.513087
0.528916
0.547063
0.56757
0.590454
0.615704
0.643264
0.673035
0.704856
0.738508
0.773781
0.812954
0.852133
0.888333
0.922944
0.955055
0.983564
1.00731
1.02515
1.03607
1.03923
1.0341
1.02047
0.998548
0.968903
0.93246
0.890413
0.844122
0.795008
0.744455
0.69373
0.643867
0.606651
0.604358
0.603675
0.60488
0.608123
0.613535
0.621236
0.631333
0.643919
0.659069
0.676845
0.697291
0.720431
0.746261
0.774746
0.8058
0.839281
0.874981
0.91263
0.951943
0.994941
1.03794
1.07792
1.11611
1.15147
1.18279
1.20879
1.22822
1.23994
1.24299
1.23677
1.22102
1.1959
1.16202
1.12039
1.07231
1.01929
0.962941
0.904829
0.846404
0.788848
0.817512
0.813368
0.811211
0.811385
0.81405
0.819337
0.82736
0.83822
0.851992
0.868732
0.888479
0.911249
0.93703
0.96578
0.997425
1.03183
1.06882
1.10812
1.14938
1.19226
1.2384
1.28444
1.32751
1.36854
1.4064
1.43982
1.46743
1.48792
1.50003
1.50276
1.4954
1.47763
1.44957
1.41182
1.36541
1.31172
1.25235
1.18904
1.12353
1.05744
0.992057
1.13272
1.12648
1.12254
1.12141
1.12323
1.12814
1.13623
1.14758
1.16223
1.18021
1.20151
1.2261
1.25392
1.28487
1.31882
1.35559
1.39493
1.43651
1.47995
1.52478
1.5722
1.61936
1.66365
1.70568
1.7443
1.77822
1.80608
1.82655
1.8384
1.84055
1.83226
1.81314
1.78325
1.7431
1.69366
1.63628
1.57255
1.50424
1.43317
1.36105
1.2892
1.62169
1.61383
1.60823
1.60573
1.60649
1.61062
1.61817
1.62919
1.64367
1.66159
1.68287
1.70743
1.73515
1.76587
1.7994
1.83549
1.87387
1.91417
1.95597
1.99877
2.0432
2.08716
2.12856
2.16764
2.20333
2.23448
2.25989
2.27836
2.28876
2.29012
2.28169
2.26306
2.23418
2.19541
2.14752
2.09162
2.02912
1.96163
1.89084
1.81838
1.74525
2.41434
2.40771
2.40202
2.399
2.39879
2.40146
2.40704
2.41552
2.42685
2.44094
2.4577
2.47699
2.49866
2.52253
2.5484
2.57604
2.60519
2.63553
2.66671
2.69836
2.73056
2.76218
2.792
2.81994
2.84528
2.86723
2.88498
2.89772
2.90468
2.90516
2.89862
2.8847
2.86326
2.83444
2.79864
2.75653
2.709
2.65712
2.60204
2.54498
2.48561
0.412983
0.207457
0.0680685
0.036679
0.0243688
0.0187631
0.0160573
0.0147972
0.0143089
0.014265
0.0144976
0.0149269
0.0155343
0.0163357
0.0173426
0.018511
0.0197451
0.560066
0.275786
0.09177
0.04857
0.0312228
0.0230004
0.0188063
0.0166639
0.0156426
0.0152687
0.0152888
0.0155736
0.0160683
0.0167651
0.0176736
0.0187686
0.019932
0.733923
0.372994
0.123846
0.0641848
0.0400942
0.028387
0.0222202
0.018917
0.0172042
0.0164119
0.0161735
0.0162902
0.0166629
0.0172532
0.0180596
0.0190773
0.0202059
0.956999
0.478084
0.164764
0.0840161
0.0512003
0.0350081
0.0263241
0.0215581
0.0189882
0.0176898
0.0171479
0.0170735
0.0173144
0.0177977
0.0185008
0.0194303
0.0205781
1.23564
0.594348
0.215291
0.108362
0.064505
0.0427398
0.0310074
0.0245132
0.0209488
0.0190758
0.0181956
0.0179131
0.0180161
0.0183939
0.0189975
0.01982
0.0208645
1.57633
0.721815
0.275089
0.136936
0.0796634
0.0512851
0.0360278
0.0275964
0.0229623
0.0204925
0.0192722
0.0187893
0.0187594
0.0190359
0.0195489
0.0202728
0.0212213
1.97825
0.856402
0.338838
0.167026
0.0950079
0.0595842
0.0407619
0.0304683
0.0248435
0.0218393
0.0203237
0.0196683
0.0195288
0.0197213
0.0201489
0.0207849
0.0216836
2.42241
0.989594
0.398371
0.194202
0.10827
0.0664639
0.044579
0.0327833
0.0264087
0.0230228
0.021303
0.0205258
0.020305
0.020436
0.0208014
0.021349
0.0221232
2.86941
1.10227
0.444575
0.213939
0.117209
0.0707885
0.0468936
0.0342446
0.0275189
0.0239799
0.0221789
0.0213465
0.0210801
0.0211697
0.0214932
0.0219783
0.0226266
3.26232
1.17382
0.469493
0.222728
0.120114
0.071719
0.0473464
0.0347291
0.0281359
0.0246976
0.0229465
0.0221278
0.0218532
0.0219221
0.0222158
0.0226644
0.023231
3.54166
1.19245
0.468689
0.218516
0.116221
0.0691348
0.0460378
0.0343505
0.0283363
0.0252191
0.0236289
0.0228819
0.022631
0.0226975
0.0229717
0.0233895
0.023906
3.6672
1.15536
0.441052
0.201733
0.106507
0.0638454
0.0434889
0.0334111
0.0282857
0.0256312
0.0242714
0.0236326
0.0234266
0.0235035
0.0237656
0.0241571
0.0246299
3.63157
1.06668
0.392736
0.17665
0.0933179
0.0571819
0.0404374
0.0323012
0.0281822
0.0260355
0.0249261
0.0244083
0.0242567
0.0243502
0.0246038
0.0249709
0.0254014
3.45791
0.944166
0.333933
0.14818
0.0792667
0.0505195
0.0375805
0.0313638
0.0281941
0.0265148
0.025638
0.0252359
0.0251382
0.0252485
0.0254928
0.0258331
0.0262201
3.18645
0.805449
0.27346
0.120437
0.0664571
0.0448873
0.0353914
0.0308109
0.0284214
0.0271241
0.0264412
0.0261383
0.0260866
0.0262086
0.0264392
0.026749
0.0270863
2.86009
0.664174
0.216921
0.0963619
0.0562371
0.0408193
0.0340621
0.0307142
0.0289009
0.0278907
0.0273581
0.0271333
0.0271152
0.0272396
0.0274497
0.0277236
0.0280052
2.51495
0.529639
0.168864
0.0776205
0.0490965
0.0383739
0.0335526
0.0310449
0.0296296
0.0288256
0.028404
0.0282347
0.0282346
0.0283491
0.0285279
0.0287539
0.0289734
2.17798
0.417112
0.131376
0.0645152
0.0447675
0.0372709
0.0337031
0.0317393
0.0305941
0.0299361
0.0295914
0.0294542
0.0294537
0.0295425
0.0296765
0.0298448
0.0299919
1.86705
0.329161
0.103921
0.0561998
0.0426131
0.0371618
0.0343662
0.0327526
0.0317914
0.0312319
0.0309318
0.030801
0.0307788
0.0308244
0.0309005
0.0309999
0.0310628
1.5925
0.261328
0.085409
0.0516507
0.0420139
0.0377733
0.035451
0.034067
0.0332272
0.0327237
0.0324341
0.0322815
0.0322134
0.0321957
0.0321958
0.0322063
0.0321781
1.35856
0.21065
0.0737403
0.0497141
0.0424773
0.0389411
0.0369201
0.0356856
0.0349133
0.0344224
0.0341067
0.0339007
0.0337603
0.0336572
0.0335624
0.0334714
0.0333415
1.16487
0.173681
0.0672596
0.0495781
0.0437219
0.0406064
0.0387767
0.037623
0.0368635
0.0363386
0.0359568
0.0356632
0.0354214
0.035209
0.0350009
0.0347979
0.034552
1.00825
0.146849
0.0644424
0.0507324
0.0456456
0.0427793
0.0410474
0.039903
0.039096
0.038485
0.0379919
0.0375724
0.0371972
0.0368486
0.0365049
0.0361669
0.0357931
0.884258
0.129498
0.0642351
0.0528821
0.0482202
0.0454824
0.0437603
0.0425499
0.0416286
0.0408728
0.0402187
0.0396317
0.0390886
0.0385762
0.038076
0.037591
0.0370775
0.787729
0.119032
0.0659658
0.0559457
0.0514895
0.0487656
0.0469542
0.0455915
0.04448
0.0435148
0.0426448
0.0418436
0.0410944
0.0403891
0.0397127
0.0390669
0.0383943
0.713681
0.113949
0.0692701
0.0599562
0.0555263
0.0526909
0.0506772
0.0490632
0.0476759
0.0464278
0.0452792
0.0442116
0.0432143
0.042283
0.0414029
0.0405641
0.0397194
0.657731
0.113224
0.0740347
0.0650242
0.0604323
0.0573376
0.05499
0.05301
0.0512484
0.0496338
0.0481363
0.046744
0.0454521
0.0442588
0.0431485
0.0421079
0.041085
0.616155
0.116153
0.0803276
0.0712844
0.0663408
0.06281
0.0599714
0.057491
0.0552409
0.0531634
0.051236
0.0494525
0.047812
0.0463166
0.0449528
0.0437005
0.0424767
0.585937
0.122357
0.0883628
0.0789599
0.0734294
0.0692438
0.065726
0.0625857
0.0597124
0.0570591
0.0546081
0.0523556
0.0503045
0.0484609
0.0468107
0.0453053
0.0438601
0.565081
0.131668
0.0984892
0.0883659
0.0819357
0.0768202
0.0723929
0.0683996
0.0647421
0.0613791
0.0582938
0.055482
0.0529478
0.0507005
0.0487277
0.0469586
0.0452943
0.551803
0.144362
0.111215
0.0999184
0.092179
0.0857827
0.0801572
0.0750717
0.0704336
0.0661999
0.0623489
0.0588706
0.0557655
0.0530467
0.0507132
0.0486693
0.0467597
0.544602
0.161327
0.127348
0.114215
0.104588
0.0964541
0.0892636
0.0827841
0.0769211
0.0716203
0.066846
0.0625734
0.0587925
0.0555185
0.0527724
0.0503999
0.0482083
0.5424
0.183968
0.148049
0.132096
0.119782
0.109273
0.100022
0.0917721
0.084376
0.0777649
0.0718756
0.0666566
0.0620751
0.0581413
0.0549165
0.0521894
0.049729
0.544318
0.214494
0.175003
0.154761
0.138619
0.124858
0.112868
0.102322
0.0930155
0.0847892
0.0775503
0.0712022
0.0656725
0.0609494
0.0571653
0.0540562
0.0512987
0.549664
0.256397
0.210728
0.183955
0.162312
0.144054
0.128393
0.114849
0.103094
0.0928859
0.0840058
0.0763092
0.0696594
0.0639934
0.0595392
0.0559676
0.0528728
0.557915
0.315324
0.259071
0.222274
0.192624
0.168052
0.147403
0.129901
0.114994
0.102272
0.0914067
0.0820957
0.0741278
0.067341
0.0620678
0.0579596
0.0545431
0.568672
0.400656
0.326115
0.273694
0.232161
0.198566
0.171023
0.148218
0.129204
0.113285
0.0999295
0.0886989
0.0791836
0.0710815
0.0648051
0.0600731
0.0562911
0.581671
0.528558
0.421832
0.344477
0.284885
0.238114
0.200861
0.170827
0.14638
0.126344
0.109858
0.0962551
0.0849453
0.0753254
0.0678276
0.0623075
0.0580556
0.596635
0.727868
0.56322
0.444838
0.357001
0.290496
0.239258
0.199181
0.167429
0.142021
0.121552
0.104996
0.0915232
0.0802007
0.0712389
0.0647395
0.0599748
0.61326
1.05395
0.780827
0.592173
0.458583
0.361632
0.289737
0.235401
0.193646
0.161115
0.13551
0.115233
0.0990975
0.0858296
0.0751849
0.0674974
0.0620774
0.0208749
0.0222372
0.0297385
0.0576636
0.142213
0.36306
0.870618
1.93798
3.68769
4.64596
3.91227
4.89889
17.1889
10.9707
3.61354
0.965823
0.210971
0.0465445
0.0190565
0.0161264
0.0217403
0.0242935
0.0363759
0.0781893
0.196613
0.485828
1.12483
2.50285
4.83775
5.83279
4.13334
5.4552
16.8509
11.3802
3.83605
0.99932
0.217337
0.0491043
0.020428
0.0169546
0.0228678
0.0274484
0.046926
0.109608
0.274891
0.651375
1.46316
3.26508
6.28702
7.09319
4.51668
6.34342
17.3068
11.7864
3.97918
1.00043
0.215104
0.0498187
0.0214325
0.0177211
0.0244381
0.0325076
0.0638667
0.157499
0.386253
0.873297
1.9137
4.27809
8.01151
8.07992
4.95802
7.54156
18.111
12.0314
3.97251
0.964923
0.204692
0.0492755
0.02235
0.0185004
0.0268123
0.0408992
0.0911829
0.229869
0.542516
1.17088
2.51886
5.56771
9.78231
8.55024
5.61391
9.07127
18.9919
11.9024
3.79975
0.891849
0.188586
0.0483303
0.0234181
0.0193848
0.0306588
0.0551024
0.135114
0.33769
0.758862
1.5719
3.33602
7.098
11.2279
8.58688
6.59553
10.9956
19.515
11.3163
3.46879
0.793408
0.172986
0.0488996
0.0250794
0.0204847
0.0372623
0.0794081
0.205164
0.495383
1.05558
2.1106
4.39971
8.70315
12.0171
8.61095
7.92381
13.3643
19.2917
10.2523
3.01907
0.697939
0.169749
0.0548288
0.0282862
0.0219935
0.0490891
0.121116
0.315203
0.721572
1.46077
2.84604
5.6868
10.0942
12.1661
8.90523
9.43901
15.3661
17.992
8.73418
2.53694
0.654689
0.199392
0.0737971
0.0353054
0.0243781
0.0708582
0.192295
0.484491
1.04136
2.01072
3.82717
7.02895
11.0038
11.8742
9.341
10.6838
16.0765
15.5268
7.01024
2.17088
0.731407
0.295163
0.120987
0.0514254
0.0288088
0.111517
0.312097
0.73911
1.4898
2.76735
5.01792
8.11469
11.3045
11.4143
9.67118
11.3072
15.1012
12.3527
5.48317
2.09128
0.998359
0.504864
0.225088
0.0885403
0.0382604
0.187662
0.509395
1.1149
2.11326
3.79469
6.20197
8.69819
11.1535
10.9233
9.81971
11.1844
12.8193
9.19538
4.56629
2.38523
1.48934
0.880943
0.433836
0.171695
0.060139
0.328853
0.826142
1.66352
3.00017
4.98876
7.0072
8.91238
10.7901
10.4785
9.65367
10.5347
10.7401
7.66984
4.49458
3.01021
2.19671
1.46212
0.810263
0.347486
0.112231
0.584882
1.32245
2.46671
4.15574
5.99042
7.28284
8.97486
10.366
9.95973
9.19742
9.8665
9.42958
6.85534
4.80806
3.92095
3.15676
2.29276
1.4232
0.690526
0.234573
1.03754
2.10611
3.61652
5.33731
6.4599
7.29389
8.91589
9.85524
9.53315
8.9552
9.52583
8.96548
7.24839
5.82205
5.25367
4.54529
3.52745
2.38564
1.31173
0.509138
1.84518
3.33436
4.98441
6.07123
6.39125
7.32881
8.73174
9.37173
9.18923
8.75682
9.11176
8.90607
7.96602
7.29786
7.00071
6.42404
5.36601
3.92517
2.41333
1.09824
3.29219
5.00087
6.00596
6.04285
6.23281
7.39257
8.44339
8.98517
9.0141
8.81246
9.06619
9.15459
8.71557
8.40515
8.36964
8.16593
7.65251
6.34551
4.36302
2.34701
5.59742
6.40813
6.05947
5.69718
6.26536
7.3009
8.18561
8.82122
9.12693
9.21663
9.47458
9.6816
9.54491
9.35979
9.26047
9.03119
9.12811
9.0316
7.60466
5.05411
7.33499
6.23633
5.4204
5.61487
6.37718
7.2229
8.12397
8.96079
9.5935
10.0358
10.4133
10.6095
10.5159
10.2058
9.87613
9.48755
9.37184
10.107
10.6907
10.0754
3.96341
4.50261
5.31525
6.16233
6.81496
7.55151
8.53799
9.5586
10.498
11.2604
11.7308
11.8497
11.593
11.0224
10.3568
9.81753
9.57954
9.68961
10.302
11.2453
3.02351
4.20788
6.63449
8.53144
9.96359
11.4811
13.4943
15.5093
17.1549
18.4714
19.4625
19.5936
19.0514
17.9137
16.3089
14.5659
12.9982
11.314
9.10251
5.77435
4.86805
13.4834
8.47077
2.19849
0.674368
0.231371
0.0920016
0.048895
0.0350398
0.0290101
0.0255508
0.0233042
0.0217404
0.0205809
0.0196688
0.0189111
0.0182452
0.0176165
0.0169746
0.0162899
5.14553
13.6512
5.10458
1.23843
0.376792
0.135096
0.0616705
0.0391864
0.0311674
0.0270955
0.0246082
0.0229307
0.0217183
0.0207875
0.0200301
0.0193781
0.0187835
0.0182025
0.0175939
0.0169349
4.85782
13.3022
3.12053
0.710003
0.220756
0.088394
0.0475131
0.0345833
0.0293235
0.0263851
0.0245064
0.0231917
0.0222084
0.0214287
0.020774
0.0201933