/*--------------------------------*- C++ -*----------------------------------*\
  =========                 |
  \\      /  F ield         | OpenFOAM: The Open Source CFD Toolbox
   \\    /   O peration     | Website:  https://openfoam.org
    \\  /    A nd           | Version:  6
     \\/     M anipulation  |
\*---------------------------------------------------------------------------*/
FoamFile
{
    version     2.0;
    format      ascii;
    class       volScalarField;
    location    "2.02";
    object      nut;
}
// * * * * * * * * * * * * * * * * * * * * * * * * * * * * * * * * * * * * * //

dimensions      [0 2 -1 0 0 0 0];

internalField   nonuniform List<scalar> 
4214
(
0.00445795
0.00271905
0.00208883
0.00191575
0.00188801
0.00187783
0.00185745
0.00183168
0.00181855
0.00185586
0.00201608
0.00242907
0.00333175
0.00518535
0.00892416
0.0164365
0.0307731
0.0513931
0.0631951
0.0455312
0.0361429
0.0343637
0.0325405
0.0296409
0.0259393
0.0217484
0.0173497
0.0131433
0.00950704
0.0066401
0.00458465
0.00325726
0.0025139
0.00219311
0.0021258
0.00214622
0.00215091
0.00215851
0.00233859
0.00303786
0.00492572
0.00279836
0.00215767
0.00196103
0.0019125
0.00189428
0.00187512
0.00185113
0.00182608
0.00181328
0.00184588
0.00199077
0.0023691
0.00320143
0.00491605
0.00839282
0.0154549
0.0292284
0.0501692
0.0651873
0.0519284
0.0409437
0.039406
0.0377102
0.0345891
0.0304739
0.0257586
0.02072
0.0157883
0.0114109
0.00789649
0.00534481
0.0036757
0.00271699
0.00227379
0.00215293
0.00216992
0.00219544
0.00219303
0.0022152
0.00242584
0.00315394
0.00216102
0.00198557
0.00193107
0.00190728
0.00188862
0.00186925
0.00184738
0.00182482
0.00181283
0.00184201
0.00197518
0.00232604
0.00309943
0.00468908
0.00790352
0.0144481
0.0274393
0.0482479
0.065637
0.0585388
0.0459608
0.0449129
0.0437668
0.0406127
0.0361058
0.0307501
0.0249493
0.0191319
0.0138429
0.00951447
0.00632755
0.00421779
0.0029825
0.00238238
0.00218767
0.00218565
0.00221998
0.00222918
0.00221678
0.00222841
0.00238191
0.0020076
0.00194835
0.00191878
0.00189892
0.00188287
0.00186685
0.00184815
0.00182784
0.00181651
0.00184347
0.00196874
0.0023
0.00302802
0.00451297
0.00748647
0.0135048
0.0255658
0.0459351
0.0656708
0.0654359
0.0521606
0.051219
0.0508924
0.0478978
0.0430404
0.0370006
0.0302847
0.0233948
0.0169745
0.0116127
0.00760587
0.00492426
0.0033316
0.00253014
0.00223845
0.00220487
0.00223884
0.00225704
0.00225044
0.00223226
0.00223406
0.00196252
0.00192785
0.00190628
0.00189211
0.00188102
0.00186887
0.00185277
0.00183395
0.00182315
0.00184938
0.00197113
0.00229167
0.00298988
0.00439467
0.00715966
0.0126666
0.0236928
0.0431783
0.0648869
0.0706024
0.0594159
0.0579212
0.058957
0.056615
0.0515436
0.0448094
0.037007
0.0288204
0.0210096
0.0143443
0.00927971
0.0058508
0.00379051
0.00272687
0.00230741
0.00222839
0.00225574
0.00227765
0.00227639
0.00226095
0.0022422
0.00193496
0.0019119
0.0018988
0.0018911
0.00188451
0.00187508
0.00186035
0.00184214
0.00183193
0.00185934
0.00198273
0.00230279
0.00298926
0.004344
0.00694626
0.0119956
0.0219662
0.0401754
0.0632499
0.0743792
0.0673355
0.0648679
0.0678367
0.0668962
0.0620024
0.0545276
0.0455157
0.0357603
0.0262346
0.0179244
0.0114921
0.00707986
0.00440024
0.00299027
0.00240118
0.00225872
0.00227394
0.00229701
0.00229751
0.00228369
0.00226522
0.00191676
0.00190434
0.00189882
0.00189612
0.00189238
0.00188413
0.00186954
0.00185129
0.00184215
0.0018734
0.00200481
0.00233659
0.00303257
0.00437298
0.00687098
0.0115479
0.0205246
0.0371624
0.0607284
0.0769202
0.0748878
0.0717748
0.0771265
0.0786819
0.0747798
0.0668041
0.0563196
0.0446611
0.0330258
0.0226393
0.0144409
0.00872979
0.00522096
0.00334632
0.0025288
0.0022974
0.00229332
0.00231681
0.00231842
0.0023043
0.00228494
0.00191007
0.00190581
0.00190551
0.00190572
0.00190308
0.0018946
0.00187913
0.00186053
0.00185359
0.00189248
0.00204011
0.0023986
0.00312966
0.00449816
0.00696234
0.0113804
0.0195046
0.0344409
0.0574576
0.0778416
0.0810679
0.0782787
0.0860639
0.0915422
0.0899594
0.0821331
0.0701755
0.0561711
0.041891
0.0288772
0.018399
0.0109693
0.00634131
0.00383455
0.00270516
0.00234799
0.00231339
0.00233654
0.00234018
0.00232621
0.00230563
0.00191331
0.00191419
0.00191678
0.00191808
0.00191504
0.00190515
0.00188808
0.00186935
0.0018667
0.00191873
0.00209355
0.00249784
0.00329555
0.00474307
0.00725622
0.0115536
0.0190289
0.0323354
0.0538757
0.0771069
0.085791
0.0843559
0.0931797
0.104599
0.107144
0.100807
0.0877621
0.0710674
0.0534958
0.0371579
0.0237378
0.0140358
0.00789065
0.004514
0.00295324
0.00241694
0.0023338
0.00235446
0.00236138
0.00234887
0.00232818
0.00192333
0.00192702
0.00193072
0.00193163
0.00192695
0.0019147
0.00189567
0.00187775
0.001883
0.00195629
0.00217336
0.00264836
0.0035527
0.00514125
0.00780016
0.0121329
0.0192149
0.0311455
0.0506486
0.0749599
0.0893796
0.090025
0.0973828
0.116276
0.125257
0.122527
0.109578
0.090214
0.0686666
0.0481628
0.0309474
0.0182543
0.0100558
0.00547328
0.00330881
0.00251585
0.0023557
0.00236883
0.00237997
0.00237033
0.00235083
0.00193761
0.00194248
0.00194588
0.00194512
0.0019377
0.00192238
0.00190154
0.0018866
0.00190574
0.00201235
0.00229275
0.00287161
0.00393448
0.00574078
0.0086591
0.0131977
0.0201669
0.0310972
0.0484634
0.0721102
0.0909038
0.0945881
0.0998023
0.123636
0.142584
0.145986
0.135371
0.114219
0.0882658
0.0626755
0.0406547
0.0240522
0.0130962
0.00684299
0.00382694
0.00266435
0.00238291
0.00237845
0.00239394
0.00238842
0.00237119
0.0019546
0.00195934
0.00196112
0.00195746
0.00194629
0.00192753
0.00190597
0.00189821
0.00194119
0.00209889
0.00247251
0.00319957
0.00448968
0.00660903
0.00992121
0.0148494
0.0219842
0.03236
0.0478593
0.0696073
0.0907949
0.0978439
0.102232
0.124222
0.156519
0.168954
0.163624
0.142795
0.112905
0.081414
0.0535754
0.0319627
0.0173536
0.00880994
0.00459088
0.00289435
0.002424
0.00238336
0.00240174
0.00240135
0.00238726
0.00197344
0.00197659
0.00197526
0.00196748
0.00195179
0.00192996
0.00191049
0.00191759
0.00200063
0.00223512
0.00274488
0.00367883
0.00528867
0.00783748
0.0117032
0.017214
0.0247812
0.0350214
0.0491419
0.068487
0.0898652
0.10154
0.104662
0.120039
0.161616
0.188318
0.191472
0.174147
0.142207
0.104864
0.0702498
0.0425657
0.0232583
0.0116335
0.00572614
0.00325623
0.00249519
0.0023856
0.00240219
0.00240762
0.00239752
0.00199354
0.00199291
0.00198679
0.00197395
0.00195351
0.00193047
0.00191927
0.00195444
0.00210394
0.00245053
0.0031598
0.00437486
0.00643212
0.00954397
0.0141555
0.0204411
0.0286907
0.0391565
0.0524254
0.0694603
0.089245
0.103371
0.107245
0.118104
0.156078
0.200544
0.215586
0.205116
0.174124
0.132514
0.090986
0.0563757
0.0313148
0.0156736
0.00742587
0.00383042
0.00262542
0.00239143
0.00239508
0.00240599
0.00240074
0.00201054
0.00200507
0.00199346
0.00197589
0.00195167
0.00193225
0.00194222
0.00202603
0.00228591
0.00278772
0.00379589
0.00537335
0.00806506
0.0118663
0.0174718
0.0246936
0.0338727
0.0448519
0.0576888
0.0728158
0.090093
0.104557
0.108661
0.117039
0.148451
0.204689
0.233459
0.232231
0.205204
0.162154
0.115191
0.0736138
0.0421308
0.0214238
0.0100107
0.0047531
0.00286729
0.00241572
0.00238304
0.00239638
0.00239626
0.0020218
0.00201245
0.00199493
0.00197448
0.00194939
0.00194335
0.00200203
0.00215911
0.00260945
0.00329986
0.00478402
0.006767
0.0104069
0.0149308
0.0219232
0.0301116
0.0405475
0.0521918
0.0648961
0.0786856
0.0930957
0.105812
0.111108
0.11707
0.143725
0.203203
0.244456
0.252918
0.231621
0.190193
0.140835
0.0936881
0.0564058
0.0296617
0.0142225
0.00631615
0.00334188
0.00249058
0.00237374
0.00237961
0.00238403
0.00202904
0.00201827
0.00199149
0.00197382
0.00195781
0.00197789
0.00215267
0.00238037
0.00320136
0.00402091
0.00637103
0.00858943
0.0138408
0.018746
0.0279773
0.0366912
0.0491179
0.0611425
0.0740157
0.0863197
0.0977905
0.108394
0.112786
0.116914
0.138963
0.199469
0.248143
0.265705
0.249957
0.211535
0.165741
0.114472
0.0763706
0.0416147
0.0227542
0.0094145
0.00461786
0.00272077
0.00239619
0.00236368
0.00236827
0.00236762
0.00237918
0.00238624
0.00238687
0.00238061
0.00236795
0.00235002
0.00232848
0.00230578
0.00228461
0.00226627
0.00224879
0.00223896
0.00233605
0.00291329
0.00509916
0.00957901
0.00235877
0.00236669
0.00237168
0.00237203
0.00236693
0.00235642
0.00234119
0.00232268
0.00230313
0.00228506
0.00226944
0.00225387
0.00224785
0.00236621
0.00300991
0.00514829
0.00929003
0.00234569
0.00235205
0.00235639
0.00235708
0.00235317
0.00234449
0.00233158
0.00231574
0.00229918
0.00228424
0.00227157
0.00225802
0.00225329
0.00237635
0.00303202
0.00512474
0.00891528
0.00233055
0.00233642
0.00234078
0.00234205
0.00233928
0.00233225
0.00232145
0.00230818
0.0022946
0.00228294
0.00227352
0.00226211
0.00225586
0.00236884
0.00299709
0.00497782
0.0085521
0.0023145
0.00232045
0.00232509
0.00232703
0.00232534
0.00231985
0.00231108
0.00230039
0.00228992
0.00228183
0.00227615
0.00226754
0.00225861
0.00235175
0.0029251
0.00476722
0.00819634
0.0022982
0.00230437
0.00230941
0.00231204
0.00231142
0.00230746
0.00230078
0.00229281
0.00228572
0.00228162
0.00228042
0.00227581
0.00226485
0.00233396
0.00283931
0.00453004
0.00785098
0.00228195
0.00228836
0.00229379
0.00229713
0.00229762
0.00229529
0.00229087
0.00228588
0.00228254
0.00228302
0.00228727
0.00228841
0.00227775
0.00232255
0.0027533
0.00429336
0.00752141
0.00226589
0.00227244
0.00227825
0.00228233
0.00228402
0.00228351
0.00228162
0.00227998
0.00228088
0.00228663
0.00229743
0.00230638
0.0022996
0.00232273
0.00267627
0.00406722
0.00721223
0.00225011
0.00225668
0.00226281
0.00226768
0.00227071
0.00227225
0.00227325
0.00227541
0.00228112
0.00229285
0.00231138
0.0023303
0.00233168
0.00233806
0.00261432
0.0038572
0.00692623
0.00223454
0.00224107
0.00224749
0.00225318
0.0022577
0.00226155
0.00226581
0.00227226
0.00228339
0.00230189
0.00232922
0.00236008
0.00237409
0.00237063
0.00257118
0.00366493
0.00666469
0.00221932
0.00222566
0.00223229
0.00223882
0.00224493
0.00225133
0.00225921
0.00227044
0.00228755
0.00231356
0.00235066
0.00239497
0.00242569
0.0024209
0.00255005
0.00349387
0.00642798
0.00220437
0.00221042
0.0022172
0.00222452
0.00223228
0.00224135
0.00225311
0.00226951
0.00229312
0.00232732
0.00237494
0.00243362
0.00248408
0.0024874
0.00255275
0.00335238
0.00621594
0.00218971
0.00219545
0.00220223
0.00221024
0.00221955
0.00223128
0.00224699
0.00226872
0.00229922
0.00234218
0.0024008
0.00247415
0.00254597
0.00256679
0.0025829
0.00323341
0.00602802
0.00217543
0.00218067
0.00218738
0.0021959
0.00220654
0.00222067
0.00224013
0.00226704
0.00230461
0.00235667
0.00242653
0.00251442
0.00260767
0.00265336
0.00263646
0.00314048
0.00586339
0.00216148
0.00216631
0.00217274
0.00218148
0.00219306
0.0022091
0.00223173
0.00226334
0.00230776
0.00236881
0.00244993
0.00255195
0.0026654
0.00273979
0.00271149
0.00307186
0.00572085
0.00214817
0.00215229
0.00215837
0.00216701
0.00217899
0.00219626
0.00222108
0.0022565
0.00230697
0.00237633
0.00246838
0.00258401
0.00271583
0.00281918
0.00280078
0.00302776
0.00559893
0.00213533
0.00213904
0.00214447
0.00215258
0.00216436
0.00218195
0.00220778
0.00224576
0.00230074
0.0023771
0.00247916
0.00260769
0.00275607
0.00288489
0.00289301
0.00300924
0.00549606
0.00212363
0.00212644
0.00213112
0.00213833
0.00214928
0.00216626
0.00219186
0.00223079
0.00228819
0.0023695
0.00247982
0.0026201
0.00278366
0.00293312
0.00297398
0.00301304
0.00541061
0.00211264
0.00211503
0.00211852
0.00212444
0.00213402
0.00214951
0.00217382
0.00221187
0.00226938
0.00235289
0.00246874
0.00261871
0.00279622
0.00296269
0.00303055
0.00302489
0.00534096
0.0021032
0.00210455
0.00210677
0.00211112
0.00211891
0.00213231
0.00215441
0.00218997
0.00224528
0.0023279
0.00244565
0.00260212
0.00279148
0.00297384
0.00306034
0.00302672
0.00528558
0.00209477
0.00209553
0.00209619
0.00209875
0.0021045
0.00211546
0.0021346
0.0021665
0.00221763
0.00229627
0.0024118
0.00257035
0.00276829
0.00296598
0.00306576
0.00300509
0.00524393
0.00208833
0.00208771
0.00208692
0.00208772
0.0020914
0.0020997
0.00211543
0.00214283
0.00218826
0.00226039
0.00236993
0.00252603
0.00272887
0.00294236
0.00306072
0.00297915
0.00522512
0.00208319
0.00208162
0.00207941
0.00207859
0.00208025
0.00208587
0.00209799
0.00212045
0.00215917
0.00222288
0.00232322
0.0024723
0.00267552
0.00290476
0.00305276
0.00297163
0.00524259
0.00207993
0.00207709
0.00207379
0.00207168
0.00207162
0.00207484
0.00208346
0.00210094
0.00213265
0.00218691
0.00227576
0.00241378
0.00261219
0.00285437
0.00304065
0.00298569
0.00530052
0.00207804
0.0020745
0.00207042
0.00206734
0.00206594
0.00206717
0.00207276
0.00208562
0.00211058
0.00215525
0.00223147
0.00235542
0.00254387
0.00279377
0.00302291
0.00302316
0.00540407
0.00207784
0.00207359
0.00206918
0.00206565
0.00206339
0.00206319
0.0020664
0.00207538
0.00209426
0.00212993
0.00219347
0.00230168
0.00247578
0.00272666
0.00299834
0.00308294
0.00555792
0.00207884
0.00207459
0.00207018
0.00206655
0.00206395
0.00206293
0.00206451
0.00207055
0.00208441
0.00211213
0.00216382
0.00225592
0.00241256
0.00265723
0.00296636
0.00316046
0.00576522
0.00208119
0.0020771
0.00207309
0.00206984
0.0020674
0.00206617
0.0020669
0.00207102
0.00208116
0.0021023
0.00214351
0.0022202
0.00235767
0.00258951
0.00292697
0.00325048
0.00602732
0.00208437
0.00208116
0.00207781
0.00207524
0.00207341
0.00207256
0.00207321
0.00207638
0.00208409
0.00210031
0.00213272
0.00219542
0.00231326
0.00252678
0.00288055
0.00334544
0.00634367
0.00208861
0.00208634
0.002084
0.00208247
0.00208165
0.00208169
0.00208293
0.00208607
0.00209259
0.00210552
0.00213108
0.00218159
0.00228046
0.00247148
0.00282787
0.00343489
0.00671117
0.00209354
0.00209257
0.00209151
0.00209126
0.00209178
0.00209316
0.00209558
0.00209949
0.00210593
0.00211712
0.00213786
0.00217831
0.00225962
0.00242556
0.00277026
0.00350581
0.00712466
0.00209943
0.00209954
0.00210015
0.00210142
0.00210357
0.00210664
0.00211073
0.00211611
0.00212344
0.00213426
0.00215213
0.00218497
0.00225073
0.00239064
0.00271013
0.00354406
0.00757753
0.00210611
0.00210731
0.00210982
0.00211282
0.00211685
0.00212193
0.0021281
0.00213551
0.00214456
0.00215624
0.00217303
0.00220077
0.00225365
0.00236818
0.00265127
0.00353772
0.00806209
0.00211367
0.0021159
0.00212039
0.00212543
0.00213156
0.0021389
0.0021475
0.00215744
0.00216892
0.00218252
0.00219983
0.00222491
0.00226818
0.00235954
0.0025988
0.00348126
0.00856976
0.00212209
0.00212552
0.00213177
0.00213921
0.00214766
0.00215752
0.00216889
0.00218182
0.00219635
0.00221277
0.00223204
0.00225675
0.00229398
0.00236596
0.0025587
0.0033793
0.00909107
0.00213139
0.00213622
0.00214399
0.00215417
0.00216516
0.00217782
0.00219233
0.00220869
0.00222687
0.00224694
0.00226942
0.00229584
0.00233061
0.00238859
0.00253703
0.00324758
0.0096159
0.00214158
0.002148
0.00215726
0.00217027
0.00218407
0.00219985
0.0022179
0.00223822
0.00226068
0.00228522
0.00231207
0.00234212
0.00237787
0.00242816
0.00253937
0.00311003
0.0101335
0.00215263
0.00216077
0.00217183
0.00218741
0.00220439
0.00222368
0.00224577
0.00227061
0.00229807
0.002328
0.00236046
0.00239595
0.00243593
0.00248509
0.00257075
0.00299361
0.0106339
0.00216454
0.00217454
0.0021878
0.00220553
0.00222616
0.00224939
0.00227605
0.0023061
0.0023394
0.00237581
0.00241533
0.0024583
0.00250573
0.0025602
0.00263514
0.0029245
0.0111071
0.00217729
0.00218926
0.00220499
0.00222504
0.00224936
0.00227704
0.00230889
0.00234493
0.00238508
0.00242932
0.00247773
0.00253075
0.00258936
0.0026556
0.00273572
0.00293026
0.0115457
0.00259111
0.0025998
0.00260991
0.00261619
0.00262285
0.00262636
0.00262917
0.00262948
0.0026282
0.0026248
0.00261969
0.00261346
0.00260619
0.00259799
0.00258892
0.00257903
0.00256835
0.00255688
0.00254448
0.00253066
0.00251137
0.00248852
0.00247253
0.00245706
0.00244153
0.00242581
0.00240989
0.00239379
0.00237753
0.00236117
0.00234475
0.00232832
0.00231195
0.0022957
0.00227964
0.00226383
0.00224834
0.00223324
0.00221858
0.00220443
0.00219085
0.00261683
0.00262682
0.00263553
0.00264222
0.00264736
0.00265044
0.00265176
0.00265109
0.00264865
0.00264411
0.00263843
0.00263171
0.00262407
0.00261555
0.00260624
0.00259615
0.00258532
0.00257374
0.00256131
0.00254754
0.00252852
0.00250641
0.00249053
0.00247508
0.00245951
0.00244374
0.00242774
0.00241153
0.00239516
0.00237864
0.00236205
0.00234543
0.00232884
0.00231235
0.00229601
0.0022799
0.00226408
0.0022486
0.00223355
0.00221897
0.00220491
0.002643
0.00265283
0.00266083
0.00266687
0.00267098
0.00267314
0.00267341
0.00267182
0.00266808
0.0026631
0.00265708
0.00265011
0.00264228
0.00263363
0.00262422
0.00261408
0.00260324
0.00259169
0.00257934
0.00256575
0.00254717
0.00252592
0.00251026
0.00249492
0.00247943
0.0024637
0.00244772
0.00243152
0.00241512
0.00239857
0.00238192
0.00236522
0.00234854
0.00233193
0.00231546
0.0022992
0.00228322
0.00226757
0.00225233
0.00223755
0.00222329
0.00266827
0.00267755
0.00268478
0.00268999
0.00269324
0.00269445
0.00269363
0.00269083
0.00268683
0.00268174
0.00267567
0.00266869
0.00266089
0.0026523
0.00264299
0.00263297
0.00262227
0.00261089
0.00259875
0.00258547
0.00256751
0.00254726
0.00253193
0.00251681
0.0025015
0.00248592
0.00247008
0.00245398
0.00243767
0.00242119
0.0024046
0.00238794
0.00237129
0.0023547
0.00233824
0.00232199
0.00230601
0.00229038
0.00227516
0.00226043
0.00224623
0.00268927
0.00269857
0.00270536
0.0027098
0.00271196
0.00271231
0.00271113
0.00270858
0.00270484
0.00270001
0.00269421
0.00268751
0.00267999
0.0026717
0.00266268
0.00265297
0.00264259
0.00263155
0.00261978
0.00260694
0.00258978
0.00257065
0.00255577
0.002541
0.00252599
0.00251067
0.00249506
0.00247919
0.00246308
0.00244678
0.00243036
0.00241386
0.00239736
0.00238092
0.00236462
0.00234852
0.00233272
0.00231728
0.00230229
0.00228783
0.00227396
0.00269709
0.00270846
0.00271677
0.00272243
0.0027258
0.00272721
0.00272693
0.00272519
0.00272217
0.00271801
0.00271283
0.00270673
0.00269977
0.00269202
0.00268353
0.00267433
0.00266446
0.00265392
0.00264267
0.00263044
0.00261426
0.00259638
0.00258208
0.00256777
0.00255317
0.00253824
0.00252299
0.00250745
0.00249165
0.00247566
0.00245952
0.0024433
0.00242707
0.00241091
0.00239488
0.00237908
0.0023636
0.00234852
0.00233394
0.00231996
0.00230664
0.00269754
0.00271224
0.00272342
0.00273153
0.00273697
0.00274014
0.00274137
0.00274095
0.0027391
0.00273602
0.00273182
0.00272661
0.0027205
0.00271355
0.00270582
0.00269735
0.00268819
0.00267834
0.00266778
0.0026563
0.00264128
0.00262477
0.00261118
0.00259747
0.00258341
0.00256898
0.00255421
0.00253911
0.00252375
0.00250816
0.00249242
0.0024766
0.00246075
0.00244497
0.00242935
0.00241397
0.00239894
0.00238437
0.00237035
0.00235701
0.00234441
0.0026957
0.00271356
0.00272777
0.00273867
0.00274662
0.00275199
0.00275518
0.00275649
0.00275621
0.00275453
0.00275163
0.00274762
0.00274262
0.00273671
0.00272997
0.00272244
0.00271418
0.00270521
0.00269552
0.00268494
0.00267123
0.00265621
0.00264345
0.00263047
0.00261709
0.00260329
0.00258912
0.00257459
0.00255977
0.00254472
0.00252948
0.00251415
0.0024988
0.00248352
0.00246839
0.00245354
0.00243907
0.0024251
0.00241176
0.00239915
0.00238736
0.00269582
0.00271601
0.00273271
0.00274614
0.00275656
0.00276426
0.00276959
0.00277286
0.00277438
0.00277435
0.00277298
0.0027704
0.00276673
0.00276208
0.00275653
0.00275015
0.00274298
0.00273505
0.00272639
0.00271686
0.00270461
0.00269117
0.00267938
0.00266726
0.00265468
0.00264165
0.0026282
0.00261437
0.00260021
0.00258579
0.00257118
0.00255644
0.00254168
0.00252698
0.00251245
0.0024982
0.00248436
0.00247106
0.00245843
0.00244658
0.00243559
0.00270162
0.00272307
0.00274139
0.0027567
0.00276914
0.00277892
0.00278628
0.00279151
0.00279487
0.0027966
0.00279688
0.00279586
0.00279369
0.00279046
0.00278626
0.00278118
0.00277525
0.00276853
0.00276104
0.00275269
0.00274201
0.00273023
0.00271954
0.00270841
0.00269677
0.00268463
0.00267203
0.00265902
0.00264564
0.00263197
0.00261808
0.00260404
0.00258996
0.00257593
0.00256205
0.00254847
0.0025353
0.00252268
0.00251074
0.0024996
0.00248932
0.00271601
0.00273773
0.00275676
0.00277314
0.00278693
0.00279826
0.0028073
0.00281424
0.00281932
0.00282273
0.00282465
0.00282523
0.00282461
0.00282288
0.00282013
0.00281645
0.00281188
0.00280648
0.00280028
0.00279322
0.00278419
0.00277412
0.00276465
0.00275464
0.00274407
0.00273295
0.00272133
0.00270926
0.00269678
0.00268398
0.00267091
0.00265768
0.00264436
0.00263107
0.00261792
0.00260504
0.00259254
0.00258058
0.00256926
0.00255871
0.00254901
0.00274146
0.0027626
0.00278153
0.00279819
0.0028126
0.00282484
0.00283501
0.00284326
0.00284974
0.0028546
0.00285801
0.00286009
0.00286095
0.0028607
0.00285942
0.00285717
0.00285401
0.00285
0.00284515
0.00283946
0.00283211
0.00282378
0.00281562
0.00280685
0.00279747
0.00278751
0.002777
0.00276599
0.00275455
0.00274273
0.00273062
0.00271829
0.00270584
0.00269338
0.00268101
0.00266885
0.00265704
0.00264568
0.0026349
0.00262481
0.00261551
0.00278053
0.00280032
0.00281844
0.00283466
0.00284898
0.00286146
0.00287216
0.00288116
0.00288858
0.00289453
0.00289911
0.00290245
0.00290462
0.0029057
0.00290578
0.00290491
0.00290313
0.00290049
0.00289702
0.00289271
0.00288703
0.00288042
0.00287365
0.00286623
0.00285816
0.00284947
0.0028402
0.00283041
0.00282014
0.00280945
0.00279843
0.00278714
0.00277569
0.00276416
0.00275266
0.0027413
0.00273019
0.00271943
0.00270913
0.00269937
0.00269041
0.00283642
0.00285408
0.00287072
0.00288581
0.00289936
0.00291138
0.00292194
0.00293107
0.00293886
0.00294538
0.0029507
0.0029549
0.00295805
0.00296021
0.00296142
0.00296174
0.0029612
0.00295984
0.00295767
0.00295471
0.00295062
0.00294567
0.00294035
0.00293434
0.00292769
0.0029204
0.00291253
0.0029041
0.00289517
0.0028858
0.00287606
0.002866
0.00285572
0.0028453
0.00283482
0.00282439
0.00281409
0.00280402
0.00279424
0.00278484
0.00277632
0.00291357
0.00292822
0.00294265
0.00295587
0.00296789
0.00297872
0.00298838
0.00299693
0.0030044
0.00301085
0.00301631
0.00302085
0.00302449
0.00302728
0.00302926
0.00303046
0.00303089
0.00303059
0.00302956
0.00302782
0.00302518
0.00302179
0.0030179
0.00301337
0.00300823
0.00300248
0.00299615
0.00298929
0.00298193
0.00297413
0.00296592
0.00295737
0.00294855
0.00293953
0.00293038
0.00292116
0.00291196
0.00290284
0.00289385
0.00288506
0.0028774
0.00301853
0.00302901
0.0030403
0.00305074
0.0030603
0.00306902
0.0030769
0.00308398
0.00309028
0.00309584
0.00310067
0.0031048
0.00310827
0.0031111
0.00311329
0.00311487
0.00311586
0.00311626
0.00311608
0.00311532
0.00311391
0.00311191
0.00310942
0.00310639
0.00310284
0.00309877
0.00309421
0.00308918
0.0030837
0.00307782
0.00307155
0.00306496
0.00305808
0.00305097
0.00304368
0.00303625
0.00302873
0.00302118
0.00301363
0.00300611
0.00300024
0.0031614
0.00316603
0.00317283
0.00317914
0.00318496
0.0031903
0.00319517
0.0031996
0.00320358
0.00320714
0.0032103
0.00321306
0.00321544
0.00321744
0.00321908
0.00322035
0.00322128
0.00322185
0.00322207
0.00322195
0.00322145
0.0032206
0.00321942
0.0032179
0.00321604
0.00321386
0.00321135
0.00320853
0.0032054
0.003202
0.00319833
0.00319442
0.00319029
0.00318597
0.00318149
0.00317688
0.00317215
0.00316734
0.00316247
0.00315755
0.00315515
0.00884558
0.0045851
0.0026845
0.00216648
0.00202577
0.0019739
0.0019407
0.00192192
0.001917
0.00192219
0.00193379
0.00194946
0.00196816
0.00199075
0.00201246
0.00202818
0.00204071
0.00857738
0.00482517
0.00284664
0.00221618
0.00204235
0.0019874
0.0019551
0.00193571
0.00192915
0.00193236
0.00194186
0.00195542
0.00197202
0.00199215
0.00201434
0.00203217
0.00204585
0.00826451
0.00498175
0.00295621
0.00225692
0.00206035
0.00200305
0.00197101
0.0019505
0.00194205
0.0019432
0.00195065
0.00196219
0.00197681
0.00199452
0.00201605
0.00203511
0.00205125
0.00798638
0.00498452
0.00300698
0.00228318
0.00207781
0.00202062
0.00198853
0.00196645
0.00195582
0.0019548
0.00196022
0.00196985
0.00198257
0.00199815
0.00201798
0.00203723
0.00205573
0.00772757
0.00489854
0.00300464
0.00229407
0.00209466
0.00204044
0.0020079
0.00198369
0.00197059
0.00196729
0.00197068
0.00197845
0.00198938
0.00200308
0.00202077
0.00203934
0.00205741
0.00747929
0.00475413
0.00296424
0.00229429
0.00211268
0.00206334
0.00202953
0.00200245
0.00198649
0.00198074
0.00198208
0.00198801
0.00199721
0.00200919
0.00202475
0.00204228
0.00205965
0.00723918
0.00457526
0.0029002
0.00229018
0.00213471
0.00209044
0.00205387
0.00202296
0.00200369
0.00199527
0.00199448
0.0019986
0.00200615
0.00201649
0.00202996
0.00204607
0.00206236
0.00700884
0.0043792
0.00282552
0.00228863
0.00216371
0.00212269
0.00208125
0.00204538
0.00202229
0.00201096
0.00200795
0.00201027
0.00201622
0.00202495
0.00203648
0.00205096
0.00206572
0.00679107
0.00417674
0.00275023
0.00229587
0.00220204
0.00216057
0.00211174
0.00206978
0.00204235
0.00202788
0.00202257
0.00202308
0.00202741
0.00203454
0.00204427
0.00205706
0.0020704
0.00658816
0.00397514
0.00268211
0.002317
0.00225095
0.00220382
0.00214511
0.00209607
0.00206387
0.0020461
0.00203838
0.00203703
0.00203971
0.00204521
0.0020532
0.0020642
0.0020764
0.00640134
0.00377948
0.00262749
0.00235593
0.00231019
0.00225142
0.00218083
0.00212403
0.00208678
0.00206556
0.00205533
0.00205206
0.00205306
0.00205693
0.00206324
0.00207242
0.00208285
0.00623081
0.0035927
0.00259239
0.00241496
0.00237768
0.00230163
0.00221805
0.00215326
0.00211082
0.00208607
0.00207328
0.00206805
0.00206739
0.00206968
0.00207438
0.00208188
0.00209066
0.00607624
0.00342122
0.00258477
0.00249297
0.00244941
0.00235226
0.00225564
0.00218312
0.00213561
0.00210735
0.00209207
0.00208492
0.00208264
0.00208339
0.00208651
0.00209235
0.00210017
0.00593707
0.00327427
0.00261042
0.00258518
0.00252057
0.00240122
0.00229263
0.00221306
0.00216075
0.00212917
0.00211154
0.00210254
0.00209872
0.002098
0.00209959
0.00210369
0.00210967
0.00581272
0.00315679
0.00266975
0.00268201
0.00258652
0.00244704
0.00232821
0.00224244
0.00218581
0.00215118
0.00213139
0.00212072
0.00211549
0.00211341
0.00211361
0.0021162
0.00212028
0.00570265
0.00306879
0.00275704
0.00277306
0.00264426
0.0024885
0.00236142
0.00227044
0.00221023
0.00217298
0.00215132
0.00213927
0.00213279
0.00212953
0.00212845
0.0021296
0.00213263
0.00560617
0.00301072
0.00285945
0.00284947
0.0026924
0.00252474
0.0023914
0.00229638
0.00223346
0.00219419
0.00217108
0.00215796
0.00215048
0.00214621
0.00214402
0.0021436
0.00214487
0.00552248
0.00298093
0.00295909
0.00290706
0.00273054
0.00255487
0.00241719
0.00231952
0.00225495
0.00221449
0.00219042
0.00217658
0.00216844
0.00216339
0.0021603
0.00215867
0.00215801
0.0054511
0.00298307
0.00302993
0.00294572
0.00275877
0.0025782
0.00243813
0.00233938
0.00227434
0.00223359
0.00220919
0.002195
0.00218652
0.00218097
0.00217721
0.0021746
0.0021728
0.00539177
0.0029836
0.0030677
0.0029687
0.00277696
0.0025941
0.00245375
0.00235562
0.00229139
0.00225129
0.00222727
0.00221322
0.00220465
0.00219888
0.0021946
0.00219089
0.00218768
0.00534441
0.00296328
0.00307834
0.00297774
0.00278408
0.0026017
0.00246351
0.00236798
0.00230601
0.00226757
0.00224464
0.00223121
0.00222295
0.00221716
0.00221264
0.0022082
0.00220345
0.00532094
0.00294613
0.00308182
0.00297723
0.00278106
0.00260101
0.00246718
0.00237622
0.00231804
0.00228237
0.0022613
0.00224901
0.00224138
0.00223584
0.00223125
0.00222632
0.00222066
0.00533539
0.00295594
0.00308623
0.00296797
0.00276796
0.00259205
0.00246494
0.0023806
0.00232775
0.00229596
0.00227749
0.00226682
0.0022601
0.00225499
0.00225023
0.00224445
0.00223787
0.005391
0.00298587
0.00309058
0.00294961
0.0027456
0.0025761
0.00245816
0.00238231
0.00233609
0.00230905
0.00229373
0.00228503
0.00227946
0.00227477
0.00226986
0.0022636
0.0022558
0.00549138
0.00303565
0.00309286
0.00292212
0.00271546
0.00255512
0.00244863
0.0023828
0.00234415
0.00232237
0.00231049
0.00230393
0.00229947
0.00229523
0.00229038
0.00228383
0.00227541
0.00564017
0.00310499
0.00309049
0.00288628
0.00267966
0.00253153
0.00243842
0.00238363
0.00235302
0.00233668
0.00232832
0.00232377
0.00232033
0.00231645
0.00231133
0.00230393
0.00229492
0.00584202
0.00319114
0.00308086
0.00284331
0.00264096
0.00250793
0.00242955
0.00238621
0.00236361
0.0023526
0.00234751
0.00234479
0.00234224
0.00233857
0.00233305
0.0023249
0.002314
0.00609818
0.00329072
0.00306206
0.00279526
0.00260237
0.00248679
0.00242371
0.0023916
0.00237663
0.00237047
0.00236821
0.002367
0.00236507
0.00236144
0.00235561
0.00234704
0.00233563
0.00640819
0.00339679
0.00303268
0.00274482
0.00256674
0.00247011
0.00242209
0.00240049
0.0023924
0.00239042
0.0023905
0.00239042
0.00238884
0.00238502
0.00237854
0.00236895
0.00235745
0.00676979
0.00349841
0.00299215
0.00269484
0.0025364
0.00245921
0.00242528
0.00241312
0.00241088
0.00241233
0.00241426
0.00241497
0.00241351
0.00240933
0.00240205
0.00239114
0.00237628
0.00717928
0.00358188
0.00294117
0.00264818
0.00251305
0.00245469
0.00243345
0.00242921
0.00243174
0.00243593
0.00243926
0.00244045
0.00243887
0.00243416
0.00242614
0.00241456
0.00239886
0.00763098
0.0036319
0.00288195
0.00260752
0.00249771
0.00245677
0.00244621
0.00244826
0.00245451
0.00246083
0.00246519
0.00246664
0.00246472
0.00245927
0.00245022
0.00243753
0.00242264
0.00811739
0.00363486
0.00281845
0.00257529
0.00249102
0.00246525
0.00246296
0.00246966
0.00247866
0.00248659
0.00249172
0.00249324
0.00249088
0.00248456
0.00247429
0.00245978
0.00244037
0.00862941
0.00358338
0.00275645
0.00255367
0.00249341
0.00247965
0.00248311
0.00249285
0.00250371
0.0025128
0.00251847
0.00251995
0.00251703
0.00250978
0.00249844
0.00248309
0.00246235
0.0091567
0.00348079
0.00270301
0.00254475
0.00250503
0.00249949
0.00250618
0.00251744
0.00252932
0.00253915
0.00254518
0.00254651
0.00254293
0.00253456
0.00252191
0.0025056
0.0024867
0.0096873
0.00334251
0.00266545
0.00255045
0.00252575
0.00252447
0.00253197
0.00254329
0.00255532
0.00256545
0.00257165
0.00257274
0.00256841
0.0025588
0.00254457
0.00252625
0.00250256
0.0102077
0.00319334
0.00265057
0.00257205
0.00255551
0.00255453
0.00256056
0.00257049
0.00258173
0.00259162
0.00259777
0.00259853
0.00259335
0.00258241
0.00256671
0.00254744
0.00252227
0.0107055
0.00306203
0.00266428
0.00261016
0.00259449
0.00259006
0.00259238
0.00259935
0.00260868
0.00261767
0.00262351
0.00262387
0.00261772
0.00260515
0.00258761
0.00256739
0.00254491
0.0111691
0.00297671
0.00271077
0.00266537