/*--------------------------------*- C++ -*----------------------------------*\
  =========                 |
  \\      /  F ield         | OpenFOAM: The Open Source CFD Toolbox
   \\    /   O peration     | Website:  https://openfoam.org
    \\  /    A nd           | Version:  6
     \\/     M anipulation  |
\*---------------------------------------------------------------------------*/
FoamFile
{
    version     2.0;
    format      ascii;
    class       volScalarField;
    location    "2.02";
    object      p;
}
// * * * * * * * * * * * * * * * * * * * * * * * * * * * * * * * * * * * * * //

dimensions      [0 2 -2 0 0 0 0];

internalField   nonuniform List<scalar> 
4214
(
-2.41327
-2.18089
-1.59119
-1.04136
-0.734407
-0.577963
-0.491508
-0.423604
-0.365934
-0.309156
-0.242971
-0.159411
-0.0562561
0.0753745
0.249383
0.466716
0.715855
1.1878
1.63242
1.50964
1.0272
0.30472
-0.375887
-0.827345
-1.05757
-1.1728
-1.13192
-0.972784
-0.847017
-0.730874
-0.652487
-0.600828
-0.568072
-0.560027
-0.572757
-0.600161
-0.673431
-0.932894
-1.54919
-2.28834
-2.47512
-1.30528
-1.64286
-1.71324
-1.39802
-1.20214
-1.1272
-1.08394
-1.03097
-0.965315
-0.883418
-0.774632
-0.629945
-0.449385
-0.215137
0.0867424
0.499105
1.08937
1.88976
2.29132
1.76376
0.799316
-0.556336
-1.78344
-2.60098
-2.66186
-2.38829
-2.20517
-1.81163
-1.53819
-1.32184
-1.17008
-1.05995
-0.978236
-0.937517
-0.929275
-0.90922
-0.93297
-1.14475
-1.53954
-1.36455
-0.706919
-2.27932
-2.40972
-2.49897
-2.26436
-2.05757
-1.94533
-1.85335
-1.74872
-1.62512
-1.47532
-1.28551
-1.04794
-0.736514
-0.337398
0.167967
0.814584
1.68931
2.75107
3.32189
2.67749
1.24295
-0.788253
-2.76663
-4.3251
-4.78327
-4.52563
-4.17815
-3.59236
-3.08876
-2.67404
-2.36313
-2.13576
-1.96507
-1.86314
-1.81687
-1.77094
-1.80318
-1.98582
-2.22831
-2.04121
-1.81283
-3.09857
-3.01873
-3.17105
-3.00367
-2.804
-2.66991
-2.56066
-2.43545
-2.2799
-2.08418
-1.83774
-1.51876
-1.10447
-0.577147
0.0899495
0.936868
1.99541
3.21872
3.92287
3.25312
1.26877
-1.35534
-4.03556
-6.15677
-7.03169
-6.93698
-6.2854
-5.42934
-4.67348
-4.03906
-3.54656
-3.18086
-2.90415
-2.72262
-2.6133
-2.51477
-2.5281
-2.6679
-2.80955
-2.57171
-2.65164
-3.90255
-3.78499
-3.92445
-3.79027
-3.60085
-3.45056
-3.31864
-3.16808
-2.97948
-2.74039
-2.44287
-2.04668
-1.54248
-0.905401
-0.102757
0.895052
2.13027
3.46768
4.27748
3.57744
1.16266
-2.03721
-5.47104
-8.2099
-9.53896
-9.70348
-8.91333
-7.72524
-6.58975
-5.65194
-4.92487
-4.38561
-3.9806
-3.70059
-3.51823
-3.3708
-3.33982
-3.42501
-3.50053
-3.30542
-3.44834
-4.67187
-4.55224
-4.70087
-4.58444
-4.40661
-4.25265
-4.10851
-3.94214
-3.73245
-3.4654
-3.12392
-2.67171
-2.09947
-1.37968
-0.477992
0.641191
1.99381
3.42133
4.31626
3.58693
0.938574
-2.80405
-6.9416
-10.4243
-12.3551
-12.6205
-11.8014
-10.4464
-8.78577
-7.45611
-6.44299
-5.68562
-5.12379
-4.72346
-4.45574
-4.25009
-4.14688
-4.18223
-4.21133
-4.0394
-4.19776
-5.4374
-5.3499
-5.54223
-5.43134
-5.25945
-5.10902
-4.96226
-4.7886
-4.56744
-4.28376
-3.91222
-3.42329
-2.80522
-2.02937
-1.06045
0.134458
1.5629
3.06246
4.05081
3.4676
0.721017
-3.52908
-8.29961
-12.5361
-15.2185
-15.948
-15.0741
-13.2475
-11.2599
-9.48412
-8.10836
-7.10209
-6.35914
-5.81321
-5.4463
-5.16467
-4.98228
-4.97506
-4.96696
-4.78762
-4.92405
-6.25641
-6.19395
-6.43714
-6.33379
-6.17058
-6.03241
-5.89483
-5.72576
-5.50577
-5.21979
-4.83805
-4.33416
-3.69552
-2.8928
-1.89014
-0.656701
0.809588
2.35061
3.40996
3.003
0.347672
-4.2349
-9.474
-14.3635
-17.8158
-19.1433
-18.5514
-16.4097
-14.0507
-11.7603
-9.91935
-8.59675
-7.64584
-6.95686
-6.46638
-6.0889
-5.84185
-5.78961
-5.72712
-5.53181
-5.64895
-7.14247
-7.10159
-7.38934
-7.30843
-7.16297
-7.04555
-6.92916
-6.7782
-6.57377
-6.30163
-5.93244
-5.43754
-4.80586
-4.0079
-3.00702
-1.77338
-0.308229
1.23495
2.33122
2.07473
-0.360225
-4.95094
-10.4148
-15.7364
-19.9053
-21.9692
-21.9195
-19.7754
-16.877
-14.1761
-11.8629
-10.1603
-8.97341
-8.11415
-7.48919
-7.03073
-6.72765
-6.61412
-6.47266
-6.26213
-6.35668
-8.09419
-8.08292
-8.40542
-8.36765
-8.25365
-8.1669
-8.08487
-7.96809
-7.79654
-7.55729
-7.22742
-6.76951
-6.17578
-5.4182
-4.45952
-3.26981
-1.85378
-0.359724
0.726686
0.586591
-1.5116
-5.79944
-11.1289
-16.6124
-21.2457
-24.0925
-24.6448
-22.8599
-19.6019
-16.662
-13.9258
-11.7694
-10.3088
-9.26275
-8.49557
-7.95286
-7.60731
-7.40286
-7.19435
-6.9805
-7.04528
-9.1138
-9.16285
-9.50993
-9.5391
-9.46286
-9.41718
-9.38397
-9.31694
-9.19787
-9.01398
-8.75368
-8.36795
-7.84924
-7.17362
-6.30675
-5.21572
-3.90981
-2.52967
-1.51201
-1.59108
-3.31268
-6.981
-11.8796
-17.1068
-21.7232
-25.0783
-26.378
-25.2613
-22.2513
-18.8742
-15.9443
-13.3112
-11.571
-10.3427
-9.44894
-8.82618
-8.41716
-8.14029
-7.89134
-7.68854
-7.73001
-10.2539
-10.3505
-10.7235
-10.847
-10.8125
-10.8173
-10.8587
-10.853
-10.8041
-10.7003
-10.5316
-10.2619
-9.86594
-9.32154
-8.60932
-7.68843
-6.57669
-5.39994
-4.52574
-4.58906
-5.93277
-8.73245
-12.8716
-17.396
-21.6788
-25.0843
-26.8783
-26.6034
-24.2902
-20.7063
-17.5494
-14.6168
-12.6596
-11.2915
-10.3029
-9.61643
-9.14819
-8.81341
-8.54318
-8.37289
-8.40708
-11.5187
-11.6522
-12.0684
-12.2644
-12.3173
-12.3988
-12.5139
-12.608
-12.6524
-12.6437
-12.5929
-12.4704
-12.2509
-11.8916
-11.4097
-10.7431
-9.9407
-9.09501
-8.46641
-8.55202
-9.5036
-11.3997
-14.3032
-17.5894
-20.9551
-23.9976
-26.0788
-26.5314
-25.1583
-22.1332
-18.5888
-15.6828
-13.5855
-12.082
-11.0127
-10.2779
-9.77039
-9.40628
-9.13551
-8.99682
-9.03465
-12.9258
-13.0824
-13.5267
-13.8155
-13.9795
-14.1538
-14.3602
-14.557
-14.7303
-14.8658
-14.9834
-15.0322
-15.0373
-14.9155
-14.76
-14.4219
-14.0675
-13.6697
-13.392
-13.5486
-14.096
-15.0669
-16.4792
-17.9102
-20.0077
-22.2892
-24.2776
-25.2049
-24.6301
-22.4529
-19.1673
-16.4242
-14.1994
-12.5654
-11.4754
-10.7334
-10.2319
-9.88719
-9.65196
-9.55031
-9.58137
-14.5594
-14.7096
-15.1109
-15.474
-15.7767
-16.0656
-16.3966
-16.7148
-17.0576
-17.3605
-17.7006
-17.9642
-18.3043
-18.4689
-18.8146
-18.8439
-19.1324
-19.1375
-19.2811
-19.4765
-19.6244
-19.5562
-19.0827
-18.7497
-19.1441
-20.3185
-21.8726
-22.9499
-22.8839
-21.4189
-18.9365
-16.3536
-14.2449
-12.6888
-11.6735
-10.9848
-10.535
-10.2417
-10.0677
-10.0107
-10.0502
-16.2812
-16.5285
-16.9199
-17.2988
-17.7767
-18.1592
-18.6751
-19.0858
-19.6471
-20.1115
-20.7344
-21.2733
-22.089
-22.6044
-23.8088
-24.0956
-25.5256
-25.5921
-26.2917
-26.1557
-25.7224
-24.5153
-22.2652
-20.2055
-18.4951
-18.3343
-19.166
-19.9309
-20.5222
-19.3595
-18.2102
-15.8574
-14.1429
-12.6375
-11.6588
-11.1039
-10.7094
-10.5148
-10.4306
-10.431
-10.518
-18.1096
-18.4709
-19.0683
-19.3686
-20.1118
-20.4632
-21.28
-21.6764
-22.5512
-23.1059
-24.0967
-24.8847
-26.3461
-27.1935
-29.42
-29.8544
-32.6766
-32.6299
-34.0028
-33.1706
-32.1691
-29.8443
-25.6362
-21.7576
-17.5352
-16.1885
-16.4609
-16.2696
-17.8715
-16.6656
-17.216
-14.9481
-13.6704
-12.1045
-10.9867
-10.7613
-10.4112
-10.5753
-10.6134
-10.8358
-10.9316
-11.1945
-10.6295
-10.1021
-9.62717
-9.12743
-8.59771
-8.04386
-7.46259
-6.8786
-6.27162
-5.65382
-5.03701
-4.38296
-3.83112
-3.17037
-3.05376
-3.22769
-11.3151
-10.8314
-10.3258
-9.8713
-9.40568
-8.92621
-8.4249
-7.91322
-7.38838
-6.83784
-6.28904
-5.71024
-5.09681
-4.59122
-3.92226
-3.6775
-3.31683
-11.5846
-11.0367
-10.5192
-10.0727
-9.635
-9.199
-8.75212
-8.30629
-7.84541
-7.36708
-6.88886
-6.36221
-5.85863
-5.39106
-4.76929
-4.53569
-3.86979
-11.7203
-11.2413
-10.7445
-10.3132
-9.89804
-9.49165
-9.08586
-8.69003
-8.28067
-7.86697
-7.44273
-6.97202
-6.54269
-6.07559
-5.51639
-5.26227
-4.56716
-11.8929
-11.4375
-10.9651
-10.5508
-10.158
-9.77848
-9.40834
-9.05268
-8.69265
-8.33766
-7.9625
-7.56045
-7.19494
-6.75831
-6.31233
-6.02492
-5.332
-11.9155
-11.5553
-11.148
-10.7757
-10.4153
-10.0648
-9.72282
-9.3987
-9.08172
-8.77259
-8.44195
-8.10645
-7.79036
-7.3979
-7.0325
-6.74282
-6.14034
-11.8847
-11.593
-11.269
-10.957
-10.6457
-10.335
-10.0252
-9.72685
-9.44613
-9.17521
-8.89072
-8.61478
-8.33835
-8.0014
-7.72214
-7.43883
-6.92202
-11.8064
-11.5609
-11.2959
-11.0572
-10.8143
-10.5609
-10.2995
-10.032
-9.78345
-9.54539
-9.3013
-9.0718
-8.83226
-8.55722
-8.34883
-8.07525
-7.67091
-11.6532
-11.4701
-11.2549
-11.059
-10.8809
-10.7
-10.5046
-10.297
-10.082
-9.87093
-9.66487
-9.48175
-9.28133
-9.06234
-8.90516
-8.6586
-8.37898
-11.4871
-11.3237
-11.1548
-10.9982
-10.8569
-10.7227
-10.5928
-10.4564
-10.3049
-10.1389
-9.97293
-9.82648
-9.65545
-9.49696
-9.38989
-9.17739
-9.00197
-11.2519
-11.1338
-11.0024
-10.8792
-10.7703
-10.6692
-10.5741
-10.4835
-10.3934
-10.2963
-10.1901
-10.0729
-9.93656
-9.83757
-9.75847
-9.58948
-9.51059
-11.032
-10.9143
-10.8125
-10.7171
-10.6331
-10.5571
-10.4885
-10.4264
-10.3704
-10.3157
-10.2625
-10.2029
-10.1303
-10.0704
-10.0053
-9.89136
-9.89331
-10.7036
-10.6397
-10.5741
-10.5095
-10.4535
-10.4049
-10.3623
-10.3246
-10.291
-10.2606
-10.2333
-10.2086
-10.1851
-10.1658
-10.1386
-10.0907
-10.1036
-10.416
-10.3286
-10.2764
-10.2324
-10.1991
-10.1754
-10.159
-10.1469
-10.1383
-10.1324
-10.1298
-10.1291
-10.1275
-10.1405
-10.1382
-10.1345
-10.1711
-9.97606
-9.93979
-9.90855
-9.88024
-9.8609
-9.85107
-9.84882
-9.85004
-9.85709
-9.86738
-9.88495
-9.90802
-9.92798
-9.97604
-9.99365
-10.0293
-10.1077
-9.60225
-9.52458
-9.48548
-9.45745
-9.43901
-9.42934
-9.42746
-9.43305
-9.44842
-9.46849
-9.49632
-9.52858
-9.55952
-9.62868
-9.64675
-9.71919
-9.81077
-9.04629
-9.01556
-8.98532
-8.95776
-8.93579
-8.92022
-8.91135
-8.90883
-8.91431
-8.93393
-8.96311
-8.99507
-9.02854
-9.09709
-9.09612
-9.20251
-9.28214
-8.5588
-8.47346
-8.42215
-8.38071
-8.34717
-8.32061
-8.30045
-8.28637
-8.27845
-8.27642
-8.28169
-8.30186
-8.33068
-8.38716
-8.37878
-8.48809
-8.48454
-7.80643
-7.76642
-7.72359
-7.67714
-7.63394
-7.59605
-7.56321
-7.5352
-7.51183
-7.4933
-7.47993
-7.47353
-7.46929
-7.48733
-7.46842
-7.55909
-7.52122
-7.16899
-7.02548
-6.94371
-6.87173
-6.80479
-6.7448
-6.69059
-6.6418
-6.59879
-6.56046
-6.52619
-6.49804
-6.47027
-6.45713
-6.42354
-6.47335
-6.39663
-6.28573
-6.1966
-6.10551
-6.00893
-5.91287
-5.82202
-5.73618
-5.65485
-5.5777
-5.50487
-5.43532
-5.37231
-5.30703
-5.26259
-5.18281
-5.1942
-5.04087
-5.6306
-5.39564
-5.24085
-5.09957
-4.96359
-4.83217
-4.70446
-4.58021
-4.45881
-4.34283
-4.23044
-4.12523
-4.01335
-3.93298
-3.79181
-3.79072
-3.55668
-4.65183
-4.48125
-4.31151
-4.12125
-3.93505
-3.75925
-3.58966
-3.42507
-3.26571
-3.1117
-2.96119
-2.81648
-2.66682
-2.54253
-2.35423
-2.32009
-2.00522
-3.92372
-3.56259
-3.31743
-3.0866
-2.8606
-2.64323
-2.43363
-2.23046
-2.03336
-1.84202
-1.6542
-1.47153
-1.28537
-1.11858
-0.895708
-0.822424
-0.429265
-2.83572
-2.57598
-2.31162
-2.02701
-1.75686
-1.50079
-1.25409
-1.01491
-0.782502
-0.556137
-0.33326
-0.115233
0.106096
0.314033
0.570489
0.689279
1.15663
-2.07052
-1.57379
-1.25852
-0.944985
-0.641148
-0.350268
-0.0696421
0.202581
0.467427
0.726039
0.981281
1.23242
1.48953
1.73953
2.03479
2.21354
2.74119
-0.924988
-0.57114
-0.228252
0.131131
0.470401
0.792892
1.10395
1.40573
1.69953
1.98705
2.27155
2.55365
2.8444
3.12782
3.45182
3.68032
4.2408
-0.137452
0.441569
0.820519
1.20134
1.56633
1.91537
2.25197
2.57851
2.89677
3.209
3.51899
3.82869
4.14712
4.45816
4.79839
5.05824
5.61506
1.00083
1.4241
1.83007
2.2451
2.63324
3.00313
3.3597
3.7053
4.04245
4.37426
4.7052
5.0374
5.37427
5.69945
6.04576
6.31505
6.84228
1.78979
2.40785
2.83451
3.25988
3.66108
4.04414
4.41345
4.77141
5.12089
5.46547
5.80912
6.14952
6.48685
6.81155
7.15136
7.42165
7.90594
2.88594
3.34947
3.79004
4.23061
4.63954
5.02832
5.40245
5.76471
6.11812
6.46554
6.8087
7.14351
7.4728
7.78775
8.11181
8.37392
8.80466
3.65206
4.27375
4.71892
5.15367
5.56001
5.94666
6.31804
6.67675
7.02531
7.36531
7.69673
8.0183
8.33141
8.62874
8.93045
9.17745
9.55013
4.69118
5.15379
5.5944
6.02347
6.41876
6.79389
7.15386
7.50102
7.83719
8.16245
8.47643
8.77879
9.06997
9.34443
9.61649
9.83892
10.1532
5.42203
6.00998
6.43446
6.84118
7.21706
7.57295
7.91322
8.2402
8.55579
8.8597
9.15078
9.42975
9.69502
9.94263
10.1822
10.3751
10.631
6.38173
6.80887
7.21232
7.59622
7.94799
8.28017
8.597
8.90014
9.19099
9.46954
9.73359
9.98421
10.2191
10.4354
10.6386
10.8
11.002
7.06305
7.57243
7.93868
8.284
8.60394
8.90668
9.19604
9.47362
9.73973
9.99344
10.2319
10.4527
10.6548
10.8376
11.0031
11.1308
11.284
7.94042
8.28269
8.61311
8.91787
9.1988
9.46585
9.72175
9.9685
10.2055
10.4304
10.6388
10.8281
10.9996
11.1507
11.2814
11.3802
11.4943
8.60027
8.98755
9.26823
9.52667
9.76565
9.9948
10.2145
10.426
10.6276
10.8164
10.9895
11.1449
11.2801
11.3958
11.4902
11.5601
11.6454
9.42164
9.65964
9.89346
10.11
10.3094
10.5026
10.6875
10.8634
11.0274
11.1764
11.3083
11.4222
11.518
11.5961
11.6549
11.6995
11.7542
10.0185
10.2782
10.4419
10.6048
10.7602
10.915
11.0642
11.2053
11.3344
11.4486
11.5463
11.6263
11.6879
11.732
11.7636
11.7958
11.8359
12.7023
13.1947
13.7492
14.1793
14.66
15.0492
15.4567
15.7945
16.121
16.3988
16.6492
16.8603
17.0361
17.181
17.2861
17.3661
17.4078
17.4306
17.4282
17.3898
17.3189
17.2232
17.1
16.9494
16.7753
16.5721
16.3511
16.097
15.8305
15.5249
15.2137
14.8547
14.4996
14.0843
13.6867
13.2137
12.7852
12.2582
11.7828
11.1809
10.6731
12.7321
13.1913
13.6379
14.0609
14.4689
14.8477
15.2006
15.5259
15.8206
16.0874
16.3205
16.5243
16.6946
16.8344
16.9418
17.0192
17.0657
17.0857
17.0861
17.0467
16.9805
16.8881
16.7687
16.6224
16.4516
16.2562
16.0383
15.7971
15.534
15.2488
14.9418
14.6141
14.2643
13.8948
13.503
13.093
12.6607
12.2125
11.7476
11.2705
10.7601
12.7849
13.1902
13.5762
13.954
14.3156
14.6593
14.9828
15.2832
15.5593
15.8099
16.0327
16.2276
16.3932
16.5296
16.6362
16.7138
16.7621
16.7818
16.7814
16.7445
16.6817
16.5922
16.4762
16.334
16.167
15.9771
15.7646
15.531
15.2761
15.0018
14.7073
14.3951
14.0638
13.7162
13.3507
12.9706
12.5735
12.1629
11.7374
11.3086
10.8528
12.8214
13.1805
13.5224
13.8604
14.1861
14.4993
14.7964
15.0752
15.3336
15.5697
15.7819
15.9687
16.129
16.262
16.3672
16.4444
16.4935
16.5143
16.5127
16.4784
16.418
16.3313
16.2182
16.0796
15.9169
15.7316
15.5248
15.2978
15.0513
14.7865
14.5044
14.2061
13.8925
13.5649
13.2242
12.8719
12.5078
12.133
11.7475
11.3643
10.9533
12.8561
13.1765
13.477
13.7818
14.0777
14.3639
14.6375
14.8965
15.1385
15.3614
15.5632
15.7424
15.8974
16.027
16.1304
16.2071
16.2565
16.2784
16.2759
16.2439
16.1857
16.1013
15.9909
15.8556
15.6967
15.5157
15.3141
15.0931
14.854
14.5982
14.3269
14.0416
13.7438
13.4348
13.1159
12.787
12.4496
12.1083
11.762
11.4193
11.0518
12.9071
13.1898
13.4531
13.7228
13.9893
14.2512
14.5034
14.7439
14.9706
15.1811
15.3733
15.5451
15.6949
15.8211
15.9226
15.9985
16.048
16.0709
16.0679
16.0377
15.9814
15.899
15.7911
15.6587
15.5031
15.326
15.129
14.9135
14.6812
14.4334
14.172
13.8987
13.6152
13.3228
13.022
12.7169
12.408
12.0976
11.7853
11.4807
11.1551
12.9649
13.2124
13.4426
13.6827
13.9208
14.1578
14.3907
14.6143
14.8267
15.0256
15.2086
15.3735
15.5182
15.6411
15.7407
15.8157
15.8652
15.8886
15.8859
15.8572
15.8024
15.7217
15.6159
15.4859
15.3333
15.1595
14.9665
14.7558
14.5294
14.2889
14.0365
13.774
13.5026
13.2253
12.9451
12.6623
12.3784
12.0971
11.816
11.5467
11.2588
13.0255
13.242
13.4435
13.6556
13.8689
14.0831
14.2957
14.5043
14.7036
14.8917
15.0661
15.2245
15.3646
15.4843
15.582
15.6562
15.7056
15.7297
15.727
15.6996
15.6461
15.567
15.4629
15.3349
15.1846
15.0136
14.8239
14.6174
14.396
14.1619
13.9174
13.6638
13.4054
13.1443
12.8813
12.6184
12.3579
12.1033
11.8512
11.6142
11.3628
13.0871
13.2749
13.4506
13.6379
13.8288
14.0231
14.2175
14.4102
14.5983
14.7766
14.9432
15.0956
15.2315
15.3483
15.4443
15.5177
15.5672
15.592
15.5892
15.563
15.5106
15.4326
15.3298
15.2035
15.055
14.8862
14.6991
14.4959
14.2787
14.0499
13.8114
13.5682
13.3222
13.0743
12.8269
12.5826
12.3436
12.1128
11.8875
11.6796
11.4617
13.1475
13.3087
13.4615
13.6272
13.7981
13.9743
14.153
14.3315
14.5078
14.678
14.8376
14.9846
15.1166
15.2309
15.3255
15.3984
15.448
15.4733
15.4709
15.4455
15.394
15.3169
15.2151
15.0897
14.9425
14.7752
14.5901
14.3894
14.1757
13.9508
13.7202
13.4861
13.2499
13.0138
12.7806
12.5531
12.3333
12.1236
11.9224
11.7399
11.5523
13.2044
13.3415
13.4744
13.6212
13.7746
13.9349
14.0995
14.2658
14.431
14.593
14.7468
14.8889
15.0175
15.1299
15.2236
15.2963
15.3462
15.3723
15.3705
15.3459
15.295
15.2184
15.117
14.9921
14.8453
14.6787
14.4947
14.2958
14.0846
13.8654
13.6413
13.4142
13.1863
12.9608
12.7403
12.5274
12.3243
12.1329
11.9532
11.7931
11.6323
13.2546
13.3708
13.4862
13.616
13.7538
13.8998
14.0517
14.2071
14.3632
14.5173
14.667
14.8061
14.9325
15.0438
15.1371
15.2102
15.2608
15.2877
15.2869
15.2629
15.2124
15.1359
15.0345
14.9094
14.7622
14.5952
14.411
14.2122
14.0031
13.7879
13.5682
13.3464
13.1256
12.909
12.6996
12.4999
12.312
12.1377
11.9773
11.8369
11.6992
13.2941
13.3929
13.4939
13.609
13.7338
13.8678
14.009
14.1555
14.3044
14.4525
14.597
14.7354
14.8617
14.9726
15.0659
15.1392
15.1907
15.2184
15.219
15.1953
15.1449
15.0683
14.9664
14.8405
14.6927
14.525
14.3391
14.1397
13.9321
13.7183
13.5009
13.2832
13.068
12.859
12.6589
12.4704
12.2958
12.1367
11.9923
11.8681
11.7498
13.3211
13.4052
13.4971
13.602
13.7183
13.8438
13.9774
14.117
14.2591
14.402
14.5432
14.6783
14.8041
14.9147
15.0081
15.082
15.1344
15.1631
15.1652
15.1416
15.0912
15.0141
14.9113
14.7844
14.6358
14.4676
14.2823
14.0841
13.8767
13.663
13.4468
13.232
13.0215
12.8196
12.6277
12.4475
12.2817
12.1316
11.9983
11.8847
11.783
13.3405
13.4095
13.4928
13.5882
13.696
13.8145
13.9422
14.0751
14.2124
14.3527
14.4918
14.6252
14.7503
14.8626
14.9588
15.0357
15.0905
15.1209
15.1248
15.1016
15.0509
14.9728
14.868
14.7386
14.5867
14.4154
14.2287
14.0293
13.8208
13.6072
13.3917
13.1787
12.971
12.7729
12.5872
12.4145
12.2569
12.1161
11.994
11.8896
11.8048
13.3663
13.4144
13.4795
13.5593
13.6549
13.7644
13.8849
14.0145
14.1524
14.2926
14.4301
14.5653
14.6938
14.8119
14.9153
14.9991
15.0586
15.0924
15.0989
15.0767
15.0255
14.9451
14.837
14.7017
14.5419
14.3624
14.1683
13.9636
13.7503
13.534
13.3172
13.1037
12.8979
12.6992
12.5152
12.3503
12.2044
12.0787
11.9749
11.8918
11.8307
13.4114
13.4255
13.4745
13.5454
13.6344
13.7386
13.8555
13.9834
14.1174
14.2551
14.3956
14.5334
14.6638
14.7846
14.8904
14.977
15.0415
15.0795
15.0886
15.0677
15.0156
14.9328
14.8205
14.6816
14.5192
14.3368
14.1389
13.929
13.7115
13.4896
13.2691
13.0532
12.8467
12.6546
12.4768
12.3164
12.1766
12.0593
11.9663
11.9001
11.8718
-3.38697
-3.39983
-3.66753
-4.34668
-4.96328
-5.70484
-6.46203
-7.26911
-8.13135
-9.03298
-10.0015
-11.0986
-12.2726
-13.5379
-14.8644
-16.1027
-17.1983
-3.72629
-4.18167
-4.46884
-5.17926
-5.7776
-6.46365
-7.18956
-7.94272
-8.75144
-9.60082
-10.5332
-11.5341
-12.599
-13.7217
-14.8667
-15.972
-16.9952
-4.45527
-5.12309
-5.4045
-6.05245
-6.62736
-7.25254
-7.94905
-8.65908
-9.41111
-10.2069
-11.0703
-11.9653
-12.9004
-13.8644
-14.8219
-15.7799
-16.9603
-5.22282
-5.93258
-6.24832
-6.85395
-7.42539
-8.00889
-8.66249
-9.3206
-10.0062
-10.7429
-11.5094
-12.2997
-13.1186
-13.9454
-14.7385
-15.4693
-16.0702
-6.05127
-6.76405
-7.10108
-7.66357
-8.21353
-8.75085
-9.34584
-9.94305
-10.5587
-11.2239
-11.8937
-12.5835
-13.2858
-13.9582
-14.616
-15.2116
-15.6845
-6.91345
-7.59347
-7.93466
-8.44598
-8.95673
-9.44509
-9.97237
-10.5023
-11.0511
-11.6287
-12.213
-12.8049
-13.3758
-13.8957
-14.4027
-14.879
-15.4687
-7.78435
-8.41252
-8.7409
-9.19077
-9.65135
-10.0791
-10.5316
-10.9936
-11.4819
-11.9751
-12.47
-12.9444
-13.3622
-13.7508
-14.105
-14.4089
-14.6657
-8.64198
-9.19191
-9.49679
-9.86983
-10.27
-10.6325
-11.0166
-11.4266
-11.8369
-12.2394
-12.6155
-12.9426
-13.2477
-13.5223
-13.7914
-14.0012
-14.1546
-9.44764
-9.90673
-10.1817
-10.4727
-10.8043
-11.1054
-11.4319
-11.7675
-12.0808
-12.3576
-12.5992
-12.8209
-13.0255
-13.2273
-13.4225
-13.5948
-13.8648
-10.1831
-10.526
-10.7577
-10.9715
-11.2358
-11.4907
-11.7297
-11.9492
-12.1366
-12.3036
-12.4509
-12.6003
-12.7407
-12.8618
-12.9633
-13.0227
-13.0863
-10.803
-11.0144
-11.1988
-11.3452
-11.5245
-11.6815
-11.8081
-11.9189
-12.02
-12.1237
-12.2214
-12.3098
-12.3846
-12.443
-12.4848
-12.4826
-12.4468
-11.2299
-11.3213
-11.4441
-11.5169
-11.579
-11.6412
-11.7031
-11.7613
-11.8142
-11.8591
-11.896
-11.924
-11.9424
-11.9518
-11.9601
-11.9644
-12.0644
-11.4176
-11.4137
-11.4412
-11.4583
-11.4702
-11.4808
-11.4873
-11.4906
-11.4906
-11.4852
-11.4719
-11.4508
-11.4196
-11.3775
-11.3328
-11.2683
-11.2696
-11.3735
-11.2745
-11.2629
-11.2245
-11.1828
-11.1442
-11.0982
-11.0545
-11.0114
-10.9667
-10.9193
-10.8684
-10.813
-10.754
-10.6871
-10.5767
-10.4794
-11.0079
-10.8698
-10.818
-10.7404
-10.6513
-10.5817
-10.5105
-10.4418
-10.3735
-10.3038
-10.2334
-10.1624
-10.0922
-10.0253
-9.96271
-9.91055
-9.97057
-10.364
-10.1962
-10.1089
-10.0223
-9.91713
-9.83534
-9.75233
-9.6698
-9.58847
-9.50757
-9.42817
-9.35037
-9.27387
-9.19943
-9.13177
-9.0866
-9.10437
-9.42223
-9.26148
-9.15619
-9.08014
-8.97855
-8.89537
-8.80935
-8.72806
-8.65233
-8.58221
-8.51772
-8.45836
-8.40505
-8.35984
-8.3194
-8.27373
-8.20822
-8.15028
-8.05732
-7.94867
-7.89526
-7.80923
-7.74651
-7.68422
-7.62913
-7.57998
-7.53882
-7.50568
-7.47994
-7.46481
-7.46252
-7.46608
-7.48391
-7.5572
-6.61134
-6.6152
-6.52437
-6.51824
-6.47335
-6.45144
-6.42949
-6.41531
-6.40721
-6.40603
-6.40769
-6.41226
-6.42049
-6.43249
-6.44467
-6.46158
-6.50548
-4.96158
-5.00347
-4.98957
-5.01364
-5.02189
-5.04128
-5.0622
-5.08821
-5.11827
-5.15275
-5.19105
-5.23253
-5.27814
-5.32765
-5.37116
-5.40083
-5.40509
-3.13239
-3.26089
-3.28502
-3.37218
-3.43265
-3.50712
-3.57922
-3.65477
-3.73228
-3.81273
-3.89559
-3.98143
-4.07465
-4.17816
-4.28372
-4.40887
-4.60538
-1.22934
-1.45227
-1.5064
-1.66726
-1.77621
-1.90538
-2.03051
-2.15963
-2.29014
-2.42324
-2.55748
-2.69306
-2.83018
-2.96051
-3.0802
-3.23715
-3.45953
0.63718
0.323518
0.237505
0.0320757
-0.128967
-0.304437
-0.476689
-0.65321
-0.831069
-1.0129
-1.19941
-1.39084
-1.58786
-1.78958
-1.98702
-2.16611
-2.24481
2.41927
2.0288
1.90793
1.66972
1.46667
1.25136
1.0403
0.824384
0.606256
0.383383
0.157189
-0.0715209
-0.312215
-0.571092
-0.832992
-1.12831
-1.49573
4.07626
3.63326
3.47738
3.21807
2.98825
2.74062
2.49614
2.24629
1.99217
1.73232
1.46933
1.2012
0.920904
0.646333
0.396872
0.0801095
-0.364235
5.61383
5.1477
4.95137
4.664
4.40858
4.13758
3.86801
3.59266
3.31212
3.0249
2.73127
2.42663
2.10725
1.78716
1.46328
1.10987
0.912045
7.00061
6.52098
6.2992
5.99206
5.71583
5.42926
5.14317
4.85077
4.55205
4.24512
3.9311
3.60748
3.26722
2.91365
2.54246
2.10956
1.63969
8.22307
7.74735
7.5161
7.20589
6.91585
6.61758
6.32077
6.01799
5.70731
5.38682
5.05862
4.7177
4.3564
3.99707
3.65085
3.21588
2.65238
9.28327
8.83025
8.60087
8.29424
8.00539
7.70236
7.39918
7.09109
6.77512
6.44928
6.11395
5.76096
5.38555
5.00975
4.61682
4.15595
3.90051
10.1889
9.76854
9.54271
9.24761
8.9678
8.67282
8.37213
8.06524
7.75025
7.42516
7.08992
6.7378
6.36428
5.98126
5.56127
5.04919
4.5776
10.9425
10.5641
10.3471
10.0689
9.80309
9.52242
9.23498
8.93748
8.63043
8.31257
7.98433
7.63766
7.26655
6.89538
6.51781
6.02961
5.42319
11.5556
11.2248
11.0227
10.7679
10.5202
10.2584
9.98848
9.708
9.41573
9.11207
8.79756
8.46208
8.101
7.7397
7.34903
6.86603
6.619
12.0438
11.7664
11.5857
11.3574
11.1307
10.8906
10.641
10.3807
10.1077
9.82334
9.52816
9.21292
8.87498
8.53206
8.13875
7.63667
7.24054
12.4275
12.2022
12.0433
11.8443
11.6414
11.4252
11.1987
10.9625
10.7135
10.4534
10.1827
9.89205
9.57811
9.26551
8.9324
8.48147
7.91899
12.7187
12.5421
12.4092
12.2417
12.0658
11.8769
11.6772
11.4658
11.2427
11.0091
10.7657
10.503
10.2178
9.93422
9.61865
9.20658
9.03259
12.94
12.8066
12.701
12.5651
12.417
12.2552
12.08
11.8929
11.6949
11.4876
11.2724
11.0411
10.7916
10.5437
10.2505
9.84968
9.59572
13.1054
13.0057
12.923
12.8155
12.6927
12.5566
12.4083
12.2469
12.0748
11.8946
11.7088
11.5103
11.2959
11.0911
10.873
10.5441
10.1181
13.2237
13.1485
13.0887
13.0112
12.9174
12.8099
12.6896
12.5576
12.4147
12.2642
12.1096
11.9449
11.7672
11.6027
11.4189
11.1501
11.1395
13.3109
13.2616
13.2224
13.1732
13.1102
13.0351
12.9486
12.8509
12.7421
12.6248
12.5026
12.3713
12.2318
12.1047
11.9409
11.7099
11.7193
13.3809
13.3397
13.3102
13.2834
13.2485
13.2018
13.1436
13.0756
12.9983
12.9133
12.8228
12.7254
12.6243
12.5374
12.4365
12.2927
12.0913
-19.6811
-20.9796
-22.4262
-24.0644
-25.9819
-28.3504
-31.8872
-35.5353
-39.5302
-40.9874
-36.3546
-25.6507
-15.6631
-12.9694
-13.2184
-11.994
-10.5571
-10.4303
-10.8451
-11.2949
-21.0118
-22.6652
-24.4863
-26.5474
-28.9886
-32.1949
-36.9621
-41.9185
-46.9105
-48.2697
-41.7383
-28.1116
-15.3185
-11.1425
-11.1672
-10.3716
-9.90448
-10.2408
-10.9321
-11.5981
-22.4193
-24.4049
-26.6161
-29.1103
-32.1333
-36.3
-41.234
-48.0802
-53.4688
-53.8018
-45.799
-29.8832
-15.1089
-9.56617
-9.05262
-8.86837
-9.18888
-10.0991
-11.0942
-11.9617
-23.9568
-26.2673
-28.875
-31.7863
-35.4452
-40.6032
-45.8457
-53.7086
-58.3372
-57.3203
-48.4311
-31.1589
-15.0295
-8.31264
-7.10622
-7.46071
-8.60618
-10.0063
-11.3451
-12.4338
-25.5897
-28.229
-31.2219
-34.5679
-38.9181
-44.1554
-50.711
-57.984
-61.206
-58.8571
-49.4562
-31.7456
-15.1784
-7.4891
-5.62245
-6.28098
-8.09216
-10.0634
-11.7383
-13.0468
-27.3382
-30.2929
-33.6321
-37.4727
-42.5631
-47.3385
-55.0532
-60.8252
-62.2858
-58.7291
-48.9709
-31.9885
-15.6688
-7.19605
-4.71933
-5.54296
-7.80926
-10.3542
-12.354
-13.8636
-29.1969
-32.4581
-36.1417
-40.4573
-45.3958
-51.195
-58.399
-62.2612
-62.1206
-57.8354
-48.0518
-32.2081
-16.8054
-7.8339
-4.6008
-5.33833
-8.05467
-11.0365
-13.2926
-14.9681
-31.1773
-34.7606
-38.8772
-43.6082
-47.9398
-54.9004
-60.5118
-62.561
-61.2923
-56.642
-47.1836
-32.9041
-18.7392
-9.55665
-5.54651
-6.00709
-8.99353
-12.2643
-14.6899
-16.4698
-33.2881
-37.2326
-41.6853
-46.222
-51.4108
-57.7315
-61.4391
-62.1694
-60.288
-55.5705
-46.7421
-34.4564
-21.814
-12.7021
-7.88983
-7.98845
-10.9162
-14.2959
-16.7437
-18.5164
-35.6013
-39.9414
-44.4404
-48.874
-54.9949
-59.5614
-61.6051
-61.5301
-59.4093
-54.8469
-47.1359
-36.9656
-26.3411
-17.7008
-12.2674
-11.754
-14.3597
-17.5383
-19.7192
-21.3136
-38.2808
-42.8802
-47.3063
-52.5245
-57.6127
-60.4169
-61.3647
-60.9232
-58.8115
-54.6799
-48.6246
-40.7817
-32.5958
-25.0667
-19.4684
-18.3068
-20.2704
-22.599
-24.023
-25.2448
-41.4267
-45.9548
-50.8199
-55.7363
-58.9719
-60.3919
-60.92
-60.4188
-58.5382
-55.2635
-50.9725
-45.8411
-40.6446
-35.2804
-30.5566
-29.1655
-30.1063
-30.8916
-30.7177
-31.0835
-45.0975
-49.5439
-54.1149
-57.4465
-59.056
-59.943
-60.3643
-59.9237
-58.4543
-56.243
-53.8164
-51.8608
-49.9556
-48.0099
-46.1588
-45.8976
-46.1653
-44.9416
-41.5798
-39.6649
-49.76
-53.018
-55.6342
-57.3708
-58.397
-59.1628
-59.5577
-59.2562
-58.3258
-57.2184
-56.6642
-57.3945
-59.0348
-61.2684
-63.8107
-66.1254
-67.2034
-65.0661
-58.5432
-52.1308
-55.2105
-54.9714
-55.079
-56.1429
-57.1691
-57.9394
-58.3123
-58.2334
-57.8458
-57.7799
-58.8308
-61.1544
-65.2999
-70.6108
-76.7658
-81.9886
-84.3703
-83.1602
-76.7864
-68.4956
-56.0859
-54.1393
-53.3183
-54.3075
-55.409
-56.1621
-56.5504
-56.6692
-56.7216
-57.2861
-59.0628
-62.0956
-66.8347
-72.786
-79.5802
-85.8099
-89.0656
-88.4811
-85.3652
-80.3558
-51.7506
-50.783
-51.0217
-52.1411
-53.24
-53.9658
-54.3787
-54.5956
-54.8046
-55.5187
-57.1707
-59.9866
-64.0797
-69.0731
-74.5358
-79.646
-83.1288
-82.9262
-81.5741
-79.0165
-46.8143
-47.739
-48.8121
-50.1072
-51.1343
-51.7567
-52.1117
-52.3076
-52.5127
-53.0731
-54.3009
-56.3846
-59.3538
-62.9784
-66.8873
-70.6146
-73.484
-73.5602
-72.6955
-71.0182
-44.7082
-46.2089
-47.6124
-48.7585
-49.5072
-49.8969
-50.0574
-50.079
-50.1258
-50.3745
-51.0815
-52.3761
-54.3369
-56.8849
-59.7851
-62.6864
-64.9665
-65.6097
-65.1431
-63.7119
-44.5405
-45.9716
-47.1518
-47.9443
-48.2929
-48.3597
-48.0647
-47.6711
-47.3758
-47.3425
-47.5882
-48.2525
-49.4537
-51.1305
-53.1831
-55.4186
-57.4608
-58.8399
-58.8624
-58.34
-56.6562
-58.9425
-65.3374
-70.2112
-68.535
-59.9785
-49.1599
-39.9017
-32.6921
-27.1935
-23.107
-20.1585
-17.9755
-16.3225
-15.0567
-14.0782
-13.3094
-12.6949
-12.1983
-11.7788
-53.5182
-54.195
-59.7474
-64.3893
-62.8883
-54.8465
-45.9231
-38.2461
-32.2173
-27.5924
-24.0313
-21.1844
-18.9553
-17.2273
-15.8769
-14.8047
-13.9414
-13.2398
-12.6616
-12.1725
-50.709
-50.7049
-54.3824
-58.3074
-56.313
-49.7209
-42.7232
-36.3957
-31.2518
-27.1931
-23.9602
-21.3857
-19.32
-17.6477
-16.2871
-15.1762
-14.2625
-13.5119
-12.8897
-12.3607
-48.5792
-48.2296
-49.8735
-52.9253
-50.5322
-44.6899
-39.4046
-34.3138
-29.9637
-26.3941
-23.4674
-21.0819
-19.1355
-17.5381
-16.221
-15.1306
-14.2208
-13.4672
-12.8393
-12.2766
-46.89
-46.2665
-46.6489
-48.2485
-46.0107
-40.4232
-36.1196
-32.0447
-28.3735
-25.2619
-22.6484
-20.4694
-18.6579
-17.1488
-15.8869
-14.8293
-13.9362
-13.1903
-12.5577
-11.9529
-45.5399
-44.4589
-44.3622
-44.2492
-41.8789
-37.0914
-33.1329
-29.6633
-26.5303
-23.8008
-21.4702
-19.497
-17.8321
-16.4281
-15.2414
-14.2388
-13.384
-12.6668
-12.0556
-11.4432
-44.5
-42.7974
-42.396
-40.9224
-37.5409
-33.8235
-30.3064
-27.2204
-24.4908
-22.084
-20.0035
-18.2245
-16.708
-15.4176
-14.3183
-13.3858
-12.5854
-11.916
-11.3427
-10.7607
-43.8025
-41.4245
-40.5741
-38.0776
-33.8379
-30.6284
-27.548
-24.7477
-22.3072
-20.1643
-18.3022
-16.7004
-15.3268
-14.1515
-13.1452
-12.2906
-11.5538
-10.9457
-10.4178
-9.89977
-43.1971
-40.491
-38.7943
-35.9059
-30.7637
-27.6063
-24.809
-22.2357
-20.0086
-18.0777
-16.4048
-14.9635
-13.7245
-12.6616
-11.7491
-10.9743
-10.3036
-9.76013
-9.27207
-8.85178
-42.5026
-40.0451
-37.0457
-33.3728
-28.089
-24.7323
-22.0362
-19.6495
-17.6002
-15.8452
-14.3382
-13.0434
-11.9311
-10.9765
-10.1565
-9.46042
-8.85487
-8.3726
-7.91507
-7.59478
-41.8234
-39.7106
-34.9544
-29.9337
-25.2289
-21.8646
-19.1961
-16.9611
-15.0762
-13.4781
-12.1214
-10.9636
-9.97239
-9.1227
-8.39438
-7.77474
-7.2342
-6.80988
-6.37754
-6.1434
-41.1938
-38.9001
-32.5481
-26.4512
-22.0868
-18.885
-16.2635
-14.1579
-12.4307
-10.9838
-9.77075
-8.74534
-7.87244
-7.12649
-6.489
-5.9436
-5.46971
-5.09789
-4.70374
-4.55992
-40.6226
-37.1322
-30.1831
-23.0832
-18.7625
-15.7383
-13.2074
-11.2339
-9.66548
-8.37255
-7.30419
-6.41144
-5.65729
-5.01606
-4.46927
-3.99809
-3.59375
-3.26562
-2.91341
-2.82448
-39.8188
-34.0788
-27.3713
-19.7876
-15.2723
-12.3987
-10.0092
-8.19249
-6.79317
-5.66267
-4.74533
-3.98918
-3.35683
-2.82275