/*--------------------------------*- C++ -*----------------------------------*\
  =========                 |
  \\      /  F ield         | OpenFOAM: The Open Source CFD Toolbox
   \\    /   O peration     | Website:  https://openfoam.org
    \\  /    A nd           | Version:  6
     \\/     M anipulation  |
\*---------------------------------------------------------------------------*/
FoamFile
{
    version     2.0;
    format      ascii;
    class       surfaceScalarField;
    location    "1.02";
    object      meshPhi;
}
// * * * * * * * * * * * * * * * * * * * * * * * * * * * * * * * * * * * * * //

dimensions      [0 3 -1 0 0 0 0];

internalField   nonuniform List<scalar> 
44700
(
0.000549911
0.00109389
0.00109891
0.00328008
0.00164595
0.00546003
0.00219012
0.00763056
0.0027305
0.00978852
0.00326606
0.0119278
0.00379589
0.0140469
0.00431913
0.0161426
0.00483475
0.0182075
0.0053419
0.0202417
0.00583973
0.0222421
0.00632728
0.0242001
0.00680375
0.0261173
0.00726832
0.0279908
0.00772011
0.029811
0.00815836
0.031581
0.00858234
0.0332981
0.00899123
0.0349518
0.00938436
0.0365466
0.00976105
0.0380803
0.0101206
0.0395414
0.0104624
0.040936
0.0107858
0.0422619
0.0110904
0.0435074
0.0113754
0.0446797
0.0116405
0.0457771
0.0118852
0.0467873
0.012109
0.0477188
0.0123116
0.0485703
0.0124926
0.0493293
0.0126517
0.0500054
0.0127885
0.0505975
0.0129029
0.0510933
0.0129947
0.0515033
0.0130637
0.0518268
0.0131097
0.0520516
0.0131328
0.052189
0.0131328
0.0522388
0.0131097
0.052189
0.0130637
0.0520517
0.0129947
0.0518269
0.0129029
0.0515034
0.0127885
0.0510935
0.0126517
0.0505977
0.0124926
0.0500055
0.0123116
0.0493295
0.012109
0.0485705
0.0118852
0.047719
0.0116405
0.0467875
0.0113754
0.0457773
0.0110904
0.0446799
0.0107858
0.0435077
0.0104624
0.0422622
0.0101206
0.0409362
0.00976105
0.0395417
0.00938436
0.0380806
0.00899123
0.0365469
0.00858234
0.0349521
0.00815836
0.0332984
0.00772011
0.0315813
0.00726832
0.0298113
0.00680375
0.0279911
0.00632728
0.0261175
0.00583973
0.0242003
0.0053419
0.0222423
0.00483475
0.0202419
0.00431913
0.0182077
0.00379591
0.0161424
0.00326606
0.0140474
0.00273049
0.0119282
0.00219013
0.00978818
0.00164595
0.00763084
0.0010989
0.00546019
0.000549923
0.00327997
-5.01746e-14
0.00109395
-0.000549911
-0.00109395
-0.00109885
-0.00327997
-0.00164584
-0.00546019
-0.00218994
-0.00763084
-0.00273018
-0.00978818
-0.00326562
-0.0119282
-0.00379532
-0.0140474
-0.00431837
-0.0161424
-0.0048338
-0.0182077
-0.00534074
-0.0202419
-0.00583835
-0.0222423
-0.00632566
-0.0242003
-0.00680187
-0.0261175
-0.00726617
-0.0279911
-0.00771769
-0.0298113
-0.00815566
-0.0315813
-0.00857935
-0.0332984
-0.00898795
-0.0349521
-0.00938078
-0.0365469
-0.00975718
-0.0380806
-0.0101164
-0.0395417
-0.0104579
-0.0409362
-0.0107811
-0.0422622
-0.0110854
-0.0435077
-0.0113702
-0.0446799
-0.011635
-0.0457773
-0.0118795
-0.0467875
-0.0121031
-0.047719
-0.0123055
-0.0485705
-0.0124863
-0.0493295
-0.0126452
-0.0500055
-0.0127819
-0.0505977
-0.0128962
-0.0510935
-0.0129879
-0.0515034
-0.0130568
-0.0518269
-0.0131028
-0.0520517
-0.0131258
-0.052189
-0.0131258
-0.0522388
-0.0131028
-0.052189
-0.0130568
-0.0520516
-0.0129879
-0.0518268
-0.0128962
-0.0515033
-0.0127819
-0.0510933
-0.0126452
-0.0505975
-0.0124863
-0.0500054
-0.0123055
-0.0493293
-0.0121031
-0.0485703
-0.0118795
-0.0477188
-0.011635
-0.0467873
-0.0113702
-0.0457771
-0.0110854
-0.0446797
-0.0107811
-0.0435074
-0.0104579
-0.0422619
-0.0101164
-0.040936
-0.00975718
-0.0395414
-0.00938078
-0.0380803
-0.00898795
-0.0365466
-0.00857935
-0.0349518
-0.00815566
-0.0332981
-0.00771769
-0.031581
-0.00726617
-0.029811
-0.00680187
-0.0279908
-0.00632566
-0.0261173
-0.00583835
-0.0242001
-0.00534074
-0.0222421
-0.0048338
-0.0202417
-0.00431837
-0.0182075
-0.00379531
-0.0161426
-0.00326562
-0.0140469
-0.00273019
-0.0119278
-0.00218993
-0.00978852
-0.00164584
-0.00763056
-0.00109886
-0.00546003
-0.000549898
-0.00328008
-0.00109389
0.00164877
0.00218585
0.0032948
0.00655437
0.00493497
0.0109104
0.00656652
0.0152476
0.0081867
0.0195598
0.00979243
0.0238346
0.011381
0.028069
0.0129498
0.0322567
0.0144958
0.0363829
0.0160163
0.0404477
0.0175089
0.0444449
0.0189708
0.0483575
0.0203993
0.0521885
0.0217922
0.0559322
0.0231468
0.0595695
0.0244608
0.0631063
0.0257319
0.0665375
0.0269579
0.069842
0.0281366
0.0730289
0.029266
0.0760935
0.030344
0.0790131
0.0313688
0.0817998
0.0323386
0.0844494
0.0332516
0.0869382
0.0341063
0.0892807
0.0349012
0.0914736
0.0356348
0.0934922
0.0363058
0.0953537
0.0369133
0.0970552
0.0374559
0.0985718
0.0379328
0.0999228
0.0383431
0.101106
0.0386862
0.102097
0.0389613
0.102916
0.0391682
0.103563
0.0393062
0.104012
0.0393753
0.104286
0.0393753
0.104386
0.0393062
0.104287
0.0391682
0.104012
0.0389613
0.103563
0.0386862
0.102917
0.0383431
0.102097
0.0379328
0.101107
0.0374559
0.0999235
0.0369133
0.0985726
0.0363058
0.097056
0.0356348
0.0953545
0.0349012
0.0934932
0.0341063
0.0914746
0.0332516
0.0892818
0.0323386
0.0869393
0.0313688
0.0844505
0.030344
0.0818009
0.029266
0.0790143
0.0281366
0.0760946
0.0269579
0.0730301
0.0257319
0.0698432
0.0244608
0.0665387
0.0231468
0.0631074
0.0217922
0.0595706
0.0203993
0.0559333
0.0189708
0.0521895
0.0175089
0.0483585
0.0160163
0.0444458
0.0144958
0.0404485
0.0129498
0.0363837
0.0113811
0.0322567
0.00979243
0.0280703
0.00818666
0.0238356
0.00656655
0.0195593
0.00493497
0.0152484
0.00329477
0.0109109
0.0016488
0.00655422
-1.49081e-13
0.002186
-0.00164877
-0.002186
-0.00329462
-0.00655422
-0.00493464
-0.0109109
-0.00656597
-0.0152484
-0.00818576
-0.0195593
-0.00979114
-0.0238356
-0.0113793
-0.0280703
-0.0129475
-0.0322567
-0.0144929
-0.0363837
-0.0160129
-0.0404485
-0.0175048
-0.0444458
-0.0189659
-0.0483585
-0.0203937
-0.0521895
-0.0217858
-0.0559333
-0.0231395
-0.0595706
-0.0244527
-0.0631074
-0.025723
-0.0665387
-0.0269481
-0.0698432
-0.0281259
-0.0730301
-0.0292544
-0.0760946
-0.0303316
-0.0790143
-0.0313555
-0.0818009
-0.0323245
-0.0844505
-0.0332367
-0.0869393
-0.0340906
-0.0892818
-0.0348847
-0.0914746
-0.0356176
-0.0934932
-0.036288
-0.0953545
-0.0368949
-0.097056
-0.0374369
-0.0985726
-0.0379133
-0.0999235
-0.0383233
-0.101107
-0.038666
-0.102097
-0.0389408
-0.102917
-0.0391474
-0.103563
-0.0392854
-0.104012
-0.0393544
-0.104287
-0.0393544
-0.104386
-0.0392854
-0.104286
-0.0391474
-0.104012
-0.0389408
-0.103563
-0.038666
-0.102916
-0.0383233
-0.102097
-0.0379133
-0.101106
-0.0374369
-0.0999228
-0.0368949
-0.0985718
-0.036288
-0.0970552
-0.0356176
-0.0953537
-0.0348847
-0.0934922
-0.0340906
-0.0914736
-0.0332367
-0.0892807
-0.0323245
-0.0869382
-0.0313555
-0.0844494
-0.0303316
-0.0817998
-0.0292544
-0.0790131
-0.0281259
-0.0760935
-0.0269481
-0.0730289
-0.025723
-0.069842
-0.0244527
-0.0665375
-0.0231395
-0.0631063
-0.0217858
-0.0595695
-0.0203937
-0.0559322
-0.0189659
-0.0521885
-0.0175048
-0.0483575
-0.0160129
-0.0444449
-0.0144929
-0.0404477
-0.0129475
-0.0363829
-0.0113793
-0.0322567
-0.00979114
-0.028069
-0.0081858
-0.0238346
-0.00656593
-0.0195598
-0.00493464
-0.0152476
-0.00329466
-0.0109104
-0.00164873
-0.00655437
-0.00218585
0.00274473
0.00327396
0.00548491
0.00981713
0.00821533
0.0163416
0.0109314
0.0228379
0.0136285
0.0292966
0.0163016
0.0356995
0.0189462
0.0420417
0.0215577
0.048314
0.0241313
0.0544943
0.0266627
0.0605825
0.0291474
0.0665695
0.0315809
0.0724299
0.0339591
0.0781679
0.0362778
0.0837753
0.0385328
0.0892232
0.0407202
0.0945206
0.0428364
0.0996599
0.0448773
0.104609
0.0468394
0.109383
0.0487196
0.113973
0.0505142
0.118346
0.0522201
0.12252
0.0538346
0.126488
0.0553545
0.130216
0.0567773
0.133725
0.0581005
0.137009
0.0593218
0.140033
0.0604389
0.142821
0.0614501
0.14537
0.0623534
0.147641
0.0631473
0.149665
0.0638304
0.151437
0.0644015
0.152921
0.0648596
0.154148
0.0652038
0.155117
0.0654337
0.15579
0.0655487
0.156201
0.0655487
0.15635
0.0654337
0.156201
0.0652038
0.15579
0.0648596
0.155117
0.0644015
0.154149
0.0638304
0.152922
0.0631473
0.151439
0.0623534
0.149666
0.0614501
0.147643
0.0604389
0.145371
0.0593218
0.142823
0.0581005
0.140035
0.0567773
0.137012
0.0553545
0.133727
0.0538346
0.130219
0.0522201
0.126491
0.0505142
0.122522
0.0487196
0.118349
0.0468394
0.113975
0.0448773
0.109385
0.0428364
0.104612
0.0407202
0.0996625
0.0385328
0.0945231
0.0362778
0.0892256
0.0339591
0.0837777
0.0315809
0.0781702
0.0291474
0.072432
0.0266627
0.0665716
0.0241313
0.0605843
0.0215577
0.0544961
0.0189462
0.0483145
0.0163016
0.0420441
0.0136285
0.0357014
0.0109315
0.0292962
0.00821533
0.0228392
0.00548485
0.0163424
0.00274479
0.00981701
-2.45021e-13
0.00327422
-0.00274473
-0.00327422
-0.00548461
-0.00981701
-0.00821478
-0.0163424
-0.0109305
-0.0228392
-0.013627
-0.0292962
-0.0162995
-0.0357014
-0.0189433
-0.0420441
-0.021554
-0.0483145
-0.0241266
-0.0544961
-0.0266569
-0.0605843
-0.0291406
-0.0665716
-0.0315729
-0.072432
-0.0339497
-0.0781702
-0.0362672
-0.0837777
-0.0385208
-0.0892256
-0.0407068
-0.0945231
-0.0428216
-0.0996625
-0.044861
-0.104612
-0.0468217
-0.109385
-0.0487004
-0.113975
-0.0504935
-0.118349
-0.0521981
-0.122522
-0.0538111
-0.126491
-0.0553297
-0.130219
-0.0567512
-0.133727
-0.0580732
-0.137012
-0.0592933
-0.140035
-0.0604094
-0.142823
-0.0614196
-0.145371
-0.062322
-0.147643
-0.063115
-0.149666
-0.0637975
-0.151439
-0.064368
-0.152922
-0.0648256
-0.154149
-0.0651695
-0.155117
-0.0653991
-0.15579
-0.065514
-0.156201
-0.065514
-0.15635
-0.0653991
-0.156201
-0.0651695
-0.15579
-0.0648256
-0.155117
-0.064368
-0.154148
-0.0637975
-0.152921
-0.063115
-0.151437
-0.062322
-0.149665
-0.0614196
-0.147641
-0.0604094
-0.14537
-0.0592933
-0.142821
-0.0580732
-0.140033
-0.0567512
-0.137009
-0.0553297
-0.133725
-0.0538111
-0.130216
-0.0521981
-0.126488
-0.0504935
-0.12252
-0.0487004
-0.118346
-0.0468217
-0.113973
-0.044861
-0.109383
-0.0428216
-0.104609
-0.0407068
-0.0996599
-0.0385208
-0.0945206
-0.0362672
-0.0892232
-0.0339497
-0.0837753
-0.0315729
-0.0781679
-0.0291406
-0.0724299
-0.0266569
-0.0665695
-0.0241266
-0.0605825
-0.021554
-0.0544943
-0.0189433
-0.048314
-0.0162995
-0.0420417
-0.013627
-0.0356995
-0.0109304
-0.0292966
-0.00821478
-0.0228379
-0.00548467
-0.0163416
-0.00274467
-0.00981713
-0.00327396
0.00383588
0.00435632
0.0076654
0.0130626
0.0114813
0.0217441
0.0152771
0.030388
0.0190465
0.0389819
0.0227822
0.0475015
0.0264781
0.0559405
0.0301279
0.0642864
0.0337246
0.0725099
0.0372622
0.0806108
0.0407348
0.0885772
0.0441357
0.0963749
0.0474592
0.10401
0.0506998
0.111471
0.0538512
0.11872
0.0569082
0.125769
0.0598656
0.132607
0.0627179
0.139193
0.0654601
0.145544
0.0680877
0.151652
0.0705956
0.157471
0.0729798
0.163025
0.075236
0.168305
0.0773602
0.173266
0.0793486
0.177934
0.0811979
0.182305
0.0829046
0.186328
0.0844659
0.190038
0.0858791
0.193429
0.0871414
0.196452
0.0882509
0.199144
0.0892056
0.201503
0.0900037
0.203477
0.0906439
0.20511
0.091125
0.206399
0.0914463
0.207294
0.091607
0.207841
0.091607
0.20804
0.0914463
0.207842
0.091125
0.207295
0.0906439
0.2064
0.0900037
0.205112
0.0892056
0.203479
0.0882509
0.201505
0.0871414
0.199147
0.0858791
0.196454
0.0844659
0.193432
0.0829046
0.190041
0.0811979
0.186331
0.0793486
0.182308
0.0773602
0.177938
0.075236
0.17327
0.0729798
0.16831
0.0705956
0.163029
0.0680877
0.157476
0.0654601
0.151657
0.0627179
0.145549
0.0598656
0.139198
0.0569082
0.132612
0.0538512
0.125773
0.0506998
0.118724
0.0474592
0.111475
0.0441357
0.104014
0.0407348
0.0963787
0.0372622
0.0885807
0.0337246
0.0806141
0.0301279
0.072513
0.0264782
0.0642878
0.0227822
0.0559442
0.0190464
0.0475046
0.0152772
0.0389818
0.0114813
0.0303901
0.00766532
0.0217454
0.00383597
0.0130626
-3.37821e-13
0.00435671
-0.00383588
-0.00435671
-0.00766498
-0.0130626
-0.0114805
-0.0217454
-0.0152758
-0.0303901
-0.0190443
-0.0389818
-0.0227792
-0.0475046
-0.0264741
-0.0559442
-0.0301226
-0.0642878
-0.033718
-0.072513
-0.0372542
-0.0806141
-0.0407252
-0.0885807
-0.0441245
-0.0963787
-0.0474462
-0.104014
-0.050685
-0.111475
-0.0538345
-0.118724
-0.0568896
-0.125773
-0.059845
-0.132612
-0.0626952
-0.139198
-0.0654354
-0.145549
-0.068061
-0.151657
-0.070567
-0.157476
-0.0729491
-0.163029
-0.0752035
-0.16831
-0.0773257
-0.17327
-0.0793123
-0.177938
-0.08116
-0.182308
-0.0828651
-0.186331
-0.0844248
-0.190041
-0.0858366
-0.193432
-0.0870978
-0.196454
-0.0882061
-0.199147
-0.0891598
-0.201505
-0.0899571
-0.203479
-0.0905966
-0.205112
-0.0910773
-0.2064
-0.0913982
-0.207295
-0.0915587
-0.207842
-0.0915587
-0.20804
-0.0913982
-0.207841
-0.0910773
-0.207294
-0.0905966
-0.206399
-0.0899571
-0.20511
-0.0891598
-0.203477
-0.0882061
-0.201503
-0.0870978
-0.199144
-0.0858366
-0.196452
-0.0844248
-0.193429
-0.0828651
-0.190038
-0.08116
-0.186328
-0.0793123
-0.182305
-0.0773257
-0.177934
-0.0752035
-0.173266
-0.0729491
-0.168305
-0.070567
-0.163025
-0.068061
-0.157471
-0.0654354
-0.151652
-0.0626952
-0.145544
-0.059845
-0.139193
-0.0568896
-0.132607
-0.0538345
-0.125769
-0.050685
-0.11872
-0.0474462
-0.111471
-0.0441245
-0.10401
-0.0407252
-0.0963749
-0.0372542
-0.0885772
-0.033718
-0.0806108
-0.0301226
-0.0725099
-0.0264741
-0.0642864
-0.0227792
-0.0559405
-0.0190444
-0.0475015
-0.0152757
-0.0389819
-0.0114805
-0.030388
-0.00766506
-0.0217441
-0.0038358
-0.0130626
-0.00435632
0.0049203
0.00543102
0.00983244
0.0162852
0.0147271
0.0271083
0.019596
0.0378847
0.024431
0.0485987
0.0292228
0.0592202
0.0339635
0.069741
0.0386451
0.0801459
0.0432586
0.0903981
0.0477963
0.100497
0.0522506
0.110429
0.056613
0.120151
0.0608761
0.129669
0.0650328
0.138971
0.0690751
0.148008
0.0729963
0.156796
0.0767898
0.165322
0.0804484
0.173532
0.0839658
0.18145
0.0873362
0.189065
0.0905532
0.196319
0.0936113
0.203243
0.0965054
0.209827
0.09923
0.216011
0.101781
0.221831
0.104153
0.22728
0.106342
0.232295
0.108345
0.236921
0.110157
0.241148
0.111776
0.244917
0.1132
0.248274
0.114424
0.251214
0.115448
0.253676
0.116269
0.255712
0.116886
0.257318
0.117298
0.258435
0.117504
0.259117
0.117504
0.259364
0.117298
0.259118
0.116886
0.258436
0.116269
0.25732
0.115448
0.255714
0.114424
0.253679
0.1132
0.251218
0.111776
0.248278
0.110157
0.244921
0.108345
0.241153
0.106342
0.236926
0.104153
0.232301
0.101781
0.227286
0.09923
0.221837
0.0965054
0.216017
0.0936113
0.209834
0.0905532
0.20325
0.0873362
0.196326
0.0839658
0.189072
0.0804484
0.181458
0.0767898
0.173539
0.0729963
0.165329
0.0690751
0.156803
0.0650328
0.148015
0.0608761
0.138978
0.056613
0.129675
0.0522506
0.120157
0.0477963
0.110435
0.0432586
0.100503
0.0386451
0.0904029
0.0339637
0.0801484
0.0292228
0.0697464
0.0244309
0.0592246
0.0195961
0.0485992
0.0147271
0.0378878
0.00983233
0.0271103
0.00492041
0.0162853
-4.2736e-13
0.00543157
-0.0049203
-0.00543157
-0.0098319
-0.0162853
-0.0147261
-0.0271103
-0.0195944
-0.0378878
-0.0244282
-0.0485992
-0.029219
-0.0592246
-0.0339585
-0.0697464
-0.0386385
-0.0801484
-0.0432503
-0.0904029
-0.0477862
-0.100503
-0.0522384
-0.110435
-0.0565987
-0.120157
-0.0608596
-0.129675
-0.0650139
-0.138978
-0.0690538
-0.148015
-0.0729726
-0.156803
-0.0767636
-0.165329
-0.0804195
-0.173539
-0.0839344
-0.181458
-0.0873022
-0.189072
-0.0905167
-0.196326
-0.0935723
-0.20325
-0.096464
-0.209834
-0.0991862
-0.216017
-0.101734
-0.221837
-0.104104
-0.227286
-0.106292
-0.232301
-0.108292
-0.236926
-0.110103
-0.241153
-0.111721
-0.244921
-0.113143
-0.248278
-0.114366
-0.251218
-0.115389
-0.253679
-0.116209
-0.255714
-0.116825
-0.25732
-0.117237
-0.258436
-0.117443
-0.259118
-0.117443
-0.259364
-0.117237
-0.259117
-0.116825
-0.258435
-0.116209
-0.257318
-0.115389
-0.255712
-0.114366
-0.253676
-0.113143
-0.251214
-0.111721
-0.248274
-0.110103
-0.244917
-0.108292
-0.241148
-0.106292
-0.236921
-0.104104
-0.232295
-0.101734
-0.22728
-0.0991862
-0.221831
-0.096464
-0.216011
-0.0935723
-0.209827
-0.0905167
-0.203243
-0.0873022
-0.196319
-0.0839344
-0.189065
-0.0804195
-0.18145
-0.0767636
-0.173532
-0.0729726
-0.165322
-0.0690538
-0.156796
-0.0650139
-0.148008
-0.0608596
-0.138971
-0.0565987
-0.129669
-0.0522384
-0.120151
-0.0477862
-0.110429
-0.0432503
-0.100497
-0.0386385
-0.0903981
-0.0339584
-0.0801459
-0.029219
-0.069741
-0.0244283
-0.0592202
-0.0195943
-0.0485987
-0.0147261
-0.0378847
-0.00983201
-0.0271083
-0.00492019
-0.0162852
-0.00543102
0.00599609
0.00649619
0.0119822
0.0194791
0.017947
0.0324249
0.0238805
0.0453149
0.0297726
0.0581302
0.0356122
0.0708348
0.0413894
0.083419
0.0470945
0.0958646
0.0527168
0.108128
0.0582466
0.120208
0.0636748
0.132087
0.0689909
0.143715
0.0741861
0.155101
0.0792516
0.166227
0.0841778
0.177037
0.0889563
0.187548
0.0935792
0.197746
0.0980376
0.207567
0.102324
0.217038
0.106431
0.226146
0.110352
0.234823
0.114079
0.243105
0.117605
0.25098
0.120926
0.258376
0.124034
0.265339
0.126925
0.271856
0.129593
0.277855
0.132033
0.283388
0.134242
0.288445
0.136215
0.292953
0.13795
0.296968
0.139442
0.300485
0.140689
0.30343
0.14169
0.305865
0.142442
0.307786
0.142944
0.309122
0.143196
0.309938
0.143196
0.310234
0.142944
0.309939
0.142442
0.309124
0.14169
0.307789
0.140689
0.305868
0.139442
0.303434
0.13795
0.30049
0.136215
0.296974
0.134242
0.292959
0.132033
0.288452
0.129593
0.283395
0.126925
0.277864
0.124034
0.271865
0.120926
0.265348
0.117605
0.258386
0.114079
0.25099
0.110352
0.243115
0.106431
0.234833
0.102324
0.226156
0.0980376
0.217048
0.0935792
0.207577
0.0889563
0.197756
0.0841778
0.187558
0.0792516
0.177046
0.0741861
0.166236
0.0689909
0.15511
0.0636748
0.143724
0.0582466
0.132095
0.0527168
0.120215
0.0470945
0.108134
0.0413895
0.0958686
0.0356122
0.0834264
0.0297725
0.0708408
0.0238806
0.0581314
0.017947
0.045319
0.0119821
0.0324277
0.00599622
0.0194795
-5.1348e-13
0.00649691
-0.00599609
-0.00649691
-0.0119816
-0.0194795
-0.0179459
-0.0324277
-0.0238786
-0.045319
-0.0297693
-0.0581314
-0.0356076
-0.0708408
-0.0413833
-0.0834264
-0.0470865
-0.0958686
-0.0527067
-0.108134
-0.0582343
-0.120215
-0.0636601
-0.132095
-0.0689736
-0.143724
-0.0741661
-0.15511
-0.0792288
-0.166236
-0.0841521
-0.177046
-0.0889276
-0.187558
-0.0935475
-0.197756
-0.0980028
-0.207577
-0.102286
-0.217048
-0.10639
-0.226156
-0.110308
-0.234833
-0.114031
-0.243115
-0.117555
-0.25099
-0.120873
-0.258386
-0.123978
-0.265348
-0.126866
-0.271865
-0.129532
-0.277864
-0.13197
-0.283395
-0.134177
-0.288452
-0.136148
-0.292959
-0.137881
-0.296974
-0.139371
-0.30049
-0.140618
-0.303434
-0.141617
-0.305868
-0.142369
-0.307789
-0.14287
-0.309124
-0.143121
-0.309939
-0.143121
-0.310234
-0.14287
-0.309938
-0.142369
-0.309122
-0.141617
-0.307786
-0.140618
-0.305865
-0.139371
-0.30343
-0.137881
-0.300485
-0.136148
-0.296968
-0.134177
-0.292953
-0.13197
-0.288445
-0.129532
-0.283388
-0.126866
-0.277855
-0.123978
-0.271856
-0.120873
-0.265339
-0.117555
-0.258376
-0.114031
-0.25098
-0.110308
-0.243105
-0.10639
-0.234823
-0.102286
-0.226146
-0.0980028
-0.217038
-0.0935475
-0.207567
-0.0889276
-0.197746
-0.0841521
-0.187548
-0.0792288
-0.177037
-0.0741661
-0.166227
-0.0689736
-0.155101
-0.0636601
-0.143715
-0.0582343
-0.132087
-0.0527067
-0.120208
-0.0470865
-0.108128
-0.0413832
-0.0958646
-0.0356076
-0.083419
-0.0297694
-0.0708348
-0.0238784
-0.0581302
-0.0179459
-0.0453149
-0.0119817
-0.0324249
-0.00599596
-0.0194791
-0.00649619
0.00706135
0.00754994
0.014111
0.0226388
0.0211355
0.0376846
0.0281231
0.0526655
0.035062
0.0675595
0.041939
0.082325
0.0487426
0.0969505
0.0554613
0.111415
0.0620824
0.125667
0.0685946
0.139707
0.0749872
0.153513
0.0812477
0.167028
0.0873659
0.18026
0.0933313
0.193191
0.0991327
0.205754
0.10476
0.217971
0.110204
0.229822
0.115455
0.241237
0.120503
0.252244
0.12534
0.26283
0.129957
0.272915
0.134345
0.28254
0.138499
0.291692
0.142409
0.300289
0.146069
0.30838
0.149474
0.315955
0.152616
0.322928
0.15549
0.329358
0.158091
0.335235
0.160415
0.340474
0.162457
0.345141
0.164215
0.349229
0.165684
0.352651
0.166862
0.355481
0.167748
0.357715
0.168339
0.359267
0.168635
0.360216
0.168635
0.36056
0.168339
0.360217
0.167748
0.359269
0.166862
0.357718
0.165684
0.355486
0.164215
0.352657
0.162457
0.349235
0.160415
0.345149
0.158091
0.340483
0.15549
0.335245
0.152616
0.329368
0.149474
0.322939
0.146069
0.315967
0.142409
0.308393
0.138499
0.300302
0.134345
0.291705
0.129957
0.282554
0.12534
0.272928
0.120503
0.262844
0.115455
0.252258
0.110204
0.24125
0.10476
0.229836
0.0991327
0.217984
0.0933313
0.205767
0.0873659
0.193204
0.0812477
0.180272
0.0749872
0.167039
0.0685946
0.153524
0.0620824
0.139717
0.0554613
0.125676
0.0487428
0.111421
0.041939
0.0969601
0.0350619
0.0823329
0.0281233
0.0675616
0.0211355
0.0526709
0.0141108
0.0376882
0.00706151
0.0226396
-5.96065e-13
0.00755087
-0.00706136
-0.00755087
-0.0141102
-0.0226396
-0.0211342
-0.0376882
-0.0281208
-0.0526709
-0.0350581
-0.0675616
-0.0419337
-0.0823329
-0.0487355
-0.0969601
-0.055452
-0.111421
-0.0620707
-0.125676
-0.0685803
-0.139717
-0.07497
-0.153524
-0.0812277
-0.167039
-0.0873427
-0.180272
-0.0933048
-0.193204
-0.0991028
-0.205767
-0.104727
-0.217984
-0.110167
-0.229836
-0.115414
-0.24125
-0.120459
-0.252258
-0.125292
-0.262844
-0.129905
-0.272928
-0.134291
-0.282554
-0.138441
-0.291705
-0.142347
-0.300302
-0.146005
-0.308393
-0.149406
-0.315967
-0.152545
-0.322939
-0.155416
-0.329368
-0.158015
-0.335245
-0.160337
-0.340483
-0.162377
-0.345149
-0.164133
-0.349235
-0.1656
-0.352657
-0.166778
-0.355486
-0.167663
-0.357718
-0.168253
-0.359269
-0.168549
-0.360217
-0.168549
-0.36056
-0.168253
-0.360216
-0.167663
-0.359267
-0.166778
-0.357715
-0.1656
-0.355481
-0.164133
-0.352651
-0.162377
-0.349229
-0.160337
-0.345141
-0.158015
-0.340474
-0.155416
-0.335235
-0.152545
-0.329358
-0.149406
-0.322928
-0.146005
-0.315955
-0.142347
-0.30838
-0.138441
-0.300289
-0.134291
-0.291692
-0.129905
-0.28254
-0.125292
-0.272915
-0.120459
-0.26283
-0.115414
-0.252244
-0.110167
-0.241237
-0.104727
-0.229822
-0.0991028
-0.217971
-0.0933048
-0.205754
-0.0873427
-0.193191
-0.0812277
-0.18026
-0.07497
-0.167028
-0.0685803
-0.153513
-0.0620707
-0.139707
-0.055452
-0.125667
-0.0487354
-0.111415
-0.0419337
-0.0969505
-0.0350583
-0.082325
-0.0281207
-0.0675595
-0.0211342
-0.0526655
-0.0141104
-0.0376846
-0.0070612
-0.0226388
-0.00754994
0.00811423
0.00859044
0.016215
0.0257588
0.0242869
0.0428782
0.0323164
0.0599236
0.0402899
0.0768703
0.0481923
0.0936707
0.0560103
0.110312
0.0637308
0.12677
0.0713391
0.142986
0.0788223
0.158961
0.086168
0.17467
0.093362
0.190047
0.100392
0.205103
0.107247
0.219816
0.113914
0.234111
0.12038
0.248011
0.126636
0.261496
0.132669
0.274483
0.13847
0.287008
0.144028
0.299052
0.149333
0.310527
0.154377
0.321479
0.159149
0.331893
0.163643
0.341674
0.167849
0.350881
0.171761
0.359499
0.175371
0.367433
0.178673
0.374749
0.181663
0.381437
0.184333
0.387398
0.18668
0.392708
0.188699
0.397359
0.190388
0.401254
0.191742
0.404474
0.19276
0.407015
0.193439
0.408782
0.193779
0.409861
0.193779
0.410252
0.193439
0.409863
0.19276
0.408785
0.191742
0.40702
0.190388
0.40448
0.188699
0.401261
0.18668
0.397368
0.184333
0.392718
0.181663
0.387409
0.178673
0.381449
0.175371
0.374763
0.171761
0.367448
0.167849
0.359515
0.163643
0.350897
0.159149
0.341691
0.154377
0.33191
0.149333
0.321497
0.144028
0.310545
0.13847
0.29907
0.132669
0.287026
0.126636
0.274501
0.12038
0.261514
0.113914
0.248028
0.107247
0.234128
0.100392
0.219832
0.093362
0.205118
0.086168
0.190062
0.0788223
0.174684
0.0713391
0.158974
0.0637308
0.142998
0.0560105
0.126778
0.0481923
0.110324
0.0402897
0.0936806
0.0323165
0.0768735
0.0242869
0.0599304
0.0162148
0.0428827
0.00811442
0.0257599
-6.74985e-13
0.00859159
-0.00811424
-0.00859159
-0.0162141
-0.0257599
-0.0242854
-0.0428827
-0.0323138
-0.0599304
-0.0402855
-0.0768735
-0.0481862
-0.0936806
-0.0560023
-0.110324
-0.0637202
-0.126778
-0.0713258
-0.142998
-0.0788061
-0.158974
-0.0861485
-0.174684
-0.0933392
-0.190062
-0.100366
-0.205118
-0.107217
-0.219832
-0.11388
-0.234128
-0.120342
-0.248028
-0.126594
-0.261514
-0.132623
-0.274501
-0.13842
-0.287026
-0.143974
-0.29907
-0.149275
-0.310545
-0.154314
-0.321497
-0.159083
-0.33191
-0.163573
-0.341691
-0.167775
-0.350897
-0.171683
-0.359515
-0.17529
-0.367448
-0.17859
-0.374763
-0.181576
-0.381449
-0.184244
-0.387409
-0.186589
-0.392718
-0.188606
-0.397368
-0.190293
-0.401261
-0.191646
-0.40448
-0.192662
-0.40702
-0.193341
-0.408785
-0.193681
-0.409863
-0.193681
-0.410252
-0.193341
-0.409861
-0.192662
-0.408782
-0.191646
-0.407015
-0.190293
-0.404474
-0.188606
-0.401254
-0.186589
-0.397359
-0.184244
-0.392708
-0.181576
-0.387398
-0.17859
-0.381437
-0.17529
-0.374749
-0.171683
-0.367433
-0.167775
-0.359499
-0.163573
-0.350881
-0.159083
-0.341674
-0.154314
-0.331893
-0.149275
-0.321479
-0.143974
-0.310527
-0.13842
-0.299052
-0.132623
-0.287008
-0.126594
-0.274483
-0.120342
-0.261496
-0.11388
-0.248011
-0.107217
-0.234111
-0.100366
-0.219816
-0.0933392
-0.205103
-0.0861485
-0.190047
-0.0788061
-0.17467
-0.0713258
-0.158961
-0.0637202
-0.142986
-0.0560021
-0.12677
-0.0481862
-0.110312
-0.0402856
-0.0936707
-0.0323136
-0.0768703
-0.0242854
-0.0599236
-0.0162143
-0.0428782
-0.00811406
-0.0257588
-0.00859044
0.00915288
0.00961586
0.0182906
0.0288336
0.0273957
0.0479964
0.0364529
0.0670765
0.0454471
0.0860461
0.054361
0.104852
0.0631797
0.12348
0.0718885
0.141902
0.0804706
0.160054
0.0889117
0.177935
0.0971975
0.19552
0.105312
0.212732
0.113243
0.229586
0.120975
0.246055
0.128495
0.262056
0.135789
0.277616
0.142845
0.29271
0.149651
0.307248
0.156194
0.321268
0.162464
0.33475
0.168448
0.347594
0.174137
0.359854
0.17952
0.371511
0.184589
0.38246
0.189333
0.392766
0.193746
0.402413
0.197818
0.411294
0.201543
0.419484
0.204915
0.426969
0.207927
0.433642
0.210575
0.439586
0.212853
0.444793
0.214757
0.449152
0.216285
0.452757
0.217433
0.455602
0.218199
0.457579
0.218583
0.458787
0.218583
0.459226
0.218199
0.458789
0.217433
0.457583
0.216285
0.455607
0.214757
0.452764
0.212853
0.449161
0.210575
0.444804
0.207927
0.439599
0.204915
0.433656
0.201543
0.426985
0.197818
0.4195
0.193746
0.411312
0.189333
0.402432
0.184589
0.392786
0.17952
0.382481
0.174137
0.371532
0.168448
0.359876
0.162464
0.347617
0.156194
0.334772
0.149651
0.32129
0.142845
0.30727
0.135789
0.292733
0.128495
0.277637
0.120975
0.262077
0.113243
0.246076
0.105312
0.229605
0.0971975
0.212751
0.0889117
0.195537
0.0804706
0.177952
0.0718885
0.160069
0.0631799
0.141912
0.054361
0.123494
0.0454469
0.104864
0.0364531
0.0860506
0.0273957
0.0670848
0.0182904
0.048002
0.00915308
0.0288351
-7.50153e-13
0.00961724
-0.00915289
-0.00961724
-0.0182896
-0.0288351
-0.027394
-0.048002
-0.0364501
-0.0670848
-0.0454422
-0.0860506
-0.0543542
-0.104864
-0.0631708
-0.123494
-0.0718766
-0.141912
-0.0804558
-0.160069
-0.0888936
-0.177952
-0.097176
-0.195537
-0.105287
-0.212751
-0.113213
-0.229605
-0.120942
-0.246076
-0.128457
-0.262077
-0.135747
-0.277637
-0.142799
-0.292733
-0.1496
-0.30727
-0.156138
-0.32129
-0.162404
-0.334772
-0.168383
-0.347617
-0.174067
-0.359876
-0.179447
-0.371532
-0.184511
-0.382481
-0.189251
-0.392786
-0.19366
-0.402432
-0.197729
-0.411312
-0.201451
-0.4195
-0.204819
-0.426985
-0.207829
-0.433656
-0.210473
-0.439599
-0.212749
-0.444804
-0.214652
-0.449161
-0.216178
-0.452764
-0.217325
-0.455607
-0.21809
-0.457583
-0.218473
-0.458789
-0.218473
-0.459226
-0.21809
-0.458787
-0.217325
-0.457579
-0.216178
-0.455602
-0.214652
-0.452757
-0.212749
-0.449152
-0.210473
-0.444793
-0.207829
-0.439586
-0.204819
-0.433642
-0.201451
-0.426969
-0.197729
-0.419484
-0.19366
-0.411294
-0.189251
-0.402413
-0.184511
-0.392766
-0.179447
-0.38246
-0.174067
-0.371511
-0.168383
-0.359854
-0.162404
-0.347594
-0.156138
-0.33475
-0.1496
-0.321268
-0.142799
-0.307248
-0.135747
-0.29271
-0.128457
-0.277616
-0.120942
-0.262056
-0.113213
-0.246055
-0.105287
-0.229586
-0.097176
-0.212732
-0.0888936
-0.19552
-0.0804558
-0.177935
-0.0718766
-0.160054
-0.0631706
-0.141902
-0.0543542
-0.12348
-0.0454424
-0.104852
-0.0364499
-0.0860461
-0.027394
-0.0670765
-0.0182898
-0.0479964
-0.00915269
-0.0288336
-0.00961586
0.0101755
0.0106244
0.020334
0.0318578
0.0304564
0.0530304
0.0405255
0.0741117
0.0505245
0.0950709
0.0604343
0.115849
0.0702383
0.13643
0.0799199
0.156785
0.0894608
0.176841
0.098845
0.196598
0.108057
0.216027
0.117078
0.235045
0.125894
0.253665
0.13449
0.271862
0.14285
0.289542
0.150959
0.306733
0.158804
0.323411
0.16637
0.339473
0.173644
0.354964
0.180614
0.36986
0.187267
0.384052
0.193591
0.397597
0.199576
0.410477
0.205211
0.422574
0.210485
0.433961
0.215391
0.44462
0.219918
0.454433
0.22406
0.463482
0.227808
0.471753
0.231157
0.479126
0.2341
0.485693
0.236632
0.491446
0.238749
0.496263
0.240447
0.500246
0.241724
0.503389
0.242576
0.505574
0.243002
0.506909
0.243002
0.507393
0.242576
0.506911
0.241724
0.505578
0.240447
0.503396
0.238749
0.500255
0.236632
0.496274
0.2341
0.491459
0.231157
0.485709
0.227808
0.479143
0.22406
0.471772
0.219918
0.463502
0.215391
0.454455
0.210485
0.444644
0.205211
0.433986
0.199576
0.4226
0.193591
0.410503
0.187267
0.397624
0.180614
0.384079
0.173644
0.369888
0.16637
0.354991
0.158804
0.339501
0.150959
0.323438
0.14285
0.30676
0.13449
0.289568
0.125894
0.271887
0.117078
0.253689
0.108057
0.235067
0.098845
0.216048
0.0894608
0.196618
0.0799199
0.176859
0.0702385
0.156798
0.0604343
0.136448
0.0505243
0.115864
0.0405258
0.0950768
0.0304564
0.0741216
0.0203338
0.0530372
0.0101757
0.0318598
-8.21457e-13
0.010626
-0.0101755
-0.010626
-0.020333
-0.0318598
-0.0304545
-0.0530372
-0.0405224
-0.0741216
-0.0505191
-0.0950768
-0.0604269
-0.115864
-0.0702285
-0.136448
-0.079907
-0.156798
-0.0894447
-0.176859
-0.0988252
-0.196618
-0.108033
-0.216048
-0.11705
-0.235067
-0.125862
-0.253689
-0.134454
-0.271887
-0.142809
-0.289568
-0.150913
-0.30676
-0.158753
-0.323438
-0.166314
-0.339501
-0.173583
-0.354991
-0.180548
-0.369888
-0.187196
-0.384079
-0.193515
-0.397624
-0.199496
-0.410503
-0.205126
-0.4226
-0.210396
-0.433986
-0.215297
-0.444644
-0.21982
-0.454455
-0.223958
-0.463502
-0.227703
-0.471772
-0.231049
-0.479143
-0.233989
-0.485709
-0.236519
-0.491459
-0.238634
-0.496274
-0.240331
-0.500255
-0.241606
-0.503396
-0.242457
-0.505578
-0.242883
-0.506911
-0.242883
-0.507393
-0.242457
-0.506909
-0.241606
-0.505574
-0.240331
-0.503389
-0.238634
-0.500246
-0.236519
-0.496263
-0.233989
-0.491446
-0.231049
-0.485693
-0.227703
-0.479126
-0.223958
-0.471753
-0.21982
-0.463482