/*--------------------------------*- C++ -*----------------------------------*\
  =========                 |
  \\      /  F ield         | OpenFOAM: The Open Source CFD Toolbox
   \\    /   O peration     | Website:  https://openfoam.org
    \\  /    A nd           | Version:  6
     \\/     M anipulation  |
\*---------------------------------------------------------------------------*/
FoamFile
{
    version     2.0;
    format      ascii;
    class       volScalarField;
    location    "2.46";
    object      epsilon;
}
// * * * * * * * * * * * * * * * * * * * * * * * * * * * * * * * * * * * * * //

dimensions      [0 2 -3 0 0 0 0];

internalField   nonuniform List<scalar> 
4214
(
0.171826
0.0732469
0.0329797
0.0172755
0.0118135
0.0103307
0.0103724
0.0111525
0.012845
0.0155797
0.020741
0.0286573
0.0417734
0.0611916
0.0901775
0.130428
0.183638
0.25036
0.333091
0.444171
0.612338
0.859922
1.15702
1.42294
1.78587
2.45155
3.65433
5.14705
5.80806
4.6795
2.75485
1.24625
0.440288
0.131019
0.0394876
0.0164233
0.0125181
0.0158006
0.028608
0.0640648
0.15653
0.0744961
0.0348169
0.0187351
0.0126943
0.0108673
0.0107151
0.0114378
0.0128686
0.0157161
0.020003
0.0283344
0.0403085
0.0598363
0.0869589
0.126012
0.177377
0.241777
0.317138
0.401583
0.501786
0.643799
0.856231
1.11359
1.34552
1.6556
2.30179
3.52247
5.11409
5.99702
5.09679
3.1341
1.48364
0.548556
0.169509
0.0510572
0.0192942
0.0121023
0.0115017
0.0142624
0.0221343
0.0406997
0.0245318
0.0166244
0.0127405
0.0112137
0.0110312
0.0116132
0.0130641
0.0154995
0.0203311
0.0270983
0.040758
0.0589295
0.0883006
0.126072
0.178678
0.243862
0.321459
0.406347
0.492308
0.58013
0.689072
0.850849
1.05457
1.24571
1.51931
2.14769
3.41098
5.10055
6.15957
5.51199
3.54909
1.75176
0.677474
0.217602
0.0662074
0.0235467
0.0130278
0.0108589
0.0112073
0.0131537
0.017416
0.0159179
0.0131579
0.0117592
0.0114158
0.0119104
0.0131414
0.0157015
0.0198115
0.0279872
0.038641
0.0611581
0.0885495
0.132945
0.185076
0.255852
0.338138
0.431701
0.527823
0.616017
0.692571
0.771871
0.887263
1.04406
1.20108
1.4401
2.04443
3.32271
5.09794
6.31612
5.90013
4.00021
2.0581
0.832157
0.278006
0.0859854
0.0293655
0.0146307
0.0111257
0.0106653
0.0112691
0.0128066
0.0133628
0.0122836
0.0118814
0.0121881
0.0133334
0.0155336
0.0199177
0.026779
0.0403802
0.0569607
0.0938243
0.134223
0.201229
0.271795
0.366509
0.469188
0.581526
0.68997
0.778845
0.841042
0.889195
0.95687
1.06343
1.183
1.3939
1.97774
3.26067
5.10651
6.46861
6.2277
4.47364
2.4045
1.01647
0.35346
0.111635
0.0371706
0.0168923
0.0117452
0.0107011
0.0107722
0.0114051
0.0127176
0.0123925
0.0125823
0.0134847
0.0155419
0.0193165
0.0266145
0.0378754
0.0598941
0.0852896
0.14462
0.202327
0.303515
0.397258
0.524559
0.652626
0.789087
0.912858
1.00088
1.04309
1.05424
1.06989
1.12078
1.19756
1.37945
1.94672
3.23778
5.14371
6.63439
6.54852
4.90541
2.79328
1.23557
0.447777
0.144877
0.047607
0.0199903
0.0126634
0.0109758
0.0107302
0.0109881
0.0129197
0.0130499
0.013766
0.0154653
0.0189518
0.0252076
0.0369395
0.055011
0.0892977
0.127562
0.220503
0.300044
0.453947
0.577468
0.752238
0.915018
1.08699
1.23324
1.31986
1.33213
1.28879
1.23915
1.22471
1.24888
1.39993
1.95662
3.26262
5.22735
6.82953
6.87484
5.30675
3.18328
1.49332
0.565558
0.18796
0.0615536
0.0242142
0.0139378
0.0114132
0.0108811
0.010945
0.0136043
0.0141496
0.0155201
0.0183235
0.0239253
0.0338262
0.0520325
0.0800456
0.132158
0.188517
0.329221
0.436593
0.674381
0.839714
1.08958
1.30579
1.53705
1.71848
1.7958
1.75365
1.62637
1.48526
1.38665
1.34591
1.46111
2.01337
3.35063
5.38274
7.07587
7.21758
5.70032
3.54582
1.76494
0.711701
0.243934
0.0801665
0.0299904
0.0156875
0.012018
0.0111425
0.0110664
0.0146685
0.0156708
0.0178756
0.0222628
0.0308325
0.0457345
0.0728813
0.114466
0.191146
0.274629
0.480155
0.628305
1.00183
1.23331
1.60856
1.91285
2.24415
2.47162
2.51906
2.37934
2.11318
1.83465
1.62136
1.49837
1.57433
2.13535
3.53206
5.64554
7.40138
7.58874
6.08403
3.89221
2.02177
0.865652
0.317017
0.10489
0.0379237
0.0181027
0.0128368
0.0114982
0.0112773
0.0160385
0.0175822
0.0208966
0.0273524
0.0397929
0.0610948
0.0999276
0.159009
0.268575
0.392044
0.691465
0.90975
1.49673
1.84329
2.42668
2.87281
3.36248
3.6396
3.61367
3.29221
2.7956
2.31192
1.94197
1.7161
1.75499
2.35274
3.85501
6.0669
7.84119
8.00024
6.45005
4.20506
2.25865
1.01354
0.391791
0.137546
0.0488125
0.0214758
0.0139511
0.0119633
0.0115541
0.0176267
0.0198241
0.0244937
0.0334091
0.0505512
0.0794404
0.132754
0.213293
0.366646
0.551382
0.995336
1.3502
2.24578
2.79965
3.69725
4.34424
5.03325
5.31502
5.12254
4.50164
3.66727
2.91173
2.34413
2.00285
2.02803
2.71901
4.39847
6.71789
8.43692
8.45535
6.77839
4.46111
2.45484
1.14403
0.46355
0.170411
0.0622123
0.0262453
0.015488
0.0125753
0.0118986
0.0193359
0.0222354
0.0284169
0.0399648
0.0624413
0.0995632
0.170016
0.275952
0.4888
0.768747
1.44154
2.05217
3.36696
4.25765
5.52589
6.39464
7.21863
7.38875
6.89075
5.85876
4.61381
3.5634
2.7844
2.34747
2.42886
3.3313
5.28614
7.68436
9.21776
8.93023
7.03684
4.62441
2.58375
1.24006
0.523333
0.200965
0.0757927
0.0316662
0.0176595
0.0133941
0.0123296
0.0210334
0.0245797
0.0323179
0.0463367
0.0745331
0.119641
0.20975
0.34508
0.642181
1.06337
2.09499
3.0925
4.97762
6.27723
7.82218
8.81927
9.53209
9.41045
8.47206
7.03893
5.44831
4.14912
3.18391
2.73048
3.0408
4.37592
6.6972
9.03051
10.155
9.342
7.14095
4.64304
2.61441
1.28297
0.561195
0.224567
0.0881452
0.0371714
0.0200621
0.0144591
0.0128819
0.0225977
0.0266079
0.035882
0.0517761
0.0859453
0.137541
0.249931
0.41769
0.834808
1.44573
3.01838
4.49848
7.01508
8.60348
10.207
11.0687
11.4086
10.812
9.37153
7.63967
5.91421
4.57925
3.50122
3.19196
4.13147
6.2499
8.82142
10.748
11.0704
9.50409
6.98691
4.46506
2.52046
1.25696
0.568894
0.236821
0.0975652
0.0421031
0.0226044
0.0156331
0.0135567
0.0239743
0.0281203
0.0389797
0.0556019
0.0962296
0.151083
0.28915
0.487933
1.07582
1.90456
4.22727
6.14785
9.22218
10.8034
12.1632
12.5805
12.3663
11.2336
9.39207
7.54321
5.86098
4.67988
3.88184
3.96228
6.06421
9.07715
11.401
12.3613
11.4644
9.16302
6.46848
4.04383
2.28802
1.15519
0.54395
0.235085
0.103152
0.0458176
0.0251778
0.016852
0.0143242
0.025221
0.0289821
0.0417811
0.0571987
0.105698
0.158001
0.327825
0.543299
1.37538
2.3658
5.66584
7.80252
11.268
12.5379
13.3582
13.1605
12.2893
10.7903
8.8016
7.09983
5.66923
4.84842
4.70542
5.47052
8.65834
12.2317
13.5029
12.906
10.913
8.1346
5.55041
3.38095
1.94064
0.986265
0.494276
0.219386
0.105871
0.0477515
0.0278988
0.0179717
0.0151887
0.0264992
0.0290725
0.0448185
0.0558939
0.11576
0.155467
0.371372
0.558418
1.76766
2.69367
7.25231
9.24836
12.8525
13.744
13.7181
13.0425
11.5335
10.0629
8.18004
6.90121
6.06752
5.80287
6.4991
7.81882
11.5584
14.8776
14.1463
11.8914
9.29539
6.42687
4.35021
2.54749
1.55745
0.771507
0.442394
0.189919
0.109836
0.0467551
0.0314352
0.0186268
0.0162054
0.0150171
0.0143503
0.0137273
0.0131692
0.0126815
0.012267
0.0119151
0.0116211
0.0113896
0.0112429
0.011242
0.0115428
0.0125696
0.0155861
0.0255723
0.0824849
0.393034
0.0148778
0.0142593
0.0137073
0.013219
0.0127986
0.0124398
0.0121358
0.0118854
0.0116994
0.0116107
0.0116958
0.0121382
0.0134128
0.016888
0.0280371
0.0899801
0.439959
0.0153572
0.0147063
0.0141386
0.0136464
0.0132193
0.0128472
0.0125319
0.0122808
0.0121128
0.01207
0.0122432
0.0128436
0.0143997
0.0184036
0.0309059
0.0999903
0.481621
0.0154824
0.0148902
0.0143605
0.0139116
0.013523
0.0131876
0.0129063
0.0126907
0.012568
0.012592
0.0128723
0.0136522
0.0155221
0.020119
0.0342134
0.111981
0.52908
0.016311
0.0156781
0.0151207
0.0146173
0.0141671
0.0137764
0.0134579
0.0132306
0.0131269
0.0132073
0.0135955
0.0145653
0.0167722
0.0220203
0.0379457
0.126103
0.58345
0.0164607
0.0159213
0.0154299
0.0149851
0.0145846
0.0142368
0.013958
0.0137736
0.0137245
0.013883
0.014392
0.0155611
0.0181186
0.0240619
0.0420228
0.142345
0.647013
0.0175107
0.0168741
0.0162917
0.0157655
0.0153006
0.01491
0.0146126
0.0144347
0.0144188
0.014642
0.0152616
0.01662
0.0195215
0.0261772
0.046308
0.160372
0.721225
0.0177196
0.0172183
0.0167368
0.016285
0.0158749
0.0155276
0.0152696
0.0151335
0.0151679
0.0154593
0.0161816
0.0177115
0.0209319
0.0282865
0.0506895
0.179658
0.807381
0.0189012
0.0182494
0.0176605
0.0171336
0.0166781
0.0163114
0.0160547
0.0159364
0.0160031
0.0163441
0.0171451
0.018813
0.022309
0.0303168
0.0549671
0.199232
0.906102
0.019216
0.0187521
0.0182813
0.017833
0.0174338
0.0171112
0.0168919
0.0168074
0.0169073
0.0172866
0.0181429
0.0199106
0.0236274
0.0322168
0.0589232
0.21754
1.01634
0.0205309
0.0198709
0.0192901
0.0187864
0.0183693
0.0180514
0.0178468
0.0177796
0.0178971
0.0182959
0.0191809
0.0210086
0.0248885
0.0339815
0.0624565
0.233149
1.13504
0.0209806
0.0205537
0.0201053
0.0196885
0.0193352
0.0190637
0.0188912
0.0188446
0.0189739
0.0193798
0.020273
0.0221284
0.0261235
0.0356584
0.0656137
0.244891
1.25727
0.0224215
0.0217699
0.0212325
0.0207976
0.0204577
0.0202083
0.0200541
0.0200179
0.0201503
0.0205537
0.0214419
0.0233049
0.0273877
0.0373371
0.0685822
0.252264
1.37606
0.0230458
0.0226691
0.02228
0.0219415
0.0216674
0.0214596
0.0213286
0.0213033
0.0214373
0.0218353
0.0227145
0.0245804
0.028749
0.0391301
0.0716329
0.255765
1.48259
0.0246174
0.0240111
0.0235795
0.0232632
0.023022
0.0228407
0.0227276
0.022712
0.022849
0.0232445
0.0241201
0.0260006
0.0302839
0.0411663
0.0750638
0.256923
1.5686
0.0254563
0.0251722
0.0249035
0.02468
0.0244936
0.0243466
0.0242563
0.0242558
0.0244017
0.024803
0.0256892
0.0276142
0.0320764
0.0435992
0.0792219
0.258027
1.62771
0.0271424
0.0266804
0.0264271
0.0262486
0.0261031
0.0259904
0.0259285
0.0259506
0.0261147
0.0265346
0.0274542
0.0294711
0.0342121
0.046594
0.0845187
0.261124
1.65589
0.0282698
0.028163
0.0280505
0.0279462
0.027853
0.0277846
0.0277611
0.0278167
0.028012
0.0284686
0.0294532
0.0316247
0.0367736
0.0502817
0.0911442
0.267313
1.65003
0.0300588
0.0298942
0.0298365
0.0297957
0.0297619
0.0297491
0.0297762
0.0298789
0.0301224
0.0306399
0.0317314
0.0341393
0.03986
0.0548157
0.0995399
0.277679
1.61136
0.0316849
0.0317373
0.0317714
0.0318103
0.0318505
0.0319077
0.0320009
0.0321681
0.032481
0.0330903
0.0343409
0.037082
0.0435613
0.060325
0.109491
0.29447
1.5425
0.0335923
0.0337508
0.0338812
0.0340151
0.0341463
0.0342907
0.0344679
0.0347189
0.0351241
0.0358559
0.0373107
0.0404517
0.0477816
0.066428
0.119811
0.311082
1.4629
0.0356626
0.0359393
0.0361902
0.0364397
0.0366825
0.0369337
0.0372139
0.0375672
0.038082
0.0389508
0.0406144
0.0441305
0.0521979
0.0723443
0.128613
0.321551
1.38668
0.0379112
0.0383452
0.0387375
0.0391256
0.0395038
0.0398855
0.0402919
0.040769
0.0414117
0.0424282
0.0442927
0.048131
0.0567721
0.0779613
0.135814
0.327078
1.31534
0.0403897
0.0409894
0.041558
0.0421172
0.0426621
0.0432049
0.0437665
0.0443939
0.0451856
0.0463591
0.0484087
0.0524973
0.0615166
0.0832646
0.141524
0.328621
1.24951
0.0431029
0.043929
0.0447087
0.0454754
0.0462244
0.0469659
0.0477191
0.0485295
0.049496
0.0508373
0.0530516
0.0573069
0.0664896
0.0883102
0.145957
0.327367
1.18932
0.0461312
0.0471962
0.0482379
0.0492636
0.0502672
0.0512568
0.052249
0.0532859
0.0544621
0.05599
0.0583555
0.0627006
0.0718481
0.0933149
0.149566
0.324519
1.13452
0.0494833
0.0508774
0.0522312
0.0535716
0.0548893
0.0561882
0.0574803
0.0588015
0.0602375
0.0619868
0.064508
0.0688895
0.0778372
0.0985829
0.15274
0.320397
1.08461
0.053256
0.0550101
0.0567581
0.0584924
0.0602041
0.0618924
0.0635641
0.0652473
0.0670152
0.069045
0.0717556
0.0761556
0.0847856
0.104503
0.155947
0.315583
1.03902
0.0574759
0.059712
0.061931
0.06415
0.0663521
0.0685309
0.0706857
0.0728347
0.0750359
0.0774396
0.0804142
0.0848668
0.0931277
0.111593
0.159804
0.31078
0.997201
0.0622565
0.0650383
0.0678536
0.0706788
0.0734984
0.0762985
0.0790713
0.0818242
0.0845986
0.0875148
0.0908839
0.0954957
0.103432
0.12055
0.165146
0.306804
0.958719
0.0676402
0.071137
0.0746726
0.0782515
0.0818452
0.0854333
0.0889986
0.0925373
0.0960742
0.0997002
0.103667
0.108638
0.116418
0.132243
0.172968
0.304411
0.923212
0.0737659
0.0780932
0.0825394
0.0870622
0.0916346
0.0962255
0.10081
0.105373
0.109926
0.114534
0.119394
0.125045
0.133001
0.147807
0.184663
0.305173
0.890435
0.0806896
0.0860883
0.0916472
0.0973527
0.10316
0.109031
0.114928
0.120829
0.126736
0.132697
0.138868
0.145681
0.154363
0.168727
0.20208
0.310946
0.860211
0.0885743
0.0952428
0.102205
0.109398
0.116774
0.124282
0.131877
0.13953
0.147242
0.155061
0.163127
0.171798
0.182057
0.196988
0.227786
0.324734
0.832397
0.0974795
0.105764
0.114458
0.123524
0.132894
0.142505
0.152302
0.162259
0.172385
0.182753
0.193529
0.205062
0.21818
0.235313
0.265423
0.351004
0.80681
0.107723
0.117797
0.128666
0.140092
0.152004
0.164322
0.176989
0.189986
0.203358
0.217238
0.231882
0.247734
0.265629
0.287562
0.320324
0.396884
0.783162
0.119232
0.131601
0.145107
0.159507
0.174654
0.190462
0.206876
0.223907
0.241669
0.26042
0.280609
0.302941
0.328524
0.359358
0.400572
0.474023
0.760991
0.132061
0.147371
0.164067
0.182197
0.201458
0.221759
0.243069
0.265468
0.289204
0.31477
0.342978
0.375066
0.41287
0.45918
0.518803
0.602211
0.739642
0.146278
0.165132
0.185847
0.208634
0.23309
0.259147
0.286842
0.316394
0.348307
0.383492
0.423424
0.470354
0.527634
0.600255
0.695498
0.816522
0.718334
0.162008
0.185131
0.210845
0.239398
0.270333
0.303681
0.339641
0.378712
0.42186
0.470746
0.528036
0.59786
0.686572
0.804033
0.965527
1.18195
0.696384
0.0562033
0.0583002
0.060131
0.0619621
0.0640072
0.0663321
0.069017
0.0720987
0.0756342
0.0796797
0.0842856
0.0895278
0.0954479
0.102113
0.109568
0.117867
0.127048
0.137148
0.148187
0.160269
0.174811
0.192383
0.207655
0.222816
0.237717
0.251901
0.264912
0.276252
0.285433
0.291992
0.29552
0.295723
0.292485
0.285845
0.276063
0.263563
0.248934
0.232801
0.215838
0.198584
0.181287
0.0616181
0.0640271
0.0660052
0.0679397
0.0701026
0.0725816
0.0754726
0.0788089
0.0826676
0.0870941
0.0921612
0.0979388
0.104498
0.111911
0.120243
0.129564
0.139933
0.151407
0.164029
0.177919
0.194635
0.214481
0.232331
0.250383
0.268389
0.28585
0.302163
0.316692
0.328769
0.33775
0.343062
0.344275
0.341187
0.33383
0.322505
0.307752
0.290304
0.27098
0.250617
0.229975
0.209491
0.0684806
0.0712275
0.0733047
0.0753183
0.0775793
0.0802217
0.0833184
0.0869359
0.0911377
0.0959925
0.10157
0.107954
0.115231
0.12349
0.132814
0.143294
0.155015
0.168057
0.182491
0.198457
0.217646
0.240076
0.260921
0.28231
0.303949
0.32525
0.345483
0.363822
0.379386
0.391298
0.398764
0.401168
0.398201
0.389873
0.376551
0.358926
0.337933
0.314639
0.290058
0.265284
0.240896
0.0772849
0.0803591
0.0824587
0.0844938
0.0868379
0.0896291
0.0929464
0.0968596
0.101442
0.106769
0.112923
0.119994
0.128088
0.137311
0.147769
0.159575
0.172843
0.187683
0.204197
0.222552
0.244554
0.269944
0.294247
0.31949
0.345342
0.37112
0.395946
0.418779
0.438469
0.453847
0.463831
0.467568
0.464605
0.454928
0.439003
0.417722
0.392262
0.364096
0.334344
0.304463
0.275713
0.0887581
0.0920471
0.0940268
0.0960122
0.0984051
0.101333
0.104875
0.109107
0.114108
0.119966
0.126773
0.134631
0.14366
0.153991
0.165753
0.179086
0.194135
0.211046
0.229956
0.251065
0.276284
0.305076
0.333366
0.363057
0.393771
0.424729
0.454879
0.482929
0.507405
0.526773
0.539596
0.544719
0.541518
0.529956
0.510623
0.484765
0.453717
0.419516
0.384096
0.34865
0.31431
0.103958
0.107135
0.108795
0.110637
0.113027
0.116067
0.119834
0.124406
0.129871
0.136327
0.143879
0.152644
0.162754
0.174367
0.187641
0.202742
0.219853
0.239159
0.26084
0.285129
0.314034
0.346745
0.379628
0.414436
0.450737
0.487637
0.523887
0.557894
0.587804
0.611632
0.627516
0.633943
0.630085
0.615947
0.592146
0.560569
0.523303
0.482391
0.43986
0.397475
0.356606
0.124355
0.126775
0.12788
0.12946
0.131768
0.134877
0.138855
0.143787
0.149765
0.156898
0.165305
0.17512
0.186491
0.199597
0.214633
0.231796
0.251307
0.273395
0.298286
0.326255
0.359391
0.396623
0.434785
0.475454
0.51813
0.561782
0.604925
0.645608
0.681534
0.710192
0.729183
0.736652
0.731471
0.713879
0.685044
0.646905
0.601929
0.552757
0.501886
0.451451
0.403088
0.151864
0.152609
0.152924
0.154074
0.156173
0.159273
0.163431
0.168731
0.175274
0.183174
0.192566
0.203601
0.21645
0.231309
0.248411
0.267993
0.29031
0.315641
0.344261
0.376486
0.414487
0.456926
0.50113
0.54847
0.598352
0.649577
0.700389
0.74839
0.790743
0.824462
0.846368
0.854361
0.847433
0.825718
0.790593
0.74447
0.6904
0.63162
0.571156
0.511559
0.454748
0.18884
0.187129
0.186379
0.18684
0.18853
0.191487
0.19576
0.201421
0.208573
0.217342
0.227871
0.240331
0.254918
0.271848
0.291385
0.313812
0.339425
0.368545
0.401496
0.438639
0.482221
0.53064
0.581709
0.636563
0.694494
0.754056
0.813184
0.869093
0.917957
0.956387
0.981046
0.989317
0.979894
0.952981
0.910305
0.85484
0.790305
0.720605
0.649351
0.579534
0.513366
0.238052
0.234236
0.231957
0.231315
0.232289
0.234891
0.239156
0.245138
0.252935
0.262678
0.27452
0.288648
0.30528
0.324664
0.347082
0.372865
0.402348
0.435894
0.473867
0.516665
0.566622
0.621851
0.68063
0.743807
0.81056
0.879155
0.946807
1.01034
1.06582
1.10904
1.13608
1.14391
1.13105
1.09783
1.04639
0.980334
0.904111
0.822341
0.739247
0.658276
0.581928
0.30639
0.299904
0.295371
0.292992
0.29279
0.294706
0.298754
0.304963
0.313413
0.324232
0.33758
0.353657
0.372699
0.394981
0.420807
0.45054
0.484554
0.523242
0.566994
0.616227
0.673363
0.736272
0.803532
0.8757
0.951566
1.02911
1.10542
1.17669
1.23844
1.28587
1.31452
1.32101
1.30375
1.26322
1.20204
1.12446
1.03567
0.941014
0.845315
0.752465
0.665244
0.403477
0.393105
0.385449
0.3806
0.378526
0.379261
0.382755
0.389006
0.398063
0.41004
0.425091
0.443423
0.465283
0.490959
0.52078
0.555117
0.594371
0.638948
0.689236
0.745636
0.810636
0.881985
0.95806
1.03932
1.12431
1.21068
1.29513
1.37338
1.44043
1.49098
1.52016
1.52431
1.5018
1.45334
1.38196
1.29256
1.19098
1.08321
0.974628
0.869533
0.770966
0.544331
0.528565
0.516485
0.508138
0.503432
0.502296
0.504708
0.510684
0.520213
0.53336
0.550274
0.571148
0.596225
0.62579
0.660172
0.699737
0.744873
0.795972
0.853379
0.917422
0.990606
1.07052
1.15526
1.24514
1.33843
1.43247
1.52357
1.60709
1.67765
1.72963
1.75792
1.75876
1.73057
1.67427
1.59324
1.49281
1.37933
1.25925
1.13836
1.02131
0.911366
0.753525
0.730625
0.71259
0.699445
0.691039
0.687241
0.687969
0.693168
0.702833
0.717003
0.73579
0.759353
0.787895
0.821663
0.860944
0.906053
0.957322
1.01507
1.07958
1.15107
1.23179
1.31933
1.41133
1.50797
1.60723
1.70618
1.8009
1.88657
1.95768
2.00863
2.03434
2.0312
1.99773
1.93501
1.84654
1.73779
1.6152
1.48541
1.3544
1.227
1.10664
1.07255
1.04114
1.0158
0.996629
0.983435
0.976033
0.974289
0.978097
0.987392
1.00216
1.02245
1.04835
1.08
1.11756
1.16124
1.21124
1.26778
1.33104
1.40112
1.47805
1.56352
1.65526
1.7506
1.84946
1.94964
2.0481
2.14094
2.2235
2.29064
2.33715
2.35846
2.35132
2.31449
2.24901
2.15814
2.04694
1.92144
1.78789
1.65207
1.51876
1.39137
1.57394
1.5351
1.50288
1.47777
1.45962
1.44823
1.44343
1.44508
1.45306
1.46728
1.4877
1.51428
1.54704
1.58601
1.63123
1.68273
1.74052
1.80453
1.87466
1.95064
2.03341
2.12094
2.21069
2.30222
2.39339
2.48141
2.56289
2.63392
2.69028
2.72783
2.74296
2.73316
2.69745
2.63659
2.55311
2.45094
2.33488
2.21006
2.08137
1.95308
1.82804
2.38959
2.3532
2.32157
2.29624
2.27721
2.2644
2.25769
2.25697
2.26208
2.27288
2.28922
2.31098
2.33802
2.37018
2.40733
2.44929
2.49585
2.54675
2.60166
2.66014
2.72234
2.78684
2.85188
2.91683
2.98017
3.04
3.09416
3.14028
3.17585
3.19848
3.20614
3.19736
3.17151
3.12891
3.0708
2.99926
2.91695
2.82685
2.73194
2.63503
2.53715
0.413449
0.173635
0.0397491
0.0205946
0.0151676
0.0135017
0.013325
0.0138899
0.0148295
0.0159498
0.0171968
0.0185088
0.0198146
0.0210445
0.022151
0.0231223
0.0239621
0.498865
0.185997
0.0429436
0.0221649
0.0162622
0.014394
0.0140897
0.0144984
0.0152584
0.0162131
0.017272
0.0183783
0.0194888
0.0205699
0.0216081
0.0226171
0.023629
0.577856
0.200803
0.0462065
0.0236948
0.0173476
0.0152633
0.0148259
0.0151332
0.0158125
0.0166866
0.0176625
0.0186844
0.0197182
0.0207431
0.0217502
0.0227417
0.0237194
0.662903
0.210679
0.0490849
0.0252167
0.0185022
0.0162284
0.0156704
0.0158856
0.0164847
0.0173005
0.0182303
0.0192208
0.0202407
0.0212693
0.0222897
0.0232844
0.0242332
0.749667
0.217604
0.051632
0.0267326
0.0196985
0.0172482
0.0165761
0.0166984
0.0172126
0.0179573
0.0188166
0.0197309
0.0206644
0.0215938
0.0225042
0.0233903
0.0242577
0.840732
0.221712
0.0537312
0.0281654
0.0208931
0.0183127
0.0175544
0.017608
0.0180534
0.018702
0.0195039
0.0203645
0.0212421
0.0221082
0.0229432
0.0237368
0.024463
0.934697
0.223016
0.055284
0.0294661
0.0220467
0.0193707
0.0185453
0.0185517
0.018967
0.0195945
0.0203342
0.0211599
0.0220297
0.0229123
0.0237843
0.0246268
0.0254492
1.03007
0.222308
0.056407
0.0306545
0.0231551
0.0204152
0.0195269
0.0194684
0.0198199
0.0203887
0.0210758
0.0218241
0.0225974
0.0233714
0.0241313
0.0248718
0.0255987
1.12765
0.221518
0.0574172
0.0318114
0.0242477
0.021463
0.0205256
0.020409
0.0206966
0.0212005
0.0218253
0.022517
0.0232386
0.0239609
0.0246581
0.0253063
0.0258782
1.23036
0.221667
0.0586096
0.0330205
0.025355
0.0225292
0.0215486
0.0213781
0.0216035
0.0220418
0.022602
0.0232356
0.0239135
0.0246149
0.0253251
0.0260337
0.026737
1.33795
0.223007
0.0602462
0.0343392
0.0265126
0.0236318
0.0226055
0.0223811
0.0225435
0.0229127
0.023399
0.0239556
0.0245549
0.0251775
0.025809
0.0264379
0.0270635
1.4459
0.225226
0.0624492
0.0358226
0.0277526
0.0247885
0.0237073
0.0234267
0.0235271
0.0238295
0.0242452
0.0247283
0.0252536
0.0258045
0.0263655
0.0269097
0.0273869
1.5482
0.228049
0.0652573
0.0375287
0.0291063
0.0260165
0.0248641
0.0245212
0.0245585
0.0247952
0.0251426
0.0255544
0.0260076
0.0264935
0.0270138
0.0275686
0.0281421
1.63794
0.231375
0.0687564
0.0395191
0.0306074
0.0273336
0.0260871
0.0256719
0.0256426
0.0258126
0.0260916
0.0264312
0.0268061
0.0272057
0.0276349
0.0281057
0.0286265
1.70714
0.235745
0.0729914
0.0418583
0.0322951
0.02876
0.0273898
0.026888
0.0267863
0.0268869
0.0270973
0.0273668
0.0276679
0.0279867
0.0283235
0.0286826
0.029029
1.74858
0.242323
0.0780902
0.044612
0.0342123
0.0303219
0.0287872
0.0281806
0.0279967
0.0280232
0.0281621
0.0283612
0.0285915
0.0288375
0.0291013
0.0294069
0.0297748
1.75801
0.251585
0.0842655
0.0478758
0.0363985
0.0320505
0.0302963
0.0295626
0.0292835
0.0292281
0.02929
0.0294148
0.0295717
0.0297425
0.0299224
0.0301304
0.0304132
1.73087
0.263854
0.0916948
0.0517813
0.0388987
0.0339775
0.0319396
0.0310474
0.030657
0.0305094
0.0304872
0.0305319
0.030611
0.0307054
0.030805
0.0309108
0.0309948
1.67464
0.280127
0.100478
0.0563576
0.04177
0.0361339
0.0337422
0.0326534
0.0321302
0.0318762
0.0317597
0.0317161
0.0317108
0.0317246
0.0317467
0.0317788
0.0318093
1.59091
0.298901
0.110478
0.0616256
0.0450467
0.0385482
0.0357269
0.0343971
0.0337152
0.0333372
0.0331135
0.0329713
0.0328729
0.0327982
0.0327354
0.0326819
0.032625
1.49057
0.316933
0.121434
0.0675628
0.0487588
0.0412444
0.0379141
0.0362951
0.0354238
0.0349017
0.0345552
0.0343018
0.0340996
0.0339268
0.0337708
0.0336263
0.0334861
1.39918
0.326031
0.129938
0.0729085
0.0523921
0.0440132
0.040216
0.038313
0.0372444
0.0365666
0.0360851
0.0357085
0.0353913
0.0351101
0.0348519
0.0346112
0.034379
1.3173
0.329384
0.136273
0.0775922
0.0558926
0.0468364
0.042634
0.0404599
0.0391883
0.0383418
0.0377104
0.0371961
0.0367504
0.0363484
0.0359765
0.035628
0.0352955
1.24465
0.329052
0.14081
0.0816296
0.0592478
0.0497125
0.0451772
0.0427494
0.0412685
0.0402387
0.0394402
0.0387707
0.03818
0.0376423
0.0371437
0.0366767
0.0362346
1.18031
0.326195
0.143809
0.0851059
0.0625019
0.0526771
0.0478759
0.0452075
0.043506
0.0422726
0.0412845
0.040438
0.0396823
0.0389914
0.0383513
0.0377542
0.0371916
1.12321
0.321134
0.145602
0.0882006
0.0657558
0.0557974
0.0507796
0.0478712
0.0459288
0.0444636
0.0432566
0.0422059
0.041261
0.0403957
0.0395958
0.0388508
0.038154
1.07226
0.315334
0.146803
0.0911916
0.0691747
0.0591845
0.053965
0.0507932
0.0485729
0.0468358
0.0453722
0.0440838
0.0429207
0.0418568
0.0408763
0.0399677
0.0391244
1.02629
0.308775
0.147747
0.0943468
0.0729503
0.0629742
0.0575275
0.0540405
0.0514839
0.0494196
0.0476506
0.0460826
0.0446667
0.0433754
0.0421914
0.0411032
0.0400992
0.984267
0.302195
0.148894
0.0980061
0.0773245
0.0673354
0.061585
0.0576943
0.0547171
0.0522516
0.0501152
0.0482168
0.0465067
0.0449544
0.0435404
0.0422468
0.0410627
0.945372
0.296007
0.150789
0.102598
0.0826014
0.072478
0.0662815
0.0618523
0.0583384
0.0553762
0.0527948
0.0505042
0.0484509
0.0465995
0.0449249
0.0434037
0.0420247
0.908958
0.290823
0.15413
0.108663
0.0891616
0.0786618
0.0717924
0.0666328
0.0624277
0.0588465
0.0557245
0.0529673
0.0505131
0.0483184
0.046349
0.0445807
0.0429901
0.874564
0.287602
0.15988
0.116912
0.0974885
0.0862118
0.0783348
0.0721817
0.0670832
0.0627286
0.0589485
0.0556351
0.0527124
0.0501227
0.0478209
0.0457699
0.0439405
0.841917
0.287899
0.169382
0.128277
0.108206
0.0955401
0.0861828
0.0786832
0.072429
0.0671063
0.062523
0.0585455
0.055074
0.0520298
0.0493515
0.0469838
0.0448951
0.810884
0.294169
0.184549
0.144031
0.122142
0.107187
0.0956945
0.0863766
0.0786262
0.0720882
0.0665217
0.0617556
0.0576451
0.0540717
0.0509581
0.0482476
0.045885
0.781403
0.310246
0.20815
0.16595
0.140428
0.121888
0.107355
0.0955847
0.0858902
0.0778304
0.0711362
0.0654696
0.0606157
0.0564309
0.0527975
0.0496361
0.0469094
0.753383
0.342292
0.244302
0.196599
0.164689
0.140696
0.121855
0.106761
0.0945202
0.084634
0.0764684
0.0696396
0.0638749
0.0589736
0.0547836
0.0511837
0.0480713
0.72662
0.400493
0.299373
0.239857
0.197378
0.165193
0.14022
0.120574
0.104991
0.0926431
0.0826113
0.0743602
0.0675023
0.0617549
0.0569073
0.0527991
0.0493308
0.700765
0.502511
0.383656
0.301927
0.242391
0.197871
0.164055
0.138052
0.117918
0.102276
0.089851
0.0798266
0.0716376
0.0648823
0.0592664
0.0545766
0.0506711
0.675359
0.680419
0.514611
0.393211
0.306185
0.242816
0.195963
0.160851
0.134279
0.114181
0.0986068
0.0863147
0.076468
0.0684873
0.0619602
0.0565852
0.0521274
0.649986
0.994925
0.723786
0.532167
0.399986
0.307055
0.240464
0.191909
0.155914
0.12949
0.109593
0.0942871
0.0823011
0.07278
0.0651358
0.0589456
0.0539116
0.0282359
0.0508163
0.138781
0.483271
2.71308
10.3628
14.6515
12.7816
9.54988
7.22822
7.46037
10.216
15.3649
9.04228
4.29073
1.65062
0.510743
0.13531
0.0382425
0.0176612
0.0298397
0.0565576
0.156043
0.519002
3.11541
11.7196
15.1962
12.1603
8.78064
7.27751
8.29786
10.8347
12.6787
6.14671
2.69756
1.03295
0.348874
0.111993
0.0387391
0.0187813
0.0317086
0.0632884
0.176972
0.56085
3.51466
12.9309
15.536
11.6271
8.20958
7.17593
8.17861
9.55254
9.06012
3.85438
1.57245
0.642242
0.258911
0.103215
0.04109
0.0201293
0.0339345
0.0712601
0.201186
0.617612
3.91949
14.0441
15.7626
11.146
7.72484
6.8062
7.23413
7.34388
5.7326
2.57702
1.02377
0.489458
0.236404
0.107811
0.0454458
0.0218307
0.0366506
0.0808243
0.229538
0.697222
4.27143
15.0204
15.9513
10.7455
7.24005
6.09893
5.81373
5.08706
3.59974
1.93342
0.956988
0.502131
0.258151
0.122214
0.0520105
0.0241632
0.0400459
0.0924683
0.263148
0.800363
4.60263
15.8534
16.0883
10.4416
6.74114
5.26493
4.54313
3.62311
2.66124
1.74301
1.07983
0.605689
0.30977
0.146607
0.0620948
0.0277718
0.0443943
0.106873
0.30355
0.925834
4.94503
16.4775
16.1313
10.256
6.29688
4.53872
3.64763
2.9942
2.41021
1.80883
1.2362
0.751225
0.400442
0.188251
0.0793994
0.0337951
0.0500998
0.125003
0.352948
1.08141
5.32071
16.8394
16.0897
10.2002
5.97149
4.03363
3.13893
2.71622
2.44927
1.98485
1.43997
0.932472
0.527925
0.258552
0.109833
0.0434063
0.0577729
0.148258
0.414244
1.27513
5.73565
16.9115
15.9848
10.2774
5.81597
3.78174
2.92464
2.70833
2.59103
2.2434
1.70935
1.17315
0.709049
0.366843
0.159378
0.0595801
0.0683566
0.178737
0.491693
1.5146
6.17312
16.6044
15.7691
10.5076
5.92849
3.85512
2.90891
2.8758
2.91202
2.61044
2.08258
1.50117
0.964047
0.532441
0.241324
0.0879617
0.0833418
0.219597
0.591957
1.80491
6.59963
15.8103
15.3379
10.9011
6.41532
4.26885
3.03009
3.20544
3.42886
3.16852
2.6174
1.96727
1.32606
0.780876
0.376426
0.139077
0.105153
0.275745
0.724665
2.13566
6.9763
14.4739
14.5345
11.2055
7.01996
4.74672
3.26725
3.64031
4.08356
3.90634
3.37134
2.64366
1.85624
1.15357
0.596096
0.232008
0.13784
0.355056
0.905119
2.52184
7.10953
12.7494
13.3571
11.0599
7.49173
5.09673
3.73173
3.9967
4.67161
4.72633
4.33359
3.61383
2.65892
1.72685
0.951296
0.400566
0.188394
0.47049
1.15821
2.95677
6.89891
10.8051
11.8947
10.6162
7.86127
5.68309
4.38713
4.33344
4.95808
5.39393
5.35493
4.83864
3.84779
2.62583
1.53337
0.705703
0.269277
0.644524
1.50626
3.39076
6.32459
8.8508
10.3313
9.96964
8.08918
6.31531
5.13244
4.86096
5.24135
5.82159
6.15665
6.03244
5.33726
4.04506
2.49922
1.25863
0.403799
0.92116
1.97458
3.71283
5.36814
7.18546
8.81507
9.12729
8.1363
6.87463
5.94177
5.59356
5.76754
6.24068
6.68249
6.86652
6.6484
5.83675
4.13783
2.27244
0.640221
1.36066
2.55291
3.72639
4.41646
6.00599
7.50064
8.20123
7.93632
7.27346
6.62122
6.34873
6.43811
6.70422
7.03641
7.28185
7.39458
7.3076
6.26306
4.14944
1.07973
2.0442
3.02882
3.0647
4.00703
5.27288
6.51037
7.34674
7.58673
7.42812
7.13775
6.89646
6.84827
6.92239
7.08895
7.31621
7.57558
7.93482
8.01149
6.69435
1.83852
2.69785
2.44055
2.82723
3.86791
4.96902
6.08339
6.98484
7.48047
7.66871
7.66526
7.54182
7.39898
7.27021
7.26917
7.40764
7.6549
8.03696
8.7104
8.32507
1.10645
1.82619
2.34165
3.13461
4.63243
6.84439
9.28451
11.2425
12.6354
13.3511
13.4741
13.169
12.5881
11.7805
10.924
10.194
9.48481
8.6831
7.62252
5.39329
3.42474
10.4241
5.94691
2.34478
0.951905
0.420049
0.198406
0.102682
0.0600229
0.0403488
0.0307822
0.0257261
0.0227516
0.0207903
0.0193711
0.0182779
0.0174004
0.0166802
0.0160766
0.0155747
1.49266
6.56486
2.49789
0.880555
0.36361
0.168139
0.0876585
0.0527595
0.0369786
0.029394
0.0253717
0.02295
0.0212979
0.0200572
0.0190699
0.0182609
0.017587
0.0170224
0.0165418
0.0161399
0.795073
3.73569
1.10872
0.376584
0.159607
0.0814056
0.0495868
0.0356369
0.0290732
0.0256489
0.023597
0.0221722
0.0210711
0.0201724
0.0194194
0.0187825
0.0182419
0.0177836
0.0173881
0.017053
0.526561
1.92627
0.480908
0.175353
0.0843839
0.0507031
0.0364601
0.0299285
0.0266156
0.0246705
0.0233439
0.0223281
0.0214921
0.0207836
0.0201787
0.0196621
0.0192202
0.0188424
0.0185116
0.0182238
0.345942
0.932341
0.237487
0.102406