/*--------------------------------*- C++ -*----------------------------------*\
  =========                 |
  \\      /  F ield         | OpenFOAM: The Open Source CFD Toolbox
   \\    /   O peration     | Website:  https://openfoam.org
    \\  /    A nd           | Version:  6
     \\/     M anipulation  |
\*---------------------------------------------------------------------------*/
FoamFile
{
    version     2.0;
    format      ascii;
    class       volVectorField;
    location    "3.48";
    object      U;
}
// * * * * * * * * * * * * * * * * * * * * * * * * * * * * * * * * * * * * * //

dimensions      [0 1 -1 0 0 0 0];

internalField   nonuniform List<vector> 
10000
(
(0.8944 0.4472 0)
(0.8944 0.4472 0)
(0.8944 0.4472 0)
(0.8944 0.4472 0)
(0.8944 0.4472 0)
(0.8944 0.4472 0)
(0.8944 0.4472 0)
(0.8944 0.4472 0)
(0.8944 0.4472 0)
(0.8944 0.4472 0)
(0.8944 0.4472 0)
(0.8944 0.4472 0)
(0.8944 0.4472 0)
(0.8944 0.4472 0)
(0.8944 0.4472 0)
(0.8944 0.4472 0)
(0.8944 0.4472 0)
(0.8944 0.4472 0)
(0.8944 0.4472 0)
(0.8944 0.4472 0)
(0.8944 0.4472 0)
(0.8944 0.4472 0)
(0.8944 0.4472 0)
(0.8944 0.4472 0)
(0.8944 0.4472 0)
(0.8944 0.4472 0)
(0.8944 0.4472 0)
(0.8944 0.4472 0)
(0.8944 0.4472 0)
(0.8944 0.4472 0)
(0.8944 0.4472 0)
(0.8944 0.4472 0)
(0.8944 0.4472 0)
(0.8944 0.4472 0)
(0.8944 0.4472 0)
(0.8944 0.4472 0)
(0.8944 0.4472 0)
(0.8944 0.4472 0)
(0.8944 0.4472 0)
(0.8944 0.4472 0)
(0.8944 0.4472 0)
(0.8944 0.4472 0)
(0.8944 0.4472 0)
(0.8944 0.447201 0)
(0.894401 0.4472 0)
(0.894402 0.4472 0)
(0.894404 0.447198 0)
(0.894406 0.447196 0)
(0.894409 0.447193 0)
(0.894412 0.447188 0)
(0.894416 0.447181 0)
(0.89442 0.447172 0)
(0.894423 0.447162 0)
(0.894425 0.447151 0)
(0.894425 0.44714 0)
(0.894422 0.447131 0)
(0.894417 0.447124 0)
(0.894408 0.447122 0)
(0.894397 0.447125 0)
(0.894384 0.447134 0)
(0.894372 0.447149 0)
(0.89436 0.44717 0)
(0.89435 0.447195 0)
(0.894344 0.447223 0)
(0.894341 0.447251 0)
(0.894343 0.447279 0)
(0.894349 0.447303 0)
(0.894359 0.447322 0)
(0.894371 0.447336 0)
(0.894384 0.447343 0)
(0.894396 0.447344 0)
(0.894408 0.44734 0)
(0.894417 0.44733 0)
(0.894424 0.447317 0)
(0.894428 0.447301 0)
(0.89443 0.447285 0)
(0.894429 0.447269 0)
(0.894427 0.447254 0)
(0.894423 0.447241 0)
(0.894419 0.44723 0)
(0.894415 0.447221 0)
(0.894412 0.447214 0)
(0.894408 0.447209 0)
(0.894406 0.447205 0)
(0.894404 0.447203 0)
(0.894402 0.447202 0)
(0.894401 0.447201 0)
(0.894401 0.4472 0)
(0.8944 0.4472 0)
(0.8944 0.4472 0)
(0.8944 0.4472 0)
(0.8944 0.4472 0)
(0.8944 0.4472 0)
(0.8944 0.4472 0)
(0.8944 0.4472 0)
(0.8944 0.4472 0)
(0.8944 0.4472 0)
(0.8944 0.4472 0)
(0.8944 0.4472 0)
(0.8944 0.4472 0)
(0.8944 0.4472 0)
(0.8944 0.4472 0)
(0.8944 0.4472 0)
(0.8944 0.4472 0)
(0.8944 0.4472 0)
(0.8944 0.4472 0)
(0.8944 0.4472 0)
(0.8944 0.4472 0)
(0.8944 0.4472 0)
(0.8944 0.4472 0)
(0.8944 0.4472 0)
(0.8944 0.4472 0)
(0.8944 0.4472 0)
(0.8944 0.4472 0)
(0.8944 0.4472 0)
(0.8944 0.4472 0)
(0.8944 0.4472 0)
(0.8944 0.4472 0)
(0.8944 0.4472 0)
(0.8944 0.4472 0)
(0.8944 0.4472 0)
(0.8944 0.4472 0)
(0.8944 0.4472 0)
(0.8944 0.4472 0)
(0.8944 0.4472 0)
(0.8944 0.4472 0)
(0.8944 0.4472 0)
(0.8944 0.4472 0)
(0.8944 0.4472 0)
(0.8944 0.4472 0)
(0.8944 0.4472 0)
(0.8944 0.4472 0)
(0.8944 0.4472 0)
(0.8944 0.4472 0)
(0.8944 0.4472 0)
(0.8944 0.4472 0)
(0.8944 0.4472 0)
(0.8944 0.4472 0)
(0.8944 0.4472 0)
(0.8944 0.4472 0)
(0.8944 0.4472 0)
(0.8944 0.447201 0)
(0.8944 0.447201 0)
(0.894401 0.447201 0)
(0.894401 0.447201 0)
(0.894403 0.4472 0)
(0.894405 0.447198 0)
(0.894408 0.447195 0)
(0.894413 0.447191 0)
(0.894417 0.447184 0)
(0.894423 0.447175 0)
(0.894428 0.447163 0)
(0.894432 0.447151 0)
(0.894434 0.447137 0)
(0.894433 0.447125 0)
(0.894428 0.447115 0)
(0.894419 0.447109 0)
(0.894407 0.44711 0)
(0.89439 0.447119 0)
(0.894373 0.447135 0)
(0.894355 0.44716 0)
(0.894339 0.447192 0)
(0.894326 0.447229 0)
(0.894318 0.447268 0)
(0.894316 0.447308 0)
(0.894321 0.447344 0)
(0.89433 0.447375 0)
(0.894345 0.447399 0)
(0.894362 0.447413 0)
(0.89438 0.447419 0)
(0.894398 0.447416 0)
(0.894415 0.447406 0)
(0.894428 0.447389 0)
(0.894437 0.447368 0)
(0.894442 0.447345 0)
(0.894444 0.447321 0)
(0.894443 0.447297 0)
(0.894439 0.447276 0)
(0.894434 0.447257 0)
(0.894428 0.447241 0)
(0.894422 0.447229 0)
(0.894417 0.447219 0)
(0.894412 0.447212 0)
(0.894409 0.447207 0)
(0.894406 0.447204 0)
(0.894404 0.447202 0)
(0.894402 0.447201 0)
(0.894401 0.4472 0)
(0.894401 0.4472 0)
(0.8944 0.4472 0)
(0.8944 0.4472 0)
(0.8944 0.4472 0)
(0.8944 0.4472 0)
(0.8944 0.4472 0)
(0.8944 0.4472 0)
(0.8944 0.4472 0)
(0.8944 0.4472 0)
(0.8944 0.4472 0)
(0.8944 0.4472 0)
(0.8944 0.4472 0)
(0.8944 0.4472 0)
(0.8944 0.4472 0)
(0.8944 0.4472 0)
(0.8944 0.4472 0)
(0.8944 0.4472 0)
(0.8944 0.4472 0)
(0.8944 0.4472 0)
(0.8944 0.4472 0)
(0.8944 0.4472 0)
(0.8944 0.4472 0)
(0.8944 0.4472 0)
(0.8944 0.4472 0)
(0.8944 0.4472 0)
(0.8944 0.4472 0)
(0.8944 0.4472 0)
(0.8944 0.4472 0)
(0.8944 0.4472 0)
(0.8944 0.4472 0)
(0.8944 0.4472 0)
(0.8944 0.4472 0)
(0.8944 0.4472 0)
(0.8944 0.4472 0)
(0.8944 0.4472 0)
(0.8944 0.4472 0)
(0.8944 0.4472 0)
(0.8944 0.4472 0)
(0.8944 0.4472 0)
(0.8944 0.4472 0)
(0.8944 0.4472 0)
(0.8944 0.4472 0)
(0.8944 0.4472 0)
(0.8944 0.4472 0)
(0.8944 0.4472 0)
(0.8944 0.4472 0)
(0.8944 0.4472 0)
(0.8944 0.4472 0)
(0.8944 0.4472 0)
(0.8944 0.4472 0)
(0.8944 0.4472 0)
(0.8944 0.447201 0)
(0.8944 0.447201 0)
(0.8944 0.447201 0)
(0.8944 0.447201 0)
(0.8944 0.447202 0)
(0.894402 0.447202 0)
(0.894404 0.447201 0)
(0.894407 0.447199 0)
(0.894412 0.447195 0)
(0.894417 0.447189 0)
(0.894424 0.44718 0)
(0.894432 0.447169 0)
(0.894438 0.447155 0)
(0.894443 0.447139 0)
(0.894445 0.447124 0)
(0.894442 0.447111 0)
(0.894434 0.447102 0)
(0.89442 0.447101 0)
(0.8944 0.44711 0)
(0.894377 0.447129 0)
(0.894352 0.447159 0)
(0.894328 0.447199 0)
(0.894307 0.447248 0)
(0.894291 0.447302 0)
(0.894283 0.447358 0)
(0.894283 0.447412 0)
(0.894291 0.447459 0)
(0.894307 0.447497 0)
(0.894328 0.447523 0)
(0.894353 0.447536 0)
(0.89438 0.447537 0)
(0.894405 0.447526 0)
(0.894427 0.447505 0)
(0.894445 0.447476 0)
(0.894457 0.447442 0)
(0.894463 0.447406 0)
(0.894465 0.44737 0)
(0.894462 0.447336 0)
(0.894457 0.447305 0)
(0.894449 0.447278 0)
(0.89444 0.447256 0)
(0.894432 0.447239 0)
(0.894424 0.447225 0)
(0.894417 0.447216 0)
(0.894412 0.447209 0)
(0.894408 0.447205 0)
(0.894405 0.447202 0)
(0.894403 0.4472 0)
(0.894401 0.4472 0)
(0.894401 0.447199 0)
(0.8944 0.447199 0)
(0.8944 0.447199 0)
(0.8944 0.4472 0)
(0.8944 0.4472 0)
(0.8944 0.4472 0)
(0.8944 0.4472 0)
(0.8944 0.4472 0)
(0.8944 0.4472 0)
(0.8944 0.4472 0)
(0.8944 0.4472 0)
(0.8944 0.4472 0)
(0.8944 0.4472 0)
(0.8944 0.4472 0)
(0.8944 0.4472 0)
(0.8944 0.4472 0)
(0.8944 0.4472 0)
(0.8944 0.4472 0)
(0.8944 0.4472 0)
(0.8944 0.4472 0)
(0.8944 0.4472 0)
(0.8944 0.4472 0)
(0.8944 0.4472 0)
(0.8944 0.4472 0)
(0.8944 0.4472 0)
(0.8944 0.4472 0)
(0.8944 0.4472 0)
(0.8944 0.4472 0)
(0.8944 0.4472 0)
(0.8944 0.4472 0)
(0.8944 0.4472 0)
(0.8944 0.4472 0)
(0.8944 0.4472 0)
(0.8944 0.4472 0)
(0.8944 0.4472 0)
(0.8944 0.4472 0)
(0.8944 0.4472 0)
(0.8944 0.4472 0)
(0.8944 0.4472 0)
(0.8944 0.4472 0)
(0.8944 0.4472 0)
(0.8944 0.4472 0)
(0.8944 0.4472 0)
(0.8944 0.4472 0)
(0.8944 0.4472 0)
(0.8944 0.4472 0)
(0.8944 0.4472 0)
(0.8944 0.4472 0)
(0.8944 0.4472 0)
(0.8944 0.4472 0)
(0.8944 0.447201 0)
(0.894399 0.447201 0)
(0.894399 0.447201 0)
(0.894399 0.447202 0)
(0.894399 0.447203 0)
(0.8944 0.447203 0)
(0.894402 0.447203 0)
(0.894405 0.447202 0)
(0.894409 0.447199 0)
(0.894416 0.447195 0)
(0.894424 0.447187 0)
(0.894432 0.447177 0)
(0.894442 0.447163 0)
(0.89445 0.447146 0)
(0.894455 0.447129 0)
(0.894455 0.447114 0)
(0.894449 0.447103 0)
(0.894435 0.447101 0)
(0.894413 0.44711 0)
(0.894385 0.447133 0)
(0.894352 0.447171 0)
(0.894317 0.447224 0)
(0.894285 0.44729 0)
(0.894258 0.447365 0)
(0.89424 0.447445 0)
(0.894232 0.447524 0)
(0.894237 0.447595 0)
(0.894252 0.447656 0)
(0.894278 0.4477 0)
(0.894311 0.447726 0)
(0.894348 0.447733 0)
(0.894385 0.447721 0)
(0.89442 0.447694 0)
(0.89445 0.447654 0)
(0.894473 0.447605 0)
(0.894488 0.44755 0)
(0.894495 0.447494 0)
(0.894496 0.44744 0)
(0.894491 0.44739 0)
(0.894482 0.447345 0)
(0.89447 0.447307 0)
(0.894458 0.447276 0)
(0.894445 0.447252 0)
(0.894434 0.447233 0)
(0.894425 0.44722 0)
(0.894417 0.447211 0)
(0.894411 0.447205 0)
(0.894407 0.447202 0)
(0.894404 0.4472 0)
(0.894402 0.447199 0)
(0.894401 0.447199 0)
(0.8944 0.447199 0)
(0.8944 0.447199 0)
(0.8944 0.447199 0)
(0.8944 0.447199 0)
(0.8944 0.4472 0)
(0.8944 0.4472 0)
(0.8944 0.4472 0)
(0.8944 0.4472 0)
(0.8944 0.4472 0)
(0.8944 0.4472 0)
(0.8944 0.4472 0)
(0.8944 0.4472 0)
(0.8944 0.4472 0)
(0.8944 0.4472 0)
(0.8944 0.4472 0)
(0.8944 0.4472 0)
(0.8944 0.4472 0)
(0.8944 0.4472 0)
(0.8944 0.4472 0)
(0.8944 0.4472 0)
(0.8944 0.4472 0)
(0.8944 0.4472 0)
(0.8944 0.4472 0)
(0.8944 0.4472 0)
(0.8944 0.4472 0)
(0.8944 0.4472 0)
(0.8944 0.4472 0)
(0.8944 0.4472 0)
(0.8944 0.4472 0)
(0.8944 0.4472 0)
(0.8944 0.4472 0)
(0.8944 0.4472 0)
(0.8944 0.4472 0)
(0.8944 0.4472 0)
(0.8944 0.4472 0)
(0.8944 0.4472 0)
(0.8944 0.4472 0)
(0.8944 0.4472 0)
(0.8944 0.4472 0)
(0.8944 0.4472 0)
(0.8944 0.4472 0)
(0.8944 0.4472 0)
(0.8944 0.4472 0)
(0.8944 0.4472 0)
(0.8944 0.4472 0)
(0.8944 0.4472 0)
(0.8944 0.4472 0)
(0.8944 0.4472 0)
(0.8944 0.4472 0)
(0.894399 0.447201 0)
(0.894399 0.447201 0)
(0.894399 0.447202 0)
(0.894399 0.447203 0)
(0.894399 0.447204 0)
(0.8944 0.447205 0)
(0.894402 0.447205 0)
(0.894406 0.447204 0)
(0.894412 0.447201 0)
(0.894421 0.447196 0)
(0.894431 0.447187 0)
(0.894443 0.447175 0)
(0.894454 0.447159 0)
(0.894463 0.447141 0)
(0.894467 0.447125 0)
(0.894464 0.447113 0)
(0.894451 0.447111 0)
(0.894427 0.447123 0)
(0.894393 0.447152 0)
(0.894352 0.447202 0)
(0.894305 0.447273 0)
(0.894258 0.447363 0)
(0.894216 0.447469 0)
(0.894184 0.447584 0)
(0.894165 0.447701 0)
(0.894161 0.447812 0)
(0.894175 0.447908 0)
(0.894204 0.447983 0)
(0.894245 0.448033 0)
(0.894296 0.448053 0)
(0.89435 0.448045 0)
(0.894403 0.44801 0)
(0.89445 0.447954 0)
(0.89449 0.447881 0)
(0.894519 0.447798 0)
(0.894537 0.44771 0)
(0.894544 0.447622 0)
(0.894542 0.44754 0)
(0.894533 0.447465 0)
(0.894518 0.447401 0)
(0.8945 0.447346 0)
(0.894482 0.447302 0)
(0.894464 0.447268 0)
(0.894448 0.447243 0)
(0.894434 0.447225 0)
(0.894423 0.447213 0)
(0.894415 0.447206 0)
(0.894409 0.447201 0)
(0.894405 0.447199 0)
(0.894402 0.447198 0)
(0.894401 0.447198 0)
(0.8944 0.447198 0)
(0.8944 0.447198 0)
(0.8944 0.447199 0)
(0.8944 0.447199 0)
(0.8944 0.447199 0)
(0.8944 0.4472 0)
(0.8944 0.4472 0)
(0.8944 0.4472 0)
(0.8944 0.4472 0)
(0.8944 0.4472 0)
(0.8944 0.4472 0)
(0.8944 0.4472 0)
(0.8944 0.4472 0)
(0.8944 0.4472 0)
(0.8944 0.4472 0)
(0.8944 0.4472 0)
(0.8944 0.4472 0)
(0.8944 0.4472 0)
(0.8944 0.4472 0)
(0.8944 0.4472 0)
(0.8944 0.4472 0)
(0.8944 0.4472 0)
(0.8944 0.4472 0)
(0.8944 0.4472 0)
(0.8944 0.4472 0)
(0.8944 0.4472 0)
(0.8944 0.4472 0)
(0.8944 0.4472 0)
(0.8944 0.4472 0)
(0.8944 0.4472 0)
(0.8944 0.4472 0)
(0.8944 0.4472 0)
(0.8944 0.4472 0)
(0.8944 0.4472 0)
(0.8944 0.4472 0)
(0.8944 0.4472 0)
(0.8944 0.4472 0)
(0.8944 0.4472 0)
(0.8944 0.4472 0)
(0.8944 0.4472 0)
(0.8944 0.4472 0)
(0.8944 0.4472 0)
(0.8944 0.4472 0)
(0.8944 0.4472 0)
(0.8944 0.4472 0)
(0.8944 0.4472 0)
(0.8944 0.4472 0)
(0.8944 0.4472 0)
(0.894399 0.447201 0)
(0.894399 0.447201 0)
(0.894398 0.447202 0)
(0.894398 0.447203 0)
(0.894398 0.447205 0)
(0.894398 0.447206 0)
(0.894399 0.447208 0)
(0.894403 0.447209 0)
(0.894408 0.447208 0)
(0.894416 0.447205 0)
(0.894427 0.447199 0)
(0.89444 0.447189 0)
(0.894454 0.447176 0)
(0.894467 0.44716 0)
(0.894475 0.447144 0)
(0.894476 0.447133 0)
(0.894465 0.447133 0)
(0.89444 0.447149 0)
(0.894401 0.447188 0)
(0.89435 0.447254 0)
(0.894289 0.44735 0)
(0.894224 0.447474 0)
(0.894161 0.447624 0)
(0.894108 0.447791 0)
(0.894071 0.447966 0)
(0.894054 0.448137 0)
(0.894061 0.448293 0)
(0.894091 0.448421 0)
(0.894142 0.448514 0)
(0.894209 0.448565 0)
(0.894286 0.448571 0)
(0.894366 0.448535 0)
(0.894441 0.44846 0)
(0.894507 0.448354 0)
(0.894558 0.448227 0)
(0.894594 0.448089 0)
(0.894614 0.447947 0)
(0.894619 0.447811 0)
(0.894611 0.447685 0)
(0.894594 0.447574 0)
(0.89457 0.447479 0)
(0.894543 0.4474 0)
(0.894516 0.447338 0)
(0.894489 0.447291 0)
(0.894466 0.447256 0)
(0.894447 0.447231 0)
(0.894432 0.447215 0)
(0.89442 0.447205 0)
(0.894412 0.4472 0)
(0.894406 0.447197 0)
(0.894403 0.447196 0)
(0.894401 0.447196 0)
(0.8944 0.447197 0)
(0.894399 0.447197 0)
(0.894399 0.447198 0)
(0.894399 0.447199 0)
(0.894399 0.447199 0)
(0.8944 0.447199 0)
(0.8944 0.4472 0)
(0.8944 0.4472 0)
(0.8944 0.4472 0)
(0.8944 0.4472 0)
(0.8944 0.4472 0)
(0.8944 0.4472 0)
(0.8944 0.4472 0)
(0.8944 0.4472 0)
(0.8944 0.4472 0)
(0.8944 0.4472 0)
(0.8944 0.4472 0)
(0.8944 0.4472 0)
(0.8944 0.4472 0)
(0.8944 0.4472 0)
(0.8944 0.4472 0)
(0.8944 0.4472 0)
(0.8944 0.4472 0)
(0.8944 0.4472 0)
(0.8944 0.4472 0)
(0.8944 0.4472 0)
(0.8944 0.4472 0)
(0.8944 0.4472 0)
(0.8944 0.4472 0)
(0.8944 0.4472 0)
(0.8944 0.4472 0)
(0.8944 0.4472 0)
(0.8944 0.4472 0)
(0.8944 0.4472 0)
(0.8944 0.4472 0)
(0.8944 0.4472 0)
(0.8944 0.4472 0)
(0.8944 0.4472 0)
(0.8944 0.4472 0)
(0.8944 0.4472 0)
(0.8944 0.4472 0)
(0.8944 0.4472 0)
(0.8944 0.4472 0)
(0.8944 0.4472 0)
(0.8944 0.4472 0)
(0.8944 0.4472 0)
(0.8944 0.4472 0)
(0.894399 0.447201 0)
(0.894399 0.447201 0)
(0.894398 0.447202 0)
(0.894398 0.447203 0)
(0.894397 0.447205 0)
(0.894396 0.447207 0)
(0.894397 0.44721 0)
(0.894398 0.447212 0)
(0.894402 0.447214 0)
(0.894409 0.447214 0)
(0.894419 0.447211 0)
(0.894433 0.447205 0)
(0.894449 0.447196 0)
(0.894465 0.447183 0)
(0.894477 0.44717 0)
(0.894482 0.447162 0)
(0.894474 0.447165 0)
(0.89445 0.447188 0)
(0.894406 0.447239 0)
(0.894343 0.447327 0)
(0.894264 0.447454 0)
(0.894176 0.447625 0)
(0.894086 0.447834 0)
(0.894003 0.448074 0)
(0.893938 0.448333 0)
(0.893899 0.448596 0)
(0.893891 0.448844 0)
(0.893917 0.449062 0)
(0.893976 0.449234 0)
(0.894063 0.449347 0)
(0.89417 0.449395 0)
(0.894288 0.449375 0)
(0.894406 0.44929 0)
(0.894514 0.44915 0)
(0.894604 0.448966 0)
(0.894672 0.448754 0)
(0.894716 0.448529 0)
(0.894735 0.448304 0)
(0.894733 0.448092 0)
(0.894715 0.447899 0)
(0.894684 0.447731 0)
(0.894646 0.447591 0)
(0.894604 0.447477 0)
(0.894563 0.447388 0)
(0.894525 0.447321 0)
(0.894492 0.447273 0)
(0.894464 0.447239 0)
(0.894443 0.447217 0)
(0.894427 0.447204 0)
(0.894415 0.447197 0)
(0.894408 0.447194 0)
(0.894403 0.447193 0)
(0.8944 0.447194 0)
(0.894399 0.447195 0)
(0.894399 0.447196 0)
(0.894399 0.447197 0)
(0.894399 0.447198 0)
(0.894399 0.447199 0)
(0.894399 0.447199 0)
(0.8944 0.447199 0)
(0.8944 0.4472 0)
(0.8944 0.4472 0)
(0.8944 0.4472 0)
(0.8944 0.4472 0)
(0.8944 0.4472 0)
(0.8944 0.4472 0)
(0.8944 0.4472 0)
(0.8944 0.4472 0)
(0.8944 0.4472 0)
(0.8944 0.4472 0)
(0.8944 0.4472 0)
(0.8944 0.4472 0)
(0.8944 0.4472 0)
(0.8944 0.4472 0)
(0.8944 0.4472 0)
(0.8944 0.4472 0)
(0.8944 0.4472 0)
(0.8944 0.4472 0)
(0.8944 0.4472 0)
(0.8944 0.4472 0)
(0.8944 0.4472 0)
(0.8944 0.4472 0)
(0.8944 0.4472 0)
(0.8944 0.4472 0)
(0.8944 0.4472 0)
(0.8944 0.4472 0)
(0.8944 0.4472 0)
(0.8944 0.4472 0)
(0.8944 0.4472 0)
(0.8944 0.4472 0)
(0.8944 0.4472 0)
(0.8944 0.4472 0)
(0.8944 0.4472 0)
(0.8944 0.4472 0)
(0.8944 0.4472 0)
(0.8944 0.4472 0)
(0.8944 0.4472 0)
(0.8944 0.4472 0)
(0.8944 0.4472 0)
(0.8944 0.447201 0)
(0.894399 0.447201 0)
(0.894398 0.447202 0)
(0.894397 0.447203 0)
(0.894396 0.447205 0)
(0.894395 0.447207 0)
(0.894394 0.44721 0)
(0.894394 0.447214 0)
(0.894396 0.447218 0)
(0.894401 0.447221 0)
(0.894409 0.447223 0)
(0.894422 0.447221 0)
(0.894438 0.447217 0)
(0.894456 0.447209 0)
(0.894473 0.447201 0)
(0.894482 0.447197 0)
(0.894478 0.447206 0)
(0.894454 0.447238 0)
(0.894405 0.447303 0)
(0.89433 0.447415 0)
(0.89423 0.447582 0)
(0.894112 0.44781 0)
(0.893984 0.448096 0)
(0.89386 0.448433 0)
(0.893753 0.448807 0)
(0.893676 0.449199 0)
(0.893639 0.449585 0)
(0.89365 0.449942 0)
(0.893709 0.450245 0)
(0.893815 0.450474 0)
(0.893959 0.450612 0)
(0.894128 0.45065 0)
(0.894308 0.450587 0)
(0.894483 0.450429 0)
(0.894639 0.450188 0)
(0.894765 0.449886 0)
(0.894855 0.449545 0)
(0.894907 0.449188 0)
(0.894923 0.448838 0)
(0.894908 0.448509 0)
(0.894871 0.448216 0)
(0.894818 0.447964 0)
(0.894756 0.447755 0)
(0.894692 0.447588 0)
(0.894631 0.44746 0)
(0.894575 0.447364 0)
(0.894527 0.447296 0)
(0.894488 0.44725 0)
(0.894458 0.44722 0)
(0.894435 0.447203 0)
(0.894419 0.447193 0)
(0.894409 0.447189 0)
(0.894403 0.447189 0)
(0.8944 0.44719 0)
(0.894398 0.447192 0)
(0.894398 0.447194 0)
(0.894398 0.447195 0)
(0.894398 0.447197 0)
(0.894399 0.447198 0)
(0.894399 0.447199 0)
(0.894399 0.447199 0)
(0.8944 0.447199 0)
(0.8944 0.4472 0)
(0.8944 0.4472 0)
(0.8944 0.4472 0)
(0.8944 0.4472 0)
(0.8944 0.4472 0)
(0.8944 0.4472 0)
(0.8944 0.4472 0)
(0.8944 0.4472 0)
(0.8944 0.4472 0)
(0.8944 0.4472 0)
(0.8944 0.4472 0)
(0.8944 0.4472 0)
(0.8944 0.4472 0)
(0.8944 0.4472 0)
(0.8944 0.4472 0)
(0.8944 0.4472 0)
(0.8944 0.4472 0)
(0.8944 0.4472 0)
(0.8944 0.4472 0)
(0.8944 0.4472 0)
(0.8944 0.4472 0)
(0.8944 0.4472 0)
(0.8944 0.4472 0)
(0.8944 0.4472 0)
(0.8944 0.4472 0)
(0.8944 0.4472 0)
(0.8944 0.4472 0)
(0.8944 0.4472 0)
(0.8944 0.4472 0)
(0.8944 0.4472 0)
(0.8944 0.4472 0)
(0.8944 0.4472 0)
(0.8944 0.4472 0)
(0.8944 0.4472 0)
(0.8944 0.4472 0)
(0.8944 0.4472 0)
(0.8944 0.4472 0)
(0.894399 0.4472 0)
(0.894399 0.447201 0)
(0.894398 0.447201 0)
(0.894397 0.447202 0)
(0.894396 0.447204 0)
(0.894395 0.447207 0)
(0.894393 0.447211 0)
(0.894391 0.447215 0)
(0.894391 0.447221 0)
(0.894393 0.447226 0)
(0.894399 0.447232 0)
(0.894409 0.447235 0)
(0.894424 0.447237 0)
(0.894442 0.447236 0)
(0.89446 0.447234 0)
(0.894473 0.447236 0)
(0.894472 0.447252 0)
(0.89445 0.447292 0)
(0.894397 0.447374 0)
(0.894309 0.447512 0)
(0.894185 0.447723 0)
(0.894029 0.448016 0)
(0.893853 0.448394 0)
(0.893672 0.448853 0)
(0.893504 0.449375 0)
(0.893367 0.449939 0)
(0.893278 0.450515 0)
(0.893252 0.451071 0)
(0.893295 0.451573 0)
(0.893408 0.451989 0)
(0.893586 0.452292 0)
(0.893814 0.452461 0)
(0.894076 0.452484 0)
(0.894349 0.452359 0)
(0.894609 0.452096 0)
(0.894837 0.451714 0)
(0.895016 0.451242 0)
(0.895137 0.450714 0)
(0.8952 0.450165 0)
(0.895209 0.449629 0)
(0.895173 0.44913 0)
(0.895105 0.448686 0)
(0.895016 0.448308 0)
(0.894918 0.447998 0)
(0.89482 0.447752 0)
(0.894727 0.447565 0)
(0.894645 0.447427 0)
(0.894576 0.447331 0)
(0.894521 0.447266 0)
(0.894478 0.447225 0)
(0.894447 0.447201 0)
(0.894425 0.447188 0)
(0.894411 0.447184 0)
(0.894403 0.447183 0)
(0.894398 0.447185 0)
(0.894396 0.447188 0)
(0.894396 0.447191 0)
(0.894396 0.447193 0)
(0.894397 0.447195 0)
(0.894398 0.447197 0)
(0.894398 0.447198 0)
(0.894399 0.447199 0)
(0.894399 0.447199 0)
(0.8944 0.4472 0)
(0.8944 0.4472 0)
(0.8944 0.4472 0)
(0.8944 0.4472 0)
(0.8944 0.4472 0)
(0.8944 0.4472 0)
(0.8944 0.4472 0)
(0.8944 0.4472 0)
(0.8944 0.4472 0)
(0.8944 0.4472 0)
(0.8944 0.4472 0)
(0.8944 0.4472 0)
(0.8944 0.4472 0)
(0.8944 0.4472 0)
(0.8944 0.4472 0)
(0.8944 0.4472 0)
(0.8944 0.4472 0)
(0.8944 0.4472 0)
(0.8944 0.4472 0)
(0.8944 0.4472 0)
(0.8944 0.4472 0)
(0.8944 0.4472 0)
(0.8944 0.4472 0)
(0.8944 0.4472 0)
(0.8944 0.4472 0)
(0.8944 0.4472 0)
(0.8944 0.4472 0)
(0.8944 0.4472 0)
(0.8944 0.4472 0)
(0.8944 0.4472 0)
(0.8944 0.4472 0)
(0.8944 0.4472 0)
(0.8944 0.4472 0)
(0.8944 0.4472 0)
(0.8944 0.4472 0)
(0.8944 0.4472 0)
(0.8944 0.4472 0)
(0.894399 0.4472 0)
(0.894399 0.447201 0)
(0.894398 0.447202 0)
(0.894396 0.447204 0)
(0.894394 0.447206 0)
(0.894392 0.44721 0)
(0.894389 0.447215 0)
(0.894387 0.447221 0)
(0.894386 0.447229 0)
(0.894388 0.447238 0)
(0.894394 0.447246 0)
(0.894406 0.447253 0)
(0.894422 0.447259 0)
(0.89444 0.447265 0)
(0.894455 0.447275 0)
(0.894458 0.447298 0)
(0.894437 0.447348 0)
(0.894382 0.447444 0)
(0.894281 0.447608 0)
(0.89413 0.447863 0)
(0.893931 0.448226 0)
(0.893694 0.448707 0)
(0.893436 0.449305 0)
(0.893182 0.450007 0)
(0.892956 0.450785 0)
(0.892784 0.451605 0)
(0.892688 0.452425 0)
(0.892682 0.453202 0)
(0.892777 0.45389 0)
(0.89297 0.454449 0)
(0.893252 0.454845 0)
(0.893603 0.455053 0)
(0.893998 0.455056 0)
(0.894405 0.454852 0)
(0.894791 0.454453 0)
(0.895126 0.453883 0)
(0.895385 0.453183 0)
(0.895556 0.452398 0)
(0.895636 0.451582 0)
(0.895635 0.450782 0)
(0.895567 0.450038 0)
(0.895452 0.449377 0)
(0.89531 0.448815 0)
(0.895156 0.448356 0)
(0.895006 0.447995 0)
(0.894867 0.447721 0)
(0.894746 0.447522 0)
(0.894646 0.447383 0)
(0.894566 0.44729 0)
(0.894506 0.447232 0)
(0.894462 0.447199 0)
(0.894432 0.447182 0)
(0.894413 0.447176 0)
(0.894402 0.447176 0)
(0.894396 0.447178 0)
(0.894394 0.447183 0)
(0.894393 0.447187 0)
(0.894394 0.44719 0)
(0.894395 0.447193 0)
(0.894397 0.447195 0)
(0.894398 0.447197 0)
(0.894398 0.447198 0)
(0.894399 0.447199 0)
(0.894399 0.447199 0)
(0.8944 0.4472 0)
(0.8944 0.4472 0)
(0.8944 0.4472 0)
(0.8944 0.4472 0)
(0.8944 0.4472 0)
(0.8944 0.4472 0)
(0.8944 0.4472 0)
(0.8944 0.4472 0)
(0.8944 0.4472 0)
(0.8944 0.4472 0)
(0.8944 0.4472 0)
(0.8944 0.4472 0)
(0.8944 0.4472 0)
(0.8944 0.4472 0)
(0.8944 0.4472 0)
(0.8944 0.4472 0)
(0.8944 0.4472 0)
(0.8944 0.4472 0)
(0.8944 0.4472 0)
(0.8944 0.4472 0)
(0.8944 0.4472 0)
(0.8944 0.4472 0)
(0.8944 0.4472 0)
(0.8944 0.4472 0)
(0.8944 0.4472 0)
(0.8944 0.4472 0)
(0.8944 0.4472 0)
(0.8944 0.4472 0)
(0.8944 0.4472 0)
(0.8944 0.4472 0)
(0.8944 0.4472 0)
(0.8944 0.4472 0)
(0.8944 0.4472 0)
(0.8944 0.4472 0)
(0.8944 0.4472 0)
(0.894399 0.4472 0)
(0.894399 0.447201 0)
(0.894398 0.447202 0)
(0.894397 0.447203 0)
(0.894394 0.447205 0)
(0.894391 0.447209 0)
(0.894388 0.447214 0)
(0.894384 0.447221 0)
(0.894381 0.44723 0)
(0.894379 0.447241 0)
(0.894381 0.447253 0)
(0.894387 0.447266 0)
(0.894399 0.447279 0)
(0.894415 0.447292 0)
(0.89443 0.44731 0)
(0.894434 0.447341 0)
(0.894416 0.4474 0)
(0.894358 0.447508 0)
(0.894247 0.447693 0)
(0.894069 0.447987 0)
(0.893821 0.448418 0)
(0.893512 0.449004 0)
(0.89316 0.449754 0)
(0.892793 0.450655 0)
(0.892442 0.451683 0)
(0.892145 0.452795 0)
(0.891933 0.45394 0)
(0.891832 0.455064 0)
(0.891862 0.456108 0)
(0.89203 0.457019 0)
(0.892334 0.457749 0)
(0.892758 0.458257 0)
(0.893278 0.458513 0)
(0.893857 0.458498 0)
(0.894454 0.458206 0)
(0.895021 0.457648 0)
(0.895514 0.456851 0)
(0.895896 0.455864 0)
(0.896146 0.45475 0)
(0.89626 0.45358 0)
(0.89625 0.452424 0)
(0.89614 0.451341 0)
(0.895959 0.450377 0)
(0.895738 0.449554 0)
(0.895504 0.448882 0)
(0.895276 0.448354 0)
(0.895069 0.447955 0)
(0.894891 0.447666 0)
(0.894745 0.447464 0)
(0.894631 0.447331 0)
(0.894545 0.447248 0)
(0.894483 0.4472 0)
(0.894442 0.447176 0)
(0.894416 0.447167 0)
(0.8944 0.447166 0)
(0.894393 0.44717 0)
(0.89439 0.447176 0)
(0.89439 0.447181 0)
(0.894391 0.447186 0)
(0.894393 0.447191 0)
(0.894395 0.447194 0)
(0.894396 0.447196 0)
(0.894398 0.447197 0)
(0.894398 0.447198 0)
(0.894399 0.447199 0)
(0.894399 0.447199 0)
(0.8944 0.4472 0)
(0.8944 0.4472 0)
(0.8944 0.4472 0)
(0.8944 0.4472 0)
(0.8944 0.4472 0)
(0.8944 0.4472 0)
(0.8944 0.4472 0)
(0.8944 0.4472 0)
(0.8944 0.4472 0)
(0.8944 0.4472 0)
(0.8944 0.4472 0)
(0.8944 0.4472 0)
(0.8944 0.4472 0)
(0.8944 0.4472 0)
(0.8944 0.4472 0)
(0.8944 0.4472 0)
(0.8944 0.4472 0)
(0.8944 0.4472 0)
(0.8944 0.4472 0)
(0.8944 0.4472 0)
(0.8944 0.4472 0)
(0.8944 0.4472 0)
(0.8944 0.4472 0)
(0.8944 0.4472 0)
(0.8944 0.4472 0)
(0.8944 0.4472 0)
(0.8944 0.4472 0)
(0.8944 0.4472 0)
(0.8944 0.4472 0)
(0.8944 0.4472 0)
(0.8944 0.4472 0)
(0.8944 0.4472 0)
(0.8944 0.4472 0)
(0.8944 0.447201 0)
(0.894399 0.447201 0)
(0.894398 0.447201 0)
(0.894397 0.447202 0)
(0.894395 0.447204 0)
(0.894392 0.447207 0)
(0.894388 0.447212 0)
(0.894383 0.447218 0)
(0.894377 0.447228 0)
(0.894372 0.44724 0)
(0.894368 0.447256 0)
(0.89437 0.447273 0)
(0.894375 0.447292 0)
(0.894386 0.447313 0)
(0.894398 0.447339 0)
(0.894403 0.447377 0)
(0.894386 0.447443 0)
(0.894329 0.447559 0)
(0.89421 0.447759 0)
(0.894008 0.448082 0)
(0.893712 0.448569 0)
(0.893323 0.449253 0)
(0.892858 0.450153 0)
(0.892349 0.451265 0)
(0.891837 0.452563 0)
(0.891366 0.454001 0)
(0.890983 0.455519 0)
(0.890726 0.457046 0)
(0.890627 0.458513 0)
(0.890706 0.459852 0)
(0.89097 0.461005 0)
(0.891415 0.461918 0)
(0.892021 0.462551 0)
(0.892758 0.462869 0)
(0.893581 0.462849 0)
(0.894435 0.462478 0)
(0.895255 0.461761 0)
(0.895979 0.460721 0)
(0.89655 0.459411 0)
(0.896932 0.457907 0)
(0.897113 0.456301 0)
(0.897108 0.454691 0)
(0.896949 0.453165 0)
(0.896682 0.451791 0)
(0.896353 0.450611 0)
(0.896004 0.449642 0)
(0.895666 0.448878 0)
(0.895361 0.4483 0)
(0.8951 0.447881 0)
(0.894888 0.447589 0)
(0.894724 0.447396 0)
(0.894601 0.447276 0)
(0.894514 0.447206 0)
(0.894456 0.44717 0)
(0.89442 0.447156 0)
(0.894399 0.447155 0)
(0.894389 0.44716 0)
(0.894385 0.447167 0)
(0.894385 0.447175 0)
(0.894387 0.447182 0)
(0.89439 0.447187 0)
(0.894393 0.447191 0)
(0.894395 0.447194 0)
(0.894396 0.447196 0)
(0.894398 0.447198 0)
(0.894399 0.447199 0)
(0.894399 0.447199 0)
(0.894399 0.4472 0)
(0.8944 0.4472 0)
(0.8944 0.4472 0)
(0.8944 0.4472 0)
(0.8944 0.4472 0)
(0.8944 0.4472 0)
(0.8944 0.4472 0)
(0.8944 0.4472 0)
(0.8944 0.4472 0)
(0.8944 0.4472 0)
(0.8944 0.4472 0)
(0.8944 0.4472 0)
(0.8944 0.4472 0)
(0.8944 0.4472 0)
(0.8944 0.4472 0)
(0.8944 0.4472 0)
(0.8944 0.4472 0)
(0.8944 0.4472 0)
(0.8944 0.4472 0)
(0.8944 0.4472 0)
(0.8944 0.4472 0)
(0.8944 0.4472 0)
(0.8944 0.4472 0)
(0.8944 0.4472 0)
(0.8944 0.4472 0)
(0.8944 0.4472 0)
(0.8944 0.4472 0)
(0.8944 0.4472 0)
(0.8944 0.4472 0)
(0.8944 0.4472 0)
(0.8944 0.4472 0)
(0.8944 0.4472 0)
(0.8944 0.4472 0)
(0.894399 0.447201 0)
(0.894399 0.447201 0)
(0.894397 0.447201 0)
(0.894396 0.447203 0)
(0.894393 0.447205 0)
(0.894388 0.44721 0)
(0.894383 0.447216 0)
(0.894375 0.447225 0)
(0.894367 0.447238 0)
(0.89436 0.447254 0)
(0.894354 0.447274 0)
(0.894353 0.447298 0)
(0.894357 0.447325 0)
(0.894363 0.447359 0)
(0.894365 0.447404 0)
(0.89435 0.447475 0)
(0.894294 0.447595 0)
(0.894172 0.447801 0)
(0.893953 0.448139 0)
(0.893614 0.448664 0)
(0.893145 0.449425 0)
(0.892557 0.450459 0)
(0.891883 0.451774 0)
(0.891169 0.453347 0)
(0.890476 0.455127 0)
(0.889861 0.457042 0)
(0.889379 0.459005 0)
(0.889075 0.460929 0)
(0.88898 0.462735 0)
(0.889116 0.464354 0)
(0.88949 0.465729 0)
(0.890097 0.466815 0)
(0.890916 0.467571 0)
(0.891914 0.467966 0)
(0.893039 0.46797 0)
(0.894224 0.467561 0)
(0.895388 0.466726 0)
(0.896441 0.465478 0)
(0.897298 0.463857 0)
(0.897898 0.461944 0)
(0.89821 0.459849 0)
(0.898247 0.457702 0)
(0.89805 0.455628 0)
(0.897683 0.453732 0)
(0.897216 0.452082 0)
(0.896712 0.450714 0)
(0.896222 0.449628 0)
(0.895778 0.448802 0)
(0.8954 0.4482 0)
(0.895094 0.44778 0)
(0.894857 0.4475 0)
(0.894683 0.447325 0)
(0.89456 0.447223 0)
(0.894478 0.447169 0)
(0.894427 0.447147 0)
(0.894398 0.447143 0)
(0.894384 0.447148 0)
(0.894379 0.447157 0)
(0.894379 0.447167 0)
(0.894382 0.447176 0)
(0.894386 0.447183 0)
(0.894389 0.447188 0)
(0.894393 0.447192 0)
(0.894395 0.447195 0)
(0.894397 0.447197 0)
(0.894398 0.447198 0)
(0.894399 0.447199 0)
(0.894399 0.447199 0)
(0.894399 0.4472 0)
(0.8944 0.4472 0)
(0.8944 0.4472 0)
(0.8944 0.4472 0)
(0.8944 0.4472 0)
(0.8944 0.4472 0)
(0.8944 0.4472 0)
(0.8944 0.4472 0)
(0.8944 0.4472 0)
(0.8944 0.4472 0)
(0.8944 0.4472 0)
(0.8944 0.4472 0)
(0.8944 0.4472 0)
(0.8944 0.4472 0)
(0.8944 0.4472 0)
(0.8944 0.4472 0)
(0.8944 0.4472 0)
(0.8944 0.4472 0)
(0.8944 0.4472 0)
(0.8944 0.4472 0)
(0.8944 0.4472 0)
(0.8944 0.4472 0)
(0.8944 0.4472 0)
(0.8944 0.4472 0)
(0.8944 0.4472 0)
(0.8944 0.4472 0)
(0.8944 0.4472 0)
(0.8944 0.4472 0)
(0.8944 0.4472 0)
(0.8944 0.4472 0)
(0.8944 0.4472 0)
(0.894399 0.4472 0)
(0.894399 0.447201 0)
(0.894398 0.447201 0)
(0.894397 0.447202 0)
(0.894394 0.447204 0)
(0.89439 0.447207 0)
(0.894384 0.447213 0)
(0.894376 0.447221 0)
(0.894366 0.447232 0)
(0.894356 0.447249 0)
(0.894345 0.44727 0)
(0.894336 0.447297 0)
(0.89433 0.447329 0)
(0.89433 0.447368 0)
(0.894326 0.447418 0)
(0.89431 0.447494 0)
(0.894257 0.447613 0)
(0.894137 0.447816 0)
(0.893909 0.448154 0)
(0.893539 0.448692 0)
(0.892999 0.4495 0)
(0.892287 0.450636 0)
(0.891432 0.452126 0)
(0.890487 0.453957 0)
(0.889524 0.456075 0)
(0.888618 0.458388 0)
(0.887841 0.46079 0)
(0.887253 0.463171 0)
(0.886895 0.465433 0)
(0.886799 0.467496 0)
(0.886984 0.469309 0)
(0.887459 0.470831 0)
(0.888222 0.472035 0)
(0.889259 0.472894 0)
(0.890539 0.473381 0)
(0.892012 0.473461 0)
(0.893603 0.473097 0)
(0.895213 0.472251 0)
(0.896722 0.470902 0)
(0.898004 0.469065 0)
(0.898955 0.466804 0)
(0.899512 0.464236 0)
(0.899671 0.46152 0)
(0.899478 0.458824 0)
(0.899017 0.456301 0)
(0.898389 0.454066 0)
(0.89769 0.452184 0)
(0.896998 0.450673 0)
(0.896366 0.449513 0)
(0.895826 0.448661 0)
(0.895388 0.448062 0)
(0.89505 0.447661 0)
(0.894801 0.447407 0)
(0.894626 0.447257 0)
(0.89451 0.447176 0)
(0.894438 0.44714 0)
(0.894398 0.44713 0)
(0.894378 0.447135 0)
(0.894371 0.447145 0)
(0.894371 0.447157 0)
(0.894375 0.447168 0)
(0.89438 0.447178 0)
(0.894385 0.447185 0)
(0.89439 0.44719 0)
(0.894393 0.447194 0)
(0.894395 0.447196 0)
(0.894397 0.447198 0)
(0.894398 0.447199 0)
(0.894399 0.447199 0)
(0.894399 0.447199 0)
(0.8944 0.4472 0)
(0.8944 0.4472 0)
(0.8944 0.4472 0)
(0.8944 0.4472 0)
(0.8944 0.4472 0)
(0.8944 0.4472 0)
(0.8944 0.4472 0)
(0.8944 0.4472 0)
(0.8944 0.4472 0)
(0.8944 0.4472 0)
(0.8944 0.4472 0)
(0.8944 0.4472 0)
(0.8944 0.4472 0)
(0.8944 0.4472 0)
(0.8944 0.4472 0)
(0.8944 0.4472 0)
(0.8944 0.4472 0)
(0.8944 0.4472 0)
(0.8944 0.4472 0)
(0.8944 0.4472 0)
(0.8944 0.4472 0)
(0.8944 0.4472 0)
(0.8944 0.4472 0)
(0.8944 0.4472 0)
(0.8944 0.4472 0)
(0.8944 0.4472 0)
(0.8944 0.4472 0)
(0.8944 0.4472 0)
(0.8944 0.4472 0)
(0.894399 0.4472 0)
(0.894399 0.4472 0)
(0.894399 0.447201 0)
(0.894398 0.447201 0)
(0.894395 0.447203 0)
(0.894392 0.447205 0)
(0.894387 0.44721 0)
(0.894378 0.447216 0)
(0.894368 0.447227 0)
(0.894355 0.447242 0)
(0.89434 0.447263 0)
(0.894324 0.44729 0)
(0.894311 0.447324 0)
(0.894299 0.447367 0)
(0.894289 0.447421 0)
(0.894269 0.447497 0)
(0.894218 0.447614 0)
(0.894104 0.447806 0)
(0.893881 0.448128 0)
(0.893495 0.448654 0)
(0.892903 0.449472 0)