/*--------------------------------*- C++ -*----------------------------------*\
  =========                 |
  \\      /  F ield         | OpenFOAM: The Open Source CFD Toolbox
   \\    /   O peration     | Website:  https://openfoam.org
    \\  /    A nd           | Version:  6
     \\/     M anipulation  |
\*---------------------------------------------------------------------------*/
FoamFile
{
    version     2.0;
    format      ascii;
    class       surfaceScalarField;
    location    "1.24";
    object      phi;
}
// * * * * * * * * * * * * * * * * * * * * * * * * * * * * * * * * * * * * * //

dimensions      [0 3 -1 0 0 0 0];

internalField   nonuniform List<scalar> 
8193
(
0.142479
-0.335506
-0.168166
0.114424
-0.337869
0.087406
-0.3383
0.0626448
-0.339278
0.0405531
-0.341311
0.0212033
-0.344299
0.00466074
-0.347964
-0.00900744
-0.351927
-0.0196954
-0.35583
-0.0273713
-0.359441
-0.0320936
-0.362677
-0.0340002
-0.365526
-0.0332696
-0.367997
-0.0301431
-0.370164
-0.0249145
-0.372249
-0.0178728
-0.374843
-0.00925311
-0.378294
0.000605767
-0.381807
0.0103304
-0.381292
0.0169149
-0.369422
0.0185816
-0.341651
0.0191425
-0.334639
0.0215742
-0.358903
0.0230712
-0.367487
0.0244405
-0.365261
0.0260017
-0.365278
0.0270923
-0.367141
0.0270771
-0.368908
0.0256307
-0.370114
0.0224291
-0.370697
0.0171659
-0.370582
0.0095826
-0.369584
-0.00047336
-0.367505
-0.0130214
-0.364271
-0.0280034
-0.360068
-0.0453986
-0.355314
-0.0652707
-0.350512
-0.0875983
-0.345897
-0.112094
-0.341604
-0.137828
-0.336856
-0.329991
-0.161824
0.125224
-0.303403
-0.153576
0.0972793
-0.303992
0.0722838
-0.305427
0.0503807
-0.307815
0.0313591
-0.311329
0.0150572
-0.315932
0.00138029
-0.321417
-0.00970497
-0.32747
-0.0182097
-0.333747
-0.0241708
-0.33998
-0.0276735
-0.346023
-0.0288222
-0.351827
-0.0277614
-0.35734
-0.0246341
-0.362614
-0.0196556
-0.367773
-0.0130154
-0.37341
-0.00479683
-0.379952
0.00461683
-0.386276
0.0133727
-0.386796
0.0175411
-0.372081
0.0161192
-0.340485
0.0155513
-0.336087
0.0174492
-0.364547
0.017703
-0.373157
0.0183464
-0.372905
0.0194851
-0.37489
0.0203486
-0.377808
0.0203624
-0.379891
0.019282
-0.380974
0.0167313
-0.380843
0.0124113
-0.379473
0.00607694
-0.376716
-0.00242278
-0.372449
-0.0131402
-0.366684
-0.0260735
-0.35965
-0.0412382
-0.351746
-0.0587664
-0.343359
-0.0787626
-0.334761
-0.101362
-0.326072
-0.126104
-0.317133
-0.308425
-0.150416
0.104176
-0.271265
-0.131159
0.0798
-0.272554
0.0584764
-0.275364
0.0400823
-0.279254
0.0243538
-0.28427
0.0110895
-0.290448
0.000139559
-0.297636
-0.00859532
-0.305565
-0.0151822
-0.31392
-0.0196854
-0.322424
-0.0221843
-0.330901
-0.0227669
-0.339275
-0.0215373
-0.34746
-0.0185869
-0.355498
-0.0140433
-0.363454
-0.00797565
-0.371958
-0.000347446
-0.381516
0.00811516
-0.39022
0.0155063
-0.39128
0.0172321
-0.372552
0.0131544
-0.336823
0.012186
-0.337198
0.0129921
-0.369064
0.0122985
-0.377752
0.0123138
-0.379706
0.0129067
-0.383661
0.013323
-0.387669
0.0133245
-0.390449
0.0124598
-0.391604
0.0104397
-0.391057
0.00697246
-0.388761
0.0018216
-0.384602
-0.00516987
-0.378522
-0.0140852
-0.370593
-0.0249718
-0.361071
-0.0378818
-0.350346
-0.0528779
-0.338794
-0.0700276
-0.326691
-0.0893682
-0.314198
-0.110619
-0.301495
-0.289424
-0.133164
0.0860952
-0.241264
-0.10976
0.0655299
-0.244026
0.0478051
-0.248265
0.0327263
-0.253621
0.0200398
-0.260092
0.00951077
-0.267739
0.000950582
-0.276456
-0.00577848
-0.286025
-0.0107719
-0.296163
-0.0141042
-0.306604
-0.0158454
-0.317163
-0.0160632
-0.327751
-0.0148126
-0.338275
-0.0121462
-0.34876
-0.00810622
-0.359262
-0.00264588
-0.370478
0.00434123
-0.382953
0.0116388
-0.393435
0.0174631
-0.394544
0.0163613
-0.370447
0.00955219
-0.33058
0.00798953
-0.337761
0.00741834
-0.372149
0.00577455
-0.381242
0.00499843
-0.385469
0.00480788
-0.39132
0.00475848
-0.396662
0.00455526
-0.400343
0.00378703
-0.401828
0.002188
-0.401165
-0.000530657
-0.398264
-0.00460865
-0.393044
-0.0102204
-0.385497
-0.0174786
-0.375744
-0.026465
-0.364064
-0.0372559
-0.350847
-0.0499174
-0.33648
-0.0644708
-0.32129
-0.0808387
-0.305547
-0.0988342
-0.289557
-0.274126
-0.118331
0.0710504
-0.214483
-0.0905718
0.0543451
-0.218711
0.040121
-0.224275
0.028169
-0.230956
0.0182506
-0.23873
0.0101297
-0.247666
0.00361134
-0.257699
-0.00145119
-0.268656
-0.00515966
-0.280292
-0.007586
-0.292361
-0.00878767
-0.304679
-0.00880905
-0.317156
-0.00767505
-0.329702
-0.00539265
-0.342342
-0.00193518
-0.355148
0.00286254
-0.368937
0.00901059
-0.384078
0.0150389
-0.395822
0.0189671
-0.396258
0.0145442
-0.365265
0.00539087
-0.322131
0.00292954
-0.337458
0.00107796
-0.37388
-0.00145607
-0.383667
-0.00319083
-0.390002
-0.00427339
-0.397727
-0.00491438
-0.404626
-0.00547849
-0.409374
-0.00628955
-0.411456
-0.00760816
-0.410967
-0.00972652
-0.407767
-0.0128923
-0.401805
-0.0172998
-0.39311
-0.023086
-0.381851
-0.0303522
-0.368334
-0.0391755
-0.35297
-0.0496023
-0.336178
-0.061628
-0.318339
-0.0751632
-0.299818
-0.0900383
-0.281018
-0.26272
-0.106127
0.0598097
-0.191047
-0.0753508
0.0466712
-0.196586
0.0356182
-0.203316
0.0264305
-0.211125
0.0188915
-0.220002
0.0127867
-0.23002
0.00793446
-0.241148
0.00419521
-0.253252
0.00147205
-0.266123
-0.000298237
-0.279539
-0.0011583
-0.293327
-0.00113141
-0.307402
-0.000224776
-0.321675
0.00160063
-0.336203
0.00443385
-0.351092
0.00852845
-0.367305
0.0136769
-0.384735
0.0183618
-0.397305
0.0197008
-0.395725
0.0113993
-0.356442
0.000613862
-0.312179
-0.0026021
-0.33642
-0.00582775
-0.374148
-0.00935257
-0.384907
-0.0122157
-0.393113
-0.0142246
-0.402822
-0.0156231
-0.411365
-0.0166805
-0.417373
-0.0176663
-0.420316
-0.0188582
-0.420261
-0.0205538
-0.417034
-0.0230111
-0.41061
-0.0264436
-0.40105
-0.0310058
-0.388571
-0.0368088
-0.373517
-0.0439222
-0.356337
-0.0523679
-0.337497
-0.0621084
-0.317443
-0.0730546
-0.296603
-0.0850743
-0.275434
-0.254724
-0.0980484
0.0525246
-0.170914
-0.0644309
0.042546
-0.177524
0.0342184
-0.185194
0.0273491
-0.193908
0.0217573
-0.203672
0.0172619
-0.214564
0.0137053
-0.226577
0.0109633
-0.239607
0.00894914
-0.253477
0.00761028
-0.267993
0.00691818
-0.282995
0.00686478
-0.298406
0.00745213
-0.314136
0.00877166
-0.330317
0.0109565
-0.347082
0.0142983
-0.365539
0.0183469
-0.384824
0.0214887
-0.397682
0.0194949
-0.392192
0.00699799
-0.343649
-0.00469769
-0.301434
-0.00850963
-0.334791
-0.0132203
-0.372828
-0.0178573
-0.384826
-0.0218737
-0.39476
-0.0249193
-0.406476
-0.0271877
-0.416744
-0.0288539
-0.424199
-0.0301492
-0.428238
-0.0313759
-0.428844
-0.032845
-0.425821
-0.0348193
-0.419176
-0.0375266
-0.408997
-0.0411295
-0.395557
-0.0457462
-0.379239
-0.0514388
-0.360545
-0.0582092
-0.340002
-0.0659896
-0.318131
-0.0746699
-0.295412
-0.08412
-0.272335
-0.249665
-0.0942519
0.0492657
-0.153773
-0.0581559
0.0418823
-0.161235
0.0357465
-0.169619
0.0307043
-0.179025
0.0266128
-0.189477
0.023327
-0.201054
0.0207152
-0.213765
0.0186698
-0.227526
0.0171154
-0.242191
0.0160097
-0.25759
0.0153354
-0.273581
0.0150921
-0.290093
0.0152852
-0.307032
0.0160673
-0.324665
0.0175755
-0.343096
0.0200889
-0.363563
0.0227799
-0.384082
0.0239655
-0.39653
0.0181059
-0.385117
0.00151817
-0.32698
-0.0103098
-0.29066
-0.0149138
-0.332365
-0.0211273
-0.369889
-0.0269008
-0.383385
-0.0320438
-0.394956
-0.0362052
-0.408594
-0.039457
-0.420631
-0.0418302
-0.429732
-0.0435715
-0.435062
-0.0450006
-0.436519
-0.0464557
-0.433875
-0.0481912
-0.42721
-0.0504437
-0.416622
-0.0533672
-0.402457
-0.057083
-0.385127
-0.0616521
-0.365192
-0.0670741
-0.343244
-0.0732654
-0.319891
-0.0800901
-0.295674
-0.0873941
-0.271117
-0.246911
-0.095112
0.0498581
-0.139258
-0.0564018
0.044445
-0.14736
0.0399411
-0.156262
0.0362313
-0.166178
0.0332086
-0.17715
0.0307583
-0.189253
0.0287707
-0.202501
0.0271524
-0.216828
0.0258386
-0.232112
0.0247944
-0.248208
0.0240099
-0.264991
0.0234841
-0.282393
0.0232223
-0.300314
0.0234351
-0.319218
0.0242173
-0.339081
0.0257807
-0.361248
0.0266536
-0.382039
0.0252515
-0.393207
0.0151182
-0.374079
-0.00477621
-0.307208
-0.0161011
-0.280482
-0.0217787
-0.328847
-0.0294982
-0.365317
-0.0363904
-0.380594
-0.0426632
-0.393688
-0.0479571
-0.409149
-0.0522645
-0.422944
-0.0554505
-0.433853
-0.0577917
-0.440617
-0.0596093
-0.443076
-0.0612874
-0.44093
-0.0630557
-0.434405
-0.0651505
-0.42358
-0.0677049
-0.408901
-0.0708327
-0.390795
-0.0745843
-0.369884
-0.0789646
-0.346808
-0.0839156
-0.322245
-0.0892858
-0.296839
-0.0949007
-0.271149
-0.245799
-0.10067
0.0540076
-0.126964
-0.0588947
0.0499263
-0.135506
0.0465075
-0.144784
0.0436625
-0.155075
0.04131
-0.166437
0.0393565
-0.178937
0.0377068
-0.192591
0.0362785
-0.207345
0.0350153
-0.2231
0.0338864
-0.239734
0.032883
-0.257138
0.031994
-0.275234
0.0312375
-0.293944
0.0308186
-0.313908
0.0307998
-0.334952
0.0310861
-0.358252
0.0298427
-0.37838
0.0248141
-0.386657
0.0101053
-0.35876
-0.011222
-0.28619
-0.0218197
-0.271111
-0.0290687
-0.323729
-0.0382893
-0.359109
-0.046262
-0.376482
-0.0536415
-0.390974
-0.0600869
-0.408117
-0.0654884
-0.423639
-0.0696001
-0.436441
-0.0727242
-0.444708
-0.0751454
-0.448287
-0.0773159
-0.446699
-0.0794094
-0.44044
-0.0816913
-0.42949
-0.0842408
-0.414478
-0.0871488
-0.395814
-0.0904527
-0.374175
-0.094163
-0.35023
-0.0982192
-0.324736
-0.102515
-0.29839
-0.106879
-0.271832
-0.245625
-0.111216
0.0613325
-0.116474
-0.065238
0.0579941
-0.125303
0.0551584
-0.134864
0.0527553
-0.145441
0.0507157
-0.157099
0.0489573
-0.169898
0.0473931
-0.183851
0.0459492
-0.19892
0.0445748
-0.215027
0.0432379
-0.232065
0.0419214
-0.249935
0.0405889
-0.268535
0.0393097
-0.287884
0.0381873
-0.30865
0.0372221
-0.330547
0.0358318
-0.354159
0.0321635
-0.372778
0.0229427
-0.376296
0.00431168
-0.339797
-0.0172681
-0.265093
-0.0273699
-0.262303
-0.0367478
-0.316443
-0.0474942
-0.351233
-0.0565268
-0.371066
-0.0649587
-0.386864
-0.0725469
-0.405506
-0.0790643
-0.422692
-0.0842162
-0.437382
-0.0883448
-0.447115
-0.0916178
-0.4519
-0.0945813
-0.450872
-0.0973725
-0.444928
-0.100262
-0.43391
-0.103264
-0.418698
-0.106435
-0.399657
-0.109755
-0.377542
-0.11321
-0.35302
-0.116783
-0.326854
-0.120407
-0.299807
-0.123925
-0.272618
-0.245833
-0.127215
0.0714461
-0.107403
-0.0749785
0.0683367
-0.11642
0.0656429
-0.126211
0.063308
-0.137021
0.0612653
-0.148912
0.059436
-0.161937
0.057738
-0.176111
0.0561039
-0.19141
0.0544824
-0.207772
0.052829
-0.225096
0.0511056
-0.243283
0.0492475
-0.262201
0.0473761
-0.282048
0.0454801
-0.303353
0.0433398
-0.325613
0.0401969
-0.348867
0.0336986
-0.364805
0.020598
-0.362415
-0.00061354
-0.318513
-0.0227235
-0.243622
-0.0331377
-0.253237
-0.0447738
-0.306853
-0.0570801
-0.341649
-0.0672604
-0.364255
-0.0767114
-0.381393
-0.0853653
-0.401395
-0.0930244
-0.420083
-0.0993068
-0.436592
-0.104673
-0.447607
-0.109057
-0.453657
-0.113179
-0.453084
-0.117068
-0.447466
-0.121026
-0.436368
-0.124999
-0.421023
-0.129001
-0.401725
-0.132958
-0.379321
-0.136817
-0.354459
-0.140515
-0.327918
-0.143986
-0.300477
-0.147158
-0.27289
-0.245766
-0.149914
0.0839921
-0.0994115
-0.087674
0.0806753
-0.108569
0.0777472
-0.118566
0.0751564
-0.12958
0.0728372
-0.141667
0.0707079
-0.15487
0.0686929
-0.169213
0.066721
-0.184677
0.0647323
-0.201214
0.0626516
-0.218704
0.0604122
-0.237054
0.0579331
-0.256112
0.0553367
-0.276275
0.0524975
-0.297817
0.0489776
-0.319918
0.0441587
-0.342426
0.0345392
-0.354143
0.0181963
-0.345628
-0.00470963
-0.295773
-0.0272614
-0.22185
-0.0391379
-0.242751
-0.0531024
-0.294878
-0.067084
-0.330237
-0.0785589
-0.355904
-0.0890779
-0.374516
-0.0987356
-0.395855
-0.107509
-0.41585
-0.114951
-0.434052
-0.121721
-0.446032
-0.12749
-0.453298
-0.133119
-0.452996
-0.138482
-0.447683
-0.143952
-0.436423
-0.149407
-0.420937
-0.154891
-0.401355
-0.160187
-0.378786
-0.165211
-0.353748
-0.169833
-0.327075
-0.174006
-0.299471
-0.177679
-0.271707
-0.244417
-0.180791
0.098603
-0.0921965
-0.102872
0.0947238
-0.1015
0.0912673
-0.111711
0.0881573
-0.122908
0.085345
-0.135181
0.0827262
-0.148522
0.0802415
-0.163006
0.077791
-0.178573
0.0753067
-0.195208
0.0726692
-0.212736
0.0698089
-0.231114
0.0665948
-0.250122
0.0631272
-0.270385
0.0591212
-0.291785
0.0542097
-0.313414
0.0475488
-0.334637
0.0349441
-0.340899
0.0160618
-0.326612
-0.00815844
-0.271936
-0.0308339
-0.200078
-0.0451055
-0.229899
-0.0617507
-0.280159
-0.0776486
-0.316755
-0.0906527
-0.34578
-0.102339
-0.366141
-0.112939
-0.388956
-0.122756
-0.410076
-0.131252
-0.429885
-0.139501
-0.442331
-0.146794
-0.450702
-0.154214
-0.450342
-0.161345
-0.445302
-0.16875
-0.433662
-0.176112
-0.418023
-0.183583
-0.398043
-0.190802
-0.375345
-0.197742
-0.350119
-0.204175
-0.323406
-0.210064
-0.295729
-0.21533
-0.267912
-0.240545
-0.219954
0.114802
-0.0855838
-0.119917
0.110153
-0.0950643
0.105968
-0.105486
0.102159
-0.116847
0.0986741
-0.129281
0.0954192
-0.142742
0.0923047
-0.157313
0.0892404
-0.172936
0.0860979
-0.189556
0.0827951
-0.207046
0.0791928
-0.2253
0.0751862
-0.244131
0.0708368
-0.264324
0.0657448
-0.285296
0.0591602
-0.305781
0.0508414
-0.325649
0.0352682
-0.325057
0.0140851
-0.305579
-0.0112595
-0.247169
-0.0344058
-0.177941
-0.0512673
-0.214476
-0.0707783
-0.262505
-0.0889805
-0.300813
-0.103782
-0.333618
-0.116907
-0.356005
-0.128147
-0.381015
-0.1391
-0.402688
-0.148198
-0.424564
-0.15794
-0.436516
-0.166649
-0.446002
-0.176068
-0.444941
-0.185085
-0.440231
-0.194788
-0.42775
-0.204249
-0.41211
-0.214054
-0.391457
-0.223577
-0.368627
-0.232963
-0.343044
-0.241841
-0.31627
-0.250248
-0.288429
-0.258016
-0.260563
-0.233066
-0.265185
0.131987
-0.0793009
-0.138255
0.126531
-0.0892438
0.121345
-0.0996202
0.11684
-0.111388
0.112444
-0.123705
0.108533
-0.137477
0.104573
-0.15188
0.100865
-0.167692
0.0968809
-0.184029
0.0929361
-0.201607
0.0884353
-0.219407
0.0836767
-0.23813
0.0783684
-0.257968
0.0723733
-0.278487
0.0644374
-0.2973
0.0551115
-0.316074
0.0362062
-0.306221
0.0126956
-0.282472
-0.0135456
-0.221676
-0.0377527
-0.154831
-0.0585185
-0.195154
-0.0801038
-0.242702
-0.101451
-0.281571
-0.118009
-0.319466
-0.133138
-0.343554
-0.14442
-0.372647
-0.156642
-0.393572
-0.165746
-0.418709
-0.177059
-0.428537
-0.186709
-0.439705
-0.198339
-0.436612
-0.20904
-0.432706
-0.22113
-0.41863
-0.232704
-0.403217
-0.244944
-0.381527
-0.256885
-0.358545
-0.268901
-0.332358
-0.280516
-0.305388
-0.291791
-0.277226
-0.302526
-0.24919
-0.221427
-0.312777
0.149387
-0.156799
0.143014
0.136862
0.131548
0.126283
0.121556
0.116807
0.11232
0.107624
0.102882
0.0975986
0.0919054
0.0856756
0.0787417
0.0702078
0.0599238
0.0393407
0.0143136
-0.0134567
-0.0416553
-0.0672232
-0.0904701
-0.11468
-0.133925
-0.150551
-0.162712
-0.175344
-0.184605
-0.196764
-0.206814
-0.220168
-0.232381
-0.246669
-0.260228
-0.27491
-0.289058
-0.303758
-0.317896
-0.332117
-0.345638
-0.359029
0.163249
-0.336245
0.148513
-0.295957
0.138435
-0.25404
0.132063
-0.213474
0.127965
-0.17746
0.124827
-0.148306
0.121638
-0.126189
0.118056
-0.110282
0.113703
-0.0992888
0.108123
-0.092663
0.100816
-0.0900662
0.0913039
-0.0914852
0.0791046
-0.0965505
0.0642809
-0.105667
0.0461361
-0.116597
0.026729
-0.131912
-0.135257
0.137724
-0.314855
0.124256
-0.279786
0.115092
-0.243052
0.109588
-0.20698
0.106482
-0.174134
0.104467
-0.146753
0.102516
-0.125277
0.100099
-0.109365
0.0969782
-0.0979957
0.0928044
-0.0905082
0.0871678
-0.0864986
0.0795773
-0.0858733
0.0695912
-0.0883174
0.0568542
-0.0943319
0.0410447
-0.101726
0.0222145
-0.11346
-0.112785
0.113911
-0.294275
0.101412
-0.264105
0.0929388
-0.232149
0.0879579
-0.200289
0.0854306
-0.170567
0.0840875
-0.144974
0.0830391
-0.124315
0.0816743
-0.108514
0.0797167
-0.0968754
0.0768416
-0.088681
0.072707
-0.0835055
0.0668827
-0.0811652
0.0589755
-0.0813842
0.0485116
-0.0845872
0.0352374
-0.0888115
0.0188483
-0.0969784
-0.0933118
0.0918196
-0.274969
0.0802282
-0.248987
0.0722942
-0.221325
0.0676423
-0.193363
0.065509
-0.166737
0.0647026
-0.143
0.0643606
-0.123271
0.0638227
-0.107667
0.0628306
-0.0958842
0.0610988
-0.0871698
0.0583238
-0.0810747
0.0541376
-0.0773481
0.048204
-0.0757447
0.0399875
-0.0764917
0.0292445
-0.0779221
0.0155888
-0.0828212
-0.0767872
0.0718559
-0.256397
0.0609451
-0.234328
0.0534126
-0.210579
0.0489854
-0.186241
0.0470028
-0.162554
0.046591
-0.140845
0.0467544
-0.122103
0.0469202
-0.106857
0.0467208
-0.0949996
0.0459593
-0.0859429
0.0443687
-0.0791616
0.0416417
-0.0743604
0.0375193
-0.0713401
0.0314772
-0.0700618
0.0232829
-0.0691515
0.0124027
-0.0710963
-0.0631965
0.0538684
-0.239047
0.0436416
-0.220244
0.036441
-0.199962
0.0321535
-0.178971
0.0302471
-0.158082
0.0300092
-0.138434
0.0306194
-0.120898
0.0313543
-0.106094
0.0318178
-0.0942338
0.0318331
-0.0849425
0.03124
-0.0777058
0.0297766
-0.0721221
0.0272474
-0.0680557
0.0231922
-0.0652006
0.017449
-0.0624803
0.00929491
-0.0618219
-0.0525205
0.038038
-0.22245
0.0283472
-0.206683
0.0214171
-0.18952
0.0171991
-0.171598
0.0153126
-0.153388
0.015151
-0.135797
0.0160337
-0.119614
0.0172881
-0.105461
0.018359
-0.0936616
0.019071
-0.084214
0.0192776
-0.076628
0.0188698
-0.0705351
0.0177045
-0.0657616
0.0154149
-0.0617751
0.0119162
-0.0577792
0.0063442
-0.0549206
-0.0446597
0.024103
-0.207054
0.0149895
-0.193763
0.00830293
-0.179315
0.00410443
-0.16417
0.00216569
-0.148507
0.0020296
-0.132995
0.00307935
-0.118262
0.00471797
-0.104941
0.00641883
-0.093422
0.0077825
-0.0838259
0.00874438
-0.0759922
0.00922054
-0.0695289
0.0091717
-0.0643033
0.00838196
-0.059603
0.00684003
-0.0548337
0.0035926
-0.0501981
-0.0394691
0.0120616
-0.192479
0.00344674
-0.18147
-0.00300403
-0.169411
-0.00720704
-0.156745
-0.00925592
-0.143468
-0.00946182
-0.130028
-0.00831237
-0.116871
-0.00637597
-0.104547
-0.00416408
-0.0934973
-0.0020691
-0.0839572
-0.000368039
-0.0758782
0.000962048
-0.0691643
0.00182778
-0.0635629
0.00227907
-0.0585015
0.00236777
-0.0533851
0.0011744
-0.0474426
-0.0366653
0.00158334
-0.179121
-0.0064636
-0.169916
-0.0126483
-0.159893
-0.0168435
-0.149398
-0.0190371
-0.138307
-0.0193985
-0.126886
-0.0182682
-0.115405
-0.0161292
-0.104269
-0.0134885
-0.0938901
-0.0107657
-0.0845893
-0.00820349
-0.0764907
-0.00599915
-0.0695407
-0.00426127
-0.0635718
-0.00277896
-0.0583283
-0.00140354
-0.0531498
-0.000759753
-0.0464895
-0.0358086
-0.00746279
-0.166645
-0.014962
-0.159113
-0.0208172
-0.150863
-0.0249461
-0.142232
-0.0272803
-0.133082
-0.0278625
-0.123563
-0.0268803
-0.113799
-0.0246737
-0.104037
-0.0217013
-0.0945728
-0.018419
-0.0857237
-0.0151452
-0.0777492
-0.0120623
-0.070729
-0.00930601
-0.0645394
-0.00686229
-0.0590719
-0.00449173
-0.0538888
-0.00236998
-0.0470254
-0.0366137
-0.0153938
-0.155412
-0.0222688
-0.149152
-0.0277498
-0.142388
-0.0317368
-0.135355
-0.0341372
-0.127903
-0.0349293
-0.120112
-0.0341793
-0.112014
-0.0320842
-0.103726
-0.0289556
-0.0954239
-0.0251976
-0.087332
-0.0212307
-0.0796907
-0.0173564
-0.0726968
-0.0136833
-0.0664165
-0.0102508
-0.0608085
-0.00701336
-0.0555178
-0.00367322
-0.0488297
-0.0388065
-0.0224374
-0.145111
-0.0286465
-0.140078
-0.033656
-0.134577
-0.0373963
-0.128888
-0.0397775
-0.12288
-0.0407396
-0.116602
-0.0402596
-0.110049
-0.0383982
-0.10325
-0.0353235
-0.0962739
-0.0313151
-0.0892315
-0.0267393
-0.0822747
-0.0219851
-0.0755754
-0.0173577
-0.0692823
-0.013014
-0.0635002
-0.00896582
-0.0580171
-0.00468714
-0.0516544
-0.0421245
-0.0288554
-0.136103
-0.0343294
-0.131954
-0.0387898
-0.127507
-0.0421687
-0.122951
-0.0443753
-0.118179
-0.0453682
-0.113189
-0.045093
-0.107988
-0.0435264
-0.102573
-0.0407034
-0.0969533
-0.0367547
-0.0911428
-0.0319133
-0.0851898
-0.0265077
-0.0791695
-0.0209079
-0.0731874
-0.0154569
-0.067374
-0.0103651
-0.0616483
-0.00539429
-0.0552788
-0.0462824
-0.0349189
-0.128027
-0.0396291
-0.124794
-0.043435
-0.121274
-0.0463234
-0.117671
-0.0482187
-0.113939
-0.049065
-0.110057
-0.0488194
-0.106018
-0.0474409
-0.101817
-0.0448974
-0.0974523
-0.0411942
-0.092901
-0.0364161
-0.0881299
-0.0307599
-0.0831021
-0.0245365
-0.0778072
-0.0181323
-0.0722996
-0.0119618
-0.0664688
-0.00597196
-0.0600497
-0.0511677
-0.040878
-0.121205
-0.044746
-0.118657
-0.0478328
-0.115928
-0.0501199
-0.113147
-0.0515746
-0.110284
-0.0521292
-0.10735
-0.051735
-0.10432
-0.0503507
-0.101182
-0.047946
-0.0979218
-0.0444812
-0.0945257
-0.0399278
-0.0909487
-0.0343129
-0.0870976
-0.0277939
-0.082831
-0.0207118
-0.078019
-0.0135102
-0.0724475
-0.00646932
-0.0660141
-0.0567126
-0.0468375
-0.115294
-0.0499189
-0.113462
-0.0522557
-0.111479
-0.0538589
-0.109447
-0.0547162
-0.107357
-0.0548149
-0.105224
-0.0541145
-0.103048
-0.0525631
-0.100829
-0.0501166
-0.0985458
-0.0467346
-0.0961791
-0.0423607
-0.0937001
-0.0369462
-0.0910076
-0.0304438
-0.0879586
-0.0230068
-0.0842216
-0.0150376
-0.0793331
-0.00708704
-0.0730417
-0.0630466
-0.0531239
-0.110527
-0.0553252
-0.109275
-0.0568676
-0.107948
-0.0577416
-0.106595
-0.057935
-0.105212
-0.0574406
-0.103806
-0.056249
-0.10238
-0.0543456
-0.100941
-0.0516936
-0.0994872
-0.0482388
-0.0980188
-0.0439181
-0.096515
-0.0386608
-0.094882
-0.0323333
-0.0930393
-0.0248954
-0.0905619
-0.0164857
-0.0868073
-0.00771726
-0.0810488
-0.0701887
-0.0595744
-0.106575
-0.0610153
-0.105949
-0.0618052
-0.105269
-0.0619493
-0.104574
-0.0614453
-0.103864
-0.0602921
-0.103147
-0.0584931
-0.102423
-0.0560522
-0.101695
-0.0529677
-0.10097
-0.0492302
-0.100254
-0.0448086
-0.0995494
-0.0395923
-0.0988407
-0.033446
-0.0980722
-0.0261107
-0.0969428
-0.0176045
-0.0945323
-0.00850195
-0.0895575
-0.0782979
-0.0665452
-0.103684
-0.0671208
-0.103559
-0.0671217
-0.103454
-0.0665321
-0.103363
-0.0653434
-0.103282
-0.0635512
-0.103214
-0.0611516
-0.103157
-0.058144
-0.103113
-0.0545349
-0.103081
-0.0503351
-0.103063
-0.0455494
-0.103067
-0.0401547
-0.103105
-0.0340808
-0.10317
-0.0270506
-0.103166
-0.0186549
-0.102306
-0.00949163
-0.0982986
-0.0875821
-0.0735598
-0.101454
-0.0734195
-0.101929
-0.0726933
-0.102416
-0.0713916
-0.102922
-0.0695163
-0.103452
-0.067069
-0.104008
-0.0640517
-0.10459
-0.0604675
-0.105198
-0.0563216
-0.105828
-0.0516224
-0.106481
-0.0463819
-0.107159
-0.0406071
-0.10788
-0.0342754
-0.108667
-0.0273199
-0.109468
-0.0192603
-0.109907
-0.0101684
-0.107144
-0.09773
-0.0809947
-0.100292
-0.079951
-0.10122
-0.0784001
-0.10223
-0.0763248
-0.103293
-0.0737194
-0.104401
-0.0705842
-0.105551
-0.0669225
-0.106741
-0.0627399
-0.107966
-0.0580421
-0.109224
-0.0528353
-0.110515
-0.0471341
-0.111833
-0.0409588
-0.113189
-0.034336
-0.1146
-0.0272415
-0.116065
-0.0195481
-0.11731
-0.0105276
-0.116095
-0.108425
-0.0882212
-0.0996895
-0.0864547
-0.101227
-0.0841497
-0.102806
-0.0813302
-0.104429
-0.0780077
-0.106103
-0.0741914
-0.107827
-0.0698898
-0.109597
-0.0651108
-0.111411
-0.0598648
-0.113265
-0.0541723
-0.115146
-0.04805
-0.117052
-0.0415167
-0.118995
-0.0346044
-0.120974
-0.0273596
-0.122974
-0.0195032
-0.125049
-0.0105413
-0.12517
-0.119321
-0.0956415
-0.10015
-0.0929732
-0.102106
-0.0898542
-0.104184
-0.0862691
-0.106339
-0.0822204
-0.108558
-0.0777169
-0.110834
-0.0727684
-0.113163
-0.0673918
-0.115536
-0.0616088
-0.117941
-0.0554298
-0.120379
-0.048872
-0.12284
-0.0419555
-0.12533
-0.0347077
-0.127842
-0.0271684
-0.130348
-0.0190806
-0.133196
-0.0102833
-0.134263
-0.130146
-0.102522
-0.101037
-0.0991475
-0.103645
-0.0952754
-0.106291
-0.0909444
-0.108992
-0.0861772
-0.111751
-0.0809907
-0.114567
-0.0754036
-0.117433
-0.0694391
-0.120335
-0.0631113
-0.123269
-0.0564393
-0.12623
-0.0494426
-0.129208
-0.0421422
-0.132205
-0.0345555
-0.135217
-0.0267228
-0.138193
-0.0185049
-0.141658
-0.00998253
-0.143267
-0.140854
-0.109217
-0.103019
-0.104943
-0.106022
-0.100273
-0.109162
-0.0951941
-0.112387
-0.0897177
-0.115674
-0.0838622
-0.119016
-0.0776552
-0.122395
-0.0711139
-0.125806
-0.064262
-0.12924
-0.0571231
-0.132688
-0.0497209
-0.136138
-0.0420796
-0.139593
-0.0342211
-0.143047
-0.0261879
-0.146428
-0.0179452
-0.150335
-0.00956901
-0.152313
-0.151327
-0.114984
-0.105276
-0.110033
-0.109006
-0.104632
-0.112724
-0.098838
-0.11649
-0.092682
-0.120301
-0.0861919
-0.124155
-0.0793916
-0.128036
-0.0723106
-0.131931
-0.0649759
-0.135831
-0.0574157
-0.139725
-0.0496588
-0.143599
-0.0417375
-0.147449
-0.0336818
-0.151272
-0.0255383
-0.154973
-0.0173557
-0.159151
-0.00902937
-0.161497
-0.161433
-0.120143
-0.108685
-0.114334
-0.112771
-0.108196
-0.116986
-0.101719
-0.121277
-0.0949221
-0.125608
-0.0878414
-0.129958
-0.0805008
-0.134323
-0.0729332
-0.138677
-0.0651696
-0.143013
-0.0572427
-0.147313
-0.049187
-0.15156
-0.0410431
-0.155741
-0.0328531
-0.159848
-0.0246697
-0.163774
-0.0165917
-0.168067
-0.00843036
-0.170705
-0.171102
-0.12403
-0.112173
-0.117605
-0.117078
-0.110806
-0.121881
-0.1037
-0.126707
-0.0963239
-0.131551
-0.0887115
-0.136391
-0.080894
-0.141221
-0.0729035
-0.146014
-0.0647737
-0.150755
-0.056541
-0.155423
-0.0482463
-0.159992
-0.0399392
-0.164435
-0.031681
-0.168731
-0.0235252
-0.172777
-0.0156213
-0.177022
-0.00777561
-0.179783
-0.180265
-0.126918
-0.11688
-0.119743
-0.12207
-0.112331
-0.127375
-0.104672
-0.13273
-0.0967924
-0.138086
-0.0887262
-0.14341
-0.0805069
-0.148693
-0.0721653
-0.153908
-0.0637364
-0.159031
-0.0552612
-0.164031
-0.0467897
-0.168867
-0.0383846
-0.173498
-0.0301228
-0.177883
-0.0220784
-0.181918
-0.0144357
-0.185936
-0.00702613
-0.188606
-0.18881
-0.128309
-0.121392
-0.120639
-0.127508
-0.112702
-0.133407
-0.104569
-0.139299
-0.0962779
-0.145157
-0.0878489
-0.150967
-0.0793103
-0.156705
-0.0706913
-0.162336
-0.0620286
-0.167825
-0.0533704
-0.173124
-0.0447789
-0.178174
-0.0363329
-0.18291
-0.0281321
-0.187266
-0.0202853
-0.191125
-0.0129867
-0.194732
-0.00614555
-0.197034
-0.196582
-0.128433
-0.127193
-0.120212
-0.133473
-0.111868
-0.139894
-0.103381
-0.146335
-0.0947846
-0.15271
-0.0860895
-0.159021
-0.0773152
-0.165229
-0.0684887
-0.171286
-0.0596504
-0.177136
-0.0508587
-0.182707
-0.042192
-0.187914
-0.033752
-0.192663
-0.0256679
-0.196855
-0.018081
-0.200357
-0.0112248
-0.203315
-0.00510548
-0.204903
-0.203396
-0.127037
-0.132396
-0.118524
-0.139743
-0.109876
-0.146778
-0.101159
-0.15377
-0.0923658
-0.160697
-0.0835014
-0.167542
-0.0745701
-0.174258
-0.0655972
-0.180767
-0.0566292
-0.186986
-0.0477385
-0.192808
-0.0390251
-0.198114
-0.0306219
-0.202771
-0.0226991
-0.206638
-0.0154488
-0.209552
-0.00915567
-0.211567
-0.00391316
-0.212042
-0.209067
-0.124299
-0.138965
-0.115548
-0.146308
-0.106777
-0.153934
-0.0979827
-0.161515
-0.0891138
-0.169069
-0.0801701
-0.176516
-0.0711485
-0.183802
-0.0620747
-0.190812
-0.0530052
-0.197421
-0.044031
-0.203479
-0.0352827
-0.208821
-0.0269365
-0.213261
-0.019217
-0.216604
-0.0123793
-0.218652
-0.00676938
-0.219366
-0.00256518
-0.218271
-0.213401
-0.120293
-0.144378
-0.111533
-0.152995
-0.102756
-0.16131
-0.0939962
-0.169535
-0.0851556
-0.177805
-0.0762065
-0.185958
-0.0671409
-0.193907
-0.0579884
-0.201487
-0.0488205
-0.208521
-0.0397552
-0.214804
-0.0309674
-0.220103
-0.0226948
-0.224165
-0.0152316
-0.226732
-0.00890314
-0.227574
-0.0041037
-0.226578
-0.00108044
-0.223421
-0.216219
-0.115127
-0.15123
-0.106522
-0.159704
-0.0979825
-0.168741
-0.0893853
-0.177789
-0.0806577
-0.186916
-0.0717548
-0.195915
-0.0626662
-0.20465
-0.0534297
-0.212894
-0.0441381
-0.220402
-0.0349509
-0.226891
-0.0261069
-0.232042
-0.0179219
-0.235517
-0.0107698
-0.236997
-0.00505273
-0.236223
-0.00120206
-0.233056
0.000508055
-0.227332
-0.217372
-0.109236
-0.156283
-0.100959
-0.166333
-0.0926962
-0.176271
-0.0843647
-0.18627
-0.0758209
-0.196435
-0.0669965
-0.206463
-0.0578837
-0.216142
-0.0485325
-0.225168
-0.0390698
-0.233206
-0.0297158
-0.239869
-0.0207952
-0.244724
-0.0127163
-0.247346
-0.00593337
-0.247368
-0.000909078
-0.244525
0.00188336
-0.238673
0.00216065
-0.229848
-0.216745
-0.102562
-0.162819
-0.0948899
-0.172683
-0.0871246
-0.183773
-0.0791508
-0.194989
-0.0708374
-0.206425
-0.0621033
-0.217706
-0.0529437
-0.228518
-0.0434246
-0.23847
-0.0337277
-0.247094
-0.0241606
-0.253866
-0.0151494
-0.258228
-0.00720282
-0.259668
-0.000860895
-0.257792
0.00336019
-0.252366
0.00502202
-0.243334
0.00380628
-0.23087
-0.214293
-0.0959211
-0.166971
-0.0887629
-0.178929
-0.0814822
-0.191355
-0.0738327
-0.204086
-0.0657289
-0.217024
-0.0570587
-0.229788
-0.047809
-0.24194
-0.0380719
-0.25296
-0.0280784
-0.262225
-0.0182472
-0.269013
-0.00914049
-0.272616
-0.00137166
-0.272474
0.00444083
-0.268193
0.00773448
-0.259609
0.00810039
-0.246842
0.00536905
-0.230328
-0.210045
-0.0888749
-0.172463
-0.0823496
-0.185032
-0.0756402
-0.199028
-0.0684093
-0.213579
-0.060506
-0.228359
-0.0518162
-0.242914
-0.0423386
-0.256662
-0.032231
-0.268899
-0.0218538
-0.278782
-0.0117467
-0.285397
-0.00256888
-0.287917
0.00494524
-0.285712
0.0100947
-0.278438
0.0123225
-0.266096
0.0112926
-0.249057
0.00694175
-0.228066
-0.203937
-0.289077
-0.288252
0.308169
-0.269971
-0.284143
-0.250978
-0.278049
-0.23214
-0.270104
-0.213624
-0.260611
-0.195449
-0.249836
-0.177729
-0.238109
-0.160512
-0.225736
-0.143844
-0.213032
-0.127796
-0.200273
-0.112366
-0.187709
-0.0976205
-0.175537
-0.0835721
-0.163911
-0.070206
-0.152966
-0.0576015
-0.142757
-0.045622
-0.133354
-0.0344588
-0.12471
-0.0238253
-0.116871
-0.0140297
-0.109745
-0.0046209
-0.103332
0.00393385
-0.0975616
0.0122702
-0.0924064
0.0197705
-0.0878222
0.0271996
-0.083741
0.0338313
-0.0801439
0.040571
-0.0769351
0.0465677
-0.0741939
0.0529248
-0.0717073
0.0586396
-0.0697586
0.06511
-0.0680342
0.0711261
-0.0669378
0.0781616
-0.0662652
0.0850555
-0.0663853
0.0930982
-0.0671902
0.101473
-0.0688349
0.110965
-0.0711968
0.121397
-0.0746168
0.132433
-0.0790078
0.145182
-0.0846028
0.157619
-0.0909544
-0.0982732
-0.320429
-0.310617
0.341406
-0.299471
-0.305739
-0.278612
-0.298835
-0.257941
-0.290043
-0.237556
-0.279665
-0.217543
-0.26799
-0.197983
-0.255359
-0.178947
-0.242091
-0.160498
-0.228512
-0.14269
-0.214905
-0.125572
-0.201524
-0.109182
-0.188574
-0.0935324
-0.176227
-0.0786473
-0.164602
-0.0645254
-0.153772
-0.0511871
-0.143778
-0.038599
-0.13462
-0.0267693
-0.126295
-0.0156661
-0.118743
-0.00526118
-0.111955
0.00446936
-0.105848
0.0135942
-0.100434
0.0221332
-0.0956124
0.03017
-0.0913739
0.0377313
-0.087636
0.0449209
-0.084374
0.0517482
-0.0815667
0.0584379
-0.0792108
0.0649657
-0.0773341
0.0716248
-0.0759357
0.0783949
-0.0751004
0.0856113
-0.0749753
0.0932595
-0.0755759
0.101512
-0.0769789
0.110418
-0.0792141
0.120238
-0.0823702
0.13103
-0.0865885
0.142936
-0.0918669
0.155867
-0.0982135
0.169948