/*--------------------------------*- C++ -*----------------------------------*\
  =========                 |
  \\      /  F ield         | OpenFOAM: The Open Source CFD Toolbox
   \\    /   O peration     | Website:  https://openfoam.org
    \\  /    A nd           | Version:  6
     \\/     M anipulation  |
\*---------------------------------------------------------------------------*/
FoamFile
{
    version     2.0;
    format      ascii;
    class       volVectorField;
    location    "1.24";
    object      U;
}
// * * * * * * * * * * * * * * * * * * * * * * * * * * * * * * * * * * * * * //

dimensions      [0 1 -1 0 0 0 0];

internalField   nonuniform List<vector> 
4214
(
(9.93807 -0.170984 -4.16679e-19)
(10.1334 -0.0532468 0)
(10.1745 0.0519329 0)
(10.1912 0.140752 -2.46082e-20)
(10.2183 0.228601 -1.32956e-20)
(10.2612 0.313447 1.44309e-20)
(10.312 0.389277 0)
(10.3602 0.456723 -7.08633e-21)
(10.3952 0.517739 0)
(10.4129 0.573889 0)
(10.4138 0.627284 0)
(10.4002 0.680293 0)
(10.3742 0.734457 2.28709e-21)
(10.34 0.7914 -1.48003e-21)
(10.306 0.852312 1.25329e-21)
(10.2888 0.916508 -1.1988e-21)
(10.2973 0.98587 0)
(10.3135 1.05329 0)
(10.2544 1.10618 -1.28521e-20)
(9.9642 1.05004 1.81203e-20)
(9.28615 0.797564 0)
(9.0745 0.405356 4.00059e-20)
(9.63742 0.16597 0)
(9.85013 -0.0559895 4.0273e-20)
(9.74782 -0.233783 -3.84408e-20)
(9.70166 -0.343814 3.35291e-20)
(9.72791 -0.413132 -1.84874e-20)
(9.77375 -0.458811 -5.92526e-21)
(9.81884 -0.485153 3.40099e-21)
(9.86218 -0.494474 0)
(9.90187 -0.490103 0)
(9.9322 -0.47433 0)
(9.94538 -0.447783 -3.87399e-21)
(9.93619 -0.410622 -2.24385e-21)
(9.9078 -0.361799 0)
(9.87271 -0.298535 -3.17872e-20)
(9.84689 -0.220924 3.20678e-20)
(9.83423 -0.135102 -2.08216e-19)
(9.8311 -0.0401707 4.45335e-19)
(9.79781 0.0829431 4.1511e-20)
(9.62982 0.216885 -3.0353e-19)
(10.289 -0.0600409 1.93512e-19)
(10.2997 0.0317957 -1.66388e-19)
(10.2926 0.112286 1.8191e-19)
(10.2924 0.178348 5.88838e-20)
(10.3081 0.253215 1.47062e-19)
(10.3366 0.329981 -7.33878e-20)
(10.3722 0.40085 -5.35432e-21)
(10.4075 0.465782 4.10332e-20)
(10.435 0.525308 0)
(10.4499 0.580203 -9.18807e-21)
(10.4513 0.632239 0)
(10.4403 0.683801 2.57992e-21)
(10.4189 0.73706 -4.53835e-21)
(10.389 0.794978 -1.22284e-21)
(10.3579 0.859845 -5.35303e-21)
(10.3422 0.932473 1.16063e-20)
(10.3532 1.01733 -2.28131e-20)
(10.3682 1.11084 9.59148e-20)
(10.2601 1.17949 6.33235e-21)
(9.81357 1.09664 -1.97208e-20)
(8.95897 0.74425 -4.28539e-21)
(8.74326 0.314585 -3.93394e-20)
(9.40125 0.116831 0)
(9.60291 -0.124122 0)
(9.55404 -0.307563 0)
(9.57944 -0.424969 1.21156e-20)
(9.65422 -0.501156 -3.6175e-20)
(9.7324 -0.550613 1.4874e-20)
(9.80314 -0.577004 0)
(9.86928 -0.584699 0)
(9.92816 -0.577047 -2.10432e-20)
(9.97507 -0.556496 0)
(10.005 -0.523979 1.96363e-20)
(10.016 -0.479611 1.58768e-20)
(10.0123 -0.423139 -1.85271e-20)
(10.003 -0.354157 -2.68953e-21)
(9.99666 -0.274533 0)
(9.99849 -0.193518 1.54604e-19)
(10.0097 -0.111551 -1.69398e-19)
(10.0177 -0.00226574 0)
(10.0069 0.104308 6.38931e-20)
(10.3412 -0.0302437 -2.20935e-19)
(10.326 0.0480597 0)
(10.3267 0.124048 -1.34169e-19)
(10.33 0.188681 3.42469e-19)
(10.3431 0.259971 -8.90146e-20)
(10.3674 0.333395 7.95705e-20)
(10.3983 0.402811 -1.00585e-20)
(10.4296 0.467459 -1.89724e-20)
(10.4541 0.527253 0)
(10.4674 0.582612 -1.16425e-20)
(10.4682 0.634868 3.46299e-20)
(10.4582 0.686171 -2.0516e-20)
(10.4389 0.739047 6.64628e-21)
(10.4122 0.796854 -4.56768e-21)
(10.3847 0.862486 0)
(10.3737 0.939101 -2.53843e-20)
(10.3923 1.03394 9.13135e-20)
(10.4074 1.14511 -5.88195e-20)
(10.2607 1.20218 2.51601e-20)
(9.69595 1.10201 -2.39548e-20)
(8.73432 0.653382 0)
(8.59322 0.222585 0)
(9.30977 0.0524033 0)
(9.48223 -0.199932 2.58255e-19)
(9.46745 -0.378953 -1.85094e-19)
(9.52668 -0.499815 7.70894e-20)
(9.62466 -0.580468 5.05188e-20)
(9.71806 -0.630085 1.05385e-20)
(9.80366 -0.653738 3.0125e-20)
(9.88237 -0.657879 -2.64009e-20)
(9.95216 -0.644916 6.83706e-20)
(10.0091 -0.617793 0)
(10.0493 -0.577723 -1.60424e-20)
(10.0713 -0.525451 4.89383e-20)
(10.0786 -0.461775 -7.54551e-20)
(10.0788 -0.387702 2.78151e-21)
(10.0787 -0.306049 0)
(10.0805 -0.224451 -2.20764e-19)
(10.0812 -0.140179 -3.26637e-19)
(10.0792 -0.0315906 6.42317e-19)
(10.0949 0.0689835 -6.73603e-20)
(10.3974 0.00714816 5.4744e-19)
(10.3836 0.071702 -4.88996e-19)
(10.3849 0.1424 -4.7997e-19)
(10.3855 0.202747 9.23815e-21)
(10.3935 0.268876 4.73323e-19)
(10.4113 0.338522 -1.69921e-19)
(10.4356 0.406118 1.46077e-20)
(10.4611 0.470163 -4.00409e-20)
(10.4816 0.530077 2.48584e-20)
(10.4928 0.585892 0)
(10.493 0.638498 0)
(10.4839 0.689843 -1.04594e-20)
(10.4666 0.742591 1.00405e-20)
(10.4438 0.800474 0)
(10.421 0.867092 -2.2595e-20)
(10.4167 0.94827 1.17056e-19)
(10.447 1.05488 -9.7168e-20)
(10.4505 1.17976 1.80205e-19)
(10.2556 1.21302 2.92402e-19)
(9.52969 1.09102 3.03578e-19)
(8.45352 0.533635 0)
(8.43854 0.105231 0)
(9.17894 -0.0505106 -4.24853e-20)
(9.33413 -0.304473 -2.16619e-19)
(9.36106 -0.480718 2.27428e-19)
(9.46358 -0.605836 -2.8941e-19)
(9.58969 -0.687991 -3.41551e-20)
(9.70457 -0.734849 -1.42865e-20)
(9.81014 -0.754476 2.24903e-20)
(9.90609 -0.752031 2.3431e-20)
(9.99075 -0.730948 -7.41827e-20)
(10.0612 -0.694762 1.24506e-19)
(10.1148 -0.645538 0)
(10.1509 -0.584836 -7.99219e-20)
(10.1727 -0.514187 -5.54775e-20)
(10.1859 -0.435285 -3.75358e-20)
(10.1955 -0.351437 2.72311e-19)
(10.2029 -0.269811 -6.65415e-19)
(10.2059 -0.187002 3.56282e-19)
(10.2027 -0.0808797 9.21644e-19)
(10.2095 0.0133084 -9.57309e-19)
(10.4481 0.0268517 0)
(10.4338 0.0891566 2.60522e-19)
(10.433 0.155304 8.38091e-19)
(10.4318 0.212497 1.0475e-19)
(10.4366 0.274966 -4.08469e-19)
(10.4503 0.341714 1.78817e-19)
(10.4701 0.40797 -1.74079e-19)
(10.4914 0.471763 -1.84521e-19)
(10.5085 0.532101 0)
(10.5174 0.588671 -2.67143e-20)
(10.5166 0.641978 -1.52994e-22)
(10.5077 0.693838 -1.23127e-20)
(10.4919 0.74659 0)
(10.473 0.804229 -1.09243e-20)
(10.4555 0.871293 0)
(10.4611 0.95636 -6.04506e-20)
(10.5041 1.07315 0)
(10.4861 1.19788 -2.35351e-19)
(10.2403 1.21376 -2.29719e-19)
(9.33337 1.04327 -2.99034e-19)
(8.16249 0.374332 1.58763e-20)
(8.3174 -0.0306117 -1.52209e-20)
(9.06857 -0.188352 0)
(9.21047 -0.430346 -3.0085e-19)
(9.27623 -0.605367 1.79941e-19)
(9.41511 -0.731919 1.31821e-19)
(9.56494 -0.81256 0)
(9.70359 -0.855103 2.38093e-20)
(9.82932 -0.867748 4.11543e-20)
(9.94294 -0.855632 3.31399e-19)
(10.0426 -0.823535 4.2972e-20)
(10.1263 -0.775913 -1.61587e-19)
(10.1924 -0.71593 0)
(10.241 -0.646127 3.32138e-20)
(10.2745 -0.568649 1.39424e-19)
(10.2978 -0.485435 -5.95348e-20)
(10.3142 -0.399478 -8.37202e-20)
(10.3247 -0.316915 1.99957e-20)
(10.328 -0.235212 6.38036e-19)
(10.3247 -0.133068 -1.20696e-18)
(10.3304 -0.0390776 6.36347e-19)
(10.4982 0.0484085 0)
(10.485 0.104527 8.5953e-19)
(10.482 0.166318 1.75304e-19)
(10.4787 0.22104 9.62119e-21)
(10.4809 0.280499 -6.80959e-19)
(10.4911 0.344809 -3.04578e-20)
(10.5069 0.409902 1.93322e-19)
(10.5242 0.473462 1.43676e-19)
(10.538 0.53417 -6.25391e-20)
(10.5444 0.591463 5.24819e-20)
(10.5422 0.645551 -6.86073e-21)
(10.533 0.69815 -1.51405e-20)
(10.5184 0.751067 9.44553e-21)
(10.503 0.808443 3.6063e-21)
(10.4917 0.875965 -7.14464e-20)
(10.5098 0.965318 -1.50927e-20)
(10.5622 1.08934 3.21787e-20)
(10.5196 1.20589 -3.06388e-20)
(10.2037 1.20526 -3.69383e-19)
(9.09279 0.931654 0)
(7.8688 0.168661 9.39598e-21)
(8.19377 -0.177073 -9.02004e-21)
(8.96263 -0.3487 1.11557e-18)
(9.10099 -0.576907 3.75591e-19)
(9.20258 -0.752281 -7.90827e-19)
(9.37244 -0.877359 2.80654e-19)
(9.54945 -0.954002 -2.72486e-20)
(9.71481 -0.990171 -5.76703e-20)
(9.86263 -0.9922 -5.58504e-20)
(9.99527 -0.966953 -9.63883e-20)
(10.1106 -0.920701 -3.63345e-19)
(10.2076 -0.859219 1.71924e-19)
(10.2855 -0.786907 1.31717e-19)
(10.3449 -0.707358 1.1618e-19)
(10.3886 -0.623236 1.6968e-20)
(10.4205 -0.536476 2.68222e-19)
(10.4436 -0.449662 1.33356e-19)
(10.4586 -0.367708 -3.57367e-20)
(10.4641 -0.287661 2.42911e-20)
(10.4606 -0.189908 0)
(10.4631 -0.100716 -1.77641e-18)
(10.5483 0.0659045 0)
(10.5344 0.11758 -9.3249e-19)
(10.5292 0.175868 0)
(10.5244 0.22876 -8.50705e-19)
(10.5247 0.285888 1.5103e-18)
(10.5323 0.348199 0)
(10.545 0.412268 2.82985e-19)
(10.5587 0.475562 -1.26538e-20)
(10.5692 0.536505 9.36262e-20)
(10.5729 0.594381 0)
(10.5689 0.649191 0)
(10.5591 0.70261 -1.2362e-20)
(10.5451 0.755679 1.179e-20)
(10.533 0.812778 -7.49139e-21)
(10.5294 0.881328 9.86026e-20)
(10.5616 0.975274 -2.77825e-20)
(10.62 1.10187 2.64729e-20)
(10.5507 1.20775 3.52732e-19)
(10.1273 1.17837 3.64237e-19)
(8.80258 0.75321 9.54658e-19)
(7.59265 -0.0727742 1.10417e-20)
(8.10436 -0.336264 1.54539e-18)
(8.86526 -0.528891 -1.11353e-18)
(9.01009 -0.745032 -4.50949e-20)
(9.14071 -0.918333 6.08499e-19)
(9.33896 -1.03944 -2.93439e-19)
(9.54588 -1.1106 -8.81554e-20)
(9.7408 -1.13683 0)
(9.91258 -1.12417 3.83771e-19)
(10.065 -1.08195 -4.82903e-19)
(10.1958 -1.01813 0)
(10.3052 -0.940056 0)
(10.3929 -0.853377 -2.51814e-19)
(10.4607 -0.762642 0)
(10.5113 -0.671046 0)
(10.549 -0.580577 -1.61417e-19)
(10.577 -0.493574 2.10813e-19)
(10.5962 -0.413633 -3.50906e-19)
(10.6049 -0.336629 8.49362e-19)
(10.6026 -0.244961 -8.84338e-19)
(10.6035 -0.162439 9.22332e-19)
(10.599 0.0836329 1.3995e-18)
(10.5838 0.130068 0)
(10.5767 0.185207 -8.94015e-19)
(10.5709 0.236758 -1.04121e-18)
(10.5699 0.2921 -1.08149e-18)
(10.5753 0.35274 -6.63071e-19)
(10.5851 0.415817 -2.78155e-19)
(10.5955 0.478677 -2.71853e-19)
(10.6025 0.539578 -7.3953e-22)
(10.6033 0.597776 4.97069e-20)
(10.5972 0.653145 -4.36543e-21)
(10.5863 0.707386 7.40967e-21)
(10.5724 0.760423 -4.78596e-20)
(10.5637 0.817264 -3.96332e-21)
(10.569 0.887814 -1.10396e-19)
(10.6165 0.984237 0)
(10.6777 1.10759 -2.89954e-19)
(10.5738 1.18607 4.46005e-19)
(10.002 1.11473 0)
(8.46597 0.508812 -2.06012e-18)
(7.34707 -0.330536 0)
(8.03659 -0.512168 -3.29374e-18)
(8.77482 -0.73324 0)
(8.93704 -0.935035 0)
(9.08855 -1.10251 -1.16534e-20)
(9.31696 -1.21663 1.13761e-20)
(9.556 -1.27978 -1.46409e-19)
(9.78308 -1.29271 5.64546e-19)
(9.98085 -1.26103 -3.10509e-19)
(10.1536 -1.19766 4.12317e-19)
(10.2993 -1.11273 -1.84553e-20)
(10.4196 -1.01513 1.59454e-20)
(10.5148 -0.911766 7.61159e-19)
(10.5881 -0.807818 0)
(10.6423 -0.706934 0)
(10.6822 -0.611245 0)
(10.7118 -0.523208 0)
(10.7334 -0.445526 2.58316e-19)
(10.7456 -0.372759 -1.03507e-18)
(10.746 -0.289556 1.1265e-18)
(10.7461 -0.216775 1.36227e-19)
(10.6508 0.10137 -3.07205e-18)
(10.6343 0.143691 2.09877e-18)
(10.6255 0.195825 5.13527e-19)
(10.6188 0.246168 1.0053e-18)
(10.6168 0.30008 -7.60722e-19)
(10.6204 0.359233 5.28802e-19)
(10.6275 0.421216 -7.90734e-20)
(10.6343 0.483348 -3.00172e-20)
(10.6377 0.543855 6.32009e-20)
(10.6353 0.602085 -9.28696e-20)
(10.6269 0.657843 3.75156e-20)
(10.6146 0.712836 -4.31646e-21)
(10.6003 0.765443 -4.1617e-21)
(10.5953 0.822409 0)
(10.6093 0.894882 2.42885e-19)
(10.6734 0.987955 -1.07888e-21)
(10.7247 1.10299 2.98002e-19)
(10.579 1.12056 1.39534e-19)
(9.82967 0.987082 0)
(8.08798 0.200935 -2.72932e-19)
(7.14247 -0.585285 7.35536e-22)
(7.98517 -0.704995 1.74202e-18)
(8.69288 -0.960265 2.39722e-21)
(8.88173 -1.14628 -2.33222e-21)
(9.04823 -1.30412 0)
(9.30775 -1.40901 -2.00827e-20)
(9.58138 -1.4595 2.34029e-19)
(9.84309 -1.45519 -5.61854e-19)
(10.0687 -1.40091 1.09939e-18)
(10.2624 -1.31243 -1.34388e-18)
(10.4216 -1.20319 -1.54354e-18)
(10.5514 -1.08341 0)
(10.6518 -0.961341 -1.68969e-18)
(10.7276 -0.842234 -7.43353e-19)
(10.7817 -0.729829 -2.34161e-19)
(10.8197 -0.626324 0)
(10.8462 -0.534434 0)
(10.866 -0.456932 -8.65369e-19)
(10.8789 -0.387563 1.20152e-18)
(10.8818 -0.313552 -2.60553e-18)
(10.882 -0.251253 -5.68671e-20)
(10.7036 0.121286 1.62096e-18)
(10.6866 0.160112 -1.42921e-18)
(10.6766 0.20922 0)
(10.6694 0.258247 0)
(10.6663 0.310841 9.46281e-19)
(10.668 0.368492 -2.04342e-19)
(10.6721 0.429128 -5.88388e-19)
(10.6752 0.490145 4.37068e-19)
(10.6747 0.549909 -1.80872e-21)
(10.6689 0.60795 4.81601e-20)
(10.6579 0.663993 -3.62634e-20)
(10.6439 0.719569 0)
(10.6289 0.771303 4.65879e-20)
(10.6276 0.829518 -5.07448e-21)
(10.6489 0.899989 -2.60955e-19)
(10.7277 0.982943 -1.21975e-20)
(10.7453 1.07285 0)
(10.5475 1.01877 -9.44122e-19)
(9.59754 0.748082 1.70238e-20)
(7.6716 -0.14484 1.383e-18)
(6.97709 -0.817729 0)
(7.94023 -0.918263 -1.43734e-20)
(8.61954 -1.20702 -1.61423e-18)
(8.84279 -1.37965 -9.91494e-19)
(9.02333 -1.52276 -6.27444e-21)
(9.31388 -1.61587 2.63949e-20)
(9.62281 -1.64919 0)
(9.92188 -1.62323 1.15145e-18)
(10.1772 -1.54356 2.45737e-19)
(10.3925 -1.42686 1.56786e-18)
(10.5639 -1.29129 1.59265e-18)
(10.7019 -1.1478 -2.26089e-19)
(10.8049 -1.00575 2.02697e-18)
(10.8809 -0.870308 2.68081e-18)
(10.932 -0.74483 -5.52982e-19)
(10.9646 -0.631587 -1.24948e-18)
(10.9836 -0.532874 -3.24522e-20)
(10.9958 -0.45161 -3.03774e-20)
(11.0026 -0.381546 1.36603e-18)
(11.0037 -0.313727 -1.43838e-18)
(11.0019 -0.261228 -3.97449e-19)
(10.7586 0.144422 0)
(10.7418 0.180329 2.43208e-18)
(10.7311 0.226614 -6.70914e-20)
(10.7231 0.274169 -1.23872e-18)
(10.7189 0.325303 -5.62438e-19)
(10.7182 0.381214 0)
(10.7189 0.440117 1.12637e-18)
(10.7179 0.499633 -7.21156e-19)
(10.7134 0.558449 -1.32417e-19)
(10.7041 0.616259 0)
(10.6906 0.672561 0)
(10.6743 0.728391 -4.41672e-20)
(10.6579 0.77876 -1.80848e-20)
(10.6606 0.839617 -2.05976e-20)
(10.6887 0.899868 1.47224e-19)
(10.771 0.969561 3.14123e-19)
(10.7515 1.00889 0)
(10.4584 0.875237 4.24019e-20)
(9.29507 0.453855 -4.17604e-20)
(7.28636 -0.478183 -2.22404e-18)
(6.85574 -1.03466 0)
(7.88773 -1.15671 -2.37872e-18)
(8.55698 -1.47172 1.64218e-18)
(8.81953 -1.6375 9.59643e-19)
(9.01688 -1.76149 4.10315e-20)
(9.33937 -1.83811 0)
(9.6826 -1.84966 9.95558e-19)
(10.0207 -1.79777 -9.18266e-19)
(10.3065 -1.69082 -1.85294e-18)
(10.545 -1.54433 -1.62903e-18)
(10.7275 -1.38217 -2.50557e-19)
(10.8726 -1.21482 -3.04119e-18)
(10.9755 -1.05261 -2.50495e-18)
(11.0504 -0.901238 -1.78849e-18)
(11.0969 -0.76263 1.3878e-18)
(11.1228 -0.639505 2.63266e-18)
(11.1322 -0.532751 7.47396e-19)
(11.1317 -0.44388 -1.46933e-18)
(11.1255 -0.36788 1.5395e-18)
(11.1174 -0.300238 1.60377e-18)
(11.109 -0.256763 -3.0254e-18)
(10.8175 0.171127 1.96765e-18)
(10.8008 0.204936 1.4102e-19)
(10.7896 0.248715 0)
(10.7806 0.29463 0)
(10.7745 0.343991 1.06937e-18)
(10.7709 0.397787 0)
(10.7676 0.454581 4.02156e-19)
(10.7624 0.512462 3.40996e-19)
(10.7539 0.570447 -2.82316e-19)
(10.7412 0.628165 2.72936e-19)
(10.7246 0.684647 8.09781e-20)
(10.7047 0.740079 -1.26911e-19)
(10.6864 0.788069 5.49505e-20)
(10.6933 0.850272 5.91001e-20)
(10.7283 0.891257 -2.24716e-20)
(10.7945 0.947725 -6.83464e-19)
(10.7269 0.929146 0)
(10.2949 0.700716 -5.21927e-20)
(8.9407 0.189475 -1.65223e-20)
(6.92204 -0.754562 2.31032e-18)
(6.76372 -1.24784 0)
(7.81747 -1.42047 2.40114e-18)
(8.5002 -1.75391 8.51827e-20)
(8.8147 -1.92186 -8.32499e-20)
(9.03251 -2.0259 0)
(9.38761 -2.08085 -7.4276e-19)
(9.76351 -2.06522 -1.01175e-18)
(10.1408 -1.98259 1.90411e-18)
(10.456 -1.84729 2.32043e-18)
(10.7207 -1.67068 2.13731e-18)
(10.9125 -1.48297 0)
(11.0643 -1.29271 1.8227e-18)
(11.1646 -1.11171 3.33072e-18)
(11.2376 -0.946527 1.46223e-18)
(11.2789 -0.796507 -2.91295e-18)
(11.2989 -0.665421 0)
(11.2995 -0.550567 -3.18748e-18)
(11.2869 -0.453633 1.64321e-18)
(11.2667 -0.370511 -1.72143e-18)
(11.2445 -0.297992 0)
(11.2251 -0.250858 -3.81904e-18)
(10.8814 0.200775 3.13861e-20)
(10.864 0.233359 -3.32664e-18)
(10.8517 0.274955 1.55819e-18)
(10.8415 0.319198 -1.3908e-18)
(10.8329 0.366609 0)
(10.8257 0.418258 -9.83256e-19)
(10.8182 0.472959 4.01213e-21)
(10.8087 0.52963 -7.80169e-19)
(10.7962 0.587127 4.35481e-20)
(10.7794 0.644783 2.95644e-19)
(10.7586 0.700974 2.71819e-20)
(10.733 0.754464 0)
(10.7125 0.798332 1.29281e-19)
(10.7205 0.855776 -2.80535e-20)
(10.7537 0.871873 0)
(10.7987 0.912873 -9.8471e-20)
(10.6471 0.836884 -9.34973e-20)
(10.069 0.52256 9.19655e-20)
(8.56329 -0.0482222 2.60188e-18)
(6.52342 -0.960897 3.2232e-18)
(6.67398 -1.44772 0)
(7.72691 -1.70426 2.75532e-18)
(8.43924 -2.05597 7.01023e-20)
(8.82685 -2.23767 7.37156e-19)
(9.07378 -2.32356 3.65917e-19)
(9.46287 -2.35392 -4.85199e-19)
(9.86803 -2.30568 1.93428e-18)
(10.2843 -2.18531 5.10105e-19)
(10.6245 -2.02033 -2.36518e-18)
(10.9194 -1.81262 -3.14527e-18)
(11.1175 -1.60063 -7.83297e-19)
(11.2769 -1.38923 2.40607e-18)
(11.3728 -1.19122 -5.17328e-18)
(11.4426 -1.01486 -1.89793e-18)
(11.4773 -0.855834 -1.61047e-18)
(11.4931 -0.719337 3.48878e-18)
(11.4885 -0.600007 -9.10651e-20)
(11.4701 -0.499239 -1.91721e-18)
(11.441 -0.411483 -1.97333e-18)
(11.4076 -0.335256 1.01689e-18)
(11.3779 -0.281062 0)
(10.9487 0.229638 -2.9134e-21)
(10.9302 0.262045 5.07461e-18)
(10.9164 0.302422 -1.4498e-18)
(10.9046 0.346004 1.30211e-18)
(10.8931 0.392161 -1.27476e-18)
(10.882 0.442622 -1.0305e-18)
(10.87 0.495805 1.00988e-18)
(10.8564 0.551933 2.05387e-18)
(10.8394 0.608796 -7.09437e-20)
(10.8177 0.665794 -6.36321e-19)
(10.7911 0.720737 -2.64824e-20)
(10.7582 0.770388 1.88228e-19)
(10.7353 0.809036 -1.71329e-19)
(10.7374 0.855056 0)
(10.7523 0.845964 2.76602e-19)
(10.7749 0.869975 1.2108e-18)
(10.4966 0.731814 1.71241e-18)
(9.79061 0.363557 -2.26439e-19)
(8.15883 -0.249544 -2.83386e-18)
(6.10173 -1.10289 -3.06663e-18)
(6.53517 -1.62647 0)
(7.61127 -2.00299 -2.87208e-18)
(8.35894 -2.38319 0)
(8.84847 -2.5971 -7.60489e-19)
(9.14312 -2.6673 3.39394e-19)
(9.57229 -2.67091 1.31699e-18)
(10.0023 -2.58436 -4.60099e-18)
(10.4593 -2.41655 -1.32416e-19)
(10.8158 -2.21757 7.53461e-19)
(11.1417 -1.97504 3.2114e-18)
(11.3423 -1.73858 4.02038e-18)
(11.5094 -1.50719 0)
(11.5982 -1.29401 3.60988e-18)
(11.6635 -1.10638 -4.44524e-19)
(11.6899 -0.942447 -5.95861e-18)
(11.7035 -0.802677 0)
(11.6962 -0.683193 -2.08352e-18)
(11.678 -0.58264 1.94896e-18)
(11.6469 -0.495403 2.00257e-18)
(11.6106 -0.421235 -1.0298e-18)
(11.5765 -0.366717 1.14415e-18)
(11.0144 0.248347 0)
(10.9956 0.284659 -3.34086e-18)
(10.9807 0.326225 -1.59866e-18)
(10.9674 0.371671 0)
(10.9538 0.417873 -1.21434e-19)
(10.9393 0.468506 2.27007e-18)
(10.924 0.520865 -1.06095e-18)
(10.9058 0.57629 0)
(10.8842 0.631922 -3.60452e-19)
(10.8561 0.68718 0)
(10.8237 0.740025 0)
(10.7828 0.785744 -7.79732e-20)
(10.7599 0.820761 1.08446e-19)
(10.7548 0.853842 -2.10116e-20)
(10.7466 0.827781 -5.26444e-19)
(10.7261 0.833303 -3.89703e-19)
(10.2978 0.634848 -2.12551e-18)
(9.44869 0.245525 -1.26706e-19)
(7.67122 -0.40634 4.09387e-19)
(5.65029 -1.20156 4.81796e-18)
(6.33219 -1.8085 -5.81524e-20)
(7.46401 -2.32228 3.24643e-18)
(8.25707 -2.73841 0)
(8.87943 -3.01411 4.31967e-20)
(9.24851 -3.06957 6.60241e-19)
(9.72909 -3.04788 -2.51561e-18)
(10.1863 -2.91265 2.68565e-18)
(10.6833 -2.68633 -4.15771e-18)
(11.0434 -2.44279 5.60266e-18)
(11.3924 -2.15634 0)
(11.5893 -1.89489 -4.11134e-18)
(11.7624 -1.63775 6.96438e-18)
(11.8388 -1.41641 -2.23088e-18)
(11.9002 -1.21139 1.67314e-18)
(11.9151 -1.04889 -2.38323e-18)
(11.9257 -0.902608 1.11189e-17)
(11.9146 -0.787091 1.99964e-18)
(11.8984 -0.687027 -4.52549e-18)
(11.8686 -0.604953 0)
(11.8356 -0.534992 -2.18145e-18)
(11.8013 -0.481154 3.63116e-18)
(11.0704 0.248604 -3.50612e-18)
(11.0556 0.290159 1.84683e-18)
(11.0459 0.334098 4.72891e-18)
(11.0306 0.383558 0)
(11.0179 0.432455 -1.27351e-18)
(10.9988 0.48387 1.36743e-18)
(10.9817 0.53842 2.16367e-18)
(10.9577 0.591885 -5.05582e-19)
(10.9321 0.648918 -4.42922e-19)
(10.8972 0.702009 0)
(10.8598 0.754864 5.10517e-19)
(10.8096 0.798511 -1.73592e-19)
(10.7912 0.828715 -4.89221e-19)
(10.7816 0.849253 -1.22887e-20)
(10.7549 0.823697 2.50882e-19)
(10.6927 0.820815 0)
(10.0652 0.592428 -1.25048e-18)
(9.02322 0.224954 4.2718e-18)
(7.06684 -0.51611 -5.53646e-18)
(5.13041 -1.30992 -5.25406e-18)
(6.04723 -2.03035 -6.34739e-20)
(7.27041 -2.69006 -3.35125e-18)
(8.13658 -3.12299 1.4771e-19)
(8.92609 -3.50018 -1.3499e-19)
(9.39811 -3.53404 -3.87277e-18)
(9.95217 -3.49992 2.57408e-18)
(10.4461 -3.29738 0)
(10.9768 -2.99811 0)
(11.3236 -2.69985 -2.14405e-18)
(11.6827 -2.3423 -5.63453e-18)
(11.8588 -2.06795 5.87003e-22)
(12.0365 -1.75913 -7.52217e-18)
(12.0924 -1.54898 2.99656e-18)
(12.1511 -1.30909 2.00845e-18)
(12.1503 -1.16 0)
(12.1541 -0.994075 2.48624e-18)
(12.1348 -0.890324 -9.8014e-18)
(12.1166 -0.780741 2.71906e-18)
(12.0864 -0.708499 4.98538e-18)
(12.0562 -0.635398 -9.05317e-20)
(12.0222 -0.584831 -5.06972e-18)
(11.1386 0.199641 1.87598e-18)
(11.1222 0.248335 3.36437e-18)
(11.1174 0.310286 -3.36863e-18)
(11.0974 0.359712 1.60776e-18)
(11.083 0.426389 -2.68465e-18)
(11.0588 0.4732 4.03628e-18)
(11.0369 0.542016 -1.10022e-18)
(11.0092 0.588635 -1.59312e-18)
(10.9765 0.658562 4.32157e-19)
(10.939 0.708 7.00408e-19)
(10.889 0.767046 -7.31689e-19)
(10.8327 0.80937 3.5053e-19)
(10.8141 0.831713 -3.45235e-20)
(10.7966 0.842095 -1.58057e-19)
(10.7327 0.833857 1.93484e-19)
(10.6575 0.846177 3.18806e-19)
(9.73611 0.642042 1.32277e-18)
(8.51923 0.366746 -3.33143e-18)
(6.49141 -0.546151 5.31489e-18)
(4.6178 -1.47717 1.79225e-19)
(5.68517 -2.27825 -4.07852e-20)
(7.01201 -3.13175 -2.69685e-19)
(7.9487 -3.55213 1.3599e-19)
(8.98465 -4.06908 0)
(9.555 -4.06651 -1.84913e-18)
(10.2575 -4.03497 6.1303e-18)
(10.7535 -3.75965 0)
(11.3524 -3.34208 6.5298e-18)
(11.6438 -3.01401 6.90148e-18)
(12.0194 -2.51012 5.79711e-18)
(12.1425 -2.26411 0)
(12.3234 -1.84895 3.43246e-18)
(12.3521 -1.68272 -5.56146e-18)
(12.4053 -1.37391 8.48069e-18)
(12.3915 -1.26225 -6.02761e-18)
(12.3783 -1.04576 0)
(12.353 -0.972798 2.87172e-18)
(12.3196 -0.826996 -2.58026e-18)
(12.292 -0.778165 5.18984e-18)
(12.2537 -0.677796 -2.83171e-18)
(12.2259 -0.642666 1.31953e-17)
(12.1911 -0.570517 -9.85127e-18)
(11.9992 -0.543397 5.36276e-18)
(11.7802 -0.451635 0)
(11.559 -0.345817 0)
(11.3664 -0.269777 -2.43746e-18)
(11.2193 -0.24488 2.3266e-18)
(11.1099 -0.254816 2.16362e-18)
(11.0111 -0.270161 0)
(10.9013 -0.264675 3.72675e-18)
(10.7767 -0.239191 1.74621e-18)
(10.6449 -0.193328 1.56312e-19)
(10.5134 -0.139977 3.79711e-18)
(10.3896 -0.0812985 2.39336e-18)
(10.2752 -0.037191 2.03673e-18)
(10.1674 0.0380023 -1.67242e-18)
(9.97281 0.0604069 -1.62462e-18)
(9.36662 0.26156 2.46807e-19)
(12.1739 -0.543217 -6.04751e-18)
(11.9976 -0.518088 -1.21793e-17)
(11.7978 -0.440893 6.00495e-18)
(11.5898 -0.342135 0)
(11.4022 -0.258053 -2.99276e-18)
(11.2522 -0.212677 -4.663e-20)
(11.1422 -0.204846 2.72303e-18)
(11.0586 -0.216077 2.52287e-18)
(10.9777 -0.223131 -2.2322e-18)
(10.8844 -0.209637 -6.08916e-18)
(10.7764 -0.174698 1.58422e-19)
(10.6587 -0.127825 -6.67068e-18)
(10.5385 -0.0689125 -8.85212e-19)
(10.4188 -0.0279677 3.79892e-19)
(10.2879 0.0508151 1.96088e-18)
(10.0626 0.0217289 -4.76802e-19)
(9.34637 0.249713 1.62849e-18)
(12.1507 -0.484686 1.98696e-19)
(11.9967 -0.488519 6.92302e-18)
(11.8086 -0.427668 -6.91568e-18)
(11.6058 -0.338108 -1.68458e-18)
(11.4189 -0.253142 1.72242e-18)
(11.2656 -0.19977 0)
(11.1516 -0.181421 -3.06841e-18)
(11.0746 -0.185994 3.16183e-18)
(11.0151 -0.191318 2.87039e-18)
(10.9516 -0.185314 0)
(10.8719 -0.16138 -2.50931e-18)
(10.7741 -0.123729 6.52919e-18)
(10.6625 -0.0698046 -3.95917e-18)
(10.5388 -0.0311823 -1.98666e-19)
(10.3868 0.0511755 -1.58124e-19)
(10.1074 0.0130235 1.02999e-18)
(9.31916 0.272691 5.28289e-19)
(12.1386 -0.4552 7.75714e-18)
(11.9994 -0.46209 0)
(11.8245 -0.416207 0)
(11.6269 -0.339155 1.92769e-18)
(11.438 -0.255672 7.76904e-18)
(11.2788 -0.194687 5.78113e-18)
(11.1575 -0.164399 3.65603e-18)
(11.0799 -0.15962 -7.19044e-18)
(11.036 -0.164151 -1.39514e-20)
(11.0003 -0.163206 -3.30329e-18)
(10.9525 -0.147845 2.93953e-18)
(10.8807 -0.118681 0)
(10.7828 -0.0710329 0)
(10.655 -0.0337815 -2.39173e-19)
(10.4766 0.0488726 -2.24398e-18)
(10.1428 0.010059 -2.03894e-18)
(9.28828 0.28132 -4.68343e-18)
(12.1258 -0.402293 1.07825e-18)
(12.0072 -0.432353 -6.42891e-18)
(11.8465 -0.403691 -1.09339e-17)
(11.6554 -0.341097 0)
(11.4634 -0.263371 -4.45398e-18)
(11.2956 -0.197445 -2.2009e-18)
(11.165 -0.157986 2.21272e-18)
(11.0807 -0.143088 -4.29864e-18)
(11.0436 -0.143846 8.19326e-18)
(11.027 -0.144649 -4.00382e-18)
(11.0079 -0.135718 3.65944e-18)
(10.9661 -0.114533 -7.22503e-18)
(10.8895 -0.0746339 0)
(10.7617 -0.0393227 -3.74999e-20)
(10.5538 0.0437513 8.49807e-18)
(10.1627 0.00786682 2.42772e-18)
(9.24438 0.282814 2.10125e-18)
(12.1198 -0.36684 -1.1881e-18)
(12.0181 -0.400957 1.46155e-17)
(11.8751 -0.388119 1.12017e-17)
(11.6956 -0.341388 0)
(11.5032 -0.27266 0)
(11.3249 -0.205263 -2.57576e-20)
(11.1814 -0.156951 0)
(11.0861 -0.133006 4.95521e-18)
(11.0472 -0.128073 -2.30046e-18)
(11.039 -0.129223 2.39312e-18)
(11.0381 -0.125112 -4.61473e-18)
(11.0239 -0.110456 2.10752e-18)
(10.9756 -0.0794642 2.09632e-18)
(10.8573 -0.0471893 0)
(10.6188 0.0324352 -3.47586e-18)
(10.1683 0.00361103 0)
(9.18488 0.274202 0)
(12.1146 -0.314308 0)
(12.0323 -0.365144 -4.10205e-18)
(11.9094 -0.36805 -1.38244e-18)
(11.7471 -0.337879 5.57059e-18)
(11.561 -0.281015 0)
(11.3754 -0.216811 -7.1415e-18)
(11.2159 -0.161658 1.43872e-18)
(11.1035 -0.127409 5.70749e-18)
(11.0525 -0.114204 -8.4214e-18)
(11.0439 -0.113764 -4.4531e-20)
(11.0484 -0.113682 5.31419e-18)
(11.0508 -0.104748 2.64756e-18)
(11.0286 -0.0837634 2.47183e-18)
(10.9358 -0.0556809 -4.78913e-18)
(10.6716 0.0164799 2.31226e-18)
(10.1622 -0.00438702 -2.22555e-18)
(9.11085 0.25528 -4.1647e-18)
(12.1114 -0.271336 6.50547e-18)
(12.047 -0.325783 6.6513e-18)
(11.9462 -0.341799 0)
(11.8066 -0.32889 -7.01511e-18)
(11.6356 -0.285758 6.14859e-21)
(11.4511 -0.229316 7.97268e-19)
(11.2783 -0.172081 0)
(11.1431 -0.127848 -8.0014e-18)
(11.0646 -0.103587 1.60454e-18)
(11.048 -0.0962747 6.30277e-18)
(11.0512 -0.0982666 4.84882e-20)
(11.0574 -0.0945784 -1.49911e-18)
(11.0512 -0.0840083 -1.49527e-18)
(10.9866 -0.0613523 2.90927e-18)
(10.7156 -0.00148022 -1.36059e-18)
(10.1527 -0.0149872 3.90616e-18)
(9.02806 0.224733 4.83284e-18)
(12.1074 -0.21624 -5.62668e-18)
(12.0605 -0.281546 -6.56346e-18)
(11.9822 -0.308403 6.57361e-18)
(11.8688 -0.312015 6.65702e-18)
(11.721 -0.284654 0)
(11.5492 -0.239606 6.79169e-18)
(11.3727 -0.186011 0)
(11.2169 -0.136408 -4.31079e-19)
(11.106 -0.100505 8.69631e-19)
(11.0536 -0.0825569 3.048e-18)
(11.0496 -0.0779154 -3.46037e-18)
(11.0547 -0.0774011 8.53134e-19)
(11.0588 -0.0767742 -2.52142e-18)
(11.0141 -0.061256 1.73832e-18)
(10.7564 -0.0182098 -2.44465e-18)
(10.1539 -0.0225852 -3.17338e-18)
(8.95086 0.182518 -3.81461e-18)
(12.1015 -0.166692 0)
(12.0698 -0.233058 0)
(12.0134 -0.267805 -8.05916e-20)
(11.9275 -0.285616 -1.41553e-17)
(11.8084 -0.27517 -2.21794e-19)
(11.6601 -0.244367 1.51008e-19)
(11.4939 -0.199463 0)
(11.3291 -0.150879 0)
(11.1891 -0.108073 0)
(11.0942 -0.07799 -7.34874e-18)
(11.052 -0.0620157 3.68201e-18)
(11.0456 -0.0575028 0)
(11.0482 -0.0595137 -4.11353e-18)
(11.022 -0.052992 -3.11273e-18)
(10.7987 -0.0305728 3.4884e-18)
(10.1815 -0.0270005 3.41893e-18)
(8.90019 0.136899 3.32378e-18)
(12.0918 -0.108902 -1.41729e-20)
(12.0727 -0.179023 -2.13024e-19)
(12.0361 -0.219986 -7.11926e-18)
(11.9766 -0.249593 2.84164e-18)
(11.8885 -0.254774 -2.71582e-18)
(11.7712 -0.24034 -7.41565e-18)
(11.6285 -0.208371 0)
(11.4716 -0.166193 0)
(11.3181 -0.122535 0)
(11.1883 -0.0851083 3.77696e-18)
(11.0982 -0.0586258 -3.78529e-18)
(11.0503 -0.0441338 -4.72565e-19)
(11.0256 -0.0389677 4.47906e-18)
(11.0043 -0.036804 -2.35393e-19)
(10.8321 -0.0354147 0)
(10.2361 -0.0281422 -1.14234e-19)
(8.8938 0.094185 1.14414e-19)
(12.0767 -0.0535195 4.6792e-19)
(12.0673 -0.121554 3.17777e-18)
(12.0471 -0.165874 0)
(12.0109 -0.203672 3.74778e-18)
(11.9527 -0.222174 3.7489e-18)
(11.8694 -0.22398 -3.67981e-18)
(11.7595 -0.207903 0)
(11.6267 -0.17763 -5.59356e-18)
(11.4797 -0.138981 5.62257e-18)
(11.3331 -0.0992713 3.76072e-18)
(11.2034 -0.0659642 0)
(11.1025 -0.0423752 0)
(11.0306 -0.0277242 9.44958e-19)
(10.9639 -0.0220718 2.8295e-18)
(10.837 -0.0259646 3.75317e-18)
(10.2974 -0.0204547 -3.73026e-18)
(8.93355 0.0536571 0)
(12.0556 0.00784358 -3.70189e-18)
(12.0532 -0.0605224 -4.72524e-18)
(12.045 -0.106305 9.21653e-19)
(12.0273 -0.149135 1.85422e-18)
(11.9942 -0.1775 -3.68305e-18)
(11.9429 -0.192805 5.55733e-18)
(11.8692 -0.192737 -1.84416e-18)
(11.7713 -0.177866 9.1786e-18)
(11.6504 -0.150948 -3.70703e-18)
(11.5117 -0.116715 -5.28843e-20)
(11.3648 -0.0813187 -1.84735e-18)
(11.2225 -0.0501157 1.84514e-18)
(11.0946 -0.0274107 1.82642e-18)
(10.9755 -0.0174693 -1.83146e-18)
(10.8047 -0.0151724 -2.72925e-18)
(10.3348 -0.00932804 8.94573e-19)
(9.01534 0.016457 -1.81346e-18)
(12.0292 0.0640122 3.83915e-18)
(12.0304 0.00103492 0)
(12.0296 -0.0429108 -1.83142e-18)
(12.0253 -0.0877061 1.79333e-18)
(12.0105 -0.122199 0)
(11.9851 -0.147181 1.7876e-18)
(11.9443 -0.160493 -1.7628e-18)
(11.8837 -0.161618 -3.66222e-18)
(11.8007 -0.149905 3.5067e-18)
(11.692 -0.127615 -7.06421e-18)
(11.5575 -0.098245 3.49364e-18)
(11.4011 -0.0669428 -3.44799e-18)
(11.2291 -0.0387825 -3.50029e-18)
(11.0409 -0.0204595 -1.71746e-18)
(10.7979 -0.0150061 0)
(10.3403 -0.0117055 1.70879e-18)
(9.12821 -0.0180751 1.70382e-18)
(11.9972 0.125152 -1.84305e-18)
(11.9998 0.0643116 -1.8831e-20)
(12.0024 0.0218101 3.93235e-20)
(12.0053 -0.0221608 0)
(12.0066 -0.0594174 3.42362e-18)
(11.9966 -0.0905016 -1.71124e-18)
(11.9791 -0.113236 -4.96242e-18)
(11.95 -0.126837 -8.87132e-20)
(11.9054 -0.130221 3.29202e-18)
(11.8377 -0.123003 -3.23849e-18)
(11.7393 -0.106256 0)
(11.6004 -0.082993 3.26071e-18)
(11.4146 -0.0567975 -1.56313e-18)
(11.1771 -0.0353509 3.20014e-18)
(10.8631 -0.0228396 1.55724e-18)
(10.3559 -0.0139186 -2.26001e-20)
(9.25093 -0.0393852 0)
(11.9611 0.178131 0)
(11.9632 0.123761 -6.4879e-20)
(11.9656 0.0854526 4.96705e-18)
(11.9699 0.0446718 -1.56236e-18)
(11.9757 0.00743488 -3.1864e-18)
(11.9812 -0.0267157 1.48829e-18)
(11.9794 -0.0555487 6.11296e-18)
(11.9698 -0.0776795 3.51331e-20)
(11.9527 -0.0921331 -2.94623e-18)
(11.9231 -0.0985232 0)
(11.8687 -0.0969811 2.91599e-18)
(11.7729 -0.085649 -2.85451e-18)
(11.6124 -0.0684516 1.45504e-18)
(11.3644 -0.0510746 -1.41762e-18)
(11.0016 -0.0325646 1.3161e-18)
(10.4451 -0.0225316 -1.40758e-18)
(9.36432 -0.0492928 0)
(11.9204 0.235182 1.63824e-18)
(11.9206 0.183455 -1.13297e-19)
(11.9216 0.146852 1.49032e-18)
(11.9245 0.109056 6.32077e-21)
(11.9292 0.0738421 0)
(11.9359 0.0399376 0)
(11.9445 0.00881583 -2.86112e-18)
(11.9525 -0.0184405 2.6508e-18)
(11.9534 -0.0410618 -1.24159e-18)
(11.9447 -0.0583269 3.79208e-18)