/*--------------------------------*- C++ -*----------------------------------*\
  =========                 |
  \\      /  F ield         | OpenFOAM: The Open Source CFD Toolbox
   \\    /   O peration     | Website:  https://openfoam.org
    \\  /    A nd           | Version:  6
     \\/     M anipulation  |
\*---------------------------------------------------------------------------*/
FoamFile
{
    version     2.0;
    format      ascii;
    class       volScalarField;
    location    "1.62";
    object      epsilon;
}
// * * * * * * * * * * * * * * * * * * * * * * * * * * * * * * * * * * * * * //

dimensions      [0 2 -3 0 0 0 0];

internalField   nonuniform List<scalar> 
4214
(
0.0219608
0.0121905
0.00819691
0.00653176
0.00586294
0.00562967
0.00559474
0.00566472
0.00580846
0.00602031
0.0063063
0.00667948
0.0071606
0.00778199
0.00859473
0.00968162
0.0111871
0.0133707
0.0166691
0.0214811
0.0278339
0.0285341
0.0233727
0.0182406
0.0143523
0.0115193
0.00953133
0.00812993
0.0071538
0.00648342
0.00603407
0.00574162
0.00555926
0.0054545
0.00540889
0.00543166
0.00560513
0.00618859
0.00778733
0.0116856
0.021038
0.00933767
0.00723483
0.00622485
0.00577176
0.00560401
0.00558484
0.00565269
0.00578679
0.00598448
0.00625176
0.0066005
0.00704848
0.00762237
0.00836301
0.00933438
0.0106414
0.0124679
0.0151415
0.0191874
0.0250474
0.0328183
0.0341982
0.0281412
0.0219059
0.0171424
0.0136056
0.0110896
0.00928256
0.00799419
0.00708444
0.00645507
0.00603028
0.00575252
0.0055782
0.0054771
0.00542912
0.00543782
0.005567
0.00599422
0.0070099
0.00901477
0.00685551
0.00610799
0.00574497
0.00560222
0.00558597
0.00564979
0.00577627
0.00596306
0.00621568
0.0065445
0.00696481
0.00749895
0.00818018
0.00905904
0.0102144
0.011776
0.0139727
0.0172035
0.0220796
0.0290686
0.0383777
0.0407363
0.0338457
0.0263993
0.0206557
0.016296
0.0131437
0.0108412
0.00916316
0.00794479
0.00707428
0.00646504
0.00604958
0.00577511
0.00560119
0.00549845
0.00544802
0.00545321
0.00557653
0.00594941
0.00666274
0.0059947
0.00572172
0.00560592
0.00559351
0.00565453
0.00577592
0.00595579
0.00619829
0.00651229
0.00691084
0.00741291
0.00804609
0.0088512
0.00988977
0.0112576
0.0131127
0.0157312
0.0195805
0.0253458
0.0335045
0.0444782
0.0481674
0.0406183
0.0318906
0.0250714
0.0197624
0.0158476
0.0129383
0.0107759
0.00916585
0.00797954
0.00711974
0.00651002
0.00608895
0.00580727
0.00562704
0.00552015
0.00546713
0.00547174
0.00559284
0.00586109
0.00568339
0.00560544
0.0056029
0.00566417
0.00578405
0.00596133
0.00619957
0.00650515
0.00688907
0.00736721
0.00796295
0.00871001
0.00965775
0.0108798
0.0124905
0.0146778
0.0177649
0.0222797
0.0289694
0.0383058
0.0511463
0.0565266
0.0486286
0.0385971
0.0305952
0.0242103
0.0193905
0.0157387
0.0129733
0.0108695
0.00927668
0.00808498
0.00720936
0.00658069
0.00614154
0.00584495
0.00565377
0.0055401
0.00548383
0.00549302
0.00557744
0.00560123
0.00561307
0.00567814
0.00579923
0.00597925
0.00621936
0.00652473
0.00690247
0.00736614
0.00793507
0.00863814
0.00951611
0.0106278
0.0120599
0.0139468
0.0165065
0.0201043
0.0253171
0.0329442
0.0434596
0.0584331
0.0658043
0.0580164
0.046783
0.0375169
0.0298879
0.0239755
0.0194128
0.0159024
0.0131865
0.0110856
0.00947029
0.00824461
0.00733232
0.00666969
0.00620231
0.00588486
0.00568077
0.00555901
0.00550477
0.00550029
0.00562574
0.00569506
0.00582085
0.00600691
0.00625749
0.00657135
0.00695466
0.00741479
0.00796923
0.0086416
0.00946756
0.0104958
0.0117953
0.013467
0.015666
0.0186376
0.022782
0.0287148
0.0372893
0.0490054
0.0664347
0.0759831
0.0689364
0.0566998
0.0460435
0.0369809
0.0297792
0.0241229
0.0197121
0.0162557
0.0135394
0.0114051
0.00973966
0.00845783
0.00749115
0.00678076
0.00627544
0.005931
0.00570882
0.0055817
0.00551539
0.00572039
0.00584655
0.00604452
0.00630978
0.0066463
0.00704698
0.00752062
0.00807438
0.00873196
0.0095219
0.0104884
0.0116885
0.013203
0.0151474
0.0176961
0.0211201
0.0258445
0.0325099
0.0420495
0.0550356
0.0751844
0.0871814
0.0814321
0.068489
0.0563774
0.0456687
0.0369545
0.0300033
0.0245274
0.0202003
0.0167662
0.0140257
0.0118376
0.0101009
0.00874186
0.00770071
0.00692566
0.00636956
0.00598836
0.00574522
0.00559918
0.00588705
0.00608562
0.00637814
0.00674196
0.00718397
0.00768629
0.00826466
0.00892427
0.00969897
0.0106223
0.0117492
0.0131459
0.0149051
0.0171614
0.0201009
0.0240035
0.0293332
0.0367767
0.0473309
0.0617023
0.0847495
0.0995063
0.0955592
0.0822596
0.0686854
0.0560922
0.0456129
0.0371476
0.0304405
0.0251235
0.0208895
0.0174804
0.0147105
0.0124488
0.0106123
0.009142
0.00799367
0.00712607
0.00649759
0.00606678
0.00578764
0.00614961
0.00644669
0.00686539
0.00735075
0.00792288
0.0085435
0.00924421
0.0100233
0.0109315
0.0120056
0.013315
0.0149396
0.0169751
0.0195642
0.0229281
0.0273771
0.0333806
0.041653
0.0532699
0.0692049
0.095236
0.113156
0.111429
0.0980801
0.0830915
0.0683502
0.0558279
0.0456147
0.0375197
0.0311219
0.0260483
0.0219564
0.0185917
0.0157687
0.0133862
0.011383
0.0097338
0.00841726
0.00740912
0.00667551
0.00616975
0.00655042
0.00698059
0.00756791
0.00820049
0.008935
0.00969291
0.0105393
0.0114535
0.0125156
0.0137637
0.0152748
0.0171374
0.0194805
0.0224674
0.0263309
0.031397
0.0381463
0.0473148
0.0600513
0.0777859
0.106782
0.128428
0.12926
0.116032
0.0996862
0.0824949
0.0676411
0.0554391
0.0458267
0.0383111
0.0324332
0.0277275
0.0238341
0.0204707
0.0175055
0.0148621
0.0125537
0.0105964
0.00901124
0.00779165
0.00690432
0.00715457
0.00775797
0.00857155
0.00937861
0.0103201
0.011237
0.0122636
0.0133343
0.0145679
0.0159961
0.0177394
0.0198898
0.0226001
0.0260491
0.0304887
0.0362594
0.0438483
0.0540056
0.0679175
0.087709
0.119565
0.14571
0.149402
0.136222
0.118552
0.0985311
0.0810749
0.0666457
0.0554395
0.0468603
0.0403314
0.0352167
0.0309878
0.0271925
0.0236592
0.0202542
0.0170817
0.0142053
0.0117484
0.00975696
0.00824076
0.00805956
0.00887476
0.00999582
0.0110036
0.0122188
0.0133194
0.0145644
0.0158095
0.0172605
0.0189094
0.0209323
0.0234199
0.0265616
0.0305495
0.0356558
0.042238
0.0507821
0.062056
0.0771805
0.0992502
0.133844
0.165548
0.172309
0.158762
0.139786
0.116385
0.0961517
0.0792659
0.0664848
0.0570372
0.0501795
0.0450736
0.0408892
0.0368974
0.0328877
0.0285468
0.0242314
0.0200022
0.016236
0.0130308
0.0105117
0.00940794
0.0104582
0.0120089
0.013234
0.0148018
0.0161171
0.0176728
0.0191365
0.0208778
0.0227906
0.0251607
0.0280466
0.0316988
0.0363159
0.0421904
0.0497127
0.0593346
0.0719024
0.0882146
0.112698
0.149946
0.188672
0.198525
0.183747
0.163538
0.135898
0.112952
0.0933501
0.0791884
0.0692665
0.062611
0.0582616
0.0547298
0.0509602
0.0466819
0.0410796
0.0352585
0.0289307
0.0232339
0.0181192
0.0140732
0.0114027
0.0126696
0.0148089
0.0162586
0.018354
0.0199063
0.0219245
0.023645
0.0258098
0.0280396
0.0308667
0.0342232
0.0384827
0.0438359
0.0505734
0.0592009
0.0699869
0.0841524
0.101478
0.128439
0.168101
0.216094
0.228583
0.211127
0.190042
0.15675
0.131722
0.108974
0.0939699
0.0841803
0.0784521
0.0761228
0.0740066
0.0711823
0.066981
0.0594487
0.0517915
0.0419583
0.0336059
0.0254009
0.0192116
0.0142735
0.0156785
0.0187547
0.0203442
0.0232693
0.0250071
0.0277735
0.0297467
0.0325903
0.035177
0.0386555
0.0425666
0.0475484
0.0537905
0.0614142
0.0714105
0.0832259
0.0994972
0.117527
0.1473
0.188381
0.249242
0.262612
0.240467
0.219502
0.178163
0.152927
0.126013
0.11153
0.102589
0.0986606
0.100314
0.100193
0.0995755
0.0958916
0.0851299
0.0757955
0.0596292
0.0483816
0.0347782
0.026148
0.0184771
0.0196797
0.0243654
0.0257553
0.0301117
0.0317523
0.0358441
0.0378819
0.0419301
0.0448104
0.0493162
0.0538892
0.0596914
0.0671797
0.0754164
0.0874493
0.099367
0.11847
0.135998
0.169947
0.210202
0.291049
0.299947
0.271167
0.252098
0.198557
0.177455
0.14359
0.132851
0.125036
0.124102
0.132221
0.134039
0.137706
0.134901
0.118888
0.109492
0.081243
0.0691893
0.044947
0.0354555
0.0216794
0.0184606
0.0147915
0.0116288
0.00925356
0.00764322
0.00663969
0.00605671
0.00573771
0.00557448
0.00550518
0.00551828
0.00568212
0.00623911
0.00784736
0.0129695
0.0453699
0.0166116
0.0139611
0.0116646
0.00970717
0.00817713
0.00708575
0.00636936
0.00593157
0.00568112
0.00555028
0.00550053
0.0055351
0.00573439
0.00634982
0.00805754
0.0133845
0.0440345
0.0112554
0.0104523
0.00934069
0.00824338
0.00731577
0.00661295
0.00612532
0.00581132
0.00562393
0.0055246
0.00549357
0.00554796
0.00578055
0.0064548
0.00827175
0.0138508
0.0430363
0.00939744
0.00861887
0.00790848
0.00725242
0.00668915
0.006246
0.00592355
0.00570546
0.00556994
0.00549841
0.0054864
0.00556244
0.00582913
0.00656571
0.00850139
0.0143563
0.0427002
0.00758961
0.007325
0.00696567
0.00659383
0.00625696
0.00598034
0.00576962
0.00562014
0.00552371
0.0054751
0.00548092
0.00557884
0.00588229
0.00668787
0.00875189
0.0149078
0.0430634
0.00703073
0.00672736
0.00645579
0.00620642
0.00598675
0.00580461
0.00566197
0.00555684
0.00548737
0.00545623
0.00547822
0.00559985
0.00594556
0.00682795
0.00902694
0.0155038
0.044184
0.00650754
0.00633183
0.00615078
0.00597859
0.00582494
0.00569546
0.00559185
0.00551351
0.00546183
0.00544416
0.00548212
0.00563035
0.00602387
0.00698833
0.00932044
0.0161285
0.046161
0.00637748
0.00618554
0.00601839
0.00587195
0.0057455
0.00563977
0.00555478
0.00549051
0.0054498
0.00544331
0.0054977
0.00567492
0.0061185
0.00715992
0.00960536
0.0167447
0.0491254
0.00624004
0.00609422
0.00595593
0.00582968
0.00571833
0.00562371
0.00554671
0.0054889
0.00545525
0.00545885
0.0055297
0.00573471
0.00622003
0.00731386
0.00983348
0.0173045
0.0532082
0.00623286
0.0060895
0.00595717
0.00583757
0.00573192
0.00564145
0.00556751
0.00551273
0.00548418
0.00549681
0.00558174
0.00580555
0.00630956
0.00741537
0.00996331
0.0177774
0.058486
0.0062524
0.00613303
0.0060165
0.00590565
0.00580339
0.00571279
0.00563735
0.00558191
0.00555516
0.00557254
0.00566309
0.00588872
0.00638371
0.00746504
0.0100045
0.0181877
0.0650089
0.00628656
0.0061841
0.00608338
0.00598664
0.00589605
0.00581452
0.00574596
0.00569588
0.00567326
0.00569267
0.00578129
0.0059973
0.00646899
0.00750666
0.0100145
0.0186018
0.0728382
0.00637118
0.00628088
0.00619079
0.00610245
0.00601847
0.00594272
0.00587989
0.00583572
0.00581866
0.00584209
0.00593159
0.00614165
0.00659297
0.00758577
0.0100572
0.0190997
0.0819285
0.00642059
0.006353
0.00628216
0.00621108
0.00614327
0.00608284
0.00603407
0.0060023
0.00599562
0.00602727
0.00612243
0.00633287
0.00677239
0.00773266
0.0101889
0.019771
0.0920868
0.00652855
0.00646647
0.00640565
0.00634742
0.00629426
0.00624898
0.00621479
0.00619655
0.00620215
0.00624524
0.00635095
0.00656964
0.0070106
0.00796354
0.0104593
0.0207309
0.103199
0.00658654
0.00655261
0.00651635
0.00648129
0.00644997
0.00642474
0.00640881
0.00640748
0.00642914
0.00648825
0.0066105
0.00684636
0.0073057
0.00828966
0.0109168
0.0221108
0.114919
0.00669704
0.00666848
0.00664583
0.00662798
0.00661488
0.00660795
0.00661059
0.00662823
0.00666975
0.00674968
0.00689491
0.0071576
0.00765602
0.00872143
0.0116069
0.0240505
0.126735
0.00675993
0.00676211
0.00676442
0.00676824
0.00677511
0.00678804
0.00681156
0.0068518
0.00691773
0.00702433
0.00719942
0.00750099
0.00806505
0.00927426
0.0125702
0.0266355
0.137897
0.00686271
0.00687206
0.00688682
0.00690518
0.00692892
0.00696148
0.00700755
0.00707343
0.00716827
0.00730734
0.00752125
0.00787892
0.00854437
0.00997501
0.0138689
0.0298077
0.147714
0.00692898
0.00696364
0.00699533
0.00702943
0.00707086
0.00712413
0.00719437
0.00728826
0.00741566
0.00759357
0.00785879
0.00829828
0.00911515
0.0108684
0.0155543
0.0331967
0.155132
0.00701777
0.00705591
0.00709582
0.00714258
0.0072007
0.00727429
0.00736885
0.00749208
0.00765563
0.00788079
0.00821576
0.00877376
0.00981254
0.0120178
0.0176576
0.0369533
0.15934
0.0070816
0.00713242
0.00718335
0.00724386
0.00731849
0.00741198
0.00753105
0.00768548
0.00789093
0.00817773
0.00861343
0.00934717
0.0107085
0.013546
0.020486
0.0428738
0.160971
0.00714952
0.00720254
0.00726297
0.00733666
0.00742762
0.0075418
0.00768816
0.00788062
0.00814305
0.00852185
0.00911297
0.0101132
0.0119486
0.0156815
0.0245221
0.0514673
0.160889
0.0072042
0.00726516
0.00733719
0.00742537
0.0075348
0.00767397
0.00785584
0.00810146
0.0084477
0.00896306
0.00977712
0.0111429
0.0135936
0.0184018
0.0291734
0.058486
0.162283
0.00725399
0.00732469
0.00740886
0.00751348
0.00764578
0.00781814
0.00804985
0.00837235
0.00883877
0.00954153
0.0106463
0.0124652
0.0156328
0.0215957
0.0342541
0.0663798
0.16591
0.00730119
0.00738212
0.00748128
0.00760682
0.00776969
0.00798762
0.00828794
0.00871392
0.00933562
0.0102697
0.0117185
0.0140549
0.0180192
0.0252649
0.0401072
0.0758489
0.172572
0.00734711
0.00744105
0.00755827
0.00771041
0.00791257
0.00818834
0.00857312
0.00912129
0.00991843
0.011104
0.0129162
0.0157878
0.0205687
0.0291283
0.046206
0.0857243
0.182687
0.00739382
0.00750243
0.00764162
0.00782527
0.00807272
0.00841235
0.00888581
0.00955593
0.0105204
0.0119362
0.0140684
0.0173924
0.0228332
0.0324004
0.0511119
0.093465
0.195452
0.00744131
0.00756722
0.00773034
0.0079473
0.00823979
0.00863848
0.00918787
0.00995511
0.0110448
0.0126233
0.0149654
0.0185578
0.0243391
0.0343311
0.0535674
0.0968439
0.208559
0.00748895
0.00763307
0.00782136
0.00807051
0.00840274
0.00884895
0.00945333
0.0102831
0.0114418
0.0130928
0.015508
0.0191648
0.0249653
0.0348263
0.0535536
0.0959114
0.2186
0.0075288
0.00768867
0.00789621
0.00816866
0.00852512
0.00899508
0.00962468
0.010481
0.0116649
0.013334
0.0157453
0.0193424
0.0249632
0.0343837
0.052096
0.0925132
0.222467
0.00756656
0.00774176
0.00796897
0.0082602
0.0086367
0.00912866
0.00977801
0.0106469
0.0118291
0.0134706
0.0158087
0.0192551
0.0245877
0.0334585
0.0500032
0.0879729
0.218938
0.00760571
0.0078005
0.00804773
0.00836333
0.00876702
0.00928564
0.00995801
0.0108408
0.0120185
0.013622
0.0158653
0.0191235
0.0241101
0.0323488
0.0476486
0.0827747
0.208817
0.00765211
0.00786821
0.0081436
0.00849267
0.00893361
0.00949174
0.0102026
0.0111169
0.0123085
0.0138911
0.0160513
0.0191173
0.02372
0.0312201
0.0450719
0.0768368
0.193897
0.00770578
0.00795096
0.00826373
0.00865814
0.00915251
0.00977149
0.0105482
0.0115279
0.0127744
0.0143849
0.016517
0.0194475
0.023712
0.0304858
0.042819
0.0708338
0.176122
0.0077705
0.00805268
0.00841357
0.0088689
0.00943839
0.0101477
0.0110291
0.0121248
0.0134924
0.0152176
0.0174368
0.0203869
0.0245239
0.0308541
0.0419121
0.0660589
0.15723
0.00784772
0.00817537
0.00859731
0.00913242
0.00980387
0.0106403
0.0116763
0.0129555
0.0145374
0.0165088
0.0190053
0.0222568
0.0266963
0.0332615
0.0438016
0.0645165
0.138533
0.00793883
0.00832194
0.00881983
0.00945687
0.0102616
0.0112683
0.0125182
0.014065
0.0159826
0.0183804
0.0214285
0.025412
0.0308581
0.0388782
0.0504398
0.0692165
0.120918
0.00804521
0.00849394
0.00908424
0.00984763
0.0108206
0.0120471
0.0135821
0.0154997
0.0179095
0.0209762
0.0249601
0.0302995
0.0378346
0.0492569
0.0646501
0.0853094
0.104982
0.00816871
0.00869555
0.00939763
0.010316
0.0114979
0.0130016
0.0149055
0.0173245
0.0204354
0.0245233
0.0300722
0.037959
0.0499183
0.0668635
0.0908181
0.122202
0.0910546
0.0213993
0.0232144
0.0251105
0.0269436
0.0286139
0.0300507
0.0312065
0.0320485
0.0325631
0.0327536
0.032641
0.0322604
0.0316557
0.0308735
0.029955
0.0289291
0.0278053
0.0265754
0.0252269
0.0237607
0.0216902
0.0197572
0.0184912
0.0173039
0.0161915
0.0151526
0.0141867
0.0132945
0.0124766
0.0117342
0.0110673
0.0104734
0.00994921
0.00948944
0.00909325
0.0087614
0.00850184
0.00832131
0.00821865
0.00817839
0.00817094
0.024463
0.0267791
0.0291325
0.0313539
0.0333443
0.0350362
0.0363772
0.0373302
0.0378785
0.038028
0.0378066
0.0372597
0.0364432
0.0354139
0.0342214
0.0328989
0.0314607
0.0299073
0.0282409
0.0264821
0.0241323
0.0219648
0.0205015
0.0191408
0.0178762
0.0167037
0.0156198
0.0146217
0.0137081
0.0128778
0.0121298
0.0114596
0.0108626
0.0103313
0.00986225
0.00945678
0.00912588
0.00888442
0.00874058
0.00868327
0.00868068
0.0279811
0.0309297
0.0338221
0.0364984
0.0388774
0.040891
0.0424751
0.0435811
0.0441852
0.0442948
0.0439455
0.0431957
0.0421154
0.0407751
0.0392351
0.0375383
0.0357095
0.0337644
0.031725
0.0296292
0.0269695
0.024537
0.0228458
0.0212855
0.0198468
0.0185231
0.0173071
0.016193
0.0151761
0.0142534
0.0134212
0.012674
0.0120043
0.0114027
0.0108612
0.0103786
0.00996656
0.00964782
0.0094442
0.00935697
0.00935697
0.0320035
0.0357046
0.0392097
0.0424225
0.0452848
0.0477153
0.0496257
0.0509467
0.0516433
0.0517222
0.0512279
0.050234
0.0488285
0.0471
0.0451255
0.0429643
0.04066
0.0382497
0.0357774
0.0332951
0.0302886
0.027555
0.0255999
0.0238088
0.0221697
0.0206725
0.0193067
0.0180626
0.0169326
0.0159106
0.0149906
0.0141651
0.0134245
0.0127562
0.0121472
0.0115898
0.0110914
0.0106791
0.0103907
0.0102502
0.0102425
0.0365754
0.0411182
0.04531
0.0491681
0.0526418
0.0556156
0.0579628
0.0595843
0.0604277
0.0604965
0.0598441
0.0585619
0.0567613
0.0545556
0.0520474
0.0493219
0.0464501
0.0434959
0.0405243
0.0375986
0.034201
0.0311239
0.0288622
0.0268035
0.0249322
0.0232345
0.021696
0.0203037
0.0190465
0.0179152
0.0169011
0.0159947
0.0151847
0.0144556
0.0137887
0.0131671
0.0125868
0.0120702
0.0116675
0.0114344
0.0113913
0.0417411
0.0471762
0.052145
0.0567903
0.0610345
0.0647066
0.0676286
0.0696613
0.0707272
0.0708214
0.0700051
0.0683908
0.0661195
0.0633397
0.0601905
0.0567947
0.0532582
0.049675
0.04613
0.0426944
0.0388525
0.0353816
0.0327631
0.030393
0.0282515
0.0263203
0.0245809
0.0230167
0.0216132
0.0203579
0.0192394
0.0182462
0.0173657
0.016581
0.0158691
0.0152031
0.0145609
0.0139457
0.0134038
0.0130215
0.0128826
0.0475612
0.0539079
0.0597721
0.0653737
0.070569
0.0751167
0.0787766
0.0813574
0.0827451
0.082919
0.0819455
0.0799611
0.0771452
0.073693
0.0697939
0.065619
0.0613163
0.0570118
0.0528091
0.0487861
0.0444361
0.0405124
0.0374779
0.0347443
0.0322872
0.0300827
0.028108
0.0263423
0.0247677
0.0233682
0.0221295
0.0210385
0.0200819
0.0192428
0.0184976
0.0178125
0.0171466
0.0164688
0.0157904
0.0151977
0.0148509
0.0541427
0.0614081
0.0683148
0.0750534
0.0813885
0.0870023
0.0915821
0.0948709
0.096704
0.0970341
0.0959287
0.0935511
0.0901278
0.0859138
0.0811613
0.0761001
0.0709267
0.0658008
0.0608455
0.0561453
0.0512125
0.0467662
0.043246
0.0400872
0.0372599
0.0347345
0.0324828
0.0304798
0.0287034
0.0271339
0.0257542
0.0245492
0.0235052
0.0226067
0.0218331
0.0211518
0.0205116
0.0198455
0.0190955
0.0182734
0.0175523
0.0616741
0.0698837
0.0779954
0.086045
0.0937027
0.100573
0.106263
0.110433
0.112855
0.113442
0.112256
0.109488
0.105418
0.100373
0.0946791
0.0886326
0.0824844
0.0764316
0.0706189
0.0651405
0.0595382
0.0544883
0.0504009
0.0467437
0.0434813
0.0405777
0.0379994
0.0357163
0.0337016
0.0319316
0.0303859
0.0290473
0.0279012
0.0269337
0.0261291
0.0254635
0.0248922
0.0243341
0.0236606
0.0227204
0.0214783
0.0704511
0.0797045
0.089181
0.0986912
0.107833
0.116132
0.123109
0.128334
0.131498
0.132464
0.13128
0.12816
0.123445
0.117536
0.110839
0.103727
0.0965086
0.0894244
0.0826452
0.0762791
0.0699108
0.0641647
0.0594166
0.0551759
0.0514012
0.0480512
0.0450871
0.0424733
0.0401779
0.0381727
0.0364338
0.0349415
0.0336798
0.0326355
0.0317967
0.0311501
0.0306703
0.0302979
0.0298919
0.0291439
0.0274906
0.0808999
0.0914677
0.102453
0.113531
0.124276
0.134132
0.142535
0.14896
0.153012
0.154491
0.153423
0.15004
0.144733
0.137979
0.130267
0.122045
0.113688
0.105484
0.0976356
0.0902726
0.0830381
0.0764951
0.070983
0.0660616
0.0616857
0.0578098
0.0543901
0.0513863
0.0487611
0.046482
0.0445216
0.0428575
0.0414722
0.0403521
0.0394873
0.0388713
0.0384968
0.0383433
0.0383342
0.0381858
0.0368253
0.09439
0.106083
0.11871
0.131402
0.143799
0.15526
0.16515
0.172857
0.177902
0.180022
0.179211
0.175705
0.169932
0.162432
0.153766
0.144459
0.134949
0.125578
0.116589
0.108139
0.0999483
0.0925111
0.0861295
0.0804245
0.0753504
0.0708597
0.0669061
0.0634447
0.0604347
0.0578398
0.0556296
0.0537794
0.0522706
0.0510895
0.0502271
0.0496803
0.0494514
0.049546
0.0499598
0.0506178
0.0507485
0.112552
0.125544
0.139283
0.153625
0.167569
0.180562
0.191863
0.200815
0.206875
0.209723
0.209317
0.20588
0.199855
0.191816
0.182379
0.172125
0.161555
0.151062
0.140935
0.131368
0.122173
0.113775
0.106438
0.0998582
0.0939946
0.0888026
0.0842358
0.0802483
0.0767976
0.0738461
0.0713619
0.0693195
0.0677
0.0664907
0.0656843
0.0652811
0.0652897
0.0657284
0.0666172
0.0680245
0.0699755
0.137806
0.152033
0.166991
0.182272
0.197382
0.21164
0.224039
0.234009
0.240947
0.244515
0.244635
0.241504
0.235543
0.227325
0.217477
0.206609
0.195261
0.18387
0.17277
0.162192
0.152058
0.142724
0.134422
0.126934
0.120235
0.114289
0.109056
0.104495
0.100566
0.0972334
0.0944682
0.0922464
0.0905513
0.089373
0.0887072
0.0885607
0.0889485
0.0899035
0.0914604
0.0937589
0.0966103
0.174425
0.189478
0.20512
0.220956
0.236435
0.250913
0.263769
0.274196
0.281608
0.285707
0.286392
0.283821
0.278361
0.270527
0.260899
0.250063
0.238556
0.226827
0.215239
0.204056
0.193312
0.183302
0.17423
0.165976
0.158542
0.151912
0.146063
0.140966
0.136592
0.132916
0.129915
0.127574
0.12588
0.12483
0.124424
0.124681
0.125624
0.127295
0.129791
0.13298
0.136893
0.23
0.244767
0.259804
0.274789
0.289243
0.302632
0.314398
0.324019
0.331085
0.335202
0.336315
0.334538
0.330146
0.323533
0.315162
0.305512
0.295042
0.28416
0.273206
0.262452
0.252021
0.242152
0.23302
0.224609
0.216956
0.210076
0.203974
0.198648
0.194089
0.190292
0.187251
0.184963
0.183428
0.182651
0.182641
0.183425
0.185059
0.187501
0.190783
0.194913
0.199817
0.31899
0.330544
0.341888
0.352919
0.363338
0.372827
0.381073
0.387793
0.392758
0.395818
0.396904
0.396056
0.393437
0.389262
0.383789
0.377299
0.370073
0.362375
0.35444
0.34647
0.338606
0.331011
0.323816
0.317074
0.310847
0.305181
0.30011
0.295663
0.291859
0.288717
0.286253
0.284481
0.283415
0.283077
0.283478
0.284623
0.28652
0.28917
0.292569
0.296699
0.301363
0.0475817
0.0137214
0.00829763
0.00652015
0.00585748
0.00563428
0.00559154
0.00563819
0.00575282
0.00594556
0.0062427
0.00668139
0.00730829
0.00817881
0.00935385
0.0108824
0.0126503
0.0460238
0.0141837
0.00852288
0.00663562
0.00591659
0.00566371
0.00560311
0.00563318
0.00572426
0.00587853
0.00611347
0.00645624
0.00694336
0.00762406
0.00856765
0.00987315
0.0116581
0.0447532
0.0146464
0.00874211
0.00675258
0.00597709
0.00569202
0.00561251
0.00562799
0.00570208
0.00583271
0.00603588
0.00634061
0.0067892
0.00744
0.00837074
0.00967822
0.0115303
0.0441233
0.015095
0.00895468
0.00686994
0.00603835
0.00571866
0.00561677
0.00561337
0.00566347
0.00575521
0.00589161
0.00608202
0.00633724
0.00666612
0.0070717
0.00754697
0.00802376
0.0441613
0.0155232
0.00915557
0.00698491
0.00609962
0.00574462
0.00561914
0.00559713
0.00562719
0.00569122
0.00578615
0.00591562
0.00608574
0.00630421
0.00658264
0.00693904
0.00739205
0.0449179
0.0159271
0.00933698
0.00709179
0.0061582
0.00577017
0.0056232
0.00558698
0.00560599
0.00565875
0.00574007
0.00585335
0.00600667
0.00621125
0.00648377
0.00685003
0.00733991
0.0464626
0.0163061
0.00948936
0.00718306
0.00620909
0.00579105
0.00562303
0.0055724
0.00557998
0.00561966
0.00568103
0.00576098
0.0058593
0.00597635
0.00611198
0.0062677
0.00645069
0.0489004
0.0166685
0.00960828
0.00725644
0.00625372
0.00581186
0.00562514
0.00556037
0.0055566
0.00558521
0.0056333
0.0056961
0.00577263
0.00586458
0.00597611
0.00611144
0.00627921
0.0523443
0.0170298
0.00969544
0.0073144
0.00629714
0.00584108
0.00564327
0.00557187
0.0055653
0.00559323
0.00564066
0.00570136
0.00577384
0.00585892
0.00596393
0.00610256
0.00627943
0.0568932
0.0174181
0.0097604
0.00736421
0.0063451
0.00588122
0.00567477
0.00559784
0.00559031
0.0056215
0.00567451
0.00573999
0.00581372
0.00589385
0.00597979
0.00607498
0.0061845
0.0626451
0.017889
0.00982763
0.00742528
0.00641511
0.00594834
0.00573243
0.00564433
0.00562646
0.00564912
0.00569569
0.00575593
0.00582428
0.00589881
0.0059796
0.0060671
0.0061633
0.0696501
0.0185118
0.00992432
0.00751504
0.00652114
0.0060578
0.00583773
0.00574315
0.00571919
0.00573699
0.00578028
0.00583772
0.0059021
0.00597001
0.00604124
0.00611582
0.00619221
0.0779072
0.0193472
0.0100828
0.00764893
0.00666949
0.00620977
0.00598543
0.00588395
0.00585371
0.00586794
0.00591205
0.00597499
0.0060483
0.00612577
0.00620435
0.00628407
0.00636595
0.0873701
0.0204987
0.0103453
0.00784735
0.00687154
0.00641235
0.00618159
0.00606884
0.00602387
0.00602101
0.00604754
0.00609528
0.00615655
0.00622402
0.00629195
0.00635876
0.0064278
0.0978838
0.0221123
0.010759
0.00812384
0.00713087
0.00666671
0.00643038
0.00631005
0.00625511
0.00623926
0.0062492
0.00627901
0.00632383
0.00637676
0.00642894
0.0064713
0.00649729
0.10919
0.0243261
0.0113626
0.00848931
0.00744537
0.00696471
0.00671939
0.00659093
0.00652713
0.00650141
0.00649891
0.00651297
0.00654348
0.0065877
0.00663977
0.00669322
0.00674297
0.120871
0.027273
0.0121985
0.00895806
0.00781535
0.00730007
0.00703916
0.00689948
0.00682363
0.00678419
0.00676652
0.00676274
0.00676927
0.00678469
0.00680774
0.00683625
0.0068704
0.13226
0.0309252
0.0133096
0.00954869
0.0082443
0.00766763
0.00738031
0.00722515
0.00713531
0.00708071
0.00704659
0.00702478
0.00701089
0.00700307
0.00699931
0.00699317
0.00697135
0.142431
0.0346867
0.0147727
0.0102916
0.00874412
0.00806672
0.00773448
0.00755507
0.00744672
0.00737475
0.00732357
0.00728512
0.00725506
0.00723201
0.0072169
0.00720857
0.00719952
0.150317
0.0373519
0.0165258
0.0112322
0.00933804
0.00850442
0.00809823
0.00787967
0.00774533
0.00765226
0.00758233
0.00752666
0.00748023
0.00744002
0.00740581
0.00737986
0.0073596
0.155412
0.0397508
0.018614
0.0124367
0.0100674
0.00900263
0.00847994
0.00819892
0.00802713
0.00790823
0.00781854
0.0077467
0.00768627
0.00763292
0.00758444
0.00754178
0.00748218
0.157907
0.0453598
0.0214989
0.0140442
0.0110224
0.00962177
0.00891781
0.00853538
0.00830492
0.00814992
0.00803621
0.00794719
0.0078734
0.00780957
0.00775155
0.0077048
0.0076466
0.158294
0.0546773
0.0257516
0.0163254
0.012387
0.0104933
0.00950466
0.0089534
0.00862269
0.0084076
0.00825651
0.00814297
0.00805201
0.00797528
0.00790668
0.00784907
0.00778411
0.159496
0.0602895
0.0303647
0.0192046
0.0142109
0.0116901
0.0103142
0.00951869
0.00903413
0.00872257
0.00851046
0.00835727
0.0082396
0.00814386
0.00806118
0.00798779
0.00791775
0.16232
0.0665166
0.0350559
0.0224286
0.0164081
0.0132025
0.0113699
0.0102687
0.00957977
0.00913217
0.00882955
0.00861551
0.00845613
0.00833095
0.00822634
0.00813676
0.00805342
0.168038
0.0749067
0.0404442
0.0259718
0.0188359
0.0149145
0.0126018
0.0111704
0.0102517
0.00964366
0.00922847
0.00893487
0.00871849
0.00855145
0.00841546
0.00830194
0.00819872
0.177682
0.0842026
0.0459162
0.0294712
0.0212414
0.016645
0.0138835
0.0121402
0.0109996
0.0102307
0.00969732
0.00931573
0.00903288
0.00881466
0.00863883
0.00849061
0.00836054
0.191068
0.0913486
0.0500742
0.0322681
0.0232787
0.0181922
0.0150892
0.0130984
0.0117731
0.0108636
0.0102212
0.00975355
0.00940155
0.00912664
0.0089037
0.00871537
0.00855205
0.205823
0.0938791
0.0519861
0.0339913
0.0247718
0.019462
0.0161669
0.0140164
0.0125593
0.01154
0.010805
0.010258
0.009837
0.00950171
0.00922526
0.0089898
0.00878438
0.217688
0.0918225
0.0521095
0.0348812
0.0258352
0.0205164
0.0171574
0.0149275
0.0133883
0.0122884
0.0114761
0.0108555
0.010368
0.00998052
0.00966024
0.00938406
0.00913677
0.222923
0.0901243
0.0520488
0.0354962
0.0267161
0.0214993
0.0181642
0.0159149
0.0143303
0.0131695
0.0122935
0.0116242
0.0110906
0.0106401
0.0102477
0.00989692
0.00957765
0.220266
0.0879349
0.0515327
0.0358158
0.0274783
0.022498
0.0192762
0.0170618
0.015461
0.0142733
0.0133619
0.0126213
0.0119974
0.0114545
0.0109696
0.0105275
0.0101189
0.210864
0.0845526
0.0505258
0.0359967
0.0283087
0.023683
0.0206382
0.0184886
0.016908
0.0156908
0.0147019
0.0138653
0.0131333
0.0124755
0.0118726
0.0113126
0.0107892
0.196736
0.0800509
0.0493619
0.0363991
0.029516
0.0253019
0.0224448
0.0203595
0.0187774
0.0174887
0.0163911
0.0154232
0.0145471
0.013739
0.0129844
0.0122752
0.0116078
0.179898
0.0755246
0.0488716
0.0376471
0.0315639
0.0276988
0.0249528
0.0228833
0.0212063
0.0197778
0.0185115
0.0173568
0.0162843
0.0152772
0.0143262
0.0134275
0.0125795
0.161986
0.0725237
0.0502691
0.0406236
0.0350861
0.0313321
0.0284971
0.0262647
0.0243705
0.0226935
0.0211631
0.0197383
0.0183961
0.017125
0.0159199
0.0147798
0.0137068
0.144152
0.0732062
0.0552043
0.0464753
0.040883
0.036772
0.0334919
0.030813
0.0284876
0.0263944
0.0244627
0.0226524
0.0209421
0.0193222
0.0177901
0.0163467
0.0149957
0.127156
0.0809585
0.0659567
0.056677
0.0499455
0.0447069
0.0404277
0.0368806
0.033816
0.0310715
0.0285514
0.0262016
0.0239937
0.0219153
0.0199632
0.018139
0.0164464
0.111482
0.101333
0.0857444
0.0731729
0.0635355
0.0560001
0.0499192
0.0448991
0.0406726
0.0369609
0.0336036
0.0305112
0.0276367
0.0249582
0.0224682
0.020166
0.0180532
0.0974015
0.144251
0.119332
0.0987317
0.083441
0.0718775
0.0628341
0.0554701
0.0494933
0.0443798
0.0398467
0.035739
0.0319743
0.028512
0.0253346
0.0224354
0.0198109
0.024724
0.0326627
0.0403564
0.0483684
0.0575245
0.069273
0.0857827
0.109954
0.144413
0.197126
0.347747
0.304119
0.216429
0.160781
0.151845
0.172733
0.186236
0.160423
0.10387
0.0519187
0.0306389
0.0402969
0.0499276
0.0603078
0.0724226
0.0879094
0.109251
0.139308
0.17948
0.232903
0.403633
0.349286
0.24525
0.184211
0.180669
0.212247
0.233819
0.204264
0.13157
0.0639852
0.038133
0.0499475
0.0619503
0.0753678
0.0914413
0.11206
0.139985
0.177446
0.224561
0.27997
0.47268
0.400311
0.275893
0.210358
0.214386
0.257904
0.28902
0.255798
0.164838
0.0788392
0.0477505
0.0621345
0.0769277
0.0941083
0.115391
0.143108
0.180185
0.227539
0.282137
0.34212
0.547903
0.455877
0.308027
0.238357
0.253194
0.310299
0.352226
0.31587
0.204456
0.0974287
0.0602501
0.0775906
0.0955106
0.117198
0.145238
0.182737
0.232549
0.293292
0.354534
0.419093
0.631668
0.518821
0.341987
0.268384
0.301745
0.369279
0.425391
0.387813
0.251672
0.121081
0.0767787
0.097432
0.118695
0.145674
0.182463
0.233427
0.300821
0.377461
0.442703
0.510776
0.720111
0.593038
0.37969
0.303415
0.356024
0.437006
0.511948
0.475022
0.308614
0.152159
0.0991445
0.123426
0.148186
0.181437
0.229695
0.299145
0.389852
0.482948
0.547524
0.629472
0.822297
0.67117
0.429351
0.353731
0.399628
0.508402
0.610187
0.579903
0.379645
0.19365
0.130165
0.158359
0.186957
0.227944
0.291481
0.385663
0.505041