/*--------------------------------*- C++ -*----------------------------------*\
  =========                 |
  \\      /  F ield         | OpenFOAM: The Open Source CFD Toolbox
   \\    /   O peration     | Website:  https://openfoam.org
    \\  /    A nd           | Version:  6
     \\/     M anipulation  |
\*---------------------------------------------------------------------------*/
FoamFile
{
    version     2.0;
    format      ascii;
    class       volScalarField;
    location    "1.62";
    object      k;
}
// * * * * * * * * * * * * * * * * * * * * * * * * * * * * * * * * * * * * * //

dimensions      [0 2 -2 0 0 0 0];

internalField   nonuniform List<scalar> 
4214
(
0.0346765
0.0294407
0.0279354
0.0275823
0.0275646
0.0276406
0.0277606
0.0279345
0.0281835
0.0285292
0.0289952
0.0296104
0.0304148
0.0314667
0.0328527
0.034703
0.0372359
0.0408412
0.0461841
0.0538424
0.0632418
0.0633352
0.0551841
0.047276
0.0414106
0.0372181
0.0342737
0.0321573
0.0306264
0.0295238
0.0287443
0.0282089
0.0278572
0.0276421
0.0275195
0.0274459
0.0273867
0.0273717
0.0276368
0.0290185
0.0340882
0.0267331
0.0270413
0.0273054
0.027499
0.0276447
0.0277818
0.0279476
0.0281756
0.028491
0.0289163
0.0294779
0.03021
0.0311608
0.0324008
0.034034
0.0362212
0.0392378
0.0435752
0.050028
0.0592216
0.0705818
0.0714513
0.0619397
0.0523971
0.0452734
0.0401274
0.0365062
0.0338907
0.0319748
0.0305659
0.0295403
0.0288076
0.0282991
0.0279594
0.0277476
0.0276178
0.0275179
0.0273861
0.0271649
0.0268357
0.0264982
0.0268866
0.0272581
0.0275013
0.0276717
0.0278148
0.0279751
0.028188
0.0284793
0.0288716
0.0293884
0.0300594
0.0309245
0.0320412
0.0334929
0.0354032
0.0379669
0.0415246
0.0466726
0.0543231
0.0651136
0.0785087
0.0805171
0.0697422
0.0584231
0.0499005
0.0436448
0.039214
0.0360105
0.0336494
0.031886
0.0305709
0.0295997
0.0288945
0.0283952
0.0280541
0.0278331
0.0276913
0.0275698
0.0273964
0.0271061
0.0266876
0.0272835
0.0275343
0.027712
0.0278593
0.028017
0.0282198
0.028494
0.0288607
0.0293412
0.0299614
0.0307554
0.0317705
0.0330739
0.0347626
0.0369814
0.0399635
0.0441174
0.0501342
0.0590176
0.0713841
0.0868579
0.0904312
0.078655
0.0654811
0.0554396
0.0479141
0.0425171
0.0386001
0.0357077
0.0335309
0.0318808
0.0306314
0.029693
0.0289978
0.0284933
0.0281406
0.0279073
0.0277513
0.0276084
0.0274129
0.0271059
0.0275882
0.0277618
0.0279104
0.0280681
0.0282669
0.0285312
0.0288814
0.0293356
0.0299165
0.0306533
0.0315859
0.0327692
0.0342806
0.0362309
0.0387875
0.0422241
0.0470134
0.0539238
0.0640249
0.077892
0.0955643
0.101121
0.0887893
0.0737574
0.0620633
0.0531117
0.0465713
0.0417775
0.0382291
0.0355529
0.0335079
0.0319348
0.0307249
0.0297995
0.0290997
0.0285817
0.0282129
0.0279644
0.0277903
0.0276436
0.0274166
0.0278302
0.0279729
0.02813
0.0283281
0.0285903
0.0289327
0.029372
0.0299259
0.0306197
0.0314873
0.0325751
0.033946
0.0356872
0.0379238
0.0408473
0.0447708
0.0502197
0.0580183
0.06928
0.0845514
0.104594
0.112448
0.100198
0.0834875
0.0700506
0.0594617
0.0515452
0.0456708
0.0413057
0.0380164
0.0355001
0.0335505
0.0320285
0.0308379
0.0299098
0.0291947
0.0286577
0.0282734
0.0280078
0.0278339
0.0276426
0.0280531
0.0282034
0.0284027
0.0286674
0.0290133
0.0294491
0.029991
0.0306569
0.0314772
0.0324907
0.0337513
0.0353292
0.0373216
0.0398687
0.0431863
0.047622
0.0537372
0.0623957
0.0747523
0.0913614
0.113974
0.124272
0.112948
0.0948566
0.0795402
0.0670952
0.0575738
0.050405
0.0450446
0.0410065
0.0379253
0.035536
0.0336572
0.0321652
0.0309759
0.030031
0.0292914
0.0287309
0.0283242
0.0280558
0.0278387
0.0282998
0.02849
0.0287628
0.0291179
0.029567
0.030111
0.0307693
0.0315603
0.0325213
0.0336962
0.0351468
0.0369509
0.0392159
0.0420975
0.0458333
0.0508005
0.0575791
0.0670511
0.0804482
0.0983934
0.123666
0.136639
0.126921
0.107863
0.0906394
0.0761248
0.0647617
0.0560795
0.0495412
0.0446124
0.0408651
0.0379676
0.0356843
0.0338532
0.0323679
0.0311581
0.0301794
0.0294036
0.0288094
0.0283854
0.0280786
0.0286079
0.0288702
0.0292478
0.0297159
0.0302886
0.0309563
0.0317465
0.0326759
0.0337922
0.0351434
0.0368012
0.0388498
0.0414077
0.0446513
0.0488282
0.0543195
0.0617437
0.0720285
0.0864578
0.105794
0.133702
0.14959
0.141998
0.122438
0.103371
0.0865885
0.073152
0.0627463
0.0548638
0.0489193
0.044419
0.0409551
0.0382262
0.0360195
0.0341999
0.0326825
0.0314184
0.0303791
0.0295467
0.0289115
0.0284437
0.0290177
0.0293857
0.0299019
0.0305054
0.0312258
0.0320337
0.0329738
0.0340551
0.035342
0.0368831
0.0387635
0.0410799
0.0439481
0.0475506
0.0521769
0.0582391
0.0663476
0.0774488
0.0929034
0.113763
0.144174
0.163251
0.158139
0.13846
0.11768
0.0984463
0.0827216
0.0704067
0.0610518
0.0540106
0.048715
0.0446637
0.0414743
0.0388675
0.0366737
0.0347913
0.0331739
0.0317988
0.0306562
0.0297413
0.0290366
0.0295757
0.0300852
0.0307793
0.0315414
0.0324408
0.0334071
0.0345202
0.0357666
0.0372409
0.0389897
0.041099
0.0436728
0.046866
0.0508823
0.0560175
0.0626937
0.0715246
0.0834663
0.099957
0.122537
0.155218
0.177867
0.175414
0.155783
0.133442
0.111581
0.0933967
0.0790207
0.0681242
0.0599779
0.0539245
0.0493379
0.0457319
0.0427325
0.0401321
0.0378078
0.0357324
0.0339018
0.0323308
0.031028
0.0299866
0.0303403
0.0310272
0.0319505
0.0328951
0.034017
0.0351621
0.0364816
0.0379106
0.0395795
0.0415257
0.043883
0.046757
0.0503236
0.0548003
0.0604977
0.0678469
0.0774624
0.090299
0.107841
0.132362
0.167012
0.193777
0.194031
0.174281
0.150508
0.125801
0.105058
0.0885232
0.0760972
0.0669385
0.0602803
0.0553263
0.0514483
0.0481249
0.0451124
0.042244
0.0395551
0.0370718
0.0348743
0.0329993
0.0314643
0.0313901
0.0322845
0.0335093
0.0346596
0.0360709
0.0374164
0.0389748
0.0405935
0.0424972
0.0446751
0.0473178
0.050528
0.0545167
0.0595103
0.0658353
0.0739337
0.084415
0.0982404
0.11683
0.143475
0.179801
0.2114
0.214309
0.193844
0.168741
0.14085
0.117581
0.0988357
0.0850095
0.0750616
0.0680983
0.0631076
0.0592449
0.0557557
0.0523797
0.0488258
0.0453102
0.0418582
0.0387244
0.0359715
0.0336924
0.0328334
0.0339483
0.0355871
0.0369561
0.0387342
0.0403057
0.0421967
0.0440441
0.0462501
0.0486924
0.0516782
0.05527
0.0597427
0.0653214
0.072347
0.0812879
0.092715
0.107666
0.127231
0.1561
0.193865
0.231293
0.236596
0.214329
0.188061
0.156395
0.130899
0.109886
0.0949589
0.0845977
0.0777892
0.0733092
0.0699065
0.0665213
0.0629182
0.0584479
0.0538554
0.0489214
0.0444234
0.040308
0.0369256
0.034821
0.0361283
0.038328
0.0399182
0.0422457
0.0440609
0.0464449
0.0485501
0.0511911
0.053939
0.0573677
0.0613971
0.0664295
0.0726751
0.0804604
0.0903674
0.102761
0.119076
0.139394
0.170529
0.209357
0.254217
0.261186
0.235415
0.208471
0.171965
0.145088
0.1216
0.106181
0.0959006
0.089833
0.0867032
0.084289
0.0814199
0.0778292
0.072001
0.0661567
0.0588466
0.0525393
0.046272
0.0413814
0.037511
0.0389256
0.0420208
0.0437399
0.046939
0.0489336
0.0521209
0.054466
0.0578089
0.0608858
0.0649441
0.0694776
0.0751553
0.0821928
0.0907105
0.101796
0.114925
0.133025
0.153662
0.187453
0.226219
0.281197
0.288043
0.256383
0.230034
0.186707
0.160443
0.133703
0.119118
0.109366
0.104749
0.104125
0.103082
0.101336
0.0980818
0.0900294
0.0831604
0.0717729
0.0636393
0.0537486
0.0472246
0.0412526
0.0424432
0.0470865
0.0485737
0.0532968
0.0551497
0.059781
0.06214
0.0667514
0.0700647
0.0751253
0.0802495
0.08663
0.0947933
0.103692
0.116584
0.129408
0.149972
0.169499
0.2074
0.243786
0.314408
0.316555
0.276143
0.253053
0.199116
0.17775
0.14532
0.134468
0.125109
0.122979
0.126082
0.126429
0.126615
0.124069
0.112349
0.105721
0.0868752
0.0785262
0.0617596
0.0548461
0.0442489
0.0411312
0.0377501
0.034804
0.0324968
0.0308085
0.0296303
0.0288399
0.0283266
0.0279959
0.0277624
0.027541
0.0272472
0.0268086
0.0261916
0.0263714
0.0505725
0.0400812
0.037355
0.035026
0.0330315
0.0314138
0.030172
0.0292651
0.0286308
0.0282034
0.0279189
0.02771
0.0275019
0.0272186
0.0267864
0.026143
0.026182
0.0497201
0.0348516
0.0339419
0.0327279
0.0315162
0.0304483
0.0295771
0.0289062
0.0284145
0.02807
0.0278303
0.0276422
0.0274458
0.0271719
0.0267408
0.0260782
0.0260174
0.0489143
0.0327788
0.0319058
0.0310944
0.030323
0.0296266
0.0290358
0.0285589
0.0281923
0.0279231
0.0277251
0.0275602
0.0273788
0.027112
0.0266756
0.0259864
0.0258246
0.0484071
0.0300586
0.0299941
0.0297001
0.029313
0.0289123
0.0285448
0.0282286
0.0279701
0.027767
0.0276072
0.0274633
0.0272918
0.0270271
0.0265809
0.0258576
0.0256047
0.0482255
0.0290079
0.0288804
0.0287259
0.0285332
0.0283216
0.0281132
0.0279208
0.0277501
0.0276032
0.0274757
0.0273479
0.0271834
0.0269181
0.0264562
0.0256894
0.0253615
0.0483957
0.0275475
0.0277563
0.0278411
0.0278416
0.0277901
0.0277112
0.0276206
0.0275249
0.0274286
0.0273305
0.0272177
0.0270585
0.0267879
0.0263024
0.0254838
0.0251055
0.0489532
0.0269935
0.0271286
0.0272407
0.0273151
0.0273513
0.0273571
0.0273398
0.0273038
0.0272508
0.0271791
0.0270811
0.026925
0.0266432
0.026125
0.0252491
0.0248561
0.0499305
0.0259955
0.0263189
0.0265731
0.0267646
0.0269018
0.0269942
0.0270493
0.027071
0.0270616
0.0270223
0.026942
0.0267888
0.0264913
0.025935
0.0250047
0.024644
0.0513316
0.0256582
0.0259249
0.0261667
0.0263756
0.0265475
0.0266819
0.0267799
0.0268434
0.0268727
0.0268635
0.0268016
0.0266514
0.0263393
0.025749
0.0247756
0.0244997
0.0531017
0.0247874
0.0251384
0.0254646
0.025759
0.0260168
0.0262356
0.0264133
0.0265476
0.0266358
0.0266711
0.0266375
0.0264994
0.0261829
0.0255703
0.0245698
0.0244393
0.0551597
0.0245113
0.0247961
0.0250785
0.0253511
0.0256077
0.0258435
0.0260529
0.0262284
0.0263607
0.0264365
0.0264335
0.0263138
0.0260019
0.0253783
0.0243738
0.0244592
0.0574302
0.023766
0.0241333
0.0244794
0.024807
0.0251149
0.0253993
0.0256546
0.0258732
0.026045
0.0261547
0.026177
0.0260732
0.0257684
0.0251456
0.0241699
0.02456
0.0597906
0.0234598
0.0237459
0.0240518
0.0243644
0.0246725
0.0249662
0.0252363
0.0254735
0.0256666
0.0257985
0.0258405
0.0257517
0.0254586
0.0248522
0.0239485
0.0247566
0.0620781
0.0227465
0.0231176
0.0234759
0.0238234
0.0241551
0.0244653
0.0247487
0.0249991
0.0252073
0.0253558
0.0254135
0.0253379
0.0250599
0.0244879
0.0237131
0.0250887
0.0642081
0.0224018
0.0226786
0.022993
0.0233173
0.0236334
0.0239318
0.0242083
0.0244583
0.0246718
0.024829
0.0248962
0.0248304
0.0245704
0.0240549
0.0234841
0.0256218
0.0660366
0.021704
0.0220703
0.0224196
0.0227479
0.0230529
0.0233368
0.0236026
0.0238482
0.0240626
0.0242233
0.0242951
0.0242379
0.024003
0.0235742
0.0232989
0.026435
0.0674142
0.0213235
0.0215923
0.0218853
0.0221682
0.0224358
0.0226924
0.022941
0.0231774
0.0233881
0.0235489
0.0236239
0.0235791
0.0233851
0.0230833
0.0232046
0.0275703
0.0681708
0.0206556
0.0209962
0.0212818
0.0215318
0.0217664
0.0219976
0.0222284
0.0224529
0.0226567
0.0228157
0.0228974
0.0228767
0.0227512
0.0226331
0.0232819
0.028954
0.0682178
0.0202382
0.0204637
0.0206716
0.0208659
0.0210612
0.0212638
0.0214727
0.0216809
0.021874
0.0220295
0.0221235
0.0221478
0.0221341
0.0222847
0.0235826
0.0302861
0.0674027
0.0196106
0.0198493
0.0200147
0.0201672
0.0203269
0.0204983
0.0206797
0.020865
0.021042
0.0211931
0.0213078
0.0214056
0.021567
0.0220958
0.0241019
0.0315838
0.0656886
0.0191385
0.0192476
0.0193463
0.0194545
0.0195759
0.0197109
0.0198583
0.0200138
0.0201698
0.0203196
0.0204747
0.0206896
0.0211082
0.0221473
0.025024
0.0337803
0.0634278
0.0185414
0.0186145
0.0186706
0.0187384
0.0188196
0.0189152
0.0190256
0.0191506
0.0192912
0.0194594
0.0196961
0.0200975
0.0208834
0.0225821
0.0265629
0.0368855
0.0609502
0.017973
0.0179851
0.0180014
0.0180295
0.018071
0.0181289
0.0182074
0.0183139
0.018464
0.018693
0.0190712
0.0197422
0.0209889
0.0234094
0.0283664
0.0390663
0.059123
0.0173908
0.0173671
0.0173455
0.0173363
0.0173428
0.0173719
0.0174344
0.0175488
0.0177482
0.0180893
0.0186747
0.0196868
0.0214493
0.0245799
0.0303711
0.0415783
0.0581393
0.0168219
0.0167617
0.0167075
0.0166676
0.0166492
0.0166652
0.0167351
0.0168901
0.0171795
0.0176819
0.0185285
0.0199301
0.0222411
0.0261021
0.0327896
0.0447513
0.0581897
0.0162559
0.016169
0.0160884
0.0160271
0.0159973
0.0160188
0.0161198
0.0163432
0.0167528
0.0174473
0.0185783
0.0203787
0.0232256
0.0277809
0.0353075
0.0480064
0.0593879
0.0156875
0.0155755
0.015477
0.0154048
0.0153768
0.0154194
0.0155685
0.0158758
0.0164155
0.0172988
0.0186876
0.0208232
0.0240852
0.0291264
0.0371695
0.0502803
0.0616237
0.0150898
0.014952
0.014837
0.0147599
0.0147414
0.0148136
0.0150194
0.0154149
0.0160764
0.017114
0.0186877
0.021034
0.0245126
0.0297337
0.0378391
0.0508618
0.0645485
0.0144641
0.0142694
0.0141105
0.0140074
0.0139854
0.0140775
0.0143304
0.0148036
0.0155737
0.0167462
0.0184634
0.0209267
0.0244616
0.0296428
0.0375199
0.050194
0.0676482
0.0139524
0.0137366
0.0135634
0.0134541
0.0134412
0.0135548
0.0138323
0.0143283
0.0151204
0.0163147
0.018056
0.0205503
0.0241012
0.0291893
0.0368383
0.0492611
0.0704339
0.0135303
0.013299
0.0131208
0.0130238
0.0130196
0.0131373
0.0134176
0.0139148
0.0147024
0.0158815
0.0175917
0.0200354
0.023524
0.0285726
0.03613
0.048545
0.0726474
0.0131711
0.0129365
0.0127694
0.0126746
0.0126741
0.0127961
0.0130779
0.0135692
0.0143373
0.015476
0.0171202
0.019474
0.0228626
0.0278336
0.0353868
0.047997
0.0742621
0.0128672
0.0126429
0.0124807
0.0123959
0.0124085
0.0125436
0.012834
0.0133226
0.0140681
0.0151536
0.0167044
0.0189195
0.0221306
0.0269201
0.0343891
0.0472329
0.0753347
0.0126147
0.0123992
0.0122528
0.0121901
0.0122293
0.0123921
0.0127056
0.013205
0.0139371
0.0149708
0.0164148
0.0184519
0.021405
0.0258776
0.0330991
0.0460571
0.0759215
0.0124017
0.012204
0.012085
0.0120588
0.0121413
0.0123511
0.0127098
0.0132432
0.0139853
0.0149885
0.0163405
0.0181986
0.0208612
0.0249304
0.0317293
0.044546
0.0760762
0.0122236
0.012054
0.0119752
0.012001
0.0121461
0.0124266
0.012858
0.0134577
0.0142491
0.0152698
0.0165872
0.0183304
0.0207629
0.0244627
0.0307171
0.0430483
0.0758398
0.012078
0.0119468
0.0119211
0.0120155
0.0122441
0.01262
0.0131547
0.0138606
0.014755
0.0158682
0.0172559
0.0190285
0.0214206
0.0249822
0.030719
0.0421532
0.0752548
0.0119613
0.0118783
0.0119187
0.0120981
0.01243
0.0129262
0.0135965
0.0144524
0.0155141
0.0168168
0.0184232
0.0204488
0.0231354
0.0270253
0.0326087
0.042962
0.0744058
0.0118713
0.0118464
0.0119658
0.0122463
0.012701
0.0133407
0.0141768
0.0152274
0.0165263
0.0181344
0.0201611
0.0228051
0.0264453
0.0311067
0.0373572
0.0471288
0.0734137
0.0168556
0.0176538
0.0184647
0.0192302
0.0199141
0.0204941
0.0209578
0.0212981
0.0215135
0.0216073
0.0215875
0.0214661
0.0212579
0.0209785
0.020642
0.0202584
0.0198311
0.0193566
0.0188291
0.0182468
0.017395
0.0165742
0.0160249
0.0155022
0.0150036
0.0145274
0.014073
0.013642
0.0132362
0.0128599
0.0125174
0.0122134
0.0119532
0.0117415
0.0115849
0.0114882
0.0114541
0.0114801
0.0115538
0.011658
0.0117694
0.0181922
0.0191594
0.0201117
0.0209863
0.0217521
0.0223923
0.022896
0.0232568
0.0234729
0.0235484
0.0234928
0.0233202
0.023048
0.0226935
0.0222723
0.021795
0.0212657
0.0206839
0.020049
0.0193668
0.0184222
0.017524
0.0169063
0.0163246
0.0157755
0.015256
0.014764
0.014298
0.0138588
0.0134478
0.0130682
0.0127221
0.0124136
0.0121456
0.011924
0.0117552
0.0116469
0.0116035
0.0116206
0.0116828
0.011766
0.0196435
0.0208089
0.0219126
0.022902
0.0237587
0.0244705
0.0250261
0.0254168
0.0256398
0.0256993
0.0256064
0.0253777
0.0250329
0.0245921
0.0240723
0.023486
0.0228399
0.0221381
0.0213869
0.0205981
0.0195591
0.0185795
0.017887
0.0172405
0.0166361
0.0160703
0.0155391
0.0150396
0.0145699
0.01413
0.0137204
0.0133419
0.0129955
0.0126826
0.0124059
0.0121717
0.0119902
0.0118731
0.0118262
0.0118421
0.0118982
0.0212067
0.0225884
0.0238462
0.0249586
0.0259217
0.0267233
0.0273475
0.0277818
0.028021
0.0280692
0.027939
0.0276497
0.0272239
0.0266847
0.0260522
0.025342
0.0245658
0.0237336
0.0228588
0.0219582
0.0208231
0.0197584
0.0189846
0.018267
0.0176018
0.0169849
0.0164116
0.0158774
0.0153788
0.0149136
0.0144805
0.0140784
0.0137058
0.0133613
0.013044
0.0127567
0.0125087
0.0123166
0.0121979
0.0121587
0.0121849
0.0228763
0.0244763
0.0258886
0.0271389
0.0282307
0.0291455
0.0298594
0.0303543
0.0306218
0.0306656
0.0304998
0.0301464
0.0296317
0.0289828
0.0282243
0.0273773
0.0264597
0.0254892
0.024485
0.0234677
0.0222353
0.0210821
0.0202205
0.0194255
0.0186933
0.0180199
0.0173999
0.0168279
0.0162992
0.0158102
0.0153576
0.0149388
0.0145505
0.0141885
0.0138479
0.0135258
0.013226
0.0129643
0.0127669
0.0126584
0.0126441
0.0246464
0.026451
0.0280223
0.0294323
0.0306797
0.0317337
0.0325605
0.0331352
0.0334458
0.0334946
0.0332969
0.0328778
0.0322679
0.0314998
0.0306047
0.0296108
0.028544
0.0274292
0.0262911
0.0251529
0.023822
0.0225775
0.0216219
0.0207432
0.019938
0.0192019
0.0185295
0.017915
0.0173528
0.0168383
0.0163671
0.0159353
0.0155385
0.0151709
0.0148244
0.0144901
0.0141621
0.0138471
0.013571
0.0133753
0.0132969
0.0265157
0.0285012
0.0302434
0.0318385
0.033268
0.0344865
0.0354497
0.0361251
0.0364956
0.0365613
0.0363383
0.0358546
0.0351465
0.0342535
0.0332151
0.0320685
0.0308479
0.0295853
0.0283099
0.0270468
0.0256162
0.0242781
0.023223
0.0222549
0.0213707
0.0205659
0.0198351
0.0191722
0.0185715
0.0180276
0.0175354
0.0170904
0.0166878
0.0163215
0.0159826
0.015658
0.0153321
0.014995
0.0146568
0.0143602
0.0141775
0.0284952
0.0306363
0.0325667
0.0343696
0.0360032
0.037408
0.0385293
0.039326
0.0397743
0.0398713
0.0396328
0.0390901
0.0382857
0.0372677
0.0360851
0.0347846
0.0334093
0.0319975
0.0305827
0.0291916
0.0276604
0.0262272
0.025068
0.0240055
0.0230369
0.0221579
0.0213628
0.0206459
0.0200011
0.0194227
0.0189052
0.0184438
0.0180339
0.0176702
0.0173451
0.0170458
0.0167516
0.0164364
0.0160794
0.0156921
0.0153531
0.0306142
0.0328923
0.0350281
0.0370534
0.0389048
0.0405113
0.041808
0.042744
0.0432881
0.0434323
0.0431919
0.0426012
0.0417094
0.0405733
0.0392521
0.0378025
0.0362757
0.0347165
0.0331622
0.0316414
0.0300099
0.0284811
0.0272142
0.0260534
0.0249962
0.0240383
0.0231744
0.0223986
0.0217049
0.0210873
0.0205402
0.0200588
0.0196385
0.0192753
0.0189639
0.0186954
0.0184523
0.0182026
0.0178968
0.0174808
0.0169542
0.0329198
0.0353371
0.037688
0.0399379
0.0420102
0.0438242
0.0453056
0.0463936
0.0470484
0.0472566
0.0470316
0.0464101
0.0454473
0.0442086
0.0427628
0.0411757
0.0395067
0.0378063
0.0361159
0.034467
0.0327372
0.031114
0.0297383
0.0284771
0.0273284
0.0262886
0.0253527
0.0245149
0.0237693
0.0231098
0.0225307
0.0220274
0.0215954
0.0212315
0.0209324
0.0206936
0.0205061
0.0203472
0.0201635
0.0198435
0.0191982
0.0354718
0.038073
0.0406375
0.0430989
0.0453814
0.0473952
0.0490586
0.0503017
0.0510765
0.0513637
0.051174
0.050545
0.0495363
0.0482204
0.0466736
0.0449701
0.0431762
0.0413481
0.0395317
0.0377612
0.0359394
0.0342264
0.0327438
0.031383
0.0301428
0.0290203
0.0280114
0.0271107
0.0263126
0.025611
0.0250007
0.0244769
0.0240358
0.0236743
0.0233902
0.023182
0.0230473
0.0229788
0.0229482
0.0228561
0.0223489
0.0385451
0.0412398
0.0440068
0.0466491
0.0491133
0.051301
0.0531268
0.054514
0.0554083
0.0557845
0.0556503
0.0550421
0.0540215
0.0526645
0.051053
0.0492665
0.0473773
0.0454465
0.0435242
0.0416481
0.0397478
0.0379557
0.0363745
0.0349199
0.0335925
0.0323908
0.0313115
0.0303504
0.0295022
0.0287617
0.0281241
0.027585
0.0271411
0.02679
0.0265299
0.0263604
0.0262822
0.0262967
0.0264012
0.0265686
0.0265578
0.0423846
0.045165
0.0479683
0.0507558
0.0533436
0.0556574
0.0576022
0.0591025
0.0601001
0.0605661
0.0605043
0.0599484
0.058958
0.057609
0.0559841
0.0541655
0.0522283
0.0502374
0.0482462
0.046296
0.0443435
0.0424946
0.0408337
0.0393009
0.0378991
0.0366287
0.0354883
0.0344747
0.0335841
0.0328125
0.0321558
0.0316106
0.0311746
0.0308459
0.0306236
0.030508
0.0305013
0.0306075
0.0308306
0.0311865
0.0316818
0.047295
0.0500956
0.0529136
0.0556642
0.0582691
0.0606331
0.06262
0.0641753
0.0652375
0.0657783
0.0657981
0.0653259
0.0644156
0.0631376
0.0615706
0.0597939
0.057882
0.0559004
0.0539041
0.0519369
0.0499814
0.0481192
0.0464173
0.0448395
0.0433919
0.0420777
0.0408974
0.0398502
0.0389341
0.038147
0.0374864
0.0369504
0.0365377
0.0362478
0.0360805
0.0360375
0.036122
0.0363407
0.0366993
0.0372299
0.037886
0.0537773
0.0564693
0.059164
0.0617818
0.0642429
0.0664647
0.0683777
0.0698908
0.0709463
0.0715232
0.0716194
0.0712582
0.0704841
0.0693565
0.0679434
0.0663151
0.0645394
0.0626775
0.0607827
0.0588986
0.0570294
0.0552358
0.0535685
0.052013
0.0505791
0.049273
0.0480986
0.0470577
0.0461513
0.0453796
0.0447426
0.0442403
0.0438732
0.043642
0.0435478
0.0435943
0.0437855
0.0441298
0.0446438
0.0452945
0.0460963
0.0626199
0.06498
0.06732
0.069572
0.0716739
0.0735631
0.0751804
0.0764745
0.0774093
0.0779481
0.0780926
0.0778602
0.0772826
0.0764032
0.0752722
0.0739433
0.0724698
0.0709018
0.0692841
0.0676556
0.0660341
0.0644618
0.0629746
0.0615752
0.060276
0.0590865
0.0580139
0.0570634
0.0562392
0.0555445
0.0549821
0.0545545
0.0542641
0.0541131
0.0541036
0.0542408
0.0545341
0.0549732
0.0555605
0.056294
0.0571776
0.0751479
0.0767574
0.0783286
0.0798169
0.0811883
0.0824093
0.0834496
0.0842834
0.0848917
0.0852633
0.0853944
0.0852914
0.0849724
0.0844602
0.0837814
0.0829654
0.0820422
0.0810415
0.0799911
0.0789161
0.0778349
0.0767716
0.0757471
0.0747714
0.0738564
0.073012
0.0722466
0.0715673
0.0709802
0.0704907
0.0701032
0.0698219
0.0696503
0.0695925
0.0696506
0.0698251
0.0701161
0.0705225
0.0710413
0.0716676
0.0724039
0.0517163
0.0265361
0.0263013
0.0269
0.0273451
0.0276592
0.0279065
0.028144
0.0284157
0.0287621
0.0292212
0.0298292
0.030622
0.0316362
0.0329103
0.0344699
0.0361977
0.0507948
0.0262932
0.0261983
0.0268393
0.0273074
0.0276386
0.0278945
0.0281274
0.0283775
0.0286805
0.0290691
0.0295734
0.0302242
0.031058
0.0321266
0.0335076
0.0352893
0.049865
0.02607
0.0260846
0.0267627
0.0272513
0.0275966
0.0278613
0.0280945
0.0283333
0.0286128
0.0289679
0.0294347
0.0300523
0.0308662
0.0319325
0.0333195
0.0351687
0.0491979
0.0258249
0.0259426
0.0266609
0.0271716
0.0275291
0.0277972
0.0280224
0.0282372
0.0284687
0.0287406
0.0290719
0.0294741
0.0299503
0.0304942
0.0310874
0.0316533
0.048819
0.0255666
0.0257738
0.026536
0.0270699
0.027438
0.0277067
0.0279222
0.0281152
0.0283096
0.0285247
0.0287764
0.0290755
0.0294298
0.0298518
0.0303595
0.0309616
0.0487572
0.025307
0.025584
0.0263922
0.0269488
0.0273259
0.0275956
0.0278068
0.027992
0.0281756
0.0283779
0.0286178
0.0289114
0.0292701
0.0297084
0.0302514
0.0309141
0.0490379
0.0250645
0.0253829
0.0262357
0.02681
0.0271856
0.0274425
0.0276329
0.0277879
0.0279264
0.0280598
0.0281951
0.0283331
0.028469
0.0285924
0.0286958
0.0287866
0.0496903
0.0248598
0.0251818
0.0260784
0.0266697
0.0270401
0.0272785
0.0274426
0.027566
0.0276671
0.0277568
0.0278424
0.0279272
0.0280148
0.0281113
0.0282173
0.0283405
0.0507247
0.0247129
0.0249883
0.025924
0.0265337
0.026901
0.0271248
0.02727
0.0273746
0.0274597
0.0275373
0.0276162
0.0277019
0.0277955
0.0279115
0.0280764
0.0282801
0.0521197
0.0246454
0.0248048
0.0257659
0.02639
0.0267472
0.0269409
0.027039
0.027082
0.0270923
0.0270791
0.0270455
0.0269921
0.0269163
0.0268148
0.0266962
0.0265734
0.0538365
0.0246859
0.0246334
0.0256026
0.0262446
0.0266029
0.0267786
0.0268414
0.0268364
0.0267915
0.0267261
0.0266513
0.026572
0.0264892
0.0263999
0.0262964
0.0261711
0.0557998
0.0248705
0.0244713
0.0254183
0.0260747
0.0264428
0.0266165
0.0266618
0.0266222
0.0265279
0.0264062
0.0262798
0.0261649
0.0260729
0.0260112
0.0259811
0.0259789
0.0579121
0.0252175
0.0243141
0.025192
0.0258448
0.026216
0.0263864
0.0264165
0.0263424
0.0261889
0.0259809
0.0257421
0.0254924
0.0252441
0.0250016
0.0247642
0.0245257
0.0600708
0.0257683
0.024161
0.0249124
0.0255396
0.0259071
0.0260774
0.0261071
0.026029
0.0258635
0.025633
0.025363
0.0250797
0.0248023
0.0245389
0.024285
0.0240228
0.0621516
0.0265987
0.0240264
0.0245687
0.0251413
0.0254898
0.0256519
0.0256801
0.0256053
0.0254413
0.0252022
0.0249082
0.02459
0.0242817
0.0240164
0.0238203
0.0237133
0.0640269
0.0277671
0.0239189
0.0241598
0.0246421
0.0249514
0.0250903
0.0251051
0.0250274
0.0248718
0.024642
0.0243383
0.0239766
0.0235757
0.0231609
0.0227626
0.0224064
0.0655566
0.0293209
0.0238614
0.0237017
0.0240527
0.0243006
0.0244021
0.0243909
0.0242971
0.0241442
0.0239422
0.0236894
0.02338
0.0230143
0.0226061
0.0221826
0.021768
0.0665686
0.0311912
0.0238994
0.0232301
0.0233978
0.0235559
0.0236046
0.0235556
0.0234332
0.0232632
0.0230614
0.0228325
0.0225718
0.0222726
0.0219374
0.0215996
0.0213482
0.0668742
0.0329155
0.0241241
0.0227923
0.0227082
0.022738
0.022714
0.0226179
0.0224619
0.0222678
0.0220534
0.021827
0.021587
0.0213205
0.0210046
0.0206149
0.0201701
0.06631
0.0336553
0.0244536
0.0224393
0.0220125
0.0218634
0.0217416
0.02159
0.0214
0.0211848
0.0209601
0.020736
0.0205161
0.0202964
0.0200618
0.0197761
0.0193643
0.0649226
0.0339024
0.0248937
0.0222223
0.0213442
0.020954
0.0207053
0.0204884
0.0202664
0.0200383
0.0198132
0.0195982
0.0193968
0.0192091
0.0190361
0.0188854
0.0187486
0.0629414
0.0356971
0.0257846
0.0222506
0.020791
0.0200782
0.0196581
0.0193554
0.0190975
0.0188614
0.0186446
0.0184477
0.0182708
0.0181135
0.0179731
0.0178589
0.017714
0.0606094
0.039102
0.0274288
0.0227239
0.0205396
0.0193947
0.018726
0.0182886
0.0179681
0.0177128
0.017501
0.0173224
0.0171713
0.0170446
0.0169379
0.0168588
0.0167697
0.0587554
0.0405414
0.0292147
0.0236355
0.0207051
0.0190476
0.018048
0.0174086
0.0169752
0.0166663
0.0164374
0.0162633
0.0161297
0.016028
0.0159513
0.0158984
0.0158613
0.0576012
0.0422386
0.0309922
0.0248207
0.0212483
0.0190698
0.0176907
0.0167922
0.0161929
0.0157857
0.0155056
0.0153113
0.0151773
0.0150879
0.0150313
0.0150047
0.0149942
0.0574573
0.0448814
0.0331103
0.0262357
0.0220464
0.0193716
0.0176124
0.0164352
0.0156405
0.0151027
0.0147404
0.0144992
0.0143427
0.0142472
0.0141961
0.0141828
0.0141898
0.0585688
0.0477055
0.0351439
0.0276023
0.0228888
0.019795
0.0177041
0.016271
0.0152849
0.0146084
0.014149
0.0138431
0.0136459
0.0135273
0.0134665
0.013449
0.0134666
0.0609348
0.0494148
0.0363959
0.0285352
0.0235326
0.0201717
0.0178464
0.0162181
0.015075
0.0142759
0.0137228
0.013347
0.0130993
0.0129448
0.0128599
0.0128273
0.0128372
0.064162
0.0493883
0.0366394
0.0289312
0.023896
0.0204264
0.0179745
0.0162249
0.0149748
0.0140844
0.0134549
0.0130152
0.0127144
0.0125161
0.012395
0.0123333
0.012316
0.0675544
0.0481547
0.0363648
0.0290326
0.0240776
0.020589
0.0180884
0.0162823
0.0149747
0.0140282
0.0133446
0.0128533
0.0125026
0.0122542
0.0120805
0.0119631
0.0118926
0.0705149
0.0479195
0.0363634
0.0291213
0.0241937
0.0207184
0.0182236
0.016414
0.0150924
0.0141216
0.0134063
0.01288
0.0124907
0.012202
0.0119887
0.0118329
0.0117248
0.0728004
0.0481551
0.036363
0.0290897
0.0242138
0.0208168
0.0183944
0.0166374
0.0153443
0.0143866
0.0136714
0.013127
0.012706
0.0123752
0.0121122
0.011902
0.0117361
0.0744763
0.0482982
0.0361496
0.0288896
0.024156
0.0209229
0.0186414
0.0169871
0.0157666
0.0148497
0.0141416
0.0135803
0.0131236
0.0127429
0.0124196
0.0121422
0.0119053
0.0756749
0.048007
0.0356339
0.0285469
0.0240842
0.0211053
0.0190237
0.0175121
0.016389
0.0155177
0.0148168
0.0142332
0.0137322
0.0132909
0.0128955
0.0125386
0.0122181
0.0765003
0.047308
0.034922
0.0282005
0.0241336
0.021478
0.019629
0.0182818
0.0172464
0.0164105
0.0157042
0.0150841
0.0145234
0.0140062
0.0135239
0.0130733
0.0126549
0.0770096
0.0463688
0.0342783
0.0281211
0.0245349
0.0222197
0.0205875
0.0193711
0.0183937
0.0175619
0.0168206
0.0161372
0.0154932
0.014879
0.0142908
0.013729
0.0131978
0.0772138
0.0455119
0.034147
0.02871
0.0255995
0.0235559
0.0220563
0.0208861
0.0198959
0.0190101
0.0181861
0.0174003
0.0166407
0.0159023
0.0151852
0.014493
0.0138321
0.0771087
0.0453715
0.0351898
0.0304638
0.0276649
0.025709
0.0241811
0.0229186
0.02181
0.0207895
0.0198204
0.0188829
0.0179674
0.0170717
0.0161981
0.0153523
0.0145426
0.0767042
0.047001
0.0382277
0.033881
0.0310205
0.0288483
0.0270639
0.0255293
0.0241753
0.0229268
0.0217411
0.0205948
0.019477
0.0183851
0.0173222
0.0162952
0.0153136
0.0760334
0.0519691
0.0441295
0.039375
0.0358661
0.0330815
0.0307719
0.0287638
0.027027
0.025449
0.0239677
0.0225485
0.0211748
0.0198413
0.018551
0.0173112
0.0161327
0.0466092
0.0544072
0.0627368
0.071722
0.081917
0.0946647
0.112108
0.137173
0.173067
0.231112
0.358522
0.294003
0.207345
0.155309
0.142989
0.152763
0.156991
0.137927
0.101871
0.0676056
0.0514935
0.060857
0.0711182
0.0824798
0.0955414
0.111723
0.133357
0.163186
0.203349
0.26103
0.399863
0.321524
0.224259
0.170153
0.162274
0.178483
0.185949
0.163727
0.119288
0.0766335
0.0575068
0.0687791
0.0813521
0.0956918
0.112498
0.133271
0.160416
0.19598
0.241042
0.299022
0.447933
0.350339
0.241182
0.186375
0.184613
0.207907
0.21871
0.192597
0.139052
0.0872572
0.0649854
0.0784548
0.0936712
0.111592
0.13317
0.160067
0.194557
0.237439
0.287434
0.347149
0.49735
0.379176
0.258133
0.203684
0.210338
0.241638
0.255754
0.224838
0.161218
0.09981
0.074363
0.0902631
0.108347
0.130395
0.157896
0.192839
0.237057
0.289371
0.343271
0.403881
0.548576
0.410226
0.275792
0.222585
0.242453
0.280055
0.298609
0.262184
0.186077
0.114722
0.0862708
0.1048
0.125856
0.15252
0.187277
0.23269
0.289595
0.35253
0.408083
0.46743
0.596339
0.447934
0.296018
0.245226
0.279108
0.324887
0.349604
0.30654
0.214357
0.132924
0.101691
0.12307
0.147176
0.179004
0.222651
0.28153
0.354273
0.427488
0.481239
0.543699
0.644911
0.486842
0.32436
0.277664
0.312045
0.374002
0.408502
0.359481
0.24787
0.1556
0.122145
0.14675
0.174216
0.212024
0.266649
0.342289
0.433197
0.515
0.567551
0.626323
0.692837
0.524666
0.356238
0.310732
0.352946
0.422755
0.468984
0.423951
0.289338
0.182549
0.14989
0.178517
0.210326
0.25548
0.323672
0.419196
0.528777
0.615483
0.662564
0.701822
0.734306
0.557812
0.375744
0.337205
0.393958
0.466572
0.522595
0.495216
0.340537
0.215007
0.187894
0.222614
0.261065
0.315927
0.400724
0.518182
0.643652
0.732999
0.751217
0.764848
0.76578
0.585443
0.399176
0.367582
0.433195
0.504829
0.56547
0.563543
0.405147
0.25549
0.240567
0.286295
0.335183
0.403966
0.50729
0.645024
0.778332
0.850822
0.821891
0.808192
0.784319
0.604312
0.416586
0.407348
0.473789
0.54101
0.599837
0.621707
0.483245
0.306964
0.316443
0.377665
0.441226
0.530645
0.652762
0.802499
0.931013
0.936558
0.865242
0.828002
0.785885
0.615687
0.439182
0.458898
0.520463
0.58013
0.630218
0.665359
0.568683
0.373817
0.427033
0.508017
0.590856
0.7052
0.84127
0.982696
1.05246
0.985258
0.880723