/*--------------------------------*- C++ -*----------------------------------*\
  =========                 |
  \\      /  F ield         | OpenFOAM: The Open Source CFD Toolbox
   \\    /   O peration     | Website:  https://openfoam.org
    \\  /    A nd           | Version:  6
     \\/     M anipulation  |
\*---------------------------------------------------------------------------*/
FoamFile
{
    version     2.0;
    format      ascii;
    class       volScalarField;
    location    "4.71";
    object      rho;
}
// * * * * * * * * * * * * * * * * * * * * * * * * * * * * * * * * * * * * * //

dimensions      [1 -3 0 0 0 0 0];

internalField   nonuniform List<scalar> 
10000
(
1.39999
1.39999
1.4
1.4
1.4
1.4
1.4
1.4
1.4
1.4
1.4
1.40001
1.4
1.40001
1.4
1.40001
1.4
1.40001
1.4
1.40001
1.4
1.40001
1.4
1.40001
1.40001
1.4
1.40001
1.40001
1.4
1.4
1.40001
1.4
1.40001
1.40001
1.40001
1.40001
1.40001
1.40001
1.40001
1.40001
1.40002
1.40002
1.40003
1.40004
1.40004
1.40005
1.40005
1.40006
1.40006
1.40006
1.40008
1.40014
1.40027
1.40049
1.40085
1.40139
1.40214
1.40312
1.40433
1.40575
1.40734
1.40906
1.41082
1.41257
1.41424
1.41576
1.41708
1.41817
1.41899
1.41953
1.41978
1.41973
1.41939
1.41877
1.41788
1.41673
1.41538
1.41385
1.41222
1.41054
1.40889
1.40733
1.40589
1.40463
1.40356
1.40266
1.40194
1.40138
1.40095
1.40063
1.4004
1.40024
1.40013
1.40007
1.40002
1.4
1.39999
1.39999
1.39999
1.39999
1.39999
1.39999
1.39999
1.4
1.4
1.4
1.4
1.4
1.4
1.4
1.4
1.4
1.40001
1.4
1.40001
1.40001
1.40001
1.40001
1.4
1.40001
1.4
1.40001
1.4
1.40001
1.4
1.40001
1.4
1.40001
1.4
1.40001
1.4
1.40001
1.40001
1.40001
1.40001
1.40001
1.40001
1.40001
1.40001
1.40001
1.40002
1.40003
1.40004
1.40005
1.40006
1.40007
1.40008
1.40008
1.40009
1.40012
1.40018
1.4003
1.40053
1.40092
1.40152
1.40237
1.40352
1.40497
1.40672
1.40872
1.4109
1.41319
1.41549
1.41771
1.41977
1.42161
1.42317
1.42443
1.42536
1.42596
1.42622
1.42615
1.42575
1.42502
1.42398
1.42262
1.42097
1.41907
1.41699
1.4148
1.41259
1.41045
1.40847
1.40669
1.40515
1.40387
1.40283
1.40201
1.40139
1.40092
1.40059
1.40035
1.4002
1.4001
1.40003
1.4
1.39998
1.39998
1.39998
1.39998
1.39998
1.39999
1.39999
1.39999
1.4
1.4
1.4
1.4
1.4
1.4
1.4
1.4
1.4
1.40001
1.4
1.40001
1.4
1.40001
1.4
1.40001
1.4
1.40001
1.4
1.40001
1.4
1.4
1.40001
1.4
1.40001
1.4
1.40001
1.4
1.40001
1.40001
1.40001
1.40001
1.40001
1.40001
1.40001
1.40002
1.40003
1.40004
1.40005
1.40006
1.40008
1.40009
1.40011
1.40012
1.40015
1.40021
1.40033
1.40056
1.40095
1.40159
1.40253
1.40383
1.40552
1.4076
1.41002
1.41271
1.41557
1.41847
1.4213
1.42395
1.42633
1.42839
1.43008
1.43141
1.43236
1.43295
1.43319
1.4331
1.43268
1.43192
1.43081
1.42934
1.42752
1.42534
1.42287
1.42018
1.41737
1.41459
1.41193
1.40951
1.40738
1.40557
1.40409
1.40292
1.40202
1.40135
1.40086
1.40052
1.40029
1.40015
1.40006
1.4
1.39998
1.39997
1.39997
1.39997
1.39997
1.39998
1.39999
1.39999
1.4
1.4
1.4
1.4
1.4
1.4
1.4
1.4
1.40001
1.4
1.40001
1.4
1.40001
1.4
1.40001
1.40001
1.4
1.40001
1.4
1.4
1.40001
1.40001
1.4
1.40001
1.40001
1.4
1.40001
1.40001
1.4
1.40001
1.40001
1.40001
1.40001
1.40001
1.40002
1.40002
1.40004
1.40005
1.40007
1.40009
1.40011
1.40013
1.40015
1.40018
1.40024
1.40035
1.40057
1.40096
1.4016
1.40259
1.40401
1.40591
1.40831
1.41117
1.41439
1.41785
1.42139
1.42485
1.42809
1.431
1.4335
1.43556
1.43718
1.43838
1.43919
1.43967
1.43984
1.43973
1.43934
1.43866
1.43766
1.43629
1.43451
1.43229
1.42962
1.42657
1.42325
1.41981
1.41643
1.41325
1.41038
1.40791
1.40586
1.40421
1.40293
1.40197
1.40127
1.40078
1.40045
1.40023
1.40009
1.40002
1.39998
1.39996
1.39996
1.39996
1.39996
1.39997
1.39998
1.39999
1.39999
1.4
1.4
1.4
1.4
1.4
1.4
1.4
1.4
1.4
1.4
1.40001
1.40001
1.4
1.40001
1.4
1.40001
1.4
1.40001
1.40001
1.40001
1.40001
1.4
1.4
1.40001
1.4
1.40001
1.40001
1.40001
1.40001
1.40001
1.40001
1.40001
1.40002
1.40002
1.40003
1.40005
1.40006
1.40009
1.40011
1.40014
1.40017
1.40021
1.40026
1.40037
1.40056
1.40093
1.40156
1.40256
1.40406
1.40612
1.40881
1.41207
1.41582
1.4199
1.42409
1.42818
1.43199
1.43537
1.43821
1.44048
1.44221
1.44344
1.44425
1.44472
1.44494
1.44496
1.44482
1.44453
1.44407
1.4434
1.44243
1.44104
1.43914
1.43665
1.43357
1.42998
1.42604
1.42198
1.418
1.4143
1.41103
1.40825
1.40599
1.40421
1.40285
1.40186
1.40116
1.40067
1.40036
1.40016
1.40004
1.39998
1.39995
1.39995
1.39995
1.39995
1.39996
1.39997
1.39998
1.39999
1.39999
1.4
1.4
1.4
1.4
1.4
1.4
1.4
1.4
1.4
1.4
1.40001
1.4
1.40001
1.4
1.4
1.40001
1.4
1.4
1.40001
1.4
1.4
1.40001
1.40001
1.4
1.40001
1.40001
1.40001
1.40001
1.40001
1.40001
1.40001
1.40002
1.40003
1.40004
1.40006
1.40008
1.40011
1.40015
1.40018
1.40022
1.40028
1.40038
1.40056
1.40089
1.40147
1.40245
1.40396
1.40612
1.40903
1.41266
1.41692
1.4216
1.42644
1.43116
1.43549
1.43924
1.44228
1.44457
1.44615
1.44712
1.44759
1.44771
1.44761
1.4474
1.44718
1.447
1.44688
1.44679
1.44666
1.4464
1.44583
1.44475
1.44298
1.4404
1.43701
1.43293
1.42841
1.42373
1.41919
1.41503
1.4114
1.40837
1.40595
1.40408
1.40269
1.4017
1.40101
1.40055
1.40026
1.40009
1.4
1.39995
1.39994
1.39994
1.39993
1.39995
1.39996
1.39997
1.39998
1.39999
1.39999
1.4
1.4
1.4
1.4
1.4
1.4
1.4
1.4
1.4
1.40001
1.4
1.40001
1.40001
1.4
1.40001
1.40001
1.4
1.40001
1.40001
1.4
1.4
1.40001
1.4
1.40001
1.40001
1.40001
1.40001
1.40001
1.40001
1.40002
1.40002
1.40004
1.40005
1.40008
1.40011
1.40014
1.40019
1.40024
1.40029
1.40038
1.40054
1.40083
1.40136
1.40226
1.40372
1.40591
1.40895
1.41288
1.41759
1.42285
1.42833
1.43366
1.43847
1.4425
1.44558
1.44767
1.44883
1.4492
1.44898
1.44835
1.44751
1.44664
1.44589
1.44536
1.44511
1.44518
1.44555
1.44615
1.44685
1.44747
1.44772
1.44729
1.44591
1.44341
1.43981
1.4353
1.43023
1.42498
1.41994
1.41538
1.41146
1.40825
1.40574
1.40384
1.40246
1.40149
1.40085
1.40043
1.40017
1.40003
1.39996
1.39993
1.39993
1.39992
1.39993
1.39995
1.39996
1.39998
1.39999
1.39999
1.4
1.4
1.4
1.4
1.4
1.4
1.4
1.4
1.40001
1.4
1.40001
1.4
1.40001
1.4
1.40001
1.4
1.40001
1.4
1.40001
1.4
1.4
1.40001
1.4
1.40001
1.40001
1.40001
1.40001
1.40001
1.40001
1.40002
1.40003
1.40005
1.40007
1.4001
1.40014
1.40018
1.40024
1.4003
1.40039
1.40052
1.40077
1.40122
1.40203
1.40338
1.4055
1.40858
1.41269
1.41778
1.42357
1.42968
1.4356
1.44086
1.44509
1.44808
1.44978
1.45027
1.44976
1.4485
1.44677
1.44482
1.44288
1.44116
1.4398
1.43892
1.4386
1.43886
1.43969
1.44105
1.44283
1.44485
1.44679
1.44824
1.44876
1.44796
1.44565
1.44189
1.43699
1.43141
1.42566
1.42019
1.41532
1.41121
1.40791
1.40537
1.4035
1.40217
1.40126
1.40067
1.4003
1.40009
1.39998
1.39993
1.39991
1.39991
1.39992
1.39994
1.39995
1.39997
1.39998
1.39999
1.39999
1.4
1.4
1.4
1.4
1.4
1.4
1.4
1.4
1.4
1.40001
1.4
1.40001
1.4
1.40001
1.4
1.40001
1.40001
1.40001
1.4
1.4
1.40001
1.4
1.40001
1.40001
1.40001
1.40001
1.40001
1.40002
1.40002
1.40004
1.40006
1.40009
1.40012
1.40017
1.40023
1.4003
1.40038
1.4005
1.40071
1.40109
1.40178
1.40298
1.40494
1.40792
1.41209
1.41744
1.4237
1.4304
1.43691
1.44263
1.44704
1.44986
1.45103
1.45068
1.44907
1.44654
1.44345
1.44012
1.43685
1.43385
1.43133
1.42941
1.42821
1.42779
1.42819
1.4294
1.43141
1.43416
1.43753
1.44123
1.44484
1.44777
1.4494
1.44927
1.44717
1.44325
1.43796
1.43191
1.42573
1.41994
1.41487
1.41067
1.40737
1.40488
1.40309
1.40184
1.40102
1.4005
1.40019
1.40002
1.39994
1.39991
1.3999
1.39991
1.39992
1.39994
1.39996
1.39997
1.39998
1.39999
1.4
1.4
1.4
1.4
1.4
1.4
1.4
1.40001
1.4
1.40001
1.4
1.40001
1.40001
1.4
1.40001
1.40001
1.4
1.40001
1.40001
1.4
1.4
1.40001
1.40001
1.40001
1.40001
1.40001
1.40001
1.40002
1.40003
1.40005
1.40007
1.40011
1.40015
1.40021
1.40028
1.40037
1.40048
1.40066
1.40097
1.40153
1.40255
1.40429
1.40706
1.41112
1.41656
1.42318
1.43043
1.43755
1.44376
1.44839
1.45105
1.45165
1.45036
1.44754
1.44362
1.43905
1.43423
1.4295
1.42512
1.42129
1.41816
1.41582
1.41437
1.41387
1.41433
1.41577
1.4182
1.42164
1.42603
1.43122
1.43684
1.44229
1.44678
1.44955
1.45002
1.44804
1.44388
1.43818
1.43171
1.42519
1.41919
1.41404
1.40987
1.40666
1.4043
1.40263
1.4015
1.40078
1.40034
1.40009
1.39996
1.39991
1.39989
1.39989
1.39991
1.39993
1.39995
1.39997
1.39998
1.39999
1.39999
1.4
1.4
1.4
1.4
1.4
1.4
1.40001
1.4
1.40001
1.40001
1.4
1.40001
1.4
1.40001
1.40001
1.4
1.4
1.40001
1.4
1.40001
1.40001
1.40001
1.40001
1.40001
1.40001
1.40001
1.40002
1.40004
1.40006
1.40009
1.40013
1.40019
1.40026
1.40034
1.40045
1.4006
1.40086
1.40131
1.40214
1.40361
1.40606
1.40985
1.4152
1.422
1.42972
1.43748
1.44426
1.44921
1.45179
1.45187
1.44967
1.44564
1.44033
1.43427
1.42797
1.42181
1.41609
1.41101
1.40671
1.40326
1.40072
1.39913
1.39855
1.39899
1.40048
1.40305
1.40677
1.4117
1.41783
1.42494
1.43255
1.43983
1.44579
1.4495
1.45036
1.44831
1.4438
1.43767
1.43083
1.42408
1.41801
1.41292
1.40888
1.40584
1.40366
1.40216
1.40117
1.40056
1.4002
1.40001
1.39992
1.39989
1.39988
1.3999
1.39992
1.39994
1.39996
1.39997
1.39998
1.39999
1.4
1.4
1.4
1.4
1.4
1.4
1.4
1.40001
1.4
1.40001
1.40001
1.4
1.4
1.40001
1.4
1.40001
1.4
1.40001
1.4
1.40001
1.40001
1.40001
1.40001
1.40001
1.40001
1.40002
1.40003
1.40005
1.40007
1.40011
1.40016
1.40023
1.40031
1.40041
1.40055
1.40076
1.40112
1.40177
1.40296
1.40503
1.40839
1.41342
1.42019
1.42825
1.43663
1.4441
1.44953
1.45221
1.45194
1.44896
1.44381
1.43718
1.42974
1.42206
1.4146
1.40768
1.40152
1.39623
1.39187
1.38843
1.38591
1.38432
1.38368
1.38401
1.38537
1.3878
1.3914
1.39633
1.40271
1.41056
1.41958
1.42908
1.43802
1.44517
1.44948
1.4504
1.44802
1.44303
1.43645
1.42931
1.42247
1.41647
1.41155
1.40775
1.40496
1.403
1.40169
1.40086
1.40036
1.40008
1.39995
1.39991
1.39988
1.39989
1.39991
1.39993
1.39995
1.39997
1.39998
1.39999
1.39999
1.4
1.4
1.4
1.4
1.4
1.4
1.40001
1.4
1.4
1.40001
1.40001
1.4
1.40001
1.40001
1.40001
1.4
1.40001
1.4
1.40001
1.40001
1.40001
1.40001
1.40001
1.40001
1.40002
1.40003
1.40005
1.40009
1.40013
1.40019
1.40027
1.40037
1.4005
1.40067
1.40095
1.40146
1.40238
1.40405
1.40689
1.41139
1.41785
1.42601
1.43494
1.4432
1.44934
1.45239
1.45202
1.44848
1.44241
1.43463
1.42594
1.41703
1.40842
1.40049
1.39346
1.38743
1.38244
1.37842
1.3753
1.37302
1.37153
1.37084
1.37099
1.37203
1.37406
1.37719
1.38164
1.38766
1.39544
1.40496
1.41579
1.42699
1.43724
1.44513
1.44957
1.45013
1.44715
1.44156
1.43456
1.42725
1.42045
1.41466
1.41004
1.40656
1.40407
1.40237
1.40127
1.40059
1.4002
1.4
1.39994
1.39988
1.39988
1.3999
1.39992
1.39994
1.39996
1.39997
1.39999
1.39999
1.4
1.4
1.4
1.4
1.4
1.4
1.40001
1.4
1.4
1.40001
1.4
1.4
1.40001
1.4
1.40001
1.4
1.4
1.40001
1.40001
1.40001
1.40001
1.40001
1.40001
1.40002
1.40003
1.40004
1.40007
1.4001
1.40016
1.40023
1.40032
1.40044
1.40059
1.40082
1.4012
1.4019
1.40319
1.40547
1.40929
1.41513
1.42308
1.43238
1.44147
1.44856
1.45233
1.4522
1.44841
1.44169
1.43297
1.42322
1.41322
1.40362
1.39484
1.38713
1.38059
1.37524
1.37097
1.36764
1.36511
1.36323
1.36192
1.36118
1.36105
1.36161
1.36299
1.36536
1.36896
1.37411
1.38116
1.39032
1.40147
1.41395
1.42653
1.43762
1.44568
1.4497
1.44948
1.44567
1.43943
1.43208
1.42473
1.41814
1.4127
1.40847
1.40538
1.40322
1.40179
1.40089
1.40036
1.40007
1.39998
1.3999
1.39988
1.39989
1.39991
1.39993
1.39995
1.39997
1.39998
1.39999
1.4
1.4
1.4
1.4
1.4
1.4
1.4
1.40001
1.4
1.40001
1.40001
1.4
1.40001
1.4
1.40001
1.4
1.40001
1.40001
1.40001
1.40001
1.40001
1.40001
1.40001
1.40002
1.40003
1.40005
1.40008
1.40012
1.40019
1.40027
1.40037
1.40051
1.4007
1.40099
1.40151
1.40247
1.40423
1.4073
1.41229
1.41963
1.42896
1.4388
1.44705
1.4519
1.45247
1.44884
1.44179
1.4324
1.42178
1.41085
1.40035
1.39081
1.38254
1.37567
1.37017
1.36593
1.36276
1.36041
1.35865
1.35729
1.35621
1.35539
1.35487
1.35478
1.35528
1.35661
1.35905
1.36297
1.36881
1.37695
1.38756
1.4003
1.4142
1.42772
1.43905
1.44663
1.44967
1.44832
1.44352
1.43666
1.4291
1.42189
1.41567
1.41068
1.40693
1.40425
1.40245
1.40129
1.40058
1.40019
1.40006
1.39993
1.39988
1.39988
1.3999
1.39992
1.39995
1.39996
1.39998
1.39999
1.39999
1.4
1.4
1.4
1.4
1.4
1.4
1.4
1.4
1.4
1.40001
1.4
1.40001
1.4
1.40001
1.4
1.40001
1.40001
1.40001
1.40001
1.40001
1.40001
1.40001
1.40002
1.40003
1.40006
1.40009
1.40014
1.40022
1.40031
1.40043
1.40059
1.40083
1.40121
1.4019
1.4032
1.40555
1.40958
1.41595
1.42481
1.4351
1.44459
1.4509
1.45266
1.44968
1.44273
1.43299
1.4217
1.40998
1.39867
1.38841
1.3796
1.37243
1.36692
1.36292
1.36017
1.35838
1.3572
1.35632
1.35553
1.35469
1.35376
1.35277
1.35187
1.35127
1.35128
1.35226
1.35465
1.35893
1.36561
1.37503
1.38719
1.40143
1.41643
1.43033
1.44121
1.44766
1.44924
1.44649
1.44069
1.43335
1.42577
1.41888
1.41315
1.40871
1.40548
1.40324
1.40178
1.40087
1.40034
1.40016
1.39997
1.3999
1.39988
1.39989
1.39992
1.39994
1.39996
1.39997
1.39999
1.39999
1.4
1.4
1.4
1.4
1.4
1.4
1.4
1.4
1.4
1.40001
1.40001
1.40001
1.4
1.40001
1.4
1.40001
1.40001
1.4
1.40001
1.40001
1.40001
1.40002
1.40002
1.40004
1.40007
1.40011
1.40016
1.40025
1.40035
1.40049
1.40068
1.40097
1.40147
1.40239
1.40412
1.4072
1.41238
1.42025
1.43043
1.44098
1.44905
1.45251
1.45075
1.4444
1.4347
1.42302
1.41063
1.39856
1.38756
1.37815
1.37063
1.36508
1.36139
1.35925
1.35828
1.35804
1.35812
1.35817
1.35795
1.35733
1.35626
1.35478
1.35298
1.35111
1.34954
1.34876
1.3493
1.35172
1.3566
1.36442
1.37538
1.38916
1.40473
1.42036
1.43395
1.44364
1.44836
1.44812
1.44391
1.43723
1.4296
1.42223
1.41583
1.41071
1.40688
1.40418
1.40237
1.40122
1.40054
1.40029
1.40004
1.39992
1.39989
1.39989
1.39991
1.39993
1.39995
1.39997
1.39998
1.39999
1.4
1.4
1.4
1.4
1.4
1.4
1.4
1.4
1.40001
1.4
1.40001
1.40001
1.4
1.40001
1.4
1.40001
1.40001
1.4
1.40001
1.40001
1.40001
1.40002
1.40003
1.40004
1.40008
1.40012
1.40018
1.40028
1.4004
1.40055
1.40078
1.40115
1.40179
1.403
1.40525
1.40922
1.41571
1.42507
1.43613
1.44598
1.45164
1.45172
1.44655
1.43737
1.42564
1.41278
1.39998
1.38818
1.37806
1.37004
1.36432
1.36085
1.35934
1.35933
1.36027
1.36163
1.36293
1.36382
1.36409
1.36366
1.3625
1.36062
1.35802
1.35487
1.35157
1.34873
1.34706
1.34727
1.35002
1.3559
1.36524
1.37797
1.39335
1.40989
1.42549
1.438
1.4458
1.44833
1.44613
1.44055
1.43323
1.4256
1.41865
1.41289
1.40846
1.40525
1.40306
1.40165
1.40078
1.40046
1.40012
1.39996
1.3999
1.39989
1.39991
1.39993
1.39995
1.39997
1.39998
1.39999
1.4
1.4
1.4
1.4
1.4
1.4
1.4
1.40001
1.40001
1.4
1.40001
1.40001
1.4
1.40001
1.4
1.4
1.40001
1.4
1.40001
1.40001
1.40001
1.40002
1.40003
1.40005
1.40009
1.40014
1.40021
1.40031
1.40045
1.40062
1.40088
1.40135
1.40218
1.40374
1.40663
1.41163
1.41954
1.43021
1.44139
1.44955
1.45215
1.44883
1.44073
1.42939
1.41633
1.40291
1.39027
1.37927
1.37053
1.36438
1.36091
1.35989
1.36082
1.36304
1.36584
1.36861
1.37088
1.37236
1.37293
1.37262
1.37147
1.36945
1.3664
1.3623
1.35742
1.35241
1.3482
1.34578
1.346
1.34957
1.35692
1.36816
1.38277
1.39951
1.41643
1.43121
1.44184
1.44718
1.44727
1.44317
1.43651
1.42888
1.42152
1.41519
1.41017
1.40645
1.40386
1.40215
1.40108
1.40066
1.40023
1.40002
1.39992
1.3999
1.39991
1.39992
1.39995
1.39996
1.39998
1.39999
1.39999
1.4
1.4
1.4
1.4
1.4
1.4
1.40001
1.4
1.4
1.40001
1.40001
1.4
1.40001
1.40001
1.4
1.40001
1.4
1.40001
1.40001
1.40001
1.40002
1.40004
1.40005
1.40009
1.40016
1.40023
1.40034
1.4005
1.40069
1.401
1.40159
1.40265
1.40463
1.40826
1.41444
1.42379
1.43531
1.44575
1.45143
1.45075
1.4444
1.43396
1.42111
1.40729
1.39383
1.38181
1.37207
1.36517
1.36133
1.36048
1.36216
1.36559
1.36988
1.37419
1.37788
1.38057
1.38212
1.38261
1.38225
1.38122
1.37947
1.37666
1.3724
1.36659
1.35977
1.353
1.34761
1.34483
1.34562
1.35057
1.35989
1.37326
1.38964
1.40723
1.42372
1.43679
1.44483
1.44734
1.44501
1.43931
1.43195
1.42437
1.41756
1.41199
1.40776
1.40475
1.40272
1.40143
1.4009
1.40037
1.40009
1.39996
1.39991
1.39991
1.39992
1.39994
1.39996
1.39997
1.39999
1.39999
1.4
1.4
1.4
1.4
1.4
1.4
1.40001
1.4
1.40001
1.4
1.40001
1.4
1.4
1.40001
1.4
1.40001
1.4
1.4
1.40002
1.40001
1.40002
1.40005
1.40006
1.4001
1.40018
1.40025
1.40036
1.40055
1.40078
1.40114
1.40186
1.40322
1.40569
1.41016
1.41762
1.42826
1.44
1.44884
1.45162
1.44788
1.43901
1.42683
1.41297
1.39885
1.38576
1.37478
1.36673
1.36208
1.36094
1.36295
1.36736
1.37306
1.37889
1.38392
1.3876
1.38976
1.39053
1.39029
1.38954
1.38865
1.38764
1.386
1.38287
1.37752
1.36998
1.36124
1.35295
1.34685
1.34437
1.34642
1.35337
1.36504
1.38055
1.39826
1.4159
1.43099
1.4415
1.44644
1.44604
1.44157
1.43472
1.42711
1.41994
1.41388
1.40916
1.40572
1.40336
1.40183
1.40117
1.40052
1.40017
1.4
1.39993
1.39992
1.39992
1.39994
1.39996
1.39997
1.39998
1.39999
1.4
1.4
1.4
1.4
1.4
1.4
1.40001
1.4
1.40001
1.4
1.40001
1.4
1.4
1.40001
1.4
1.40001
1.40001
1.4
1.40002
1.40001
1.40002
1.40006
1.40007
1.4001
1.4002
1.40028
1.40037
1.40059
1.40087
1.40129
1.40218
1.40388
1.40692
1.41231
1.42109
1.43271
1.44393
1.45055
1.45041
1.44403
1.43315
1.41969
1.40524
1.3912
1.37885
1.36928
1.36331
1.36129
1.36308
1.36801
1.37487
1.38216
1.3885
1.39295
1.39521
1.39548
1.3943
1.39245
1.39077
1.38992
1.39006
1.39058
1.39014
1.38723
1.38096
1.37177
1.36139
1.35212
1.34609
1.34475
1.34882
1.35831
1.37247
1.3898
1.40808
1.42473
1.43741
1.44468
1.4463
1.44324
1.43712
1.42967
1.42227
1.41579
1.41061
1.40675
1.40406
1.40228
1.40147
1.4007
1.40027
1.40005
1.39996
1.39993
1.39993
1.39994
1.39996
1.39997
1.39998
1.39999
1.4
1.4
1.4
1.4
1.4
1.4
1.4
1.4
1.40001
1.4
1.40001
1.40001
1.4
1.40001
1.4
1.40001
1.40001
1.4
1.40002
1.40002
1.40001
1.40006
1.40008
1.40009
1.40021
1.40031
1.40039
1.40062
1.40098
1.40146
1.40252
1.40463
1.40833
1.4147
1.42471
1.43687
1.4469
1.451
1.44819
1.43962
1.42717
1.41277
1.39807
1.38445
1.37317
1.36537
1.36181
1.36266
1.36746
1.37503
1.38363
1.39133
1.39661
1.3987
1.39777
1.39455
1.39014
1.38575
1.3826
1.38163
1.38318
1.38663
1.39033
1.39197
1.3895
1.38228
1.3716
1.36009
1.3507
1.34572
1.34647
1.35329
1.36562
1.38208
1.40051
1.41828
1.4328
1.44222
1.44586
1.44434
1.43913
1.432
1.4245
1.41769
1.41208
1.40783
1.40479
1.40276
1.40179
1.40089
1.40038
1.40011
1.39999
1.39994
1.39993
1.39994
1.39996
1.39997
1.39998
1.39999
1.4
1.4
1.4
1.4
1.4
1.4
1.4
1.4
1.40001
1.4
1.40001
1.40001
1.4
1.40001
1.4
1.4
1.40002
1.39999
1.40002
1.40003
1.4
1.40006
1.40011
1.40009
1.40021
1.40035
1.4004
1.40064
1.4011
1.40167
1.4029
1.40547
1.4099
1.41727
1.4283
1.4405
1.44889
1.45044
1.4453
1.43497
1.42127
1.40622
1.39157
1.37869
1.36878
1.36302
1.36211
1.36595
1.37354
1.38308
1.3922
1.39863
1.40086
1.3986
1.39266
1.3845
1.37578
1.36815
1.36315
1.36199
1.36515
1.37204
1.38085
1.38871
1.39242
1.38994
1.38146
1.36948
1.35761
1.34917
1.34637
1.35012
1.36018
1.37531
1.39343
1.41189
1.42789
1.43923
1.44482
1.44489
1.44072
1.43406
1.42659
1.41953
1.41356
1.40892
1.40556
1.40327
1.40214
1.40111
1.40051
1.40019
1.40003
1.39996
1.39994
1.39995
1.39996
1.39997
1.39998
1.39999
1.4
1.4
1.4
1.4
1.4
1.4
1.4
1.4
1.40001
1.4
1.4
1.40001
1.4
1.40001
1.4
1.4
1.40002
1.39999
1.4
1.40005
1.4
1.40004
1.40013
1.40009
1.40018
1.40039
1.40043
1.40063
1.40121
1.40193
1.40331
1.40637
1.41163
1.41995
1.43169
1.44348
1.45004
1.44916
1.44199
1.43027
1.41562
1.40014
1.38581
1.37394
1.36564
1.36213
1.36399
1.37069
1.38053
1.39093
1.39893
1.40209
1.39926
1.39083
1.37844
1.36429
1.35056
1.33925
1.3322
1.33091
1.33598
1.34677
1.36128
1.37631
1.38786
1.39247
1.38884
1.37866
1.3658
1.35459
1.34834
1.3488
1.35622
1.36962
1.38702
1.40575
1.42287
1.43588
1.44329
1.44495
1.4419
1.43583
1.4285
1.42127
1.415
1.41002
1.40635
1.4038
1.40249
1.40133
1.40065
1.40027
1.40007
1.39999
1.39996
1.39995
1.39996
1.39997
1.39998
1.39999
1.4
1.4
1.4
1.4
1.4
1.4
1.4
1.4
1.40001
1.4
1.4
1.40001
1.4
1.40001
1.40001
1.39999
1.40003
1.4
1.39999
1.40006
1.40001
1.40001
1.40016
1.40011
1.40014
1.40042
1.40049
1.40061
1.40131
1.40224
1.40376
1.40729
1.41346
1.42268
1.43472
1.44578
1.45054
1.44742
1.43844
1.42564
1.41035
1.39463
1.38081
1.37019
1.36369
1.3625
1.36709
1.37629
1.38749
1.39726
1.40228
1.40033
1.39083
1.37494
1.3551
1.33418
1.31477
1.2992
1.28972
1.28831
1.29584
1.31141
1.33249
1.35541
1.37572
1.38895
1.39229
1.38616
1.37414
1.36125
1.35199
1.34916
1.35373
1.36508
1.38139
1.40002
1.41793
1.43233
1.44139
1.44458
1.44269
1.4373
1.43021
1.4229
1.41638
1.41109
1.40713
1.40434
1.40285
1.40156
1.40079
1.40035
1.40012
1.40001
1.39997
1.39996
1.39997
1.39998
1.39998
1.39999
1.4
1.4
1.4
1.4
1.4
1.4
1.4
1.4
1.40001
1.40001
1.4
1.40001
1.4
1.4
1.40002
1.39998
1.40002
1.40002
1.39997
1.40006
1.40004
1.39998
1.40016
1.40015
1.40009
1.40041
1.40057
1.40059
1.40137
1.40259
1.40428
1.4082
1.41534
1.42538
1.43733
1.44742
1.45056
1.44542
1.43478
1.42119
1.40556
1.38976
1.37655
1.36737
1.36279
1.36388
1.37095
1.38206
1.39343
1.40092
1.40133
1.39298
1.37586
1.35165
1.32336
1.29447
1.2681
1.24702
1.23415
1.2324
1.24322
1.26527
1.29476
1.32694
1.35685
1.37961
1.39135
1.39111
1.38169
1.3684
1.35682
1.35094
1.35258
1.36167
1.37662
1.39483
1.4132
1.42872
1.43924
1.44388
1.44314
1.43848
1.4317
1.42439
1.41768
1.41213
1.4079
1.40488
1.40321
1.4018
1.40094
1.40044
1.40018
1.40004
1.39999
1.39997
1.39997
1.39998
1.39998
1.39999
1.4
1.4
1.4
1.4
1.4
1.4
1.4
1.4
1.40001
1.40001
1.4
1.40001
1.4
1.4
1.40002
1.39998
1.40001
1.40004
1.39996
1.40005
1.40008
1.39995
1.40014
1.40022
1.40005
1.40036
1.40067
1.40061
1.40136
1.40295
1.40488
1.40909
1.41715
1.42798
1.43955
1.44847
1.45021
1.44336
1.43115
1.41694
1.40134
1.38557
1.37295
1.36535
1.36276
1.36593
1.37507
1.3873
1.39752
1.40128
1.39605
1.38078
1.35553
1.32194
1.28346
1.24442
1.20885
1.18026
1.16254
1.16002
1.17523
1.20628
1.24724
1.29116
1.33212
1.36518
1.38618
1.39314
1.38783
1.37545
1.36238
1.3538
1.3526
1.35931
1.37269
1.39024
1.40879
1.42518
1.43695
1.44292
1.44329
1.43938
1.43297
1.42572
1.41887
1.4131
1.40863
1.40541
1.40356
1.40203
1.40109
1.40053
1.40023
1.40008
1.40001
1.39998
1.39998
1.39998
1.39999
1.39999
1.4
1.4
1.4
1.4
1.4
1.4
1.40001
1.4
1.40001
1.40001
1.4
1.40001
1.40001
1.39999
1.40002
1.39999
1.39999
1.40006
1.39996
1.40001
1.40012
1.39995
1.40008
1.40028
1.40004
1.40026
1.40076
1.40069
1.40131
1.40327
1.40558
1.40996
1.4188
1.43041
1.44145
1.449
1.44957
1.44142
1.4277
1.4129
1.39768
1.38213
1.36996
1.36396
1.36342
1.36833
1.37892
1.39142
1.39938
1.39844
1.38722
1.36504
1.3311
1.28634
1.23483
1.18258
1.13517
1.09711
1.07332
1.06981
1.09061
1.13333
1.18925
1.24813
1.30223
1.34654
1.37731
1.39222
1.39218
1.38189
1.36821
1.35744
1.35356
1.35789
1.36957
1.38626
1.40477
1.4218
1.43463
1.44178
1.44321
1.44004
1.43402
1.42688
1.41995
1.414
1.40932
1.40591
1.40389
1.40225
1.40123
1.40063
1.40029
1.40012
1.40003
1.4
1.39999
1.39999
1.39999
1.39999
1.4
1.4
1.4
1.4
1.4
1.4
1.40001
1.4
1.40001
1.40001
1.4
1.40001
1.40001
1.39999
1.40002
1.40001
1.39998
1.40006
1.39998
1.39997
1.40014
1.39998
1.39999
1.40032
1.40009
1.40012
1.40079
1.40084
1.40126
1.40348
1.40633
1.41086
1.42019
1.43259
1.44315
1.44915
1.44864
1.4397
1.42463
1.40905
1.39449
1.3795
1.36751
1.36295
1.36454
1.37078
1.38206
1.3941
1.39912
1.39306
1.376
1.34705
1.30347
1.24506
1.17724
1.10886
1.04777
0.99948
0.969567
0.965616
0.993085
1.04912
1.12236
1.19886
1.26819
1.32476
1.36557
1.3887
1.39457
1.38731
1.37389
1.36151
1.35523
1.35725
1.36719
1.38289
1.4012
1.41866
1.43236
1.44055
1.44293
1.44047
1.43487
1.42787
1.4209
1.4148
1.40996
1.40637
1.40419
1.40246
1.40137
1.40072
1.40035
1.40015
1.40005
1.40001
1.39999
1.39999
1.39999
1.4
1.4
1.4
1.4
1.4
1.4
1.4
1.40001
1.4
1.40001
1.40001
1.4
1.4
1.40001
1.39999
1.40001
1.40002
1.39997
1.40005
1.40002
1.39994
1.40013
1.40004
1.39992
1.4003
1.40019
1.40001
1.40073
1.40104
1.40126
1.40355
1.40706
1.41184
1.42132
1.43438
1.44471
1.4491
1.44742
1.43821
1.42217
1.40546
1.39158
1.37767
1.36565
1.36207
1.36586
1.3731
1.38417
1.39528
1.39728
1.3861
1.3634
1.32774
1.27353
1.19924
1.11259
1.02645
0.951564
0.894118
0.85988
0.857205
0.892013
0.96102
1.0513
1.146
1.2316
1.30113
1.35202
1.38321
1.39516
1.39149
1.37906
1.36565
1.35736
1.35723
1.36545
1.38012
1.39808
1.41582
1.43022
1.43929
1.44252
1.44073
1.43552
1.42869
1.42171
1.41551
1.41052
1.4068
1.40446
1.40265
1.4015
1.40081
1.40041
1.40019
1.40008
1.40003
1.4
1.4
1.4
1.4
1.4
1.4
1.4
1.4
1.4
1.4
1.40001
1.4
1.40001
1.40001
1.4
1.4
1.40001
1.4
1.4
1.40003
1.39997
1.40002
1.40005
1.39993
1.40008
1.4001
1.39989
1.40021
1.40029
1.39996
1.40057
1.4012
1.40138
1.40351
1.40764
1.41288
1.42227
1.43569
1.4461
1.44912
1.44602
1.43677
1.42045
1.40235
1.38871
1.3765
1.36451
1.3611
1.36707
1.37525
1.3852
1.39507
1.39457
1.37854
1.35014
1.30784
1.24283
1.152
1.04585
0.942151
0.85488
0.790967
0.755968
0.757314
0.799482
0.878953
0.983122
1.09384
1.19484
1.27706
1.33772
1.37652
1.39431
1.39442
1.38345
1.36957
1.35966
1.35763
1.36425
1.37787
1.39543
1.41331
1.42825
1.43807
1.44203
1.44083
1.436
1.42934
1.42238
1.41611
1.41101
1.40717
1.40469
1.40282
1.40162
1.40089
1.40046
1.40023
1.4001
1.40004
1.40001
1.4
1.4
1.4
1.4
1.4
1.4
1.4
1.4
1.4
1.40001
1.4
1.40001
1.4
1.40001
1.4
1.40001
1.4
1.4
1.40002
1.39999
1.4
1.40006
1.39995
1.40002
1.40013
1.39991
1.40009
1.40034
1.40001
1.40038
1.40126
1.40161
1.40346
1.40797
1.41391
1.42317
1.4365
1.4472
1.44939
1.44466
1.43519
1.41939
1.40007
1.38577
1.37561
1.36426
1.36003
1.36775
1.37725
1.38539
1.3936
1.39161
1.3713
1.33683
1.28802
1.21362
1.10821
0.984424
0.864959
0.767451
0.700394
0.668948
0.677036
0.725571
0.811505
0.924608
1.04717
1.16086
1.25424
1.32367
1.3693
1.3924
1.39619
1.38696
1.37301
1.3619
1.35827
1.36346
1.37611
1.39323
1.41116
1.42651
1.43692
1.44151
1.44081
1.43632
1.42983
1.42291
1.41659
1.41141
1.40748
1.40488
1.40296
1.40172
1.40096
1.40051
1.40026
1.40013
1.40006
1.40002
1.40001
1.4
1.4
1.4
1.4
1.4
1.4
1.40001
1.4
1.40001
1.4
1.40001
1.40001
1.4
1.40001
1.4
1.40001
1.4
1.40001
1.4
1.39999
1.40004
1.39999
1.39998
1.40012
1.39997
1.39999
1.40029
1.40011
1.40024
1.40116
1.40187
1.40351
1.40804
1.41475
1.42411
1.43695
1.44783
1.4499
1.44372
1.43344
1.41866
1.39896
1.383
1.37446
1.36493
1.35918
1.36746
1.37902
1.38527
1.39102
1.38859
1.36534
1.32437
1.26899
1.18797
1.07283
0.936151
0.804236
0.69874
0.631266
0.606529
0.62246
0.675189
0.763057
0.879787
1.00944
1.1323
1.23446
1.31101
1.36222
1.38982
1.39693
1.3895
1.37583
1.36388
1.35898
1.36296
1.37475
1.39146
1.40938
1.42503
1.43591
1.44098
1.4407
1.4365
1.43017
1.42329
1.41696
1.41172
1.40773
1.40503
1.40307
1.40181
1.40102
1.40056
1.40029
1.40015
1.40007
1.40003
1.40002
1.40001
1.40001
1.40001
1.4
1.4
1.4
1.40001
1.4
1.40001
1.4
1.4
1.40001
1.4
1.40001
1.4
1.4
1.40001
1.40001
1.40001
1.4
1.40002
1.40001
1.39998
1.40006
1.40003
1.39997
1.40018
1.40019
1.40021
1.40096
1.40202
1.4037
1.40796
1.41521
1.42502
1.43729
1.44794
1.45041
1.44347
1.4318
1.41775
1.39897
1.38104
1.3726
1.36602
1.35916
1.36605
1.38011
1.38555
1.3877
1.38522
1.36138
1.31435
1.25169
1.16653
1.04823
0.906211
0.767151
0.656223
0.589456
0.571313
0.593531
0.647809
0.73391
0.849818
0.982177
1.11062
1.21896
1.30069
1.35599
1.38699
1.39681
1.39107
1.37787
1.36546
1.35962
1.36265
1.37375
1.3901
1.40799
1.42384
1.43505
1.44049
1.44053
1.43656
1.43036
1.42354
1.4172
1.41194
1.40792
1.40513
1.40316
1.40187
1.40108
1.4006
1.40032
1.40017
1.40009
1.40004
1.40002
1.40001
1.40001
1.40001
1.40001
1.40001
1.40001
1.40001
1.4
1.40001
1.40001
1.4
1.40001
1.4
1.40001
1.40001
1.4
1.40001
1.40001
1.4
1.40001
1.4
1.40001
1.40001
1.40001
1.40003
1.4
1.40006
1.40018
1.40027
1.40078
1.40198
1.40394
1.40791
1.41526
1.4257
1.43771
1.44774
1.45062
1.44387
1.43082
1.41648
1.39949
1.38055
1.37028
1.36658
1.36044
1.36411
1.37965
1.38656
1.38469
1.38094
1.35921
1.30879
1.23822
1.14901
1.03242
0.893286
0.754358
0.641916
0.575769
0.560723
0.585555
0.639429
0.722263
0.834803
0.966341
1.09683
1.20849
1.29331
1.3511
1.38429
1.39606
1.39172
1.3791
1.3665
1.36008
1.36246
1.37306
1.38914
1.40698
1.42296
1.43438
1.44007
1.44032
1.4365
1.43041
1.42364
1.41733
1.41207
1.40803
1.40518
1.40321
1.40192
1.40112
1.40063
1.40035
1.40019
1.4001
1.40005
1.40003
1.40002
1.40001
1.40001
1.40001
1.40001
1.40001
1.40001
1.40001
1.4
1.40001
1.4
1.40001
1.4
1.4
1.40001
1.4
1.40001
1.40001
1.39999
1.40002
1.40001
1.39998
1.40003
1.4
1.39998
1.40004
1.40001
1.40008
1.40032
1.4007
1.40179
1.40406
1.40796
1.41504
1.42591
1.43816
1.44757
1.45042
1.4445
1.43092
1.41528
1.39966
1.38158
1.36854
1.3657
1.3625
1.36299
1.37719
1.38753
1.38352
1.37609
1.35731
1.30854
1.23219
1.13716
1.02207
0.890008
0.758078
0.650082
0.585769
0.570241
0.593937
0.646433
0.726411
0.834876
0.963072
1.09219
1.20399
1.28943
1.34793
1.38201
1.39489
1.39155
1.37949
1.36697
1.36029
1.36232
1.37264
1.38856
1.40637
1.4224
1.43392
1.43971
1.44007
1.43635
1.43033
1.42361
1.41734
1.4121
1.40808
1.40518
1.40322
1.40195
1.40114
1.40066
1.40037
1.40021
1.40011
1.40006
1.40004
1.40002
1.40001
1.40001
1.40001
1.40001
1.40001
1.40001
1.4
1.40001
1.4
1.4
1.40001
1.4
1.4
1.40001
1.4
1.4
1.40002
1.39999
1.40001
1.40002
1.39997
1.40002
1.40001
1.39993
1.40003
1.40002
1.39997
1.40029
1.40071
1.40159
1.40396
1.40803
1.41476
1.42561
1.43836
1.44764
1.4501
1.44488
1.43193
1.41502
1.39918
1.38311
1.36856
1.36372
1.36378
1.36372
1.37371
1.3867
1.38463
1.37284
1.35434
1.31135
1.23585
1.13624
1.01948
0.892674
0.770893
0.673505
0.614508
0.597688
0.618176
0.668579
0.74599
0.84988
0.972663
1.09733
1.20614
1.28958
1.3468
1.38039
1.39346
1.39066
1.3791
1.36684
1.36022
1.36221
1.37248
1.38837
1.40616
1.42217
1.43367
1.43945
1.43981
1.43611
1.43012
1.42345
1.41723
1.41204
1.40805
1.40514
1.40321
1.40195
1.40116
1.40067
1.40039
1.40022
1.40012
1.40007
1.40004
1.40003
1.40002
1.40001
1.40001
1.40001
1.40001
1.40001
1.4
1.40001
1.4
1.4
1.40001
1.4
1.4
1.40001
1.40001
1.4
1.40001
1.4
1.4
1.40003
1.39997
1.39999
1.40003
1.39992
1.39997
1.40004
1.39992
1.40017
1.40071
1.40147
1.40369
1.40793
1.41451
1.42498
1.43807
1.44784
1.45006
1.44495
1.43316
1.41617
1.39886
1.3839
1.37021
1.36234
1.36301
1.36547
1.37158
1.38333
1.38593
1.37349
1.35204
1.31371
1.24601
1.14922
1.03236
0.909024
0.798062
0.714197
0.662118
0.643782
0.660005
0.707149
0.780858
0.878678
0.993866
1.1114
1.21451
1.29366
1.34782
1.37957
1.39192
1.38917
1.37799
1.36617
1.3599
1.36216
1.3726
1.38858
1.40636
1.42228
1.43365
1.43929
1.43953
1.43578
1.42979
1.42317
1.41701
1.41189
1.40796
1.40505
1.40316
1.40194
1.40116
1.40068
1.4004
1.40023
1.40013
1.40008
1.40005
1.40003
1.40002
1.40001
1.40001
1.40001
1.40001
1.40001
1.40001
1.40001
1.4
1.40001
1.40001
1.4
1.40001
1.40001
1.40001
1.4
1.40001
1.40001
1.39999
1.40002
1.39999
1.39997
1.40002
1.39995
1.39991
1.40001