/*--------------------------------*- C++ -*----------------------------------*\
  =========                 |
  \\      /  F ield         | OpenFOAM: The Open Source CFD Toolbox
   \\    /   O peration     | Website:  https://openfoam.org
    \\  /    A nd           | Version:  6
     \\/     M anipulation  |
\*---------------------------------------------------------------------------*/
FoamFile
{
    version     2.0;
    format      ascii;
    class       volVectorField;
    location    "1.06";
    object      U;
}
// * * * * * * * * * * * * * * * * * * * * * * * * * * * * * * * * * * * * * //

dimensions      [0 1 -1 0 0 0 0];

internalField   nonuniform List<vector> 
4214
(
(4.97018 -0.00756288 1.66256e-21)
(4.96838 0.00912804 1.8808e-21)
(4.95456 0.0335769 -9.08087e-21)
(4.94807 0.055165 9.85761e-21)
(4.95078 0.0727476 0)
(4.96121 0.0869311 6.18966e-22)
(4.98014 0.0978243 2.7881e-21)
(5.00092 0.106096 -2.87515e-21)
(5.01727 0.113353 0)
(5.02607 0.120025 -5.39389e-22)
(5.02902 0.124967 4.10759e-22)
(5.03046 0.126123 2.56846e-22)
(5.03322 0.12281 -2.01761e-22)
(5.03737 0.115272 0)
(5.04148 0.10434 0)
(5.04426 0.0907634 0)
(5.04538 0.0751465 0)
(5.04572 0.0580094 0)
(5.04582 0.0393641 1.84617e-22)
(5.04465 0.0204459 4.07298e-22)
(5.04492 -0.000170342 0)
(5.0423 -0.0200179 -1.90635e-22)
(5.03987 -0.0390725 -3.7411e-22)
(5.0375 -0.0567978 0)
(5.03514 -0.0732278 0)
(5.0324 -0.0874031 0)
(5.02891 -0.0988394 0)
(5.02435 -0.10719 5.0701e-22)
(5.01882 -0.112331 -4.96481e-22)
(5.01273 -0.114248 0)
(5.00619 -0.113121 4.25244e-22)
(4.99835 -0.109363 -4.17379e-22)
(4.98792 -0.10366 0)
(4.97435 -0.0965135 3.01502e-21)
(4.95872 -0.0878131 -2.96891e-21)
(4.94361 -0.0769813 0)
(4.93356 -0.0637698 3.73606e-22)
(4.93022 -0.0480443 0)
(4.93392 -0.0290015 0)
(4.93947 -0.00671219 0)
(4.92588 0.0121289 6.01576e-22)
(5.00801 -0.00569242 1.55286e-20)
(4.99102 0.018395 -3.35363e-21)
(4.97864 0.039868 1.7989e-20)
(4.97277 0.0569723 -6.17784e-21)
(4.97426 0.0722652 8.22992e-21)
(4.98359 0.0864324 -6.41945e-22)
(4.99913 0.0986479 0)
(5.01603 0.108352 0)
(5.02853 0.116043 -1.3233e-21)
(5.03345 0.122348 4.06791e-22)
(5.03253 0.126811 4.28168e-23)
(5.0296 0.12793 5.08844e-22)
(5.02786 0.124743 -4.70724e-22)
(5.02806 0.117414 0)
(5.02897 0.106477 -3.43857e-23)
(5.02926 0.0927704 -7.62396e-22)
(5.0285 0.0769975 2.59782e-21)
(5.02724 0.059792 -6.47546e-22)
(5.02626 0.0410304 1.68599e-21)
(5.0239 0.0216923 -4.59649e-21)
(5.02335 0.000427848 0)
(5.02133 -0.0199583 -3.94446e-21)
(5.01966 -0.0392659 2.23637e-21)
(5.0183 -0.057528 1.31678e-21)
(5.01756 -0.0745925 -5.76619e-21)
(5.0174 -0.0891882 1.11868e-21)
(5.01716 -0.1009 -2.27394e-21)
(5.0163 -0.109651 1.69775e-21)
(5.01482 -0.115511 -1.2517e-21)
(5.01297 -0.118418 1.22792e-21)
(5.01052 -0.118296 -4.81596e-23)
(5.00662 -0.115199 0)
(5 -0.109369 0)
(4.99023 -0.101141 0)
(4.97828 -0.0908333 0)
(4.96645 -0.0788723 0)
(4.95769 -0.0659782 1.53221e-20)
(4.95481 -0.0526282 3.38672e-21)
(4.95949 -0.0381919 2.01313e-21)
(4.97008 -0.0202516 -2.22351e-20)
(4.97869 0.00117626 -6.20313e-22)
(5.01525 0.0112704 -6.02291e-21)
(4.99596 0.0268269 0)
(4.98594 0.0448834 -3.30576e-20)
(4.98165 0.0610332 2.88713e-20)
(4.98383 0.0764786 1.54468e-20)
(4.99293 0.0913385 -7.45483e-21)
(5.00722 0.104274 1.65554e-20)
(5.02209 0.114309 -1.02659e-20)
(5.03238 0.121646 -6.52953e-22)
(5.03563 0.127044 -1.7077e-21)
(5.03305 0.13025 1.06421e-21)
(5.0285 0.130289 -6.45386e-22)
(5.02509 0.126631 1.0517e-22)
(5.02362 0.119122 0)
(5.02305 0.10811 1.43164e-22)
(5.02217 0.0943796 -9.00761e-22)
(5.02051 0.0785702 2.76729e-21)
(5.01845 0.0612687 6.59217e-22)
(5.01666 0.0422951 -5.29453e-21)
(5.01342 0.0223389 4.0652e-21)
(5.01239 0.000471759 -3.16591e-24)
(5.01073 -0.0202156 1.06679e-20)
(5.00933 -0.0399577 4.88408e-21)
(5.00824 -0.0588886 0)
(5.00835 -0.0764263 3.35906e-21)
(5.00956 -0.091278 -4.31961e-21)
(5.01082 -0.103226 5.77761e-21)
(5.01146 -0.112347 -1.71384e-21)
(5.01154 -0.118756 -2.1863e-21)
(5.01148 -0.12237 1.35771e-21)
(5.01118 -0.123067 8.24576e-22)
(5.00976 -0.120685 1.77222e-21)
(5.0059 -0.115238 -1.74635e-21)
(4.99877 -0.106944 0)
(4.98884 -0.0961401 -1.23478e-20)
(4.97808 -0.0835014 9.6937e-21)
(4.96932 -0.0699542 0)
(4.96506 -0.0561599 3.13032e-20)
(4.96666 -0.0419557 -2.63885e-20)
(4.97406 -0.0267004 -3.02504e-21)
(4.98764 -0.0121656 0)
(5.02269 0.0166429 0)
(5.00595 0.0317968 4.61295e-20)
(4.99923 0.0500029 -4.77316e-20)
(4.99761 0.0665884 -9.9517e-21)
(5.00077 0.0822234 0)
(5.00913 0.0972651 -2.44125e-21)
(5.02095 0.110502 -1.18933e-20)
(5.03225 0.120756 1.42086e-20)
(5.03881 0.127983 1.00556e-21)
(5.0387 0.1327 5.15671e-21)
(5.03367 0.13481 0)
(5.02674 0.133935 0)
(5.02092 0.129792 2.1317e-21)
(5.01712 0.122082 -3.33544e-21)
(5.01453 0.110947 1.90458e-22)
(5.01205 0.0970602 5.51665e-22)
(5.00916 0.081022 -3.08724e-21)
(5.00604 0.0633804 -6.98255e-21)
(5.00317 0.0439534 3.22434e-21)
(4.99889 0.0231289 9.15833e-21)
(4.99756 0.000554902 0)
(4.99649 -0.0204895 2.31384e-21)
(4.99537 -0.0408078 -6.33933e-21)
(4.99479 -0.060372 0)
(4.99619 -0.0783681 0)
(4.99923 -0.0937869 4.35889e-21)
(5.00252 -0.106457 -3.5176e-21)
(5.00522 -0.116333 -7.14864e-21)
(5.00747 -0.123443 0)
(5.00978 -0.127728 0)
(5.01216 -0.129085 5.62609e-22)
(5.0138 -0.127382 -4.41019e-21)
(5.01348 -0.122497 2.24294e-21)
(5.0101 -0.114435 0)
(5.00354 -0.103484 -1.38185e-20)
(4.99501 -0.0904221 2.45473e-20)
(4.98684 -0.0764509 -1.54864e-20)
(4.98179 -0.0624468 0)
(4.98172 -0.0480024 3.86379e-20)
(4.9869 -0.0324174 -3.83592e-20)
(4.99769 -0.0182187 -6.4424e-21)
(5.03093 0.0271736 -7.5445e-20)
(5.01728 0.0410597 0)
(5.01288 0.0581779 0)
(5.01296 0.0746753 -2.83721e-20)
(5.01637 0.0903792 1.41484e-20)
(5.02337 0.10542 1.04083e-20)
(5.03246 0.118689 9.04517e-21)
(5.04019 0.128982 -1.82888e-20)
(5.0432 0.135989 1.87762e-21)
(5.04031 0.139961 -4.34212e-21)
(5.03298 0.140982 7.71879e-22)
(5.02416 0.139137 4.36742e-22)
(5.01647 0.134355 -7.10038e-22)
(5.01076 0.126263 9.01334e-21)
(5.00639 0.114838 -1.13015e-20)
(5.00241 0.100607 2.41809e-21)
(4.99831 0.0840987 9.88259e-21)
(4.99408 0.0658156 -2.66422e-22)
(4.99002 0.0456394 2.568e-21)
(4.98463 0.02379 -2.35274e-20)
(4.98323 0.000612904 0)
(4.98275 -0.0207653 -2.31541e-20)
(4.98182 -0.0412705 2.43512e-20)
(4.98172 -0.0607582 1.99861e-20)
(4.98416 -0.0789505 0)
(4.98866 -0.0954114 1.49973e-20)
(4.99373 -0.109574 4.79551e-21)
(4.99839 -0.120837 4.81621e-21)
(5.00272 -0.128981 6.80725e-21)
(5.00723 -0.134022 0)
(5.01205 -0.136027 5.99323e-23)
(5.01658 -0.134968 4.09278e-21)
(5.01966 -0.130708 0)
(5.02009 -0.123132 0)
(5.01722 -0.11236 2.01507e-20)
(5.01143 -0.0990647 -1.25289e-20)
(5.00436 -0.0845501 0)
(4.99858 -0.0700698 -3.86996e-20)
(4.99657 -0.0556314 6.71171e-20)
(4.99981 -0.0405978 -5.71078e-20)
(5.00892 -0.0269692 1.32141e-19)
(5.04102 0.037414 -4.41857e-20)
(5.03059 0.0501483 4.26528e-20)
(5.0283 0.0666185 -3.83725e-20)
(5.02989 0.0833565 -3.74722e-20)
(5.03352 0.0993677 5.15795e-20)
(5.03902 0.114501 0)
(5.04504 0.127832 -1.31662e-20)
(5.04877 0.138167 -1.88842e-20)
(5.04776 0.144936 1.58814e-20)
(5.04151 0.148215 4.11972e-21)
(5.03169 0.148372 -3.28415e-21)
(5.02091 0.145804 -6.76686e-21)
(5.01134 0.140453 5.39209e-21)
(5.00368 0.131897 0)
(4.99743 0.119982 9.74029e-22)
(4.99185 0.105073 9.52436e-21)
(4.9864 0.0876517 -9.46067e-21)
(4.98101 0.0682257 -6.39645e-21)
(4.97573 0.0468595 0)
(4.96939 0.023968 -1.86811e-21)
(4.96823 0.000534923 -1.64707e-21)
(4.96857 -0.0208354 1.24763e-20)
(4.96811 -0.0402483 5.00016e-21)
(4.96829 -0.0584405 -4.4939e-20)
(4.97106 -0.0768247 0)
(4.97639 -0.0953365 -1.51701e-20)
(4.98318 -0.112201 0)
(4.9902 -0.125797 -9.33704e-21)
(4.99706 -0.135555 0)
(5.00407 -0.14161 -6.64231e-21)
(5.01143 -0.144287 1.62389e-21)
(5.01881 -0.143789 7.0553e-21)
(5.02532 -0.140079 5.12808e-21)
(5.02977 -0.132997 -2.80508e-20)
(5.03113 -0.122519 2.62325e-20)
(5.02896 -0.109145 3.64283e-20)
(5.02394 -0.0941188 -8.08319e-20)
(5.01805 -0.0788898 -3.76713e-20)
(5.01409 -0.0639415 4.82097e-20)
(5.01472 -0.0490012 -6.91003e-20)
(5.02184 -0.0359434 6.8983e-20)
(5.05293 0.0492747 9.98322e-20)
(5.04586 0.0615131 -1.38911e-19)
(5.04576 0.0776773 1.95166e-19)
(5.04846 0.0944703 -5.00134e-21)
(5.05166 0.110547 0)
(5.05482 0.125504 0)
(5.057 0.138555 3.91502e-20)
(5.0563 0.148573 -1.53361e-20)
(5.05116 0.154878 -7.54693e-21)
(5.04166 0.157538 -5.97297e-21)
(5.02951 0.157122 2.05988e-21)
(5.01692 0.154083 8.21023e-21)
(5.00557 0.148233 -7.61689e-21)
(4.99597 0.139066 -1.29033e-20)
(4.98775 0.126314 -3.15019e-21)
(4.98039 0.110177 1.11247e-20)
(4.97345 0.0911332 -6.88921e-21)
(4.96685 0.0698215 6.45322e-21)
(4.96057 0.0467016 0)
(4.95376 0.0229294 5.00441e-20)
(4.95333 -0.000110436 0)
(4.95508 -0.020434 3.47108e-20)
(4.95551 -0.0366934 -2.74269e-20)
(4.95504 -0.052446 2.5039e-20)
(4.95646 -0.0716794 2.63811e-20)
(4.96154 -0.0936995 0)
(4.97001 -0.114661 -7.41483e-21)
(4.97995 -0.13162 7.2846e-21)
(4.99002 -0.143651 -6.78195e-21)
(5.00002 -0.151064 1.10347e-20)
(5.01019 -0.154498 6.70946e-22)
(5.02044 -0.154449 -2.8857e-21)
(5.03025 -0.151082 0)
(5.03866 -0.144313 -1.95876e-20)
(5.0445 -0.134064 2.11741e-20)
(5.04666 -0.120684 -2.67166e-20)
(5.04477 -0.105294 0)
(5.03979 -0.0893849 1.67474e-20)
(5.03421 -0.073764 -2.13097e-20)
(5.03161 -0.0586332 -8.17343e-20)
(5.03586 -0.0460615 5.94806e-20)
(5.06753 0.062643 -7.54884e-20)
(5.06391 0.0745121 -5.70198e-20)
(5.06569 0.0906519 1.75811e-21)
(5.06852 0.10744 -5.56833e-20)
(5.0703 0.123333 4.35632e-20)
(5.0704 0.137822 -5.04508e-20)
(5.06835 0.150313 -7.33583e-21)
(5.06313 0.159857 -1.60475e-20)
(5.05397 0.165766 -9.56413e-21)
(5.04135 0.168122 0)
(5.02689 0.167531 2.26899e-21)
(5.01239 0.164265 -2.85158e-21)
(4.99908 0.157897 1.77812e-20)
(4.98727 0.147829 -2.21609e-20)
(4.97676 0.133676 9.11639e-21)
(4.9673 0.115468 2.7353e-22)
(4.95867 0.0937544 6.953e-21)
(4.95097 0.0695323 -8.90117e-21)
(4.94429 0.0440353 8.83154e-21)
(4.93802 0.0197406 -5.68837e-20)
(4.93913 -0.00197054 -2.4365e-21)
(4.94344 -0.0194102 -3.74568e-20)
(4.94506 -0.0306409 4.60304e-21)
(4.9419 -0.0436813 2.00067e-20)
(4.93946 -0.0651818 6.46413e-21)
(4.94305 -0.0921607 2.00396e-21)
(4.95331 -0.118337 1.10767e-20)
(4.96699 -0.139417 -3.30892e-20)
(4.98123 -0.154199 0)
(4.99503 -0.163222 0)
(5.0085 -0.167466 -2.73153e-21)
(5.02185 -0.167741 0)
(5.03495 -0.164475 0)
(5.04721 -0.157764 -2.32355e-20)
(5.05755 -0.14759 3.98236e-20)
(5.06451 -0.134234 2.01524e-20)
(5.06676 -0.118673 4.53503e-20)
(5.064 -0.102276 -7.91802e-20)
(5.05775 -0.0859131 9.01598e-20)
(5.05173 -0.0702475 -1.18356e-19)
(5.05173 -0.0579522 -3.08541e-21)
(5.08603 0.0781447 2.10212e-19)
(5.08537 0.0901512 -3.31019e-19)
(5.08806 0.106515 2.03327e-19)
(5.08983 0.123104 -6.54811e-20)
(5.08911 0.138439 -7.70228e-21)
(5.08553 0.152187 -5.59639e-20)
(5.07902 0.163916 0)
(5.06933 0.172858 1.08746e-20)
(5.05633 0.178432 -1.54622e-20)
(5.04071 0.180729 0)
(5.02389 0.180181 4.22531e-21)
(5.00725 0.176731 -3.64837e-21)
(4.99159 0.169664 0)
(4.97711 0.158223 0)
(4.96378 0.141862 1.39e-20)
(4.95173 0.120425 -1.56203e-20)
(4.9412 0.0946648 0)
(4.93277 0.0662961 0)
(4.92687 0.0379291 2.37813e-20)
(4.92278 0.0136285 2.43411e-20)
(4.92679 -0.00573668 -5.79682e-21)
(4.93502 -0.0183302 -4.64271e-20)
(4.93751 -0.024246 0)
(4.92872 -0.0356235 -3.61567e-20)
(4.91947 -0.0610052 -6.89967e-20)
(4.92044 -0.0936983 0)
(4.93272 -0.125415 0)
(4.95106 -0.150762 1.83291e-20)
(4.97053 -0.16836 1.50447e-20)
(4.98905 -0.179002 0)
(5.0065 -0.183996 -1.64668e-22)
(5.02333 -0.184442 1.13969e-20)
(5.03979 -0.181048 -3.12109e-20)
(5.05572 -0.174162 1.97509e-20)
(5.07037 -0.163928 0)
(5.08224 -0.150658 0)
(5.08941 -0.135215 -4.6532e-20)
(5.09034 -0.118724 5.34618e-20)
(5.08507 -0.101809 1.91866e-19)
(5.07656 -0.0853189 -8.28288e-20)
(5.07159 -0.072758 -3.51686e-21)
(5.10917 0.0962942 -1.60995e-19)
(5.1103 0.108717 0)
(5.11255 0.125104 -7.0434e-20)
(5.11196 0.141121 6.56016e-20)
(5.10768 0.155695 -6.95576e-21)
(5.09989 0.168741 -6.07239e-21)
(5.08892 0.179848 0)
(5.07502 0.188365 -3.52574e-20)
(5.05845 0.193845 -1.659e-20)
(5.03991 0.196295 1.67326e-20)
(5.02055 0.195851 -1.25652e-21)
(5.00133 0.192079 1.13128e-20)
(4.9827 0.183949 -1.13191e-20)
(4.96478 0.170473 -1.18751e-20)
(4.94782 0.150857 -3.93922e-21)
(4.9325 0.124779 -1.96235e-20)
(4.91993 0.0934151 -2.97773e-21)
(4.91162 0.0596666 2.24135e-20)
(4.90841 0.028225 -4.54086e-20)
(4.90873 0.00436403 -6.5736e-20)
(4.9175 -0.0120149 0)
(4.93069 -0.0191062 1.08148e-19)
(4.93211 -0.0213007 4.27159e-20)
(4.91479 -0.0339929 -9.7873e-21)
(4.89662 -0.0639939 5.91057e-20)
(4.89423 -0.101926 7.36877e-20)
(4.90872 -0.138401 2.46338e-20)
(4.93249 -0.167368 2.07568e-20)
(4.95814 -0.187308 -1.10346e-20)
(4.98225 -0.19924 2.69615e-20)
(5.00441 -0.204743 2.99327e-21)
(5.02518 -0.205152 4.35189e-21)
(5.04517 -0.201416 -1.36322e-20)
(5.06463 -0.194156 0)
(5.08321 -0.183739 3.94417e-20)
(5.09973 -0.170592 -9.45746e-20)
(5.11214 -0.155527 3.05124e-19)
(5.11805 -0.139398 -2.2206e-19)
(5.11594 -0.122404 6.21436e-20)
(5.10715 -0.105148 0)
(5.0982 -0.0917878 -3.86088e-20)
(5.13701 0.117134 2.61933e-19)
(5.13815 0.130036 -2.70679e-19)
(5.13839 0.146186 0)
(5.13432 0.161496 -1.55015e-19)
(5.12579 0.175384 1.3778e-19)
(5.11356 0.187944 5.47597e-20)
(5.09831 0.198729 4.24569e-20)
(5.08056 0.207151 2.34482e-20)
(5.06068 0.212836 -3.14965e-20)
(5.03919 0.2156 -6.34884e-21)
(5.01687 0.215205 1.26384e-21)
(4.99433 0.210899 1.32281e-20)
(4.97176 0.20133 -2.25321e-20)
(4.94932 0.185127 1.19935e-20)
(4.92764 0.16116 1.31494e-20)
(4.90822 0.129044 0)
(4.8937 0.0906702 -2.63694e-20)
(4.88703 0.0505515 2.62684e-20)
(4.8892 0.0159549 2.8419e-20)
(4.89629 -0.00753244 1.29461e-19)
(4.91164 -0.0213183 -4.04571e-21)
(4.92984 -0.0247898 -2.28734e-21)
(4.92766 -0.0245701 -4.06342e-20)
(4.89929 -0.0452897 0)
(4.87225 -0.0790258 1.00993e-19)
(4.8661 -0.120116 -7.50821e-20)
(4.88258 -0.159485 0)
(4.91215 -0.190695 -4.58272e-20)
(4.94462 -0.211989 3.43582e-20)
(4.97503 -0.224552 -1.64001e-20)
(5.00252 -0.230133 -2.13412e-21)
(5.02773 -0.23021 9.61041e-21)
(5.05147 -0.225902 0)
(5.07432 -0.218064 3.86174e-20)
(5.09637 -0.207296 -7.84526e-20)
(5.11693 -0.194194 0)
(5.13431 -0.179582 -5.55247e-20)
(5.1459 -0.164109 -1.36549e-19)
(5.14901 -0.147518 1.4641e-19)
(5.14312 -0.12996 -3.71841e-19)
(5.13324 -0.115659 2.17162e-19)
(5.16897 0.140455 0)
(5.16805 0.153886 -1.23382e-20)
(5.16478 0.169675 0)
(5.15645 0.184372 -7.98304e-20)
(5.14341 0.197851 1.7445e-19)
(5.12682 0.210282 8.11715e-20)
(5.10757 0.221147 6.0032e-20)
(5.08623 0.229859 9.84076e-21)
(5.06309 0.236033 3.55667e-20)
(5.03837 0.239265 6.3564e-21)
(5.01245 0.238969 0)
(4.98565 0.234063 0)
(4.95797 0.22279 9.37914e-21)
(4.92965 0.203328 1.58958e-20)
(4.90188 0.174239 -5.36698e-20)
(4.87755 0.135197 1.76327e-20)
(4.86143 0.0889845 2.66863e-20)
(4.85844 0.041856 -3.51147e-20)
(4.86889 0.00368212 0)
(4.88449 -0.0204016 -7.06547e-20)
(4.90699 -0.0334613 -4.77234e-21)
(4.92949 -0.0392899 -6.49848e-20)
(4.9225 -0.0497432 -1.67037e-20)
(4.88364 -0.0738693 -1.17722e-19)
(4.84903 -0.109495 -2.19931e-19)
(4.83881 -0.150217 0)
(4.85629 -0.189882 1.11031e-19)
(4.89141 -0.221615 -9.06675e-20)
(4.93096 -0.242956 -3.50645e-20)
(4.96807 -0.255258 -1.00932e-20)
(5.00133 -0.260321 5.87164e-21)
(5.03135 -0.259683 6.17336e-21)
(5.05908 -0.254529 3.43422e-20)
(5.08527 -0.245861 -7.81095e-20)
(5.11036 -0.234482 0)
(5.13417 -0.221157 0)
(5.15568 -0.206762 -7.52338e-20)
(5.17266 -0.191828 7.42241e-20)
(5.18209 -0.175832 0)
(5.18211 -0.158515 3.43293e-19)
(5.17559 -0.143562 2.28894e-20)
(5.20423 0.16553 0)
(5.19939 0.17967 3.18292e-19)
(5.19151 0.195251 -2.17382e-19)
(5.17858 0.209661 0)
(5.16119 0.223148 -8.04655e-20)
(5.1406 0.235897 -1.47772e-19)
(5.11772 0.247302 5.43646e-20)
(5.09301 0.256713 -1.00043e-19)
(5.06655 0.263675 -5.94658e-20)
(5.03818 0.267593 9.40875e-21)
(5.00778 0.267544 6.52314e-21)
(4.97546 0.262147 0)
(4.9411 0.249351 0)
(4.90517 0.226873 2.3859e-20)
(4.86984 0.192859 -5.22199e-20)
(4.83976 0.14715 -3.87162e-20)
(4.82235 0.0932644 -4.89655e-21)
(4.82482 0.039059 7.16614e-20)
(4.84571 -0.00367744 -4.51707e-20)
(4.87084 -0.0303763 -5.6468e-21)
(4.89959 -0.0462794 1.11935e-20)
(4.92342 -0.0645984 -5.51213e-21)
(4.91394 -0.0913572 3.87726e-20)
(4.86964 -0.12018 1.33301e-19)
(4.82956 -0.155348 5.62052e-20)
(4.81532 -0.192391 2.89681e-20)
(4.83205 -0.229467 -2.80144e-20)
(4.87184 -0.260153 9.63098e-20)
(4.91825 -0.280268 0)
(4.96212 -0.291353 -9.23807e-21)
(5.00134 -0.295271 1.11898e-20)
(5.03642 -0.29344 2.12702e-20)
(5.06839 -0.287147 0)
(5.09801 -0.277342 -6.37391e-20)
(5.12591 -0.265007 5.47964e-20)
(5.15231 -0.251015 0)
(5.17686 -0.236313 -9.83941e-20)
(5.19807 -0.221386 2.73267e-19)
(5.21345 -0.205704 -1.99186e-19)
(5.22083 -0.188795 3.07978e-19)
(5.22126 -0.173457 -8.74812e-20)
(5.2413 0.192398 0)
(5.23124 0.207546 -3.73608e-19)
(5.21817 0.223249 1.88918e-20)
(5.20065 0.237795 2.28285e-19)
(5.17925 0.25174 1.78206e-19)
(5.155 0.265278 -1.02463e-19)
(5.12864 0.277748 1.37471e-19)
(5.10047 0.288384 -6.29795e-20)
(5.0703 0.296613 7.69247e-20)
(5.03767 0.301687 3.00432e-20)
(5.0019 0.302394 1.38971e-20)
(4.96292 0.297124 5.12367e-21)
(4.92075 0.283592 7.45583e-21)
(4.87613 0.258933 4.56663e-20)
(4.832 0.221223 -3.34208e-20)
(4.79532 0.170546 7.74542e-21)
(4.77677 0.110524 4.71955e-20)
(4.78563 0.0506808 5.1374e-21)
(4.8175 0.00229519 -9.33491e-22)
(4.85278 -0.030653 0)
(4.88492 -0.0559573 0)
(4.90355 -0.0964561 0)
(4.89661 -0.144737 -1.46509e-19)
(4.85686 -0.180211 4.45122e-20)
(4.81505 -0.213991 0)
(4.79803 -0.245626 0)
(4.81151 -0.277184 -4.94033e-20)
(4.85461 -0.305404 -1.14874e-19)
(4.90724 -0.32347 4.57282e-20)
(4.95759 -0.332506 0)
(5.0027 -0.334851 -2.13465e-21)
(5.04302 -0.331337 -2.17556e-20)
(5.07944 -0.323675 -5.15047e-20)
(5.11283 -0.312449 1.05547e-19)
(5.14362 -0.298823 0)
(5.17239 -0.283616 1.83336e-19)
(5.19915 -0.267909 -1.82032e-19)
(5.22331 -0.2522 -3.24629e-19)
(5.24323 -0.236191 2.2259e-19)
(5.25723 -0.219448 -2.38147e-19)
(5.26544 -0.203968 3.49758e-19)
(5.28037 0.219916 -3.11505e-19)
(5.26444 0.236513 1.31583e-19)
(5.24637 0.252873 -1.41828e-19)
(5.22491 0.268105 0)
(5.20015 0.282969 0)
(5.17277 0.297686 0)
(5.14313 0.311658 -1.47489e-19)
(5.11145 0.323963 7.33061e-20)
(5.07707 0.333938 -9.15288e-20)
(5.03953 0.340652 -2.1469e-20)
(4.99731 0.342839 0)
(4.95024 0.338559 1.36075e-20)
(4.89812 0.325672 -2.72583e-20)
(4.84308 0.301297 5.1799e-20)
(4.78927 0.263371 4.73559e-20)
(4.7463 0.210927 -4.77399e-20)
(4.72728 0.148579 4.02793e-20)
(4.74247 0.0877351 -4.86981e-20)
(4.78326 0.0331252 0)
(4.82664 -0.0113311 0)
(4.85409 -0.0560189 0)
(4.86312 -0.126816 -2.89076e-20)
(4.86855 -0.200991 1.98306e-19)
(4.8439 -0.247647 5.20723e-20)
(4.80565 -0.280027 7.89214e-20)
(4.78983 -0.307811 -2.90785e-19)
(4.79722 -0.332009 6.25285e-20)
(4.84007 -0.356014 -7.72085e-21)
(4.89847 -0.371609 3.42797e-20)
(4.95471 -0.378055 -2.7859e-20)
(5.00572 -0.378606 8.69077e-21)
(5.05135 -0.373144 -4.27735e-20)
(5.09218 -0.36393 -8.19505e-20)
(5.1297 -0.351219 1.41763e-19)
(5.1637 -0.336201 -7.89674e-20)
(5.19511 -0.319513 -1.09423e-19)
(5.22379 -0.302236 0)
(5.25 -0.284913 -2.60398e-19)
(5.27297 -0.267546 -1.41254e-20)
(5.2921 -0.249894 2.7162e-19)
(5.30724 -0.23343 0)
(5.32097 0.251446 0)
(5.29929 0.268742 -1.34599e-19)
(5.27487 0.286502 4.52821e-19)
(5.25 0.302707 0)
(5.22133 0.319524 0)
(5.19161 0.335563 0)
(5.15784 0.351799 -1.04954e-19)
(5.12288 0.366172 -8.21726e-20)
(5.08304 0.378821 -1.29714e-20)
(5.04046 0.387828 0)
(4.99079 0.392667 0)
(4.93602 0.390661 -7.07149e-20)
(4.8739 0.380084 4.45982e-20)
(4.80953 0.357736 0)
(4.74709 0.322383 -3.23258e-20)
(4.69616 0.272899 -1.17195e-19)
(4.67627 0.215547 1.01876e-19)
(4.69634 0.160294 -6.32973e-20)
(4.74018 0.0988434 6.33589e-20)
(4.78238 0.0391404 9.41755e-21)
(4.79116 -0.039604 -1.87205e-20)
(4.79139 -0.149595 9.23276e-21)
(4.81995 -0.249874 -3.24407e-19)
(4.82683 -0.317726 6.10499e-20)
(4.80002 -0.346676 -1.11805e-19)
(4.78796 -0.374934 2.35281e-19)
(4.79023 -0.392574 0)
(4.82859 -0.411154 -7.93971e-21)
(4.89279 -0.423353 -4.85215e-20)
(4.95479 -0.427472 2.09679e-21)
(5.01165 -0.425407 -1.65986e-20)
(5.06309 -0.41818 -5.77258e-20)
(5.10791 -0.406805 2.85049e-19)
(5.14979 -0.392692 1.95558e-20)
(5.18726 -0.376133 1.24774e-19)
(5.22186 -0.358261 1.11966e-19)
(5.25289 -0.339464 0)
(5.28078 -0.320852 0)
(5.30543 -0.302072 0)
(5.32683 -0.283584 -1.75679e-19)
(5.34563 -0.265891 1.87026e-19)
(5.36886 0.283074 0)
(5.34027 0.303891 -1.70877e-19)
(5.31605 0.319032 0)
(5.28334 0.338991 0)
(5.25566 0.355261 2.76437e-19)
(5.21884 0.375312 -2.82069e-19)
(5.18608 0.392082 1.05302e-19)
(5.14287 0.411118 8.26163e-20)
(5.10231 0.426337 1.34859e-19)
(5.04926 0.440581 7.69957e-20)
(4.99605 0.44932 -2.7715e-20)
(4.92798 0.452914 -2.899e-20)
(4.85795 0.447785 -6.80444e-21)
(4.77729 0.432612 1.98347e-20)
(4.70359 0.404281 6.62105e-20)
(4.64306 0.36776 -1.13655e-19)
(4.62809 0.317408 1.04083e-19)
(4.64666 0.268361 0)
(4.6799 0.199771 0)
(4.70503 0.129521 -9.52954e-20)
(4.69014 -0.00367352 0)
(4.68612 -0.167414 -2.15058e-19)
(4.74311 -0.283657 2.23022e-20)
(4.79683 -0.389491 0)
(4.79113 -0.411302 2.06189e-19)
(4.78681 -0.441896 -1.73488e-19)
(4.79163 -0.455862 6.3057e-20)
(4.82373 -0.472197 3.43597e-20)
(4.88825 -0.478405 -4.79857e-20)
(4.961 -0.481505 -2.41654e-21)
(5.0177 -0.47545 5.20414e-20)
(5.08104 -0.466136 2.36804e-20)
(5.12512 -0.4527 1.19164e-19)
(5.17598 -0.435622 -2.07458e-19)
(5.2133 -0.418115 -1.28003e-19)
(5.25549 -0.396803 -1.59877e-19)
(5.28714 -0.37727 -3.00542e-20)
(5.32144 -0.354916 1.56165e-19)
(5.34737 -0.33538 3.93568e-19)
(5.37382 -0.313861 2.56899e-21)
(5.39467 -0.295075 -1.90616e-19)
(5.41509 -0.276634 4.53106e-19)
(5.36296 -0.251592 -1.81095e-19)
(5.32002 -0.22142 1.81045e-19)
(5.27139 -0.194227 0)
(5.2212 -0.165611 2.93432e-20)
(5.1722 -0.137852 -2.20568e-19)
(5.13087 -0.111724 0)
(5.10005 -0.0889243 -8.92321e-20)
(5.07859 -0.0700053 8.94045e-20)
(5.06281 -0.0545849 6.94224e-20)
(5.04913 -0.0418357 -1.48005e-19)
(5.03592 -0.0311833 6.27209e-20)
(5.02386 -0.0219467 -1.33966e-19)
(5.01437 -0.0135939 4.5413e-20)
(5.00593 -0.00696649 0)
(4.98513 0.0101992 6.68436e-20)
(4.88774 0.016147 0)
(5.43272 -0.260516 -7.3295e-19)
(5.38187 -0.240714 2.37914e-19)
(5.33676 -0.214923 0)
(5.28702 -0.191396 -3.62443e-19)
(5.23731 -0.166799 -6.30063e-19)
(5.19087 -0.142452 -1.32603e-19)
(5.15262 -0.118589 -1.32647e-19)
(5.12402 -0.0962846 1.06548e-19)
(5.1034 -0.076474 -1.12517e-20)
(5.08736 -0.0594929 -9.55194e-20)
(5.07295 -0.0451544 3.25007e-19)
(5.05894 -0.0331885 -2.01572e-19)
(5.04586 -0.0228016 1.27364e-19)
(5.03476 -0.0137277 -5.93801e-20)
(5.02385 -0.0067796 -2.2627e-20)
(5.00188 0.00170224 -4.08756e-20)
(4.8904 0.0161615 -9.43502e-21)
(5.44785 -0.24401 0)
(5.39719 -0.227433 -2.72518e-19)
(5.35032 -0.205192 -4.53249e-19)
(5.29997 -0.184191 1.88604e-19)
(5.25135 -0.162166 3.54688e-19)
(5.20764 -0.140626 -1.59057e-19)
(5.17251 -0.119619 1.30167e-19)
(5.14624 -0.0994669 0)
(5.1265 -0.0806323 0)
(5.11013 -0.0634817 -2.37535e-19)
(5.09482 -0.0482825 -1.88172e-19)
(5.07992 -0.0351974 8.63942e-20)
(5.06605 -0.0238292 -8.71316e-21)
(5.05377 -0.0138722 -7.69646e-20)
(5.04038 -0.00567646 1.11498e-19)
(5.01421 0.0013308 3.05326e-20)
(4.88799 0.0166875 0)
(5.46045 -0.227893 0)
(5.41052 -0.215269 5.57826e-19)
(5.36411 -0.195971 5.29619e-19)
(5.31546 -0.177364 4.57454e-19)
(5.26986 -0.157831 0)
(5.23 -0.138728 0)
(5.19805 -0.120231 3.43079e-19)
(5.17339 -0.102291 0)
(5.15354 -0.085 -4.5689e-19)
(5.13595 -0.0685561 5.29091e-19)
(5.11916 -0.0532693 -1.2978e-19)
(5.10301 -0.0394654 0)
(5.08812 -0.027126 9.79007e-20)
(5.07442 -0.0160135 -2.98101e-19)
(5.05829 -0.00699372 -3.37755e-19)
(5.02592 6.10904e-05 0)
(4.88634 0.0168369 0)
(5.47126 -0.212362 1.08406e-18)
(5.4237 -0.201771 0)
(5.3789 -0.185596 -5.77559e-19)
(5.33338 -0.169214 8.1401e-19)
(5.29155 -0.151661 -4.97898e-19)
(5.25554 -0.134499 4.92072e-19)
(5.22632 -0.118147 4.22069e-19)
(5.20275 -0.102445 -3.88626e-19)
(5.18256 -0.0871487 5.26343e-19)
(5.16384 -0.0722037 0)
(5.14585 -0.0577327 0)
(5.12882 -0.0440447 0)
(5.1132 -0.0312082 0)
(5.09813 -0.0189537 9.18128e-20)
(5.07868 -0.00891344 1.98538e-19)
(5.03789 -0.00104277 -2.31953e-20)
(4.88724 0.0164175 -1.64754e-19)
(5.48144 -0.196097 -8.1134e-19)
(5.43687 -0.188774 -3.7832e-19)
(5.39558 -0.174961 3.39365e-19)
(5.35433 -0.160568 -6.03312e-19)
(5.31658 -0.144838 0)
(5.28407 -0.129293 -2.57842e-19)
(5.25701 -0.114555 -2.55209e-19)
(5.23415 -0.100638 0)
(5.21369 -0.087185 0)
(5.19432 -0.0739372 -2.06929e-19)
(5.17582 -0.060794 0)
(5.15862 -0.0479544 8.15774e-20)
(5.14288 -0.0352877 -8.14267e-20)
(5.12678 -0.0224541 2.05067e-19)
(5.10381 -0.0116214 -6.95889e-20)
(5.05318 -0.00219153 -1.34653e-19)
(4.89197 0.0159673 3.23553e-19)
(5.4915 -0.180274 8.70179e-19)
(5.45165 -0.174387 -8.07883e-19)
(5.41448 -0.163404 3.81802e-19)
(5.37785 -0.151115 -2.16628e-20)
(5.344 -0.13724 -3.36927e-19)
(5.31436 -0.123223 0)
(5.28896 -0.109762 0)
(5.26671 -0.0971628 0)
(5.24633 -0.0851531 0)
(5.22702 -0.0733779 2.22895e-19)
(5.20885 -0.0616437 -2.29251e-19)
(5.19233 -0.0500456 0)
(5.17723 -0.0381256 -2.93846e-19)
(5.16077 -0.0255111 -9.67995e-20)
(5.13467 -0.0144631 4.02814e-20)
(5.07479 -0.00336804 1.04967e-19)
(4.90148 0.0154229 -1.29464e-19)
(5.50234 -0.163389 -2.48389e-19)
(5.46736 -0.160211 2.33412e-19)
(5.43514 -0.151272 1.13828e-20)
(5.40315 -0.140937 2.0257e-19)
(5.37289 -0.129025 1.80272e-19)
(5.34556 -0.116604 -5.34764e-19)
(5.3215 -0.10436 1.59455e-19)
(5.29995 -0.0927564 -1.58448e-19)
(5.28007 -0.0817541 3.01309e-19)
(5.26141 -0.0710391 0)
(5.24419 -0.0604619 1.20665e-19)
(5.22891 -0.0500696 1.24904e-19)
(5.21506 -0.0391468 2.16286e-19)
(5.19902 -0.0273971 2.01858e-19)
(5.17081 -0.0168307 0)
(5.10386 -0.00458712 -2.27724e-20)
(4.91669 0.01502 2.08872e-19)
(5.51405 -0.146822 -5.28515e-19)
(5.48462 -0.144583 2.59044e-19)
(5.45698 -0.138091 0)
(5.42921 -0.129901 4.45788e-19)
(5.40219 -0.120011 0)
(5.37691 -0.109377 3.84683e-19)
(5.35405 -0.0985141 -1.81862e-19)
(5.33337 -0.087861 1.8029e-19)
(5.31433 -0.0776473 -4.86539e-19)
(5.29669 -0.0676897 1.62253e-19)
(5.2807 -0.057937 -1.46751e-19)
(5.26681 -0.0484657 2.85147e-19)
(5.25435 -0.0384707 1.44902e-19)
(5.23931 -0.0278926 0)
(5.21058 -0.0183236 -2.57849e-19)
(5.13938 -0.00562223 0)
(4.93872 0.0147304 -1.98326e-19)
(5.52645 -0.129529 -2.94223e-19)
(5.50207 -0.129215 -8.25e-19)
(5.47902 -0.124359 0)
(5.45504 -0.118078 -4.83276e-19)
(5.43096 -0.110163 -2.27236e-19)
(5.40773 -0.101383 4.39701e-19)
(5.38616 -0.0920885 -2.12953e-19)
(5.36649 -0.0826359 4.06761e-19)
(5.34851 -0.0732617 0)
(5.33204 -0.0639407 0)
(5.31729 -0.0548469 3.57119e-19)
(5.30457 -0.0460671 0)
(5.2932 -0.0367988 2.74056e-20)
(5.2793 -0.0272464 3.13893e-19)
(5.25146 -0.0187129 2.72722e-19)
(5.17988 -0.00681326 -2.89545e-19)
(4.96841 0.0158349 -2.6996e-19)
(5.53892 -0.112225 3.24071e-19)
(5.51938 -0.112538 3.02653e-19)
(5.50028 -0.109704 -2.78621e-19)
(5.47971 -0.105344 2.7279e-19)
(5.4584 -0.0993882 0)
(5.43736 -0.0924421 0)
(5.41739 -0.0848471 -6.78179e-21)
(5.3989 -0.0768602 -4.33844e-19)
(5.38201 -0.068531 0)
(5.36671 -0.0600147 2.08089e-19)
(5.35308 -0.0516821 -3.78048e-19)
(5.34123 -0.0434266 9.21204e-20)
(5.3305 -0.0348306 -5.25306e-19)
(5.31751 -0.0260053 -2.42383e-19)
(5.2913 -0.0180754 4.09275e-20)
(5.22351 -0.00932705 2.62874e-19)
(5.00534 0.0193035 2.82765e-19)
(5.55047 -0.0943797 -3.37195e-19)
(5.53479 -0.096112 3.27453e-19)
(5.51933 -0.0945097 -3.04845e-19)
(5.50204 -0.0917617 0)
(5.4836 -0.0876115 -5.52799e-19)
(5.46504 -0.082486 2.68848e-19)
(5.44707 -0.0765687 3.81271e-19)
(5.43011 -0.0700684 -2.42281e-19)
(5.41443 -0.0631428 -2.88049e-21)
(5.4002 -0.0559039 -6.73231e-19)
(5.38753 -0.0483441 -1.1133e-19)
(5.37635 -0.0406103 0)
(5.36609 -0.0332105 -2.07451e-19)
(5.3537 -0.0246825 2.00017e-19)
(5.32946 -0.0166782 -1.94143e-19)
(5.26779 -0.0127874 -1.91169e-19)
(5.04756 0.0264441 0)
(5.56097 -0.0756765 -7.23632e-19)
(5.54831 -0.0783113 6.22009e-21)
(5.53553 -0.0785215 3.28513e-19)
(5.52104 -0.0774365 0)
(5.50542 -0.0749017 1.13379e-21)
(5.48956 -0.0713755 2.84268e-19)
(5.47405 -0.0670477 -4.07131e-19)
(5.45916 -0.0620931 3.92917e-19)
(5.44509 -0.0567067 0)
(5.43208 -0.0508283 2.40095e-19)
(5.42031 -0.0443302 -7.36464e-21)
(5.40983 -0.0379878 5.65451e-20)
(5.40009 -0.0317952 1.05183e-19)
(5.3882 -0.0222853 -1.53292e-19)
(5.36619 -0.0164194 2.26496e-19)
(5.31075 -0.0175352 1.71355e-19)
(5.09228 0.0362148 1.99285e-19)
(5.56971 -0.057541 -5.73763e-19)
(5.5592 -0.0609848 5.47361e-19)
(5.54869 -0.0618446 -1.73983e-19)
(5.53646 -0.0620275 -1.62907e-19)
(5.52321 -0.0610481 3.17939e-19)
(5.50983 -0.0591446 -6.01244e-19)
(5.49679 -0.0563671 -1.41215e-19)
(5.48425 -0.0528497 3.44867e-19)
(5.47226 -0.0487807 -6.73002e-20)
(5.46095 -0.0441111 0)
(5.45049 -0.0390606 2.47586e-19)
(5.44103 -0.034595 2.74596e-19)
(5.43203 -0.0290556 1.79152e-19)
(5.42114 -0.0191807 2.88307e-20)
(5.4017 -0.016539 1.40241e-20)
(5.35123 -0.0250218 2.11879e-19)
(5.13577 0.0462497 -2.02926e-19)
(5.57681 -0.0375194 6.04059e-19)
(5.56783 -0.041903 -1.85833e-19)
(5.55898 -0.0441737 1.76228e-19)
(5.54864 -0.0456 -1.67649e-19)
(5.5373 -0.0459374 3.27844e-19)
(5.52586 -0.0454152 0)
(5.5148 -0.0441131 2.99839e-19)
(5.50425 -0.0421382 -3.23471e-19)
(5.49423 -0.0395485 2.96726e-22)
(5.48475 -0.0362247 6.67436e-20)
(5.47593 -0.0324813 -3.24534e-20)
(5.46785 -0.0293496 -3.60609e-19)
(5.46009 -0.0251148 -2.59105e-19)
(5.45093 -0.0160536 -1.18875e-19)
(5.43422 -0.014973 1.16587e-19)
(5.38806 -0.0316165 -3.44916e-19)
(5.17441 0.0554192 0)
(5.58179 -0.0194978 -3.14806e-19)
(5.57394 -0.0239952 2.93705e-19)
(5.56656 -0.0263662 -2.78429e-19)
(5.5579 -0.0284861 4.98977e-20)
(5.54821 -0.0297934 1.20002e-19)
(5.53834 -0.0304076 -1.96388e-20)
(5.52881 -0.030397 1.89559e-20)
(5.51977 -0.0298379 9.04366e-21)
(5.51124 -0.0287535 1.28283e-19)
(5.50318 -0.0270244 0)
(5.49567 -0.024891 0)
(5.48879 -0.0233544 2.52688e-19)
(5.48228 -0.020888 -1.54231e-20)
(5.47491 -0.0125386 1.42789e-19)
(5.46098 -0.0104005 -1.17399e-19)
(5.41917 -0.0370996 1.09586e-19)
(5.20627 0.0623807 0)
(5.58482 0.00135149 3.04144e-19)
(5.57742 -0.00400337 -4.86077e-20)