/*--------------------------------*- C++ -*----------------------------------*\
  =========                 |
  \\      /  F ield         | OpenFOAM: The Open Source CFD Toolbox
   \\    /   O peration     | Website:  https://openfoam.org
    \\  /    A nd           | Version:  6
     \\/     M anipulation  |
\*---------------------------------------------------------------------------*/
FoamFile
{
    version     2.0;
    format      ascii;
    class       volScalarField;
    location    "1.58";
    object      k;
}
// * * * * * * * * * * * * * * * * * * * * * * * * * * * * * * * * * * * * * //

dimensions      [0 2 -2 0 0 0 0];

internalField   nonuniform List<scalar> 
4214
(
0.0350157
0.0296622
0.0281116
0.0277397
0.027698
0.0277383
0.0278118
0.0279287
0.0281122
0.0283833
0.0287643
0.0292816
0.0299709
0.0308837
0.0320943
0.0337097
0.0359125
0.0390214
0.0436088
0.050204
0.0582968
0.0586894
0.0520283
0.0453444
0.0402293
0.0364909
0.03382
0.0318784
0.0304671
0.0294503
0.0287336
0.0282456
0.0279306
0.0277455
0.0276471
0.0275934
0.0275483
0.0275399
0.0278076
0.0292179
0.0343985
0.0270591
0.0272756
0.0274959
0.0276535
0.0277577
0.0278449
0.0279517
0.02811
0.0283467
0.0286822
0.0291416
0.0297564
0.0305707
0.0316479
0.0330795
0.0350034
0.037651
0.0414425
0.0470907
0.0552125
0.0653043
0.0663401
0.0582741
0.0500295
0.0437382
0.0391291
0.0358408
0.033442
0.0316774
0.030381
0.029442
0.0287774
0.0283237
0.0280294
0.0278537
0.0277528
0.0276768
0.0275658
0.0273658
0.0270634
0.0267902
0.0270998
0.0274361
0.0276539
0.0277897
0.0278856
0.0279868
0.0281286
0.0283372
0.0286348
0.0290444
0.0295939
0.0303211
0.0312794
0.0325453
0.034229
0.036501
0.0396557
0.0442224
0.0510522
0.0608162
0.0730101
0.074982
0.065462
0.0554782
0.0478708
0.0422508
0.0382441
0.0353229
0.0331601
0.0315458
0.0303481
0.0294714
0.0288436
0.0284081
0.0281198
0.0279417
0.0278323
0.0277339
0.0275774
0.0272938
0.0268806
0.0274428
0.0276759
0.0278284
0.0279338
0.0280336
0.028164
0.0283523
0.0286198
0.0289879
0.0294816
0.0301335
0.0309891
0.0321118
0.0335921
0.0355613
0.0382264
0.0419511
0.0473723
0.0554596
0.0668805
0.0812648
0.0845083
0.0736266
0.061763
0.0527315
0.0459711
0.0411182
0.0375785
0.0349524
0.032974
0.0314803
0.0303586
0.0295267
0.0289213
0.0284926
0.0282026
0.0280172
0.0278944
0.0277727
0.0275834
0.0272619
0.0277179
0.0278713
0.0279842
0.0280866
0.0282117
0.0283869
0.0286331
0.0289693
0.0294179
0.0300075
0.0307766
0.0317785
0.0330875
0.0348081
0.0370944
0.0401938
0.044538
0.0508733
0.0602288
0.0732545
0.089975
0.0948517
0.0828824
0.0691026
0.0585051
0.0504239
0.0445593
0.0402688
0.0370889
0.034687
0.032855
0.0314541
0.0303874
0.029583
0.0289865
0.0285568
0.0282623
0.0280706
0.0279321
0.0278024
0.0275648
0.0279314
0.0280412
0.0281463
0.0282702
0.0284389
0.0286717
0.0289863
0.0294012
0.0299415
0.0306404
0.0315432
0.0327111
0.0342295
0.0362173
0.038849
0.0424237
0.0474213
0.0546393
0.0652385
0.0798919
0.0990666
0.105962
0.0934159
0.0776577
0.0653402
0.0557491
0.0486884
0.043489
0.0396369
0.0367314
0.0345084
0.0327906
0.0314588
0.0304282
0.0296372
0.0290408
0.0286064
0.0283066
0.0281032
0.0279667
0.0277873
0.0281136
0.0282136
0.0283387
0.0285054
0.0287333
0.0290355
0.029429
0.0299335
0.0305783
0.0314017
0.0324563
0.0338115
0.0355601
0.0378435
0.0408495
0.0448875
0.0505263
0.0586545
0.070496
0.086739
0.108486
0.117775
0.105281
0.0875909
0.0733991
0.0620875
0.0536246
0.0473366
0.0426716
0.0391625
0.0364824
0.0344039
0.0327751
0.0314915
0.0304806
0.0296916
0.029089
0.0286472
0.0283368
0.0281352
0.0279582
0.0282987
0.0284163
0.0285867
0.0288148
0.029116
0.0294989
0.0299825
0.0305885
0.0313523
0.0323167
0.0335406
0.0351076
0.0371075
0.0396763
0.0430474
0.0475881
0.0538988
0.0629304
0.0759964
0.0937912
0.118202
0.130225
0.118472
0.0990076
0.082806
0.0695422
0.0594571
0.0518894
0.0462614
0.0420385
0.0388279
0.0363405
0.0343815
0.0328181
0.0315622
0.0305544
0.0297558
0.0291404
0.0286839
0.0283699
0.0281376
0.0285161
0.028678
0.0289173
0.0292233
0.0296119
0.0300871
0.0306734
0.0313937
0.0322912
0.0334178
0.034825
0.0365956
0.0388435
0.0417295
0.045504
0.050568
0.0575612
0.0674896
0.0817694
0.1011
0.12824
0.143283
0.132908
0.111925
0.0936179
0.0781579
0.066227
0.0571905
0.0504578
0.0454188
0.0416103
0.0386702
0.0363504
0.0344803
0.0329519
0.0316953
0.0306686
0.0298449
0.0292037
0.0287313
0.0283879
0.0287961
0.0290297
0.0293608
0.0297605
0.030252
0.0308317
0.0315356
0.0323865
0.0334255
0.0347081
0.0363055
0.0383047
0.0408282
0.0440547
0.0482601
0.0538734
0.0615672
0.0723958
0.0878935
0.108793
0.138701
0.157013
0.148522
0.126275
0.105825
0.087915
0.0739237
0.0632473
0.0552976
0.0493702
0.044924
0.0415074
0.038809
0.0366082
0.0347751
0.0332287
0.0319277
0.0308481
0.0299738
0.0292941
0.0287819
0.0291731
0.0295058
0.0299527
0.0304619
0.0310765
0.0317755
0.0326038
0.0335849
0.0347788
0.0362381
0.0380432
0.0402886
0.0431111
0.0467088
0.0513827
0.0575856
0.0660154
0.0777664
0.0945045
0.117088
0.149716
0.171608
0.165312
0.141937
0.119348
0.0987257
0.0824968
0.0700411
0.0608135
0.05398
0.0489114
0.0450379
0.0419735
0.0394281
0.0372533
0.0353554
0.0337066
0.0322927
0.0311103
0.0301548
0.0294069
0.0296887
0.0301453
0.0307373
0.0313738
0.0321255
0.0329534
0.0339287
0.0350592
0.0364234
0.038073
0.0401034
0.0426178
0.045772
0.0497841
0.05498
0.0618333
0.0710614
0.0837839
0.101798
0.126326
0.161384
0.187386
0.183383
0.158769
0.134085
0.110448
0.0918717
0.0775424
0.0670522
0.0593749
0.0537843
0.0495453
0.0461838
0.0433008
0.0407467
0.0384027
0.0362888
0.0344071
0.0327905
0.031446
0.0303665
0.0303936
0.030995
0.0317576
0.0325379
0.0334675
0.0344489
0.0356006
0.0368974
0.0384541
0.0403118
0.0425933
0.0454094
0.0489421
0.0534283
0.0592199
0.0668092
0.0769274
0.0907076
0.110032
0.136824
0.173887
0.20477
0.202948
0.176609
0.14993
0.122894
0.101987
0.0857257
0.0740948
0.0657413
0.0598448
0.0554348
0.0519297
0.0487446
0.0457843
0.0428467
0.0400938
0.0375228
0.0352693
0.0333468
0.0317853
0.0313371
0.0320911
0.0330886
0.0340388
0.0352066
0.0363666
0.0377467
0.0392328
0.0410233
0.0431155
0.0456922
0.0488567
0.0528347
0.0578742
0.064358
0.0727948
0.0839213
0.0988859
0.119497
0.148785
0.187475
0.224318
0.224304
0.195242
0.166819
0.13581
0.112841
0.0945802
0.0820849
0.0733473
0.0674956
0.063246
0.0598547
0.0564275
0.0530679
0.0492891
0.0456741
0.042049
0.0388702
0.036066
0.0338035
0.0325928
0.033508
0.0348454
0.035976
0.0374903
0.0388496
0.0405598
0.0422636
0.044374
0.0467388
0.0496905
0.0532646
0.0577803
0.06347
0.0707556
0.0801705
0.0924201
0.108786
0.130511
0.162361
0.202357
0.246706
0.247701
0.214315
0.184787
0.148836
0.124558
0.104098
0.0912785
0.0825557
0.0772267
0.0736468
0.0707145
0.0671114
0.0634361
0.0583555
0.0536816
0.0483704
0.0439491
0.0397661
0.0365472
0.034293
0.0353213
0.0372044
0.0384677
0.0405446
0.042077
0.0443315
0.0462565
0.0488789
0.0515495
0.0550325
0.0590866
0.0642674
0.0707232
0.0788978
0.089461
0.102794
0.120949
0.143377
0.178008
0.21856
0.272847
0.273056
0.233181
0.204007
0.161328
0.137483
0.114162
0.102108
0.093781
0.0895772
0.0873741
0.0852484
0.0815232
0.0777718
0.0704883
0.0648424
0.0566278
0.0508971
0.0444011
0.0401256
0.0366701
0.0375841
0.0404712
0.041613
0.0447396
0.0462177
0.0495119
0.0514982
0.0550909
0.0580039
0.0623693
0.0669592
0.07298
0.0804076
0.0893886
0.101532
0.115315
0.135898
0.157771
0.196226
0.235519
0.304531
0.299892
0.250963
0.22495
0.172172
0.152433
0.124288
0.115266
0.107296
0.105023
0.105002
0.103907
0.100125
0.0968199
0.085653
0.0800348
0.0663384
0.0603478
0.0493917
0.0448216
0.0382248
0.0362873
0.0342066
0.0323912
0.0309538
0.0298851
0.0291287
0.0286174
0.0282828
0.0280586
0.0278802
0.0276807
0.0273962
0.0269783
0.0264429
0.0268389
0.0509076
0.0355556
0.0338721
0.0324445
0.0312174
0.0302121
0.0294306
0.0288537
0.0284485
0.0281733
0.0279814
0.0278203
0.0276318
0.0273577
0.0269458
0.0263883
0.0266806
0.0502855
0.0323362
0.03174
0.0309785
0.0302265
0.0295623
0.0290155
0.0285914
0.0282797
0.0280591
0.0278968
0.0277498
0.0275699
0.0273031
0.0268912
0.0263179
0.0265409
0.0496567
0.0310029
0.0304348
0.0299238
0.0294444
0.0290115
0.0286412
0.02834
0.0281075
0.0279345
0.0277987
0.0276674
0.027499
0.0272373
0.0268192
0.0262218
0.0263683
0.0492796
0.0292614
0.0292117
0.0290229
0.0287812
0.0285322
0.0283015
0.0281007
0.0279352
0.0278027
0.0276904
0.0275728
0.0274109
0.0271487
0.0267195
0.0260895
0.0261646
0.0491905
0.0285475
0.0284675
0.0283746
0.028259
0.0281303
0.0280001
0.0278764
0.0277644
0.0276649
0.0275713
0.0274632
0.0273043
0.0270384
0.0265913
0.0259186
0.0259341
0.0494248
0.0275349
0.0276998
0.027773
0.0277868
0.0277628
0.0277161
0.0276568
0.0275904
0.0275205
0.0274434
0.0273429
0.0271838
0.0269085
0.0264344
0.0257092
0.025687
0.0500286
0.0271311
0.0272498
0.0273477
0.027415
0.0274513
0.0274611
0.0274493
0.0274203
0.0273764
0.0273145
0.0272195
0.0270561
0.0267634
0.0262514
0.0254662
0.0254413
0.0510499
0.026396
0.0266597
0.0268642
0.0270175
0.0271267
0.0271978
0.0272362
0.0272465
0.0272312
0.0271868
0.0270966
0.0269268
0.0266091
0.0260508
0.0252061
0.0252261
0.0525097
0.0261415
0.0263621
0.0265594
0.0267275
0.026864
0.0269683
0.0270409
0.0270822
0.0270908
0.0270616
0.0269779
0.0267993
0.0264556
0.0258528
0.0249574
0.0250749
0.0543668
0.0254559
0.0257579
0.0260335
0.0262777
0.0264864
0.0266568
0.0267869
0.0268759
0.0269229
0.0269204
0.0268493
0.0266688
0.0263082
0.0256708
0.0247371
0.0250058
0.0565377
0.0252418
0.0254825
0.0257182
0.0259434
0.0261534
0.0263431
0.0265056
0.0266334
0.0267179
0.0267453
0.0266935
0.0265208
0.0261531
0.0254916
0.024538
0.0250238
0.05895
0.0246091
0.0249273
0.0252259
0.0255061
0.0257654
0.0259991
0.0262014
0.0263652
0.026481
0.0265332
0.0264976
0.0263326
0.0259626
0.0252896
0.0243466
0.0251276
0.0614707
0.0243688
0.0246169
0.0248816
0.0251498
0.0254098
0.0256517
0.025867
0.0260476
0.0261824
0.026253
0.0262324
0.0260776
0.0257127
0.0250463
0.0241552
0.0253242
0.0639006
0.0237422
0.0240779
0.0243966
0.0246984
0.024979
0.0252345
0.0254615
0.0256553
0.0258054
0.0258918
0.0258847
0.0257412
0.0253881
0.0247488
0.0239659
0.0256465
0.0661246
0.0234534
0.0237047
0.0239838
0.0242623
0.0245263
0.0247712
0.0249947
0.0251918
0.0253499
0.0254464
0.0254489
0.0253155
0.0249801
0.0243931
0.0237939
0.0261486
0.0679653
0.0228251
0.0231689
0.0234781
0.0237554
0.024007
0.0242404
0.0244581
0.0246548
0.024816
0.0249172
0.0249253
0.0248016
0.0244923
0.0239894
0.023668
0.026908
0.0692529
0.0224888
0.0227364
0.022986
0.0232183
0.0234379
0.0236511
0.0238573
0.0240483
0.0242078
0.0243098
0.0243218
0.0242112
0.0239421
0.0235635
0.0236214
0.027979
0.069804
0.021874
0.022183
0.0224157
0.0226166
0.0228097
0.0230032
0.0231951
0.0233762
0.0235301
0.023632
0.0236506
0.0235626
0.0233576
0.0231537
0.0236913
0.0293256
0.0695263
0.0214741
0.0216572
0.0218156
0.0219709
0.0221331
0.0223029
0.0224756
0.0226424
0.0227876
0.0228888
0.0229211
0.0228728
0.0227681
0.0228083
0.0239638
0.0306593
0.0682915
0.020864
0.0210434
0.0211625
0.0212822
0.0214127
0.0215536
0.0217015
0.0218486
0.0219815
0.0220812
0.0221343
0.0221504
0.0221981
0.0225749
0.0243872
0.0317013
0.0660505
0.0203475
0.0204128
0.0204813
0.0205618
0.0206553
0.020761
0.0208765
0.0209964
0.0211107
0.0212086
0.0212934
0.0214062
0.0216731
0.0224979
0.0250629
0.033158
0.0630925
0.0197332
0.0197552
0.0197809
0.0198189
0.0198701
0.0199343
0.0200107
0.0200966
0.0201888
0.0202909
0.0204306
0.0206841
0.0212459
0.0226165
0.0260873
0.0356006
0.0603161
0.019113
0.0190872
0.0190689
0.019062
0.0190676
0.0190869
0.0191216
0.0191743
0.0192524
0.0193783
0.0196064
0.020052
0.0209747
0.0229442
0.0272859
0.0372677
0.0582431
0.0184887
0.0184203
0.0183565
0.0183035
0.0182631
0.0182385
0.0182358
0.0182662
0.0183507
0.0185322
0.0188918
0.0195845
0.0209121
0.0234657
0.0285013
0.0388234
0.0570108
0.0178746
0.0177603
0.0176526
0.0175553
0.0174724
0.017411
0.0173833
0.0174111
0.0175306
0.0178044
0.0183382
0.0193215
0.0210855
0.0242418
0.0300279
0.0409868
0.0568062
0.0172679
0.0171145
0.0169651
0.0168278
0.0167096
0.0166227
0.0165868
0.016634
0.0168142
0.0172075
0.0179433
0.0192379
0.0214509
0.025224
0.0318
0.0435161
0.0577611
0.0166701
0.0164782
0.0162925
0.0161207
0.0159753
0.0158749
0.0158459
0.0159279
0.0161811
0.0166988
0.0176269
0.0191984
0.0217901
0.0260567
0.0332331
0.0455649
0.0597981
0.0160481
0.0158219
0.0156019
0.0153969
0.0152212
0.0151036
0.0150852
0.0152155
0.0155533
0.0161887
0.0172647
0.0190236
0.0218461
0.0263739
0.033809
0.0464144
0.0625937
0.0153387
0.0150305
0.0147419
0.0144929
0.0143167
0.0142293
0.0142541
0.0144305
0.014829
0.0155521
0.0167514
0.0186404
0.0215645
0.0261628
0.0335911
0.0461969
0.0656525
0.01474
0.0144087
0.0141214
0.0138935
0.013724
0.013635
0.013658
0.0138406
0.0142507
0.0149868
0.0161974
0.0181098
0.0210819
0.0256745
0.0330372
0.0456258
0.068492
0.01426
0.0139317
0.0136447
0.0134067
0.013233
0.0131449
0.0131745
0.0133654
0.01378
0.0145115
0.0157028
0.0175756
0.0204899
0.0250636
0.0324186
0.0451527
0.0708428
0.0138678
0.0135311
0.0132378
0.0130015
0.012837
0.0127655
0.0128148
0.0130232
0.0134463
0.0141689
0.0153228
0.0171228
0.0199345
0.0244088
0.031759
0.0447995
0.0726641
0.0135275
0.0131851
0.0128978
0.0126777
0.0125397
0.0125024
0.0125895
0.0128335
0.0132816
0.0140056
0.0151216
0.0168285
0.0194832
0.0237535
0.0309615
0.0442189
0.0740006
0.0132267
0.0128907
0.012622
0.012434
0.0123402
0.012357
0.0125044
0.0128087
0.0133064
0.0140536
0.0151455
0.016755
0.0192118
0.0231741
0.0300495
0.0432715
0.0748824
0.0129641
0.0126439
0.0124072
0.0122667
0.0122353
0.0123279
0.0125612
0.0129543
0.0135326
0.014336
0.0154371
0.0169767
0.0192419
0.0228506
0.0292245
0.0420862
0.0753249
0.0127344
0.012441
0.0122486
0.0121708
0.0122206
0.0124118
0.0127576
0.0132703
0.013966
0.0148719
0.016042
0.0175867
0.0197452
0.0230738
0.0288666
0.0410087
0.0753401
0.0125352
0.0122783
0.0121425
0.0121427
0.0122926
0.0126049
0.0130889
0.0137529
0.0146078
0.0156764
0.0170044
0.018685
0.0209222
0.0242192
0.0295386
0.0406099
0.0749522
0.0123627
0.012152
0.0120847
0.012178
0.0124463
0.0129006
0.0135486
0.0143953
0.0154553
0.0167586
0.018363
0.0203745
0.0229938
0.026699
0.031984
0.0419401
0.0742328
0.0122152
0.0120599
0.0120739
0.0122762
0.0126814
0.0132982
0.0141326
0.0151944
0.0165092
0.0181309
0.020162
0.022794
0.0263929
0.0309674
0.0370789
0.0465968
0.0732968
0.0171521
0.0180016
0.0188527
0.0196471
0.0203531
0.0209507
0.0214274
0.0217745
0.0219891
0.0220731
0.0220342
0.0218848
0.0216402
0.0213173
0.0209317
0.0204951
0.0200135
0.019486
0.0189098
0.0182842
0.0173947
0.0165366
0.0159562
0.0154049
0.0148798
0.0143796
0.0139048
0.0134588
0.0130456
0.012671
0.0123409
0.0120611
0.0118373
0.0116739
0.0115752
0.0115423
0.0115726
0.0116585
0.011784
0.0119316
0.0120799
0.018536
0.0195613
0.0205522
0.0214545
0.0222443
0.0229061
0.0234269
0.0237969
0.0240124
0.0240761
0.0239973
0.0237909
0.0234754
0.0230701
0.0225924
0.0220554
0.0214662
0.0208271
0.0201397
0.0194108
0.0184248
0.0174872
0.0168371
0.016226
0.0156495
0.0151048
0.0145901
0.0141053
0.0136525
0.0132348
0.0128571
0.012523
0.0122375
0.0120039
0.0118268
0.01171
0.0116567
0.0116658
0.0117296
0.0118317
0.0119492
0.0200386
0.0212621
0.0223989
0.0234166
0.0243032
0.0250439
0.0256223
0.0260258
0.0262488
0.0262943
0.0261738
0.025905
0.0255096
0.0250099
0.0244259
0.023773
0.0230612
0.0222973
0.0214896
0.0206503
0.0195661
0.0185447
0.0178185
0.0171419
0.01651
0.0159188
0.0153644
0.0148442
0.0143576
0.0139055
0.0134903
0.0131143
0.0127798
0.0124892
0.0122449
0.0120514
0.0119149
0.0118424
0.0118364
0.0118887
0.0119775
0.0216518
0.0230817
0.0243671
0.0255136
0.0265171
0.0273577
0.0280124
0.0284638
0.0287039
0.0287361
0.0285736
0.0282375
0.0277533
0.0271471
0.0264425
0.0256587
0.0248106
0.0239112
0.0229753
0.0220201
0.020836
0.019727
0.018918
0.0181696
0.0174769
0.0168352
0.0162395
0.0156849
0.0151684
0.0146887
0.0142458
0.0138399
0.0134714
0.0131401
0.0128457
0.0125898
0.0123783
0.0122233
0.0121388
0.0121312
0.0121876
0.0233626
0.0249916
0.0264313
0.0277282
0.0288748
0.0298407
0.0305939
0.031111
0.0313811
0.0314072
0.0312047
0.0307979
0.0302169
0.0294927
0.0286542
0.0277264
0.0267307
0.0256873
0.0246171
0.0235409
0.0222558
0.0210557
0.0201572
0.0193305
0.0185708
0.0178733
0.0172322
0.0166415
0.0160963
0.015593
0.0151297
0.0147046
0.0143163
0.013962
0.0136382
0.0133414
0.0130727
0.0128427
0.0126736
0.0125902
0.0126007
0.0251555
0.0269667
0.0285748
0.0300493
0.0313678
0.0324858
0.0333618
0.0339652
0.0342811
0.0343116
0.0340733
0.0335946
0.0329109
0.0320594
0.0310764
0.0299945
0.0288431
0.0276497
0.0264405
0.025239
0.0238516
0.0225576
0.0215632
0.0206516
0.0198185
0.019059
0.0183669
0.0177358
0.0171595
0.0166332
0.016153
0.0157156
0.015318
0.0149562
0.0146237
0.0143121
0.0140136
0.0137294
0.013479
0.0133019
0.0132391
0.0270207
0.0289974
0.0307954
0.0324747
0.0339914
0.0352875
0.0363109
0.037023
0.0374031
0.0374512
0.0371848
0.0366364
0.0358475
0.0348636
0.0337298
0.032488
0.0311763
0.0298292
0.0284777
0.0271471
0.0256565
0.0242663
0.0231702
0.0221678
0.021255
0.0204269
0.0196772
0.0189995
0.0183873
0.0178346
0.0173365
0.0168886
0.0164869
0.0161269
0.0158013
0.0154988
0.0152034
0.0149007
0.0145917
0.0143115
0.0141332
0.0289631
0.0310976
0.0331078
0.035013
0.0367489
0.0382452
0.039439
0.040282
0.0407463
0.040828
0.0405451
0.0399337
0.0390427
0.037927
0.0366419
0.0352395
0.0337669
0.0322652
0.0307695
0.0293069
0.0277128
0.026225
0.0250224
0.0239238
0.0229256
0.0220228
0.0212091
0.0204782
0.0198234
0.0192386
0.018718
0.0182566
0.01785
0.0174939
0.0171819
0.0169035
0.01664
0.0163634
0.0160451
0.0156816
0.0153411
0.0310104
0.0333088
0.0355467
0.0376885
0.039656
0.041368
0.0427503
0.0437437
0.0443118
0.0444453
0.0441614
0.0434999
0.042517
0.0412776
0.0398479
0.0382904
0.0366609
0.035007
0.0333677
0.031772
0.0300752
0.0284896
0.027177
0.0259783
0.02489
0.0239073
0.0230243
0.0222343
0.0215309
0.0209077
0.0203588
0.0198788
0.0194633
0.0191081
0.0188088
0.0185581
0.0183417
0.0181299
0.0178707
0.0174956
0.0169773
0.0332203
0.0357017
0.0381709
0.0405475
0.0427477
0.0446802
0.0462603
0.0474176
0.0481061
0.04831
0.0480448
0.0473525
0.0462963
0.0449504
0.0433915
0.041692
0.039916
0.0381172
0.0363388
0.0346122
0.0328156
0.0311342
0.0297105
0.0284094
0.0272281
0.0261622
0.0252059
0.0243529
0.0235968
0.0229311
0.0223497
0.0218475
0.0214199
0.0210632
0.0207741
0.0205491
0.020381
0.0202514
0.0201117
0.0198464
0.0192365
0.0357201
0.0383801
0.0410697
0.0436659
0.0460848
0.048228
0.050002
0.0513261
0.0521451
0.0524361
0.0522114
0.0515141
0.0504122
0.0489876
0.0473256
0.0455071
0.0436038
0.0416753
0.039769
0.0379193
0.0360301
0.0342584
0.0327262
0.0313238
0.0300493
0.0288992
0.0278684
0.0269511
0.0261409
0.0254315
0.0248172
0.0242928
0.0238542
0.023498
0.0232217
0.0230237
0.0229022
0.0228521
0.0228513
0.0228083
0.0223604
0.0387587
0.0415429
0.0443676
0.0471607
0.0497618
0.0520873
0.0540323
0.0555103
0.0564587
0.0568478
0.0566858
0.0560144
0.0549038
0.0534399
0.0517139
0.0498128
0.0478144
0.0457834
0.0437713
0.0418161
0.0398492
0.037999
0.0363673
0.0348701
0.0335072
0.0322764
0.0311737
0.0301941
0.029332
0.0285815
0.0279376
0.0273955
0.0269516
0.0266031
0.0263483
0.0261862
0.0261175
0.0261437
0.0262643
0.026458
0.026495
0.0425244
0.0454111
0.0483315
0.0511956
0.0539181
0.0563743
0.0584405
0.0600383
0.0610978
0.0615852
0.0615042
0.0608929
0.0598192
0.0583689
0.0566343
0.0547052
0.0526624
0.0505744
0.0484962
0.0464691
0.0444525
0.0425477
0.0408368
0.0392614
0.0378236
0.0365233
0.0353581
0.0343244
0.0334179
0.0326339
0.0319683
0.0314173
0.0309782
0.030649
0.0304288
0.0303178
0.0303177
0.0304324
0.0306661
0.0310316
0.0315399
0.0473606
0.0502667
0.0532011
0.0560752
0.0587932
0.0612529
0.0633593
0.0650151
0.0661422
0.0667112
0.0667207
0.0662031
0.0652199
0.0638508
0.0621836
0.0603053
0.0582959
0.0562242
0.0541469
0.0521082
0.0500933
0.0481794
0.04643
0.0448114
0.0433288
0.0419847
0.0407792
0.0397108
0.0387771
0.0379756
0.0373035
0.0367587
0.0363397
0.0360458
0.0358772
0.0358351
0.0359229
0.0361476
0.036512
0.0370507
0.0377158
0.0537782
0.0565693
0.0593728
0.0621055
0.0646818
0.0670119
0.0690084
0.0705938
0.0717098
0.0723202
0.0724141
0.0720193
0.0711863
0.0699826
0.0684844
0.0667691
0.0649093
0.0629694
0.0610043
0.0590578
0.0571373
0.0552986
0.0535892
0.0519973
0.0505316
0.0491978
0.0479992
0.0469374
0.0460128
0.0452254
0.0445749
0.0440613
0.0436847
0.0434461
0.0433471
0.0433908
0.0435805
0.0439295
0.0444413
0.0450987
0.0459121
0.0625775
0.0650218
0.0674531
0.0698006
0.0719971
0.0739746
0.0756681
0.0770211
0.0779905
0.0785511
0.0786983
0.0784456
0.0778262
0.0768908
0.0756962
0.0743014
0.0727637
0.0711359
0.0694643
0.0677878
0.0661268
0.0645198
0.0630002
0.0615723
0.0602479
0.0590359
0.057943
0.0569742
0.0561334
0.0554235
0.0548472
0.054407
0.0541049
0.0539437
0.053926
0.0540589
0.0543441
0.05478
0.0553681
0.0561074
0.0570029
0.0750987
0.0767629
0.0783927
0.0799411
0.0813708
0.0826453
0.0837311
0.0845999
0.0852308
0.0856118
0.0857412
0.0856272
0.0852869
0.0847452
0.0840311
0.0831775
0.0822177
0.0811827
0.0801012
0.078999
0.0778954
0.0768124
0.0757699
0.0747783
0.073849
0.0729915
0.0722138
0.0715229
0.0709244
0.0704236
0.070025
0.0697332
0.069552
0.0694841
0.069532
0.0696975
0.0699816
0.0703839
0.0709027
0.071534
0.0722818
0.0520443
0.0270744
0.0266034
0.0270977
0.0275036
0.0277966
0.0280187
0.0282162
0.0284246
0.0286747
0.028996
0.0294171
0.0299656
0.0306716
0.0315568
0.0326266
0.03382
0.0513911
0.0268679
0.026495
0.0270271
0.0274567
0.0277685
0.0280035
0.0282033
0.0284
0.0286208
0.0288913
0.0292357
0.0296784
0.0302481
0.0309723
0.0318945
0.0330953
0.0506735
0.0266723
0.0263757
0.0269407
0.0273913
0.0277192
0.0279673
0.0281747
0.0283705
0.0285803
0.0288299
0.0291453
0.0295533
0.0300817
0.0307725
0.0316943
0.0329601
0.0501653
0.0264465
0.026227
0.0268287
0.0273015
0.0276444
0.0279019
0.0281115
0.028299
0.0284854
0.0286901
0.0289308
0.0292218
0.0295733
0.0299831
0.0304296
0.0308445
0.0499017
0.0261962
0.0260479
0.0266916
0.027189
0.0275461
0.0278101
0.0280175
0.0281933
0.0283559
0.0285219
0.0287067
0.028923
0.0291817
0.0294884
0.0298477
0.0302653
0.0499223
0.0259322
0.0258425
0.0265332
0.0270579
0.0274301
0.0277023
0.0279132
0.0280886
0.0282481
0.0284084
0.0285857
0.0287939
0.0290431
0.029341
0.0297128
0.0301863
0.0502632
0.0256744
0.0256198
0.0263598
0.0269095
0.0272888
0.0275574
0.0277582
0.0279175
0.0280521
0.0281732
0.028289
0.0284042
0.0285193
0.0286297
0.028717
0.0287649
0.0509643
0.0254476
0.0253928
0.0261844
0.0267607
0.0271439
0.0274017
0.0275828
0.027717
0.0278219
0.0279084
0.0279845
0.0280548
0.028123
0.0281961
0.0282729
0.0283497
0.0520526
0.0252777
0.0251728
0.0260149
0.0266223
0.0270139
0.0272668
0.027438
0.0275626
0.0276617
0.0277469
0.0278266
0.0279058
0.0279855
0.0280708
0.0281862
0.0283208
0.0535165
0.0251904
0.0249662
0.0258472
0.0264826
0.0268763
0.0271108
0.0272478
0.0273254
0.0273664
0.0273814
0.0273739
0.0273447
0.0272919
0.0272103
0.0271027
0.026979
0.055319
0.0252168
0.02478
0.0256829
0.0263481
0.0267531
0.0269799
0.0270919
0.0271309
0.0271245
0.0270897
0.0270368
0.0269712
0.0268964
0.0268132
0.0267182
0.0266029
0.0573798
0.025394
0.0246176
0.0255126
0.0262028
0.0266263
0.0268602
0.0269661
0.0269846
0.0269438
0.0268656
0.0267707
0.0266773
0.0265965
0.0265355
0.0264958
0.0264728
0.0595874
0.0257434
0.0244793
0.0253198
0.0260158
0.0264489
0.0266855
0.0267838
0.0267803
0.0266952
0.0265456
0.0263495
0.0261259
0.0258915
0.0256574
0.0254288
0.0252027
0.061818
0.026304
0.0243663
0.025094
0.0257715
0.0262048
0.0264432
0.0265422
0.026537
0.0264449
0.0262795
0.0260573
0.0257998
0.0255299
0.0252638
0.0250055
0.0247447
0.0639223
0.0271465
0.0242927
0.0248233
0.0254513
0.025868
0.0260981
0.026193
0.0261886
0.0260993
0.025932
0.0256962
0.0254118
0.0251118
0.0248353
0.0246168
0.0244823
0.0657483
0.0283221
0.0242626
0.0244999
0.0250406
0.0254194
0.0256258
0.0257027
0.0256884
0.0255989
0.0254389
0.0252031
0.0248885
0.0245115
0.0240969
0.0236779
0.0232945
0.0671464
0.029879
0.0242858
0.0241278
0.0245387
0.0248569
0.0250247
0.0250725
0.0250362
0.0249369
0.0247891
0.0245926
0.0243372
0.0240116
0.0236156
0.0231689
0.0227058
0.0679508
0.0317711
0.0243755
0.0237316
0.0239605
0.02419
0.0243034
0.0243126
0.0242432
0.02412
0.0239621
0.0237776
0.0235635
0.0233083
0.0229999
0.0226478
0.0223289
0.0679968
0.0336531
0.024587
0.0233416
0.0233301
0.0234346
0.023474
0.0234336
0.023326
0.0231734
0.0229951
0.0228027
0.0225987
0.0223735
0.0220999
0.0217309
0.0212365
0.0671339
0.0345161
0.0249593
0.0230055
0.0226712
0.0226035
0.022544
0.0224429
0.0222949
0.0221143
0.0219182
0.021718
0.02152
0.0213238
0.0211173
0.0208628
0.0204417
0.0653632
0.0342704
0.0252951
0.022748
0.0219985
0.0217041
0.02152
0.0213489
0.0211617
0.0209605
0.0207566
0.0205585
0.020371
0.0201957
0.020032
0.0198895
0.0197516
0.062807
0.0349888
0.0258692
0.0226265
0.0213532
0.0207665
0.0204268
0.0201744
0.01995
0.0197376
0.0195381
0.0193546
0.0191887
0.0190409
0.0189095
0.018805
0.0186862
0.0602504
0.0377733
0.0269372
0.0227203
0.0208348
0.019888
0.0193477
0.0189904
0.0187199
0.0184968
0.0183069
0.0181442
0.0180058
0.0178899
0.0177939
0.0177246
0.0176504
0.0581615
0.0389984
0.0281663
0.0230968
0.0205665
0.0192004
0.0184041
0.0179015
0.0175585
0.0173092
0.0171199
0.0169737
0.0168608
0.0167756
0.0167136
0.0166755
0.016654
0.0567199
0.0398121
0.0292217
0.023654
0.0205743
0.0187797
0.0176878
0.0169976
0.0165458
0.0162418
0.0160328
0.0158885
0.0157906
0.0157284
0.0156938
0.0156874
0.0156967
0.0562487
0.0414467
0.0305408
0.0244021
0.0208004
0.0185943
0.0172026
0.0163068
0.0157226
0.0153392
0.0150882
0.0149266
0.0148277
0.0147747
0.0147562
0.0147709
0.0148025
0.0570269
0.0434713
0.0319118
0.0251819
0.0211104
0.0185443
0.0168859
0.0157996
0.0150839
0.0146133
0.0143075
0.0141138
0.0139988
0.0139405
0.013925
0.0139439
0.0139929
0.0590982
0.0449185
0.0327988
0.025693
0.0213182
0.018507
0.0166581
0.0154287
0.0146077
0.0140607
0.0136999
0.0134675
0.0133253
0.0132485
0.0132217
0.0132343
0.0132823
0.0621234
0.045181
0.0329983
0.0258463
0.0213625
0.0184358
0.0164866
0.0151748
0.0142873
0.0136858
0.0132794
0.013008
0.0128318
0.0127253
0.012672
0.0126608
0.012682
0.065447
0.0446718
0.0328749
0.0258172
0.0213215
0.0183658
0.0163887
0.0150504
0.0141355
0.0135041
0.0130646
0.0127572
0.0125422
0.0123922
0.0122897
0.0122264
0.0122013
0.0684562
0.044799
0.0328594
0.0257679
0.0212828
0.0183585
0.0164124
0.0150935
0.0141825
0.0135398
0.0130762
0.012738
0.012486
0.0122962
0.0121537
0.01205
0.0119825
0.0708799
0.0450618
0.0327764
0.0256633
0.0212688
0.018454
0.016598
0.0153383
0.0144554
0.0138155
0.0133437
0.0129786
0.0126865
0.0124467
0.0122474
0.0120829
0.0119523
0.0727563
0.0451725
0.0325573
0.0255402
0.0213444
0.0187148
0.0169957
0.0158208
0.0149777
0.0143567
0.0138681
0.0134656
0.0131207
0.0128168
0.0125456
0.0123044
0.0120949
0.0742019
0.0449431
0.0322154
0.0254768
0.0215942
0.0192107
0.0176554
0.0165727
0.0157773
0.0151552
0.014637
0.0141824
0.0137693
0.0133862
0.0130285
0.0126965
0.0123939
0.0752957
0.0444244
0.0318703
0.0256052
0.0221301
0.0200245
0.0186323
0.0176266
0.016857
0.0162129
0.015642
0.0151146
0.0146146
0.0141353
0.0136753
0.0132376
0.0128277
0.0760702
0.0437918
0.031765
0.026145
0.0231182
0.0212698
0.019999
0.0190296
0.0182368
0.017534
0.0168798
0.016253
0.0156433
0.0150476
0.0144674
0.0139075
0.0133756
0.0765224
0.0433616
0.032289
0.0274076
0.0247727
0.023085
0.0218418
0.0208276
0.0199463
0.0191328
0.0183544
0.017595
0.0168478
0.0161119
0.0153908
0.0146907
0.0140211
0.0766387
0.0437409
0.0340071
0.0297718
0.0273259
0.0256102
0.024246
0.0230705
0.0220171
0.0210293
0.0200774
0.0191454
0.018227
0.017322
0.0164349
0.0155733
0.0147478
0.0764186
0.0459398
0.0376285
0.0336336
0.0309954
0.0289707
0.0272899
0.0258138
0.0244873
0.023251
0.0220676
0.0209156
0.0197856
0.0186763
0.0175927
0.0165432
0.0155395
0.0758879
0.0514724
0.0439372
0.0393654
0.0359796
0.0332918
0.0310627
0.0291335
0.0274087
0.0258352
0.0243514
0.0229222
0.0215313
0.0201752
0.0188583
0.0175899
0.016383
0.040212
0.0453467
0.0512507
0.0580902
0.0664723
0.0776888
0.0938802
0.118425
0.156058
0.217643
0.345404
0.267117
0.179834
0.133592
0.123081
0.126838
0.122976
0.103072
0.0758127
0.0529198
0.043352
0.0496998
0.0570846
0.0657845
0.076518
0.0907523
0.110896
0.140535
0.183007
0.246371
0.384621
0.292951
0.194884
0.147029
0.140588
0.14908
0.146164
0.121884
0.0875124
0.0586726
0.0473441
0.0552099
0.0644707
0.0755936
0.0894511
0.107701
0.133039
0.169069
0.217415
0.281949
0.431424
0.320343
0.210344
0.162231
0.160815
0.174811
0.172319
0.143313
0.101128
0.0655268
0.0524313
0.0621565
0.0737094
0.0878607
0.105721
0.129211
0.16144
0.205496
0.260874
0.326444
0.481041
0.348469
0.226518
0.179325
0.183734
0.203476
0.201188
0.167218
0.116818
0.0737913
0.0589335
0.0708792
0.0851025
0.102844
0.125609
0.155797
0.197001
0.251069
0.314625
0.380989
0.532577
0.378514
0.244201
0.198543
0.210677
0.23577
0.23382
0.193704
0.134814
0.0839003
0.0673036
0.0818401
0.0990123
0.120785
0.149349
0.188021
0.240964
0.308469
0.378839
0.443372
0.582245
0.413275
0.264711
0.222132
0.243895
0.273205
0.271086
0.223105
0.155426
0.0966016
0.0782267
0.0957463
0.116021
0.14214
0.177441
0.226746
0.294746
0.378663
0.452285
0.51406
0.628194
0.451987
0.29136
0.253262
0.279807
0.317839
0.314631
0.256426
0.179618
0.11266
0.0927815
0.113746
0.137218
0.168013
0.211254
0.274085
0.361724
0.462472
0.535495
0.600895
0.681081
0.488673
0.323625
0.290558
0.322532
0.37034
0.367487
0.296487
0.208002
0.132019
0.112674
0.13768
0.16461
0.200777
0.253832
0.333932
0.445201
0.561503
0.63489
0.683959
0.728551
0.528781
0.352057
0.320813
0.370799
0.426935
0.430716
0.345084
0.242113
0.155504
0.14052
0.17037
0.20168
0.244973
0.310984
0.413324
0.550122
0.677028
0.738547
0.756177
0.766938
0.56597
0.384122
0.356975
0.418987
0.480552
0.498177
0.406487
0.284224
0.184307
0.180008
0.216104
0.254451
0.308822
0.392721
0.521657
0.682577
0.81615
0.82785
0.808287
0.792419
0.595287
0.410286
0.40204
0.464706
0.526346
0.559105
0.480571
0.33693
0.220254
0.236006
0.28221
0.333001
0.404989
0.512314
0.668089
0.843894
0.944202
0.887619
0.834812
0.800087
0.617426
0.442101
0.455782
0.510915
0.56594
0.606512
0.558724
0.405195