/*--------------------------------*- C++ -*----------------------------------*\
  =========                 |
  \\      /  F ield         | OpenFOAM: The Open Source CFD Toolbox
   \\    /   O peration     | Website:  https://openfoam.org
    \\  /    A nd           | Version:  6
     \\/     M anipulation  |
\*---------------------------------------------------------------------------*/
FoamFile
{
    version     2.0;
    format      ascii;
    class       volScalarField;
    location    "1.58";
    object      p;
}
// * * * * * * * * * * * * * * * * * * * * * * * * * * * * * * * * * * * * * //

dimensions      [0 2 -2 0 0 0 0];

internalField   nonuniform List<scalar> 
4214
(
-0.123384
-0.0981083
-0.0660542
-0.0394843
-0.0331583
-0.0330458
-0.0312931
-0.0240428
-0.0122167
-0.00467375
1.4502e-05
0.00388108
0.00729616
0.011459
0.0171747
0.0241148
0.0309838
0.0332384
0.032505
0.0248958
0.0144546
0.0115254
0.0304754
0.0457383
0.0557521
0.0600355
0.0512527
0.0370078
0.0216157
0.00645817
-0.00716485
-0.0196946
-0.0326497
-0.0481139
-0.0595335
-0.0655276
-0.0687543
-0.0776189
-0.0981602
-0.115509
-0.114413
-0.0784384
-0.0920798
-0.0877232
-0.0537986
-0.0383575
-0.0319764
-0.0266225
-0.0214356
-0.0148612
-0.00807405
-0.00306245
0.00256963
0.00882732
0.0161408
0.0250749
0.0362
0.0492937
0.059565
0.0737719
0.0857333
0.0916456
0.102958
0.116045
0.118655
0.116516
0.109409
0.0955186
0.0769581
0.0557542
0.0328643
0.010339
-0.0116746
-0.0345531
-0.0549604
-0.0714144
-0.0880593
-0.104734
-0.124545
-0.147437
-0.142793
-0.0946185
-0.144896
-0.137448
-0.12494
-0.0897841
-0.0650134
-0.0529297
-0.0416032
-0.0302039
-0.0216629
-0.0107835
-0.000760064
0.00960269
0.0209598
0.034251
0.0501209
0.0693375
0.0901335
0.105486
0.128135
0.146995
0.173322
0.198721
0.206482
0.212639
0.210389
0.196171
0.174072
0.143396
0.107207
0.0675968
0.0269259
-0.0120862
-0.0491106
-0.0848475
-0.119184
-0.14838
-0.17599
-0.204154
-0.231193
-0.233584
-0.206181
-0.193158
-0.165491
-0.140691
-0.107133
-0.0807721
-0.0646974
-0.0496912
-0.0356399
-0.0231165
-0.0092884
0.00442303
0.0186072
0.0346056
0.0533334
0.0753824
0.101433
0.127949
0.149035
0.185815
0.210307
0.251317
0.279727
0.299561
0.308664
0.304704
0.286807
0.255486
0.21466
0.165673
0.11112
0.0541553
-0.00150003
-0.0546356
-0.105232
-0.152244
-0.194839
-0.232188
-0.266639
-0.298164
-0.314013
-0.316528
-0.223762
-0.194162
-0.163389
-0.125692
-0.0958065
-0.0748096
-0.0563246
-0.0385814
-0.0221626
-0.0048123
0.0128054
0.0313223
0.0522851
0.076563
0.105021
0.137676
0.168972
0.197228
0.24492
0.278475
0.326535
0.367974
0.402831
0.41665
0.410728
0.389921
0.349659
0.296975
0.233635
0.162494
0.0873502
0.0123345
-0.0589216
-0.125849
-0.187124
-0.241949
-0.290218
-0.331571
-0.368472
-0.397753
-0.415703
-0.245482
-0.215863
-0.180757
-0.13915
-0.106374
-0.0807027
-0.0588924
-0.0377869
-0.0173873
0.00357173
0.0249361
0.0478701
0.0737301
0.103406
0.138027
0.176411
0.211798
0.249094
0.309225
0.352122
0.414133
0.47963
0.519178
0.537531
0.529514
0.503646
0.455219
0.389372
0.310437
0.22117
0.125845
0.0295529
-0.0625089
-0.147468
-0.224037
-0.291429
-0.34932
-0.398548
-0.439571
-0.479004
-0.50326
-0.264406
-0.233635
-0.194122
-0.149454
-0.11345
-0.0832427
-0.0578134
-0.0330581
-0.00877351
0.0158244
0.041041
0.0684167
0.0989222
0.133885
0.174551
0.217894
0.258306
0.307926
0.382671
0.435957
0.518331
0.601514
0.648049
0.672243
0.662118
0.629663
0.573142
0.49259
0.395674
0.28544
0.166593
0.0456471
-0.0703225
-0.175427
-0.268563
-0.34909
-0.416799
-0.473589
-0.51899
-0.562479
-0.583949
-0.279333
-0.247736
-0.203411
-0.155822
-0.116548
-0.0824011
-0.0523487
-0.0243407
0.00343809
0.0316628
0.0606821
0.0921563
0.12707
0.167303
0.214021
0.261914
0.30972
0.37582
0.466085
0.530387
0.633003
0.734773
0.789599
0.82164
0.8096
0.769871
0.703891
0.605802
0.486207
0.349745
0.202541
0.0530569
-0.0881116
-0.215045
-0.326021
-0.420407
-0.49865
-0.562868
-0.612266
-0.658312
-0.678843
-0.293428
-0.258278
-0.208968
-0.158764
-0.116318
-0.0781543
-0.0432955
-0.0122252
0.0186522
0.0504011
0.0831908
0.118656
0.15824
0.204229
0.256293
0.309024
0.367501
0.452986
0.557853
0.633467
0.759703
0.879619
0.943208
0.986218
0.972924
0.925449
0.845605
0.724839
0.573191
0.40133
0.221695
0.0469191
-0.120891
-0.273208
-0.405862
-0.517182
-0.607086
-0.678036
-0.731183
-0.778907
-0.798439
-0.307873
-0.266647
-0.212053
-0.158817
-0.112591
-0.0708231
-0.0320462
0.00326955
0.0376074
0.0731493
0.110144
0.150154
0.195157
0.247441
0.304927
0.364251
0.436679
0.541274
0.657661
0.744286
0.898623
1.03644
1.10986
1.16684
1.15189
1.09348
0.994003
0.839566
0.648553
0.438804
0.224735
0.0135816
-0.187573
-0.369706
-0.526965
-0.656615
-0.758328
-0.835017
-0.890922
-0.938444
-0.953754
-0.323864
-0.27486
-0.214629
-0.157538
-0.106901
-0.0607845
-0.0179183
0.0232378
0.0624267
0.102834
0.14505
0.190779
0.242495
0.301597
0.365779
0.436227
0.527745
0.649724
0.772674
0.869692
1.0541
1.20723
1.29441
1.36788
1.34891
1.27231
1.14197
0.943728
0.708248
0.455521
0.196425
-0.0609703
-0.304195
-0.522468
-0.708324
-0.858397
-0.97228
-1.05373
-1.11071
-1.15657
-1.16696
-0.343096
-0.283522
-0.217876
-0.15699
-0.101466
-0.0497468
-0.00129031
0.0455973
0.0917586
0.138251
0.186183
0.238133
0.296615
0.362287
0.434624
0.519435
0.63214
0.773823
0.905445
1.0192
1.23288
1.39299
1.49976
1.59164
1.56429
1.46117
1.28407
1.03406
0.741067
0.437185
0.115577
-0.199651
-0.496767
-0.758758
-0.977828
-1.14961
-1.27411
-1.35731
-1.41059
-1.45003
-1.45334
-0.362476
-0.290064
-0.219796
-0.154333
-0.0944798
-0.0376806
0.0152355
0.0672478
0.118177
0.168994
0.220344
0.274722
0.33599
0.405972
0.486043
0.585085
0.714795
0.86749
1.01485
1.15898
1.41397
1.58946
1.71928
1.82052
1.77477
1.63208
1.4119
1.10824
0.745882
0.364347
-0.037973
-0.420537
-0.783716
-1.09833
-1.35777
-1.55406
-1.68721
-1.76816
-1.81087
-1.83702
-1.82106
-0.375643
-0.291304
-0.215047
-0.141443
-0.0770861
-0.0144532
0.0415346
0.096863
0.149728
0.204323
0.260827
0.323424
0.395362
0.477772
0.573674
0.691725
0.833399
0.978809
1.1099
1.27186
1.58114
1.79194
1.94757
2.02413
1.94527
1.75377
1.48651
1.13624
0.704985
0.235986
-0.26401
-0.721584
-1.16882
-1.54433
-1.8511
-2.07562
-2.22264
-2.29998
-2.32502
-2.33045
-2.28067
-0.395757
-0.294067
-0.214349
-0.12861
-0.0606392
0.0140905
0.0764014
0.139074
0.197913
0.262753
0.334488
0.416174
0.5086
0.61152
0.729385
0.869691
1.02317
1.17097
1.30752
1.48272
1.82856
2.01688
2.20802
2.21778
2.09402
1.84108
1.50161
1.01774
0.525981
-0.00674139
-0.622135
-1.15533
-1.76282
-2.16134
-2.54542
-2.75292
-2.91772
-2.97857
-2.97337
-2.91797
-2.82458
-0.452257
-0.330585
-0.254326
-0.147095
-0.0782819
0.00854376
0.0766268
0.157622
0.233378
0.313329
0.395782
0.479413
0.571032
0.677789
0.788314
0.91557
1.06482
1.21263
1.45529
1.72756
2.18966
2.29018
2.52275
2.47226
2.30144
1.99863
1.59483
0.936557
0.317776
-0.380682
-1.2939
-1.86341
-2.90635
-3.08258
-3.74735
-3.74013
-3.87772
-3.83788
-3.75737
-3.61935
-3.44646
-0.525359
-0.402248
-0.329929
-0.201919
-0.119206
-0.0239258
0.0585055
0.144583
0.228413
0.302285
0.375727
0.447553
0.525683
0.639379
0.738831
0.84705
1.00687
1.12254
1.43547
1.80062
2.39452
2.56341
2.78635
2.70189
2.53474
2.1773
1.78178
0.942283
0.196487
-0.998126
-2.2938
-3.01514
-4.46222
-4.40482
-5.31899
-5.08775
-5.07589
-4.87478
-4.65676
-4.40277
-4.13431
-3.90082
-3.32565
-2.79604
-2.32372
-1.90207
-1.55103
-1.26961
-1.05864
-0.904251
-0.779128
-0.680909
-0.603387
-0.521265
-0.426639
-0.323867
-0.250626
-0.195663
-3.6562
-3.19828
-2.74653
-2.31914
-1.94074
-1.62092
-1.35448
-1.16033
-1.00952
-0.88759
-0.794269
-0.717819
-0.635992
-0.54157
-0.439378
-0.366764
-0.260702
-3.43606
-3.07166
-2.70092
-2.35639
-2.03969
-1.75021
-1.49399
-1.29768
-1.13966
-1.01347
-0.911787
-0.828951
-0.747711
-0.656512
-0.556642
-0.479813
-0.354994
-3.20328
-2.93284
-2.64697
-2.35947
-2.10058
-1.84566
-1.61229
-1.41314
-1.2581
-1.13154
-1.02681
-0.94369
-0.864739
-0.775649
-0.678125
-0.597538
-0.464179
-3.01024
-2.80098
-2.57474
-2.33422
-2.11395
-1.9013
-1.69844
-1.51277
-1.36604
-1.24483
-1.14381
-1.06077
-0.981583
-0.89569
-0.803162
-0.721993
-0.585298
-2.81705
-2.66217
-2.49578
-2.2949
-2.11
-1.94313
-1.77224
-1.60747
-1.46603
-1.35189
-1.25633
-1.17471
-1.09737
-1.0167
-0.930165
-0.851412
-0.715679
-2.65229
-2.5332
-2.40302
-2.24328
-2.09392
-1.96181
-1.82558
-1.68622
-1.55333
-1.44796
-1.35998
-1.28345
-1.20998
-1.13572
-1.05669
-0.983905
-0.853194
-2.4917
-2.40334
-2.31129
-2.18615
-2.06508
-1.95666
-1.85489
-1.74412
-1.63158
-1.53274
-1.45262
-1.38313
-1.31584
-1.25002
-1.18067
-1.11695
-0.995563
-2.35047
-2.28272
-2.21045
-2.11787
-2.0221
-1.93615
-1.85654
-1.77779
-1.69191
-1.6044
-1.53218
-1.47041
-1.41175
-1.35577
-1.29744
-1.2432
-1.14314
-2.21911
-2.16636
-2.11466
-2.04732
-1.97291
-1.9055
-1.84316
-1.78466
-1.72619
-1.66203
-1.59755
-1.54331
-1.49392
-1.44812
-1.40124
-1.35775
-1.28429
-2.09928
-2.05801
-2.01476
-1.96486
-1.9122
-1.8612
-1.81346
-1.76914
-1.7279
-1.68839
-1.64473
-1.59845
-1.55795
-1.52201
-1.48677
-1.45488
-1.40672
-1.98219
-1.94537
-1.9162
-1.88216
-1.84588
-1.80891
-1.77277
-1.74083
-1.71055
-1.68242
-1.65678
-1.63028
-1.60062
-1.57288
-1.54885
-1.52696
-1.50268
-1.87784
-1.84984
-1.82486
-1.79969
-1.77409
-1.74856
-1.72373
-1.69976
-1.67793
-1.65887
-1.64281
-1.62741
-1.61343
-1.59901
-1.58436
-1.57133
-1.56705
-1.77071
-1.74292
-1.72589
-1.70954
-1.69331
-1.67749
-1.66238
-1.64835
-1.63574
-1.62451
-1.61466
-1.60653
-1.60023
-1.59587
-1.59393
-1.58936
-1.59341
-1.6668
-1.6455
-1.62977
-1.61737
-1.60617
-1.59598
-1.58732
-1.58036
-1.5749
-1.5709
-1.56837
-1.56739
-1.56766
-1.57028
-1.57587
-1.57863
-1.59424
-1.56612
-1.5433
-1.53044
-1.52005
-1.51104
-1.50371
-1.49848
-1.49534
-1.49388
-1.49392
-1.49571
-1.49975
-1.50516
-1.51402
-1.52476
-1.53528
-1.56409
-1.45656
-1.43956
-1.42626
-1.41596
-1.40747
-1.40067
-1.3958
-1.39293
-1.39256
-1.39462
-1.39841
-1.4045
-1.41148
-1.42383
-1.43416
-1.45163
-1.48474
-1.3567
-1.3372
-1.32242
-1.30932
-1.2984
-1.28971
-1.28307
-1.27839
-1.27562
-1.27524
-1.27802
-1.28302
-1.28867
-1.30026
-1.30516
-1.33049
-1.34722
-1.237
-1.2191
-1.20286
-1.18884
-1.1762
-1.16477
-1.15531
-1.1477
-1.14183
-1.13773
-1.1354
-1.13486
-1.13738
-1.14445
-1.14363
-1.16818
-1.16402
-1.14085
-1.10991
-1.08462
-1.06164
-1.04075
-1.02196
-1.00513
-0.990212
-0.977177
-0.966297
-0.957871
-0.950785
-0.945484
-0.942048
-0.936438
-0.943413
-0.930497
-1.01915
-0.989813
-0.959183
-0.929705
-0.901134
-0.873887
-0.847969
-0.823094
-0.799247
-0.776965
-0.755595
-0.733963
-0.714642
-0.69546
-0.671189
-0.665113
-0.631511
-0.919643
-0.873504
-0.833537
-0.79506
-0.757297
-0.720424
-0.684302
-0.64867
-0.614082
-0.580628
-0.546475
-0.512802
-0.483053
-0.448725
-0.411297
-0.398584
-0.336012
-0.80197
-0.756125
-0.7084
-0.660292
-0.612707
-0.565329
-0.517848
-0.470717
-0.42462
-0.377888
-0.329494
-0.284102
-0.23981
-0.184929
-0.137075
-0.107369
-0.0123696
-0.703813
-0.640827
-0.583331
-0.524361
-0.464916
-0.404352
-0.342444
-0.28023
-0.217573
-0.152466
-0.0867744
-0.0243724
0.0420713
0.117325
0.177478
0.229422
0.343276
-0.598462
-0.527695
-0.456781
-0.382244
-0.306677
-0.22959
-0.15165
-0.0734602
0.00620946
0.0890499
0.171461
0.25041
0.335438
0.427697
0.500576
0.567349
0.698233
-0.5025
-0.412359
-0.327312
-0.237796
-0.147071
-0.0546843
0.0388336
0.133401
0.230528
0.330147
0.426918
0.520416
0.62178
0.725485
0.804675
0.885519
1.02861
-0.409388
-0.301267
-0.200306
-0.0944727
0.012159
0.120376
0.229975
0.341242
0.45455
0.567561
0.675584
0.781046
0.893677
1.00204
1.08563
1.18179
1.32977
-0.313085
-0.18921
-0.0727483
0.0494654
0.172312
0.296771
0.422311
0.54833
0.67465
0.795947
0.910803
1.02376
1.14316
1.25429
1.33987
1.44778
1.5929
-0.225319
-0.0789687
0.0542532
0.193332
0.332193
0.472094
0.611374
0.746285
0.882022
1.00947
1.1269
1.24499
1.36941
1.48467
1.57251
1.68473
1.82133
-0.125633
0.0318623
0.182706
0.336259
0.489734
0.642646
0.791609
0.935401
1.07073
1.20289
1.32538
1.44817
1.57669
1.69477
1.78448
1.88997
2.01782
-0.037161
0.144259
0.308728
0.477957
0.643539
0.807621
0.963472
1.11003
1.25051
1.38521
1.5109
1.63718
1.76931
1.8834
1.97039
2.06884
2.17861
0.0636502
0.254371
0.435477
0.617256
0.79202
0.963095
1.1259
1.27557
1.42
1.55881
1.68781
1.81292
1.94373
2.05436
2.12958
2.21559
2.31182
0.157187
0.369114
0.560741
0.751943
0.935183
1.11471
1.28211
1.43732
1.58405
1.7232
1.85355
1.97609
2.09757
2.20056
2.26652
2.33577
2.42168
0.257993
0.482034
0.687538
0.883468
1.0796
1.26707
1.4364
1.59266
1.7404
1.87834
2.00539
2.12318
2.23387
2.32291
2.37976
2.43838
2.51189
0.35837
0.595947
0.810173
1.02056
1.22407
1.4135
1.58393
1.74098
1.88778
2.02261
2.14342
2.25221
2.3511
2.42713
2.47573
2.52348
2.58132
0.46597
0.70524
0.940406
1.1608
1.36515
1.55661
1.72687
1.88301
2.02632
2.15467
2.26763
2.36663
2.4521
2.51438
2.55346
2.59054
2.63596
0.588996
0.820607
1.06899
1.29837
1.49965
1.69554
1.86521
2.01841
2.15616
2.27599
2.37897
2.4667
2.53708
2.58549
2.61629
2.64544
2.68189
0.69999
0.951143
1.20591
1.44347
1.64235
1.8418
2.00184
2.14944
2.27774
2.38628
2.47677
2.55132
2.60678
2.64348
2.66823
2.69051
2.71954
0.846085
1.08406
1.34341
1.58221
1.77629
1.95172
2.1244
2.2622
2.38256
2.48166
2.56142
2.62382
2.66629
2.6938
2.7131
2.72953
2.75
0.96837
1.23563
1.49548
1.73534
1.93975
2.09617
2.25943
2.38951
2.49753
2.58163
2.64456
2.68868
2.71634
2.7343
2.74751
2.75934
2.77479
2.53027
2.60403
2.68343
2.74296
2.81772
2.87946
2.95209
3.01538
3.08984
3.16089
3.24223
3.3228
3.41297
3.50424
3.60361
3.70568
3.81211
3.92189
4.02343
4.1362
4.23028
4.34014
4.39799
4.47263
4.46185
4.44766
4.37723
4.27357
4.1241
3.89794
3.68381
3.36049
3.11202
2.73105
2.50359
2.1444
1.9587
1.6576
1.50898
1.27833
1.15529
2.53067
2.61132
2.68049
2.74479
2.8082
2.87133
2.93442
3.00016
3.06717
3.1379
3.21164
3.28989
3.3722
3.45904
3.55017
3.64527
3.74419
3.84492
3.94169
4.04131
4.13097
4.22164
4.28107
4.33457
4.33447
4.31081
4.25051
4.15085
4.01269
3.82274
3.60998
3.35525
3.09849
2.8224
2.55328
2.30154
2.07298
1.86444
1.67773
1.52177
1.37944
2.54649
2.62034
2.68545
2.74493
2.80387
2.86294
2.9228
2.98433
3.04766
3.11416
3.18395
3.25783
3.33563
3.41761
3.50342
3.59274
3.68517
3.77899
3.86996
3.95931
4.04196
4.11888
4.17391
4.21436
4.21519
4.18925
4.13198
4.03892
3.91214
3.74613
3.55263
3.33475
3.1049
2.87247
2.64089
2.4246
2.22473
2.04343
1.88229
1.748
1.62867
2.55888
2.6268
2.6879
2.744
2.79985
2.85616
2.91306
2.9714
3.03204
3.09563
3.16251
3.23298
3.30705
3.38466
3.4655
3.54913
3.63495
3.722
3.80676
3.88765
3.96218
4.02845
4.07713
4.10837
4.10773
4.08071
4.02604
3.9394
3.82425
3.67602
3.50357
3.31243
3.1108
2.90796
2.70893
2.52267
2.35055
2.19481
2.05843
1.94685
1.84809
2.56918
2.63299
2.69051
2.74413
2.79725
2.85026
2.90433
2.96019
3.01849
3.0797
3.14412
3.21182
3.28276
3.35669
3.43325
3.51191
3.59197
3.67252
3.75151
3.82506
3.89156
3.94879
3.99057
4.01428
4.01099
3.9834
3.93037
3.84999
3.74492
3.61251
3.4597
3.29202
3.11627
2.94059
2.7693
2.60905
2.46172
2.32936
2.21595
2.12325
2.03836
2.57886
2.63893
2.69244
2.74295
2.79371
2.8447
2.89631
2.95017
3.00667
3.06609
3.12862
3.1942
3.26261
3.33349
3.40635
3.48059
3.55545
3.62986
3.70324
3.77027
3.82922
3.87848
3.91341
3.93061
3.9247
3.89632
3.84451
3.77016
3.67421
3.55569
3.42027
3.2731
3.12009
2.96791
2.82045
2.68321
2.55741
2.44586
2.35185
2.27299
2.19177
2.58732
2.64301
2.69252
2.74044
2.78895
2.83812
2.88863
2.94088
2.99589
3.05401
3.11513
3.17907
3.24549
3.31387
3.3836
3.45401
3.5243
3.59339
3.66089
3.72232
3.77442
3.81644
3.84482
3.85655
3.84798
3.81844
3.76757
3.69914
3.61146
3.5053
3.38498
3.2557
3.12258
2.99124
2.8649
2.74782
2.64121
2.54726
2.46741
2.40049
2.33535
2.59404
2.64507
2.69095
2.73651
2.7829
2.83049
2.88006
2.93188
2.98596
3.04297
3.10312
3.1659
3.23081
3.29724
3.36445
3.43164
3.49793
3.5623
3.6241
3.68042
3.72639
3.76172
3.78414
3.79146
3.77979
3.74891
3.69923
3.63651
3.55627
3.46103
3.35359
3.23974
3.12383
3.01065
2.90305
2.80294
2.71216
2.63181
2.56328
2.50808
2.45656
2.59971
2.64577
2.68811
2.73124
2.77558
2.82181
2.87064
2.9222
2.97644
3.03307
3.0925
3.1546
3.21844
3.28331
3.34843
3.4129
3.47576
3.5359
3.59256
3.6437
3.68439
3.71362
3.73103
3.7344
3.71908
3.68699
3.63968
3.58128
3.50795
3.42199
3.32599
3.22534
3.12409
3.02639
2.93418
2.8484
2.77053
2.70102
2.64185
2.59691
2.55693
2.60491
2.64599
2.68465
2.72499
2.76722
2.81212
2.86032
2.9118
2.96636
3.02359
3.0828
3.14449
3.20781
3.27154
3.3349
3.39702
3.45696
3.51352
3.56568
3.61164
3.6478
3.67179
3.68498
3.6839
3.66533
3.63228
3.58818
3.53331
3.46596
3.38816
3.30252
3.21287
3.1236
3.03806
2.95788
2.88331
2.81546
2.75474
2.70321
2.66459
2.6319
2.60998
2.64626
2.68106
2.71819
2.75819
2.80173
2.84928
2.90074
2.95576
3.01374
3.07388
3.13515
3.19813
3.26143
3.32367
3.38393
3.44131
3.49481
3.54303
3.58413
3.61619
3.63604
3.64519
3.63924
3.61812
3.58524
3.54408
3.49195
3.42958
3.35883
3.28217
3.20251
3.12297
3.04626
2.97382
2.90669
2.84598
2.79241
2.74735
2.71308
2.68498
2.61494
2.6463
2.6773
2.71107
2.74893
2.79111
2.83799
2.88943
2.94492
3.00372
3.06483
3.12717
3.18957
3.25242
3.31416
3.37346
3.42887
3.47967
3.52436
3.56121
3.58917
3.60596
3.61079
3.60047
3.57798
3.54672
3.50672
3.45696
3.39869
3.33369
3.2642
3.19265
3.12128
3.05182
2.98549
2.92356
2.86806
2.8195
2.7789
2.74687
2.7202
2.61937
2.64535
2.67279
2.70374
2.73964
2.78049
2.82667
2.878
2.93387
2.99341
3.05555
3.11906
3.18262
3.24479
3.30553
3.36396
3.41834
3.46733
3.50911
3.54242
3.56663
3.58088
3.58115
3.56831
3.54601
3.51568
3.47641
3.42874
3.37391
3.31356
3.24956
3.18384
3.11818
3.05399
2.99244
2.93504
2.88314
2.83796
2.80014
2.76937
2.74266
2.62293
2.64349
2.66803
2.69627
2.73012
2.76964
2.8151
2.86624
2.92244
2.98275
3.04604
3.11084
3.1757
3.23898
3.29937
3.35584
3.40905
3.4568
3.49668
3.52732
3.54847
3.56013
3.55675
3.54316
3.52138
3.49101
3.45247
3.40662
3.35468
3.29808
3.23832
3.1769
3.11531
3.05503
2.99726
2.94336
2.89417
2.85079
2.81429
2.78368
2.75685
2.6268
2.64267
2.66359
2.6886
2.72025
2.75848
2.80332
2.85442
2.91114
2.9723
3.03663
3.10278
3.1688
3.23321
3.29461
3.35177
3.40299
3.44859
3.48717
3.51599
3.53485
3.54366
3.53872
3.52497
3.50246
3.47179
3.43361
3.38887
3.33874
3.28458
3.2277
3.16943
3.11092
3.05345
2.99879
2.94757
2.901
2.85966
2.82365
2.79255
2.76638
2.63543
2.64375
2.65935
2.68127
2.711
2.74817
2.79258
2.84383
2.9011
2.96334
3.02928
3.0968
3.16401
3.22933
3.29128
3.34858
3.40004
3.44496
3.48155
3.50904
3.52634
3.53298
3.52784
3.51326
3.48994
3.4586
3.42016
3.37559
3.32601
3.27263
3.21683
3.15995
3.10307
3.04733
2.99464
2.94586
2.90162
2.8623
2.82802
2.79838
2.77511
2.64816
2.64485
2.65564
2.67586
2.70445
2.74092
2.78497
2.83615
2.89404
2.95778
3.02509
3.09376
3.16187
3.22785
3.29024
3.34775
3.39922
3.44375
3.4799
3.50661
3.52312
3.52886
3.52362
3.50869
3.48496
3.45322
3.41437
3.36949
3.31972
3.26628
3.21044
3.15341
3.09677
3.04218
2.99077
2.94368
2.90091
2.86284
2.83011
2.80422
2.7884
-0.202538
-0.22225
-0.244389
-0.284427
-0.312356
-0.342553
-0.366661
-0.385458
-0.400091
-0.411189
-0.421864
-0.44259
-0.469331
-0.480768
-0.493022
-0.54779
-0.649435
-0.240269
-0.295752
-0.31586
-0.354759
-0.381541
-0.407345
-0.428112
-0.446826
-0.464815
-0.480501
-0.496324
-0.525658
-0.563142
-0.579101
-0.617032
-0.795779
-1.04036
-0.312993
-0.38445
-0.403826
-0.438937
-0.464913
-0.490339
-0.512596
-0.534598
-0.557459
-0.579513
-0.604392
-0.643954
-0.69098
-0.72367
-0.785525
-0.956891
-1.13341
-0.405584
-0.476597
-0.498277
-0.530989
-0.556219
-0.581093
-0.604314
-0.629021
-0.655856
-0.68237
-0.712966
-0.757932
-0.807696
-0.849594
-0.899898
-0.949197
-1.07876
-0.513386
-0.581734
-0.603372
-0.633804
-0.658237
-0.682897
-0.706985
-0.73354
-0.762731
-0.791364
-0.826369
-0.882372
-0.939712
-0.975912
-1.06718
-1.2784
-1.48868
-0.635023
-0.696549
-0.718593
-0.748147
-0.773365
-0.799891
-0.827299
-0.858931
-0.895701
-0.934474
-0.980396
-1.04823
-1.12053
-1.16622
-1.27782
-1.52
-1.74877
-0.766558
-0.82103
-0.842397
-0.870778
-0.896121
-0.923534
-0.952762
-0.987011
-1.02654
-1.06771
-1.11436
-1.17837
-1.25366
-1.31885
-1.38432
-1.49954
-1.70395
-0.909424
-0.956883
-0.976594
-1.00355
-1.02842
-1.05562
-1.08508
-1.12003
-1.15939
-1.19901
-1.24897
-1.32114
-1.38921
-1.44213
-1.5591
-1.74457
-1.92456
-1.06037
-1.10173
-1.12081
-1.14766
-1.17428
-1.20459
-1.23872
-1.2793
-1.3256
-1.37404
-1.43381
-1.51701
-1.59753
-1.64808
-1.77181
-2.00276
-2.19496
-1.21468
-1.24873
-1.2664
-1.29065
-1.31609
-1.34571
-1.37963
-1.41856
-1.46265
-1.5133
-1.57251
-1.64058
-1.71741
-1.79586
-1.87614
-1.99771
-2.16637
-1.37067
-1.39502
-1.41129
-1.43281
-1.45644
-1.48378
-1.5148
-1.54966
-1.58832
-1.6327
-1.68338
-1.73744
-1.79359
-1.85873
-1.93538
-2.02334
-2.13206
-1.51704
-1.53282
-1.54888
-1.56949
-1.59321
-1.62104
-1.65328
-1.69075
-1.73361
-1.78306
-1.83897
-1.90066
-1.96637
-2.03808
-2.13391
-2.27286
-2.38854
-1.64328
-1.65303
-1.66686
-1.68358
-1.70372
-1.7285
-1.75701
-1.78998
-1.82765
-1.86955
-1.91639
-1.96936
-2.02662
-2.08147
-2.13661
-2.21717
-2.31267
-1.74424
-1.74867
-1.75798
-1.7729
-1.79003
-1.81093
-1.83497
-1.86241
-1.89253
-1.92469
-1.95874
-1.99435
-2.02926
-2.05991
-2.08536
-2.11185
-2.16238
-1.80541
-1.80914
-1.81563
-1.82918
-1.84422
-1.86306
-1.88423
-1.90801
-1.93412
-1.96284
-1.99496
-2.0306
-2.0667
-2.10333
-2.15321
-2.22693
-2.2979
-1.81717
-1.82053
-1.82188
-1.8303
-1.83861
-1.85066
-1.86486
-1.88155
-1.90045
-1.92146
-1.94492
-1.97112
-1.99908
-2.02752
-2.0598
-2.10823
-2.15713
-1.77469
-1.7789
-1.7776
-1.78419
-1.78957
-1.79791
-1.80813
-1.8201
-1.83353
-1.84806
-1.86326
-1.87839
-1.8934
-1.90603
-1.91357
-1.91807
-1.9313
-1.68142
-1.68708
-1.68264
-1.68957
-1.69517
-1.70281
-1.71188
-1.72257
-1.73502
-1.74914
-1.76494
-1.78251
-1.80165
-1.82182
-1.84399
-1.87109
-1.90467
-1.54023
-1.5474
-1.54185
-1.54744
-1.55305
-1.55988
-1.5685
-1.57867
-1.59058
-1.60424
-1.61972
-1.63713
-1.65624
-1.67671
-1.70154
-1.73839
-1.77416
-1.33606
-1.34391
-1.3411
-1.34871
-1.35641
-1.36558
-1.37673
-1.38947
-1.40391
-1.4202
-1.43826
-1.45796
-1.47925
-1.50235
-1.52662
-1.55055
-1.56904
-1.07936
-1.09248
-1.09513
-1.10749
-1.11981
-1.13268
-1.1478
-1.16464
-1.18315
-1.20363
-1.22622
-1.25106
-1.27848
-1.30903
-1.34162
-1.37547
-1.42059
-0.825944
-0.845452
-0.845349
-0.858406
-0.873578
-0.887351
-0.904271
-0.923613
-0.944453
-0.967315
-0.992366
-1.0193
-1.04839
-1.0792
-1.11332
-1.14902
-1.19994
-0.557656
-0.583218
-0.583316
-0.592209
-0.610097
-0.62543
-0.643044
-0.664736
-0.688334
-0.714225
-0.743397
-0.77571
-0.811418
-0.8499
-0.891227
-0.930829
-0.976467
-0.250084
-0.28023
-0.287162
-0.296599
-0.317697
-0.336933
-0.356058
-0.379795
-0.406085
-0.434112
-0.465487
-0.500669
-0.540299
-0.585025
-0.638564
-0.700497
-0.771753
0.0673033
0.0325096
0.021479
0.0118442
-0.0105223
-0.0328509
-0.0538894
-0.0794364
-0.108453
-0.139108
-0.172654
-0.209747
-0.250227
-0.292966
-0.341366
-0.388827
-0.46147
0.385245
0.34962
0.333992
0.323435
0.300377
0.275317
0.251948
0.225086
0.194614
0.162056
0.126181
0.0850347
0.0384951
-0.0124058
-0.0698804
-0.124289
-0.19614
0.68829
0.65822
0.639522
0.626168
0.602829
0.576841
0.552037
0.523873
0.491083
0.455222
0.416836
0.376419
0.332273
0.280847
0.221596
0.146359
0.0613552
0.977505
0.94544
0.92587
0.910676
0.884263
0.8551
0.827292
0.79725
0.76411
0.728274
0.688479
0.645999
0.600749
0.552245
0.503949
0.445829
0.373368
1.25869
1.22092
1.19397
1.1746
1.14648
1.11704
1.08775
1.05489
1.01838
0.980219
0.939444
0.894459
0.84387
0.788812
0.733517
0.680181
0.626299
1.52316
1.48158
1.44946
1.42859
1.39801
1.36459
1.33378
1.30014
1.26239
1.22273
1.18039
1.13382
1.08201
1.02339
0.955437
0.870088
0.767425
1.7605
1.71439
1.67802
1.6565
1.62501
1.58942
1.55762
1.52403
1.48597
1.44583
1.40344
1.35678
1.30574
1.25036
1.19086
1.11465
1.01842
1.96074
1.91084
1.87972
1.85746
1.82419
1.78999
1.75928
1.72589
1.68864
1.64939
1.60685
1.55926
1.50755
1.45179
1.39556
1.33868
1.31268
2.12595
2.07472
2.04678
2.02629
1.99376
1.9614
1.93309
1.90218
1.86763
1.83083
1.7904
1.74537
1.69575
1.63898
1.57203
1.48097
1.3653
2.26248
2.21258
2.18492
2.16511
2.13532
2.10569
2.07971
2.05196
2.02105
1.98761
1.95119
1.91129
1.86733
1.81762
1.76167
1.68997
1.58686
2.373
2.32721
2.30173
2.28146
2.25352
2.22683
2.20332
2.17849
2.15091
2.12115
2.08941
2.05491
2.01676
1.97441
1.92891
1.88799
1.85459
2.46161
2.41984
2.39685
2.37767
2.35202
2.32805
2.30711
2.28523
2.26094
2.23493
2.20766
2.17811
2.14492
2.10729
2.06165
2.00635
1.90634
2.52977
2.49434
2.47286
2.45465
2.43209
2.41111
2.39285
2.37427
2.35373
2.33174
2.30887
2.28413
2.25591
2.2233
2.1842
2.13812
2.07349
2.57861
2.55061
2.53324
2.51698
2.49737
2.47899
2.46313
2.44782
2.43129
2.4136
2.39537
2.37577
2.35344
2.32743
2.2978
2.26466
2.25258
2.61404
2.59426
2.58095
2.56855
2.55315
2.53751
2.52347
2.51051
2.49714
2.48304
2.46878
2.45378
2.43683
2.41698
2.39317
2.36258
2.3095
2.64104
2.62499
2.61455
2.60685
2.59752
2.58697
2.57654
2.56686
2.55716
2.54675
2.53593
2.52446
2.51161
2.49659
2.47724
2.45088
2.40695
-0.484811
-0.243936
-0.0242706
0.172328
0.347492
0.552726
0.847566
1.12929
1.58341
2.39331
2.78141
2.58077
1.71045
-0.153697
-2.6928
-4.96365
-5.96703
-5.9143
-5.50328
-4.90826
-0.543991
-0.27454
-0.0222254
0.19327
0.377942
0.623226
0.917701
1.27652
1.7728
2.49938
2.86069
2.53888
1.37883
-0.952586
-3.99024
-6.47231
-7.25848
-6.91677
-6.21354
-5.45214
-0.613672
-0.316458
-0.0324766
0.192902
0.403508
0.696544
1.02124
1.45576
1.95114
2.60369
2.8639
2.33536
0.811031
-2.07078
-5.60771
-8.3298
-8.81957
-8.02967
-6.96557
-6.01148
-0.706669
-0.385112
-0.0659891
0.186551
0.451944
0.782954
1.15544
1.605
2.0791
2.58612
2.72424
1.90896
-0.0252523
-3.43496
-7.62527
-10.4699
-10.5005
-9.21864
-7.76142
-6.59037
-0.82949
-0.485548
-0.127732
0.166094
0.495807
0.868582
1.29421
1.70237
2.10933
2.49701
2.4082
1.16807
-1.25158
-5.22228
-10.1428
-12.8034
-12.3123
-10.5819
-8.57901
-7.17197
-1.00111
-0.634667
-0.236186
0.0995962
0.468691
0.892664
1.34215
1.67509
2.00507
2.28473
1.80282
0.0640989
-2.92093
-7.6146
-12.9042
-15.2952
-14.313
-12.0336
-9.43059
-7.74671
-1.25154
-0.866061
-0.424035
-0.0398159
0.385726
0.848923
1.2464
1.50468
1.75372
1.82534
0.83082
-1.44427
-5.04409
-10.5082
-15.7889
-17.6971
-16.2943
-13.1523
-10.3878
-8.31732
-1.61239
-1.22943
-0.721355
-0.264368
0.212443
0.658313
0.943886
1.06939
1.18432
0.966716
-0.598237
-3.46923
-7.67789
-13.5313
-18.7127
-19.7877
-17.9539
-14.1301
-11.2869
-8.86622
-2.12075
-1.75064
-1.1538
-0.66594
-0.232351
0.0845841
0.210302
0.172244
0.154908
-0.440915
-2.5484
-6.0472
-10.8329
-16.6005
-21.2121
-21.3755
-19.128
-15.4359
-11.8883
-9.4554
-2.89463
-2.5108
-1.95061
-1.63132
-1.33358
-1.1255
-1.14482
-1.29022
-1.50088
-2.53182
-5.10709
-9.05683
-14.1556
-19.5345
-22.9567
-22.3364
-19.7744
-16.3546
-12.4388
-10.1365
-4.19493
-3.96019
-3.67652
-3.45721
-3.20648
-3.11115
-3.23008
-3.38275
-3.86214
-5.30613
-8.2483
-12.3832
-17.315
-21.9272
-23.9041
-22.6611
-19.9172
-16.6048
-13.2447
-10.5272
-6.32984
-6.4048
-6.21227
-6.0031
-5.90657
-5.87144
-5.90473
-6.07768
-6.81777
-8.58282
-11.7166
-15.7254
-20.0129
-23.3656
-24.1391
-22.4639
-19.4789
-16.4553
-13.6975
-10.85
-8.77819
-8.97962
-9.11915
-9.05901
-8.97653
-8.89093
-8.8313
-9.07194
-9.9331
-11.9281
-15.0078
-18.581
-21.6825
-23.6
-23.7228
-21.5981
-18.69
-15.8161
-13.6032
-11.4248
-11.0687
-11.3802
-11.6427
-11.6145
-11.5359
-11.4329
-11.3941
-11.7253
-12.6753
-14.8081
-17.4692
-20.1135
-22.0703
-23.2111
-22.6899
-20.3755
-17.639
-14.8571
-13.1807
-11.6925
-12.6375
-12.8975
-13.1459
-13.1413
-13.0664
-12.982
-12.9853
-13.4348
-14.4208
-16.1375
-18.2069
-20.1482
-21.5838
-22.168
-21.0625
-18.8485
-16.3756
-13.7489
-12.2719
-11.5409
-13.0886
-13.1925
-13.3738
-13.4055
-13.3764
-13.3312
-13.4183
-13.8075
-14.6422
-16.033
-17.8024
-19.3802
-20.3431
-20.4819
-19.0091
-17.1001
-14.9763
-12.6487
-11.0568
-10.8369
-12.127
-12.339
-12.5891
-12.7097
-12.7505
-12.787
-12.9435
-13.3384
-14.0976
-15.21
-16.5705
-17.6634
-18.2517
-18.1434
-16.7722
-15.2797
-13.5628
-11.6154
-9.89146
-9.61451
-10.6766
-11.2028
-11.5773
-11.7628
-11.8322
-11.8573
-11.966
-12.2764
-12.8214
-13.5638
-14.429
-15.1766
-15.6085
-15.5723
-14.6528
-13.6068
-12.3013
-10.7802
-9.24476
-8.54837
-10.2907
-10.7523
-10.9377
-10.9769
-10.8823
-10.6654
-10.5511
-10.6622
-10.9807
-11.48
-12.0972
-12.7013
-13.1432
-13.2614
-12.839
-12.2124
-11.2862
-10.2553
-9.15621
-8.45258
-9.93294
-9.82522
-9.64288
-9.40356
-9.22504
-9.00302
-8.92931
-9.05436
-9.34015
-9.81523
-10.3856
-10.9372
-11.3894
-11.6353
-11.5651
-11.2069
-10.6923
-10.1855
-9.86706
-9.77914
-10.2477
-8.30708
-8.24027
-9.14427
-9.59532
-9.80849
-9.90863
-9.60925
-9.41721
-9.05107
-8.60746
-8.08648
-7.59675
-7.11156
-6.60846
-6.10864
-5.62341
-5.15411
-4.70619
-4.27913
-10.8606
-9.29485
-8.94171
-9.2881
-9.43017
-9.50163
-9.52061
-9.0454
-8.61225
-8.16889
-7.66019
-7.14099
-6.64994
-6.17257
-5.70608
-5.26594
-4.8489
-4.45182
-4.07769
-3.72521
-11.7307
-10.368
-9.47422
-9.3952
-9.4317
-9.25922
-8.88805
-8.34472
-7.83138
-7.33415
-6.80888
-6.29994
-5.82398
-5.37406
-4.95042
-4.55703
-4.18967
-3.84485
-3.5269
-3.23242
-12.6331
-11.2962
-10.1673
-9.81775
-9.51042
-8.96327
-8.37077
-7.7769
-7.18562
-6.62728
-6.09039
-5.58548
-5.12405
-4.70027
-4.31179
-3.95843
-3.63557
-3.33887
-3.06807
-2.81697
-13.5993
-11.9299
-11.0046
-10.026
-9.29005
-8.60143
-7.86896
-7.1925
-6.56586
-5.98043
-5.44429
-4.95666
-4.51749
-4.1229
-3.7693
-3.45317
-3.16936
-2.91271
-2.68228
-2.47062
-14.6414
-12.0651
-11.6647
-10.043
-9.03056
-8.23337
-7.39183
-6.65396
-6.01196
-5.41529
-4.88341
-4.41387
-3.99914
-3.63205
-3.30954
-3.02585
-2.77541
-2.55245
-2.35684
-2.17769
-15.5244
-11.8676
-11.9497
-9.91943
-8.75824
-7.84265
-6.92368
-6.15667
-5.50934
-4.91469
-4.39058
-3.94224
-3.55304
-3.21284
-2.91823
-2.6625
-2.4399
-2.24443
-2.07712
-1.92301
-16.1977
-11.7725
-12.0308
-9.74417
-8.48869
-7.45699
-6.48926
-5.69967
-5.04459
-4.46302
-3.95901
-3.53431
-3.16976
-2.85455
-2.58356
-2.35038
-2.14932
-1.97484
-1.82752
-1.69057
-16.8512
-11.8652
-12.0038
-9.56672
-8.22773
-7.07456
-6.07834
-5.26558
-4.61802
-4.06036
-3.5824
-3.18136
-2.83975
-2.54607
-2.29429
-2.07827
-1.8926
-1.73212
-1.59458
-1.46895
-17.6204
-12.0432