/*--------------------------------*- C++ -*----------------------------------*\
  =========                 |
  \\      /  F ield         | OpenFOAM: The Open Source CFD Toolbox
   \\    /   O peration     | Website:  https://openfoam.org
    \\  /    A nd           | Version:  6
     \\/     M anipulation  |
\*---------------------------------------------------------------------------*/
FoamFile
{
    version     2.0;
    format      ascii;
    class       surfaceVectorField;
    location    "1.58";
    object      Uf;
}
// * * * * * * * * * * * * * * * * * * * * * * * * * * * * * * * * * * * * * //

dimensions      [0 1 -1 0 0 0 0];

internalField   nonuniform List<vector> 
8193
(
(4.97564 -0.0127894 -3.53332e-21)
(5.01057 -0.0179799 1.75837e-19)
(4.90504 -0.040931 -2.54824e-21)
(4.99619 0.0121728 6.28976e-21)
(5.0211 0.0117483 -1.48882e-20)
(4.99585 0.0364959 2.09872e-19)
(5.01138 0.0369395 6.08549e-20)
(4.99727 0.0592623 -1.30182e-20)
(5.00575 0.0578582 -1.07243e-20)
(5.0063 0.0815069 3.56055e-21)
(5.013 0.0796355 3.79518e-20)
(5.01975 0.103734 1.17149e-19)
(5.02639 0.102046 -8.22389e-21)
(5.0304 0.123981 -5.86085e-21)
(5.03713 0.123025 -6.81533e-21)
(5.03414 0.140827 6.44243e-22)
(5.03977 0.140829 1.25923e-20)
(5.03188 0.153694 6.07704e-20)
(5.03618 0.154489 -6.15215e-22)
(5.0247 0.161669 -1.68853e-20)
(5.02783 0.163649 -1.58695e-22)
(5.01487 0.164735 8.05633e-22)
(5.01696 0.168179 8.07565e-22)
(5.00412 0.162384 1.16497e-20)
(5.00511 0.167754 5.73994e-22)
(4.99344 0.153364 -5.56805e-22)
(4.99284 0.161375 6.90617e-22)
(4.98358 0.135684 -2.66028e-21)
(4.98019 0.146984 -1.18432e-21)
(4.97594 0.107534 -4.81183e-20)
(4.96773 0.122148 9.8429e-21)
(4.97359 0.069246 1.66012e-21)
(4.95816 0.0856785 2.62773e-21)
(4.98093 0.0255392 0)
(4.95729 0.0400227 -7.25925e-21)
(5.00089 -0.0133975 0)
(4.97226 -0.00711379 -4.19408e-21)
(5.03035 -0.0370662 -1.60382e-21)
(5.00527 -0.0411651 2.06913e-21)
(5.06507 -0.0404129 -2.07463e-21)
(5.04716 -0.0559555 3.84448e-22)
(5.0895 -0.0289185 1.23523e-22)
(5.09275 -0.0485601 6.95919e-22)
(5.08351 -0.018578 0)
(5.10387 -0.0358412 -2.60754e-21)
(5.04907 -0.0188993 0)
(5.07524 -0.0304967 -4.71143e-21)
(5.00963 -0.0355054 0)
(5.01785 -0.0393904 9.61567e-21)
(4.98844 -0.0624484 3.74522e-21)
(4.97282 -0.0618688 -3.51112e-22)
(4.98741 -0.0907954 -3.47401e-20)
(4.95787 -0.0899819 -4.36553e-21)
(4.99594 -0.113864 -3.93465e-23)
(4.96612 -0.115662 -3.5458e-21)
(5.00517 -0.129361 -1.50357e-20)
(4.98264 -0.134953 1.56948e-20)
(5.01211 -0.137617 -8.89212e-21)
(4.99844 -0.146895 -4.50269e-21)
(5.01728 -0.139822 1.97261e-21)
(5.01101 -0.152246 -6.81784e-21)
(5.02185 -0.136873 -4.71651e-23)
(5.02163 -0.152106 -2.97513e-21)
(5.0256 -0.12898 -1.12284e-22)
(5.03216 -0.146914 -6.94816e-23)
(5.02673 -0.116767 1.13458e-20)
(5.04148 -0.137092 5.32844e-21)
(5.02199 -0.101057 -8.13919e-20)
(5.04735 -0.122915 1.17218e-20)
(5.00951 -0.0821053 -1.90912e-19)
(5.04565 -0.10461 5.57225e-21)
(4.99307 -0.0611477 3.17033e-21)
(5.0332 -0.0829908 -2.87714e-20)
(4.97974 -0.0397384 -3.15669e-19)
(5.01459 -0.0600028 1.62362e-20)
(4.97309 -0.018175 2.406e-19)
(5.00067 -0.0386743 -7.08263e-21)
(4.96708 0.00488473 -5.95665e-21)
(4.99789 -0.0191708 -2.22656e-20)
(4.9408 0.0259584 9.08219e-19)
(4.99543 0.00787577 -2.85504e-20)
(4.97644 0.0367525 3.01623e-20)
(4.86715 0.0513607 1.13449e-19)
(5.04188 0.0212127 3.84533e-19)
(5.04165 0.0132913 -4.27675e-20)
(5.04045 -0.0136955 1.41077e-20)
(5.02689 0.0424105 -1.0198e-20)
(5.02964 0.0380276 -1.38911e-20)
(5.01637 0.0620997 3.57705e-21)
(5.01937 0.0590942 2.50685e-20)
(5.01974 0.0826675 8.87181e-21)
(5.02007 0.078327 -5.29985e-20)
(5.03114 0.103699 1.13909e-20)
(5.03026 0.0993964 2.59431e-20)
(5.0412 0.124191 3.71897e-20)
(5.04118 0.12053 2.89224e-21)
(5.04397 0.14199 -8.32304e-22)
(5.04588 0.139189 -3.78599e-21)
(5.04041 0.155984 -1.24958e-21)
(5.04326 0.154245 4.38831e-21)
(5.03211 0.165617 -2.43131e-20)
(5.03565 0.16517 -5.23406e-21)
(5.02045 0.170766 -5.35357e-21)
(5.02443 0.171847 6.1355e-21)
(5.00762 0.171246 5.77562e-22)
(5.01192 0.174286 -2.69222e-22)
(4.99425 0.166281 1.25878e-21)
(4.99854 0.171899 -2.05658e-21)
(4.98008 0.153991 1.85784e-20)
(4.98398 0.163185 1.43174e-21)
(4.96529 0.131922 2.42905e-21)
(4.96796 0.145688 1.46864e-21)
(4.95182 0.0983498 3.84976e-20)
(4.95141 0.117015 1.4842e-20)
(4.94476 0.05421 3.16167e-20)
(4.93821 0.0766278 -4.51609e-21)
(4.95212 0.00531134 -4.44616e-20)
(4.93625 0.027899 -1.34754e-20)
(4.97941 -0.0370673 -1.81837e-20)
(4.95485 -0.0209004 6.53381e-21)
(5.02294 -0.0615995 3.02025e-21)
(4.99627 -0.0551555 2.05547e-21)
(5.07339 -0.0651637 -5.13037e-22)
(5.04849 -0.0704849 -2.02886e-20)
(5.10518 -0.0556805 -1.96609e-21)
(5.10118 -0.0670925 5.6645e-22)
(5.09529 -0.0487281 -1.29661e-20)
(5.11205 -0.0614 -5.04441e-20)
(5.04691 -0.050261 4.66235e-21)
(5.08199 -0.066037 1.07963e-20)
(4.98734 -0.0637617 4.41913e-22)
(5.01752 -0.074869 -2.19923e-20)
(4.95047 -0.0865312 -1.49186e-20)
(4.96104 -0.0918227 4.04732e-21)
(4.94446 -0.112415 -8.10072e-21)
(4.93601 -0.114249 2.13072e-20)
(4.95863 -0.135147 1.19015e-20)
(4.9408 -0.136775 -1.31506e-20)
(4.97923 -0.151591 6.13976e-21)
(4.96035 -0.155599 3.2228e-21)
(4.99826 -0.160989 -1.40142e-20)
(4.98296 -0.168432 1.34617e-20)
(5.01413 -0.164202 -4.90452e-21)
(5.00266 -0.174807 -1.10191e-20)
(5.02832 -0.16196 5.17377e-21)
(5.0196 -0.175458 5.6637e-21)
(5.04215 -0.154818 3.30278e-22)
(5.03561 -0.170975 1.25977e-22)
(5.05461 -0.143395 6.37375e-22)
(5.05027 -0.161859 2.49485e-21)
(5.06248 -0.127655 3.46256e-22)
(5.06319 -0.148478 2.23608e-21)
(5.06074 -0.108018 -4.07182e-22)
(5.07069 -0.131086 -2.90437e-20)
(5.04716 -0.0859378 -5.15602e-22)
(5.06696 -0.110023 2.84007e-20)
(5.02855 -0.0636647 1.39511e-21)
(5.05084 -0.0864981 0)
(5.01645 -0.0427844 -5.70504e-21)
(5.03115 -0.0635517 1.40934e-21)
(5.01531 -0.0225511 -7.01255e-21)
(5.02075 -0.0433247 -2.69702e-20)
(5.01875 -9.05203e-05 0)
(5.01747 -0.0156848 -4.86733e-20)
(5.01633 0.0182821 4.96494e-20)
(5.00999 0.0329331 6.29722e-22)
(5.04169 0.0390625 -5.51557e-20)
(5.05119 0.034642 6.02004e-20)
(5.06193 0.0140564 -2.42159e-19)
(5.02617 0.0576585 2.14798e-20)
(5.03522 0.0552116 3.2806e-20)
(5.0246 0.0772084 4.94104e-20)
(5.03223 0.0756285 2.03361e-20)
(5.03391 0.098169 -1.82086e-19)
(5.03838 0.0954043 1.87722e-20)
(5.04413 0.118771 1.23453e-20)
(5.04721 0.115792 1.25698e-20)
(5.0491 0.137311 -8.66994e-21)
(5.05286 0.135018 0)
(5.04715 0.152702 -5.04375e-20)
(5.05156 0.15136 -8.3383e-21)
(5.03958 0.164457 1.19686e-22)
(5.04415 0.164202 6.98859e-21)
(5.02822 0.172084 -1.60869e-20)
(5.03311 0.173175 3.52099e-21)
(5.01531 0.175657 5.68708e-21)
(5.01996 0.178224 4.46736e-21)
(5.00139 0.174683 6.55627e-21)
(5.00582 0.179199 -4.20812e-23)
(4.98617 0.167977 -2.29231e-20)
(4.99039 0.17524 -2.1194e-21)
(4.96926 0.153482 -2.87969e-20)
(4.97287 0.164515 8.10476e-22)
(4.95108 0.128833 1.38968e-20)
(4.9529 0.144542 -3.60368e-21)
(4.93449 0.0929015 5.39968e-20)
(4.93208 0.113482 2.13789e-20)
(4.92613 0.0475778 3.9527e-20)
(4.91578 0.071826 1.46867e-20)
(4.93559 -0.000752357 1.73055e-20)
(4.91378 0.023752 -4.12526e-20)
(4.96873 -0.0417813 2.43186e-20)
(4.9367 -0.0227318 9.5573e-21)
(5.01982 -0.066346 -2.07747e-20)
(4.98596 -0.0549146 0)
(5.07546 -0.0743038 -2.14326e-20)
(5.04647 -0.0742044 6.76521e-20)
(5.10796 -0.0739415 -4.67288e-20)
(5.10301 -0.0751409 -1.64023e-21)
(5.09884 -0.0796232 -3.13998e-20)
(5.1115 -0.0823798 3.98886e-20)
(5.05259 -0.0907056 -4.67049e-21)
(5.08321 -0.103177 -9.62907e-21)
(4.9897 -0.102453 -2.71437e-20)
(5.02196 -0.115671 -3.0289e-20)
(4.94383 -0.118962 3.4195e-20)
(4.95916 -0.129601 -4.21436e-20)
(4.92945 -0.138228 1.48527e-20)
(4.92426 -0.14593 5.52259e-20)
(4.9402 -0.156829 -3.33177e-20)
(4.92183 -0.163213 9.69715e-21)
(4.96259 -0.172081 -3.75072e-22)
(4.93968 -0.179513 -2.01279e-20)
(4.98665 -0.181772 1.0325e-20)
(4.96632 -0.192139 1.57617e-20)
(5.00791 -0.185603 6.52115e-21)
(4.99256 -0.199349 -5.72441e-21)
(5.0266 -0.184154 5.53714e-21)
(5.01583 -0.200988 5.26531e-21)
(5.04414 -0.177579 -9.80722e-23)
(5.0378 -0.19734 -1.91123e-20)
(5.06089 -0.166531 -5.3471e-22)
(5.05762 -0.188912 -2.91648e-22)
(5.07468 -0.151621 -2.94105e-20)
(5.0761 -0.176153 1.39518e-21)
(5.08102 -0.133416 -3.73733e-21)
(5.09089 -0.159729 -3.03532e-20)
(5.07536 -0.112264 2.90401e-20)
(5.09662 -0.139983 2.91319e-20)
(5.05851 -0.0888791 0)
(5.08882 -0.117184 0)
(5.04004 -0.0652196 5.26112e-21)
(5.06975 -0.0926607 0)
(5.03108 -0.0431464 -4.4905e-20)
(5.05125 -0.0685603 5.31641e-21)
(5.03402 -0.0199866 9.79244e-19)
(5.04138 -0.0400807 -5.08401e-20)
(5.04122 -0.000457674 -5.12148e-20)
(5.04358 0.00761696 4.51523e-20)
(5.04826 0.0576518 9.60596e-20)
(5.05734 0.0551947 1.84025e-20)
(5.06594 0.0394475 2.15605e-19)
(5.04061 0.0765706 3.08722e-20)
(5.04661 0.0752744 7.22754e-21)
(5.04404 0.0964716 2.50352e-20)
(5.04943 0.095461 -3.67775e-20)
(5.05197 0.116313 2.33094e-20)
(5.05643 0.114438 -2.34381e-20)
(5.05743 0.135005 0)
(5.06148 0.133139 -1.095e-20)
(5.05633 0.1513 0)
(5.06091 0.150138 1.22032e-20)
(5.04889 0.164475 -2.31984e-21)
(5.05393 0.164175 9.16708e-21)
(5.03742 0.174063 -1.7632e-20)
(5.04255 0.174835 -2.25493e-21)
(5.02377 0.179851 6.46657e-21)
(5.02894 0.181936 4.57655e-21)
(5.00903 0.181796 -2.41204e-23)
(5.01405 0.185373 -1.78795e-21)
(4.99296 0.179155 -2.31924e-23)
(4.99802 0.18481 -5.49226e-21)
(4.97483 0.170472 -1.45766e-21)
(4.97998 0.179122 4.65296e-21)
(4.95408 0.153613 -7.90724e-21)
(4.95884 0.166294 -8.15013e-21)
(4.93158 0.126675 -4.04403e-20)
(4.93452 0.144174 -9.45434e-23)
(4.91135 0.089447 7.80685e-20)
(4.90967 0.111917 8.62933e-21)
(4.90179 0.0447938 -1.38554e-20)
(4.89123 0.0712555 2.42463e-20)
(4.91382 -0.000842487 -8.4063e-20)
(4.89037 0.026807 -3.24933e-20)
(4.95289 -0.0391471 -8.72057e-21)
(4.91759 -0.0143829 -1.70985e-20)
(5.0118 -0.0648077 8.29767e-20)
(4.97228 -0.0432326 4.69693e-20)
(5.07255 -0.0776659 8.74758e-20)
(5.03915 -0.0685043 1.00377e-19)
(5.10572 -0.0854937 8.79516e-20)
(5.09654 -0.0723971 -1.61461e-21)
(5.0965 -0.107327 7.84816e-20)
(5.09685 -0.09536 8.19471e-20)
(5.05416 -0.129616 -1.04963e-20)
(5.07449 -0.131983 6.05997e-20)
(4.99316 -0.143232 -2.80949e-20)
(5.02597 -0.152027 2.66033e-20)
(4.9409 -0.155804 -8.50433e-21)
(4.9642 -0.166097 -3.36865e-20)
(4.91751 -0.170043 4.86486e-20)
(4.92155 -0.178952 -1.00775e-21)
(4.92182 -0.185076 2.2443e-20)
(4.91003 -0.192611 -5.03161e-20)
(4.94362 -0.198923 0)
(4.92218 -0.206936 2.22879e-20)
(4.97215 -0.209074 0)
(4.94898 -0.219637 -1.90277e-20)
(4.99999 -0.214135 0)
(4.97993 -0.228408 0)
(5.0251 -0.213887 -1.98122e-22)
(5.00942 -0.231958 6.82674e-21)
(5.04828 -0.20844 -2.00111e-22)
(5.03753 -0.229942 -4.59366e-21)
(5.07037 -0.198173 1.62361e-21)
(5.06278 -0.222837 2.75271e-20)
(5.0905 -0.183805 4.55983e-22)
(5.0863 -0.210934 -6.6496e-20)
(5.10518 -0.16605 -1.17977e-21)
(5.10717 -0.194988 3.94265e-20)
(5.1092 -0.145383 0)
(5.12146 -0.17581 0)
(5.09949 -0.122204 0)
(5.12377 -0.153763 0)
(5.08056 -0.0971956 0)
(5.11159 -0.129111 0)
(5.06437 -0.0720191 0)
(5.09092 -0.101853 0)
(5.06112 -0.0446237 -1.0687e-19)
(5.07465 -0.0740091 0)
(5.0687 -0.0253202 -8.98251e-20)
(5.0686 -0.0164877 -6.56459e-19)
(5.05747 0.0774408 -4.28725e-20)
(5.06617 0.0755052 -8.59982e-20)
(5.07028 0.0601652 -2.08948e-19)
(5.05576 0.0966286 3.56127e-20)
(5.06272 0.096053 -3.39614e-22)
(5.06113 0.115806 -4.84888e-20)
(5.06837 0.115507 -3.56271e-20)
(5.06644 0.134169 -2.40001e-20)
(5.07304 0.133278 -4.64437e-20)
(5.06615 0.150879 -5.14637e-20)
(5.07218 0.150146 -1.0809e-20)
(5.05916 0.164961 2.12113e-20)
(5.0652 0.164955 1.21791e-20)
(5.0474 0.175956 8.81763e-21)
(5.05343 0.176851 -1.75774e-20)
(5.03317 0.183619 1.49128e-21)
(5.03899 0.185584 3.05237e-21)
(5.01767 0.187779 -1.69553e-21)
(5.02332 0.191018 2.07701e-21)
(5.00107 0.188169 8.47303e-21)
(5.00661 0.192971 -1.86105e-21)
(4.98253 0.183865 -3.63775e-20)
(4.98822 0.190908 -1.49233e-20)
(4.96097 0.173248 -2.20427e-21)
(4.96687 0.183505 6.48869e-21)
(4.93605 0.154443 -3.88922e-20)
(4.94155 0.168849 1.9839e-21)
(4.9095 0.126432 6.59188e-21)
(4.91288 0.145567 -1.7344e-20)
(4.8867 0.0902537 -7.71001e-21)
(4.88479 0.114202 0)
(4.87737 0.0496455 5.72351e-20)
(4.86556 0.0776572 -2.57224e-20)
(4.89227 0.0103766 3.76667e-21)
(4.8667 0.0404227 -1.1625e-20)
(4.93487 -0.0226869 1.05298e-20)
(4.89674 0.00779903 2.58928e-21)
(4.99816 -0.0489776 6.55877e-20)
(4.95262 -0.0164199 4.85528e-20)
(5.06267 -0.0665053 1.85768e-20)
(5.0225 -0.0446255 -1.36451e-20)
(5.08898 -0.0840485 1.07539e-20)
(5.07738 -0.0548027 0)
(5.07649 -0.122952 9.18615e-20)
(5.06318 -0.0932357 9.13899e-20)
(5.04773 -0.157846 1.16576e-19)
(5.04933 -0.144529 3.2507e-20)
(4.99829 -0.177154 3.43974e-20)
(5.02142 -0.175992 3.34851e-20)
(4.94537 -0.189017 -2.7296e-20)
(4.96992 -0.19425 1.58805e-19)
(4.91409 -0.20073 -9.99638e-20)
(4.92387 -0.207314 -7.21023e-20)
(4.91027 -0.213804 -4.89748e-20)
(4.90357 -0.220331 -6.41236e-20)
(4.92737 -0.227036 3.58574e-21)
(4.90806 -0.23459 8.07179e-20)
(4.95656 -0.238285 -1.89216e-20)
(4.93146 -0.248491 1.09364e-21)
(4.98907 -0.24554 6.69669e-21)
(4.96438 -0.259859 -1.76611e-20)
(5.02028 -0.247557 2.46334e-21)
(4.99941 -0.266528 3.7011e-21)
(5.04931 -0.244099 1.54234e-20)
(5.03394 -0.267273 2.84246e-20)
(5.07652 -0.235218 -2.49943e-20)
(5.0655 -0.262271 3.10848e-20)
(5.10172 -0.221641 -3.62684e-20)
(5.09454 -0.251706 -4.49654e-20)
(5.12292 -0.204259 3.95794e-20)
(5.12092 -0.236333 3.19284e-20)
(5.136 -0.183846 0)
(5.14224 -0.217251 7.32865e-20)
(5.13628 -0.16079 0)
(5.15423 -0.195194 1.20577e-20)
(5.12318 -0.135144 0)
(5.15251 -0.170638 -8.91643e-20)
(5.10397 -0.107789 0)
(5.13702 -0.141684 -1.0127e-19)
(5.09318 -0.0771272 -5.24808e-21)
(5.11847 -0.114761 1.00868e-19)
(5.10284 -0.0599916 1.20427e-19)
(5.09858 -0.0451545 -4.68014e-21)
(5.07237 0.0984289 -4.07096e-20)
(5.0806 0.0965652 3.58884e-20)
(5.07784 0.0815319 1.97408e-20)
(5.07442 0.117319 0)
(5.08239 0.117758 0)
(5.07842 0.135448 -3.4322e-20)
(5.08705 0.136113 0)
(5.07802 0.152105 -3.16694e-20)
(5.0862 0.152347 1.26259e-19)
(5.07122 0.166755 0)
(5.0787 0.167212 -2.20354e-21)
(5.05913 0.178742 -9.53031e-21)
(5.06613 0.179934 -2.54439e-20)
(5.044 0.187789 -5.53356e-21)
(5.05061 0.189912 -1.62347e-20)
(5.02754 0.193747 3.62147e-21)
(5.03378 0.196935 -5.78924e-21)
(5.01014 0.196379 6.01896e-22)
(5.01616 0.200849 -1.98925e-21)
(4.99119 0.195252 -9.71142e-21)
(4.99726 0.201391 6.31601e-21)
(4.96945 0.189316 -4.98985e-20)
(4.97587 0.197867 -1.87523e-20)
(4.94386 0.177019 1.09418e-20)
(4.95058 0.188923 -2.5918e-21)
(4.91461 0.157107 -1.56694e-20)
(4.92085 0.173114 1.13336e-20)
(4.88461 0.129853 -2.45053e-20)
(4.88843 0.150285 -2.32088e-20)
(4.8605 0.0976154 -1.80305e-20)
(4.85849 0.12249 1.90095e-20)
(4.85242 0.0645313 -9.42745e-20)
(4.83998 0.0933615 1.56417e-22)
(4.86942 0.0346955 -1.31138e-20)
(4.84329 0.0665013 5.56166e-20)
(4.91267 0.00911303 4.12923e-20)
(4.87368 0.0446525 1.117e-20)
(4.97573 -0.0144739 -3.16476e-20)
(4.92684 0.0259147 -4.48741e-20)
(5.03682 -0.0369644 -3.24041e-20)
(4.99351 -0.00348974 -3.5893e-19)
(5.05246 -0.0672466 7.43014e-20)
(5.04056 -0.0227695 0)
(5.03693 -0.119849 2.82428e-20)
(5.00949 -0.0743805 -3.66647e-19)
(5.02446 -0.168484 -4.95627e-20)
(5.00191 -0.137648 -1.7348e-19)
(4.99456 -0.197398 1.54413e-19)
(4.99964 -0.183357 1.22346e-19)
(4.94917 -0.213302 1.42602e-19)
(4.96732 -0.209951 4.09649e-20)
(4.91355 -0.226064 -3.73719e-20)
(4.92503 -0.22773 -9.85524e-20)
(4.90146 -0.240425 6.63703e-20)
(4.89818 -0.244183 1.57118e-20)
(4.91213 -0.255368 7.81346e-20)
(4.8951 -0.26157 -1.49412e-20)
(4.93916 -0.269281 2.53589e-21)
(4.91324 -0.27901 5.36074e-20)
(4.97439 -0.28006 -2.44949e-20)
(4.94557 -0.294645 1.34655e-24)
(5.01149 -0.285644 -8.38259e-21)
(4.9848 -0.30581 -2.17443e-20)
(5.04733 -0.285155 2.70075e-21)
(5.02596 -0.310464 9.62189e-21)
(5.08091 -0.278394 8.12096e-21)
(5.06483 -0.308324 -3.58753e-20)
(5.11184 -0.265913 1.10121e-21)
(5.10068 -0.299472 1.61724e-20)
(5.13895 -0.248775 6.97879e-20)
(5.13316 -0.284688 -2.95176e-21)
(5.15967 -0.228083 9.79594e-20)
(5.16083 -0.265313 1.51223e-19)
(5.16999 -0.204637 -6.19121e-20)
(5.18096 -0.242434 2.30364e-20)
(5.16684 -0.178508 -1.91098e-19)
(5.18986 -0.217224 -1.82899e-19)
(5.15201 -0.149848 -1.23386e-21)
(5.18425 -0.187376 -1.01844e-19)
(5.13566 -0.117996 1.57283e-19)
(5.17016 -0.160245 1.02232e-19)
(5.14555 -0.103514 -4.2682e-20)
(5.13525 -0.0834971 1.92623e-21)
(5.09165 0.120147 -1.02358e-20)
(5.10017 0.118629 -1.05221e-20)
(5.09207 0.10293 -1.13775e-19)
(5.09355 0.138655 0)
(5.10317 0.140305 4.21518e-20)
(5.09242 0.155354 7.08644e-20)
(5.10266 0.157001 -4.07396e-20)
(5.08519 0.170123 6.29247e-20)
(5.09486 0.171539 -2.27614e-20)
(5.07257 0.182787 4.03051e-21)
(5.08134 0.184466 6.83195e-20)
(5.05652 0.192914 -3.19109e-20)
(5.06438 0.195303 1.74454e-20)
(5.03882 0.200262 -2.02407e-20)
(5.04595 0.203599 -7.19771e-21)
(5.02034 0.204686 6.09157e-22)
(5.02701 0.209133 1.19248e-21)
(5.00073 0.205898 -1.29107e-21)
(5.00722 0.211679 4.21385e-21)
(4.97886 0.203337 2.83177e-20)
(4.98555 0.210918 9.88184e-21)
(4.95334 0.195971 2.14129e-21)
(4.96052 0.206116 -4.44691e-21)
(4.92348 0.182652 -3.30148e-21)
(4.93092 0.19615 -2.73217e-20)
(4.89043 0.163136 1.60233e-20)
(4.89712 0.180425 1.40449e-20)
(4.85827 0.139067 4.42032e-20)
(4.86217 0.160251 2.99271e-20)
(4.83445 0.113921 -1.72095e-20)
(4.83221 0.138948 9.04718e-21)
(4.8282 0.0913382 1.10742e-19)
(4.81566 0.120069 4.1756e-20)
(4.84558 0.0728592 9.32313e-20)
(4.8203 0.105661 5.57178e-20)
(4.88574 0.0555567 -5.23255e-20)
(4.84759 0.0952641 0)
(4.94321 0.0339722 -3.78029e-19)
(4.89301 0.0813076 -2.159e-19)
(4.99632 0.00538684 -3.33003e-19)
(4.9506 0.0488546 -2.3818e-19)
(4.99813 -0.0355181 -4.4614e-19)
(4.98583 0.0212101 8.80035e-22)
(4.97549 -0.0993321 -5.80614e-19)
(4.93589 -0.0414498 -3.22277e-19)
(4.97864 -0.161461 8.17265e-20)
(4.92994 -0.114437 1.28254e-20)
(4.9741 -0.202533 8.73838e-21)
(4.95451 -0.175285 1.19247e-19)
(4.94423 -0.226577 -1.69901e-19)
(4.94858 -0.213562 1.0651e-20)
(4.90995 -0.245128 -4.59571e-20)
(4.91745 -0.240555 -1.29559e-19)
(4.89191 -0.264582 -6.26703e-20)
(4.88867 -0.265028 7.17897e-21)
(4.89619 -0.284459 -3.5136e-20)
(4.87999 -0.289298 4.44716e-20)
(4.91953 -0.303441 5.21057e-20)
(4.89295 -0.31334 -1.6262e-20)
(4.95566 -0.319434 3.87166e-21)
(4.92337 -0.335492 1.7872e-20)
(4.99793 -0.329822 3.85236e-21)
(4.96566 -0.352613 -1.43419e-20)
(5.0412 -0.333122 1.63851e-21)
(5.01348 -0.362098 -2.6128e-21)
(5.08248 -0.328904 2.65821e-21)
(5.0607 -0.363244 1.92855e-20)
(5.12036 -0.317646 1.20614e-20)
(5.10493 -0.356078 -1.58589e-20)
(5.15384 -0.300573 7.80204e-20)
(5.14481 -0.341585 0)
(5.18132 -0.279078 9.79781e-20)
(5.17922 -0.32136 -1.88637e-20)
(5.20021 -0.254397 -6.74616e-20)
(5.20652 -0.296866 1.24687e-19)
(5.2075 -0.227183 -9.44988e-20)
(5.2244 -0.269893 -2.30926e-19)
(5.202 -0.197571 0)
(5.2292 -0.238455 1.34609e-19)
(5.18717 -0.165523 -3.02174e-20)
(5.2242 -0.210252 1.40769e-19)
(5.19765 -0.153347 -1.79349e-19)
(5.1824 -0.12836 -1.43445e-19)
(5.1127 0.143135 4.34709e-20)
(5.12197 0.142596 8.23854e-21)
(5.11311 0.125692 -3.89057e-20)
(5.11013 0.160569 1.46714e-21)
(5.1217 0.163686 -7.03676e-21)
(5.10206 0.175515 -4.9485e-20)
(5.11363 0.178285 -1.73401e-19)
(5.08838 0.188434 3.63904e-20)
(5.09917 0.19113 -2.98558e-20)
(5.07109 0.199287 4.03202e-20)
(5.08083 0.202232 -1.63595e-20)
(5.05201 0.207801 1.11596e-20)
(5.06057 0.211377 2.01012e-20)
(5.03212 0.213682 0)
(5.03971 0.218205 -1.30841e-20)
(5.01146 0.216743 -3.86903e-21)
(5.01854 0.222449 4.44195e-21)
(4.98914 0.216686 -9.67888e-21)
(4.99614 0.223817 -2.23e-21)
(4.96374 0.212929 3.53121e-21)
(4.97107 0.22199 -1.4305e-21)
(4.93408 0.204679 -3.56246e-20)
(4.94192 0.216382 0)
(4.90025 0.191526 -6.71485e-20)
(4.90816 0.206397 -3.6501e-20)
(4.86457 0.174456 6.48459e-20)
(4.87134 0.192558 2.82197e-20)
(4.83205 0.156312 1.46872e-20)
(4.83569 0.177529 4.68567e-21)
(4.80994 0.140872 -6.25018e-20)
(4.80751 0.165214 -6.29733e-20)
(4.8052 0.13059 -2.85466e-20)
(4.79352 0.158326 -9.47303e-21)
(4.82016 0.123906 -5.22947e-20)
(4.79754 0.156983 -5.90652e-20)
(4.85245 0.114071 -1.6131e-19)
(4.81731 0.157155 1.3855e-20)
(4.89886 0.0929027 -4.72626e-20)
(4.84934 0.146173 -7.29598e-21)
(4.93942 0.0579585 1.29874e-19)
(4.89251 0.109584 2.8987e-19)
(4.92477 0.00763367 1.61696e-19)
(4.91287 0.0745347 2.27208e-19)
(4.89174 -0.0660441 3.46609e-19)
(4.84336 0.000706288 3.25463e-19)
(4.90762 -0.140747 1.38519e-19)
(4.83402 -0.0806266 1.73159e-19)
(4.93094 -0.195325 2.92474e-20)
(4.88341 -0.156496 -1.501e-19)
(4.92315 -0.231135 1.17231e-19)
(4.90803 -0.208823 6.60534e-20)
(4.89661 -0.259982 -7.59124e-20)
(4.89467 -0.249072 1.69851e-20)
(4.87689 -0.288764 1.10624e-19)
(4.86976 -0.286042 -8.50824e-20)
(4.87687 -0.317131 6.43827e-20)
(4.85918 -0.320968 -9.47208e-20)
(4.89697 -0.34406 -4.96267e-20)
(4.86874 -0.354904 1.92792e-20)
(4.93341 -0.367297 0)
(4.89766 -0.386182 5.0673e-20)
(4.9804 -0.383727 5.7101e-21)
(4.94284 -0.410807 -6.90931e-20)
(5.03152 -0.391306 2.09617e-20)
(4.9978 -0.425769 2.23925e-20)
(5.08174 -0.389579 -2.44946e-21)
(5.0545 -0.430312 -2.69995e-21)
(5.12812 -0.379168 -1.25566e-20)
(5.10871 -0.424452 -8.27301e-20)
(5.1691 -0.361529 -9.90051e-20)
(5.1576 -0.409483 8.9247e-20)
(5.20349 -0.338414 5.57156e-21)
(5.19974 -0.387402 -1.16586e-19)
(5.2298 -0.311528 -2.3962e-20)
(5.23403 -0.360159 1.31563e-19)
(5.24605 -0.282121 4.81822e-20)
(5.25937 -0.330015 -1.34595e-19)
(5.25078 -0.250704 2.74679e-19)
(5.27288 -0.295565 3.1148e-19)
(5.24297 -0.217921 -7.08683e-19)
(5.27784 -0.264913 1.59805e-19)
(5.25622 -0.208009 7.3952e-20)
(5.23923 -0.178313 -2.49917e-19)
(5.13191 0.167562 -4.2998e-20)
(5.14228 0.168727 1.39073e-19)
(5.13702 0.150722 2.13773e-19)
(5.12229 0.183215 -9.14856e-20)
(5.13567 0.188103 5.50396e-20)
(5.1072 0.196243 -7.85274e-20)
(5.11979 0.200405 4.34404e-22)
(5.08828 0.207374 -3.49357e-20)
(5.09995 0.21153 7.10162e-20)
(5.06748 0.216561 8.49512e-21)
(5.07797 0.22088 -3.06483e-20)
(5.04592 0.22366 1.51715e-20)
(5.05514 0.228465 8.54381e-21)
(5.02382 0.228291 -2.38385e-20)
(5.03192 0.233992 -1.37153e-20)
(5.00058 0.230194 1.22241e-20)
(5.00815 0.237139 1.29013e-21)
(4.97498 0.229145 9.48887e-21)
(4.98258 0.23764 4.09539e-21)
(4.94563 0.224723 -5.18071e-21)
(4.95364 0.235257 2.31787e-20)
(4.91194 0.216595 1.13602e-20)
(4.92036 0.229756 -1.78604e-20)
(4.87508 0.205266 2.62659e-20)
(4.88322 0.221284 -2.33166e-20)
(4.83846 0.192859 1.49024e-20)
(4.84506 0.211469 5.09315e-20)
(4.80749 0.182938 -4.86329e-20)
(4.81079 0.203807 0)
(4.78812 0.178876 -8.15743e-20)
(4.78593 0.201934 -4.91791e-20)
(4.7837 0.181231 -8.19026e-20)
(4.77418 0.207275 -3.38738e-20)
(4.79258 0.185398 -5.00568e-20)
(4.77464 0.21808 -6.79612e-21)
(4.81181 0.18146 1.61839e-19)
(4.78193 0.226843 -1.31937e-20)
(4.84167 0.159517 3.76651e-19)
(4.79491 0.216983 2.3098e-19)
(4.86554 0.117797 4.21142e-19)
(4.81835 0.175871 -9.01752e-20)
(4.83303 0.0578129 4.0421e-19)
(4.82138 0.133303 -1.18616e-20)
(4.78745 -0.0258513 1.63975e-19)
(4.7329 0.0465678 5.4617e-19)
(4.81205 -0.112635 -1.21448e-19)
(4.71646 -0.0429517 3.11053e-19)
(4.86271 -0.181444 -1.0416e-19)
(4.78692 -0.133632 -1.4953e-19)
(4.88114 -0.23187 3.45743e-20)
(4.84306 -0.201675 -3.41321e-19)
(4.86838 -0.274964 1.59636e-20)
(4.8524 -0.258506 8.71829e-20)
(4.85234 -0.316801 -2.81672e-19)
(4.8375 -0.31161 -8.17149e-20)
(4.85181 -0.35686 -1.7651e-19)
(4.82976 -0.36031 -3.05798e-21)
(4.87089 -0.394679 8.39877e-20)
(4.83872 -0.407284 9.3258e-21)
(4.90851 -0.427368 -2.40938e-20)
(4.86806 -0.45008 -4.51847e-20)
(4.96041 -0.451053 -4.79977e-20)
(4.9175 -0.48347 -6.62291e-20)
(5.01991 -0.463276 7.16358e-21)
(4.98097 -0.504503 1.45996e-20)
(5.08045 -0.463835 -7.10575e-20)
(5.04854 -0.512685 2.92359e-20)
(5.13708 -0.453523 9.76083e-21)
(5.11462 -0.507635 -7.17206e-20)
(5.18709 -0.434198 6.97141e-20)
(5.17446 -0.491107 8.60779e-20)
(5.22914 -0.408149 2.34724e-21)
(5.22576 -0.465696 7.64006e-21)
(5.26242 -0.377606 2.09543e-20)
(5.26751 -0.434045 -7.38586e-21)
(5.28596 -0.34445 1.76914e-19)
(5.29943 -0.39888 -2.4794e-19)
(5.29923 -0.309668 1.66478e-19)
(5.31967 -0.359529 6.12668e-19)
(5.29987 -0.274826 -4.64935e-19)
(5.33255 -0.324341 -2.02409e-19)
(5.31861 -0.266541 2.0327e-19)
(5.30135 -0.233032 7.88131e-19)
(5.14676 0.193593 1.00617e-19)
(5.15856 0.197132 1.18894e-21)
(5.159 0.17855 -3.51209e-20)
(5.12973 0.206998 9.28817e-20)
(5.14463 0.214069 9.83735e-20)
(5.10873 0.218052 4.78121e-20)
(5.1221 0.224112 -1.33961e-19)
(5.08583 0.22739 1.06541e-20)
(5.09822 0.233371 -2.14774e-22)
(5.06223 0.234963 1.85463e-20)
(5.07336 0.24095 -1.2001e-20)
(5.0383 0.240705 0)
(5.04818 0.24698 0)
(5.01369 0.244293 -3.64348e-21)
(5.02247 0.251307 7.08017e-22)
(4.98735 0.245373 -4.36958e-21)
(4.99562 0.253606 -3.59771e-21)
(4.958 0.243862 1.44481e-20)
(4.96647 0.253748 -7.06351e-21)
(4.92465 0.239684 2.76262e-20)
(4.93361 0.251689 2.76068e-20)
(4.88758 0.233117 -5.47388e-20)
(4.89677 0.247679 -1.90336e-20)
(4.84911 0.225518 -5.09515e-20)
(4.85766 0.242611 -3.68964e-20)
(4.81348 0.219713 3.58293e-20)
(4.82016 0.238836 9.24379e-20)
(4.7857 0.219271 0)
(4.78918 0.239887 -5.56342e-20)
(4.76922 0.226521 0)
(4.76843 0.248462 4.08057e-20)
(4.76307 0.240188 0)
(4.75775 0.264753 -1.35543e-19)
(4.76191 0.25335 -2.71758e-20)
(4.75135 0.285546 -5.71677e-20)
(4.76303 0.253686 -3.36266e-20)
(4.74128 0.300413 -1.05373e-19)
(4.77098 0.230096 -2.22153e-19)
(4.72963 0.290182 5.90752e-20)
(4.77426 0.180754 -5.24667e-19)
(4.7277 0.244289 -2.17206e-20)
(4.72321 0.109974 9.5374e-20)
(4.71109 0.193343 -2.59107e-19)
(4.66434 0.0148721 7.04204e-19)
(4.60487 0.0911324 -3.33465e-19)
(4.69428 -0.0842683 2.82927e-19)
(4.57978 -0.00751244 -5.13221e-20)
(4.76996 -0.167771 -2.80881e-19)
(4.66761 -0.113295 3.88189e-19)
(4.81632 -0.234737 -2.88084e-19)
(4.75403 -0.198498 8.25348e-21)
(4.82239 -0.294905 0)
(4.78913 -0.274506 -1.39148e-19)
(4.81596 -0.352531 1.45593e-19)
(4.78996 -0.346397 1.30896e-19)
(4.81946 -0.407042 1.25218e-19)
(4.7898 -0.411009 -1.42936e-19)
(4.84027 -0.458213 -1.28719e-19)
(4.80179 -0.473423 4.70943e-19)
(4.88083 -0.502183 -9.25212e-20)
(4.83461 -0.529508 -2.31193e-19)
(4.93894 -0.534187 -1.34927e-20)
(4.8909 -0.57275 5.69969e-20)
(5.0085 -0.551911 8.81222e-21)
(4.96457 -0.601016 -6.36124e-20)
(5.08141 -0.554611 3.97152e-20)
(5.04535 -0.612875 2.06418e-20)
(5.15056 -0.543499 8.87527e-21)
(5.12578 -0.60786 -4.36986e-20)
(5.21161 -0.521024 1.92653e-20)
(5.1991 -0.588332 2.92075e-19)
(5.2626 -0.490222 -2.38107e-21)
(5.26157 -0.557711 -2.03014e-19)
(5.303 -0.454039 -2.65591e-19)
(5.31192 -0.519551 -9.86709e-20)
(5.33272 -0.415046 2.72411e-19)
(5.35033 -0.477157 -2.01469e-19)
(5.35232 -0.374771 1.44308e-19)
(5.37591 -0.430671 3.834e-19)
(5.3597 -0.335668 -2.30561e-19)
(5.39406 -0.388559 -4.66294e-19)
(5.38611 -0.327667 2.73912e-19)
(5.36736 -0.290946 2.21032e-19)
(5.15691 0.22162 -9.01739e-20)
(5.1704 0.228247 -5.18279e-20)
(5.17645 0.20908 3.07395e-20)
(5.13343 0.232693 -7.27898e-20)
(5.14959 0.242461 1.42222e-19)
(5.10784 0.241738 -9.60281e-20)
(5.12195 0.250429 -5.79403e-20)
(5.08175 0.249174 -3.13548e-20)
(5.0948 0.257583 9.42724e-20)
(5.05556 0.255047 -3.11008e-20)
(5.06732 0.263287 -1.5525e-20)
(5.02908 0.259428 7.57685e-22)
(5.03968 0.267623 -1.8527e-20)
(5.00152 0.262176 6.97601e-22)
(5.01128 0.270818 -2.95165e-20)
(4.97172 0.262993 0)
(4.98113 0.272585 -7.03775e-21)
(4.93853 0.261879 0)
(4.94833 0.273073 -6.48083e-21)
(4.90168 0.259269 0)
(4.91211 0.272516 4.85981e-20)
(4.86244 0.256021 0)
(4.87298 0.271625 -3.0071e-20)
(4.82412 0.253995 5.78682e-20)
(4.83374 0.271774 0)
(4.79125 0.25607 7.17638e-20)
(4.79876 0.275405 5.81285e-20)
(4.76755 0.265125 -1.42792e-20)
(4.77223 0.285313 -1.76804e-19)
(4.75303 0.282134 -4.68802e-20)
(4.75522 0.303005 2.25703e-19)
(4.74221 0.304364 -1.95209e-19)
(4.74354 0.327842 -1.80295e-19)
(4.7269 0.323702 -2.28859e-19)
(4.72713 0.355703 -2.61426e-19)
(4.70501 0.326151 -6.05974e-20)
(4.69534 0.373845 1.77161e-19)
(4.6856 0.299838 2.83751e-19)
(4.65392 0.362112 -3.59044e-19)
(4.66456 0.242335 2.4624e-19)
(4.6208 0.311713 6.59585e-19)
(4.59475 0.159652 -7.27432e-19)
(4.58191 0.251249 -1.10685e-20)
(4.52313 0.0507896 -1.04215e-18)
(4.45856 0.130611 1.26215e-19)
(4.55657 -0.0618395 4.08487e-20)
(4.42549 0.0213316 -8.03814e-19)
(4.65463 -0.160688 6.84451e-19)
(4.52852 -0.100915 1.39211e-19)
(4.72907 -0.24549 1.7073e-19)
(4.64307 -0.204743 1.92914e-19)
(4.75825 -0.324387 -3.27741e-21)
(4.70573 -0.302166 3.50201e-20)
(4.76747 -0.399761 -1.47734e-19)
(4.72699 -0.394872 -3.45361e-19)
(4.77906 -0.470158 -6.23665e-20)
(4.73966 -0.476212 5.81457e-19)
(4.80434 -0.537235 7.1331e-20)
(4.75796 -0.55697 1.40234e-19)
(4.85029 -0.593946 -6.8773e-20)
(4.7986 -0.627361 2.51319e-19)
(4.91741 -0.635847 2.48719e-20)
(4.86456 -0.682409 9.91219e-20)
(4.99984 -0.659426 -3.35583e-20)
(4.95158 -0.718806 2.49549e-20)
(5.08787 -0.663676 -2.41057e-20)
(5.04858 -0.733427 -9.76801e-20)
(5.17228 -0.650435 2.50614e-19)
(5.14621 -0.726744 2.10867e-19)
(5.2469 -0.62294 8.17307e-20)
(5.2357 -0.70173 -1.41942e-20)
(5.30874 -0.58522 -2.93348e-19)
(5.31168 -0.663257 -5.12136e-20)
(5.35718 -0.541088 -4.50507e-20)
(5.37229 -0.615899 4.07255e-19)
(5.39275 -0.493879 -9.20231e-21)
(5.41784 -0.563782 -3.4188e-19)
(5.41705 -0.445708 -2.88037e-19)
(5.44824 -0.507828 -3.27142e-19)
(5.42868 -0.399719 7.57598e-19)
(5.46987 -0.456581 3.52733e-20)
(5.46576 -0.390556 2.23045e-19)
(5.44106 -0.349195 3.49555e-19)
(5.16355 0.25258 5.37161e-20)
(5.17934 0.262978 -7.00883e-20)
(5.18955 0.242157 -7.87706e-20)
(5.13486 0.261473 8.93981e-20)
(5.15231 0.274439 5.28882e-20)
(5.10554 0.268397 5.29802e-20)
(5.12052 0.280549 3.86025e-20)
(5.07657 0.273758 2.91666e-20)
(5.09029 0.285383 -4.04665e-20)
(5.04767 0.277764 5.74697e-21)
(5.05998 0.289128 -6.43619e-21)
(5.01837 0.280743 -1.46383e-20)
(5.0297 0.291606 4.01299e-20)
(4.98763 0.282799 -7.29642e-21)
(4.99852 0.293691 2.91358e-21)
(4.95448 0.284014 4.06619e-22)
(4.96547 0.295216 -2.12393e-20)
(4.91817 0.284591 5.78502e-20)
(4.92978 0.296776 9.11007e-21)
(4.8791 0.285158 1.20864e-20)
(4.89139 0.298814 4.77441e-20)
(4.83953 0.287027 -3.01732e-20)