/*--------------------------------*- C++ -*----------------------------------*\
  =========                 |
  \\      /  F ield         | OpenFOAM: The Open Source CFD Toolbox
   \\    /   O peration     | Website:  https://openfoam.org
    \\  /    A nd           | Version:  6
     \\/     M anipulation  |
\*---------------------------------------------------------------------------*/
FoamFile
{
    version     2.0;
    format      ascii;
    class       surfaceVectorField;
    location    "1.54";
    object      rhoUf;
}
// * * * * * * * * * * * * * * * * * * * * * * * * * * * * * * * * * * * * * //

dimensions      [1 -2 -1 0 0 0 0];

internalField   nonuniform List<vector> 
11670
(
(-0.00014462 -1.03963e-05 0.000161187)
(-0.000164674 -3.9323e-05 5.13551e-05)
(-0.000322413 -0.000119367 0.000278372)
(-0.000170933 -6.9527e-05 0.000275605)
(2.6778e-08 -2.95294e-07 -2.42178e-07)
(1.49597e-07 5.36104e-08 -2.55164e-07)
(-6.51265e-08 2.51268e-07 -1.19328e-07)
(-2.71133e-08 -4.92504e-08 -7.15379e-08)
(-0.000402104 -2.04603e-05 -0.00038094)
(-0.000526463 -0.000106529 -7.55346e-05)
(-0.000866983 -0.000182852 -0.000599774)
(-0.000414822 -0.000191336 -0.000553022)
(-4.3152e-06 -2.03873e-06 3.03644e-06)
(-4.54112e-06 -2.3941e-06 1.78623e-06)
(-7.9361e-06 -3.33881e-06 5.72027e-06)
(-5.27151e-06 -2.66754e-06 6.47929e-06)
(-4.30758e-05 1.03163e-06 8.93578e-07)
(-3.47308e-05 1.60469e-06 -4.86437e-06)
(-3.86363e-05 1.57104e-06 2.2376e-06)
(-5.48204e-05 -9.01236e-07 -8.35102e-07)
(-1.18416e-08 1.39331e-07 -7.18675e-08)
(-1.58926e-08 1.10488e-07 -2.94262e-08)
(2.53678e-08 1.02731e-07 -2.65178e-08)
(-2.09819e-08 1.87941e-07 -4.16342e-08)
(-6.64863e-08 -6.53894e-09 1.97927e-06)
(-3.7785e-07 1.8862e-07 1.31467e-06)
(-1.26456e-07 8.59565e-07 5.45907e-07)
(-1.3578e-07 5.84931e-08 9.45217e-07)
(1.7687e-08 -1.21812e-06 -1.42202e-06)
(-8.32291e-07 4.27644e-07 -1.12342e-06)
(1.83222e-09 6.2087e-07 -2.6525e-07)
(-1.42138e-07 -1.32656e-07 3.38329e-07)
(-1.75001e-07 -2.06936e-07 5.95377e-07)
(-9.77013e-08 1.74469e-07 2.5556e-07)
(-2.68113e-07 6.14565e-07 -1.69013e-07)
(-1.72571e-07 -3.04843e-09 1.40619e-07)
(-1.88519e-07 1.28508e-06 -1.2491e-06)
(-4.08863e-07 1.38507e-07 -9.71211e-07)
(1.88921e-07 -6.02764e-07 -6.27989e-07)
(-4.47597e-08 3.90276e-07 -1.87399e-07)
(-1.55599e-07 1.01052e-06 1.06419e-06)
(2.49303e-07 -7.82001e-07 -1.03341e-06)
(1.05502e-07 -1.24469e-06 -1.79015e-06)
(6.73199e-08 -2.20935e-07 -2.11622e-06)
(-6.95417e-05 -3.66432e-05 3.3456e-05)
(-6.27222e-06 -1.12148e-05 1.57204e-05)
(-1.33027e-05 -5.71658e-06 1.66898e-05)
(-1.50243e-05 -1.00178e-05 3.82591e-05)
(-2.63058e-09 5.46601e-08 -7.06174e-08)
(2.22408e-08 -8.89263e-08 -1.67364e-07)
(2.61451e-08 1.73836e-08 -1.2589e-07)
(1.18322e-08 6.20028e-09 -8.69979e-08)
(-3.66988e-08 -7.12606e-08 8.7287e-08)
(-2.8555e-08 -2.13114e-07 1.20305e-07)
(-1.73609e-08 -1.24293e-07 6.3286e-08)
(-2.40907e-08 -1.25462e-07 1.08622e-07)
(-2.99295e-05 -7.20712e-06 -2.35737e-05)
(-8.6432e-05 -2.73289e-05 -5.07126e-05)
(-2.91752e-05 -1.2356e-05 -3.9793e-05)
(-2.12848e-05 -1.20602e-05 -2.12641e-05)
(-3.98434e-08 1.17385e-07 -4.92124e-09)
(-2.37061e-08 -2.76602e-08 5.85717e-09)
(-7.67026e-09 4.32819e-08 3.42298e-08)
(-9.19263e-09 7.86666e-08 4.13712e-08)
(-0.00104515 0.00083858 -0.000738557)
(-0.000427387 0.000221772 0.000116001)
(-0.000356142 0.000480131 -0.000343188)
(-0.000342448 0.000555815 -0.000325185)
(-0.0013331 -0.00101519 0.000874998)
(-0.000390295 -0.000250104 -7.09322e-06)
(-0.000386827 -0.000495938 0.0003345)
(-0.000398817 -0.000475361 0.000489263)
(-6.38936e-09 -2.0758e-07 1.03786e-07)
(3.83647e-08 -2.68039e-07 1.5809e-07)
(6.30819e-08 -4.1954e-07 2.55927e-07)
(5.38992e-08 -4.55977e-07 2.43897e-07)
(-4.67542e-08 1.90994e-08 -1.95268e-08)
(-3.37738e-08 -4.11281e-08 2.85409e-08)
(-7.2301e-09 -4.95898e-08 2.88976e-08)
(-2.15794e-09 -4.21375e-08 3.02519e-08)
(-0.000640939 -0.000158668 5.15113e-05)
(-0.00139808 -0.000262327 -0.00106386)
(-0.000525077 -0.0004079 -0.000520849)
(-0.000451383 -0.000438459 -0.00041858)
(-6.71558e-09 -6.45932e-09 -2.14641e-08)
(2.04547e-09 -7.35323e-08 -7.66973e-09)
(8.82953e-09 -5.81743e-08 -3.76669e-08)
(9.60381e-09 -4.02105e-08 -3.90687e-08)
(-0.000477658 0.000135563 0.000111631)
(-0.0012325 0.000462711 0.00118265)
(-0.000352372 0.000589775 0.000372071)
(-0.000364199 0.000363273 0.000482545)
(-4.97222e-05 4.38295e-05 -2.42465e-05)
(-7.09213e-06 2.59785e-06 -9.83297e-06)
(-1.2871e-05 1.1529e-05 -2.37815e-05)
(-1.23055e-05 1.78286e-05 -1.20905e-05)
(-2.17423e-08 -1.41197e-08 1.47048e-08)
(-2.42712e-08 4.8773e-08 2.35543e-09)
(-6.00673e-09 2.70284e-08 2.7367e-08)
(-6.36017e-09 4.63112e-09 2.76579e-08)
(-4.14582e-08 1.64266e-07 4.83802e-08)
(-8.59329e-09 1.741e-07 5.63051e-08)
(-6.00884e-09 1.2856e-07 5.06941e-08)
(-6.11418e-09 2.37659e-07 7.52495e-09)
(-2.32618e-05 5.52979e-06 1.47648e-05)
(-7.02305e-05 5.24479e-05 3.84896e-05)
(-1.96191e-05 2.45554e-05 1.30525e-05)
(-2.39361e-05 1.38391e-05 2.74103e-05)
(-5.05711e-08 -8.57912e-08 1.35739e-07)
(-3.53365e-08 -1.11305e-07 1.42885e-07)
(-6.69376e-08 -8.28168e-08 1.92058e-07)
(-5.95195e-08 -4.55361e-08 1.73503e-07)
(-5.12223e-07 8.1534e-08 -5.3151e-07)
(-2.61692e-06 -1.05942e-06 1.78775e-06)
(-5.39531e-07 -7.2195e-08 9.50971e-08)
(-5.8585e-07 -2.45086e-07 7.48768e-07)
(-6.65238e-08 -1.07956e-07 4.32789e-07)
(7.31601e-08 -1.34875e-07 7.30781e-07)
(-4.71002e-09 -1.41521e-07 5.22983e-07)
(-2.84261e-08 -1.38382e-07 1.07487e-06)
(-1.02809e-07 -1.54253e-07 3.53773e-07)
(1.09471e-07 -2.32095e-07 4.91666e-07)
(-1.51435e-08 -1.05594e-07 2.41889e-07)
(-1.22814e-08 -1.21843e-07 3.17292e-07)
(-8.27658e-08 -9.86205e-08 -1.94245e-09)
(-1.54352e-07 -3.37111e-08 -3.92349e-08)
(-9.90921e-08 3.69461e-08 6.47318e-08)
(-8.84152e-08 5.35012e-08 6.27177e-08)
(-4.33309e-08 -6.04754e-08 -1.98782e-07)
(-1.01599e-08 -1.54211e-07 8.90862e-09)
(-3.044e-08 -6.66534e-08 -6.23787e-08)
(-3.988e-08 -2.61368e-07 -9.79879e-08)
(-8.75895e-08 2.44698e-07 -1.98693e-07)
(-5.8523e-08 -3.21198e-07 -7.77646e-08)
(-8.83096e-08 -5.86026e-08 -1.92836e-07)
(-7.16249e-08 -8.77615e-08 -1.39115e-07)
(8.77386e-08 -4.22734e-07 -9.01151e-08)
(1.46993e-07 -4.01126e-07 -7.63141e-08)
(3.09321e-08 -2.60098e-07 -6.9927e-09)
(3.67544e-08 -4.439e-07 2.18046e-08)
(-4.34097e-08 -3.76618e-07 2.01101e-07)
(-7.68894e-08 -3.77433e-07 1.80008e-07)
(-7.04467e-09 -1.43517e-07 3.8722e-08)
(-7.94082e-09 -3.02724e-07 6.99459e-08)
(-2.25681e-08 2.84783e-07 1.65894e-07)
(4.94431e-08 1.19793e-09 -7.61211e-08)
(1.8029e-08 1.56284e-07 9.71573e-08)
(1.9496e-08 1.86328e-07 8.75923e-08)
(-1.51992e-08 -1.77355e-07 -4.794e-10)
(-8.73705e-09 1.13657e-07 2.83835e-07)
(3.32302e-10 7.45739e-08 1.23381e-07)
(2.55365e-09 1.00931e-07 1.04938e-07)
(-2.43575e-08 -4.07814e-08 -1.65006e-07)
(-8.65777e-08 -1.38703e-07 -1.92119e-07)
(-7.96002e-09 -7.6405e-08 -3.9902e-07)
(-7.57329e-09 1.61817e-08 -3.09955e-07)
(-6.97086e-08 -2.33063e-07 1.82968e-07)
(4.43256e-09 -3.2181e-07 2.44553e-07)
(-1.4348e-08 -5.37185e-08 2.02292e-07)
(-2.23652e-08 -2.82448e-07 4.37396e-07)
(-9.82217e-08 5.83024e-07 2.98371e-07)
(-1.24053e-07 3.10936e-07 9.73253e-08)
(-1.09798e-07 7.32541e-07 4.26581e-07)
(-9.06576e-08 7.68492e-07 3.93801e-07)
(1.33511e-08 -5.97342e-08 -3.68626e-07)
(5.76641e-08 -2.28618e-07 -1.74238e-07)
(7.65631e-09 -6.49049e-08 -3.82622e-07)
(2.33126e-09 4.57022e-08 -2.80306e-07)
(-5.40842e-08 -2.90338e-07 1.27306e-07)
(-5.81684e-08 -3.10755e-07 -6.399e-08)
(2.72202e-09 -1.84862e-07 7.57438e-08)
(7.75465e-10 -2.81949e-07 -8.45644e-09)
(2.82446e-08 -2.00264e-07 1.76454e-07)
(-2.82203e-08 -1.69587e-07 1.2713e-07)
(3.45117e-08 5.27407e-08 3.1177e-07)
(3.99269e-08 -6.48267e-08 4.48642e-07)
(-2.03768e-08 -1.01753e-07 6.57804e-08)
(-9.26458e-09 -1.20335e-07 8.54464e-08)
(-1.34648e-08 -5.80087e-08 2.3779e-08)
(-2.07979e-08 -7.61383e-08 3.85852e-08)
(-3.1445e-08 3.83485e-08 -1.67132e-07)
(2.05072e-08 -2.19389e-07 1.98975e-08)
(5.37323e-09 -7.3386e-08 -1.53686e-08)
(9.81764e-09 -1.19161e-07 -9.48082e-09)
(3.19484e-09 4.86929e-08 2.48309e-08)
(3.10191e-08 -1.12697e-07 -1.08165e-07)
(1.10894e-08 4.13887e-08 -3.96882e-08)
(9.92951e-09 5.53594e-08 -2.20904e-08)
(9.10615e-08 -3.46985e-07 1.00296e-07)
(8.16291e-08 -4.67126e-07 -7.05145e-08)
(3.06879e-08 -4.55327e-07 -1.43468e-08)
(3.90619e-08 -5.85692e-07 4.35658e-08)
(6.11976e-08 -2.51801e-07 1.33829e-07)
(5.82641e-08 -2.75937e-07 1.33208e-07)
(6.06527e-08 -3.80506e-07 2.39607e-07)
(5.15132e-08 -4.14938e-07 2.38537e-07)
(4.88773e-08 3.09427e-08 3.25533e-08)
(3.35788e-08 4.5582e-08 1.78637e-08)
(1.01981e-08 -9.301e-09 7.5467e-08)
(1.12206e-08 1.78113e-08 1.00626e-07)
(1.25853e-08 1.93057e-07 4.16749e-09)
(3.92838e-08 1.37554e-07 -1.75051e-08)
(4.63089e-09 1.28119e-07 3.05723e-08)
(5.3194e-09 1.99379e-07 -3.2016e-08)
(1.75119e-08 5.48463e-08 -1.11665e-07)
(4.41236e-08 7.57273e-08 -2.39903e-08)
(1.92139e-09 2.79044e-08 -8.59092e-08)
(5.41261e-09 -9.26744e-09 -6.76715e-08)
(1.91513e-08 -7.69251e-09 1.3302e-08)
(1.01453e-08 -2.08047e-08 2.78441e-08)
(8.61607e-09 1.28341e-08 1.66912e-08)
(9.901e-09 1.39639e-08 2.56962e-08)
(-1.3902e-08 -2.17551e-08 -6.85559e-09)
(1.74364e-08 1.57653e-08 -5.02826e-08)
(-1.2729e-08 -1.07244e-08 -4.28035e-08)
(-7.10623e-09 -1.6356e-08 -2.00143e-08)
(2.61774e-08 3.62821e-08 6.65633e-09)
(3.03568e-08 -2.99722e-08 -6.14659e-11)
(1.42313e-08 5.51211e-09 3.43257e-09)
(1.6888e-08 6.85675e-09 4.39586e-09)
(-9.1969e-09 4.07086e-08 5.48875e-11)
(1.36884e-09 -2.50141e-09 2.77743e-08)
(-2.3247e-08 1.11465e-07 -3.53941e-08)
(-2.24555e-08 7.93294e-08 -4.21778e-08)
(-2.11401e-08 1.59148e-07 3.20348e-08)
(-3.47546e-08 3.37123e-08 -1.93112e-08)
(-5.82306e-08 2.19064e-07 -1.74703e-07)
(-5.22643e-08 2.63667e-07 -1.02718e-07)
(4.72033e-08 -1.35572e-07 6.37565e-08)
(1.33593e-08 -1.43885e-07 7.06183e-08)
(8.1973e-09 -1.26976e-07 8.53697e-08)
(5.75524e-09 -6.97128e-08 7.4233e-08)
(5.64735e-08 -1.41165e-07 1.92062e-07)
(-4.21813e-08 -1.98038e-07 1.79923e-07)
(-3.14623e-09 -1.06129e-07 1.49619e-07)
(-4.64834e-09 -1.48565e-07 2.14022e-07)
(2.07118e-08 6.50667e-08 6.11376e-09)
(3.48338e-08 2.50667e-08 -7.80745e-09)
(5.44534e-08 -1.00661e-08 6.55043e-08)
(4.9812e-08 -3.15984e-08 5.67114e-08)
(-1.12562e-06 1.07245e-06 8.08435e-07)
(-2.43473e-07 3.16957e-07 6.28315e-07)
(-3.12936e-07 4.98584e-07 5.80052e-07)
(-3.39344e-07 4.09911e-07 8.86776e-07)
(7.52118e-09 3.23569e-08 -1.37799e-07)
(-2.89907e-08 1.14459e-07 2.84609e-08)
(1.4539e-08 1.89751e-08 -6.29411e-08)
(2.56735e-08 1.31667e-07 -9.0913e-08)
(-6.27384e-07 3.74288e-07 1.42318e-07)
(-1.07686e-06 9.17514e-07 -1.19608e-07)
(-3.99119e-07 3.04721e-07 1.22834e-07)
(-3.69172e-07 6.81058e-07 1.92451e-07)
(9.54534e-08 -5.35433e-07 2.98123e-07)
(6.91751e-08 -3.97519e-07 2.17542e-07)
(1.01688e-07 -7.02931e-07 4.69608e-07)
(8.66424e-08 -7.61457e-07 4.5786e-07)
(4.15483e-08 4.00709e-07 1.47422e-07)
(3.03129e-08 3.22369e-07 5.38232e-08)
(-2.37738e-09 3.20493e-07 1.28182e-07)
(-9.91711e-09 5.23167e-07 5.89361e-08)
(-1.66774e-08 6.41756e-08 -1.43616e-07)
(-4.60815e-08 2.2945e-07 -1.01647e-07)
(-3.46653e-08 1.22864e-07 -1.57171e-07)
(-2.2929e-08 6.08232e-08 -8.81858e-08)
(-9.63196e-08 1.61554e-07 7.27739e-08)
(4.09737e-09 1.31878e-07 1.17569e-08)
(-2.69997e-08 8.65822e-08 6.93863e-08)
(-2.9077e-08 7.99412e-08 1.07415e-07)
(9.61166e-08 6.13403e-08 -1.7057e-07)
(1.55845e-08 1.52426e-08 -8.37067e-08)
(4.52845e-08 5.04727e-08 -1.63433e-07)
(5.30189e-08 1.31408e-07 -1.93661e-07)
(-2.03955e-07 2.88265e-07 8.56699e-08)
(-7.31475e-08 9.79522e-08 -2.68656e-08)
(-9.23909e-08 2.66104e-08 1.09359e-07)
(-8.75905e-08 -1.28246e-08 2.08511e-07)
(-4.34162e-09 1.2372e-07 -4.33269e-07)
(-1.40054e-07 3.88324e-07 -1.96166e-07)
(-7.33944e-08 2.55824e-07 -3.77998e-07)
(-6.33824e-08 1.57528e-07 -2.14927e-07)
(4.28583e-08 2.15312e-07 1.56041e-07)
(8.27031e-08 2.53615e-07 1.35399e-07)
(2.31599e-08 6.81823e-08 1.44576e-07)
(1.9183e-08 2.79546e-07 2.42906e-07)
(1.95324e-08 9.76888e-08 -1.35359e-07)
(1.07525e-07 1.63104e-07 -1.66696e-07)
(1.17611e-08 8.49216e-08 -3.4241e-07)
(1.44859e-08 1.96131e-08 -2.38377e-07)
(8.2668e-08 2.16178e-07 2.89106e-08)
(1.29845e-07 9.04875e-08 9.89553e-08)
(7.81708e-08 4.32681e-08 -3.28416e-08)
(8.39096e-08 5.59852e-08 -4.56599e-08)
(1.97011e-08 4.21764e-08 3.07688e-07)
(2.09735e-08 2.2858e-07 2.74426e-08)
(3.14144e-08 2.54071e-07 1.53374e-07)
(2.36736e-08 6.07879e-08 1.1319e-07)
(5.26964e-08 1.22057e-07 1.3973e-08)
(5.11281e-08 3.27924e-08 -6.41346e-09)
(5.18825e-08 1.67819e-08 7.76354e-08)
(4.65387e-08 2.94761e-09 5.68022e-08)
(1.89235e-08 -8.59114e-09 -1.58556e-07)
(-3.248e-08 1.40978e-07 -1.40311e-08)
(9.30286e-09 -1.23952e-08 -5.67667e-08)
(1.19294e-08 1.1875e-07 -7.96891e-08)
(1.95622e-07 -3.22507e-07 9.56076e-08)
(1.27999e-07 1.57097e-07 -1.42976e-07)
(1.14894e-07 -7.15638e-08 7.94495e-09)
(1.25757e-07 -1.04859e-07 8.53362e-08)
(-9.45042e-08 3.99639e-07 -1.05934e-07)
(2.98544e-08 4.17623e-07 -7.68341e-08)
(-1.79709e-08 4.40101e-07 -2.06913e-07)
(-4.86147e-09 2.56727e-07 -1.14825e-07)
(-7.48186e-08 2.1807e-07 2.60103e-07)
(9.66942e-08 -1.68742e-07 -9.47872e-08)
(1.56674e-08 -3.06671e-07 -7.20807e-08)
(1.38653e-08 -2.45788e-07 4.38211e-08)
(2.27019e-07 -8.28521e-07 2.8853e-07)
(9.76714e-08 -3.82708e-07 -8.18422e-08)
(1.39038e-07 -7.70971e-07 2.09438e-07)
(1.37039e-07 -8.12934e-07 2.11522e-07)
(1.50442e-07 2.9828e-07 6.32823e-07)
(3.62041e-08 3.26641e-07 3.90414e-07)
(9.40776e-09 1.86896e-07 3.8099e-07)
(6.09525e-09 1.82193e-07 8.53858e-07)
(-8.34826e-08 4.2215e-07 3.44659e-07)
(6.99066e-08 3.08828e-07 2.33996e-07)
(-5.18495e-08 3.15901e-07 2.04657e-07)
(-6.88453e-08 3.02906e-07 2.78701e-07)
(3.72563e-08 -3.80709e-07 -1.24516e-07)
(8.74658e-08 -2.7849e-08 -3.41566e-08)
(7.40406e-08 -4.3501e-07 -9.87798e-08)
(-0.000663342 -3.09178e-06 -0.000500811)
(-0.000405301 -1.46554e-05 -0.000139538)
(-0.000373235 -3.19788e-05 -0.000463242)
(-0.00020549 -1.4204e-05 0.000184747)
(-9.43457e-05 7.51089e-06 6.77472e-05)
(-0.000114532 6.00614e-06 0.000166978)
(-1.68065e-07 7.32305e-07 7.10106e-07)
(-3.1678e-07 1.08804e-06 9.09718e-07)
(5.77416e-08 4.19877e-09 2.3797e-06)
(-1.22606e-05 7.25491e-07 4.41998e-07)
(-1.25642e-05 8.11903e-07 1.30173e-06)
(-2.00374e-05 9.97785e-07 2.54169e-07)
(1.81881e-08 4.31475e-08 -1.53459e-08)
(1.01388e-07 -9.58768e-08 -8.10147e-08)
(-4.13052e-09 5.09202e-08 -9.14439e-08)
(1.98748e-07 -1.56496e-06 -1.98408e-06)
(-3.74907e-07 -3.41385e-07 -1.13888e-06)
(1.74491e-07 -1.18702e-06 -1.88234e-06)
(-5.73285e-06 -1.65567e-06 3.34366e-06)
(-2.71925e-06 -5.41228e-07 1.3009e-06)
(-3.31868e-06 -7.20813e-07 2.82041e-06)
(-2.67942e-07 2.27327e-07 1.20605e-07)
(1.26959e-07 1.92574e-07 3.15478e-07)
(-1.15707e-07 -2.81522e-07 7.11248e-07)
(-1.53379e-07 1.10676e-06 -6.04917e-07)
(-3.03697e-07 4.191e-07 -4.7362e-07)
(-3.128e-07 1.54226e-06 -7.05744e-07)
(-3.85894e-07 1.38276e-06 1.81412e-06)
(9.77919e-08 4.63104e-07 1.00767e-06)
(-3.10307e-07 1.3035e-06 2.84974e-06)
(2.53569e-08 -3.93239e-07 -2.14661e-07)
(-4.31712e-08 -2.95377e-07 2.17184e-07)
(-5.10345e-08 -5.67075e-07 -1.93486e-07)
(-6.43763e-08 -6.35343e-07 -3.40318e-08)
(2.48839e-07 -2.56662e-07 4.11302e-09)
(1.65878e-07 -2.60505e-07 -2.40949e-07)
(1.68683e-07 -1.47979e-07 -1.95727e-08)
(1.91818e-07 -9.50843e-08 -4.43724e-08)
(-1.32598e-08 -5.69588e-09 -9.49926e-09)
(-1.01753e-08 3.61152e-08 4.12422e-08)
(-1.31906e-08 1.32898e-08 4.65216e-08)
(-2.54083e-08 1.03892e-08 3.09121e-08)
(-2.50007e-08 8.41163e-08 -6.85017e-08)
(-1.00196e-07 -1.03095e-08 6.53142e-08)
(-1.15161e-07 1.07668e-07 5.81302e-08)
(-9.73004e-08 4.56518e-08 2.17323e-08)
(1.32955e-08 -1.91355e-08 -1.19902e-07)
(9.77971e-09 -1.30449e-07 -3.92873e-08)
(5.19038e-08 -2.11625e-08 -3.04754e-08)
(6.077e-08 -1.53031e-08 -4.73754e-08)
(-1.10991e-05 -3.52125e-07 -1.33717e-06)
(-1.43262e-05 4.51039e-07 -8.78079e-06)
(-1.89355e-05 -1.87776e-06 -8.93828e-06)
(-1.28706e-05 6.4797e-07 -5.16922e-06)
(-1.82396e-07 3.4989e-07 1.46781e-07)
(8.88297e-09 -1.31834e-08 1.14326e-06)
(-1.17586e-07 1.82081e-07 3.83453e-07)
(-7.31013e-08 -1.54841e-07 8.20572e-07)
(-2.80326e-08 3.46462e-07 -3.25606e-07)
(1.18514e-07 2.06866e-07 -3.25349e-07)
(2.1479e-07 3.26063e-07 -2.09722e-07)
(1.56141e-07 3.42026e-07 -3.07173e-07)
(2.93953e-07 -1.49759e-07 5.92116e-08)
(3.09089e-07 -3.29514e-07 3.99792e-07)
(2.84747e-07 -3.19776e-07 1.86617e-07)
(1.73964e-08 5.57424e-08 -3.99611e-08)
(9.69643e-08 6.92582e-08 -3.09729e-08)
(1.08615e-07 6.87688e-08 -4.63677e-08)
(9.92617e-08 7.32687e-08 -4.11762e-08)
(-3.63442e-08 -2.00688e-07 -2.72103e-07)
(-8.05306e-08 -2.75137e-07 -1.78221e-07)
(-9.27247e-08 -2.43733e-07 -2.20591e-07)
(-6.50721e-08 -1.13673e-07 -1.84971e-07)
(-1.31404e-05 -1.87272e-06 -6.35676e-07)
(-1.52673e-05 -3.76695e-06 -4.73098e-06)
(-8.63946e-06 -1.21906e-06 -1.79138e-06)
(-8.58795e-06 -3.53354e-06 -1.59452e-06)
(2.12613e-08 2.42142e-07 -2.10322e-07)
(3.92966e-08 1.01341e-07 -1.20954e-07)
(-1.85295e-08 1.31295e-07 -1.9632e-07)
(-7.1704e-08 1.29257e-07 -1.59064e-07)
(-8.40462e-08 1.15809e-07 -1.19848e-07)
(-6.58638e-08 2.10811e-07 -9.82861e-08)
(-6.76515e-08 1.88939e-10 -4.49941e-08)
(-2.23868e-05 -2.51038e-07 1.7371e-07)
(-1.33883e-05 -2.03807e-06 -3.82808e-06)
(-1.27736e-05 1.49819e-06 -2.98038e-07)
(-8.58738e-08 -1.60468e-08 -3.3377e-09)
(-7.00342e-08 -1.97186e-08 -1.84346e-08)
(-8.3884e-08 4.47939e-08 -8.25826e-09)
(-1.7276e-07 4.89948e-07 -2.40691e-07)
(-1.94847e-07 1.64962e-07 -4.56712e-07)
(-2.55248e-07 2.0912e-07 -7.02684e-08)
(-3.91239e-08 -1.37022e-07 -2.68386e-07)
(-5.69409e-09 1.12217e-07 -2.86134e-07)
(-5.53478e-08 1.5283e-07 -2.55235e-07)
(1.84881e-08 -8.33678e-08 -6.45787e-08)
(-1.34441e-09 -1.62976e-08 -5.98871e-08)
(-1.53678e-08 1.08496e-08 -3.86922e-08)
(-8.84701e-06 6.96838e-07 4.57312e-06)
(-1.04269e-05 1.98792e-06 5.13856e-06)
(-1.21652e-05 -1.24824e-06 4.9627e-06)
(-1.39996e-07 3.97646e-07 -3.90075e-07)
(-2.72106e-07 4.39324e-07 -2.33558e-07)
(-2.35569e-07 4.47373e-07 -2.98205e-07)
(1.97946e-08 1.07691e-07 -4.14698e-08)
(4.79067e-08 7.88159e-08 -6.02915e-08)
(4.18025e-08 6.84092e-08 -3.78157e-08)
(7.17711e-09 3.97866e-08 -4.50858e-08)
(1.84585e-07 4.88674e-08 -5.8318e-08)
(1.35116e-07 7.35015e-08 -3.36666e-08)
(1.74564e-07 1.10292e-07 -4.7e-08)
(-1.41978e-07 -6.66853e-08 -1.60698e-08)
(-1.21794e-07 -7.09164e-08 -2.45047e-08)
(-1.49555e-07 -4.93567e-08 -1.94645e-08)
(-1.89263e-08 1.57412e-07 -3.71666e-08)
(-6.97908e-08 1.78196e-07 1.07339e-08)
(-1.68981e-07 3.97837e-07 -1.05433e-07)
(-1.3901e-07 2.9984e-07 -1.15249e-07)
(5.62171e-08 6.85761e-09 3.72763e-08)
(-7.76596e-09 4.80274e-09 -6.29985e-08)
(1.79717e-08 -6.71279e-08 -5.00895e-08)
(-3.36621e-06 2.47987e-07 7.12669e-07)
(-1.03024e-05 -2.20506e-06 -3.25673e-06)
(-3.76302e-07 3.14915e-06 2.01299e-06)
(-4.17476e-06 2.90338e-07 -5.05065e-08)
(-4.50495e-06 -3.03112e-07 2.25019e-06)
(-1.33326e-06 -1.2434e-06 1.08853e-06)
(-3.36863e-06 -5.18284e-07 1.21579e-06)
(-2.97685e-10 5.92321e-08 -4.53332e-08)
(-6.21738e-10 4.22029e-08 8.91648e-08)
(-2.53406e-08 -3.08214e-08 3.09111e-08)
(-2.53703e-08 -3.98146e-08 3.81579e-08)
(4.99565e-08 2.28228e-07 -2.21033e-07)
(1.15129e-08 1.79721e-07 -1.3803e-07)
(2.38481e-08 1.33023e-07 -9.04724e-08)
(-1.07701e-07 1.14474e-07 5.26233e-08)
(-2.4002e-08 2.40363e-07 8.24719e-08)
(1.41291e-07 3.53264e-07 -1.9437e-07)
(9.37605e-08 2.42865e-07 8.0181e-10)
(-2.57169e-07 1.15045e-07 1.94761e-07)
(-3.13899e-07 1.89686e-07 -8.31521e-08)
(-2.71646e-07 -2.66412e-08 9.24549e-08)
(-2.42744e-08 1.23557e-07 5.04564e-08)
(1.19767e-07 1.5117e-07 -2.21269e-07)
(-2.18985e-07 3.50726e-07 -3.11546e-07)
(-1.60071e-07 2.24406e-07 -1.55025e-07)
(-4.77539e-08 7.939e-08 1.85402e-07)
(5.25658e-08 1.29532e-07 -4.96852e-08)
(5.00905e-09 2.57608e-08 2.65528e-07)
(-1.66106e-08 1.80884e-07 -9.57762e-08)
(6.50732e-08 4.3516e-08 -7.29146e-08)
(8.32607e-08 8.45715e-09 -2.53853e-08)
(1.19811e-07 2.15761e-08 -1.61929e-09)
(-1.55385e-07 2.18483e-07 -1.25639e-08)
(-1.67155e-07 1.93587e-07 6.19434e-08)
(-1.52303e-07 3.11505e-07 -1.17764e-07)
(3.15538e-08 -2.2538e-07 2.7859e-07)
(-1.94315e-07 -2.20417e-07 1.66284e-07)
(2.17675e-07 -4.78863e-07 9.70777e-07)
(-1.17079e-07 -5.5852e-07 1.66441e-07)
(1.1555e-07 -5.02679e-07 -2.34857e-07)
(-1.65047e-07 -3.40128e-07 3.97553e-07)
(-1.8755e-08 -3.4664e-07 4.54036e-08)
(3.19302e-08 1.76629e-09 8.00124e-09)
(2.2783e-08 -1.93265e-08 3.29358e-08)
(1.39882e-08 -1.91982e-08 2.47334e-08)
(2.65914e-08 -3.41167e-08 6.19841e-09)
(3.05616e-08 3.71297e-08 -1.64965e-08)
(-2.69181e-09 7.13453e-08 4.18886e-10)
(2.20009e-08 3.55731e-08 1.10995e-08)
(9.74855e-08 -2.25707e-07 -2.60766e-07)
(8.92598e-08 -2.83974e-07 -2.54623e-07)
(3.41573e-08 -3.41911e-07 -6.4962e-07)
(-1.32021e-07 5.61579e-07 -3.66442e-07)
(-2.45589e-08 -2.99077e-07 -5.66615e-07)
(-1.84953e-08 -1.44526e-07 -6.81032e-07)
(-1.11197e-07 -1.72841e-07 -1.86155e-07)
(-1.28338e-07 7.12875e-07 1.08526e-07)
(-1.88306e-07 -1.69303e-07 -1.53859e-07)
(-9.95411e-08 -4.66309e-08 -1.92508e-07)
(-0.000682763 -0.000242452 -0.000344054)
(-0.00193214 0.000258302 -0.00130022)
(-0.00091232 -7.25317e-05 0.00028005)
(-0.000657655 0.0001975 -0.000843217)
(-1.53062e-07 -1.07271e-07 -4.5082e-07)
(-9.55702e-08 3.88856e-07 -1.50975e-08)
(-2.13876e-07 -1.60284e-07 -2.29295e-07)
(-1.12241e-07 -1.2852e-08 -3.38738e-07)
(-0.000951805 -0.000272812 2.84473e-06)
(-0.00224991 -0.000428076 0.00135086)
(-0.0011744 -0.000133814 -0.000455974)
(-0.000813042 -0.000411292 0.000613707)
(3.82897e-08 -1.78625e-07 -1.6003e-07)
(-5.06178e-08 2.88779e-07 1.43441e-08)
(-9.11542e-08 -2.95719e-07 -4.74236e-08)
(-8.46905e-09 -1.98264e-07 -8.58477e-08)
(-7.73091e-08 2.88669e-09 -1.6867e-07)
(-3.92295e-08 1.83803e-07 -6.0785e-09)
(-9.06372e-08 -3.32127e-08 -9.23396e-08)
(-5.89844e-08 3.25751e-08 -1.61253e-07)
(2.95487e-08 -1.21891e-07 -8.74969e-08)
(-1.93553e-08 9.54924e-08 -6.77045e-09)
(-2.58446e-08 -1.64209e-07 -1.03549e-08)
(2.0662e-09 -1.43631e-07 -4.32821e-08)
(-0.000587989 -5.94892e-05 -0.00017392)
(-0.00156353 0.000256294 -0.00126238)
(-0.000805219 -2.86548e-05 0.000366723)
(-0.000574062 0.000280796 -0.000575922)
(-0.000620029 -0.000149554 -0.000111605)
(-0.00165829 -0.000440563 0.00125286)
(-0.000863099 -3.40547e-05 -0.000327618)
(-0.000609181 -0.000294592 0.000444246)
(-0.00111275 -0.000475573 0.000681612)
(-0.00250775 0.00014483 0.00121949)
(-0.00122708 -1.04976e-05 -0.000348091)
(-0.000852895 0.000164521 0.00127903)
(-0.000857948 -0.000175915 3.48703e-05)
(-0.00250082 -0.0003563 -0.000859424)
(-0.00117449 -2.77846e-05 0.000170253)
(-0.000926425 -0.000263169 -0.000820303)
(-0.000338081 -0.000100434 0.000270256)
(-0.000355278 3.46534e-06 -2.87054e-06)
(-0.00087507 -2.41394e-06 0.000429395)
(-0.000287559 3.55826e-06 0.000434745)
(-0.000373569 8.00101e-05 -0.00027553)
(-0.00046489 2.54157e-05 4.46382e-06)
(-0.000969868 -0.000109236 -0.000422378)
(-0.000314018 6.32971e-05 -0.000454614)
(-1.48278e-07 8.48939e-07 -1.73121e-07)
(-3.75673e-07 3.43739e-07 -7.27618e-07)
(6.83339e-08 1.75595e-07 -5.83125e-07)
(-1.0835e-07 6.86863e-07 -4.27372e-07)
(-4.94704e-08 -1.1601e-06 -1.41369e-06)
(8.88495e-08 -7.07921e-07 -1.57625e-06)
(-1.74856e-07 -6.85931e-07 -1.50812e-06)
(-4.10139e-08 -4.39722e-07 -1.82781e-06)
(-0.000403609 -0.000190228 0.000394802)
(-0.00091555 -5.29427e-07 0.000480158)
(-0.000503924 -7.60106e-05 2.30334e-05)
(-0.000335373 -7.30227e-05 0.000548092)
(-2.88256e-08 8.86889e-07 -2.36978e-07)
(8.06471e-08 -2.33859e-07 -4.86586e-08)
(-1.28789e-07 -4.74328e-08 -4.45547e-08)
(-2.98502e-08 5.68592e-07 -3.03612e-07)
(7.37443e-09 -1.30475e-06 2.56858e-06)
(-1.27531e-07 -6.50125e-07 1.72196e-06)
(1.13719e-07 -5.21173e-07 1.79764e-06)
(-6.35728e-09 -2.42942e-07 3.0713e-06)
(-1.36354e-07 -1.53101e-07 -5.99148e-07)
(-1.4374e-07 -6.09169e-08 -7.36767e-08)
(-2.39772e-08 2.70418e-07 7.321e-08)
(-4.14777e-08 -3.85295e-08 -4.01751e-07)
(-0.000102607 -1.57458e-05 -0.000101999)
(-0.000253206 -1.07882e-05 -0.000148487)
(-0.000103483 -1.57898e-06 -3.11901e-05)
(-9.63386e-05 -3.33874e-06 -0.00014165)
(-0.00012842 -2.87269e-05 4.20072e-05)
(-8.78944e-05 -1.29313e-06 2.84619e-06)
(-0.000244934 -4.49088e-05 8.37272e-05)
(-7.8839e-05 -4.20593e-06 8.25277e-05)
(-8.11245e-06 -1.14843e-06 -4.10926e-06)
(-5.34217e-06 -4.44812e-07 -2.70563e-06)
(-1.10891e-05 -2.39253e-06 -6.98792e-06)
(-5.98679e-06 -3.86739e-07 -4.60151e-06)
(-2.20409e-07 7.15138e-07 -7.0397e-07)
(-3.43231e-07 7.05535e-08 -1.20186e-06)
(2.00029e-07 -2.48921e-07 -1.32671e-06)
(-6.10537e-08 6.10883e-07 -1.62333e-06)
(-1.95783e-07 6.09653e-07 -6.43021e-07)
(-2.54872e-07 4.13601e-08 -3.45461e-07)
(-1.7576e-07 6.72771e-07 -2.29425e-07)
(-2.26162e-07 5.08739e-07 -4.17342e-07)
(-7.37889e-05 -2.90709e-05 5.03402e-05)
(-0.000182615 -1.63983e-05 4.20622e-05)
(-7.65208e-05 -1.55566e-05 1.14046e-06)
(-6.25645e-05 -1.55866e-05 6.82785e-05)
(-1.57054e-07 -8.96652e-09 -3.5471e-07)
(-3.21184e-07 5.83282e-07 -3.50247e-07)
(-4.49267e-07 1.75395e-06 -1.10284e-06)
(-2.51876e-07 7.23476e-07 -3.59211e-07)
(9.79739e-08 1.6747e-07 2.86313e-07)
(1.96273e-07 -2.52332e-07 1.48014e-07)
(2.93394e-07 -5.13445e-07 2.78683e-07)
(1.23159e-07 2.13965e-07 7.17825e-07)
(-4.05201e-08 4.89354e-07 1.2635e-07)
(-3.23694e-07 5.84672e-07 4.68465e-07)
(-1.64609e-09 2.36315e-07 4.2088e-07)
(-4.73185e-08 5.72314e-07 4.59739e-07)
(4.19374e-07 -5.67399e-07 6.6104e-07)
(-3.36215e-08 1.29756e-07 6.43902e-08)
(-2.43338e-07 6.08314e-07 4.58645e-07)
(-1.6407e-07 6.81405e-07 2.40292e-07)
(-1.82551e-05 2.99461e-06 -1.41334e-05)
(-1.64865e-05 1.58584e-07 -1.38521e-06)
(-3.61772e-05 -3.96495e-06 -1.2986e-05)
(-1.51401e-05 2.20748e-06 -1.546e-05)
(7.42399e-08 -6.74085e-07 7.86138e-07)
(-1.00752e-07 -6.19625e-07 2.55062e-08)
(-5.02598e-08 -7.75545e-07 -1.29301e-07)
(6.18695e-08 -3.88689e-07 5.60911e-07)
(1.4086e-07 -9.52287e-07 -2.08827e-06)
(4.6368e-07 -1.00842e-06 -2.03366e-06)
(-2.21393e-07 -8.92117e-07 -1.9688e-06)
(1.07659e-07 -3.04364e-07 -2.39287e-06)
(-4.90755e-06 -1.94086e-06 -3.60859e-06)
(-3.6484e-06 -1.71273e-06 -5.55409e-07)
(-1.11273e-05 -1.46986e-06 -6.92087e-06)
(-3.99106e-06 -1.19262e-06 -5.04326e-06)
(9.4788e-08 -1.097e-06 6.60422e-07)
(-2.02416e-07 -1.05201e-06 9.6672e-07)
(-3.14068e-07 -1.22709e-06 5.91169e-07)
(7.55912e-08 -7.98345e-07 6.0824e-07)
(8.73257e-08 -4.26185e-07 9.34029e-07)
(8.57015e-08 -4.22589e-07 7.24241e-07)
(-6.41384e-08 -4.88276e-07 5.8438e-07)
(6.97306e-08 -2.60022e-07 8.34753e-07)
(-8.89837e-08 2.31885e-07 -3.03719e-08)
(-2.99958e-07 4.86566e-07 -7.96449e-08)
(-3.21108e-08 -3.20408e-08 -7.25808e-09)
(-1.31945e-07 -3.32371e-08 -4.29913e-08)
(1.41091e-09 -2.55008e-06 -1.72769e-06)
(-5.20321e-07 -4.80938e-06 -6.77304e-07)
(7.95667e-07 -4.26196e-06 5.25528e-08)
(-4.15792e-09 -9.29481e-07 -9.23643e-07)
(-1.0831e-07 8.62587e-07 -1.02749e-06)
(-7.50823e-08 6.55485e-08 2.15656e-08)
(2.37996e-07 5.41312e-07 -2.8058e-08)
(-7.84696e-08 7.26092e-07 -3.66655e-07)
(9.33094e-08 -1.9827e-07 -5.85243e-07)
(5.24938e-07 -9.61054e-07 -1.74388e-07)
(-1.30799e-07 -7.37912e-07 -1.20964e-08)
(7.79616e-08 5.30281e-08 -5.51219e-07)
(1.61093e-07 -3.38695e-08 -9.53471e-08)
(-5.10588e-08 1.35561e-07 1.83912e-07)
(1.17191e-09 -3.48976e-08 6.2982e-07)
(3.2104e-08 4.42261e-07 4.51688e-07)
(-2.50061e-08 2.01132e-07 1.41549e-07)
(-1.62533e-08 5.10842e-08 -1.39729e-07)
(4.3886e-08 1.32108e-07 -5.11284e-08)
(-2.03024e-08 2.69451e-07 7.26244e-08)
(2.09184e-08 3.24545e-08 8.87729e-07)
(-1.63867e-07 5.06347e-07 4.79377e-07)
(-5.2609e-08 2.47834e-07 4.81197e-07)
(-1.97441e-08 5.02325e-07 8.67559e-07)
(-1.41442e-05 -5.56328e-06 1.31025e-05)
(-1.34661e-05 -2.58742e-06 4.43955e-06)
(-3.29257e-05 -2.77197e-06 1.47704e-05)
(-1.26128e-05 -3.0311e-06 1.64044e-05)
(-1.16957e-06 5.65926e-07 -1.06673e-06)
(-1.81983e-06 -1.55708e-08 -1.60366e-06)
(-9.62692e-07 -6.80008e-09 -1.5984e-07)
(-9.20501e-07 7.69726e-07 -9.46784e-07)
(-2.54201e-06 -4.70235e-07 -1.94914e-06)
(-6.70764e-06 -1.75242e-06 -2.90721e-06)
(-2.75723e-06 -5.16729e-07 -9.78708e-07)
(-2.55827e-06 -6.13223e-07 -2.924e-06)
(-2.67126e-07 -1.85885e-07 -1.08328e-07)
(-1.06963e-07 -3.78984e-07 -2.48128e-07)
(-1.15353e-07 3.41658e-07 1.66345e-07)
(-1.22981e-07 3.79094e-07 -8.73593e-08)
(1.26795e-09 -5.73545e-08 -1.07648e-07)
(-1.35265e-07 -2.09953e-07 -3.28108e-07)
(-4.24393e-08 -1.67947e-07 -2.26379e-07)
(4.82685e-09 -1.42223e-07 -2.52027e-07)
(3.4922e-08 2.01792e-07 8.91261e-08)
(1.75552e-08 7.65805e-08 -3.33831e-08)
(3.20876e-08 5.81112e-08 -3.54804e-08)
(1.83706e-08 1.92013e-07 -5.85524e-09)
(1.86573e-09 -2.46776e-07 2.67012e-07)
(1.49703e-08 -2.78344e-07 5.27954e-08)
(1.5698e-08 -2.92005e-07 5.31164e-08)
(1.72306e-08 -3.82242e-07 1.97054e-07)
(1.06319e-07 -5.19786e-07 9.47997e-07)
(2.15808e-07 -4.03964e-07 5.31583e-07)
(-2.27332e-07 -3.50319e-07 8.6949e-07)
(1.28242e-07 -1.71898e-07 1.04615e-06)
(4.14568e-08 -1.43726e-06 2.18681e-06)
(1.86057e-07 -9.6469e-07 1.66108e-06)
(-3.53082e-08 -8.08898e-07 1.65141e-06)
(1.90582e-08 -9.06084e-07 3.01525e-06)
(6.8642e-09 1.47229e-08 1.60455e-07)
(-1.86286e-08 -2.50327e-07 -1.01235e-07)
(-5.07031e-08 -4.40612e-07 -1.00972e-07)
(3.17333e-08 -2.91429e-07 -1.59539e-07)
(1.2213e-07 -2.014e-06 -5.21368e-07)
(2.20213e-07 -1.96181e-06 -4.86699e-07)
(2.35117e-08 -2.83029e-06 -2.72246e-07)
(5.18021e-08 -9.21507e-07 -2.01492e-07)
(1.16236e-07 -1.13817e-06 1.17231e-06)
(-7.50315e-08 -1.50429e-06 2.3968e-07)
(3.94564e-07 -2.23098e-06 4.06474e-07)
(4.27515e-08 -4.90277e-07 8.1957e-07)
(3.7524e-08 -1.96339e-07 -4.73986e-08)
(4.87098e-08 -1.64202e-07 -1.07276e-07)
(6.08274e-08 -2.39446e-07 -5.30916e-08)
(2.13903e-08 -4.89433e-09 6.1957e-09)
(1.55689e-08 -7.99911e-09 1.48245e-09)
(-1.02533e-09 9.58554e-09 -5.0622e-09)
(1.70198e-08 -3.23799e-09 2.66709e-09)
(1.3795e-08 -3.57529e-09 -1.22698e-08)
(-2.27776e-09 1.63633e-08 -1.91487e-08)
(1.83234e-08 1.28635e-08 -2.08161e-08)
(1.53333e-08 7.1735e-09 -2.51697e-08)
(8.2501e-09 5.63308e-08 3.40128e-08)
(3.57071e-08 7.53285e-08 1.21877e-07)
(3.32522e-08 8.48032e-08 8.74699e-08)
(-1.29565e-08 1.60808e-07 -1.21472e-07)
(3.76799e-08 5.69842e-09 -9.38674e-09)
(3.22064e-08 5.5161e-07 6.76795e-08)
(-1.70715e-09 7.99716e-07 4.70627e-08)
(3.44651e-08 -1.07843e-06 7.10149e-07)
(-1.59521e-08 -7.61597e-07 -2.44876e-08)
(1.09652e-07 -8.66796e-07 1.02429e-07)