/*--------------------------------*- C++ -*----------------------------------*\
  =========                 |
  \\      /  F ield         | OpenFOAM: The Open Source CFD Toolbox
   \\    /   O peration     | Website:  https://openfoam.org
    \\  /    A nd           | Version:  6
     \\/     M anipulation  |
\*---------------------------------------------------------------------------*/
FoamFile
{
    version     2.0;
    format      ascii;
    class       surfaceScalarField;
    location    "1.71";
    object      meshPhi;
}
// * * * * * * * * * * * * * * * * * * * * * * * * * * * * * * * * * * * * * //

dimensions      [0 3 -1 0 0 0 0];

internalField   nonuniform List<scalar> 
8193
(
-0.000138311
0.00242533
6.203e-07
-0.000412823
0.00455353
-0.000771243
0.0064288
-0.00115961
0.00802305
-0.00152779
0.00931979
-0.00183343
0.010313
-0.00204473
0.0110057
-0.00214202
0.0114085
-0.00211818
0.0115375
-0.00197801
0.011413
-0.00173677
0.011058
-0.00141823
0.0104968
-0.00105221
0.0097541
-0.000672175
0.0088544
-0.000312779
0.00782122
-7.60446e-06
0.00667709
0.000212796
0.0054433
0.000322556
0.00414
0.000301818
0.00278628
0.000137728
0.00140041
-0.000174874
4.41163e-21
-0.000633056
-0.00139767
-0.00122569
-0.00277542
-0.00193361
-0.00411591
-0.00273012
-0.00540136
-0.00358182
-0.00661334
-0.00444974
-0.00773252
-0.00529096
-0.00873861
-0.0060605
-0.00961026
-0.00671361
-0.0103252
-0.00720834
-0.0108603
-0.00750817
-0.0111923
-0.0075847
-0.0112985
-0.00742002
-0.0111573
-0.00700861
-0.0107498
-0.00635852
-0.010061
-0.00549162
-0.00908169
-0.00444264
-0.0078095
-0.00325718
-0.00625107
-0.00198842
-0.0044231
-0.00235348
-0.000692986
-0.00108502
0.00770162
0.000334213
-0.00210388
0.0117888
-0.00324489
0.0152657
-0.00436839
0.0180928
-0.00535166
0.0202584
-0.00609709
0.0217746
-0.00653739
0.0226731
-0.00663796
0.0230001
-0.00639656
0.022811
-0.00584062
0.0221666
-0.0050229
0.0211289
-0.00401587
0.0197583
-0.00290555
0.0181113
-0.00178517
0.0162393
-0.000749141
0.0141881
0.000112466
0.0119973
0.000718657
0.00970146
0.00100148
0.00732987
0.000909142
0.00490797
0.000408413
0.00245801
-0.00051377
0
-0.00184931
-0.00244732
-0.00356863
-0.00486556
-0.00562102
-0.00723578
-0.00793567
-0.00953747
-0.0104235
-0.0117477
-0.01298
-0.0138401
-0.0154887
-0.015784
-0.017826
-0.017544
-0.0198664
-0.0190792
-0.0214894
-0.0203432
-0.0225856
-0.0212851
-0.0230642
-0.0218501
-0.0228596
-0.0219817
-0.0219365
-0.0216246
-0.0202946
-0.0207283
-0.0179707
-0.0192511
-0.0150376
-0.0171649
-0.0116015
-0.01446
-0.0077957
-0.0111495
-0.00727284
-0.00377152
-0.00333556
0.0159074
0.0016637
-0.00520889
0.021562
-0.00707845
0.0261908
-0.00875969
0.0297647
-0.0101005
0.0322983
-0.0109894
0.0338427
-0.0113603
0.0344771
-0.0111929
0.0342995
-0.0105109
0.0334183
-0.00937692
0.031945
-0.00788541
0.0299877
-0.00615475
0.0276464
-0.0043186
0.0250105
-0.00251734
0.0221566
-0.000890096
0.019148
0.000432414
0.0160358
0.00133401
0.0128595
0.00171806
0.00964885
0.00151146
0.00642565
0.000667642
0.00320557
-0.000831369
-8.76701e-15
-0.00297363
-0.00318217
-0.00571676
-0.00633277
-0.00898828
-0.00944263
-0.0126867
-0.0124997
-0.0166838
-0.0154873
-0.0208277
-0.0183821
-0.0249476
-0.0211523
-0.0288596
-0.0237559
-0.0323739
-0.0261394
-0.035303
-0.0282372
-0.0374711
-0.0299715
-0.0387237
-0.031254
-0.0389371
-0.0319886
-0.0380271
-0.0320754
-0.0359564
-0.0314169
-0.0327391
-0.0299248
-0.0284427
-0.0275281
-0.0231862
-0.0241819
-0.0171354
-0.0198752
-0.0146384
-0.0104936
-0.00714906
0.0267843
0.00452364
-0.00975537
0.0334526
-0.012121
0.038675
-0.0140595
0.0424519
-0.0154288
0.044841
-0.0161378
0.0459459
-0.0161483
0.0459035
-0.0154739
0.0448711
-0.0141757
0.0430146
-0.0123552
0.040498
-0.0101465
0.0374755
-0.00770622
0.034085
-0.00520432
0.030445
-0.00281446
0.0266524
-0.000705473
0.0227832
0.000966224
0.018893
0.00206308
0.0150201
0.00247164
0.0111876
0.00210665
0.00740663
0.000914224
0.00367895
-0.00112601
8.13808e-15
-0.00399941
-0.00363857
-0.00765571
-0.00724631
-0.0120091
-0.0108314
-0.0169391
-0.014398
-0.0222928
-0.0179434
-0.027888
-0.0214549
-0.0335174
-0.0249072
-0.0389553
-0.0282591
-0.0439647
-0.0314514
-0.0483061
-0.0344049
-0.0517483
-0.0370204
-0.0540788
-0.0391795
-0.0551152
-0.0407483
-0.0547156
-0.041582
-0.0527881
-0.0415334
-0.0492986
-0.0404618
-0.0442744
-0.0382448
-0.0378067
-0.0347902
-0.0300473
-0.030048
-0.0240213
-0.0212028
-0.0125058
0.0397672
0.00915197
-0.0155314
0.0468144
-0.0180322
0.0520395
-0.0198561
0.0554856
-0.0209015
0.057262
-0.0211207
0.0575299
-0.0205194
0.0564858
-0.019154
0.0543455
-0.0171253
0.0513296
-0.0145714
0.0476509
-0.0116582
0.043504
-0.00857011
0.0390593
-0.00550045
0.0344584
-0.00264221
0.0298128
-0.000179836
0.0252049
0.00171796
0.0206898
0.00290425
0.0162993
0.00325877
0.012045
0.00269179
0.00792263
0.00114699
0.00391588
-0.00139635
-1.76465e-20
-0.00492193
-0.00385479
-0.00937561
-0.00768
-0.0146653
-0.0115056
-0.0206616
-0.0153564
-0.0271993
-0.0192487
-0.0340802
-0.0231859
-0.0410773
-0.0271549
-0.0479399
-0.0311216
-0.0544011
-0.0350274
-0.0601861
-0.0387868
-0.0650224
-0.0422858
-0.0686506
-0.0453829
-0.0708359
-0.0479124
-0.0713796
-0.0496903
-0.0701296
-0.0505234
-0.0669895
-0.0502209
-0.0619255
-0.0486081
-0.0549709
-0.0455418
-0.0462265
-0.0409255
-0.0347235
-0.0358585
-0.0190924
0.0540576
0.0154333
-0.0220979
0.0608536
-0.0243097
0.0655316
-0.0256345
0.0681819
-0.0260287
0.0689662
-0.0254991
0.0681004
-0.0241006
0.0658355
-0.0219319
0.0624393
-0.0191295
0.0581793
-0.0158594
0.0533086
-0.0123092
0.0480547
-0.00867861
0.0426125
-0.00517143
0.03714
-0.0019869
0.0317572
0.000687432
0.0265478
0.00268195
0.0215623
0.00385026
0.016822
0.00407341
0.0123244
0.00326321
0.00804745
0.00136481
0.00395487
-0.00164136
-6.96219e-15
-0.0057382
-0.00386991
-0.010871
-0.00770989
-0.016947
-0.0115734
-0.0238358
-0.0155082
-0.0313703
-0.019552
-0.0393487
-0.0237276
-0.0475379
-0.0280377
-0.0556777
-0.0324601
-0.0634876
-0.0369427
-0.0706737
-0.0413999
-0.076938
-0.0457105
-0.0819885
-0.0497181
-0.0855501
-0.0532338
-0.0873755
-0.0560432
-0.0872561
-0.0579156
-0.0850318
-0.0586175
-0.0805995
-0.057928
-0.073919
-0.0556563
-0.0650174
-0.0516597
-0.0458598
-0.0539896
-0.0263278
0.0687271
0.0228951
-0.0288307
0.0747235
-0.0303368
0.0784056
-0.0308223
0.0799078
-0.0303064
0.0794381
-0.0288504
0.0772589
-0.0265543
0.073666
-0.0235523
0.0689686
-0.0200063
0.0634706
-0.0160998
0.0574555
-0.0120295
0.0511745
-0.00799865
0.0448392
-0.00420923
0.0386171
-0.000855392
0.0326317
0.00188257
0.0269637
0.0038433
0.0216558
0.00488866
0.0167174
0.00490715
0.0121304
0.00381667
0.00785482
0.00156662
0.00383406
-0.00186034
1.76465e-20
-0.00644697
-0.00372265
-0.0121405
-0.00741204
-0.018852
-0.0111449
-0.026456
-0.0149918
-0.0347917
-0.0190126
-0.0436631
-0.0232506
-0.0528426
-0.0277265
-0.0620737
-0.032433
-0.071076
-0.0373286
-0.079552
-0.0423331
-0.0871937
-0.047325
-0.0936923
-0.052141
-0.0987471
-0.0565786
-0.102076
-0.0604028
-0.103424
-0.0633564
-0.102577
-0.0651738
-0.0993658
-0.0655979
-0.0936751
-0.0643991
-0.0854508
-0.0613948
-0.0564675
-0.0747023
-0.0334269
0.082835
0.0307581
-0.0349861
0.0876214
-0.0354438
0.0899986
-0.0348431
0.0901371
-0.0332601
0.0882809
-0.0308019
0.0847275
-0.0276031
0.0798054
-0.0238215
0.0738532
-0.0196329
0.0672001
-0.0152253
0.0601497
-0.0107936
0.0529684
-0.00653276
0.0458769
-0.00263306
0.039047
0.000725674
0.0326009
0.00337837
0.0266142
0.00517871
0.0211199
0.00600234
0.016115
0.00574956
0.0115662
0.00434739
0.00741639
0.0017514
0.00359031
-0.00205286
8.82326e-21
-0.00704862
-0.0034505
-0.0131868
-0.00686054
-0.0203853
-0.0103283
-0.0285283
-0.013946
-0.0374666
-0.0177944
-0.0470178
-0.0219368
-0.0569681
-0.0264127
-0.0670749
-0.0312307
-0.0770698
-0.0363628
-0.0866643
-0.0417383
-0.0955549
-0.0472409
-0.103431
-0.0527072
-0.109982
-0.0579297
-0.114907
-0.0626631
-0.117922
-0.0666344
-0.11877
-0.0695576
-0.11723
-0.0711514
-0.113123
-0.0711586
-0.10632
-0.0693667
-0.0656273
-0.0967459
-0.0394945
0.0955406
0.0380349
-0.0397844
0.0988743
-0.0389778
0.0997932
-0.037172
0.0984931
-0.0344867
0.0952426
-0.0310608
0.0903617
-0.0270496
0.0841998
-0.0226211
0.0771134
-0.0179524
0.0694463
-0.013225
0.0615135
-0.00862089
0.0535886
-0.0043184
0.0458961
-0.000487953
0.0386072
0.00271148
0.0318405
0.00513559
0.0256645
0.00665755
0.0201028
0.00717032
0.0151404
0.00658855
0.0107302
0.00485028
0.00679999
0.00191824
0.00325831
-0.0022188
-5.44371e-15
-0.00754495
-0.00308874
-0.014016
-0.00612565
-0.0215587
-0.00922772
-0.0300695
-0.0125061
-0.0394149
-0.0160604
-0.0494306
-0.0199724
-0.0599231
-0.0242993
-0.0706705
-0.0290661
-0.0814255
-0.034259
-0.0919186
-0.0398193
-0.101862
-0.0456398
-0.110958
-0.0515626
-0.118899
-0.0573823
-0.125383
-0.0628513
-0.130112
-0.0676911
-0.132807
-0.0716062
-0.133212
-0.0743026
-0.131101
-0.0755069
-0.126287
-0.0749883
-0.0725773
-0.118627
-0.0436378
0.106195
0.0436629
-0.0425012
0.108002
-0.0403733
0.107458
-0.0373881
0.104771
-0.0336917
0.100225
-0.0294391
0.09415
-0.024792
0.0869067
-0.0199159
0.0788591
-0.0149779
0.0703573
-0.0101437
0.06172
-0.00557466
0.0532225
-0.00142573
0.0450884
0.00215756
0.0374859
0.00504118
0.0305284
0.00710472
0.0242771
0.00824318
0.0187466
0.00836849
0.0139117
0.00741088
0.00971379
0.00532006
0.00606809
0.00206633
0.00286985
-0.00235831
-8.82326e-21
-0.00793909
-0.00266978
-0.0146374
-0.00527229
-0.0223896
-0.00793998
-0.0311062
-0.0107998
-0.0406711
-0.0139676
-0.0509411
-0.017541
-0.0617462
-0.0215931
-0.0728902
-0.026164
-0.0841521
-0.0312543
-0.0952887
-0.0368182
-0.106038
-0.0427595
-0.116121
-0.0489298
-0.125252
-0.0551306
-0.133135
-0.061119
-0.13948
-0.0666185
-0.144001
-0.0713334
-0.146425
-0.0749663
-0.146504
-0.0772385
-0.144012
-0.0779106
-0.0768019
-0.138761
-0.0450832
0.114397
0.0466537
-0.0425552
0.114753
-0.0392162
0.112861
-0.0352186
0.10894
-0.0307179
0.103275
-0.0258709
0.0962012
-0.020833
0.0880787
-0.0157571
0.079273
-0.0107919
0.0701336
-0.0060803
0.0609778
-0.00175846
0.0520783
0.00204594
0.0436554
0.00521478
0.0358726
0.00764068
0.0288378
0.0092281
0.0226056
0.00989437
0.0171832
0.0095706
0.012537
0.00820252
0.00859955
0.00575142
0.00527657
0.00219498
0.00245327
-0.00247176
2.62804e-15
-0.00823533
-0.00222258
-0.0150628
-0.00435877
-0.0229005
-0.00655305
-0.0316731
-0.00894485
-0.0412826
-0.0116627
-0.0516077
-0.0148177
-0.0625032
-0.0184961
-0.0738006
-0.0227513
-0.0853083
-0.027597
-0.0968134
-0.0330002
-0.108084
-0.0388766
-0.11887
-0.0450892
-0.128911
-0.0514495
-0.137934
-0.0577238
-0.145664
-0.0636434
-0.151826
-0.0689187
-0.15615
-0.0732567
-0.158382
-0.0763811
-0.158282
-0.0780519
-0.0780851
-0.155638
-0.0432829
0.120012
0.0462383
-0.0395832
0.119099
-0.0352941
0.116065
-0.0305703
0.111126
-0.0255635
0.104568
-0.0204205
0.0967209
-0.0152817
0.087941
-0.0102804
0.0785888
-0.00554159
0.0690089
-0.00118233
0.0595138
0.00268902
0.0503714
0.00597291
0.0417968
0.00857886
0.0339488
0.0104258
0.0269302
0.0114422
0.0207901
0.0115669
0.0155303
0.0107492
0.0111113
0.00894926
0.00745939
0.00613925
0.00447385
0.00230364
0.002033
-0.00255977
0
-0.00843887
-0.00177215
-0.0153062
-0.00343584
-0.0231176
-0.00514415
-0.0318115
-0.0070456
-0.0413072
-0.00927839
-0.0515045
-0.0119637
-0.0622829
-0.0151983
-0.0735013
-0.0190468
-0.0849979
-0.023534
-0.0965913
-0.0286387
-0.108082
-0.0342883
-0.119252
-0.0403576
-0.129871
-0.0466701
-0.139696
-0.0530036
-0.148477
-0.0591007
-0.15596
-0.0646823
-0.161892
-0.0694648
-0.166026
-0.0731796
-0.16813
-0.0755919
-0.0765197
-0.167989
-0.0379964
0.123148
0.0419875
-0.033493
0.121213
-0.0286275
0.117285
-0.0235459
0.111578
-0.0183871
0.104369
-0.0132811
0.0959813
-0.00834823
0.0867633
-0.00369842
0.0770671
0.000568354
0.0672298
0.00436181
0.057557
0.00760083
0.0483104
0.0102128
0.0397001
0.0121333
0.0318802
0.0133056
0.0249493
0.0136802
0.0189529
0.0132153
0.0138892
0.0118765
0.00971516
0.00963707
0.00635365
0.00647872
0.00370022
0.00239192
0.00162935
-0.00262316
1.94305e-15
-0.0085557
-0.00133935
-0.0153832
-0.00254608
-0.0230703
-0.00377869
-0.0315676
-0.00519171
-0.0408105
-0.00692991
-0.0507182
-0.00912166
-0.0611929
-0.0118716
-0.072119
-0.0152529
-0.0833632
-0.0192997
-0.0947744
-0.0240006
-0.106184
-0.0292941
-0.117409
-0.0350665
-0.128248
-0.0411534
-0.138492
-0.0473456
-0.14792
-0.0533988
-0.156305
-0.0590468
-0.163417
-0.0640186
-0.169033
-0.0680562
-0.172934
-0.0709338
-0.0724745
-0.174919
-0.0293373
0.124095
0.0338905
-0.0244871
0.121407
-0.0194783
0.116847
-0.0144422
0.11062
-0.0095006
0.102995
-0.00476408
0.0942861
-0.000331249
0.0848308
0.00371111
0.0749713
0.00728743
0.0650357
0.0103324
0.055322
0.0127897
0.0460857
0.0146112
0.0375316
0.0157552
0.0298101
0.0161863
0.0230169
0.0158744
0.0171955
0.0147943
0.0123424
0.0129255
0.00841348
0.0102527
0.0053304
0.00676551
0.00298761
0.00245959
0.00125833
-0.00266291
-2.14499e-15
-0.00859235
-0.000940746
-0.0153106
-0.00172353
-0.0227897
-0.00250956
-0.030991
-0.00345664
-0.0398638
-0.00471339
-0.0493442
-0.00641272
-0.0593543
-0.0086646
-0.0698015
-0.0115484
-0.0805775
-0.0151056
-0.0915586
-0.019333
-0.102606
-0.0241786
-0.113565
-0.0295395
-0.124268
-0.0352633
-0.134534
-0.0411539
-0.144173
-0.0469809
-0.152987
-0.0524924
-0.160775
-0.057431
-0.167336
-0.0615519
-0.172474
-0.0646397
-0.0665252
-0.176009
-0.0177787
0.12325
0.0223799
-0.0130555
0.12007
-0.00833441
0.115121
-0.00373061
0.108603
0.000651816
0.100773
0.00472143
0.0919354
0.00839991
0.0824152
0.0116216
0.0725443
0.0143327
0.0626414
0.0164895
0.0529965
0.0180572
0.0438589
0.0190079
0.035429
0.0193197
0.0278545
0.0189746
0.0212293
0.0179587
0.0155965
0.0162604
0.0109529
0.0138709
0.00725492
0.0107839
0.00442534
0.00699593
0.00235957
0.00250663
0.000931735
-0.00268017
-1.66388e-15
-0.00855577
-0.000588618
-0.0151055
-0.000993725
-0.0223078
-0.00137698
-0.0301327
-0.00189713
-0.038541
-0.00270439
-0.0474829
-0.00393396
-0.0568972
-0.00569897
-0.0667105
-0.00808296
-0.0768358
-0.0111327
-0.087173
-0.0148517
-0.0976079
-0.0191962
-0.108013
-0.024073
-0.118247
-0.0293413
-0.128158
-0.0348176
-0.137582
-0.0402856
-0.146348
-0.0455081
-0.154281
-0.0502427
-0.161205
-0.0542582
-0.166947
-0.0573511
-0.0593612
-0.171346
-0.00411476
0.121025
0.00829849
6.40349e-05
0.117586
0.00412818
0.112466
0.00797775
0.105855
0.0115249
0.0980006
0.0146954
0.0891942
0.0174285
0.0797505
0.0196767
0.0699903
0.0214042
0.0602226
0.0225852
0.0507298
0.0232025
0.0417556
0.0232448
0.0334967
0.0227057
0.0260988
0.0215816
0.0196557
0.019871
0.0142111
0.0175736
0.00976369
0.0146897
0.00627222
0.0112203
0.00366211
0.00716704
0.00183154
0.00253317
0.00065729
-0.00267621
-3.38376e-16
-0.00845308
-0.000291141
-0.0147856
-0.000373933
-0.0216568
-0.00040867
-0.0290438
-0.000553246
-0.0369164
-0.000957613
-0.0452361
-0.00175747
-0.053955
-0.00306732
-0.0630148
-0.00497317
-0.0723461
-0.00752551
-0.0818676
-0.0107333
-0.0914856
-0.0145595
-0.101094
-0.01892
-0.110575
-0.0236845
-0.119798
-0.0286822
-0.128625
-0.0337106
-0.136905
-0.0385475
-0.144487
-0.0429656
-0.151215
-0.0467482
-0.156938
-0.0497047
-0.051685
-0.16151
0.0106161
-0.00718826
0.0139529
0.0171028
0.0199804
0.0225125
0.0246398
0.0263167
0.0275107
0.0282007
0.0283757
0.028032
0.0271717
0.0258002
0.0239254
0.0215554
0.0186985
0.0153622
0.0115529
0.00727678
0.00253958
-0.0026524
-0.00829149
-0.0143677
-0.0208677
-0.0277737
-0.0350624
-0.0427035
-0.0506594
-0.0588835
-0.0673197
-0.0759014
-0.0845508
-0.0931789
-0.101685
-0.109959
-0.117878
-0.125312
-0.132128
-0.138186
-0.14335
-0.147491
0.0380493
-0.135022
0.0278141
-0.147231
0.016149
-0.155975
0.00397601
-0.160461
-0.00768709
-0.1602
-0.0178545
-0.155068
-0.0256995
-0.145324
-0.0306631
-0.131591
-0.0325253
-0.114799
-0.0314309
-0.0960906
-0.0278617
-0.0767142
-0.0225634
-0.0579003
-0.0164349
-0.040748
-0.0104005
-0.0261281
-0.00528315
-0.0146162
-0.00170049
-0.00646183
-0.00159574
0.0382919
-0.12232
0.0286627
-0.132865
0.0177225
-0.140566
0.00626019
-0.144794
-0.00485287
-0.145138
-0.0147609
-0.141456
-0.0227226
-0.133888
-0.028199
-0.122855
-0.0309159
-0.109018
-0.0308938
-0.0932261
-0.0284411
-0.0764385
-0.0241093
-0.059643
-0.0186184
-0.0437708
-0.0127627
-0.0296204
-0.00730902
-0.0177968
-0.00290352
-0.00867241
-0.00237359
0.0375747
-0.109683
0.0286537
-0.118709
0.018544
-0.125426
0.00791307
-0.129333
-0.00250062
-0.130091
-0.0119617
-0.127549
-0.0198144
-0.121768
-0.0255521
-0.113015
-0.0288708
-0.101748
-0.0297007
-0.0885817
-0.028211
-0.074235
-0.0247867
-0.0594798
-0.0199816
-0.045079
-0.0144516
-0.0317294
-0.00887834
-0.0200119
-0.00389143
-0.0103525
-0.0029999
0.0359495
-0.0973617
0.0278049
-0.105017
0.0185954
-0.110814
0.00887948
-0.114359
-0.000723368
-0.11537
-0.00958785
-0.113701
-0.0171412
-0.109358
-0.0229178
-0.1025
-0.0266039
-0.0934315
-0.0280676
-0.0825832
-0.0273707
-0.070481
-0.0247602
-0.0577105
-0.020641
-0.0448767
-0.0155326
-0.0325623
-0.010014
-0.0212889
-0.00466355
-0.0114846
-0.00345856
0.0335206
-0.085562
0.0261879
-0.0919913
0.0179138
-0.096939
0.00915999
-0.100096
0.000441182
-0.101232
-0.00771655
-0.10021
-0.0148193
-0.0970029
-0.0204476
-0.0916934
-0.024293
-0.0844742
-0.026185
-0.0756364
-0.0261062
-0.0655525
-0.0241929
-0.0546537
-0.0207222
-0.0434038
-0.0160858
-0.0322709
-0.010753
-0.0216992
-0.00522738
-0.012083
-0.00374472
0.0304345
-0.0744414
0.0239201
-0.0797859
0.0165848
-0.0839586
0.00880667
-0.0867193
0.00100867
-0.0878803
-0.00637107
-0.0873196
-0.0129119
-0.0849902
-0.0182427
-0.0809248
-0.0220712
-0.0752363
-0.0242071
-0.0681125
-0.0245778
-0.0598075
-0.0232343
-0.0506282
-0.020348
-0.0409178
-0.0161964
-0.0310378
-0.0111406
-0.0213485
-0.0055965
-0.0121899
-0.00386426
0.0268669
-0.0641118
0.0211525
-0.0685055
0.0147329
-0.0719797
0.00791431
-0.0743488
0.00104122
-0.0754622
-0.00552535
-0.0752135
-0.0114314
-0.0735476
-0.0163541
-0.070465
-0.0200245
-0.0660239
-0.0222467
-0.0603381
-0.0229128
-0.053573
-0.0220116
-0.0459382
-0.0196298
-0.0376782
-0.0159476
-0.0290609
-0.0112258
-0.0203654
-0.0057886
-0.0118685
-0.00383228
0.0230084
-0.0546427
0.018056
-0.0582116
0.0125075
-0.061064
0.00660861
-0.0630579
0.000636941
-0.0640739
-0.00511291
-0.0640215
-0.0103465
-0.0628448
-0.0147872
-0.0605256
-0.0181936
-0.0570862
-0.0203747
-0.0525889
-0.0212032
-0.047135
-0.0206246
-0.0408608
-0.0186618
-0.0339327
-0.0154149
-0.0265406
-0.011057
-0.0188907
-0.00582373
-0.0111965
-0.00367083
0.0190495
-0.0460666
0.0148075
-0.0489272
0.0100701
-0.0512332
0.00503278
-0.052877
-8.27536e-05
-0.0537652
-0.00503848
-0.0538227
-0.00959221
-0.0529971
-0.0135103
-0.0512612
-0.0165806
-0.048615
-0.0186242
-0.045087
-0.0195065
-0.0407335
-0.0191458
-0.0356374
-0.0175186
-0.0299061
-0.0146634
-0.0236674
-0.0106793
-0.0170661
-0.00572276
-0.0102583
-0.00340627
0.0151684
-0.0383849
0.0115762
-0.0406435
0.0075802
-0.0424756
0.00333415
-0.0438005
-0.000986272
-0.0445461
-0.00519063
-0.0446518
-0.00908186
-0.0440712
-0.0124653
-0.0427741
-0.0151579
-0.0407484
-0.0169974
-0.0380014
-0.0178508
-0.0345594
-0.0176215
-0.0304685
-0.0162558
-0.0257929
-0.013746
-0.0206135
-0.0101331
-0.0150261
-0.00550627
-0.00913837
-0.00306676
0.0115202
-0.031574
0.00851339
-0.0333265
0.00518408
-0.034753
0.00165232
-0.0357938
-0.00194403
-0.0363944
-0.005454
-0.0365068
-0.00871894
-0.0360919
-0.0115787
-0.0351206
-0.0138782
-0.0335754
-0.0154741
-0.0314514
-0.0162408
-0.0287565
-0.0160772
-0.0255122
-0.014911
-0.021753
-0.0127037
-0.0175262
-0.00945274
-0.0128907
-0.00519369
-0.0079159
-0.00267992
0.00822993
-0.0255915
0.00574398
-0.0269232
0.00300624
-0.0280073
0.000109655
-0.0288007
-0.00283854
-0.0292627
-0.00571978
-0.0293564
-0.00840774
-0.0290503
-0.0107724
-0.0283186
-0.0126844
-0.0271428
-0.0140201
-0.0255121
-0.0146655
-0.023424
-0.0145217
-0.0208851
-0.0135082
-0.0179108
-0.0115673
-0.0145252
-0.00866689
-0.0107615
-0.00480276
-0.00666061
-0.0022711
0.00538934
-0.0203816
0.00336233
-0.0213675
0.00114377
-0.0221671
-0.00119508
-0.0227497
-0.00357162
-0.0230857
-0.0058937
-0.0231479
-0.00806187
-0.0229116
-0.00997197
-0.0223556
-0.0115181
-0.0214628
-0.0125957
-0.020221
-0.0131048
-0.0186229
-0.0129533
-0.0166666
-0.0120603
-0.0143564
-0.0103588
-0.0117021
-0.0077988
-0.00871952
-0.00434922
-0.00543045
-0.00186211
0.00305621
-0.0158801
0.00143095
-0.0165858
-0.000335759
-0.0171529
-0.00218989
-0.0175602
-0.00406855
-0.0177871
-0.005901
-0.0178139
-0.00761001
-0.0176224
-0.00911344
-0.0171962
-0.0103261
-0.0165212
-0.0111617
-0.0155858
-0.011535
-0.0143817
-0.0113643
-0.0129035
-0.0105734
-0.0111495
-0.00909371
-0.00912164
-0.00686696
-0.00682554
-0.00384665
-0.00427075
-0.00147062
0.00125695
-0.0120185
-1.79532e-05
-0.0125009
-0.00139365
-0.012882
-0.00282981
-0.013148
-0.00427926
-0.0132848
-0.00568862
-0.0132791
-0.00699893
-0.0131182
-0.00814669
-0.0127902
-0.00906483
-0.0122845
-0.00968403
-0.0115917
-0.00993402
-0.0107043
-0.00974503
-0.00961643
-0.00904931
-0.00832415
-0.00778264
-0.00682572
-0.0058859
-0.00512163
-0.00330654
-0.00321468
-0.00111006
-9.04391e-06
-0.00872782
-0.000978736
-0.0090362
-0.0020171
-0.00927286
-0.00309472
-0.00942907
-0.00417706
-0.00949614
-0.00522477
-0.00946554
-0.006194
-0.00932903
-0.00703693
-0.0090788
-0.00770237
-0.00870758
-0.00813643
-0.00820879
-0.0082833
-0.00757668
-0.00808617
-0.00680638
-0.0074881
-0.00589409
-0.00643305
-0.00483712
-0.00486686
-0.003634
-0.00273828
-0.00228455
-0.000789942
-0.000763863
-0.00594084
-0.00146729
-0.00611827
-0.00221475
-0.0062475
-0.00298561
-0.00632364
-0.00375556
-0.0063418
-0.0044967
-0.00629711
-0.00517772
-0.00618486
-0.00576414
-0.0060005
-0.00621855
-0.00573974
-0.00650106
-0.00539857
-0.00656962
-0.00497337
-0.0063806
-0.00446097
-0.00588923
-0.00385866
-0.00505025
-0.00316428
-0.00381847
-0.00237628
-0.00214942
-0.00149372
-0.000516377
-0.00104517
-0.00359451
-0.00151549
-0.00367902
-0.00201154
-0.00373442
-0.00251987
-0.00375845
-0.00302454
-0.00374881
-0.00350718
-0.00370328
-0.00394701
-0.00361964
-0.00432095
-0.0034958
-0.00460376
-0.00332973
-0.00476815
-0.00311955
-0.00478506
-0.00286352
-0.00462384
-0.00256008
-0.00425255
-0.00220789
-0.00363824
-0.00180581
-0.00274731
-0.00135296
-0.00154585
-0.000848735
-0.000292802
-0.000900535
-0.00163126
-0.00116568
-0.00165733
-0.00144344
-0.00167007
-0.00172632
-0.00166881
-0.00200542
-0.00165289
-0.00227044
-0.00162166
-0.00250965
-0.0015745
-0.00270992
-0.00151082
-0.00285682
-0.00143007
-0.00293459
-0.00133174
-0.00292632
-0.00121538
-0.00281396
-0.00108059
-0.00257853
-0.000927019
-0.00220017
-0.000754403
-0.00165838
-0.000562538
-0.000932111
-0.000351304
-0.00012066
-0.000382421
-2.40689e-18
-0.000465793
-1.90873e-18
-0.000552614
-2.04571e-18
-0.000640541
-1.99068e-18
-0.000726772
-1.54947e-18
-0.000808041
-1.47473e-18
-0.00088062
-1.40342e-18
-0.000940317
-1.05187e-18
-0.000982488
-7.31814e-19
-0.00100205
-5.22073e-19
-0.000993521
-2.95081e-19
-0.000951001
-2.96597e-19
-0.000868256
-3.68632e-19
-0.000738725
-2.58388e-19
-0.000555575
-1.31938e-19
-0.000311744
-5.28873e-20
-1.05832e-20
0.000455982
0.00134336
0.000534943
0.00133762
0.00061679
0.00132044
0.000699286
0.00129203
0.00077974
0.00125267
0.000855001
0.00120266
0.000921456
0.00114236
0.000975034
0.00107215
0.00101121
0.000992456
0.00102503
0.000903731
0.00101112
0.000806438
0.000963721
0.000701061
0.000876712
0.00058809
0.000743658
0.000468021
0.000557844
0.000341344
0.000312331
0.000208545
7.00938e-05
0.00156414
0.00243569
0.00178941
0.00239142
0.00202221
0.0023258
0.00225602
0.00224022
0.00248294
0.00213618
0.00269369
0.00201532
0.00287761
0.00187937
0.00302266
0.00173014
0.00311548
0.00156947
0.00314144
0.00139924
0.00308472
0.00122133
0.00292839
0.00103759
0.00265457
0.000849809
0.00224451
0.00065972
0.00167877
0.00046895
0.000937378
0.00027901
9.1271e-05
0.00289691
0.00330672
0.00325554
0.00318856
0.0036257
0.00304055
0.00399665
0.00286632
0.00435529
0.00266975
0.00468616
0.00245491
0.00497146
0.00222601
0.00519116
0.00198736
0.00532306
0.00174325
0.00534298
0.00149793
0.00522494
0.00125555
0.00494138
0.00102008
0.00446339
0.000795251
0.00376107
0.000584514
0.00280375
0.000390974
0.00156041
0.000217343
6.58993e-05
0.00441695
0.00397931
0.00489882
0.00374769
0.00539657
0.00347924
0.00589508
0.00318116
0.00637571
0.00286101
0.00681642
0.0025266
0.00719185
0.00218583
0.00747356
0.00184661
0.00763024
0.0015167
0.00762807
0.00120358
0.00743113
0.000914327
0.00700177
0.0006555
0.00630119
0.000433022
0.00528993
0.000252074
0.00392845
0.000117006
0.00217776
3.12471e-05
-2.75762e-06
0.006097
0.00446978
0.00669472
0.00407926
0.00731397
0.00364689
0.00793473
0.00318505
0.0085322
0.0027066
0.00907693
0.00222455
0.00953521
0.0017519
0.00986942
0.00130131
0.0100386
0.000884925
0.00999901
0.000514088
0.009705
0.000199154
0.00910965
-5.07344e-05
0.00816574
-0.000227824
0.0068266
-0.000325918
0.00504711
-0.000340508
0.00278463
-0.000268886
-0.000110214
0.00792216
0.00478841
0.00863107
0.0041861
0.00936924
0.00353955
0.010111
0.00286847
0.0108242
0.00219297
0.0114708
0.00153308
0.0120076
0.000908342
0.0123865
0.000337367
0.0125562
-0.00016259
0.0124628
-0.000576013
0.012051
-0.000889472
0.011266
-0.00109194
0.0100542
-0.00117507
0.00836491
-0.00113337
0.00615194
-0.000964387
0.00337478
-0.000668783
-0.00025036
0.00989215
0.00494006
0.0107104
0.00406399
0.0115683
0.00314507
0.0124333
0.00221303
0.0132645
0.0012977
0.0140136
0.000428222
0.0146259
-0.000367662
0.0150418
-0.00106435
0.0151983
-0.00163903
0.0150311
-0.00207228
0.0144762
-0.00234857
0.0134722
-0.0024567
0.0119623
-0.00239009
0.00989623
-0.002147
0.00723253
-0.00173063
0.00394012
-0.00114905
-0.000415072
0.0120235
0.00492484
0.0129517
0.00370251
0.0139332
0.00244406
0.0149268
0.00119272
0.0158807
-8.9122e-06
0.0167341
-0.00112011
0.0174187
-0.00210324
0.0178614
-0.00292485
0.0179868
-0.00355667
0.0177198
-0.00397645
0.0169888
-0.00416866
0.0157285
-0.00412493
0.013883
-0.00384436
0.0114083
-0.00333357
0.00827512
-0.00260651
0.00447053
-0.00168418
-0.000593967
0.0143509
0.00473911
0.0153921
0.00308616
0.0165035
0.00141129
0.017633
-0.000224361
0.0187154
-0.00176166
0.0196741
-0.0031455
0.0204251
-0.00432661
0.0208795
-0.00526328
0.0209483
-0.00592268
0.0205462
-0.00628205
0.0195958
-0.00632941
0.0180317
-0.00606398
0.0158046
-0.00549622
0.012884
-0.00464746
0.00926182
-0.0035492
0.00495356
-0.00224206
-0.000774395
0.0169278
0.00437668
0.0180866
0.0021959
0.0193355
1.75284e-05
0.0206088
-0.00207376
0.0218243
-0.00399774
0.0228866
-0.0056817
0.0236921
-0.00706323
0.0241347
-0.00809259
0.0241108
-0.00873458
0.0235257
-0.00896979
0.0222996
-0.00879537
0.0203722
-0.00822496
0.017708
-0.00728816
0.0142994
-0.00602924
0.0101698
-0.00450539
0.00537441
-0.00278437
-0.00094181
0.0198247
0.00383045
0.0211062
0.00101111
0.0225
-0.00176808
0.0239234
-0.00439185
0.0252731
-0.00675334
0.0264307
-0.00875876
0.0272701
-0.0103314
0.0276652
-0.0114149
0.0274979
-0.0119754
0.0266665
-0.012003
0.0250929
-0.0115121
0.0227295
-0.0105399
0.0195637
-0.00914537
0.0156219
-0.00740553
0.0109707
-0.00541234
0.00571587
-0.00326806
-0.00108059
0.0231265
0.00309454
0.0245341
-0.000487805
0.0260776
-0.003975
0.0276531
-0.00721231
0.0291312
-0.0100597
0.030366
-0.0123985
0.0312052
-0.0141375
0.0315011
-0.0152163
0.0311217
-0.0156088
0.0299618
-0.0153237
0.0279522
-0.0144031
0.0250668
-0.0129204
0.0213279
-0.0109759
0.0168082
-0.00869068
0.0116294
-0.00620053
0.00595847
-0.0036481
-0.00117536
0.0269256
0.00216685
0.0284592
-0.0023163
0.0301518
-0.00662763
0.0318734
-0.010562
0.0334634
-0.0139385
0.0347433
-0.0166099
0.0355308
-0.0184707
0.0356555
-0.0194623
0.0349739
-0.0195752
0.033383
-0.0188488
0.0308313
-0.0173681
0.0273266
-0.0152575
0.0229395
-0.0126726
0.0178025
-0.00979052
0.0121045
-0.00679827
0.00608085
-0.00388147
-0.00121272
0.0313142
0.00105202
0.0329671
-0.00448201
0.0347991
-0.00974117
0.0366493
-0.0144565
0.0383197
-0.018397
0.0395938
-0.0213834
0.0402563
-0.0232984
0.0401141
-0.0240929
0.0390162
-0.0237875
0.0368701
-0.0224691
0.0336542
-0.0202835
0.029425
-0.0174243
0.0243167
-0.0141181
0.0185357
-0.0106084
0.0123478
-0.00713802
0.00606035
-0.0039323
-0.00118338
0.0363738
-0.000235308
0.0381292
-0.00698081
0.0400785
-0.0133172
0.0420238
-0.0188952
0.0437238
-0.0234232
0.0449184
-0.0266866
0.0453569
-0.0285613
0.0448253
-0.0290196
0.0431715
-0.0281298
0.0403252
-0.0260481
0.0363102
-0.0230041
0.0312488
-0.0192807
0.0253561
-0.0151911
0.0189254
-0.0110532
0.012306
-0.00716416
0.0058739
-0.00377766
-0.00108429
0.0421627
-0.00166739
0.0439913
-0.00979283
0.0460193
-0.0173391
0.0480064
-0.0238565
0.0496615
-0.0289809
0.0506763
-0.03246
0.0507631
-0.0341701
0.049691
-0.0341222
0.0473166
-0.0324561
0.0436069
-0.0294247
0.0386502
-0.0253678
0.0326547
-0.0206803
0.0259335
-0.0157757
0.0188781
-0.0110489
0.0119221
-0.00684156
0.00549932
-0.00341336
-0.000920677
0.0487047
-0.00320061
0.0505613
-0.0128789
0.0526097
-0.0217681
0.054562
-0.0292941
0.0560711
-0.0350062
0.0567763
-0.0386128
0.0563534
-0.0400029
0.054561
-0.0392487
0.051278
-0.0365924
0.0465282
-0.0324169
0.0404872
-0.0272031
0.0334709
-0.0214804
0.0259073
-0.0157723
0.0182928
-0.0105453
0.0111393
-0.00616412
0.00491687
-0.00285907
-0.000707478
0.0559775
-0.00477366
0.0577992
-0.0161775
0.0597879
-0.0265403
0.0616033
-0.0351337
0.0628365
-0.0414044
0.0630716
-0.0450223
0.0619503
-0.0459051
0.0592308
-0.0442167
0.0548325
-0.0403403
0.0488598
-0.0348286
0.0416012
-0.0283379
0.0335041
-0.0215525
0.0251254
-0.015109
0.0170676
-0.00952822
0.00990478
-0.00516211
0.00411119
-0.00216177
-0.000469839
0.0639042
-0.00630705
0.0656102
-0.0196039
0.0674361
-0.0315644
0.0689859
-0.0412712
0.0697845
-0.0480498
0.069359
-0.0515333
0.0673223
-0.0516907
0.0634463
-0.0488168
0.0577136
-0.043483
0.0503376
-0.0364587
0.0417493
-0.0286107
0.0325498
-0.020795
0.0234356
-0.0137534
0.0151076
-0.00802874
0.00817539
-0.00390715
0.0030734
-0.00139671
-0.000242429
0.0723484
-0.00770434
0.0738411
-0.0230498
0.0753795
-0.0367224
0.0765099
-0.0475737
0.0766879
-0.0547862
0.0753841
-0.0579604
0.072191
-0.0571468
0.0669129
-0.052819
0.0596231
-0.0457944
0.0506772
-0.0371114
0.0406798
-0.0278831
0.030407
-0.0191455
0.0206985
-0.0117233
0.0123354
-0.00612951
0.00592366
-0.00251385