/*--------------------------------*- C++ -*----------------------------------*\
  =========                 |
  \\      /  F ield         | OpenFOAM: The Open Source CFD Toolbox
   \\    /   O peration     | Website:  https://openfoam.org
    \\  /    A nd           | Version:  6
     \\/     M anipulation  |
\*---------------------------------------------------------------------------*/
FoamFile
{
    version     2.0;
    format      ascii;
    class       volScalarField;
    location    "4.25";
    object      k;
}
// * * * * * * * * * * * * * * * * * * * * * * * * * * * * * * * * * * * * * //

dimensions      [0 2 -2 0 0 0 0];

internalField   nonuniform List<scalar> 
4214
(
0.0256523
0.0132626
0.00797161
0.00588503
0.00511662
0.00488307
0.00490653
0.00511525
0.00552659
0.00621424
0.00731166
0.00904423
0.0118283
0.0165963
0.0257615
0.0454226
0.0864746
0.158072
0.247971
0.330278
0.386014
0.379083
0.35346
0.348546
0.366282
0.397999
0.42914
0.434318
0.391414
0.309788
0.2197
0.140548
0.081212
0.0434963
0.0226417
0.0128362
0.00835246
0.00692305
0.0081235
0.0132978
0.0263715
0.0154041
0.00905818
0.00636958
0.00527658
0.00485854
0.0047455
0.0048091
0.00502602
0.00542761
0.00608759
0.00712559
0.00872199
0.0111603
0.0149659
0.0213751
0.0337567
0.0604197
0.114302
0.199165
0.294936
0.377096
0.418016
0.431395
0.411544
0.405757
0.425735
0.458572
0.468262
0.423186
0.332987
0.232626
0.146613
0.0839552
0.0450269
0.0236877
0.0132487
0.00840351
0.00641461
0.00627586
0.0079911
0.0124191
0.00970432
0.00689463
0.00555319
0.00495443
0.00471736
0.00467453
0.00477056
0.00500985
0.00543819
0.00614004
0.00724045
0.00890513
0.0113457
0.0148641
0.0200535
0.0285219
0.0448157
0.0788862
0.142054
0.230165
0.313318
0.36025
0.397424
0.405826
0.41848
0.451677
0.496873
0.514226
0.463697
0.358905
0.245711
0.151914
0.0858656
0.0459003
0.0243275
0.0135369
0.00848418
0.00624336
0.00560026
0.00614871
0.00798431
0.00755847
0.00596749
0.00516854
0.00479755
0.00465714
0.00466219
0.00479366
0.00507732
0.00558028
0.00641312
0.0077298
0.00971054
0.0125346
0.016365
0.0214154
0.0283051
0.0391701
0.0600771
0.102493
0.174831
0.262854
0.326473
0.372563
0.399776
0.425963
0.471115
0.530492
0.559944
0.50692
0.387371
0.260151
0.157614
0.0876662
0.0465084
0.0246772
0.0137335
0.00853882
0.00617255
0.00531152
0.00540479
0.00632335
0.00645342
0.00547094
0.00496157
0.00472311
0.0046477
0.00469516
0.00487305
0.00523209
0.00587432
0.00695885
0.00870084
0.011327
0.0150062
0.0197732
0.0255206
0.0322182
0.0405757
0.0536352
0.0793751
0.129853
0.207434
0.28508
0.338436
0.376474
0.414412
0.474843
0.55442
0.602908
0.551884
0.417937
0.275641
0.163591
0.0893695
0.046899
0.0248
0.0138079
0.00854675
0.00612562
0.00516243
0.00504308
0.00554128
0.00582224
0.00518909
0.00485425
0.00470284
0.00467806
0.00477016
0.00501312
0.00549213
0.00636615
0.00787539
0.0103448
0.0140886
0.0192815
0.0257869
0.0330931
0.0405625
0.0479817
0.056642
0.0711777
0.101686
0.15864
0.234508
0.299527
0.344565
0.388988
0.461832
0.564793
0.639638
0.596852
0.450447
0.292429
0.170244
0.0913084
0.0472683
0.0248163
0.0137879
0.0085121
0.00607707
0.0050698
0.00484328
0.00512408
0.00544851
0.00503058
0.00480932
0.00472099
0.00474182
0.0048877
0.0052251
0.00588888
0.00712901
0.00931176
0.0129464
0.018483
0.0261091
0.0354082
0.0452481
0.0542377
0.061411
0.0672063
0.0743815
0.0898626
0.124895
0.185022
0.254576
0.308592
0.356417
0.434566
0.559453
0.667262
0.639996
0.484168
0.310464
0.177813
0.0937336
0.047791
0.024833
0.0137265
0.00845249
0.00602404
0.00500341
0.00472127
0.00487903
0.00522847
0.00495025
0.00480793
0.00477013
0.00483843
0.00505516
0.00553167
0.00647348
0.0082734
0.0114791
0.0168973
0.0251531
0.0364325
0.0498245
0.0632361
0.0742926
0.0812913
0.0844443
0.0859602
0.0907816
0.107774
0.146965
0.208097
0.270262
0.322099
0.39837
0.538839
0.68354
0.679129
0.517799
0.329505
0.186402
0.0968759
0.0486529
0.0249636
0.013688
0.00839427
0.00597333
0.00495198
0.0046399
0.00472243
0.00510695
0.00492362
0.0048401
0.00484792
0.00497266
0.00528775
0.00597004
0.00732041
0.00995322
0.0146507
0.0226899
0.0348449
0.0512568
0.0701574
0.0880828
0.10149
0.107924
0.107847
0.103868
0.100439
0.10435
0.124575
0.16885
0.230553
0.287535
0.358805
0.50775
0.688261
0.712228
0.549713
0.348673
0.195788
0.100806
0.049996
0.0253064
0.0137315
0.00836743
0.00593738
0.00491392
0.0045823
0.00461434
0.00505264
0.00493706
0.00490172
0.00495686
0.00515594
0.00561028
0.00659525
0.00852827
0.0123677
0.0191459
0.03088
0.0482834
0.0714413
0.0972298
0.120458
0.136363
0.141601
0.137367
0.127337
0.116532
0.110822
0.11669
0.143029
0.194487
0.255788
0.324871
0.47665
0.68565
0.737595
0.577793
0.366386
0.205011
0.105162
0.0517478
0.0258711
0.0138656
0.00837921
0.0059214
0.00488928
0.0045405
0.00453463
0.00504749
0.00498376
0.0049935
0.0051045
0.00540784
0.00605805
0.00748256
0.0102146
0.0157556
0.0252874
0.0420184
0.0660003
0.0975675
0.131615
0.161039
0.179845
0.183325
0.174192
0.1582
0.139488
0.12496
0.120192
0.131816
0.168005
0.227331
0.300505
0.455762
0.681664
0.754611
0.599085
0.380003
0.212143
0.108752
0.0533128
0.0263835
0.0139622
0.00836518
0.00589758
0.00486823
0.00450892
0.00447333
0.00508194
0.00506228
0.00512145
0.00530407
0.00575768
0.0066755
0.00872792
0.0125012
0.0203809
0.0333267
0.0565705
0.0881963
0.130061
0.173969
0.210863
0.233548
0.234959
0.220326
0.195342
0.168367
0.145706
0.132442
0.133416
0.155006
0.204154
0.28485
0.450768
0.683669
0.764102
0.610367
0.386862
0.214974
0.109763
0.0535528
0.0263071
0.0138389
0.00828164
0.00585598
0.00484719
0.0044854
0.00442681
0.00515323
0.00517632
0.00529768
0.00557404
0.00624533
0.00750965
0.0104449
0.015484
0.0265132
0.0433494
0.0748885
0.114734
0.169525
0.22524
0.271058
0.299019
0.297745
0.27728
0.242525
0.204851
0.172929
0.151973
0.145296
0.156011
0.194601
0.286676
0.465784
0.694669
0.766128
0.60988
0.385417
0.212748
0.107933
0.0524439
0.0257124
0.0135405
0.00814687
0.00580491
0.00483053
0.00447186
0.00439514
0.00526566
0.00533446
0.00554075
0.0059344
0.00692022
0.00859478
0.0127588
0.0191835
0.0344096
0.0551843
0.0972997
0.14525
0.217015
0.285774
0.342233
0.376742
0.370492
0.343537
0.297462
0.248854
0.207527
0.178839
0.165993
0.169963
0.207156
0.309835
0.498823
0.712325
0.760641
0.597599
0.375366
0.205553
0.103582
0.0501893
0.0246599
0.0130749
0.00796074
0.0057442
0.00481859
0.00446925
0.0043798
0.00543032
0.00554674
0.0058742
0.00639651
0.00783857
0.00992327
0.0158
0.0234742
0.0443189
0.0683326
0.124283
0.179121
0.273538
0.354258
0.42392
0.465097
0.448808
0.413947
0.354575
0.296371
0.248451
0.213405
0.195765
0.196422
0.243748
0.359438
0.547903
0.731694
0.74473
0.572607
0.356501
0.193416
0.0968568
0.0468836
0.0231759
0.0124492
0.00772243
0.00567303
0.00481163
0.00447849
0.00438196
0.00565878
0.00581293
0.00632311
0.00694217
0.00906237
0.0113978
0.0197077
0.027992
0.0565166
0.0819006
0.156566
0.215337
0.339985
0.429352
0.514116
0.560363
0.52527
0.481469
0.408083
0.344053
0.294133
0.254049
0.239367
0.246969
0.314946
0.436988
0.606106
0.741249
0.712671
0.533876
0.329912
0.176276
0.0881383
0.0425903
0.02133
0.0116705
0.0074343
0.00558952
0.00480871
0.00450009
0.00440227
0.0059496
0.00609886
0.00691612
0.00748629
0.0106705
0.0127587
0.024661
0.0320273
0.0713891
0.0944558
0.195033
0.251745
0.417747
0.510575
0.608322
0.657713
0.590456
0.537655
0.455867
0.394469
0.353623
0.318088
0.319941
0.34587
0.414115
0.523508
0.662771
0.749414
0.677608
0.487386
0.307239
0.158525
0.0836522
0.0383666
0.0204134
0.0108508
0.00727616
0.00550187
0.00483525
0.00453575
0.00444614
0.00443784
0.00440263
0.00439489
0.0044125
0.00445471
0.00452053
0.00460948
0.00472367
0.00487114
0.00507028
0.00535854
0.00581297
0.0065989
0.00811235
0.0114622
0.021421
0.0557239
0.00448021
0.00445487
0.00446062
0.00449637
0.00456277
0.00466055
0.00479164
0.00496031
0.00517722
0.00546544
0.00587168
0.00648894
0.00751264
0.00939289
0.0132966
0.0230517
0.0591826
0.00454965
0.00453366
0.00455249
0.00460698
0.0046997
0.00483414
0.00501539
0.00525153
0.00555732
0.0059617
0.0065206
0.00734238
0.00864918
0.0109264
0.0153602
0.0255061
0.0612267
0.00463499
0.00462917
0.00466137
0.00473506
0.00485562
0.00502999
0.00526766
0.00558201
0.00599396
0.00653915
0.00728336
0.00834912
0.00997755
0.0126701
0.0175923
0.0281284
0.0631671
0.00473411
0.00473669
0.00478138
0.00487345
0.00502119
0.00523558
0.00553176
0.0059296
0.00645787
0.00716117
0.00811478
0.00945285
0.0114273
0.0145399
0.019931
0.0308854
0.0651048
0.00484098
0.00485229
0.00490795
0.00501576
0.00518699
0.00543729
0.00578749
0.00626522
0.00690861
0.00777297
0.00894501
0.010568
0.0128998
0.016436
0.0223065
0.0339002
0.0671662
0.00495715
0.00497401
0.00503763
0.00515688
0.00534526
0.00562258
0.00601526
0.00655939
0.00730285
0.00831336
0.00968978
0.0115881
0.0142709
0.0182398
0.0246796
0.0374852
0.0693648
0.00507864
0.0050999
0.0051684
0.00529356
0.00549085
0.00578273
0.00620055
0.00678732
0.00760222
0.00872513
0.0102707
0.01241
0.0154236
0.0198496
0.0270869
0.0426144
0.071744
0.00520796
0.00523023
0.0052995
0.00542502
0.00562246
0.00591521
0.00633739
0.00693771
0.00778306
0.00896782
0.0106237
0.0129463
0.0162515
0.0211672
0.0295324
0.0506307
0.0742822
0.00534392
0.005365
0.00543184
0.00555269
0.00574253
0.0060239
0.00643099
0.0070145
0.00784683
0.00903279
0.0107224
0.0131416
0.0166627
0.022051
0.0318854
0.056808
0.0768659
0.00548864
0.00550631
0.00556749
0.00567978
0.00585638
0.00611742
0.00649439
0.00703578
0.00781498
0.00894156
0.0105799
0.0129846
0.0165864
0.0222807
0.0330679
0.0564919
0.0792148
0.00564308
0.00565538
0.00570903
0.00581033
0.00597047
0.00620647
0.00654524
0.00702963
0.00772739
0.00874495
0.01025
0.0125135
0.0160039
0.0216824
0.0323533
0.0542624
0.0812038
0.00580872
0.00581477
0.0058593
0.00594829
0.00609097
0.00630124
0.00660075
0.00702461
0.00763035
0.00851282
0.00982981
0.0118494
0.0150516
0.0204143
0.0304876
0.0515387
0.0827751
0.00598675
0.00598597
0.00602084
0.00609697
0.00622239
0.00640861
0.00667264
0.00704182
0.00756151
0.00830943
0.00942188
0.0111445
0.0139415
0.0187815
0.028059
0.0483813
0.0838534
0.00617665
0.00616983
0.0061953
0.00625864
0.00636737
0.0065317
0.00676552
0.00709004
0.00753971
0.00817391
0.00910081
0.0105273
0.0128709
0.0170497
0.0253942
0.0448056
0.0843374
0.00637747
0.00636632
0.00638331
0.00643436
0.00652699
0.00667103
0.00687884
0.00716801
0.00756522
0.00811468
0.00889677
0.0100715
0.0119847
0.0154577
0.0227191
0.0409169
0.0841014
0.00658726
0.00657379
0.00658413
0.00662418
0.00670162
0.00682628
0.00701028
0.00726984
0.00762763
0.00811821
0.00880057
0.00979084
0.0113524
0.0141676
0.0202722
0.0368815
0.0830386
0.00680416
0.00679102
0.00679681
0.0068277
0.00689123
0.00699725
0.00715809
0.00739002
0.00771472
0.00816252
0.00878005
0.00965148
0.010965
0.0132433
0.018231
0.0328802
0.0811049
0.00702734
0.00701638
0.00702016
0.00704429
0.00709573
0.00718406
0.00732177
0.00752557
0.00781766
0.00822799
0.0087989
0.00959711
0.010756
0.0126482
0.0166749
0.029258
0.0783484
0.00725622
0.00725001
0.00725429
0.00727434
0.00731614
0.00738847
0.00750346
0.00767797
0.007935
0.00830595
0.00883381
0.00958006
0.0106482
0.012296
0.015587
0.026155
0.0749294
0.00749208
0.00749249
0.00749999
0.0075191
0.00755444
0.00761361
0.0077077
0.00785291
0.0080724
0.00839895
0.00887841
0.00957464
0.0105824
0.0120899
0.0148773
0.0236186
0.0711286
0.00773607
0.00774565
0.00775933
0.00778087
0.00781352
0.00786348
0.00794024
0.00805844
0.00824018
0.00851848
0.00894168
0.00957892
0.0105293
0.011951
0.0144094
0.0217875
0.067304
0.00799023
0.00801182
0.00803479
0.00806234
0.00809647
0.00814193
0.00820634
0.00830214
0.00844919
0.00867892
0.00904022
0.00960698
0.0104883
0.0118424
0.0141094
0.0204672
0.0637844
0.0082562
0.0082928
0.0083286
0.00836606
0.00840617
0.00845235
0.00851036
0.00859018
0.00870863
0.00889394
0.00919297
0.00968142
0.0104783
0.0117582
0.0139083
0.0195743
0.060803
0.00853508
0.00859068
0.0086429
0.0086943
0.00874508
0.00879751
0.00885566
0.00892704
0.00902512
0.00917387
0.00941577
0.00982453
0.0105252
0.0117138
0.0137764
0.0190187
0.0584719
0.00882784
0.00890572
0.00897848
0.00904825
0.00911476
0.00917935
0.00924458
0.00931575
0.00940302
0.00952564
0.00972006
0.0100544
0.0106542
0.0117341
0.0137091
0.0186952
0.0568232
0.00913398
0.00923897
0.00933626
0.00942888
0.00951634
0.00959924
0.00967887
0.00975854
0.00984529
0.00995373
0.0101135
0.0103844
0.0108864
0.0118451
0.0137168
0.0185354
0.0558422
0.00945497
0.00958975
0.009716
0.00983643
0.00995051
0.0100582
0.0101599
0.0102572
0.0103544
0.0104616
0.0106016
0.0108243
0.0112388
0.0120722
0.0138184
0.0185187
0.0554861
0.0097893
0.00995928
0.0101189
0.0102722
0.0104186
0.0105579
0.0106896
0.0108139
0.0109328
0.0110526
0.0111893
0.0113822
0.0117259
0.0124382
0.0140384
0.0186351
0.0556998
0.010139
0.0103473
0.0105457
0.0107377
0.010923
0.0111011
0.0112709
0.0114319
0.0115843
0.011731
0.0118822
0.0120665
0.0123617
0.0129666
0.0144069
0.0188855
0.0564235
0.0105046
0.0107567
0.0109994
0.0112363
0.0114674
0.011692
0.0119089
0.0121168
0.0123147
0.0125032
0.0126875
0.0128867
0.0131608
0.0136824
0.0149592
0.0192833
0.057595
0.0108898
0.0111894
0.0114831
0.0117724
0.0120573
0.0123372
0.0126108
0.0128765
0.0131328
0.0133787
0.0136159
0.0138556
0.0141407
0.014613
0.0157384
0.0198577
0.0591536
0.0112976
0.0116506
0.012002
0.0123519
0.0126998
0.013045
0.0133862
0.013722
0.0140508
0.014371
0.0146825
0.0149906
0.0153238
0.0157914
0.0167982
0.0206597
0.0610368
0.0117332
0.0121446
0.0125617
0.0129814
0.0134029
0.013825
0.0142466
0.0146669
0.0150846
0.0154988
0.0159086
0.0163165
0.0167403
0.0172596
0.0182047
0.0217718
0.0631688
0.0122008
0.0126786
0.0131691
0.0136688
0.0141756
0.0146881
0.0152056
0.0157276
0.0162542
0.0167858
0.0173229
0.0178677
0.0184324
0.0190733
0.0200429
0.0233175
0.0654451
0.0127049
0.0132582
0.013832
0.0144227
0.0150279
0.0156464
0.0162778
0.0169226
0.0175829
0.0182615
0.0189624
0.0196909
0.0204591
0.0213096
0.0224263
0.0254796
0.0677189
0.0132486
0.0138896
0.0145584
0.0152528
0.0159712
0.0167132
0.0174796
0.0182729
0.0190979
0.0199618
0.0208742
0.021848
0.0229023
0.0240783
0.0255126
0.0285247
0.0698145
0.0138332
0.0145762
0.0153552
0.0161692
0.0170183
0.017904
0.0188299
0.0198023
0.0208309
0.0219295
0.0231174
0.0244206
0.0258748
0.0275368
0.0295293
0.0328196
0.0715809
0.0144584
0.0153198
0.0162272
0.0171808
0.0181824
0.0192367
0.0203518
0.0215402
0.0228202
0.0242173
0.0257667
0.0275166
0.0295337
0.0319137
0.034813
0.0389357
0.0728961
0.0151234
0.0161202
0.0171762
0.0182929
0.0194746
0.0207297
0.0220723
0.0235241
0.0251166
0.0268945
0.0289205
0.0312824
0.0341004
0.0375454
0.0419012
0.0477745
0.0737094
0.0096856
0.00984822
0.0100741
0.0102615
0.0105379
0.0107579
0.0110854
0.0113434
0.0117156
0.0120176
0.0124264
0.0127802
0.0132233
0.0136446
0.0141308
0.0146145
0.0151126
0.0156204
0.0161412
0.0166714
0.0173074
0.0178847
0.0183941
0.0188679
0.0192984
0.0196735
0.0199812
0.0202106
0.0203528
0.020401
0.020352
0.0202059
0.0199658
0.019638
0.0192317
0.018758
0.0182296
0.0176596
0.0170614
0.0164473
0.0158289
0.0101607
0.0103421
0.0105521
0.0107722
0.0110291
0.0112935
0.0115996
0.011911
0.0122647
0.012624
0.0130228
0.0134326
0.0138808
0.014354
0.0148637
0.0153885
0.0159209
0.0164706
0.0170362
0.0176184
0.0183143
0.0189614
0.0195354
0.0200743
0.0205689
0.0210056
0.0213705
0.0216506
0.0218349
0.021915
0.0218862
0.0217477
0.0215024
0.0211569
0.0207209
0.020207
0.0196293
0.0190028
0.0183427
0.0176633
0.0169777
0.0107362
0.0109248
0.0111371
0.0113712
0.0116328
0.0119175
0.0122313
0.0125675
0.0129318
0.0133176
0.0137308
0.0141689
0.0146411
0.0151517
0.0156973
0.0162568
0.0168278
0.0174219
0.0180371
0.0186745
0.0194349
0.0201559
0.0207991
0.0214076
0.0219711
0.022474
0.0229001
0.0232342
0.023463
0.0235763
0.0235677
0.0234353
0.0231816
0.0228135
0.0223416
0.0217799
0.0211443
0.020452
0.0197203
0.0189655
0.0182027
0.0114483
0.0116391
0.0118552
0.0120972
0.012367
0.0126638
0.0129882
0.0133388
0.0137158
0.0141184
0.0145493
0.0150131
0.0155189
0.01607
0.0166501
0.01724
0.0178531
0.018495
0.0191637
0.0198604
0.0206887
0.0214874
0.0222038
0.0228863
0.0235229
0.0240959
0.0245868
0.0249777
0.0252529
0.0254001
0.0254107
0.025282
0.0250158
0.0246192
0.024104
0.0234857
0.0227825
0.0220138
0.0211995
0.0203584
0.0195078
0.0123462
0.0125296
0.0127421
0.012984
0.0132557
0.0135567
0.0138863
0.0142439
0.0146299
0.0150462
0.0154981
0.0159948
0.0165438
0.0171353
0.0177421
0.0183634
0.0190215
0.0197148
0.0204408
0.0212005
0.0220997
0.0229793
0.0237725
0.0245326
0.0252458
0.0258922
0.0264504
0.0269001
0.0272227
0.0274034
0.0274317
0.0273032
0.0270193
0.0265875
0.0260206
0.0253361
0.0245544
0.023698
0.0227895
0.0218506
0.020901
0.0134924
0.0136487
0.0138408
0.0140682
0.0143299
0.0146246
0.0149516
0.0153111
0.0157051
0.0161386
0.0166207
0.01716
0.0177509
0.0183671
0.0189955
0.0196583
0.0203644
0.0211121
0.0218988
0.0227249
0.0236971
0.0246598
0.0255327
0.0263731
0.0271654
0.0278872
0.0285145
0.0290238
0.0293938
0.0296067
0.0296498
0.0295173
0.0292098
0.0287352
0.0281075
0.0273463
0.026475
0.0255192
0.0245046
0.0234562
0.0223964
0.0149687
0.0150684
0.0152141
0.0154055
0.0156405
0.0159172
0.0162347
0.0165949
0.0170026
0.0174657
0.0179906
0.01857
0.0191786
0.019801
0.020457
0.0211638
0.0219207
0.0227255
0.0235754
0.0244706
0.025517
0.0265637
0.0275177
0.0284399
0.0293125
0.0301106
0.0308072
0.0313758
0.0317918
0.0320345
0.0320887
0.031947
0.0316093
0.0310836
0.0303857
0.0295375
0.0285654
0.0274985
0.0263664
0.0251974
0.024017
0.0168892
0.0169074
0.0169799
0.0171105
0.0172993
0.0175459
0.0178509
0.0182169
0.0186476
0.0191416
0.0196848
0.020255
0.0208472
0.0214826
0.0221767
0.0229293
0.0237389
0.024603
0.0255182
0.026484
0.0276042
0.0287338
0.0297691
0.0307729
0.0317252
0.0325985
0.033363
0.0339887
0.0344479
0.0347167
0.0347774
0.0346207
0.0342457
0.033661
0.0328837
0.0319385
0.0308551
0.0296666
0.0284066
0.0271072
0.0257971
0.0193124
0.019274
0.0192829
0.0193524
0.0194894
0.0196984
0.0199803
0.0203307
0.0207384
0.0211901
0.0216807
0.0222193
0.0228196
0.0234862
0.0242193
0.0250183
0.0258816
0.0268059
0.0277871
0.0288236
0.0300153
0.0312244
0.0323387
0.0334215
0.0344506
0.0353958
0.0362243
0.036903
0.0374008
0.0376908
0.0377524
0.0375745
0.0371556
0.0365044
0.0356398
0.0345892
0.033386
0.0320673
0.0306712
0.0292338
0.0277871
0.0220718
0.0220306
0.022024
0.0220648
0.0221601
0.0223138
0.0225272
0.0228016
0.0231397
0.0235459
0.0240232
0.0245733
0.0251973
0.0258957
0.0266682
0.0275137
0.0284301
0.0294138
0.0304595
0.0315646
0.0328229
0.0341046
0.0352927
0.0364488
0.0375484
0.0385588
0.0394446
0.0401696
0.0406994
0.041004
0.0410605
0.0408556
0.0403869
0.0396636
0.0387062
0.0375448
0.0362166
0.0347629
0.0332261
0.0316466
0.0300599
0.0251035
0.0250335
0.0249991
0.0250108
0.0250755
0.0251996
0.0253888
0.0256478
0.0259803
0.0263893
0.0268769
0.0274446
0.0280935
0.0288238
0.0296351
0.0305257
0.0314927
0.032532
0.0336378
0.0348055
0.0361215
0.0374644
0.0387165
0.0399356
0.0410949
0.0421597
0.043092
0.0438532
0.0444059
0.0447174
0.0447622
0.0445253
0.0440034
0.0432059
0.0421546
0.0408822
0.0394295
0.0378416
0.0361654
0.0344453
0.0327203
0.0287737
0.0286593
0.0285889
0.0285721
0.0286148
0.0287228
0.0289014
0.0291554
0.0294887
0.0299045
0.0304051
0.0309919
0.0316658
0.0324268
0.0332738
0.0342049
0.0352166
0.0363037
0.0374597
0.0386786
0.0400369
0.0414233
0.0427231
0.0439882
0.0451899
0.0462921
0.047255
0.0480378
0.0486013
0.0489103
0.0489373
0.0486657
0.0480912
0.047223
0.0460841
0.0447089
0.0431411
0.0414294
0.0396243
0.0377739
0.0359206
0.0333736
0.0332046
0.0330908
0.0330406
0.0330588
0.0331504
0.0333196
0.0335704
0.0339063
0.0343299
0.0348432
0.0354473
0.0361425
0.0369284
0.0378034
0.0387646
0.039808
0.0409276
0.0421159
0.0433656
0.0447412
0.0461432
0.0474645
0.0487487
0.0499663
0.0510802
0.05205
0.0528342
0.0533922
0.0536878
0.0536921
0.0533871
0.0527673
0.0518416
0.0506329
0.0491767
0.0475181
0.045708
0.0437996
0.0418437
0.0398858
0.0392874
0.0390575
0.038895
0.0388066
0.0387964
0.0388678
0.0390244
0.0392688
0.0396032
0.0400294
0.0405483
0.0411602
0.0418646
0.0426603
0.0435449
0.0445148
0.0455649
0.0466885
0.0478772
0.0491222
0.0504746
0.0518487
0.0531498
0.0544116
0.0556042
0.0566914
0.0576337
0.0583905
0.0589218
0.0591916
0.0591706
0.0588402
0.0581937
0.0572388
0.0559971
0.0545032
0.0528018
0.0509439
0.0489831
0.0469715
0.0449568
0.0470848
0.0467975
0.046589
0.0464627
0.046422
0.0464692
0.0466063
0.0468349
0.0471555
0.0475684
0.0480735
0.0486697
0.0493554
0.0501282
0.0509847
0.0519207
0.0529302
0.054006
0.0551389
0.056319
0.0575822
0.0588597
0.0600745
0.0612485
0.0623536
0.0633565
0.064221
0.0649097
0.0653858
0.0656156
0.0655713
0.0652345
0.0645977
0.0636662
0.0624587
0.0610063
0.0593499
0.0575371
0.0556189
0.0536456
0.0516657
0.0576471
0.0573298
0.057096
0.0569452
0.0568796
0.0569005
0.0570084
0.0572033
0.0574845
0.0578509
0.0583007
0.0588317
0.0594411
0.0601256
0.0608811
0.0617025
0.0625838
0.0635178
0.0644959
0.0655079
0.0665735
0.0676447
0.068667
0.0696504
0.0705713
0.0714023
0.072114
0.0726758
0.0730576
0.0732312
0.0731732
0.072867
0.0723047
0.0714889
0.070433
0.0691609
0.0677052
0.0661053
0.0644041
0.0626453
0.0608742
0.0724016
0.0721354
0.071939
0.0718068
0.0717402
0.0717395
0.0718043
0.0719335
0.0721254
0.072378
0.072689
0.0730555
0.0734747
0.0739432
0.0744572
0.0750124
0.0756042
0.0762269
0.0768743
0.077539
0.0782263
0.078912
0.0795685
0.0801962
0.0807803
0.0813039
0.081749
0.0820969
0.0823289
0.0824274
0.0823774
0.0821675
0.0817915
0.0812489
0.0805463
0.0796964
0.0787183
0.0776357
0.0764754
0.0752657
0.0740418
0.0517326
0.0303824
0.0150938
0.0104117
0.0081566
0.00689458
0.00614534
0.00569007
0.00541514
0.00525687
0.00517827
0.00515775
0.00518378
0.0052536
0.00537348
0.00555004
0.00575849
0.0564121
0.0366074
0.0179993
0.0121641
0.00931201
0.00768843
0.006707
0.00609782
0.00571758
0.00548472
0.00535111
0.00528786
0.00527816
0.00531452
0.00539857
0.00553906
0.00573186
0.059558
0.0457244
0.0213157
0.0141077
0.0106121
0.0085906
0.00734753
0.00656145
0.00605896
0.00573949
0.00554307
0.00543247
0.00538534
0.00538926
0.00544036
0.00554344
0.00570679
0.0625867
0.0556287
0.024796
0.01614
0.0119932
0.00956081
0.00803934
0.00706082
0.00642421
0.0060103
0.00574626
0.00558602
0.00550103
0.00547404
0.00549603
0.00556453
0.00568089
0.0657434
0.0645481
0.0282734
0.0181614
0.0133796
0.0105429
0.00874101
0.00756647
0.00679283
0.00628308
0.00595126
0.00574213
0.00562062
0.00556495
0.00556229
0.00560634
0.00569516
0.0692255
0.0698564
0.0315656
0.0200558
0.0146802
0.0114644
0.00939864
0.00803955
0.0071379
0.00653974
0.00614625
0.00589307
0.00573892
0.00565789
0.00563392
0.00565799
0.00572636
0.073125
0.0718105
0.0344357
0.0216787
0.0157872
0.0122418
0.00995066
0.00843742
0.00743116
0.00676197
0.00631935
0.00603122
0.00585098
0.00574936
0.00570797
0.00571575
0.00577121
0.0773493
0.0710131
0.036368
0.022878
0.0165879
0.0127927
0.0103394
0.00872205
0.0076483
0.00693473
0.00646127
0.00615048
0.00595274
0.0058366
0.00578215
0.00577656
0.00581525
0.0815903
0.0682357
0.0369662
0.0234839
0.0169813
0.0130518
0.0105251
0.00886986
0.00777593
0.00704995
0.00656696
0.0062477
0.00604185
0.00591782
0.00585504
0.00584001
0.0058637
0.0854228
0.0645058
0.0362155
0.0233591
0.016907
0.0129912
0.0104982
0.00887916
0.00781517
0.00710872
0.00663694
0.0063228
0.00611807
0.00599255
0.00592596
0.00590528
0.00592258
0.0884525
0.0605266
0.03436
0.0225668
0.0163744
0.0126391
0.0102861
0.00877109
0.00777854
0.00711844
0.00667499
0.0063774
0.00618171
0.00606046
0.00599475
0.00597159
0.00598274
0.0904917
0.056352
0.0318338
0.0212545
0.0154949
0.0120671
0.00993874
0.00857922
0.00768896
0.00709369
0.00669036
0.00641722
0.00623626
0.00612343
0.00606165
0.00603891
0.00604572
0.0915577
0.0518123
0.0293394
0.0196136
0.0144167
0.0113864
0.00953205
0.00835281
0.00757702
0.00705315
0.00669438
0.0064493
0.00628614
0.00618428
0.00612847
0.00610775
0.00611292
0.0917101
0.0470857
0.0266939
0.0178874
0.0133088
0.0107084
0.00913636
0.00813461
0.0074684
0.00701256
0.00669703
0.00648021
0.00633577
0.00624598
0.00619706
0.0061791
0.00618324
0.0909708
0.0428089
0.0241084
0.0162255
0.0122921
0.0101123
0.00879853
0.00795169
0.00737938
0.00698253
0.00670579
0.00651542
0.00638916
0.00631133
0.00626935
0.00625414
0.00625714
0.0893446
0.0385846
0.0215937
0.0147324
0.0114426
0.00963953
0.00853918
0.0078152
0.00731742
0.00696903
0.00672575
0.00655921
0.00644972
0.00638293
0.00634719
0.00633419
0.00633558
0.0868988
0.0349771
0.0193197
0.0135004
0.0107971
0.00929884
0.00835858
0.00772513
0.00728429
0.0069752
0.0067605
0.0066149
0.00652019
0.00646287
0.00643207
0.00642
0.0064189
0.0836939
0.0313545
0.0174518
0.0125886
0.0103546
0.00907539
0.00824528
0.00767635
0.00727942
0.00700283
0.00681267
0.00668515
0.00660285
0.0065529
0.00652512
0.00651235
0.0065075
0.0798567
0.0280646
0.0159525
0.0119604
0.0100761
0.0089419
0.00818542
0.00766407
0.0073027
0.00705373
0.00688456
0.00677208
0.00669943
0.0066543
0.00662728
0.00661196
0.006602
0.0755849
0.0251846
0.0148655
0.0115675
0.00991615
0.00887308
0.00816845
0.00768543
0.0073546
0.00712946
0.00697781
0.006877
0.00681081
0.00676763
0.00673887
0.00671882
0.00670226
0.0711588
0.0227754
0.0141291
0.0113391
0.00983283
0.00885036
0.00818768
0.00773882
0.00743536
0.00723078
0.00709321
0.00700061
0.00693757
0.00689331
0.00686018
0.00683336
0.00680852
0.066905
0.0209336
0.0136739
0.0112169
0.0097995
0.00886469
0.00824115
0.00782466
0.007546
0.00735868
0.00723147
0.00714332
0.00707985
0.00703135
0.00699126
0.00695571
0.00692095
0.0631174
0.0196539
0.0134212
0.0111646
0.00980652
0.00891596
0.00833099
0.00794506
0.00768809
0.00751408
0.00739301
0.00730517
0.0072375
0.00718149
0.00713174
0.00708501
0.00703869
0.0599932
0.0188394
0.0133
0.011159
0.00985027
0.00900546
0.00845917
0.00810152
0.00786237
0.00769712
0.00757757
0.00748577
0.00741014
0.00734352
0.00728158
0.00722192
0.00716235
0.057612
0.0183502
0.013266
0.011195
0.00993482
0.00913798
0.00862934
0.00829624
0.00806979
0.00790787
0.00778475
0.0076845
0.00759721
0.00751699
0.00744053
0.00736617
0.00729159
0.0559835
0.018093
0.0132989
0.011277
0.0100689
0.00932102
0.00884653
0.00853197
0.00831145
0.00814641
0.00801406
0.00790067
0.00779793
0.00770107
0.0076075
0.00751564
0.00742442
0.0550793
0.0180293
0.0133947
0.0114163
0.010265
0.00956389
0.00911664
0.00881188
0.00858864
0.00841287
0.00826501
0.00813349
0.00801141
0.00789483
0.00778167
0.00767082
0.00756178
0.054849
0.0181269
0.0135612
0.0116306
0.0105383
0.00987733
0.00944619
0.00913934
0.0089027
0.00870738
0.00853706
0.00838205
0.00823652
0.0080971
0.00796196
0.00783052
0.00770129
0.0552329
0.0183655
0.0138158
0.0119425
0.0109065
0.0102729
0.00984199
0.00951792
0.00925509
0.00903008
0.00882956
0.00864531
0.00847209
0.00830665
0.00814703
0.00799169
0.00783936
0.0561651
0.0187359
0.0141839
0.0123778
0.0113883
0.0107627
0.0103112
0.00995146
0.00964749
0.00938137
0.00914213
0.00892238
0.00871692
0.00852214
0.00833573
0.00815584
0.00798182
0.057573
0.0192387
0.0146979
0.0129647
0.0120029
0.0113589
0.0108615
0.0104444
0.0100823
0.00976239
0.00947509
0.00921298
0.0089703
0.00874254
0.00852656
0.00832126
0.00812596
0.0593765
0.0198881
0.0153975
0.0137332
0.0127702
0.0120753
0.011502
0.0110026
0.0105631
0.0101754
0.00982975
0.00951778
0.00923255
0.00896808
0.00871951
0.00848386
0.00825887
0.0614852
0.0207171
0.0163309
0.0147155
0.0137119
0.0129274
0.0122444
0.0116345
0.0110954
0.0106239
0.0102085
0.0098383
0.00950464
0.00919959
0.00891631
0.00864933
0.00839374
0.0637914
0.0217883
0.0175571
0.0159482
0.0148526
0.0139344
0.0131047
0.0123518
0.0116869
0.0111129
0.0106147
0.0101768
0.00978789
0.0094377
0.00911709
0.00882043
0.00854437
0.0661597
0.0232077
0.0191519
0.0174763
0.016223
0.0151215
0.0141044
0.0131718
0.0123484
0.0116492
0.0110529
0.0105361
0.0100842
0.00968355
0.00932153
0.0089894
0.00868059
0.0684197
0.0251438
0.0212173
0.0193591
0.0178634
0.0165207
0.0152721
0.0141184
0.0130957
0.0122418
0.0115284
0.01092
0.0103962
0.00993946
0.00953301
0.00916164
0.00881061
0.0703726
0.027854
0.0238966
0.0216826
0.0198304
0.0181731
0.0166434
0.0152243
0.0139518
0.0129034
0.0120483
0.0113325
0.0107262
0.0102069
0.00975389
0.00934905
0.00897553
0.0718398
0.0317033
0.0273987
0.0245762
0.0222054
0.0201316
0.0182597
0.0165307
0.0149503
0.0136543
0.0126227
0.0117789
0.0110769
0.0104865
0.00998111
0.00953786
0.00913772
0.0726778
0.0372589
0.0320373
0.0282382
0.0251111
0.0224678
0.020166
0.0180821
0.0161375
0.0145272
0.0132699
0.0122678
0.0114529
0.0107811
0.0102167
0.00972607
0.00927562
0.0728392
0.0454054
0.0383195
0.0329767
0.0287362
0.0252897
0.0224164
0.0199177
0.0175704
0.0155757
0.0140262
0.0128195
0.0118635
0.0110954
0.0104673
0.00993812
0.00946488
0.00630637
0.00781202
0.0134792
0.0344115
0.103871
0.285235
0.595327
0.748304
0.577303
0.453782
0.435693
0.474694
0.598302
0.653695
0.407163
0.155841
0.0424262
0.0116779
0.00562275
0.00459139
0.00646781
0.00817766
0.0145322
0.0381027
0.117494
0.329729
0.70276
0.830131
0.595919
0.508285
0.528189
0.569586
0.628384
0.587713
0.356369
0.144056
0.0428578
0.0124144
0.00588762
0.00469504
0.00663161
0.00854125
0.0155599
0.0417871
0.131791
0.377854
0.81572
0.883749
0.597015
0.545105
0.581018
0.61861
0.624185
0.516388
0.302167
0.126062
0.0405208
0.0125957
0.00608597
0.00480711
0.00679744
0.0088965
0.0165414
0.0454028
0.146606
0.429647
0.936811
0.912053
0.580235
0.551145
0.596449
0.619965
0.567296
0.426115
0.241652
0.10397
0.0359048
0.0121861
0.00618874
0.00491906
0.00696441
0.00923805
0.0174598
0.0488965
0.161808
0.48487
1.06064
0.918305
0.55077
0.516496
0.546711
0.534256
0.453556
0.318506
0.177665
0.0793147
0.0296448
0.0112356
0.00618509
0.00502633
0.00713243
0.0095644
0.0183069
0.0522143
0.177189
0.544774
1.18281
0.910649
0.507041
0.444602
0.433947
0.392635
0.311209
0.209074
0.116937
0.0549697
0.0227141
0.00993284
0.00609818
0.0051321
0.00730413
0.00988254
0.0190907
0.0553102
0.192444
0.605009
1.29805
0.90449
0.454158
0.352972
0.305419
0.251317
0.183823
0.118979
0.067835
0.034419
0.0163375
0.00858449
0.00598725
0.0052491
0.00748856
0.0102159
0.019849
0.058157
0.207242
0.664848
1.4121
0.914167
0.403201