/*--------------------------------*- C++ -*----------------------------------*\
  =========                 |
  \\      /  F ield         | OpenFOAM: The Open Source CFD Toolbox
   \\    /   O peration     | Website:  https://openfoam.org
    \\  /    A nd           | Version:  6
     \\/     M anipulation  |
\*---------------------------------------------------------------------------*/
FoamFile
{
    version     2.0;
    format      ascii;
    class       volVectorField;
    location    "4.25";
    object      U;
}
// * * * * * * * * * * * * * * * * * * * * * * * * * * * * * * * * * * * * * //

dimensions      [0 1 -1 0 0 0 0];

internalField   nonuniform List<vector> 
4214
(
(5.04894 -0.0246164 0)
(5.48223 0.0548723 -7.87904e-20)
(5.56434 0.126745 7.46851e-20)
(5.54905 0.188527 0)
(5.52367 0.253215 0)
(5.49909 0.315265 0)
(5.47174 0.374492 2.95908e-22)
(5.43572 0.433154 -3.33038e-22)
(5.38682 0.491556 0)
(5.32161 0.548773 7.36267e-22)
(5.23605 0.603091 -1.82655e-22)
(5.12532 0.651877 0)
(4.98452 0.691702 3.7997e-21)
(4.8108 0.717824 -8.033e-21)
(4.60544 0.722978 1.00844e-20)
(4.36956 0.698159 -1.0531e-20)
(4.07989 0.64684 0)
(3.67489 0.623195 2.40573e-20)
(3.15406 0.676408 -3.64034e-21)
(2.65378 0.69194 -2.61891e-20)
(2.27356 0.489086 -4.84774e-21)
(1.99242 0.150737 -8.45826e-21)
(1.88727 -0.0924608 -1.88002e-20)
(1.99785 -0.214629 6.58158e-20)
(2.42729 -0.259927 5.81919e-20)
(3.19838 -0.280963 -6.12202e-20)
(4.2272 -0.314544 -6.23844e-20)
(5.33577 -0.373019 2.1144e-20)
(6.31726 -0.425232 0)
(6.94728 -0.404626 1.84567e-20)
(7.20324 -0.305057 -1.96717e-20)
(7.12915 -0.190826 0)
(6.89078 -0.100497 0)
(6.67433 -0.0500785 0)
(6.52177 -0.0259298 -3.56663e-21)
(6.40998 -0.0165056 -3.62374e-21)
(6.32831 -0.015645 6.34841e-21)
(6.2754 -0.0205058 0)
(6.23315 -0.0370524 0)
(6.12607 -0.0591171 1.67885e-20)
(5.73226 -0.0646351 0)
(5.66386 0.024665 -2.6883e-20)
(5.7198 0.150714 -1.2581e-21)
(5.69493 0.20776 2.00583e-21)
(5.65945 0.246146 -6.83347e-22)
(5.63111 0.300303 4.25773e-22)
(5.60925 0.363775 -8.21184e-22)
(5.58451 0.431744 8.13694e-22)
(5.55108 0.504486 3.81785e-23)
(5.50474 0.582236 0)
(5.44085 0.664285 0)
(5.35407 0.748884 4.95275e-21)
(5.23846 0.833249 1.57188e-21)
(5.08764 0.914103 2.29354e-21)
(4.89602 0.988015 -1.55525e-20)
(4.66223 1.04987 0)
(4.39293 1.09038 0)
(4.09941 1.0965 0)
(3.76043 1.07796 -1.38151e-20)
(3.29077 1.13194 0)
(2.68255 1.33203 2.27209e-20)
(2.11813 1.52395 0)
(1.79238 1.46922 9.89038e-21)
(1.76128 1.25583 1.99522e-20)
(1.97254 1.02784 -6.71377e-20)
(2.49635 0.824395 0)
(3.31328 0.622252 0)
(4.35677 0.407772 1.18989e-19)
(5.46781 0.181419 -1.73454e-19)
(6.44205 -0.0207347 9.46835e-20)
(7.05637 -0.109583 2.05825e-20)
(7.27344 -0.0774951 -2.36056e-20)
(7.17002 -0.0168936 3.56039e-21)
(6.90956 0.0331154 3.00334e-20)
(6.68804 0.0604661 -3.8587e-20)
(6.53453 0.0659213 1.22555e-20)
(6.42196 0.060472 -5.90468e-21)
(6.33545 0.0482669 4.81549e-20)
(6.2724 0.0291599 -4.42836e-20)
(6.24098 -0.00695324 0)
(6.23283 -0.0552281 -1.90754e-20)
(6.16136 -0.0167552 -3.08879e-19)
(5.75583 0.102477 0)
(5.74915 0.167388 1.31835e-21)
(5.72862 0.216433 0)
(5.70642 0.264298 -3.97863e-22)
(5.69192 0.322281 9.7012e-23)
(5.67936 0.388671 -1.1318e-22)
(5.66214 0.461258 0)
(5.63613 0.540802 2.39377e-21)
(5.5973 0.628475 -2.94537e-21)
(5.54037 0.724473 0)
(5.45884 0.827585 -2.83424e-21)
(5.34597 0.934815 2.84114e-21)
(5.19565 1.04179 0)
(5.0026 1.14422 6.6258e-21)
(4.76339 1.23829 0)
(4.47914 1.31822 2.25754e-20)
(4.15655 1.37451 -2.3505e-20)
(3.80346 1.39866 0)
(3.39786 1.41958 -8.31626e-20)
(2.88266 1.55258 1.01934e-19)
(2.29874 1.83402 2.21696e-21)
(1.8235 2.0302 -3.47559e-20)
(1.74683 1.99363 0)
(1.92876 1.79088 0)
(2.46636 1.52473 2.76325e-19)
(3.29741 1.21481 -1.65875e-19)
(4.34399 0.882237 1.73562e-19)
(5.45621 0.546423 0)
(6.43412 0.251297 0)
(7.05761 0.0863834 -2.16385e-20)
(7.27915 0.0610588 -3.21813e-22)
(7.15839 0.0824212 0)
(6.89431 0.106199 -3.09173e-20)
(6.6751 0.118887 3.38787e-20)
(6.52278 0.113503 -1.03102e-19)
(6.41132 0.10054 1.02275e-19)
(6.32532 0.0831211 0)
(6.25942 0.0634344 1.95193e-19)
(6.20864 0.039191 -1.93339e-19)
(6.16545 -0.00134032 0)
(6.12339 -0.039172 0)
(5.83744 0.138429 5.62984e-22)
(5.81383 0.18762 4.08074e-20)
(5.79767 0.236356 -9.0647e-21)
(5.78758 0.286897 1.77062e-20)
(5.78099 0.344747 -6.24223e-21)
(5.77457 0.411245 1.16937e-22)
(5.76454 0.486534 0)
(5.74711 0.571925 0)
(5.71797 0.669269 1.2086e-21)
(5.67112 0.77985 -6.41798e-22)
(5.59841 0.90352 3.63868e-23)
(5.49106 1.03798 1.71135e-20)
(5.34191 1.17875 0)
(5.14611 1.3204 3.18215e-21)
(4.90018 1.45773 -1.88866e-20)
(4.60362 1.58439 0)
(4.26261 1.68943 1.78012e-21)
(3.88921 1.76057 -1.48139e-20)
(3.48961 1.7972 7.30185e-20)
(3.03684 1.86 -9.0747e-20)
(2.50188 2.07986 -1.64111e-21)
(1.96204 2.41522 3.63666e-20)
(1.76217 2.59133 2.38314e-20)
(1.89166 2.50186 2.43804e-20)
(2.40065 2.22977 2.03374e-19)
(3.23607 1.84321 0)
(4.29203 1.40291 0)
(5.41424 0.960902 0)
(6.40748 0.572131 0)
(7.05416 0.326459 4.03136e-20)
(7.27932 0.23204 6.47673e-22)
(7.14348 0.204743 4.84195e-20)
(6.87705 0.198369 -5.39129e-20)
(6.6594 0.191446 2.95409e-20)
(6.50834 0.17197 1.08262e-19)
(6.39826 0.149361 -1.09481e-19)
(6.31233 0.124738 0)
(6.24514 0.0990711 1.92447e-19)
(6.19342 0.073288 9.679e-20)
(6.15403 0.0378557 -2.55336e-19)
(6.11828 0.00715754 -4.83977e-20)
(5.8957 0.163382 5.49662e-20)
(5.87566 0.20254 0)
(5.8685 0.247377 -4.00146e-21)
(5.86765 0.29721 2.14189e-21)
(5.8693 0.353963 1.94907e-21)
(5.87121 0.419812 -1.02347e-21)
(5.87073 0.496334 -1.36252e-22)
(5.86449 0.585597 -5.00213e-21)
(5.84817 0.690272 8.85053e-21)
(5.81535 0.812945 -2.07403e-20)
(5.7567 0.955028 9.16289e-21)
(5.66145 1.11592 -5.98933e-20)
(5.52071 1.29282 1.76673e-20)
(5.32911 1.48076 -1.801e-20)
(5.08232 1.67231 1.89837e-20)
(4.77679 1.8564 7.42254e-20)
(4.41489 2.01652 7.67741e-20)
(4.01009 2.13358 9.07769e-21)
(3.58705 2.19571 -4.13267e-20)
(3.16021 2.22174 8.22937e-22)
(2.69644 2.31959 -1.21438e-21)
(2.19097 2.61899 3.68735e-22)
(1.87236 2.94167 -2.47865e-20)
(1.90877 3.02788 2.5193e-19)
(2.32293 2.82985 -3.93257e-19)
(3.12947 2.42107 -7.27064e-20)
(4.18303 1.8984 3.10618e-19)
(5.31427 1.36421 2.61661e-19)
(6.33064 0.891673 0)
(7.01103 0.570924 -1.86344e-20)
(7.24017 0.407585 1.87007e-20)
(7.10715 0.329338 -4.35952e-20)
(6.84474 0.290139 0)
(6.63096 0.261211 1.98413e-19)
(6.48276 0.227241 -2.06612e-19)
(6.37542 0.194955 3.74647e-19)
(6.29111 0.164363 3.71927e-19)
(6.22266 0.135311 1.52548e-19)
(6.16637 0.10879 -8.33795e-20)
(6.12385 0.0731704 3.46058e-19)
(6.08886 0.0375848 -3.23049e-19)
(5.95448 0.175262 -6.63923e-20)
(5.94472 0.208418 -2.46823e-20)
(5.94627 0.249338 2.22181e-20)
(5.95281 0.296483 5.3315e-22)
(5.9616 0.350493 -1.62043e-21)
(5.97168 0.414053 9.13718e-22)
(5.98144 0.489828 0)
(5.98801 0.580761 1.15822e-20)
(5.98706 0.690482 -1.4109e-20)
(5.97165 0.822768 1.84096e-20)
(5.93148 0.980816 -1.26774e-20)
(5.85498 1.16711 5.59305e-20)
(5.73184 1.38287 9.65312e-20)
(5.55439 1.62578 1.42673e-19)
(5.31398 1.88606 -2.8414e-19)
(5.00213 2.14395 2.27783e-19)
(4.61693 2.37151 2.85315e-19)
(4.17145 2.53748 0)
(3.70256 2.62251 4.11083e-20)
(3.25547 2.63399 -8.24759e-22)
(2.83104 2.63068 1.6495e-21)
(2.39571 2.77711 -8.24917e-22)
(2.04363 3.09803 -1.10536e-20)
(1.97415 3.33459 -2.55711e-19)
(2.26906 3.27509 3.26754e-19)
(2.99197 2.91345 0)
(4.02208 2.35044 2.27847e-19)
(5.16183 1.74589 -1.70644e-19)
(6.2074 1.2052 -4.44054e-20)
(6.9265 0.817232 -1.67578e-20)
(7.17587 0.589032 -5.73804e-21)
(7.05457 0.461429 0)
(6.80183 0.385751 1.24901e-19)
(6.59369 0.331779 -2.02461e-19)
(6.45021 0.282476 1.86133e-19)
(6.34655 0.239894 -8.64256e-19)
(6.26461 0.202939 -8.23448e-19)
(6.19669 0.1699 -2.86745e-19)
(6.13986 0.140884 -5.79315e-19)
(6.0961 0.106037 -4.6485e-19)
(6.05691 0.0711004 -4.7089e-19)
(6.01459 0.176071 0)
(6.01424 0.204112 0)
(6.02269 0.23985 1.45951e-21)
(6.03526 0.282631 -1.05353e-21)
(6.0508 0.332474 0)
(6.06947 0.39224 -1.26169e-22)
(6.09045 0.465358 0)
(6.11143 0.555577 -3.33396e-20)
(6.12827 0.667497 4.7211e-20)
(6.13385 0.806226 -5.39392e-21)
(6.11767 0.977191 1.07423e-19)
(6.06902 1.18778 9.52241e-20)
(5.97651 1.44569 -6.37193e-20)
(5.8276 1.75165 -1.97204e-19)
(5.60372 2.09191 3.56506e-19)
(5.2877 2.4365 -3.5629e-19)
(4.87216 2.74419 3.00006e-19)
(4.373 2.96665 1.46445e-20)
(3.83866 3.07177 -1.51957e-20)
(3.34021 3.06982 5.3222e-19)
(2.90985 2.99946 -2.04893e-21)
(2.53523 2.9799 2.14247e-21)
(2.21533 3.16392 -9.80825e-21)
(2.07245 3.44935 1.02742e-20)
(2.25005 3.52009 -2.8148e-19)
(2.84772 3.27439 -3.99084e-20)
(3.81607 2.7305 -1.39045e-19)
(4.95547 2.0881 -2.31258e-19)
(6.03406 1.49874 1.52274e-19)
(6.79834 1.05775 2.32797e-20)
(7.08504 0.772107 0)
(6.98274 0.595809 0)
(6.74493 0.482523 -9.94089e-20)
(6.54575 0.401958 0)
(6.40935 0.336741 0)
(6.31051 0.283705 -9.17282e-21)
(6.23158 0.240402 4.08153e-19)
(6.16492 0.203201 0)
(6.10874 0.170444 3.6775e-19)
(6.06432 0.134891 6.37744e-19)
(6.02224 0.101729 0)
(6.0732 0.165585 0)
(6.08022 0.188648 0)
(6.09372 0.218474 -8.23476e-21)
(6.1112 0.255762 6.39694e-21)
(6.13306 0.300281 0)
(6.16043 0.354852 -7.16056e-22)
(6.19316 0.423363 -1.5789e-20)
(6.22957 0.510191 -4.92001e-21)
(6.26587 0.620775 -1.00423e-19)
(6.29561 0.761718 -8.277e-20)
(6.31038 0.942226 -9.57928e-20)
(6.30266 1.17684 -1.10475e-19)
(6.25746 1.48023 0)
(6.15172 1.85315 5.61595e-19)
(5.95167 2.27504 3.7514e-20)
(5.63031 2.70691 -2.09979e-20)
(5.17443 3.09636 -1.70439e-18)
(4.60704 3.38203 -4.07618e-20)
(3.98831 3.51305 -1.07295e-18)
(3.41405 3.49714 -5.43015e-19)
(2.94043 3.37704 0)
(2.59229 3.23213 2.7952e-21)
(2.3349 3.23053 3.5806e-19)
(2.17698 3.43396 0)
(2.26847 3.58379 0)
(2.70845 3.46661 0)
(3.57991 3.01223 -3.35914e-19)
(4.70162 2.37056 0)
(5.81484 1.75877 -8.67025e-20)
(6.6321 1.28517 -1.80177e-20)
(6.96334 0.952716 0)
(6.89092 0.729459 -6.01519e-20)
(6.6736 0.579037 0)
(6.48763 0.471981 3.28554e-20)
(6.36052 0.390338 -5.48118e-19)
(6.26783 0.326746 -1.41377e-19)
(6.19274 0.276665 6.10844e-19)
(6.12887 0.234828 1.50386e-19)
(6.07457 0.197765 4.91042e-19)
(6.02989 0.160765 -3.1488e-19)
(5.98572 0.128977 3.11592e-19)
(6.12558 0.144539 6.61588e-21)
(6.1377 0.162489 -3.85028e-20)
(6.1547 0.186047 3.27023e-20)
(6.17625 0.21712 1.78757e-20)
(6.20398 0.255217 6.48968e-21)
(6.23983 0.303075 8.69738e-22)
(6.28427 0.364871 1.62076e-20)
(6.33641 0.445413 3.40892e-20)
(6.39306 0.550615 5.64886e-20)
(6.45042 0.688996 8.45443e-20)
(6.50508 0.875195 2.96591e-19)
(6.5545 1.13256 0)
(6.57284 1.48098 5.89288e-19)
(6.51838 1.91345 -5.82611e-19)
(6.34019 2.40104 1.06463e-18)
(6.00659 2.90175 0)
(5.50016 3.35845 2.67623e-18)
(4.84952 3.70645 1.72761e-18)
(4.13008 3.87289 1.10643e-18)
(3.46401 3.84715 1.4171e-18)
(2.92781 3.69656 0)
(2.57189 3.47683 0)
(2.37161 3.32093 -3.58519e-19)
(2.25198 3.3696 2.99093e-22)
(2.30297 3.5244 3.361e-20)
(2.5971 3.49231 0)
(3.3382 3.16995 6.60339e-20)
(4.41103 2.57161 2.05413e-19)
(5.55281 1.97019 4.7018e-20)
(6.42775 1.48918 -1.80215e-19)
(6.81062 1.12485 -8.59026e-20)
(6.77697 0.859859 1.20196e-19)
(6.58679 0.673947 -1.04436e-19)
(6.41843 0.541556 7.34231e-20)
(6.3029 0.443515 1.20073e-18)
(6.21783 0.369281 5.80686e-19)
(6.14775 0.311812 2.25634e-19)
(6.08782 0.264652 3.56978e-19)
(6.03636 0.223154 -8.16451e-19)
(5.992 0.184202 7.11982e-19)
(5.94678 0.152285 -1.6468e-20)
(6.16719 0.114096 -6.83699e-21)
(6.18278 0.126984 -4.70968e-20)
(6.20236 0.14419 6.77284e-20)
(6.22758 0.168616 3.72477e-21)
(6.26095 0.199561 3.09567e-21)
(6.30478 0.239425 0)
(6.35994 0.292159 0)
(6.42667 0.363119 4.04988e-20)
(6.50329 0.458246 2.28323e-20)
(6.59231 0.589312 2.42037e-19)
(6.69752 0.776875 -7.37109e-19)
(6.81923 1.05162 6.01348e-19)
(6.90679 1.43387 -1.39142e-18)
(6.89707 1.90002 -6.7757e-20)
(6.72817 2.41814 -1.01258e-18)
(6.37043 2.95065 0)
(5.80478 3.44623 -1.60968e-18)
(5.06404 3.84201 7.34169e-19)
(4.23715 4.03414 -4.67633e-20)
(3.4764 4.00493 -1.41017e-18)
(2.87475 3.87848 0)
(2.48917 3.63803 1.03397e-18)
(2.32255 3.39413 0)
(2.27317 3.29566 -2.06266e-19)
(2.31978 3.36968 -3.15137e-20)
(2.51588 3.4032 -1.89307e-19)
(3.11439 3.18112 -3.068e-19)
(4.10648 2.67078 -5.77427e-19)
(5.25711 2.1181 1.99666e-19)
(6.18748 1.6587 1.68067e-19)
(6.62694 1.28156 5.60086e-20)
(6.63924 0.983 -1.52124e-19)
(6.48327 0.765326 -8.87169e-20)
(6.33687 0.609964 0)
(6.23581 0.49634 -1.2932e-18)
(6.15992 0.411282 0)
(6.09641 0.345922 -6.42555e-19)
(6.04138 0.292704 -3.16456e-19)
(5.9934 0.246696 -3.57934e-19)
(5.95004 0.205858 -1.07828e-18)
(5.90506 0.173049 1.89884e-18)
(6.19495 0.0761409 4.95298e-20)
(6.21288 0.0841549 -6.54647e-20)
(6.23456 0.0951007 -2.36811e-20)
(6.2633 0.112551 -1.7191e-20)
(6.30212 0.135768 -2.60191e-20)
(6.35334 0.166769 2.8529e-20)
(6.41791 0.208558 0)
(6.49713 0.266814 -4.15039e-20)
(6.59248 0.346986 0)
(6.7175 0.465888 -4.80347e-19)
(6.88162 0.647922 4.16676e-19)
(7.08255 0.927437 -5.84533e-19)
(7.22935 1.3167 7.70244e-19)
(7.24413 1.77162 1.17915e-18)
(7.06293 2.2765 6.32949e-20)
(6.66814 2.79502 1.19295e-19)
(6.03464 3.29191 0)
(5.22032 3.69917 7.41758e-19)
(4.29858 4.02012 -3.19141e-18)
(3.44013 3.9962 0)
(2.77344 3.87835 0)
(2.35676 3.65369 -1.03619e-18)
(2.20643 3.38455 7.22733e-19)
(2.23014 3.19344 2.03963e-19)
(2.29142 3.1694 0)
(2.44987 3.21255 1.48132e-19)
(2.91564 3.06835 7.92566e-19)
(3.81111 2.66433 -1.11228e-19)
(4.94524 2.19417 -2.78946e-19)
(5.91631 1.7831 0)
(6.41271 1.41368 0)
(6.47723 1.09341 1.5102e-19)
(6.35952 0.850056 1.68749e-19)
(6.24061 0.675193 -3.59787e-19)
(6.15758 0.547797 6.5063e-19)
(6.09348 0.452434 0)
(6.03792 0.378565 7.32099e-19)
(5.98882 0.319035 0)
(5.94477 0.2685 0)
(5.90338 0.225515 0)
(5.86051 0.1916 -7.5842e-19)
(6.20775 0.0331007 1.65591e-19)
(6.22714 0.036539 -3.1425e-20)
(6.25071 0.041546 7.10045e-20)
(6.28282 0.0518288 0)
(6.32664 0.0668514 4.5613e-20)
(6.3839 0.087992 1.36409e-20)
(6.45636 0.117527 -1.76471e-20)
(6.54569 0.160848 6.80052e-20)
(6.65998 0.222041 4.94814e-20)
(6.8248 0.323759 2.84995e-19)
(7.04717 0.488802 -8.22672e-20)
(7.31807 0.749055 -4.55169e-19)
(7.49595 1.10427 -2.09051e-19)
(7.51075 1.50375 -1.38383e-18)
(7.29997 1.96153 -2.96675e-19)
(6.85707 2.41837 3.01012e-19)
(6.14441 2.87105 -3.77483e-18)
(5.27185 3.25546 -3.0491e-18)
(4.29236 3.56564 3.23314e-18)
(3.35703 3.70657 2.10992e-20)
(2.62371 3.66889 -3.6862e-20)
(2.17892 3.48958 1.55682e-20)
(2.04461 3.2376 -7.3983e-19)
(2.13315 3.01706 1.89585e-20)
(2.23814 2.93276 -3.32975e-21)
(2.35969 2.95054 0)
(2.72873 2.8625 1.23413e-19)
(3.53827 2.5646 5.5297e-19)
(4.63599 2.19705 0)
(5.6258 1.85506 3.72745e-19)
(6.16995 1.5113 -3.49177e-19)
(6.28746 1.1847 4.46649e-19)
(6.21319 0.924267 -1.7247e-19)
(6.12768 0.733602 3.43717e-19)
(6.06672 0.595045 7.50567e-19)
(6.01747 0.491162 7.4557e-19)
(5.97171 0.409611 5.52226e-20)
(5.92936 0.343606 -7.52963e-19)
(5.89001 0.288748 0)
(5.85191 0.24303 -2.04358e-20)
(5.813 0.207261 1.49111e-20)
(6.20588 -0.0124887 4.99881e-20)
(6.22637 -0.013364 -2.32319e-19)
(6.25198 -0.0137601 1.78481e-19)
(6.28734 -0.0106197 0)
(6.33566 -0.00379464 -4.67608e-20)
(6.39684 0.00645369 -7.15475e-20)
(6.47562 0.0229339 -2.12726e-20)
(6.57222 0.0488576 -1.25353e-20)
(6.70808 0.0886127 -1.29188e-19)
(6.9125 0.168318 3.1934e-19)
(7.17942 0.300417 0)
(7.49135 0.511495 1.36859e-18)
(7.64292 0.793767 3.53338e-19)
(7.62601 1.11665 -8.71164e-19)
(7.40358 1.50187 3.07576e-18)
(6.9064 1.85194 0)
(6.11195 2.22383 -5.00967e-19)
(5.18145 2.54776 -4.5547e-18)
(4.18454 2.81896 4.51165e-18)
(3.21715 3.02847 4.17322e-18)
(2.44108 3.15155 5.37951e-20)
(1.97007 3.10322 2.10615e-18)
(1.85594 2.92085 0)
(1.99887 2.72993 0)
(2.15125 2.63074 0)
(2.25101 2.62124 0)
(2.55796 2.57047 2.69894e-19)
(3.29654 2.37825 -5.62988e-19)
(4.34494 2.12766 -1.76905e-21)
(5.33073 1.86968 4.27413e-20)
(5.9045 1.56759 -3.89128e-19)
(6.06971 1.24864 -9.02919e-20)
(6.04538 0.980914 3.99391e-19)
(5.99755 0.780551 3.98006e-19)
(5.96208 0.634795 -7.13399e-19)
(5.93023 0.524479 -1.4668e-18)
(5.89673 0.437284 -7.0197e-19)
(5.86277 0.36619 -4.58299e-20)
(5.82953 0.307222 -7.2662e-19)
(5.79653 0.2583 7.30553e-19)
(5.76353 0.21899 -7.38953e-19)
(6.19084 -0.0586836 -4.99945e-20)
(6.21277 -0.0637334 4.74014e-19)
(6.24098 -0.0689391 -2.19154e-19)
(6.27934 -0.0727084 1.68398e-19)
(6.33143 -0.0738611 -7.66279e-20)
(6.39352 -0.0752036 2.23595e-21)
(6.47801 -0.0719307 6.32806e-20)
(6.57881 -0.0656327 -2.55787e-20)
(6.74069 -0.048075 8.5716e-20)
(6.97599 0.00359967 -2.36234e-19)
(7.26393 0.0873968 0)
(7.57792 0.232074 -1.40011e-18)
(7.67681 0.42185 0)
(7.64481 0.652142 -1.23131e-18)
(7.34301 0.928757 -3.17827e-18)
(6.79354 1.14647 0)
(5.93161 1.41489 4.8062e-18)
(4.96041 1.64635 3.76358e-18)
(3.97868 1.88537 -9.54509e-18)
(3.02079 2.1144 -8.84629e-18)
(2.24981 2.34882 1.80628e-20)
(1.77457 2.46512 -2.08847e-18)
(1.6756 2.41331 0)
(1.84911 2.30495 -1.76728e-20)
(2.04238 2.23771 -4.77691e-19)
(2.13771 2.22427 -5.05974e-19)
(2.40311 2.20467 -1.04134e-18)
(3.09236 2.11933 3.93536e-19)
(4.08704 1.99231 4.81258e-19)
(5.04318 1.82488 0)
(5.62386 1.57578 0)
(5.83163 1.27615 1.01279e-19)
(5.85838 1.0117 3.70624e-19)
(5.85052 0.810792 -1.2025e-18)
(5.84282 0.662587 -4.76244e-20)
(5.83063 0.548661 -4.68877e-20)
(5.81137 0.457572 3.53055e-20)
(5.78806 0.383232 1.43609e-18)
(5.76299 0.321671 7.32957e-19)
(5.73745 0.269933 0)
(5.71244 0.226559 -2.24596e-20)
(6.16578 -0.104386 6.98112e-19)
(6.18959 -0.113187 -4.40603e-19)
(6.22113 -0.122402 1.05192e-19)
(6.26108 -0.132071 -2.35905e-19)
(6.31533 -0.141108 -2.6607e-19)
(6.37338 -0.153462 1.72919e-19)
(6.46356 -0.164313 0)
(6.56295 -0.177576 -8.65327e-20)
(6.75559 -0.183676 -5.94166e-21)
(7.00326 -0.167265 -5.55365e-20)
(7.29101 -0.140699 0)
(7.59306 -0.0687404 7.12934e-19)
(7.62299 0.0159016 0)
(7.59151 0.134408 1.83682e-18)
(7.11282 0.269519 0)
(6.53835 0.354341 0)
(5.60498 0.50666 0)
(4.63975 0.638605 -4.621e-18)
(3.70496 0.831557 4.57554e-18)
(2.80256 1.04724 4.71659e-18)
(2.10457 1.33024 0)
(1.67358 1.59805 0)
(1.57563 1.71098 8.9887e-20)
(1.73193 1.72738 -9.11984e-20)
(1.9226 1.735 4.97993e-19)
(2.02093 1.75097 1.06431e-18)
(2.27743 1.77815 0)
(2.93638 1.80835 0)
(3.87313 1.80298 -4.76073e-19)
(4.77077 1.72313 0)
(5.33563 1.52911 0)
(5.57963 1.25853 8.8096e-19)
(5.65369 1.01037 -4.81102e-19)
(5.68776 0.818683 -4.25931e-19)
(5.70924 0.673101 1.57479e-18)
(5.719 0.559433 -7.41212e-19)
(5.71554 0.466572 4.05245e-20)
(5.70488 0.390516 6.72069e-19)
(5.69032 0.327039 -2.09995e-18)
(5.67471 0.273237 6.92509e-19)
(5.6588 0.226887 6.56712e-19)
(6.13477 -0.148052 5.70122e-19)
(6.15964 -0.15889 1.55324e-19)
(6.196 -0.171867 1.44097e-19)
(6.23325 -0.185089 0)
(6.28851 -0.203031 -2.4921e-19)
(6.33607 -0.22227 2.41477e-19)
(6.43346 -0.250618 2.54631e-19)
(6.52131 -0.278327 8.90238e-20)
(6.74678 -0.319176 3.80228e-21)
(6.97524 -0.341623 -3.74985e-21)
(7.25455 -0.380315 0)
(7.52907 -0.386408 4.86651e-19)
(7.42597 -0.417631 -4.86319e-19)
(7.38106 -0.408291 1.7352e-18)
(6.72956 -0.429552 -8.44108e-19)
(6.19912 -0.465928 8.54477e-19)
(5.15529 -0.451594 -6.41724e-19)
(4.26772 -0.423955 5.40323e-18)
(3.3901 -0.280773 -4.48742e-18)
(2.5537 -0.0884514 -5.25931e-18)
(1.98574 0.217764 0)
(1.57608 0.613086 -2.62212e-18)
(1.48599 0.889024 1.31321e-18)
(1.64783 1.04124 -1.16133e-19)
(1.79975 1.12745 -6.60639e-19)
(1.9211 1.20069 -9.13099e-19)
(2.21258 1.31286 3.55333e-19)
(2.85035 1.46563 1.02793e-18)
(3.70289 1.57605 1.05305e-18)
(4.52051 1.57235 -7.9068e-19)
(5.06162 1.42119 0)
(5.32693 1.18404 0)
(5.44487 0.967626 4.57109e-19)
(5.51309 0.794067 4.11119e-19)
(5.56518 0.658537 -1.59774e-18)
(5.5945 0.549908 2.26684e-18)
(5.6108 0.459193 -1.49905e-18)
(5.6141 0.383796 6.84915e-19)
(5.61394 0.320088 0)
(5.60863 0.265093 1.30133e-18)
(5.60261 0.217897 -2.52067e-18)
(6.10542 -0.189323 2.37422e-19)
(6.12557 -0.198422 4.03534e-19)
(6.1713 -0.219138 0)
(6.19638 -0.230781 0)
(6.25714 -0.262077 0)
(6.28718 -0.278831 0)
(6.39895 -0.335082 -2.62088e-19)
(6.46363 -0.365286 2.43727e-19)
(6.71994 -0.464004 -1.90281e-19)
(6.88433 -0.512563 0)
(7.15476 -0.63555 -1.60778e-19)
(7.32801 -0.696841 0)
(7.14072 -0.842135 0)
(7.0697 -0.90942 -2.32754e-18)
(6.22363 -1.11508 2.26419e-18)
(5.76326 -1.25415 5.17215e-18)
(4.59637 -1.40883 -1.05593e-18)
(3.85031 -1.49841 0)
(3.00349 -1.36262 5.63311e-18)
(2.26447 -1.17954 5.01223e-18)
(1.80324 -0.80776 0)
(1.30324 -0.345729 2.54751e-18)
(1.15996 0.0311987 -2.50484e-18)
(1.30095 0.3114 1.44069e-19)
(1.42541 0.464356 6.19551e-19)
(1.72253 0.609531 1.3595e-19)
(2.04399 0.854585 -8.74676e-19)
(2.76548 1.12887 -1.6245e-18)
(3.53656 1.32132 1.65023e-18)
(4.32491 1.36239 -1.38117e-18)
(4.80579 1.24149 -1.00173e-18)
(5.11579 1.04797 6.81181e-20)
(5.26228 0.887801 4.99952e-19)
(5.35737 0.728828 2.53638e-18)
(5.44208 0.621232 6.87769e-19)
(5.47784 0.507628 -2.3152e-18)
(5.52025 0.431034 -7.50541e-19)
(5.52243 0.345998 0)
(5.54249 0.292261 0)
(5.53478 0.226505 -6.1605e-19)
(5.54429 0.185804 6.11058e-19)
(5.53564 0.134789 -5.83343e-19)
(5.59262 0.176816 1.92355e-18)
(5.64123 0.188726 -1.60012e-20)
(5.68725 0.192583 -7.64709e-19)
(5.73072 0.19009 0)
(5.7729 0.183138 8.68741e-19)
(5.81446 0.173672 -9.41552e-19)
(5.85542 0.162575 0)
(5.89526 0.149604 -4.41118e-19)
(5.93318 0.132053 0)
(5.969 0.109362 1.4395e-18)
(6.00399 0.0840998 8.24675e-19)
(6.03715 0.0565539 -1.64718e-18)
(6.06278 0.0317923 -8.30366e-20)
(6.06944 -0.000220667 -2.85571e-19)
(5.94317 0.0653174 1.21559e-18)
(5.08789 -0.0829925 0)
(5.53798 0.101617 1.21765e-18)
(5.57889 0.136301 -6.61812e-19)
(5.61754 0.149469 7.32973e-19)
(5.65529 0.156167 0)
(5.6914 0.15658 -1.71725e-18)
(5.72702 0.153052 9.45094e-19)
(5.76279 0.147673 0)
(5.79925 0.140557 5.18216e-19)
(5.83621 0.132122 -5.1969e-19)
(5.87296 0.120408 9.601e-19)
(5.90817 0.104049 -9.2151e-19)
(5.94168 0.082818 3.97038e-19)
(5.97264 0.0572653 -7.27659e-19)
(5.99587 0.0306804 1.12145e-18)
(5.99695 -0.00960699 4.4136e-19)
(5.91339 -0.00448277 -1.44714e-18)
(5.05404 -0.119163 -6.09937e-19)
(5.53428 0.0587232 -1.3136e-18)
(5.56916 0.0991818 -9.42118e-21)
(5.60008 0.114209 7.38208e-19)
(5.63085 0.122854 0)
(5.66103 0.125437 1.81321e-18)
(5.69113 0.124281 -1.96844e-18)
(5.72198 0.120693 5.36491e-19)
(5.75381 0.1159 -5.52219e-19)
(5.78677 0.110061 1.67886e-18)
(5.82017 0.10237 -5.65541e-19)
(5.85262 0.090451 0)
(5.88271 0.0741699 0)
(5.90895 0.0548784 0)
(5.92598 0.0345382 7.28767e-19)
(5.91969 0.00678025 -6.53241e-19)
(5.83814 0.00362978 4.84338e-19)
(4.9625 -0.0906303 2.59942e-19)
(5.54101 0.0344873 -6.77168e-19)
(5.56278 0.0660361 7.36739e-19)
(5.58566 0.0817659 -2.40267e-18)
(5.60959 0.0922102 2.58979e-18)
(5.63426 0.0971664 -9.47551e-19)
(5.65955 0.0983286 -1.01961e-18)
(5.686 0.0969075 1.10673e-18)
(5.71349 0.0938026 5.87036e-19)
(5.74186 0.0895661 1.82736e-18)
(5.7707 0.0844471 -1.8559e-18)
(5.79873 0.0764225 -5.87544e-19)
(5.82401 0.0643179 1.15598e-18)
(5.84458 0.0487217 5.3653e-19)
(5.856 0.0303165 0)
(5.84627 0.0058948 4.06272e-19)
(5.76044 -0.000774663 8.27389e-21)
(4.86959 -0.0706847 1.18876e-18)
(5.54609 -0.000689236 0)
(5.56052 0.0348404 -1.89115e-18)
(5.5762 0.0523575 1.23539e-18)
(5.59351 0.0640455 -1.35249e-18)
(5.61276 0.0709567 4.79901e-19)
(5.63363 0.0740449 1.07097e-18)
(5.65593 0.0744997 -5.77857e-19)
(5.6794 0.0730988 -1.32656e-21)
(5.70327 0.0702231 -1.30034e-18)
(5.72684 0.066344 0)
(5.74925 0.0611834 -6.6291e-19)
(5.7687 0.0534032 -6.54051e-19)
(5.7827 0.0426132 -6.07112e-19)
(5.78674 0.028133 1.19523e-20)
(5.76844 0.010407 -4.35601e-21)
(5.67322 0.000577773 2.85386e-20)
(4.76835 -0.0476726 -7.61651e-19)
(5.55959 -0.0160324 -1.81043e-18)
(5.56359 0.00916724 3.20109e-18)
(5.57205 0.0259849 -1.30521e-18)
(5.58303 0.0385767 9.44039e-19)
(5.59682 0.046978 -2.02245e-18)
(5.61314 0.0520805 -5.47016e-19)
(5.63138 0.0545375 5.91407e-19)
(5.65075 0.0546257 1.26673e-18)
(5.67024 0.053301 -1.34668e-18)
(5.68867 0.0508553 7.02583e-19)
(5.70513 0.0472102 -3.5873e-19)
(5.7182 0.0420273 1.78955e-18)
(5.72543 0.0345862 -3.49199e-19)
(5.72201 0.0240737 -3.23222e-19)
(5.69413 0.0122482 6.07649e-19)
(5.58313 0.00190648 -5.52663e-19)
(4.66272 -0.0268937 0)
(5.5725 -0.0426291 1.17203e-18)
(5.57155 -0.01509 -3.82098e-20)
(5.57361 0.00255546 1.31977e-18)
(5.57918 0.0155651 2.41081e-19)
(5.58759 0.0251316 1.81583e-18)
(5.59906 0.031621 5.54106e-19)
(5.61297 0.0357257 5.97332e-19)
(5.62809 0.0380348 -6.50834e-19)
(5.64333 0.0385804 0)
(5.65708 0.0372807 0)
(5.66818 0.0349939 -3.7672e-19)
(5.67541 0.0317962 1.13237e-21)
(5.67643 0.0271877 -3.81403e-19)
(5.66571 0.0211408 -3.70551e-19)
(5.62635 0.0138487 3.54605e-19)
(5.49203 0.00419767 3.32829e-19)
(4.56007 -0.00664112 -3.09734e-19)
(5.5912 -0.0500793 5.87523e-19)
(5.58431 -0.0327848 -1.68911e-18)
(5.58189 -0.0175863 -2.61241e-19)
(5.58216 -0.00493081 0)
(5.58574 0.00529191 -5.50876e-19)
(5.59243 0.0128883 -1.13368e-18)
(5.60188 0.0182717 -9.20238e-19)
(5.61252 0.0218113 6.51976e-19)
(5.62336 0.0238855 5.71048e-22)
(5.63283 0.0247748 -3.70737e-19)
(5.6396 0.0246218 7.63448e-19)
(5.64265 0.023369 7.90405e-19)
(5.63949 0.0212371 -4.02379e-19)
(5.62352 0.0183912 4.00664e-19)
(5.57221 0.0144231 -3.92926e-19)
(5.39459 0.00902079 1.88648e-19)
(4.47034 0.0109982 -1.79021e-19)
(5.60896 -0.0687119 -1.95817e-19)
(5.60043 -0.0492412 8.8441e-19)
(5.59477 -0.0342249 -9.46592e-19)
(5.59153 -0.0224412 -6.24245e-20)
(5.59105 -0.0122728 4.75154e-20)
(5.59335 -0.00408373 5.7669e-19)
(5.59855 0.00224926 5.21459e-19)
(5.60551 0.00701426 7.18992e-19)
(5.61207 0.0104775 -6.79161e-19)
(5.6178 0.01273 -1.85769e-19)
(5.62118 0.0140372 -5.77924e-19)
(5.62157 0.0145578 -8.01454e-19)
(5.61677 0.0141936 4.15095e-19)
(5.59898 0.0141172 -4.21096e-19)
(5.53645 0.0132196 2.07076e-19)
(5.2772 0.00844948 2.04391e-19)
(4.41395 0.0188833 -3.94485e-19)
(5.63166 -0.0684109 0)
(5.61944 -0.058844 -8.35485e-19)
(5.61135 -0.0465917 -2.90026e-20)
(5.60554 -0.0362164 6.26316e-20)
(5.60229 -0.0267864 -8.53877e-20)
(5.60125 -0.0188091 0)
(5.60214 -0.0120978 -6.05942e-19)
(5.60659 -0.00661126 -7.21863e-19)
(5.60984 -0.00230136 1.09411e-18)
(5.61291 0.00107195 0)
(5.61428 0.00383823 0)
(5.61271 0.00566003 0)
(5.60737 0.00683297 1.06702e-20)
(5.59054 0.00947868 -1.07084e-20)
(5.50335 0.00926311 -4.16896e-19)
(5.17325 0.00404961 1.06321e-19)
(4.40542 0.0237537 3.21245e-19)
(5.6544 -0.0766251 8.27823e-19)
(5.64145 -0.0656943 1.29534e-18)
(5.63131 -0.0548956 5.83232e-20)
(5.62341 -0.0459778 0)
(5.61809 -0.0376882 -5.33105e-19)
(5.61521 -0.0303306 0)
(5.61436 -0.0236794 0)
(5.61466 -0.01794 0)
(5.61571 -0.0131924 -3.27643e-19)
(5.61616 -0.00901621 0)
(5.61629 -0.00527249 0)
(5.61484 -0.00264911 0)
(5.6083 2.34309e-05 1.17315e-20)
(5.58852 0.00374498 1.31953e-20)
(5.47253 0.00317247 5.96763e-19)
(5.13678 -0.000285395 -2.63627e-20)
(4.43749 0.0258148 2.65249e-20)
(5.67988 -0.0677312 -3.43022e-19)
(5.66569 -0.0650777 -5.73591e-19)
(5.65423 -0.0581019 -2.27022e-19)
(5.64468 -0.051001 -2.44947e-19)
(5.63752 -0.0440548 2.5971e-19)
(5.63268 -0.0376547 -2.67767e-19)
(5.63 -0.0317214 0)
(5.629 -0.0263609 0)
(5.62885 -0.0215691 -3.08311e-19)
(5.62886 -0.0169678 3.20236e-19)
(5.62829 -0.0127452 6.66651e-19)
(5.62583 -0.00941378 -3.49287e-19)
(5.61746 -0.00572255 3.70316e-19)
(5.59169 -0.00204718 -3.84153e-19)
(5.47311 -0.00202197 -1.98287e-19)
(5.15466 -0.00310048 -1.96988e-19)
(4.49463 0.0240009 2.01988e-19)
(5.69908 -0.0615952 -4.53978e-19)
(5.68807 -0.0576653 -4.61298e-19)
(5.67715 -0.0540879 4.84287e-19)
(5.66736 -0.0496577 0)
(5.65941 -0.0450258 -5.03344e-19)
(5.65348 -0.040319 0)
(5.64959 -0.0356554 -5.4587e-19)
(5.6475 -0.0310863 -2.82223e-19)
(5.64661 -0.0266154 -4.135e-21)
(5.64616 -0.0221764 9.10856e-19)
(5.6455 -0.0181086 -9.43742e-19)
(5.64326 -0.014551 3.25599e-19)
(5.63477 -0.0105667 -6.73156e-19)
(5.60628 -0.00687297 3.47566e-19)
(5.50236 -0.00595364 1.79997e-19)
(5.20406 -0.00449137 -2.71299e-19)
(4.56964 0.0184236 -9.91775e-20)
(5.71321 -0.0482073 0)
(5.7042 -0.0466082 4.81309e-19)
(5.69526 -0.0448187 -4.8853e-19)
(5.6868 -0.0425507 4.98654e-19)
(5.67948 -0.0399658 2.59926e-19)
(5.67369 -0.0371129 -2.57365e-19)
(5.66959 -0.0340671 -5.28668e-19)
(5.66721 -0.0309059 2.69768e-19)
(5.66621 -0.0276161 5.51067e-19)
(5.66585 -0.0242521 2.87938e-19)
(5.66542 -0.0210428 -2.89857e-19)
(5.66396 -0.0178402 -7.4948e-19)
(5.65772 -0.0141635 6.15514e-19)
(5.63287 -0.0108816 -3.17687e-19)
(5.54539 -0.0096269 6.50548e-19)
(5.27112 -0.00611563 8.70793e-20)
(4.65891 0.0127035 -2.56889e-19)
(5.72142 -0.0301497 -8.39515e-22)
(5.71445 -0.0304618 -2.45819e-19)
(5.70708 -0.0315841 5.01443e-19)
(5.69994 -0.0315911 -5.07007e-19)
(5.69359 -0.0308503 -5.13941e-19)
(5.68845 -0.0295924 1.28248e-18)
(5.68472 -0.0279212 -5.16844e-19)
(5.68252 -0.0259605 0)
(5.68185 -0.0237668 -5.33371e-19)
(5.68222 -0.0214167 5.39691e-19)
(5.68249 -0.0190491 -4.11636e-19)
(5.68181 -0.0165853 7.00084e-19)
(5.67776 -0.0137507 5.71164e-19)
(5.6611 -0.0113233 -5.8163e-19)
(5.59066 -0.0105065 2.95256e-19)
(5.34366 -0.00728024 -3.03018e-19)
(4.75634 0.00703247 2.42052e-21)
(5.72789 -0.0124693 1.05403e-18)
(5.72128 -0.0136408 1.18532e-20)
(5.71468 -0.0150063 -2.5867e-19)
(5.70823 -0.0164015 -5.14121e-19)
(5.70236 -0.0171875 5.11077e-19)
(5.69755 -0.017547 -2.52213e-19)
(5.69403 -0.0174843 0)
(5.69184 -0.0170623 2.60206e-19)
(5.69113 -0.0163273 0)
(5.69221 -0.0154224 0)
(5.69364 -0.014481 5.21559e-19)
(5.69406 -0.0133871 -5.26803e-19)
(5.69154 -0.0117855 6.66355e-19)
(5.68172 -0.0102914 -6.70902e-19)
(5.62946 -0.0110301 1.35733e-19)
(5.41155 -0.0103372 0)
(4.85335 0.003982 2.11475e-19)
(5.72999 0.0122146 -5.62127e-19)
(5.72425 0.00726981 5.54906e-19)
(5.71835 0.00387635 5.39575e-19)
(5.71253 0.000907275 5.31716e-19)
(5.7071 -0.00134851 -2.6358e-19)
(5.70254 -0.00324909 -3.87805e-19)
(5.69918 -0.00479856 1.30794e-19)
(5.69705 -0.00605885 6.38673e-19)
(5.69588 -0.00704496 -1.01345e-18)
(5.69681 -0.00781811 0)
(5.69904 -0.00849431 -3.79894e-19)
(5.70016 -0.00914967 8.80354e-19)
(5.7002 -0.00937353 -6.30341e-19)
(5.69382 -0.00846542 -1.25469e-19)
(5.65704 -0.00883772 -6.49883e-20)
(5.46896 -0.0144282 6.51965e-20)
(4.94196 0.00528057 -6.39972e-20)
(5.7292 0.0313338 1.31772e-18)
(5.72329 0.0274021 -8.47036e-19)
(5.71749 0.0238899 8.43949e-19)
(5.71201 0.0196751 -2.31877e-18)