/*--------------------------------*- C++ -*----------------------------------*\
  =========                 |
  \\      /  F ield         | OpenFOAM: The Open Source CFD Toolbox
   \\    /   O peration     | Website:  https://openfoam.org
    \\  /    A nd           | Version:  6
     \\/     M anipulation  |
\*---------------------------------------------------------------------------*/
FoamFile
{
    version     2.0;
    format      ascii;
    class       volScalarField;
    location    "3.98";
    object      T;
}
// * * * * * * * * * * * * * * * * * * * * * * * * * * * * * * * * * * * * * //

dimensions      [0 0 0 1 0 0 0];

internalField   nonuniform List<scalar> 
5625
(
1
1
1
1
1
1
1
1
1
1
1
1
1
1
1
1
1
1
1
1
1
1
1
1
1
1
1
1
1
1
1
1
1
1
1
1
1
1
1
1
1
1
1
1
1
1
1
1
1
1
1
1
1
1
1
1
1
1
1
1
1
1
1
1
1
1
1
1
1
1
1
1
1
1
1
1
1
1
1
1
1
1
1
1
1
1
1
1
1
1
1
1
1
1
1
1
1
1
1
1
1
1
1
1
1
1
1
1
1
1
1
1
1
1
1
1
1
1
1
1
1
1
1
1
1
1
1
1
1
1
1
1
1
1
1
1
1
1
1
1
1
1
1
1
1
1
1
1
1
1
1
1
1
1
1
1
1
1
1
1
1
1
1
1
1
1
1
1
1
1
1
1
1
1
1
1
1
1
1
1
1
1
1
1
1
1
1
1
1
1
1
1
1
1
1
1
1
1
1
1
1
1
1
1
1
1
1
1
1
1
1
1
1
1
1
1
1
1
1
1
1
1
1
1
1
1
1
1
1
1
1
1
1
1
1
1
1
1
1
1
1
1
1
1
1
1
1
1
1
1
1
1
1
1
1
1
1
1
1
1
1
1
1
1
1
1
1
1
1
1
1
1
1
1
1
1
1
1
1
1
1
1
1
1
1
1
1
1
1
1
1
1
1
1
1
1
1
1
1
1
1
1
1
1
1
1
1
1
1
1
1
1
1
1
1
1
1
1
1
1
1
1
1
1
1
1
1
1
1
1
1
1
1
1
1
1
1
1
1
1
1
1
1
1
1
1
1
1
1
1
1
1
1
1
1
1
1
1
1
1
1
1
1
1
1
1
1
1
1
1
1
1
1
1
1
1
1
1
1
1
1
1
1
1
1
1
1
1
1
1
1
1
1
1
1
1
1
1
1
1
1
1
1
1
1
1
1
1
1
1
1
1
1
1
1
1
1
1
1
1
1
1
1
1
1
1
1
1
1
1
1
1
1
1
1
1
1
1
1
1
1
1
1
1
1
1
1
1
1
1
1
1
1
1
1
1
1
1
1
1
1
1
1
1
1
1
1
1
1
1
1
1
1
1
1
1
1
1
1
1
1
1
1
1
1
1
1
1
1
1
1
1
1
1
1
1
1
1
1
1
1
1
1
1
1
1
1
1
1
1
1
1
1
1
1
1
1
1
1
1
1
1
1
1
1
1
1
1
1
1
1
1
1
1
1
1
1
1
1
1
1
1
1
1
1
1
1
1.00001
1.00001
1.00001
1.00001
1.00001
1.00001
1.00001
1.00001
1.00001
1.00001
1
1
1
1
1
1
1
1
1
1
1
1
1
1
1
1
1
1
1
1
1
1
1
1
1
1
1
1
1
1
1
1
1
1
1
1
1
1
1
1
1
1
1
1
1
1
1
1
1
1
1
1
1
1
1
1
1
1
1
1
1
1.00001
1.00001
1.00001
1.00001
1.00001
1.00001
1.00001
1.00001
1.00001
1.00001
1.00001
1.00001
1.00001
1.00001
1.00001
1.00001
1.00001
1
1
1
1
1
1
1
1
1
1
1
1
1
1
1
1
1
1
1
1
1
1
1
1
1
1
1
1
1
1
1
1
1
1
1
1
1
1
1
1
1
1
1
1
1
1
1
1
1
1
1
1
1
1
1
1.00001
1.00001
1.00001
1.00001
1.00001
1.00001
1.00001
1.00001
1.00001
1.00001
1.00001
1.00001
1.00001
1.00001
1.00001
1.00001
1.00001
1.00001
1.00001
1.00001
1.00001
1.00001
1.00001
1
1
1
1
1
1
1
1
1
1
1
1
1
1
1
1
1
1
1
1
1
1
1
1
1
1
1
1
1
1
1
1
1
1
1
1
1
1
1
1
1
1
1
1
1
1
1
1
1
1
1.00001
1.00001
1.00001
1.00001
1.00001
1.00001
1.00001
1.00001
1.00001
1.00001
1.00001
1.00001
1.00001
1.00001
1.00001
1.00001
1.00001
1.00001
1.00001
1.00001
1.00001
1.00001
1.00001
1.00001
1.00001
1.00001
1.00001
1
1
1
1
1
1
1
1
1
1
1
1
1
1
1
1
1
1
1
1
1
1
1
1
1
1
1
1
1
1
1
1
1
1
1
1
1
1
1
1
1
1
1
1
1
1
1.00001
1.00001
1.00001
1.00001
1.00001
1.00001
1.00001
1.00001
1.00001
1.00001
1.00001
1.00001
1.00001
1.00001
1.00002
1.00002
1.00002
1.00001
1.00001
1.00001
1.00001
1.00001
1.00001
1.00001
1.00001
1.00001
1.00001
1.00001
1.00001
1.00001
1.00001
1
1
1
1
1
1
1
1
1
1
1
1
1
1
1
1
1
1
1
1
1
1
1
1
1
1
1
1
1
1
1
1
1
1
1
1
1
1
1
1
1
1
1
1.00001
1.00001
1.00001
1.00001
1.00001
1.00001
1.00001
1.00001
1.00001
1.00002
1.00002
1.00002
1.00002
1.00002
1.00002
1.00002
1.00002
1.00002
1.00002
1.00002
1.00002
1.00002
1.00002
1.00002
1.00001
1.00001
1.00001
1.00001
1.00001
1.00001
1.00001
1.00001
1.00001
1
1
1
1
1
1
1
1
1
1
1
1
1
1
1
1
1
1
1
1
1
1
1
1
1
1
1
1
1
1
1
1
1
1
1
1
1
1
1
1
1.00001
1.00001
1.00001
1.00001
1.00001
1.00001
1.00001
1.00001
1.00002
1.00002
1.00002
1.00002
1.00002
1.00002
1.00002
1.00002
1.00002
1.00002
1.00002
1.00002
1.00002
1.00002
1.00002
1.00002
1.00002
1.00002
1.00002
1.00002
1.00002
1.00001
1.00001
1.00001
1.00001
1.00001
1.00001
1.00001
1.00001
1
1
1
1
1
1
1
1
1
1
1
1
1
1
1
1
1
1
1
1
1
1
1
1
1
1
1
1
1
1
1
1
1
1
1
1
1
1.00001
1.00001
1.00001
1.00001
1.00001
1.00001
1.00001
1.00002
1.00002
1.00002
1.00002
1.00002
1.00002
1.00002
1.00002
1.00002
1.00002
1.00002
1.00002
1.00002
1.00002
1.00002
1.00002
1.00002
1.00002
1.00002
1.00002
1.00002
1.00002
1.00002
1.00002
1.00002
1.00001
1.00001
1.00001
1.00001
1.00001
1.00001
1.00001
1
1
1
1
1
1
1
1
1
1
1
1
1
1
1
1
1
1
1
1
1
1
1
1
1
1
1
1
1
1
1
1
1
1
1
1.00001
1.00001
1.00001
1.00001
1.00001
1.00001
1.00002
1.00002
1.00002
1.00002
1.00002
1.00002
1.00002
1.00002
1.00002
1.00003
1.00003
1.00003
1.00003
1.00003
1.00003
1.00003
1.00003
1.00003
1.00003
1.00003
1.00002
1.00002
1.00002
1.00002
1.00002
1.00002
1.00002
1.00002
1.00002
1.00001
1.00001
1.00001
1.00001
1.00001
1.00001
1
1
1
1
1
1
1
1
1
1
1
1
1
1
1
1
1
1
1
1
1
1
1
1
1
1
1
1
1
1
1
1
1
1.00001
1.00001
1.00001
1.00001
1.00001
1.00001
1.00002
1.00002
1.00002
1.00002
1.00002
1.00002
1.00002
1.00003
1.00003
1.00003
1.00003
1.00003
1.00003
1.00003
1.00003
1.00003
1.00003
1.00003
1.00003
1.00003
1.00003
1.00003
1.00003
1.00003
1.00003
1.00002
1.00002
1.00002
1.00002
1.00002
1.00002
1.00001
1.00001
1.00001
1.00001
1.00001
1.00001
1
1
1
1
1
1
1
1
1
1
1
1
1
1
1
1
1
1
1
1
1
1
1
1
1
1
1
1
1
1
1
1.00001
1.00001
1.00001
1.00001
1.00001
1.00002
1.00002
1.00002
1.00002
1.00002
1.00002
1.00003
1.00003
1.00003
1.00003
1.00003
1.00003
1.00003
1.00003
1.00003
1.00003
1.00003
1.00003
1.00003
1.00003
1.00003
1.00003
1.00003
1.00003
1.00003
1.00003
1.00003
1.00003
1.00003
1.00002
1.00002
1.00002
1.00002
1.00002
1.00002
1.00001
1.00001
1.00001
1.00001
1.00001
1
1
1
1
1
1
1
1
1
1
1
1
1
1
1
1
1
1
1
1
1
1
1
1
1
1
1
1
1
1.00001
1.00001
1.00001
1.00001
1.00001
1.00002
1.00002
1.00002
1.00002
1.00002
1.00003
1.00003
1.00003
1.00003
1.00003
1.00003
1.00003
1.00003
1.00003
1.00003
1.00003
1.00003
1.00003
1.00003
1.00003
1.00003
1.00003
1.00003
1.00003
1.00003
1.00003
1.00003
1.00003
1.00003
1.00003
1.00003
1.00003
1.00002
1.00002
1.00002
1.00002
1.00002
1.00001
1.00001
1.00001
1.00001
1.00001
1
1
1
1
1
1
1
1
1
1
1
1
1
1
1
1
1
1
1
1
1
1
1
1
1
1
1
1.00001
1.00001
1.00001
1.00001
1.00001
1.00002
1.00002
1.00002
1.00002
1.00002
1.00003
1.00003
1.00003
1.00003
1.00003
1.00003
1.00003
1.00003
1.00003
1.00002
1.00002
1.00002
1.00002
1.00002
1.00002
1.00002
1.00002
1.00002
1.00002
1.00002
1.00002
1.00003
1.00003
1.00003
1.00003
1.00003
1.00003
1.00003
1.00003
1.00002
1.00002
1.00002
1.00002
1.00002
1.00001
1.00001
1.00001
1.00001
1.00001
1
1
1
1
1
1
1
1
1
1
1
1
1
1
1
1
1
1
1
1
1
1
1
1
1
1.00001
1.00001
1.00001
1.00001
1.00001
1.00002
1.00002
1.00002
1.00002
1.00003
1.00003
1.00003
1.00003
1.00003
1.00003
1.00003
1.00003
1.00002
1.00002
1.00002
1.00002
1.00002
1.00002
1.00002
1.00002
1.00002
1.00002
1.00002
1.00002
1.00002
1.00002
1.00002
1.00002
1.00002
1.00003
1.00003
1.00003
1.00003
1.00003
1.00003
1.00003
1.00003
1.00002
1.00002
1.00002
1.00002
1.00001
1.00001
1.00001
1.00001
1.00001
1
1
1
1
1
1
1
1
1
1
1
1
1
1
1
1
1
1
1
1
1
1
1
1.00001
1.00001
1.00001
1.00001
1.00001
1.00002
1.00002
1.00002
1.00002
1.00003
1.00003
1.00003
1.00003
1.00003
1.00003
1.00003
1.00002
1.00002
1.00002
1.00002
1.00002
1.00002
1.00002
1.00001
1.00001
1.00001
1.00001
1.00001
1.00001
1.00001
1.00001
1.00002
1.00002
1.00002
1.00002
1.00002
1.00002
1.00003
1.00003
1.00003
1.00003
1.00003
1.00003
1.00003
1.00002
1.00002
1.00002
1.00002
1.00001
1.00001
1.00001
1.00001
1.00001
1
1
1
1
1
1
1
1
1
1
1
1
1
1
1
1
1
1
1
1
1
1
1.00001
1.00001
1.00001
1.00001
1.00002
1.00002
1.00002
1.00002
1.00003
1.00003
1.00003
1.00003
1.00003
1.00003
1.00002
1.00002
1.00002
1.00002
1.00002
1.00001
1.00001
1.00001
1.00001
1.00001
1.00001
1.00001
1.00001
1.00001
1.00001
1.00001
1.00001
1.00001
1.00001
1.00001
1.00002
1.00002
1.00002
1.00002
1.00002
1.00003
1.00003
1.00003
1.00003
1.00003
1.00003
1.00002
1.00002
1.00002
1.00002
1.00001
1.00001
1.00001
1.00001
1
1
1
1
1
1
1
1
1
1
1
1
1
1
1
1
1
1
1
1
1
1
1.00001
1.00001
1.00001
1.00002
1.00002
1.00002
1.00002
1.00003
1.00003
1.00003
1.00003
1.00003
1.00003
1.00002
1.00002
1.00002
1.00002
1.00001
1.00001
1.00001
1.00001
1
1
0.999999
0.999997
0.999996
0.999996
0.999996
0.999997
0.999998
1
1
1
1.00001
1.00001
1.00001
1.00001
1.00002
1.00002
1.00002
1.00003
1.00003
1.00003
1.00003
1.00003
1.00003
1.00002
1.00002
1.00002
1.00002
1.00001
1.00001
1.00001
1.00001
1
1
1
1
1
1
1
1
1
1
1
1
1
1
1
1
1
1
1
1
1
1.00001
1.00001
1.00002
1.00002
1.00002
1.00002
1.00003
1.00003
1.00003
1.00003
1.00003
1.00003
1.00002
1.00002
1.00002
1.00001
1.00001
1.00001
1
1
0.999997
0.999993
0.99999
0.999988
0.999986
0.999985
0.999984
0.999984
0.999986
0.999987
0.99999
0.999992
0.999995
0.999999
1
1.00001
1.00001
1.00001
1.00002
1.00002
1.00002
1.00002
1.00003
1.00003
1.00003
1.00003
1.00003
1.00002
1.00002
1.00002
1.00001
1.00001
1.00001
1.00001
1.00001
1
1
1
1
1
1
1
1
1
1
1
1
1
1
1
1
1
1
1
1
1.00001
1.00001
1.00002
1.00002
1.00002
1.00003
1.00003
1.00003
1.00003
1.00003
1.00002
1.00002
1.00002
1.00002
1.00001
1.00001
1
1
0.999995
0.99999
0.999985
0.999981
0.999976
0.999973
0.99997
0.999968
0.999967
0.999968
0.99997
0.999972
0.999976
0.99998
0.999984
0.999989
0.999993
0.999997
1
1.00001
1.00001
1.00001
1.00002
1.00002
1.00002
1.00003
1.00003
1.00003
1.00003
1.00003
1.00002
1.00002
1.00002
1.00001
1.00001
1.00001
1.00001
1
1
1
1
1
1
1
1
1
1
1
1
1
1
1
1
1
1
1
1
1.00001
1.00002
1.00002
1.00002
1.00003
1.00003
1.00003
1.00003
1.00003
1.00002
1.00002
1.00002
1.00002
1.00001
1.00001
1
0.999997
0.999991
0.999984
0.999977
0.99997
0.999963
0.999956
0.999951
0.999947
0.999944
0.999943
0.999944
0.999947
0.999951
0.999956
0.999962
0.999969
0.999975
0.999981
0.999987
0.999993
0.999999
1
1.00001
1.00001
1.00002
1.00002
1.00002
1.00003
1.00003
1.00003
1.00003
1.00003
1.00002
1.00002
1.00002
1.00001
1.00001
1.00001
1.00001
1
1
1
1
1
1
1
1
1
1
1
1
1
1
1
1
1
1
1
1.00002
1.00002
1.00002
1.00003
1.00003
1.00003
1.00003
1.00003
1.00002
1.00002
1.00002
1.00001
1.00001
1.00001
1
0.999994
0.999987
0.999978
0.999969
0.999958
0.999947
0.999937
0.999927
0.999918
0.999911
0.999907
0.999906
0.999908
0.999912
0.999919
0.999927
0.999937
0.999947
0.999956
0.999966
0.999974
0.999982
0.999989
0.999996
1
1.00001
1.00001
1.00002
1.00002
1.00002
1.00003
1.00003
1.00003
1.00003
1.00002
1.00002
1.00002
1.00002
1.00001
1.00001
1.00001
1.00001
1
1
1
1
1
1
1
1
1
1
1
1
1
1
1
1
1
1
1.00002
1.00002
1.00002
1.00003
1.00003
1.00003
1.00003
1.00002
1.00002
1.00002
1.00001
1.00001
1.00001
0.999999
0.999992
0.999984
0.999973
0.999961
0.999947
0.999931
0.999914
0.999897
0.999881
0.999867
0.999857
0.99985
0.999848
0.999851
0.999859
0.999869
0.999883
0.999898
0.999913
0.999929
0.999943
0.999956
0.999967
0.999977
0.999986
0.999993
1
1.00001
1.00001
1.00002
1.00002
1.00003
1.00003
1.00003
1.00003
1.00003
1.00002
1.00002
1.00002
1.00001
1.00001
1.00001
1.00001
1
1
1
1
1
1
1
1
1
1
1
1
1
1
1
1
1
1
1.00002
1.00002
1.00003
1.00003
1.00003
1.00003
1.00003
1.00002
1.00002
1.00001
1.00001
1.00001
0.999999
0.999991
0.999982
0.99997
0.999955
0.999936
0.999914
0.99989
0.999863
0.999837
0.999811
0.999789
0.999772
0.999761
0.999758
0.999763
0.999774
0.999792
0.999814
0.999838
0.999863
0.999887
0.999909
0.999929
0.999946
0.99996
0.999973
0.999983
0.999992
1
1.00001
1.00001
1.00002
1.00002
1.00003
1.00003
1.00003
1.00003
1.00003
1.00002
1.00002
1.00002
1.00001
1.00001
1.00001
1.00001
1
1
1
1
1
1
1
1
1
1
1
1
1
1
1
1
1
1.00002
1.00003
1.00003
1.00003
1.00003
1.00003
1.00002
1.00002
1.00002
1.00001
1.00001
1
0.999992
0.999982
0.999969
0.999951
0.999928
0.999899
0.999866
0.999827
0.999786
0.999743
0.999703
0.999667
0.99964
0.999623
0.999618
0.999625
0.999644
0.999672
0.999707
0.999745
0.999785
0.999823
0.999858
0.999889
0.999915
0.999937
0.999955
0.999969
0.999981
0.999991
1
1.00001
1.00001
1.00002
1.00002
1.00003
1.00003
1.00003
1.00003
1.00002
1.00002
1.00002
1.00001
1.00001
1.00001
1.00001
1
1
1
1
1
1
1
1
1
1
1
1
1
1
1
1
1
1.00002
1.00003
1.00003
1.00003
1.00003
1.00002
1.00002
1.00002
1.00001
1.00001
1
0.999993
0.999983
0.999969
0.99995
0.999923
0.999888
0.999845
0.999793
0.999733
0.999668
0.999601
0.999537
0.99948
0.999436
0.999409
0.999401
0.999412
0.999441
0.999486
0.999541
0.999603
0.999666
0.999726
0.999781
0.999829
0.99987
0.999903
0.99993
0.999951
0.999967
0.999981
0.999992
1
1.00001
1.00002
1.00002
1.00002
1.00003
1.00003
1.00003
1.00003
1.00002
1.00002
1.00002
1.00001
1.00001
1.00001
1.00001
1
1
1
1
1
1
1
1
1
1
1
1
1
1
1
1
1.00003
1.00003
1.00003
1.00003
1.00002
1.00002
1.00002
1.00001
1.00001
1
0.999996
0.999986
0.999972
0.999952
0.999923
0.999882
0.99983
0.999763
0.999683
0.99959
0.999489
0.999385
0.999285
0.999197
0.999127
0.999084
0.99907
0.999088
0.999134
0.999203
0.99929
0.999386
0.999485
0.999579
0.999666
0.99974
0.999803
0.999854
0.999894
0.999925
0.999949
0.999967
0.999981
0.999993
1
1.00001
1.00002
1.00002
1.00003
1.00003
1.00003
1.00003
1.00002
1.00002
1.00002
1.00001
1.00001
1.00001
1.00001
1
1
1
1
1
1
1
1
1
1
1
1
1
1
1
1
1.00003
1.00003
1.00003
1.00003
1.00002
1.00002
1.00001
1.00001
1
0.999998
0.99999
0.999977
0.999957
0.999927
0.999884
0.999823
0.999744
0.999643
0.99952
0.999379
0.999224
0.999064
0.998909
0.998771
0.998663
0.998595
0.998574
0.9986
0.998671
0.99878
0.998914
0.999063
0.999215
0.999361
0.999494
0.999609
0.999705
0.999782
0.999842
0.999888
0.999923
0.999949
0.999968
0.999983
0.999995
1.00001
1.00001
1.00002
1.00002
1.00003
1.00003
1.00003
1.00003
1.00002
1.00002
1.00002
1.00001
1.00001
1.00001
1.00001
1
1
1
1
1
1
1
1
1
1
1
1
1
1
1
1.00003
1.00003
1.00003
1.00002
1.00002
1.00002
1.00001
1.00001
1
0.999994
0.999983
0.999965
0.999937
0.999893
0.999828
0.999737
0.999618
0.999466
0.999281
0.999068
0.998833
0.998589
0.998352
0.998142
0.997977
0.997872
0.997839
0.99788
0.997989
0.998154
0.998359
0.998587
0.998818
0.99904
0.999242
0.999416
0.999561
0.999677
0.999768
0.999836
0.999886
0.999924
0.999951
0.999971
0.999986
0.999998
1.00001
1.00002
1.00002
1.00003
1.00003
1.00003
1.00003
1.00002
1.00002
1.00002
1.00001
1.00001
1.00001
1.00001
1
1
1
1
1
1
1
1
1
1
1
1
1
1
1
1.00003
1.00003
1.00002
1.00002
1.00002
1.00001
1.00001
1
0.999998
0.999989
0.999974
0.999949
0.999908
0.999843
0.999747
0.999614
0.999436
0.999211
0.998936
0.998618
0.998266
0.997899
0.997543
0.997226
0.996978
0.996822
0.996773
0.996834
0.996998
0.997247
0.997555
0.997897
0.998245
0.998577
0.998879
0.999139
0.999355
0.999528
0.999662
0.999762
0.999836
0.999889
0.999928
0.999955
0.999975
0.99999
1
1.00001
1.00002
1.00002
1.00003
1.00003
1.00003
1.00002
1.00002
1.00002
1.00001
1.00001
1.00001
1.00001
1
1
1
1
1
1
1
1
1
1
1
1
1
1
1
1.00003
1.00003
1.00002
1.00002
1.00001
1.00001
1
1
0.999994
0.999983
0.999963
0.999927
0.999867
0.999772
0.999632
0.999438
0.999178
0.998848
0.998445
0.997975
0.997455
0.996913
0.996386
0.995919
0.995553
0.995323
0.995252
0.995345
0.995588
0.995956
0.996412
0.996916
0.99743
0.99792
0.998364
0.998747
0.999064
0.999318
0.999513
0.999659
0.999766
0.999842
0.999896
0.999934
0.999961
0.99998
0.999995
1.00001
1.00001
1.00002
1.00003
1.00003
1.00003
1.00003
1.00002
1.00002
1.00002
1.00001
1.00001
1.00001
1.00001
1
1
1
1
1
1
1
1
1
1
1
1
1
1
1.00003
1.00002
1.00002
1.00002
1.00001
1.00001
1
0.999997
0.99999
0.999976
0.999949
0.999897
0.999809
0.999672
0.999471
0.999191
0.998817
0.99834
0.997756
0.997073
0.996316
0.995527
0.994763
0.994086
0.993558
0.993229
0.993129
0.993266
0.99362
0.994155
0.994817
0.995548
0.996293
0.997004
0.997647
0.998202
0.998661
0.999026
0.999308
0.999518
0.999671
0.999779
0.999854
0.999907
0.999943
0.999968
0.999987
1
1.00001
1.00002
1.00002
1.00003
1.00003
1.00003
1.00002
1.00002
1.00002
1.00001
1.00001
1.00001
1.00001
1
1
1
1
1
1
1
1
1
1
1
1
1
1
1.00003
1.00002
1.00002
1.00001
1.00001
1
1
0.999995
0.999986
0.999968
0.999929
0.999855
0.99973
0.999535
0.999249
0.998852
0.998321
0.99764
0.996805
0.995827
0.994745
0.993618
0.992529
0.991569
0.990822
0.99036
0.990222
0.990418
0.990924
0.991686
0.99263
0.993673
0.994735
0.995749
0.996666
0.997457
0.99811
0.998629
0.999029
0.999326
0.999541
0.999694
0.999799
0.999871
0.99992
0.999953
0.999976
0.999993
1.00001
1.00001
1.00002
1.00003
1.00003
1.00003
1.00002
1.00002
1.00002
1.00002
1.00001
1.00001
1.00001
1
1
1
1
1
1
1
1
1
1
1
1
1
1
1.00002
1.00002
1.00002
1.00001
1.00001
1
0.999998
0.999993
0.999983
0.999958
0.999902
0.999797
0.999621
0.999348
0.998948
0.998393
0.997649
0.996693
0.995517
0.994141
0.99262
0.991042
0.989522
0.988186
0.987149
0.986506
0.986315
0.986589
0.987296
0.988361
0.989682
0.991145
0.992635
0.994059
0.995345
0.996454
0.99737
0.998097
0.998655
0.99907
0.99937
0.999581
0.999726
0.999824
0.99989
0.999934
0.999964
0.999985
1
1.00001
1.00002
1.00002
1.00003
1.00003
1.00003
1.00002
1.00002
1.00002
1.00001
1.00001
1.00001
1.00001
1
1
1
1
1
1
1
1
1
1
1
1
1
1.00002
1.00002
1.00002
1.00001
1
0.999999
0.999996
0.999992
0.99998
0.999944
0.999865
0.999719
0.999475
0.999099
0.99855
0.997785
0.996758
0.995435
0.993806
0.991904
0.989808
0.987642
0.985563
0.983734
0.982314
0.98143
0.981161
0.981529
0.982494
0.983955
0.985773
0.98779
0.989849
0.991816
0.993596
0.995128
0.996392
0.997395
0.998164
0.998734
0.999145
0.999433
0.999631
0.999764
0.999852
0.99991
0.999949
0.999975
0.999993
1.00001
1.00002
1.00002
1.00003
1.00003
1.00003
1.00002
1.00002
1.00002
1.00001
1.00001
1.00001
1.00001
1
1
1
1
1
1
1
1
1
1
1
1
1
1.00002
1.00002
1.00001
1.00001
1
0.999997
0.999996
0.999992
0.999975
0.999926
0.999817
0.999616
0.999284
0.998774
0.998031
0.996994
0.995597
0.993795
0.99158
0.989001
0.986172
0.983258
0.980461
0.977996
0.976072
0.974862
0.974481
0.974963
0.976254
0.978223
0.980683
0.983418
0.986216
0.988893
0.991315
0.993402
0.995122
0.996485
0.997528
0.9983
0.998855
0.999244
0.999509
0.999687
0.999804
0.99988
0.99993
0.999963
0.999986
1
1.00001
1.00002
1.00002
1.00003
1.00003
1.00002
1.00002
1.00002
1.00001
1.00001
1.00001
1.00001
1
1
1
1
1
1
1
1
1
1
1
1
1
1.00002
1.00002
1.00001
1
0.999998
0.999996
0.999996
0.999992
0.999971
0.999903
0.999754
0.999483
0.999038
0.998359
0.997371
0.995985
0.994116
0.991704
0.988749
0.985325
0.981582
0.97773
0.974023
0.97074
0.968161
0.966528
0.965999
0.966622
0.968326
0.970937
0.974205
0.977847
0.981579
0.985158
0.988401
0.991195
0.993499
0.995325
0.996719
0.99775
0.998489
0.999005
0.999357
0.999591
0.999744
0.999843
0.999907
0.999949
0.999977
0.999996
1.00001
1.00002
1.00002
1.00003
1.00003
1.00003
1.00002
1.00002
1.00002
1.00001
1.00001
1.00001
1
1
1
1
1
1
1
1
1
1
1
1
1
1.00002
1.00002
1.00001
1
0.999995
0.999994
0.999997
0.999994
0.999965
0.999873
0.999674
0.999314
0.99873
0.997842
0.996546
0.994725
0.992266
0.9891
0.985238
0.980785
0.975924
0.970911
0.966062
0.961746
0.958347
0.956194
0.955497
0.956312
0.958537
0.96194
0.966198
0.970946
0.975821
0.980507
0.984762
0.988437
0.99147
0.993873
0.995708
0.997063
0.998033
0.998709
0.999168
0.999473
0.999671
0.999799
0.99988
0.999932
0.999966
0.999989
1
1.00001
1.00002
1.00003
1.00003
1.00003
1.00002
1.00002
1.00002
1.00001
1.00001
1.00001
1.00001
1
1
1
1
1
1
1
1
1
1
1
1
1.00002
1.00001
1.00001
0.999999
0.999993
0.999993
0.999999
0.999998
0.999958
0.999835
0.999573
0.999107
0.998355
0.997211
0.99554
0.993186
0.99001
0.985938
0.980998
0.975317
0.969109
0.962675
0.95642
0.950849
0.946482
0.943748
0.9429
0.943985
0.946855
0.951209
0.95664
0.962689
0.968907
0.974896
0.980353
0.98508
0.988993
0.992099
0.994472
0.996224
0.997477
0.998348
0.998939
0.99933
0.999584
0.999746
0.999848
0.999913
0.999955
0.999982
1
1.00001
1.00002
1.00002
1.00003
1.00003
1.00002
1.00002
1.00002
1.00001
1.00001
1.00001
1.00001
1
1
1
1
1
1
1
1
1
1
1
1
1.00002
1.00001
1.00001
0.999996
0.99999
0.999993
1
1
0.99995
0.999789
0.999451
0.998859
0.997908
0.996461
0.994342
0.991353
0.98733
0.982202
0.976011
0.968895
0.961085
0.952947
0.945027
0.938014
0.932588
0.929265
0.928312
0.929753
0.933393
0.938854
0.945632
0.953166
0.960906
0.968372
0.975194
0.981128
0.986059
0.989988
0.992997
0.995221
0.996813
0.997918
0.998666
0.99916
0.99948
0.999683
0.999811
0.999891
0.999941
0.999973
0.999995
1.00001
1.00002
1.00002
1.00003
1.00003
1.00002
1.00002
1.00002
1.00001
1.00001
1.00001
1.00001
1
1
1
1
1
1
1
1
1
1
1
1
1.00002
1.00001
1
0.999993
0.999987
0.999993
1.00001
1.00001
0.99994
0.999734
0.999309
0.99857
0.99739
0.995591
0.992949
0.989224
0.984234
0.977912
0.970303
0.961535
0.951858
0.941746
0.931956
0.923398
0.916891
0.912989
0.911958
0.913806
0.918305
0.925012
0.933314
0.942522
0.951962
0.961059
0.969381
0.976642
0.982704
0.987557
0.991289
0.994056
0.996039
0.997417
0.998348
0.998963
0.99936
0.999611
0.999768
0.999865
0.999926
0.999964
0.999989
1.00001
1.00002
1.00002
1.00003
1.00003
1.00002
1.00002
1.00002
1.00002
1.00001
1.00001
1.00001
1
1
1
1
1
1
1
1
1
1
1
1
1.00002
1.00001
1
0.999989
0.999983
0.999995
1.00002
1.00002
0.99993
0.999672
0.999148
0.998245
0.996806
0.994609
0.991374
0.986822
0.980763
0.973128
0.963945
0.953314
0.941525
0.929237
0.917474
0.907352
0.899755
0.895227
0.894038
0.896235
0.901616
0.90969
0.919719
0.930838
0.9422
0.953108
0.963059
0.971742
0.979011
0.984857
0.989377
0.992743
0.995163
0.996848
0.997988
0.998739
0.999223
0.999529
0.99972
0.999837
0.999909
0.999955
0.999983
1
1.00001
1.00002
1.00002
1.00003
1.00002
1.00002
1.00002
1.00002
1.00001
1.00001
1.00001
1
1
1
1
1
1
1
1
1
1
1
1
1.00002
1.00001
1
0.999984
0.999979
0.999996
1.00003
1.00003
0.99992
0.999605
0.998973
0.997892
0.996169
0.993531
0.989643
0.984196
0.976992
0.967952
0.957059
0.944382
0.930306
0.91575
0.902016
0.89034
0.881567
0.876206
0.874605
0.876959
0.883168
0.892716
0.904711
0.918051
0.931647
0.944615
0.956362
0.966564
0.975095
0.981973
0.987315
0.991314
0.994203
0.996222
0.99759
0.998492
0.999073
0.999439
0.999667
0.999806
0.999891
0.999944
0.999977
0.999998
1.00001
1.00002
1.00002
1.00003
1.00003
1.00002
1.00002
1.00002
1.00001
1.00001
1.00001
1.00001
1
1
1
1
1
1
1
1
1
1
1
1.00002
1.00001
0.999998
0.99998
0.999975
0.999998
1.00004
1.00004
0.999912
0.999536
0.99879
0.99752
0.995495
0.992385
0.987804
0.981419
0.973027
0.962523
0.949824
0.934983
0.918552
0.901758
0.886118
0.872843
0.862658
0.856086
0.853689
0.85593
0.862868
0.873969
0.888161
0.904057
0.920252
0.935605
0.949382
0.961233
0.971082
0.979008
0.985179
0.98982
0.99319
0.995556
0.997164
0.998227
0.998911
0.999343
0.99961
0.999773
0.999872
0.999933
0.99997
0.999994
1.00001
1.00002
1.00002
1.00003
1.00003
1.00002
1.00002
1.00002
1.00001
1.00001
1.00001
1.00001
1
1
1
1
1
1
1
1
1
1
1
1.00002
1.00001
0.999997
0.999974
0.999969
1
1.00005
1.00006
0.999907
0.99947
0.998609
0.997146
0.99481
0.99121
0.985917
0.978585
0.969003
0.957021
0.942476
0.925446
0.906718
0.887812
0.870332
0.855328
0.843395
0.835207
0.831679
0.833605
0.841184
0.853843
0.870336
0.888997
0.908083
0.926128
0.942188
0.955849
0.967086
0.976071
0.983057
0.988323
0.992165
0.994875
0.996726
0.997952
0.998744
0.999243
0.999551
0.999739
0.999852
0.999921
0.999963
0.99999
1.00001
1.00002
1.00002
1.00003
1.00003
1.00002
1.00002
1.00002
1.00001
1.00001
1.00001
1.00001
1
1
1
1
1
1
1
1
1
1
1
1.00002
1.00002
0.999996
0.999969
0.999962
1
1.00007
1.00008
0.999907
0.999412
0.99844
0.996788
0.994141
0.990055
0.984061
0.975806
0.965075
0.951651
0.935298
0.916169
0.895313
0.874478
0.855207
0.838323
0.824397
0.81441
0.809696
0.811302
0.819471
0.833558
0.852198
0.873536
0.895541
0.916409
0.934917
0.950522
0.963212
0.973262
0.981033
0.986889
0.991174
0.99421
0.996294
0.99768
0.998576
0.999142
0.999492
0.999705
0.999833
0.99991
0.999957
0.999986
1
1.00002
1.00002
1.00002
1.00003
1.00002
1.00002
1.00002
1.00001
1.00001
1.00001
1.00001
1
1
1
1
1
1
1
1
1
1
1
1.00002
1.00002
0.999996
0.999963
0.999954
0.999999
1.00008
1.0001
0.999917
0.99937
0.998294
0.996465
0.993524
0.988974
0.982318
0.973205
0.961408
0.946638
0.928606
0.907576
0.884851
0.862301
0.841308
0.822521
0.806651
0.795085
0.789492
0.790984
0.799701
0.814918
0.835252
0.858813
0.883404
0.906929
0.927851
0.94542
0.959579
0.970677
0.979191
0.985585
0.990266
0.993594
0.995889
0.997422
0.998417
0.999046
0.999435
0.999672
0.999814
0.999899
0.999951
0.999982
1
1.00001
1.00002
1.00002
1.00003
1.00002
1.00002
1.00002
1.00001
1.00001
1.00001
1.00001
1
1
1
1
1
1
1
1
1
1
1
1.00002
1.00002
0.999997
0.999958
0.999944
0.999995
1.00009
1.00013
0.999937
0.999349
0.998184
0.9962
0.992994
0.988025
0.980775
0.970904
0.958167
0.942212
0.922718
0.900078
0.875806
0.851791
0.82924
0.808762
0.791353
0.778778
0.772841
0.774506
0.783701
0.799628
0.821002
0.846065
0.872609
0.898333
0.921394
0.940785
0.956336
0.968418
0.977607
0.984468
0.989485
0.993059
0.995532
0.997192
0.998273
0.998959
0.999383
0.999642
0.999797
0.999889
0.999945
0.999979
1
1.00001
1.00002
1.00002
1.00003
1.00002
1.00002
1.00002
1.00001
1.00001
1.00001
1.00001
1
1
1
1
1
1
1
1
1
1
1
1.00002
1.00002
0.999999
0.999954
0.999934
0.999986
1.0001
1.00015
0.999969
0.999354
0.998121
0.996011
0.992586
0.987264
0.979515
0.969013
0.955505
0.938585
0.917923
0.89404
0.868588
0.843409
0.819598
0.797869
0.779546
0.766629
0.760857
0.762915
0.772479
0.788694
0.810446
0.836225
0.863955
0.891242
0.915982
0.936897
0.953651
0.96659
0.976352
0.983594
0.988871
0.992633
0.995243
0.997002
0.998153
0.998885
0.999339
0.999616
0.999782
0.999881
0.99994
0.999976
0.999999
1.00001
1.00002
1.00002
1.00003
1.00002
1.00002
1.00002
1.00001
1.00001
1.00001
1.00001
1
1
1
1
1
1
1
1
1
1
1
1.00002
1.00003
1
0.999952
0.999921
0.999973
1.0001
1.00018
1.00001
0.999389
0.998114
0.995916
0.992331
0.986742
0.978612
0.967631
0.953552
0.935933
0.914457
0.88975
0.863519
0.83754
0.812882
0.790452
0.771831
0.75908
0.75376
0.756283
0.766102
0.782302
0.803926
0.829756
0.857943
0.886112
0.911976
0.934008
0.951687
0.965292
0.975489
0.983003
0.988456
0.99234
0.99504
0.996865
0.998064
0.998829
0.999306
0.999596
0.999771
0.999874
0.999937
0.999974
0.999997
1.00001
1.00002
1.00002
1.00003
1.00002
1.00002
1.00002
1.00001
1.00001
1.00001
1.00001
1
1
1
1
1
1
1
1
1
1
1
1.00002
1.00003
1.00001
0.999953
0.999909
0.999954
1.00009
1.0002
1.00007
0.999457
0.998169
0.995928
0.992251
0.986497
0.97812
0.966832
0.952401
0.934381
0.912482
0.887392
0.860811
0.834446
0.809411
0.786804
0.768332
0.75598
0.751129
0.754028
0.763993
0.780035
0.801266
0.826707
0.854773
0.883199
0.909618
0.932306
0.95057
0.964602
0.975064
0.982726
0.98826
0.992194
0.994932
0.996788
0.998011
0.998795
0.999284
0.999583
0.999763
0.99987
0.999934
0.999973
0.999996
1.00001
1.00002
1.00002
1.00002
1.00002
1.00002
1.00002
1.00001
1.00001
1.00001
1.00001
1
1
1
1
1
1
1
1
1
1
1
1.00001
1.00004
1.00002
0.999959
0.9999
0.99993
1.00008
1.00022
1.00013
0.999557
0.998288
0.996053
0.992363
0.986557
0.97808
0.966665
0.952112
0.933996
0.912068
0.887038
0.860544
0.834227
0.809277
0.78692
0.768854
0.756912
0.752352
0.755403
0.765378
0.78122
0.801999
0.826846
0.854403
0.882578
0.909021
0.931898
0.950379
0.964567
0.975102
0.982776
0.988292
0.992204
0.994926
0.996775
0.997998
0.998784
0.999277
0.999578
0.99976
0.999868
0.999933
0.999972
0.999996
1.00001
1.00002
1.00002
1.00002
1.00002
1.00002
1.00002
1.00001
1.00001
1.00001
1.00001
1
1
1
1
1
1
1
1
1
1
1
1.00001
1.00004
1.00003
0.99997
0.999893
0.999901
1.00005
1.00023
1.0002
0.999685
0.99847
0.99629
0.992667
0.98693
0.978508
0.967152
0.952703
0.934787
0.913207
0.888655
0.862663
0.836811
0.812354
0.790572
0.773066
0.761482
0.756984
0.759896
0.769685
0.785291
0.805649
0.829844
0.856655
0.884186
0.910187
0.932808
0.951134
0.965198
0.975606
0.98315
0.988549
0.992366
0.995021
0.996827
0.998025
0.998798
0.999284
0.999582
0.999762
0.999869
0.999933
0.999972
0.999996
1.00001
1.00002
1.00002
1.00002
1.00002
1.00002
1.00002
1.00001
1.00001
1.00001
1.00001
1
1
1
1
1
1
1
1
1
1
1
0.999999
1.00003
1.00004
0.999986
0.999895
0.999875
1
1.00021
1.00025
0.999832
0.998706
0.99663
0.993154
0.987606
0.979396
0.968283
0.954153
0.936709
0.915811
0.892105
0.866992
0.841979
0.818354
0.797402
0.780602
0.769395
0.764828
0.767363
0.776744
0.792012
0.811939
0.835436
0.861319
0.887879
0.913033
0.934986
0.952804
0.966468
0.976552
0.983829
0.989015
0.99267
0.99521
0.996941
0.998091
0.998835
0.999304
0.999593
0.999768
0.999872
0.999935
0.999973
0.999997
1.00001
1.00002
1.00002
1.00002
1.00002
1.00002
1.00002
1.00001
1.00001
1.00001
1.00001
1
1
1
1
1
1
1
1
1
1
1
0.999991
1.00003
1.00005
1.00001
0.999907
0.999851
0.999948
1.00017
1.00029
0.999986
0.998986
0.997059
0.9938
0.988556
0.980715
0.970025
0.956411
0.939674
0.919738
0.89719
0.873277
0.849417
0.826892
0.806979
0.791064
0.780372
0.775773
0.777833
0.786623
0.801379
0.820744
0.843411
0.868164
0.893456
0.9174
0.93832
0.955305
0.968317
0.977893
0.984777
0.989663
0.993098
0.995483
0.997109
0.998192
0.998894
0.999338
0.999612
0.999778
0.999878
0.999938
0.999975
0.999997
1.00001
1.00002
1.00002
1.00002
1.00002
1.00002
1.00002
1.00001
1.00001
1.00001
1.00001
1
1
1
1
1
1
1
1
1
1
1
0.999982
1.00001
1.00006
1.00003
0.99993
0.999839
0.99989
1.00011
1.0003
1.00013
0.999292
0.997555
0.994571
0.98973
0.982405
0.97231
0.959395
0.94356
0.924807
0.90366
0.881214
0.858765
0.837549
0.818849
0.803999
0.794025
0.78956
0.791184
0.799272
0.813303
0.831872
0.853488
0.876879
0.900631
0.923059
0.942635
0.958513
0.970653
0.979563
0.985945
0.990461
0.993627
0.995824
0.997322
0.998321
0.99897
0.999382
0.999637
0.999792
0.999886
0.999943
0.999977
0.999999
1.00001
1.00002
1.00002
1.00002
1.00002
1.00002
1.00002
1.00001
1.00001
1.00001
1.00001
1
1
1
1
1
1
1
1
1
1
1
0.999978
0.999999
1.00005
1.00005
0.999965
0.999846
0.999837
1.00002
1.00027
1.00024
0.999601
0.998094
0.995429
0.991065
0.984383
0.975047
0.962997
0.948224
0.930812
0.91124
0.890462
0.869628
0.849888
0.83253
0.818888
0.809819
0.80568
0.806979
0.814324
0.827448
0.844971
0.865282
0.887075
0.909055
0.929722
0.94771
0.962264
0.973361
0.981479
0.987276
0.991366
0.994229
0.996214
0.997567
0.998472
0.999061
0.999435
0.999668
0.99981
0.999896
0.999948
0.99998
1
1.00001
1.00002
1.00002
1.00002
1.00002
1.00002
1.00002
1.00001
1.00001
1.00001
1.00001
1
1
1
1
1
1
1
1
1
1
1
0.99998
0.999983
1.00004
1.00007
1.00001
0.999873
0.999803
0.999923
1.00018
1.0003
0.999883
0.998645
0.99633
0.992491
0.986548
0.97811
0.967083
0.95351
0.937546
0.919655
0.900676
0.881604
0.863464
0.847534
0.835182
0.827137
0.823467
0.824551
0.831171
0.843286
0.859572
0.878361
0.89835
0.918364
0.937083
0.953305
0.966378
0.97631
0.98355
0.988707
0.992337
0.994875
0.996633
0.997833
0.998636
0.99916
0.999494
0.999701
0.999829
0.999907
0.999954
0.999984
1