/*--------------------------------*- C++ -*----------------------------------*\
  =========                 |
  \\      /  F ield         | OpenFOAM: The Open Source CFD Toolbox
   \\    /   O peration     | Website:  https://openfoam.org
    \\  /    A nd           | Version:  6
     \\/     M anipulation  |
\*---------------------------------------------------------------------------*/
FoamFile
{
    version     2.0;
    format      ascii;
    class       volScalarField;
    location    "1.8";
    object      rho;
}
// * * * * * * * * * * * * * * * * * * * * * * * * * * * * * * * * * * * * * //

dimensions      [1 -3 0 0 0 0 0];

internalField   nonuniform List<scalar> 
24166
(
1.39767
1.40297
1.40001
1.40001
1.40001
1.40001
1.40001
1.40001
1.40099
1.40001
1.39997
1.40073
1.40025
1.39747
1.40017
1.40001
1.40004
1.40009
1.40001
1.40001
1.40001
1.40001
1.40001
1.40001
1.4005
1.40001
1.40001
1.3926
1.40001
1.40001
1.39599
1.40001
1.40001
1.40001
1.4
1.49407
1.40001
1.38954
1.40001
1.2469
1.40001
1.40001
1.40001
1.40001
1.40003
1.40001
1.40442
1.4226
1.40001
1.42083
1.40001
1.39999
1.40001
1.40006
1.4
1.41086
1.4143
1.40001
1.40001
1.40002
1.18501
1.39987
1.40001
1.40001
1.4
1.40001
1.40001
1.38809
1.31795
1.40001
1.40001
1.39997
1.40001
1.40001
1.40001
1.40001
1.40001
1.42442
1.40001
1.40001
1.45879
1.40001
1.40001
1.44281
1.40019
1.40001
1.39996
1.40001
1.40001
1.4
1.40001
1.40001
1.39946
1.40001
1.39987
1.4
1.40001
1.39971
1.4
1.40001
1.4
1.40001
1.39985
1.40001
1.40001
1.40001
1.40001
1.4
1.40001
1.4
1.40001
1.40001
1.40001
1.46506
1.3455
1.4
1.40001
1.40001
1.40001
1.40001
1.40001
1.40001
1.3984
1.40001
1.41435
1.40022
1.4
1.40001
1.40001
1.40001
1.4595
1.39813
1.39129
1.4066
1.4
1.4
1.40001
1.45021
1.40001
1.40001
1.40598
1.40001
1.44195
1.40001
1.38133
1.4
1.40001
1.40002
1.42763
1.40001
1.40001
1.40001
1.4
1.4
1.40001
1.40001
1.40001
1.40001
1.40001
1.40002
1.39943
1.41504
1.40001
1.40001
1.4
1.40001
1.30602
1.40001
1.40001
1.40001
1.40001
1.40001
1.40001
1.3997
1.40001
1.40016
1.40001
1.40001
1.40002
1.4079
1.4
1.40001
1.44846
1.40001
1.40001
1.40001
1.40001
1.4
1.4
1.40001
1.4
1.40507
1.40001
1.39904
1.40001
1.40001
1.40177
1.40001
1.40002
1.40001
1.40001
1.40001
1.40001
1.4069
1.40001
1.40001
1.40001
1.40001
1.4
1.34697
1.41124
1.40001
1.39963
1.39998
1.40001
1.4
1.40001
1.40001
1.48731
1.40001
1.40001
1.39892
1.40001
1.40001
1.4116
1.40001
1.40001
1.4
1.40009
1.40001
1.40068
1.40001
1.40004
1.40001
1.36172
1.40001
1.39995
1.40001
1.40001
1.40001
1.4
1.40001
1.40001
1.40001
1.40004
1.40001
1.40009
1.39995
1.39939
1.4
1.40007
1.4
1.4
1.44505
1.40001
1.40001
1.40001
1.40036
1.40001
1.4
1.40001
1.40001
1.40001
1.40022
1.40001
1.40001
1.4
1.40001
1.40001
1.40001
1.39997
1.28022
1.40001
1.40261
1.4
1.4
1.40001
1.53489
1.4
1.40001
1.40607
1.40001
1.1525
1.40001
1.40001
1.40001
1.40001
1.40001
1.40028
1.40001
1.41367
1.40001
1.40001
1.4
1.39974
1.21862
1.40001
1.40001
1.39821
1.40001
1.4
1.40003
1.40097
1.40001
1.40001
1.40001
1.40001
1.39995
1.39657
1.40001
1.4064
1.40001
1.40001
0.974633
1.39763
1.40001
1.40005
1.40001
1.39998
1.40067
1.40001
1.40001
1.42562
1.40001
1.4
1.4
1.40001
1.40001
1.40001
1.48165
1.40001
1.4
1.40001
1.40026
1.40001
1.40536
1.40001
1.4
1.40001
1.40118
1.40001
1.40001
1.40001
1.40001
1.4
1.4
1.40001
1.40001
1.40001
1.40001
1.40001
1.40001
1.40001
1.40001
1.40001
1.40001
1.40001
1.40001
1.3603
1.40514
1.40001
1.40001
1.40001
1.40202
1.40001
1.4
1.40583
1.40001
1.40001
1.40001
1.40008
1.40001
1.40001
1.40001
1.40001
1.40013
1.40001
1.40025
1.40001
1.40001
1.4
1.40001
1.40001
1.4
1.40064
1.40001
1.40001
1.40199
1.40001
1.46443
1.40001
1.4
1.40005
1.40599
1.44884
1.40006
1.40001
1.40001
1.40001
1.40001
1.40001
1.40001
1.40012
1.3998
1.40001
1.40001
1.40001
1.40056
1.4
1.40001
1.4009
1.40001
1.40001
1.4
1.40001
1.40119
1.3958
1.40001
1.4
1.40001
1.40001
1.3964
1.40001
1.40001
1.40001
1.4
1.40038
1.40001
1.40001
1.39608
1.40002
1.42106
1.40001
1.40001
1.40001
1.40001
1.40001
1.40001
1.40001
1.40168
1.4
1.40001
1.37514
1.40001
1.40001
1.4
1.47744
1.4
1.44279
1.44719
1.40001
1.40001
1.40001
1.3998
1.4008
1.39987
1.43656
1.40001
1.40001
1.40001
1.13448
1.40001
1.40129
1.4393
1.40001
1.40001
1.4
1.40001
1.40001
1.40001
1.40001
1.40035
1.40001
1.40001
1.40001
1.40257
1.40001
1.40001
1.40001
1.40001
1.4
1.4102
1.40001
1.4
1.40824
1.40001
1.39984
1.40001
1.40001
1.40001
1.40001
1.40001
1.40001
1.40001
1.43752
1.41555
1.40001
1.40004
1.40001
1.41617
1.40001
1.40039
1.452
1.08516
1.40001
1.39977
1.40001
1.40001
1.40001
1.40121
1.40001
1.40001
1.40001
1.4
1.40034
1.40135
1.41514
1.40001
1.40001
1.40001
1.40001
1.4
1.40803
1.41968
1.40001
1.40001
1.40001
1.40001
1.4
1.43895
1.40001
1.40018
1.40001
1.40001
1.40001
1.4
1.03446
1.40001
1.40025
1.40001
1.40001
1.40001
1.40631
1.40001
1.44746
1.4
1.5078
1.40001
1.4
1.39897
1.38433
1.40001
1.40007
1.40001
1.40001
1.40001
1.40001
1.38697
1.40001
1.20334
1.16601
1.40001
1.40001
1.40063
1.40001
1.4231
0.883238
1.40003
1.40001
1.40001
1.40001
1.40455
1.4
1.40001
1.4018
1.40001
1.4
1.40001
1.40001
1.40001
1.39943
1.40001
1.40001
1.40001
1.4
1.40001
1.40001
1.39688
1.41172
1.45096
1.40001
1.40001
1.40001
1.40001
1.0322
1.40001
1.4
1.44205
1.40001
1.40001
1.39706
1.40001
1.40001
1.40024
1.40001
1.39586
1.40001
1.40001
1.40071
1.40001
1.4009
1.40001
1.4
1.40001
1.40139
1.40001
1.40001
1.46266
1.39472
1.40001
1.38639
1.40001
1.40036
1.4
1.40001
1.40001
1.40046
1.40001
1.42562
1.40001
1.40001
1.40628
1.40001
1.444
1.40001
1.40001
1.39499
1.40001
1.40001
1.4082
1.4
1.40001
1.40011
1.4001
1.47284
1.40001
1.40002
1.4
1.39992
1.40001
1.40001
1.40001
1.40001
1.40001
1.40002
1.4
1.40001
1.40001
1.40001
1.40001
1.40001
1.40002
1.40001
1.40001
1.40001
1.40448
1.3784
1.40001
1.40001
1.40001
1.40001
1.36237
1.40001
1.40001
1.4
1.19733
1.4
1.40001
1.4
1.40001
1.40001
1.40001
1.40001
1.40001
1.40001
1.40001
1.40001
1.40001
1.40005
1.4021
1.40491
1.40002
1.40001
1.4
1.4
1.40001
1.40057
1.4
1.41163
1.42958
1.40001
1.40001
1.40001
1.40001
1.42556
1.40001
1.4
1.48126
1.40001
1.40001
1.40001
1.40212
1.40001
1.40001
1.40001
1.40001
1.39802
1.46283
1.4
1.41086
1.39768
1.53603
1.40001
1.40001
1.40004
1.40001
1.43366
1.40001
1.39998
1.40001
1.40001
1.40001
1.40052
1.41265
1.39741
1.40002
1.40004
1.40001
1.40001
1.40001
1.40001
1.40001
1.4
1.40001
1.13704
1.41293
1.40001
1.40001
1.4
1.40001
1.40001
1.40001
1.40001
1.40001
1.41325
1.40001
1.4
1.40001
1.40249
1.40001
1.40001
1.40001
1.40001
1.40001
1.42764
1.40001
1.40001
1.40001
1.40001
1.39957
1.40001
1.4
1.40001
1.40001
1.40001
1.40002
1.40001
1.40001
1.37052
1.4
1.4
1.4
1.40001
1.40001
1.40001
1.40001
1.40002
1.40001
1.40001
1.40001
1.40001
1.45424
1.40001
1.40001
1.40001
1.4
1.4
1.4
1.40001
1.40001
1.40001
1.18304
1.41187
1.40001
1.44555
1.4
1.40464
1.40001
1.4
1.40001
1.4
1.40001
1.40001
1.40001
1.40001
1.40001
1.28593
1.40025
1.4
1.40001
1.40001
1.40001
1.4
1.40001
1.40001
1.47585
1.40001
1.40001
1.40001
1.40001
1.40001
1.40022
1.40001
1.40001
1.39999
1.40001
1.4
1.43375
1.40001
1.4
1.41616
1.39429
1.40001
1.38783
1.40001
1.40001
1.40001
1.40001
1.40001
1.40001
1.40001
1.40001
1.4
1.39976
1.39713
1.40001
1.40217
1.40001
1.40001
1.40001
1.40001
1.39998
1.40001
1.40001
1.40001
1.40091
1.40001
1.45208
1.40001
1.40112
1.4
1.40001
1.40001
1.39957
1.35036
1.40001
1.40001
1.40001
1.39961
1.40001
1.40001
1.40001
1.40021
1.40001
1.40001
1.40001
1.40001
1.4
1.40001
1.39242
1.4
1.40001
1.40742
1.4
1.39994
1.40054
1.40001
1.40001
1.4
1.40001
1.40001
1.40001
1.40001
1.39996
1.40001
1.40001
1.36891
1.33401
1.40001
1.40016
1.40001
1.4
1.40001
1.4
1.40001
1.40001
1.40001
1.40001
1.4
1.43483
1.40001
1.40001
1.40002
1.40056
1.43755
1.40017
1.4003
1.4
1.40001
1.40001
1.40001
1.4
1.40001
1.40001
1.38355
1.40024
1.45884
1.40001
1.39508
1.4
1.4
1.46118
1.30413
1.40001
1.40003
1.4
1.40001
1.40001
1.40001
1.13046
1.39974
1.36607
1.40001
1.40001
1.40322
1.39961
1.40339
1.4
1.40001
1.40001
1.40042
1.40001
1.40001
1.40001
1.41127
1.40001
1.40001
1.39592
1.4
1.40001
1.40001
1.40001
1.40001
1.40001
1.40001
1.40001
1.40001
1.40001
1.38831
1.39994
1.40003
1.40001
1.45122
1.40001
1.40001
1.40001
1.36882
1.4
1.4
1.44489
1.40005
1.48247
1.40001
1.40001
1.4
1.40001
1.40001
1.40001
1.40068
1.4
1.40216
1.40001
1.40004
1.41218
1.39998
1.40001
1.40001
1.40001
1.40001
1.40001
1.39562
1.40001
1.40002
1.40001
1.3932
1.40838
1.41622
1.40001
1.4
1.40001
1.4
1.39981
1.40001
1.40001
1.4
1.40001
1.40253
1.4
1.40001
1.40001
1.49929
1.40001
1.39999
1.40001
1.40001
1.40001
1.40001
1.40001
1.40001
1.42211
1.42617
1.40001
1.39975
1.43185
1.4
1.4
1.40001
1.40196
1.4
1.40001
1.4
1.40002
1.40001
1.40001
1.4
1.39999
1.4
1.40001
1.40003
1.40001
1.40001
1.4
1.40001
1.4
1.40012
1.38512
1.40001
1.4015
1.40914
1.40001
1.4
1.40001
1.3572
1.40001
1.40005
1.40001
1.40001
1.40001
0.775518
1.40001
1.39741
1.40001
1.40001
1.40001
1.39976
1.40001
1.40004
1.40001
1.40001
1.40001
1.40066
1.40001
1.4
1.40001
1.40001
1.40001
1.40102
1.40001
1.40001
1.40001
1.4589
1.39997
1.39057
1.39998
1.40001
1.4
1.40001
1.40001
1.40001
1.4
1.40006
1.40031
1.39979
1.4
1.40005
1.36108
1.40414
1.40001
1.4
1.40001
1.40001
1.40093
1.4
1.4
1.40001
1.40001
1.40001
0.827861
1.4
0.907815
1.40001
1.40001
1.40001
1.4002
1.4
1.39998
1.39883
1.41709
1.39998
1.40001
1.40189
1.40001
1.37454
1.39995
1.40001
1.40001
1.40078
1.40001
1.39963
1.4208
1.4
1.39997
1.40001
1.4
1.40001
1.40001
1.53883
1.40363
1.40001
1.4
1.39889
1.40001
1.40001
1.42877
0.646556
1.40001
1.40001
1.40001
1.40001
1.4
1.46321
1.40768
1.40001
1.40001
1.4
1.4
1.40001
1.40001
1.40001
1.40001
1.40001
1.40001
1.40001
1.40001
1.4
1.39961
1.40001
1.4
1.40745
1.39997
1.40001
1.40001
1.40148
1.40001
1.40001
1.40001
1.40001
1.39999
1.40001
1.40001
1.40001
1.40181
1.40001
1.42772
1.40087
1.4
1.40001
1.40345
1.40001
1.4
1.49294
1.40001
1.40048
1.4
1.4021
1.40001
1.4
1.40001
1.40001
1.40001
1.40001
1.40001
1.26824
1.40001
1.40044
1.40001
1.40001
1.40001
1.40001
1.40001
1.40001
1.40001
1.40001
1.40001
1.40001
1.40005
1.40004
1.4
1.36555
1.40001
1.44491
1.40002
1.40001
1.40001
1.40001
1.40001
1.40001
1.40002
1.3987
1.40001
1.40001
1.43337
1.40001
1.40001
1.40001
1.40001
1.4
1.40001
1.40001
1.40001
1.40001
1.3235
1.40596
0.627113
1.40001
1.40001
1.40007
1.40001
0.746702
1.40001
1.39977
1.40001
1.40001
1.40013
1.14049
1.40001
1.40001
1.40001
1.40001
1.40196
1.4
1.40001
1.40001
1.40001
1.3773
1.40001
1.4
1.4
1.43996
1.40001
1.40001
1.43092
1.4
1.41479
1.40008
1.40001
1.39999
1.40001
1.40001
1.40001
1.40002
1.40001
1.4
1.40001
1.40001
1.40454
1.40001
1.40001
1.40001
1.40001
1.40021
1.46138
1.40001
1.40001
1.40001
1.4
1.40001
1.4
1.40001
1.40004
1.39009
1.40003
1.4
1.40001
1.40001
1.46409
1.40005
1.40001
1.40001
1.05766
1.40007
1.40001
1.40001
1.4
1.40001
1.40001
1.4
1.4
1.40001
1.40001
1.40001
1.41577
1.40001
1.40001
1.4
1.40001
1.39833
1.40001
1.39999
1.4
1.41056
1.40001
1.40001
1.40001
1.4
1.4
1.40001
1.41643
1.39997
1.40001
1.40001
1.40001
1.40001
1.40001
1.39994
1.40033
1.40138
1.40778
1.40001
1.40001
1.40001
1.40004
1.40001
1.4
1.40001
1.40001
1.40001
1.4
1.35155
1.46236
1.40001
1.40001
1.40001
1.43532
1.40001
0.610303
1.39921
1.40001
1.40001
1.40075
1.39848
1.40001
1.40001
1.40001
1.40154
1.45535
1.40001
1.39998
1.39989
1.40002
1.40001
1.40001
1.41293
1.40001
1.40001
1.40003
1.40001
1.40001
1.4
1.4
1.40001
1.4
1.40001
1.39191
1.40001
1.40001
1.40001
1.42004
1.40018
1.40224
1.40001
1.40001
1.40264
1.49124
1.4
1.4
1.4262
0.979009
0.653752
1.40001
1.40001
1.40001
1.4
1.40001
1.4
1.40001
1.40001
1.40027
1.40001
1.4
1.43409
1.40001
1.4
1.40001
1.40001
1.40001
1.40181
1.4
1.40001
1.40001
1.40001
1.40019
1.40001
1.40001
1.40001
1.4
1.40105
1.40001
1.4184
1.39996
1.40001
1.40001
1.4
1.40001
1.4
1.40001
1.4
1.40034
0.698085
1.4
1.40005
1.40001
1.4
1.40001
1.40001
1.40001
1.40001
1.46811
1.40001
1.40001
1.40001
1.40001
1.41428
1.39984
1.4
1.40001
1.4
1.40001
1.4
1.40001
1.41522
1.39945
1.40001
1.40001
1.40001
1.40004
1.47697
1.40001
1.40001
1.40001
1.40058
1.40001
1.40001
1.40001
1.40001
1.43794
1.4
1.40211
1.40001
1.40001
1.48454
1.40073
1.40001
1.39384
1.40001
1.46649
1.40001
1.45566
1.40002
1.40001
1.40017
1.40001
1.40001
1.4
1.40001
1.40001
1.39997
1.40001
1.40001
1.4
1.40001
1.39996
1.40001
1.40016
1.40002
1.40954
1.40001
1.4
1.46897
1.42631
1.40644
1.40056
1.40002
1.40904
1.40001
1.40145
1.40002
1.4016
1.40001
1.40001
1.40008
1.40007
1.40001
1.40083
1.40001
1.40001
1.40024
1.40001
1.40001
1.39861
1.40001
1.40001
1.40001
1.40001
1.41209
1.40001
1.40001
1.40001
1.40001
1.39999
1.4
1.40001
1.41837
1.40001
1.40001
1.39998
1.4
1.4
1.39997
1.40001
1.3999
1.40001
1.4
1.40006
1.40001
1.4
1.40001
1.4
1.40001
1.40011
1.40001
1.40017
1.40001
1.36285
1.4
1.40001
1.40001
1.4
1.40001
1.40001
1.4
1.4
1.40001
1.40001
1.40006
1.44866
1.40001
1.40001
1.40001
1.40001
1.40001
1.40001
1.40001
1.40001
1.40001
1.4
1.43556
1.40001
1.4
1.37705
1.45487
1.4
1.40001
1.42064
1.40001
1.40001
1.41531
1.40001
1.39999
1.40001
1.40001
1.40001
1.40744
1.40001
1.39586
1.44477
1.39999
1.40001
1.40001
1.40001
1.40001
1.40001
1.36092
1.40001
1.3999
1.40001
1.4
1.40001
1.4
1.40001
1.40582
1.39906
1.40133
1.40001
1.40001
1.05906
1.40892
1.4
1.39868
1.40001
1.40001
1.45222
1.40001
1.4
1.40001
1.40001
1.40001
1.4
1.40001
1.40001
1.40001
1.40001
1.40001
1.4
1.4
1.40001
1.40001
1.40001
1.40001
1.4
1.40001
1.40106
1.40001
1.40001
1.40001
1.40001
1.4
1.40001
1.40001
1.4
1.39995
1.40568
1.40001
1.48718
1.40001
1.40015
1.40001
1.40001
1.4
1.44591
1.40009
1.39996
1.40001
1.40001
1.4
1.40001
1.48465
1.4
1.40001
1.40001
1.40001
1.42035
1.40001
1.43384
1.40001
1.40001
1.40001
1.44058
1.40001
1.40001
1.39853
1.40001
1.40001
1.40001
1.40001
1.40001
1.44928
1.4
1.40118
1.46261
1.4
1.40166
1.40001
1.40001
1.39972
1.40001
1.40001
1.40001
1.40001
1.42598
1.40001
1.40001
1.40001
1.42134
1.39993
1.40312
1.40005
1.40001
1.40001
1.40001
1.40001
1.40001
1.38652
1.40001
1.25675
1.40001
1.37305
1.4
1.40001
1.40092
1.40027
1.4
1.40001
1.4002
1.40001
1.39995
1.40001
1.40001
1.40004
1.39988
1.40001
1.39852
1.4
1.4
1.4
1.40329
1.40001
1.40001
1.40001
1.40251
1.45944
1.4
1.40001
1.46338
1.40001
1.4
1.40001
1.42925
1.4
1.40001
1.39995
1.40001
1.40001
1.40001
1.41671
1.40001
1.40001
1.40001
1.40001
1.40001
1.40001
1.40001
1.40141
1.40001
1.40001
1.40001
1.4
1.4033
1.40001
1.40323
1.40001
1.40001
1.40567
1.4
1.39943
1.40005
1.4
1.40001
1.40001
1.4
1.40001
1.40001
1.4
1.40003
1.40043
1.40001
1.40001
1.40001
1.4231
1.40001
1.40001
1.40565
1.4
1.40001
1.40001
1.40001
1.40009
1.37536
1.40001
1.40001
1.40001
1.40001
1.40001
1.40001
1.40074
1.42138
1.40001
1.40001
1.4
1.40007
1.40001
1.50288
1.40001
1.39993
1.4
1.40001
1.44458
1.40219
1.40001
1.40411
1.43946
1.46302
1.47055
1.40003
1.40004
1.41112
1.40272
1.45178
1.40001
1.4
1.40447
1.40001
1.40001
1.44963
1.4
1.40001
1.40418
1.40001
1.41161
1.40001
1.40001
1.40001
1.43135
1.40001
1.40001
1.40001
1.40001
1.40015
1.43325
1.40001
1.40001
1.4
1.40001
1.4012
1.4
1.4
1.40001
1.40001
1.41384
1.40001
1.40001
1.40002
1.39527
1.40001
1.40001
1.40001
1.40001
1.24827
1.40001
1.4
1.45267
1.40171
1.4035
1.40001
1.4015
1.40204
1.39971
1.41069
1.40097
1.40001
1.40001
1.40001
1.40001
1.40001
1.4
1.40001
1.40001
1.40001
1.40001
1.40001
1.40001
1.4
1.39998
1.46317
1.4
1.4
1.41046
1.44548
1.39748
1.40199
1.40001
1.40001
1.40001
1.40001
1.40038
1.40006
1.42781
1.40001
1.40001
1.4
1.40002
1.39947
1.40001
1.40004
1.36465
1.40001
1.06228
1.40001
1.40001
1.40001
1.40001
1.40034
1.40001
1.40001
1.40001
1.43451
1.40004
1.39857
1.40001
1.40001
1.40001
1.40001
1.40001
1.01529
1.40001
1.40326
1.40001
1.4
1.40001
1.40001
1.40001
1.40001
1.40001
1.40001
1.40001
1.40133
1.40374
1.40001
1.40001
1.41416
1.4
1.39899
1.40001
1.40001
1.40001
1.40001
1.40001
1.40001
1.43943
1.40347
1.40178
1.4
1.40001
1.40001
1.40001
1.40001
1.40129
1.40001
1.40181
1.4
1.40001
1.40173
1.40001
1.40001
1.41181
1.38703
1.405
1.40941
1.40001
1.40001
1.40001
1.4
1.40001
1.40047
1.40026
1.40276
1.40001
1.40001
1.40001
1.40315
1.46267
1.4
1.40001
1.40001
1.40003
1.40001
1.40001
1.4
1.39998
1.40573
1.39998
1.40045
1.40001
1.40001
1.4
1.40001
1.40001
1.40036
1.40001
1.40001
1.39415
1.40257
1.40001
1.4106
1.40001
1.40001
1.39988
1.4
1.42971
1.40001
1.40001
1.45182
1.19627
1.40001
1.42442
1.40105
1.4
1.4
1.40001
1.40001
1.40001
1.40001
1.40001
1.40113
1.40001
1.4
1.39969
1.45149
1.40004
1.40001
1.40001
1.4
1.40001
1.40001
1.40044
1.40158
1.39996
1.27899
1.40001
1.40001
1.40395
1.40001
1.40001
1.40001
1.40001
1.40001
1.4
1.40001
1.40001
1.40001
1.1556
1.40001
1.40001
1.39762
1.40001
1.40001
1.40001
1.4
1.40001
1.40001
1.40001
1.40001
1.40001
1.40001
1.40001
1.40144
1.40001
1.40001
1.41512
1.40114
1.40001
1.40001
1.4
1.4
1.40001
1.40001
1.40001
1.40001
1.40001
1.39998
1.40001
1.40001
1.40001
1.40197
1.40001
1.40001
1.40001
1.40176
1.40001
1.4
1.39997
1.40001
1.26098
1.4
1.40001
1.40001
1.39999
1.39994
1.4
1.40003
1.40001
1.40001
1.40001
1.39783
1.40001
1.09209
1.40001
1.40001
1.40001
1.39998
1.39981
1.40001
1.40001
1.45081
1.40001
1.39999
1.40001
1.45651
1.3991
1.40152
1.40001
1.40001
1.42933
1.40001
1.40539
1.40001
1.40001
1.40001
1.40003
1.40001
1.4
1.4526
1.40001
1.40001
1.39999
1.40001
1.40009
1.4
1.40001
1.4
1.4
1.40001
1.40001
1.40002
1.12764
1.40587
1.40038
1.4
1.4
1.4
1.40001
1.40001
1.40001
1.40926
1.40001
1.40001
1.40001
1.40001
1.40001
1.39774
1.40087
1.40001
1.40001
1.40001
1.40001
1.40001
1.41154
1.40001
1.41422
1.39962
1.40001
1.40001
1.40693
1.40016
1.40001
1.4
1.4
1.40001
1.40001
1.40001
1.40001
1.40001
1.40001
1.40001
1.40384
1.40001
1.3999
1.40149
1.4
1.39981
1.40001
1.40001
1.42173
1.50781
1.40764
1.4
1.40001
1.40001
1.40001
1.4
1.40001
1.39998
1.39994
1.4
1.40001
1.49632
1.40001
1.40019
1.4007
1.40001
1.39966
1.36851
1.41828
1.40001
1.4727
1.40004
1.40372
1.4
1.40001
1.40001
1.40001
1.4
1.40001
1.44746
1.40001
1.40001
1.40006
1.17063
1.40001
1.35711
1.40001
1.4
1.40004
1.40001
1.40002
1.40001
1.40001
1.4
1.40001
1.40001
1.40001
1.40001
1.40001
1.39764
1.4
1.40661
1.17756
1.35241
1.40001
1.40001
1.4015
1.4108
1.40001
1.40001
1.39981
1.47216
1.4016
1.39992
1.40001
1.40001
0.826941
1.38381
1.40001
1.40001
1.40001
1.40001
1.40001
1.40001
1.4
1.4015
1.41026
1.43919
1.08407
1.40001
1.46277
1.40001
1.39945
1.40001
1.40001
1.41702
1.4
1.4
1.40001
1.39329
1.4
1.40001
1.40001
1.40001
1.40001
1.39832
1.39993
1.40001
1.40001
1.40001
1.40041
1.44754
1.40001
1.40001
1.40001
1.40001
1.40001
1.41319
1.40001
1.40001
1.43048
1.40001
1.40001
1.40001
1.39836
1.4
1.40001
1.40001
1.40001
1.40001
1.39985
1.40001
1.40342
1.40001
1.40001
1.40001
1.40001
1.40001
1.40001
1.39996
1.40001
1.40726
1.42021
1.41593
1.40001
1.40001
1.40005
1.40184
1.40727
1.40001
1.48228
1.4
1.40003
1.41432
1.4
1.36844
1.40001
1.40001
1.40001
1.40001
1.40001
1.40055
1.40001
1.46689
1.40001
1.41402
1.40001
1.40006
1.40001
1.40001
1.4
1.40001
1.40001
1.40001
1.39937
1.40001
1.4
1.40001
1.44818
1.4
1.41639
1.40001
1.40001
1.40244
1.4
1.40001
1.40001
1.47774
1.40816
1.40003
1.40001
1.40001
1.40001
1.4005
1.40001
1.40001
1.43664
1.40216
1.40001
1.42453
1.40001
1.4
1.39991
1.39998
1.40001
1.40001
1.4093
1.40001
1.40003
1.40001
1.4
1.40001
1.40001
1.40001
1.40001
1.40001
1.40001
1.4
1.40001
1.4
1.40036
1.40199
1.40001
1.2344
1.40013
1.40001
1.39999
1.40053
1.40862
1.40001
1.37604
1.40001
1.4
1.40001
1.40001
1.40001
1.40078
1.40001
1.40001
1.40001
1.42341
1.40001
1.40001
1.39901
1.40001
1.40006
1.40001
1.40001
1.43254
1.489
1.40001
1.4
1.40052
1.40001
1.44733
1.40001
1.40001
1.41819
1.40001
1.40001
1.38917
1.39999
1.4
1.40001
1.40001
1.40001
1.40001
1.46363
1.40001
1.2546
1.40082
1.40001
1.39863
1.40001
1.4
1.40001
1.40001
1.47891
1.40023
1.40001
1.40001
1.40001
1.40001
1.40001
1.40038
1.40001
1.40001
1.40001
1.39955
1.38388
1.39856
1.40001
1.40004
1.40001
1.39979
1.40145
1.40001
1.4
1.40001
1.40001
1.41708
1.40001
1.53048
1.4002
1.40001
1.40001
1.40001
1.40001
1.40001
1.40001
1.40004
1.40001
1.40001
1.40001
1.40001
1.40001
1.4
1.4
1.4
1.44184
1.39989
1.43996
1.39995
1.40009
1.39902
1.4
1.40006
0.730017
1.39998
1.40001
1.44308
1.4
1.39996
1.41311
1.40266
1.40001
1.40001
1.39951
1.40001
1.40001
1.40001
1.40001
1.4001
1.40001
1.48
1.39996
1.40051
1.40001
1.4
1.39997
1.40001
1.4
1.40001
1.40001
1.40001
1.39994
1.39795
1.40001
1.40002
0.977067
1.39998
0.915105
1.40096
1.39999
1.40067
1.4
1.40005
1.39881
1.40001
1.40707
1.40001
1.40001
1.4
1.40001
1.40001
1.40095
1.40042
1.40001
1.4
1.39402
1.40001
1.40001
1.41635
1.40203
1.40001
1.40292
1.40001
1.40001
1.40001
1.4159
1.40001
1.40001
1.40001
1.40001
1.39023
1.4
1.40001
1.07331
1.4
1.40001
0.875128
1.40001
1.46057
1.4
1.40002
1.40001
1.40001
1.40001
1.40001
1.4
1.40001
1.40001
1.40001
1.40001
1.39998
1.39998
1.40001
0.948408
1.40001
1.40001
1.40209
1.40001
1.39997
1.40001
1.40001
1.39405
1.40001
1.4
1.40001
1.40001
1.40001
1.40001
1.40001
1.40001
1.4
1.40001
1.4
1.40001
1.40001
1.4
1.40033
1.39955
1.39865
1.40001
1.40123
1.40065
1.4
1.4
1.40001
1.40001
1.4011
1.40001
1.40001
1.40001
1.40225
1.4
1.40001
0.669538
1.40001
1.40001
1.40001
1.40001
1.40001
1.39999
1.40001
1.39997
1.40001
1.40104
1.40001
1.4
1.40186
1.40001
1.40001
1.43349
1.40001
1.40001
1.45362
1.07134
1.40001
1.40009
1.40001
1.40001
1.40001
1.41403
1.39997
1.40001
1.40035
1.07224
0.772865
1.40001
1.30166
1.40001
1.40001
1.40001
1.4
1.40001
1.40001
1.40002
1.40001
0.697392
1.39999
1.40003
1.4
1.40001
1.40001
1.40006
1.40001
1.40001
1.4
1.40001
1.40009
1.40003
1.4
1.40001
1.40001
1.40001
1.40001
1.40001
1.06879
1.40001
1.4
1.40001
1.40001
1.50281
1.40001
1.39998
1.40001
1.4
1.40001
1.40241
1.40312
1.40001
1.4
1.40001
1.40001
1.40001
1.40008
1.3954
1.40001
1.40001
1.40001
1.40001
1.40001
1.40001
1.40011
1.40001
1.40001
1.40001
1.40414
1.4
1.44765
1.40001
1.40001
1.40001
1.40815
1.40001
1.40001
1.4008
1.40001
1.40002
1.40001
1.40001
1.40001
1.40001
1.4
1.40003
1.40001
1.40001
1.4
1.4
1.4
0.718533
1.40001
1.40007
1.40001
1.4
1.41156
1.40003
1.40154
1.44785
1.4314
1.40001
1.45559
1.40001
0.579564
1.40001
1.39225
1.40001
1.40001
1.40001
1.40001
1.43817
1.40532
1.39994
1.4
1.44366
1.40238
1.40072
1.40001
1.42235
1.40001
1.40001
1.40001
1.39996
1.39995
1.40003
0.528925
1.40001
1.40001
1.40012
1.40083
1.45616
1.40001
1.40001
1.40001
1.3993
1.40001
1.39992
1.39985
1.40001
1.40001
1.40001
1.40001
1.40001
1.39912
1.39946
1.44573
0.574884
1.4
1.40001
1.40001
1.40001
1.40292
1.40267
1.40014
1.399
1.4
1.40001
1.40002
1.40001
1.40001
1.40001
1.40033
1.40438
1.41437
1.4
1.40001
1.39995
1.39975
1.4123
1.40001
1.44148
1.40001
1.38784
1.40001
1.39998
1.4
1.39996
1.40001
1.38575
1.34226
1.4
1.40001
1.40001
1.40001
1.37489
1.4
1.4
1.40001
1.40001
1.40497
1.40001
1.40001
1.40001
1.40038
1.40001
1.40001
1.40029
1.3761
1.40001
1.40001
0.971029
1.40001
1.40001
1.40001
1.40001
1.40001
1.40001
1.40001
1.4
1.4
1.40004
1.40001
1.40001
1.40001
1.4
1.40001
1.40001
1.40001
1.40001
1.4017
1.40001
1.40001
1.39985
1.4
1.40517
1.40001
1.40001
1.40001
1.4
1.40001
1.41127
1.40001
1.40001
1.4
1.40001
1.40001
1.40001
1.40001
1.40001
1.41764
1.40001
1.4
1.40001
0.686325
1.4
1.40137
1.40001
1.41817
1.40001
1.40001
1.40001
1.30122
1.40001
1.40001
1.40077
1.40001
1.4
1.40059
1.3991
1.44182
0.691466
1.40001
1.40001
1.40001
1.47395
1.40001
1.40001
1.40306
1.40001
1.40001
1.40001
1.4
1.40001
1.40001
1.40992
1.40001
1.4
1.40001
1.40001
1.44117
1.4
1.40001
1.40001
1.40091
1.40001
1.40001
1.40001
1.40001
1.40001
1.40001
1.40001
1.40002
1.40001
1.40001
1.40001
1.40001
1.40001
1.40001
1.39775
1.40001
1.40001
1.40001
1.40001
1.40001
1.40386
1.4
1.40001
1.40001
1.40001
1.40004
1.00927
1.40001
1.3999
1.4
1.4
1.40001
1.39994
1.40001
1.40004
1.40134
1.4
1.40001
1.53777
1.4192
1.40001
1.39367
1.40001
1.40001
0.634833
1.40001
1.40001
1.39999
1.4
1.40001
1.40001
0.699546
1.40001
1.40001
1.40001
1.40001
1.40001
1.40032
1.40001
1.40001
1.41518
1.40001
1.4
1.40001
1.40001
1.40001
1.40109
1.40073
1.40001
1.40001
1.40001
1.4
1.40001
1.40001
1.40001
1.4
1.40001
1.40001
1.39159
1.40527
1.4
1.40001
1.40001
1.43611
1.40001
1.40001
1.4
1.4
1.40001
1.40001
1.4
1.40001
1.44154
1.40001
1.40001
1.40001
1.40001
1.40001
1.4
1.40348
1.39995
1.40001
1.4
1.36866
1.40001
1.40001
1.40001
1.40795
1.40001
1.40001
1.40001
1.40001
1.40001
1.40001
1.40001
1.4
1.40012
0.829639
1.40001
1.40001
1.40001
1.40001
1.40002
1.40001
1.40001
1.40001
1.40001
1.40002
1.40001
1.40001
1.40001
1.40001
1.40001
1.40001
1.37931
1.40001
1.40001
1.40001
1.40001
1.40001
1.4
1.35078
1.40001
1.41719
1.4
1.4
1.4098
1.39406
1.40001
1.4
1.40001
1.49536
1.40001
1.40001
1.40001
1.40001
1.40001
1.40001
1.4021
1.40001
1.39874
1.4
1.40001
1.40001
1.40001
1.40019
1.40001
1.42504
1.4
1.40002
1.46301
1.40001
1.40001
1.40009
1.40001
1.40125
1.4
1.40001
1.40001
1.40001
1.40001
1.4
1.40001
1.40001
1.40001
1.40196
1.40001
1.4
1.46345
1.40001
1.40001
1.39998
1.43815
1.41834
1.40001
1.40091
1.40001
1.4
1.2538
1.39819
1.40001
1.40001
1.39997
1.40001
1.40002
1.40002
1.40001
1.40001
1.40001
1.4
1.40453
1.40001
1.40001
1.40053
1.40001
1.45191
1.40001
1.40001
1.40001
1.40001
1.38332
1.40001
1.40001
1.40001
1.40001
1.40001
1.40001
1.4
1.45826
1.4113
1.40001
1.40001
1.40001
1.40001
1.40001
1.39999
1.40001
1.0696
1.25036
1.40082
1.40001
1.39985
1.40001
1.40012
1.39348
1.4
1.40001
1.40258
1.40001
1.4
1.4
1.06561
1.40001
1.4
1.44231
1.40254
1.4
1.39416
1.39897
1.39996
1.40001
1.42985
1.40001
1.40001
1.39998
1.40001
1.40001
1.4
1.40001
1.39999
1.40001
1.40001
1.39993
1.40001
1.4
1.44105
1.40001
1.40001
1.40001
1.40001
1.43279
1.40001
1.39782
1.40001
1.4
1.40001
1.40001
1.4
1.40001
1.40001
1.40001
1.39993
1.4
1.40001
1.40001
1.01135
1.4
1.40001
1.40001
1.40001
1.40001
1.4
1.40007
1.40001
1.40001
1.40001
1.40001
1.40001
1.40039
1.40001
1.40001
1.40001
1.41089
1.40001
1.40001
1.39999
1.40001
1.40001
1.40006
1.40001
1.384
1.40001
1.40001
1.39474
1.39965
1.39989
1.40001
1.40001
1.40001
1.40001
1.40001
0.63294
1.40243
1.40013
1.39998
1.40001
1.40001
1.40001
1.40001
1.4
1.39962
1.4
1.4395
1.4
1.40024
1.40001
1.4
1.40001
1.4
1.4
1.40001
1.40001
1.40001
1.40001
1.39971
1.39998
1.40642
1.4006
1.40001
1.42908
1.40007
1.39948
1.40001
1.40001
1.39932
1.4
1.39999
1.40931
1.40001
1.40001
1.40001
1.40307
1.45234
1.40001
1.40001
1.40001
1.40001
1.40001
1.40001
1.40071
1.4
1.40001
1.21391
1.40001
1.40001
1.40011
1.40001
1.47453
1.40001
1.4
1.4
1.40001
1.40001
1.39903
1.40001
1.40001
1.40001
1.40001
1.40001
1.40001
1.4
1.40001
1.40001
1.39999
1.4
1.40001
1.40002
1.40001
1.40001
1.40001
1.40001
1.40001
1.37873
1.40001
1.40005
1.40001
1.40001
1.40101
1.40004
1.40001
1.40001
1.40001
1.39495
1.40001
1.40001
1.42594
1.40001
1.40094
1.40865
1.40001
1.40001
1.40001
1.40813
1.40001
1.40197
1.40016
1.40001
1.39998
1.39704
1.40003
1.40001
1.39995
1.40001
1.39999
1.40001
1.40001
1.41713
1.40002
1.40015
1.14217
1.40002
1.40002
1.40001
1.40001
1.4
1.40001
1.40001
1.40001
1.40075
1.4397
1.40001
1.40001
1.40001
1.4
1.4
1.40001
1.40001
1.40001
1.40001
1.4
1.4
1.40001
1.40001
1.4
1.40001
1.40001
1.40001
1.4
1.4
1.4
1.4
1.40001
1.40001
0.877996
1.40001
1.40001
1.40001
1.40001
1.4003
1.40001
1.4
1.39973
1.40015
1.40001
1.40002
1.40001
1.40001
1.40001
1.40001
1.40001
1.40013
1.4
1.40001
1.40001
1.40034
1.4
1.40001
1.40001
1.34195
1.40001
1.40001
1.40001
1.4
1.4
1.40001
1.40001
1.40001
1.4
1.40074
1.40001
1.40001
1.40001
1.40001
1.40001
1.40001
1.40051
1.4
1.40001
1.40001
1.40001
1.40001
1.23172
1.4
1.40001
1.40001
1.40001
1.40001
1.4
1.40021
1.40001
1.4
1.42285
1.40641
1.40001
1.4
1.40001
1.40001
1.40001
1.40001
1.40001
1.40001
1.40001
1.40001
1.4
1.40001
1.4
1.40001
1.40001
1.40001
1.40001
1.40001
1.40001
1.40001
1.4
1.3999
1.14083
1.42108
1.40001
1.40001
1.40067
1.40001
1.16914
1.40001
1.40001
1.40001
1.40001
1.40001
1.40001
1.39563
1.4
1.40001
1.40001
1.45001
1.40002
1.39998
1.4
1.4
1.4
1.40001
1.40001
1.4
1.40001
1.40001
1.40001
1.40001
1.40005
1.4001
1.4
1.40001
1.40001
1.39982
1.40001
1.40001
1.40001
1.40001
1.40001
1.4
1.40006
1.40006
1.40001
1.39989
1.39999
1.40001
1.39999
1.4
1.40001
1.40001
1.40001
1.40001
1.4018
1.40001
1.40001
1.39996
1.39982
1.40001
1.40001
1.40001
1.39615
1.38623
1.40001
1.40001
1.40001
1.4
1.40001
1.39951
1.40001
1.4
1.40001
1.40001
1.40001
1.40001
1.40001
1.4
1.35809
1.40001
1.40001
1.40001
1.40001
1.40001
1.45354
1.4
1.40001
1.40083
1.40001
1.40001
1.40001
1.40001
1.39945
1.40001
1.40001
1.40195
1.40001
1.40001
1.16927
1.40028
1.40001
1.40001
1.44106
1.40162
1.40001
1.40001
1.40001
1.3432
1.3691
1.40001
1.40001
1.39991
1.40001
1.4
1.40018
1.40001
1.4
1.4
1.40001
1.4229
1.40001
1.40001
1.40001
1.40001
1.40541
0.558972
1.40001
1.3999
1.44582
1.40001
1.40001
1.40001
1.4
1.40001
1.10137
1.40041
1.40001
1.4
1.40001
1.40001
1.45709
1.40001
1.40001
1.40002
1.40001
1.40001
1.40001
1.40001
1.40001
1.40001
1.40001
1.40001
1.40001
1.40001
1.40014
1.40001
1.40003
1.32304
1.40249
1.40001
1.40001
1.38853
1.40001
1.40003
1.40001
1.39811
1.40001
1.40001
1.44634
1.40001
1.40001
1.41815
1.40001
1.40001
1.40001
1.40001
1.40001
1.40029
1.4025
1.40001
1.42776
1.40001
1.40001
1.40001
1.40001
1.46409
1.40001
1.40001
1.4
1.40001
1.40019
1.40067
1.39744
1.40001
1.40001
1.39997
1.40002
1.39769
1.40001
1.40405
1.40001
1.40001
1.40001
1.40001
1.41471
1.4
1.40001
1.40001
1.40001
1.40001
1.40001
1.40001
1.40001
1.46094
1.4
1.41762
1.40001
1.40001
1.40001
1.40001
1.40003
1.40001
1.30297
1.39668
1.40001
1.40001
1.38853
1.40001
1.40001
1.40001
1.40001
1.37118
1.40001
1.4881
1.4
1.40001
1.40001
1.4
1.40001
1.4
1.40001
1.40003
1.40001
1.40002
1.4
1.40001
1.40001
1.40001
1.39361
1.39998
1.40001
1.40001
1.40001
1.40001
1.40059
1.40001
1.4
1.43617
1.39231
1.39801
1.40001
1.39285
1.39992
1.40001
1.40001
1.477
1.40001
1.40009
1.40001
1.40013
1.44293
1.40001
1.4
1.40002
1.40224
1.40001
1.40001
1.4
1.39195
1.40001
1.50697
1.39998
1.40001
1.4
1.40001
1.4
1.4
1.40001
1.4
1.40001
1.4
1.40003
1.40001
1.40001
1.40006
1.4
1.4
1.20692
1.40001
1.39979
1.40001
1.40014
1.39996
1.40001
1.40001
1.40001
1.40001
1.40001
1.40001
1.4
1.40001
1.40001
1.31887
1.40001
1.40001
1.40001
1.40001
1.40001
1.40001
1.00349
1.45114
1.46272
1.39997
1.4
1.40001
1.40001
1.40001
1.4
1.40001
1.40002
1.40001
1.40001
1.40001
1.40001
1.40059
1.40001
1.4001
1.39994
1.40001
1.39896
1.40001
1.34563
1.40029
1.40864
1.4
1.40001