/*--------------------------------*- C++ -*----------------------------------*\
  =========                 |
  \\      /  F ield         | OpenFOAM: The Open Source CFD Toolbox
   \\    /   O peration     | Website:  https://openfoam.org
    \\  /    A nd           | Version:  6
     \\/     M anipulation  |
\*---------------------------------------------------------------------------*/
FoamFile
{
    version     2.0;
    format      ascii;
    class       volScalarField;
    location    "1.6";
    object      rho;
}
// * * * * * * * * * * * * * * * * * * * * * * * * * * * * * * * * * * * * * //

dimensions      [1 -3 0 0 0 0 0];

internalField   nonuniform List<scalar> 
1600
(
1.40001
1.40001
1.40001
1.40001
1.40001
1.40001
1.40001
1.40001
1.40001
1.40001
1.40001
1.4
1.40001
1.4
1.4
1.4
1.4
1.4
1.39999
1.39998
1.39996
1.39998
1.40001
1.40003
1.40002
1.40001
1.4
1.4
1.4
1.4
1.4
1.4
1.40001
1.4
1.40001
1.40001
1.40001
1.40001
1.40001
1.40001
1.40001
1.40001
1.40001
1.40001
1.40001
1.40001
1.40001
1.40001
1.40001
1.40001
1.40001
1.40001
1.40001
1.40001
1.40001
1.4
1.4
1.39999
1.39997
1.39994
1.39989
1.39991
1.39999
1.40005
1.40006
1.40004
1.40001
1.4
1.39999
1.39999
1.4
1.4
1.4
1.4
1.4
1.40001
1.40001
1.40001
1.40001
1.40001
1.40001
1.40001
1.40001
1.40001
1.40001
1.40001
1.40001
1.40001
1.40001
1.4
1.40001
1.40001
1.40001
1.40001
1.40001
1.4
1.4
1.39998
1.39992
1.39984
1.39971
1.39971
1.39985
1.40003
1.40013
1.40014
1.40009
1.40003
1.39998
1.39997
1.39998
1.39999
1.4
1.4
1.4
1.4
1.40001
1.40001
1.40001
1.40001
1.40001
1.40001
1.40001
1.40001
1.40001
1.40001
1.40001
1.40001
1.4
1.40001
1.40001
1.4
1.40001
1.40001
1.4
1.4
1.39999
1.39994
1.39978
1.39959
1.3993
1.39918
1.39937
1.39976
1.40016
1.40038
1.40038
1.4002
1.4
1.39993
1.39992
1.39994
1.39998
1.4
1.4
1.4
1.4
1.40001
1.40001
1.40001
1.40001
1.40001
1.40001
1.40001
1.40001
1.40001
1.4
1.4
1.40001
1.40001
1.4
1.4
1.40001
1.40001
1.4
1.4
1.39997
1.39986
1.39947
1.39903
1.39842
1.39802
1.39809
1.39871
1.39977
1.40077
1.40121
1.40091
1.40039
1.39998
1.39977
1.39981
1.39991
1.39997
1.4
1.4
1.4
1.40001
1.40001
1.40001
1.40001
1.40001
1.40001
1.40001
1.40001
1.4
1.4
1.40001
1.40001
1.4
1.4
1.40001
1.40001
1.40001
1.4
1.39999
1.39994
1.39967
1.39881
1.39795
1.3968
1.39583
1.39544
1.39619
1.39837
1.40123
1.4032
1.40341
1.40234
1.40078
1.39985
1.39967
1.39978
1.39991
1.39997
1.4
1.4
1.4
1.40001
1.40001
1.40001
1.40001
1.40001
1.40001
1.4
1.4
1.40001
1.40001
1.4
1.40001
1.40001
1.40001
1.40001
1.40001
1.39999
1.4
1.39988
1.39923
1.39759
1.39619
1.39431
1.39258
1.39146
1.39229
1.3962
1.40251
1.40814
1.41047
1.40854
1.40454
1.40143
1.39995
1.39965
1.39979
1.39993
1.39998
1.4
1.4
1.4
1.40001
1.40001
1.40001
1.40001
1.40001
1.40001
1.40001
1.40001
1.4
1.4
1.40001
1.40001
1.40001
1.40001
1.39997
1.39998
1.4001
1.39968
1.39835
1.3959
1.39405
1.3916
1.38941
1.38845
1.39038
1.39732
1.40902
1.42096
1.42672
1.42325
1.41462
1.40626
1.40132
1.3997
1.39962
1.39983
1.39996
1.4
1.4
1.4
1.40001
1.40001
1.40001
1.40001
1.40001
1.40001
1.40001
1.4
1.4
1.40001
1.4
1.39998
1.39997
1.39991
1.39983
1.40009
1.40033
1.39922
1.39716
1.39475
1.39286
1.39078
1.38911
1.39136
1.39721
1.40893
1.42797
1.44804
1.45685
1.44943
1.43179
1.41417
1.40351
1.39968
1.39926
1.39964
1.3999
1.39998
1.4
1.4
1.4
1.40001
1.40001
1.40001
1.40001
1.40001
1.4
1.4
1.40001
1.4
1.39998
1.39996
1.39987
1.39969
1.39986
1.4007
1.40088
1.39885
1.3969
1.3969
1.39535
1.39556
1.39476
1.40273
1.41046
1.42164
1.4464
1.47695
1.49137
1.47924
1.44966
1.421
1.40419
1.39852
1.39831
1.39922
1.39977
1.39996
1.4
1.4
1.4
1.40001
1.40001
1.40001
1.4
1.40001
1.4
1.40001
1.40001
1.39999
1.39998
1.39998
1.39987
1.39998
1.40126
1.40305
1.40288
1.40052
1.40056
1.4067
1.40504
1.40942
1.40543
1.41062
1.39265
1.37129
1.38718
1.4374
1.4794
1.48186
1.4528
1.41997
1.40069
1.3953
1.39646
1.39846
1.39954
1.3999
1.39999
1.4
1.4
1.40001
1.40001
1.40001
1.40001
1.40001
1.40001
1.40001
1.40001
1.40002
1.40006
1.40003
1.40014
1.40149
1.40494
1.40808
1.40782
1.4073
1.41173
1.42842
1.42426
1.43033
1.41093
1.37722
1.26575
1.14743
1.12577
1.21552
1.33738
1.41077
1.4227
1.40684
1.39373
1.39131
1.39439
1.39759
1.39926
1.39984
1.39998
1.4
1.4
1.4
1.40001
1.40001
1.40001
1.40001
1.40001
1.4
1.40001
1.40005
1.40012
1.40025
1.40115
1.40438
1.40949
1.41295
1.41292
1.41787
1.4308
1.46159
1.4521
1.44401
1.38858
1.24722
0.970472
0.714238
0.649581
0.805716
1.05855
1.26203
1.36098
1.38696
1.3887
1.39008
1.39388
1.3973
1.39913
1.39979
1.39997
1.4
1.4
1.4
1.40001
1.40001
1.40001
1.40001
1.4
1.4
1.40001
1.40002
1.40007
1.40051
1.40259
1.40732
1.41247
1.41404
1.41162
1.42216
1.44987
1.49735
1.48203
1.42528
1.30877
1.00029
0.567285
0.2356
0.192188
0.442234
0.818857
1.13693
1.31435
1.37898
1.3926
1.39435
1.39608
1.39806
1.39931
1.39982
1.39997
1.4
1.4
1.4
1.40001
1.40001
1.40001
1.40001
1.4
1.40001
1.40001
1.39999
1.40001
1.4005
1.4027
1.40693
1.4111
1.41286
1.40698
1.41224
1.45281
1.52056
1.49843
1.36565
1.16328
0.732678
0.258646
-0.015755
0.0616648
0.408387
0.831738
1.16231
1.33981
1.40029
1.40751
1.40286
1.4
1.3995
1.39972
1.39991
1.39998
1.4
1.4
1.40001
1.40001
1.40001
1.40001
1.40001
1.40001
1.40001
1.40001
1.39999
1.39998
1.40022
1.40118
1.40293
1.40438
1.41087
1.41138
1.40069
1.43033
1.5123
1.49126
1.29803
1.04146
0.644191
0.23256
0.0944414
0.306532
0.700833
1.07509
1.31699
1.42046
1.43776
1.42432
1.41035
1.40315
1.40066
1.40007
1.39999
1.4
1.4
1.4
1.40001
1.40001
1.40001
1.40001
1.40001
1.40001
1.40001
1.4
1.39999
1.39998
1.4
1.39975
1.39997
1.39728
1.40457
1.42267
1.4096
1.40212
1.46833
1.46903
1.29074
1.06754
0.781563
0.480363
0.451389
0.714472
1.06881
1.33369
1.45722
1.47854
1.4562
1.42924
1.41188
1.40385
1.401
1.40021
1.40004
1.40001
1.40001
1.40001
1.40001
1.40001
1.40001
1.40001
1.40001
1.4
1.40001
1.4
1.4
1.39999
1.40001
1.39936
1.39987
1.39638
1.39488
1.42151
1.42828
1.40992
1.41068
1.43675
1.32163
1.15801
0.991842
0.837123
0.858566
1.08019
1.32933
1.47199
1.50357
1.47915
1.44509
1.42084
1.40807
1.40266
1.40075
1.40018
1.40004
1.40001
1.40001
1.40001
1.40001
1.40001
1.40001
1.4
1.40001
1.4
1.40001
1.40001
1.4
1.4
1.39998
1.39976
1.39981
1.40011
1.39266
1.40252
1.42357
1.44398
1.39493
1.41312
1.34446
1.22755
1.1318
1.07938
1.13309
1.29977
1.44509
1.49605
1.48123
1.44883
1.42372
1.40992
1.40371
1.40126
1.40039
1.40011
1.40003
1.40001
1.40001
1.40001
1.40001
1.40001
1.40001
1.4
1.40001
1.40001
1.4
1.40001
1.39998
1.40009
1.39978
1.40046
1.39885
1.40199
1.39888
1.3912
1.40113
1.42477
1.44563
1.42897
1.38121
1.34392
1.25599
1.20672
1.26413
1.38216
1.45574
1.4611
1.43901
1.41923
1.40826
1.40332
1.40129
1.40049
1.40017
1.40006
1.40002
1.40001
1.40001
1.40001
1.40001
1.40001
1.40001
1.4
1.4
1.40001
1.4
1.40003
1.39994
1.40018
1.39961
1.40089
1.39836
1.40157
1.40047
1.39962
1.39381
1.37328
1.45931
1.46873
1.47104
1.45257
1.37613
1.34097
1.38046
1.42594
1.43531
1.42085
1.40894
1.4037
1.40166
1.40078
1.40036
1.40016
1.40006
1.40003
1.40001
1.40001
1.40001
1.40001
1.40001
1.40001
1.40001
1.40001
1.4
1.40001
1.4
1.40003
1.39994
1.40017
1.39966
1.40073
1.39884
1.40122
1.39841
1.40195
1.40417
1.37284
1.40625
1.47107
1.51913
1.49783
1.45873
1.4424
1.43136
1.40747
1.39368
1.39255
1.39626
1.39876
1.39977
1.40002
1.40006
1.40005
1.40002
1.40001
1.40001
1.40001
1.40001
1.40001
1.40001
1.4
1.40001
1.4
1.40001
1.4
1.40002
1.39998
1.40005
1.39999
1.3999
1.40024
1.39972
1.40043
1.40008
1.39731
1.40392
1.39661
1.38943
1.43738
1.47355
1.46571
1.45783
1.44575
1.40641
1.37866
1.37699
1.38718
1.39421
1.39813
1.39945
1.39996
1.40003
1.40002
1.40001
1.40001
1.40001
1.40001
1.40001
1.40001
1.40001
1.4
1.40001
1.4
1.40002
1.39998
1.40005
1.39994
1.40011
1.39984
1.40022
1.39972
1.4003
1.39994
1.39982
1.401
1.39786
1.39985
1.40261
1.40883
1.42457
1.43316
1.43274
1.42428
1.39936
1.38266
1.38317
1.3903
1.39575
1.39877
1.39987
1.4
1.40001
1.4
1.40001
1.40001
1.40001
1.40001
1.40001
1.4
1.4
1.40001
1.40001
1.4
1.40002
1.39998
1.40003
1.39999
1.39998
1.39998
1.40022
1.39968
1.40025
1.39985
1.39984
1.40015
1.40032
1.4015
1.3991
1.3981
1.4101
1.42834
1.42669
1.41314
1.40603
1.39652
1.3935
1.39535
1.39848
1.39963
1.40014
1.39989
1.40001
1.40001
1.4
1.4
1.40001
1.4
1.4
1.40001
1.4
1.40001
1.4
1.40001
1.39999
1.40003
1.39998
1.40002
1.39998
1.40011
1.39978
1.40025
1.4
1.39947
1.40093
1.39917
1.40057
1.40124
1.39757
1.39837
1.4048
1.41074
1.41571
1.41058
1.40427
1.40266
1.39978
1.39974
1.40035
1.40019
1.39982
1.40004
1.39999
1.40001
1.4
1.40001
1.4
1.40001
1.4
1.40001
1.40001
1.40001
1.4
1.40002
1.39998
1.40004
1.39997
1.40002
1.40006
1.39997
1.39989
1.4002
1.39962
1.40089
1.3989
1.40056
1.40064
1.39853
1.40055
1.39964
1.39838
1.40172
1.40582
1.40709
1.40268
1.40044
1.40125
1.40114
1.40068
1.40001
1.39986
1.40008
1.40001
1.39999
1.40001
1.4
1.40001
1.4
1.40001
1.4
1.4
1.40001
1.4
1.40001
1.4
1.40001
1.39999
1.40007
1.39991
1.39998
1.40023
1.39981
1.40005
1.39976
1.40058
1.39989
1.39892
1.40091
1.40043
1.399
1.39899
1.40154
1.40339
1.40142
1.39901
1.39843
1.39996
1.4007
1.39998
1.39983
1.40011
1.39999
1.39999
1.40001
1.4
1.4
1.40001
1.40001
1.4
1.40001
1.40001
1.4
1.40001
1.4
1.40002
1.39999
1.40002
1.39999
1.40002
1.40001
1.4
1.39985
1.4004
1.39966
1.40009
1.39987
1.40007
1.4002
1.40023
1.39975
1.39971
1.40017
1.40041
1.39946
1.39817
1.39861
1.39992
1.4002
1.39978
1.39994
1.4001
1.39997
1.4
1.40001
1.4
1.4
1.40001
1.4
1.40001
1.4
1.40001
1.4
1.40002
1.39999
1.40002
1.39998
1.40006
1.39991
1.40007
1.40006
1.3998
1.40031
1.39969
1.40023
1.39984
1.40001
1.40033
1.3998
1.40003
1.40016
1.39969
1.39998
1.40016
1.39957
1.39947
1.40033
1.40069
1.40009
1.39991
1.40005
1.39995
1.40001
1.40003
1.4
1.4
1.40001
1.4
1.40001
1.40001
1.4
1.40001
1.4
1.4
1.40001
1.4
1.40001
1.39999
1.40003
1.39999
1.39994
1.40016
1.39985
1.40008
1.4
1.39992
1.40027
1.39984
1.39991
1.40002
1.39993
1.40004
1.4001
1.39999
1.39988
1.40032
1.40082
1.40041
1.39979
1.39984
1.40003
1.4
1.40003
1.40001
1.4
1.4
1.40001
1.40001
1.4
1.40001
1.4
1.4
1.40001
1.4
1.40001
1.39999
1.40004
1.39995
1.40006
1.39999
1.39999
1.40001
1.4
1.40004
1.39993
1.40016
1.39986
1.39999
1.40002
1.39997
1.40007
1.4
1.39998
1.39996
1.40001
1.40025
1.4002
1.39974
1.39968
1.39999
1.40007
1.40007
1.39999
1.39999
1.40001
1.40001
1.4
1.40001
1.40001
1.40001
1.40001
1.4
1.40001
1.40001
1.40001
1.4
1.4
1.40003
1.39997
1.4
1.40006
1.39996
1.40001
1.39998
1.40008
1.39993
1.39997
1.40005
1.40004
1.40003
1.4
1.40001
1.40002
1.40001
1.40002
1.40001
1.39985
1.39976
1.39999
1.40017
1.40006
1.39997
1.39998
1.40001
1.40001
1.4
1.4
1.4
1.40001
1.40001
1.40001
1.40001
1.4
1.40001
1.4
1.40001
1.39999
1.40002
1.40002
1.4
1.39998
1.40002
1.40002
1.4
1.39998
1.40001
1.40005
1.4
1.4
1.4
1.40001
1.4
1.4
1.40001
1.40001
1.39998
1.39993
1.40002
1.40013
1.40005
1.39996
1.39997
1.40001
1.40001
1.4
1.4
1.40001
1.40001
1.40001
1.40001
1.40001
1.40001
1.40001
1.40001
1.4
1.4
1.40001
1.4
1.4
1.40002
1.39999
1.4
1.40001
1.4
1.4
1.40002
1.4
1.4
1.39999
1.4
1.4
1.40001
1.40001
1.40001
1.4
1.40001
1.40002
1.40005
1.40002
1.39997
1.39997
1.40002
1.40001
1.4
1.4
1.40001
1.40001
1.40001
1.40001
1.40001
1.40001
1.40001
1.40001
1.4
1.40001
1.4
1.40001
1.40001
1.4
1.4
1.40001
1.4
1.4
1.40001
1.40001
1.4
1.4
1.40001
1.40001
1.40001
1.4
1.4
1.4
1.40001
1.40001
1.4
1.40001
1.40001
1.39999
1.39999
1.40001
1.40001
1.4
1.4
1.40001
1.40001
1.40001
1.40001
1.40001
1.40001
1.40001
1.40001
1.40001
1.40001
1.40001
1.40001
1.4
1.40001
1.40001
1.4
1.4
1.40001
1.40001
1.40001
1.4
1.4
1.40001
1.40001
1.40001
1.4
1.40001
1.4
1.40001
1.4
1.4
1.4
1.40001
1.4
1.4
1.40001
1.40001
1.4
1.4
1.40001
1.40001
1.40001
1.40001
1.40001
1.40001
1.40001
1.40001
1.40001
1.40001
1.40001
1.40001
1.40001
1.40001
1.4
1.40001
1.40001
1.40001
1.4
1.40001
1.4
1.40001
1.40001
1.4
1.40001
1.40001
1.4
1.4
1.4
1.4
1.40001
1.40001
1.40001
1.4
1.4
1.40001
1.40001
1.40001
1.4
1.40001
1.4
1.40001
1.40001
1.40001
1.40001
1.40001
1.40001
1.40001
1.40001
1.40001
1.40001
1.40001
1.40001
1.40001
1.40001
1.4
1.40001
1.4
1.40001
1.4
1.40001
1.4
1.4
1.40001
1.4
1.4
1.4
1.4
1.4
1.40001
1.40001
1.40001
1.4
1.40001
1.40001
1.4
1.4
1.40001
1.40001
1.4
1.40001
1.4
1.40001
1.40001
1.40001
1.40001
1.40001
1.40001
1.40001
1.40001
1.40001
1.40001
1.40001
1.40001
1.40001
1.40001
1.40001
1.40001
1.4
1.40001
1.4
1.40001
1.40001
1.40001
1.40001
1.4
1.4
1.4
1.39999
1.4
1.40001
1.40001
1.40001
1.4
1.4
1.4
1.4
1.4
1.40001
1.40001
1.4
1.40001
1.40001
1.40001
1.40001
1.40001
1.40001
1.40001
)
;

boundaryField
{
    emptyPatches_empt
    {
        type            empty;
    }
    top_cyc
    {
        type            cyclic;
    }
    bottom_cyc
    {
        type            cyclic;
    }
    inlet_cyc
    {
        type            cyclic;
    }
    outlet_cyc
    {
        type            cyclic;
    }
}


// ************************************************************************* //
