/*--------------------------------*- C++ -*----------------------------------*\
  =========                 |
  \\      /  F ield         | OpenFOAM: The Open Source CFD Toolbox
   \\    /   O peration     | Website:  https://openfoam.org
    \\  /    A nd           | Version:  6
     \\/     M anipulation  |
\*---------------------------------------------------------------------------*/
FoamFile
{
    version     2.0;
    format      ascii;
    class       surfaceVectorField;
    location    "1.31";
    object      rhoUf;
}
// * * * * * * * * * * * * * * * * * * * * * * * * * * * * * * * * * * * * * //

dimensions      [1 -2 -1 0 0 0 0];

internalField   nonuniform List<vector> 
11670
(
(-0.00187374 2.30793e-05 0.00100413)
(-0.00206129 0.0002082 0.000247146)
(-0.00271833 -0.000220152 0.000916486)
(-0.0020152 0.000761863 0.00130301)
(-1.15229e-16 2.20601e-18 5.40449e-17)
(-2.28654e-16 3.42682e-17 3.9321e-17)
(-1.24692e-16 1.04385e-17 3.45259e-17)
(-1.02965e-16 2.42557e-18 5.98645e-17)
(-0.00228714 -0.000386002 -0.00186691)
(-0.00254672 -8.09857e-05 -0.00116783)
(-0.00324873 -0.000465936 -0.00153927)
(-0.00248125 0.000313926 -0.00248367)
(-0.000379722 -2.57929e-05 0.000176977)
(-0.000416149 -2.2675e-05 0.000105629)
(-0.000591664 -4.18575e-05 0.000200594)
(-0.000394901 3.10934e-05 0.000255639)
(-1.30979e-16 -5.8054e-17 -9.81945e-17)
(-1.43934e-16 -5.52717e-17 -7.00926e-17)
(-2.47916e-16 -9.30168e-17 -8.25718e-17)
(-1.51075e-16 -4.80422e-17 -1.19909e-16)
(-1.8336e-10 -1.29494e-11 -1.29785e-10)
(-1.74029e-10 -1.88656e-11 -6.86797e-11)
(-2.93369e-10 -1.92674e-11 -1.12778e-10)
(-1.65709e-10 -1.23995e-11 -1.18942e-10)
(-1.1569e-14 -2.18726e-15 4.25864e-15)
(-2.54932e-14 -3.41089e-15 6.55227e-15)
(-1.12437e-14 -2.22656e-15 1.10565e-15)
(-1.12624e-14 -1.55975e-15 6.16354e-15)
(-2.08801e-06 -3.98887e-07 2.00539e-06)
(-1.59404e-06 -3.0133e-07 9.09241e-07)
(-3.26509e-06 -9.85834e-07 1.19743e-06)
(-1.54404e-06 -2.23683e-07 1.41457e-06)
(-1.79354e-11 1.20371e-12 6.07848e-12)
(-1.97543e-11 8.16271e-13 3.64413e-12)
(-2.87535e-11 2.19111e-12 4.1745e-12)
(-1.64659e-11 1.35633e-12 6.06748e-12)
(-2.56883e-13 5.80683e-14 1.53121e-13)
(-2.28471e-13 4.82995e-14 3.51441e-14)
(-4.15693e-13 4.54078e-14 1.35476e-13)
(-3.05555e-13 -1.34875e-14 2.25192e-13)
(-1.51944e-15 -3.12109e-17 9.79844e-16)
(-1.4035e-15 -1.83995e-16 4.75278e-16)
(-2.48484e-15 1.12153e-16 8.81432e-16)
(-1.53409e-15 6.0365e-17 9.81223e-16)
(-0.000880914 -0.00044719 0.000215337)
(-0.000167033 -0.000305859 0.000118578)
(2.17076e-05 -0.000167452 0.000312787)
(-2.54838e-05 -0.000300553 0.000536248)
(-1.78942e-17 3.00165e-17 -1.09175e-17)
(-4.82189e-18 -7.38872e-18 1.25421e-18)
(-7.85371e-18 1.40667e-19 -8.18421e-18)
(-6.34312e-18 -8.81904e-19 -4.12638e-18)
(-7.60641e-18 -1.84365e-18 7.71068e-18)
(-2.08212e-17 3.82052e-17 5.60371e-18)
(-6.95834e-18 1.51268e-18 1.05885e-17)
(-1.06604e-17 7.52598e-18 9.21486e-18)
(-0.000561584 -0.000321093 -0.000375355)
(-0.0012819 -0.000557198 -0.00054821)
(-0.000379617 -0.000551894 -0.000890787)
(-0.000220149 -0.000209457 -0.000566809)
(-1.2288e-18 3.11503e-19 2.26055e-19)
(-4.14011e-18 1.92417e-18 -1.11877e-18)
(-1.42633e-18 7.14894e-19 -1.20014e-18)
(-1.04873e-18 1.18178e-18 -8.62597e-21)
(-0.00222079 0.00112611 -0.00191811)
(-0.0009061 0.00161695 -0.000227668)
(0.00014204 0.00293104 -0.00238935)
(0.000138425 0.00207628 -0.00279695)
(-0.0023872 -0.00118147 0.00133956)
(-0.00109922 -0.00150081 -5.05748e-05)
(0.000200582 -0.00203176 0.00223078)
(0.000168793 -0.00235991 0.00162076)
(-3.78839e-18 -3.77843e-18 -3.0334e-18)
(-1.53466e-18 -1.77067e-18 -2.22817e-18)
(-3.90785e-19 -1.33253e-18 -2.50569e-18)
(-4.35914e-19 -9.06609e-19 -2.92077e-18)
(-2.18105e-19 1.46e-19 4.05473e-19)
(-2.43326e-18 1.96517e-18 -1.22015e-19)
(-2.30402e-19 7.6891e-19 4.77215e-19)
(-4.5448e-19 3.99005e-19 8.85058e-19)
(-0.00201836 -0.00126787 -0.000128338)
(-0.00345717 -0.000887865 -0.000844401)
(-0.00114055 -0.00232688 -0.00195986)
(-0.000856079 -0.00125601 -0.00254582)
(-9.42532e-19 -9.41253e-19 1.99445e-19)
(-2.20165e-19 -5.20361e-19 -2.28236e-19)
(-1.39374e-19 -5.70157e-19 1.30209e-19)
(-1.16053e-19 -3.37216e-19 5.55765e-19)
(-0.001408 0.000683223 -0.000698598)
(-0.00300173 0.000819969 -0.00011041)
(-0.000145087 0.00175295 0.00127461)
(-0.000263664 0.00222975 0.000554602)
(-0.000827871 0.000610806 -0.000369946)
(-0.000177978 0.000235154 2.34149e-05)
(-0.000114504 0.00041624 -0.00053888)
(-8.12969e-05 0.000314718 -0.000377178)
(-6.76128e-19 -3.35949e-19 -6.65374e-19)
(-1.24558e-18 -1.33762e-18 -7.00186e-19)
(-7.66438e-19 -4.98083e-19 -6.32893e-19)
(-6.2244e-19 -6.39781e-19 -3.4627e-19)
(-4.98175e-18 -5.02169e-18 -4.65305e-19)
(-1.65971e-18 -1.42225e-18 -1.69153e-20)
(-1.42839e-18 -1.48627e-18 4.19235e-19)
(-1.93e-18 -1.66911e-18 1.79985e-18)
(-0.000586631 0.000446154 0.000314992)
(-0.0012422 0.000808031 0.000271331)
(-0.000285194 0.000340256 0.000425915)
(-0.000442815 0.000662813 0.00069081)
(-1.50663e-16 6.47132e-17 8.40977e-17)
(-3.95194e-16 2.41511e-16 -1.81329e-16)
(-6.60457e-17 7.36411e-17 -5.40611e-17)
(-5.70853e-17 7.44674e-17 2.28643e-17)
(-1.87988e-05 -2.13289e-05 5.58633e-05)
(-0.000348408 -0.000143486 8.53822e-05)
(1.02443e-05 -2.36953e-05 0.000126655)
(2.2944e-07 -4.91432e-05 0.000180553)
(-6.01065e-16 2.48933e-16 2.08262e-17)
(-1.2773e-16 3.59553e-17 3.2651e-16)
(-1.34944e-16 7.6132e-17 2.54936e-16)
(-2.05933e-16 1.2804e-16 2.94664e-16)
(-1.14528e-06 -2.93778e-06 8.68676e-06)
(-4.52616e-05 -2.07195e-05 1.88238e-05)
(2.84807e-06 -3.08199e-06 2.23746e-05)
(1.40719e-06 -8.10122e-06 3.19855e-05)
(-2.57055e-15 6.59388e-16 4.74386e-17)
(-3.41056e-15 4.32688e-15 -2.86159e-15)
(-9.20756e-16 1.09682e-15 -4.35696e-16)
(-7.02878e-16 1.37628e-15 3.60962e-16)
(-1.07388e-14 3.52498e-15 8.40704e-16)
(-2.12779e-15 -2.77038e-16 1.83602e-15)
(-1.97305e-15 8.96621e-16 1.8158e-15)
(-3.31319e-15 8.47128e-16 2.72568e-15)
(-5.02396e-06 -2.22241e-06 -2.33501e-06)
(3.95216e-07 -1.37494e-07 -1.23071e-06)
(-1.81988e-07 -2.68981e-07 -3.59715e-06)
(1.69356e-07 -2.47922e-08 -2.18392e-06)
(-1.94585e-06 -5.64349e-07 2.25684e-06)
(-6.384e-06 -2.4053e-06 3.32019e-06)
(-4.42803e-07 -4.12208e-07 2.20911e-06)
(-9.95306e-07 -1.1475e-06 3.70325e-06)
(-1.42342e-14 2.60247e-15 1.17998e-14)
(-3.86548e-14 2.82834e-14 -2.54738e-15)
(-6.3414e-15 3.42316e-15 1.4582e-14)
(-1.31587e-14 1.07532e-14 1.15548e-14)
(-2.63007e-14 2.05431e-14 -8.17348e-15)
(-2.79127e-15 1.40705e-15 1.00805e-14)
(-6.48285e-15 1.1951e-15 -1.66282e-15)
(-4.14249e-15 9.7866e-16 3.62447e-15)
(-1.18297e-14 1.13263e-14 -4.91685e-14)
(-1.6303e-13 1.54875e-13 1.09305e-15)
(-3.36002e-14 2.23169e-14 -7.32817e-14)
(-1.24871e-14 -3.98381e-15 -6.2298e-14)
(-9.32515e-08 -3.16278e-08 -1.6026e-07)
(-5.17265e-07 -3.81425e-07 -4.29047e-07)
(2.56048e-08 -6.70262e-08 -2.98821e-07)
(4.44778e-08 -3.89059e-08 -1.99204e-07)
(-9.064e-07 -2.96663e-07 9.38571e-08)
(-1.03864e-07 6.48724e-08 2.68216e-07)
(-1.38532e-07 6.89011e-08 2.93704e-07)
(-3.11231e-07 -1.09677e-07 5.02003e-07)
(-1.7305e-12 1.1785e-12 -1.10145e-12)
(-6.96431e-13 4.08752e-13 -8.70287e-13)
(-3.91583e-14 1.95039e-13 -1.35008e-12)
(-3.36918e-14 1.1196e-13 -1.22431e-12)
(-7.98815e-08 -2.98237e-08 -3.33633e-08)
(-6.51322e-09 1.18288e-08 -3.1581e-08)
(-2.23792e-08 -2.39641e-09 -5.10032e-08)
(-1.21215e-08 6.06134e-09 -3.25411e-08)
(-2.30907e-12 1.27641e-12 6.83816e-14)
(-5.24165e-13 9.22482e-14 2.40412e-13)
(-4.96322e-13 1.23156e-13 1.45787e-13)
(-7.68093e-13 2.94167e-13 4.40977e-13)
(-9.46575e-09 -1.50652e-08 1.84693e-08)
(-6.29626e-08 -4.68326e-08 3.34123e-08)
(1.92261e-09 -1.26237e-08 2.5321e-08)
(-1.63878e-09 -1.65923e-08 4.02679e-08)
(-3.69299e-12 1.17366e-12 3.54927e-12)
(-1.28784e-11 6.58976e-12 9.48167e-13)
(-2.85504e-12 2.25006e-12 2.83462e-12)
(-3.73058e-12 2.25765e-12 3.33678e-12)
(-9.50286e-09 -6.32071e-09 -1.45683e-09)
(2.21728e-10 2.55652e-09 -2.93921e-09)
(-1.49593e-09 1.44747e-10 -4.84621e-09)
(-7.9375e-10 1.95707e-10 -3.04535e-09)
(-1.26619e-11 5.72853e-12 -3.66692e-12)
(-1.52078e-12 1.36629e-12 -4.84658e-14)
(-2.9082e-12 1.73378e-12 -3.30376e-12)
(-2.23002e-12 2.05051e-12 -1.56728e-12)
(-2.71496e-09 1.02637e-09 1.42042e-09)
(-6.26107e-09 -9.04217e-09 7.83185e-09)
(-1.62605e-09 -5.42947e-10 1.91613e-09)
(-2.34233e-09 -7.39865e-10 2.79791e-09)
(-5.14904e-12 -3.21775e-12 -4.97822e-12)
(-1.46151e-11 -6.23424e-12 -4.13114e-12)
(-2.17419e-13 -4.51985e-12 -6.1086e-12)
(-4.18806e-13 -4.80267e-12 -5.1928e-12)
(-1.33873e-09 1.32695e-09 6.33107e-10)
(-1.36964e-10 7.9322e-11 2.02867e-10)
(-1.95715e-10 3.44497e-10 3.90452e-10)
(-2.27849e-10 1.52768e-10 7.44586e-10)
(-5.88995e-12 -2.21766e-12 1.28475e-12)
(-1.88265e-11 -9.30718e-12 3.18408e-12)
(-4.76062e-12 -4.10873e-12 2.30014e-12)
(-6.15266e-12 -3.94569e-12 4.71292e-12)
(-8.45922e-10 3.1878e-10 -6.75257e-10)
(-1.50808e-09 1.62911e-09 -6.00968e-10)
(-6.80366e-10 4.97531e-10 -7.94424e-10)
(-4.876e-10 4.23974e-10 -6.20254e-10)
(-5.60478e-11 -2.33517e-11 3.02919e-11)
(-1.62199e-10 -1.49674e-10 9.89662e-11)
(-2.22314e-11 -6.75835e-11 2.2051e-11)
(-2.17617e-11 -3.98739e-11 4.40185e-11)
(-2.49944e-10 -1.26062e-10 7.8467e-13)
(-6.488e-11 1.45958e-11 -3.94675e-11)
(-8.93873e-11 -3.69387e-11 -7.14006e-11)
(-6.5005e-11 -3.31474e-11 -5.00277e-11)
(-3.12217e-10 3.23228e-10 1.45562e-10)
(-4.8142e-11 5.93516e-12 2.76851e-11)
(-5.84679e-11 7.35004e-11 9.83935e-11)
(-6.98306e-11 5.95779e-11 1.3411e-10)
(-4.79492e-11 3.42149e-11 1.92587e-11)
(-7.12676e-12 1.05614e-11 4.75442e-12)
(1.82747e-12 9.77304e-12 2.71604e-12)
(1.35539e-12 4.06597e-12 1.68919e-11)
(-8.40119e-11 -1.15692e-10 -6.85622e-11)
(-3.95533e-10 -4.2022e-10 -2.76501e-10)
(8.65513e-12 2.11366e-11 -2.41432e-10)
(2.38414e-11 -3.52065e-11 -6.72349e-11)
(-7.32634e-11 5.43414e-11 -1.47473e-11)
(-2.06628e-11 9.50328e-12 -1.87266e-11)
(-3.37088e-11 2.1852e-11 -2.99421e-11)
(-2.2316e-11 1.47104e-11 -2.22135e-11)
(-1.56471e-10 -1.46932e-10 3.17043e-10)
(-4.72505e-10 -5.89531e-10 1.65572e-10)
(-1.65323e-10 -1.67862e-10 3.50797e-10)
(-2.68658e-10 -3.46904e-10 4.73388e-10)
(-2.13348e-17 -1.92987e-17 -6.34365e-18)
(-4.39386e-18 -6.51022e-18 -6.34684e-21)
(-5.0755e-18 -8.62434e-18 -6.80938e-18)
(-4.62908e-18 -9.45281e-18 -4.59978e-18)
(-0.000177634 0.000169676 8.781e-05)
(-2.24939e-05 1.79484e-05 1.80389e-05)
(-2.05073e-05 5.98962e-05 7.42569e-05)
(-2.32574e-05 4.60606e-05 0.000120975)
(-1.43075e-17 -1.03029e-17 7.83998e-18)
(-2.81301e-17 -2.47501e-17 3.04236e-18)
(-9.22814e-18 -1.02297e-17 8.27899e-18)
(-1.25231e-17 -1.26049e-17 9.31813e-18)
(-0.000129751 7.17254e-05 -0.000116891)
(-0.00026314 0.000240984 -8.2228e-05)
(-0.000108811 8.86212e-05 -0.000160715)
(-7.37269e-05 7.01243e-05 -9.73061e-05)
(-7.07344e-13 -4.00105e-13 -5.33927e-13)
(-1.47795e-12 -1.00713e-12 -5.18137e-13)
(-3.46595e-13 -5.94962e-13 -6.70838e-13)
(-3.41927e-13 -6.41451e-13 -5.82467e-13)
(-8.28083e-13 -2.3491e-13 2.70503e-13)
(-1.93653e-12 -1.41366e-12 3.87615e-13)
(-6.46343e-13 -5.60812e-13 4.0183e-13)
(-7.65689e-13 -4.79865e-13 5.90576e-13)
(-6.73083e-09 3.23836e-09 -5.26879e-09)
(-9.05187e-09 1.22791e-08 -6.61288e-09)
(-5.5356e-09 4.67021e-09 -6.33573e-09)
(-3.92812e-09 4.64691e-09 -4.23929e-09)
(-1.06221e-08 1.12972e-08 3.4798e-09)
(-1.4758e-09 -4.09306e-10 1.31068e-09)
(-2.25175e-09 4.02521e-09 2.87695e-09)
(-2.73501e-09 2.22946e-09 5.59247e-09)
(-3.0626e-16 -3.48803e-16 2.10166e-16)
(-1.218e-15 -9.01793e-16 5.39943e-18)
(-2.47918e-16 -5.18605e-16 3.39771e-16)
(-2.40754e-16 -4.81743e-16 3.79429e-16)
(-2.68176e-06 3.85341e-06 2.13849e-06)
(-5.555e-07 -1.10848e-07 5.74972e-07)
(-6.91494e-07 1.66922e-06 1.33148e-06)
(-8.36379e-07 8.26175e-07 2.42871e-06)
(-2.14545e-06 1.51081e-06 -2.34577e-06)
(-2.85938e-06 3.68541e-06 -1.60906e-06)
(-1.93958e-06 1.84127e-06 -2.79078e-06)
(-1.25008e-06 1.55435e-06 -1.76471e-06)
(-2.64461e-07 1.70506e-07 2.91192e-07)
(-4.07573e-07 4.44558e-07 2.71601e-07)
(-1.51012e-07 2.08282e-07 2.08009e-07)
(-2.13991e-07 1.97133e-07 3.22651e-07)
(-4.67995e-07 5.18161e-07 -1.75634e-07)
(-7.48416e-08 1.28219e-08 -1.03989e-07)
(-1.3048e-07 1.31786e-07 -3.22098e-07)
(-1.0718e-07 2.17445e-07 -1.79448e-07)
(-1.3771e-14 -1.15342e-14 3.79811e-15)
(-3.89867e-15 -4.25283e-15 -4.42636e-17)
(-3.23156e-15 -7.23188e-15 2.76915e-15)
(-3.05457e-15 -5.67834e-15 4.14808e-15)
(-9.84279e-15 -5.51128e-15 -4.5052e-15)
(-1.86146e-14 -1.45299e-14 -2.44199e-15)
(-8.73064e-15 -7.29986e-15 -5.82298e-15)
(-7.07616e-15 -7.37016e-15 -5.14172e-15)
(-1.71261e-16 -1.58771e-16 -2.2201e-17)
(-4.40965e-17 -5.32692e-17 -2.35388e-17)
(-3.52947e-17 -7.65191e-17 -5.935e-17)
(-3.40119e-17 -8.95681e-17 -4.32813e-17)
(-1.2285e-16 -7.91476e-17 3.40387e-17)
(-2.19176e-16 -2.084e-16 8.50894e-17)
(-8.35118e-17 -1.01921e-16 5.95465e-17)
(-1.04725e-16 -1.00119e-16 8.14988e-17)
(-1.25848e-05 4.9279e-06 1.33589e-05)
(-1.97742e-05 3.39837e-05 1.28557e-05)
(-4.71763e-06 1.24461e-05 1.22287e-05)
(-5.17201e-06 7.66437e-06 1.54892e-05)
(-3.81729e-05 2.66004e-05 -1.31615e-05)
(-1.39014e-05 -5.83745e-06 -1.15109e-05)
(-1.68215e-05 1.25847e-05 -2.54451e-05)
(-1.17561e-05 1.31389e-05 -1.34408e-05)
(-6.02674e-08 8.01364e-08 -4.53599e-08)
(-1.51413e-08 1.77374e-08 -3.37155e-08)
(-8.92083e-09 1.73547e-08 -4.45873e-08)
(-8.83098e-09 3.88453e-08 -2.58479e-08)
(-3.03847e-14 -3.69907e-14 -2.92188e-14)
(-8.90344e-14 -7.29315e-14 -3.51884e-14)
(-9.07626e-15 -3.73411e-14 -3.47185e-14)
(-1.28328e-14 -5.26989e-14 -2.44218e-14)
(-6.08466e-14 -3.75192e-14 2.63671e-14)
(-1.43602e-13 -1.09705e-13 2.1427e-14)
(-5.75379e-14 -5.36022e-14 4.16636e-14)
(-7.42779e-14 -6.16528e-14 5.60283e-14)
(-5.69663e-08 7.55051e-08 2.67001e-08)
(-1.57488e-08 -1.91069e-08 2.50054e-08)
(-2.3287e-08 2.97803e-08 2.84598e-08)
(-3.02035e-08 2.7181e-08 4.43055e-08)
(-1.19428e-16 6.18495e-18 3.98074e-17)
(-2.92449e-16 -4.4898e-17 3.35168e-17)
(-1.02809e-16 -3.90856e-18 6.59255e-17)
(-0.00327623 -0.000354885 -0.0013537)
(-0.00228621 -0.000274893 -0.000869627)
(-0.00201155 -0.000591901 -0.00185092)
(-0.00241931 -0.000111444 0.000832192)
(-0.00165824 -3.63099e-05 0.00026561)
(-0.00158013 -0.000113158 0.000950714)
(-9.57204e-15 -2.04282e-15 4.50097e-16)
(-1.83222e-14 6.39169e-16 7.71619e-15)
(-9.14912e-15 -1.7716e-15 4.15061e-15)
(-2.48612e-16 -6.14266e-17 -8.53172e-17)
(-7.07612e-17 -7.1615e-18 -3.2009e-17)
(-1.05643e-16 -3.3021e-17 -8.84234e-17)
(-2.70837e-10 7.83573e-12 -1.1726e-10)
(-1.16857e-10 1.15832e-11 -6.6114e-11)
(-1.57369e-10 -2.35841e-12 -1.23542e-10)
(-4.85442e-06 -1.34302e-06 1.49412e-06)
(-1.88003e-06 -1.77984e-07 1.23204e-06)
(-2.30072e-06 -7.62401e-07 1.96142e-06)
(-0.000480421 -1.77625e-05 0.000129463)
(-0.000257049 7.31057e-06 7.7311e-05)
(-0.000303313 -5.19751e-06 0.000164762)
(-2.66491e-11 1.3262e-12 6.22833e-12)
(-1.37169e-11 -6.23859e-13 2.95284e-12)
(-1.48057e-11 2.25833e-13 6.92365e-12)
(-3.47722e-13 5.09245e-14 1.22509e-13)
(-1.44413e-13 -1.15178e-15 5.59987e-14)
(-2.06311e-13 2.64341e-14 1.27965e-13)
(-2.19905e-15 2.28699e-16 7.01604e-16)
(-1.03554e-15 -4.74884e-18 4.94203e-16)
(-1.28719e-15 5.2562e-17 8.9496e-16)
(-6.38185e-08 7.97418e-09 -5.81494e-09)
(-3.42917e-08 1.44327e-09 -5.67729e-09)
(-3.4889e-08 -1.01516e-09 -1.54983e-08)
(-3.4218e-08 1.37103e-09 -1.76119e-08)
(-3.84533e-08 4.06267e-10 1.01133e-08)
(-5.51049e-08 5.09396e-09 3.5354e-09)
(-3.62082e-08 5.15914e-10 6.52768e-09)
(-3.31047e-08 1.97741e-09 8.2141e-09)
(-2.1098e-10 -5.34558e-11 -1.12549e-11)
(-1.90665e-10 -4.1338e-11 -4.43569e-11)
(-2.28137e-10 -5.69338e-11 -4.56086e-11)
(-2.18655e-10 -5.18278e-11 -4.92404e-11)
(-1.02292e-16 1.41269e-18 1.07574e-17)
(-7.60983e-17 -4.81144e-18 2.31809e-17)
(-9.36808e-17 -6.91787e-18 2.2776e-17)
(-9.23237e-17 -6.26721e-18 2.31665e-17)
(-3.45596e-16 2.53463e-17 2.25888e-17)
(-3.15085e-16 1.95431e-17 8.82105e-17)
(-3.66735e-16 5.77541e-18 7.61459e-17)
(-3.35822e-16 2.59919e-17 7.94755e-17)
(-0.00072508 -2.00539e-05 -4.11373e-05)
(-0.000685163 -3.11842e-05 -0.000184771)
(-0.000840836 -3.3178e-05 -0.000172067)
(-0.000693162 -1.26755e-06 -0.000177879)
(-5.83908e-08 -6.89554e-11 -5.19424e-10)
(-5.86996e-08 -1.0294e-08 1.77903e-08)
(-4.51566e-08 -1.17832e-08 1.35355e-08)
(-3.71568e-08 -9.13175e-09 1.28647e-08)
(-2.91436e-17 -8.63007e-18 1.15239e-19)
(-3.36395e-17 -5.79216e-18 -5.15282e-18)
(-2.84473e-17 -5.03823e-18 -2.88806e-18)
(-2.49643e-17 -4.60666e-18 -6.85397e-18)
(-6.22191e-08 5.99215e-09 1.85271e-08)
(-3.9926e-08 3.86743e-09 1.38232e-08)
(-3.66335e-08 1.90878e-09 1.72632e-08)
(-1.42683e-09 2.11624e-10 6.32429e-11)
(-1.27557e-09 1.43616e-10 -2.05387e-10)
(-1.45333e-09 2.01547e-10 -1.82308e-10)
(-1.38642e-09 2.13424e-10 -1.95537e-10)
(-3.99334e-12 -1.56461e-12 -8.66343e-14)
(-3.90819e-12 -1.44028e-12 -4.49423e-13)
(-3.76045e-12 -1.39588e-12 -6.72741e-13)
(-3.44609e-12 -1.26753e-12 -5.30345e-13)
(-0.000859492 -5.17413e-05 2.38143e-05)
(-0.00088707 -0.000102718 -1.8387e-05)
(-0.000754791 -0.000108367 3.69211e-05)
(-0.000747171 -9.72235e-05 -2.7931e-05)
(-3.66968e-12 -1.49862e-12 5.25115e-13)
(-4.68866e-12 -2.01373e-12 1.76676e-13)
(-4.34618e-12 -1.83732e-12 2.59947e-13)
(-2.45026e-09 -6.00199e-10 -3.92029e-10)
(-2.28309e-09 -5.65917e-10 -5.8977e-10)
(-2.78966e-09 -6.46874e-10 -7.05655e-10)
(-2.90548e-09 -5.81787e-10 -7.35532e-10)
(-0.00104998 -1.26941e-05 7.13835e-05)
(-0.000948414 1.31114e-05 -1.90745e-05)
(-0.00082626 -2.92964e-06 5.92054e-05)
(-1.54434e-09 2.53271e-10 3.11328e-10)
(-1.43718e-09 2.1832e-10 3.11493e-10)
(-1.47415e-09 2.28778e-10 3.02044e-10)
(-8.2076e-08 1.35295e-08 -1.96025e-08)
(-6.46644e-08 1.08894e-08 -1.21432e-08)
(-5.06832e-08 7.48938e-09 -1.03697e-08)
(-3.03952e-16 2.34053e-17 -4.68353e-17)
(-3.62405e-16 2.83031e-17 -3.67135e-17)
(-3.58483e-16 3.65885e-17 -4.06388e-17)
(-1.80603e-10 -5.12725e-11 2.8486e-11)
(-2.20779e-10 -6.70636e-11 2.26439e-11)
(-2.17222e-10 -6.0144e-11 2.13193e-11)
(-0.000620016 -2.00851e-05 8.94578e-05)
(-0.000745597 -2.01496e-05 5.70775e-05)
(-0.000809983 -2.11549e-05 0.000100334)
(-3.32046e-17 -1.35816e-17 4.29765e-18)
(-2.91059e-17 -1.20528e-17 5.36765e-20)
(-2.33749e-17 -1.0114e-17 5.35818e-18)
(-1.08089e-16 8.80056e-18 -9.23482e-18)
(-1.24121e-16 8.12386e-18 -2.79633e-18)
(-1.1715e-16 1.62012e-17 -6.60726e-18)
(-1.58886e-09 2.5488e-10 1.10336e-10)
(-1.6025e-09 2.35675e-10 -1.90252e-10)
(-1.32509e-09 2.22522e-10 -2.07619e-10)
(-1.52373e-09 2.42158e-10 -2.95392e-10)
(-1.70169e-09 2.58895e-10 3.68448e-10)
(-1.47657e-09 2.4221e-10 4.38604e-10)
(-1.63694e-09 2.71386e-10 5.11901e-10)
(-5.35584e-12 -2.80789e-12 -6.94752e-13)
(-4.2461e-12 -1.91448e-12 -2.63695e-13)
(-4.12839e-12 -1.95139e-12 -6.4729e-13)
(-4.51264e-12 -2.68911e-12 -5.0921e-13)
(-6.12897e-12 -3.22095e-12 -5.9587e-13)
(-5.13199e-12 -2.74496e-12 -4.8729e-13)
(-6.42126e-12 -3.94068e-12 -1.31845e-12)
(-0.000719484 -5.03701e-05 5.81546e-06)
(-0.000885056 2.54924e-06 -0.000110296)
(-0.000591786 1.92842e-05 0.000135728)
(-0.000691726 3.9119e-06 2.77175e-05)
(-0.000670342 -0.000112416 9.07156e-05)
(-0.000594472 -8.49606e-05 -0.000107597)
(-0.000598421 -9.18119e-05 -2.35792e-06)
(-1.7587e-09 -4.37802e-10 1.14524e-10)
(-1.31231e-09 -2.0923e-10 6.02292e-10)
(-1.56582e-09 -2.8258e-10 3.51054e-10)
(-2.01306e-09 -2.67428e-10 2.18739e-10)
(-2.13926e-09 -6.70924e-10 9.40156e-11)
(-1.51994e-09 -5.09494e-10 -3.90943e-10)
(-1.72646e-09 -5.58557e-10 -1.22545e-10)
(-1.89678e-17 -6.14315e-18 -1.17798e-18)
(-2.33035e-17 -4.22378e-18 -1.37212e-18)
(-1.68234e-17 -3.09273e-18 -8.68218e-18)
(-1.8849e-17 -3.1973e-18 -4.74186e-18)
(-2.52403e-17 -1.0453e-17 -3.48762e-18)
(-1.32545e-17 -7.27786e-18 6.81128e-18)
(-1.67218e-17 -8.48817e-18 2.68793e-18)
(-4.05602e-16 3.47707e-17 2.04987e-17)
(-4.23394e-16 5.16752e-17 -2.54314e-17)
(-3.97405e-16 6.32015e-17 -3.33505e-17)
(-4.21285e-16 5.6335e-17 -4.6922e-17)
(-4.03169e-16 -1.78202e-17 6.41006e-17)
(-3.24504e-16 -3.2173e-18 6.79124e-17)
(-3.79655e-16 -3.55236e-17 5.16501e-17)
(-1.29691e-16 1.79956e-17 3.39157e-18)
(-1.47923e-16 2.09954e-17 -1.19159e-19)
(-1.27355e-16 2.41873e-17 -8.9442e-18)
(-1.38181e-16 2.96703e-17 -1.29289e-17)
(-1.14564e-16 2.2439e-18 1.53314e-17)
(-1.05321e-16 3.39737e-18 1.66103e-17)
(-1.13429e-16 1.34245e-17 1.02875e-17)
(-2.65462e-08 -1.59341e-09 3.07516e-10)
(-3.14404e-08 -1.08041e-08 5.16147e-09)
(-1.42066e-08 -7.32376e-09 1.29887e-08)
(-2.00459e-08 -6.86942e-09 5.82611e-09)
(-4.36715e-08 5.42984e-09 -5.17698e-09)
(-1.93801e-08 4.32222e-09 -1.19532e-08)
(-2.70315e-08 4.51093e-09 -6.08553e-09)
(-2.9242e-10 -8.82969e-11 -3.38723e-11)
(-2.81222e-10 -9.47011e-11 -5.15196e-11)
(-2.49754e-10 -9.67867e-11 -6.20357e-11)
(-2.79403e-10 -1.39052e-10 -7.21705e-11)
(-2.81462e-10 -7.42815e-11 8.12031e-12)
(-2.59301e-10 -5.76511e-11 4.60985e-12)
(-2.81412e-10 -6.45648e-11 1.16668e-11)
(-7.55906e-08 1.02587e-08 3.21329e-09)
(-7.87683e-08 1.06924e-08 -4.82137e-09)
(-1.18266e-17 8.7321e-20 5.93869e-18)
(-6.67196e-18 1.43348e-18 1.51559e-18)
(-2.57358e-17 8.1704e-18 5.16525e-18)
(-9.92011e-18 2.02995e-18 5.55379e-18)
(-2.94038e-18 5.68841e-18 -4.58788e-18)
(-1.91947e-18 1.53283e-18 -1.49522e-18)
(-2.28272e-17 1.04302e-17 -1.50268e-19)
(-4.47823e-18 4.5801e-18 -3.61642e-18)
(-0.0029554 0.000146543 -0.00146398)
(-0.00409826 0.000300938 -0.000989638)
(-0.00312358 -6.25563e-05 -0.000647934)
(-0.0027921 0.00080386 -0.00154412)
(-1.22772e-17 -6.36695e-19 -5.24401e-18)
(-7.16401e-18 -1.3302e-18 -1.79448e-18)
(-2.60301e-17 1.17566e-17 -2.14558e-18)
(-1.04257e-17 -1.94883e-19 -6.95011e-18)
(-0.00330137 0.000286442 0.0011477)
(-0.0036618 -0.000166004 0.000829618)
(-0.00331073 0.00017447 0.000417079)
(-0.00242689 -0.000363167 0.00131733)
(-9.92767e-18 2.84779e-18 5.57122e-18)
(-6.54203e-18 1.31452e-18 2.04008e-18)
(-2.36872e-17 1.28641e-17 5.47229e-18)
(-8.72368e-18 3.08668e-18 6.51283e-18)
(-1.07496e-17 3.89273e-18 -5.58969e-18)
(-7.26655e-18 7.94143e-19 -2.96702e-18)
(-2.78045e-17 5.72719e-18 -9.64874e-19)
(-1.02522e-17 2.44789e-18 -6.4104e-18)
(-1.20976e-17 -5.82338e-20 2.59613e-18)
(-7.85715e-18 1.16643e-18 -2.31821e-19)
(-2.61853e-17 4.24332e-18 3.38604e-18)
(-1.0688e-17 9.4631e-19 3.98806e-18)
(-0.0023198 0.000454115 -0.00101104)
(-0.00396413 0.000484444 -0.000720555)
(-0.0023327 0.000100235 -0.000394444)
(-0.00214194 0.000999967 -0.00124366)
(-0.00246593 -3.71697e-05 0.000816181)
(-0.00374777 -0.000265956 0.000795351)
(-0.00241655 8.56543e-05 0.000484664)
(-0.00202488 -0.000461085 0.00117415)
(-0.00314934 -0.000130213 0.00155257)
(-0.00374501 0.000155378 0.000875128)
(-0.0031286 -3.81345e-05 0.000879611)
(-0.00324646 0.000702275 0.00169732)
(-0.00323597 -0.00023836 -0.00154776)
(-0.0035817 -0.000538172 -0.00123403)
(-0.00336824 -5.54156e-05 -0.000543377)
(-0.00222971 -0.000984074 -0.00184885)
(-0.00207493 -0.000348323 0.000587934)
(-0.00214984 -0.00018547 0.000251695)
(-0.00295262 -1.84829e-05 0.000226084)
(-0.00183233 0.000116022 0.000687655)
(-0.00306127 6.65673e-05 -0.00079644)
(-0.00275472 0.000120421 -0.000369373)
(-0.0035194 0.000243236 -0.000633709)
(-0.00230489 -0.000102473 -0.00101739)
(-4.86538e-16 5.25566e-17 -3.23468e-16)
(-8.01723e-16 2.24021e-17 -1.21227e-16)
(-3.06482e-16 3.24475e-17 -1.28748e-16)
(-3.69825e-16 1.41761e-17 -2.51479e-16)
(-2.83292e-16 -8.24857e-17 1.21922e-16)
(-6.85027e-16 -1.56111e-17 1.1754e-16)
(-2.33644e-16 3.70864e-18 4.81296e-17)
(-2.57453e-16 -4.35567e-17 1.32082e-16)
(-0.00275078 8.24161e-05 0.000956632)
(-0.00354548 -0.000145415 0.000458117)
(-0.00272647 -0.000157129 0.00038397)
(-0.00241881 0.000260166 0.000900697)
(-4.60742e-16 -2.82176e-17 -2.10624e-16)
(-1.10752e-15 -1.65334e-16 -2.03507e-16)
(-2.85782e-16 5.90161e-17 2.40161e-17)
(-3.99715e-16 -1.72691e-18 -2.2776e-16)
(-3.80772e-16 4.3857e-17 4.46932e-16)
(-1.07222e-15 -1.61386e-16 1.09132e-16)
(-2.72999e-16 4.67057e-17 2.93407e-16)
(-3.46193e-16 1.28396e-17 3.59725e-16)
(-2.65966e-16 -8.39725e-17 -9.8902e-17)
(-1.81536e-16 -5.49026e-17 -2.9566e-17)
(-3.29601e-16 -1.02083e-16 -4.30762e-17)
(-1.96404e-16 -7.66158e-17 -9.22628e-17)
(-0.00194685 -7.84174e-05 -0.000339405)
(-0.002752 -0.000305328 -0.000213013)
(-0.0019043 -0.00021252 -0.000305341)
(-0.00168948 5.38424e-05 -0.000465915)
(-0.00134179 0.000417046 -5.44615e-05)
(-0.00088705 0.000328422 4.282e-05)
(-0.00149678 0.000312016 7.40822e-05)
(-0.000844345 0.000324048 0.000247318)
(-0.000392167 1.21129e-05 -0.000103537)
(-0.000258378 2.51107e-05 -9.18891e-05)
(-0.000504591 -2.15262e-05 -0.000169784)
(-0.000295572 1.3809e-05 -0.000134217)
(-1.34622e-12 -3.09728e-13 -5.90849e-13)
(-1.69538e-12 -5.48219e-13 -3.26987e-13)
(-9.18702e-13 -2.23667e-13 -1.78336e-13)
(-9.69143e-13 -2.80963e-13 -4.97155e-13)
(-9.28099e-05 1.79579e-05 -2.66724e-05)
(-6.43608e-05 1.26225e-05 -6.94806e-06)
(-0.000103146 2.05262e-05 -1.94482e-05)
(-6.35237e-05 1.43368e-05 -2.61945e-05)
(-0.00117972 -0.000241004 0.000120376)
(-0.00171759 -0.000289656 0.000122737)
(-0.00108958 -0.000211301 8.64164e-05)
(-0.000868629 -0.000118492 0.000260153)
(-6.79955e-15 1.43221e-16 -3.28445e-15)
(-8.35184e-15 1.57217e-15 -4.78128e-15)
(-1.63216e-14 1.0086e-15 1.93981e-15)
(-7.56326e-15 1.04547e-15 -5.20136e-15)
(-5.57822e-15 -8.9573e-16 1.04751e-15)
(-9.27233e-15 -2.95372e-15 1.19641e-15)
(-2.46888e-15 -3.34226e-16 6.73765e-16)
(-3.92564e-15 -1.11341e-15 1.53218e-15)
(-1.82023e-13 9.67951e-15 1.43582e-13)
(-2.08212e-13 -4.90212e-14 7.9371e-14)
(-1.14785e-13 -4.14546e-15 5.4636e-14)
(-1.1691e-13 1.62875e-15 8.66138e-14)
(-3.95546e-13 2.71702e-14 -1.97964e-14)
(-1.37433e-13 5.54582e-15 -2.78784e-14)
(-1.75796e-13 1.98187e-14 -3.91344e-14)
(-1.52933e-13 8.11076e-15 -5.97594e-14)
(-0.000855275 0.000159392 -0.000248672)
(-0.000682703 0.000109966 -6.79116e-05)
(-0.001026 0.000123306 -6.405e-05)
(-0.000634949 9.92237e-05 -0.000252167)
(-9.48087e-14 -2.6901e-14 3.80718e-15)
(-9.58857e-14 -2.37334e-14 7.55397e-15)
(-5.90454e-14 -2.55217e-14 3.13928e-15)
(-6.475e-14 -2.45177e-14 1.33621e-14)
(-6.08514e-13 -1.04944e-13 3.22829e-13)
(-1.37973e-12 -3.83508e-13 1.47397e-13)
(-6.01968e-13 -6.87043e-14 2.22014e-13)
(-5.64385e-13 -1.13071e-13 3.59451e-13)
(-0.00031791 -2.3229e-05 -6.20918e-05)
(-0.000205222 1.48815e-05 -4.85837e-05)
(-0.000491016 -6.25279e-05 -0.000128001)
(-0.000228734 -1.46929e-05 -0.000106961)
(-1.01736e-13 -1.44189e-14 1.39349e-14)
(-7.66202e-14 -1.93006e-15 2.01814e-14)
(-1.79201e-13 -3.29894e-14 2.43773e-14)
(-6.74484e-14 -8.92291e-15 2.34511e-14)
(-7.19873e-14 5.40231e-15 -4.57133e-14)
(-1.76901e-13 -4.35961e-14 -5.87143e-15)
(-7.688e-14 3.64884e-15 -2.82898e-14)
(-7.59777e-14 -5.49439e-15 -4.86102e-14)
(-2.63759e-05 -2.62735e-06 1.47015e-05)
(-5.22412e-05 -8.83344e-06 8.72537e-06)
(-2.28676e-05 -4.09451e-06 6.58043e-06)
(-2.06985e-05 -2.7723e-06 1.57778e-05)
(-1.50827e-05 2.17338e-06 3.83462e-06)
(-1.73329e-05 6.26586e-07 6.49109e-06)
(-6.63277e-06 1.92823e-06 -3.9225e-07)
(-7.58092e-06 1.80602e-06 5.29004e-06)
(-1.74637e-05 2.83187e-06 -7.12794e-06)
(-1.049e-05 2.06928e-06 -2.10361e-06)
(-1.82382e-05 4.27518e-06 -3.31299e-06)
(-1.12963e-05 2.84049e-06 -5.20173e-06)
(-4.80532e-12 -7.5624e-13 -1.6952e-12)
(-5.71431e-12 -1.40309e-12 -2.2058e-12)
(-2.53068e-12 -9.15611e-13 -9.35588e-13)
(-3.2385e-12 -8.33929e-13 -1.79896e-12)
(-3.54492e-12 -1.69367e-13 1.84401e-12)
(-4.30144e-12 -7.60719e-13 1.22139e-12)
(-2.47901e-12 -2.37926e-13 7.33987e-13)
(-2.49926e-12 -1.94668e-13 1.4269e-12)
(-3.29747e-06 -2.93737e-07 -1.24136e-06)
(-5.80689e-06 -5.85476e-07 -1.16309e-06)
(-2.74267e-06 -1.02095e-07 -6.68234e-07)
(-2.32596e-06 -5.07295e-08 -1.47129e-06)
(-1.15705e-12 -1.75143e-13 5.20984e-13)
(-1.3911e-12 -3.62679e-13 2.93955e-13)
(-7.8459e-13 -1.63733e-13 2.01443e-13)
(-7.98038e-13 -1.54219e-13 3.98483e-13)
(-0.000587892 -2.851e-05 0.000262937)
(-0.000556554 -1.96743e-05 0.000141344)
(-0.000896843 1.13986e-05 0.000198403)
(-0.000463641 -7.24481e-07 0.000278293)
(-0.000104999 -2.20363e-05 -4.80494e-05)
(-0.000167454 -8.41155e-06 -6.64203e-05)
(-0.000102813 -2.52552e-05 -1.44276e-05)
(-7.64486e-05 -1.68206e-05 -5.53963e-05)
(-0.000255874 -2.6706e-05 -0.000135812)
(-0.000440121 -4.91721e-05 -9.80917e-05)
(-0.000260259 -1.84829e-05 -7.92965e-05)
(-0.000212617 -2.07204e-05 -0.000150616)
(-7.43745e-14 -1.25687e-14 -9.19233e-15)
(-3.55022e-14 -1.275e-14 -1.1609e-14)
(-3.17963e-14 -8.78298e-15 -1.6264e-14)
(-3.23221e-14 -9.15797e-15 -2.11246e-14)
(-1.36467e-15 -2.20355e-16 -6.13763e-16)
(-3.43709e-15 -2.95345e-16 -6.1265e-17)
(-1.3397e-15 -3.12633e-17 -5.14277e-16)
(-1.26849e-15 -1.29339e-16 -6.73442e-16)
(-6.59398e-09 2.04854e-10 -3.39601e-09)
(-4.56181e-09 4.28077e-10 -1.59291e-09)
(-1.15368e-08 4.26454e-10 -1.58453e-09)
(-5.00531e-09 5.13688e-10 -3.16945e-09)
(-5.29196e-09 -3.00865e-10 1.28132e-09)
(-4.21877e-09 -3.30067e-10 3.1512e-10)
(-1.04692e-08 -2.39988e-10 1.05101e-09)
(-4.39434e-09 -3.03616e-10 1.91813e-09)
(-1.69222e-12 -9.66499e-14 -9.78743e-13)
(-3.85952e-12 -6.32911e-13 -1.31575e-13)
(-1.77917e-12 -7.98993e-14 -5.66244e-13)
(-1.71886e-12 -1.77512e-13 -1.01677e-12)
(-6.55255e-06 -8.42562e-07 3.04896e-06)
(-6.32606e-06 -4.64391e-07 1.81571e-06)
(-1.42319e-05 1.57246e-06 1.41042e-06)
(-5.86813e-06 -3.92859e-07 3.53801e-06)
(-4.68311e-13 5.47815e-15 -3.00346e-13)
(-1.21498e-12 -2.42877e-13 -1.181e-13)
(-5.25576e-13 -2.54524e-14 -1.84685e-13)
(-4.99369e-13 -4.44373e-14 -3.57789e-13)
(-6.31266e-09 1.03997e-09 3.87429e-10)
(-2.02556e-09 1.03515e-09 -1.34302e-09)
(-7.38212e-09 -5.02913e-10 3.66661e-09)
(-2.76564e-09 5.35217e-10 9.65903e-10)
(-3.74649e-09 3.13223e-10 1.08703e-09)
(-1.37348e-09 6.85601e-10 -1.44796e-09)
(-6.4246e-09 -5.11676e-10 3.51141e-09)
(-1.99135e-09 1.59116e-10 1.63142e-09)
(-6.87148e-11 -1.352e-11 1.72137e-11)
(-7.12655e-11 -1.52461e-11 3.21296e-11)
(-7.21305e-11 -1.52088e-11 4.47545e-11)
(-4.30244e-10 -7.16108e-11 -1.85098e-10)
(-2.46056e-10 -9.92724e-11 -1.13399e-10)
(-5.96903e-10 -2.33979e-11 -2.19319e-10)
(-3.13955e-10 -6.17722e-11 -2.22517e-10)
(-1.76822e-10 -6.24418e-11 -5.11475e-11)
(-5.55083e-10 2.12574e-11 -1.60417e-10)
(-2.8375e-10 3.1862e-12 -8.40895e-11)
(-2.22438e-10 3.17946e-12 -1.22441e-10)
(-9.13326e-11 -1.51852e-11 -1.61294e-11)
(-1.20285e-10 -1.42407e-11 -3.21632e-11)
(-1.03702e-10 -1.59879e-11 -4.15955e-11)
(-5.88282e-09 -3.58279e-09 -2.43879e-09)
(-2.25625e-08 -5.21719e-09 -1.24749e-13)
(-6.7613e-09 -4.91401e-09 -4.5665e-09)