/*--------------------------------*- C++ -*----------------------------------*\
  =========                 |
  \\      /  F ield         | OpenFOAM: The Open Source CFD Toolbox
   \\    /   O peration     | Website:  https://openfoam.org
    \\  /    A nd           | Version:  6
     \\/     M anipulation  |
\*---------------------------------------------------------------------------*/
FoamFile
{
    version     2.0;
    format      ascii;
    class       volScalarField;
    location    "1.67";
    object      k;
}
// * * * * * * * * * * * * * * * * * * * * * * * * * * * * * * * * * * * * * //

dimensions      [0 2 -2 0 0 0 0];

internalField   nonuniform List<scalar> 
4214
(
0.0343263
0.0291803
0.0277201
0.0273929
0.0274105
0.0275376
0.0277231
0.0279751
0.0283129
0.0287584
0.0293367
0.0300787
0.0310277
0.0322491
0.0338437
0.0359699
0.0388986
0.0431093
0.049387
0.0583772
0.0694486
0.0691028
0.059105
0.0496678
0.0428601
0.0381009
0.0348185
0.0324924
0.030821
0.0296183
0.0287656
0.0281736
0.0277766
0.0275225
0.0273668
0.0272654
0.0271858
0.027161
0.0274247
0.0287872
0.0337799
0.0263343
0.0267539
0.0270773
0.0273213
0.0275254
0.027733
0.027981
0.0283042
0.028726
0.0292706
0.0299653
0.0308459
0.0319632
0.0333944
0.0352583
0.0377446
0.0411834
0.0461516
0.0535471
0.0640265
0.077031
0.0776253
0.066402
0.0552813
0.0471237
0.0413123
0.037274
0.0343982
0.0323072
0.0307721
0.0296506
0.0288424
0.0282718
0.0278797
0.0276229
0.0274549
0.0273207
0.0271586
0.0269108
0.026554
0.0261471
0.0266153
0.0270407
0.0273268
0.0275491
0.0277604
0.0280048
0.0283165
0.028721
0.0292404
0.0298984
0.030725
0.0317608
0.0330654
0.0347278
0.0368862
0.0397659
0.043762
0.0495426
0.0580982
0.0700639
0.0850782
0.0870695
0.0748759
0.061973
0.0523182
0.0452723
0.0403123
0.0367644
0.0341727
0.0322446
0.030804
0.0297329
0.0289456
0.0283771
0.0279769
0.0277052
0.027521
0.0273657
0.0271683
0.0268696
0.0264449
0.0270778
0.027369
0.0275921
0.0278033
0.0280453
0.0283508
0.0287453
0.0292479
0.0298794
0.0306647
0.0316377
0.0328456
0.0343569
0.0362737
0.0387555
0.0420649
0.0466574
0.0532751
0.0629795
0.0763668
0.0934465
0.097325
0.0846025
0.069912
0.0586323
0.0501679
0.0440933
0.0397106
0.0365012
0.0341006
0.0322827
0.0309013
0.0298551
0.0290693
0.0284877
0.0280685
0.0277789
0.0275783
0.0274053
0.0271978
0.026905
0.0274247
0.0276463
0.0278558
0.0280971
0.0284027
0.0287949
0.0292917
0.029909
0.0306675
0.0315946
0.0327295
0.0341265
0.0358637
0.0380574
0.0408897
0.0446594
0.0498727
0.0573251
0.0681294
0.0828644
0.102074
0.108288
0.0956837
0.0793223
0.0662902
0.0562149
0.0488048
0.043386
0.0394007
0.0364171
0.0341462
0.0323985
0.0310471
0.0300026
0.0292005
0.0285934
0.0281486
0.0278389
0.027621
0.0274468
0.0272282
0.0277099
0.0279203
0.0281618
0.0284701
0.028869
0.0293709
0.0299894
0.0307376
0.031638
0.0327215
0.0340337
0.035637
0.03762
0.0401143
0.0433251
0.0475829
0.0534292
0.0616942
0.0735355
0.0895491
0.110945
0.119795
0.108117
0.090411
0.0755239
0.0636341
0.054652
0.0479681
0.0430126
0.0392995
0.0364746
0.0342912
0.0325831
0.0312372
0.0301753
0.0293422
0.0287005
0.0282261
0.0278914
0.0276719
0.0274689
0.0279942
0.0282384
0.0285522
0.0289617
0.029483
0.0301179
0.0308782
0.0317738
0.0328312
0.0340853
0.0355902
0.0374168
0.0396661
0.0424862
0.0461036
0.050873
0.0573535
0.0663976
0.0792114
0.0964852
0.120093
0.131675
0.12176
0.103274
0.0865306
0.072617
0.0618226
0.0536362
0.0474939
0.0428746
0.0393665
0.0366592
0.0345334
0.0328393
0.0314775
0.0303804
0.0295036
0.0288177
0.0283045
0.0279566
0.0277009
0.0283299
0.0286471
0.0290734
0.0296179
0.0302924
0.0310848
0.0320086
0.0330683
0.0342982
0.0357367
0.0374492
0.0395166
0.0420544
0.0452272
0.0492797
0.0545815
0.0616943
0.0714835
0.0852129
0.103787
0.129568
0.14388
0.136369
0.117859
0.0994353
0.0833465
0.0704739
0.0605161
0.0529623
0.0472589
0.0429361
0.0396132
0.0370057
0.0349128
0.0332045
0.0317967
0.0306381
0.0296977
0.0289559
0.0284048
0.0280145
0.0287664
0.0291959
0.0297789
0.0304941
0.0313573
0.0323332
0.0334455
0.0346868
0.0361056
0.0377416
0.0396775
0.0420043
0.044855
0.04841
0.0529271
0.0587829
0.0665326
0.0770423
0.0916435
0.111618
0.139421
0.156656
0.151868
0.134002
0.11421
0.0958187
0.0806251
0.0686616
0.0595022
0.0525647
0.0473195
0.0433078
0.0401671
0.0376308
0.0355278
0.0337529
0.0322494
0.0309862
0.0299495
0.0291335
0.028521
0.0293575
0.0299423
0.0307355
0.03166
0.0327558
0.0339432
0.0352752
0.0367153
0.0383433
0.0401907
0.0423682
0.0449751
0.0481668
0.0521362
0.0571498
0.0635869
0.0719908
0.0832166
0.0986592
0.120174
0.149796
0.170212
0.168344
0.151522
0.130708
0.109962
0.0922521
0.0780753
0.0671558
0.0588864
0.0526704
0.0479529
0.0442724
0.041275
0.038737
0.0365256
0.0345867
0.0328995
0.0314643
0.0302849
0.029358
0.0301676
0.0309576
0.0320312
0.0332044
0.0345915
0.0360191
0.0376139
0.0392713
0.0411369
0.0432119
0.0456555
0.0485669
0.0521314
0.0565502
0.0620949
0.0691498
0.078239
0.090206
0.106466
0.129665
0.160889
0.184822
0.185997
0.170289
0.148767
0.125633
0.105264
0.0886981
0.0759218
0.0663021
0.0591653
0.0538288
0.0496962
0.0462858
0.0433049
0.0405787
0.0380751
0.0357995
0.0337958
0.0320926
0.0307055
0.0312817
0.032332
0.0337842
0.0352412
0.037004
0.0386975
0.0406217
0.0425156
0.0446661
0.0469877
0.0497351
0.0529793
0.0569524
0.0618587
0.067969
0.075688
0.0855
0.0982722
0.115317
0.140304
0.172933
0.200788
0.205143
0.19026
0.168217
0.142583
0.119497
0.100429
0.0857723
0.0748929
0.0670211
0.0613091
0.0569638
0.053306
0.0499474
0.0466283
0.0433869
0.0402634
0.037412
0.0349111
0.0328264
0.0328211
0.0341787
0.0361559
0.0379136
0.0401826
0.0421556
0.044519
0.0466669
0.0491858
0.0517775
0.0548874
0.0584974
0.0629172
0.0683551
0.0750583
0.0835036
0.0940555
0.10775
0.125531
0.152347
0.186216
0.218538
0.226094
0.211442
0.188925
0.160488
0.134751
0.113118
0.0966882
0.0847807
0.0765245
0.0708956
0.066783
0.0632188
0.0596708
0.0556778
0.0514877
0.0471066
0.0429843
0.0392341
0.0360756
0.034962
0.0366299
0.0393654
0.0413946
0.0443819
0.0466171
0.0496039
0.0520133
0.0550457
0.0579342
0.0614986
0.0655167
0.0704239
0.0764497
0.083749
0.0930128
0.104264
0.11902
0.13741
0.166143
0.201075
0.238736
0.249238
0.23377
0.210822
0.178929
0.150877
0.126614
0.108709
0.0961727
0.0880533
0.08326
0.0800313
0.0771415
0.0737515
0.0689628
0.0636217
0.0572964
0.0513417
0.0456162
0.04086
0.0379504
0.0398213
0.0437012
0.0458823
0.0499327
0.0523484
0.0562628
0.0589111
0.0626985
0.0659063
0.070062
0.0745394
0.0799656
0.086696
0.0945447
0.104804
0.116601
0.132662
0.15129
0.18207
0.217644
0.262216
0.274983
0.256964
0.2339
0.197305
0.167903
0.140755
0.122062
0.109403
0.102047
0.0992576
0.0976047
0.0963391
0.0935165
0.0876921
0.0811628
0.0716461
0.0633586
0.0544215
0.0475268
0.0420855
0.0438648
0.0495177
0.0515862
0.0572394
0.0596491
0.0649574
0.0677501
0.0726654
0.0761942
0.0811923
0.0862325
0.0922056
0.0998771
0.108055
0.119669
0.131519
0.149396
0.167689
0.200816
0.235827
0.29009
0.303384
0.280261
0.258095
0.214471
0.18603
0.155012
0.137208
0.124808
0.119088
0.119863
0.12011
0.121904
0.119879
0.112523
0.105251
0.0902376
0.0798891
0.0653883
0.056362
0.0476527
0.048827
0.0571781
0.0587022
0.0667283
0.0687706
0.0762147
0.078887
0.0856217
0.0893663
0.095614
0.101407
0.107871
0.117053
0.124914
0.138777
0.149328
0.169953
0.18605
0.223019
0.254893
0.325042
0.333783
0.302323
0.283346
0.228216
0.205765
0.167619
0.154649
0.14201
0.139879
0.145391
0.147578
0.153912
0.152686
0.143144
0.136437
0.111907
0.101904
0.0770593
0.067936
0.0514982
0.0470791
0.0421391
0.0377911
0.0343957
0.031936
0.0302392
0.0291091
0.0283774
0.0279133
0.0276066
0.0273512
0.0270415
0.0265786
0.0258697
0.0258157
0.0503905
0.0458187
0.0417431
0.0382488
0.0352808
0.0328939
0.0310796
0.0297668
0.0288526
0.028238
0.027836
0.0275604
0.0273207
0.027022
0.0265655
0.0258249
0.0256027
0.0493665
0.0376919
0.0365414
0.0348404
0.0330881
0.0315302
0.0302615
0.0292886
0.0285767
0.0280793
0.0277401
0.0274942
0.0272702
0.0269823
0.026527
0.0257654
0.0254206
0.0484402
0.0348867
0.0336744
0.0325078
0.0313861
0.0303699
0.0295107
0.0288202
0.0282905
0.0279022
0.0276236
0.0274104
0.0272052
0.026926
0.0264659
0.0256758
0.0252147
0.0478604
0.0308994
0.0308281
0.0304492
0.0299172
0.0293488
0.028823
0.0283713
0.0280013
0.0277118
0.0274901
0.0273073
0.0271165
0.0268419
0.0263729
0.0255488
0.024986
0.0476438
0.0295512
0.0293231
0.0290927
0.0288191
0.028518
0.028222
0.027951
0.0277122
0.0275091
0.0273379
0.0271817
0.0270032
0.026731
0.0262483
0.0253822
0.0247389
0.0478069
0.0274385
0.0277006
0.027822
0.0278311
0.0277645
0.0276572
0.027536
0.0274118
0.0272882
0.0271658
0.0270367
0.0268705
0.0265975
0.026095
0.0251807
0.0244859
0.0483716
0.0267662
0.0269078
0.0270336
0.0271209
0.0271624
0.0271689
0.0271514
0.0271148
0.0270587
0.0269827
0.0268809
0.0267267
0.0264498
0.0259217
0.0249576
0.0242493
0.0493505
0.0253685
0.0257619
0.0260883
0.0263426
0.0265294
0.0266602
0.0267468
0.0267959
0.0268087
0.0267842
0.0267153
0.0265759
0.0262948
0.02574
0.0247338
0.0240599
0.0507261
0.0249377
0.025244
0.0255401
0.0258076
0.0260354
0.0262219
0.0263692
0.0264779
0.0265465
0.0265696
0.0265356
0.0264142
0.0261334
0.0255595
0.024526
0.0239414
0.0524263
0.0238847
0.0242988
0.0246825
0.0250362
0.0253548
0.0256346
0.0258731
0.0260671
0.0262116
0.0262988
0.0263123
0.0262201
0.0259511
0.0253711
0.0243305
0.0239031
0.0543723
0.0235136
0.0238506
0.0241916
0.0245259
0.0248445
0.0251413
0.0254115
0.0256483
0.0258421
0.0259788
0.0260353
0.025974
0.0257233
0.0251487
0.0241271
0.0239354
0.056483
0.0226372
0.0230701
0.0234776
0.0238653
0.0242332
0.0245787
0.0248971
0.0251813
0.0254207
0.0255994
0.0256914
0.025656
0.0254236
0.0248652
0.0238977
0.0240402
0.0586472
0.0222493
0.0225819
0.0229395
0.0233083
0.023676
0.0240324
0.0243685
0.0246744
0.024938
0.0251426
0.0252597
0.0252453
0.0250318
0.0245025
0.0236332
0.0242397
0.060739
0.0214375
0.0218558
0.0222619
0.0226622
0.0230532
0.0234277
0.0237784
0.0240981
0.0243771
0.024599
0.0247343
0.0247364
0.0245424
0.0240568
0.0233405
0.0245824
0.062701
0.0210291
0.021336
0.021689
0.0220637
0.02244
0.022804
0.0231473
0.0234644
0.0237468
0.0239769
0.0241229
0.0241367
0.0239636
0.023541
0.0230485
0.0251365
0.0644146
0.0202572
0.0206475
0.0210339
0.0214151
0.0217826
0.0221316
0.0224611
0.0227702
0.0230514
0.0232857
0.0234385
0.0234632
0.023319
0.0229873
0.0228044
0.0259736
0.0657543
0.0198311
0.0201131
0.0204425
0.02078
0.0211084
0.0214246
0.0217312
0.0220274
0.0223037
0.0225389
0.0226981
0.0227397
0.0226431
0.0224456
0.0226816
0.0271169
0.0665749
0.0191118
0.0194684
0.0198004
0.0201079
0.0203983
0.0206816
0.0209643
0.0212453
0.0215136
0.0217473
0.0219148
0.0219882
0.021972
0.0219759
0.0227836
0.0284335
0.0667968
0.0186764
0.0189269
0.0191857
0.0194319
0.0196731
0.0199189
0.0201735
0.0204337
0.0206882
0.0209169
0.0210967
0.0212241
0.0213409
0.0216461
0.0231073
0.0297934
0.0662914
0.0180294
0.0183182
0.0185419
0.0187402
0.0189386
0.0191479
0.0193706
0.0196037
0.0198384
0.0200612
0.0202662
0.0204825
0.0208054
0.0215377
0.0237789
0.0316637
0.0651113
0.0175843
0.0177609
0.0179107
0.0180568
0.0182135
0.0183856
0.0185743
0.0187786
0.0189956
0.0192252
0.0194881
0.0198534
0.0204797
0.021792
0.0250648
0.0349074
0.063584
0.0170066
0.0171727
0.0172811
0.0173894
0.0175108
0.0176502
0.0178111
0.017998
0.018219
0.0184943
0.0188772
0.0194809
0.0205363
0.0225894
0.0270886
0.0382666
0.0618627
0.0165347
0.0166074
0.0166731
0.0167506
0.016845
0.0169632
0.0171142
0.0173123
0.0175814
0.0179677
0.0185605
0.0195175
0.021139
0.0240505
0.0297082
0.0415162
0.0603829
0.0160056
0.0160475
0.0160895
0.0161479
0.0162298
0.0163474
0.0165187
0.0167703
0.0171449
0.0177164
0.0186033
0.0200048
0.0222681
0.0260554
0.0327959
0.045503
0.0597319
0.015482
0.015502
0.0155321
0.015585
0.0156732
0.0158159
0.0160408
0.0163878
0.0169207
0.0177347
0.0189748
0.0208704
0.023804
0.0284807
0.0363494
0.0501278
0.0601209
0.0149584
0.014967
0.014995
0.0150575
0.0151718
0.0153642
0.0156715
0.0161471
0.016871
0.0179543
0.0195596
0.021934
0.0254794
0.0309222
0.0397068
0.0543009
0.0616391
0.0144381
0.0144342
0.0144659
0.0145486
0.0147038
0.0149636
0.0153719
0.0159919
0.0169113
0.0182482
0.020168
0.0229141
0.0268746
0.0327425
0.0418823
0.056556
0.0641412
0.0139248
0.0139028
0.0139324
0.0140334
0.0142318
0.0145638
0.0150774
0.0158374
0.0169297
0.0184667
0.0206004
0.0235488
0.0276551
0.0335265
0.0423632
0.0562902
0.0672503
0.013451
0.0134012
0.0134143
0.0135154
0.0137364
0.0141192
0.0147149
0.0155878
0.0168157
0.0184932
0.0207456
0.0237543
0.0278113
0.0334329
0.0416497
0.054587
0.070428
0.0130565
0.0129943
0.0130023
0.0131076
0.0133438
0.013753
0.014386
0.0153052
0.0165849
0.0183145
0.0206061
0.0236109
0.0275685
0.0329282
0.040629
0.0528511
0.0731616
0.0127208
0.0126491
0.0126534
0.012761
0.0130049
0.0134248
0.0140685
0.0149934
0.0162687
0.0179784
0.020233
0.0231869
0.0270672
0.0322835
0.0397247
0.0516359
0.0751868
0.0124321
0.0123552
0.0123579
0.012466
0.0127103
0.0131277
0.0137633
0.0146677
0.0159024
0.017548
0.0197152
0.0225664
0.0263557
0.0314877
0.0388463
0.0507528
0.0764859
0.0121881
0.0121109
0.012115
0.0122246
0.0124682
0.0128794
0.0134926
0.0143527
0.015516
0.0170578
0.0190871
0.0217704
0.0253786
0.030363
0.0376603
0.0497595
0.0771485
0.0119866
0.0119151
0.0119271
0.0120445
0.0122921
0.0126939
0.0132806
0.0140885
0.0151642
0.0165737
0.0184176
0.0208604
0.0241837
0.0288961
0.0360562
0.0483896
0.0772941
0.0118258
0.0117687
0.0117977
0.0119331
0.0121918
0.012595
0.0131657
0.0139306
0.0149247
0.0162009
0.0178464
0.0200152
0.0229923
0.0273346
0.0342198
0.0466296
0.0770423
0.011704
0.0116704
0.0117288
0.011894
0.0121815
0.0126073
0.0131871
0.0139386
0.0148865
0.0160709
0.0175644
0.0195052
0.0221709
0.0261534
0.0326288
0.0448211
0.0764703
0.0116184
0.0116198
0.0117204
0.0119334
0.0122722
0.012749
0.013375
0.0141628
0.0151313
0.0163141
0.017775
0.0196418
0.0221932
0.0259985
0.0320205
0.0435649
0.0756362
0.0115652
0.0116124
0.0117694
0.0120493
0.0124642
0.0130254
0.0137423
0.0146292
0.0157085
0.0170194
0.0186351
0.0207015
0.0235487
0.0275611
0.0333876
0.0439786
0.0746342
0.011541
0.0116459
0.0118739
0.0122397
0.0127551
0.0134324
0.0142864
0.0153406
0.0166346
0.0182367
0.0202671
0.0229449
0.0266881
0.0314242
0.0377889
0.0477353
0.0735788
0.0163479
0.0170775
0.0178267
0.0185426
0.0191892
0.0197429
0.020192
0.0205302
0.0207576
0.0208778
0.0208985
0.0208304
0.0206861
0.0204789
0.0202196
0.019915
0.0195644
0.0191616
0.0186993
0.0181767
0.0173899
0.0166314
0.0161249
0.0156412
0.0151784
0.0147353
0.0143103
0.0139032
0.0135143
0.0131455
0.0127993
0.0124778
0.0121848
0.0119238
0.0117019
0.011527
0.0114086
0.0113526
0.0113547
0.0114017
0.0114699
0.0176118
0.0184953
0.0193794
0.0202012
0.0209257
0.0215352
0.0220207
0.0223782
0.0226081
0.022715
0.0227076
0.0225981
0.0224008
0.0221299
0.0217969
0.0214082
0.0209642
0.0204617
0.0198996
0.0192841
0.018412
0.017581
0.0170086
0.0164673
0.0159549
0.0154692
0.0150078
0.0145685
0.0141509
0.0137543
0.0133803
0.0130286
0.0127013
0.0123996
0.0121286
0.0118962
0.0117148
0.011596
0.011544
0.0115494
0.0115906
0.0189872
0.0200568
0.0210892
0.0220217
0.0228297
0.0235027
0.0240335
0.0244179
0.0246557
0.0247515
0.024715
0.0245599
0.024302
0.0239567
0.0235367
0.0230495
0.0224984
0.021885
0.0212152
0.0205011
0.0195424
0.0186351
0.0179906
0.0173861
0.0168191
0.0162868
0.0157861
0.0153137
0.0148674
0.0144458
0.0140478
0.0136722
0.0133179
0.0129845
0.0126732
0.0123902
0.0121481
0.0119643
0.0118522
0.0118118
0.0118265
0.0204767
0.0217576
0.0229431
0.0239905
0.0248919
0.0256418
0.0262318
0.0266549
0.0269089
0.0269979
0.0269324
0.0267274
0.0264009
0.0259701
0.0254496
0.0248502
0.0241797
0.0234463
0.0226624
0.021845
0.0207981
0.019811
0.0190886
0.0184149
0.0177877
0.0172041
0.0166601
0.0161519
0.0156761
0.01523
0.0148109
0.0144163
0.014043
0.0136876
0.0133477
0.0130249
0.0127292
0.0124804
0.0123019
0.0122078
0.0121933
0.0220834
0.0235871
0.0249239
0.0260936
0.0271047
0.0279508
0.0286182
0.0290949
0.0293758
0.029464
0.0293705
0.0291123
0.0287093
0.028182
0.0275487
0.026825
0.0260254
0.0251649
0.0242619
0.0233367
0.0222001
0.0211303
0.0203239
0.0195753
0.0188824
0.018242
0.01765
0.0171021
0.0165941
0.0161224
0.0156832
0.0152729
0.0148868
0.0145193
0.014164
0.0138166
0.0134805
0.0131726
0.0129226
0.0127621
0.0127077
0.0238123
0.0255324
0.0270174
0.0283234
0.0294661
0.0304313
0.0311967
0.0317439
0.0320641
0.0321592
0.0320404
0.0317264
0.0312407
0.0306077
0.0298515
0.0289946
0.0280588
0.0270662
0.02604
0.0250027
0.023775
0.0226197
0.0217238
0.0208947
0.0201304
0.0194278
0.0187826
0.0181903
0.0176463
0.0171463
0.0166858
0.0162606
0.0158655
0.0154937
0.0151361
0.0147825
0.0144265
0.0140748
0.0137546
0.0135113
0.0133935
0.0256737
0.0275868
0.029221
0.0306832
0.0319816
0.033089
0.033973
0.0346084
0.034982
0.0350932
0.0349536
0.0345841
0.0340118
0.0332675
0.0323824
0.031387
0.0303109
0.0291828
0.0280299
0.0268767
0.025556
0.0243128
0.0233225
0.0224077
0.0215668
0.0207968
0.0200933
0.0194517
0.0188673
0.0183351
0.0178506
0.0174092
0.0170059
0.0166341
0.0162842
0.0159425
0.015593
0.0152262
0.0148521
0.0145142
0.0142923
0.0276881
0.0297576
0.0315496
0.0331896
0.0346654
0.0359352
0.0369568
0.0376977
0.0381392
0.0382777
0.0381246
0.037703
0.0370453
0.036189
0.0351737
0.0340387
0.0328213
0.031556
0.030274
0.0290012
0.0275861
0.0262532
0.025164
0.0241591
0.023237
0.0223949
0.0216285
0.0209331
0.0203039
0.0197358
0.0192239
0.0187638
0.0183509
0.0179799
0.0176429
0.0173265
0.0170102
0.0166688
0.0162827
0.0158622
0.0154847
0.0298877
0.0320737
0.0340392
0.0358748
0.0375434
0.0389904
0.0401647
0.0410261
0.0415495
0.041728
0.0415718
0.0411067
0.0403702
0.0394076
0.0382669
0.036996
0.0356397
0.0342381
0.0328261
0.0314316
0.0299213
0.0284973
0.0273062
0.0262075
0.0252004
0.0242823
0.0234492
0.0226965
0.0220193
0.0214123
0.0208706
0.0203897
0.0199658
0.0195946
0.019271
0.0189858
0.0187214
0.018447
0.0181161
0.0176771
0.0171198
0.0323132
0.0345931
0.0367501
0.0387904
0.0406572
0.0422883
0.0436239
0.0446163
0.0452339
0.0454654
0.0453199
0.0448251
0.0440236
0.0429675
0.0417131
0.0403161
0.0388282
0.0372951
0.0357553
0.0342395
0.032635
0.0311201
0.0298255
0.028631
0.0275365
0.0265399
0.0256376
0.0248255
0.0240984
0.0234511
0.0228788
0.0223772
0.0219426
0.0215717
0.0212616
0.0210078
0.0208008
0.0206185
0.0204115
0.0200781
0.0194302
0.0350009
0.0374122
0.0397705
0.0420127
0.044071
0.0458816
0.0473776
0.0485041
0.0492235
0.0495202
0.0494017
0.0488965
0.048051
0.0469228
0.0455748
0.0440693
0.0424643
0.0408107
0.0391511
0.0375192
0.0358252
0.0342226
0.032826
0.0315362
0.0303542
0.0292785
0.0283066
0.0274346
0.0266577
0.025971
0.0253699
0.0248502
0.0244085
0.0240421
0.023749
0.0235278
0.0233762
0.0232863
0.0232324
0.0231298
0.0226733
0.0381285
0.0406736
0.043224
0.0456513
0.0478801
0.0498499
0.0514913
0.0527436
0.0535648
0.0539354
0.0538606
0.053369
0.052508
0.0513386
0.0499276
0.0483422
0.0466455
0.0448928
0.0431308
0.0413965
0.0396242
0.037943
0.0364513
0.0350716
0.0338059
0.0326545
0.0316157
0.0306864
0.0298626
0.02914
0.0285145
0.0279824
0.0275408
0.0271873
0.0269204
0.0267399
0.0266467
0.0266417
0.0267227
0.0268719
0.0269442
0.0420817
0.0446668
0.0472842
0.049861
0.0522232
0.0543097
0.0560622
0.0574153
0.0583256
0.0587711
0.0587548
0.0583034
0.0574631
0.0562942
0.0548646
0.0532433
0.0514962
0.0496819
0.0478502
0.0460415
0.0442144
0.0424746
0.0409051
0.0394493
0.0381118
0.0368946
0.0357976
0.034819
0.033956
0.0332053
0.0325639
0.0320289
0.031598
0.0312697
0.031043
0.0309185
0.0308982
0.0309858
0.0311864
0.0315172
0.0319858
0.0471047
0.0497145
0.0523252
0.0548624
0.0573001
0.0594307
0.0612319
0.0626364
0.0636037
0.0641121
0.0641626
0.0637784
0.0630015
0.0618879
0.0605017
0.0589099
0.0571776
0.0553639
0.0535203
0.0516893
0.0498526
0.0480942
0.0464826
0.0449817
0.0435991
0.0423393
0.0412043
0.0401943
0.0393084
0.038545
0.0379026
0.0373796
0.0369749
0.036688
0.0365187
0.0364687
0.0365416
0.0367421
0.037082
0.0375837
0.0381946
0.053686
0.0562022
0.058707
0.061127
0.0633922
0.0654612
0.067205
0.0685765
0.0695392
0.070077
0.0701902
0.0698973
0.069233
0.0682441
0.0669864
0.0655193
0.0639021
0.06219
0.0604324
0.0586717
0.0569089
0.055209
0.053626
0.0521431
0.0507714
0.0495183
0.0483886
0.0473854
0.0465101
0.0457638
0.0451469
0.0446598
0.044303
0.0440771
0.0439833
0.044024
0.0442065
0.0445355
0.0450249
0.0456416
0.0463983
0.0626018
0.0648159
0.0669998
0.0690911
0.0710351
0.0727779
0.07428
0.0754799
0.0763329
0.0768335
0.0769843
0.0767985
0.0763003
0.0755237
0.0745101
0.073305
0.0719551
0.0705056
0.0689981
0.0674695
0.0659336
0.0644375
0.0630207
0.0616827
0.060437
0.0592937
0.058261
0.0573448
0.0565497
0.0558795
0.0553372
0.0549254
0.0546462
0.0545019
0.0544949
0.0546272
0.0549144
0.0553384
0.0559016
0.0566003
0.057437
0.0751658
0.0766819
0.078155
0.0795446
0.0808207
0.0819547
0.0829208
0.0837003
0.0842726
0.0846194
0.0847497
0.0846705
0.0843943
0.0839387
0.0833257
0.0825803
0.081729
0.0807983
0.0798141
0.0788004
0.0777717
0.0767555
0.0757753
0.0748387
0.0739582
0.0731442
0.0724057
0.07175
0.0711838
0.0707125
0.0703406
0.0700721
0.0699102
0.0698578
0.0699192
0.0700936
0.0703791
0.0707736
0.0712728
0.0718704
0.0725674
0.051532
0.0258886
0.0259158
0.0266345
0.0271264
0.0274707
0.0277536
0.0280444
0.0283995
0.0288717
0.0295098
0.0303592
0.0314616
0.0328502
0.0345439
0.0365405
0.0388395
0.0503906
0.025621
0.0258195
0.026582
0.0270954
0.0274536
0.0277396
0.028018
0.0283414
0.0287582
0.029313
0.0300481
0.0310073
0.0322394
0.0338087
0.0358081
0.0383575
0.0493003
0.0253847
0.0257143
0.0265145
0.0270464
0.0274142
0.0277009
0.0279676
0.0282624
0.0286314
0.0291198
0.0297763
0.0306573
0.0318321
0.0333872
0.0354331
0.0381161
0.0485307
0.0251372
0.0255833
0.0264234
0.0269748
0.0273492
0.0276303
0.0278758
0.0281272
0.0284174
0.0287715
0.0292058
0.0297254
0.0303243
0.030988
0.0316981
0.0324657
0.0480927
0.0248897
0.0254305
0.0263115
0.0268812
0.0272592
0.0275328
0.0277602
0.0279807
0.0282232
0.0285089
0.0288539
0.0292684
0.0297623
0.0303555
0.0310732
0.0319295
0.0480024
0.0246539
0.0252624
0.0261827
0.0267666
0.027143
0.0274059
0.0276165
0.0278144
0.0280274
0.0282776
0.0285851
0.0289674
0.029441
0.0300317
0.0307852
0.0317435
0.048274
0.0244452
0.025088
0.0260432
0.0266342
0.0269982
0.0272367
0.0274128
0.0275622
0.0277044
0.0278497
0.0280018
0.0281579
0.0283119
0.0284551
0.0285897
0.0287417
0.0489209
0.0242791
0.0249156
0.0259009
0.0264966
0.0268453
0.027057
0.027199
0.0273081
0.0274035
0.0274966
0.027594
0.0277004
0.0278225
0.0279674
0.0281355
0.0283125
0.0499337
0.0241703
0.0247479
0.0257543
0.0263533
0.0266855
0.026869
0.0269761
0.0270472
0.0271038
0.0271581
0.0272187
0.0272906
0.0273823
0.0275334
0.0277633
0.0280743
0.0512815
0.024138
0.0245832
0.0255955
0.0261949
0.0265055
0.026647
0.0266937
0.0266892
0.0266562
0.0266057
0.0265418
0.0264648
0.0263713
0.0262607
0.0261386
0.0260097
0.0529197
0.0242074
0.024418
0.0254178
0.0260219
0.0263232
0.0264371
0.026439
0.0263756
0.0262801
0.0261754
0.0260737
0.0259789
0.0258892
0.0257974
0.0256908
0.0255553
0.054775
0.0244107
0.0242444
0.0252002
0.0258049
0.0261052
0.0262057
0.0261763
0.0260621
0.0259012
0.0257253
0.0255585
0.0254161
0.0253076
0.0252402
0.0252177
0.0252495
0.0567641
0.024762
0.0240551
0.024921
0.02551
0.0258054
0.0258954
0.0258423
0.0256842
0.0254567
0.0251918
0.0249154
0.024643
0.0243801
0.0241256
0.0238736
0.0236152
0.0588027
0.0253063
0.0238493
0.0245697
0.0251235
0.0254096
0.0254964
0.0254407
0.0252746
0.0250293
0.0247364
0.024427
0.0241251
0.0238434
0.0235828
0.0233321
0.0230663
0.0607863
0.0261169
0.0236423
0.02414
0.0246321
0.0248953
0.0249734
0.0249179
0.0247553
0.0245077
0.0241978
0.0238547
0.0235111
0.0231972
0.0229407
0.0227633
0.0226849
0.0626073
0.0272473
0.0234511
0.0236407
0.0240381
0.0242592
0.024315
0.0242502
0.024092
0.0238577
0.0235552
0.0231961
0.0227989
0.0223863
0.0219831
0.0216104
0.0212794
0.0641341
0.0287296
0.0233167
0.0231011
0.0233637
0.0235202
0.0235392
0.0234502
0.0232843
0.0230632
0.022795
0.022481
0.0221247
0.021738
0.0213425
0.0209625
0.020603
0.0651983
0.0304349
0.0233268
0.0225673
0.0226402
0.0227027
0.0226682
0.0225435
0.0223545
0.0221247
0.021867
0.021584
0.0212742
0.0209408
0.020603
0.0203082
0.0201382
0.0656052
0.0318336
0.0235072
0.0220937
0.0219009
0.02183
0.0217226
0.0215553
0.0213389
0.0210939
0.0208352
0.0205675
0.0202861
0.0199812
0.0196422
0.0192696
0.0189077
0.0652412
0.0325825
0.0238196
0.0217385
0.021182
0.0209243
0.0207209
0.0205047
0.0202628
0.0200066
0.0197498
0.0194992
0.0192552
0.0190118
0.0187563
0.018465
0.0181066
0.0642556
0.0336978
0.0244425
0.0215956
0.0205506
0.0200353
0.0197006
0.0194227
0.019156
0.0188951
0.018646
0.0184131
0.0181977
0.0179991
0.0178192
0.0176636
0.0175471
0.0628945
0.0370144
0.0257507
0.0218454
0.0201577
0.0192836
0.0187535
0.0183776
0.0180705
0.017801
0.0175609
0.0173475
0.0171579
0.0169897
0.0168402
0.0167095
0.0165423
0.0612068
0.0403695
0.0278832
0.0227131
0.0202258
0.018861
0.0180346
0.0174882
0.0170937
0.016788
0.0165415
0.0163387
0.0161693
0.0160278
0.0159092
0.0158166
0.0156938
0.0596893
0.0425716
0.0303777
0.0242466
0.020907
0.0189363
0.0177009
0.0168885
0.0163314
0.0159351
0.0156449
0.0154275
0.015262
0.0151359
0.0150393
0.014968
0.0149127
0.0589176
0.0457009
0.0331302
0.0261813
0.0220712
0.0194806
0.0177801
0.0166338
0.015847
0.0153005
0.0149182
0.0146501
0.0144618
0.0143316
0.0142432
0.0141896
0.0141547
0.059185
0.0498928
0.036283
0.0283704
0.0235139
0.0203393
0.018182
0.0166848
0.0156364
0.0149013
0.0143885
0.0140346
0.0137945
0.013636
0.0135369
0.0134846
0.0134594
0.0607021
0.0538117
0.0391045
0.0303819
0.0249397
0.0212989
0.0187558
0.016942
0.0156403
0.0147089
0.0140485
0.0135875
0.0132732
0.0130663
0.0129383
0.0128684
0.0128434
0.0634265
0.0555642
0.0406247
0.0317128
0.0260456
0.0221498
0.0193487
0.0172949
0.015783
0.0146752
0.0138722
0.0132994
0.0129001
0.012631
0.0124591
0.0123596
0.0123156
0.06691
0.0545946
0.0406
0.0322425
0.0267285
0.0227893
0.0198632
0.0176586
0.0159963
0.014751
0.0138282
0.0131544
0.0126717
0.0123348
0.0121087
0.0119671
0.011888
0.0704125
0.052041
0.0398538
0.0323575
0.0271359
0.0232523
0.020286
0.0180026
0.0162475
0.0149077
0.0138949
0.0131387
0.0125824
0.0121794
0.0118927
0.0116931
0.0115609
0.0733435
0.0508253
0.0396429
0.0325476
0.0274589
0.0236122
0.0206412
0.0183299
0.0165321
0.0151398
0.0140691
0.0132543
0.0126417
0.0121856
0.0118493
0.0116042
0.0114312
0.0754602
0.0508423
0.0397
0.0326471
0.0276088
0.0238197
0.0208993
0.0186217
0.0168374
0.0154428
0.0143635
0.0135308
0.0128874
0.0123902
0.0120063
0.01171
0.0114821
0.076842
0.0509638
0.0395423
0.0324602
0.0275109
0.0238516
0.021058
0.0188833
0.0171783
0.015842
0.0147858
0.0139477
0.0132804
0.0127454
0.0123129
0.0119601
0.0116711
0.0776593
0.0506114
0.0389233
0.0319107
0.0271641
0.0237361
0.021153
0.0191533
0.0175858
0.0163344
0.0153236
0.0144979
0.0138153
0.0132439
0.0127592
0.0123433
0.0119842
0.0780782
0.0497701
0.0379158
0.0311221
0.0267033
0.0235976
0.0212884
0.019517
0.0181116
0.0169657
0.0160103
0.0151986
0.0144973
0.0138824
0.013336
0.0128464
0.0124053
0.0782
0.0485912
0.0367917
0.0304041
0.0264195
0.0236834
0.0216631
0.020115
0.0188631
0.0178083
0.0168916
0.0160764
0.0153387
0.0146627
0.0140378
0.0134579
0.0129206
0.0780568
0.0473962
0.0360419
0.0302504
0.0267405
0.024338
0.0225455
0.0211459
0.0199774
0.0189535
0.0180251
0.0171643
0.0163551
0.0155888
0.014861
0.0141706
0.0135196
0.0776578
0.0468346
0.03642
0.0312969
0.0281511
0.0259188
0.0241753
0.0227764
0.0215701
0.0204783
0.019459
0.0184899
0.0175596
0.0166633
0.0158008
0.0149745
0.0141895
0.0770191
0.0479794
0.038856
0.0341694
0.0310522
0.0286846
0.0267371
0.0251209
0.0237122
0.0224272
0.021221
0.0200689
0.0189586
0.0178857
0.0168511
0.0158588
0.0149152
0.0761748
0.0524243
0.0443008
0.0393359
0.0356633
0.0327386
0.0303066
0.0282154
0.0264226
0.0248133
0.0233208
0.0219073
0.0205539
0.019253
0.0180047
0.0168132
0.0156857
0.0548062
0.0672325
0.0798315
0.0925944
0.105928
0.121035
0.139839
0.1644
0.197346
0.250201
0.373051
0.322234
0.236667
0.177622
0.161282
0.175803
0.191469
0.178539
0.134699
0.086377
0.0618674
0.0764378
0.0913817
0.107161
0.124262
0.143664
0.167066
0.195878
0.231555
0.281842
0.416421
0.350933
0.254881
0.193354
0.181617
0.203949
0.225652
0.212387
0.15947
0.0998866
0.0705603
0.0874521
0.104966
0.12444
0.146435
0.171633
0.201119
0.23501
0.272929
0.32528
0.46348
0.380651
0.272416
0.209883
0.204304
0.237848
0.265002
0.252466
0.187803
0.115808
0.0812764
0.100639
0.120919
0.144793
0.173096
0.206087
0.243555
0.282978
0.322051
0.377209
0.510546
0.410731
0.288552
0.226967
0.232519
0.276058
0.311382
0.300346
0.220502
0.134895
0.0945874
0.116593
0.139862
0.168886
0.205225
0.248449
0.29583
0.340462
0.379059
0.436007
0.557275
0.443312
0.306993
0.246905
0.269222
0.316397
0.36529
0.358321
0.260129
0.158185
0.111365
0.136355
0.162962
0.198012
0.244443
0.300606
0.359354
0.40772
0.443442
0.502491
0.605683
0.480979
0.330824
0.264758
0.300376
0.361204
0.421533
0.426394
0.309939
0.186331
0.13299
0.161666
0.192317
0.234486
0.293269
0.36488
0.435505
0.485053
0.516228
0.580763
0.651423
0.517904
0.360805
0.29567
0.330991
0.403179
0.472019
0.49615
0.371794
0.220193
0.161681
0.195414
0.231311
0.281999
0.355274
0.443874
0.525153
0.573605
0.60585
0.655141
0.692305
0.549793
0.387621
0.323181
0.365173
0.440363
0.512914
0.556096
0.447091
0.261836
0.200972
0.242222
0.285183
0.345982
0.435128
0.540285
0.627799
0.670326
0.688625
0.721039
0.725432
0.572533
0.399935
0.344938
0.398178
0.47439
0.546112
0.602705
0.527276
0.31314
0.256417
0.309196
0.361223
0.433818
0.538366
0.656232
0.743526
0.776702
0.761001
0.77179
0.748264
0.588564
0.411848
0.364763
0.431898
0.508795
0.577381
0.638724
0.605391
0.37722
0.335951
0.402811
0.467119
0.553649
0.669317
0.790215
0.865314
0.855559
0.813532
0.802782
0.758567
0.597288
0.421691
0.395099
0.471953
0.547968
0.611255
0.667322
0.675563
0.458137
0.447963
0.533498
0.609549
0.710364
0.82892
0.934537
0.970769
0.90621
0.84091
0.813293
0.754625
0.600507
0.435563
0.445559
0.521776
0.594057
0.648736
0.691818
0.731362
0.555199
0.59255
0.701504
0.792677
0.903178
1.00913
1.07602
1.03273
0.929795
0.844914
0.80242
0.741176