/*--------------------------------*- C++ -*----------------------------------*\
  =========                 |
  \\      /  F ield         | OpenFOAM: The Open Source CFD Toolbox
   \\    /   O peration     | Website:  https://openfoam.org
    \\  /    A nd           | Version:  6
     \\/     M anipulation  |
\*---------------------------------------------------------------------------*/
FoamFile
{
    version     2.0;
    format      ascii;
    class       volVectorField;
    location    "4.01";
    object      U;
}
// * * * * * * * * * * * * * * * * * * * * * * * * * * * * * * * * * * * * * //

dimensions      [0 1 -1 0 0 0 0];

internalField   nonuniform List<vector> 
5625
(
(0.894451 0.44719 0)
(0.894436 0.447193 0)
(0.894426 0.447195 0)
(0.894418 0.447197 0)
(0.894413 0.447198 0)
(0.894409 0.447199 0)
(0.894406 0.447199 0)
(0.894404 0.447199 0)
(0.894403 0.4472 0)
(0.894402 0.447199 0)
(0.894401 0.4472 0)
(0.894401 0.4472 0)
(0.894401 0.4472 0)
(0.8944 0.4472 0)
(0.8944 0.4472 0)
(0.8944 0.4472 0)
(0.8944 0.4472 0)
(0.8944 0.4472 0)
(0.8944 0.4472 0)
(0.8944 0.4472 0)
(0.8944 0.4472 0)
(0.8944 0.4472 0)
(0.8944 0.4472 0)
(0.8944 0.4472 0)
(0.8944 0.4472 0)
(0.8944 0.4472 0)
(0.8944 0.4472 0)
(0.8944 0.4472 0)
(0.8944 0.4472 0)
(0.8944 0.4472 0)
(0.894401 0.4472 0)
(0.894399 0.4472 0)
(0.894401 0.447199 0)
(0.894399 0.447201 0)
(0.8944 0.4472 0)
(0.894399 0.447199 0)
(0.894402 0.447201 0)
(0.894398 0.447199 0)
(0.894402 0.447201 0)
(0.894399 0.4472 0)
(0.894401 0.4472 0)
(0.894399 0.447201 0)
(0.894401 0.4472 0)
(0.8944 0.4472 0)
(0.894401 0.4472 0)
(0.894402 0.4472 0)
(0.894403 0.447201 0)
(0.894405 0.4472 0)
(0.894406 0.447201 0)
(0.894412 0.447203 0)
(0.894413 0.447201 0)
(0.894425 0.447205 0)
(0.894429 0.447203 0)
(0.894443 0.447206 0)
(0.894454 0.447209 0)
(0.894469 0.447209 0)
(0.894478 0.447212 0)
(0.894484 0.447208 0)
(0.89447 0.447203 0)
(0.894429 0.447183 0)
(0.894329 0.447148 0)
(0.894141 0.44708 0)
(0.893806 0.446955 0)
(0.893248 0.446752 0)
(0.892372 0.446416 0)
(0.891038 0.445894 0)
(0.889088 0.44511 0)
(0.886374 0.443969 0)
(0.882769 0.442399 0)
(0.878324 0.440373 0)
(0.873415 0.437987 0)
(0.86876 0.43553 0)
(0.865216 0.433389 0)
(0.863442 0.431855 0)
(0.863673 0.431041 0)
(0.894448 0.44719 0)
(0.894434 0.447193 0)
(0.894425 0.447195 0)
(0.894417 0.447197 0)
(0.894412 0.447198 0)
(0.894408 0.447198 0)
(0.894406 0.447199 0)
(0.894404 0.447199 0)
(0.894403 0.4472 0)
(0.894402 0.4472 0)
(0.894401 0.4472 0)
(0.894401 0.4472 0)
(0.894401 0.4472 0)
(0.8944 0.4472 0)
(0.8944 0.4472 0)
(0.8944 0.4472 0)
(0.8944 0.4472 0)
(0.8944 0.4472 0)
(0.8944 0.4472 0)
(0.8944 0.4472 0)
(0.8944 0.4472 0)
(0.8944 0.4472 0)
(0.8944 0.4472 0)
(0.8944 0.4472 0)
(0.8944 0.4472 0)
(0.8944 0.4472 0)
(0.8944 0.4472 0)
(0.8944 0.4472 0)
(0.8944 0.4472 0)
(0.894399 0.4472 0)
(0.894401 0.4472 0)
(0.8944 0.4472 0)
(0.8944 0.4472 0)
(0.8944 0.4472 0)
(0.8944 0.4472 0)
(0.894399 0.4472 0)
(0.894401 0.4472 0)
(0.894399 0.447201 0)
(0.8944 0.4472 0)
(0.894399 0.4472 0)
(0.894402 0.4472 0)
(0.894398 0.4472 0)
(0.894401 0.4472 0)
(0.8944 0.447201 0)
(0.8944 0.447199 0)
(0.894403 0.4472 0)
(0.894402 0.447202 0)
(0.894405 0.4472 0)
(0.894407 0.447201 0)
(0.894411 0.447202 0)
(0.894414 0.447202 0)
(0.894423 0.447204 0)
(0.894428 0.447206 0)
(0.894441 0.447206 0)
(0.894452 0.447211 0)
(0.894468 0.447212 0)
(0.894477 0.447214 0)
(0.894487 0.447216 0)
(0.894479 0.447209 0)
(0.894445 0.447196 0)
(0.894368 0.447166 0)
(0.894208 0.447107 0)
(0.893922 0.446996 0)
(0.893441 0.446813 0)
(0.892677 0.446507 0)
(0.89151 0.446027 0)
(0.889787 0.4453 0)
(0.887357 0.44423 0)
(0.884088 0.442732 0)
(0.87996 0.440756 0)
(0.875224 0.438358 0)
(0.870489 0.435771 0)
(0.866584 0.433377 0)
(0.864221 0.431535 0)
(0.863765 0.430428 0)
(0.894445 0.447189 0)
(0.894432 0.447192 0)
(0.894423 0.447195 0)
(0.894416 0.447196 0)
(0.894411 0.447198 0)
(0.894408 0.447198 0)
(0.894405 0.447199 0)
(0.894404 0.447199 0)
(0.894403 0.447199 0)
(0.894401 0.4472 0)
(0.894401 0.447199 0)
(0.894401 0.4472 0)
(0.894401 0.4472 0)
(0.8944 0.4472 0)
(0.8944 0.4472 0)
(0.8944 0.4472 0)
(0.8944 0.4472 0)
(0.8944 0.4472 0)
(0.8944 0.4472 0)
(0.8944 0.4472 0)
(0.8944 0.4472 0)
(0.8944 0.4472 0)
(0.8944 0.4472 0)
(0.8944 0.4472 0)
(0.8944 0.4472 0)
(0.8944 0.4472 0)
(0.8944 0.4472 0)
(0.8944 0.4472 0)
(0.8944 0.4472 0)
(0.8944 0.4472 0)
(0.8944 0.4472 0)
(0.8944 0.4472 0)
(0.8944 0.4472 0)
(0.894401 0.4472 0)
(0.894399 0.4472 0)
(0.894401 0.4472 0)
(0.894398 0.447199 0)
(0.894402 0.447201 0)
(0.894399 0.447199 0)
(0.8944 0.4472 0)
(0.894401 0.4472 0)
(0.8944 0.4472 0)
(0.8944 0.4472 0)
(0.894401 0.4472 0)
(0.8944 0.447201 0)
(0.894402 0.447199 0)
(0.894402 0.447201 0)
(0.894404 0.447199 0)
(0.894407 0.447203 0)
(0.894409 0.447201 0)
(0.894414 0.447204 0)
(0.894419 0.447203 0)
(0.89443 0.447206 0)
(0.894437 0.447209 0)
(0.894451 0.44721 0)
(0.894465 0.447215 0)
(0.894477 0.447217 0)
(0.894485 0.447219 0)
(0.894487 0.447217 0)
(0.89446 0.447206 0)
(0.894399 0.447183 0)
(0.894265 0.447131 0)
(0.894025 0.447037 0)
(0.893619 0.446873 0)
(0.892955 0.4466 0)
(0.89194 0.446163 0)
(0.890437 0.445494 0)
(0.888285 0.444507 0)
(0.885351 0.4431 0)
(0.881573 0.441202 0)
(0.877081 0.438834 0)
(0.872361 0.436165 0)
(0.868175 0.433549 0)
(0.865277 0.431391 0)
(0.864139 0.429949 0)
(0.894442 0.447189 0)
(0.89443 0.447192 0)
(0.894422 0.447194 0)
(0.894415 0.447196 0)
(0.894411 0.447197 0)
(0.894407 0.447198 0)
(0.894405 0.447199 0)
(0.894403 0.447199 0)
(0.894402 0.447199 0)
(0.894401 0.4472 0)
(0.894401 0.4472 0)
(0.8944 0.4472 0)
(0.894401 0.4472 0)
(0.8944 0.4472 0)
(0.8944 0.4472 0)
(0.8944 0.4472 0)
(0.8944 0.4472 0)
(0.8944 0.4472 0)
(0.8944 0.4472 0)
(0.8944 0.4472 0)
(0.8944 0.4472 0)
(0.8944 0.4472 0)
(0.8944 0.4472 0)
(0.8944 0.4472 0)
(0.8944 0.4472 0)
(0.8944 0.4472 0)
(0.8944 0.4472 0)
(0.8944 0.4472 0)
(0.8944 0.4472 0)
(0.8944 0.447199 0)
(0.8944 0.447201 0)
(0.8944 0.4472 0)
(0.8944 0.4472 0)
(0.894401 0.4472 0)
(0.894399 0.4472 0)
(0.894401 0.4472 0)
(0.894399 0.447199 0)
(0.894401 0.4472 0)
(0.894399 0.4472 0)
(0.894401 0.4472 0)
(0.894399 0.4472 0)
(0.894402 0.4472 0)
(0.894399 0.4472 0)
(0.894402 0.447199 0)
(0.8944 0.447202 0)
(0.894401 0.447199 0)
(0.894404 0.447201 0)
(0.894402 0.4472 0)
(0.894407 0.447201 0)
(0.894408 0.447203 0)
(0.894414 0.447203 0)
(0.894417 0.447204 0)
(0.894429 0.447206 0)
(0.894435 0.447211 0)
(0.894449 0.44721 0)
(0.894461 0.447216 0)
(0.894477 0.44722 0)
(0.894485 0.447222 0)
(0.894488 0.447223 0)
(0.894474 0.447215 0)
(0.894422 0.447198 0)
(0.894316 0.447154 0)
(0.894116 0.447074 0)
(0.893771 0.44693 0)
(0.893208 0.44669 0)
(0.892332 0.446298 0)
(0.891028 0.445692 0)
(0.889146 0.444789 0)
(0.886545 0.443488 0)
(0.88313 0.441699 0)
(0.878949 0.439398 0)
(0.874344 0.436703 0)
(0.869976 0.433916 0)
(0.866612 0.431451 0)
(0.864821 0.429644 0)
(0.894439 0.447189 0)
(0.894428 0.447192 0)
(0.89442 0.447194 0)
(0.894414 0.447196 0)
(0.89441 0.447197 0)
(0.894407 0.447198 0)
(0.894405 0.447199 0)
(0.894403 0.447199 0)
(0.894402 0.4472 0)
(0.894401 0.4472 0)
(0.894401 0.4472 0)
(0.8944 0.4472 0)
(0.8944 0.4472 0)
(0.8944 0.4472 0)
(0.8944 0.4472 0)
(0.8944 0.4472 0)
(0.8944 0.4472 0)
(0.8944 0.4472 0)
(0.8944 0.4472 0)
(0.8944 0.4472 0)
(0.8944 0.4472 0)
(0.8944 0.4472 0)
(0.8944 0.4472 0)
(0.8944 0.4472 0)
(0.8944 0.4472 0)
(0.8944 0.4472 0)
(0.8944 0.4472 0)
(0.8944 0.4472 0)
(0.8944 0.4472 0)
(0.8944 0.447201 0)
(0.8944 0.447199 0)
(0.8944 0.447201 0)
(0.894401 0.4472 0)
(0.894399 0.4472 0)
(0.8944 0.4472 0)
(0.8944 0.4472 0)
(0.8944 0.4472 0)
(0.894399 0.4472 0)
(0.894401 0.4472 0)
(0.8944 0.4472 0)
(0.8944 0.4472 0)
(0.894401 0.4472 0)
(0.894399 0.4472 0)
(0.894402 0.4472 0)
(0.8944 0.447201 0)
(0.894402 0.4472 0)
(0.894403 0.447201 0)
(0.894403 0.447201 0)
(0.894405 0.447201 0)
(0.894409 0.447202 0)
(0.894413 0.447203 0)
(0.894416 0.447205 0)
(0.894425 0.447205 0)
(0.894436 0.44721 0)
(0.894444 0.447214 0)
(0.894459 0.447215 0)
(0.894473 0.447223 0)
(0.894485 0.447225 0)
(0.894489 0.447228 0)
(0.894482 0.447225 0)
(0.894442 0.447209 0)
(0.894358 0.447177 0)
(0.894195 0.447108 0)
(0.893903 0.446986 0)
(0.893431 0.446773 0)
(0.892685 0.446429 0)
(0.891562 0.445889 0)
(0.889936 0.445073 0)
(0.887656 0.443885 0)
(0.884609 0.442226 0)
(0.880786 0.440034 0)
(0.87639 0.437369 0)
(0.871957 0.434472 0)
(0.868222 0.431737 0)
(0.865826 0.429553 0)
(0.894435 0.447188 0)
(0.894426 0.447192 0)
(0.894418 0.447194 0)
(0.894413 0.447196 0)
(0.894409 0.447197 0)
(0.894406 0.447198 0)
(0.894404 0.447199 0)
(0.894403 0.447199 0)
(0.894402 0.4472 0)
(0.894401 0.4472 0)
(0.894401 0.4472 0)
(0.894401 0.4472 0)
(0.8944 0.4472 0)
(0.8944 0.4472 0)
(0.8944 0.4472 0)
(0.8944 0.4472 0)
(0.8944 0.4472 0)
(0.8944 0.4472 0)
(0.8944 0.4472 0)
(0.8944 0.4472 0)
(0.8944 0.4472 0)
(0.8944 0.4472 0)
(0.8944 0.4472 0)
(0.8944 0.4472 0)
(0.8944 0.4472 0)
(0.8944 0.4472 0)
(0.8944 0.4472 0)
(0.8944 0.4472 0)
(0.894399 0.4472 0)
(0.8944 0.4472 0)
(0.8944 0.4472 0)
(0.894399 0.4472 0)
(0.894401 0.4472 0)
(0.894399 0.4472 0)
(0.894401 0.4472 0)
(0.894399 0.4472 0)
(0.894401 0.4472 0)
(0.894398 0.4472 0)
(0.894402 0.4472 0)
(0.894398 0.4472 0)
(0.894402 0.4472 0)
(0.894399 0.4472 0)
(0.894401 0.447201 0)
(0.8944 0.4472 0)
(0.894401 0.447199 0)
(0.894401 0.447201 0)
(0.894401 0.4472 0)
(0.894405 0.447201 0)
(0.894404 0.447202 0)
(0.894408 0.4472 0)
(0.894411 0.447205 0)
(0.894417 0.447205 0)
(0.894421 0.447206 0)
(0.894433 0.447209 0)
(0.894441 0.447214 0)
(0.894457 0.447217 0)
(0.894468 0.447223 0)
(0.894482 0.447228 0)
(0.894489 0.447231 0)
(0.894485 0.44723 0)
(0.89446 0.447222 0)
(0.894391 0.447195 0)
(0.89426 0.447139 0)
(0.894022 0.447037 0)
(0.893624 0.446853 0)
(0.892996 0.446551 0)
(0.892041 0.446078 0)
(0.890644 0.445349 0)
(0.888672 0.44428 0)
(0.885995 0.442766 0)
(0.882551 0.440719 0)
(0.87845 0.438142 0)
(0.874079 0.435204 0)
(0.870089 0.432257 0)
(0.867159 0.429715 0)
(0.894432 0.447189 0)
(0.894423 0.447192 0)
(0.894417 0.447194 0)
(0.894412 0.447196 0)
(0.894408 0.447197 0)
(0.894406 0.447198 0)
(0.894404 0.447199 0)
(0.894403 0.447199 0)
(0.894402 0.447199 0)
(0.894401 0.4472 0)
(0.894401 0.4472 0)
(0.8944 0.4472 0)
(0.894401 0.4472 0)
(0.8944 0.4472 0)
(0.8944 0.4472 0)
(0.8944 0.4472 0)
(0.8944 0.4472 0)
(0.8944 0.4472 0)
(0.8944 0.4472 0)
(0.8944 0.4472 0)
(0.8944 0.447201 0)
(0.8944 0.4472 0)
(0.8944 0.4472 0)
(0.8944 0.4472 0)
(0.8944 0.4472 0)
(0.8944 0.4472 0)
(0.8944 0.4472 0)
(0.8944 0.4472 0)
(0.8944 0.4472 0)
(0.8944 0.4472 0)
(0.8944 0.4472 0)
(0.8944 0.447201 0)
(0.8944 0.4472 0)
(0.8944 0.4472 0)
(0.8944 0.4472 0)
(0.8944 0.4472 0)
(0.894399 0.4472 0)
(0.8944 0.4472 0)
(0.8944 0.4472 0)
(0.8944 0.4472 0)
(0.8944 0.447201 0)
(0.894399 0.447199 0)
(0.894402 0.4472 0)
(0.8944 0.447201 0)
(0.8944 0.4472 0)
(0.894403 0.4472 0)
(0.894401 0.447202 0)
(0.894403 0.447199 0)
(0.894406 0.447203 0)
(0.894406 0.447201 0)
(0.89441 0.447203 0)
(0.894416 0.447205 0)
(0.894421 0.447207 0)
(0.894429 0.447209 0)
(0.89444 0.447212 0)
(0.894451 0.44722 0)
(0.894465 0.447222 0)
(0.894478 0.44723 0)
(0.894488 0.447236 0)
(0.894487 0.447234 0)
(0.894471 0.447232 0)
(0.89442 0.447212 0)
(0.894312 0.447167 0)
(0.894119 0.447081 0)
(0.893792 0.446927 0)
(0.893267 0.446668 0)
(0.892462 0.446253 0)
(0.891276 0.445616 0)
(0.889587 0.444665 0)
(0.887266 0.443303 0)
(0.88422 0.441426 0)
(0.880472 0.43899 0)
(0.876277 0.43609 0)
(0.872171 0.433007 0)
(0.868815 0.430151 0)
(0.894429 0.447189 0)
(0.894421 0.447192 0)
(0.894415 0.447194 0)
(0.894411 0.447196 0)
(0.894408 0.447197 0)
(0.894405 0.447198 0)
(0.894403 0.447199 0)
(0.894402 0.447199 0)
(0.894401 0.4472 0)
(0.894401 0.447199 0)
(0.894401 0.4472 0)
(0.8944 0.4472 0)
(0.8944 0.4472 0)
(0.8944 0.4472 0)
(0.8944 0.4472 0)
(0.8944 0.4472 0)
(0.8944 0.4472 0)
(0.8944 0.4472 0)
(0.8944 0.4472 0)
(0.8944 0.4472 0)
(0.8944 0.4472 0)
(0.8944 0.4472 0)
(0.8944 0.4472 0)
(0.8944 0.4472 0)
(0.8944 0.4472 0)
(0.8944 0.4472 0)
(0.8944 0.4472 0)
(0.8944 0.4472 0)
(0.8944 0.4472 0)
(0.8944 0.447201 0)
(0.8944 0.447199 0)
(0.8944 0.4472 0)
(0.8944 0.4472 0)
(0.8944 0.447199 0)
(0.894399 0.4472 0)
(0.894401 0.447201 0)
(0.894398 0.447199 0)
(0.894401 0.447201 0)
(0.894399 0.447199 0)
(0.894401 0.447201 0)
(0.894399 0.4472 0)
(0.894402 0.4472 0)
(0.894398 0.4472 0)
(0.894402 0.447199 0)
(0.894399 0.447201 0)
(0.894401 0.4472 0)
(0.894403 0.447201 0)
(0.894401 0.4472 0)
(0.894405 0.447201 0)
(0.894406 0.447204 0)
(0.894409 0.447202 0)
(0.894413 0.447205 0)
(0.894422 0.447206 0)
(0.894424 0.44721 0)
(0.894439 0.447212 0)
(0.894445 0.447218 0)
(0.894461 0.447225 0)
(0.894473 0.447229 0)
(0.894486 0.447236 0)
(0.894489 0.44724 0)
(0.894475 0.447237 0)
(0.894441 0.447227 0)
(0.894357 0.447191 0)
(0.894201 0.44712 0)
(0.893934 0.446994 0)
(0.8935 0.446773 0)
(0.892829 0.446415 0)
(0.89183 0.445864 0)
(0.8904 0.445031 0)
(0.888411 0.443822 0)
(0.885761 0.442135 0)
(0.882409 0.439883 0)
(0.878491 0.437093 0)
(0.874409 0.433965 0)
(0.870763 0.43087 0)
(0.894426 0.447189 0)
(0.894419 0.447192 0)
(0.894414 0.447195 0)
(0.89441 0.447196 0)
(0.894407 0.447197 0)
(0.894405 0.447198 0)
(0.894403 0.447199 0)
(0.894402 0.447199 0)
(0.894401 0.4472 0)
(0.894401 0.4472 0)
(0.8944 0.4472 0)
(0.894401 0.4472 0)
(0.8944 0.4472 0)
(0.8944 0.4472 0)
(0.8944 0.4472 0)
(0.8944 0.4472 0)
(0.8944 0.4472 0)
(0.8944 0.4472 0)
(0.8944 0.4472 0)
(0.8944 0.4472 0)
(0.8944 0.4472 0)
(0.8944 0.4472 0)
(0.8944 0.4472 0)
(0.8944 0.4472 0)
(0.8944 0.4472 0)
(0.8944 0.4472 0)
(0.8944 0.4472 0)
(0.8944 0.4472 0)
(0.8944 0.447199 0)
(0.8944 0.4472 0)
(0.8944 0.4472 0)
(0.8944 0.447199 0)
(0.8944 0.4472 0)
(0.8944 0.4472 0)
(0.894399 0.447199 0)
(0.8944 0.4472 0)
(0.8944 0.447201 0)
(0.894401 0.447199 0)
(0.894399 0.4472 0)
(0.894401 0.4472 0)
(0.894399 0.4472 0)
(0.894401 0.447201 0)
(0.894398 0.447199 0)
(0.894402 0.4472 0)
(0.8944 0.447201 0)
(0.894401 0.4472 0)
(0.894402 0.4472 0)
(0.894402 0.447202 0)
(0.894404 0.447199 0)
(0.894406 0.447202 0)
(0.894409 0.447205 0)
(0.894411 0.447202 0)
(0.894418 0.447207 0)
(0.894424 0.44721 0)
(0.894434 0.447213 0)
(0.894444 0.447217 0)
(0.894456 0.447224 0)
(0.894469 0.44723 0)
(0.894479 0.447237 0)
(0.894485 0.447243 0)
(0.894482 0.447243 0)
(0.894455 0.447236 0)
(0.894392 0.447211 0)
(0.894267 0.447156 0)
(0.894052 0.447051 0)
(0.893699 0.446868 0)
(0.893143 0.446568 0)
(0.892312 0.44609 0)
(0.891113 0.44537 0)
(0.88943 0.444314 0)
(0.887153 0.442817 0)
(0.884217 0.440784 0)
(0.880656 0.438172 0)
(0.876735 0.435098 0)
(0.872948 0.43186 0)
(0.894424 0.44719 0)
(0.894417 0.447193 0)
(0.894412 0.447195 0)
(0.894409 0.447197 0)
(0.894406 0.447198 0)
(0.894404 0.447198 0)
(0.894403 0.447199 0)
(0.894402 0.447199 0)
(0.894401 0.447199 0)
(0.894401 0.4472 0)
(0.8944 0.4472 0)
(0.894401 0.4472 0)
(0.8944 0.4472 0)
(0.8944 0.4472 0)
(0.8944 0.4472 0)
(0.8944 0.4472 0)
(0.8944 0.4472 0)
(0.8944 0.4472 0)
(0.8944 0.4472 0)
(0.8944 0.4472 0)
(0.8944 0.4472 0)
(0.8944 0.4472 0)
(0.8944 0.4472 0)
(0.8944 0.4472 0)
(0.8944 0.4472 0)
(0.8944 0.4472 0)
(0.8944 0.447201 0)
(0.8944 0.4472 0)
(0.8944 0.4472 0)
(0.8944 0.4472 0)
(0.894401 0.4472 0)
(0.894399 0.4472 0)
(0.8944 0.447199 0)
(0.8944 0.447201 0)
(0.8944 0.4472 0)
(0.8944 0.447199 0)
(0.8944 0.447201 0)
(0.894399 0.447199 0)
(0.894401 0.4472 0)
(0.894399 0.4472 0)
(0.8944 0.4472 0)
(0.8944 0.4472 0)
(0.894401 0.4472 0)
(0.894398 0.447201 0)
(0.894403 0.447199 0)
(0.8944 0.447202 0)
(0.8944 0.447199 0)
(0.894404 0.447202 0)
(0.894401 0.447202 0)
(0.894406 0.4472 0)
(0.894408 0.447205 0)
(0.89441 0.447203 0)
(0.894415 0.447206 0)
(0.894424 0.447209 0)
(0.894427 0.447213 0)
(0.894442 0.447217 0)
(0.894451 0.447223 0)
(0.894462 0.447229 0)
(0.894476 0.447239 0)
(0.894483 0.447243 0)
(0.894481 0.447248 0)
(0.894464 0.447245 0)
(0.894417 0.447225 0)
(0.894321 0.447184 0)
(0.89415 0.447102 0)
(0.893862 0.446951 0)
(0.89341 0.446698 0)
(0.892728 0.446297 0)
(0.891727 0.445681 0)
(0.890317 0.44477 0)
(0.888395 0.443464 0)
(0.885866 0.441659 0)
(0.882709 0.439279 0)
(0.879063 0.436353 0)
(0.875298 0.433086 0)
(0.894421 0.44719 0)
(0.894415 0.447193 0)
(0.894411 0.447195 0)
(0.894408 0.447197 0)
(0.894405 0.447198 0)
(0.894404 0.447198 0)
(0.894403 0.447199 0)
(0.894402 0.447199 0)
(0.894401 0.447199 0)
(0.894401 0.4472 0)
(0.894401 0.4472 0)
(0.8944 0.4472 0)
(0.8944 0.4472 0)
(0.8944 0.4472 0)
(0.8944 0.4472 0)
(0.8944 0.4472 0)
(0.8944 0.4472 0)
(0.8944 0.4472 0)
(0.8944 0.4472 0)
(0.8944 0.4472 0)
(0.8944 0.4472 0)
(0.8944 0.4472 0)
(0.8944 0.4472 0)
(0.8944 0.4472 0)
(0.8944 0.4472 0)
(0.8944 0.4472 0)
(0.8944 0.4472 0)
(0.8944 0.4472 0)
(0.8944 0.4472 0)
(0.8944 0.4472 0)
(0.894399 0.4472 0)
(0.894401 0.4472 0)
(0.8944 0.4472 0)
(0.8944 0.4472 0)
(0.894401 0.4472 0)
(0.8944 0.4472 0)
(0.894399 0.4472 0)
(0.8944 0.4472 0)
(0.8944 0.4472 0)
(0.894399 0.4472 0)
(0.894401 0.4472 0)
(0.894399 0.4472 0)
(0.894401 0.447201 0)
(0.8944 0.447199 0)
(0.8944 0.4472 0)
(0.8944 0.4472 0)
(0.894402 0.447201 0)
(0.894401 0.447199 0)
(0.894403 0.447202 0)
(0.894404 0.447201 0)
(0.894406 0.447202 0)
(0.89441 0.447206 0)
(0.894414 0.447205 0)
(0.894418 0.447209 0)
(0.894428 0.447211 0)
(0.894435 0.447218 0)
(0.894446 0.447223 0)
(0.894459 0.447227 0)
(0.894469 0.447238 0)
(0.894479 0.447244 0)
(0.894481 0.44725 0)
(0.89447 0.44725 0)
(0.894436 0.447239 0)
(0.894361 0.447207 0)
(0.894227 0.447144 0)
(0.894001 0.447022 0)
(0.893633 0.446814 0)
(0.893074 0.44648 0)
(0.892255 0.445959 0)
(0.891087 0.445182 0)
(0.889475 0.444059 0)
(0.887334 0.442486 0)
(0.8846 0.440367 0)
(0.881318 0.437667 0)
(0.877723 0.434491 0)
(0.894418 0.447191 0)
(0.894413 0.447194 0)
(0.89441 0.447196 0)
(0.894407 0.447197 0)
(0.894405 0.447198 0)
(0.894403 0.447199 0)
(0.894402 0.447199 0)
(0.894401 0.4472 0)
(0.894401 0.4472 0)
(0.894401 0.4472 0)
(0.8944 0.4472 0)
(0.8944 0.4472 0)
(0.8944 0.4472 0)
(0.8944 0.4472 0)
(0.8944 0.4472 0)
(0.8944 0.4472 0)
(0.8944 0.4472 0)
(0.8944 0.4472 0)
(0.8944 0.4472 0)
(0.8944 0.4472 0)
(0.8944 0.4472 0)
(0.8944 0.4472 0)
(0.8944 0.4472 0)
(0.8944 0.4472 0)
(0.8944 0.4472 0)
(0.8944 0.4472 0)
(0.8944 0.4472 0)
(0.8944 0.4472 0)
(0.8944 0.4472 0)
(0.8944 0.4472 0)
(0.8944 0.4472 0)
(0.8944 0.4472 0)
(0.8944 0.4472 0)
(0.894399 0.4472 0)
(0.894401 0.4472 0)
(0.8944 0.447201 0)
(0.8944 0.447199 0)
(0.8944 0.447201 0)
(0.894399 0.4472 0)
(0.894401 0.447199 0)
(0.8944 0.447201 0)
(0.894399 0.4472 0)
(0.894401 0.447199 0)
(0.8944 0.447201 0)
(0.894399 0.4472 0)
(0.894401 0.4472 0)
(0.894401 0.447201 0)
(0.894401 0.447201 0)
(0.894403 0.4472 0)
(0.894404 0.447203 0)
(0.894405 0.4472 0)
(0.89441 0.447205 0)
(0.894413 0.447206 0)
(0.894416 0.447207 0)
(0.894424 0.447212 0)
(0.894433 0.447215 0)
(0.894441 0.447222 0)
(0.894455 0.447227 0)
(0.894462 0.447237 0)
(0.894471 0.447244 0)
(0.894482 0.447249 0)
(0.894472 0.447255 0)
(0.894446 0.447249 0)
(0.894395 0.447225 0)
(0.894288 0.447176 0)
(0.894106 0.447081 0)
(0.893817 0.446915 0)
(0.893365 0.446637 0)
(0.892699 0.446205 0)
(0.89174 0.445553 0)
(0.890408 0.444599 0)
(0.888617 0.443245 0)
(0.886295 0.441397 0)
(0.883423 0.438978 0)
(0.88012 0.436005 0)
(0.894416 0.447192 0)
(0.894412 0.447194 0)
(0.894408 0.447196 0)
(0.894406 0.447197 0)
(0.894404 0.447198 0)
(0.894403 0.447199 0)
(0.894402 0.447199 0)
(0.894401 0.447199 0)
(0.894401 0.4472 0)
(0.894401 0.4472 0)
(0.8944 0.4472 0)
(0.8944 0.4472 0)
(0.8944 0.4472 0)
(0.8944 0.4472 0)
(0.8944 0.4472 0)
(0.8944 0.4472 0)
(0.8944 0.4472 0)
(0.8944 0.4472 0)
(0.8944 0.4472 0)
(0.8944 0.4472 0)
(0.8944 0.4472 0)
(0.8944 0.4472 0)
(0.8944 0.4472 0)
(0.8944 0.4472 0)
(0.8944 0.4472 0)
(0.894401 0.4472 0)
(0.894399 0.4472 0)
(0.894401 0.4472 0)
(0.8944 0.4472 0)
(0.8944 0.4472 0)
(0.894399 0.4472 0)
(0.894401 0.4472 0)
(0.8944 0.4472 0)
(0.8944 0.4472 0)
(0.8944 0.4472 0)
(0.894401 0.4472 0)
(0.894399 0.4472 0)
(0.8944 0.447199 0)
(0.8944 0.4472 0)
(0.894399 0.4472 0)
(0.894401 0.4472 0)
(0.894399 0.4472 0)
(0.8944 0.447201 0)
(0.894401 0.447199 0)
(0.8944 0.447201 0)
(0.894401 0.4472 0)
(0.894401 0.447199 0)
(0.894401 0.447202 0)
(0.894402 0.4472 0)
(0.894404 0.447201 0)
(0.894405 0.447203 0)
(0.894406 0.447201 0)
(0.894413 0.447207 0)
(0.894415 0.447207 0)
(0.894421 0.44721 0)
(0.894429 0.447215 0)
(0.894436 0.447218 0)
(0.894448 0.447228 0)
(0.89446 0.447233 0)
(0.894466 0.447242 0)
(0.894473 0.447251 0)
(0.894473 0.447254 0)
(0.894456 0.447254 0)
(0.894414 0.44724 0)
(0.894338 0.447204 0)
(0.894195 0.447131 0)
(0.893964 0.446995 0)
(0.893607 0.446774 0)
(0.893065 0.44642 0)
(0.892287 0.445876 0)
(0.891202 0.445075 0)
(0.889722 0.443931 0)
(0.887777 0.442345 0)
(0.885327 0.44023 0)
(0.8824 0.43754 0)
(0.894414 0.447192 0)
(0.89441 0.447195 0)
(0.894407 0.447196 0)
(0.894405 0.447197 0)
(0.894404 0.447198 0)
(0.894402 0.447199 0)
(0.894402 0.447199 0)
(0.894401 0.447199 0)
(0.894401 0.4472 0)
(0.8944 0.4472 0)
(0.8944 0.4472 0)
(0.8944 0.4472 0)
(0.8944 0.4472 0)
(0.8944 0.4472 0)
(0.8944 0.4472 0)
(0.8944 0.4472 0)
(0.8944 0.4472 0)
(0.8944 0.4472 0)
(0.8944 0.4472 0)
(0.8944 0.4472 0)
(0.8944 0.4472 0)
(0.8944 0.4472 0)
(0.8944 0.4472 0)
(0.8944 0.4472 0)
(0.8944 0.4472 0)
(0.8944 0.4472 0)
(0.8944 0.4472 0)
(0.8944 0.4472 0)
(0.8944 0.4472 0)
(0.8944 0.4472 0)
(0.8944 0.4472 0)
(0.8944 0.4472 0)
(0.8944 0.447199 0)
(0.8944 0.447201 0)
(0.894401 0.447199 0)
(0.894399 0.4472 0)
(0.8944 0.4472 0)
(0.8944 0.4472 0)
(0.894399 0.4472 0)
(0.894401 0.4472 0)
(0.894399 0.447199 0)
(0.894401 0.447201 0)
(0.894399 0.447199 0)
(0.894401 0.4472 0)
(0.8944 0.4472 0)
(0.8944 0.4472 0)
(0.894402 0.447201 0)
(0.8944 0.447201 0)
(0.894402 0.447201 0)
(0.894403 0.447201 0)
(0.894405 0.447202 0)
(0.894405 0.447203 0)
(0.89441 0.447203 0)
(0.894413 0.447208 0)
(0.894419 0.44721 0)
(0.894424 0.447211 0)
(0.894434 0.44722 0)
(0.89444 0.447224 0)
(0.894452 0.447232 0)
(0.894463 0.447241 0)
(0.894466 0.447248 0)
(0.894471 0.447257 0)
(0.89446 0.447256 0)
(0.894429 0.44725 0)
(0.894372 0.447224 0)
(0.894263 0.447169 0)
(0.894082 0.447065 0)
(0.893799 0.446886 0)
(0.893371 0.446601 0)
(0.892745 0.446156 0)
(0.891863 0.445492 0)
(0.890657 0.444537 0)
(0.889055 0.443197 0)
(0.887 0.44138 0)
(0.884483 0.439016 0)
(0.894412 0.447193 0)
(0.894409 0.447195 0)
(0.894406 0.447197 0)
(0.894404 0.447198 0)
(0.894403 0.447198 0)
(0.894402 0.447199 0)
(0.894402 0.447199 0)
(0.894401 0.4472 0)
(0.894401 0.447199 0)
(0.8944 0.4472 0)
(0.8944 0.4472 0)
(0.8944 0.4472 0)
(0.8944 0.4472 0)
(0.8944 0.4472 0)
(0.8944 0.4472 0)
(0.8944 0.4472 0)
(0.8944 0.4472 0)
(0.8944 0.4472 0)
(0.8944 0.4472 0)
(0.8944 0.4472 0)
(0.8944 0.4472 0)
(0.8944 0.4472 0)
(0.8944 0.4472 0)
(0.8944 0.4472 0)
(0.8944 0.4472 0)
(0.8944 0.4472 0)
(0.8944 0.4472 0)
(0.8944 0.4472 0)
(0.8944 0.4472 0)
(0.8944 0.4472 0)
(0.8944 0.4472 0)
(0.8944 0.4472 0)
(0.8944 0.4472 0)
(0.8944 0.4472 0)
(0.8944 0.4472 0)
(0.8944 0.4472 0)
(0.8944 0.4472 0)
(0.894401 0.4472 0)
(0.894399 0.4472 0)
(0.8944 0.4472 0)
(0.8944 0.447201 0)
(0.8944 0.447199 0)
(0.8944 0.4472 0)
(0.894399 0.4472 0)
(0.894401 0.4472 0)
(0.8944 0.447201 0)
(0.894401 0.447199 0)
(0.894401 0.447201 0)
(0.894401 0.447201 0)
(0.894404 0.447201 0)
(0.894401 0.4472 0)
(0.894407 0.447205 0)
(0.894407 0.447203 0)
(0.894412 0.447205 0)
(0.894416 0.447211 0)
(0.894422 0.447211 0)
(0.89443 0.447216 0)
(0.894435 0.447225 0)
(0.894447 0.447227 0)
(0.894456 0.447238 0)
(0.894462 0.447248 0)
(0.894465 0.447252 0)
(0.894462 0.447259 0)
(0.894442 0.447256 0)
(0.894395 0.447238 0)
(0.894315 0.447199 0)
(0.894177 0.44712 0)
(0.893953 0.44698 0)
(0.893613 0.446751 0)
(0.893117 0.446393 0)
(0.892412 0.44585 0)
(0.891438 0.445062 0)
(0.890133 0.443948 0)
(0.888441 0.442415 0)
(0.886324 0.440383 0)
(0.89441 0.447194 0)
(0.894408 0.447196 0)
(0.894405 0.447197 0)
(0.894404 0.447198 0)
(0.894403 0.447199 0)
(0.894402 0.447199 0)
(0.894401 0.447199 0)
(0.894401 0.4472 0)
(0.8944 0.4472 0)
(0.8944 0.4472 0)
(0.8944 0.4472 0)
(0.8944 0.4472 0)
(0.8944 0.4472 0)
(0.8944 0.4472 0)
(0.8944 0.4472 0)
(0.8944 0.4472 0)
(0.8944 0.4472 0)
(0.8944 0.4472 0)
(0.8944 0.4472 0)
(0.8944 0.4472 0)
(0.8944 0.4472 0)
(0.8944 0.4472 0)
(0.8944 0.4472 0)
(0.8944 0.4472 0)
(0.8944 0.4472 0)
(0.8944 0.4472 0)
(0.8944 0.4472 0)
(0.8944 0.4472 0)
(0.8944 0.4472 0)
(0.8944 0.4472 0)
(0.8944 0.4472 0)
(0.8944 0.4472 0)
(0.8944 0.4472 0)
(0.8944 0.447201 0)
(0.894401 0.4472 0)
(0.8944 0.4472 0)
(0.8944 0.4472 0)
(0.894401 0.4472 0)
(0.894399 0.4472 0)
(0.8944 0.4472 0)
(0.894401 0.4472 0)
(0.894398 0.4472 0)
(0.894402 0.447199 0)
(0.894399 0.4472 0)
(0.8944 0.4472 0)
(0.894402 0.447201 0)
(0.8944 0.4472 0)
(0.894401 0.447201 0)
(0.894402 0.4472 0)
(0.894402 0.447201 0)
(0.894404 0.447201 0)
(0.894403 0.447202 0)
(0.894408 0.447204 0)
(0.89441 0.447205 0)
(0.894414 0.447207 0)
(0.894418 0.447213 0)
(0.894424 0.447214 0)
(0.894434 0.447219 0)
(0.894439 0.44723 0)
(0.89445 0.447234 0)
(0.894456 0.447242 0)
(0.894461 0.447254 0)
(0.89446 0.447257 0)
(0.894446 0.44726 0)
(0.894413 0.447249 0)
(0.894352 0.447219 0)
(0.894247 0.447163 0)
(0.894074 0.447056 0)
(0.89381 0.446873 0)
(0.893419 0.446588 0)
(0.892858 0.446154 0)
(0.89208 0.445509 0)
(0.89103 0.444591 0)
(0.889657 0.443323 0)
(0.887913 0.441615 0)
(0.894409 0.447194 0)
(0.894406 0.447196 0)
(0.894405 0.447197 0)
(0.894403 0.447198 0)
(0.894402 0.447199 0)
(0.894402 0.447199 0)
(0.894401 0.447199 0)
(0.894401 0.4472 0)
(0.8944 0.4472 0)
(0.8944 0.4472 0)
(0.8944 0.4472 0)
(0.8944 0.4472 0)
(0.8944 0.4472 0)
(0.8944 0.4472 0)
(0.8944 0.4472 0)
(0.8944 0.4472 0)
(0.8944 0.4472 0)
(0.8944 0.4472 0)
(0.8944 0.4472 0)
(0.8944 0.4472 0)
(0.8944 0.4472 0)
(0.8944 0.4472 0)
(0.8944 0.4472 0)
(0.8944 0.4472 0)
(0.8944 0.4472 0)
(0.8944 0.4472 0)
(0.8944 0.4472 0)
(0.8944 0.4472 0)
(0.8944 0.447201 0)
(0.8944 0.447199 0)
(0.8944 0.4472 0)
(0.8944 0.4472 0)
(0.8944 0.4472 0)
(0.8944 0.4472 0)
(0.8944 0.4472 0)
(0.894399 0.447201 0)
(0.894401 0.447199 0)
(0.8944 0.4472 0)
(0.894401 0.447201 0)
(0.894399 0.447199 0)
(0.8944 0.4472 0)
(0.8944 0.4472 0)
(0.8944 0.4472 0)
(0.894401 0.4472 0)
(0.894399 0.4472 0)
(0.894401 0.4472 0)
(0.894401 0.4472 0)
(0.894399 0.447201 0)
(0.894403 0.447199 0)
(0.894401 0.447201 0)
(0.894402 0.447203 0)
(0.894405 0.4472 0)
(0.894405 0.447203 0)
(0.894408 0.447206 0)
(0.894411 0.447206 0)
(0.894418 0.447209 0)
(0.89442 0.447215 0)
(0.894429 0.447218 0)
(0.894434 0.447224 0)
(0.894444 0.447234 0)
(0.894449 0.447238 0)
(0.894454 0.44725 0)
(0.894457 0.447257 0)
(0.894446 0.447257 0)
(0.894425 0.447256 0)
(0.89438 0.447237 0)
(0.894299 0.447191 0)
(0.894168 0.447115 0)
(0.893963 0.446975 0)
(0.893659 0.446747 0)
(0.893218 0.446403 0)
(0.892604 0.445887 0)
(0.891769 0.445139 0)
(0.890664 0.444101 0)
(0.889249 0.442689 0)
(0.894407 0.447195 0)
(0.894405 0.447197 0)
(0.894404 0.447198 0)
(0.894403 0.447198 0)
(0.894402 0.447199 0)
(0.894401 0.447199 0)
(0.894401 0.4472 0)
(0.894401 0.4472 0)
(0.8944 0.4472 0)
(0.8944 0.4472 0)
(0.8944 0.4472 0)
(0.8944 0.4472 0)
(0.8944 0.4472 0)
(0.8944 0.4472 0)
(0.8944 0.4472 0)
(0.8944 0.4472 0)
(0.8944 0.4472 0)
(0.8944 0.4472 0)
(0.8944 0.4472 0)
(0.8944 0.4472 0)
(0.8944 0.4472 0)
(0.8944 0.4472 0)
(0.8944 0.4472 0)
(0.8944 0.4472 0)
(0.8944 0.4472 0)
(0.8944 0.4472 0)
(0.8944 0.4472 0)
(0.8944 0.4472 0)
(0.8944 0.4472 0)
(0.8944 0.447199 0)
(0.8944 0.4472 0)
(0.8944 0.4472 0)
(0.8944 0.447201 0)
(0.8944 0.4472 0)
(0.894401 0.447199 0)
(0.894399 0.447201 0)
(0.894401 0.447199 0)
(0.894399 0.4472 0)
(0.894401 0.4472 0)
(0.8944 0.4472 0)
(0.894399 0.4472 0)
(0.894401 0.447199 0)
(0.8944 0.4472 0)
(0.894399 0.447201 0)
(0.894401 0.4472 0)
(0.8944 0.447199 0)
(0.8944 0.447201 0)
(0.894402 0.4472 0)
(0.8944 0.4472 0)
(0.894402 0.447202 0)
(0.894401 0.4472 0)
(0.894405 0.447202 0)
(0.894405 0.447203 0)
(0.894406 0.447203 0)
(0.894411 0.447207 0)
(0.894413 0.447209 0)
(0.894418 0.447212 0)
(0.894423 0.447218 0)
(0.894432 0.447221 0)
(0.894435 0.44723 0)
(0.894446 0.447238 0)
(0.89445 0.447244 0)
(0.894449 0.447252 0)
(0.894448 0.447259 0)
(0.894432 0.447257 0)
(0.894396 0.447244 0)
(0.894338 0.447217 0)
(0.894239 0.447157 0)
(0.894082 0.447052 0)
(0.893847 0.446878 0)
(0.893504 0.446605 0)
(0.893022 0.446196 0)
(0.892365 0.4456 0)
(0.891491 0.444758 0)
(0.890357 0.443604 0)
(0.894406 0.447196 0)
(0.894405 0.447197 0)
(0.894403 0.447198 0)
(0.894402 0.447199 0)
(0.894402 0.447199 0)
(0.894401 0.447199 0)
(0.894401 0.4472 0)
(0.8944 0.4472 0)
(0.8944 0.4472 0)
(0.8944 0.4472 0)
(0.8944 0.4472 0)
(0.8944 0.4472 0)
(0.8944 0.4472 0)
(0.8944 0.4472 0)
(0.8944 0.4472 0)
(0.8944 0.4472 0)
(0.8944 0.4472 0)
(0.8944 0.4472 0)
(0.8944 0.4472 0)
(0.8944 0.4472 0)
(0.8944 0.4472 0)
(0.8944 0.4472 0)
(0.8944 0.4472 0)
(0.8944 0.4472 0)
(0.8944 0.4472 0)
(0.8944 0.4472 0)
(0.8944 0.4472 0)
(0.8944 0.4472 0)
(0.8944 0.4472 0)
(0.8944 0.4472 0)
(0.8944 0.4472 0)
(0.894401 0.4472 0)
(0.894399 0.4472 0)
(0.894401 0.4472 0)
(0.894399 0.4472 0)
(0.894401 0.4472 0)
(0.894399 0.4472 0)
(0.8944 0.4472 0)
(0.8944 0.447199 0)
(0.894401 0.447201 0)
(0.894399 0.4472 0)
(0.894401 0.4472 0)
(0.8944 0.4472 0)
(0.8944 0.447199 0)
(0.894401 0.447201 0)
(0.8944 0.4472 0)
(0.8944 0.4472 0)
(0.894401 0.4472 0)
(0.894401 0.4472 0)
(0.894401 0.447201 0)
(0.894403 0.447201 0)
(0.894401 0.447202 0)
(0.894407 0.447202 0)
(0.894404 0.447204 0)
(0.89441 0.447205 0)
(0.89441 0.447209 0)
(0.894416 0.44721 0)
(0.894419 0.447215 0)
(0.894427 0.447219 0)
(0.894431 0.447226 0)
(0.894438 0.447233 0)
(0.894444 0.44724 0)
(0.894446 0.447249 0)
(0.894443 0.447255 0)
(0.894434 0.447257 0)
(0.894411 0.44725 0)
(0.894366 0.447232 0)
(0.894291 0.447189 0)
(0.894173 0.44711 0)
(0.893992 0.446979 0)
(0.893729 0.446768 0)
(0.893357 0.446447 0)
(0.892843 0.445978 0)
(0.892156 0.445305 0)
(0.891261 0.444374 0)
(0.894405 0.447196 0)
(0.894404 0.447197 0)
(0.894403 0.447198 0)
(0.894402 0.447199 0)
(0.894401 0.447199 0)
(0.894401 0.4472 0)
(0.894401 0.447199 0)
(0.8944 0.4472 0)
(0.8944 0.4472 0)
(0.8944 0.4472 0)
(0.8944 0.4472 0)
(0.8944 0.4472 0)
(0.8944 0.4472 0)
(0.8944 0.4472 0)
(0.8944 0.4472 0)
(0.8944 0.4472 0)
(0.8944 0.4472 0)
(0.8944 0.4472 0)
(0.8944 0.4472 0)